FOO
141312
    1MOL0     O    1  10.973   6.890   8.922  0.2425 -0.9635  0.1841
    1MOL0     C    2  10.882   6.865   8.847  0.4566  1.2362  0.2642
    1MOL0     O    3  10.777   6.777   8.883  0.7207 -0.0134 -0.0989
    1MOL0     C    4  10.743   6.748   9.015  0.0401 -0.7520  0.3813
    1MOL0     C    5  10.734   6.618   9.058 -0.3166  0.7819 -0.5013
    1MOL0     C    6  10.684   6.579   9.182 -0.6437 -0.2740 -0.9370
    1MOL0     C    7  10.634   6.686   9.274  0.0922 -0.2549  0.0486
    1MOL0     O    8  10.584   6.670   9.406  0.5572  0.9607 -0.3698
    1MOL0     C    9  10.561   6.540   9.455 -0.3486  0.0110 -0.4965
    1MOL0     C   10  10.534   6.556   9.612 -0.4688  0.3047 -0.9411
    1MOL0     C   11  10.492   6.418   9.656  0.6815  0.0599 -0.2227
    1MOL0     C   12  10.451   6.437   9.804 -0.9616  0.0187  0.0907
    1MOL0     C   13  10.387   6.314   9.860  0.6700 -0.0298  0.3058
    1MOL0     C   14  10.321   6.352   9.996 -1.3717  0.1573  0.2275
    1MOL0     C   15  10.264   6.236  10.058  0.8188 -0.2905 -0.8268
    1MOL0     C   16  10.117   6.219  10.035  0.8438 -0.2740  0.3512
    1MOL0     N   17  10.059   6.092  10.098  0.0739  0.2415 -0.6858
    1MOL0     C   18  10.014   6.085  10.225  0.0257 -0.6776 -0.5331
    1MOL0     C   19   9.966   5.961  10.246 -0.3110 -0.7391  0.8660
    1MOL0     C   20   9.919   5.890  10.377 -0.4326  0.8568  0.6991
    1MOL0     C   21   9.846   5.762  10.348 -0.0872 -0.1423 -0.0776
    1MOL0     C   22   9.779   5.687  10.474 -0.1692 -0.0150  0.0346
    1MOL0     C   23   9.693   5.556  10.434 -0.3212  0.7144 -0.0802
    1MOL0     O   24   9.599   5.573  10.325 -0.3343  0.8543 -0.7796
    1MOL0     C   25   9.466   5.597  10.346  1.0721  1.1434 -0.4309
    1MOL0     C   26   9.410   5.650  10.463 -0.7512 -0.2626  0.2701
    1MOL0     C   27   9.274   5.668  10.477 -0.4652  0.2280  0.3010
    1MOL0     C   28   9.228   5.743  10.606 -0.0641 -0.0878 -0.3933
    1MOL0     C   29   9.190   5.655  10.367 -0.6264  1.0114 -0.7587
    1MOL0     C   30   9.044   5.691  10.377 -0.0412  0.6477 -0.8736
    1MOL0     O   31   8.975   5.682  10.494 -0.3355  0.3428 -0.0414
    1MOL0     C   32   8.850   5.718  10.489  0.1499 -0.0601 -0.0343
    1MOL0     C   33   8.807   5.824  10.559  0.7307 -0.1960  0.6483
    1MOL0     C   34   8.666   5.858  10.566 -0.4738  0.2787 -0.7398
    1MOL0     C   35   8.575   5.772  10.499  0.4732  0.3926  0.3845
    1MOL0     O   36   8.439   5.784  10.504  0.3091  0.4642  0.0554
    1MOL0     C   37   8.380   5.900  10.580 -0.1514  0.8294 -0.2916
    1MOL0     C   38   8.245   5.933  10.516  0.0321 -0.0064  0.4596
    1MOL0     C   39   8.193   6.059  10.567  0.7510  0.4492 -0.1360
    1MOL0     C   40   8.051   6.084  10.530 -0.3149  0.0818 -0.4280
    1MOL0     C   41   8.021   6.235  10.548 -0.4105 -0.1371 -0.0210
    1MOL0     C   42   8.023   6.283  10.689  0.1233 -0.0778 -0.8305
    1MOL0     C   43   7.964   6.430  10.710  0.7427  0.6243  0.7744
    1MOL0     C   44   7.810   6.440  10.708  0.6952  0.2288  0.4830
    1MOL0    Cl   45   7.716   6.337  10.598  0.3461  0.0437  0.2287
    1MOL0     C   46   8.621   5.658  10.427 -0.5878  0.0492 -0.0501
    1MOL0     C   47   8.758   5.625  10.429  0.5380 -0.1064  0.4225
    1MOL0     O   48   8.999   5.742  10.276 -0.6755 -0.0998  0.1543
    1MOL0     C   49   9.249   5.613  10.252  0.0305 -0.1186  0.6689
    1MOL0     C   50   9.384   5.581  10.234  0.2360 -0.1024 -0.5321
    1MOL0     N   51   9.995   5.891  10.132  0.2580 -0.0991  0.2976
    1MOL0     N   52  10.044   5.971  10.041 -0.2542  0.6165  0.2732
    1MOL0     C   53  10.637   6.812   9.228 -0.3385  1.2873 -0.8446
    1MOL0     C   54  10.697   6.848   9.112 -0.3520  0.6604  0.1172
    1MOL0     C   55  10.896   6.912   8.706 -0.4472  1.1339  0.2595
    1MOL0     C   56  11.015   6.985   8.671 -0.6427  0.1773  0.6803
    1MOL0     C   57  11.051   7.013   8.538 -0.0808 -0.4027 -0.1342
    1MOL0     C   58  10.947   6.991   8.438 -0.1683 -0.1430 -0.6490
    1MOL0     O   59  10.962   7.032   8.307 -0.1667 -0.3690 -0.1810
    1MOL0     C   60  11.061   7.128   8.278 -0.2931 -0.1626 -0.2395
    1MOL0     C   61  11.054   7.191   8.135 -0.1954  0.1135 -0.4932
    1MOL0     C   62  11.148   7.317   8.131 -0.4418  0.0517  0.1480
    1MOL0     C   63  11.125   7.410   8.013 -0.0794  0.4724  0.5863
    1MOL0     C   64  10.991   7.477   8.028  0.3466  0.1814 -0.2324
    1MOL0     C   65  10.873   7.515   8.036 -0.7501 -1.4133  0.0916
    1MOL0     C   66  10.826   6.927   8.469 -0.2129 -0.4364 -0.1948
    1MOL0     C   67  10.800   6.888   8.604 -0.5689  0.8433  1.0119
    1MOL0     C   68  10.664   6.822   8.641  0.2195 -0.2275 -0.8607
    1MOL0     H   69  10.762   6.528   9.004 -2.9113  0.0791 -0.8559
    1MOL0     H   70  10.693   6.481   9.228 -1.6159  0.5639  1.2226
    1MOL0     H   71  10.647   6.475   9.435 -1.8140 -1.9797 -0.6229
    1MOL0     H   72  10.479   6.501   9.394 -0.8148  2.9065 -1.8843
    1MOL0     H   73  10.622   6.588   9.668 -1.0292  0.0531  0.1106
    1MOL0     H   74  10.462   6.637   9.627  1.4455  2.4072 -2.3704
    1MOL0     H   75  10.400   6.400   9.599 -0.4802  0.2304  1.5146
    1MOL0     H   76  10.556   6.330   9.640 -1.6198 -1.6706 -0.4440
    1MOL0     H   77  10.545   6.457   9.855 -0.7050 -3.0957  0.9920
    1MOL0     H   78  10.384   6.524   9.803  0.5295  1.1916 -0.1181
    1MOL0     H   79  10.460   6.233   9.871  3.0413  1.8316 -0.7848
    1MOL0     H   80  10.309   6.264   9.800  2.3884 -2.5306 -0.0071
    1MOL0     H   81  10.396   6.379  10.071 -2.6269  0.0765  1.5427
    1MOL0     H   82  10.252   6.435   9.976 -1.5264 -0.1192 -0.4200
    1MOL0     H   83  10.284   6.244  10.165  2.4319  2.6818 -1.2581
    1MOL0     H   84  10.315   6.147  10.020  1.4192 -1.2186  1.9351
    1MOL0     H   85  10.059   6.309  10.061  2.5012  1.0286 -0.3056
    1MOL0     H   86  10.102   6.216   9.927  1.8184  1.0041  0.1589
    1MOL0     H   87  10.018   6.169  10.293  1.3091 -0.3477 -0.9920
    1MOL0     H   88   9.844   5.959  10.418 -1.1249  0.3180  0.3656
    1MOL0     H   89   9.997   5.896  10.453  0.2532  2.1775 -0.0662
    1MOL0     H   90   9.764   5.781  10.278  4.2420  1.8302 -5.2957
    1MOL0     H   91   9.923   5.701  10.301  1.1831  0.6843  0.8816
    1MOL0     H   92   9.857   5.661  10.545  0.4071  1.2559 -0.1032
    1MOL0     H   93   9.716   5.756  10.531  1.1248 -0.6043  2.3011
    1MOL0     H   94   9.756   5.474  10.398  3.8860  2.6046  2.2043
    1MOL0     H   95   9.654   5.513  10.527 -1.1220 -2.5143 -1.7522
    1MOL0     H   96   9.475   5.672  10.547  1.1628  1.4480 -1.5384
    1MOL0     H   97   9.303   5.795  10.665 -0.5900  1.0204 -0.6810
    1MOL0     H   98   9.185   5.668  10.674  2.7989 -0.8408  0.7561
    1MOL0     H   99   9.157   5.822  10.579  0.8202  0.8081 -0.1460
    1MOL0     H  100   8.884   5.876  10.615  1.8114 -0.0137 -0.9385
    1MOL0     H  101   8.637   5.937  10.634  0.7464 -0.3778  0.5883
    1MOL0     H  102   8.354   5.865  10.681  1.0551  0.0403 -0.2244
    1MOL0     H  103   8.439   5.992  10.578  0.8509  0.4055  3.0225
    1MOL0     H  104   8.267   5.948  10.410  0.5126  0.4117  0.6132
    1MOL0     H  105   8.165   5.859  10.531 -2.2985  1.8323 -2.0349
    1MOL0     H  106   8.248   6.145  10.528 -1.3640  0.6831 -2.8556
    1MOL0     H  107   8.219   6.067  10.673  1.5244 -0.2278 -0.2676
    1MOL0     H  108   7.981   6.025  10.590  3.1099 -3.2877  0.6420
    1MOL0     H  109   8.031   6.062  10.425 -0.3056 -3.0202  0.1155
    1MOL0     H  110   8.087   6.300  10.489 -0.8420  0.3889  0.0698
    1MOL0     H  111   7.923   6.251  10.503 -0.9566  2.8087  1.9098
    1MOL0     H  112   8.128   6.300  10.716  0.6919  2.9312 -4.2944
    1MOL0     H  113   7.968   6.202  10.738  2.0594 -1.1532 -0.3192
    1MOL0     H  114   8.012   6.484  10.628  0.6984 -2.7164 -1.6933
    1MOL0     H  115   7.992   6.464  10.810  1.9723 -2.8043  1.7417
    1MOL0     H  116   7.788   6.544  10.684  0.6335  0.0391 -0.3072
    1MOL0     H  117   7.764   6.413  10.804  1.4927 -2.9011  0.1181
    1MOL0     H  118   8.548   5.592  10.380  0.3988 -1.5290  0.5268
    1MOL0     H  119   8.785   5.533  10.377 -0.7048  0.4521 -1.3191
    1MOL0     H  120   9.188   5.605  10.162 -0.0184  0.1048  0.6819
    1MOL0     H  121   9.415   5.559  10.132 -1.5460  1.6101 -1.5128
    1MOL0     H  122  10.605   6.902   9.278  0.7075  2.2017 -1.7691
    1MOL0     H  123  10.704   6.950   9.078  3.4962  0.8779  1.0961
    1MOL0     H  124  11.090   7.027   8.737  0.9883 -1.2205 -0.2062
    1MOL0     H  125  11.148   7.056   8.518  0.7039 -0.7491  2.5357
    1MOL0     H  126  11.029   7.201   8.353 -0.7211 -2.4374  1.9401
    1MOL0     H  127  11.162   7.089   8.297  1.5575  3.7577 -1.0668
    1MOL0     H  128  10.951   7.206   8.103 -0.5025 -0.5496  0.1389
    1MOL0     H  129  11.097   7.128   8.057  0.4795  0.3449 -0.3128
    1MOL0     H  130  11.143   7.366   8.228  0.2536 -2.7436  1.7391
    1MOL0     H  131  11.249   7.276   8.113  0.4442  1.6616  1.2646
    1MOL0     H  132  11.123   7.354   7.919  0.9454  2.0799 -0.4451
    1MOL0     H  133  11.205   7.483   7.999  2.2161 -2.0747 -0.6829
    1MOL0     H  134  10.768   7.534   8.023 -0.3613  1.7200  0.8458
    1MOL0     H  135  10.764   6.916   8.381 -0.4552  1.8443 -0.3739
    1MOL0     H  136  10.606   6.801   8.551 -0.0642 -1.2106 -0.4604
    1MOL0     H  137  10.668   6.718   8.674 -1.6401 -0.4981 -1.3713
    1MOL0     H  138  10.610   6.881   8.716 -2.6134 -3.6463  0.0552
    2MOL0     O  139  10.852   2.467   0.694 -0.2016  0.2773  0.1398
    2MOL0     C  140  10.912   2.482   0.587  0.2222  0.0632 -0.9808
    2MOL0     O  141  10.861   2.439   0.466 -0.4994 -0.6038 -0.3349
    2MOL0     C  142  10.733   2.398   0.457 -0.7767 -0.5737  0.0240
    2MOL0     C  143  10.626   2.477   0.493  0.1667 -0.1413 -0.8728
    2MOL0     C  144  10.492   2.428   0.484 -0.1012  0.0373 -0.3045
    2MOL0     C  145  10.455   2.311   0.425  0.0064  0.5476  0.2721
    2MOL0     O  146  10.312   2.284   0.418 -0.5885  0.6442  0.2247
    2MOL0     C  147  10.264   2.207   0.302 -0.1039 -0.2004 -0.2539
    2MOL0     C  148  10.232   2.298   0.178  0.0856  0.2401  0.9125
    2MOL0     C  149  10.090   2.353   0.180 -0.7130 -0.3368  0.8384
    2MOL0     C  150  10.081   2.464   0.282  0.1912 -0.0274 -0.1860
    2MOL0     C  151   9.927   2.482   0.313 -0.8525  0.6155 -0.0946
    2MOL0     C  152   9.880   2.621   0.339 -0.4731  0.5940 -0.1274
    2MOL0     C  153   9.722   2.624   0.366  0.0663  0.2386 -0.7863
    2MOL0     C  154   9.634   2.723   0.291 -0.2798  1.4258 -0.4581
    2MOL0     N  155   9.696   2.851   0.281 -0.1098 -1.2314  0.2677
    2MOL0     C  156   9.762   2.909   0.391 -0.1349 -0.8809 -0.6268
    2MOL0     C  157   9.820   3.028   0.342  0.1638  0.9282  0.4269
    2MOL0     C  158   9.884   3.131   0.415  0.3545 -0.1036 -0.3850
    2MOL0     C  159   9.828   3.272   0.402  0.3351 -0.8343  0.1295
    2MOL0     C  160   9.935   3.373   0.375 -0.5231  0.8847 -0.4733
    2MOL0     C  161  10.033   3.399   0.493 -0.5039 -0.3999 -0.0282
    2MOL0     O  162   9.973   3.463   0.609 -0.2105  0.1788  0.2066
    2MOL0     C  163   9.930   3.595   0.614 -0.7155 -0.6191 -0.4907
    2MOL0     C  164   9.878   3.638   0.736  0.4711 -0.5400 -0.6240
    2MOL0     C  165   9.812   3.768   0.758 -0.2679  0.0139 -0.3783
    2MOL0     C  166   9.740   3.805   0.883  0.1771 -0.3861  0.7799
    2MOL0     C  167   9.817   3.855   0.653 -0.7136 -0.7551 -0.5390
    2MOL0     C  168   9.766   3.996   0.646  0.2681 -0.5501 -0.0504
    2MOL0     O  169   9.746   4.049   0.521  0.7443 -1.2214 -0.2607
    2MOL0     C  170   9.798   4.178   0.513  0.7056  0.6886 -0.0871
    2MOL0     C  171   9.714   4.294   0.540  0.4998 -0.1514 -1.8350
    2MOL0     C  172   9.775   4.417   0.507  0.1501 -0.7603 -0.4718
    2MOL0     C  173   9.906   4.421   0.452 -0.2467 -0.9659  0.0162
    2MOL0     O  174   9.982   4.532   0.409 -0.2595 -0.0750  0.6151
    2MOL0     C  175   9.947   4.665   0.450  0.0688 -0.0244 -0.2057
    2MOL0     C  176   9.871   4.734   0.324 -0.4145  0.4423 -0.8992
    2MOL0     C  177   9.818   4.873   0.333  0.6610  1.0456 -0.2476
    2MOL0     C  178   9.826   4.943   0.204 -1.0669  0.6827 -0.4736
    2MOL0     C  179   9.727   5.066   0.192 -1.2979  0.7184 -0.1967
    2MOL0     C  180   9.768   5.173   0.303 -0.5569 -0.1375  0.9071
    2MOL0     C  181   9.708   5.312   0.289  0.4875  0.4961  0.3774
    2MOL0     C  182   9.801   5.422   0.336  0.3553  0.2579  0.7006
    2MOL0    Cl  183   9.712   5.556   0.386 -0.1556  0.2974 -0.2345
    2MOL0     C  184   9.978   4.307   0.442  0.1937  0.5640  0.8882
    2MOL0     C  185   9.928   4.189   0.473  0.3799  0.1520  0.2928
    2MOL0     O  186   9.743   4.057   0.748 -0.4987  0.1261 -0.2738
    2MOL0     C  187   9.872   3.812   0.529  0.7003  0.5190 -0.8712
    2MOL0     C  188   9.936   3.687   0.511 -0.2230 -0.1724  0.6262
    2MOL0     N  189   9.804   3.023   0.201  0.0158  0.1830 -0.1315
    2MOL0     N  190   9.718   2.929   0.166  0.5504 -0.1313 -1.1531
    2MOL0     C  191  10.567   2.229   0.380  0.6488  0.3596 -0.1095
    2MOL0     C  192  10.701   2.282   0.378  0.1701  0.0887 -0.4938
    2MOL0     C  193  11.033   2.572   0.596 -0.6433  0.8187 -0.6864
    2MOL0     C  194  11.037   2.681   0.509  0.0641  0.7486  0.2416
    2MOL0     C  195  11.119   2.788   0.532 -0.4687 -0.2445  0.2252
    2MOL0     C  196  11.208   2.782   0.646  0.2747 -0.0840 -0.9715
    2MOL0     O  197  11.282   2.891   0.687  0.2319  0.0603  0.4612
    2MOL0     C  198  11.199   2.995   0.731  0.1717 -0.1738  0.1864
    2MOL0     C  199  11.273   3.088   0.831  0.3237  0.4930  0.3400
    2MOL0     C  200  11.179   3.172   0.909  0.3385  0.0123  0.4702
    2MOL0     C  201  11.184   3.316   0.865 -0.5888 -0.2810 -0.2682
    2MOL0     C  202  11.306   3.374   0.904 -0.7631 -0.2091 -0.0416
    2MOL0     C  203  11.408   3.434   0.943 -0.0419 -0.8100  0.7315
    2MOL0     C  204  11.218   2.674   0.725  0.0442 -0.9882  0.4867
    2MOL0     C  205  11.128   2.569   0.702  0.0818  1.3240 -0.0626
    2MOL0     C  206  11.123   2.447   0.795  0.3562  0.4074  0.5592
    2MOL0     H  207  10.651   2.572   0.538  0.1925 -0.0591 -1.0592
    2MOL0     H  208  10.410   2.495   0.505 -0.6471  0.2546 -2.8090
    2MOL0     H  209  10.169   2.159   0.328 -2.0932  2.5182 -1.9625
    2MOL0     H  210  10.342   2.134   0.276  1.8518  2.0007 -0.9457
    2MOL0     H  211  10.305   2.377   0.165  0.7754 -0.7350 -1.8816
    2MOL0     H  212  10.241   2.234   0.089  0.3039  2.7996 -1.0146
    2MOL0     H  213  10.073   2.394   0.080  0.4881  0.9826  1.1383
    2MOL0     H  214  10.016   2.275   0.198 -0.4489 -1.1992 -1.4823
    2MOL0     H  215  10.116   2.435   0.381  1.1764 -2.4842 -1.1800
    2MOL0     H  216  10.123   2.560   0.248 -0.8949  0.3563 -0.4898
    2MOL0     H  217   9.907   2.434   0.409 -0.7410 -0.4135 -0.5643
    2MOL0     H  218   9.856   2.434   0.245 -2.2046 -0.3108  1.8761
    2MOL0     H  219   9.937   2.670   0.418 -0.7730 -0.0920  0.5255
    2MOL0     H  220   9.903   2.677   0.248 -1.7660 -0.0428 -0.8748
    2MOL0     H  221   9.721   2.644   0.474  3.7440  2.5251 -1.0290
    2MOL0     H  222   9.679   2.525   0.347 -1.6185  1.2843 -2.7908
    2MOL0     H  223   9.613   2.689   0.189 -2.1999  2.3139 -0.3949
    2MOL0     H  224   9.532   2.733   0.329 -0.3123  0.8102 -0.3679
    2MOL0     H  225   9.762   2.875   0.494 -0.9190 -0.2816 -0.4149
    2MOL0     H  226   9.992   3.125   0.405  0.3837  1.4089 -1.1542
    2MOL0     H  227   9.868   3.103   0.520  4.7686 -1.6378  0.0701
    2MOL0     H  228   9.748   3.281   0.328  0.7720  3.3727 -0.0761
    2MOL0     H  229   9.798   3.295   0.505  2.2242 -1.0591  0.7727
    2MOL0     H  230   9.989   3.323   0.295 -1.2004  0.7363 -0.8402
    2MOL0     H  231   9.904   3.472   0.339  1.5642  2.2229  1.1081
    2MOL0     H  232  10.081   3.304   0.517  1.3607  0.3709 -0.5175
    2MOL0     H  233  10.115   3.461   0.456 -1.2673  1.5952  1.4133
    2MOL0     H  234   9.866   3.563   0.813  1.4651 -0.2307 -0.1551
    2MOL0     H  235   9.746   3.719   0.951 -0.2866 -1.5756 -0.6273
    2MOL0     H  236   9.634   3.827   0.869 -0.0707 -1.9390 -0.0602
    2MOL0     H  237   9.788   3.895   0.922 -1.7229  0.0941  2.1533
    2MOL0     H  238   9.610   4.286   0.572  0.4614  2.2276 -1.1516
    2MOL0     H  239   9.729   4.514   0.517  0.5169 -0.6512  0.1502
    2MOL0     H  240   9.897   4.673   0.547  0.2003 -1.6574  0.0312
    2MOL0     H  241  10.037   4.724   0.469 -1.1080  1.7977 -0.0954
    2MOL0     H  242   9.954   4.734   0.252  0.5876  3.5930  0.0738
    2MOL0     H  243   9.800   4.672   0.268  2.0511 -3.5530 -0.0402
    2MOL0     H  244   9.875   4.923   0.412 -0.8998  1.0184  0.9506
    2MOL0     H  245   9.712   4.865   0.361 -0.1011  1.4282 -2.7576
    2MOL0     H  246   9.815   4.876   0.118  0.5112  0.1647 -0.2992
    2MOL0     H  247   9.930   4.972   0.193 -0.9944  1.1671  1.2650
    2MOL0     H  248   9.744   5.106   0.091 -0.5456  0.9335  0.0098
    2MOL0     H  249   9.627   5.028   0.215 -0.9114  0.0651  0.4157
    2MOL0     H  250   9.875   5.195   0.312 -0.9082  0.7700  3.9167
    2MOL0     H  251   9.733   5.140   0.401 -1.4244  0.7903  0.9370
    2MOL0     H  252   9.624   5.312   0.360  0.6381 -1.2021  0.5941
    2MOL0     H  253   9.672   5.331   0.187 -0.6990  3.5227  1.2308
    2MOL0     H  254   9.863   5.446   0.249 -0.3372  0.5207  0.2728
    2MOL0     H  255   9.872   5.395   0.414  0.4533  2.5117  1.4640
    2MOL0     H  256  10.077   4.314   0.398  0.2656 -1.0197  0.7410
    2MOL0     H  257   9.977   4.092   0.471 -0.9296 -0.5297 -1.0247
    2MOL0     H  258   9.889   3.872   0.440  0.3773 -0.2387 -1.4529
    2MOL0     H  259   9.969   3.657   0.413 -2.5000  2.1500 -0.9801
    2MOL0     H  260  10.544   2.133   0.335 -0.2434  0.8115 -0.6437
    2MOL0     H  261  10.775   2.211   0.343 -0.1608 -1.4843  1.7560
    2MOL0     H  262  10.964   2.687   0.428 -0.5960 -0.3991  0.7210
    2MOL0     H  263  11.121   2.871   0.463  1.8797 -0.6333 -0.2478
    2MOL0     H  264  11.167   3.052   0.643  2.1219 -1.1994 -1.2463
    2MOL0     H  265  11.112   2.955   0.784 -1.0138 -1.0700 -2.2978
    2MOL0     H  266  11.346   3.152   0.779 -2.4014  2.5560 -1.1902
    2MOL0     H  267  11.329   3.020   0.896  1.0193  1.4504  0.7749
    2MOL0     H  268  11.080   3.127   0.905  0.0036  0.7973 -1.2818
    2MOL0     H  269  11.202   3.169   1.016 -5.2059  1.3561  1.9781
    2MOL0     H  270  11.097   3.360   0.914 -1.7735 -1.8063 -0.8896
    2MOL0     H  271  11.159   3.326   0.759 -3.3279  2.0687  0.4610
    2MOL0     H  272  11.506   3.461   0.979  0.3372 -1.6360  0.3533
    2MOL0     H  273  11.294   2.670   0.802  1.3484  1.6509 -0.5236
    2MOL0     H  274  11.082   2.354   0.754  1.5409 -0.3420  1.0151
    2MOL0     H  275  11.227   2.429   0.825  1.3044  1.5096 -1.8064
    2MOL0     H  276  11.051   2.470   0.874  0.7398 -0.2928  1.1276
    3MOL0     O  277  11.198   2.188   3.581  0.3698  0.5882 -0.8226
    3MOL0     C  278  11.130   2.102   3.634 -0.3191 -0.1929 -0.9375
    3MOL0     O  279  11.013   2.059   3.590 -0.1227 -0.4157 -0.3398
    3MOL0     C  280  10.927   2.153   3.529 -0.4353  0.2947 -0.3011
    3MOL0     C  281  10.876   2.271   3.596 -0.7101 -0.0093  0.1858
    3MOL0     C  282  10.782   2.354   3.530  0.1934 -0.0864 -0.1546
    3MOL0     C  283  10.744   2.324   3.400 -0.1545  0.3088  0.6501
    3MOL0     O  284  10.662   2.409   3.332 -0.8108 -0.0810  1.0079
    3MOL0     C  285  10.702   2.544   3.347  0.0186  0.5262  0.3357
    3MOL0     C  286  10.626   2.647   3.250 -0.7461  0.1806 -0.5898
    3MOL0     C  287  10.664   2.800   3.259 -0.2706 -0.0482 -0.2377
    3MOL0     C  288  10.674   2.879   3.120 -0.4058 -0.6998 -0.0052
    3MOL0     C  289  10.562   2.842   3.022  0.3787 -0.1476  0.4318
    3MOL0     C  290  10.423   2.850   3.101 -0.1566 -0.0327 -0.3657
    3MOL0     C  291  10.306   2.812   3.014  1.1466 -0.6322  0.1590
    3MOL0     C  292  10.310   2.670   2.951 -0.1342 -0.7490 -0.6940
    3MOL0     N  293  10.291   2.561   3.044 -0.1729  0.1061  0.5358
    3MOL0     C  294  10.372   2.452   3.059  0.8885 -0.7357 -0.3936
    3MOL0     C  295  10.314   2.375   3.161  0.3370 -0.9411  0.4535
    3MOL0     C  296  10.370   2.244   3.218 -0.8662  0.1102 -0.8656
    3MOL0     C  297  10.345   2.114   3.141  0.0955  1.0348  0.1712
    3MOL0     C  298  10.336   1.992   3.225  0.3431 -0.0437  0.2016
    3MOL0     C  299  10.482   1.950   3.277  0.3329 -0.3531  0.2104
    3MOL0     O  300  10.475   1.812   3.287  0.3428  0.1329  0.1291
    3MOL0     C  301  10.517   1.727   3.184  0.3779 -0.0140 -0.2446
    3MOL0     C  302  10.530   1.591   3.221  0.8168 -0.1517 -0.4493
    3MOL0     C  303  10.590   1.503   3.134 -0.4340 -0.6898  0.1284
    3MOL0     C  304  10.571   1.358   3.162 -0.4894  0.5356  0.2154
    3MOL0     C  305  10.651   1.554   3.018  0.2056  0.5422 -0.1708
    3MOL0     C  306  10.723   1.470   2.924  0.1328 -1.0683 -0.3098
    3MOL0     O  307  10.774   1.352   2.971  0.8758 -0.4860  0.1041
    3MOL0     C  308  10.849   1.266   2.888 -0.6807 -0.0630  0.1667
    3MOL0     C  309  10.807   1.131   2.887 -0.3565 -0.8592  0.0000
    3MOL0     C  310  10.875   1.042   2.805 -0.0417 -0.2926  0.2685
    3MOL0     C  311  10.982   1.081   2.736 -0.4233  0.6651  0.8319
    3MOL0     O  312  11.048   0.968   2.689  0.4690  0.3770 -0.2613
    3MOL0     C  313  11.176   0.987   2.622 -0.6592  0.5273  0.2126
    3MOL0     C  314  11.205   0.849   2.549 -0.7163 -1.0817 -0.3171
    3MOL0     C  315  11.349   0.845   2.497  0.4146  0.5160 -0.8292
    3MOL0     C  316  11.349   0.733   2.389  0.5803  0.2665  0.2760
    3MOL0     C  317  11.487   0.731   2.319 -0.6350 -0.1545 -0.5029
    3MOL0     C  318  11.545   0.601   2.269  0.4882  0.2675  0.2421
    3MOL0     C  319  11.446   0.541   2.173 -0.7712 -0.2603  0.3111
    3MOL0     C  320  11.452   0.619   2.039  0.4396 -0.4333 -0.8376
    3MOL0    Cl  321  11.533   0.543   1.914  0.6455  0.4820  0.3927
    3MOL0     C  322  11.021   1.209   2.741  0.2371 -0.5374  0.9631
    3MOL0     C  323  10.961   1.306   2.817  0.1444 -0.8212  1.1532
    3MOL0     O  324  10.739   1.509   2.813  0.5392  0.0907  0.3994
    3MOL0     C  325  10.633   1.686   2.984  0.3307  0.3179  0.3476
    3MOL0     C  326  10.559   1.775   3.065 -0.2627 -0.3199 -0.3282
    3MOL0     N  327  10.199   2.456   3.197  1.0154  0.1829  1.2190
    3MOL0     N  328  10.183   2.555   3.121 -0.5925  0.1688  0.0894
    3MOL0     C  329  10.779   2.210   3.341 -0.7453 -0.0305 -0.0152
    3MOL0     C  330  10.876   2.124   3.401  0.5595  0.2944  1.2005
    3MOL0     C  331  11.190   2.030   3.745 -0.9174 -0.3676  0.5173
    3MOL0     C  332  11.142   1.901   3.767 -0.4071  0.0941 -0.3991
    3MOL0     C  333  11.189   1.822   3.874 -0.2789  0.7819  0.1825
    3MOL0     C  334  11.288   1.869   3.959 -1.5050  0.4064 -0.4850
    3MOL0     O  335  11.353   1.787   4.048 -0.4543 -0.1567 -0.2762
    3MOL0     C  336  11.334   1.645   4.050 -0.0329 -0.3555  0.0639
    3MOL0     C  337  11.460   1.574   4.103 -0.0943 -0.1643  0.1509
    3MOL0     C  338  11.447   1.569   4.260  0.0566  0.3365 -0.0264
    3MOL0     C  339  11.369   1.442   4.297  0.1446  0.3407 -0.5249
    3MOL0     C  340  11.443   1.315   4.274  0.1589 -0.6833 -0.5780
    3MOL0     C  341  11.500   1.212   4.254  0.0838  0.0875 -0.6540
    3MOL0     C  342  11.333   2.006   3.943 -0.6548  0.1876 -0.5239
    3MOL0     C  343  11.285   2.084   3.839 -0.0346  0.0741  0.2377
    3MOL0     C  344  11.340   2.218   3.820  0.0614 -0.8368  1.3205
    3MOL0     H  345  10.913   2.305   3.692  0.4314  1.1395 -0.6333
    3MOL0     H  346  10.734   2.436   3.584  1.7967  0.3754  0.6170
    3MOL0     H  347  10.809   2.548   3.327 -0.5353  0.5181 -3.0969
    3MOL0     H  348  10.689   2.577   3.451 -0.1614  1.8230 -0.0833
    3MOL0     H  349  10.661   2.614   3.152 -0.7856 -0.0229 -0.5362
    3MOL0     H  350  10.519   2.626   3.260 -0.6340  0.2217  1.0451
    3MOL0     H  351  10.606   2.855   3.333  1.4516 -0.9879  1.9175
    3MOL0     H  352  10.759   2.819   3.310  0.5074  2.8603 -2.4891
    3MOL0     H  353  10.680   2.985   3.144 -2.8249 -0.4686 -0.1939
    3MOL0     H  354  10.763   2.845   3.066 -1.4494 -2.7275 -0.5306
    3MOL0     H  355  10.574   2.739   2.988  0.4899  0.0691 -0.1883
    3MOL0     H  356  10.562   2.914   2.940  1.8429  1.3872  1.6904
    3MOL0     H  357  10.412   2.800   3.198  0.0124  1.0833  0.2490
    3MOL0     H  358  10.399   2.950   3.138 -0.3243  0.0463 -0.6794
    3MOL0     H  359  10.316   2.877   2.927  0.8190 -1.5212 -0.5631
    3MOL0     H  360  10.208   2.826   3.059 -0.3585  2.3477 -3.4982
    3MOL0     H  361  10.245   2.678   2.864 -1.9854  3.9654  0.7953
    3MOL0     H  362  10.410   2.661   2.908  1.2416  1.5166  1.6965
    3MOL0     H  363  10.465   2.435   3.007  1.9382  0.5436  0.9676
    3MOL0     H  364  10.342   2.224   3.322  2.1499 -1.7464 -0.2731
    3MOL0     H  365  10.475   2.267   3.232 -0.6783 -1.8057  1.5821
    3MOL0     H  366  10.248   2.116   3.090  0.9359  0.8013 -1.4939
    3MOL0     H  367  10.420   2.110   3.062 -0.6639  1.7185 -0.6008
    3MOL0     H  368  10.272   2.009   3.312 -0.3925 -0.6189 -0.2132
    3MOL0     H  369  10.289   1.921   3.155  0.0543  1.2542 -0.9639
    3MOL0     H  370  10.562   1.998   3.220  0.8409 -0.4936  0.7950
    3MOL0     H  371  10.479   1.993   3.378  0.9149  2.4342 -0.8685
    3MOL0     H  372  10.500   1.556   3.320 -1.6617 -0.2996 -1.1751
    3MOL0     H  373  10.652   1.314   3.221 -2.7067  1.3151  4.2307
    3MOL0     H  374  10.549   1.295   3.075  2.6615  2.3681 -2.1267
    3MOL0     H  375  10.476   1.344   3.215  0.1790  0.5470  1.4449
    3MOL0     H  376  10.724   1.098   2.949 -0.2581 -0.9250  0.0976
    3MOL0     H  377  10.857   0.937   2.825 -0.8777 -0.1785  0.1329
    3MOL0     H  378  11.169   1.069   2.550  1.0782  0.0392 -0.5736
    3MOL0     H  379  11.255   1.010   2.694 -1.9174 -1.4127  2.3424
    3MOL0     H  380  11.190   0.761   2.613 -0.8522 -3.3754 -3.2936
    3MOL0     H  381  11.138   0.828   2.465  0.2924  1.4670 -1.8441
    3MOL0     H  382  11.407   0.812   2.584 -2.6473  0.9045  1.5079
    3MOL0     H  383  11.390   0.932   2.445 -1.3468  1.6876 -0.3096
    3MOL0     H  384  11.265   0.755   2.323 -0.5663 -0.6911  1.3424
    3MOL0     H  385  11.321   0.635   2.429  0.4200 -0.3226 -1.2281
    3MOL0     H  386  11.511   0.793   2.232  1.8447 -1.5293 -0.9209
    3MOL0     H  387  11.558   0.766   2.395 -0.7514  0.8607 -0.8490
    3MOL0     H  388  11.576   0.537   2.352  1.3777  1.2613  0.6943
    3MOL0     H  389  11.634   0.624   2.209  1.0185 -0.1632  0.8445
    3MOL0     H  390  11.349   0.554   2.220  0.6674  1.8405  2.9701
    3MOL0     H  391  11.462   0.433   2.162  3.7563 -0.0893  2.6246
    3MOL0     H  392  11.507   0.712   2.057  0.4042  0.1194 -3.2983
    3MOL0     H  393  11.350   0.647   2.011 -0.8915 -1.8263  2.1088
    3MOL0     H  394  11.108   1.228   2.678 -1.0275 -2.6349 -1.6381
    3MOL0     H  395  10.985   1.410   2.795  0.6614 -0.8836  1.4183
    3MOL0     H  396  10.663   1.722   2.886 -0.0824  2.2583  0.8974
    3MOL0     H  397  10.561   1.881   3.045  1.6500 -0.2015  0.3048
    3MOL0     H  398  10.730   2.195   3.245 -2.1693 -3.2147  1.0796
    3MOL0     H  399  10.892   2.026   3.356 -0.6603  0.3373  0.6165
    3MOL0     H  400  11.063   1.852   3.712 -0.1006 -0.0867 -0.6865
    3MOL0     H  401  11.152   1.721   3.880 -2.9520  1.6232 -0.9162
    3MOL0     H  402  11.243   1.616   4.103  0.0932  0.9570  1.0222
    3MOL0     H  403  11.330   1.602   3.949 -1.2974 -1.6913  0.6491
    3MOL0     H  404  11.550   1.632   4.078  1.3899 -1.0142  3.0379
    3MOL0     H  405  11.472   1.475   4.059 -1.0447 -0.8056  1.2940
    3MOL0     H  406  11.540   1.564   4.316  1.0620 -2.2492 -1.7342
    3MOL0     H  407  11.389   1.648   4.309 -0.9668 -1.8528  2.4932
    3MOL0     H  408  11.274   1.439   4.243  0.7158 -0.3896 -1.5306
    3MOL0     H  409  11.340   1.456   4.401 -1.9251 -0.1419 -0.9797
    3MOL0     H  410  11.562   1.128   4.229  2.1071  0.8652  1.3684
    3MOL0     H  411  11.408   2.042   4.013  0.4772  1.2707 -2.2114
    3MOL0     H  412  11.253   2.283   3.810 -0.8602 -2.2909 -1.0888
    3MOL0     H  413  11.397   2.239   3.911 -1.1214  0.6082  1.7722
    3MOL0     H  414  11.412   2.222   3.738 -0.8543 -1.4128  0.4635
    4MOL0     O  415  10.905   3.516  11.070  0.2025 -0.0668  0.2883
    4MOL0     C  416  10.943   3.425  11.139 -0.2142  0.7359 -0.2131
    4MOL0     O  417  10.862   3.331  11.188  0.3624  0.5184  0.0893
    4MOL0     C  418  10.762   3.295  11.108  0.8680 -0.0993 -0.8938
    4MOL0     C  419  10.772   3.215  10.994 -0.6137 -0.5574 -0.1566
    4MOL0     C  420  10.660   3.167  10.932  0.4288 -0.1013 -0.2354
    4MOL0     C  421  10.527   3.200  10.975  0.5684 -0.2890 -0.4034
    4MOL0     O  422  10.408   3.183  10.908  0.2494  0.6431 -0.5011
    4MOL0     C  423  10.397   3.068  10.822 -0.4053 -0.1561 -0.3480
    4MOL0     C  424  10.256   3.029  10.826  0.1995  0.4269 -0.5732
    4MOL0     C  425  10.230   2.920  10.711 -0.0542  0.1033 -0.3776
    4MOL0     C  426  10.223   3.000  10.576  0.1116 -0.9591 -0.3992
    4MOL0     C  427  10.166   2.924  10.451  0.6170  0.3608 -0.7914
    4MOL0     C  428  10.056   2.823  10.486  0.1419 -0.2463 -0.5741
    4MOL0     C  429   9.990   2.763  10.362  0.2827  0.1729 -0.3052
    4MOL0     C  430   9.892   2.869  10.305  0.5920 -0.0271 -0.7897
    4MOL0     N  431   9.840   2.821  10.177  0.0286 -0.9456  0.2422
    4MOL0     C  432   9.719   2.840  10.131 -0.1071 -0.5947 -0.0782
    4MOL0     C  433   9.727   2.807   9.998 -0.0584 -0.0701 -0.5006
    4MOL0     C  434   9.615   2.828   9.902  0.0416 -0.3780  0.7478
    4MOL0     C  435   9.645   2.760   9.755  0.3937 -0.9724 -0.4563
    4MOL0     C  436   9.640   2.606   9.757 -0.2915  0.3206  0.3648
    4MOL0     C  437   9.694   2.554   9.623 -0.2346  0.6535  0.0670
    4MOL0     O  438   9.602   2.482   9.538  0.2099 -0.9317  0.0532
    4MOL0     C  439   9.586   2.348   9.555  0.7496 -0.6548  0.1520
    4MOL0     C  440   9.650   2.269   9.650  1.4248 -0.3770 -0.2876
    4MOL0     C  441   9.614   2.138   9.663 -0.3398  0.4062 -0.9116
    4MOL0     C  442   9.655   2.070   9.791 -0.2167 -0.3255  1.0508
    4MOL0     C  443   9.559   2.069   9.553 -0.6270  0.0860 -0.7847
    4MOL0     C  444   9.542   1.926   9.544  0.0015  0.0197  0.6500
    4MOL0     O  445   9.522   1.883   9.412  1.1572 -0.2023  0.1366
    4MOL0     C  446   9.504   1.745   9.412  0.2263  0.9170 -0.5112
    4MOL0     C  447   9.608   1.662   9.371 -0.0891 -0.0207  0.1201
    4MOL0     C  448   9.574   1.523   9.352  0.6043 -0.3164 -1.4934
    4MOL0     C  449   9.447   1.474   9.372  0.5806 -1.1930  0.1120
    4MOL0     O  450   9.406   1.344   9.349  0.7739  0.7066  0.3996
    4MOL0     C  451   9.499   1.239   9.374 -0.6904  0.2454 -0.4412
    4MOL0     C  452   9.549   1.242   9.519  0.5964  0.0479  0.5139
    4MOL0     C  453   9.444   1.216   9.623 -0.2449 -0.3004 -0.2529
    4MOL0     C  454   9.519   1.217   9.753  0.8209 -0.1326 -0.4438
    4MOL0     C  455   9.436   1.172   9.869  0.5169 -0.1805 -0.9291
    4MOL0     C  456   9.509   1.180   9.999 -0.2515  0.3056 -0.0572
    4MOL0     C  457   9.424   1.133  10.104  0.0990  0.8982 -0.0949
    4MOL0     C  458   9.486   1.165  10.249  0.2006  0.0373 -0.3204
    4MOL0    Cl  459   9.497   1.343  10.302 -0.2647 -0.2788  0.0342
    4MOL0     C  460   9.345   1.557   9.401  0.0089  0.0769 -0.4306
    4MOL0     C  461   9.373   1.697   9.425 -0.1834 -0.2806 -0.1790
    4MOL0     O  462   9.523   1.864   9.650  0.8233 -0.6627 -0.7040
    4MOL0     C  463   9.498   2.154   9.455 -0.4886  0.3364  0.0820
    4MOL0     C  464   9.515   2.293   9.458  0.0475  0.3591 -0.5913
    4MOL0     N  465   9.854   2.771   9.965  0.0755  0.4565 -0.9962
    4MOL0     N  466   9.915   2.771  10.075 -0.8035  0.3893 -0.5576
    4MOL0     C  467  10.517   3.285  11.091 -0.3268 -0.1952  0.6760
    4MOL0     C  468  10.634   3.334  11.153 -0.3403  0.8465 -0.6188
    4MOL0     C  469  11.088   3.426  11.168  0.7061 -0.6521 -0.4684
    4MOL0     C  470  11.148   3.547  11.193  0.3186  0.0135  0.1670
    4MOL0     C  471  11.277   3.558  11.248 -0.2890  0.0428  0.0027
    4MOL0     C  472  11.349   3.442  11.279 -0.6909  0.0363 -0.3905
    4MOL0     O  473  11.480   3.444  11.323  0.0817 -0.0674  0.1459
    4MOL0     C  474  11.556   3.565  11.358 -0.1587  0.1749  1.1402
    4MOL0     C  475  11.617   3.635  11.241  0.5147 -0.2750 -0.0784
    4MOL0     C  476  11.669   3.769  11.273  0.0231  0.6130  0.8927
    4MOL0     C  477  11.573   3.880  11.230  1.1371 -0.7232 -0.6271
    4MOL0     C  478  11.464   3.886  11.321  0.3052  0.6363 -0.1487
    4MOL0     C  479  11.375   3.908  11.391  1.1861  0.3457 -0.9278
    4MOL0     C  480  11.285   3.320  11.255 -0.2948 -1.4215  0.0074
    4MOL0     C  481  11.160   3.312  11.191 -0.0565  0.3324  0.6145
    4MOL0     C  482  11.099   3.175  11.164  0.0349  0.5212 -0.1629
    4MOL0     H  483  10.873   3.186  10.969  0.2595 -0.0690  2.4419
    4MOL0     H  484  10.680   3.122  10.835 -1.5473  0.3511 -0.8999
    4MOL0     H  485  10.457   2.989  10.868  1.4944 -0.4300 -3.0016
    4MOL0     H  486  10.439   3.085  10.722  4.9607 -1.8233  1.2429
    4MOL0     H  487  10.235   2.989  10.926  2.7076  3.5128  1.3720
    4MOL0     H  488  10.184   3.110  10.813  0.3172  1.0077  1.9496
    4MOL0     H  489  10.301   2.839  10.728 -2.3895 -1.5951  2.4257
    4MOL0     H  490  10.135   2.872  10.736 -0.5205 -0.1580 -2.4954
    4MOL0     H  491  10.162   3.089  10.589 -0.7609 -1.2517 -2.1753
    4MOL0     H  492  10.327   3.023  10.554  0.2990  1.5466  2.5037
    4MOL0     H  493  10.244   2.864  10.402 -0.7504 -2.0659 -0.1678
    4MOL0     H  494  10.135   2.994  10.373 -0.3053  1.5680  0.6072
    4MOL0     H  495  10.096   2.736  10.538 -0.8729 -0.4420 -0.0903
    4MOL0     H  496   9.976   2.875  10.540  0.0497  1.8100 -2.5358
    4MOL0     H  497   9.932   2.674  10.390 -1.1466  0.9831 -0.5605
    4MOL0     H  498  10.063   2.743  10.283  0.3275  0.1451 -0.2567
    4MOL0     H  499   9.809   2.896  10.370  0.2996  0.5700 -1.4008
    4MOL0     H  500   9.955   2.953  10.274  1.0792 -0.5274 -1.1919
    4MOL0     H  501   9.633   2.878  10.185 -3.7904 -2.1540 -4.1223
    4MOL0     H  502   9.606   2.936   9.889 -0.9560 -0.3175  1.7617
    4MOL0     H  503   9.519   2.804   9.948  0.3552 -0.8736  1.1587
    4MOL0     H  504   9.578   2.814   9.687  0.0524 -0.9224 -0.0821
    4MOL0     H  505   9.741   2.804   9.727  1.0000 -1.4863  0.7700
    4MOL0     H  506   9.706   2.562   9.833 -0.4818 -3.2606 -1.3515
    4MOL0     H  507   9.542   2.564   9.778  1.3582 -3.7253  0.7597
    4MOL0     H  508   9.718   2.638   9.557  1.5135  0.5867  0.5487
    4MOL0     H  509   9.785   2.502   9.655 -0.1721  0.6437 -0.1294
    4MOL0     H  510   9.713   2.303   9.732 -1.4174 -0.1702  2.0001
    4MOL0     H  511   9.763   2.051   9.795  0.6518  3.4702 -0.3353
    4MOL0     H  512   9.601   1.978   9.817  0.9017 -1.7781 -1.3871
    4MOL0     H  513   9.629   2.135   9.875 -2.2711  0.6069 -0.2475
    4MOL0     H  514   9.712   1.695   9.366  0.4334 -1.7587 -1.3831
    4MOL0     H  515   9.652   1.464   9.304  1.1652  0.3954 -1.4678
    4MOL0     H  516   9.451   1.147   9.338 -0.5499  0.0627 -0.1611
    4MOL0     H  517   9.591   1.246   9.316  1.1731  2.7478  2.5187
    4MOL0     H  518   9.625   1.164   9.508  1.7231  1.3987 -2.0087
    4MOL0     H  519   9.611   1.329   9.543 -1.4575  0.9435  2.9817
    4MOL0     H  520   9.397   1.120   9.597  4.3748 -2.5410 -1.4294
    4MOL0     H  521   9.364   1.290   9.634 -2.4419 -2.5063 -0.5268
    4MOL0     H  522   9.553   1.319   9.775  1.0770 -0.3508  0.1930
    4MOL0     H  523   9.607   1.153   9.750  0.7656 -0.1901 -0.9998
    4MOL0     H  524   9.353   1.242   9.881  4.8661  5.8688 -1.2141
    4MOL0     H  525   9.394   1.073   9.846  2.3644 -0.7564 -2.0846
    4MOL0     H  526   9.537   1.284  10.013  1.9052  0.6701 -5.0984
    4MOL0     H  527   9.605   1.128   9.997 -0.9927 -1.6628  4.2227
    4MOL0     H  528   9.407   1.025  10.105  2.7539  0.3025  3.9866
    4MOL0     H  529   9.332   1.190  10.086  1.2126  3.3770  1.5075
    4MOL0     H  530   9.583   1.119  10.263 -0.0008 -0.1922  0.3907
    4MOL0     H  531   9.410   1.114  10.309 -0.9762 -1.5863 -3.0140
    4MOL0     H  532   9.246   1.516   9.415 -0.6651  1.5458 -0.7267
    4MOL0     H  533   9.309   1.781   9.451  3.0093  2.4886 -0.4748
    4MOL0     H  534   9.436   2.104   9.381 -1.9474 -0.4999  1.7818
    4MOL0     H  535   9.484   2.367   9.385  0.9073  0.6802 -0.6416
    4MOL0     H  536  10.418   3.308  11.129 -0.5601  0.0367 -0.0564
    4MOL0     H  537  10.640   3.404  11.235  0.3937 -1.3773  1.3381
    4MOL0     H  538  11.097   3.643  11.183  2.5157  1.0481 -2.4783
    4MOL0     H  539  11.330   3.652  11.258  0.5688 -0.4795  0.5606
    4MOL0     H  540  11.498   3.642  11.409 -0.4555  1.0389 -0.4310
    4MOL0     H  541  11.639   3.551  11.428  3.0064  2.4101 -1.7753
    4MOL0     H  542  11.541   3.630  11.162  1.4135  3.3205 -1.3766
    4MOL0     H  543  11.704   3.583  11.201  0.9779  1.2036 -1.0997
    4MOL0     H  544  11.697   3.779  11.378 -2.4856 -1.7437  1.9321
    4MOL0     H  545  11.767   3.783  11.227  1.3688  0.6927  3.6275
    4MOL0     H  546  11.529   3.876  11.130 -0.2185 -1.8054 -0.0226
    4MOL0     H  547  11.637   3.969  11.235 -0.8350  0.7186  2.8920
    4MOL0     H  548  11.289   3.914  11.453 -0.5134 -0.4864 -3.0761
    4MOL0     H  549  11.316   3.223  11.293 -0.8817 -2.6883 -2.5150
    4MOL0     H  550  11.184   3.106  11.162 -1.2680 -1.1625 -2.5998
    4MOL0     H  551  11.033   3.142  11.245  0.8241  2.4639  1.3461
    4MOL0     H  552  11.052   3.169  11.065 -2.2608 -3.5818  0.9363
    5MOL0     O  553   9.340   9.858   3.788  0.3309 -0.3031 -0.2609
    5MOL0     C  554   9.229   9.804   3.767 -0.4241 -0.5145 -0.4202
    5MOL0     O  555   9.159   9.732   3.862  0.7751  0.0143  0.3214
    5MOL0     C  556   9.199   9.706   3.998 -0.0083 -0.3155  0.6977
    5MOL0     C  557   9.187   9.812   4.095  0.1617  0.4876 -0.2816
    5MOL0     C  558   9.221   9.774   4.231 -0.4848  1.0497  0.1939
    5MOL0     C  559   9.259   9.643   4.263 -0.2621 -0.8716  0.5392
    5MOL0     O  560   9.306   9.617   4.386  0.3319  0.0643 -0.9876
    5MOL0     C  561   9.446   9.580   4.395  0.1652  0.3433  0.7957
    5MOL0     C  562   9.536   9.692   4.456  0.3067 -0.5912 -0.2493
    5MOL0     C  563   9.680   9.626   4.459 -0.0694  0.2022 -0.8949
    5MOL0     C  564   9.705   9.523   4.568 -0.1725  0.3699  0.0708
    5MOL0     C  565   9.849   9.473   4.585  0.1382 -0.3491 -0.5132
    5MOL0     C  566   9.843   9.362   4.685 -0.5180  0.1532  0.6759
    5MOL0     C  567   9.978   9.298   4.704  1.0095 -0.5339  0.0909
    5MOL0     C  568  10.027   9.232   4.578  0.4195  0.7128 -0.8221
    5MOL0     N  569  10.132   9.139   4.621 -0.2744 -0.1429  0.2395
    5MOL0     C  570  10.124   9.006   4.666  0.9506  0.4191 -0.5869
    5MOL0     C  571  10.250   8.962   4.679  0.3345  0.9306 -0.4924
    5MOL0     C  572  10.284   8.821   4.719  0.8016  0.2210 -0.2987
    5MOL0     C  573  10.425   8.812   4.767  0.4803  0.4016 -0.3079
    5MOL0     C  574  10.450   8.678   4.836  0.0426  0.5819 -1.3142
    5MOL0     C  575  10.602   8.653   4.856 -0.0561  0.9528 -0.1514
    5MOL0     O  576  10.665   8.663   4.735 -1.0230  0.4164 -0.5950
    5MOL0     C  577  10.644   8.567   4.632 -0.0809 -1.0582 -1.5661
    5MOL0     C  578  10.692   8.596   4.508 -0.4930 -0.1428  1.0520
    5MOL0     C  579  10.701   8.512   4.400 -0.4281 -0.6029 -0.3537
    5MOL0     C  580  10.780   8.549   4.277  1.3556  0.7274  0.2496
    5MOL0     C  581  10.623   8.390   4.418 -0.3444  0.1238  0.3298
    5MOL0     C  582  10.620   8.276   4.319 -0.0011  0.8173 -0.1329
    5MOL0     O  583  10.559   8.152   4.345  0.5419  0.3601 -0.7478
    5MOL0     C  584  10.567   8.046   4.250  0.2335 -0.4398  0.9882
    5MOL0     C  585  10.584   8.045   4.115  0.5920  0.2000  0.6201
    5MOL0     C  586  10.564   7.924   4.039 -0.4201 -0.1077 -0.2659
    5MOL0     C  587  10.563   7.806   4.103 -0.7291  1.6015 -0.4738
    5MOL0     O  588  10.552   7.693   4.017 -0.5086 -0.0756  0.3013
    5MOL0     C  589  10.667   7.666   3.923  0.1019 -0.8477 -0.0912
    5MOL0     C  590  10.701   7.528   3.919 -0.0838  1.1007  0.1564
    5MOL0     C  591  10.756   7.503   3.780  1.1849 -0.1109  0.6546
    5MOL0     C  592  10.666   7.467   3.657 -0.4529  0.4925  0.5134
    5MOL0     C  593  10.667   7.570   3.543  0.2844 -0.5711  0.5024
    5MOL0     C  594  10.585   7.532   3.424  0.8233  0.3892 -0.1808
    5MOL0     C  595  10.609   7.625   3.311 -0.2147 -0.3115 -0.5608
    5MOL0     C  596  10.524   7.593   3.200  0.5839 -0.1866 -0.6470
    5MOL0    Cl  597  10.575   7.439   3.120 -0.0147 -0.3226 -0.2318
    5MOL0     C  598  10.545   7.797   4.236 -0.1605  0.8542 -0.0034
    5MOL0     C  599  10.546   7.919   4.308 -0.3618  0.3766  0.4650
    5MOL0     O  600  10.679   8.288   4.211  0.6790 -0.2413  0.0948
    5MOL0     C  601  10.569   8.358   4.546  0.0756  0.5691 -0.0866
    5MOL0     C  602  10.580   8.445   4.656  0.7236  0.1641 -0.0109
    5MOL0     N  603  10.338   9.069   4.643  0.6364  0.6351  0.2695
    5MOL0     N  604  10.259   9.173   4.618 -0.0128 -0.4544 -0.3898
    5MOL0     C  605   9.249   9.548   4.169 -0.5074  0.1613 -0.0635
    5MOL0     C  606   9.210   9.574   4.034  0.0916 -1.1891  0.0020
    5MOL0     C  607   9.175   9.806   3.631 -0.2165  0.3667  0.5551
    5MOL0     C  608   9.062   9.735   3.603  1.2738 -0.4124  0.9906
    5MOL0     C  609   9.003   9.728   3.483 -0.6802  0.1280  0.0144
    5MOL0     C  610   9.046   9.799   3.373 -0.2148 -0.2273 -0.8695
    5MOL0     O  611   8.973   9.817   3.260  0.2045 -0.0272 -0.2480
    5MOL0     C  612   8.896   9.696   3.204 -0.3193 -0.9463 -0.7266
    5MOL0     C  613   8.747   9.709   3.232  0.6836  1.4005  0.5555
    5MOL0     C  614   8.681   9.838   3.164  0.0604  0.2015 -0.4654
    5MOL0     C  615   8.526   9.860   3.203 -0.8462  0.7324  0.6476
    5MOL0     C  616   8.460   9.776   3.103  0.3628  0.5518 -1.5837
    5MOL0     C  617   8.393   9.713   3.022 -0.5326 -0.9402  0.4021
    5MOL0     C  618   9.166   9.871   3.387  0.5098  1.2494  0.6513
    5MOL0     C  619   9.229   9.872   3.509 -0.4014 -0.2786  0.2848
    5MOL0     C  620   9.350   9.957   3.512  1.0830  0.4255  0.2544
    5MOL0     H  621   9.152   9.909   4.059 -1.2113 -0.2766 -1.0816
    5MOL0     H  622   9.216   9.851   4.307 -3.1743  2.8044 -1.5744
    5MOL0     H  623   9.483   9.537   4.301 -0.1110  1.8610 -0.0437
    5MOL0     H  624   9.449   9.491   4.459  0.2376 -3.1738 -3.5856
    5MOL0     H  625   9.530   9.790   4.407  1.3233  0.0284  0.8080
    5MOL0     H  626   9.508   9.701   4.561  0.4903 -0.3912 -0.2162
    5MOL0     H  627   9.709   9.586   4.361 -1.5281  0.0650 -1.2962
    5MOL0     H  628   9.754   9.706   4.467  1.7419 -1.6002  3.1012
    5MOL0     H  629   9.668   9.574   4.658  0.3869  0.0251  0.5003
    5MOL0     H  630   9.647   9.431   4.559  2.8365 -1.6662  0.1116
    5MOL0     H  631   9.912   9.552   4.627 -1.4806  1.9404 -2.1364
    5MOL0     H  632   9.890   9.459   4.484  0.6785  2.1316 -0.7155
    5MOL0     H  633   9.797   9.396   4.778 -1.5585 -0.4919  0.4229
    5MOL0     H  634   9.777   9.284   4.646  2.4502 -1.5330 -1.3283
    5MOL0     H  635   9.978   9.223   4.784  0.8827 -3.3107 -2.3312
    5MOL0     H  636  10.038   9.378   4.749 -0.5723  1.7257 -1.6324
    5MOL0     H  637   9.945   9.185   4.524  1.0870  2.1826 -3.2728
    5MOL0     H  638  10.063   9.307   4.507 -0.3527  0.6542 -1.2866
    5MOL0     H  639  10.029   8.958   4.686  2.8621 -2.3999  2.9987
    5MOL0     H  640  10.281   8.749   4.637 -0.3815 -0.2101  0.1066
    5MOL0     H  641  10.214   8.786   4.796 -0.7078  3.4348 -0.0338
    5MOL0     H  642  10.490   8.825   4.680  0.5915  3.1859  0.0873
    5MOL0     H  643  10.443   8.888   4.843  1.4328 -0.5255  0.4149
    5MOL0     H  644  10.398   8.683   4.932 -0.3599  0.5023 -1.5260
    5MOL0     H  645  10.398   8.602   4.777 -0.7507  1.4513 -1.7630
    5MOL0     H  646  10.635   8.729   4.927 -0.4363  1.5575 -0.6090
    5MOL0     H  647  10.623   8.553   4.895 -0.5411  0.5068 -1.0013
    5MOL0     H  648  10.729   8.698   4.510 -1.2698  0.1485  0.8018
    5MOL0     H  649  10.824   8.648   4.291 -0.4657  1.6779 -0.3453
    5MOL0     H  650  10.717   8.549   4.188  2.9647  2.8568 -0.9634
    5MOL0     H  651  10.852   8.467   4.268  0.2458 -0.2689  0.2014
    5MOL0     H  652  10.596   8.134   4.054  1.5671 -0.1253  0.3309
    5MOL0     H  653  10.559   7.928   3.930  0.1287  0.6024 -0.2767
    5MOL0     H  654  10.638   7.692   3.821  0.4701  0.2624  0.0672
    5MOL0     H  655  10.754   7.731   3.938 -1.3335  1.8189 -2.3963
    5MOL0     H  656  10.790   7.519   3.981  0.3362 -2.4365 -0.7529
    5MOL0     H  657  10.627   7.453   3.949  1.2250 -1.0466 -1.6069
    5MOL0     H  658  10.817   7.415   3.803  1.3553  0.3309  2.0192
    5MOL0     H  659  10.825   7.581   3.748 -0.8722  1.5275  0.0053
    5MOL0     H  660  10.567   7.444   3.699 -0.9312  1.6106  0.0377
    5MOL0     H  661  10.692   7.368   3.619 -0.6751  1.4607 -2.3964
    5MOL0     H  662  10.635   7.667   3.582  1.3812 -0.9137  2.4052
    5MOL0     H  663  10.769   7.577   3.505  1.1730 -0.8088  2.7174
    5MOL0     H  664  10.479   7.531   3.452  0.9829 -3.3596  0.9186
    5MOL0     H  665  10.618   7.429   3.406 -1.4626 -0.9071  2.2823
    5MOL0     H  666  10.711   7.642   3.274  0.2496 -0.6234  0.5267
    5MOL0     H  667  10.591   7.721   3.360  3.8477  0.0423  0.5990
    5MOL0     H  668  10.532   7.681   3.136  1.5559  0.6906  0.6321
    5MOL0     H  669  10.423   7.583   3.240  0.4416  1.2648 -0.5842
    5MOL0     H  670  10.520   7.705   4.289 -3.8379  1.1168 -0.9857
    5MOL0     H  671  10.526   7.918   4.414  0.9437 -2.8107  0.7848
    5MOL0     H  672  10.519   8.263   4.561  2.8741 -1.9441 -4.5649
    5MOL0     H  673  10.547   8.411   4.753  0.8978 -1.8831 -0.6236
    5MOL0     H  674   9.251   9.442   4.192 -0.3904  0.4236  1.1662
    5MOL0     H  675   9.192   9.499   3.958  0.9082 -1.1546 -0.2330
    5MOL0     H  676   9.003   9.682   3.677  1.4856  1.2427  2.3979
    5MOL0     H  677   8.916   9.667   3.461 -0.6881  0.4561 -0.8903
    5MOL0     H  678   8.905   9.692   3.095 -1.0163 -1.6783 -0.7693
    5MOL0     H  679   8.940   9.602   3.237  0.3865 -0.4450 -0.2078
    5MOL0     H  680   8.729   9.700   3.340 -0.4151 -1.1325  0.2063
    5MOL0     H  681   8.697   9.619   3.196 -0.4755  0.4503  4.1028
    5MOL0     H  682   8.745   9.926   3.169 -2.5992  2.1688  1.1737
    5MOL0     H  683   8.687   9.813   3.058  1.3373 -0.2401 -0.3058
    5MOL0     H  684   8.491   9.962   3.189 -2.5607  0.0761 -0.0269
    5MOL0     H  685   8.517   9.821   3.305  1.7039 -2.0906 -0.0292
    5MOL0     H  686   8.339   9.663   2.944  0.9266 -1.0385 -0.5799
    5MOL0     H  687   9.199   9.927   3.299 -0.6383 -0.6483 -1.0669
    5MOL0     H  688   9.438   9.900   3.544  0.8753  0.0260  0.1199
    5MOL0     H  689   9.382  10.005   3.420  4.6678 -0.1671  1.0372
    5MOL0     H  690   9.343  10.035   3.588 -1.5492  0.8137 -0.2801
    6MOL0     O  691   7.629   1.477   7.154 -0.4686 -0.3997  0.4709
    6MOL0     C  692   7.632   1.358   7.152 -0.0137  0.3007  0.0070
    6MOL0     O  693   7.747   1.288   7.163  0.4649  0.2334  0.4842
    6MOL0     C  694   7.859   1.339   7.217  0.0407 -0.1348  0.0026
    6MOL0     C  695   7.976   1.266   7.186  0.9934  0.3059  0.3224
    6MOL0     C  696   8.096   1.300   7.253 -0.0373 -0.8775  0.1706
    6MOL0     C  697   8.117   1.408   7.344  0.5370 -0.3979  0.0434
    6MOL0     O  698   8.234   1.425   7.419 -0.0096  0.9103  0.1460
    6MOL0     C  699   8.342   1.333   7.382 -0.2850  0.4781  0.4080
    6MOL0     C  700   8.467   1.377   7.457 -0.6803  0.3995 -0.0813
    6MOL0     C  701   8.581   1.407   7.352  1.3265  0.4848 -0.3522
    6MOL0     C  702   8.720   1.377   7.406 -0.2674 -0.1001 -0.3196
    6MOL0     C  703   8.837   1.382   7.309 -0.3138 -0.5437 -0.2089
    6MOL0     C  704   8.975   1.365   7.371  0.3596 -0.1170  0.4177
    6MOL0     C  705   8.998   1.230   7.444 -1.1599  0.5039 -0.7221
    6MOL0     C  706   9.133   1.219   7.523 -0.3793  0.4973  0.4642
    6MOL0     N  707   9.250   1.187   7.442 -0.3400  0.1540  0.3454
    6MOL0     C  708   9.366   1.122   7.486 -0.0580  0.1942 -1.3762
    6MOL0     C  709   9.442   1.104   7.372 -0.9105 -1.3018 -1.3598
    6MOL0     C  710   9.588   1.053   7.375 -0.1067 -1.7759 -0.5704
    6MOL0     C  711   9.686   1.177   7.393 -0.5507 -0.1718  0.4568
    6MOL0     C  712   9.838   1.138   7.360  0.6368  1.0431  0.1385
    6MOL0     C  713   9.924   1.139   7.487 -1.6203  0.3598 -0.3182
    6MOL0     O  714   9.948   1.273   7.539 -0.4999 -0.4190 -0.1992
    6MOL0     C  715   9.977   1.289   7.674  1.2318 -0.0024 -0.0488
    6MOL0     C  716   9.929   1.217   7.781 -0.3825  1.3351 -1.1555
    6MOL0     C  717   9.959   1.262   7.914 -0.4040 -0.6196 -0.1891
    6MOL0     C  718   9.909   1.188   8.034  0.1350  0.8779  0.4253
    6MOL0     C  719  10.021   1.386   7.932 -1.0909  0.1466 -0.2148
    6MOL0     C  720  10.060   1.438   8.067  0.8491  0.1068  0.3312
    6MOL0     O  721  10.197   1.447   8.084 -0.2402 -0.5844  0.2850
    6MOL0     C  722  10.239   1.466   8.212 -0.6914 -0.3044  0.1016
    6MOL0     C  723  10.298   1.584   8.250 -0.1303 -0.7781 -0.6142
    6MOL0     C  724  10.364   1.583   8.376 -0.1190 -0.3863 -0.4547
    6MOL0     C  725  10.366   1.474   8.466  0.6231  0.4354 -0.0866
    6MOL0     O  726  10.413   1.480   8.595 -0.2507  1.2891  0.1096
    6MOL0     C  727  10.472   1.604   8.635 -0.2603  0.2131 -1.2352
    6MOL0     C  728  10.545   1.588   8.768  0.2212  0.2553  0.4130
    6MOL0     C  729  10.635   1.700   8.797  0.3928 -0.0541  0.6375
    6MOL0     C  730  10.689   1.696   8.937 -0.7215 -0.3090 -0.0169
    6MOL0     C  731  10.782   1.809   8.996 -0.2921  0.6731  0.0082
    6MOL0     C  732  10.822   1.775   9.138  0.4611  0.8726 -0.2223
    6MOL0     C  733  10.906   1.890   9.195  0.3469 -0.7159 -0.0927
    6MOL0     C  734  10.912   1.868   9.349 -0.1015  0.3673 -0.5041
    6MOL0    Cl  735  10.968   2.017   9.429  0.1638 -0.1195 -0.1924
    6MOL0     C  736  10.311   1.361   8.422 -1.1513  0.0692 -0.5505
    6MOL0     C  737  10.247   1.356   8.297 -0.0369 -1.6007  0.0049
    6MOL0     O  738   9.969   1.474   8.143  0.0844  0.0699  1.2097
    6MOL0     C  739  10.078   1.454   7.818 -0.1328 -0.2013 -0.3982
    6MOL0     C  740  10.053   1.410   7.695  0.8732  0.1632  0.2833
    6MOL0     N  741   9.375   1.155   7.262 -0.3857  0.1602 -0.0690
    6MOL0     N  742   9.264   1.208   7.305  0.3604  0.9545 -0.9225
    6MOL0     C  743   7.995   1.476   7.376 -0.0259 -0.6377 -0.9364
    6MOL0     C  744   7.873   1.441   7.311  0.7446  0.0277 -0.2985
    6MOL0     C  745   7.508   1.265   7.132 -0.6622 -0.1665 -0.0293
    6MOL0     C  746   7.530   1.128   7.168  0.5046  0.5449  0.4145
    6MOL0     C  747   7.417   1.047   7.184  1.2067  0.5946  0.1300
    6MOL0     C  748   7.286   1.089   7.171 -0.0064 -0.4358  0.0490
    6MOL0     O  749   7.173   1.007   7.183 -0.7329  0.2643  0.1070
    6MOL0     C  750   7.082   1.056   7.283  1.0586  0.4842  0.8895
    6MOL0     C  751   7.132   1.106   7.422 -0.7184  0.0270  0.3566
    6MOL0     C  752   7.224   0.994   7.501  0.9259  0.7939  0.7711
    6MOL0     C  753   7.155   0.850   7.511  0.5189 -0.9442  0.0796
    6MOL0     C  754   7.027   0.860   7.585 -0.4760  0.3609  0.6030
    6MOL0     C  755   6.928   0.874   7.647 -0.4605 -0.5846 -0.0368
    6MOL0     C  756   7.266   1.224   7.131 -0.5570 -0.3334 -0.4467
    6MOL0     C  757   7.376   1.309   7.109 -0.5386  0.7162 -1.5691
    6MOL0     C  758   7.349   1.456   7.096 -0.8256 -0.6474  0.4558
    6MOL0     H  759   7.969   1.189   7.110 -3.7709  0.9268 -0.1984
    6MOL0     H  760   8.183   1.238   7.229  0.2833 -0.8457  1.2140
    6MOL0     H  761   8.372   1.348   7.278  3.3054  1.6485  1.4694
    6MOL0     H  762   8.309   1.229   7.396 -0.8732  0.3754 -1.4480
    6MOL0     H  763   8.453   1.475   7.505  0.4385  0.5477 -0.0319
    6MOL0     H  764   8.488   1.307   7.539 -0.8620 -0.1348 -0.4896
    6MOL0     H  765   8.564   1.346   7.263 -2.0940  1.4968 -0.5106
    6MOL0     H  766   8.589   1.512   7.324  1.0326  0.7007  0.3547
    6MOL0     H  767   8.740   1.443   7.491  2.0768 -1.1095 -0.0011
    6MOL0     H  768   8.725   1.275   7.444  0.9560  0.6577  1.7234
    6MOL0     H  769   8.841   1.475   7.252 -1.0145  0.2413  0.9948
    6MOL0     H  770   8.823   1.297   7.242 -0.6636 -0.4408 -0.2668
    6MOL0     H  771   9.051   1.374   7.292  2.1896  0.6035  2.1928
    6MOL0     H  772   8.991   1.443   7.445 -2.1745 -0.8771  1.8892
    6MOL0     H  773   8.981   1.147   7.375 -1.8144 -0.7633  0.8976
    6MOL0     H  774   8.928   1.219   7.528  1.1883 -0.3968  1.2260
    6MOL0     H  775   9.152   1.312   7.577 -1.4724  0.9664  0.0764
    6MOL0     H  776   9.127   1.150   7.607  2.1714  0.7938  0.9814
    6MOL0     H  777   9.397   1.092   7.585  2.8168  3.8380 -0.9439
    6MOL0     H  778   9.601   0.999   7.280 -1.9367 -3.5893  0.1571
    6MOL0     H  779   9.594   0.983   7.458  3.7505 -1.0100 -0.0219
    6MOL0     H  780   9.652   1.265   7.337 -0.2702  2.0605  3.4884
    6MOL0     H  781   9.690   1.218   7.495 -0.6644 -1.6599  1.0824
    6MOL0     H  782   9.842   1.036   7.319 -1.5170  0.3052  1.5751
    6MOL0     H  783   9.874   1.209   7.285 -1.9483  1.5352 -0.7372
    6MOL0     H  784   9.871   1.076   7.559 -1.1626 -2.0918 -1.9780
    6MOL0     H  785  10.020   1.092   7.462 -0.7811  1.9422 -0.2173
    6MOL0     H  786   9.861   1.132   7.773 -2.1424  2.4632  0.7213
    6MOL0     H  787   9.954   1.207   8.132 -0.9534  0.3700  1.0285
    6MOL0     H  788   9.936   1.085   8.012 -0.3288  1.1664 -1.7207
    6MOL0     H  789   9.802   1.198   8.053  0.4642 -0.2129  3.2444
    6MOL0     H  790  10.300   1.672   8.186 -1.1854  1.3852  2.0787
    6MOL0     H  791  10.419   1.674   8.397  2.1201 -0.6856 -4.1933
    6MOL0     H  792  10.534   1.649   8.557 -0.0951  1.6974 -0.2918
    6MOL0     H  793  10.399   1.678   8.670  0.0623  0.9155 -1.9939
    6MOL0     H  794  10.471   1.589   8.848  0.6593 -2.5572  0.9406
    6MOL0     H  795  10.593   1.490   8.755 -5.3834 -2.5144 -3.9311
    6MOL0     H  796  10.581   1.794   8.781  1.1088  0.3363  0.4608
    6MOL0     H  797  10.729   1.701   8.741  0.2138  0.4154  0.3370
    6MOL0     H  798  10.739   1.601   8.956 -0.3853  0.0886  1.1572
    6MOL0     H  799  10.615   1.684   9.016 -1.1270 -1.4177 -0.5358
    6MOL0     H  800  10.868   1.811   8.929 -0.0560  0.3596  0.3029
    6MOL0     H  801  10.733   1.906   8.987 -0.5688  0.4557 -1.0167
    6MOL0     H  802  10.883   1.686   9.154 -0.2010  0.8318  2.5281
    6MOL0     H  803  10.724   1.767   9.186  1.1345  1.6629  1.3449
    6MOL0     H  804  10.841   1.977   9.184  0.4036 -0.8498 -1.6462
    6MOL0     H  805  11.003   1.904   9.146  0.8918  3.4152  1.7350
    6MOL0     H  806  10.988   1.789   9.357 -1.9504 -1.6910 -2.1196
    6MOL0     H  807  10.815   1.832   9.385  0.5528 -2.0245 -0.9497
    6MOL0     H  808  10.304   1.273   8.485 -0.6327 -0.3240 -1.0313
    6MOL0     H  809  10.202   1.259   8.274  0.3542 -3.1973  4.8567
    6MOL0     H  810  10.143   1.540   7.832 -0.2405 -0.1273 -0.3572
    6MOL0     H  811  10.082   1.468   7.608 -0.5651  0.6001  0.0675
    6MOL0     H  812   8.007   1.551   7.454  1.2139 -0.7399 -1.0156
    6MOL0     H  813   7.788   1.498   7.345  2.0864  0.9511  1.7075
    6MOL0     H  814   7.631   1.092   7.186  0.1170  0.1455  1.9382
    6MOL0     H  815   7.420   0.943   7.214 -1.6048  0.0535 -1.1407
    6MOL0     H  816   7.029   1.138   7.233  1.7892  0.2631 -0.3013
    6MOL0     H  817   7.008   0.975   7.289  1.6524 -0.5886 -2.9978
    6MOL0     H  818   7.045   1.117   7.487 -1.4882  0.3707 -0.7145
    6MOL0     H  819   7.182   1.203   7.415  2.7260 -1.6522 -1.0284
    6MOL0     H  820   7.321   0.971   7.455  1.7889 -3.0624  3.8937
    6MOL0     H  821   7.254   1.029   7.600  3.2934 -1.9166  1.1642
    6MOL0     H  822   7.229   0.789   7.562 -1.6935 -1.8735  2.4183
    6MOL0     H  823   7.149   0.805   7.412  1.2700 -0.1438 -0.3412
    6MOL0     H  824   6.845   0.905   7.707  0.5172 -0.3267  1.2367
    6MOL0     H  825   7.168   1.266   7.110  0.9516  3.5948 -0.3623
    6MOL0     H  826   7.241   1.472   7.102 -0.4782  1.2807  2.9648
    6MOL0     H  827   7.389   1.510   7.182  2.1215 -2.2816  0.2658
    6MOL0     H  828   7.398   1.496   7.006  0.3998 -1.5543  0.6857
    7MOL0     O  829   9.458   5.357   2.910  0.2446 -0.0753  0.0073
    7MOL0     C  830   9.393   5.398   2.816  0.6136 -0.1222 -0.3298
    7MOL0     O  831   9.409   5.356   2.695 -0.1089  0.0644 -0.4501
    7MOL0     C  832   9.519   5.273   2.676  0.2211 -0.2774  0.6184
    7MOL0     C  833   9.509   5.135   2.716  0.1085  0.0385 -0.9554
    7MOL0     C  834   9.606   5.041   2.692 -0.0314  0.7562 -1.4699
    7MOL0     C  835   9.734   5.092   2.653  0.3549 -0.3692  0.3591
    7MOL0     O  836   9.820   4.992   2.626  0.4369 -0.5727 -0.1474
    7MOL0     C  837   9.941   5.032   2.570 -0.1072 -0.7428  0.0278
    7MOL0     C  838  10.042   4.919   2.567 -0.0734  0.9163  0.7179
    7MOL0     C  839  10.175   4.948   2.486 -0.0734  0.4941 -0.2576
    7MOL0     C  840  10.151   4.922   2.344  0.5764 -0.2959  0.2309
    7MOL0     C  841  10.196   4.786   2.302  0.2591  0.4605 -1.3193
    7MOL0     C  842  10.131   4.663   2.372  0.1689  0.2717  1.2747
    7MOL0     C  843  10.171   4.532   2.296 -0.7806  0.0853  0.7493
    7MOL0     C  844  10.130   4.534   2.146 -1.1059  0.1346  0.8115
    7MOL0     N  845  10.082   4.407   2.101 -0.1978 -0.0509  0.0082
    7MOL0     C  846   9.978   4.389   2.019  0.9103  0.4503  0.8247
    7MOL0     C  847   9.963   4.249   1.997  0.0834 -0.3342  0.4279
    7MOL0     C  848   9.856   4.172   1.917  0.0716 -0.7275 -0.4117
    7MOL0     C  849   9.873   4.210   1.771  0.0343 -0.0709 -1.5442
    7MOL0     C  850   9.990   4.136   1.699  0.1369  0.5873 -0.4999
    7MOL0     C  851   9.958   3.996   1.650 -0.7604  0.4109 -0.0904
    7MOL0     O  852   9.877   4.005   1.535  0.2949 -0.4172  0.5747
    7MOL0     C  853   9.839   3.892   1.474 -0.3668 -0.2286  0.9963
    7MOL0     C  854   9.856   3.759   1.526  0.0755  0.0331 -0.2127
    7MOL0     C  855   9.782   3.661   1.470 -0.4616 -0.7212  1.0947
    7MOL0     C  856   9.798   3.532   1.542  0.4394 -0.5056  0.3026
    7MOL0     C  857   9.684   3.682   1.364  0.3051 -0.2898  0.7740
    7MOL0     C  858   9.599   3.585   1.301  0.8966  0.4472  0.6907
    7MOL0     O  859   9.579   3.474   1.369  0.2667 -0.1314  0.1855
    7MOL0     C  860   9.469   3.389   1.349  0.4148 -1.4158 -1.3322
    7MOL0     C  861   9.472   3.271   1.433 -0.2763  0.2040 -0.9930
    7MOL0     C  862   9.388   3.164   1.410 -1.2733  0.6671  0.8437
    7MOL0     C  863   9.295   3.175   1.311  0.3229  0.1969 -0.6076
    7MOL0     O  864   9.203   3.076   1.291  0.8725 -0.3710 -0.3174
    7MOL0     C  865   9.242   2.934   1.294 -0.2881 -0.3552 -0.3507
    7MOL0     C  866   9.223   2.875   1.158  1.0284  0.0118  0.0668
    7MOL0     C  867   9.233   2.720   1.161 -0.6126  0.3554  0.6445
    7MOL0     C  868   9.213   2.644   1.034  0.6577 -0.2905 -0.1796
    7MOL0     C  869   9.246   2.491   1.044 -0.4957  0.1196 -0.4075
    7MOL0     C  870   9.126   2.392   1.015  0.4974 -0.5778  0.3339
    7MOL0     C  871   9.132   2.243   1.059 -0.6148 -0.1269 -0.0334
    7MOL0     C  872   9.197   2.163   0.946  0.5712  0.6916  0.5687
    7MOL0    Cl  873   9.080   2.154   0.813  0.2490 -0.1614  0.1611
    7MOL0     C  874   9.279   3.301   1.244  0.6025  0.4929  0.0449
    7MOL0     C  875   9.365   3.410   1.262 -0.5726  0.7632 -0.6446
    7MOL0     O  876   9.551   3.614   1.191 -0.2952  0.1997 -0.3126
    7MOL0     C  877   9.676   3.811   1.313 -0.5656 -0.7624  0.4064
    7MOL0     C  878   9.748   3.915   1.371 -0.9800 -0.6580  0.4786
    7MOL0     N  879  10.074   4.193   2.054 -0.0964  0.7477 -0.0775
    7MOL0     N  880  10.144   4.282   2.106 -0.0437  0.5664  0.0191
    7MOL0     C  881   9.752   5.230   2.622 -0.1463  0.8743  0.6507
    7MOL0     C  882   9.640   5.321   2.633 -0.1139  0.0019 -0.3758
    7MOL0     C  883   9.269   5.472   2.849 -0.6061  0.1795  0.6606
    7MOL0     C  884   9.163   5.474   2.752  0.3748 -0.4289 -0.1110
    7MOL0     C  885   9.051   5.546   2.776  0.1882 -0.5384 -0.2947
    7MOL0     C  886   9.030   5.618   2.888 -0.1630 -1.3141 -0.2780
    7MOL0     O  887   8.917   5.698   2.895  0.1915 -0.1263  0.0586
    7MOL0     C  888   8.842   5.701   3.020 -0.0422 -0.3606 -0.3804
    7MOL0     C  889   8.861   5.847   3.073  0.0486 -0.0429 -0.1526
    7MOL0     C  890   8.761   5.861   3.186 -0.2830 -0.0202 -0.8314
    7MOL0     C  891   8.626   5.901   3.132  0.1275  0.1691  0.0096
    7MOL0     C  892   8.611   6.042   3.118 -0.9113 -0.8263 -0.4018
    7MOL0     C  893   8.595   6.169   3.133  0.5054 -0.0750  0.7555
    7MOL0     C  894   9.139   5.626   2.982  0.3285 -0.0690  0.1727
    7MOL0     C  895   9.256   5.546   2.964 -0.0805  0.0316 -0.5288
    7MOL0     C  896   9.352   5.570   3.074  0.2829  0.2929  0.5113
    7MOL0     H  897   9.415   5.108   2.765  2.5081 -4.3734  1.9163
    7MOL0     H  898   9.606   4.937   2.723  0.6304  1.4231  1.0038
    7MOL0     H  899   9.986   5.103   2.640 -0.7478 -1.9368  1.7347
    7MOL0     H  900   9.918   5.067   2.469  1.5717 -0.5446 -0.3124
    7MOL0     H  901  10.082   4.901   2.667  2.2568  1.6886 -0.0067
    7MOL0     H  902   9.996   4.828   2.527  2.0025  0.6616 -1.3506
    7MOL0     H  903  10.188   5.056   2.501  0.7520  0.5298 -1.1523
    7MOL0     H  904  10.264   4.901   2.528  1.2033  4.2778  1.8217
    7MOL0     H  905  10.048   4.951   2.319  0.9496  1.2965  0.4462
    7MOL0     H  906  10.207   4.993   2.283  1.3132  0.8197  2.1100
    7MOL0     H  907  10.305   4.789   2.303  0.3022  1.7650 -3.3127
    7MOL0     H  908  10.175   4.776   2.195 -0.4322  0.8927 -1.2296
    7MOL0     H  909  10.173   4.658   2.473 -1.4469 -0.5506  1.9451
    7MOL0     H  910  10.022   4.670   2.362 -0.1760 -2.5023  2.1051
    7MOL0     H  911  10.122   4.446   2.342  0.6312 -1.4292 -0.4246
    7MOL0     H  912  10.277   4.505   2.306 -1.2326 -2.7141 -0.7319
    7MOL0     H  913  10.063   4.615   2.117  2.0436  2.5090 -0.4889
    7MOL0     H  914  10.220   4.561   2.089 -1.8361 -0.8810 -0.9109
    7MOL0     H  915   9.913   4.463   1.975  1.7027  1.0113  0.5915
    7MOL0     H  916   9.760   4.202   1.962  1.2817  0.8244  1.3099
    7MOL0     H  917   9.885   4.068   1.936  0.3309 -0.0156  4.6585
    7MOL0     H  918   9.775   4.197   1.724 -1.5268 -4.5331  2.2445
    7MOL0     H  919   9.900   4.316   1.770  2.2729 -0.5140  1.1287
    7MOL0     H  920  10.026   4.193   1.612  0.5207  0.1868 -0.6071
    7MOL0     H  921  10.069   4.120   1.772 -1.5890  1.4128  1.6474
    7MOL0     H  922  10.057   3.953   1.633  0.4841  1.6236  3.3080
    7MOL0     H  923   9.918   3.928   1.727  1.7971 -0.7690  0.2909
    7MOL0     H  924   9.926   3.747   1.609  0.8963  0.3424 -0.8430
    7MOL0     H  925   9.813   3.456   1.465 -1.3467  1.5495 -2.2436
    7MOL0     H  926   9.705   3.508   1.595  2.0416 -4.1359  1.8589
    7MOL0     H  927   9.889   3.535   1.604  1.6629  0.5182 -1.4381
    7MOL0     H  928   9.553   3.251   1.503  1.1588 -1.7339 -3.0922
    7MOL0     H  929   9.382   3.086   1.484 -0.9124 -0.0491  0.1269
    7MOL0     H  930   9.344   2.917   1.330 -0.6649  0.3345  1.1685
    7MOL0     H  931   9.164   2.893   1.359  0.0705  1.3544  1.2640
    7MOL0     H  932   9.125   2.901   1.116  1.2505  0.1619 -0.3599
    7MOL0     H  933   9.297   2.918   1.091  0.0540  0.8035 -0.5337
    7MOL0     H  934   9.164   2.686   1.239 -1.5325  1.6573  0.4187
    7MOL0     H  935   9.334   2.699   1.199 -0.0603  0.9379 -0.4341
    7MOL0     H  936   9.280   2.679   0.955 -0.9373  0.2477 -1.3230
    7MOL0     H  937   9.111   2.664   1.003  0.4820  0.3991  0.7920
    7MOL0     H  938   9.327   2.457   0.980  1.1446  1.0362  1.0871
    7MOL0     H  939   9.278   2.474   1.148 -1.3331  0.3563 -0.0962
    7MOL0     H  940   9.092   2.400   0.912  1.4793 -1.3877 -0.0659
    7MOL0     H  941   9.050   2.445   1.074 -2.9755 -2.2486 -2.3145
    7MOL0     H  942   9.031   2.210   1.087 -0.1488 -0.6829  1.0638
    7MOL0     H  943   9.193   2.236   1.149 -1.9711 -1.0919  0.8683
    7MOL0     H  944   9.207   2.057   0.969 -0.8765  0.2031 -0.8627
    7MOL0     H  945   9.296   2.186   0.905  0.0465 -2.5062 -3.0738
    7MOL0     H  946   9.203   3.303   1.167  2.1712  1.6705 -1.5669
    7MOL0     H  947   9.361   3.507   1.214 -0.0419  2.4738  2.4656
    7MOL0     H  948   9.607   3.835   1.233 -0.8503  0.7653  1.0661
    7MOL0     H  949   9.745   4.015   1.329 -0.7520 -0.5419  0.7371
    7MOL0     H  950   9.851   5.267   2.601 -0.2472  0.5453 -0.4765
    7MOL0     H  951   9.641   5.425   2.602 -1.7215  0.1125 -0.1517
    7MOL0     H  952   9.177   5.412   2.664  1.3619  1.3377 -1.2584
    7MOL0     H  953   8.970   5.558   2.705 -0.1493 -1.8380 -0.1627
    7MOL0     H  954   8.739   5.673   2.999  0.4787 -3.4137  0.7708
    7MOL0     H  955   8.881   5.633   3.095 -2.1290  0.2718  1.3556
    7MOL0     H  956   8.850   5.923   2.995  2.8240  3.2457  2.3143
    7MOL0     H  957   8.960   5.858   3.118 -0.3505  0.9688  0.5093
    7MOL0     H  958   8.752   5.779   3.258  2.8663  1.2333  1.1824
    7MOL0     H  959   8.796   5.940   3.253  1.8091  0.3851 -2.3204
    7MOL0     H  960   8.542   5.884   3.200  0.9762  2.6335  1.8325
    7MOL0     H  961   8.603   5.870   3.029  0.1341  0.4492 -0.0781
    7MOL0     H  962   8.575   6.274   3.143 -1.3866 -0.4661  1.5912
    7MOL0     H  963   9.124   5.702   3.058  2.2739  2.2660 -1.5938
    7MOL0     H  964   9.300   5.588   3.169 -1.2388  0.2511 -0.2786
    7MOL0     H  965   9.410   5.478   3.087  1.8649  0.1765 -5.0407
    7MOL0     H  966   9.426   5.642   3.038 -1.9992  1.0737 -3.0961
    8MOL0     O  967   5.671   2.587   9.440  0.2110 -0.2589  0.0320
    8MOL0     C  968   5.776   2.532   9.440 -0.2883  0.0956  0.3853
    8MOL0     O  969   5.845   2.495   9.322 -0.4539 -0.4850 -0.2278
    8MOL0     C  970   5.796   2.526   9.192 -0.1905 -1.1908  0.0658
    8MOL0     C  971   5.737   2.649   9.162 -0.1667  0.9851 -0.2070
    8MOL0     C  972   5.687   2.670   9.033  1.1626  0.3516  0.2776
    8MOL0     C  973   5.718   2.577   8.933  0.7500 -0.4309 -0.4115
    8MOL0     O  974   5.681   2.609   8.808  0.2851 -0.1277  0.2749
    8MOL0     C  975   5.685   2.510   8.698  0.4538 -0.0106 -0.1950
    8MOL0     C  976   5.601   2.550   8.575 -0.2622 -0.4404 -0.5472
    8MOL0     C  977   5.620   2.465   8.449  0.1844  0.3231 -0.2170
    8MOL0     C  978   5.518   2.475   8.337  0.3326 -0.8137 -1.0532
    8MOL0     C  979   5.539   2.359   8.235  0.0203  0.9016  0.1112
    8MOL0     C  980   5.474   2.230   8.284 -0.9337  0.7659 -0.0403
    8MOL0     C  981   5.473   2.129   8.167 -1.1563  0.4394 -0.1494
    8MOL0     C  982   5.362   2.165   8.056 -0.0079 -0.3101 -0.7018
    8MOL0     N  983   5.372   2.078   7.933 -0.2924 -0.6638  0.3740
    8MOL0     C  984   5.389   1.941   7.921  0.9560 -0.5115 -0.5178
    8MOL0     C  985   5.377   1.917   7.787  0.6466  0.5531 -0.4606
    8MOL0     C  986   5.372   1.778   7.716 -0.3776 -0.3934 -0.2706
    8MOL0     C  987   5.239   1.728   7.646  0.4195 -0.6560 -1.2642
    8MOL0     C  988   5.132   1.695   7.743 -0.1066  0.1554  0.1148
    8MOL0     C  989   5.016   1.639   7.677 -0.6952  0.4856  0.6325
    8MOL0     O  990   5.011   1.496   7.667  0.3407 -0.1691  0.5704
    8MOL0     C  991   4.903   1.439   7.628  0.2480  0.4632 -0.8374
    8MOL0     C  992   4.825   1.478   7.526 -0.8984  0.1314  0.4547
    8MOL0     C  993   4.703   1.414   7.487 -0.0308 -0.1688  0.1493
    8MOL0     C  994   4.616   1.492   7.388  0.2508  0.8834 -0.1756
    8MOL0     C  995   4.666   1.298   7.557 -0.8821 -0.0514 -0.5774
    8MOL0     C  996   4.541   1.220   7.532 -0.0853 -0.9413  0.9282
    8MOL0     O  997   4.451   1.283   7.445 -0.9061 -0.0918  0.3150
    8MOL0     C  998   4.320   1.249   7.428 -0.4247  0.6749  0.3942
    8MOL0     C  999   4.245   1.149   7.499 -0.6444 -0.3034  0.1749
    8MOL0     C 1000   4.118   1.123   7.479 -0.2908  0.1296  1.1045
    8MOL0     C 1001   4.040   1.196   7.385 -1.0636  0.5261  0.2844
    8MOL0     O 1002   3.910   1.189   7.364 -0.3059  1.0268 -0.6547
    8MOL0     C 1003   3.854   1.052   7.339 -0.3599 -0.1173 -0.6262
    8MOL0     C 1004   3.706   1.061   7.381 -0.4591  0.3709  0.5820
    8MOL0     C 1005   3.648   0.917   7.382 -0.1705  0.4491  0.5306
    8MOL0     C 1006   3.490   0.904   7.384 -1.2438  0.1211  0.9279
    8MOL0     C 1007   3.424   1.001   7.280 -0.5909 -0.1890 -0.3687
    8MOL0     C 1008   3.289   0.948   7.243 -0.7978 -0.3399  0.2112
    8MOL0     C 1009   3.233   1.010   7.115 -0.1385  0.5681 -0.1635
    8MOL0     C 1010   3.096   0.941   7.068 -1.0678 -0.5760  0.1321
    8MOL0    Cl 1011   3.053   1.023   6.915  0.6534  0.1722  0.1171
    8MOL0     C 1012   4.111   1.297   7.315  0.7931 -0.0141 -0.2155
    8MOL0     C 1013   4.246   1.329   7.334  0.2487  0.5910  0.3970
    8MOL0     O 1014   4.523   1.108   7.572 -0.7634  0.4264  0.0732
    8MOL0     C 1015   4.747   1.265   7.664 -0.0203  0.1929 -0.0264
    8MOL0     C 1016   4.861   1.336   7.701 -0.3151  0.9015  0.1356
    8MOL0     N 1017   5.361   2.041   7.729 -0.1551  1.0502 -0.3597
    8MOL0     N 1018   5.366   2.134   7.812 -0.2507 -0.3397 -0.1618
    8MOL0     C 1019   5.800   2.471   8.960 -0.0801 -0.0579  0.0412
    8MOL0     C 1020   5.836   2.448   9.095  1.0284  0.2711 -0.3938
    8MOL0     C 1021   5.839   2.510   9.582  0.0431  0.3519  0.2661
    8MOL0     C 1022   5.777   2.580   9.693 -0.2776 -0.9733  0.8551
    8MOL0     C 1023   5.825   2.583   9.820 -0.3889 -0.4843 -0.3275
    8MOL0     C 1024   5.935   2.502   9.850 -0.3302  0.4678  0.8901
    8MOL0     O 1025   5.967   2.484   9.976  0.2289 -0.8664  0.5591
    8MOL0     C 1026   5.863   2.451  10.080 -0.4125 -0.9558  0.6615
    8MOL0     C 1027   5.782   2.324  10.054 -0.5415 -0.1906  0.0987
    8MOL0     C 1028   5.785   2.227  10.177 -0.0776 -0.0231  0.4841
    8MOL0     C 1029   5.910   2.169  10.225  0.2261 -0.9015 -1.2348
    8MOL0     C 1030   5.977   2.094  10.118  0.3824 -0.8687  0.3821
    8MOL0     C 1031   6.018   2.045  10.022 -0.3523  0.5635  0.5588
    8MOL0     C 1032   6.002   2.435   9.741  0.2911  0.8823  0.4645
    8MOL0     C 1033   5.961   2.439   9.604  0.3905  0.3926 -0.5574
    8MOL0     C 1034   6.037   2.366   9.506 -0.4132 -0.3212  0.2313
    8MOL0     H 1035   5.723   2.736   9.226 -4.4332  3.1590 -3.6011
    8MOL0     H 1036   5.623   2.751   9.000 -1.6961 -1.9174 -0.1788
    8MOL0     H 1037   5.658   2.413   8.741  1.3425  0.5674  1.7983
    8MOL0     H 1038   5.781   2.485   8.653 -0.0500 -4.0151  0.5733
    8MOL0     H 1039   5.497   2.556   8.609  1.1139 -2.1778  4.9415
    8MOL0     H 1040   5.629   2.650   8.539 -0.6921 -0.2439 -0.3476
    8MOL0     H 1041   5.721   2.492   8.419 -0.1776  2.7821  0.5507
    8MOL0     H 1042   5.626   2.364   8.489 -0.9778  1.1533  2.3064
    8MOL0     H 1043   5.417   2.474   8.377  0.1445  2.7052 -1.2020
    8MOL0     H 1044   5.531   2.567   8.280  1.6666  0.5912  1.3539
    8MOL0     H 1045   5.646   2.339   8.217 -0.0365  2.1626 -1.9225
    8MOL0     H 1046   5.479   2.385   8.148 -0.3319 -0.9613 -0.2479
    8MOL0     H 1047   5.533   2.186   8.366 -2.2705  1.4659  1.3492
    8MOL0     H 1048   5.372   2.248   8.317 -0.4061  1.3074  1.3893
    8MOL0     H 1049   5.455   2.025   8.196 -2.3024 -0.0310 -2.3262
    8MOL0     H 1050   5.575   2.128   8.128 -0.1847 -0.4075  2.2237
    8MOL0     H 1051   5.263   2.160   8.101  0.0037 -0.2036 -0.6671
    8MOL0     H 1052   5.368   2.271   8.029 -1.1049 -0.2681 -0.8396
    8MOL0     H 1053   5.395   1.876   8.008  4.5047  1.0435  0.6055
    8MOL0     H 1054   5.407   1.699   7.784  1.3669  0.2017 -0.4208
    8MOL0     H 1055   5.442   1.788   7.632  0.5341 -1.8147  0.2822
    8MOL0     H 1056   5.208   1.806   7.576  1.4853 -1.5796 -2.8479
    8MOL0     H 1057   5.267   1.634   7.598 -0.1100 -3.0393  2.6492
    8MOL0     H 1058   5.160   1.621   7.820  1.2305 -1.5938 -1.9422
    8MOL0     H 1059   5.106   1.785   7.798 -1.2120  2.4520 -3.8247
    8MOL0     H 1060   4.927   1.687   7.719  0.6762  1.6382  2.3715
    8MOL0     H 1061   5.008   1.679   7.576 -0.3843 -0.0971  0.3711
    8MOL0     H 1062   4.873   1.562   7.475  3.4174 -1.9240  0.6856
    8MOL0     H 1063   4.619   1.433   7.296  0.9887 -1.4994  1.2829
    8MOL0     H 1064   4.658   1.589   7.359 -1.3448  1.2265 -1.4654
    8MOL0     H 1065   4.512   1.507   7.417  0.1524  0.2918 -0.2174
    8MOL0     H 1066   4.282   1.106   7.591 -1.2328  5.0873  3.3459
    8MOL0     H 1067   4.073   1.052   7.548  2.9139 -3.3510  0.0271
    8MOL0     H 1068   3.869   1.015   7.237 -2.0364 -2.4199 -0.1248
    8MOL0     H 1069   3.901   0.985   7.411  0.7923  1.2061 -0.0970
    8MOL0     H 1070   3.696   1.106   7.480 -0.9071 -0.3583  0.8829
    8MOL0     H 1071   3.667   1.123   7.300 -0.8474 -2.3177 -1.4316
    8MOL0     H 1072   3.692   0.876   7.474  0.5804  2.8951  1.3469
    8MOL0     H 1073   3.684   0.865   7.293  0.5422 -0.7611  1.4932
    8MOL0     H 1074   3.459   0.929   7.486 -0.4645  1.6284  0.8183
    8MOL0     H 1075   3.453   0.802   7.367 -3.7789  0.5443  3.1726
    8MOL0     H 1076   3.415   1.096   7.334 -0.1354 -1.1057  1.4060
    8MOL0     H 1077   3.492   1.004   7.195  1.5125 -5.0193  0.7521
    8MOL0     H 1078   3.211   0.964   7.318 -0.2681  1.7222  0.3865
    8MOL0     H 1079   3.306   0.841   7.228  0.3821  0.0479 -1.5242
    8MOL0     H 1080   3.305   1.023   7.034  0.6921 -0.5232  0.3612
    8MOL0     H 1081   3.203   1.110   7.148  1.6330  1.2034 -0.3877
    8MOL0     H 1082   3.020   0.943   7.147 -3.0551 -1.3312 -1.6746
    8MOL0     H 1083   3.119   0.835   7.053  0.1302  0.0157 -2.9592
    8MOL0     H 1084   4.056   1.359   7.246 -1.0233  0.3449  1.4825
    8MOL0     H 1085   4.288   1.397   7.260 -1.6160 -0.4196 -1.7214
    8MOL0     H 1086   4.703   1.193   7.732 -0.8246 -0.4220 -1.1641
    8MOL0     H 1087   4.926   1.290   7.775  0.4454 -0.4040 -1.2741
    8MOL0     H 1088   5.834   2.392   8.894 -0.4674 -1.2609  1.2187
    8MOL0     H 1089   5.894   2.359   9.117  0.2952 -0.0738  0.1964
    8MOL0     H 1090   5.676   2.616   9.679 -0.3211 -1.4479 -0.1533
    8MOL0     H 1091   5.765   2.624   9.901  3.3260  1.4163  1.7317
    8MOL0     H 1092   5.920   2.437  10.172  1.5326  0.8233 -0.2084
    8MOL0     H 1093   5.793   2.535  10.084  0.9051  0.2195 -0.1020
    8MOL0     H 1094   5.798   2.274   9.957 -1.2888 -0.5757  0.1631
    8MOL0     H 1095   5.680   2.361  10.039 -0.9858  0.1052  3.2991
    8MOL0     H 1096   5.735   2.282  10.257  1.7658  0.4893  1.3532
    8MOL0     H 1097   5.727   2.139  10.148 -0.3059  0.1376  0.4476
    8MOL0     H 1098   5.887   2.101  10.308 -1.4423  0.3111 -0.6435
    8MOL0     H 1099   5.982   2.245  10.258 -0.0589 -0.6881 -1.0963
    8MOL0     H 1100   6.056   1.996   9.935  1.2705  1.8573  0.4938
    8MOL0     H 1101   6.089   2.373   9.763 -0.2162 -0.9000 -2.0421
    8MOL0     H 1102   6.107   2.435   9.457  1.0982  2.5445  5.6142
    8MOL0     H 1103   6.110   2.296   9.549 -0.8473  1.8904  5.3506
    8MOL0     H 1104   5.984   2.289   9.450 -1.4917 -0.9867  2.0918
    9MOL0     O 1105   1.722   6.036   6.892  0.1824  0.0661 -0.1798
    9MOL0     C 1106   1.706   5.950   6.806 -0.6066  0.0524  0.3280
    9MOL0     O 1107   1.717   5.811   6.832 -0.9957 -0.2524 -0.2511
    9MOL0     C 1108   1.728   5.763   6.963  0.7226 -0.0472  1.0247
    9MOL0     C 1109   1.793   5.641   6.977  0.6015 -0.4221 -0.3022
    9MOL0     C 1110   1.802   5.583   7.107  0.0544 -0.7348 -0.1192
    9MOL0     C 1111   1.751   5.643   7.221  0.2875  0.4009  0.0916
    9MOL0     O 1112   1.785   5.608   7.348  0.2104  0.2734  0.1912
    9MOL0     C 1113   1.783   5.471   7.384  0.2907 -0.1555 -0.5945
    9MOL0     C 1114   1.655   5.438   7.470 -0.4618  0.2301  1.8010
    9MOL0     C 1115   1.544   5.382   7.382 -0.1142  0.7703  0.3539
    9MOL0     C 1116   1.403   5.401   7.440 -0.3212  0.8170  0.5017
    9MOL0     C 1117   1.295   5.342   7.352 -0.1366  0.8709 -0.5574
    9MOL0     C 1118   1.166   5.348   7.426  1.0908 -0.3539  0.5131
    9MOL0     C 1119   1.057   5.257   7.377  0.4634  0.4059 -1.0383
    9MOL0     C 1120   0.997   5.311   7.250 -0.0994  0.2442 -0.0720
    9MOL0     N 1121   0.873   5.387   7.280  0.0099  0.7753 -0.3434
    9MOL0     C 1122   0.752   5.338   7.240  0.3174 -0.1460 -0.0783
    9MOL0     C 1123   0.654   5.426   7.284 -0.1777 -0.4365 -0.3247
    9MOL0     C 1124   0.508   5.396   7.291 -0.5865 -0.1467 -1.3110
    9MOL0     C 1125   0.439   5.385   7.156  0.7380  0.2026 -0.4913
    9MOL0     C 1126   0.286   5.406   7.179 -0.2536 -0.1193 -0.1022
    9MOL0     C 1127   0.190   5.403   7.061 -0.6427 -0.7538  0.2211
    9MOL0     O 1128   0.076   5.454   7.123 -0.2793 -0.6920  0.6373
    9MOL0     C 1129  -0.029   5.372   7.138 -0.6272 -0.1193  0.4224
    9MOL0     C 1130  -0.036   5.237   7.118  0.0904 -0.2789  0.3486
    9MOL0     C 1131  -0.142   5.159   7.165  0.5201  0.7186  0.7270
    9MOL0     C 1132  -0.134   5.006   7.141 -0.1405 -0.1792  0.9444
    9MOL0     C 1133  -0.262   5.219   7.208  0.8298  0.5171 -0.5976
    9MOL0     C 1134  -0.399   5.149   7.216 -0.4523  0.5161  0.0590
    9MOL0     O 1135  -0.501   5.208   7.276  0.4952 -0.1829 -0.6599
    9MOL0     C 1136  -0.614   5.134   7.300 -0.7755 -0.4300  0.1167
    9MOL0     C 1137  -0.703   5.076   7.210  0.4298  1.3072 -1.3213
    9MOL0     C 1138  -0.809   4.996   7.267 -0.2317  0.0501 -0.3105
    9MOL0     C 1139  -0.829   4.973   7.404  0.1806  0.4539 -0.0269
    9MOL0     O 1140  -0.942   4.902   7.444 -0.2050 -0.4753  0.6292
    9MOL0     C 1141  -0.945   4.857   7.587 -0.2320  0.9223  0.3262
    9MOL0     C 1142  -1.064   4.758   7.616  0.2972  0.1642 -0.6705
    9MOL0     C 1143  -1.210   4.792   7.555 -0.1027  0.1685  0.5082
    9MOL0     C 1144  -1.241   4.936   7.536 -0.4960 -0.7806  0.6465
    9MOL0     C 1145  -1.369   4.950   7.448 -0.3842 -0.3961 -0.4568
    9MOL0     C 1146  -1.417   5.098   7.463 -0.1155  0.1577  1.1187
    9MOL0     C 1147  -1.539   5.141   7.367 -0.7358  0.0318 -0.4374
    9MOL0     C 1148  -1.532   5.295   7.357 -0.9708 -0.4840  0.6559
    9MOL0    Cl 1149  -1.399   5.356   7.263 -0.1747 -0.3633 -0.3439
    9MOL0     C 1150  -0.735   5.029   7.492 -0.1527 -0.2170  0.2695
    9MOL0     C 1151  -0.636   5.121   7.439  0.8671  0.7312  0.5523
    9MOL0     O 1152  -0.408   5.042   7.153 -0.2749 -0.4763  0.0675
    9MOL0     C 1153  -0.252   5.357   7.226  0.3883 -0.7776  0.7861
    9MOL0     C 1154  -0.142   5.436   7.191 -0.2176  0.1769  0.2066
    9MOL0     N 1155   0.723   5.533   7.340 -0.0775  0.8534  0.6241
    9MOL0     N 1156   0.853   5.503   7.345  0.0494 -0.4451 -0.8751
    9MOL0     C 1157   1.686   5.765   7.200  0.6440 -0.4842  0.0128
    9MOL0     C 1158   1.680   5.835   7.080  1.0192  0.5394  0.3724
    9MOL0     C 1159   1.682   5.994   6.665  0.0658  0.4915 -0.2065
    9MOL0     C 1160   1.775   5.952   6.569 -0.3305  0.5588 -0.6058
    9MOL0     C 1161   1.766   5.984   6.432 -0.6835  0.8937 -0.9334
    9MOL0     C 1162   1.660   6.063   6.395 -0.3472 -1.1766  0.2524
    9MOL0     O 1163   1.635   6.107   6.267 -0.0020  0.3123 -0.3020
    9MOL0     C 1164   1.727   6.057   6.161  0.4213 -0.3458  0.2060
    9MOL0     C 1165   1.706   6.114   6.020 -0.4851  0.8686 -0.4416
    9MOL0     C 1166   1.559   6.153   5.989 -0.5063  0.2315 -0.5796
    9MOL0     C 1167   1.540   6.201   5.840  0.0722 -0.0282 -0.1537
    9MOL0     C 1168   1.643   6.291   5.788 -0.6278 -0.2262  0.2994
    9MOL0     C 1169   1.705   6.370   5.733 -0.2810 -1.0311  0.0081
    9MOL0     C 1170   1.566   6.118   6.487 -0.7024  0.3027 -0.0858
    9MOL0     C 1171   1.581   6.087   6.622  0.4753  1.3152  0.8150
    9MOL0     C 1172   1.489   6.165   6.715 -0.4094  0.3080  0.5657
    9MOL0     H 1173   1.834   5.602   6.884 -1.1129  0.7854 -1.6502
    9MOL0     H 1174   1.858   5.491   7.119 -0.4222 -0.9469  0.5415
    9MOL0     H 1175   1.873   5.465   7.447  0.9923  2.0154 -1.2830
    9MOL0     H 1176   1.790   5.398   7.304 -1.4544 -1.6370  0.5244
    9MOL0     H 1177   1.702   5.361   7.532 -0.7938 -0.2597  1.4433
    9MOL0     H 1178   1.619   5.525   7.526 -1.0109 -0.7827  3.0720
    9MOL0     H 1179   1.573   5.423   7.285 -1.0096  1.1083  0.2206
    9MOL0     H 1180   1.557   5.274   7.391 -4.5871  0.0747  0.7724
    9MOL0     H 1181   1.398   5.345   7.534  1.1759 -0.1293  0.0603
    9MOL0     H 1182   1.385   5.507   7.455 -1.8704  0.2606  3.2438
    9MOL0     H 1183   1.317   5.240   7.318  0.9352  0.9179 -0.0227
    9MOL0     H 1184   1.283   5.410   7.267  2.0678 -0.7902 -2.3232
    9MOL0     H 1185   1.193   5.315   7.527 -1.9103  0.6102  1.7402
    9MOL0     H 1186   1.135   5.452   7.436  1.5656 -0.2650  1.1422
    9MOL0     H 1187   0.982   5.250   7.457  0.7410  0.0664 -0.8065
    9MOL0     H 1188   1.084   5.151   7.371 -2.2835 -0.4715  0.4915
    9MOL0     H 1189   1.070   5.367   7.190 -3.2904  1.8999 -2.7724
    9MOL0     H 1190   0.973   5.221   7.193  1.8042 -0.5392  0.2762
    9MOL0     H 1191   0.738   5.245   7.185  2.6117  0.0044 -1.0126
    9MOL0     H 1192   0.456   5.460   7.362  0.9870 -1.4523  1.1992
    9MOL0     H 1193   0.499   5.296   7.335 -1.0986  1.0084  1.4459
    9MOL0     H 1194   0.481   5.453   7.081  1.4136 -0.2375 -0.5239
    9MOL0     H 1195   0.455   5.283   7.121  0.3695  0.5514 -1.7383
    9MOL0     H 1196   0.264   5.336   7.259 -0.3012  3.4650  3.3149
    9MOL0     H 1197   0.283   5.504   7.227  0.1151  0.5293 -1.3426
    9MOL0     H 1198   0.223   5.453   6.970 -1.5937  0.7878  0.6788
    9MOL0     H 1199   0.174   5.298   7.034 -4.1509 -1.5041  4.2068
    9MOL0     H 1200   0.044   5.174   7.081  0.4030 -1.6954  3.1845
    9MOL0     H 1201  -0.033   4.977   7.110 -1.4590 -1.6689 -2.3518
    9MOL0     H 1202  -0.196   4.981   7.054  2.3421  3.6422 -2.3291
    9MOL0     H 1203  -0.169   4.945   7.225 -2.2644  0.2026  0.4030
    9MOL0     H 1204  -0.689   5.082   7.103 -0.8940  1.4880 -1.4951
    9MOL0     H 1205  -0.882   4.949   7.202  1.0871 -2.8658  0.1675
    9MOL0     H 1206  -0.852   4.810   7.619  1.6949  2.4108 -2.6686
    9MOL0     H 1207  -0.958   4.943   7.654 -0.1579  1.9226 -0.9190
    9MOL0     H 1208  -1.041   4.662   7.570 -2.1499 -1.2085  0.7876
    9MOL0     H 1209  -1.071   4.744   7.724 -0.1329 -4.5823 -1.1010
    9MOL0     H 1210  -1.296   4.751   7.608 -2.2303  0.6683 -2.3257
    9MOL0     H 1211  -1.215   4.748   7.455  0.0642  0.7688  0.2313
    9MOL0     H 1212  -1.156   4.982   7.485 -0.9448 -0.0645  0.5301
    9MOL0     H 1213  -1.253   4.987   7.632  2.7056  4.1289 -1.1187
    9MOL0     H 1214  -1.357   4.921   7.343  0.3715 -1.0694 -0.1918
    9MOL0     H 1215  -1.451   4.888   7.483  1.0322 -1.8840  0.3560
    9MOL0     H 1216  -1.329   5.162   7.465  1.1519 -1.4551 -0.4164
    9MOL0     H 1217  -1.461   5.104   7.564  2.1840  0.4423  2.1502
    9MOL0     H 1218  -1.632   5.119   7.420 -2.5134  2.0392 -2.4882
    9MOL0     H 1219  -1.543   5.100   7.265  1.8861  0.9618 -0.9747
    9MOL0     H 1220  -1.530   5.323   7.462 -2.6140 -1.7013  1.0576
    9MOL0     H 1221  -1.622   5.340   7.315 -1.6336  0.0304  2.5511
    9MOL0     H 1222  -0.761   5.020   7.597 -3.8065  0.7203 -0.4169
    9MOL0     H 1223  -0.562   5.170   7.502  1.2254  1.7095 -0.5970
    9MOL0     H 1224  -0.339   5.412   7.259 -0.9344 -0.4513 -2.7940
    9MOL0     H 1225  -0.164   5.540   7.211 -0.1503 -0.2205  2.6655
    9MOL0     H 1226   1.656   5.827   7.283  0.0214 -0.2915 -0.3476
    9MOL0     H 1227   1.619   5.924   7.080  2.2937  1.4483  0.1164
    9MOL0     H 1228   1.871   5.905   6.588  1.1164  3.2192 -0.9547
    9MOL0     H 1229   1.850   5.958   6.368  1.5251 -0.7948  2.4066
    9MOL0     H 1230   1.829   6.075   6.197 -0.1277 -0.0971  1.6981
    9MOL0     H 1231   1.716   5.949   6.143 -1.3827  0.0981 -1.6594
    9MOL0     H 1232   1.758   6.041   5.958  1.3696 -1.2666  3.2650
    9MOL0     H 1233   1.774   6.200   6.015  0.0113  0.8192  2.8670
    9MOL0     H 1234   1.503   6.060   6.003  1.9464 -0.9407  3.2250
    9MOL0     H 1235   1.528   6.220   6.070  2.8546 -0.4347  1.4852
    9MOL0     H 1236   1.444   6.252   5.829 -0.6052 -1.4523 -1.3280
    9MOL0     H 1237   1.533   6.113   5.774 -1.0161 -2.3027  2.7863
    9MOL0     H 1238   1.769   6.431   5.674 -2.3565 -1.9633 -3.4909
    9MOL0     H 1239   1.486   6.185   6.459  0.5039  1.6657 -0.3716
    9MOL0     H 1240   1.387   6.151   6.679  0.3622 -0.6912 -1.3591
    9MOL0     H 1241   1.494   6.119   6.815  1.3914 -2.0184 -0.4980
    9MOL0     H 1242   1.505   6.273   6.717  0.6474  0.5177 -4.9339
   10MOL0     O 1243   3.731   8.164   0.483 -0.3113 -0.3391  0.0535
   10MOL0     C 1244   3.844   8.208   0.503 -0.3507  0.7798 -0.4340
   10MOL0     O 1245   3.900   8.319   0.442 -0.5215 -0.2001 -0.0318
   10MOL0     C 1246   3.820   8.398   0.365 -0.0348  0.4383 -0.6991
   10MOL0     C 1247   3.854   8.417   0.231 -0.5677  0.7952 -0.4043
   10MOL0     C 1248   3.782   8.501   0.147  0.4912  0.4709  0.6048
   10MOL0     C 1249   3.683   8.580   0.211  0.6332  0.1014  0.5592
   10MOL0     O 1250   3.613   8.650   0.114 -0.9727  0.0142  0.0246
   10MOL0     C 1251   3.516   8.744   0.165  0.3205 -0.0832 -0.3926
   10MOL0     C 1252   3.402   8.775   0.063 -0.5214 -0.2618  0.6339
   10MOL0     C 1253   3.344   8.639   0.021  0.0599 -0.4869  0.0473
   10MOL0     C 1254   3.198   8.647  -0.021  0.2584  0.1943 -1.0750
   10MOL0     C 1255   3.130   8.510  -0.059 -0.7881 -0.0927  0.1224
   10MOL0     C 1256   2.974   8.523  -0.074  1.0986 -1.2453 -0.5061
   10MOL0     C 1257   2.912   8.390  -0.124  0.4783 -0.1972  0.0952
   10MOL0     C 1258   2.770   8.397  -0.185  0.3238 -0.3396 -0.8396
   10MOL0     N 1259   2.672   8.445  -0.078  0.9734 -0.0732  0.0606
   10MOL0     C 1260   2.610   8.371   0.016 -0.3830  0.1023  0.2626
   10MOL0     C 1261   2.543   8.461   0.085 -0.1498  0.3524  0.0746
   10MOL0     C 1262   2.449   8.426   0.202  0.2367 -0.0975  0.2413
   10MOL0     C 1263   2.303   8.448   0.171  0.1952  0.4489  0.0878
   10MOL0     C 1264   2.219   8.377   0.287  0.4722  0.0641 -0.3233
   10MOL0     C 1265   2.067   8.442   0.287 -0.1734  0.5160  0.2010
   10MOL0     O 1266   1.986   8.407   0.170 -0.3402 -0.1559  0.0868
   10MOL0     C 1267   1.874   8.491   0.151  0.2847  0.3585 -0.7635
   10MOL0     C 1268   1.881   8.629   0.125  0.0124 -0.7829 -0.2160
   10MOL0     C 1269   1.782   8.702   0.053 -0.9329 -0.3609  0.4206
   10MOL0     C 1270   1.813   8.849   0.019  0.4830 -1.0513  0.1685
   10MOL0     C 1271   1.670   8.624   0.013  0.4621 -0.3754 -0.5605
   10MOL0     C 1272   1.561   8.679  -0.063  0.3253 -0.5219 -0.4177
   10MOL0     O 1273   1.517   8.600  -0.160  0.1147  0.7532  0.1287
   10MOL0     C 1274   1.417   8.637  -0.242 -0.1431  0.1157 -0.1823
   10MOL0     C 1275   1.306   8.706  -0.203  1.1806  0.0207  0.3905
   10MOL0     C 1276   1.201   8.738  -0.289 -0.6433  0.2298 -0.7923
   10MOL0     C 1277   1.205   8.686  -0.423 -0.3164 -0.5134 -1.7451
   10MOL0     O 1278   1.117   8.709  -0.523  0.2874  0.3905 -0.2644
   10MOL0     C 1279   1.010   8.794  -0.496 -0.1228  0.2941  0.4926
   10MOL0     C 1280   0.946   8.814  -0.632  0.3642 -0.7124  0.0951
   10MOL0     C 1281   0.845   8.927  -0.621  0.0845  0.4153  1.3883
   10MOL0     C 1282   0.747   8.922  -0.739 -0.8251 -0.2347 -0.5120
   10MOL0     C 1283   0.698   9.065  -0.760 -0.4315  0.4139  0.9036
   10MOL0     C 1284   0.607   9.122  -0.658 -0.1403 -0.9668  0.6529
   10MOL0     C 1285   0.486   9.033  -0.619 -0.4887 -1.4380  0.8424
   10MOL0     C 1286   0.391   9.128  -0.520 -0.5389  1.1692 -0.5702
   10MOL0    Cl 1287   0.473   9.142  -0.348  0.3681  0.0746 -0.1302
   10MOL0     C 1288   1.307   8.604  -0.462  0.2006  0.2187  0.6761
   10MOL0     C 1289   1.409   8.575  -0.372 -0.3978  0.7704  0.6841
   10MOL0     O 1290   1.515   8.795  -0.042  0.0536  0.6249 -0.2705
   10MOL0     C 1291   1.657   8.491   0.054  0.0733 -0.6532 -0.4838
   10MOL0     C 1292   1.765   8.417   0.111 -0.3232  0.5487 -0.2273
   10MOL0     N 1293   2.568   8.586   0.045  0.1582 -0.2598  0.0692
   10MOL0     N 1294   2.652   8.577  -0.056  0.4873 -0.4515 -0.1693
   10MOL0     C 1295   3.664   8.569   0.350 -0.6574 -0.7313 -0.3723
   10MOL0     C 1296   3.730   8.470   0.427  0.4131 -0.3668 -0.3265
   10MOL0     C 1297   3.932   8.122   0.592 -0.6615 -0.5001  0.7394
   10MOL0     C 1298   4.068   8.153   0.588 -0.8600 -0.3167  0.2320
   10MOL0     C 1299   4.155   8.100   0.672 -0.4377  0.6164  0.4730
   10MOL0     C 1300   4.133   7.998   0.767  0.0892 -0.2527  0.4330
   10MOL0     O 1301   4.221   7.946   0.862  0.1828 -0.0458 -0.8873
   10MOL0     C 1302   4.357   7.997   0.866  0.3841  0.2015  0.4789
   10MOL0     C 1303   4.432   7.902   0.965 -0.7688 -1.3830 -0.5895
   10MOL0     C 1304   4.421   7.947   1.108 -0.5278  0.2603 -0.5242
   10MOL0     C 1305   4.503   7.856   1.197 -0.0321 -0.4389 -0.0108
   10MOL0     C 1306   4.472   7.909   1.329  0.3801  0.0091 -0.2671
   10MOL0     C 1307   4.436   7.960   1.435 -0.4196  0.0599 -0.6407
   10MOL0     C 1308   3.999   7.954   0.766  0.0615  0.2338  1.0503
   10MOL0     C 1309   3.903   8.007   0.678  0.6608 -0.2566  0.7419
   10MOL0     C 1310   3.769   7.929   0.674  0.2518 -0.2041  0.0366
   10MOL0     H 1311   3.928   8.354   0.183  0.0184  1.3536 -0.2477
   10MOL0     H 1312   3.804   8.501   0.041 -0.0696 -1.0223  0.4608
   10MOL0     H 1313   3.566   8.837   0.195 -1.2609  0.0463  2.1751
   10MOL0     H 1314   3.460   8.708   0.252 -2.1300  3.8647 -0.0507
   10MOL0     H 1315   3.323   8.832   0.113  1.9688  0.8619  3.6486
   10MOL0     H 1316   3.424   8.834  -0.027 -3.5989  0.3903  0.1944
   10MOL0     H 1317   3.406   8.588  -0.054  1.1985  1.2207 -0.2353
   10MOL0     H 1318   3.353   8.571   0.106 -0.0122  0.3688  0.7560
   10MOL0     H 1319   3.142   8.692   0.061  0.7080 -1.1244 -0.0014
   10MOL0     H 1320   3.191   8.710  -0.110 -0.1912  1.9490  0.1553
   10MOL0     H 1321   3.154   8.434   0.017 -0.5611 -0.0562  0.0870
   10MOL0     H 1322   3.158   8.470  -0.157 -1.3576 -0.0782 -0.0494
   10MOL0     H 1323   2.917   8.567   0.009  1.7301 -0.5130 -0.4497
   10MOL0     H 1324   2.954   8.590  -0.157  0.7658  1.4188  1.5824
   10MOL0     H 1325   2.901   8.323  -0.038 -2.2235  1.6590  1.3253
   10MOL0     H 1326   2.971   8.348  -0.206 -1.6662 -1.9642 -0.6403
   10MOL0     H 1327   2.757   8.475  -0.260 -1.0351  2.9174  2.4666
   10MOL0     H 1328   2.744   8.303  -0.233 -3.5030  0.6019 -0.9078
   10MOL0     H 1329   2.589   8.264   0.018 -0.1345  0.0543  1.8503
   10MOL0     H 1330   2.480   8.492   0.283  1.0481 -0.6182  0.3624
   10MOL0     H 1331   2.463   8.322   0.231  0.7775  0.2920  1.4253
   10MOL0     H 1332   2.274   8.553   0.168  3.1919  1.3953  0.6011
   10MOL0     H 1333   2.286   8.407   0.071 -2.1478 -0.1328  0.6788
   10MOL0     H 1334   2.207   8.268   0.282 -1.3509  0.2516 -0.9390
   10MOL0     H 1335   2.260   8.411   0.383  1.8282  2.2776 -1.6143
   10MOL0     H 1336   2.017   8.396   0.373  0.5811  1.1635  1.0053
   10MOL0     H 1337   2.075   8.551   0.295  3.5587  0.4745 -1.3528
   10MOL0     H 1338   1.975   8.678   0.149 -1.5518  2.9144 -0.9745
   10MOL0     H 1339   1.776   8.872  -0.081 -5.2583 -1.4731  1.8265
   10MOL0     H 1340   1.922   8.859   0.021  0.4907 -1.0209 -0.2704
   10MOL0     H 1341   1.772   8.920   0.092 -0.8314 -1.1746 -0.4203
   10MOL0     H 1342   1.284   8.728  -0.099 -0.1541  2.6823 -0.3770
   10MOL0     H 1343   1.113   8.789  -0.252 -1.8192 -2.3502  0.1613
   10MOL0     H 1344   0.931   8.747  -0.436 -2.5038  0.1070 -2.5764
   10MOL0     H 1345   1.045   8.889  -0.454  0.4376 -0.4950  1.8923
   10MOL0     H 1346   1.020   8.827  -0.711 -0.8072 -2.1241 -1.2892
   10MOL0     H 1347   0.902   8.721  -0.669  1.1363 -0.2378 -2.1324
   10MOL0     H 1348   0.903   9.020  -0.624  1.0400 -0.1866 -0.1413
   10MOL0     H 1349   0.798   8.923  -0.522 -1.6930 -1.7646  0.5453
   10MOL0     H 1350   0.667   8.850  -0.722 -0.8388 -0.2163 -0.5011
   10MOL0     H 1351   0.808   8.903  -0.828 -0.7065  0.3986 -0.5726
   10MOL0     H 1352   0.782   9.136  -0.762  1.6620 -1.8782 -1.8681
   10MOL0     H 1353   0.651   9.059  -0.859  2.4851 -1.1157 -0.5385
   10MOL0     H 1354   0.561   9.215  -0.691 -2.4541 -1.3212  2.6156
   10MOL0     H 1355   0.659   9.140  -0.563  1.4604 -0.6996 -0.2314
   10MOL0     H 1356   0.514   8.943  -0.563 -2.8156 -0.8960  3.0495
   10MOL0     H 1357   0.425   9.008  -0.706  0.2599  0.3799 -0.2550
   10MOL0     H 1358   0.291   9.084  -0.513  0.4230 -0.8620  2.0926
   10MOL0     H 1359   0.372   9.225  -0.567  0.8475  2.5672  1.5644
   10MOL0     H 1360   1.283   8.564  -0.560 -1.3144  1.8841  0.3038
   10MOL0     H 1361   1.478   8.499  -0.406 -0.6074  1.8760 -2.5832
   10MOL0     H 1362   1.565   8.437   0.035  0.2773 -0.8947 -0.8127
   10MOL0     H 1363   1.747   8.311   0.123 -2.9513  1.1854  3.0686
   10MOL0     H 1364   3.587   8.631   0.394  1.8920  2.4210  0.0774
   10MOL0     H 1365   3.713   8.446   0.531  0.6239  0.9486  0.0323
   10MOL0     H 1366   4.106   8.234   0.526 -1.9124  1.7754  2.1505
   10MOL0     H 1367   4.256   8.135   0.654  0.0073 -1.8398 -2.5418
   10MOL0     H 1368   4.396   7.989   0.764  1.4716 -1.5488  0.9934
   10MOL0     H 1369   4.368   8.100   0.899 -0.7121  1.2335 -2.1707
   10MOL0     H 1370   4.537   7.888   0.935  0.0430 -0.3039  1.5178
   10MOL0     H 1371   4.389   7.802   0.951 -0.3466 -1.4322 -1.6126
   10MOL0     H 1372   4.465   8.046   1.118  0.4867 -0.2736  0.5993
   10MOL0     H 1373   4.315   7.954   1.137 -0.4368  0.1839 -0.1597
   10MOL0     H 1374   4.609   7.882   1.184 -0.2666 -0.0558 -1.2807
   10MOL0     H 1375   4.476   7.750   1.198  1.2095 -0.7892  1.4777
   10MOL0     H 1376   4.394   8.021   1.512 -0.4997 -0.9742  0.1593
   10MOL0     H 1377   3.955   7.876   0.828 -0.2259  0.2391  0.8545
   10MOL0     H 1378   3.782   7.820   0.681  3.2409 -0.1675 -2.5233
   10MOL0     H 1379   3.706   7.956   0.759  1.5594 -3.7961  2.4133
   10MOL0     H 1380   3.715   7.956   0.583  2.1214 -1.5991 -1.5930
   11MOL0     O 1381   6.838  11.532   8.773 -0.8055  0.1267  0.3889
   11MOL0     C 1382   6.783  11.635   8.813 -0.9607  0.8772 -0.2486
   11MOL0     O 1383   6.815  11.690   8.941  0.0462  0.3514 -0.1641
   11MOL0     C 1384   6.918  11.643   9.025 -0.2088  0.2649  0.5084
   11MOL0     C 1385   6.891  11.657   9.155  0.0343 -0.0213 -0.2537
   11MOL0     C 1386   6.987  11.626   9.249  0.8552 -1.4397  1.0227
   11MOL0     C 1387   7.111  11.588   9.214  0.6276 -1.4040 -0.1108
   11MOL0     O 1388   7.198  11.571   9.315  0.3089 -0.5891  0.3108
   11MOL0     C 1389   7.300  11.473   9.297  0.9924  1.0498  0.2019
   11MOL0     C 1390   7.432  11.541   9.288 -0.7401  0.1705  0.3814
   11MOL0     C 1391   7.556  11.452   9.278  0.3212  0.0938 -0.4459
   11MOL0     C 1392   7.673  11.530   9.220 -0.2070  1.3284  0.4835
   11MOL0     C 1393   7.808  11.494   9.298  0.8591 -0.3631  0.1399
   11MOL0     C 1394   7.853  11.349   9.284 -0.2396  0.5140 -0.8944
   11MOL0     C 1395   7.983  11.324   9.354 -0.0318 -0.0691 -0.5843
   11MOL0     C 1396   8.060  11.206   9.306 -0.4686  0.1075 -0.0296
   11MOL0     N 1397   8.188  11.191   9.376 -0.4899  0.0127 -0.1349
   11MOL0     C 1398   8.212  11.206   9.516 -0.1376  0.2377  0.5598
   11MOL0     C 1399   8.341  11.166   9.526  0.3329  1.1724  0.2217
   11MOL0     C 1400   8.419  11.117   9.641  1.0314 -0.2901 -0.3787
   11MOL0     C 1401   8.494  11.237   9.717 -0.2416  0.2318  0.1511
   11MOL0     C 1402   8.571  11.327   9.618 -0.1405 -0.6436  0.5666
   11MOL0     C 1403   8.636  11.434   9.703  0.9567  0.7340  0.8895
   11MOL0     O 1404   8.747  11.370   9.771  0.1222  0.1546  0.0815
   11MOL0     C 1405   8.838  11.460   9.827  0.4221 -0.1789  0.1377
   11MOL0     C 1406   8.944  11.520   9.756 -0.1113 -0.2188  0.2875
   11MOL0     C 1407   9.047  11.591   9.816  0.4077 -0.5683 -1.2153
   11MOL0     C 1408   9.164  11.627   9.721 -0.2133  0.0572 -0.6206
   11MOL0     C 1409   9.048  11.620   9.956 -0.2092 -0.3375  0.0154
   11MOL0     C 1410   9.158  11.691  10.025 -0.0610 -0.0730  0.1817
   11MOL0     O 1411   9.190  11.634  10.147  0.4765 -0.8050 -0.0932
   11MOL0     C 1412   9.320  11.639  10.180 -0.3000  0.5885 -1.2061
   11MOL0     C 1413   9.377  11.759  10.221 -0.0068  0.1964 -0.0176
   11MOL0     C 1414   9.504  11.764  10.291  0.1093  0.7772  0.3090
   11MOL0     C 1415   9.579  11.645  10.297 -0.4876 -0.9922 -0.1638
   11MOL0     O 1416   9.712  11.645  10.340  0.1754  0.5367 -1.0559
   11MOL0     C 1417   9.738  11.730  10.465  0.0970  0.2113  0.0323
   11MOL0     C 1418   9.887  11.706  10.488  0.5367  1.0963  0.2963
   11MOL0     C 1419   9.970  11.802  10.406 -0.4735  0.6982  0.7439
   11MOL0     C 1420  10.084  11.861  10.490  0.0773  0.7998  0.2650
   11MOL0     C 1421  10.035  11.982  10.583 -0.8211  0.2671  1.4036
   11MOL0     C 1422  10.157  12.059  10.636  0.6608  0.3292  0.9257
   11MOL0     C 1423  10.122  12.193  10.708 -0.3868 -0.7222 -0.6425
   11MOL0     C 1424  10.233  12.300  10.706 -0.4311 -0.0181  0.0038
   11MOL0    Cl 1425  10.365  12.242  10.801 -0.1716 -0.3955  0.0623
   11MOL0     C 1426   9.531  11.522  10.259 -0.0169  0.4592 -1.1345
   11MOL0     C 1427   9.398  11.518  10.205  0.9748 -0.9091  0.4650
   11MOL0     O 1428   9.207  11.792   9.976  0.1929  0.7110 -0.1090
   11MOL0     C 1429   8.944  11.559  10.032  0.5242 -0.8900  0.3406
   11MOL0     C 1430   8.839  11.489   9.961 -0.0258  0.9412  0.5786
   11MOL0     N 1431   8.386  11.119   9.407  0.9013 -0.2750  1.1306
   11MOL0     N 1432   8.298  11.146   9.319 -0.1811  0.7132  0.3556
   11MOL0     C 1433   7.137  11.566   9.075  0.5893  0.5006  0.1629
   11MOL0     C 1434   7.042  11.584   8.984 -1.2734  0.4753 -0.6135
   11MOL0     C 1435   6.696  11.697   8.715  1.0764  0.8171 -0.0784
   11MOL0     C 1436   6.668  11.636   8.589 -0.7341  0.5432  0.3770
   11MOL0     C 1437   6.585  11.694   8.488  0.1747  0.0055  0.4843
   11MOL0     C 1438   6.515  11.802   8.515 -0.2208 -0.3823 -0.7038
   11MOL0     O 1439   6.454  11.878   8.416  0.6221 -0.2406 -0.3358
   11MOL0     C 1440   6.379  11.818   8.315 -1.0541 -0.2674 -0.3972
   11MOL0     C 1441   6.339  11.919   8.207  0.3569 -0.5605  0.7434
   11MOL0     C 1442   6.279  11.865   8.070  0.0368 -1.2679 -0.4453
   11MOL0     C 1443   6.281  11.968   7.953  0.2377 -0.1061  0.0690
   11MOL0     C 1444   6.212  11.922   7.835  0.2050 -1.2052  0.3026
   11MOL0     C 1445   6.177  11.879   7.722 -0.3766  0.4193 -0.3552
   11MOL0     C 1446   6.535  11.866   8.638 -0.3613  0.5030 -0.4525
   11MOL0     C 1447   6.622  11.821   8.742  0.4130  0.1886  0.0666
   11MOL0     C 1448   6.619  11.896   8.870 -0.4477 -0.0797  0.0661
   11MOL0     H 1449   6.794  11.693   9.187 -0.6904 -2.1974  0.1526
   11MOL0     H 1450   6.977  11.650   9.355  0.1995 -2.0632  1.1098
   11MOL0     H 1451   7.280  11.406   9.213 -1.6892  1.7313  0.2094
   11MOL0     H 1452   7.286  11.414   9.387 -2.5677 -0.4456 -1.1721
   11MOL0     H 1453   7.429  11.593   9.191 -2.1503 -1.8408 -0.7197
   11MOL0     H 1454   7.444  11.610   9.372  0.2463 -0.6848  0.9607
   11MOL0     H 1455   7.566  11.425   9.384 -4.4233  1.1249  0.5286
   11MOL0     H 1456   7.522  11.366   9.220 -1.4105  0.7458 -0.4605
   11MOL0     H 1457   7.683  11.506   9.114  3.8195 -0.0316  1.0320
   11MOL0     H 1458   7.667  11.639   9.215 -1.7433  1.2058 -3.3110
   11MOL0     H 1459   7.797  11.524   9.402 -0.3481 -2.6262  0.7408
   11MOL0     H 1460   7.873  11.563   9.243 -0.8189  1.0115 -0.2149
   11MOL0     H 1461   7.772  11.288   9.325 -1.6674  2.4233 -0.7617
   11MOL0     H 1462   7.869  11.324   9.178 -0.1950  0.6586 -0.9229
   11MOL0     H 1463   7.970  11.306   9.461  1.2120 -1.2219 -0.6098
   11MOL0     H 1464   8.056  11.405   9.346  0.6790 -0.8610 -2.8851
   11MOL0     H 1465   8.005  11.112   9.311 -0.5243  0.1979  1.5047
   11MOL0     H 1466   8.068  11.227   9.199 -1.5710  0.5623 -0.0322
   11MOL0     H 1467   8.149  11.226   9.603  1.0013 -1.5304  1.8694
   11MOL0     H 1468   8.495  11.051   9.600  0.7290 -2.8223  2.6973
   11MOL0     H 1469   8.363  11.045   9.702  1.3955 -0.5342 -0.3307
   11MOL0     H 1470   8.416  11.292   9.770 -2.9087 -0.9144 -2.3842
   11MOL0     H 1471   8.572  11.195   9.782 -1.2728 -1.5721  0.3009
   11MOL0     H 1472   8.647  11.266   9.569  0.4045  0.8290 -0.4823
   11MOL0     H 1473   8.509  11.380   9.545  1.6151  3.3934  1.7301
   11MOL0     H 1474   8.668  11.503   9.624 -1.1692  0.7053 -0.0585
   11MOL0     H 1475   8.571  11.491   9.770  0.5116  2.5993 -1.0137
   11MOL0     H 1476   8.949  11.500   9.649  2.7458 -4.2990  0.9392
   11MOL0     H 1477   9.172  11.553   9.641  1.7071 -0.2185 -0.2256
   11MOL0     H 1478   9.256  11.641   9.778 -0.4527 -0.0524 -0.2037
   11MOL0     H 1479   9.138  11.725   9.681 -2.9664 -1.2074 -2.2785
   11MOL0     H 1480   9.324  11.852  10.203 -0.5450 -0.4579 -2.0742
   11MOL0     H 1481   9.530  11.858  10.340 -1.7224  1.6738 -0.3191
   11MOL0     H 1482   9.705  11.835  10.460 -1.8665 -0.2276  2.0566
   11MOL0     H 1483   9.669  11.683  10.535  0.9760 -2.3603 -0.7312
   11MOL0     H 1484   9.911  11.710  10.595 -1.3142 -2.7787  1.0236
   11MOL0     H 1485   9.896  11.599  10.470 -2.2722  0.7259  0.5174
   11MOL0     H 1486   9.914  11.877  10.349 -1.8245  0.9735  2.3392
   11MOL0     H 1487  10.022  11.746  10.328  0.2159 -0.2728  1.8473
   11MOL0     H 1488  10.166  11.890  10.423  3.3788 -0.2985  3.5372
   11MOL0     H 1489  10.127  11.787  10.557  3.0006  1.4978 -0.7039
   11MOL0     H 1490   9.987  12.063  10.527  1.8622  1.3512  0.5086
   11MOL0     H 1491   9.958  11.940  10.649 -1.1680 -1.5528 -0.0962
   11MOL0     H 1492  10.230  12.080  10.558 -2.3774  2.3903 -1.6077
   11MOL0     H 1493  10.216  12.002  10.709 -1.0993 -0.9395  1.4391
   11MOL0     H 1494  10.093  12.182  10.813 -0.1954 -0.4515 -0.5607
   11MOL0     H 1495  10.038  12.222  10.645  0.2296 -2.5140 -2.4051
   11MOL0     H 1496  10.187  12.389  10.751 -2.8135 -0.8401 -0.6361
   11MOL0     H 1497  10.257  12.324  10.601 -2.2469  1.1265 -0.2106
   11MOL0     H 1498   9.586  11.430  10.277 -1.1364 -0.1123 -0.5554
   11MOL0     H 1499   9.358  11.419  10.186  0.8078 -0.6879 -0.3894
   11MOL0     H 1500   8.951  11.563  10.140 -0.9153 -2.5187  0.5338
   11MOL0     H 1501   8.769  11.430  10.019  0.1905  1.8747  1.8300
   11MOL0     H 1502   7.232  11.532   9.037  0.2464  1.5000 -1.6891
   11MOL0     H 1503   7.061  11.546   8.884  0.3334  0.0690 -0.1846
   11MOL0     H 1504   6.710  11.538   8.572  0.2159  0.8795  0.7306
   11MOL0     H 1505   6.592  11.648   8.390  1.9816 -1.1963  1.1101
   11MOL0     H 1506   6.426  11.730   8.269  0.9881 -0.3142  1.5841
   11MOL0     H 1507   6.291  11.775   8.363 -1.0844 -0.8430 -0.9487
   11MOL0     H 1508   6.431  11.973   8.184 -1.6186  2.1152 -1.6023
   11MOL0     H 1509   6.271  11.986   8.261  1.3714  1.7495 -0.6862
   11MOL0     H 1510   6.355  11.797   8.030  4.2930  2.4888  0.4169
   11MOL0     H 1511   6.190  11.804   8.088  0.9488 -2.5703 -0.2610
   11MOL0     H 1512   6.382  11.998   7.925  1.3655 -0.6761  3.0646
   11MOL0     H 1513   6.233  12.063   7.978  0.8097  0.7441 -1.8864
   11MOL0     H 1514   6.157  11.838   7.625 -3.8227  2.6497 -0.7497
   11MOL0     H 1515   6.485  11.959   8.663 -1.3440 -0.3335  0.8460
   11MOL0     H 1516   6.547  11.978   8.866 -2.4275 -1.7504 -4.0465
   11MOL0     H 1517   6.606  11.841   8.963  0.4943 -0.3163  0.0635
   11MOL0     H 1518   6.726  11.919   8.867 -0.6043  0.6502 -2.3156
   12MOL0     O 1519   1.448  10.805   1.770 -0.5381  0.3389  0.1413
   12MOL0     C 1520   1.374  10.728   1.698  0.1401 -0.3791  0.0304
   12MOL0     O 1521   1.299  10.629   1.753  0.7629 -0.1625  0.1217
   12MOL0     C 1522   1.301  10.589   1.884  0.2988  0.0308 -0.0586
   12MOL0     C 1523   1.180  10.597   1.955 -0.1077  0.1245  1.0983
   12MOL0     C 1524   1.178  10.549   2.082 -0.4223  0.1634 -0.8461
   12MOL0     C 1525   1.295  10.502   2.141  0.4623  2.2437 -0.1966
   12MOL0     O 1526   1.285  10.442   2.267  0.5887 -0.0215  0.5178
   12MOL0     C 1527   1.377  10.502   2.355  0.1888 -0.2508 -1.1938
   12MOL0     C 1528   1.437  10.378   2.424  0.6737 -0.4025  0.4235
   12MOL0     C 1529   1.545  10.419   2.530  0.0952  0.0283  0.0493
   12MOL0     C 1530   1.644  10.510   2.466 -0.1826  0.0804 -0.0252
   12MOL0     C 1531   1.776  10.509   2.541 -0.6642 -0.7832  0.3443
   12MOL0     C 1532   1.757  10.543   2.690 -0.5639 -0.1960 -0.5512
   12MOL0     C 1533   1.895  10.557   2.754 -0.7028 -0.1216 -0.8808
   12MOL0     C 1534   1.899  10.608   2.897 -0.0093 -0.1718 -1.2351
   12MOL0     N 1535   2.027  10.590   2.969 -0.6755 -0.9356 -0.8123
   12MOL0     C 1536   2.096  10.475   2.972 -0.6567 -0.8005  0.1420
   12MOL0     C 1537   2.218  10.492   3.039  0.2301 -0.6073 -0.1635
   12MOL0     C 1538   2.321  10.378   3.063  0.4588  0.3697 -0.8563
   12MOL0     C 1539   2.374  10.304   2.937 -0.3447 -0.0824 -0.3205
   12MOL0     C 1540   2.489  10.204   2.980  0.8767 -0.6251 -0.2636
   12MOL0     C 1541   2.557  10.132   2.871 -0.0820 -0.0432 -0.0750
   12MOL0     O 1542   2.456  10.063   2.810  0.4648  0.7295 -0.1283
   12MOL0     C 1543   2.493   9.987   2.701 -0.3400  0.7253  0.6199
   12MOL0     C 1544   2.628   9.940   2.677  0.0823  0.0837  0.3916
   12MOL0     C 1545   2.659   9.860   2.574 -0.4842  0.1930  0.3603
   12MOL0     C 1546   2.809   9.817   2.564 -0.2596  0.8131  0.0740
   12MOL0     C 1547   2.561   9.811   2.487 -0.7519 -0.0722  0.3257
   12MOL0     C 1548   2.586   9.720   2.380 -0.5133 -0.3146  0.3354
   12MOL0     O 1549   2.489   9.726   2.282  0.4349  0.5768 -0.7000
   12MOL0     C 1550   2.504   9.642   2.175  0.4524 -0.0064 -0.5939
   12MOL0     C 1551   2.548   9.683   2.054 -0.1029  1.3899 -0.3389
   12MOL0     C 1552   2.538   9.610   1.941 -0.0068 -0.0634 -0.1944
   12MOL0     C 1553   2.469   9.487   1.943 -0.3175  0.4343 -0.5733
   12MOL0     O 1554   2.428   9.426   1.826 -0.1916 -0.2294 -0.0083
   12MOL0     C 1555   2.455   9.282   1.815  0.7785 -0.2278 -1.1890
   12MOL0     C 1556   2.401   9.223   1.680 -0.2524 -0.3309 -0.1226
   12MOL0     C 1557   2.253   9.248   1.662  0.5568 -0.3695  0.3920
   12MOL0     C 1558   2.192   9.188   1.527 -0.0135  0.1541 -0.1800
   12MOL0     C 1559   2.038   9.207   1.525 -0.1884  0.4609 -0.9056
   12MOL0     C 1560   1.957   9.096   1.588  0.5321  0.1608 -0.7469
   12MOL0     C 1561   1.809   9.089   1.544  0.4280 -0.2261  0.7081
   12MOL0     C 1562   1.775   9.044   1.395 -0.0008  0.7257 -0.4140
   12MOL0    Cl 1563   1.879   8.903   1.346  0.1568  0.3177  0.3188
   12MOL0     C 1564   2.431   9.441   2.072  0.6614  0.8170  0.0762
   12MOL0     C 1565   2.438   9.521   2.189 -0.6022  0.5786 -1.3273
   12MOL0     O 1566   2.676   9.637   2.394  0.0585  0.9043  0.3665
   12MOL0     C 1567   2.429   9.849   2.513 -0.1097 -0.0407  0.2379
   12MOL0     C 1568   2.401   9.929   2.618  0.4810 -0.5591 -0.4506
   12MOL0     N 1569   2.213  10.621   3.088  0.6736  0.5485  0.1167
   12MOL0     N 1570   2.113  10.684   3.032  0.4078  0.0608  1.3683
   12MOL0     C 1571   1.414  10.500   2.073 -1.3594  0.0574  0.4525
   12MOL0     C 1572   1.421  10.545   1.939 -0.4477 -0.2777 -0.2722
   12MOL0     C 1573   1.352  10.756   1.550 -0.0136 -0.8568  0.2743
   12MOL0     C 1574   1.451  10.834   1.489  0.2024  0.5723 -0.8600
   12MOL0     C 1575   1.444  10.872   1.353  0.3477  1.4775  0.4098
   12MOL0     C 1576   1.335  10.818   1.276  0.3361  0.0373 -0.4127
   12MOL0     O 1577   1.294  10.843   1.147  0.3010 -0.0663  0.2938
   12MOL0     C 1578   1.352  10.957   1.084  0.2820  0.6079 -0.1872
   12MOL0     C 1579   1.298  10.969   0.933 -0.3058  0.3367 -0.4016
   12MOL0     C 1580   1.324  10.849   0.851  0.4497  0.3318  1.0655
   12MOL0     C 1581   1.309  10.876   0.710 -0.1375  1.2806  0.5066
   12MOL0     C 1582   1.181  10.935   0.680 -0.3143 -0.7847 -0.0365
   12MOL0     C 1583   1.080  10.999   0.659  0.2167 -0.4699 -0.1880
   12MOL0     C 1584   1.233  10.741   1.345 -0.6198 -0.0252  1.3784
   12MOL0     C 1585   1.241  10.716   1.478 -0.0979  1.3698 -0.4898
   12MOL0     C 1586   1.115  10.651   1.547  0.0337 -1.6341 -0.5115
   12MOL0     H 1587   1.095  10.636   1.899  1.0630 -0.3886 -1.1625
   12MOL0     H 1588   1.081  10.552   2.130 -1.1626  1.6423 -2.3454
   12MOL0     H 1589   1.323  10.572   2.419  3.0425  3.2750 -2.3338
   12MOL0     H 1590   1.449  10.563   2.300 -0.4247  0.9083 -0.7254
   12MOL0     H 1591   1.373  10.303   2.473 -1.5818  2.1429  1.6144
   12MOL0     H 1592   1.481  10.324   2.340 -1.1682  0.2101 -0.9792
   12MOL0     H 1593   1.501  10.468   2.618  0.0154 -2.4113  1.4640
   12MOL0     H 1594   1.584  10.322   2.563 -1.5074 -1.9451 -3.3175
   12MOL0     H 1595   1.667  10.469   2.367 -0.7358 -1.2558  0.3811
   12MOL0     H 1596   1.599  10.610   2.454 -1.5993 -0.3457  1.3959
   12MOL0     H 1597   1.849  10.568   2.485 -1.5576  0.4293  0.4317
   12MOL0     H 1598   1.820  10.409   2.531 -2.0508 -1.1626 -5.3267
   12MOL0     H 1599   1.705  10.639   2.677 -1.3842 -0.2834  1.6511
   12MOL0     H 1600   1.687  10.481   2.747 -2.0445  1.6210 -0.2787
   12MOL0     H 1601   1.961  10.620   2.694  2.6486 -0.4473  2.1621
   12MOL0     H 1602   1.930  10.454   2.744  0.0388  0.3032 -3.0963
   12MOL0     H 1603   1.880  10.716   2.886 -0.9751 -0.5113 -3.4387
   12MOL0     H 1604   1.822  10.564   2.961 -0.2586  1.1984 -0.5330
   12MOL0     H 1605   2.053  10.381   2.938  0.1560 -2.8530  4.0850
   12MOL0     H 1606   2.283  10.300   3.129  1.0199  1.8154  1.2939
   12MOL0     H 1607   2.409  10.425   3.107  2.2172 -1.5448 -2.1673
   12MOL0     H 1608   2.287  10.247   2.901 -2.1378  1.2397  1.6490
   12MOL0     H 1609   2.409  10.372   2.859 -1.9251 -0.3043 -1.2669
   12MOL0     H 1610   2.570  10.260   3.026  0.5667  0.2488 -0.7550
   12MOL0     H 1611   2.454  10.133   3.055 -0.1939 -1.2885 -1.3426
   12MOL0     H 1612   2.620  10.194   2.806  2.2913  1.4068  3.3253
   12MOL0     H 1613   2.621  10.054   2.914  0.4237 -0.4625 -1.5146
   12MOL0     H 1614   2.712   9.969   2.740 -1.0219  0.4506  1.7583
   12MOL0     H 1615   2.823   9.721   2.615 -0.2571  2.1924  2.8344
   12MOL0     H 1616   2.875   9.888   2.614  0.5877 -0.3482  0.6631
   12MOL0     H 1617   2.827   9.812   2.456 -2.2206 -3.2933 -0.2831
   12MOL0     H 1618   2.595   9.781   2.050  2.1009  0.3627 -1.2968
   12MOL0     H 1619   2.568   9.655   1.847  0.4938 -1.4065 -0.6988
   12MOL0     H 1620   2.560   9.256   1.823  1.0563 -0.1167 -3.5869
   12MOL0     H 1621   2.391   9.236   1.891  1.5258  1.6008  0.6321
   12MOL0     H 1622   2.455   9.275   1.600  2.8180 -1.0682  1.2981
   12MOL0     H 1623   2.429   9.118   1.665  1.8873  0.0975  0.4665
   12MOL0     H 1624   2.238   9.356   1.665  2.0051 -0.0418 -2.0273
   12MOL0     H 1625   2.186   9.205   1.738 -0.7221  0.3253 -0.3094
   12MOL0     H 1626   2.215   9.083   1.508 -1.5705 -0.6176  1.8425
   12MOL0     H 1627   2.221   9.246   1.439  1.9171 -0.3382  0.0856
   12MOL0     H 1628   2.008   9.303   1.569  1.3369  0.9265 -0.8248
   12MOL0     H 1629   1.999   9.222   1.423 -5.2869  0.5043  0.7710
   12MOL0     H 1630   1.955   9.133   1.691  0.2088  1.7404 -1.2919
   12MOL0     H 1631   1.999   8.996   1.581 -2.9503 -1.4449 -0.9740
   12MOL0     H 1632   1.756   9.183   1.559  2.3533  0.6240  2.5824
   12MOL0     H 1633   1.753   9.015   1.601 -0.8896  0.4792  0.3753
   12MOL0     H 1634   1.804   9.125   1.327  2.6615  0.0737 -0.1522
   12MOL0     H 1635   1.672   9.009   1.386  0.5902 -1.2135 -0.0380
   12MOL0     H 1636   2.382   9.346   2.095 -0.9419  0.7053 -3.2837
   12MOL0     H 1637   2.402   9.472   2.279 -3.2693  0.4539 -2.3660
   12MOL0     H 1638   2.346   9.819   2.449 -0.6670  2.4423 -0.3256
   12MOL0     H 1639   2.294   9.946   2.632  0.8698  1.2710  0.6867
   12MOL0     H 1640   1.494  10.443   2.120 -0.0559  0.1051 -1.5782
   12MOL0     H 1641   1.518  10.544   1.889 -1.7725  0.6436 -3.0384
   12MOL0     H 1642   1.537  10.865   1.547  0.1103  0.9655 -0.9372
   12MOL0     H 1643   1.511  10.936   1.296  1.4902 -0.7530 -0.8995
   12MOL0     H 1644   1.314  11.052   1.122  2.3266  2.4535 -2.3671
   12MOL0     H 1645   1.461  10.965   1.097  1.0295 -3.9146 -1.8800
   12MOL0     H 1646   1.335  11.062   0.890 -2.5871  0.3698 -2.5317
   12MOL0     H 1647   1.190  10.987   0.941  0.0317  1.6054  4.4942
   12MOL0     H 1648   1.425  10.809   0.869  0.7003 -0.0008 -0.8236
   12MOL0     H 1649   1.266  10.763   0.885  3.3092 -1.8972  0.7809
   12MOL0     H 1650   1.312  10.779   0.659  0.7006  1.7195 -0.2975
   12MOL0     H 1651   1.397  10.933   0.677 -2.1204  5.5817  1.9066
   12MOL0     H 1652   0.998  11.067   0.641 -0.1788 -0.5252  1.3051
   12MOL0     H 1653   1.147  10.702   1.291 -0.8480  0.8098  1.1315
   12MOL0     H 1654   1.125  10.546   1.576  0.6707 -0.6529  3.4776
   12MOL0     H 1655   1.094  10.706   1.639  0.5624 -0.9338 -0.8021
   12MOL0     H 1656   1.028  10.672   1.484  1.9706  1.7884 -2.3733
   13MOL0     O 1657   4.554   4.795   8.042 -0.7492  0.8846  0.0314
   13MOL0     C 1658   4.634   4.705   8.027 -0.7657  0.6449  1.5447
   13MOL0     O 1659   4.601   4.573   7.997 -0.4258 -0.0408 -0.4417
   13MOL0     C 1660   4.474   4.531   7.965  0.2240  0.6960 -0.2000
   13MOL0     C 1661   4.386   4.610   7.885 -0.8785 -0.0920  1.3407
   13MOL0     C 1662   4.269   4.549   7.850 -1.0049 -0.2345 -0.5395
   13MOL0     C 1663   4.237   4.414   7.883  0.0128  0.0928 -0.2100
   13MOL0     O 1664   4.120   4.358   7.843  0.5758  0.3657 -0.7992
   13MOL0     C 1665   4.058   4.258   7.927 -1.0721 -1.6692  0.2103
   13MOL0     C 1666   3.906   4.236   7.881  0.0187  0.1782  0.4168
   13MOL0     C 1667   3.900   4.129   7.762 -0.0977  0.4004 -0.6581
   13MOL0     C 1668   3.967   4.174   7.628 -0.2353 -0.1402 -1.1708
   13MOL0     C 1669   3.937   4.078   7.516 -0.4234 -0.7927 -0.0384
   13MOL0     C 1670   4.039   4.099   7.402  0.5370  0.1692  0.4424
   13MOL0     C 1671   4.040   3.976   7.313 -0.3436 -0.2716  0.4097
   13MOL0     C 1672   4.108   4.032   7.186  0.2427  0.4030  0.3943
   13MOL0     N 1673   4.131   3.942   7.077 -0.2714  1.4352  0.5211
   13MOL0     C 1674   4.166   3.984   6.949  0.6195 -0.3215  0.3236
   13MOL0     C 1675   4.165   3.871   6.875 -0.8249  0.3923 -0.2898
   13MOL0     C 1676   4.213   3.837   6.734 -0.5663  0.2445 -0.0402
   13MOL0     C 1677   4.094   3.791   6.650 -0.2198  0.5564  0.0925
   13MOL0     C 1678   4.150   3.784   6.505  0.0373  0.6321 -0.0735
   13MOL0     C 1679   4.050   3.749   6.401  0.2100  0.3566  1.2304
   13MOL0     O 1680   4.121   3.726   6.285 -0.4075  0.2849  0.2060
   13MOL0     C 1681   4.059   3.716   6.167  0.0180 -0.6346  1.1535
   13MOL0     C 1682   4.140   3.726   6.051  1.0865  0.4599 -0.3712
   13MOL0     C 1683   4.083   3.711   5.916  1.5138  0.0059 -0.9843
   13MOL0     C 1684   4.177   3.731   5.806 -1.1698 -1.4516  0.6968
   13MOL0     C 1685   3.939   3.683   5.903  0.3160 -0.4023  1.1105
   13MOL0     C 1686   3.877   3.678   5.766 -0.9535 -0.0505 -0.0132
   13MOL0     O 1687   3.951   3.692   5.647 -0.6793 -0.6300 -0.0417
   13MOL0     C 1688   3.895   3.670   5.525 -0.2861  0.5371  0.5949
   13MOL0     C 1689   3.950   3.745   5.418 -0.2768 -0.5292 -0.7854
   13MOL0     C 1690   3.905   3.731   5.290  0.4470 -0.7055  0.3239
   13MOL0     C 1691   3.804   3.637   5.262 -0.5335 -0.1817  0.0314
   13MOL0     O 1692   3.763   3.636   5.131 -0.1224  0.8565 -0.0886
   13MOL0     C 1693   3.712   3.506   5.088 -0.3394  0.0278 -0.3615
   13MOL0     C 1694   3.725   3.512   4.937  0.0509 -0.5301  0.3141
   13MOL0     C 1695   3.702   3.371   4.881 -0.2985  1.0767 -0.1208
   13MOL0     C 1696   3.741   3.353   4.738  0.2830 -0.7276  0.6624
   13MOL0     C 1697   3.751   3.205   4.698 -1.3345 -0.3076 -0.0810
   13MOL0     C 1698   3.771   3.202   4.547  0.3800 -0.0683 -0.4374
   13MOL0     C 1699   3.772   3.065   4.491  0.0578  0.5430  1.0654
   13MOL0     C 1700   3.773   3.054   4.335 -0.3957  0.0520  1.1402
   13MOL0    Cl 1701   3.889   3.166   4.270 -0.1914 -0.0532 -0.0318
   13MOL0     C 1702   3.762   3.546   5.367 -0.8846  0.0477  0.0490
   13MOL0     C 1703   3.806   3.566   5.495  0.7502  0.5812 -0.3098
   13MOL0     O 1704   3.755   3.670   5.774  0.1084 -0.3227  0.9755
   13MOL0     C 1705   3.867   3.660   6.026  0.1899 -0.3355 -0.3774
   13MOL0     C 1706   3.928   3.681   6.148  0.1778  0.1543 -0.0456
   13MOL0     N 1707   4.117   3.764   6.956 -0.0481  0.4370 -0.0950
   13MOL0     N 1708   4.096   3.804   7.077 -0.6996  0.7007 -0.2158
   13MOL0     C 1709   4.325   4.343   7.972 -0.0854 -0.2186 -0.3727
   13MOL0     C 1710   4.437   4.402   8.017 -0.1897  0.0693  0.5400
   13MOL0     C 1711   4.786   4.735   8.028  0.4360 -0.0199  1.3702
   13MOL0     C 1712   4.828   4.873   8.055 -0.2270  1.2564 -0.1005
   13MOL0     C 1713   4.958   4.902   8.059 -0.9981 -0.1479  0.9086
   13MOL0     C 1714   5.053   4.803   8.047  0.3953  0.2374  0.2270
   13MOL0     O 1715   5.186   4.831   8.053 -0.4100 -0.8691 -0.1118
   13MOL0     C 1716   5.257   4.807   7.927 -1.1026  0.1433  0.0708
   13MOL0     C 1717   5.357   4.926   7.903  1.1149 -0.6865  1.7021
   13MOL0     C 1718   5.293   5.058   7.889  0.8351  0.8283  1.4567
   13MOL0     C 1719   5.195   5.056   7.769  0.7183  0.4174 -0.2007
   13MOL0     C 1720   5.182   5.192   7.708 -0.3765  1.2495  1.7378
   13MOL0     C 1721   5.192   5.301   7.661  0.1379 -0.4873 -0.2271
   13MOL0     C 1722   5.013   4.670   8.028  0.2491  0.3072  1.1075
   13MOL0     C 1723   4.882   4.635   8.009 -0.0090  0.5607 -0.2041
   13MOL0     C 1724   4.858   4.496   7.984  0.3741  0.4012 -0.7015
   13MOL0     H 1725   4.406   4.710   7.848  0.6543 -0.3242  1.5042
   13MOL0     H 1726   4.187   4.604   7.805 -2.3854 -0.9230  1.0344
   13MOL0     H 1727   4.068   4.278   8.034 -1.5575 -2.1936  0.3541
   13MOL0     H 1728   4.125   4.172   7.916  0.5619 -0.6853  1.9067
   13MOL0     H 1729   3.862   4.194   7.971 -2.3864  1.7725  0.0653
   13MOL0     H 1730   3.861   4.334   7.864  1.0629  0.6630  0.3694
   13MOL0     H 1731   3.947   4.038   7.799 -0.4586 -0.0102 -1.2077
   13MOL0     H 1732   3.798   4.101   7.733  0.9584 -0.5986 -3.7903
   13MOL0     H 1733   3.920   4.267   7.594 -0.2242  0.3483  0.1267
   13MOL0     H 1734   4.074   4.189   7.641  0.0694  1.8378 -4.7198
   13MOL0     H 1735   3.836   4.099   7.480 -0.1043  0.3012 -0.3345
   13MOL0     H 1736   3.929   3.977   7.559 -1.7895  0.0175  1.7430
   13MOL0     H 1737   4.003   4.180   7.337 -1.1364 -2.4187 -2.1101
   13MOL0     H 1738   4.141   4.132   7.426  1.6496 -0.8952 -2.3335
   13MOL0     H 1739   3.938   3.937   7.306 -1.3848  1.0575  4.9288
   13MOL0     H 1740   4.093   3.890   7.354  0.2013 -1.2284 -2.1210
   13MOL0     H 1741   4.043   4.103   7.134 -0.5460 -0.8789 -0.4226
   13MOL0     H 1742   4.202   4.080   7.213 -0.2062  1.2005  0.5801
   13MOL0     H 1743   4.196   4.083   6.916 -0.9823 -0.4627 -1.7515
   13MOL0     H 1744   4.293   3.764   6.748 -0.1526  0.5766 -0.6468
   13MOL0     H 1745   4.258   3.924   6.686 -0.1461 -0.4996 -1.0296
   13MOL0     H 1746   4.050   3.699   6.690  1.9461 -0.4715  0.2286
   13MOL0     H 1747   4.017   3.868   6.648  0.1559  0.9298 -1.2988
   13MOL0     H 1748   4.199   3.880   6.486 -0.4515  1.5083  2.5596
   13MOL0     H 1749   4.236   3.717   6.492 -0.7878 -0.0691 -2.1872
   13MOL0     H 1750   3.991   3.660   6.424  0.5889  0.0132  0.8804
   13MOL0     H 1751   3.980   3.831   6.383 -0.0554 -0.1016  0.1268
   13MOL0     H 1752   4.243   3.753   6.068  1.3210 -0.5414 -0.1719
   13MOL0     H 1753   4.183   3.651   5.733  1.5353  0.9986 -2.0489
   13MOL0     H 1754   4.276   3.758   5.843 -1.5427 -0.2733  0.8854
   13MOL0     H 1755   4.154   3.822   5.750 -1.4908 -1.9554 -0.0004
   13MOL0     H 1756   4.014   3.831   5.432  1.5362 -1.7201 -1.2800
   13MOL0     H 1757   3.940   3.791   5.207 -0.3540 -1.0698 -0.2835
   13MOL0     H 1758   3.771   3.421   5.125  1.8296  1.0305 -1.3267
   13MOL0     H 1759   3.607   3.485   5.105 -0.4341  0.2595 -0.6470
   13MOL0     H 1760   3.648   3.580   4.900 -0.1798 -1.6390 -1.3197
   13MOL0     H 1761   3.825   3.546   4.911  0.7885 -0.7747  2.5750
   13MOL0     H 1762   3.596   3.346   4.877 -0.2520  0.7220  0.7248
   13MOL0     H 1763   3.762   3.299   4.937  0.1141 -1.0424 -3.0312
   13MOL0     H 1764   3.839   3.397   4.713 -0.5301  1.9887  1.8542
   13MOL0     H 1765   3.664   3.399   4.675 -0.5854 -2.5780  0.3387
   13MOL0     H 1766   3.843   3.158   4.734  0.6594  1.5561 -2.4352
   13MOL0     H 1767   3.661   3.150   4.728 -0.5907 -2.5836 -1.6991
   13MOL0     H 1768   3.862   3.260   4.525  0.7092 -1.1531 -2.0796
   13MOL0     H 1769   3.690   3.254   4.496 -1.4171 -0.5233  1.8036
   13MOL0     H 1770   3.682   3.008   4.517 -0.0510 -1.5405 -2.9615
   13MOL0     H 1771   3.863   3.012   4.520  0.6425  2.1861  2.3381
   13MOL0     H 1772   3.672   3.071   4.298  0.4576  1.5497 -0.6498
   13MOL0     H 1773   3.806   2.958   4.293  0.2627  1.3811 -1.6414
   13MOL0     H 1774   3.686   3.472   5.344  0.5878 -2.5461  2.7953
   13MOL0     H 1775   3.765   3.503   5.572 -1.8136 -1.0190 -2.7717
   13MOL0     H 1776   3.766   3.624   6.013  0.2228 -1.2647  1.6029
   13MOL0     H 1777   3.869   3.670   6.239 -0.1857  0.3835 -0.2505
   13MOL0     H 1778   4.325   4.238   7.996  3.5310 -0.2910 -0.0641
   13MOL0     H 1779   4.501   4.351   8.088 -3.6770 -1.3814  2.9308
   13MOL0     H 1780   4.756   4.951   8.075  0.1689  1.7665 -0.6192
   13MOL0     H 1781   4.996   5.004   8.070 -2.7695  0.5401  0.9604
   13MOL0     H 1782   5.314   4.718   7.953 -2.2779 -0.8000 -0.4483
   13MOL0     H 1783   5.202   4.774   7.838  0.9095  0.7791 -1.4904
   13MOL0     H 1784   5.412   4.913   7.810  0.1083  1.3318  0.7672
   13MOL0     H 1785   5.426   4.940   7.987  0.9138  2.3975  1.4757
   13MOL0     H 1786   5.245   5.096   7.980 -1.7458  0.1875  0.4724
   13MOL0     H 1787   5.362   5.138   7.861  1.4573 -0.4955 -1.1902
   13MOL0     H 1788   5.099   5.015   7.803 -0.2200  2.2048 -0.5427
   13MOL0     H 1789   5.245   5.005   7.686 -1.4480 -1.7847 -0.2497
   13MOL0     H 1790   5.205   5.404   7.637  0.2592  0.0847  2.0540
   13MOL0     H 1791   5.093   4.598   8.043 -0.8045 -0.7426  1.7514
   13MOL0     H 1792   4.799   4.445   8.061  0.0898 -0.3258 -1.3848
   13MOL0     H 1793   4.799   4.478   7.894  1.6264  0.9109 -1.6484
   13MOL0     H 1794   4.951   4.439   7.993  1.3613  1.9985 -0.4505
   14MOL0     O 1795   1.609   2.165   6.384  0.9891  0.6937  0.2270
   14MOL0     C 1796   1.519   2.084   6.361  0.4948  0.7607 -0.0196
   14MOL0     O 1797   1.389   2.087   6.419  0.1855  0.2829 -0.2633
   14MOL0     C 1798   1.360   2.198   6.497 -0.5255 -0.2468  0.3846
   14MOL0     C 1799   1.344   2.166   6.632 -0.3414 -0.7759 -0.4299
   14MOL0     C 1800   1.302   2.262   6.726  0.7970 -0.4379 -0.7988
   14MOL0     C 1801   1.266   2.390   6.679 -0.0144 -0.3472 -0.0198
   14MOL0     O 1802   1.258   2.507   6.752 -0.0784 -0.0326 -0.5607
   14MOL0     C 1803   1.298   2.507   6.894  0.1167  0.2063 -0.1703
   14MOL0     C 1804   1.268   2.623   6.974  0.3385 -0.1400  0.3767
   14MOL0     C 1805   1.129   2.680   6.963  0.2600 -0.2259  0.5559
   14MOL0     C 1806   1.127   2.835   6.988 -0.1445  0.3327 -0.0462
   14MOL0     C 1807   1.186   2.893   7.113 -0.1415  0.0783 -0.6169
   14MOL0     C 1808   1.115   3.017   7.157  0.5853  0.8175  0.3578
   14MOL0     C 1809   1.102   3.121   7.043 -0.9461 -0.0139  0.5882
   14MOL0     C 1810   1.226   3.182   6.981 -0.5100 -0.2923 -0.9857
   14MOL0     N 1811   1.279   3.284   7.071 -0.6079 -1.0122  0.2863
   14MOL0     C 1812   1.271   3.417   7.039  0.6778 -0.3974 -0.5553
   14MOL0     C 1813   1.365   3.478   7.127 -0.9821  0.2028  0.2495
   14MOL0     C 1814   1.414   3.627   7.136 -0.5830 -0.1386 -0.0527
   14MOL0     C 1815   1.428   3.655   7.287  0.1981 -0.5513  0.1034
   14MOL0     C 1816   1.436   3.815   7.322 -0.0380 -0.5946 -0.8175
   14MOL0     C 1817   1.421   3.840   7.479  1.1563 -0.1331  0.1202
   14MOL0     O 1818   1.537   3.901   7.531 -0.7761 -0.5025  0.6714
   14MOL0     C 1819   1.651   3.827   7.530 -0.6133 -0.1900 -0.0844
   14MOL0     C 1820   1.651   3.697   7.565 -0.4852 -0.3598 -0.0210
   14MOL0     C 1821   1.782   3.637   7.576  0.5687 -0.2490  0.8044
   14MOL0     C 1822   1.784   3.482   7.619 -0.0871 -0.1063  0.7396
   14MOL0     C 1823   1.898   3.706   7.530 -0.5263 -0.6022 -0.4783
   14MOL0     C 1824   2.036   3.648   7.534 -0.1971 -0.0589 -0.4619
   14MOL0     O 1825   2.140   3.729   7.512 -0.2630 -0.8508 -0.2559
   14MOL0     C 1826   2.248   3.672   7.459 -1.1994  0.2266 -0.1207
   14MOL0     C 1827   2.373   3.628   7.531  0.0722  0.0919 -0.2460
   14MOL0     C 1828   2.489   3.577   7.463  1.0601 -0.8843 -0.7260
   14MOL0     C 1829   2.469   3.552   7.325 -0.4669 -0.3487  0.0274
   14MOL0     O 1830   2.575   3.484   7.264  0.7091 -0.6631  0.6638
   14MOL0     C 1831   2.557   3.454   7.128  0.4221  0.0303 -0.7989
   14MOL0     C 1832   2.672   3.366   7.075 -0.8122 -0.2333 -0.3001
   14MOL0     C 1833   2.770   3.435   6.974  0.7911 -0.1472  0.4416
   14MOL0     C 1834   2.881   3.342   6.954  0.5110  0.4024  0.7879
   14MOL0     C 1835   2.866   3.266   6.823 -0.8606  0.1899  0.0143
   14MOL0     C 1836   2.831   3.119   6.845 -0.2843 -0.2626  0.7868
   14MOL0     C 1837   2.771   3.065   6.713 -0.8242  0.0967 -0.8412
   14MOL0     C 1838   2.858   3.076   6.591  0.3527 -0.8232  0.2626
   14MOL0    Cl 1839   3.027   3.046   6.638  0.1919  0.2372  0.4472
   14MOL0     C 1840   2.355   3.606   7.258  0.6256 -0.3008  0.3438
   14MOL0     C 1841   2.251   3.664   7.324  0.5132 -0.2845  0.1581
   14MOL0     O 1842   2.043   3.521   7.548  0.1420 -0.0417  0.2042
   14MOL0     C 1843   1.888   3.836   7.479 -0.8407 -0.2430  0.2565
   14MOL0     C 1844   1.762   3.900   7.483  0.1116  0.5872  0.6769
   14MOL0     N 1845   1.419   3.379   7.204 -0.8280 -0.6646 -0.4021
   14MOL0     N 1846   1.373   3.265   7.176  0.6128 -0.8240 -0.1194
   14MOL0     C 1847   1.269   2.419   6.544  0.3301 -1.2375 -0.2194
   14MOL0     C 1848   1.314   2.326   6.452  0.0979  0.5132  0.3421
   14MOL0     C 1849   1.555   1.961   6.285  0.1972 -0.2855  0.5607
   14MOL0     C 1850   1.487   1.844   6.305  0.8133 -0.2256 -0.6141
   14MOL0     C 1851   1.511   1.723   6.241 -0.2019  0.3545 -0.6101
   14MOL0     C 1852   1.617   1.725   6.153 -1.1627 -0.5546 -0.2583
   14MOL0     O 1853   1.653   1.622   6.082 -0.4035  0.2086  0.0925
   14MOL0     C 1854   1.555   1.551   5.998 -0.6243  0.3240  0.9477
   14MOL0     C 1855   1.611   1.427   5.925  0.7601 -0.6850  0.6478
   14MOL0     C 1856   1.656   1.302   6.012  0.7219 -0.9567 -0.3051
   14MOL0     C 1857   1.704   1.198   5.910 -0.7694  0.4047 -0.4186
   14MOL0     C 1858   1.716   1.066   5.978 -0.8964 -0.1182  1.0208
   14MOL0     C 1859   1.719   0.878   6.029 -0.2993  0.4752  0.9464
   14MOL0     C 1860   1.691   1.842   6.117  0.1123 -0.0392 -1.1301
   14MOL0     C 1861   1.658   1.960   6.186 -0.4204 -0.1012  0.3302
   14MOL0     C 1862   1.737   2.079   6.132  0.9145 -0.0952 -1.5470
   14MOL0     H 1863   1.399   2.079   6.665  1.3192  0.2818 -0.2989
   14MOL0     H 1864   1.316   2.240   6.831 -1.0444  0.3496 -0.3637
   14MOL0     H 1865   1.406   2.490   6.885  0.2793  1.1602 -0.1037
   14MOL0     H 1866   1.255   2.422   6.949  0.9275  0.3674  0.7498
   14MOL0     H 1867   1.293   2.597   7.077 -1.3228  3.2948  1.8197
   14MOL0     H 1868   1.337   2.706   6.955  0.0054  0.1695  0.4976
   14MOL0     H 1869   1.090   2.649   6.866  1.2334  0.2103  0.0002
   14MOL0     H 1870   1.074   2.630   7.043  3.7924 -0.1021  3.3059
   14MOL0     H 1871   1.182   2.879   6.904  1.7108  0.5456  1.2393
   14MOL0     H 1872   1.025   2.874   6.981  0.2417  1.6470  1.2870
   14MOL0     H 1873   1.292   2.916   7.098 -0.0303 -0.0922 -0.1185
   14MOL0     H 1874   1.177   2.812   7.186  3.5460 -1.8442 -2.0096
   14MOL0     H 1875   1.017   2.983   7.193  1.1248  1.1549  2.2404
   14MOL0     H 1876   1.159   3.067   7.243  0.4356  1.2377  0.1920
   14MOL0     H 1877   1.038   3.202   7.080 -1.7343  0.4387 -1.6047
   14MOL0     H 1878   1.038   3.084   6.962  0.0206 -0.8802  0.2057
   14MOL0     H 1879   1.291   3.095   6.967 -0.3020 -0.6696  1.7300
   14MOL0     H 1880   1.203   3.233   6.887  0.0144  0.3302 -0.7863
   14MOL0     H 1881   1.218   3.464   6.957 -1.3052 -0.6809  0.5124
   14MOL0     H 1882   1.350   3.696   7.080 -0.6473 -2.5829 -3.2939
   14MOL0     H 1883   1.515   3.624   7.095 -0.1259  1.4242  0.8885
   14MOL0     H 1884   1.347   3.614   7.350  0.9612  1.6181  2.6852
   14MOL0     H 1885   1.515   3.601   7.326  1.4895  0.3110 -1.4871
   14MOL0     H 1886   1.535   3.850   7.294 -0.0548  1.0545  0.9586
   14MOL0     H 1887   1.366   3.868   7.257 -0.2823 -2.1096 -1.8452
   14MOL0     H 1888   1.339   3.912   7.483  1.3033  0.0076  0.5676
   14MOL0     H 1889   1.392   3.749   7.533 -1.2861 -1.5044 -3.1498
   14MOL0     H 1890   1.565   3.653   7.615  0.3379  1.4304  3.2859
   14MOL0     H 1891   1.834   3.455   7.713 -0.8297  0.1513  1.2166
   14MOL0     H 1892   1.827   3.415   7.544  2.6059 -0.8105  2.7553
   14MOL0     H 1893   1.683   3.443   7.618  0.0534 -0.4603  0.2568
   14MOL0     H 1894   2.394   3.640   7.637  0.7635  0.2689 -0.3976
   14MOL0     H 1895   2.581   3.539   7.507  0.2902 -2.4306 -0.3572
   14MOL0     H 1896   2.454   3.419   7.111 -1.5639  3.1119  3.2662
   14MOL0     H 1897   2.562   3.539   7.059 -6.2049  0.1987 -1.7689
   14MOL0     H 1898   2.733   3.335   7.160  1.3510 -1.4040 -2.1906
   14MOL0     H 1899   2.613   3.288   7.026 -1.2027  0.5608 -1.1113
   14MOL0     H 1900   2.812   3.523   7.024 -2.1071  1.3766  0.3685
   14MOL0     H 1901   2.709   3.464   6.888  1.2322 -1.7229 -0.4419
   14MOL0     H 1902   2.893   3.268   7.033  1.7138 -0.0786  0.1840
   14MOL0     H 1903   2.975   3.393   6.935  1.2506 -0.4530  1.9943
   14MOL0     H 1904   2.794   3.308   6.752  0.4816 -1.5006 -2.4949
   14MOL0     H 1905   2.966   3.256   6.778  0.3337 -1.5391  2.7748
   14MOL0     H 1906   2.747   3.121   6.914 -1.1805  2.1910 -0.2640
   14MOL0     H 1907   2.911   3.054   6.881  1.3509  1.0510 -0.3307
   14MOL0     H 1908   2.675   3.113   6.693 -1.1001 -0.7072 -1.5280
   14MOL0     H 1909   2.753   2.957   6.720  0.0037  0.0638  2.0001
   14MOL0     H 1910   2.851   3.178   6.552  1.4843 -1.3028 -1.2726
   14MOL0     H 1911   2.829   3.003   6.516 -0.1213  0.0685 -0.4425
   14MOL0     H 1912   2.347   3.624   7.151  0.4773  0.1943  0.4373
   14MOL0     H 1913   2.154   3.670   7.275  0.9278  2.8812 -0.5266
   14MOL0     H 1914   1.972   3.900   7.455 -1.3839 -0.2833 -1.9196
   14MOL0     H 1915   1.756   4.006   7.459 -1.1918  0.3380 -0.2122
   14MOL0     H 1916   1.240   2.519   6.513  0.3592 -1.2617 -0.3248
   14MOL0     H 1917   1.322   2.348   6.346  0.6072 -2.1474 -0.2389
   14MOL0     H 1918   1.388   1.838   6.349  0.1916 -2.8286 -2.1376
   14MOL0     H 1919   1.456   1.630   6.249 -1.3727  1.1451  1.2010
   14MOL0     H 1920   1.470   1.520   6.060  0.5865 -3.4944  0.9246
   14MOL0     H 1921   1.510   1.626   5.931 -2.4606 -0.0773  1.6693
   14MOL0     H 1922   1.686   1.481   5.866 -0.3442 -1.2798 -1.3833
   14MOL0     H 1923   1.526   1.392   5.866 -3.2243 -0.3888  5.5240
   14MOL0     H 1924   1.731   1.344   6.080 -0.5443  3.9912 -1.5714
   14MOL0     H 1925   1.572   1.257   6.066  2.4816 -4.3950 -0.1821
   14MOL0     H 1926   1.797   1.224   5.858  0.5955 -0.9918  1.2002
   14MOL0     H 1927   1.629   1.194   5.831 -0.5441  3.6853 -0.9476
   14MOL0     H 1928   1.728   0.773   6.049  1.1277  0.1808 -0.9954
   14MOL0     H 1929   1.774   1.846   6.048  0.1855  1.6072 -0.9764
   14MOL0     H 1930   1.823   2.086   6.199  1.1499 -4.6960 -1.0065
   14MOL0     H 1931   1.771   2.060   6.030  0.5160 -0.9932 -1.5243
   14MOL0     H 1932   1.671   2.165   6.125  1.0527  0.0861 -0.6555
   15MOL0     O 1933   7.729   0.720   8.160  0.9024  0.3633 -0.2535
   15MOL0     C 1934   7.809   0.762   8.080 -0.3586 -0.4025 -0.6870
   15MOL0     O 1935   7.789   0.872   7.999  0.4494 -0.4898  0.4154
   15MOL0     C 1936   7.659   0.904   7.973  0.3595 -0.6932 -0.0639
   15MOL0     C 1937   7.592   0.849   7.863 -0.2006  0.4382  0.0713
   15MOL0     C 1938   7.459   0.892   7.831 -0.2187 -0.3406 -0.3430
   15MOL0     C 1939   7.389   0.979   7.908  0.5843 -0.3633 -0.0158
   15MOL0     O 1940   7.256   1.001   7.862 -1.0152 -0.4341  0.2561
   15MOL0     C 1941   7.199   1.118   7.928  1.0295 -0.8429  0.3769
   15MOL0     C 1942   7.044   1.096   7.894  0.2004 -0.1790  0.1400
   15MOL0     C 1943   6.960   1.194   7.969 -0.2954 -0.6793  0.2176
   15MOL0     C 1944   6.936   1.332   7.886  0.4260  0.5583 -1.1349
   15MOL0     C 1945   6.875   1.443   7.961  0.2031 -0.4876  0.5025
   15MOL0     C 1946   6.955   1.519   8.059 -0.7376 -0.4403  0.1748
   15MOL0     C 1947   7.056   1.608   7.979  0.7258 -0.4919 -0.0137
   15MOL0     C 1948   7.017   1.746   8.001  0.8160 -0.2179 -0.1936
   15MOL0     N 1949   7.105   1.828   7.925 -0.0853  0.3312  0.0798
   15MOL0     C 1950   7.238   1.852   7.950 -0.2122 -0.2004  0.4414
   15MOL0     C 1951   7.280   1.928   7.841  0.0422  0.1183  0.5564
   15MOL0     C 1952   7.425   1.933   7.804 -0.1323 -0.2387  0.2528
   15MOL0     C 1953   7.466   1.802   7.733  0.5138  0.1135  0.4080
   15MOL0     C 1954   7.610   1.789   7.707 -0.5039 -0.8480  1.0390
   15MOL0     C 1955   7.707   1.799   7.826 -1.3971 -0.7694 -0.2079
   15MOL0     O 1956   7.839   1.786   7.763  0.0723  0.3963  0.1413
   15MOL0     C 1957   7.943   1.746   7.841  0.7690 -0.0968 -0.4476
   15MOL0     C 1958   8.057   1.693   7.795 -0.2452  0.6272 -0.8973
   15MOL0     C 1959   8.173   1.661   7.863  0.5519 -0.7202 -1.4330
   15MOL0     C 1960   8.295   1.610   7.783  0.6922  0.0857 -0.1325
   15MOL0     C 1961   8.178   1.698   7.998  0.2449  0.2329  0.3313
   15MOL0     C 1962   8.308   1.673   8.063 -0.0378 -0.2247  0.5203
   15MOL0     O 1963   8.353   1.548   8.052 -0.5366 -0.7984  0.0790
   15MOL0     C 1964   8.439   1.523   8.148 -0.1108  0.2289 -1.0622
   15MOL0     C 1965   8.404   1.521   8.285 -0.4533 -0.0902  0.9616
   15MOL0     C 1966   8.508   1.518   8.373 -0.0008 -1.0474 -0.1185
   15MOL0     C 1967   8.643   1.505   8.337  1.2491  0.0637  0.9883
   15MOL0     O 1968   8.717   1.491   8.446 -0.0825  0.1769 -0.5396
   15MOL0     C 1969   8.867   1.473   8.435  0.1041  1.2190  0.0637
   15MOL0     C 1970   8.894   1.329   8.455 -0.7300 -0.3132 -0.5447
   15MOL0     C 1971   9.018   1.290   8.526 -1.2642  0.1184  0.1730
   15MOL0     C 1972   9.138   1.304   8.431 -0.4303  0.4044 -0.0690
   15MOL0     C 1973   9.261   1.244   8.492  1.0314 -0.3532  0.4203
   15MOL0     C 1974   9.268   1.098   8.526  0.5844  0.3192 -0.0616
   15MOL0     C 1975   9.245   1.005   8.408  0.6967  0.4452  0.3974
   15MOL0     C 1976   9.299   0.858   8.425  0.2549 -1.1187 -0.3315
   15MOL0    Cl 1977   9.468   0.865   8.372 -0.7351  0.3470 -0.4076
   15MOL0     C 1978   8.673   1.497   8.198 -0.2236  0.5245  0.7158
   15MOL0     C 1979   8.568   1.502   8.100 -0.9847 -0.7349 -0.8088
   15MOL0     O 1980   8.369   1.772   8.110  0.0548  0.1599  0.1487
   15MOL0     C 1981   8.065   1.769   8.054 -0.2541  0.0009  0.4821
   15MOL0     C 1982   7.942   1.770   7.976  0.9473  0.2251 -0.1578
   15MOL0     N 1983   7.177   1.927   7.743 -0.8552  0.0191  0.7127
   15MOL0     N 1984   7.081   1.864   7.791  0.9676  0.1572 -0.4512
   15MOL0     C 1985   7.458   1.047   8.009  0.5225  0.6933  0.1512
   15MOL0     C 1986   7.591   1.008   8.035 -0.3591 -0.6935 -0.2492
   15MOL0     C 1987   7.946   0.706   8.097  0.1699 -0.2824  0.2537
   15MOL0     C 1988   7.979   0.629   8.211 -0.3672 -0.5070  0.0744
   15MOL0     C 1989   8.105   0.568   8.225  0.1901  0.1088  0.5038
   15MOL0     C 1990   8.202   0.582   8.129  0.2648 -1.0134  0.0362
   15MOL0     O 1991   8.322   0.518   8.137  0.0721  0.9018  0.2373
   15MOL0     C 1992   8.310   0.377   8.115  0.5390 -0.6815  0.6348
   15MOL0     C 1993   8.300   0.289   8.247  1.4469  0.6293  0.3545
   15MOL0     C 1994   8.335   0.141   8.217 -0.1453 -0.0563 -0.0448
   15MOL0     C 1995   8.204   0.060   8.205  0.0208  0.5442 -0.5627
   15MOL0     C 1996   8.164   0.055   8.065  0.1469  0.1702  1.0039
   15MOL0     C 1997   8.121   0.044   7.950 -0.1545  0.3636  0.0414
   15MOL0     C 1998   8.171   0.652   8.010  0.6719 -0.4260 -0.0391
   15MOL0     C 1999   8.039   0.715   7.997  0.3554 -1.0575  0.1339
   15MOL0     C 2000   8.019   0.775   7.857 -0.0699 -0.2295  0.9010
   15MOL0     H 2001   7.647   0.784   7.796  1.3218  2.6237 -0.9418
   15MOL0     H 2002   7.413   0.844   7.745  1.4772 -0.7944 -1.0551
   15MOL0     H 2003   7.233   1.211   7.880 -1.1751 -0.1206  0.1270
   15MOL0     H 2004   7.209   1.129   8.036 -4.5162  1.2427  0.9981
   15MOL0     H 2005   7.011   1.094   7.789  0.3427  1.9291  0.0156
   15MOL0     H 2006   7.015   1.003   7.942  2.5365 -0.2947  1.4841
   15MOL0     H 2007   6.859   1.155   7.986  0.3855 -2.1903  0.9821
   15MOL0     H 2008   7.002   1.221   8.066 -2.5904  0.4647  0.9661
   15MOL0     H 2009   7.027   1.368   7.837  0.4894  1.3650 -0.4374
   15MOL0     H 2010   6.867   1.301   7.807 -1.4562 -0.4695  0.8115
   15MOL0     H 2011   6.790   1.395   8.011 -1.2965  0.3474 -1.0980
   15MOL0     H 2012   6.827   1.507   7.887 -1.4778 -5.1701 -2.9884
   15MOL0     H 2013   6.897   1.591   8.119 -0.2380  0.8220 -0.8098
   15MOL0     H 2014   7.014   1.459   8.129 -1.8901 -1.0762  0.6298
   15MOL0     H 2015   7.047   1.601   7.870 -0.5101 -0.7310  0.0883
   15MOL0     H 2016   7.157   1.580   8.012  0.5191 -0.2751  0.8385
   15MOL0     H 2017   6.914   1.766   7.971 -0.0626 -2.1682  1.3135
   15MOL0     H 2018   7.027   1.770   8.108  3.7566 -2.0126  0.0390
   15MOL0     H 2019   7.299   1.810   8.028 -1.2379 -0.1695  1.2883
   15MOL0     H 2020   7.489   1.966   7.887  0.5615 -3.2603  1.0683
   15MOL0     H 2021   7.437   2.025   7.747  0.2132  0.1587  0.9563
   15MOL0     H 2022   7.441   1.707   7.781 -2.0389  1.2870  1.5767
   15MOL0     H 2023   7.405   1.813   7.643 -0.6422 -0.5840  1.0825
   15MOL0     H 2024   7.623   1.692   7.659 -1.7782 -0.1892 -0.7769
   15MOL0     H 2025   7.633   1.859   7.626  0.0650 -1.1860  0.9060
   15MOL0     H 2026   7.697   1.898   7.871 -1.9994 -1.6560  1.7194
   15MOL0     H 2027   7.689   1.718   7.897 -3.3186 -1.2846 -1.2263
   15MOL0     H 2028   8.070   1.694   7.687 -0.2183 -0.8951 -0.9296
   15MOL0     H 2029   8.263   1.606   7.679 -0.9112  3.2211  0.1321
   15MOL0     H 2030   8.311   1.508   7.820 -0.8630  0.0138  0.4453
   15MOL0     H 2031   8.381   1.676   7.771  1.7270 -0.8982  1.4164
   15MOL0     H 2032   8.300   1.545   8.304 -0.2650  2.0915 -0.4341
   15MOL0     H 2033   8.489   1.529   8.479  2.7833  3.6127  0.1724
   15MOL0     H 2034   8.922   1.512   8.349  1.0147  1.3792  0.7092
   15MOL0     H 2035   8.920   1.533   8.509 -0.9329  4.6508 -1.7733
   15MOL0     H 2036   8.815   1.294   8.523 -1.5828 -0.6836 -1.7070
   15MOL0     H 2037   8.898   1.278   8.358  0.5810  0.0853 -0.7122
   15MOL0     H 2038   9.005   1.189   8.567 -2.3530  1.1364  2.5354
   15MOL0     H 2039   9.027   1.347   8.619  0.6303  0.5860 -0.2561
   15MOL0     H 2040   9.163   1.410   8.425  2.0522 -0.0373  1.2349
   15MOL0     H 2041   9.133   1.261   8.331 -2.1118  2.7933 -1.1119
   15MOL0     H 2042   9.344   1.265   8.423 -1.8617  2.2228 -2.6406
   15MOL0     H 2043   9.287   1.302   8.581  0.4323  1.8545 -0.7575
   15MOL0     H 2044   9.184   1.077   8.593 -0.5956  1.4616 -1.1352
   15MOL0     H 2045   9.363   1.075   8.574  0.0592 -0.5898  0.5790
   15MOL0     H 2046   9.292   1.054   8.322 -2.2748  1.3838 -0.7985
   15MOL0     H 2047   9.140   1.008   8.380  0.8763 -1.0351 -0.5518
   15MOL0     H 2048   9.247   0.780   8.370 -0.5027  0.5674 -2.1101
   15MOL0     H 2049   9.302   0.829   8.531 -4.1220 -3.6283 -0.6856
   15MOL0     H 2050   8.775   1.474   8.168 -1.3632 -1.0914 -2.2133
   15MOL0     H 2051   8.603   1.496   7.998  0.1590 -1.7148 -0.3867
   15MOL0     H 2052   8.074   1.802   8.157 -0.4803  0.7392  0.2721
   15MOL0     H 2053   7.855   1.818   8.020  0.7389  0.8132 -1.2036
   15MOL0     H 2054   7.433   1.128   8.078  0.0662 -0.7511  1.7441
   15MOL0     H 2055   7.652   1.050   8.114 -0.4738 -0.9113 -0.0431
   15MOL0     H 2056   7.907   0.603   8.287 -2.2396 -1.7996 -2.0127
   15MOL0     H 2057   8.121   0.518   8.320 -1.4022  0.6120  1.0782
   15MOL0     H 2058   8.239   0.348   8.036 -0.3988 -2.7556  2.1267
   15MOL0     H 2059   8.406   0.345   8.072  0.1431  0.1126 -0.9233
   15MOL0     H 2060   8.196   0.297   8.279  1.5302  0.0086  0.7980
   15MOL0     H 2061   8.349   0.331   8.335 -0.4370  3.4363  0.2088
   15MOL0     H 2062   8.406   0.131   8.134  2.2005  0.0599  1.8367
   15MOL0     H 2063   8.379   0.095   8.306  2.3020  1.5010 -0.3517
   15MOL0     H 2064   8.123   0.099   8.266 -2.2349 -3.2334 -0.8024
   15MOL0     H 2065   8.229  -0.041   8.238  4.2872  2.1390  1.9377
   15MOL0     H 2066   8.103   0.041   7.845  3.7432  0.2439 -0.7608
   15MOL0     H 2067   8.233   0.640   7.922  2.8159  0.3469  1.3023
   15MOL0     H 2068   8.039   0.883   7.857  0.4908 -0.3346  0.5435
   15MOL0     H 2069   8.091   0.741   7.782 -0.3013  3.3660 -1.1864
   15MOL0     H 2070   7.916   0.767   7.819 -0.1003 -1.3077  1.1818
   16MOL0     O 2071   4.909   8.117   9.127  0.5256  0.1695  0.0250
   16MOL0     C 2072   4.845   8.051   9.043 -0.9827  0.3303  0.1645
   16MOL0     O 2073   4.761   7.950   9.079  0.3136 -0.1419 -0.0514
   16MOL0     C 2074   4.719   7.951   9.212 -0.1294  0.3922  0.3347
   16MOL0     C 2075   4.595   7.986   9.246 -0.1468 -0.7785 -0.3810
   16MOL0     C 2076   4.567   8.002   9.381 -0.2037  0.1745  0.6857
   16MOL0     C 2077   4.650   7.954   9.481 -0.4451 -0.9779  1.7556
   16MOL0     O 2078   4.601   7.967   9.605 -0.7706  0.7327 -0.3226
   16MOL0     C 2079   4.578   7.844   9.683  0.5193 -0.4006 -0.5098
   16MOL0     C 2080   4.675   7.834   9.801 -0.1962 -0.1020  0.5668
   16MOL0     C 2081   4.641   7.714   9.892  0.0740 -0.4306 -0.0388
   16MOL0     C 2082   4.716   7.730  10.023 -0.3510  0.4694 -0.7196
   16MOL0     C 2083   4.866   7.677   9.999  0.0666 -0.2479 -0.0347
   16MOL0     C 2084   4.932   7.599  10.119 -0.0197  0.0356  0.2782
   16MOL0     C 2085   4.916   7.690  10.255  0.0628 -0.4510  0.3383
   16MOL0     C 2086   5.025   7.805  10.258  0.1123  0.4588 -0.0553
   16MOL0     N 2087   4.962   7.934  10.220  0.3774 -0.0501  0.4960
   16MOL0     C 2088   4.891   8.004  10.305  1.3055  0.2224 -0.3360
   16MOL0     C 2089   4.855   8.116  10.253  0.4313 -0.4252 -0.0151
   16MOL0     C 2090   4.763   8.230  10.301 -0.3724  0.3955 -0.0881
   16MOL0     C 2091   4.847   8.363  10.334 -0.1685 -0.0905 -0.8214
   16MOL0     C 2092   4.830   8.457  10.212 -0.6102  0.3336  0.1594
   16MOL0     C 2093   4.933   8.555  10.219 -0.0496 -0.0617  0.7132
   16MOL0     O 2094   4.974   8.591  10.088  0.3197 -0.3133  0.0786
   16MOL0     C 2095   5.082   8.525  10.018 -0.0883 -0.7795  0.0302
   16MOL0     C 2096   5.138   8.408  10.067 -0.5506 -0.4364  0.5288
   16MOL0     C 2097   5.219   8.328   9.975 -0.5931 -0.4669  0.4472
   16MOL0     C 2098   5.293   8.204  10.031 -0.2876 -0.5808 -0.0925
   16MOL0     C 2099   5.250   8.371   9.844  0.5467 -0.5548  0.6978
   16MOL0     C 2100   5.341   8.300   9.744 -0.1593 -0.4617  0.3621
   16MOL0     O 2101   5.391   8.371   9.634  1.0305 -0.0242 -0.6522
   16MOL0     C 2102   5.463   8.303   9.536 -0.3396 -0.8121  0.2437
   16MOL0     C 2103   5.388   8.219   9.451  0.0915  0.8966  0.7170
   16MOL0     C 2104   5.466   8.151   9.355 -0.5715  0.2045 -0.6497
   16MOL0     C 2105   5.598   8.191   9.329 -0.1711  1.4841  0.0732
   16MOL0     O 2106   5.669   8.135   9.229  0.3548  0.0332  0.1292
   16MOL0     C 2107   5.740   8.017   9.263  0.3512  0.5718 -1.2278
   16MOL0     C 2108   5.883   8.029   9.212 -1.1493  0.5833 -0.1188
   16MOL0     C 2109   5.994   7.926   9.258 -0.0448 -0.4989 -0.0972
   16MOL0     C 2110   6.044   7.829   9.153  1.0698 -0.3644  0.4505
   16MOL0     C 2111   6.165   7.751   9.194  0.9370  0.1146  0.0800
   16MOL0     C 2112   6.191   7.657   9.076 -0.7080 -0.4746  0.1522
   16MOL0     C 2113   6.330   7.697   9.011  0.8595  0.0060  0.2882
   16MOL0     C 2114   6.365   7.594   8.898 -0.4583 -0.8435 -0.4059
   16MOL0    Cl 2115   6.515   7.651   8.832 -0.1703 -0.0596  0.0903
   16MOL0     C 2116   5.669   8.278   9.411  0.5719  0.8339 -0.0808
   16MOL0     C 2117   5.608   8.329   9.519  0.7544  0.6299  1.2303
   16MOL0     O 2118   5.373   8.183   9.763 -0.2798 -0.5532  0.3714
   16MOL0     C 2119   5.209   8.501   9.804 -0.5150  0.0420  0.1996
   16MOL0     C 2120   5.120   8.569   9.890 -0.0921 -0.1417 -0.8130
   16MOL0     N 2121   4.908   8.110  10.126  0.5428  0.9664  0.2122
   16MOL0     N 2122   4.976   8.007  10.109 -0.5658 -0.3456 -0.9994
   16MOL0     C 2123   4.772   7.903   9.444 -0.9528 -0.2338 -0.4185
   16MOL0     C 2124   4.814   7.921   9.314 -0.4769  0.5480 -0.2742
   16MOL0     C 2125   4.864   8.084   8.903 -0.2914  0.6815 -0.7576
   16MOL0     C 2126   4.750   8.056   8.817 -0.2421 -0.2275  0.0714
   16MOL0     C 2127   4.768   8.066   8.675  0.5722 -0.0298 -1.1656
   16MOL0     C 2128   4.881   8.126   8.628  0.2260 -0.2389  0.6309
   16MOL0     O 2129   4.909   8.147   8.501  0.2582  0.0908  0.0920
   16MOL0     C 2130   4.804   8.114   8.404 -0.3959  0.9809 -1.4999
   16MOL0     C 2131   4.884   8.126   8.272  0.7906 -0.3192  0.3829
   16MOL0     C 2132   4.967   7.999   8.246 -0.8174  0.6071 -1.5444
   16MOL0     C 2133   4.946   7.904   8.128  0.5640  0.1238 -0.5391
   16MOL0     C 2134   4.801   7.884   8.102  0.4219 -0.9643  0.3338
   16MOL0     C 2135   4.685   7.847   8.078 -0.2592  0.5707 -0.2621
   16MOL0     C 2136   4.993   8.161   8.713 -0.4795  0.0679 -0.2956
   16MOL0     C 2137   4.985   8.125   8.847 -0.4407 -0.0741 -0.2092
   16MOL0     C 2138   5.112   8.129   8.923 -0.6311  0.9359 -0.2827
   16MOL0     H 2139   4.534   8.025   9.165  2.6257  0.6758 -1.9033
   16MOL0     H 2140   4.467   8.043   9.392 -1.5877 -0.6843 -5.1512
   16MOL0     H 2141   4.590   7.755   9.621 -3.6672 -1.7766  0.3191
   16MOL0     H 2142   4.474   7.835   9.717  1.1120 -2.9685  0.9383
   16MOL0     H 2143   4.776   7.825   9.761 -1.5906 -3.0291 -2.8402
   16MOL0     H 2144   4.670   7.922   9.865  1.6013 -0.5368  1.3685
   16MOL0     H 2145   4.534   7.720   9.909 -1.0612 -2.2733 -4.8366
   16MOL0     H 2146   4.672   7.627   9.834  1.8639  2.1489 -3.3260
   16MOL0     H 2147   4.705   7.832  10.060 -2.1596  0.1694 -0.3415
   16MOL0     H 2148   4.667   7.655  10.086  0.4667 -1.0864 -1.8684
   16MOL0     H 2149   4.928   7.763   9.971  0.7987 -0.9663 -0.6560
   16MOL0     H 2150   4.876   7.603   9.919  0.4948 -0.3278  0.0960
   16MOL0     H 2151   4.885   7.500  10.121  0.8480 -0.5289 -2.4740
   16MOL0     H 2152   5.038   7.578  10.101  0.1091  1.8984 -1.4776
   16MOL0     H 2153   4.949   7.619  10.332  0.3923  0.6255  1.2115
   16MOL0     H 2154   4.811   7.716  10.274 -0.2235 -1.3096  0.0088
   16MOL0     H 2155   5.060   7.809  10.362 -0.8851 -1.0394  0.3771
   16MOL0     H 2156   5.107   7.777  10.192 -0.6043 -2.9222  0.2988
   16MOL0     H 2157   4.845   7.973  10.398  1.1723  2.6628  0.4964
   16MOL0     H 2158   4.715   8.197  10.394  0.2051 -0.1560  0.0276
   16MOL0     H 2159   4.683   8.252  10.230 -1.3519 -0.5718  0.6769
   16MOL0     H 2160   4.816   8.413  10.427 -0.4790 -3.0240  0.7758
   16MOL0     H 2161   4.950   8.325  10.343 -0.4252 -0.3152  4.3245
   16MOL0     H 2162   4.849   8.404  10.118  0.3701 -0.1682  0.6258
   16MOL0     H 2163   4.732   8.507  10.213 -0.3554  0.8318  0.0595
   16MOL0     H 2164   4.898   8.648  10.266  1.0940 -0.1037  1.6885
   16MOL0     H 2165   5.019   8.515  10.272  1.6314  2.6816  0.2729
   16MOL0     H 2166   5.127   8.368  10.168  5.0272  1.6452  2.3584
   16MOL0     H 2167   5.275   8.114   9.972 -0.6356 -1.2432  0.9816
   16MOL0     H 2168   5.240   8.180  10.124 -0.8497 -0.1497 -0.2956
   16MOL0     H 2169   5.396   8.217  10.066 -0.3434 -0.5589  0.0684
   16MOL0     H 2170   5.280   8.213   9.455 -0.0966 -4.0008 -2.9340
   16MOL0     H 2171   5.422   8.070   9.297 -3.9770  1.3461  0.0756
   16MOL0     H 2172   5.729   7.992   9.368 -2.2379  1.1789 -1.2923
   16MOL0     H 2173   5.691   7.934   9.211 -0.6112 -0.4191  1.1622
   16MOL0     H 2174   5.899   8.037   9.104  4.3896 -0.7061  0.3316
   16MOL0     H 2175   5.921   8.124   9.251 -2.1247  1.0059 -0.1592
   16MOL0     H 2176   5.949   7.875   9.344 -1.3263  1.0642  0.1973
   16MOL0     H 2177   6.084   7.980   9.289  0.3400 -1.0406 -0.2616
   16MOL0     H 2178   6.075   7.893   9.070  3.5527 -2.2164 -0.1499
   16MOL0     H 2179   5.966   7.757   9.128  0.6062  1.0781 -2.7116
   16MOL0     H 2180   6.253   7.804   9.231  0.0817  1.9451 -0.3944
   16MOL0     H 2181   6.128   7.678   9.267 -3.5606  0.4826 -1.5131
   16MOL0     H 2182   6.115   7.654   8.997  0.2095  0.1712 -0.7752
   16MOL0     H 2183   6.205   7.554   9.110  0.1917 -1.9463 -4.0847
   16MOL0     H 2184   6.406   7.682   9.088  0.6471 -0.8750  0.3346
   16MOL0     H 2185   6.327   7.798   8.968 -3.1120 -0.3329 -0.6188
   16MOL0     H 2186   6.280   7.592   8.829 -0.3691  0.0004 -0.5554
   16MOL0     H 2187   6.371   7.490   8.932  5.1952 -1.2460 -1.6646
   16MOL0     H 2188   5.773   8.304   9.391  0.7328 -0.3191 -0.8160
   16MOL0     H 2189   5.667   8.398   9.579  0.4324  3.6151 -1.5980
   16MOL0     H 2190   5.241   8.532   9.705  4.0196  0.0129  1.4373
   16MOL0     H 2191   5.078   8.666   9.866  0.1743  1.2357  3.4443
   16MOL0     H 2192   4.823   7.851   9.525 -0.3985 -1.1854 -1.3524
   16MOL0     H 2193   4.912   7.885   9.282 -1.0898 -0.0187 -1.5979
   16MOL0     H 2194   4.660   8.021   8.866  0.8042 -0.0765  2.2403
   16MOL0     H 2195   4.681   8.029   8.621  0.2367 -1.1279  0.0704
   16MOL0     H 2196   4.777   8.008   8.411  0.5539  0.8423  1.0461
   16MOL0     H 2197   4.716   8.178   8.412 -1.2904 -0.3677  0.0968
   16MOL0     H 2198   4.942   8.218   8.267  2.0424 -1.1261 -0.8183
   16MOL0     H 2199   4.807   8.128   8.193 -0.5806  2.1220  1.6776
   16MOL0     H 2200   5.068   8.033   8.224 -0.3682 -2.5253 -5.4251
   16MOL0     H 2201   4.960   7.953   8.345  2.9611  1.0251 -0.9596
   16MOL0     H 2202   4.975   7.806   8.167 -2.2077 -0.9105 -0.8291
   16MOL0     H 2203   4.993   7.947   8.039 -3.9400 -0.2648 -3.4704
   16MOL0     H 2204   4.585   7.819   8.051 -1.6411  3.7571  1.0942
   16MOL0     H 2205   5.081   8.212   8.674  0.6533 -0.1330  1.8701
   16MOL0     H 2206   5.199   8.157   8.863  1.7959 -1.1059  2.0144
   16MOL0     H 2207   5.112   8.206   9.000  0.5033 -0.3066  1.0202
   16MOL0     H 2208   5.119   8.026   8.959 -0.3970  1.2364  0.5594
   17MOL0     O 2209   1.754  10.701   8.835 -0.4113  0.2878  0.5794
   17MOL0     C 2210   1.686  10.605   8.882 -0.1542 -0.0455  0.5785
   17MOL0     O 2211   1.702  10.476   8.835 -0.2943 -0.8324 -0.6525
   17MOL0     C 2212   1.831  10.442   8.818 -0.0272  0.4803  0.5194
   17MOL0     C 2213   1.940  10.485   8.895  0.3264  0.5038 -0.0021
   17MOL0     C 2214   2.066  10.465   8.847 -0.6584  1.0962 -0.2244
   17MOL0     C 2215   2.093  10.411   8.716 -0.1200 -0.4360 -0.2776
   17MOL0     O 2216   2.214  10.376   8.648  0.1726 -0.0239 -0.1638
   17MOL0     C 2217   2.335  10.406   8.716  0.2767 -0.1514 -0.0157
   17MOL0     C 2218   2.373  10.551   8.685 -0.5438  0.5350  0.4611
   17MOL0     C 2219   2.513  10.581   8.728  0.2482  0.2246 -0.0905
   17MOL0     C 2220   2.555  10.726   8.687  0.1347  0.8990  0.2364
   17MOL0     C 2221   2.645  10.795   8.778  0.2694 -1.1868  0.6484
   17MOL0     C 2222   2.685  10.931   8.711  0.3242  0.5223  0.4159
   17MOL0     C 2223   2.790  11.005   8.789 -0.1272  0.0414 -0.3061
   17MOL0     C 2224   2.736  11.068   8.926  0.1271 -0.6494  0.0776
   17MOL0     N 2225   2.589  11.103   8.939  0.3244 -0.1038  0.5858
   17MOL0     C 2226   2.513  11.198   8.864 -0.1196  0.6630  0.1498
   17MOL0     C 2227   2.394  11.198   8.917 -0.0759  1.1536 -1.0116
   17MOL0     C 2228   2.277  11.260   8.854 -0.4534  0.3766 -0.2058
   17MOL0     C 2229   2.248  11.389   8.910  0.6432 -0.6272  0.2270
   17MOL0     C 2230   2.252  11.391   9.064 -0.1955 -0.2564  0.7104
   17MOL0     C 2231   2.132  11.482   9.109 -0.4550  1.0132 -0.1197
   17MOL0     O 2232   2.159  11.527   9.241 -0.6603  0.3764  0.6469
   17MOL0     C 2233   2.058  11.566   9.328 -0.4049 -0.5098 -0.1287
   17MOL0     C 2234   1.923  11.579   9.292  0.4348  0.0881  0.2539
   17MOL0     C 2235   1.822  11.634   9.378 -0.9942  0.3265  0.1818
   17MOL0     C 2236   1.678  11.652   9.344  0.5400 -0.0776 -0.4680
   17MOL0     C 2237   1.866  11.664   9.512  0.1911  0.3492 -0.6738
   17MOL0     C 2238   1.770  11.700   9.614 -0.6028  0.1893 -0.5916
   17MOL0     O 2239   1.814  11.798   9.695 -0.3598 -0.2594  0.0460
   17MOL0     C 2240   1.717  11.852   9.773 -1.1617 -0.6596 -0.1645
   17MOL0     C 2241   1.621  11.935   9.729 -0.8258  0.4712  0.7430
   17MOL0     C 2242   1.520  11.974   9.805 -0.5039  0.0687  0.6325
   17MOL0     C 2243   1.505  11.936   9.937 -0.1843 -0.0750 -0.0312
   17MOL0     O 2244   1.399  11.967  10.014 -0.5212  0.9742 -1.2367
   17MOL0     C 2245   1.382  12.110  10.048 -0.0677  0.1024  0.2957
   17MOL0     C 2246   1.240  12.127  10.094  0.0607  0.6626  0.1832
   17MOL0     C 2247   1.149  12.141   9.979  0.4060  0.1014  0.2312
   17MOL0     C 2248   1.000  12.167  10.013  0.0079 -0.1201 -1.0886
   17MOL0     C 2249   0.924  12.167   9.883 -0.7091  0.4295 -0.3333
   17MOL0     C 2250   0.784  12.204   9.922  0.3112  0.1869  0.3625
   17MOL0     C 2251   0.681  12.199   9.804  0.0101 -0.8715  1.0915
   17MOL0     C 2252   0.662  12.346   9.755  0.4542  0.8940  0.2590
   17MOL0    Cl 2253   0.636  12.364   9.582 -0.0207 -0.4189  0.4862
   17MOL0     C 2254   1.593  11.853   9.991 -0.4282  0.5234 -0.9243
   17MOL0     C 2255   1.701  11.809   9.908  0.0549 -0.1978 -0.8944
   17MOL0     O 2256   1.665  11.635   9.634  0.4645 -0.3262 -0.2956
   17MOL0     C 2257   2.003  11.652   9.546  0.5344 -0.7547  0.5271
   17MOL0     C 2258   2.092  11.604   9.457 -0.2378 -0.6074  0.7562
   17MOL0     N 2259   2.390  11.117   9.035 -0.7599 -1.4982 -0.0812
   17MOL0     N 2260   2.510  11.064   9.043  0.2835 -0.2925 -0.5854
   17MOL0     C 2261   1.978  10.372   8.645  0.0045  0.0983 -0.3147
   17MOL0     C 2262   1.851  10.382   8.696  0.0896  0.2115 -0.3440
   17MOL0     C 2263   1.583  10.629   8.986 -0.1083 -0.3139  0.2526
   17MOL0     C 2264   1.463  10.556   8.979  0.6870 -0.6402 -0.5493
   17MOL0     C 2265   1.355  10.577   9.065 -0.1859 -0.4869  1.2328
   17MOL0     C 2266   1.366  10.672   9.164  0.4320  1.5268 -0.4479
   17MOL0     O 2267   1.259  10.694   9.248  0.5562  0.2960 -0.3021
   17MOL0     C 2268   1.254  10.612   9.364  0.8408 -0.2248  0.4311
   17MOL0     C 2269   1.116  10.612   9.431 -0.1473  0.4503 -0.1012
   17MOL0     C 2270   1.131  10.542   9.573 -0.1736 -0.2632  0.3187
   17MOL0     C 2271   0.989  10.562   9.641  0.7242  0.6400 -0.0341
   17MOL0     C 2272   0.999  10.513   9.774 -0.9703 -0.2119  0.2586
   17MOL0     C 2273   0.999  10.459   9.883  0.4795  0.0928  0.2347
   17MOL0     C 2274   1.484  10.749   9.172 -0.3214 -1.1950  0.9094
   17MOL0     C 2275   1.595  10.733   9.084 -0.4676  0.1837 -0.0336
   17MOL0     C 2276   1.716  10.814   9.102  1.1067  0.8246 -0.4221
   17MOL0     H 2277   1.929  10.535   8.991  1.7041 -0.6259  0.7910
   17MOL0     H 2278   2.150  10.502   8.906  0.2598  2.0291 -2.0149
   17MOL0     H 2279   2.416  10.345   8.674 -0.3038 -2.9727  2.5574
   17MOL0     H 2280   2.338  10.393   8.825 -1.4411  1.9655  0.3483
   17MOL0     H 2281   2.374  10.557   8.575 -1.2490 -1.2998  0.3217
   17MOL0     H 2282   2.303  10.624   8.725 -3.3910 -1.8991  0.2908
   17MOL0     H 2283   2.512  10.583   8.838 -4.3925 -0.0901  0.0649
   17MOL0     H 2284   2.588  10.511   8.692 -0.0876 -0.0780 -0.2005
   17MOL0     H 2285   2.619  10.719   8.599  0.9651  1.1947  0.7992
   17MOL0     H 2286   2.468  10.788   8.664 -0.2768 -0.8732 -3.8135
   17MOL0     H 2287   2.743  10.747   8.779  1.1452  0.3248 -1.9337
   17MOL0     H 2288   2.594  10.801   8.875 -1.1761 -0.9325 -0.0947
   17MOL0     H 2289   2.737  10.913   8.617 -0.1335  2.2972 -0.2162
   17MOL0     H 2290   2.603  11.003   8.703  0.8004  1.6682  3.8755
   17MOL0     H 2291   2.836  11.076   8.721  0.3680  0.5893  0.5824
   17MOL0     H 2292   2.862  10.931   8.826 -2.6656 -1.4143  2.1327
   17MOL0     H 2293   2.750  10.999   9.010  1.5732 -2.7269 -1.7278
   17MOL0     H 2294   2.791  11.162   8.938  1.2119 -1.0773 -1.2265
   17MOL0     H 2295   2.542  11.239   8.768  0.7047 -0.0867  0.0658
   17MOL0     H 2296   2.201  11.196   8.900  0.7949 -0.6059  0.5826
   17MOL0     H 2297   2.275  11.261   8.745  1.2324  0.1827 -0.2564
   17MOL0     H 2298   2.319  11.468   8.880 -1.7008  2.2171  1.6301
   17MOL0     H 2299   2.161  11.435   8.862  3.3873  2.4154 -2.3472
   17MOL0     H 2300   2.220  11.293   9.101 -1.8466  0.1904  0.5644
   17MOL0     H 2301   2.348  11.432   9.097 -1.6841  2.1887  2.2710
   17MOL0     H 2302   2.127  11.571   9.045 -0.7155  1.7867  0.9413
   17MOL0     H 2303   2.037  11.430   9.093  0.0397  0.1860 -0.4299
   17MOL0     H 2304   1.885  11.559   9.192 -1.4030 -0.2161  0.9741
   17MOL0     H 2305   1.671  11.647   9.235  0.4304 -1.4448 -0.4096
   17MOL0     H 2306   1.648  11.754   9.371  2.3966  1.0106 -2.2353
   17MOL0     H 2307   1.608  11.577   9.381  0.2115  0.3215 -0.2642
   17MOL0     H 2308   1.638  11.958   9.624  0.0371  1.1786  1.0258
   17MOL0     H 2309   1.456  12.038   9.746  1.1548 -0.2340 -1.6536
   17MOL0     H 2310   1.452  12.126  10.131  1.1813 -0.8077 -0.5473
   17MOL0     H 2311   1.413  12.172   9.963  1.0245  0.7549  1.1412
   17MOL0     H 2312   1.213  12.040  10.154 -0.9183  1.5709  1.1059
   17MOL0     H 2313   1.242  12.216  10.157  1.9561 -0.0367  1.2023
   17MOL0     H 2314   1.135  12.043   9.932  0.9318  0.1795 -0.1006
   17MOL0     H 2315   1.183  12.198   9.892  2.7426 -1.7680 -0.1679
   17MOL0     H 2316   0.999  12.259  10.072  1.4521  0.1315 -1.4199
   17MOL0     H 2317   0.971  12.080  10.073  0.1224  1.2071  0.9896
   17MOL0     H 2318   0.959  12.242   9.812 -2.4452  1.0426 -0.6037
   17MOL0     H 2319   0.934  12.064   9.847  2.0331 -0.3356  2.2503
   17MOL0     H 2320   0.786  12.304   9.968  3.1230  0.6105 -0.5189
   17MOL0     H 2321   0.751  12.139  10.004 -0.8679 -1.2404 -1.1807
   17MOL0     H 2322   0.581  12.164   9.830 -0.9068 -1.3577 -2.4766
   17MOL0     H 2323   0.713  12.135   9.721  1.9864 -1.6237  2.3672
   17MOL0     H 2324   0.749  12.407   9.779  1.4110  0.8206 -2.5957
   17MOL0     H 2325   0.565  12.366   9.802 -0.0548  2.5005 -1.3708
   17MOL0     H 2326   1.579  11.810  10.089  1.3646 -2.0482 -1.6813
   17MOL0     H 2327   1.758  11.731   9.957  0.1059 -0.1078 -0.8123
   17MOL0     H 2328   2.046  11.697   9.635 -1.2548  2.1628  0.0490
   17MOL0     H 2329   2.197  11.597   9.481 -0.3507 -0.9301  1.1599
   17MOL0     H 2330   1.989  10.306   8.560  1.9084 -3.3003  2.3326
   17MOL0     H 2331   1.762  10.346   8.645 -2.9995  2.6875  2.8233
   17MOL0     H 2332   1.457  10.485   8.897  1.0511 -0.3374 -0.8411
   17MOL0     H 2333   1.259  10.531   9.048  0.3700 -1.1427 -0.4002
   17MOL0     H 2334   1.280  10.507   9.349  0.7500 -0.4854  1.9525
   17MOL0     H 2335   1.333  10.644   9.433  2.5084  0.3483 -1.6353
   17MOL0     H 2336   1.058  10.544   9.367 -1.0674  3.0130 -2.1533
   17MOL0     H 2337   1.074  10.713   9.438  3.0036  1.9179 -0.7904
   17MOL0     H 2338   1.169  10.440   9.581  1.8484  0.3703 -0.4598
   17MOL0     H 2339   1.220  10.596   9.607 -0.8001  1.0395 -0.0231
   17MOL0     H 2340   0.921  10.498   9.584  0.3365 -0.1535  1.2846
   17MOL0     H 2341   0.968  10.669   9.645  1.2625  0.7364  3.4849
   17MOL0     H 2342   1.000  10.408   9.977  2.0446 -0.8569 -0.2492
   17MOL0     H 2343   1.487  10.829   9.245 -0.3555  0.4714 -0.8422
   17MOL0     H 2344   1.805  10.751   9.101 -0.4519 -1.6240  1.7466
   17MOL0     H 2345   1.721  10.880   9.015 -1.2741  3.3985  1.2315
   17MOL0     H 2346   1.704  10.867   9.197 -0.5710  3.3131 -1.9203
   18MOL0     O 2347   8.666   2.245  10.694  0.0786 -0.4073  0.3043
   18MOL0     C 2348   8.550   2.289  10.670 -0.1232 -0.5439 -0.3704
   18MOL0     O 2349   8.460   2.251  10.568 -0.6815  0.1777 -0.3899
   18MOL0     C 2350   8.469   2.123  10.521 -0.1705 -1.2240 -0.2395
   18MOL0     C 2351   8.487   2.019  10.607 -0.4996  0.2803  0.5596
   18MOL0     C 2352   8.474   1.891  10.547  0.2710 -0.1539 -0.3976
   18MOL0     C 2353   8.442   1.861  10.416  0.3079 -0.3989 -0.8122
   18MOL0     O 2354   8.428   1.732  10.367 -0.2404 -0.4646  0.5184
   18MOL0     C 2355   8.303   1.703  10.309  0.9073  1.3744  1.0287
   18MOL0     C 2356   8.287   1.552  10.283  0.1336  1.0401 -1.2131
   18MOL0     C 2357   8.153   1.498  10.218 -0.7062  0.1240  0.0131
   18MOL0     C 2358   8.101   1.576  10.103 -0.0364  0.4369 -0.1810
   18MOL0     C 2359   7.962   1.522  10.069  0.2680 -0.0023 -0.1061
   18MOL0     C 2360   7.929   1.571   9.925  0.3523 -0.1263 -0.5822
   18MOL0     C 2361   7.787   1.513   9.889 -0.3479  1.3597  0.4190
   18MOL0     C 2362   7.780   1.465   9.740  0.3137  0.0388 -0.0911
   18MOL0     N 2363   7.649   1.404   9.699  0.2731  0.1875 -0.1416
   18MOL0     C 2364   7.592   1.281   9.720 -0.2975  0.3966 -0.4695
   18MOL0     C 2365   7.466   1.276   9.670 -0.1730  0.8685 -0.3516
   18MOL0     C 2366   7.381   1.151   9.666  0.1404 -0.4704 -0.2704
   18MOL0     C 2367   7.455   1.033   9.608 -1.3561 -0.0066 -1.0295
   18MOL0     C 2368   7.472   1.030   9.460  0.2381 -0.6923  0.0095
   18MOL0     C 2369   7.547   1.134   9.395  0.4394 -0.1741 -0.3211
   18MOL0     O 2370   7.673   1.149   9.462 -0.6846  0.4868 -0.1360
   18MOL0     C 2371   7.791   1.180   9.397  0.2203  0.4359 -0.3232
   18MOL0     C 2372   7.902   1.196   9.479 -0.9667  1.5580 -0.6058
   18MOL0     C 2373   8.026   1.226   9.427  0.2726  0.0809 -0.5491
   18MOL0     C 2374   8.153   1.227   9.516 -0.6761  0.0056 -0.4682
   18MOL0     C 2375   8.031   1.253   9.288 -0.1358 -0.8030 -0.3273
   18MOL0     C 2376   8.165   1.300   9.243 -0.6339 -0.2854 -0.2138
   18MOL0     O 2377   8.221   1.205   9.172  0.2415  0.1911  0.4124
   18MOL0     C 2378   8.341   1.226   9.108  0.2402 -0.2279  0.4409
   18MOL0     C 2379   8.343   1.239   8.965  0.3044 -1.1152 -1.2163
   18MOL0     C 2380   8.459   1.232   8.904  0.0580  0.0899  0.4224
   18MOL0     C 2381   8.577   1.211   8.974 -0.3485 -0.3558  0.6304
   18MOL0     O 2382   8.694   1.193   8.913 -0.4369  0.6819 -0.5120
   18MOL0     C 2383   8.706   1.136   8.782 -0.3617 -0.5664  0.3424
   18MOL0     C 2384   8.851   1.092   8.761  0.3611 -0.4237 -0.9906
   18MOL0     C 2385   8.885   0.984   8.867  0.1949  0.0512 -0.7761
   18MOL0     C 2386   9.028   0.941   8.849  0.1977 -0.2908 -0.4535
   18MOL0     C 2387   9.068   0.826   8.936 -0.2486 -0.0178 -0.1692
   18MOL0     C 2388   9.045   0.831   9.089 -0.6685  0.4635  0.5031
   18MOL0     C 2389   8.951   0.732   9.149  0.6782  0.3152  0.5109
   18MOL0     C 2390   9.022   0.622   9.222 -0.4764 -0.8335 -0.2575
   18MOL0    Cl 2391   8.913   0.499   9.289 -0.2401 -0.3801  0.3797
   18MOL0     C 2392   8.580   1.216   9.115 -0.2236  0.4690  0.0942
   18MOL0     C 2393   8.457   1.219   9.183  0.3183 -1.3281  0.0971
   18MOL0     O 2394   8.213   1.413   9.253 -0.5924 -0.2778  0.3673
   18MOL0     C 2395   7.923   1.228   9.206 -0.6432  0.7687  0.6898
   18MOL0     C 2396   7.800   1.189   9.259  0.3841  0.0455  0.2814
   18MOL0     N 2397   7.454   1.401   9.607 -0.4347 -0.2093 -0.5532
   18MOL0     N 2398   7.560   1.468   9.629  0.6818 -0.6900 -0.2970
   18MOL0     C 2399   8.423   1.975  10.337 -0.2986  0.7397 -0.4935
   18MOL0     C 2400   8.435   2.105  10.389 -0.8961 -1.0182 -0.6000
   18MOL0     C 2401   8.508   2.399  10.770  0.7194  0.1989  0.5282
   18MOL0     C 2402   8.548   2.377  10.905  0.1867 -1.1634  0.7382
   18MOL0     C 2403   8.502   2.466  11.004  0.7142 -0.1180 -0.8006
   18MOL0     C 2404   8.392   2.541  10.984  0.1096  0.3810  0.3208
   18MOL0     O 2405   8.335   2.595  11.101 -0.0981 -0.4454  0.3538
   18MOL0     C 2406   8.198   2.630  11.107  0.3355 -0.2255  0.8068
   18MOL0     C 2407   8.172   2.653  11.261  0.6401  0.6506 -0.3435
   18MOL0     C 2408   8.071   2.768  11.259 -0.2180 -0.7467 -0.5251
   18MOL0     C 2409   7.988   2.799  11.389  0.5276 -0.4166  0.1018
   18MOL0     C 2410   7.853   2.744  11.370  0.4162  0.7688  0.2290
   18MOL0     C 2411   7.743   2.692  11.348  0.2030 -0.5522  0.4338
   18MOL0     C 2412   8.338   2.558  10.853 -0.1890 -0.3216 -1.1807
   18MOL0     C 2413   8.405   2.491  10.745  0.6836 -0.3966 -0.0100
   18MOL0     C 2414   8.356   2.537  10.605 -0.6376  0.8640 -0.1715
   18MOL0     H 2415   8.481   2.024  10.715 -5.9815 -3.0809  0.7950
   18MOL0     H 2416   8.462   1.807  10.614 -1.3973 -0.8894 -1.5514
   18MOL0     H 2417   8.286   1.765  10.220 -2.2687 -0.2082  0.3823
   18MOL0     H 2418   8.222   1.727  10.379 -1.9301  2.1909 -2.2454
   18MOL0     H 2419   8.369   1.520  10.218  1.4570  0.4104  0.6736
   18MOL0     H 2420   8.321   1.505  10.375  0.7321  1.2596 -1.3219
   18MOL0     H 2421   8.165   1.393  10.188  1.4816  0.2198  0.3631
   18MOL0     H 2422   8.086   1.510  10.303  2.3195  1.2813  2.4251
   18MOL0     H 2423   8.091   1.683  10.121 -0.3197  0.6092 -1.2817
   18MOL0     H 2424   8.176   1.559  10.025  0.3743 -0.3343  0.3650
   18MOL0     H 2425   7.893   1.569  10.139 -0.9891 -4.4843  1.9610
   18MOL0     H 2426   7.952   1.414  10.076  4.7655 -0.6480 -0.5255
   18MOL0     H 2427   7.937   1.680   9.923 -0.0154 -0.0322  1.0450
   18MOL0     H 2428   8.003   1.522   9.862  0.3115  0.8227 -1.3984
   18MOL0     H 2429   7.713   1.594   9.893 -2.6162 -0.5361 -0.9569
   18MOL0     H 2430   7.761   1.429   9.953 -2.1489  0.8888 -0.8361
   18MOL0     H 2431   7.797   1.544   9.666 -1.6441 -0.0494 -0.7076
   18MOL0     H 2432   7.850   1.383   9.723  1.5569  1.1222 -0.3199
   18MOL0     H 2433   7.640   1.205   9.781  0.0209 -0.2272 -1.4772
   18MOL0     H 2434   7.287   1.160   9.611 -1.8933 -0.1581  2.9793
   18MOL0     H 2435   7.354   1.123   9.768 -2.5822 -1.0635 -1.0782
   18MOL0     H 2436   7.558   1.034   9.646 -1.0142 -1.3741 -1.8755
   18MOL0     H 2437   7.412   0.939   9.644  0.2317  0.2644  1.9197
   18MOL0     H 2438   7.517   0.931   9.446 -1.1064 -1.0579 -2.0553
   18MOL0     H 2439   7.375   1.035   9.411  1.1163  1.0120 -1.6832
   18MOL0     H 2440   7.549   1.122   9.286 -0.6224 -2.8684 -0.0990
   18MOL0     H 2441   7.488   1.226   9.397 -2.6107 -1.6387 -4.9152
   18MOL0     H 2442   7.894   1.191   9.587  2.7894 -0.6736 -0.2476
   18MOL0     H 2443   8.202   1.130   9.524  2.5991  1.4697 -0.8623
   18MOL0     H 2444   8.129   1.246   9.621 -1.2472  0.9429 -0.7522
   18MOL0     H 2445   8.231   1.298   9.485 -0.0242 -0.5986 -0.2405
   18MOL0     H 2446   8.252   1.240   8.906 -0.3909  0.3278 -0.1657
   18MOL0     H 2447   8.463   1.222   8.796  0.4714  1.3335  0.2991
   18MOL0     H 2448   8.651   1.042   8.768 -0.9055  0.0212 -1.9084
   18MOL0     H 2449   8.696   1.212   8.704  0.2416  1.2088  1.9319
   18MOL0     H 2450   8.870   1.039   8.667  0.1435 -1.5106 -0.4370
   18MOL0     H 2451   8.920   1.177   8.763 -0.1875  0.0214 -0.6951
   18MOL0     H 2452   8.828   0.892   8.852 -0.8957  0.0759  2.4351
   18MOL0     H 2453   8.871   1.019   8.970  3.0413  3.3008 -1.3326
   18MOL0     H 2454   9.091   1.023   8.886 -0.6302 -0.8597  2.4896
   18MOL0     H 2455   9.053   0.919   8.745 -0.5046  0.2777 -0.7548
   18MOL0     H 2456   9.024   0.734   8.898 -0.4984 -1.4814  3.2451
   18MOL0     H 2457   9.175   0.803   8.924 -0.6725 -2.8612  0.8146
   18MOL0     H 2458   9.007   0.931   9.113 -2.1321  0.1520 -0.3712
   18MOL0     H 2459   9.144   0.815   9.131  0.4657  1.8567 -1.4613
   18MOL0     H 2460   8.879   0.703   9.072  1.9408  0.8024 -0.9070
   18MOL0     H 2461   8.888   0.776   9.226  2.2341 -0.1992  2.1550
   18MOL0     H 2462   9.077   0.666   9.306 -0.0966  1.3926 -1.5927
   18MOL0     H 2463   9.085   0.563   9.155 -1.0919 -1.2832 -0.4440
   18MOL0     H 2464   8.674   1.207   9.168  0.0322 -0.0028 -0.4328
   18MOL0     H 2465   8.466   1.196   9.288  2.6987  0.0196  0.2567
   18MOL0     H 2466   7.934   1.239   9.098  1.7677  1.0548  0.9062
   18MOL0     H 2467   7.722   1.170   9.186 -0.5857  0.4245  1.1869
   18MOL0     H 2468   8.402   1.956  10.232  0.1485  0.5150 -0.5464
   18MOL0     H 2469   8.407   2.180  10.316 -0.5111  1.7416  1.8943
   18MOL0     H 2470   8.627   2.304  10.922  0.3273 -1.6614 -1.6947
   18MOL0     H 2471   8.545   2.459  11.103 -0.4123  2.0670 -0.0877
   18MOL0     H 2472   8.185   2.717  11.043 -4.5436 -0.7572  0.6975
   18MOL0     H 2473   8.121   2.562  11.069 -3.7812  3.6014  1.5749
   18MOL0     H 2474   8.263   2.681  11.315 -0.5366  0.3582  1.9035
   18MOL0     H 2475   8.124   2.567  11.308  1.1639  2.0831  3.0576
   18MOL0     H 2476   8.125   2.862  11.242 -0.5297 -0.7549 -1.6389
   18MOL0     H 2477   8.007   2.749  11.173 -0.2666 -2.4571 -0.1511
   18MOL0     H 2478   7.967   2.903  11.413 -1.0125 -1.4636  4.2942
   18MOL0     H 2479   8.049   2.767  11.474  5.7774  0.5077 -2.8996
   18MOL0     H 2480   7.669   2.632  11.299  1.4240 -0.8175 -1.1748
   18MOL0     H 2481   8.256   2.626  10.833 -1.0175 -0.1097  2.2606
   18MOL0     H 2482   8.357   2.646  10.596 -2.5804  0.9647  0.4197
   18MOL0     H 2483   8.436   2.515  10.534 -0.1551  5.0341 -1.1703
   18MOL0     H 2484   8.254   2.505  10.585 -1.0350  1.5420  0.7327
   19MOL0     O 2485   8.331   1.045  10.245  0.6374  0.2479 -0.1372
   19MOL0     C 2486   8.425   0.992  10.195  0.5469 -0.4088 -0.1204
   19MOL0     O 2487   8.537   0.974  10.266 -0.1233  0.0520  0.0281
   19MOL0     C 2488   8.528   0.995  10.396 -0.8588 -0.5961  0.0961
   19MOL0     C 2489   8.510   0.880  10.484  0.3515  0.2466 -0.1140
   19MOL0     C 2490   8.501   0.890  10.624 -0.3170  0.1177  1.4747
   19MOL0     C 2491   8.514   1.017  10.677 -0.4254  0.3866 -0.1809
   19MOL0     O 2492   8.493   1.009  10.814  0.0155  0.4360 -0.2984
   19MOL0     C 2493   8.588   1.098  10.883 -0.4034 -0.9287  0.6824
   19MOL0     C 2494   8.613   1.058  11.030  1.1515 -0.7415  0.3284
   19MOL0     C 2495   8.476   1.083  11.097  0.8267  0.5056  0.8632
   19MOL0     C 2496   8.438   1.236  11.118 -0.0000  0.8589  0.3312
   19MOL0     C 2497   8.316   1.244  11.206 -0.2962  0.1819  0.0467
   19MOL0     C 2498   8.257   1.388  11.196  0.1518  0.3519 -0.3841
   19MOL0     C 2499   8.283   1.468  11.324 -0.6193  0.5178  1.0383
   19MOL0     C 2500   8.270   1.614  11.290 -0.7006 -0.8628 -0.4386
   19MOL0     N 2501   8.327   1.682  11.402 -1.0032  0.5698 -0.3099
   19MOL0     C 2502   8.452   1.740  11.422 -0.2754  0.4046  0.1874
   19MOL0     C 2503   8.443   1.798  11.551  0.1021  0.9939 -0.5343
   19MOL0     C 2504   8.556   1.850  11.645  0.8124 -0.3450 -1.2357
   19MOL0     C 2505   8.630   1.967  11.583 -0.0531 -0.5552  0.7537
   19MOL0     C 2506   8.774   1.995  11.643 -0.1934 -0.7247 -0.8581
   19MOL0     C 2507   8.773   2.026  11.784 -0.3643 -0.9064 -0.7897
   19MOL0     O 2508   8.676   2.130  11.799 -0.5086 -1.4691 -0.4339
   19MOL0     C 2509   8.653   2.178  11.925 -0.3826 -0.3271 -0.2529
   19MOL0     C 2510   8.543   2.265  11.940 -0.1837 -0.8544  0.5428
   19MOL0     C 2511   8.504   2.321  12.057 -1.0161  0.5007  0.3078
   19MOL0     C 2512   8.390   2.415  12.062 -0.3121  0.8052  0.0164
   19MOL0     C 2513   8.579   2.294  12.175  0.5312 -1.5733  0.6081
   19MOL0     C 2514   8.539   2.345  12.320  0.3896  0.0104  1.0436
   19MOL0     O 2515   8.609   2.288  12.419  0.3380 -0.2823  0.5121
   19MOL0     C 2516   8.611   2.325  12.555 -0.7984 -0.8090 -0.5999
   19MOL0     C 2517   8.728   2.381  12.602 -0.8010  0.0201  0.4917
   19MOL0     C 2518   8.743   2.406  12.737  0.3663 -0.9353  0.4521
   19MOL0     C 2519   8.633   2.399  12.826  0.7195 -0.8575  0.0380
   19MOL0     O 2520   8.639   2.429  12.959 -0.4918 -0.6577  0.7208
   19MOL0     C 2521   8.716   2.353  13.058  0.4479 -0.1764 -0.2202
   19MOL0     C 2522   8.698   2.433  13.192 -0.0850  0.3261  1.2931
   19MOL0     C 2523   8.768   2.572  13.195 -1.2720 -0.0147 -0.1308
   19MOL0     C 2524   8.924   2.574  13.177 -0.5051 -0.2850 -1.0431
   19MOL0     C 2525   8.977   2.705  13.236  0.1337  1.0623  0.8379
   19MOL0     C 2526   9.128   2.728  13.216 -0.3686 -0.4810  0.2615
   19MOL0     C 2527   9.224   2.641  13.293 -0.3506  0.2615  0.1383
   19MOL0     C 2528   9.260   2.507  13.218  0.5102 -0.0173 -0.4464
   19MOL0    Cl 2529   9.253   2.495  13.039 -0.1691 -0.0898 -0.5687
   19MOL0     C 2530   8.512   2.339  12.778  0.1175  0.3957 -0.0801
   19MOL0     C 2531   8.502   2.300  12.642  0.1562 -0.1986  0.2062
   19MOL0     O 2532   8.457   2.439  12.335 -0.3189  0.6129 -0.0949
   19MOL0     C 2533   8.692   2.220  12.157  0.0774 -0.9966 -0.6581
   19MOL0     C 2534   8.741   2.168  12.034 -0.4335 -0.0858  0.4297
   19MOL0     N 2535   8.315   1.778  11.599  0.6853 -0.0912  0.1060
   19MOL0     N 2536   8.256   1.713  11.510  0.0436 -0.5823 -0.5764
   19MOL0     C 2537   8.508   1.132  10.596 -0.7439  1.1449 -0.2810
   19MOL0     C 2538   8.520   1.120  10.458 -0.0192 -1.1455  0.1885
   19MOL0     C 2539   8.421   0.950  10.054 -0.6012 -0.4374  0.1297
   19MOL0     C 2540   8.469   0.822  10.015  0.6014  0.3496 -0.7447
   19MOL0     C 2541   8.463   0.797   9.882 -1.2744  0.4251 -0.2287
   19MOL0     C 2542   8.443   0.888   9.779 -0.4675 -0.1777  0.4698
   19MOL0     O 2543   8.426   0.850   9.642 -0.5190 -0.1766 -0.8829
   19MOL0     C 2544   8.472   0.718   9.596  0.2460 -0.7355  0.0575
   19MOL0     C 2545   8.621   0.690   9.596 -0.8530 -0.3390 -0.4116
   19MOL0     C 2546   8.719   0.801   9.533 -0.7478 -0.1533  0.3061
   19MOL0     C 2547   8.664   0.878   9.414 -0.6223  0.4794  0.3021
   19MOL0     C 2548   8.616   0.795   9.304 -1.1035  1.4164 -0.2117
   19MOL0     C 2549   8.613   0.724   9.200  0.5022  0.4023 -0.0119
   19MOL0     C 2550   8.398   1.019   9.821 -0.3831  0.2947  1.0580
   19MOL0     C 2551   8.395   1.050   9.956 -0.3096 -1.2468 -0.7393
   19MOL0     C 2552   8.366   1.202   9.974  0.7959 -0.0358  0.0696
   19MOL0     H 2553   8.490   0.783  10.438 -0.6672  1.3335 -2.0756
   19MOL0     H 2554   8.494   0.798  10.681 -2.4036 -1.2676 -0.8180
   19MOL0     H 2555   8.561   1.203  10.867 -0.1744 -1.0635 -0.7158
   19MOL0     H 2556   8.687   1.094  10.836 -0.6889 -1.4666  0.1190
   19MOL0     H 2557   8.641   0.953  11.037  0.9251 -0.8282 -0.0307
   19MOL0     H 2558   8.687   1.120  11.081  0.6740  0.1377 -0.0197
   19MOL0     H 2559   8.393   1.024  11.059 -2.0046  1.2270  5.2116
   19MOL0     H 2560   8.484   1.043  11.198 -3.1208 -1.4476  0.5679
   19MOL0     H 2561   8.515   1.298  11.164  1.3981 -0.3318 -0.3280
   19MOL0     H 2562   8.422   1.278  11.018  2.3642  2.3114  0.4888
   19MOL0     H 2563   8.336   1.222  11.311  0.3173  1.0133  0.1167
   19MOL0     H 2564   8.236   1.174  11.180 -0.2618  0.2635 -0.2789
   19MOL0     H 2565   8.294   1.446  11.112  3.2797  0.8956  1.2388
   19MOL0     H 2566   8.148   1.381  11.210  0.5407 -1.2148  2.7786
   19MOL0     H 2567   8.380   1.426  11.355 -1.1099 -2.1525 -0.6698
   19MOL0     H 2568   8.202   1.433  11.388 -0.1836 -1.7446  0.4477
   19MOL0     H 2569   8.327   1.640  11.200 -0.3172  1.3385  0.3660
   19MOL0     H 2570   8.166   1.646  11.278 -0.4774 -0.0488 -0.2584
   19MOL0     H 2571   8.544   1.731  11.364  0.7455 -0.6398  1.8736
   19MOL0     H 2572   8.633   1.773  11.658 -2.0599 -3.0172  1.6738
   19MOL0     H 2573   8.516   1.883  11.741 -0.8729  0.2415 -2.0942
   19MOL0     H 2574   8.635   1.961  11.474 -1.1459  2.7081  0.4131
   19MOL0     H 2575   8.570   2.057  11.594  0.1237 -0.3664  0.2241
   19MOL0     H 2576   8.839   1.907  11.643 -0.9628 -1.3049 -1.2404
   19MOL0     H 2577   8.829   2.075  11.593 -0.8570  0.9075  0.9439
   19MOL0     H 2578   8.745   1.935  11.839  2.6031 -0.2371  2.1959
   19MOL0     H 2579   8.877   2.056  11.800  0.0873 -3.0697  0.8550
   19MOL0     H 2580   8.481   2.286  11.854 -1.6708  1.4543  2.0675
   19MOL0     H 2581   8.326   2.362  12.133 -0.6377  2.1272  0.7430
   19MOL0     H 2582   8.340   2.422  11.965  1.4716 -1.8694 -1.2246
   19MOL0     H 2583   8.424   2.516  12.087  0.4702  1.0092 -1.6704
   19MOL0     H 2584   8.816   2.380  12.539 -1.6128 -3.2959 -0.7879
   19MOL0     H 2585   8.830   2.455  12.779 -0.6369  1.5010 -0.1087
   19MOL0     H 2586   8.681   2.251  13.071 -2.9676  0.9314  0.3128
   19MOL0     H 2587   8.819   2.348  13.021 -0.1879 -1.1784 -1.9695
   19MOL0     H 2588   8.591   2.453  13.194  0.3777  3.0690  1.4285
   19MOL0     H 2589   8.722   2.373  13.281  1.9122  1.5159  1.6079
   19MOL0     H 2590   8.747   2.609  13.296 -0.3596 -0.9490  0.4243
   19MOL0     H 2591   8.732   2.644  13.121  2.4519  2.0400 -0.1874
   19MOL0     H 2592   8.947   2.564  13.071  3.1283  3.8268 -0.9272
   19MOL0     H 2593   8.970   2.495  13.238 -3.5791 -2.0960 -0.8572
   19MOL0     H 2594   8.932   2.794  13.190 -1.0927 -0.4388 -1.0530
   19MOL0     H 2595   8.958   2.692  13.343 -1.2962 -0.2462  0.4650
   19MOL0     H 2596   9.138   2.833  13.246  2.8333 -1.0592  1.5677
   19MOL0     H 2597   9.159   2.720  13.111 -0.3003 -1.4112  0.3480
   19MOL0     H 2598   9.190   2.630  13.397  1.0246  2.0956  0.8304
   19MOL0     H 2599   9.317   2.697  13.293 -1.3150  2.4350  5.5312
   19MOL0     H 2600   9.196   2.423  13.245  1.2984 -0.3889  0.3177
   19MOL0     H 2601   9.361   2.486  13.253  0.7211 -0.7882 -1.4795
   19MOL0     H 2602   8.427   2.332  12.845  1.6649  2.4941  2.2823
   19MOL0     H 2603   8.424   2.242  12.594  0.3364  0.2880 -0.6998
   19MOL0     H 2604   8.761   2.216  12.241 -1.4672  1.2964  0.8179
   19MOL0     H 2605   8.839   2.125  12.022  0.0809  0.3176  2.7042
   19MOL0     H 2606   8.519   1.225  10.651  0.8878  0.5687  0.4058
   19MOL0     H 2607   8.507   1.206  10.393  3.5402 -1.8479 -1.6755
   19MOL0     H 2608   8.487   0.750  10.094 -3.5825  1.8390  1.9064
   19MOL0     H 2609   8.497   0.695   9.868 -3.7856 -0.1454 -3.1252
   19MOL0     H 2610   8.416   0.644   9.653 -0.5482  0.0362  0.3046
   19MOL0     H 2611   8.440   0.709   9.492 -3.0151  1.0647  0.7501
   19MOL0     H 2612   8.641   0.592   9.552  0.9404  0.1537 -0.7606
   19MOL0     H 2613   8.650   0.678   9.701 -1.5955  0.4058 -0.1083
   19MOL0     H 2614   8.719   0.875   9.613  2.7323 -0.7676  1.0431
   19MOL0     H 2615   8.820   0.764   9.513 -0.1580  2.2375 -1.7536
   19MOL0     H 2616   8.754   0.929   9.379  0.1657 -2.1776 -1.9537
   19MOL0     H 2617   8.581   0.943   9.440 -4.8495 -1.7094 -5.5910
   19MOL0     H 2618   8.618   0.669   9.109  3.8578  0.9968 -0.3007
   19MOL0     H 2619   8.364   1.080   9.739 -1.2314 -3.2264 -1.4522
   19MOL0     H 2620   8.285   1.207  10.047 -3.2710 -1.4739 -3.9464
   19MOL0     H 2621   8.465   1.242   9.999  1.5072  1.1609 -4.0080
   19MOL0     H 2622   8.328   1.238   9.878 -1.3247 -2.0005  0.1074
   20MOL0     O 2623   7.727   6.658   6.003 -1.2299  0.4203 -0.0616
   20MOL0     C 2624   7.806   6.691   5.909 -0.2438 -0.6266 -0.5680
   20MOL0     O 2625   7.760   6.767   5.807  0.1387  0.4947  0.6450
   20MOL0     C 2626   7.628   6.794   5.792 -0.1846  0.5454 -0.5064
   20MOL0     C 2627   7.539   6.690   5.756  0.0588 -0.4747  0.2033
   20MOL0     C 2628   7.405   6.718   5.746 -0.1645 -0.0397  0.1871
   20MOL0     C 2629   7.356   6.847   5.774  0.5580  0.6102 -0.1784
   20MOL0     O 2630   7.222   6.876   5.779  0.6715  0.5550  0.6921
   20MOL0     C 2631   7.141   6.765   5.822  0.6968  0.0030 -0.3871
   20MOL0     C 2632   7.014   6.828   5.886  0.8000  0.0581  0.6336
   20MOL0     C 2633   6.925   6.738   5.977  0.5484 -0.1502  0.2182
   20MOL0     C 2634   6.825   6.668   5.890 -0.1386 -0.6352  0.0818
   20MOL0     C 2635   6.706   6.609   5.964  0.2690 -0.1417  1.2303
   20MOL0     C 2636   6.613   6.524   5.867  0.1914 -0.5833  0.2147
   20MOL0     C 2637   6.546   6.408   5.939 -0.4248  0.9064 -0.3780
   20MOL0     C 2638   6.427   6.349   5.865 -0.7182  0.0890 -0.5341
   20MOL0     N 2639   6.470   6.255   5.757 -0.3898  0.6975  0.0984
   20MOL0     C 2640   6.515   6.288   5.630  0.5038 -0.7475 -0.3977
   20MOL0     C 2641   6.529   6.172   5.563 -0.2099  0.0776  0.7658
   20MOL0     C 2642   6.601   6.173   5.436  0.2716  0.1669  0.3766
   20MOL0     C 2643   6.529   6.091   5.330 -0.4263  0.1243  0.3169
   20MOL0     C 2644   6.572   6.122   5.184  0.9496  0.5862  0.6253
   20MOL0     C 2645   6.574   5.986   5.096  0.3134  0.1770 -0.3565
   20MOL0     O 2646   6.577   6.031   4.953  0.0518 -0.0581  0.6680
   20MOL0     C 2647   6.681   5.966   4.893  0.1974 -0.5828 -0.5857
   20MOL0     C 2648   6.790   6.051   4.865  0.3155  0.3923 -1.0308
   20MOL0     C 2649   6.910   6.002   4.821 -0.7973  0.8580 -0.1487
   20MOL0     C 2650   7.012   6.110   4.788 -0.8777  0.2750 -0.0022
   20MOL0     C 2651   6.922   5.865   4.790  0.1402  0.3102 -1.0521
   20MOL0     C 2652   7.045   5.795   4.724  0.1017 -0.3568 -0.3024
   20MOL0     O 2653   7.031   5.664   4.688 -0.4818 -0.9469  0.3046
   20MOL0     C 2654   7.140   5.591   4.658 -1.4748 -0.9096 -1.4702
   20MOL0     C 2655   7.231   5.547   4.760 -0.1869  0.2618 -0.1927
   20MOL0     C 2656   7.321   5.439   4.737 -0.4161 -0.2994  0.1324
   20MOL0     C 2657   7.321   5.378   4.608  0.5249 -0.2850 -0.7002
   20MOL0     O 2658   7.424   5.295   4.569 -0.6102  0.0346 -0.7212
   20MOL0     C 2659   7.402   5.187   4.477  0.0890  0.1813  0.3217
   20MOL0     C 2660   7.513   5.079   4.476  0.0019  0.0731 -0.1180
   20MOL0     C 2661   7.534   5.002   4.615 -0.0655 -0.3418 -0.1925
   20MOL0     C 2662   7.585   5.093   4.726  0.0189  0.1335 -1.0504
   20MOL0     C 2663   7.593   5.032   4.870  1.1294 -0.6667 -0.5521
   20MOL0     C 2664   7.696   4.922   4.874 -0.0388  0.5437  0.4019
   20MOL0     C 2665   7.702   4.863   5.014 -0.8540 -0.8803 -0.1135
   20MOL0     C 2666   7.789   4.735   5.017  0.5613  1.1505  0.5070
   20MOL0    Cl 2667   7.960   4.791   4.982  0.3495 -0.2030 -0.0303
   20MOL0     C 2668   7.235   5.424   4.508 -0.0038  0.1827  0.2708
   20MOL0     C 2669   7.153   5.529   4.540 -0.3217 -0.4813  0.2298
   20MOL0     O 2670   7.145   5.858   4.703  0.1869  0.4897 -0.4356
   20MOL0     C 2671   6.813   5.786   4.833  0.7121  0.7099 -0.1660
   20MOL0     C 2672   6.687   5.833   4.875 -0.7380  0.6181 -0.5175
   20MOL0     N 2673   6.511   6.065   5.648  0.2326 -0.0930 -1.4457
   20MOL0     N 2674   6.473   6.117   5.763 -0.1121 -0.0999  0.4233
   20MOL0     C 2675   7.452   6.952   5.789 -0.2062 -0.9810  0.4788
   20MOL0     C 2676   7.595   6.928   5.810  1.1175  0.9033 -0.3108
   20MOL0     C 2677   7.945   6.660   5.914 -0.7726 -0.5643 -0.0531
   20MOL0     C 2678   8.036   6.745   5.860  0.5428 -0.7841 -0.5700
   20MOL0     C 2679   8.178   6.722   5.880  0.8593  0.8920 -0.5904
   20MOL0     C 2680   8.219   6.599   5.934 -0.6111  0.5153  0.5825
   20MOL0     O 2681   8.352   6.573   5.955  0.1927 -0.2000 -0.3407
   20MOL0     C 2682   8.403   6.440   5.959 -0.2442  0.3096 -0.0310
   20MOL0     C 2683   8.558   6.453   5.962 -0.1854  0.1396  0.0520
   20MOL0     C 2684   8.642   6.316   5.986 -0.8648 -0.8346  0.0620
   20MOL0     C 2685   8.644   6.259   6.134 -0.8124 -0.5769  0.2953
   20MOL0     C 2686   8.718   6.135   6.144 -0.4428  0.1455  0.7277
   20MOL0     C 2687   8.807   6.045   6.144  0.6323 -0.3327  0.2552
   20MOL0     C 2688   8.127   6.506   5.974 -0.1177  0.0107  0.1287
   20MOL0     C 2689   7.989   6.536   5.960  0.0610  0.3277  0.2700
   20MOL0     C 2690   7.903   6.399   5.989 -0.1395 -0.3009 -0.4181
   20MOL0     H 2691   7.572   6.586   5.753  1.2478 -0.1548  1.3000
   20MOL0     H 2692   7.340   6.635   5.720 -0.0167 -0.3024  0.6543
   20MOL0     H 2693   7.186   6.705   5.902  0.8207 -1.1790 -1.3050
   20MOL0     H 2694   7.115   6.697   5.739  1.6362 -0.6825 -0.1345
   20MOL0     H 2695   7.048   6.910   5.951 -0.4025  2.4654 -1.5764
   20MOL0     H 2696   6.953   6.882   5.813 -0.6858  0.1088  1.8591
   20MOL0     H 2697   6.973   6.665   6.043 -3.4934 -2.7649  0.6082
   20MOL0     H 2698   6.870   6.799   6.049 -0.4029 -1.7205  0.8730
   20MOL0     H 2699   6.777   6.739   5.821 -0.6963  0.4782  1.5600
   20MOL0     H 2700   6.874   6.582   5.844  0.6416  0.3789 -1.0740
   20MOL0     H 2701   6.650   6.698   5.992  0.5108  0.5923 -0.5293
   20MOL0     H 2702   6.741   6.554   6.052  2.9176 -0.1307  0.2464
   20MOL0     H 2703   6.535   6.592   5.833  1.1743  0.6354  0.3230
   20MOL0     H 2704   6.664   6.494   5.775  2.2845  0.1022  1.0800
   20MOL0     H 2705   6.506   6.443   6.034  0.7240  1.8142 -0.2160
   20MOL0     H 2706   6.617   6.327   5.953 -2.1866 -0.3302  2.2563
   20MOL0     H 2707   6.368   6.295   5.939 -0.2452  1.6032  1.0427
   20MOL0     H 2708   6.364   6.431   5.829 -1.7781  1.1492  3.2930
   20MOL0     H 2709   6.544   6.386   5.593  0.0171 -0.0915  0.9093
   20MOL0     H 2710   6.706   6.144   5.444  0.7814  0.9101 -2.5835
   20MOL0     H 2711   6.591   6.271   5.390 -1.5558 -0.7158 -1.2714
   20MOL0     H 2712   6.539   5.983   5.338 -0.0100 -0.2725 -3.4572
   20MOL0     H 2713   6.421   6.105   5.342 -0.0578  2.6774  1.3481
   20MOL0     H 2714   6.496   6.189   5.146 -0.4847  0.5721  3.2163
   20MOL0     H 2715   6.670   6.169   5.171  0.0623  1.8115 -2.1797
   20MOL0     H 2716   6.663   5.937   5.136 -1.3641 -1.3193  1.7448
   20MOL0     H 2717   6.490   5.926   5.131  1.3423 -0.5555  0.9510
   20MOL0     H 2718   6.785   6.159   4.871  0.9045  0.4840 -2.0118
   20MOL0     H 2719   7.104   6.071   4.832 -1.4817 -1.0270  0.1547
   20MOL0     H 2720   6.983   6.208   4.825  2.3753  1.7187 -0.9599
   20MOL0     H 2721   7.025   6.115   4.679  0.9512  1.0117  0.2176
   20MOL0     H 2722   7.218   5.593   4.858 -4.1465 -0.7669 -0.0542
   20MOL0     H 2723   7.391   5.396   4.808  1.0867 -1.0942 -1.7343
   20MOL0     H 2724   7.309   5.132   4.495  0.4189 -0.0729  1.3063
   20MOL0     H 2725   7.397   5.232   4.378 -2.8568 -0.1892  0.2305
   20MOL0     H 2726   7.487   5.003   4.402  0.0783 -2.4686  2.3205
   20MOL0     H 2727   7.608   5.123   4.445 -1.4281  2.7435 -1.0697
   20MOL0     H 2728   7.601   4.916   4.606  0.8564  0.4714 -1.2970
   20MOL0     H 2729   7.444   4.947   4.646 -0.3297  0.5540  0.6986
   20MOL0     H 2730   7.528   5.186   4.738 -0.4233  0.5449 -5.0127
   20MOL0     H 2731   7.681   5.131   4.690 -0.1181  3.4523  1.5806
   20MOL0     H 2732   7.618   5.112   4.941  0.7349  0.5907 -1.7896
   20MOL0     H 2733   7.497   4.992   4.905  1.2199  0.1735  0.7378
   20MOL0     H 2734   7.791   4.957   4.833 -0.4986  0.3389 -0.8671
   20MOL0     H 2735   7.663   4.842   4.807  0.3789  1.7917 -1.3573
   20MOL0     H 2736   7.603   4.839   5.055  0.5007 -2.7670  2.2718
   20MOL0     H 2737   7.730   4.943   5.082 -0.0514 -1.9667  0.8637
   20MOL0     H 2738   7.753   4.661   4.945  2.9071  0.1011  0.3536
   20MOL0     H 2739   7.791   4.685   5.114 -1.1695 -2.9510 -1.3175
   20MOL0     H 2740   7.237   5.395   4.403  1.2737 -0.4477  0.4570
   20MOL0     H 2741   7.078   5.559   4.467 -1.7480  0.6346  2.0595
   20MOL0     H 2742   6.816   5.679   4.820  1.9761  0.3251  2.5068
   20MOL0     H 2743   6.604   5.764   4.888 -0.9020  0.2428 -2.9699
   20MOL0     H 2744   7.417   7.055   5.792  0.3321 -0.7079 -1.2517
   20MOL0     H 2745   7.657   7.016   5.824  2.8894 -0.0678 -1.7117
   20MOL0     H 2746   8.010   6.837   5.810 -0.5537 -0.2335  0.9667
   20MOL0     H 2747   8.241   6.805   5.853 -0.8354  2.1715 -0.7732
   20MOL0     H 2748   8.369   6.391   6.051 -1.8853 -1.1120 -1.3282
   20MOL0     H 2749   8.361   6.369   5.887 -2.9230 -1.1709  2.7400
   20MOL0     H 2750   8.580   6.530   6.036 -5.4845 -0.2562  2.5713
   20MOL0     H 2751   8.581   6.484   5.860 -0.4693 -1.2490 -0.4618
   20MOL0     H 2752   8.604   6.231   5.929  2.3480 -2.4601  0.1049
   20MOL0     H 2753   8.745   6.337   5.954 -0.5761 -2.2472 -0.0170
   20MOL0     H 2754   8.539   6.231   6.152 -0.5481 -0.5383  2.0647
   20MOL0     H 2755   8.681   6.331   6.208 -2.2962 -1.7743  2.3061
   20MOL0     H 2756   8.900   5.992   6.155  0.6110 -0.3460  0.3739
   20MOL0     H 2757   8.166   6.410   6.004  0.4577  1.0893  3.0842
   20MOL0     H 2758   7.954   6.324   6.050 -1.7211 -0.1490  1.1589
   20MOL0     H 2759   7.806   6.411   6.040 -1.0671 -1.6581 -1.7786
   20MOL0     H 2760   7.884   6.348   5.894  1.2507 -1.8740  0.1035
   21MOL0     O 2761   7.109   4.380   5.123  0.2247  0.2391  0.3957
   21MOL0     C 2762   7.012   4.306   5.136  0.5227 -0.0313 -0.0906
   21MOL0     O 2763   6.930   4.293   5.250  0.2501 -0.3470 -0.0651
   21MOL0     C 2764   6.963   4.359   5.360 -0.2640  0.2013  0.0635
   21MOL0     C 2765   7.053   4.298   5.439 -0.6402  0.3819 -1.0328
   21MOL0     C 2766   7.102   4.368   5.546 -0.6303 -0.4505 -0.2146
   21MOL0     C 2767   7.079   4.504   5.569 -0.6122  0.1521  0.1731
   21MOL0     O 2768   7.143   4.573   5.674 -0.2212 -0.0451 -0.3640
   21MOL0     C 2769   7.150   4.713   5.691  0.3838  0.3123  0.1637
   21MOL0     C 2770   7.201   4.738   5.835 -0.1627  0.3302  0.6557
   21MOL0     C 2771   7.182   4.886   5.873 -0.1780  1.0839  0.5872
   21MOL0     C 2772   7.223   4.940   6.005  0.4941 -0.2856 -0.2695
   21MOL0     C 2773   7.181   4.840   6.115  0.8387 -0.7625  0.2231
   21MOL0     C 2774   7.027   4.825   6.133 -0.0647 -0.8489 -0.2502
   21MOL0     C 2775   6.952   4.942   6.188  0.4662  0.2968 -0.1930
   21MOL0     C 2776   6.985   4.990   6.333 -0.8581  0.5038 -1.0841
   21MOL0     N 2777   6.959   5.119   6.383  0.9305  0.0333  0.7518
   21MOL0     C 2778   6.853   5.198   6.354  0.4442 -0.3341  0.1929
   21MOL0     C 2779   6.866   5.314   6.428  0.1199  0.6338 -0.1425
   21MOL0     C 2780   6.766   5.429   6.428 -0.8307 -0.6428  0.4005
   21MOL0     C 2781   6.695   5.468   6.293  0.7319 -0.7241  0.5383
   21MOL0     C 2782   6.577   5.566   6.307  0.5671  0.4419  0.1145
   21MOL0     C 2783   6.446   5.492   6.344 -0.0957  0.3927  0.4493
   21MOL0     O 2784   6.468   5.438   6.474  0.4409  0.7144 -0.6550
   21MOL0     C 2785   6.390   5.335   6.509  1.2132  0.6560  0.3473
   21MOL0     C 2786   6.313   5.258   6.413  0.7784 -0.7180  0.2653
   21MOL0     C 2787   6.237   5.148   6.456 -0.5068  1.2213 -0.1197
   21MOL0     C 2788   6.148   5.070   6.357 -0.8689 -0.5241  0.2433
   21MOL0     C 2789   6.231   5.121   6.600  0.9170  0.5016  0.4631
   21MOL0     C 2790   6.145   5.014   6.660 -0.4462 -1.1217  0.8030
   21MOL0     O 2791   6.173   4.987   6.788 -0.0902  0.4754  0.7996
   21MOL0     C 2792   6.086   4.912   6.876 -0.5133  1.1645  0.5240
   21MOL0     C 2793   5.959   4.847   6.837  0.0795 -1.1279 -0.6430
   21MOL0     C 2794   5.916   4.745   6.924 -0.2685  0.7491  0.1986
   21MOL0     C 2795   5.984   4.700   7.033 -0.2847  0.7904 -0.2449
   21MOL0     O 2796   5.955   4.584   7.101 -0.7080  0.6368  0.8461
   21MOL0     C 2797   5.839   4.589   7.181  0.5869  0.6324 -0.2143
   21MOL0     C 2798   5.866   4.549   7.322  0.4811 -0.7123 -0.1337
   21MOL0     C 2799   5.742   4.496   7.388  0.7896  1.3475  0.7745
   21MOL0     C 2800   5.759   4.442   7.524  0.2512  0.2051 -1.2034
   21MOL0     C 2801   5.825   4.304   7.544  0.6030  0.1103 -0.3691
   21MOL0     C 2802   5.901   4.285   7.676 -0.8191  0.4984  0.0233
   21MOL0     C 2803   5.947   4.139   7.671  0.3752  0.0847  0.7924
   21MOL0     C 2804   6.046   4.108   7.782  0.6910 -0.5492  0.0292
   21MOL0    Cl 2805   6.203   4.155   7.719 -0.2293 -0.3109 -0.0298
   21MOL0     C 2806   6.092   4.778   7.080 -0.3008  0.2671 -0.2342
   21MOL0     C 2807   6.147   4.881   7.004  0.2240  0.2310  0.6141
   21MOL0     O 2808   6.050   4.969   6.600 -0.3847 -0.2893  0.0715
   21MOL0     C 2809   6.308   5.200   6.688 -0.4515 -0.3130 -0.4142
   21MOL0     C 2810   6.388   5.304   6.642 -0.2727  0.3829 -0.7591
   21MOL0     N 2811   6.974   5.298   6.509  0.9641 -0.0629  0.0164
   21MOL0     N 2812   7.027   5.182   6.478  0.1441  0.5099  0.0680
   21MOL0     C 2813   6.970   4.555   5.496 -0.5902  0.4470  0.0044
   21MOL0     C 2814   6.921   4.492   5.386 -0.6735 -0.0787 -0.5099
   21MOL0     C 2815   6.998   4.211   5.028 -0.3945  0.0373  0.9730
   21MOL0     C 2816   7.068   4.236   4.907  0.4759 -0.6017 -0.9062
   21MOL0     C 2817   7.039   4.156   4.794 -0.4588  0.2049 -0.2961
   21MOL0     C 2818   6.956   4.035   4.799 -0.1218  0.0891  0.8576
   21MOL0     O 2819   6.981   3.949   4.696  0.2970 -0.1039 -0.3281
   21MOL0     C 2820   6.953   3.806   4.721 -0.1647  0.1399  0.3595
   21MOL0     C 2821   6.944   3.730   4.587  0.6063 -0.6802  0.0364
   21MOL0     C 2822   6.842   3.805   4.494 -0.1174  1.3070  1.2766
   21MOL0     C 2823   6.783   3.693   4.398 -0.0682 -0.0729 -0.3969
   21MOL0     C 2824   6.895   3.613   4.339  0.0943  0.0871 -0.3377
   21MOL0     C 2825   6.992   3.558   4.288  0.2530  0.7845 -0.2379
   21MOL0     C 2826   6.893   4.005   4.918 -1.3369  0.9125  0.8759
   21MOL0     C 2827   6.910   4.086   5.028  0.6600 -0.6361  0.5002
   21MOL0     C 2828   6.832   4.048   5.152 -0.9681  0.2091 -0.5150
   21MOL0     H 2829   7.083   4.197   5.414 -0.1299  0.6195 -1.4074
   21MOL0     H 2830   7.165   4.311   5.613  1.9542  3.5807  1.1495
   21MOL0     H 2831   7.047   4.749   5.699  0.4784  0.1961  2.6705
   21MOL0     H 2832   7.206   4.773   5.619 -0.9391  0.2097 -0.9868
   21MOL0     H 2833   7.150   4.666   5.900 -1.6614  1.2466  0.5387
   21MOL0     H 2834   7.307   4.712   5.846  0.1495  1.6197  0.8531
   21MOL0     H 2835   7.241   4.940   5.799  0.3884  0.5399  0.6295
   21MOL0     H 2836   7.077   4.912   5.855 -1.3659 -2.4638  1.4320
   21MOL0     H 2837   7.332   4.939   6.011  0.6599  3.5907  0.2032
   21MOL0     H 2838   7.183   5.041   6.021  0.2693 -0.4214  0.0284
   21MOL0     H 2839   7.226   4.874   6.209 -0.9250  1.0094  0.4956
   21MOL0     H 2840   7.232   4.745   6.103 -0.0231 -1.1256 -0.6729
   21MOL0     H 2841   6.971   4.780   6.051 -0.6200  0.4064 -0.5846
   21MOL0     H 2842   7.014   4.749   6.211  1.8332  1.3378  2.4133
   21MOL0     H 2843   6.843   4.926   6.191  0.4139  0.6318  2.9172
   21MOL0     H 2844   6.973   5.025   6.120  1.3102 -1.0869 -1.6819
   21MOL0     H 2845   6.930   4.918   6.393 -0.2639 -1.8767 -3.2082
   21MOL0     H 2846   7.089   4.967   6.357 -1.2745 -0.3092  0.0633
   21MOL0     H 2847   6.772   5.184   6.282  1.6254 -0.2176 -1.1982
   21MOL0     H 2848   6.813   5.517   6.473  1.3501 -1.2163 -0.6175
   21MOL0     H 2849   6.695   5.400   6.505  1.8487 -0.7074  3.0294
   21MOL0     H 2850   6.764   5.521   6.227  0.1309 -2.2158 -1.3772
   21MOL0     H 2851   6.672   5.370   6.249  0.3811  0.1686 -1.3561
   21MOL0     H 2852   6.607   5.634   6.387 -0.7637  0.3864  0.6832
   21MOL0     H 2853   6.559   5.628   6.218 -2.3345  0.3640  0.5475
   21MOL0     H 2854   6.358   5.557   6.347 -0.5940 -0.2397  4.3193
   21MOL0     H 2855   6.437   5.421   6.261 -0.0196  1.4478 -0.5003
   21MOL0     H 2856   6.323   5.277   6.307 -0.7599  1.1363  0.3987
   21MOL0     H 2857   6.172   5.104   6.255 -0.7908  0.4441  0.5719
   21MOL0     H 2858   6.053   5.109   6.392 -2.3626 -1.2354 -2.7114
   21MOL0     H 2859   6.148   4.961   6.357 -1.5210 -0.5387  1.6967
   21MOL0     H 2860   5.908   4.879   6.747  1.9492  3.9302 -0.2446
   21MOL0     H 2861   5.838   4.681   6.883  0.9895  1.2807 -3.4424
   21MOL0     H 2862   5.796   4.689   7.180  0.0477  0.4047 -1.6259
   21MOL0     H 2863   5.762   4.521   7.142 -0.6289  2.6841 -1.5541
   21MOL0     H 2864   5.945   4.475   7.330  0.4163 -0.6888  0.9879
   21MOL0     H 2865   5.894   4.634   7.386  1.5240 -0.9713 -0.2432
   21MOL0     H 2866   5.713   4.407   7.331 -1.1210 -0.1604  3.8687
   21MOL0     H 2867   5.658   4.565   7.399 -0.7356 -0.5647  1.8858
   21MOL0     H 2868   5.668   4.439   7.585  1.2149 -0.5951  0.2742
   21MOL0     H 2869   5.827   4.517   7.565  1.8551 -1.6831 -0.1892
   21MOL0     H 2870   5.746   4.228   7.537  0.0765  0.7722 -2.5844
   21MOL0     H 2871   5.900   4.305   7.464  2.1597  1.6807  1.0265
   21MOL0     H 2872   5.828   4.302   7.756 -2.8312 -0.1175 -1.5701
   21MOL0     H 2873   5.988   4.351   7.685 -1.4362  1.0872  2.7575
   21MOL0     H 2874   5.979   4.098   7.574  2.0608  0.4577  1.1713
   21MOL0     H 2875   5.864   4.078   7.708  1.9444 -1.1020  2.5466
   21MOL0     H 2876   6.042   4.003   7.812  2.0497 -0.8088 -0.6360
   21MOL0     H 2877   6.027   4.168   7.872  2.3770 -0.1858  0.1799
   21MOL0     H 2878   6.129   4.743   7.176  0.9718  0.4266 -0.6485
   21MOL0     H 2879   6.246   4.913   7.036 -0.3750  3.4404 -0.4078
   21MOL0     H 2880   6.311   5.166   6.791 -1.6575 -1.6146 -0.7691
   21MOL0     H 2881   6.452   5.365   6.705  0.0019 -1.3794  0.7569
   21MOL0     H 2882   6.933   4.653   5.527 -3.3410 -0.8921  1.3278
   21MOL0     H 2883   6.863   4.555   5.320  2.0546  0.4134 -2.5759
   21MOL0     H 2884   7.127   4.326   4.891 -1.1938  0.4131 -1.5619
   21MOL0     H 2885   7.075   4.180   4.695 -1.3550  1.0241 -0.4360
   21MOL0     H 2886   7.038   3.760   4.771 -1.2001 -1.7296  0.4694
   21MOL0     H 2887   6.859   3.796   4.777 -1.2160 -1.5472 -1.5580
   21MOL0     H 2888   6.926   3.624   4.609  0.9567 -0.2878  2.5271
   21MOL0     H 2889   7.044   3.736   4.543  1.1678  2.4916  1.5040
   21MOL0     H 2890   6.758   3.853   4.545 -2.2586  0.6431 -1.3579
   21MOL0     H 2891   6.900   3.873   4.432  2.9509  0.6825  3.2709
   21MOL0     H 2892   6.720   3.731   4.317 -1.3246 -2.8645 -0.8688
   21MOL0     H 2893   6.714   3.625   4.450  1.3159 -1.0841  0.1810
   21MOL0     H 2894   7.085   3.527   4.244  1.0167  1.4416  0.8545
   21MOL0     H 2895   6.831   3.916   4.925  1.7668 -1.8079 -2.4476
   21MOL0     H 2896   6.749   4.112   5.183 -2.7646 -1.3146 -1.9551
   21MOL0     H 2897   6.784   3.950   5.154 -4.1878  1.5877  2.9418
   21MOL0     H 2898   6.904   4.045   5.234 -0.2398  1.3900 -1.0875
   22MOL0     O 2899   1.844  10.104   9.825 -0.4202 -0.1592  0.0172
   22MOL0     C 2900   1.870  10.219   9.846  0.2222 -0.9886  0.4388
   22MOL0     O 2901   1.957  10.287   9.765 -0.3820  0.9928  0.1322
   22MOL0     C 2902   2.057  10.222   9.693 -0.5662 -0.2201  0.7770
   22MOL0     C 2903   2.192  10.246   9.718  0.2001  0.1829  0.9682
   22MOL0     C 2904   2.289  10.213   9.617 -1.0272 -0.2590 -0.4579
   22MOL0     C 2905   2.247  10.148   9.494  0.2847  0.2466  0.2623
   22MOL0     O 2906   2.332  10.138   9.388 -1.0554 -0.0337  0.1324
   22MOL0     C 2907   2.436  10.040   9.413  1.0618  0.4833 -0.5112
   22MOL0     C 2908   2.425   9.927   9.306  1.0260 -0.3054  0.4632
   22MOL0     C 2909   2.557   9.861   9.275  0.2269  0.0475  0.6335
   22MOL0     C 2910   2.554   9.750   9.170  0.7592 -0.3496  0.2670
   22MOL0     C 2911   2.677   9.711   9.092 -0.3030 -0.0306 -0.0158
   22MOL0     C 2912   2.663   9.603   8.986 -0.2638  0.9585  0.7785
   22MOL0     C 2913   2.801   9.545   8.934 -0.7794 -0.4404  0.6211
   22MOL0     C 2914   2.784   9.419   8.859  0.8526 -1.0826 -1.3436
   22MOL0     N 2915   2.913   9.362   8.841 -0.0809 -0.5624 -0.6351
   22MOL0     C 2916   2.965   9.264   8.927 -0.5533  0.3315  0.7787
   22MOL0     C 2917   3.072   9.222   8.845  0.8327 -0.4001 -0.5041
   22MOL0     C 2918   3.180   9.122   8.881  0.7411 -0.6364 -0.1161
   22MOL0     C 2919   3.313   9.163   8.820 -0.5058  0.3171  0.2758
   22MOL0     C 2920   3.381   9.032   8.771 -0.4867  0.3998 -0.1868
   22MOL0     C 2921   3.327   8.986   8.623 -1.1758  0.0389 -0.3073
   22MOL0     O 2922   3.349   9.100   8.533  0.5608  0.6558 -0.1562
   22MOL0     C 2923   3.302   9.065   8.403  0.3121  0.9783 -0.4335
   22MOL0     C 2924   3.268   8.922   8.362  0.0953 -0.0601  0.0395
   22MOL0     C 2925   3.222   8.890   8.237 -0.6493 -0.2214  0.6544
   22MOL0     C 2926   3.187   8.745   8.202 -0.4740  0.7697  0.6655
   22MOL0     C 2927   3.215   8.996   8.135 -0.0617 -0.2276  0.2918
   22MOL0     C 2928   3.163   8.987   7.992  0.0422  0.2739  0.0086
   22MOL0     O 2929   3.154   8.866   7.936  0.7488  0.2194  0.5060
   22MOL0     C 2930   3.089   8.846   7.808  0.3829  0.0936  1.0959
   22MOL0     C 2931   3.046   8.719   7.779 -0.2412  0.1814 -0.2577
   22MOL0     C 2932   3.001   8.674   7.650  0.2294 -0.1256  0.0602
   22MOL0     C 2933   2.982   8.774   7.556  0.1685  0.3593 -0.8226
   22MOL0     O 2934   2.911   8.738   7.448 -0.7292 -0.6512  0.6014
   22MOL0     C 2935   2.994   8.679   7.351  0.8521  0.3272  0.1818
   22MOL0     C 2936   2.984   8.742   7.220  0.9688 -0.6004  0.0606
   22MOL0     C 2937   2.861   8.708   7.146 -0.0102  0.5818 -0.1846
   22MOL0     C 2938   2.873   8.753   6.998 -0.9591  0.4376 -0.2950
   22MOL0     C 2939   2.738   8.738   6.916 -0.4339  0.3868  0.2226
   22MOL0     C 2940   2.743   8.812   6.782 -0.2470  0.5238 -0.2054
   22MOL0     C 2941   2.727   8.966   6.803 -0.5094 -0.1237  1.1593
   22MOL0     C 2942   2.592   9.024   6.873  0.3990 -0.1032 -0.1427
   22MOL0    Cl 2943   2.446   8.980   6.780  0.4177  0.4516  0.0984
   22MOL0     C 2944   3.033   8.899   7.582 -0.8542 -0.7979 -0.7977
   22MOL0     C 2945   3.089   8.942   7.700  0.4711  1.1466 -0.0501
   22MOL0     O 2946   3.128   9.095   7.939  0.2256  0.4025 -0.8434
   22MOL0     C 2947   3.242   9.130   8.171 -0.9417  0.3344  0.1953
   22MOL0     C 2948   3.283   9.163   8.303 -1.0847  0.2423  0.0897
   22MOL0     N 2949   3.050   9.260   8.717 -0.1124 -0.5166  0.3569
   22MOL0     N 2950   2.963   9.351   8.712 -0.7113  0.4672 -0.5916
   22MOL0     C 2951   2.109  10.123   9.474 -0.2100 -0.3095  0.7527
   22MOL0     C 2952   2.023  10.164   9.568  0.4481 -0.0622  0.0043
   22MOL0     C 2953   1.816  10.298   9.963 -0.4272 -0.3630  0.3451
   22MOL0     C 2954   1.721  10.238  10.047  0.5369 -0.1757  1.0838
   22MOL0     C 2955   1.677  10.302  10.156  1.4161  0.6692  0.0013
   22MOL0     C 2956   1.720  10.418  10.205  0.5942  0.3824  0.0662
   22MOL0     O 2957   1.657  10.477  10.313  0.2833  0.5331  0.1840
   22MOL0     C 2958   1.692  10.613  10.350  0.5747  0.2289  0.2060
   22MOL0     C 2959   1.598  10.706  10.266  0.0049  0.4563  0.8088
   22MOL0     C 2960   1.444  10.678  10.278 -0.1470  0.7304  0.3520
   22MOL0     C 2961   1.370  10.771  10.195  0.2620 -0.4901 -0.4205
   22MOL0     C 2962   1.351  10.920  10.240 -0.5635 -0.4367 -0.0745
   22MOL0     C 2963   1.321  11.033  10.269 -0.8449  0.4846  0.3940
   22MOL0     C 2964   1.816  10.486  10.125  0.2797  0.9953  0.3858
   22MOL0     C 2965   1.872  10.423  10.011  0.0604 -0.3532 -0.3935
   22MOL0     C 2966   1.975  10.511   9.934  0.3382 -1.2528  0.5205
   22MOL0     H 2967   2.220  10.294   9.812 -0.4586  0.3484  1.0821
   22MOL0     H 2968   2.390  10.245   9.638 -1.6979  0.3883  2.2514
   22MOL0     H 2969   2.445  10.001   9.515  1.3955  1.3830 -0.1929
   22MOL0     H 2970   2.535  10.086   9.406  1.3765 -0.1116 -0.0877
   22MOL0     H 2971   2.342   9.858   9.324  1.6363 -0.6539  2.0635
   22MOL0     H 2972   2.404   9.978   9.211 -3.3933 -1.5324  0.5692
   22MOL0     H 2973   2.620   9.943   9.240 -1.2543  0.0181 -2.4148
   22MOL0     H 2974   2.599   9.820   9.368 -0.1403 -0.1083  0.7301
   22MOL0     H 2975   2.511   9.659   9.215  1.2029 -1.6916 -1.8653
   22MOL0     H 2976   2.478   9.770   9.094  0.0110  1.6237  1.4649
   22MOL0     H 2977   2.752   9.660   9.155  1.0323 -0.3449 -1.7742
   22MOL0     H 2978   2.726   9.803   9.058  0.1890 -0.7292 -1.2531
   22MOL0     H 2979   2.598   9.525   9.028  0.6656  0.2457  0.9304
   22MOL0     H 2980   2.611   9.646   8.900 -0.0543 -2.3477 -1.1971
   22MOL0     H 2981   2.872   9.544   9.017 -2.4832 -1.6127  2.1519
   22MOL0     H 2982   2.841   9.618   8.863 -4.8552 -0.7598 -2.3467
   22MOL0     H 2983   2.727   9.349   8.922  0.6211 -1.9101 -2.4462
   22MOL0     H 2984   2.722   9.441   8.772  0.7643  0.0960 -1.0014
   22MOL0     H 2985   2.943   9.235   9.030  1.2181 -0.6085  0.9303
   22MOL0     H 2986   3.141   9.028   8.840 -1.0337 -1.6643  3.5226
   22MOL0     H 2987   3.177   9.103   8.988  1.2154  0.1601  0.0475
   22MOL0     H 2988   3.310   9.235   8.739 -0.3771 -1.5873 -1.5042
   22MOL0     H 2989   3.357   9.221   8.902 -1.0263  2.6106 -0.9862
   22MOL0     H 2990   3.489   9.051   8.775 -0.5457  0.4879  1.8913
   22MOL0     H 2991   3.359   8.946   8.835 -1.0845 -2.5126 -3.9566
   22MOL0     H 2992   3.383   8.894   8.605  0.6954  0.6483  1.9416
   22MOL0     H 2993   3.219   8.970   8.623 -1.4305  1.2773  1.9250
   22MOL0     H 2994   3.287   8.839   8.430 -0.6763  0.4393  0.8922
   22MOL0     H 2995   3.078   8.732   8.213 -0.5685  1.8416  1.0678
   22MOL0     H 2996   3.217   8.682   8.286 -5.1214 -0.7002  1.5699
   22MOL0     H 2997   3.232   8.703   8.112  1.5902 -1.9029  2.7697
   22MOL0     H 2998   3.058   8.648   7.861  2.4284 -0.7654 -1.3690
   22MOL0     H 2999   2.966   8.573   7.631 -0.9014  0.2630 -0.0233
   22MOL0     H 3000   3.100   8.690   7.377  0.2650  2.7957  1.9015
   22MOL0     H 3001   2.976   8.572   7.334  0.8048  0.4594 -0.6516
   22MOL0     H 3002   3.001   8.848   7.241  2.3210 -0.9193  0.7702
   22MOL0     H 3003   3.064   8.718   7.150  1.2511 -1.0126  0.5132
   22MOL0     H 3004   2.778   8.764   7.189  2.2638  1.5252  3.4049
   22MOL0     H 3005   2.838   8.601   7.142 -1.1854  0.7529  1.1959
   22MOL0     H 3006   2.951   8.697   6.946 -2.8452 -1.4604 -1.2399
   22MOL0     H 3007   2.898   8.858   7.013  0.7829  0.2498 -1.6195
   22MOL0     H 3008   2.719   8.632   6.898 -0.5725  0.3769  0.4206
   22MOL0     H 3009   2.660   8.782   6.978  0.5680 -0.9491  2.5837
   22MOL0     H 3010   2.657   8.776   6.724  1.0441 -0.1576 -1.8184
   22MOL0     H 3011   2.827   8.793   6.715  1.7257  3.1707  1.3521
   22MOL0     H 3012   2.733   9.013   6.704 -0.9665 -5.4808 -1.8443
   22MOL0     H 3013   2.798   9.011   6.873  1.5705 -1.6051  0.1014
   22MOL0     H 3014   2.594   9.133   6.876  0.2535  0.0284 -2.9347
   22MOL0     H 3015   2.568   9.015   6.980 -1.2275  3.2101 -0.1056
   22MOL0     H 3016   3.028   8.967   7.497 -0.2285 -1.3864 -1.3177
   22MOL0     H 3017   3.147   9.033   7.708  1.9277  0.1813  0.9667
   22MOL0     H 3018   3.229   9.218   8.109  2.3617  0.4219 -0.6226
   22MOL0     H 3019   3.303   9.267   8.330 -1.0194 -0.5446  3.4988
   22MOL0     H 3020   2.085  10.081   9.377  0.9931 -0.3847  0.4713
   22MOL0     H 3021   1.923  10.156   9.527  0.0444  0.7789  0.7992
   22MOL0     H 3022   1.689  10.140  10.011  2.2053 -0.1391 -0.6867
   22MOL0     H 3023   1.599  10.255  10.214  1.3157  2.1022  1.0968
   22MOL0     H 3024   1.668  10.609  10.456  0.4539 -1.3632  0.1504
   22MOL0     H 3025   1.795  10.649  10.343  0.2812  0.8853 -1.1020
   22MOL0     H 3026   1.627  10.707  10.160 -0.4955  0.5496  0.6691
   22MOL0     H 3027   1.620  10.809  10.298  2.3689  1.4544 -3.3083
   22MOL0     H 3028   1.410  10.576  10.259  1.1574  0.2080  0.6960
   22MOL0     H 3029   1.419  10.675  10.384 -0.3508  1.7365  0.3339
   22MOL0     H 3030   1.267  10.736  10.192 -0.4233  1.2762  1.2789
   22MOL0     H 3031   1.414  10.769  10.094 -2.7799  0.8721 -1.8874
   22MOL0     H 3032   1.302  11.136  10.291 -0.9154  0.7703 -0.8952
   22MOL0     H 3033   1.846  10.583  10.164  4.3763 -0.6385  1.8447
   22MOL0     H 3034   1.931  10.542   9.839  4.3364  3.1850 -0.2398
   22MOL0     H 3035   1.990  10.606   9.985  1.0140  0.1914 -2.2395
   22MOL0     H 3036   2.071  10.468   9.903  1.2170 -0.6259  2.2378
   23MOL0     O 3037   7.172   6.913   3.256 -0.6380  0.2643 -0.2617
   23MOL0     C 3038   7.208   6.925   3.135 -0.5327 -0.9433 -0.6442
   23MOL0     O 3039   7.153   7.006   3.043 -0.5934 -0.4889 -0.0759
   23MOL0     C 3040   7.032   7.074   3.068  0.1323 -0.5435 -0.8488
   23MOL0     C 3041   6.992   7.157   2.961 -0.4873 -0.7689  0.3056
   23MOL0     C 3042   6.883   7.248   2.974  0.8084  0.0668 -1.3896
   23MOL0     C 3043   6.803   7.249   3.084  0.6299 -0.8599  0.4475
   23MOL0     O 3044   6.707   7.347   3.089  0.5090  0.0837  0.2703
   23MOL0     C 3045   6.573   7.332   3.152 -0.0399  0.0717 -0.5771
   23MOL0     C 3046   6.495   7.246   3.056  0.3209 -0.6275 -0.0772
   23MOL0     C 3047   6.413   7.158   3.143 -0.3549  0.8551  0.7578
   23MOL0     C 3048   6.315   7.063   3.064 -0.3108 -0.6006  0.4502
   23MOL0     C 3049   6.225   6.984   3.158  0.6231 -0.2868 -0.8448
   23MOL0     C 3050   6.111   6.915   3.088  0.2265  0.3186 -0.0870
   23MOL0     C 3051   6.036   6.831   3.189  0.4689 -0.0609 -1.5851
   23MOL0     C 3052   5.951   6.723   3.108  0.1419  0.2773  0.3927
   23MOL0     N 3053   5.856   6.800   3.028  0.0807 -0.5676 -0.2683
   23MOL0     C 3054   5.740   6.854   3.079  0.6354  0.1597 -0.1029
   23MOL0     C 3055   5.683   6.927   2.987  0.1195  0.7200  0.8156
   23MOL0     C 3056   5.542   6.976   2.993  0.3452 -0.7932  0.0496
   23MOL0     C 3057   5.521   7.113   3.067 -0.6821  0.7835 -0.1526
   23MOL0     C 3058   5.522   7.115   3.217 -0.1766  0.4379 -0.4767
   23MOL0     C 3059   5.405   7.035   3.279  1.0204  0.0445 -0.5296
   23MOL0     O 3060   5.422   7.040   3.422 -0.2830 -0.3939  0.5021
   23MOL0     C 3061   5.351   6.948   3.495 -0.5524  0.2337  0.0345
   23MOL0     C 3062   5.414   6.889   3.601 -0.7772  0.9314  0.2373
   23MOL0     C 3063   5.354   6.784   3.680 -0.2987 -0.2783  0.5297
   23MOL0     C 3064   5.441   6.708   3.781  0.5942 -0.3079  0.0185
   23MOL0     C 3065   5.218   6.754   3.662 -0.9240 -0.1417  0.0339
   23MOL0     C 3066   5.145   6.664   3.753 -0.3864 -0.6737 -0.9089
   23MOL0     O 3067   5.053   6.581   3.706 -0.0455 -0.4122  0.3048
   23MOL0     C 3068   4.990   6.488   3.786  1.3450 -0.4085  0.1003
   23MOL0     C 3069   4.976   6.349   3.742  0.2540 -0.6876 -0.6457
   23MOL0     C 3070   4.883   6.265   3.802  0.8971 -0.2732 -1.2369
   23MOL0     C 3071   4.808   6.319   3.903  0.5734 -0.2081  0.5245
   23MOL0     O 3072   4.706   6.248   3.954 -0.2302  0.1471 -0.6102
   23MOL0     C 3073   4.741   6.113   3.998  0.0906 -1.0008 -0.3342
   23MOL0     C 3074   4.732   6.103   4.148  0.4860 -0.4817  0.4591
   23MOL0     C 3075   4.605   6.153   4.209 -0.1154  1.0366 -0.4624
   23MOL0     C 3076   4.589   6.107   4.361  0.8318  0.1348  0.0253
   23MOL0     C 3077   4.472   6.151   4.458 -0.6840  0.1791 -0.3346
   23MOL0     C 3078   4.333   6.182   4.378 -0.4796  0.4792 -0.1109
   23MOL0     C 3079   4.212   6.207   4.470  0.1263 -0.9344 -0.5658
   23MOL0     C 3080   4.157   6.091   4.549  0.8819 -0.2512 -0.4754
   23MOL0    Cl 3081   3.999   6.135   4.619 -0.2843 -0.2461  0.0748
   23MOL0     C 3082   4.817   6.456   3.941  0.6270 -0.2232 -0.5121
   23MOL0     C 3083   4.901   6.540   3.878 -0.2246 -0.3867 -0.6580
   23MOL0     O 3084   5.166   6.688   3.875  0.3100 -0.1335 -0.1257
   23MOL0     C 3085   5.151   6.810   3.551 -0.2469  0.2492 -0.0570
   23MOL0     C 3086   5.211   6.912   3.467 -0.4290  0.6006 -1.0441
   23MOL0     N 3087   5.773   6.922   2.879 -0.3352 -0.6521 -0.1163
   23MOL0     N 3088   5.870   6.841   2.899 -0.0489 -0.3428 -0.0885
   23MOL0     C 3089   6.832   7.158   3.188 -0.1130 -0.2857  1.0702
   23MOL0     C 3090   6.946   7.072   3.179 -0.9003  0.4775  0.0053
   23MOL0     C 3091   7.325   6.845   3.098 -0.7244  0.2358  0.1746
   23MOL0     C 3092   7.402   6.892   2.981  1.3780  0.3689 -0.2358
   23MOL0     C 3093   7.515   6.828   2.935  0.5035  0.3981  0.7220
   23MOL0     C 3094   7.562   6.710   2.997  0.3282  0.3764  0.3453
   23MOL0     O 3095   7.680   6.640   2.973  0.6949  0.2659  0.3711
   23MOL0     C 3096   7.770   6.675   2.864 -0.8278  0.0462 -0.0575
   23MOL0     C 3097   7.857   6.557   2.815  0.8384  0.3275  0.5753
   23MOL0     C 3098   7.942   6.606   2.696  1.1498 -0.4453 -0.9705
   23MOL0     C 3099   8.042   6.493   2.638  0.3131 -0.7021  0.3101
   23MOL0     C 3100   8.100   6.543   2.509 -0.1482  0.4702 -0.0441
   23MOL0     C 3101   8.146   6.584   2.401  0.2197 -0.1550 -0.1121
   23MOL0     C 3102   7.488   6.663   3.107 -0.0139  0.4586  0.8394
   23MOL0     C 3103   7.371   6.728   3.154 -0.3777  0.5717 -1.0654
   23MOL0     C 3104   7.304   6.650   3.270 -0.3575 -0.5430  0.7600
   23MOL0     H 3105   7.054   7.181   2.875 -3.4862  0.1516 -1.7840
   23MOL0     H 3106   6.866   7.318   2.892 -1.2352  1.5261  0.1930
   23MOL0     H 3107   6.520   7.425   3.176 -3.0263 -1.9704  1.4710
   23MOL0     H 3108   6.585   7.275   3.245 -2.5457  1.1755  0.5017
   23MOL0     H 3109   6.437   7.302   2.983  0.6796 -2.5376 -1.9231
   23MOL0     H 3110   6.555   7.185   2.987 -1.3244 -3.1254  0.5642
   23MOL0     H 3111   6.476   7.090   3.201 -1.6181 -0.4675  0.6433
   23MOL0     H 3112   6.347   7.217   3.207 -2.2869 -0.4100  0.0167
   23MOL0     H 3113   6.249   7.124   3.002 -2.4517 -0.4926  2.6501
   23MOL0     H 3114   6.374   6.999   2.998 -1.2157  2.9484 -4.2907
   23MOL0     H 3115   6.186   7.048   3.238  1.9988  0.0043 -0.3801
   23MOL0     H 3116   6.287   6.915   3.217 -0.7614  1.5400  3.0934
   23MOL0     H 3117   6.051   6.972   3.016  0.0969  3.7458  2.4693
   23MOL0     H 3118   6.162   6.840   3.027  1.1992 -0.2331  1.3725
   23MOL0     H 3119   5.965   6.892   3.245  0.1827 -0.7450 -1.1814
   23MOL0     H 3120   6.108   6.779   3.253 -0.8399 -3.0963 -2.3860
   23MOL0     H 3121   6.028   6.672   3.050 -0.3368 -0.7959  0.6757
   23MOL0     H 3122   5.897   6.661   3.181 -0.7864  1.3770  0.6937
   23MOL0     H 3123   5.691   6.824   3.171 -0.8933 -0.2622 -1.0274
   23MOL0     H 3124   5.472   6.899   3.029  1.5077 -1.5284  0.8114
   23MOL0     H 3125   5.507   6.979   2.889 -0.8233 -0.2316  0.4368
   23MOL0     H 3126   5.585   7.191   3.025  1.5681 -1.6556 -1.5600
   23MOL0     H 3127   5.417   7.123   3.035 -1.3246 -0.6790  1.2906
   23MOL0     H 3128   5.621   7.086   3.254 -0.4803  1.7219  1.5054
   23MOL0     H 3129   5.514   7.214   3.263 -1.0101  0.1309  0.0681
   23MOL0     H 3130   5.316   7.092   3.249 -0.8317 -1.4406  1.7793
   23MOL0     H 3131   5.415   6.933   3.241 -0.1949  0.4126 -1.9475
   23MOL0     H 3132   5.518   6.914   3.622 -0.6170  2.7660 -2.2883
   23MOL0     H 3133   5.404   6.606   3.787 -2.1785  0.7149  2.9058
   23MOL0     H 3134   5.421   6.760   3.876 -1.1096 -1.2523  0.2120
   23MOL0     H 3135   5.546   6.703   3.748 -0.1860 -1.1062 -2.5488
   23MOL0     H 3136   5.029   6.311   3.656 -2.0236  0.1977 -2.5301
   23MOL0     H 3137   4.862   6.166   3.760  0.5583 -0.9575  0.4825
   23MOL0     H 3138   4.659   6.050   3.963 -0.0652 -1.3910  0.7246
   23MOL0     H 3139   4.830   6.069   3.952 -2.1529 -3.7732 -2.3818
   23MOL0     H 3140   4.751   5.998   4.167 -1.4726 -0.7094  1.4190
   23MOL0     H 3141   4.814   6.154   4.199  0.8875 -1.6104  0.9670
   23MOL0     H 3142   4.520   6.109   4.155  1.0269 -2.9950  0.6205
   23MOL0     H 3143   4.594   6.261   4.205 -0.1906  1.0390 -0.2044
   23MOL0     H 3144   4.683   6.124   4.414  0.2495  3.9684  0.0731
   23MOL0     H 3145   4.572   5.999   4.349 -3.0520  0.3187  2.3786
   23MOL0     H 3146   4.469   6.074   4.536  2.1434 -0.9515 -1.2085
   23MOL0     H 3147   4.506   6.243   4.505  0.2584 -1.2237  1.9244
   23MOL0     H 3148   4.321   6.102   4.305  3.1404 -3.2937  2.8839
   23MOL0     H 3149   4.347   6.276   4.324  0.6607  0.8601  0.7916
   23MOL0     H 3150   4.141   6.248   4.398 -0.7474 -1.4323 -0.0052
   23MOL0     H 3151   4.235   6.289   4.538 -2.2080 -1.3128  0.7593
   23MOL0     H 3152   4.222   6.060   4.631 -2.3638  1.4842  3.0575
   23MOL0     H 3153   4.136   6.005   4.484  0.8889  0.9223 -2.0996
   23MOL0     H 3154   4.738   6.487   4.009 -2.9029  2.9974 -5.4413
   23MOL0     H 3155   4.881   6.645   3.895  5.8041  0.8903  1.1656
   23MOL0     H 3156   5.046   6.786   3.538 -0.6133  1.6092  0.2625
   23MOL0     H 3157   5.154   6.952   3.383 -2.2753  1.5813  0.6066
   23MOL0     H 3158   6.777   7.144   3.280 -0.5763  0.2560  0.8857
   23MOL0     H 3159   6.980   7.027   3.272 -1.1123  2.6564  1.1865
   23MOL0     H 3160   7.354   6.978   2.934 -3.0581 -1.7701 -0.1243
   23MOL0     H 3161   7.558   6.867   2.844 -2.4649  1.0713 -0.5065
   23MOL0     H 3162   7.709   6.707   2.779 -0.4823 -2.3861 -1.3244
   23MOL0     H 3163   7.837   6.757   2.889  1.7325 -1.2775 -2.1044
   23MOL0     H 3164   7.784   6.483   2.779  0.8077  0.8139 -0.3981
   23MOL0     H 3165   7.932   6.518   2.884  1.0079 -0.7378 -0.1802
   23MOL0     H 3166   7.882   6.651   2.617 -1.0724  1.9885  1.8998
   23MOL0     H 3167   8.007   6.682   2.740 -0.1333  0.6420 -0.8820
   23MOL0     H 3168   7.987   6.405   2.603  2.4153 -1.8949 -0.1444
   23MOL0     H 3169   8.119   6.469   2.712  1.2747 -1.5368 -0.9257
   23MOL0     H 3170   8.190   6.629   2.314  2.6611  2.5570  2.3054
   23MOL0     H 3171   7.529   6.570   3.143 -1.0930 -1.2498 -2.0219
   23MOL0     H 3172   7.367   6.570   3.310  1.6278  0.7187  0.2954
   23MOL0     H 3173   7.279   6.716   3.354  0.7410  0.5256  0.2749
   23MOL0     H 3174   7.206   6.609   3.244 -0.0369 -1.2530  0.6661
   24MOL0     O 3175   2.115   0.924   3.061  1.3648  0.1241  0.6099
   24MOL0     C 3176   2.140   0.823   2.998 -0.1050 -0.5410  0.1403
   24MOL0     O 3177   2.055   0.721   2.967  0.1351  0.9548 -0.3713
   24MOL0     C 3178   1.920   0.746   2.966 -0.8569  0.2807  0.4152
   24MOL0     C 3179   1.847   0.747   2.843  0.2309  0.4530  0.9777
   24MOL0     C 3180   1.706   0.762   2.840  0.5605 -0.0340  0.2872
   24MOL0     C 3181   1.631   0.779   2.953  0.7290  0.4238 -0.7374
   24MOL0     O 3182   1.498   0.824   2.946 -0.3618  0.4706 -0.7088
   24MOL0     C 3183   1.451   0.876   2.827 -0.3392  0.0254 -0.0463
   24MOL0     C 3184   1.315   0.952   2.857  0.8376 -0.3045  0.5639
   24MOL0     C 3185   1.330   1.055   2.972 -0.3608  0.6694 -0.1706
   24MOL0     C 3186   1.210   1.131   2.991  0.0682  0.4792 -0.7950
   24MOL0     C 3187   1.215   1.216   3.123 -0.9224  0.6266 -0.4056
   24MOL0     C 3188   1.121   1.329   3.137  1.4070 -0.6994 -0.3544
   24MOL0     C 3189   0.978   1.283   3.126 -0.0748 -0.3043  1.1812
   24MOL0     C 3190   0.883   1.383   3.198  0.2886  0.7786 -0.6090
   24MOL0     N 3191   0.848   1.329   3.333  0.8016 -0.4452  0.0741
   24MOL0     C 3192   0.931   1.369   3.434 -0.2477 -0.6260 -0.4661
   24MOL0     C 3193   0.847   1.355   3.539 -0.0522  0.4266 -0.4024
   24MOL0     C 3194   0.856   1.405   3.680 -0.2175  0.5756  0.5226
   24MOL0     C 3195   0.995   1.458   3.727  0.2901 -0.0794  0.0895
   24MOL0     C 3196   0.999   1.519   3.872 -1.0228 -0.3650  0.6187
   24MOL0     C 3197   1.151   1.535   3.907 -0.7741 -0.0201 -0.7401
   24MOL0     O 3198   1.160   1.578   4.046  0.5758  0.1804 -1.2870
   24MOL0     C 3199   1.218   1.483   4.137  0.7752  0.5587  0.6127
   24MOL0     C 3200   1.138   1.374   4.186 -0.5336  0.2811 -0.1728
   24MOL0     C 3201   1.196   1.285   4.281  0.0861  0.2858 -0.2715
   24MOL0     C 3202   1.105   1.181   4.346 -0.2833 -0.1559 -0.3474
   24MOL0     C 3203   1.341   1.296   4.315  0.5526  1.5217 -0.0913
   24MOL0     C 3204   1.404   1.196   4.408  0.2219  0.1532 -0.6244
   24MOL0     O 3205   1.537   1.218   4.428 -0.0586 -0.2676  0.0127
   24MOL0     C 3206   1.606   1.139   4.510 -0.0722  0.2534 -0.4656
   24MOL0     C 3207   1.663   1.188   4.628 -0.6557 -1.0086  0.2931
   24MOL0     C 3208   1.744   1.100   4.702  0.0321 -0.0799 -0.1196
   24MOL0     C 3209   1.770   0.967   4.670  0.1124  0.8001 -0.8823
   24MOL0     O 3210   1.856   0.890   4.750  0.6011 -0.1606 -0.7663
   24MOL0     C 3211   1.776   0.800   4.829  0.3603 -0.4674 -0.3272
   24MOL0     C 3212   1.847   0.679   4.867  0.7056  0.9431 -0.4300
   24MOL0     C 3213   1.747   0.556   4.880 -0.4331  0.0638 -0.1094
   24MOL0     C 3214   1.637   0.570   4.986  0.1878 -0.7431 -0.4011
   24MOL0     C 3215   1.645   0.447   5.077 -0.3450  0.3418 -0.0864
   24MOL0     C 3216   1.517   0.445   5.164  0.3152  0.9096  0.1824
   24MOL0     C 3217   1.522   0.328   5.267 -0.7051 -0.2891  0.7936
   24MOL0     C 3218   1.470   0.189   5.225  0.9845  0.2849  0.1654
   24MOL0    Cl 3219   1.507   0.091   5.370 -0.4083 -0.0868 -0.2594
   24MOL0     C 3220   1.718   0.921   4.553  0.6869 -0.3917 -0.6707
   24MOL0     C 3221   1.627   1.003   4.474  0.5916 -0.2672 -0.1485
   24MOL0     O 3222   1.334   1.136   4.495  0.5621 -0.1625  0.0907
   24MOL0     C 3223   1.410   1.399   4.260 -0.1092 -0.6193 -0.1489
   24MOL0     C 3224   1.353   1.488   4.167  0.0299  1.2201 -0.7918
   24MOL0     N 3225   0.725   1.290   3.502  0.3154  0.9481 -0.6775
   24MOL0     N 3226   0.734   1.268   3.373 -0.2131 -0.6238  0.3266
   24MOL0     C 3227   1.706   0.787   3.071 -0.2374  0.1348 -0.4858
   24MOL0     C 3228   1.847   0.783   3.077 -0.0429 -1.0240  0.2343
   24MOL0     C 3229   2.278   0.795   2.964 -0.2845 -0.3774 -0.3068
   24MOL0     C 3230   2.354   0.891   2.900  0.5933 -0.2402  0.3883
   24MOL0     C 3231   2.488   0.863   2.880  0.1445  0.2559  0.2477
   24MOL0     C 3232   2.549   0.742   2.912  0.7200  0.9108 -0.1576
   24MOL0     O 3233   2.680   0.739   2.887  0.2867 -0.0860 -0.6236
   24MOL0     C 3234   2.730   0.642   2.801  0.6774 -0.6240 -0.3712
   24MOL0     C 3235   2.690   0.651   2.648  0.0562  0.0203 -0.2145
   24MOL0     C 3236   2.755   0.762   2.569  0.1923  0.1193  0.4237
   24MOL0     C 3237   2.646   0.793   2.459 -0.2291 -0.3765  0.7094
   24MOL0     C 3238   2.696   0.879   2.343 -0.0393  0.1067 -0.4366
   24MOL0     C 3239   2.730   0.969   2.271  0.6168  0.4608 -0.1635
   24MOL0     C 3240   2.477   0.638   2.978  0.8359 -0.2139  0.3014
   24MOL0     C 3241   2.341   0.667   2.998 -0.0269 -0.0474  0.2955
   24MOL0     C 3242   2.273   0.557   3.079  0.2275  0.2130  0.6080
   24MOL0     H 3243   1.899   0.726   2.750  0.1788  1.3485  0.7426
   24MOL0     H 3244   1.649   0.747   2.749  1.2000  2.4524 -0.6298
   24MOL0     H 3245   1.433   0.795   2.756 -0.8873 -0.5844  0.7759
   24MOL0     H 3246   1.522   0.950   2.788 -0.7768 -0.1318 -1.1615
   24MOL0     H 3247   1.277   0.983   2.759 -1.7437 -3.1363  0.5180
   24MOL0     H 3248   1.237   0.879   2.877  3.1527 -2.7093  1.2830
   24MOL0     H 3249   1.349   1.012   3.070 -2.6908 -0.5480 -0.1776
   24MOL0     H 3250   1.411   1.124   2.946 -1.9532  2.9246  0.5590
   24MOL0     H 3251   1.198   1.199   2.907 -0.1815  0.5357 -0.7145
   24MOL0     H 3252   1.127   1.060   2.984 -0.2678  0.9242 -1.3269
   24MOL0     H 3253   1.312   1.263   3.145 -1.5334  1.6671  0.1148
   24MOL0     H 3254   1.212   1.139   3.200  0.2870 -2.0489 -2.8485
   24MOL0     H 3255   1.146   1.384   3.229  0.7096 -0.1119 -0.5067
   24MOL0     H 3256   1.128   1.393   3.049 -2.6509  2.0404  1.0122
   24MOL0     H 3257   0.961   1.182   3.164 -0.9106  0.0854  1.8982
   24MOL0     H 3258   0.946   1.279   3.021 -0.2540 -2.2853  1.2718
   24MOL0     H 3259   0.929   1.480   3.215 -1.7736  1.6423  0.3364
   24MOL0     H 3260   0.789   1.394   3.142 -1.3560  0.1474  1.8605
   24MOL0     H 3261   1.026   1.420   3.421 -1.2213  1.4349  0.0103
   24MOL0     H 3262   0.849   1.312   3.737  0.1572  1.7747  2.6235
   24MOL0     H 3263   0.774   1.474   3.701 -0.9770  0.4661 -1.8026
   24MOL0     H 3264   1.064   1.373   3.724 -1.5064 -1.6202  0.7888
   24MOL0     H 3265   1.025   1.544   3.666 -0.7991  0.0102 -0.3437
   24MOL0     H 3266   0.949   1.616   3.868 -0.2521  0.0973 -4.4025
   24MOL0     H 3267   0.938   1.452   3.934 -4.1605 -0.5883 -2.3850
   24MOL0     H 3268   1.211   1.445   3.890 -1.7682 -0.9631  0.5035
   24MOL0     H 3269   1.208   1.599   3.839  0.7640  0.1461  0.6538
   24MOL0     H 3270   1.037   1.358   4.148  0.6989 -1.1044 -3.1873
   24MOL0     H 3271   1.109   1.203   4.453  0.9221 -2.0419  0.0521
   24MOL0     H 3272   1.147   1.082   4.327  2.7133  0.8868  0.2180
   24MOL0     H 3273   1.004   1.197   4.306  0.5806  0.7220 -2.3476
   24MOL0     H 3274   1.663   1.294   4.651  1.5872 -1.1788  1.3363
   24MOL0     H 3275   1.791   1.134   4.794  1.4913  1.4810 -1.3603
   24MOL0     H 3276   1.747   0.855   4.920  3.1737  1.9917 -0.7575
   24MOL0     H 3277   1.681   0.779   4.780  0.9314  0.4038 -1.8749
   24MOL0     H 3278   1.910   0.645   4.784 -0.7615 -1.2417 -0.7263
   24MOL0     H 3279   1.912   0.691   4.954 -0.4696 -1.2943  0.8429
   24MOL0     H 3280   1.806   0.471   4.918 -0.7589  0.2287  0.7819
   24MOL0     H 3281   1.701   0.521   4.788 -0.1737 -1.6801  0.3837
   24MOL0     H 3282   1.544   0.582   4.931  0.5592 -3.8314 -1.9261
   24MOL0     H 3283   1.650   0.666   5.038 -2.7881 -0.3193 -0.2998
   24MOL0     H 3284   1.651   0.359   5.013  0.8368  2.3023 -2.8391
   24MOL0     H 3285   1.730   0.449   5.146 -0.8403 -0.1618  0.5539
   24MOL0     H 3286   1.423   0.433   5.110  0.8655 -1.3857 -0.3765
   24MOL0     H 3287   1.514   0.535   5.226  0.6801  1.6385 -0.8234
   24MOL0     H 3288   1.464   0.353   5.356 -1.7611 -1.7934  0.5875
   24MOL0     H 3289   1.629   0.312   5.283 -0.2680  0.8842 -0.7415
   24MOL0     H 3290   1.523   0.156   5.135  1.1457 -1.2932  0.8072
   24MOL0     H 3291   1.363   0.195   5.205  0.8364  0.7625  1.0732
   24MOL0     H 3292   1.728   0.813   4.550 -1.9875 -0.7081 -0.5640
   24MOL0     H 3293   1.583   0.957   4.387  1.2842  0.9015 -1.1604
   24MOL0     H 3294   1.516   1.414   4.279 -0.2329  0.9389 -0.5723
   24MOL0     H 3295   1.418   1.562   4.122  0.5684  2.2157  1.4490
   24MOL0     H 3296   1.664   0.818   3.166  2.4564 -0.3668  0.9758
   24MOL0     H 3297   1.903   0.803   3.168 -1.3710  1.6642  0.5536
   24MOL0     H 3298   2.311   0.988   2.876 -1.2582 -0.8349  1.1736
   24MOL0     H 3299   2.538   0.943   2.826 -2.2676 -0.2920 -3.1004
   24MOL0     H 3300   2.837   0.648   2.823  0.4707  0.3093  0.4221
   24MOL0     H 3301   2.708   0.537   2.822 -0.0307 -0.4275 -0.1135
   24MOL0     H 3302   2.581   0.650   2.639  0.0847  0.0709 -0.5508
   24MOL0     H 3303   2.730   0.572   2.584 -2.6746  0.0432 -2.1491
   24MOL0     H 3304   2.758   0.849   2.636 -1.5975  1.7665 -1.4875
   24MOL0     H 3305   2.854   0.738   2.531  0.9207  1.6208  1.2947
   24MOL0     H 3306   2.561   0.835   2.513  0.1248 -0.2167  1.1592
   24MOL0     H 3307   2.615   0.695   2.422  0.5492 -1.5887  3.0604
   24MOL0     H 3308   2.758   1.046   2.202 -1.0288  0.2301 -1.1552
   24MOL0     H 3309   2.523   0.552   3.025  0.2087 -3.3756 -4.2425
   24MOL0     H 3310   2.345   0.505   3.143  1.1411 -0.5688 -1.0030
   24MOL0     H 3311   2.202   0.603   3.149 -1.3786  1.4600 -1.6838
   24MOL0     H 3312   2.222   0.477   3.025 -0.5840 -1.1670  3.2303
   25MOL0     O 3313   4.302   6.615  11.118  0.3376 -0.1741  0.7687
   25MOL0     C 3314   4.232   6.710  11.141  0.3882  0.0046  0.9911
   25MOL0     O 3315   4.256   6.807  11.231 -0.1939  0.3286 -0.5671
   25MOL0     C 3316   4.344   6.773  11.331  0.5857  0.2434 -0.0316
   25MOL0     C 3317   4.475   6.804  11.319 -0.2361 -0.0389  0.9516
   25MOL0     C 3318   4.567   6.763  11.415 -0.7373  0.7515  0.1410
   25MOL0     C 3319   4.520   6.688  11.523 -0.1302  0.6670  0.1381
   25MOL0     O 3320   4.623   6.663  11.616 -0.1279 -0.7249  0.4949
   25MOL0     C 3321   4.634   6.551  11.689 -0.4657  0.9783 -0.0766
   25MOL0     C 3322   4.727   6.441  11.622 -0.4039 -0.1279  0.0019
   25MOL0     C 3323   4.880   6.442  11.652 -0.4343 -0.0844 -0.8629
   25MOL0     C 3324   4.958   6.329  11.585 -0.1426  0.5643 -0.4493
   25MOL0     C 3325   5.115   6.349  11.610 -0.0740  0.2215 -0.2419
   25MOL0     C 3326   5.214   6.242  11.556  0.5547 -0.0987 -0.2064
   25MOL0     C 3327   5.363   6.255  11.592 -0.2463 -0.3357  0.9223
   25MOL0     C 3328   5.458   6.183  11.497  0.1481 -0.4568  0.1321
   25MOL0     N 3329   5.607   6.195  11.527 -0.1170  0.2799  0.5420
   25MOL0     C 3330   5.694   6.267  11.448 -0.2629  0.3504 -0.3450
   25MOL0     C 3331   5.819   6.234  11.490 -0.6234 -0.0209 -0.8619
   25MOL0     C 3332   5.945   6.292  11.432 -0.7766  0.3783 -0.7737
   25MOL0     C 3333   6.021   6.372  11.543 -0.4718  0.3259 -0.2442
   25MOL0     C 3334   6.168   6.394  11.520  0.7460 -0.0651 -0.4211
   25MOL0     C 3335   6.227   6.513  11.599 -0.4202  0.1546 -0.6966
   25MOL0     O 3336   6.277   6.464  11.724  0.4229 -1.3131  0.3392
   25MOL0     C 3337   6.393   6.389  11.730  1.0605 -1.1970  0.4676
   25MOL0     C 3338   6.467   6.350  11.620  0.1409 -0.7798 -0.1793
   25MOL0     C 3339   6.584   6.264  11.639  1.0280  0.1586  0.5008
   25MOL0     C 3340   6.650   6.226  11.506 -0.3147  0.0659  0.6440
   25MOL0     C 3341   6.621   6.215  11.774 -0.3030 -0.2929  0.9137
   25MOL0     C 3342   6.738   6.123  11.799 -0.7108  0.2584  0.4568
   25MOL0     O 3343   6.828   6.108  11.697  0.1460 -0.8949  0.0038
   25MOL0     C 3344   6.929   6.013  11.703 -0.2753 -0.0921  0.1644
   25MOL0     C 3345   6.994   5.979  11.827 -0.4615  0.2396 -0.9429
   25MOL0     C 3346   7.121   5.912  11.827  0.3769  0.3028 -0.4884
   25MOL0     C 3347   7.145   5.834  11.708 -0.4802  0.0441  0.4915
   25MOL0     O 3348   7.255   5.756  11.690  0.3043  0.0199 -0.6198
   25MOL0     C 3349   7.356   5.782  11.784 -0.0876 -0.2706 -0.5104
   25MOL0     C 3350   7.491   5.733  11.720  0.2758 -0.0477 -0.2577
   25MOL0     C 3351   7.532   5.588  11.735  0.0070 -0.5798 -0.2636
   25MOL0     C 3352   7.680   5.576  11.695  0.3914  1.2014  1.0713
   25MOL0     C 3353   7.734   5.436  11.701  0.4499 -0.3133  0.6667
   25MOL0     C 3354   7.891   5.435  11.712 -0.6473  0.4485 -0.3054
   25MOL0     C 3355   7.956   5.286  11.727  1.3506  0.0973  0.1343
   25MOL0     C 3356   8.104   5.295  11.757 -0.0327 -0.2856 -0.0079
   25MOL0    Cl 3357   8.206   5.155  11.683 -0.0143 -0.0048  0.2852
   25MOL0     C 3358   7.090   5.861  11.597  0.4163  0.4314  1.2123
   25MOL0     C 3359   6.992   5.958  11.591 -0.2911 -0.1010  0.4248
   25MOL0     O 3360   6.755   6.070  11.907  0.8526 -0.1708  0.0243
   25MOL0     C 3361   6.542   6.252  11.877 -0.4555 -0.6108  0.1615
   25MOL0     C 3362   6.433   6.340  11.860 -0.2892 -0.8517 -0.2975
   25MOL0     N 3363   5.806   6.149  11.594  1.0716 -0.1523  0.2811
   25MOL0     N 3364   5.679   6.115  11.610 -0.5440 -0.1116 -0.5560
   25MOL0     C 3365   4.384   6.670  11.547  0.2321  0.6262 -0.2428
   25MOL0     C 3366   4.294   6.700  11.442 -0.2083  0.2932  0.1054
   25MOL0     C 3367   4.131   6.728  11.038  0.5528  1.0028 -0.8520
   25MOL0     C 3368   4.075   6.858  11.025 -0.3400  0.7723 -0.8930
   25MOL0     C 3369   3.976   6.895  10.944  0.1104 -0.5733 -0.9509
   25MOL0     C 3370   3.910   6.794  10.875 -1.0212 -0.0533  0.0544
   25MOL0     O 3371   3.797   6.819  10.803 -0.5275  0.8926  0.1420
   25MOL0     C 3372   3.721   6.938  10.808 -0.3987 -0.2802 -0.3833
   25MOL0     C 3373   3.631   6.954  10.683  0.4717  0.1318 -0.4520
   25MOL0     C 3374   3.484   6.946  10.721  0.1300  0.1042 -0.4659
   25MOL0     C 3375   3.392   6.953  10.600  0.6814  0.5936 -0.1281
   25MOL0     C 3376   3.368   7.087  10.566 -1.1460 -0.0138 -0.2477
   25MOL0     C 3377   3.370   7.206  10.539  0.4679 -0.0125 -0.7972
   25MOL0     C 3378   3.964   6.662  10.870 -0.6258  0.1503  0.4290
   25MOL0     C 3379   4.072   6.627  10.956 -0.6190 -0.0165 -0.1262
   25MOL0     C 3380   4.102   6.481  10.963 -0.0271 -0.0385 -0.0113
   25MOL0     H 3381   4.510   6.852  11.228 -0.6820  0.3444  0.9790
   25MOL0     H 3382   4.675   6.775  11.409  0.0555 -4.2827  0.3388
   25MOL0     H 3383   4.534   6.511  11.710 -0.2197  0.4121  0.0422
   25MOL0     H 3384   4.674   6.574  11.788 -0.8475 -0.3848  0.4236
   25MOL0     H 3385   4.681   6.347  11.653  1.1967 -0.6196  0.9655
   25MOL0     H 3386   4.718   6.448  11.513  1.3677 -0.7356 -0.2125
   25MOL0     H 3387   4.925   6.536  11.620  0.8465 -0.0804  0.8220
   25MOL0     H 3388   4.891   6.429  11.760  0.7318 -1.2323 -1.0979
   25MOL0     H 3389   4.925   6.227  11.609  1.2563  0.0865 -0.4640
   25MOL0     H 3390   4.947   6.340  11.477  5.5795 -0.6652 -1.4555
   25MOL0     H 3391   5.127   6.349  11.719  0.7728 -2.7052 -0.2343
   25MOL0     H 3392   5.157   6.442  11.570  1.6835 -0.4059  0.0317
   25MOL0     H 3393   5.186   6.142  11.591 -0.6431  0.9548  2.1201
   25MOL0     H 3394   5.209   6.242  11.447  0.7169 -2.4508 -0.2757
   25MOL0     H 3395   5.374   6.215  11.693 -1.2863 -1.2468  0.6925
   25MOL0     H 3396   5.379   6.364  11.595 -0.2712 -0.2779 -0.3733
   25MOL0     H 3397   5.434   6.076  11.491 -2.8461  0.1910 -2.7226
   25MOL0     H 3398   5.441   6.233  11.401  0.9139  2.0665  1.2219
   25MOL0     H 3399   5.673   6.343  11.373 -1.6689  1.7306  1.3438
   25MOL0     H 3400   5.918   6.361  11.352  2.2561  3.0269  0.2860
   25MOL0     H 3401   5.999   6.210  11.383 -4.3930 -1.9587 -1.2276
   25MOL0     H 3402   5.965   6.464  11.563  1.1583  1.2765  0.1784
   25MOL0     H 3403   6.018   6.317  11.638 -0.1813  0.6021 -0.0694
   25MOL0     H 3404   6.214   6.296  11.536 -0.1811 -0.2888  1.0947
   25MOL0     H 3405   6.177   6.420  11.414 -1.5434  1.2169 -0.3676
   25MOL0     H 3406   6.315   6.555  11.550  2.4026 -1.2188  2.7791
   25MOL0     H 3407   6.158   6.594  11.625  1.3695  1.6445 -0.4003
   25MOL0     H 3408   6.449   6.396  11.523  0.9531 -2.1055 -0.9920
   25MOL0     H 3409   6.722   6.305  11.480 -1.4419  0.0627 -3.0577
   25MOL0     H 3410   6.576   6.234  11.425 -1.5526 -1.3431  1.5961
   25MOL0     H 3411   6.681   6.122  11.495 -1.3302 -0.2355  0.5268
   25MOL0     H 3412   6.956   6.029  11.915 -1.8492 -2.7187  0.2766
   25MOL0     H 3413   7.172   5.899  11.922 -1.9862 -1.5295  0.6257
   25MOL0     H 3414   7.368   5.891  11.794 -2.4588 -0.0978  1.3677
   25MOL0     H 3415   7.338   5.739  11.883 -0.7924  1.2472  0.0525
   25MOL0     H 3416   7.486   5.765  11.616  0.5943  0.0792 -0.2346
   25MOL0     H 3417   7.569   5.785  11.776  0.0396 -0.9400  0.9375
   25MOL0     H 3418   7.460   5.529  11.678 -0.0436 -0.2297 -0.5632
   25MOL0     H 3419   7.522   5.554  11.838 -1.8073  0.1831 -0.1559
   25MOL0     H 3420   7.747   5.647  11.745 -0.2751  2.4211  0.2965
   25MOL0     H 3421   7.690   5.595  11.587  0.5012 -5.2231 -0.4568
   25MOL0     H 3422   7.680   5.387  11.783  0.8292 -0.6476  0.7204
   25MOL0     H 3423   7.714   5.369  11.617  5.5358 -5.7094  2.9698
   25MOL0     H 3424   7.917   5.487  11.805 -1.0578 -2.4467  1.5692
   25MOL0     H 3425   7.936   5.486  11.627 -0.9929  2.1650  0.5121
   25MOL0     H 3426   7.939   5.235  11.632 -1.2817  1.8363 -0.4554
   25MOL0     H 3427   7.907   5.221  11.801 -0.8743  3.5428  1.9601
   25MOL0     H 3428   8.115   5.306  11.865 -1.2199  3.5991 -0.1316
   25MOL0     H 3429   8.130   5.391  11.711 -1.2999  0.5116  0.8837
   25MOL0     H 3430   7.118   5.824  11.499 -0.1286  0.4419  1.0452
   25MOL0     H 3431   6.953   5.999  11.499 -1.8224 -0.8849  0.7006
   25MOL0     H 3432   6.550   6.223  11.981  0.4988 -0.3961  0.1548
   25MOL0     H 3433   6.375   6.384  11.940  2.9996  1.2413  1.1310
   25MOL0     H 3434   4.346   6.617  11.634 -3.5636  4.2648  0.6581
   25MOL0     H 3435   4.187   6.680  11.444 -0.4235  0.3255 -3.7296
   25MOL0     H 3436   4.138   6.934  11.071  2.8129 -3.3470  2.3465
   25MOL0     H 3437   3.928   6.992  10.936 -0.4251 -0.6071  1.1913
   25MOL0     H 3438   3.667   6.944  10.902 -1.4474  2.0650 -1.0540
   25MOL0     H 3439   3.781   7.030  10.808  0.0613 -0.5382 -2.1631
   25MOL0     H 3440   3.646   6.870  10.614  0.0302 -1.1839  0.9887
   25MOL0     H 3441   3.671   7.047  10.643  0.8377  0.9651  1.7121
   25MOL0     H 3442   3.465   6.844  10.756  0.9619 -0.0824 -0.5251
   25MOL0     H 3443   3.459   7.017  10.799 -2.6719 -1.7512  0.4848
   25MOL0     H 3444   3.297   6.912  10.636  0.1798  1.7883 -0.0325
   25MOL0     H 3445   3.441   6.904  10.515  1.5124 -1.5820  1.5009
   25MOL0     H 3446   3.385   7.311  10.522 -1.2774  0.2741 -0.7731
   25MOL0     H 3447   3.907   6.593  10.808  0.0422  0.1681 -0.2121
   25MOL0     H 3448   4.200   6.462  10.917 -1.1470 -2.3718 -1.7050
   25MOL0     H 3449   4.120   6.450  11.066  1.9433  0.5637 -0.1245
   25MOL0     H 3450   4.025   6.411  10.927  1.7165 -2.2888  0.3784
   26MOL0     O 3451   7.873  10.684   1.959 -0.2168  0.5868 -1.0898
   26MOL0     C 3452   7.846  10.798   1.924  1.4653 -0.5140 -1.0911
   26MOL0     O 3453   7.829  10.849   1.803 -0.2333  0.2316 -0.6420
   26MOL0     C 3454   7.846  10.768   1.689 -0.1724 -0.5705 -0.8533
   26MOL0     C 3455   7.726  10.718   1.638 -0.2689  0.5079  0.1006
   26MOL0     C 3456   7.724  10.642   1.522  0.5022 -0.3635 -0.3325
   26MOL0     C 3457   7.845  10.605   1.466  0.8230  0.1008  1.1267
   26MOL0     O 3458   7.853  10.533   1.338  0.0914 -0.3518  0.0830
   26MOL0     C 3459   7.755  10.584   1.239  0.8602  0.8727  0.1728
   26MOL0     C 3460   7.788  10.528   1.105  0.1216  0.0855  0.4534
   26MOL0     C 3461   7.754  10.382   1.087 -0.2401 -0.0271  0.5383
   26MOL0     C 3462   7.746  10.346   0.933  0.4595 -0.4864 -0.0754
   26MOL0     C 3463   7.715  10.199   0.932  0.7499  0.5290 -0.6113
   26MOL0     C 3464   7.736  10.132   0.801  0.9782  0.6052 -0.4767
   26MOL0     C 3465   7.708   9.979   0.812 -0.2045 -0.3427  0.4910
   26MOL0     C 3466   7.554   9.952   0.844 -1.0132  0.4256  0.4442
   26MOL0     N 3467   7.533   9.800   0.845 -0.1727  0.3575  0.6853
   26MOL0     C 3468   7.631   9.705   0.834 -0.3430  0.4545  0.5256
   26MOL0     C 3469   7.570   9.587   0.817 -0.2072 -0.2648  0.3813
   26MOL0     C 3470   7.636   9.451   0.804  0.9694  0.0725  0.0664
   26MOL0     C 3471   7.790   9.450   0.850  0.4907 -0.1204  0.5900
   26MOL0     C 3472   7.837   9.300   0.831  0.7303  0.6043 -0.0809
   26MOL0     C 3473   7.969   9.259   0.902 -0.0724  0.0556  0.3229
   26MOL0     O 3474   7.956   9.292   1.041 -0.1249 -0.6301  0.9768
   26MOL0     C 3475   8.068   9.299   1.116 -0.7132 -1.3347 -0.8143
   26MOL0     C 3476   8.200   9.316   1.071  0.8428  0.2837 -0.3420
   26MOL0     C 3477   8.312   9.307   1.165  0.5399  0.3477  0.3692
   26MOL0     C 3478   8.444   9.340   1.101  0.2037 -0.5032 -0.9190
   26MOL0     C 3479   8.295   9.275   1.304 -0.2427  0.0741 -0.9834
   26MOL0     C 3480   8.412   9.276   1.400 -0.1340 -0.0774 -0.2200
   26MOL0     O 3481   8.527   9.232   1.359  0.1982  0.2614 -0.1581
   26MOL0     C 3482   8.642   9.240   1.437  0.3137 -0.4765 -0.5953
   26MOL0     C 3483   8.752   9.200   1.363 -0.8693  0.5100 -0.5109
   26MOL0     C 3484   8.884   9.207   1.417 -0.5110 -0.5961  0.0394
   26MOL0     C 3485   8.906   9.247   1.543 -1.0326  0.3742  0.0147
   26MOL0     O 3486   9.030   9.254   1.599 -0.2006  0.6914 -0.2052
   26MOL0     C 3487   9.051   9.157   1.706  0.5639  0.9091 -0.2242
   26MOL0     C 3488   9.114   9.026   1.657  0.2827  0.0576  0.1668
   26MOL0     C 3489   9.253   9.068   1.596 -0.5153 -0.0789  0.3177
   26MOL0     C 3490   9.327   8.953   1.523  0.0026  0.2418  0.1515
   26MOL0     C 3491   9.456   9.014   1.471 -0.3781 -0.3029  0.2931
   26MOL0     C 3492   9.545   8.910   1.408  0.2720 -0.1662  0.6215
   26MOL0     C 3493   9.580   8.796   1.510 -1.3535 -0.0696 -0.3244
   26MOL0     C 3494   9.712   8.739   1.466 -0.1264 -1.3684 -0.7471
   26MOL0    Cl 3495   9.705   8.687   1.305  0.1253 -0.1184  0.1919
   26MOL0     C 3496   8.805   9.297   1.607  0.8059  0.9877 -0.1259
   26MOL0     C 3497   8.669   9.298   1.563  0.6450 -1.2098  0.0415
   26MOL0     O 3498   8.385   9.303   1.514 -0.2173  0.2295 -0.0219
   26MOL0     C 3499   8.162   9.258   1.343  0.0884 -0.3325  0.6377
   26MOL0     C 3500   8.052   9.280   1.255 -0.4117 -0.6878  0.5892
   26MOL0     N 3501   7.435   9.611   0.807  0.7632 -0.0436  0.2287
   26MOL0     N 3502   7.411   9.739   0.828  0.1319 -0.2840  0.2091
   26MOL0     C 3503   7.967  10.652   1.523 -0.4809 -0.0171  1.4332
   26MOL0     C 3504   7.962  10.737   1.635 -0.4178 -0.5863  0.2191
   26MOL0     C 3505   7.816  10.887   2.036  0.1294  0.1882 -0.0660
   26MOL0     C 3506   7.819  11.020   2.003  0.3642  0.3215 -0.3286
   26MOL0     C 3507   7.799  11.122   2.096  0.8644  0.6367 -0.9333
   26MOL0     C 3508   7.751  11.078   2.222 -0.2301  0.2774  0.1461
   26MOL0     O 3509   7.716  11.158   2.328  0.2372  0.5229  0.0958
   26MOL0     C 3510   7.715  11.294   2.318 -0.2055 -0.2985 -0.4219
   26MOL0     C 3511   7.780  11.350   2.443  0.2261  0.7737  0.1198
   26MOL0     C 3512   7.930  11.371   2.448 -0.0272  0.2796 -0.8130
   26MOL0     C 3513   7.997  11.236   2.475 -0.1672 -0.0037  0.2558
   26MOL0     C 3514   8.138  11.256   2.515  0.0682  0.8911  1.2903
   26MOL0     C 3515   8.258  11.273   2.555 -0.6926  0.3438  0.1685
   26MOL0     C 3516   7.750  10.945   2.267  0.2329 -1.2268  0.8938
   26MOL0     C 3517   7.784  10.848   2.172  0.2484  0.2353 -0.4789
   26MOL0     C 3518   7.786  10.701   2.222 -0.0313 -0.0032 -0.3949
   26MOL0     H 3519   7.635  10.748   1.690  0.7473  2.7397  0.7324
   26MOL0     H 3520   7.633  10.597   1.485 -0.8257  0.8684  1.2804
   26MOL0     H 3521   7.774  10.689   1.217  3.3300  0.6130  0.8305
   26MOL0     H 3522   7.647  10.581   1.256  0.3080  3.2681 -2.2432
   26MOL0     H 3523   7.742  10.581   1.021  2.9170  0.0640 -1.2224
   26MOL0     H 3524   7.897  10.535   1.097  0.2797 -0.8597  1.5149
   26MOL0     H 3525   7.822  10.315   1.140 -0.2837  0.1295  0.7967
   26MOL0     H 3526   7.662  10.358   1.141  0.6491 -2.4778  1.0756
   26MOL0     H 3527   7.668  10.407   0.887 -1.7360 -0.1112  3.7930
   26MOL0     H 3528   7.843  10.366   0.887  1.8690 -1.3401  2.3271
   26MOL0     H 3529   7.610  10.188   0.958  0.5436  1.6732 -0.9103
   26MOL0     H 3530   7.774  10.145   1.006 -2.6690  0.0270  1.9663
   26MOL0     H 3531   7.673  10.185   0.729  0.0452 -4.3849 -3.7628
   26MOL0     H 3532   7.837  10.140   0.760  0.5164 -0.9461 -1.9929
   26MOL0     H 3533   7.776   9.933   0.884 -0.5500 -1.6943 -0.0076
   26MOL0     H 3534   7.737   9.942   0.713 -3.4793 -0.8739 -0.3844
   26MOL0     H 3535   7.529   9.984   0.945  2.1170  1.3410  1.0277
   26MOL0     H 3536   7.489   9.998   0.769  3.9114  0.4954 -4.4561
   26MOL0     H 3537   7.737   9.727   0.843 -0.5785  3.1058 -2.0123
   26MOL0     H 3538   7.624   9.408   0.704  0.6079 -3.5803  1.5445
   26MOL0     H 3539   7.578   9.395   0.878 -0.3106 -0.4597 -1.2936
   26MOL0     H 3540   7.845   9.513   0.780 -0.6050  0.8105  0.5502
   26MOL0     H 3541   7.804   9.489   0.951 -3.6588 -1.2539  1.7910
   26MOL0     H 3542   7.754   9.236   0.863  1.4527 -0.3088  0.0208
   26MOL0     H 3543   7.834   9.275   0.724 -1.9622 -1.1979  0.3131
   26MOL0     H 3544   7.977   9.150   0.896 -3.4769 -0.3838  1.4541
   26MOL0     H 3545   8.046   9.312   0.845 -3.5727  2.3212 -2.8154
   26MOL0     H 3546   8.212   9.345   0.968  2.2703  2.1234  0.2885
   26MOL0     H 3547   8.432   9.402   1.012 -2.2611  0.6843  0.1383
   26MOL0     H 3548   8.486   9.241   1.084  0.8322 -1.3471  3.9582
   26MOL0     H 3549   8.512   9.390   1.172  3.6618 -0.0775 -4.2044
   26MOL0     H 3550   8.723   9.170   1.263 -2.3646 -1.0826  0.3382
   26MOL0     H 3551   8.966   9.173   1.354  1.0031 -1.6128  2.4093
   26MOL0     H 3552   9.112   9.201   1.786 -1.5251  0.3026  1.8256
   26MOL0     H 3553   8.952   9.137   1.750  1.7297  0.4596  2.3966
   26MOL0     H 3554   9.119   8.956   1.741 -1.2887  0.3566  0.5368
   26MOL0     H 3555   9.054   8.983   1.577 -4.0908  0.9567  2.6469
   26MOL0     H 3556   9.316   9.103   1.679  2.5751  1.0890 -2.3085
   26MOL0     H 3557   9.239   9.145   1.520  0.5188  1.2722  1.4344
   26MOL0     H 3558   9.274   8.917   1.435 -1.1571 -0.0533  0.9528
   26MOL0     H 3559   9.344   8.871   1.594  4.0694  1.6999  1.1628
   26MOL0     H 3560   9.443   9.083   1.387  0.2405  0.9440  1.1783
   26MOL0     H 3561   9.515   9.069   1.545  0.5562 -1.6180  0.5519
   26MOL0     H 3562   9.639   8.956   1.376 -0.7684  1.5582 -0.1107
   26MOL0     H 3563   9.489   8.877   1.321  0.6918 -0.0844  0.3182
   26MOL0     H 3564   9.501   8.721   1.513 -0.6641 -0.8711 -1.2326
   26MOL0     H 3565   9.589   8.825   1.615  0.9175  3.0071 -1.2264
   26MOL0     H 3566   9.743   8.664   1.540 -2.3333  0.6544  2.4928
   26MOL0     H 3567   9.795   8.809   1.481 -0.9436  0.0308 -2.3948
   26MOL0     H 3568   8.823   9.347   1.702  0.3361  4.0107 -1.4939
   26MOL0     H 3569   8.591   9.349   1.618  0.2749 -1.2844 -0.4075
   26MOL0     H 3570   8.145   9.232   1.447 -0.2220 -0.2989  0.5942
   26MOL0     H 3571   7.951   9.256   1.287 -0.5697 -0.6660  0.1137
   26MOL0     H 3572   8.062  10.635   1.474 -0.1513  3.3935  0.6441
   26MOL0     H 3573   8.056  10.772   1.676  0.2512 -2.5951  0.5410
   26MOL0     H 3574   7.862  11.058   1.911  4.0155 -0.0945  1.0654
   26MOL0     H 3575   7.806  11.229   2.076  2.1734  0.8812  0.6374
   26MOL0     H 3576   7.770  11.337   2.234  2.0688 -2.1843  0.0120
   26MOL0     H 3577   7.612  11.330   2.312 -0.5484 -1.1325  0.2153
   26MOL0     H 3578   7.745  11.295   2.531 -1.0010 -0.3222 -1.0193
   26MOL0     H 3579   7.745  11.454   2.441 -1.5320  0.2047 -0.4365
   26MOL0     H 3580   7.976  11.417   2.359  1.5955  3.8395  1.5918
   26MOL0     H 3581   7.963  11.441   2.526 -0.7236  0.2019 -0.4487
   26MOL0     H 3582   7.982  11.169   2.390  0.2267 -0.0650  0.2330
   26MOL0     H 3583   7.952  11.187   2.562 -2.0839  2.2771  0.6421
   26MOL0     H 3584   8.355  11.283   2.599 -1.5130  2.6063  1.6515
   26MOL0     H 3585   7.721  10.924   2.369  0.3349 -0.1391  1.1588
   26MOL0     H 3586   7.887  10.659   2.214  1.1885  2.3912  1.4927
   26MOL0     H 3587   7.765  10.691   2.328  0.3418  1.8679 -0.1152
   26MOL0     H 3588   7.710  10.648   2.163  0.2365 -0.2761 -0.5000
   27MOL0     O 3589   9.815   5.798   3.885  0.6973  0.1468  0.9897
   27MOL0     C 3590   9.753   5.817   3.988 -0.0899  0.3433 -0.3061
   27MOL0     O 3591   9.630   5.884   3.997 -0.3654 -0.2911 -0.7274
   27MOL0     C 3592   9.589   5.945   3.877  0.2892 -0.7588  0.2935
   27MOL0     C 3593   9.655   6.055   3.836 -0.0093 -0.1914 -0.0946
   27MOL0     C 3594   9.604   6.125   3.724  0.2481 -0.2827  0.1408
   27MOL0     C 3595   9.485   6.079   3.661  0.4223 -0.0957  0.2981
   27MOL0     O 3596   9.436   6.149   3.549 -0.0188  0.7481 -0.2494
   27MOL0     C 3597   9.498   6.275   3.509  0.7270 -0.9364  0.3474
   27MOL0     C 3598   9.437   6.339   3.386  0.2875 -0.8096  0.7425
   27MOL0     C 3599   9.458   6.253   3.266 -0.3588  0.2366  0.7277
   27MOL0     C 3600   9.364   6.284   3.145 -0.7414 -0.0603  0.3064
   27MOL0     C 3601   9.235   6.205   3.126 -0.1990 -0.1643  0.1074
   27MOL0     C 3602   9.187   6.243   2.979 -0.4126 -0.7464 -0.1502
   27MOL0     C 3603   9.044   6.190   2.948 -0.2793  0.1705 -0.4947
   27MOL0     C 3604   8.926   6.273   3.029  0.6649 -0.4335  0.8424
   27MOL0     N 3605   8.942   6.418   3.030 -0.5682 -0.6017  0.6635
   27MOL0     C 3606   8.893   6.516   2.947  1.5420 -0.2576 -1.0383
   27MOL0     C 3607   8.940   6.629   2.989  0.9020 -0.1191 -0.1674
   27MOL0     C 3608   8.920   6.759   2.912  0.3517  0.1494  0.0618
   27MOL0     C 3609   8.915   6.873   3.011 -0.6982  0.0217 -0.0485
   27MOL0     C 3610   8.803   6.854   3.115  0.1005 -0.4391  0.0205
   27MOL0     C 3611   8.773   6.995   3.171  0.5253 -0.8732 -0.7901
   27MOL0     O 3612   8.718   7.083   3.079 -0.6115 -0.3329 -0.5401
   27MOL0     C 3613   8.589   7.089   3.037 -0.4748  0.2948  0.1780
   27MOL0     C 3614   8.552   7.201   2.953  0.6930 -0.1755 -0.2199
   27MOL0     C 3615   8.422   7.216   2.912  0.4217  0.6150  0.3862
   27MOL0     C 3616   8.391   7.325   2.817  0.6025 -0.1157 -0.4497
   27MOL0     C 3617   8.325   7.114   2.933  0.1354  0.8071  0.4998
   27MOL0     C 3618   8.189   7.120   2.881 -0.0649 -0.9965 -0.4619
   27MOL0     O 3619   8.146   6.999   2.849 -0.9468  0.4318  0.1105
   27MOL0     C 3620   8.046   6.985   2.763 -0.3344  0.3178  1.0942
   27MOL0     C 3621   7.904   7.006   2.794 -0.1144  0.8776  0.0483
   27MOL0     C 3622   7.798   6.994   2.699  0.3469 -0.5005  0.7279
   27MOL0     C 3623   7.830   6.977   2.568  0.5538 -0.0242  1.4751
   27MOL0     O 3624   7.757   6.972   2.454 -0.4435 -0.7389 -0.6789
   27MOL0     C 3625   7.637   7.037   2.440  0.3576  0.4208  1.3371
   27MOL0     C 3626   7.526   6.940   2.475  0.2884 -0.6606  0.8020
   27MOL0     C 3627   7.396   7.015   2.491  0.1680  0.5044  0.7512
   27MOL0     C 3628   7.345   7.002   2.637  0.4749  0.3827  1.4207
   27MOL0     C 3629   7.205   7.050   2.668  0.7571 -0.6260 -0.1579
   27MOL0     C 3630   7.099   6.989   2.578  1.2134  0.8279 -1.2135
   27MOL0     C 3631   6.952   7.004   2.617  0.5997 -0.2160  0.1651
   27MOL0     C 3632   6.913   7.149   2.615 -0.2370  0.6325 -0.1107
   27MOL0    Cl 3633   6.940   7.221   2.454 -0.4105 -0.0114 -0.0357
   27MOL0     C 3634   7.966   6.965   2.528 -0.3654  0.6924  0.3541
   27MOL0     C 3635   8.073   6.972   2.622  0.9499  0.1435 -0.0319
   27MOL0     O 3636   8.126   7.229   2.864  0.7619 -0.5010  0.7101
   27MOL0     C 3637   8.371   6.992   2.995 -0.9189 -0.3771 -0.2065
   27MOL0     C 3638   8.494   6.993   3.060  0.6844  0.1509 -0.0311
   27MOL0     N 3639   9.003   6.605   3.114 -0.1492  0.6081 -0.2441
   27MOL0     N 3640   9.016   6.481   3.130  0.0315  0.1777 -0.6007
   27MOL0     C 3641   9.425   5.969   3.710 -0.7118  0.8800  0.8543
   27MOL0     C 3642   9.464   5.911   3.823 -0.8192 -0.2445  0.3901
   27MOL0     C 3643   9.798   5.746   4.106 -0.1819 -0.2956  0.2646
   27MOL0     C 3644   9.718   5.644   4.150 -0.0973  0.3312 -0.4111
   27MOL0     C 3645   9.766   5.556   4.250 -0.2650 -0.3699  0.2456
   27MOL0     C 3646   9.898   5.571   4.297  0.2611 -0.1709 -0.1292
   27MOL0     O 3647   9.948   5.484   4.393  0.3570  0.3991  0.4007
   27MOL0     C 3648  10.072   5.520   4.450 -0.0863 -0.9317 -0.0698
   27MOL0     C 3649  10.107   5.415   4.558  0.1701  0.2063 -1.1237
   27MOL0     C 3650  10.100   5.274   4.510 -0.4573  1.3115  0.5594
   27MOL0     C 3651  10.157   5.260   4.371  0.3267  0.2572 -0.0457
   27MOL0     C 3652  10.179   5.116   4.323  0.8798 -1.2604 -0.3304
   27MOL0     C 3653  10.201   5.003   4.292  0.1250  0.5328  0.4675
   27MOL0     C 3654   9.970   5.680   4.243  0.0058  1.2161 -0.1307
   27MOL0     C 3655   9.923   5.770   4.150  0.6258 -0.4806  1.1394
   27MOL0     C 3656  10.004   5.888   4.101  0.4402  0.4721  0.2778
   27MOL0     H 3657   9.733   6.096   3.899  0.5902  0.3517 -1.1607
   27MOL0     H 3658   9.642   6.220   3.690 -0.3112  0.0654  0.4720
   27MOL0     H 3659   9.602   6.261   3.477  0.8242  1.6910 -0.6905
   27MOL0     H 3660   9.497   6.344   3.594 -3.7050  0.3412 -0.5128
   27MOL0     H 3661   9.330   6.363   3.393  0.1552 -1.1693  0.0746
   27MOL0     H 3662   9.485   6.437   3.375 -3.3779  1.0011 -1.2337
   27MOL0     H 3663   9.561   6.268   3.235  0.2357  3.4569  3.6638
   27MOL0     H 3664   9.442   6.150   3.296  3.4348  0.1500  3.0652
   27MOL0     H 3665   9.334   6.387   3.164  0.3383 -0.0385  2.1226
   27MOL0     H 3666   9.425   6.273   3.054  0.9786 -1.9362  1.5856
   27MOL0     H 3667   9.179   6.225   3.218  3.7619  1.9632  2.3614
   27MOL0     H 3668   9.254   6.097   3.118  0.9651 -0.0348  0.8129
   27MOL0     H 3669   9.179   6.351   2.960 -3.9686 -1.0849 -1.2231
   27MOL0     H 3670   9.267   6.211   2.913  0.2945 -1.8037  1.1722
   27MOL0     H 3671   9.034   6.082   2.962  0.6511  0.2394  0.9853
   27MOL0     H 3672   9.030   6.215   2.843  0.9416  2.7126 -0.1313
   27MOL0     H 3673   8.832   6.259   2.974  2.2866  2.2815 -3.0914
   27MOL0     H 3674   8.917   6.231   3.129 -2.5449  0.0564  0.8656
   27MOL0     H 3675   8.828   6.495   2.862 -1.6213  1.5908  0.7329
   27MOL0     H 3676   8.829   6.754   2.851 -0.6003  2.2655  1.1849
   27MOL0     H 3677   9.003   6.777   2.843 -0.0000 -3.7542 -1.6476
   27MOL0     H 3678   9.011   6.887   3.061  0.6229 -1.0952 -2.1364
   27MOL0     H 3679   8.905   6.973   2.967  0.7812  2.6931  4.9169
   27MOL0     H 3680   8.706   6.817   3.079 -0.8567 -1.0261  2.9222
   27MOL0     H 3681   8.831   6.792   3.201 -2.2227 -0.9678  0.4856
   27MOL0     H 3682   8.712   6.981   3.261  0.0963  0.0119 -0.9214
   27MOL0     H 3683   8.863   7.043   3.210  0.1269 -1.5056  0.9653
   27MOL0     H 3684   8.618   7.273   2.906 -1.7243  1.1834 -1.7702
   27MOL0     H 3685   8.479   7.386   2.795  0.9451 -0.1752  0.6777
   27MOL0     H 3686   8.323   7.388   2.874 -1.5757 -3.6512  1.2281
   27MOL0     H 3687   8.336   7.291   2.729  0.3076 -0.4612 -0.1341
   27MOL0     H 3688   7.893   7.027   2.900  2.3033 -3.3245  1.3842
   27MOL0     H 3689   7.699   7.006   2.740 -0.9191 -0.5396 -2.1299
   27MOL0     H 3690   7.633   7.134   2.491 -0.4123  1.7605 -1.1134
   27MOL0     H 3691   7.620   7.071   2.338  1.5601 -3.1204 -0.2205
   27MOL0     H 3692   7.518   6.862   2.398  0.1897  1.3635 -1.3399
   27MOL0     H 3693   7.545   6.892   2.571 -1.7148  0.2289  1.6832
   27MOL0     H 3694   7.320   6.962   2.432  1.0833 -2.0162  1.7102
   27MOL0     H 3695   7.403   7.119   2.458 -0.5687  0.2442 -0.2630
   27MOL0     H 3696   7.408   7.055   2.710  0.9312  2.3924 -0.3162
   27MOL0     H 3697   7.350   6.894   2.656  1.4613  0.2186  0.3170
   27MOL0     H 3698   7.169   7.014   2.765  2.3823  0.7977  1.0388
   27MOL0     H 3699   7.212   7.159   2.667 -1.7559 -0.3588 -2.8868
   27MOL0     H 3700   7.104   6.880   2.562  1.2178  0.2646  1.9409
   27MOL0     H 3701   7.110   7.036   2.480 -0.0799 -2.0272 -2.8611
   27MOL0     H 3702   6.935   6.965   2.718  1.4745 -0.0157  0.4076
   27MOL0     H 3703   6.884   6.941   2.559  1.5105  0.6565 -1.9700
   27MOL0     H 3704   6.992   7.187   2.680  0.6274  0.7533 -1.2130
   27MOL0     H 3705   6.813   7.156   2.659  0.3371  0.1114  1.3427
   27MOL0     H 3706   8.004   6.954   2.427  2.7293  1.7534  1.2747
   27MOL0     H 3707   8.173   6.974   2.581  1.2366  0.5747  0.6631
   27MOL0     H 3708   8.304   6.911   3.020 -1.2819  0.2662  0.9919
   27MOL0     H 3709   8.530   6.907   3.116  3.3235  0.0771 -1.6536
   27MOL0     H 3710   9.351   5.908   3.658  0.7966 -0.2840 -0.0486
   27MOL0     H 3711   9.414   5.822   3.859 -1.7561  0.1666  0.1342
   27MOL0     H 3712   9.619   5.624   4.110  1.1883 -3.4986 -2.1375
   27MOL0     H 3713   9.695   5.482   4.286 -1.2014 -0.0532 -0.8705
   27MOL0     H 3714  10.151   5.524   4.375 -0.3883  1.2468 -0.3510
   27MOL0     H 3715  10.062   5.622   4.488  2.9861 -0.6670  0.3039
   27MOL0     H 3716  10.034   5.413   4.639 -1.8123 -2.0617 -2.8334
   27MOL0     H 3717  10.208   5.432   4.597 -0.2080 -1.1930  0.6020
   27MOL0     H 3718  10.149   5.219   4.590 -3.2511  1.5794  2.5955
   27MOL0     H 3719   9.996   5.239   4.504 -0.6151  1.9727 -1.5492
   27MOL0     H 3720  10.242   5.329   4.372 -1.4726  2.6847 -1.3007
   27MOL0     H 3721  10.086   5.298   4.298 -2.6119 -4.2134  0.1094
   27MOL0     H 3722  10.227   4.905   4.257  1.7393  0.8010  0.8584
   27MOL0     H 3723  10.075   5.696   4.264  1.2335 -2.4429 -2.5475
   27MOL0     H 3724   9.935   5.974   4.093 -0.6114 -0.4874 -1.6233
   27MOL0     H 3725  10.084   5.915   4.171 -0.5741  0.9040  1.3091
   27MOL0     H 3726  10.043   5.868   4.001 -0.0573  2.0390 -0.2604
   28MOL0     O 3727   0.190   1.272   2.150 -0.4846 -0.5564 -0.3247
   28MOL0     C 3728   0.269   1.271   2.247  0.2081 -0.0122 -0.0207
   28MOL0     O 3729   0.230   1.280   2.379  0.0328 -0.1307 -0.0972
   28MOL0     C 3730   0.098   1.293   2.419 -0.6775 -0.7656 -0.0629
   28MOL0     C 3731   0.060   1.405   2.489 -0.2497  0.2105 -0.1135
   28MOL0     C 3732  -0.074   1.433   2.535  0.3229 -1.4757 -0.4509
   28MOL0     C 3733  -0.175   1.344   2.512 -0.1197  0.0632  0.0808
   28MOL0     O 3734  -0.306   1.368   2.539 -0.2797 -0.0332 -0.6736
   28MOL0     C 3735  -0.353   1.505   2.529 -0.2348  0.1204 -0.1914
   28MOL0     C 3736  -0.508   1.504   2.504  0.4914 -0.9339 -1.1290
   28MOL0     C 3737  -0.565   1.398   2.407 -1.1740  0.4095  0.5865
   28MOL0     C 3738  -0.710   1.368   2.427 -0.2697  0.6244 -1.9911
   28MOL0     C 3739  -0.753   1.267   2.326 -0.0313  0.3895  0.5916
   28MOL0     C 3740  -0.709   1.127   2.364  0.3991 -0.0343 -0.3163
   28MOL0     C 3741  -0.778   1.013   2.281  0.0057 -0.9318  0.0210
   28MOL0     C 3742  -0.810   0.899   2.359  0.3512 -1.0443 -0.2835
   28MOL0     N 3743  -0.860   0.794   2.273 -0.8887 -0.4674 -0.6601
   28MOL0     C 3744  -0.789   0.726   2.181  0.9790  0.6855 -0.5664
   28MOL0     C 3745  -0.877   0.633   2.133  0.0506  0.0931  1.7239
   28MOL0     C 3746  -0.839   0.535   2.034  0.0194  0.4150  0.3317
   28MOL0     C 3747  -0.770   0.409   2.097  0.0099  1.1459  0.9368
   28MOL0     C 3748  -0.703   0.315   1.984  0.4628 -0.1559 -1.1732
   28MOL0     C 3749  -0.572   0.262   2.050  0.2252  0.7939  0.4875
   28MOL0     O 3750  -0.531   0.159   1.966 -0.2015 -0.2145  0.7950
   28MOL0     C 3751  -0.420   0.096   2.006 -0.7684  0.7567  0.1128
   28MOL0     C 3752  -0.294   0.126   1.959 -0.0269  0.9773 -0.1532
   28MOL0     C 3753  -0.180   0.058   1.991  0.0154 -0.0747  0.4481
   28MOL0     C 3754  -0.045   0.116   1.933  0.3896 -0.3489 -0.4697
   28MOL0     C 3755  -0.187  -0.056   2.064 -0.2265 -0.0226 -0.4396
   28MOL0     C 3756  -0.074  -0.147   2.079  0.3573  0.3213 -0.1734
   28MOL0     O 3757   0.043  -0.132   2.006 -0.3992 -0.0316 -0.7742
   28MOL0     C 3758   0.161  -0.190   2.068  0.2362 -0.4914 -0.6004
   28MOL0     C 3759   0.252  -0.123   2.147  0.5620 -0.2952 -0.7093
   28MOL0     C 3760   0.357  -0.189   2.222  0.4251 -0.6110  0.0012
   28MOL0     C 3761   0.376  -0.325   2.206 -0.1120  0.0211 -0.3886
   28MOL0     O 3762   0.472  -0.390   2.282 -1.0141  0.1763 -0.5506
   28MOL0     C 3763   0.408  -0.438   2.408 -0.2854 -0.2591 -1.1621
   28MOL0     C 3764   0.469  -0.551   2.485 -0.5341  0.1829  0.6783
   28MOL0     C 3765   0.624  -0.532   2.512 -0.6918  0.0550 -0.2927
   28MOL0     C 3766   0.683  -0.671   2.559  0.5178  0.0730 -0.4491
   28MOL0     C 3767   0.617  -0.737   2.682  0.8652 -0.6241 -0.1264
   28MOL0     C 3768   0.678  -0.854   2.732 -0.1366  0.1858 -0.5466
   28MOL0     C 3769   0.628  -0.920   2.860 -0.1782  0.7580  0.7842
   28MOL0     C 3770   0.691  -1.059   2.873  0.9215  1.0041 -0.7448
   28MOL0    Cl 3771   0.868  -1.053   2.881 -0.2922  0.0092  0.0089
   28MOL0     C 3772   0.295  -0.395   2.122  0.3299  0.1809  1.4687
   28MOL0     C 3773   0.180  -0.332   2.051 -0.8044  0.1666 -0.0894
   28MOL0     O 3774  -0.094  -0.254   2.148  0.2227 -0.5841  0.5295
   28MOL0     C 3775  -0.313  -0.103   2.115 -0.9544 -0.7942 -0.8213
   28MOL0     C 3776  -0.423  -0.021   2.091  1.1032 -0.1513 -0.2195
   28MOL0     N 3777  -0.995   0.643   2.193  0.1041  0.7373 -0.8086
   28MOL0     N 3778  -0.982   0.732   2.285 -0.5684 -0.4716 -0.4681
   28MOL0     C 3779  -0.135   1.235   2.443  0.4551  0.0839 -1.0444
   28MOL0     C 3780  -0.006   1.205   2.397 -0.4896 -0.8295  0.2469
   28MOL0     C 3781   0.420   1.260   2.226  0.8929  0.6727  0.0037
   28MOL0     C 3782   0.460   1.239   2.091 -0.2054  0.3412 -0.3541
   28MOL0     C 3783   0.594   1.221   2.053  0.0598  0.4255 -0.4132
   28MOL0     C 3784   0.696   1.226   2.146 -0.7415 -1.4498 -0.4464
   28MOL0     O 3785   0.830   1.214   2.113  0.0672 -0.0404 -0.1722
   28MOL0     C 3786   0.932   1.291   2.183 -0.6688 -0.4038 -0.1641
   28MOL0     C 3787   1.040   1.191   2.224  0.8814 -0.1072 -0.2593
   28MOL0     C 3788   0.993   1.091   2.335  0.7207 -0.6900 -0.3746
   28MOL0     C 3789   1.120   1.021   2.390  0.4708 -0.3474 -0.1437
   28MOL0     C 3790   1.201   0.968   2.280  0.4244  0.1308 -0.1058
   28MOL0     C 3791   1.271   0.919   2.196  0.4433  0.0122 -0.0516
   28MOL0     C 3792   0.661   1.246   2.279  0.1341 -0.9220  0.0562
   28MOL0     C 3793   0.521   1.265   2.319  0.0794 -0.1699  0.6014
   28MOL0     C 3794   0.499   1.310   2.468  0.0849 -0.0617  0.3534
   28MOL0     H 3795   0.139   1.472   2.523 -1.5183  1.7458 -0.1073
   28MOL0     H 3796  -0.101   1.517   2.598 -2.7796 -4.2397  2.3199
   28MOL0     H 3797  -0.316   1.554   2.438 -0.9560  1.3037  0.1195
   28MOL0     H 3798  -0.317   1.556   2.619 -0.0508  1.0471 -0.7669
   28MOL0     H 3799  -0.549   1.491   2.605 -1.1608  0.8687 -1.5106
   28MOL0     H 3800  -0.542   1.605   2.481 -2.6207 -1.4040  0.7861
   28MOL0     H 3801  -0.541   1.444   2.311 -0.0282  0.5218  0.9001
   28MOL0     H 3802  -0.505   1.306   2.412 -1.0601  0.5214  1.6562
   28MOL0     H 3803  -0.745   1.331   2.524  0.4160  1.8109 -1.2649
   28MOL0     H 3804  -0.772   1.458   2.416 -2.3143  0.2567  3.4753
   28MOL0     H 3805  -0.721   1.297   2.225 -1.2255 -2.7352 -0.8598
   28MOL0     H 3806  -0.862   1.268   2.326 -0.1067 -1.3745  2.4665
   28MOL0     H 3807  -0.602   1.127   2.342 -0.2449  0.0923 -3.9780
   28MOL0     H 3808  -0.728   1.118   2.472 -0.6649  0.4373 -0.4518
   28MOL0     H 3809  -0.710   0.996   2.197 -1.8237 -4.0045 -1.0390
   28MOL0     H 3810  -0.867   1.049   2.227  0.1695 -1.8536 -0.9015
   28MOL0     H 3811  -0.738   0.858   2.431 -2.6044 -1.3499  2.7533
   28MOL0     H 3812  -0.902   0.913   2.416  1.0798 -1.2695  0.9996
   28MOL0     H 3813  -0.684   0.731   2.154  1.9763  1.0744  2.8649
   28MOL0     H 3814  -0.776   0.578   1.955 -3.3712  1.6263 -1.9328
   28MOL0     H 3815  -0.929   0.497   1.984  0.1672  1.6065 -0.8864
   28MOL0     H 3816  -0.697   0.439   2.173  0.2714  2.1639  0.3030
   28MOL0     H 3817  -0.849   0.345   2.136  1.2067 -0.5898  0.6089
   28MOL0     H 3818  -0.775   0.238   1.955  3.5856 -2.9652 -2.1124
   28MOL0     H 3819  -0.674   0.366   1.892  2.8932 -2.0690 -1.5604
   28MOL0     H 3820  -0.506   0.345   2.075  1.2930  0.6731 -1.7151
   28MOL0     H 3821  -0.590   0.225   2.152 -0.2551  1.0619  0.5022
   28MOL0     H 3822  -0.288   0.197   1.877  0.8254  0.3006 -0.6939
   28MOL0     H 3823   0.030   0.117   2.013 -1.3582 -1.6405  1.2995
   28MOL0     H 3824  -0.071   0.221   1.917 -0.2546 -0.2987  0.7659
   28MOL0     H 3825  -0.004   0.057   1.851  2.4148  0.1982  0.0887
   28MOL0     H 3826   0.243  -0.019   2.174 -2.7025 -0.6432  0.0311
   28MOL0     H 3827   0.416  -0.130   2.292  2.5540 -1.5040 -0.9561
   28MOL0     H 3828   0.421  -0.357   2.480  1.0222  1.3306 -3.0859
   28MOL0     H 3829   0.300  -0.455   2.402 -0.3159 -0.9900  0.7136
   28MOL0     H 3830   0.412  -0.567   2.576 -1.3667 -0.0146  0.1334
   28MOL0     H 3831   0.446  -0.646   2.436 -1.3219  0.7010 -0.0021
   28MOL0     H 3832   0.641  -0.455   2.587  3.2951 -1.4396  0.5840
   28MOL0     H 3833   0.678  -0.502   2.421  0.7571  0.2636  0.5990
   28MOL0     H 3834   0.789  -0.652   2.580  0.5366 -2.1862  2.0413
   28MOL0     H 3835   0.658  -0.742   2.480  1.8985 -2.2312  1.0825
   28MOL0     H 3836   0.618  -0.665   2.765 -2.7625  0.5520 -0.9047
   28MOL0     H 3837   0.513  -0.753   2.651  0.5094 -1.6916  1.5209
   28MOL0     H 3838   0.781  -0.822   2.746 -0.5235  1.8953 -1.2818
   28MOL0     H 3839   0.666  -0.924   2.648  2.0080  0.8505 -1.4717
   28MOL0     H 3840   0.520  -0.938   2.858 -0.1222  0.4417 -0.0632
   28MOL0     H 3841   0.647  -0.866   2.953 -0.4728  0.2430  1.1454
   28MOL0     H 3842   0.648  -1.108   2.785 -2.5800  0.8880  0.8519
   28MOL0     H 3843   0.649  -1.100   2.966  0.3986  1.3253 -0.8357
   28MOL0     H 3844   0.305  -0.500   2.097 -1.5451  0.7382 -2.5096
   28MOL0     H 3845   0.124  -0.397   1.984 -1.0646 -1.7610  1.8991
   28MOL0     H 3846  -0.337  -0.181   2.187 -0.8030  1.0672  1.3895
   28MOL0     H 3847  -0.522  -0.030   2.136  0.0031  3.6230 -1.5264
   28MOL0     H 3848  -0.218   1.171   2.416 -1.5529  0.9926  2.4165
   28MOL0     H 3849   0.007   1.115   2.337 -1.8922  0.0969 -1.5611
   28MOL0     H 3850   0.391   1.261   2.011  0.2831  2.4111 -0.2574
   28MOL0     H 3851   0.624   1.206   1.950  0.9938  0.8764 -0.2207
   28MOL0     H 3852   0.972   1.361   2.110 -3.2538  0.3361 -0.9879
   28MOL0     H 3853   0.912   1.363   2.263  0.6570 -0.6456  0.4138
   28MOL0     H 3854   1.131   1.244   2.254  1.7711 -1.9150  0.3562
   28MOL0     H 3855   1.070   1.144   2.130  1.0845  0.3647 -0.4356
   28MOL0     H 3856   0.956   1.154   2.416  0.0180 -2.5488  0.8322
   28MOL0     H 3857   0.919   1.023   2.291  0.3666 -0.4003 -0.2262
   28MOL0     H 3858   1.092   0.948   2.467 -0.0200  0.1732  0.1840
   28MOL0     H 3859   1.188   1.092   2.439  0.6624  1.1333 -2.4271
   28MOL0     H 3860   1.342   0.868   2.135  0.4023  0.0855 -0.1626
   28MOL0     H 3861   0.741   1.267   2.348  3.3054 -0.7698 -3.3450
   28MOL0     H 3862   0.440   1.238   2.527 -1.1320  2.2649  2.1426
   28MOL0     H 3863   0.600   1.305   2.510  0.3357 -4.3151 -0.2831
   28MOL0     H 3864   0.458   1.411   2.478  1.1245  0.5506 -1.3013
   29MOL0     O 3865  10.024   5.387   2.271  1.1800  0.4126  0.8170
   29MOL0     C 3866  10.059   5.494   2.224  0.2249  0.5648 -0.0729
   29MOL0     O 3867  10.186   5.533   2.218 -0.0785  0.0418 -0.0088
   29MOL0     C 3868  10.286   5.454   2.266  0.1861 -0.5563  0.7534
   29MOL0     C 3869  10.290   5.307   2.268  0.4545 -0.1401  1.4146
   29MOL0     C 3870  10.400   5.234   2.319 -0.2940  0.2901 -0.1356
   29MOL0     C 3871  10.514   5.295   2.377 -0.1276 -0.4878 -0.8229
   29MOL0     O 3872  10.623   5.225   2.412 -0.1322 -0.6561 -0.2722
   29MOL0     C 3873  10.708   5.195   2.300 -1.3648  0.6284  0.1378
   29MOL0     C 3874  10.693   5.064   2.226  0.4302 -0.1441  0.0587
   29MOL0     C 3875  10.668   4.957   2.327  0.1298  0.5631  0.2819
   29MOL0     C 3876  10.746   4.831   2.279  0.5417  0.2098 -0.9044
   29MOL0     C 3877  10.688   4.707   2.349 -1.0859  0.7809 -0.2415
   29MOL0     C 3878  10.657   4.716   2.483 -0.0600 -0.9285 -0.3463
   29MOL0     C 3879  10.621   4.585   2.552  0.4457  0.0489  0.6004
   29MOL0     C 3880  10.682   4.576   2.695  0.6349 -0.1063  0.0722
   29MOL0     N 3881  10.830   4.568   2.708 -0.2151  0.7435  1.0062
   29MOL0     C 3882  10.915   4.493   2.621  0.4244  0.4727  0.0586
   29MOL0     C 3883  11.039   4.519   2.673  0.1191 -0.2181 -0.3576
   29MOL0     C 3884  11.174   4.490   2.622 -0.3456  0.3086 -0.1205
   29MOL0     C 3885  11.230   4.372   2.691  0.7807  0.5280  1.0262
   29MOL0     C 3886  11.142   4.242   2.649  0.5132 -0.2830  0.3342
   29MOL0     C 3887  11.190   4.113   2.700  0.5441 -0.1960 -0.6786
   29MOL0     O 3888  11.207   4.124   2.840 -0.4227 -0.4158  0.6269
   29MOL0     C 3889  11.243   4.021   2.923  0.6241 -0.0423 -0.2566
   29MOL0     C 3890  11.235   4.046   3.066 -0.8720  0.3298  0.5418
   29MOL0     C 3891  11.265   3.947   3.154  0.0754  0.2134 -0.7241
   29MOL0     C 3892  11.254   3.980   3.299  0.7382  0.2340  0.7114
   29MOL0     C 3893  11.295   3.819   3.102  0.6023  0.0468 -0.1342
   29MOL0     C 3894  11.295   3.705   3.197  0.0936  0.7545  0.1561
   29MOL0     O 3895  11.238   3.589   3.153  1.5908  0.3175  0.1927
   29MOL0     C 3896  11.172   3.502   3.247 -0.7273 -0.1511  0.4757
   29MOL0     C 3897  11.038   3.480   3.225  1.1525  1.3390  0.7514
   29MOL0     C 3898  10.965   3.396   3.309  1.0670 -0.8764  0.5855
   29MOL0     C 3899  11.022   3.341   3.419  0.3287  0.2794 -0.0986
   29MOL0     O 3900  10.942   3.252   3.492  0.1901  0.8248  0.2783
   29MOL0     C 3901  11.001   3.223   3.618  1.3976 -0.0293 -0.6774
   29MOL0     C 3902  11.085   3.101   3.601  0.8069 -0.6429 -0.3920
   29MOL0     C 3903  11.120   3.049   3.740 -0.7432 -0.3330 -0.6758
   29MOL0     C 3904  11.228   2.941   3.735  0.0420 -0.9496  0.0697
   29MOL0     C 3905  11.276   2.919   3.870 -0.3575 -0.5131 -0.1483
   29MOL0     C 3906  11.412   2.869   3.870 -0.6339  0.3026  0.1330
   29MOL0     C 3907  11.421   2.733   3.783  0.1533 -0.8233  0.1359
   29MOL0     C 3908  11.327   2.621   3.836  0.9864 -0.2185  1.2469
   29MOL0    Cl 3909  11.367   2.538   3.987 -0.0036  0.5201 -0.3521
   29MOL0     C 3910  11.154   3.379   3.443  0.9159 -0.2327  0.8266
   29MOL0     C 3911  11.236   3.438   3.351 -0.5257  1.0441  0.5387
   29MOL0     O 3912  11.338   3.718   3.314 -0.7542  0.3944  0.0425
   29MOL0     C 3913  11.303   3.791   2.965  0.1443 -0.1554 -0.5565
   29MOL0     C 3914  11.279   3.891   2.872  0.7803 -0.7576  0.3320
   29MOL0     N 3915  11.024   4.615   2.776 -0.2138 -0.0992 -0.3878
   29MOL0     N 3916  10.902   4.650   2.780 -0.8571  0.4740 -0.9336
   29MOL0     C 3917  10.507   5.438   2.379 -0.6736  0.1619  0.9548
   29MOL0     C 3918  10.396   5.515   2.326  0.9089  0.4844 -0.8623
   29MOL0     C 3919   9.966   5.589   2.167 -0.7552  0.3612  0.4246
   29MOL0     C 3920  10.032   5.694   2.089 -0.1445  0.1124 -0.2921
   29MOL0     C 3921   9.948   5.771   2.016  0.2695 -0.1027 -0.2106
   29MOL0     C 3922   9.806   5.749   2.006 -0.5260  0.5883 -0.0586
   29MOL0     O 3923   9.732   5.826   1.928  0.2974 -0.5167 -0.0465
   29MOL0     C 3924   9.691   5.944   1.997 -0.7785 -0.3571  0.2190
   29MOL0     C 3925   9.543   5.972   1.957  0.1556  0.2595  0.1169
   29MOL0     C 3926   9.470   6.071   2.052  0.1914  0.1832 -1.2319
   29MOL0     C 3927   9.517   6.221   2.039 -1.0720  0.9926 -0.8062
   29MOL0     C 3928   9.649   6.246   2.106  0.2780  0.6201  0.7831
   29MOL0     C 3929   9.746   6.285   2.169  0.0408  0.4273  0.1209
   29MOL0     C 3930   9.747   5.650   2.085  0.2919 -0.5966 -0.0573
   29MOL0     C 3931   9.823   5.563   2.167  0.0029 -0.2729  1.0011
   29MOL0     C 3932   9.746   5.443   2.227 -0.1326 -0.3325 -0.1966
   29MOL0     H 3933  10.215   5.244   2.221  2.9138 -2.4394  0.3572
   29MOL0     H 3934  10.412   5.126   2.323  0.3091  0.2441 -2.1225
   29MOL0     H 3935  10.811   5.194   2.338 -0.4590  1.4936 -2.1325
   29MOL0     H 3936  10.719   5.281   2.234 -0.8701 -0.6374 -1.5232
   29MOL0     H 3937  10.602   5.076   2.166 -1.7905 -1.9062  2.8212
   29MOL0     H 3938  10.776   5.048   2.156  1.2568 -1.3180  1.2527
   29MOL0     H 3939  10.704   4.992   2.424  3.5186  2.0603 -1.3472
   29MOL0     H 3940  10.561   4.935   2.335  0.3145 -1.5482 -1.8641
   29MOL0     H 3941  10.748   4.823   2.170  0.6031 -2.4247 -0.7747
   29MOL0     H 3942  10.844   4.846   2.325  0.4464  1.3919 -1.0579
   29MOL0     H 3943  10.763   4.630   2.333 -4.2042 -2.9015  1.3560
   29MOL0     H 3944  10.594   4.695   2.295 -1.7069  0.0153  0.9717
   29MOL0     H 3945  10.739   4.751   2.547 -0.8245 -3.6641  2.3907
   29MOL0     H 3946  10.562   4.769   2.500  0.6207 -0.5614  3.0163
   29MOL0     H 3947  10.664   4.507   2.489  1.9385  1.7327 -0.6058
   29MOL0     H 3948  10.514   4.563   2.553  0.6007 -1.4508 -2.3520
   29MOL0     H 3949  10.647   4.669   2.740 -4.4377 -0.7846 -1.8670
   29MOL0     H 3950  10.644   4.492   2.754  1.6648 -1.6400 -1.3297
   29MOL0     H 3951  10.886   4.419   2.547  1.0065  0.7892 -0.4995
   29MOL0     H 3952  11.245   4.571   2.641  0.6357 -0.1920 -1.4822
   29MOL0     H 3953  11.171   4.475   2.513  3.1989  1.0491 -0.4309
   29MOL0     H 3954  11.327   4.360   2.642  0.2192  2.2714 -0.5984
   29MOL0     H 3955  11.244   4.391   2.798  0.7497  0.3674  1.0597
   29MOL0     H 3956  11.037   4.264   2.670 -0.3499 -1.9279 -1.9652
   29MOL0     H 3957  11.148   4.233   2.541  1.4108 -2.0300  0.5093
   29MOL0     H 3958  11.118   4.034   2.677 -0.5182  0.4996  0.1513
   29MOL0     H 3959  11.288   4.098   2.655  0.3897  0.3694 -1.2003
   29MOL0     H 3960  11.214   4.145   3.105  4.1472  1.3924  1.2809
   29MOL0     H 3961  11.178   3.918   3.346  1.3184 -2.6515 -1.8640
   29MOL0     H 3962  11.234   4.087   3.310  0.2240  0.3920 -1.4046
   29MOL0     H 3963  11.352   3.969   3.346  1.3261  1.7225 -0.0674
   29MOL0     H 3964  10.994   3.528   3.138  2.0518 -0.2175 -0.6291
   29MOL0     H 3965  10.858   3.383   3.299  0.8730  0.2471  1.1137
   29MOL0     H 3966  11.049   3.312   3.662 -0.9340  1.6133 -1.2430
   29MOL0     H 3967  10.917   3.195   3.682 -0.7506  2.7521 -2.0547
   29MOL0     H 3968  11.016   3.030   3.556  2.0007 -3.3156  1.6661
   29MOL0     H 3969  11.174   3.114   3.538 -0.1857  3.2343 -1.2318
   29MOL0     H 3970  11.040   2.994   3.791  1.4920 -3.4654 -0.2894
   29MOL0     H 3971  11.139   3.134   3.806 -1.6739  0.0973 -0.9429
   29MOL0     H 3972  11.311   2.985   3.678  1.6357  0.1005  3.0037
   29MOL0     H 3973  11.189   2.848   3.694  2.3189 -2.2701  0.7656
   29MOL0     H 3974  11.280   3.012   3.928 -0.3971 -1.2841  1.1442
   29MOL0     H 3975  11.214   2.853   3.931 -0.5182  1.1196  1.5607
   29MOL0     H 3976  11.445   2.855   3.974 -0.2852 -2.9254 -0.3171
   29MOL0     H 3977  11.485   2.941   3.834  1.3321 -1.9152 -0.6079
   29MOL0     H 3978  11.519   2.684   3.771 -1.0605 -3.2779 -0.4506
   29MOL0     H 3979  11.414   2.769   3.681  3.0428  1.6493  0.6588
   29MOL0     H 3980  11.307   2.546   3.760 -2.6856  3.6115 -2.0800
   29MOL0     H 3981  11.228   2.664   3.854  0.9277 -0.2897  1.0966
   29MOL0     H 3982  11.207   3.346   3.532 -0.3603 -0.3159  1.5749
   29MOL0     H 3983  11.341   3.456   3.374  0.0161 -0.8745 -0.2161
   29MOL0     H 3984  11.333   3.689   2.944  0.1399  0.0284 -1.4856
   29MOL0     H 3985  11.316   3.863   2.774 -3.0220 -0.3359 -1.4209
   29MOL0     H 3986  10.591   5.493   2.420 -0.9274 -0.8895  3.0719
   29MOL0     H 3987  10.392   5.624   2.331 -1.8834  0.5617 -2.7078
   29MOL0     H 3988  10.140   5.708   2.084  0.3503 -2.1832  2.2553
   29MOL0     H 3989   9.983   5.834   1.935 -0.0974 -4.4932 -4.1632
   29MOL0     H 3990   9.688   5.922   2.104  2.1831 -0.4563  0.3643
   29MOL0     H 3991   9.752   6.035   1.996  1.8719 -1.8457  3.3486
   29MOL0     H 3992   9.480   5.884   1.939 -0.0666  0.7111 -1.5064
   29MOL0     H 3993   9.527   6.026   1.863  0.6564  0.7679  0.3176
   29MOL0     H 3994   9.362   6.082   2.051  0.0095  1.0031  3.3103
   29MOL0     H 3995   9.484   6.027   2.152  1.8590 -0.0509 -1.5371
   29MOL0     H 3996   9.439   6.286   2.080 -1.9600 -0.5212  0.0108
   29MOL0     H 3997   9.532   6.246   1.934 -0.9806  0.6888 -0.8672
   29MOL0     H 3998   9.826   6.323   2.230 -0.5908  0.7082  0.7932
   29MOL0     H 3999   9.639   5.640   2.076  0.4721 -2.8131 -0.2343
   29MOL0     H 4000   9.639   5.441   2.204 -1.0048 -1.5543  3.3671
   29MOL0     H 4001   9.777   5.351   2.178 -1.2579 -1.5932  1.3668
   29MOL0     H 4002   9.756   5.434   2.336 -0.3403 -1.7543 -0.2760
   30MOL0     O 4003   4.051   3.208   2.444  0.3513 -0.5855 -0.2478
   30MOL0     C 4004   4.021   3.257   2.556 -0.4296 -0.2877  0.9405
   30MOL0     O 4005   3.891   3.280   2.600 -0.6675 -0.6801 -0.3203
   30MOL0     C 4006   3.797   3.243   2.511  0.2922 -0.2450 -0.4807
   30MOL0     C 4007   3.748   3.336   2.425  0.2176  0.1112  0.4909
   30MOL0     C 4008   3.673   3.305   2.314 -0.6546 -0.3880  1.2620
   30MOL0     C 4009   3.647   3.166   2.295 -0.4228  0.7212  0.8051
   30MOL0     O 4010   3.585   3.143   2.169 -0.8253  0.4314 -0.5912
   30MOL0     C 4011   3.525   3.019   2.140 -0.8511  0.9014 -0.1174
   30MOL0     C 4012   3.627   2.900   2.126  0.0331 -0.0687  0.1692
   30MOL0     C 4013   3.746   2.936   2.043  0.4361 -0.5955  0.5449
   30MOL0     C 4014   3.829   2.813   1.995  0.1865 -0.0127 -0.1918
   30MOL0     C 4015   3.917   2.744   2.086 -0.3311 -0.0380 -0.3288
   30MOL0     C 4016   4.009   2.645   2.010  0.8742 -0.5931 -0.3096
   30MOL0     C 4017   4.152   2.685   1.970  0.1254 -0.1126  0.3076
   30MOL0     C 4018   4.249   2.571   1.962  0.4142  0.3549  0.2353
   30MOL0     N 4019   4.387   2.601   1.931 -0.9535  1.4680  0.1752
   30MOL0     C 4020   4.451   2.723   1.921 -0.3892 -1.0723  0.2246
   30MOL0     C 4021   4.547   2.700   1.831  0.2516 -0.4498 -0.3583
   30MOL0     C 4022   4.632   2.803   1.757 -0.5976 -0.5201  0.6149
   30MOL0     C 4023   4.549   2.867   1.641  0.2955 -0.1311  0.2029
   30MOL0     C 4024   4.434   2.962   1.691  0.6250 -1.0282  0.0714
   30MOL0     C 4025   4.381   3.055   1.581  0.0991  0.1976  0.2830
   30MOL0     O 4026   4.388   2.999   1.445  0.0933 -0.0137 -0.8101
   30MOL0     C 4027   4.362   3.090   1.337 -1.3524  0.3008  0.6815
   30MOL0     C 4028   4.352   3.229   1.356 -1.2423 -0.1282  0.4276
   30MOL0     C 4029   4.356   3.315   1.242  0.4565  0.5479 -0.1272
   30MOL0     C 4030   4.362   3.461   1.273  0.5005 -0.0287  1.0273
   30MOL0     C 4031   4.351   3.257   1.112  0.4198  0.4434  0.4119
   30MOL0     C 4032   4.343   3.338   0.992 -0.4447  0.5808 -0.8702
   30MOL0     O 4033   4.343   3.264   0.877  0.0480 -0.2035  1.0761
   30MOL0     C 4034   4.408   3.319   0.767  0.6726  0.5930 -0.8701
   30MOL0     C 4035   4.532   3.264   0.740  1.4103  0.0060  0.1133
   30MOL0     C 4036   4.624   3.316   0.645 -0.2932  0.8560 -0.4121
   30MOL0     C 4037   4.576   3.425   0.565  0.3785 -0.3105 -0.6611
   30MOL0     O 4038   4.664   3.475   0.475 -0.3379 -0.1948 -0.3583
   30MOL0     C 4039   4.637   3.607   0.422  0.4399  0.7337 -0.2226
   30MOL0     C 4040   4.763   3.670   0.336  1.4148 -0.1255  0.6320
   30MOL0     C 4041   4.888   3.743   0.403 -0.8120 -0.3269  0.3844
   30MOL0     C 4042   5.002   3.661   0.455  0.1830  0.1956  0.2700
   30MOL0     C 4043   5.124   3.739   0.507 -0.6294  0.5095 -0.9328
   30MOL0     C 4044   5.185   3.828   0.396 -0.8057  0.5861  0.0008
   30MOL0     C 4045   5.298   3.919   0.439 -0.1590  0.8848  0.0513
   30MOL0     C 4046   5.352   4.012   0.324  0.5872  0.5178 -0.1073
   30MOL0    Cl 4047   5.252   4.164   0.319 -0.2754  0.1752  0.4803
   30MOL0     C 4048   4.442   3.471   0.586  0.1707 -0.0541  0.4323
   30MOL0     C 4049   4.361   3.423   0.686 -0.4180  0.3835 -0.7221
   30MOL0     O 4050   4.341   3.461   1.002 -1.0768  0.0541  0.1291
   30MOL0     C 4051   4.339   3.112   1.094  0.2265 -0.6259  0.2794
   30MOL0     C 4052   4.370   3.036   1.207  0.6087 -0.6183 -0.4535
   30MOL0     N 4053   4.558   2.569   1.802  0.5820  0.6372 -0.0757
   30MOL0     N 4054   4.463   2.506   1.860  0.5308 -0.4352  0.2061
   30MOL0     C 4055   3.662   3.083   2.404  0.5641  0.1511 -1.1040
   30MOL0     C 4056   3.740   3.118   2.515 -0.1321  0.1420  0.0511
   30MOL0     C 4057   4.133   3.302   2.642 -0.1967 -0.0001 -0.1976
   30MOL0     C 4058   4.101   3.351   2.772 -0.0154  0.3226 -0.6611
   30MOL0     C 4059   4.192   3.359   2.885  0.5105 -0.1946 -0.4369
   30MOL0     C 4060   4.321   3.351   2.844 -0.2392 -0.3947 -0.4998
   30MOL0     O 4061   4.422   3.333   2.934 -0.0546  0.1672  0.3437
   30MOL0     C 4062   4.499   3.451   2.976  0.4700  0.5115 -0.4763
   30MOL0     C 4063   4.616   3.413   3.070  0.5670 -0.0202  1.1053
   30MOL0     C 4064   4.665   3.532   3.154  0.4196 -0.0527  0.1012
   30MOL0     C 4065   4.753   3.478   3.264  0.4179 -0.1824  1.0219
   30MOL0     C 4066   4.782   3.577   3.368  0.8939 -0.1253  0.1259
   30MOL0     C 4067   4.812   3.661   3.446  0.1569 -0.5390  0.2709
   30MOL0     C 4068   4.363   3.335   2.713  0.3954  0.2199 -0.5270
   30MOL0     C 4069   4.272   3.304   2.609  0.5084 -0.1238 -0.8525
   30MOL0     C 4070   4.334   3.290   2.477  0.1880  0.8328 -0.3018
   30MOL0     H 4071   3.779   3.438   2.445  1.1234  0.0021 -0.3077
   30MOL0     H 4072   3.630   3.381   2.249 -1.1397 -1.1684  0.6574
   30MOL0     H 4073   3.465   3.029   2.049  0.5703 -1.9320 -1.4827
   30MOL0     H 4074   3.459   2.980   2.218 -0.9348  0.7793 -0.2479
   30MOL0     H 4075   3.659   2.857   2.222 -1.2298 -2.7826 -0.5396
   30MOL0     H 4076   3.567   2.818   2.086 -0.4819 -0.0899  0.9450
   30MOL0     H 4077   3.707   2.993   1.958  1.7728  0.7743  0.7935
   30MOL0     H 4078   3.804   3.008   2.103 -0.7116  1.6207 -0.8436
   30MOL0     H 4079   3.759   2.737   1.958 -1.0786 -0.4898  2.8908
   30MOL0     H 4080   3.882   2.846   1.905  3.2858 -1.5922  0.9220
   30MOL0     H 4081   3.857   2.686   2.157 -1.0326 -0.5435 -1.3123
   30MOL0     H 4082   3.982   2.815   2.137 -2.7843  0.6875  1.9979
   30MOL0     H 4083   4.013   2.556   2.072 -2.6810  0.4580  1.7580
   30MOL0     H 4084   3.954   2.621   1.918  0.5607  1.6324 -0.7532
   30MOL0     H 4085   4.192   2.750   2.048 -0.0377  0.7293 -0.2922
   30MOL0     H 4086   4.136   2.744   1.879 -1.8803 -0.5434  0.3400
   30MOL0     H 4087   4.246   2.507   2.051 -1.0405  2.1142  1.5048
   30MOL0     H 4088   4.223   2.515   1.872  3.6037  0.3972 -0.8295
   30MOL0     H 4089   4.430   2.825   1.953  5.3206  0.3458  0.6078
   30MOL0     H 4090   4.720   2.756   1.712 -0.1348  1.1934 -0.3527
   30MOL0     H 4091   4.651   2.885   1.828 -5.2199  1.9000 -0.5498
   30MOL0     H 4092   4.625   2.929   1.593  0.7481  1.6476  2.9828
   30MOL0     H 4093   4.522   2.793   1.564  2.0945 -0.7991  0.1638
   30MOL0     H 4094   4.348   2.908   1.731  1.4907 -1.2527  1.7422
   30MOL0     H 4095   4.459   3.030   1.773 -1.5070  1.5197 -1.2534
   30MOL0     H 4096   4.280   3.090   1.604  0.2288  0.0157  1.1906
   30MOL0     H 4097   4.441   3.145   1.587  1.0405 -0.3646 -0.4993
   30MOL0     H 4098   4.339   3.269   1.456 -1.1061  0.8548  0.0656
   30MOL0     H 4099   4.462   3.491   1.239 -0.1575  2.5631  1.2037
   30MOL0     H 4100   4.363   3.477   1.381 -2.3277 -1.6237  1.3782
   30MOL0     H 4101   4.281   3.521   1.232  0.9692 -0.3117 -0.3794
   30MOL0     H 4102   4.578   3.195   0.809  3.3146  1.3530  0.2567
   30MOL0     H 4103   4.717   3.261   0.634 -0.5309 -0.2503  2.3490
   30MOL0     H 4104   4.557   3.590   0.348 -0.5221 -0.5241  1.0418
   30MOL0     H 4105   4.613   3.670   0.508  0.6754  0.5447 -0.0187
   30MOL0     H 4106   4.793   3.592   0.265  1.6347 -0.6772  1.3118
   30MOL0     H 4107   4.708   3.745   0.278  0.9863  0.7348  2.0854
   30MOL0     H 4108   4.853   3.820   0.473 -0.8606  1.1747 -1.2279
   30MOL0     H 4109   4.931   3.798   0.318 -3.9596  1.5576 -0.1444
   30MOL0     H 4110   5.044   3.585   0.387  2.4258  0.5685  1.1611
   30MOL0     H 4111   4.966   3.611   0.545  0.9597 -1.2989 -0.2070
   30MOL0     H 4112   5.098   3.809   0.587 -4.0386 -0.9399 -0.5640
   30MOL0     H 4113   5.187   3.664   0.555 -2.3410  0.4718  1.4285
   30MOL0     H 4114   5.107   3.887   0.348 -2.0176  0.0213  1.2137
   30MOL0     H 4115   5.225   3.749   0.332 -2.6333 -3.5438  3.4380
   30MOL0     H 4116   5.373   3.848   0.476 -2.0949 -1.4044 -0.1385
   30MOL0     H 4117   5.255   3.968   0.527 -3.1945 -2.3771  0.6209
   30MOL0     H 4118   5.343   3.957   0.230  3.6323 -2.2371  1.0328
   30MOL0     H 4119   5.459   4.017   0.345  0.3218 -0.3158  1.5959
   30MOL0     H 4120   4.406   3.544   0.514 -0.4497 -0.3502  0.4405
   30MOL0     H 4121   4.254   3.441   0.692 -0.5479 -0.7864  1.2697
   30MOL0     H 4122   4.329   3.064   0.998  0.3898 -1.8107  0.8421
   30MOL0     H 4123   4.384   2.929   1.199 -0.9247 -0.9842  1.0707
   30MOL0     H 4124   3.617   2.985   2.401 -0.8631  0.6950  0.4819
   30MOL0     H 4125   3.759   3.049   2.597  2.5162 -1.9399 -2.1581
   30MOL0     H 4126   3.997   3.376   2.794  0.9805  3.4248  1.2171
   30MOL0     H 4127   4.157   3.364   2.987  0.7881  0.3048 -0.3606
   30MOL0     H 4128   4.531   3.517   2.894  2.8579 -2.8466 -2.4634
   30MOL0     H 4129   4.427   3.512   3.033 -5.1089 -3.7755 -1.9890
   30MOL0     H 4130   4.693   3.377   3.002 -0.0573  1.9675 -0.7714
   30MOL0     H 4131   4.580   3.332   3.134  2.4050  0.6773  3.1836
   30MOL0     H 4132   4.712   3.614   3.098  0.6341 -0.0420  0.2938
   30MOL0     H 4133   4.576   3.587   3.185  0.6948  0.4262  0.0502
   30MOL0     H 4134   4.846   3.438   3.224  2.0895  2.4389  2.0639
   30MOL0     H 4135   4.684   3.403   3.303 -0.0341  0.3812  1.3295
   30MOL0     H 4136   4.833   3.738   3.518  4.4867 -1.0694 -0.1202
   30MOL0     H 4137   4.469   3.328   2.688  0.8436  0.2322  1.2551
   30MOL0     H 4138   4.259   3.322   2.404  1.4907  0.7645 -1.6950
   30MOL0     H 4139   4.422   3.355   2.471  0.2248  0.7415 -0.7417
   30MOL0     H 4140   4.353   3.183   2.465 -2.0529 -0.2356  3.6943
   31MOL0     O 4141   5.002   8.297   2.660  0.7018  0.7887  0.3404
   31MOL0     C 4142   5.097   8.327   2.739 -0.3856 -0.2691 -0.2218
   31MOL0     O 4143   5.211   8.251   2.747  0.7512 -0.3275 -0.0511
   31MOL0     C 4144   5.219   8.130   2.685  0.3299 -0.2461  0.1173
   31MOL0     C 4145   5.123   8.026   2.690  0.5965  0.2347 -0.7998
   31MOL0     C 4146   5.137   7.916   2.601 -0.1180  0.1456 -0.2606
   31MOL0     C 4147   5.250   7.904   2.519 -0.6671  0.5693 -0.2966
   31MOL0     O 4148   5.265   7.793   2.436  0.7935 -0.2207  0.1256
   31MOL0     C 4149   5.390   7.776   2.366 -0.0463  0.3297  0.2309
   31MOL0     C 4150   5.367   7.674   2.263 -0.1984 -0.4656 -0.3670
   31MOL0     C 4151   5.367   7.533   2.324  0.3530  1.0979 -0.0661
   31MOL0     C 4152   5.340   7.429   2.224  0.7124  0.3488  0.7891
   31MOL0     C 4153   5.194   7.416   2.179 -0.5205 -0.5142  0.0835
   31MOL0     C 4154   5.182   7.309   2.080  0.2468  0.2213 -0.2910
   31MOL0     C 4155   5.060   7.322   1.993  0.6312 -0.0489 -0.2900
   31MOL0     C 4156   4.930   7.332   2.074  0.9469 -0.3345  0.6328
   31MOL0     N 4157   4.811   7.360   1.989  0.0112  0.0521  0.3064
   31MOL0     C 4158   4.740   7.478   1.989  0.1390  0.3957  0.1193
   31MOL0     C 4159   4.622   7.454   1.932 -0.0079  0.6733 -0.0554
   31MOL0     C 4160   4.511   7.557   1.906  0.3753 -0.0902  0.3012
   31MOL0     C 4161   4.503   7.588   1.754 -0.3256  0.6749  1.5757
   31MOL0     C 4162   4.413   7.704   1.716 -0.8833 -0.4951  0.0942
   31MOL0     C 4163   4.259   7.676   1.689  0.0120  0.5397 -0.0842
   31MOL0     O 4164   4.238   7.553   1.631 -0.4682  0.0436  0.8803
   31MOL0     C 4165   4.246   7.537   1.486  0.5959 -0.6995 -0.6821
   31MOL0     C 4166   4.261   7.406   1.447  0.4782 -1.2537  0.4095
   31MOL0     C 4167   4.269   7.375   1.308  0.6750 -0.6711  0.0259
   31MOL0     C 4168   4.276   7.223   1.267  0.2018  0.0709  0.1122
   31MOL0     C 4169   4.265   7.477   1.215  0.1667 -0.4524 -0.2413
   31MOL0     C 4170   4.249   7.469   1.074 -0.2429  0.3592  0.2520
   31MOL0     O 4171   4.299   7.563   0.986 -0.8757 -0.9886  0.4583
   31MOL0     C 4172   4.296   7.541   0.850  0.8428  0.2228  0.0823
   31MOL0     C 4173   4.357   7.429   0.781  0.9358  0.3546 -0.5558
   31MOL0     C 4174   4.335   7.412   0.647 -0.8252  0.1456  0.1853
   31MOL0     C 4175   4.253   7.504   0.570 -0.3477  0.4075  0.1650
   31MOL0     O 4176   4.222   7.476   0.438 -0.3742 -0.2585  0.2919
   31MOL0     C 4177   4.337   7.495   0.341  0.2469 -0.1423 -0.5252
   31MOL0     C 4178   4.302   7.441   0.204  0.3602  0.1801  0.0596
   31MOL0     C 4179   4.280   7.285   0.208  0.5829 -0.4192  1.0059
   31MOL0     C 4180   4.226   7.254   0.062 -0.4289  0.7695  0.1026
   31MOL0     C 4181   4.198   7.104   0.042 -0.3418  0.9688 -0.0082
   31MOL0     C 4182   4.175   7.069  -0.110 -0.7488 -1.0372 -0.2589
   31MOL0     C 4183   4.043   7.133  -0.173  0.3109  0.4103  0.5272
   31MOL0     C 4184   4.074   7.118  -0.324  0.3812 -0.2293 -0.4570
   31MOL0    Cl 4185   3.936   7.139  -0.418 -0.0025  0.2704 -0.1244
   31MOL0     C 4186   4.188   7.606   0.642  0.0856 -0.1150  0.3995
   31MOL0     C 4187   4.216   7.630   0.776 -0.8226  0.1299  0.7128
   31MOL0     O 4188   4.182   7.370   1.043 -0.1730  0.1235  0.2708
   31MOL0     C 4189   4.268   7.610   1.264  0.3934  0.4886  0.4693
   31MOL0     C 4190   4.242   7.638   1.393 -0.2459 -0.6249  0.2243
   31MOL0     N 4191   4.624   7.329   1.886  0.2240  0.5118  0.0568
   31MOL0     N 4192   4.734   7.273   1.911 -0.7723 -0.2337 -0.3544
   31MOL0     C 4193   5.357   7.989   2.545 -0.5762 -0.2531 -0.2630
   31MOL0     C 4194   5.342   8.099   2.630  0.4890  0.0146  0.9076
   31MOL0     C 4195   5.074   8.461   2.793  0.6369  0.2739  0.1253
   31MOL0     C 4196   4.959   8.539   2.751  0.2695 -0.2669 -0.2476
   31MOL0     C 4197   4.940   8.669   2.797 -0.1976 -1.1566 -0.0199
   31MOL0     C 4198   5.034   8.727   2.882 -0.0852  0.4557  0.2769
   31MOL0     O 4199   5.008   8.863   2.912 -0.0365  0.0377 -0.4351
   31MOL0     C 4200   5.085   8.939   3.004  0.7599 -0.0690  0.6501
   31MOL0     C 4201   5.207   8.989   2.937 -0.0910 -0.1120  0.1380
   31MOL0     C 4202   5.183   9.062   2.797  0.6829 -0.7310 -0.4924
   31MOL0     C 4203   5.310   9.096   2.708  1.0546 -0.4522  0.0508
   31MOL0     C 4204   5.399   8.989   2.670 -0.1645  1.4885  0.3400
   31MOL0     C 4205   5.455   8.884   2.654  0.0648  0.4444 -0.0616
   31MOL0     C 4206   5.147   8.650   2.924  0.6267 -0.0812 -0.5851
   31MOL0     C 4207   5.173   8.522   2.881 -0.7179 -0.0137 -0.2873
   31MOL0     C 4208   5.306   8.469   2.926 -0.0079 -0.5512 -0.3141
   31MOL0     H 4209   5.029   8.049   2.738  1.4916  2.6214 -0.0873
   31MOL0     H 4210   5.070   7.831   2.601  1.4472 -1.1692 -2.2367
   31MOL0     H 4211   5.467   7.753   2.440  0.5026 -0.8627 -0.6900
   31MOL0     H 4212   5.431   7.864   2.315  1.8962 -0.1380  0.9226
   31MOL0     H 4213   5.275   7.710   2.215 -0.8056  1.7239  2.1723
   31MOL0     H 4214   5.438   7.679   2.180  3.0154 -2.5812  2.0285
   31MOL0     H 4215   5.468   7.513   2.360  0.0273  0.4439  0.5263
   31MOL0     H 4216   5.292   7.531   2.404  0.7926 -0.2106  0.3395
   31MOL0     H 4217   5.410   7.440   2.141  2.4353 -4.3882  1.3439
   31MOL0     H 4218   5.363   7.337   2.278  5.2259  1.1270  0.5726
   31MOL0     H 4219   5.167   7.513   2.137  4.6323  1.1890 -0.0263
   31MOL0     H 4220   5.124   7.404   2.262 -0.8005  2.6459  0.4250
   31MOL0     H 4221   5.272   7.299   2.019  2.3302 -2.9170  2.8996
   31MOL0     H 4222   5.169   7.212   2.128  0.6177  0.4407  0.2618
   31MOL0     H 4223   5.045   7.235   1.928 -0.9400  0.9411 -1.3060
   31MOL0     H 4224   5.073   7.408   1.927  2.0728  0.2800  0.3946
   31MOL0     H 4225   4.905   7.243   2.133 -2.5420 -0.5728 -0.9678
   31MOL0     H 4226   4.932   7.422   2.136 -1.2037  0.4782 -0.3559
   31MOL0     H 4227   4.779   7.573   2.024 -1.7353  0.2905  2.7813
   31MOL0     H 4228   4.523   7.652   1.959 -2.4934  1.5793 -1.7456
   31MOL0     H 4229   4.415   7.527   1.948  0.0226  0.4962 -0.0706
   31MOL0     H 4230   4.604   7.607   1.717  0.6667 -1.3169  3.1274
   31MOL0     H 4231   4.465   7.500   1.702  0.0966  0.6574  1.2953
   31MOL0     H 4232   4.411   7.785   1.789 -1.2418  0.1475 -0.6112
   31MOL0     H 4233   4.446   7.738   1.618 -1.9357 -3.1259 -1.2860
   31MOL0     H 4234   4.199   7.689   1.780  0.9225 -3.0424  1.2092
   31MOL0     H 4235   4.219   7.752   1.622  0.3885  0.8985  0.0917
   31MOL0     H 4236   4.277   7.329   1.522  0.5528  0.1454  1.8827
   31MOL0     H 4237   4.190   7.173   1.221  0.8394 -0.0933 -0.9210
   31MOL0     H 4238   4.275   7.170   1.363 -0.3326  0.6295  0.4210
   31MOL0     H 4239   4.363   7.193   1.208 -1.4562 -1.0384 -1.8861
   31MOL0     H 4240   4.414   7.358   0.841  1.6770  2.1081  0.9055
   31MOL0     H 4241   4.375   7.326   0.594  0.8138  2.2218 -2.1880
   31MOL0     H 4242   4.359   7.601   0.325  1.4762 -0.4816 -1.2491
   31MOL0     H 4243   4.420   7.429   0.368 -0.0996 -0.9945 -1.4589
   31MOL0     H 4244   4.215   7.494   0.165 -0.9098 -0.4966  1.8125
   31MOL0     H 4245   4.378   7.459   0.128  0.5306  1.2341  0.4644
   31MOL0     H 4246   4.197   7.263   0.276  0.1970 -3.0679 -0.2175
   31MOL0     H 4247   4.359   7.216   0.238 -0.8204 -0.8474  4.1467
   31MOL0     H 4248   4.318   7.275   0.007  0.6001  0.8581  1.7946
   31MOL0     H 4249   4.138   7.314   0.035 -0.3105  1.0641  0.3606
   31MOL0     H 4250   4.282   7.046   0.080  0.7141  1.1964 -1.8757
   31MOL0     H 4251   4.109   7.067   0.093 -0.3575  2.8122  1.4400
   31MOL0     H 4252   4.174   6.960  -0.125 -1.5579 -0.8226 -2.0189
   31MOL0     H 4253   4.265   7.092  -0.168 -0.5492 -1.1544  0.0013
   31MOL0     H 4254   4.017   7.235  -0.144  0.4131  1.2800 -2.1816
   31MOL0     H 4255   3.962   7.068  -0.137  0.4608  1.4971  3.0342
   31MOL0     H 4256   4.123   7.028  -0.363  0.7372 -0.0163 -0.5077
   31MOL0     H 4257   4.141   7.199  -0.353  0.7266 -0.7677 -1.1965
   31MOL0     H 4258   4.126   7.679   0.591 -0.2839 -0.8498 -0.2294
   31MOL0     H 4259   4.165   7.714   0.820  0.9254  1.5746  0.1400
   31MOL0     H 4260   4.267   7.693   1.194  1.1524 -0.7542 -1.0704
   31MOL0     H 4261   4.234   7.743   1.419 -0.3907 -0.1686 -1.5492
   31MOL0     H 4262   5.454   7.986   2.499 -0.8703 -2.1439 -0.8334
   31MOL0     H 4263   5.431   8.160   2.644  0.5633  0.3262 -0.7704
   31MOL0     H 4264   4.892   8.498   2.675 -1.6520 -0.9196  1.7033
   31MOL0     H 4265   4.861   8.732   2.757  1.9452  0.3913 -2.0416
   31MOL0     H 4266   5.032   9.032   3.027 -0.3101 -0.1524 -1.2632
   31MOL0     H 4267   5.103   8.879   3.094 -0.0269 -2.7868 -0.8865
   31MOL0     H 4268   5.288   8.916   2.930  1.1039  1.3390 -3.1204
   31MOL0     H 4269   5.238   9.071   3.003  2.7172 -0.7168 -0.3167
   31MOL0     H 4270   5.121   8.992   2.740  0.7330 -1.7266  0.6438
   31MOL0     H 4271   5.129   9.155   2.819  1.2567 -0.4097 -0.4295
   31MOL0     H 4272   5.378   9.175   2.742  0.5839 -0.7535  1.7777
   31MOL0     H 4273   5.267   9.146   2.620  1.5097  2.1431  1.2132
   31MOL0     H 4274   5.495   8.785   2.638 -1.3184  0.3840 -4.3583
   31MOL0     H 4275   5.204   8.695   3.004 -2.1232  3.1906 -0.2229
   31MOL0     H 4276   5.349   8.533   3.004 -0.5393 -0.6082  0.0279
   31MOL0     H 4277   5.290   8.370   2.968  1.8477 -0.9260 -0.3959
   31MOL0     H 4278   5.377   8.465   2.843  3.0062  2.2853  1.8766
   32MOL0     O 4279   2.014   7.140   4.813 -0.0669  0.5019 -0.3479
   32MOL0     C 4280   2.117   7.181   4.867 -0.4478  0.4857  1.1872
   32MOL0     O 4281   2.230   7.199   4.788  1.0261  0.3190 -0.0355
   32MOL0     C 4282   2.221   7.231   4.655 -0.1782 -0.3308 -0.3157
   32MOL0     C 4283   2.268   7.145   4.550 -0.1472 -0.0838  0.9314
   32MOL0     C 4284   2.283   7.196   4.418 -0.8081  0.5691 -0.6739
   32MOL0     C 4285   2.231   7.322   4.392 -0.4788 -0.4151 -0.2252
   32MOL0     O 4286   2.240   7.367   4.260 -0.4103  0.3531  0.0625
   32MOL0     C 4287   2.126   7.440   4.216  0.3993 -0.7899  0.0626
   32MOL0     C 4288   2.126   7.452   4.062  0.3521 -0.0199  0.8068
   32MOL0     C 4289   2.257   7.515   4.002 -0.9882  0.4444  0.4894
   32MOL0     C 4290   2.271   7.500   3.849 -1.5314  0.4210  0.4620
   32MOL0     C 4291   2.406   7.549   3.816 -0.2699  0.3601 -0.1180
   32MOL0     C 4292   2.437   7.571   3.666 -0.3524  0.0633 -0.0798
   32MOL0     C 4293   2.578   7.639   3.658 -0.1363  0.2531 -0.4395
   32MOL0     C 4294   2.616   7.641   3.511  0.1708  0.4355  0.9697
   32MOL0     N 4295   2.520   7.739   3.438 -1.0758 -0.2585 -0.9552
   32MOL0     C 4296   2.547   7.870   3.428  0.0265  0.0157 -0.0761
   32MOL0     C 4297   2.446   7.918   3.345 -0.8326  0.5522 -0.2785
   32MOL0     C 4298   2.419   8.067   3.304  0.4551 -1.1767  0.3244
   32MOL0     C 4299   2.271   8.090   3.249  0.0036 -0.1082 -1.2777
   32MOL0     C 4300   2.186   8.173   3.348 -0.0333  0.9947 -0.5453
   32MOL0     C 4301   2.059   8.234   3.283 -0.4707  1.1266  0.6218
   32MOL0     O 4302   2.092   8.327   3.180  0.9798  0.0504  0.4768
   32MOL0     C 4303   2.066   8.289   3.051  0.9123 -0.3357  0.3991
   32MOL0     C 4304   2.161   8.297   2.952  0.0332  1.0095  0.3597
   32MOL0     C 4305   2.143   8.260   2.816 -0.7811  0.1238 -0.1881
   32MOL0     C 4306   2.248   8.289   2.704  0.1219  0.1505  0.3468
   32MOL0     C 4307   2.015   8.203   2.780 -0.3119 -0.0748  0.1788
   32MOL0     C 4308   1.976   8.145   2.648 -0.1212  0.5403 -0.6326
   32MOL0     O 4309   2.067   8.120   2.549 -0.3435 -0.3362 -1.1702
   32MOL0     C 4310   2.055   8.029   2.447  0.1522  0.3056 -0.0665
   32MOL0     C 4311   1.948   7.944   2.431  0.7684  0.1117  0.8373
   32MOL0     C 4312   1.941   7.855   2.326 -0.0949  0.5485  0.4792
   32MOL0     C 4313   2.023   7.861   2.220 -0.2464 -0.7803  1.3477
   32MOL0     O 4314   2.030   7.771   2.121  0.1479 -0.9106  0.1453
   32MOL0     C 4315   1.963   7.642   2.131 -0.4757 -1.0064 -0.2534
   32MOL0     C 4316   2.020   7.532   2.053  0.1445  0.9281 -0.4577
   32MOL0     C 4317   2.157   7.486   2.090  0.5342 -0.1566  0.3330
   32MOL0     C 4318   2.268   7.568   2.024  0.4749 -0.0453  0.2407
   32MOL0     C 4319   2.393   7.486   2.055  0.9832 -0.6036  0.5720
   32MOL0     C 4320   2.533   7.552   2.024  0.6897  0.4887 -0.0603
   32MOL0     C 4321   2.636   7.443   2.051  0.0810  0.6873  0.3580
   32MOL0     C 4322   2.776   7.485   2.007 -0.3509  0.7618 -0.0763
   32MOL0    Cl 4323   2.774   7.574   1.846 -0.0385 -0.2670 -0.2688
   32MOL0     C 4324   2.138   7.945   2.232  0.3457  0.2945 -0.6725
   32MOL0     C 4325   2.150   8.021   2.350  1.1954 -0.0024  0.3081
   32MOL0     O 4326   1.852   8.123   2.637 -0.8261  0.0149  0.2278
   32MOL0     C 4327   1.923   8.193   2.881  0.4086 -0.0414 -0.1697
   32MOL0     C 4328   1.940   8.237   3.014  0.7975  0.3409 -0.2834
   32MOL0     N 4329   2.377   7.808   3.292 -0.0288 -0.0913 -0.2220
   32MOL0     N 4330   2.420   7.703   3.348  0.0566 -0.6102  0.2799
   32MOL0     C 4331   2.179   7.398   4.498 -0.8842  0.8262  0.7217
   32MOL0     C 4332   2.173   7.355   4.625  0.4186  0.6634 -0.0634
   32MOL0     C 4333   2.132   7.187   5.009 -0.1589 -0.8474  0.2217
   32MOL0     C 4334   2.029   7.255   5.066  0.1129 -0.0917  0.1663
   32MOL0     C 4335   2.036   7.298   5.194 -0.1245 -0.7129 -0.3762
   32MOL0     C 4336   2.145   7.262   5.282  0.1450 -0.7258 -0.3844
   32MOL0     O 4337   2.166   7.292   5.418  0.4869  0.3064  0.3495
   32MOL0     C 4338   2.079   7.385   5.485  0.0885 -0.2751  0.6733
   32MOL0     C 4339   1.944   7.316   5.535  1.0745 -0.4685 -0.2065
   32MOL0     C 4340   1.967   7.205   5.640 -0.0119  0.8369 -0.8382
   32MOL0     C 4341   1.828   7.158   5.688 -0.5253 -0.0352  0.4394
   32MOL0     C 4342   1.860   7.069   5.799 -1.1469 -0.5128  0.0492
   32MOL0     C 4343   1.889   6.993   5.883  0.7722  0.3463  0.0796
   32MOL0     C 4344   2.240   7.183   5.220  0.2485  0.4815 -0.2456
   32MOL0     C 4345   2.240   7.148   5.082  0.3703  0.0947  0.3488
   32MOL0     C 4346   2.368   7.087   5.032  0.4003  0.0679 -0.3413
   32MOL0     H 4347   2.306   7.047   4.578 -3.5656 -2.2995 -1.4086
   32MOL0     H 4348   2.337   7.135   4.347 -0.1811 -1.3574  1.3824
   32MOL0     H 4349   2.132   7.537   4.265  1.4965  0.2263 -1.9618
   32MOL0     H 4350   2.033   7.401   4.259  1.0212  0.0401  2.2888
   32MOL0     H 4351   2.120   7.353   4.016  1.2771  1.0414 -1.7604
   32MOL0     H 4352   2.039   7.508   4.027  0.1538 -1.0199 -0.3799
   32MOL0     H 4353   2.265   7.615   4.045  0.4866  0.2351  0.7258
   32MOL0     H 4354   2.338   7.460   4.050  0.5648  2.1620 -0.0651
   32MOL0     H 4355   2.265   7.398   3.811 -0.4962 -0.0395  1.4971
   32MOL0     H 4356   2.192   7.555   3.796  1.0094  1.3985 -2.6052
   32MOL0     H 4357   2.472   7.476   3.862 -0.9834 -0.4114 -0.2947
   32MOL0     H 4358   2.422   7.641   3.874 -0.6278 -1.1674  2.5363
   32MOL0     H 4359   2.448   7.474   3.616 -0.0280 -1.8213  3.3235
   32MOL0     H 4360   2.367   7.635   3.612  0.0304  2.7054  2.3358
   32MOL0     H 4361   2.653   7.591   3.722  1.5329  2.7024 -0.3894
   32MOL0     H 4362   2.566   7.737   3.706 -1.1876  0.5542 -1.2807
   32MOL0     H 4363   2.721   7.669   3.496 -0.5054  3.1116  0.8909
   32MOL0     H 4364   2.603   7.543   3.464 -0.8714  2.6864 -4.0199
   32MOL0     H 4365   2.622   7.940   3.465 -0.7083  0.3480  0.8102
   32MOL0     H 4366   2.493   8.105   3.234  2.2599 -1.7286  1.8593
   32MOL0     H 4367   2.421   8.124   3.397 -0.1992 -1.4382  0.5042
   32MOL0     H 4368   2.287   8.133   3.149 -0.4918  2.2868 -0.3876
   32MOL0     H 4369   2.222   7.992   3.242  1.4571 -1.3409  3.0807
   32MOL0     H 4370   2.136   8.104   3.417  1.1056 -0.0038 -0.6882
   32MOL0     H 4371   2.232   8.262   3.391 -0.9257  0.5248  1.5108
   32MOL0     H 4372   1.988   8.159   3.248  0.6709  1.1170 -1.8632
   32MOL0     H 4373   2.004   8.286   3.362 -0.4041 -1.0566  2.1930
   32MOL0     H 4374   2.257   8.342   2.975  1.7531 -1.6893 -1.0311
   32MOL0     H 4375   2.331   8.357   2.725  0.4423  0.7206 -2.4162
   32MOL0     H 4376   2.198   8.314   2.610  2.0448 -1.8735 -1.3226
   32MOL0     H 4377   2.288   8.188   2.691  0.8020  0.6257 -1.5852
   32MOL0     H 4378   1.872   7.938   2.509  1.0591 -1.5968  1.0193
   32MOL0     H 4379   1.868   7.775   2.327  1.3837 -1.0882 -3.0443
   32MOL0     H 4380   1.944   7.606   2.233 -1.9565  4.3814  1.7310
   32MOL0     H 4381   1.867   7.668   2.085  0.4304  3.0245 -0.2543
   32MOL0     H 4382   1.942   7.455   2.056  0.2305  0.8070  2.7508
   32MOL0     H 4383   2.037   7.568   1.951 -0.0282 -1.8741 -1.5863
   32MOL0     H 4384   2.164   7.383   2.054 -0.0090  0.2971 -1.1378
   32MOL0     H 4385   2.163   7.482   2.200  2.2823  0.9397  0.3237
   32MOL0     H 4386   2.281   7.669   2.065  2.5528 -0.8113  1.6741
   32MOL0     H 4387   2.256   7.573   1.916 -0.4397 -2.4451  0.1624
   32MOL0     H 4388   2.398   7.460   2.162  1.7906 -1.0402  0.4316
   32MOL0     H 4389   2.394   7.394   1.996  1.9776  1.1668 -2.3890
   32MOL0     H 4390   2.537   7.643   2.085 -1.3928 -0.8250  2.2324
   32MOL0     H 4391   2.524   7.573   1.917 -3.1602 -0.0064  0.0330
   32MOL0     H 4392   2.614   7.353   1.991  1.6687 -0.3260  1.2307
   32MOL0     H 4393   2.635   7.403   2.153 -1.8534 -1.7237 -0.4781
   32MOL0     H 4394   2.841   7.401   1.982 -0.4588  0.6124  0.1386
   32MOL0     H 4395   2.832   7.538   2.085 -0.1569 -0.0814  0.3804
   32MOL0     H 4396   2.215   7.942   2.156  1.2737  4.8155 -0.1841
   32MOL0     H 4397   2.247   8.068   2.357  2.6803 -2.9420  1.0786
   32MOL0     H 4398   1.818   8.170   2.860  0.2035 -0.0051  0.7820
   32MOL0     H 4399   1.861   8.229   3.087  1.7767  0.6159  0.8264
   32MOL0     H 4400   2.133   7.496   4.487 -1.3435  0.4601 -0.8472
   32MOL0     H 4401   2.133   7.424   4.699  0.4166  0.6493 -0.0513
   32MOL0     H 4402   1.944   7.293   5.010 -0.8265  0.8642  2.1589
   32MOL0     H 4403   1.961   7.365   5.235  1.9150  0.4457  1.7080
   32MOL0     H 4404   2.132   7.436   5.566 -0.3926  0.9864  0.2296
   32MOL0     H 4405   2.056   7.457   5.405  0.4726 -2.0402 -1.0910
   32MOL0     H 4406   1.890   7.280   5.447 -1.8793  2.5456  0.1314
   32MOL0     H 4407   1.890   7.398   5.585  1.3728  0.1818 -0.9290
   32MOL0     H 4408   1.997   7.115   5.585 -0.1260  0.3488 -0.1279
   32MOL0     H 4409   2.029   7.220   5.728 -2.6481  0.0451  1.2989
   32MOL0     H 4410   1.774   7.104   5.610 -1.0140 -0.4019  1.0298
   32MOL0     H 4411   1.764   7.245   5.706 -2.5715 -1.5643  0.7896
   32MOL0     H 4412   1.919   6.922   5.956  0.3686 -1.5315 -1.4865
   32MOL0     H 4413   2.322   7.163   5.288 -2.4845 -1.6814  2.7014
   32MOL0     H 4414   2.341   6.993   4.983 -1.5497  0.9128 -1.0005
   32MOL0     H 4415   2.431   7.142   4.961  1.5166 -2.2945 -1.3169
   32MOL0     H 4416   2.438   7.059   5.112 -2.2498 -3.2840  1.0722
   33MOL0     O 4417  10.441   8.234   5.394 -0.4453 -0.0959  0.1463
   33MOL0     C 4418  10.369   8.324   5.358  0.3487 -0.2626  0.5915
   33MOL0     O 4419  10.322   8.338   5.228  0.6689  0.3710  0.5109
   33MOL0     C 4420  10.368   8.258   5.126 -0.4072  0.2831 -0.4190
   33MOL0     C 4421  10.502   8.261   5.099  0.3829 -0.4532 -0.2443
   33MOL0     C 4422  10.563   8.182   4.992 -0.0955 -0.3807 -0.2259
   33MOL0     C 4423  10.480   8.108   4.906  0.6078 -0.5443  0.1816
   33MOL0     O 4424  10.528   8.052   4.798 -0.1254 -0.2072  0.5351
   33MOL0     C 4425  10.609   7.926   4.823 -0.7500 -0.2715 -0.1059
   33MOL0     C 4426  10.566   7.827   4.717 -0.4830 -0.3505  0.5674
   33MOL0     C 4427  10.410   7.800   4.737 -0.3935  0.3138 -0.0121
   33MOL0     C 4428  10.331   7.839   4.611  0.1097  0.3231  0.0866
   33MOL0     C 4429  10.180   7.834   4.622  0.0691  0.1164 -0.2953
   33MOL0     C 4430  10.133   7.700   4.658 -0.2821 -0.6485 -0.4338
   33MOL0     C 4431   9.981   7.716   4.689 -0.8968  0.5723 -0.5254
   33MOL0     C 4432   9.916   7.607   4.602  0.2717  0.2081 -0.8226
   33MOL0     N 4433   9.887   7.680   4.480 -0.1483 -0.6023 -0.4265
   33MOL0     C 4434   9.934   7.663   4.350  0.0631  1.0713 -0.6946
   33MOL0     C 4435   9.886   7.762   4.279 -0.0322  0.5249 -0.0198
   33MOL0     C 4436   9.926   7.808   4.147 -0.0465  0.0796  0.3364
   33MOL0     C 4437  10.058   7.886   4.157 -0.4102  0.0303  0.0570
   33MOL0     C 4438  10.095   7.960   4.025 -0.0419  0.5867 -0.4237
   33MOL0     C 4439  10.222   8.025   4.050 -0.0398 -0.1892 -0.7045
   33MOL0     O 4440  10.219   8.130   4.156  0.3427  0.2135  0.2981
   33MOL0     C 4441  10.167   8.246   4.122 -0.1259 -0.3077  0.5700
   33MOL0     C 4442  10.257   8.344   4.082 -0.5937 -1.1716  0.6625
   33MOL0     C 4443  10.206   8.464   4.016 -0.3921 -0.1534 -0.2155
   33MOL0     C 4444  10.323   8.546   3.946  0.3760 -0.9018 -0.1388
   33MOL0     C 4445  10.063   8.495   4.020 -0.2510 -1.0412 -0.2589
   33MOL0     C 4446  10.010   8.617   3.965  0.1903  0.7798 -0.3742
   33MOL0     O 4447  10.081   8.683   3.870 -0.1277 -0.1132 -0.1952
   33MOL0     C 4448  10.047   8.801   3.806  0.5770 -0.3644 -0.9855
   33MOL0     C 4449  10.133   8.846   3.713 -0.2293  0.4598  0.5961
   33MOL0     C 4450  10.111   8.964   3.638  0.2463 -0.0230  0.7723
   33MOL0     C 4451  10.006   9.043   3.672 -0.3614 -0.4341 -0.6584
   33MOL0     O 4452   9.986   9.168   3.603 -0.2173 -0.7448 -0.0481
   33MOL0     C 4453   9.961   9.291   3.676  0.0584 -0.6634 -0.2803
   33MOL0     C 4454  10.061   9.317   3.794  0.3801 -0.3124 -0.6771
   33MOL0     C 4455  10.205   9.343   3.740  0.4762  0.2325 -0.0761
   33MOL0     C 4456  10.277   9.478   3.756  0.4307 -0.2275 -0.2055
   33MOL0     C 4457  10.212   9.609   3.696  0.3965  0.5095  0.0997
   33MOL0     C 4458  10.240   9.732   3.784  0.1185 -0.8233 -1.0999
   33MOL0     C 4459  10.157   9.856   3.753 -0.8213  0.0894  0.6089
   33MOL0     C 4460  10.143   9.951   3.861  0.0383  0.0622 -0.1322
   33MOL0    Cl 4461  10.045   9.860   3.969  0.2701 -0.0170  0.4194
   33MOL0     C 4462   9.908   8.997   3.764 -0.1900  0.1140 -0.6519
   33MOL0     C 4463   9.931   8.876   3.827  0.4840  0.8635  0.2513
   33MOL0     O 4464   9.926   8.669   4.036  0.7544  0.0054 -0.4644
   33MOL0     C 4465   9.984   8.400   4.077 -0.1597  0.6012  0.8584
   33MOL0     C 4466  10.028   8.277   4.105 -1.3162  1.3223 -0.3531
   33MOL0     N 4467   9.816   7.842   4.359 -0.1721 -0.6754 -0.1607
   33MOL0     N 4468   9.812   7.793   4.485  0.3011  0.2746 -0.0229
   33MOL0     C 4469  10.340   8.122   4.923 -0.4936  0.1431  0.4680
   33MOL0     C 4470  10.289   8.188   5.034 -0.3969  0.0979 -0.6030
   33MOL0     C 4471  10.322   8.417   5.467  0.4117  0.5167  0.2328
   33MOL0     C 4472  10.308   8.362   5.597  1.0390 -0.0982 -0.4196
   33MOL0     C 4473  10.271   8.443   5.697  0.2329  0.2428 -0.0595
   33MOL0     C 4474  10.248   8.571   5.674  0.7871 -0.1272 -0.3851
   33MOL0     O 4475  10.195   8.642   5.779 -0.5178 -0.6440 -0.5940
   33MOL0     C 4476  10.251   8.765   5.807  0.5524 -0.8289 -0.3929
   33MOL0     C 4477  10.142   8.876   5.807 -0.1430 -0.3146  0.1760
   33MOL0     C 4478  10.203   9.018   5.763  0.3552  0.7433 -0.0598
   33MOL0     C 4479  10.319   9.061   5.852 -0.0335  0.2832  0.1074
   33MOL0     C 4480  10.360   9.201   5.825 -1.4128 -0.6813  0.1480
   33MOL0     C 4481  10.393   9.318   5.814  0.0788  1.5080  0.5902
   33MOL0     C 4482  10.245   8.619   5.540  0.1174 -0.7314 -0.2783
   33MOL0     C 4483  10.296   8.546   5.440 -0.2931 -0.7588 -0.1832
   33MOL0     C 4484  10.346   8.606   5.305  0.3685  0.3009 -1.1030
   33MOL0     H 4485  10.572   8.299   5.173 -0.2678 -2.8417  1.7277
   33MOL0     H 4486  10.671   8.177   4.984 -0.2534 -1.9423 -2.2892
   33MOL0     H 4487  10.590   7.890   4.924 -1.2393 -0.7228 -0.3489
   33MOL0     H 4488  10.715   7.953   4.818 -1.0734  0.8677 -3.0088
   33MOL0     H 4489  10.581   7.870   4.617 -0.3785 -3.0233 -0.6717
   33MOL0     H 4490  10.615   7.730   4.727 -2.5204 -1.1668  5.1288
   33MOL0     H 4491  10.386   7.700   4.775 -1.1012  0.1295 -0.9068
   33MOL0     H 4492  10.362   7.864   4.812 -3.6288 -3.8409  1.8659
   33MOL0     H 4493  10.349   7.945   4.595  0.6747  0.2817  0.4467
   33MOL0     H 4494  10.359   7.775   4.526  1.2734 -2.6837  2.5630
   33MOL0     H 4495  10.128   7.877   4.536 -0.7520  1.4569  0.8209
   33MOL0     H 4496  10.146   7.900   4.702  0.1685 -2.4495  2.0108
   33MOL0     H 4497  10.155   7.643   4.567  2.1387 -0.1468 -0.2256
   33MOL0     H 4498  10.173   7.640   4.741 -0.4198 -1.5617 -1.0070
   33MOL0     H 4499   9.950   7.820   4.675 -1.4371  0.3996 -0.6561
   33MOL0     H 4500   9.946   7.688   4.788 -0.3444 -4.8479 -1.5468
   33MOL0     H 4501   9.992   7.530   4.589  1.5651  1.1029  0.9534
   33MOL0     H 4502   9.822   7.583   4.652  0.2411  4.1897  1.4550
   33MOL0     H 4503  10.000   7.583   4.319 -0.1363  0.3000  0.7451
   33MOL0     H 4504   9.845   7.872   4.110  0.5673  1.3622  1.1626
   33MOL0     H 4505   9.921   7.716   4.086 -1.4472 -1.1392  2.1677
   33MOL0     H 4506  10.039   7.958   4.238 -0.3526 -0.7621  0.7824
   33MOL0     H 4507  10.140   7.819   4.181 -1.4600 -1.2313  0.2371
   33MOL0     H 4508  10.104   7.887   3.945  1.0628 -0.9079  0.9947
   33MOL0     H 4509  10.022   8.035   3.992 -1.4425 -1.1594 -1.4449
   33MOL0     H 4510  10.292   7.954   4.094  0.0729  1.5401  2.1883
   33MOL0     H 4511  10.255   8.065   3.954  0.9598  0.4787 -0.0986
   33MOL0     H 4512  10.363   8.321   4.081  0.0418  1.0303  3.6190
   33MOL0     H 4513  10.422   8.523   3.987  0.0614  0.9919  1.8999
   33MOL0     H 4514  10.318   8.655   3.949  0.4744 -0.7334 -3.2679
   33MOL0     H 4515  10.325   8.528   3.838  0.1005 -1.4218 -0.0631
   33MOL0     H 4516  10.217   8.778   3.695 -0.2729  0.5637 -0.0141
   33MOL0     H 4517  10.167   8.989   3.549 -1.2523 -0.7863 -0.4219
   33MOL0     H 4518   9.951   9.377   3.609  1.4629 -3.1603 -4.0000
   33MOL0     H 4519   9.871   9.274   3.737  0.8355  0.5105  1.2889
   33MOL0     H 4520  10.037   9.402   3.858  1.5133 -1.0763  0.8326
   33MOL0     H 4521  10.065   9.222   3.848  1.4017  0.0122 -0.1646
   33MOL0     H 4522  10.199   9.322   3.633 -3.4286 -3.3233  0.5886
   33MOL0     H 4523  10.259   9.268   3.800 -1.1075  0.1271  1.2883
   33MOL0     H 4524  10.377   9.470   3.713  0.2052  0.1276 -0.8122
   33MOL0     H 4525  10.281   9.494   3.864 -2.6981  2.2178 -0.3210
   33MOL0     H 4526  10.255   9.619   3.596 -0.0153  1.3893  0.0057
   33MOL0     H 4527  10.105   9.588   3.691  0.3054  1.0604 -0.3157
   33MOL0     H 4528  10.343   9.769   3.786  0.1504 -0.8855  1.5992
   33MOL0     H 4529  10.229   9.715   3.891  2.0070 -3.6480 -1.2590
   33MOL0     H 4530  10.057   9.824   3.722  0.1300 -2.0218 -0.5190
   33MOL0     H 4531  10.213   9.888   3.664  2.0139 -1.6005  1.6616
   33MOL0     H 4532  10.087  10.039   3.826 -0.1730  1.1789  2.7350
   33MOL0     H 4533  10.240   9.972   3.907  0.8802 -0.3651 -1.6393
   33MOL0     H 4534   9.808   9.037   3.779  0.6528  1.5895  1.3116
   33MOL0     H 4535   9.852   8.831   3.885  2.5691 -3.4169  0.1796
   33MOL0     H 4536   9.876   8.408   4.071 -0.3225 -1.9470 -1.4001
   33MOL0     H 4537   9.955   8.198   4.121 -0.5844  0.2170 -2.1250
   33MOL0     H 4538  10.272   8.081   4.850  0.6604 -1.8670  0.4568
   33MOL0     H 4539  10.184   8.182   5.060  0.0807  1.4700  2.0852
   33MOL0     H 4540  10.327   8.258   5.618 -3.3272 -1.3317 -1.6740
   33MOL0     H 4541  10.250   8.409   5.797 -1.9587  0.2826 -0.4509
   33MOL0     H 4542  10.299   8.764   5.905 -0.2643 -0.2639  0.0303
   33MOL0     H 4543  10.328   8.792   5.734  1.3456 -0.7017  0.4756
   33MOL0     H 4544  10.082   8.882   5.898  0.2701 -0.4029  0.4553
   33MOL0     H 4545  10.068   8.841   5.733  1.0507  1.6621 -2.0918
   33MOL0     H 4546  10.217   9.014   5.655 -0.2930 -1.2298 -0.1146
   33MOL0     H 4547  10.125   9.094   5.765 -1.4748 -0.9032 -2.7844
   33MOL0     H 4548  10.406   8.994   5.847 -0.4071 -0.1933 -0.1378
   33MOL0     H 4549  10.281   9.069   5.954 -3.4238 -0.0067 -0.9996
   33MOL0     H 4550  10.434   9.417   5.823  0.1282  1.4002  1.6794
   33MOL0     H 4551  10.216   8.720   5.512  0.8386  0.2005  2.1321
   33MOL0     H 4552  10.296   8.550   5.226  0.3912 -3.1504  1.1406
   33MOL0     H 4553  10.320   8.712   5.301 -3.2618 -0.4079  0.4065
   33MOL0     H 4554  10.455   8.607   5.295  0.4160  0.9373 -0.6308
   34MOL0     O 4555   0.784   6.557   0.630 -1.0138 -0.3487 -0.0257
   34MOL0     C 4556   0.830   6.660   0.597 -0.6190 -0.0725 -0.4681
   34MOL0     O 4557   0.816   6.712   0.470 -0.6493  0.1208  0.4064
   34MOL0     C 4558   0.763   6.640   0.370 -0.3142  0.1171 -0.7087
   34MOL0     C 4559   0.813   6.518   0.320 -0.1100 -0.2487 -0.9054
   34MOL0     C 4560   0.752   6.466   0.203  0.1472  0.1769  0.0719
   34MOL0     C 4561   0.640   6.538   0.138 -0.5752 -0.1826 -0.6033
   34MOL0     O 4562   0.573   6.500   0.024 -0.5033 -0.3461  0.0992
   34MOL0     C 4563   0.571   6.357  -0.005 -0.3390  0.4042  0.4869
   34MOL0     C 4564   0.444   6.316  -0.082  0.4213  0.3269  1.1008
   34MOL0     C 4565   0.469   6.185  -0.182 -0.1966 -0.0830 -0.6255
   34MOL0     C 4566   0.331   6.128  -0.216  0.2477  0.5627  0.5340
   34MOL0     C 4567   0.311   6.011  -0.312  0.5513 -0.6008  0.6116
   34MOL0     C 4568   0.398   5.883  -0.270 -0.4854  0.2214 -0.7276
   34MOL0     C 4569   0.420   5.791  -0.390  0.3443 -0.5151  0.5411
   34MOL0     C 4570   0.296   5.713  -0.440  0.0460  0.5909 -0.2697
   34MOL0     N 4571   0.224   5.658  -0.327  1.1443 -0.8529  0.5517
   34MOL0     C 4572   0.091   5.677  -0.324  0.7117 -0.5464  0.1183
   34MOL0     C 4573   0.047   5.610  -0.221 -0.2537 -0.4458  0.0518
   34MOL0     C 4574  -0.093   5.605  -0.187  0.2327  0.9822  0.1591
   34MOL0     C 4575  -0.179   5.721  -0.191  0.1550  0.8668  0.1276
   34MOL0     C 4576  -0.255   5.732  -0.325 -0.7727  1.2973 -0.9309
   34MOL0     C 4577  -0.340   5.853  -0.316  0.5282  0.3558 -0.1210
   34MOL0     O 4578  -0.445   5.829  -0.215  0.2359  0.4625  0.6488
   34MOL0     C 4579  -0.542   5.930  -0.193 -1.4728  0.3156  0.6843
   34MOL0     C 4580  -0.567   5.942  -0.056 -0.5754 -0.5175 -0.7058
   34MOL0     C 4581  -0.628   6.060  -0.003 -0.0283  0.1370 -0.8289
   34MOL0     C 4582  -0.648   6.066   0.157  0.0486 -1.0513  0.1634
   34MOL0     C 4583  -0.686   6.148  -0.092  0.0429 -0.0856  0.1353
   34MOL0     C 4584  -0.773   6.268  -0.046  0.1505 -0.1011  0.6174
   34MOL0     O 4585  -0.722   6.351   0.054 -0.0372  0.5543  0.2393
   34MOL0     C 4586  -0.810   6.429   0.128  0.2451  0.3525  0.2381
   34MOL0     C 4587  -0.940   6.384   0.163  0.1970  1.0706 -0.2995
   34MOL0     C 4588  -1.039   6.466   0.227  0.0239 -0.8755  0.0722
   34MOL0     C 4589  -1.002   6.603   0.257 -1.0129  0.2862 -0.0059
   34MOL0     O 4590  -1.094   6.695   0.301  0.2060  0.3520  0.4810
   34MOL0     C 4591  -1.215   6.659   0.372  0.5823  0.1847  0.5017
   34MOL0     C 4592  -1.293   6.788   0.404  0.3481 -0.4405 -0.4380
   34MOL0     C 4593  -1.365   6.858   0.290  0.0174 -0.5930 -0.4347
   34MOL0     C 4594  -1.434   6.986   0.335 -0.5085 -0.5392  0.0833
   34MOL0     C 4595  -1.547   7.027   0.243  0.1720 -0.6719  0.6312
   34MOL0     C 4596  -1.680   6.968   0.255  0.1472  0.3855 -0.0933
   34MOL0     C 4597  -1.793   7.061   0.199  0.2457  1.0853 -0.2130
   34MOL0     C 4598  -1.896   7.125   0.310  0.2689 -0.0337  0.0974
   34MOL0    Cl 4599  -2.030   7.210   0.215  0.0006  0.0778  0.2924
   34MOL0     C 4600  -0.872   6.646   0.229 -0.5040  0.6153 -1.0434
   34MOL0     C 4601  -0.779   6.562   0.162  0.7329 -0.2980  0.0167
   34MOL0     O 4602  -0.884   6.281  -0.103 -0.2791  0.2460 -0.0672
   34MOL0     C 4603  -0.675   6.131  -0.235  0.3952 -0.7024 -0.0779
   34MOL0     C 4604  -0.597   6.019  -0.287  0.6218 -0.1079 -0.2589
   34MOL0     N 4605   0.156   5.538  -0.175  0.1388 -0.2262 -0.5199
   34MOL0     N 4606   0.260   5.562  -0.244  0.1256 -0.6932  0.2982
   34MOL0     C 4607   0.595   6.652   0.192 -0.7848  0.2394  0.0713
   34MOL0     C 4608   0.659   6.700   0.312 -0.0964 -0.2036  0.8244
   34MOL0     C 4609   0.920   6.739   0.685 -0.6416  0.4164  0.4446
   34MOL0     C 4610   0.976   6.856   0.631 -0.1267 -0.3133  0.3982
   34MOL0     C 4611   1.091   6.915   0.693 -0.4927  0.0656  1.2257
   34MOL0     C 4612   1.128   6.881   0.821 -0.0927 -0.3173  0.1996
   34MOL0     O 4613   1.238   6.930   0.888  0.1367  0.2081 -0.2166
   34MOL0     C 4614   1.369   6.862   0.862  1.0196  0.1504 -0.5026
   34MOL0     C 4615   1.454   6.828   0.990  0.5033  0.4583 -0.3554
   34MOL0     C 4616   1.363   6.734   1.068  0.1224 -0.7620 -0.4080
   34MOL0     C 4617   1.467   6.638   1.155 -0.0211 -0.2375 -0.6238
   34MOL0     C 4618   1.405   6.543   1.248  1.0597 -0.3225 -0.3995
   34MOL0     C 4619   1.356   6.453   1.318 -0.1287  0.2751 -0.1421
   34MOL0     C 4620   1.059   6.781   0.889 -0.6176 -0.3423 -1.1807
   34MOL0     C 4621   0.955   6.708   0.821 -0.3211 -0.8014 -0.3194
   34MOL0     C 4622   0.885   6.594   0.898  0.7308  0.1123 -0.3616
   34MOL0     H 4623   0.892   6.471   0.378 -0.8714  1.2280  1.4554
   34MOL0     H 4624   0.779   6.369   0.164  0.3231  0.0850  0.4234
   34MOL0     H 4625   0.576   6.301   0.088 -2.0103 -1.5332 -0.5247
   34MOL0     H 4626   0.651   6.319  -0.069 -0.3849 -0.6731  1.0526
   34MOL0     H 4627   0.367   6.293  -0.007 -1.2881 -1.4621 -1.0830
   34MOL0     H 4628   0.401   6.389  -0.151  4.7920 -1.6729 -4.4094
   34MOL0     H 4629   0.518   6.220  -0.273 -0.5784  3.0560  0.2713
   34MOL0     H 4630   0.547   6.122  -0.137  1.5245  1.2912 -1.5587
   34MOL0     H 4631   0.280   6.096  -0.124  0.5857 -4.5987 -0.7697
   34MOL0     H 4632   0.285   6.211  -0.270  3.9451 -0.3471 -4.7422
   34MOL0     H 4633   0.351   6.044  -0.409  1.8447  1.5452  1.7783
   34MOL0     H 4634   0.205   5.997  -0.334  0.0569  1.5667  1.3729
   34MOL0     H 4635   0.496   5.923  -0.244 -0.4997  0.0614 -0.4211
   34MOL0     H 4636   0.373   5.843  -0.172  1.1180  0.3286 -0.2518
   34MOL0     H 4637   0.499   5.724  -0.358 -0.8807 -2.8399 -0.9919
   34MOL0     H 4638   0.460   5.851  -0.472 -2.9935  0.6921 -0.3989
   34MOL0     H 4639   0.240   5.795  -0.485  1.6751  0.9796 -1.7185
   34MOL0     H 4640   0.309   5.639  -0.520 -0.5073 -2.8901  2.5601
   34MOL0     H 4641   0.045   5.758  -0.380 -0.2892 -0.3612  1.1480
   34MOL0     H 4642  -0.096   5.560  -0.088 -0.0040 -1.7137 -0.9749
   34MOL0     H 4643  -0.132   5.522  -0.246 -0.7516  0.7676  1.0859
   34MOL0     H 4644  -0.257   5.716  -0.114  0.8828 -0.6372  0.8004
   34MOL0     H 4645  -0.113   5.807  -0.179  2.3904 -0.2426 -2.9626
   34MOL0     H 4646  -0.179   5.754  -0.401  1.0106 -0.4669  0.2304
   34MOL0     H 4647  -0.305   5.639  -0.352  3.4512 -1.5420  0.0416
   34MOL0     H 4648  -0.293   5.946  -0.281 -5.1793  3.1783  1.3443
   34MOL0     H 4649  -0.377   5.867  -0.418  2.0208 -0.3717 -0.7934
   34MOL0     H 4650  -0.525   5.864   0.007 -0.3116  1.7541  2.0764
   34MOL0     H 4651  -0.659   5.963   0.193 -0.2448 -0.9104  0.4856
   34MOL0     H 4652  -0.734   6.130   0.181 -0.9356 -2.1566 -0.3057
   34MOL0     H 4653  -0.555   6.099   0.204  1.0425 -2.0327 -1.0727
   34MOL0     H 4654  -0.962   6.280   0.140  0.0588  0.4078  2.4561
   34MOL0     H 4655  -1.138   6.434   0.260  0.3625  1.4896  3.9711
   34MOL0     H 4656  -1.277   6.609   0.297  3.1411 -0.4228 -1.3668
   34MOL0     H 4657  -1.179   6.596   0.454 -0.0022  0.6091  1.0899
   34MOL0     H 4658  -1.369   6.753   0.474  2.4968 -2.6185  0.9383
   34MOL0     H 4659  -1.235   6.866   0.454 -0.3443  2.0523 -3.1942
   34MOL0     H 4660  -1.433   6.783   0.248  0.5792 -2.1171  1.2682
   34MOL0     H 4661  -1.290   6.887   0.216 -0.0507 -1.5362 -0.8898
   34MOL0     H 4662  -1.352   7.059   0.334 -1.7259  0.8839 -0.2259
   34MOL0     H 4663  -1.477   6.979   0.435 -1.9830  0.9965 -0.3787
   34MOL0     H 4664  -1.570   7.130   0.270 -2.6977 -1.0155 -0.1997
   34MOL0     H 4665  -1.523   7.028   0.136 -3.3939 -1.5013 -0.3107
   34MOL0     H 4666  -1.713   6.958   0.359  0.4541 -2.1640 -0.1752
   34MOL0     H 4667  -1.674   6.872   0.204  1.4622  0.5893 -0.3485
   34MOL0     H 4668  -1.847   7.003   0.124 -1.7665  1.3073  0.9809
   34MOL0     H 4669  -1.745   7.148   0.154  2.5594 -1.0752 -2.2053
   34MOL0     H 4670  -1.845   7.203   0.367 -0.1155  1.6332 -1.7338
   34MOL0     H 4671  -1.939   7.046   0.372  1.8971 -1.7432 -0.8665
   34MOL0     H 4672  -0.852   6.751   0.249 -1.1793  1.6682 -4.9817
   34MOL0     H 4673  -0.684   6.607   0.134 -0.9642  2.7674 -1.2928
   34MOL0     H 4674  -0.750   6.188  -0.289 -0.4884 -2.4108 -0.7291
   34MOL0     H 4675  -0.587   6.021  -0.395  1.8142  0.6380 -0.1508
   34MOL0     H 4676   0.509   6.707   0.153  0.6194  1.7862 -1.0066
   34MOL0     H 4677   0.619   6.796   0.344  2.2687  0.3592  2.3441
   34MOL0     H 4678   0.940   6.886   0.533 -0.9330 -3.4953 -0.4027
   34MOL0     H 4679   1.158   6.976   0.634  1.2468 -1.1189  1.8822
   34MOL0     H 4680   1.352   6.762   0.821  0.9443 -1.2161  2.5484
   34MOL0     H 4681   1.429   6.920   0.791  2.3452  1.7457  1.8004
   34MOL0     H 4682   1.474   6.911   1.059  2.6873  0.7060 -1.2126
   34MOL0     H 4683   1.547   6.776   0.966  0.8268  1.2476 -0.8157
   34MOL0     H 4684   1.302   6.799   1.132 -0.8338 -2.5381  0.5488
   34MOL0     H 4685   1.293   6.675   1.009 -3.0466 -0.3421  2.6116
   34MOL0     H 4686   1.545   6.695   1.206 -2.7535  1.8009  1.5870
   34MOL0     H 4687   1.527   6.576   1.088 -1.2097 -1.0838 -0.9232
   34MOL0     H 4688   1.323   6.364   1.369  0.5644 -1.1191 -2.0093
   34MOL0     H 4689   1.093   6.757   0.989 -0.0843 -2.0323 -1.7412
   34MOL0     H 4690   0.778   6.606   0.879  0.1942 -2.8964  0.2852
   34MOL0     H 4691   0.929   6.511   0.842  0.2289 -1.9688  2.1263
   34MOL0     H 4692   0.911   6.606   1.004  1.1839  0.0933 -0.4695
   35MOL0     O 4693  11.437   4.675   2.880 -0.2937 -0.4272  0.3857
   35MOL0     C 4694  11.551   4.714   2.901 -0.4331  1.2029  0.3553
   35MOL0     O 4695  11.655   4.663   2.821 -0.1666 -0.3679 -0.5684
   35MOL0     C 4696  11.630   4.585   2.711  0.1021  0.1141  0.3981
   35MOL0     C 4697  11.557   4.621   2.595 -0.1907  0.6286 -0.2405
   35MOL0     C 4698  11.559   4.527   2.484 -0.9324 -0.1947 -0.1357
   35MOL0     C 4699  11.615   4.404   2.497  0.9533 -0.1232 -0.0444
   35MOL0     O 4700  11.612   4.311   2.393 -0.6749  0.0363 -0.0930
   35MOL0     C 4701  11.494   4.229   2.408 -1.0058 -0.2904 -0.2577
   35MOL0     C 4702  11.504   4.097   2.332 -1.1019  0.8691  0.3852
   35MOL0     C 4703  11.389   3.996   2.336 -0.1740  0.4269 -0.3635
   35MOL0     C 4704  11.266   4.029   2.255 -0.3264 -1.1606 -0.1736
   35MOL0     C 4705  11.150   3.924   2.257  0.1013 -0.4131 -0.9841
   35MOL0     C 4706  11.194   3.776   2.222 -0.6683  0.2731 -0.1387
   35MOL0     C 4707  11.093   3.675   2.269  1.0112 -0.2356  0.1184
   35MOL0     C 4708  10.957   3.707   2.193 -1.2208  0.2995 -0.6358
   35MOL0     N 4709  10.867   3.590   2.208 -0.6121 -1.2878 -0.0901
   35MOL0     C 4710  10.824   3.504   2.110  0.2570  0.0353 -0.6461
   35MOL0     C 4711  10.754   3.415   2.180  0.4630 -0.1818 -0.3586
   35MOL0     C 4712  10.689   3.287   2.133  0.1052 -0.1744 -0.3244
   35MOL0     C 4713  10.692   3.159   2.236 -0.7520 -0.5169 -0.1110
   35MOL0     C 4714  10.658   3.021   2.173 -0.4478  0.2758  0.0602
   35MOL0     C 4715  10.506   3.012   2.145  0.5546  0.6926  0.1319
   35MOL0     O 4716  10.459   3.085   2.023 -0.1580 -0.0965 -0.1660
   35MOL0     C 4717  10.324   3.112   2.016 -0.7869  0.4983 -0.3310
   35MOL0     C 4718  10.218   3.028   2.070 -0.4296 -0.5808 -0.5981
   35MOL0     C 4719  10.088   3.057   2.026 -0.6961 -0.3763  0.2595
   35MOL0     C 4720   9.984   2.964   2.082  0.9709  0.9982 -0.4107
   35MOL0     C 4721  10.054   3.158   1.926  0.2405  0.4341 -0.8121
   35MOL0     C 4722   9.918   3.191   1.876  0.3778  0.5496 -0.2897
   35MOL0     O 4723   9.815   3.136   1.949  1.1313 -0.0641  0.0090
   35MOL0     C 4724   9.693   3.126   1.878  0.1375 -0.2963 -0.9516
   35MOL0     C 4725   9.629   2.995   1.871 -0.4381  0.0508 -0.0408
   35MOL0     C 4726   9.511   2.981   1.811  0.0919 -0.2308 -0.1213
   35MOL0     C 4727   9.441   3.092   1.751 -0.1297  0.5681 -0.7329
   35MOL0     O 4728   9.319   3.063   1.710 -0.5166 -0.4175  1.1618
   35MOL0     C 4729   9.219   3.164   1.720 -0.3765 -0.0953  0.3120
   35MOL0     C 4730   9.070   3.113   1.741  0.4925 -0.1284  0.7332
   35MOL0     C 4731   9.050   3.020   1.870  0.7670 -0.0172  0.3442
   35MOL0     C 4732   8.907   2.974   1.873  0.8295  1.0667  0.4252
   35MOL0     C 4733   8.862   2.878   1.988 -0.3048 -1.3029 -0.0854
   35MOL0     C 4734   8.729   2.804   1.972  1.0198  0.0622  0.7985
   35MOL0     C 4735   8.692   2.749   2.109  0.1291  0.4071  0.5347
   35MOL0     C 4736   8.593   2.633   2.108 -1.0727 -0.0243 -0.1796
   35MOL0    Cl 4737   8.572   2.596   2.281 -0.1947 -0.3665 -0.5502
   35MOL0     C 4738   9.499   3.224   1.768 -0.2023  0.5695  0.4372
   35MOL0     C 4739   9.629   3.235   1.826 -0.2576  1.2155 -0.1682
   35MOL0     O 4740   9.911   3.232   1.760 -0.2285 -0.0474 -0.8567
   35MOL0     C 4741  10.161   3.225   1.872  0.9342 -0.4936 -0.3398
   35MOL0     C 4742  10.293   3.203   1.911  1.3875 -0.4006 -0.0213
   35MOL0     N 4743  10.753   3.443   2.313  0.2798 -0.6057 -0.1075
   35MOL0     N 4744  10.828   3.549   2.331  0.0677 -0.4822 -0.3436
   35MOL0     C 4745  11.686   4.362   2.615  0.0899 -0.9683  0.0600
   35MOL0     C 4746  11.694   4.459   2.715 -0.1104  0.1905 -0.8137
   35MOL0     C 4747  11.593   4.806   3.016 -1.0471  0.4662  1.2276
   35MOL0     C 4748  11.736   4.834   3.026  0.1444 -0.5836 -0.4849
   35MOL0     C 4749  11.774   4.917   3.130 -0.1638  0.0829  0.0076
   35MOL0     C 4750  11.679   4.980   3.214  0.3511 -0.3228 -0.5534
   35MOL0     O 4751  11.743   5.071   3.295 -0.4563  0.0681  0.2591
   35MOL0     C 4752  11.661   5.123   3.400 -0.8708  0.1351 -0.3578
   35MOL0     C 4753  11.742   5.210   3.501  0.4969  0.0794  0.0154
   35MOL0     C 4754  11.797   5.339   3.422 -1.2701 -0.1295  0.3695
   35MOL0     C 4755  11.820   5.452   3.510 -0.9347  0.0998 -0.4506
   35MOL0     C 4756  11.840   5.563   3.432 -0.1425 -0.4651  0.8377
   35MOL0     C 4757  11.861   5.643   3.348 -0.0746 -0.7918  0.5122
   35MOL0     C 4758  11.543   4.947   3.204 -0.9022 -0.6639  0.4178
   35MOL0     C 4759  11.500   4.867   3.102  0.1145 -0.5501  0.0312
   35MOL0     C 4760  11.346   4.840   3.096 -0.3400 -0.3736 -0.5006
   35MOL0     H 4761  11.510   4.718   2.602  1.3092  1.2453  3.7387
   35MOL0     H 4762  11.502   4.562   2.399 -0.4696 -0.2928 -0.4873
   35MOL0     H 4763  11.418   4.288   2.355 -0.4914 -1.3119 -2.2695
   35MOL0     H 4764  11.481   4.206   2.514  1.9857  0.9667  0.4851
   35MOL0     H 4765  11.540   4.115   2.231  1.4527 -1.2495  0.8142
   35MOL0     H 4766  11.588   4.041   2.374 -1.1842 -1.5459 -2.4013
   35MOL0     H 4767  11.444   3.912   2.291  2.9196  1.7527  0.6540
   35MOL0     H 4768  11.357   3.968   2.437  0.7497 -2.3967 -0.7455
   35MOL0     H 4769  11.236   4.129   2.287 -1.4830 -1.3398 -0.6556
   35MOL0     H 4770  11.302   4.053   2.155 -0.8376 -0.5200 -0.2076
   35MOL0     H 4771  11.076   3.975   2.194 -0.2846  2.2101  1.3934
   35MOL0     H 4772  11.102   3.927   2.355  0.7735  2.6229 -0.6590
   35MOL0     H 4773  11.210   3.771   2.114  1.7422  2.4369  0.0254
   35MOL0     H 4774  11.291   3.751   2.266  1.3548 -0.1361 -4.3099
   35MOL0     H 4775  11.073   3.681   2.376  1.1610 -1.7126  0.2514
   35MOL0     H 4776  11.117   3.571   2.248  1.0154 -0.0351 -0.9530
   35MOL0     H 4777  10.905   3.791   2.240 -2.3468  0.2126 -1.6928
   35MOL0     H 4778  10.979   3.729   2.088 -3.8292  0.5884 -1.1807
   35MOL0     H 4779  10.834   3.504   2.002 -2.7669 -2.0689 -1.0524
   35MOL0     H 4780  10.748   3.250   2.049  1.9090 -3.0019  1.9841
   35MOL0     H 4781  10.586   3.310   2.105 -1.4587 -3.4793  1.9431
   35MOL0     H 4782  10.781   3.150   2.298 -0.8010 -1.0943 -0.1244
   35MOL0     H 4783  10.612   3.165   2.311  1.4072 -0.9714  2.4062
   35MOL0     H 4784  10.712   3.006   2.079  1.6147 -3.3093  1.6115
   35MOL0     H 4785  10.688   2.942   2.242  1.6475  1.3110  0.4195
   35MOL0     H 4786  10.486   2.906   2.131  1.0545  0.4586  1.1027
   35MOL0     H 4787  10.442   3.029   2.233  1.0500  0.0066  0.6267
   35MOL0     H 4788  10.239   2.952   2.145 -0.8180 -0.3732 -0.2767
   35MOL0     H 4789   9.940   2.912   1.996 -1.9887 -2.0187  2.6103
   35MOL0     H 4790   9.899   3.004   2.138 -0.0022 -0.0821 -1.0763
   35MOL0     H 4791  10.030   2.887   2.145  0.0041  0.7828  0.0446
   35MOL0     H 4792   9.684   2.909   1.910  1.6062 -0.3398 -3.4459
   35MOL0     H 4793   9.476   2.880   1.794  3.8036 -1.6426 -0.3982
   35MOL0     H 4794   9.262   3.223   1.802  0.4114 -3.1057  2.2381
   35MOL0     H 4795   9.213   3.220   1.627  0.0015 -0.4027  0.0974
   35MOL0     H 4796   9.003   3.199   1.731  1.4019  0.3001 -4.7576
   35MOL0     H 4797   9.036   3.042   1.665 -0.4878 -0.0633  1.0998
   35MOL0     H 4798   9.075   3.082   1.956 -0.4417  0.6220  0.2691
   35MOL0     H 4799   9.112   2.931   1.865  1.5007  0.3425  2.1929
   35MOL0     H 4800   8.889   2.914   1.783 -2.4964  2.2263  0.1768
   35MOL0     H 4801   8.840   3.058   1.854 -0.2118  0.3659  0.9271
   35MOL0     H 4802   8.940   2.803   2.003  0.5691 -0.1427  1.3678
   35MOL0     H 4803   8.859   2.941   2.078  1.1786 -2.5691  0.9015
   35MOL0     H 4804   8.728   2.718   1.904 -0.5265  0.8969 -0.3212
   35MOL0     H 4805   8.649   2.872   1.940  0.1527 -0.6424  1.4336
   35MOL0     H 4806   8.659   2.838   2.164  5.0399  2.8587  0.1371
   35MOL0     H 4807   8.779   2.721   2.169 -2.8156  0.8780  5.6207
   35MOL0     H 4808   8.629   2.540   2.063 -0.9156  0.3584 -0.8676
   35MOL0     H 4809   8.503   2.665   2.055 -1.2563 -2.0778 -1.2146
   35MOL0     H 4810   9.465   3.315   1.720  3.2474  1.0603 -1.3611
   35MOL0     H 4811   9.687   3.327   1.833 -0.5369  1.2462  2.6090
   35MOL0     H 4812  10.142   3.284   1.783  0.1364 -1.0496 -0.5409
   35MOL0     H 4813  10.372   3.256   1.860 -0.5495  3.9455  1.0397
   35MOL0     H 4814  11.735   4.265   2.616  2.4299  0.1501  0.8951
   35MOL0     H 4815  11.760   4.440   2.799 -1.1869  0.3397  0.0970
   35MOL0     H 4816  11.810   4.786   2.962 -0.5174  0.4685 -2.0991
   35MOL0     H 4817  11.881   4.928   3.143  0.4438 -1.3566 -2.8680
   35MOL0     H 4818  11.577   5.186   3.370 -1.6244  0.9692  3.0541
   35MOL0     H 4819  11.607   5.041   3.449 -3.3975  0.8460 -1.7713
   35MOL0     H 4820  11.836   5.168   3.540  2.4577  1.2767 -3.0595
   35MOL0     H 4821  11.666   5.236   3.576  1.1399  0.6448  0.4870
   35MOL0     H 4822  11.887   5.312   3.366 -1.0175 -1.2032  1.2486
   35MOL0     H 4823  11.716   5.374   3.356  0.0065  2.2125 -0.0645
   35MOL0     H 4824  11.909   5.417   3.563 -2.5308 -0.3083  2.1345
   35MOL0     H 4825  11.745   5.472   3.588  0.6906 -0.2548  1.2730
   35MOL0     H 4826  11.875   5.707   3.263 -1.3638 -1.4154 -0.2155
   35MOL0     H 4827  11.468   4.995   3.266 -1.1816 -1.4950  0.7359
   35MOL0     H 4828  11.294   4.891   3.178  1.1191 -1.2952  1.0798
   35MOL0     H 4829  11.307   4.870   2.998  1.4940 -1.4005 -1.6058
   35MOL0     H 4830  11.317   4.735   3.111 -1.6319  0.0097 -0.2115
   36MOL0     O 4831  10.912   9.943   6.178  0.1961  0.0830  0.3729
   36MOL0     C 4832  10.903   9.827   6.228  0.2040 -0.2593 -0.1130
   36MOL0     O 4833  10.851   9.791   6.346 -0.8820 -0.2666 -0.1933
   36MOL0     C 4834  10.761   9.870   6.409 -0.0679  0.2410  0.5412
   36MOL0     C 4835  10.650   9.938   6.351 -0.2695 -0.4246  0.8957
   36MOL0     C 4836  10.591  10.052   6.415 -0.6933  0.0350 -0.3992
   36MOL0     C 4837  10.646  10.102   6.533  0.5642 -0.4863  0.3616
   36MOL0     O 4838  10.592  10.222   6.574  0.1232 -0.3836 -0.2674
   36MOL0     C 4839  10.692  10.330   6.570 -0.0749  0.1615 -0.3219
   36MOL0     C 4840  10.647  10.440   6.466 -0.6217 -0.7817  0.5389
   36MOL0     C 4841  10.523  10.531   6.506 -0.4021 -1.1367 -0.0008
   36MOL0     C 4842  10.490  10.624   6.395 -0.3481 -0.4586 -0.0026
   36MOL0     C 4843  10.368  10.709   6.410 -0.2054 -0.8516 -1.3398
   36MOL0     C 4844  10.365  10.829   6.322  0.4187 -0.1842  1.1178
   36MOL0     C 4845  10.327  10.810   6.174 -0.7853  0.5752 -0.7311
   36MOL0     C 4846  10.353  10.948   6.115 -0.3388  0.0177  0.3440
   36MOL0     N 4847  10.501  10.951   6.080  0.0555  0.0739 -0.2399
   36MOL0     C 4848  10.591  11.041   6.136  0.6275  1.2012 -0.1509
   36MOL0     C 4849  10.707  11.011   6.071 -0.1322 -0.2961 -0.2222
   36MOL0     C 4850  10.847  11.071   6.102  0.1915 -0.3117  0.7558
   36MOL0     C 4851  10.842  11.230   6.137 -0.6528  0.4025  0.5324
   36MOL0     C 4852  10.799  11.269   6.274  0.3223 -0.0663  0.4287
   36MOL0     C 4853  10.903  11.239   6.382  1.1075  0.2837  0.3183
   36MOL0     O 4854  10.822  11.242   6.496 -0.1090  0.2492  0.0559
   36MOL0     C 4855  10.864  11.193   6.614  0.5926  0.6601  1.0475
   36MOL0     C 4856  10.993  11.166   6.653  0.3431  0.1543 -0.6955
   36MOL0     C 4857  11.022  11.120   6.785  1.0667  0.2587 -0.1488
   36MOL0     C 4858  11.160  11.091   6.820  0.1975  0.3399  1.0806
   36MOL0     C 4859  10.908  11.095   6.873 -0.4940 -0.5069 -0.5005
   36MOL0     C 4860  10.933  11.042   7.014  0.3983 -0.2420  0.1877
   36MOL0     O 4861  11.021  10.940   7.016 -1.2075  0.0077  0.6411
   36MOL0     C 4862  11.065  10.884   7.133  0.6240 -0.3580  0.4114
   36MOL0     C 4863  11.063  10.739   7.150  0.4024 -0.3808 -0.6599
   36MOL0     C 4864  11.118  10.688   7.271 -0.4112 -0.0262  0.4643
   36MOL0     C 4865  11.166  10.771   7.378 -0.6203 -0.3230  0.6610
   36MOL0     O 4866  11.202  10.702   7.494  0.2763  0.0948 -0.1382
   36MOL0     C 4867  11.196  10.774   7.621  0.0829 -0.5108 -1.0623
   36MOL0     C 4868  11.251  10.692   7.742  0.6350 -0.6013 -0.1255
   36MOL0     C 4869  11.252  10.779   7.875  1.0612  0.7840 -0.2676
   36MOL0     C 4870  11.295  10.677   7.984 -0.1059 -0.3512 -0.0660
   36MOL0     C 4871  11.292  10.749   8.116 -0.2031 -0.4568  0.0617
   36MOL0     C 4872  11.374  10.658   8.223  1.0686 -0.5788  0.3237
   36MOL0     C 4873  11.522  10.700   8.235 -0.3297  0.0165  0.3046
   36MOL0     C 4874  11.596  10.624   8.342  0.5030  1.3335 -0.6808
   36MOL0    Cl 4875  11.771  10.639   8.328 -0.0034 -0.1311 -0.4725
   36MOL0     C 4876  11.175  10.910   7.357 -0.2568 -0.5985  0.6122
   36MOL0     C 4877  11.119  10.963   7.236 -0.9722 -1.0273 -0.5466
   36MOL0     O 4878  10.861  11.069   7.106  0.7381 -0.1760 -0.2734
   36MOL0     C 4879  10.780  11.131   6.835 -0.5509 -0.0964 -0.2098
   36MOL0     C 4880  10.752  11.179   6.703  0.9476  0.3896  0.5092
   36MOL0     N 4881  10.673  10.928   5.967 -0.2205  0.6333  0.1204
   36MOL0     N 4882  10.561  10.877   5.985 -0.1232 -0.1535  1.2887
   36MOL0     C 4883  10.761  10.038   6.591 -0.7419 -1.0380 -1.0087
   36MOL0     C 4884  10.815   9.923   6.536 -0.0791 -0.5599 -0.3601
   36MOL0     C 4885  10.973   9.721   6.152  0.4993  0.1220  0.2872
   36MOL0     C 4886  11.017   9.616   6.223 -0.7416 -0.3414 -0.5195
   36MOL0     C 4887  11.098   9.523   6.160 -0.1357 -0.6624  0.6335
   36MOL0     C 4888  11.133   9.530   6.026 -0.3004  0.5613 -0.6297
   36MOL0     O 4889  11.217   9.450   5.952 -1.1494  0.1540  0.8007
   36MOL0     C 4890  11.214   9.314   5.999  0.0582  1.0305 -0.6642
   36MOL0     C 4891  11.067   9.260   5.996 -0.0633 -0.3470 -0.5535
   36MOL0     C 4892  11.005   9.277   5.856 -0.5351 -0.4759  0.5216
   36MOL0     C 4893  10.873   9.207   5.821  0.0805  0.0284  0.5938
   36MOL0     C 4894  10.886   9.066   5.844  0.0348 -0.2658  0.0276
   36MOL0     C 4895  10.900   8.944   5.854  0.6585  1.3576  0.0328
   36MOL0     C 4896  11.073   9.627   5.955 -0.5816 -0.2750  1.0480
   36MOL0     C 4897  10.992   9.731   6.010 -0.1991  0.1674 -0.0972
   36MOL0     C 4898  10.926   9.833   5.928 -0.1684 -0.8559  0.5282
   36MOL0     H 4899  10.613   9.900   6.256  1.0565 -0.0645  0.2184
   36MOL0     H 4900  10.512  10.104   6.363  0.3982  0.5447 -1.6006
   36MOL0     H 4901  10.791  10.298   6.536 -0.7527  0.3394 -2.6373
   36MOL0     H 4902  10.691  10.376   6.670 -3.4910  0.7046 -0.4911
   36MOL0     H 4903  10.737  10.502   6.470 -1.3014  0.4069 -1.2891
   36MOL0     H 4904  10.634  10.409   6.362  0.9929  1.5217 -0.4338
   36MOL0     H 4905  10.434  10.475   6.534  0.5043 -2.2091  0.8229
   36MOL0     H 4906  10.559  10.597   6.586 -2.5433  0.0445  0.0419
   36MOL0     H 4907  10.580  10.685   6.398 -1.6563  1.5295  1.0506
   36MOL0     H 4908  10.488  10.560   6.306  3.0237 -1.7974  0.7325
   36MOL0     H 4909  10.373  10.749   6.511  2.0448  2.1236 -2.4712
   36MOL0     H 4910  10.285  10.639   6.392 -0.2757 -1.0478 -0.2633
   36MOL0     H 4911  10.296  10.899   6.371  1.2137  1.4038  0.0628
   36MOL0     H 4912  10.468  10.868   6.324  0.5495 -0.5254  1.0039
   36MOL0     H 4913  10.223  10.779   6.185 -1.9955  2.7041 -4.2014
   36MOL0     H 4914  10.396  10.738   6.130 -1.9154 -1.5761  0.8619
   36MOL0     H 4915  10.294  10.950   6.023 -0.1843  2.4750  0.2242
   36MOL0     H 4916  10.315  11.032   6.174 -1.3811  1.0880 -1.7456
   36MOL0     H 4917  10.565  11.119   6.207  2.8471  1.1232  0.8196
   36MOL0     H 4918  10.924  11.056   6.026  0.5864 -0.8402  1.2459
   36MOL0     H 4919  10.879  11.007   6.185 -2.9578 -4.2891 -0.7523
   36MOL0     H 4920  10.945  11.264   6.126 -0.4002  0.7239  3.2183
   36MOL0     H 4921  10.771  11.267   6.063 -1.9297 -1.3251  0.8273
   36MOL0     H 4922  10.793  11.378   6.281  2.9223  0.3317 -1.8175
   36MOL0     H 4923  10.695  11.241   6.295 -0.3995  3.3003  2.0554
   36MOL0     H 4924  10.954  11.145   6.362 -0.6330 -1.1990  2.4061
   36MOL0     H 4925  10.971  11.325   6.385 -1.8606  2.8228  0.9679
   36MOL0     H 4926  11.081  11.190   6.594  0.2888  1.4873 -0.2825
   36MOL0     H 4927  11.156  11.128   6.923 -1.5079 -0.8931  1.5095
   36MOL0     H 4928  11.235  11.147   6.763 -0.5169  1.5032  1.2627
   36MOL0     H 4929  11.175  10.982   6.812 -1.3476  0.0157  2.1480
   36MOL0     H 4930  11.030  10.676   7.068 -0.5607 -0.9089  0.1026
   36MOL0     H 4931  11.103  10.583   7.295  0.5290  0.2568  2.4504
   36MOL0     H 4932  11.263  10.859   7.604  1.8858 -1.9335 -1.3602
   36MOL0     H 4933  11.094  10.807   7.644  1.4849  4.0069 -0.2503
   36MOL0     H 4934  11.209  10.592   7.741  5.2895 -2.8247  0.6983
   36MOL0     H 4935  11.357  10.674   7.723  1.4032  2.5320  0.4784
   36MOL0     H 4936  11.152  10.819   7.897  0.8700 -0.3172  1.0381
   36MOL0     H 4937  11.311  10.870   7.864 -0.4014  1.9749  1.2903
   36MOL0     H 4938  11.400  10.661   7.956  0.9585  4.7285  0.1014
   36MOL0     H 4939  11.229  10.590   7.991 -4.8801  2.7332 -2.3114
   36MOL0     H 4940  11.352  10.841   8.108  0.7199 -1.1252 -0.8817
   36MOL0     H 4941  11.194  10.771   8.160  0.6932  3.7326  0.4041
   36MOL0     H 4942  11.371  10.551   8.201  1.5346 -0.7671  1.1582
   36MOL0     H 4943  11.324  10.692   8.314 -0.1977  1.1877 -0.9365
   36MOL0     H 4944  11.535  10.809   8.244 -1.8023  0.7897 -4.3311
   36MOL0     H 4945  11.568  10.667   8.141 -2.3770 -4.2312  0.5646
   36MOL0     H 4946  11.571  10.518   8.331  2.1751  1.0328 -2.1223
   36MOL0     H 4947  11.565  10.654   8.442  0.9041  2.8624 -0.9925
   36MOL0     H 4948  11.229  10.977   7.423  1.5210  2.0999 -3.2111
   36MOL0     H 4949  11.128  11.068   7.212 -3.7604 -0.0732  1.9827
   36MOL0     H 4950  10.698  11.118   6.906 -0.7796 -0.9251 -0.6181
   36MOL0     H 4951  10.651  11.202   6.672 -0.8617 -1.5303  4.3218
   36MOL0     H 4952  10.817  10.079   6.674 -1.9672  1.6912 -1.4372
   36MOL0     H 4953  10.907   9.882   6.574  1.2027  1.6154 -0.9426
   36MOL0     H 4954  10.987   9.583   6.322  0.2915 -1.8116 -0.6727
   36MOL0     H 4955  11.150   9.449   6.220 -0.4140 -1.4192 -0.0339
   36MOL0     H 4956  11.278   9.258   5.931  2.5030 -1.3770  3.1937
   36MOL0     H 4957  11.259   9.307   6.099 -0.2918 -1.8296 -0.6248
   36MOL0     H 4958  11.012   9.327   6.064  2.0183 -0.9598  1.8697
   36MOL0     H 4959  11.066   9.161   6.043  0.0514  0.1123  0.4386
   36MOL0     H 4960  10.979   9.383   5.845  0.1120 -0.5077 -1.8220
   36MOL0     H 4961  11.080   9.257   5.779 -1.9621 -0.2200 -0.9893
   36MOL0     H 4962  10.847   9.220   5.715 -1.6849 -0.7059  0.9136
   36MOL0     H 4963  10.783   9.236   5.875 -0.0303  1.1522 -0.1361
   36MOL0     H 4964  10.931   8.841   5.854 -1.0647  0.8083  0.0199
   36MOL0     H 4965  11.092   9.647   5.850  0.6341  3.0388  1.7858
   36MOL0     H 4966  10.978   9.921   5.967  0.7945 -0.8866 -0.6039
   36MOL0     H 4967  10.955   9.832   5.822 -0.7324 -1.7366  0.3743
   36MOL0     H 4968  10.821   9.834   5.957  0.1068  4.2528  2.4526
   37MOL0     O 4969   3.664  10.403   9.971 -0.9440 -0.5016  1.2712
   37MOL0     C 4970   3.689  10.522   9.997  0.7416  0.6045  0.2511
   37MOL0     O 4971   3.814  10.573  10.011 -0.4394 -0.1541  0.2356
   37MOL0     C 4972   3.929  10.496   9.993  0.6605 -0.6465 -0.0693
   37MOL0     C 4973   3.982  10.433  10.102 -0.7261  0.0035  0.1687
   37MOL0     C 4974   4.095  10.356  10.089  0.6661 -0.9086  0.3810
   37MOL0     C 4975   4.167  10.360   9.958  0.6744  0.2912 -0.1242
   37MOL0     O 4976   4.285  10.296   9.935  0.0633  0.0954 -0.2117
   37MOL0     C 4977   4.344  10.205  10.030  0.0582  0.5567 -0.0171
   37MOL0     C 4978   4.440  10.283  10.129  1.0735  0.4218 -0.3374
   37MOL0     C 4979   4.539  10.358  10.057  0.3366  0.2129 -0.4037
   37MOL0     C 4980   4.638  10.418  10.163 -0.8645 -1.3880  0.7982
   37MOL0     C 4981   4.735  10.508  10.090  0.5004  0.6102  0.2277
   37MOL0     C 4982   4.691  10.636  10.024 -0.4346 -0.0882  0.1215
   37MOL0     C 4983   4.809  10.685   9.939  0.1366  0.0003 -0.1645
   37MOL0     C 4984   4.798  10.833   9.935  0.3027  0.1245  0.4432
   37MOL0     N 4985   4.911  10.878   9.848 -0.1354  0.3234  1.3640
   37MOL0     C 4986   4.901  10.902   9.716 -0.1599  0.2585  0.8690
   37MOL0     C 4987   5.032  10.915   9.680  0.4915  0.3194 -0.0993
   37MOL0     C 4988   5.076  10.930   9.537  0.4809  0.8533  0.0049
   37MOL0     C 4989   5.152  11.057   9.517 -0.2842 -0.4224  0.6509
   37MOL0     C 4990   5.237  11.049   9.391  0.7221  0.6286 -0.4026
   37MOL0     C 4991   5.289  11.180   9.349 -0.3003  0.3294  0.6654
   37MOL0     O 4992   5.197  11.293   9.371 -0.2451  0.0940  0.1484
   37MOL0     C 4993   5.103  11.317   9.276 -0.3493 -0.7061 -0.3100
   37MOL0     C 4994   5.013  11.417   9.319  0.9953  0.0535  0.3427
   37MOL0     C 4995   4.891  11.448   9.251 -0.6755 -0.5507  1.0510
   37MOL0     C 4996   4.790  11.540   9.302  0.3179 -0.1747 -0.0908
   37MOL0     C 4997   4.856  11.372   9.135 -0.5172  0.0973  0.7894
   37MOL0     C 4998   4.730  11.363   9.054 -0.3135 -0.4313  0.1180
   37MOL0     O 4999   4.616  11.426   9.108  0.0196  0.5034  0.0154
   37MOL0     C 5000   4.499  11.429   9.028  0.2170  0.3148 -0.0269
   37MOL0     C 5001   4.430  11.310   9.008  0.5648  0.0161  1.7114
   37MOL0     C 5002   4.305  11.301   8.941  0.7349 -0.0498 -0.7020
   37MOL0     C 5003   4.251  11.422   8.893 -0.3376 -0.3337  0.5656
   37MOL0     O 5004   4.137  11.421   8.822  0.4531 -0.7171  0.1393
   37MOL0     C 5005   4.085  11.535   8.750  0.3449 -0.3514  0.9616
   37MOL0     C 5006   3.985  11.495   8.633  0.4243  0.6840 -0.4295
   37MOL0     C 5007   4.059  11.444   8.508 -0.2438 -0.1534 -0.0781
   37MOL0     C 5008   4.167  11.542   8.458 -0.6080  0.0304  0.0404
   37MOL0     C 5009   4.241  11.508   8.327  0.3210 -0.4000  0.0808
   37MOL0     C 5010   4.318  11.641   8.290  0.5827  0.1864 -0.0941
   37MOL0     C 5011   4.398  11.637   8.164  0.3352 -0.9063  0.5410
   37MOL0     C 5012   4.428  11.773   8.098  0.2295 -0.2576 -0.9134
   37MOL0    Cl 5013   4.544  11.870   8.210  0.1076  0.1129  0.1905
   37MOL0     C 5014   4.329  11.547   8.908  0.1915  0.4731 -0.3624
   37MOL0     C 5015   4.451  11.548   8.974 -0.2734  0.4601  0.2378
   37MOL0     O 5016   4.730  11.301   8.951 -0.6792  1.1994 -0.0167
   37MOL0     C 5017   4.952  11.278   9.091 -0.4556  0.5866  0.0576
   37MOL0     C 5018   5.080  11.253   9.156  0.4719  0.3856  0.2481
   37MOL0     N 5019   5.118  10.899   9.797 -0.9204 -0.0987  0.4285
   37MOL0     N 5020   5.039  10.875   9.895 -0.0732  0.8392 -0.3267
   37MOL0     C 5021   4.106  10.426   9.854 -0.1644  0.4486  0.2465
   37MOL0     C 5022   3.984  10.494   9.870  0.1038 -0.4470 -0.5364
   37MOL0     C 5023   3.574  10.615  10.020 -0.6586 -0.2785 -0.4098
   37MOL0     C 5024   3.597  10.726  10.107 -0.0672 -0.8152 -0.0572
   37MOL0     C 5025   3.495  10.813  10.143 -0.3070  0.3171  0.2406
   37MOL0     C 5026   3.368  10.788  10.100  0.1611 -0.1013 -0.5429
   37MOL0     O 5027   3.253  10.866  10.130  0.4577 -0.4055  0.4917
   37MOL0     C 5028   3.268  10.996  10.191 -0.7539 -0.2864  1.2175
   37MOL0     C 5029   3.129  11.042  10.256  0.2281  0.4889 -0.6658
   37MOL0     C 5030   3.104  10.986  10.389 -0.1984  0.9038  0.2832
   37MOL0     C 5031   3.214  11.049  10.487 -0.7078  0.5129 -0.1890
   37MOL0     C 5032   3.192  11.010  10.631  0.7578  0.1914  0.4513
   37MOL0     C 5033   3.150  10.992  10.749 -0.2746 -0.2258  0.5100
   37MOL0     C 5034   3.341  10.678  10.020 -0.0355  0.4027  0.6371
   37MOL0     C 5035   3.441  10.593   9.971 -0.2497  0.1074 -0.3612
   37MOL0     C 5036   3.417  10.494   9.869  0.7777 -0.6429  0.2312
   37MOL0     H 5037   3.929  10.451  10.195 -1.8016 -0.4684 -0.3374
   37MOL0     H 5038   4.127  10.310  10.182 -3.5071 -1.5415  1.7366
   37MOL0     H 5039   4.393  10.123   9.977 -1.1025 -0.8005  0.9562
   37MOL0     H 5040   4.269  10.149  10.085 -3.0537  2.2341 -2.2330
   37MOL0     H 5041   4.375  10.344  10.193  0.4257 -0.3094 -0.2854
   37MOL0     H 5042   4.482  10.203  10.190  0.1174 -0.6569 -1.0551
   37MOL0     H 5043   4.603  10.302   9.988  1.2524 -0.4518  0.9360
   37MOL0     H 5044   4.486  10.437  10.003 -0.8253  0.7997  1.4922
   37MOL0     H 5045   4.575  10.472  10.234  2.2500 -2.9606  5.1578
   37MOL0     H 5046   4.688  10.332  10.207  1.0618 -1.3822 -1.1760
   37MOL0     H 5047   4.781  10.439  10.019  0.8513  1.0077  0.0635
   37MOL0     H 5048   4.814  10.542  10.158  1.3202  1.8484 -1.2800
   37MOL0     H 5049   4.601  10.626   9.962 -1.2134 -0.5466  1.2853
   37MOL0     H 5050   4.667  10.708  10.103  2.8452  1.1212  0.1601
   37MOL0     H 5051   4.801  10.644   9.838  1.9427  1.1134 -0.8077
   37MOL0     H 5052   4.904  10.655   9.985  0.4444 -0.5999 -1.1723
   37MOL0     H 5053   4.698  10.870   9.909  0.0493 -0.3452  0.7424
   37MOL0     H 5054   4.814  10.874  10.036 -1.9335 -2.7506  2.1424
   37MOL0     H 5055   4.814  10.892   9.651  0.6701  3.3169 -0.9442
   37MOL0     H 5056   4.983  10.922   9.480  0.3392 -3.9277  0.5192
   37MOL0     H 5057   5.133  10.840   9.515 -3.1784 -0.9824 -3.0363
   37MOL0     H 5058   5.075  11.135   9.515  0.1721  0.0774  1.7907
   37MOL0     H 5059   5.214  11.082   9.603 -2.0920  0.6692  1.7058
   37MOL0     H 5060   5.312  10.972   9.411 -0.9198 -0.7298  0.8174
   37MOL0     H 5061   5.175  11.009   9.310 -1.7841 -0.9920  2.1477
   37MOL0     H 5062   5.379  11.207   9.405  0.6265  0.1872 -0.7087
   37MOL0     H 5063   5.308  11.175   9.241 -3.5148 -0.9688  0.0547
   37MOL0     H 5064   5.031  11.459   9.418 -1.4748 -3.4583  2.5332
   37MOL0     H 5065   4.707  11.477   9.335  0.5644 -0.9068 -0.8422
   37MOL0     H 5066   4.752  11.601   9.220  0.9029 -0.2446 -0.4189
   37MOL0     H 5067   4.848  11.604   9.370 -0.6103 -0.5252  1.0772
   37MOL0     H 5068   4.458  11.214   9.051  0.5646 -0.9019 -0.2412
   37MOL0     H 5069   4.252  11.207   8.928  1.6407 -0.7296  0.3485
   37MOL0     H 5070   4.035  11.599   8.824  2.7794  0.4731  1.9831
   37MOL0     H 5071   4.162  11.602   8.710 -1.2687 -0.0099 -1.8684
   37MOL0     H 5072   3.907  11.427   8.665  2.1441 -0.7230  0.9622
   37MOL0     H 5073   3.932  11.588   8.609 -1.1772 -0.0226  0.2625
   37MOL0     H 5074   3.995  11.411   8.426  2.2450 -1.9504 -1.4272
   37MOL0     H 5075   4.097  11.345   8.535 -2.1688 -1.0223 -0.3555
   37MOL0     H 5076   4.249  11.554   8.530  0.4929  1.6442 -1.3811
   37MOL0     H 5077   4.119  11.638   8.434 -1.8636 -0.9442 -1.5755
   37MOL0     H 5078   4.309  11.423   8.338  0.8021  0.1062  1.2504
   37MOL0     H 5079   4.167  11.490   8.249  2.0534 -1.2989 -1.4335
   37MOL0     H 5080   4.392  11.671   8.364 -0.2424  2.5339 -0.1438
   37MOL0     H 5081   4.246  11.723   8.281  0.5734  0.6513  3.0183
   37MOL0     H 5082   4.335  11.582   8.093  0.7300  0.5082 -0.9803
   37MOL0     H 5083   4.486  11.579   8.193  1.1019  0.5087  1.1692
   37MOL0     H 5084   4.333  11.826   8.083 -1.9371 -3.6182 -0.1765
   37MOL0     H 5085   4.468  11.753   7.998 -0.7034 -0.1661 -1.3186
   37MOL0     H 5086   4.284  11.640   8.874 -2.8484 -0.2759  1.2471
   37MOL0     H 5087   4.516  11.635   8.980  1.7025 -0.8204 -1.3214
   37MOL0     H 5088   4.950  11.232   8.993 -3.1508 -0.6948  0.6234
   37MOL0     H 5089   5.146  11.183   9.107 -1.0391 -1.7346  1.1049
   37MOL0     H 5090   4.179  10.430   9.774  0.8699  1.9576  1.2126
   37MOL0     H 5091   3.952  10.562   9.792  0.2161  0.1172 -0.0994
   37MOL0     H 5092   3.693  10.755  10.148  0.1163 -1.7725  0.2030
   37MOL0     H 5093   3.528  10.889  10.213  1.8770 -0.3779  0.0362
   37MOL0     H 5094   3.335  10.975  10.275 -0.7006 -0.4741  1.1314
   37MOL0     H 5095   3.308  11.068  10.119 -0.9317  0.6574  2.0389
   37MOL0     H 5096   3.039  11.013  10.202  1.0232  1.6416 -2.7188
   37MOL0     H 5097   3.134  11.151  10.256 -0.3102  0.5411 -2.1958
   37MOL0     H 5098   3.007  11.015  10.432 -0.6005  0.7078 -0.4827
   37MOL0     H 5099   3.097  10.878  10.380  0.6833  0.8229  0.4536
   37MOL0     H 5100   3.218  11.157  10.470  2.0135  0.5925  0.4889
   37MOL0     H 5101   3.314  11.011  10.465 -0.2777  0.9999  0.8591
   37MOL0     H 5102   3.119  10.967  10.848  2.1339 -1.1569  1.1122
   37MOL0     H 5103   3.240  10.645   9.997 -1.4727  3.8964  1.2165
   37MOL0     H 5104   3.490  10.508   9.789  0.1997  1.5890  0.0189
   37MOL0     H 5105   3.400  10.398   9.917  2.7447  0.0858  2.5817
   37MOL0     H 5106   3.326  10.518   9.813  1.0785 -0.6479 -0.2685
   38MOL0     O 5107   3.252   7.778   1.169  0.4570 -0.2076  0.2264
   38MOL0     C 5108   3.262   7.782   1.048 -0.2227  0.8778  0.5143
   38MOL0     O 5109   3.176   7.845   0.968  0.4981  0.7839  0.0642
   38MOL0     C 5110   3.064   7.906   1.014  0.2867  0.3602  0.1816
   38MOL0     C 5111   3.042   8.041   1.009  0.7197 -0.1061 -0.4074
   38MOL0     C 5112   2.918   8.089   1.051  0.5013  0.5523  0.3659
   38MOL0     C 5113   2.826   7.997   1.105  0.3412 -0.2301  0.0582
   38MOL0     O 5114   2.698   8.037   1.152 -0.0798  0.0747 -0.4899
   38MOL0     C 5115   2.639   8.167   1.103 -0.6125  0.7029 -0.7250
   38MOL0     C 5116   2.510   8.178   1.178  0.5433 -0.2079  0.9884
   38MOL0     C 5117   2.518   8.162   1.334 -0.4110 -0.3746 -0.7926
   38MOL0     C 5118   2.574   8.284   1.399 -0.2328  0.2516 -0.2070
   38MOL0     C 5119   2.553   8.270   1.554  0.0320 -0.2581  0.1382
   38MOL0     C 5120   2.652   8.165   1.620 -0.5457 -0.2184 -0.1320
   38MOL0     C 5121   2.636   8.143   1.768  0.0091  0.3958 -0.0822
   38MOL0     C 5122   2.574   8.010   1.811  0.1071 -0.2296 -0.3298
   38MOL0     N 5123   2.570   7.991   1.960  0.7218  0.4621  0.3475
   38MOL0     C 5124   2.650   8.045   2.052  0.6903  0.4407  0.5037
   38MOL0     C 5125   2.589   8.022   2.176 -0.2680  0.5808  0.1425
   38MOL0     C 5126   2.655   8.034   2.313 -0.1602  0.3621  1.1801
   38MOL0     C 5127   2.769   7.938   2.340  0.0380 -0.6027 -0.3990
   38MOL0     C 5128   2.731   7.796   2.375 -0.2968  0.1283  0.4540
   38MOL0     C 5129   2.844   7.709   2.342  1.0176  0.9842 -0.1627
   38MOL0     O 5130   2.952   7.738   2.434 -0.4842  0.4124  0.9198
   38MOL0     C 5131   3.049   7.651   2.454  0.4614  0.4946 -0.0537
   38MOL0     C 5132   3.076   7.544   2.362  0.2420 -0.1251  0.1003
   38MOL0     C 5133   3.181   7.458   2.389 -0.9728  0.0244 -0.0299
   38MOL0     C 5134   3.199   7.342   2.299 -0.3804 -1.0743 -0.1170
   38MOL0     C 5135   3.269   7.492   2.496  0.5865 -0.5963  0.6491
   38MOL0     C 5136   3.396   7.422   2.529 -0.0338  0.4327 -0.0946
   38MOL0     O 5137   3.430   7.322   2.440  0.4341  0.1301 -0.0850
   38MOL0     C 5138   3.559   7.276   2.450  1.0360 -0.6386 -0.4519
   38MOL0     C 5139   3.670   7.340   2.399  0.4349 -0.1596  0.4725
   38MOL0     C 5140   3.787   7.260   2.390 -0.1961  0.2820 -0.8883
   38MOL0     C 5141   3.790   7.132   2.435 -0.5902  0.8469  0.3734
   38MOL0     O 5142   3.898   7.046   2.413  0.5458 -0.0306 -0.0459
   38MOL0     C 5143   3.933   7.039   2.271  0.8847  0.3313  0.2791
   38MOL0     C 5144   4.045   6.945   2.248  0.1587 -1.2220  0.4074
   38MOL0     C 5145   4.018   6.802   2.293  0.0731 -0.2477 -0.1105
   38MOL0     C 5146   3.893   6.738   2.236  0.3176  0.0445  0.9300
   38MOL0     C 5147   3.912   6.679   2.096  0.2041 -0.0738 -0.4201
   38MOL0     C 5148   3.785   6.607   2.049 -0.0941 -0.0222 -0.9067
   38MOL0     C 5149   3.790   6.535   1.924 -0.1574  0.8195  1.1949
   38MOL0     C 5150   3.878   6.410   1.928  0.0447  0.0375  0.1183
   38MOL0    Cl 5151   3.844   6.275   1.809 -0.2581  0.1725  0.2027
   38MOL0     C 5152   3.682   7.081   2.501  0.6239  0.2458 -0.0254
   38MOL0     C 5153   3.565   7.155   2.517 -0.3559  0.0124 -0.7257
   38MOL0     O 5154   3.445   7.432   2.642 -0.1526 -0.5584 -0.5885
   38MOL0     C 5155   3.233   7.599   2.582  0.3442  0.9581 -0.9065
   38MOL0     C 5156   3.123   7.668   2.564 -0.1233  0.8086 -0.9824
   38MOL0     N 5157   2.473   7.949   2.153 -0.5810 -0.4041 -0.8833
   38MOL0     N 5158   2.473   7.936   2.032 -0.4008  0.1365  0.4347
   38MOL0     C 5159   2.846   7.866   1.103  0.7098  0.1504  0.1191
   38MOL0     C 5160   2.966   7.819   1.060 -0.2818 -0.1428 -0.5093
   38MOL0     C 5161   3.379   7.705   0.987 -0.8023  0.0408  0.0105
   38MOL0     C 5162   3.417   7.746   0.858  0.5965  0.0659 -0.1733
   38MOL0     C 5163   3.501   7.660   0.784 -2.0305 -0.0266 -1.0435
   38MOL0     C 5164   3.568   7.553   0.852  0.7560  0.9715  0.4514
   38MOL0     O 5165   3.670   7.495   0.789  0.5468 -0.2778  0.5831
   38MOL0     C 5166   3.641   7.372   0.727 -0.4391  0.0760 -0.2554
   38MOL0     C 5167   3.765   7.306   0.684 -0.2370  0.4056  0.5009
   38MOL0     C 5168   3.877   7.283   0.789 -0.6620  0.1968 -0.4197
   38MOL0     C 5169   3.989   7.189   0.743 -0.1717 -0.1446 -0.0594
   38MOL0     C 5170   3.947   7.051   0.723 -0.3116  0.5004 -0.0545
   38MOL0     C 5171   3.921   6.938   0.725  0.5485  0.0723  0.5427
   38MOL0     C 5172   3.548   7.527   0.982  0.2692 -0.1428 -1.0977
   38MOL0     C 5173   3.444   7.595   1.054  0.4579 -0.4659  0.2106
   38MOL0     C 5174   3.410   7.570   1.201  0.6982  0.6915  0.2338
   38MOL0     H 5175   3.106   8.114   0.961 -2.5382  2.5492 -1.0920
   38MOL0     H 5176   2.901   8.196   1.042 -2.7471  0.1226  0.3315
   38MOL0     H 5177   2.631   8.175   0.994  2.8492 -0.3930 -1.1961
   38MOL0     H 5178   2.689   8.263   1.120 -0.0364  0.9113 -3.2457
   38MOL0     H 5179   2.469   8.278   1.160 -1.7274 -1.2788 -0.2238
   38MOL0     H 5180   2.434   8.115   1.130 -1.7174  3.7116 -1.0870
   38MOL0     H 5181   2.417   8.151   1.374  0.0164 -0.7121  0.2156
   38MOL0     H 5182   2.577   8.075   1.365  0.5349 -0.0064 -1.5317
   38MOL0     H 5183   2.678   8.306   1.374 -0.0598  0.4187  0.6358
   38MOL0     H 5184   2.506   8.364   1.368 -1.7144 -1.7557 -2.4940
   38MOL0     H 5185   2.448   8.250   1.575 -0.5186  1.1488 -1.1407
   38MOL0     H 5186   2.586   8.366   1.593  1.4376 -1.0738  1.0469
   38MOL0     H 5187   2.656   8.071   1.565  1.1258 -0.2790  0.0568
   38MOL0     H 5188   2.753   8.203   1.602  0.8161 -4.0353 -1.3627
   38MOL0     H 5189   2.578   8.223   1.815 -0.2870 -0.4628  1.0777
   38MOL0     H 5190   2.737   8.142   1.811 -0.3517 -0.5096  0.8069
   38MOL0     H 5191   2.476   7.989   1.768  0.1986 -1.8720  0.2022
   38MOL0     H 5192   2.636   7.932   1.763 -2.0515 -2.1518 -0.1660
   38MOL0     H 5193   2.747   8.094   2.041  0.3979  0.6655 -1.2458
   38MOL0     H 5194   2.586   8.044   2.397 -2.0027  3.0450 -0.5015
   38MOL0     H 5195   2.698   8.135   2.304  2.9188 -0.7580  1.8943
   38MOL0     H 5196   2.846   7.940   2.263 -0.1752 -0.2142 -0.6006
   38MOL0     H 5197   2.821   7.973   2.429  1.8082 -0.1697 -1.5581
   38MOL0     H 5198   2.715   7.797   2.483  3.9160  2.2129  1.2700
   38MOL0     H 5199   2.649   7.758   2.314  0.4434  1.7373 -1.6732
   38MOL0     H 5200   2.817   7.603   2.344  2.6405  0.5321 -0.2133
   38MOL0     H 5201   2.869   7.730   2.237 -0.1403 -0.1869 -0.6971
   38MOL0     H 5202   3.013   7.514   2.279  1.2206  0.2840 -0.8178
   38MOL0     H 5203   3.188   7.243   2.345 -1.6876 -1.5767 -1.4304
   38MOL0     H 5204   3.298   7.350   2.252 -1.0670  0.4643 -1.3794
   38MOL0     H 5205   3.141   7.343   2.206  0.4154 -1.6968 -0.6374
   38MOL0     H 5206   3.668   7.443   2.366  0.4773  0.0987  1.2596
   38MOL0     H 5207   3.882   7.298   2.354  1.1589 -0.5157  1.6415
   38MOL0     H 5208   3.840   7.014   2.219 -0.5394  1.7837  2.0066
   38MOL0     H 5209   3.969   7.135   2.235  2.9194 -0.1624  0.8651
   38MOL0     H 5210   4.073   6.944   2.142  5.6292  1.2916  1.4604
   38MOL0     H 5211   4.141   6.970   2.294  1.4417 -2.8685 -1.1896
   38MOL0     H 5212   4.007   6.801   2.402  2.9711 -0.6473  0.2738
   38MOL0     H 5213   4.105   6.739   2.272 -0.5630 -1.7396  1.4982
   38MOL0     H 5214   3.810   6.809   2.237 -0.9101 -1.3075  3.0949
   38MOL0     H 5215   3.855   6.660   2.303 -3.2171  1.3453  0.6261
   38MOL0     H 5216   3.934   6.761   2.027  2.0157 -0.8720 -0.8704
   38MOL0     H 5217   3.997   6.610   2.094  0.4400 -0.0005  2.7501
   38MOL0     H 5218   3.707   6.684   2.053 -0.7958 -0.6196 -2.2430
   38MOL0     H 5219   3.771   6.537   2.132  0.3044 -0.0725 -0.8798
   38MOL0     H 5220   3.830   6.611   1.855 -0.3746  0.4090  0.6122
   38MOL0     H 5221   3.685   6.507   1.907 -0.3629  1.6948  0.9581
   38MOL0     H 5222   3.857   6.359   2.022 -0.4931  0.6504  0.3382
   38MOL0     H 5223   3.982   6.439   1.913 -0.3774  1.1101 -0.8242
   38MOL0     H 5224   3.683   6.975   2.523  1.4880 -0.0625 -1.3844
   38MOL0     H 5225   3.481   7.099   2.556  0.2413 -1.8693 -1.9993
   38MOL0     H 5226   3.302   7.623   2.663  0.9790  1.9009 -1.6996
   38MOL0     H 5227   3.102   7.745   2.638  0.7065  2.5004 -2.4019
   38MOL0     H 5228   2.767   7.799   1.135 -0.4395  1.5351  0.2305
   38MOL0     H 5229   2.996   7.717   1.079  1.4509  0.5081  0.3576
   38MOL0     H 5230   3.359   7.823   0.808  0.1110  0.0883  0.4052
   38MOL0     H 5231   3.528   7.687   0.682  1.5988 -3.0957 -1.1266
   38MOL0     H 5232   3.570   7.312   0.785 -0.1806 -0.7122 -0.7492
   38MOL0     H 5233   3.593   7.391   0.631 -0.4403  4.5760  0.4165
   38MOL0     H 5234   3.806   7.356   0.595  0.0350 -1.3557 -0.4269
   38MOL0     H 5235   3.727   7.210   0.646 -0.7984  0.4945  0.8389
   38MOL0     H 5236   3.920   7.382   0.807  1.5909 -0.7767 -0.1724
   38MOL0     H 5237   3.841   7.252   0.887 -0.5448  2.0955  0.2688
   38MOL0     H 5238   4.064   7.203   0.821 -2.1586  1.7041  1.6659
   38MOL0     H 5239   4.033   7.232   0.653 -1.2604  0.9078 -0.1155
   38MOL0     H 5240   3.878   6.841   0.712 -1.0293  1.0831 -3.1239
   38MOL0     H 5241   3.604   7.451   1.036 -3.5717  0.3341  4.4460
   38MOL0     H 5242   3.303   7.555   1.219  1.0695  0.2459  2.4160
   38MOL0     H 5243   3.465   7.490   1.251 -0.3153 -0.5363 -0.5510
   38MOL0     H 5244   3.445   7.662   1.249  2.5139  1.3328 -2.1629
   39MOL0     O 5245   1.101   5.689   3.475 -0.4604  0.1462 -0.2241
   39MOL0     C 5246   1.121   5.649   3.354  0.1293 -1.1276  0.3992
   39MOL0     O 5247   1.113   5.720   3.245  0.1278 -0.5567 -0.4540
   39MOL0     C 5248   1.123   5.850   3.260 -0.3055 -0.2328 -0.1500
   39MOL0     C 5249   1.012   5.928   3.229  0.0704 -0.0641 -0.6000
   39MOL0     C 5250   1.025   6.061   3.269 -0.8019  0.5535  0.0794
   39MOL0     C 5251   1.141   6.120   3.332 -0.1313  0.7770 -0.0935
   39MOL0     O 5252   1.136   6.252   3.376  0.9919  0.1674  0.1683
   39MOL0     C 5253   1.231   6.302   3.471 -0.8774  0.8735  0.5375
   39MOL0     C 5254   1.170   6.427   3.532  0.3633 -0.1719  0.7968
   39MOL0     C 5255   1.175   6.554   3.440 -0.7516  0.6850 -0.5614
   39MOL0     C 5256   1.057   6.645   3.460  0.0113 -0.2782 -1.1360
   39MOL0     C 5257   1.051   6.775   3.383  0.7397  0.3105  0.0133
   39MOL0     C 5258   0.909   6.832   3.369 -0.3442  0.2498  0.4918
   39MOL0     C 5259   0.920   6.963   3.292 -0.2101  0.1120  0.9963
   39MOL0     C 5260   0.783   7.027   3.264  0.3636 -0.0341  0.2984
   39MOL0     N 5261   0.704   6.977   3.149  0.1672  0.5536  0.3430
   39MOL0     C 5262   0.724   6.856   3.084 -0.4510  0.2257 -0.5619
   39MOL0     C 5263   0.611   6.839   3.008 -0.4191  0.4702 -0.2176
   39MOL0     C 5264   0.597   6.731   2.910 -0.3500  0.3984  1.0209
   39MOL0     C 5265   0.692   6.741   2.789 -0.2974  0.7702 -0.3707
   39MOL0     C 5266   0.689   6.617   2.694 -0.5868  0.3521  0.3136
   39MOL0     C 5267   0.799   6.612   2.582 -0.8137 -0.7075 -0.1585
   39MOL0     O 5268   0.935   6.645   2.632  0.0577 -0.5683  0.6043
   39MOL0     C 5269   1.044   6.589   2.574 -0.2042 -0.1674 -0.2159
   39MOL0     C 5270   1.111   6.654   2.470 -0.6960  1.3309  0.7508
   39MOL0     C 5271   1.227   6.605   2.416  0.3467 -0.6029 -0.6876
   39MOL0     C 5272   1.279   6.679   2.300  0.8485  0.3779  0.2994
   39MOL0     C 5273   1.286   6.492   2.487 -1.0070 -0.5145 -0.5286
   39MOL0     C 5274   1.420   6.436   2.444  0.2967 -1.1804 -0.1411
   39MOL0     O 5275   1.455   6.321   2.504  0.9113 -0.9852  0.0902
   39MOL0     C 5276   1.587   6.272   2.480 -0.0706 -0.9887  0.3226
   39MOL0     C 5277   1.679   6.280   2.578  0.4249  0.6714 -0.1225
   39MOL0     C 5278   1.800   6.244   2.549 -0.3647 -0.6785  0.0456
   39MOL0     C 5279   1.843   6.199   2.423 -0.3028 -0.5142  0.4708
   39MOL0     O 5280   1.976   6.186   2.399 -0.0606 -0.1533 -0.4247
   39MOL0     C 5281   2.033   6.107   2.290 -0.3419 -0.1208 -0.1673
   39MOL0     C 5282   2.096   5.988   2.360 -0.4866  0.3963 -0.1149
   39MOL0     C 5283   2.165   5.894   2.264 -0.4280  0.4645 -0.3508
   39MOL0     C 5284   2.323   5.906   2.240 -0.0698  0.1077 -0.1642
   39MOL0     C 5285   2.373   6.026   2.154 -0.0106  0.1728 -0.7101
   39MOL0     C 5286   2.522   6.043   2.163  0.3738  1.3399  0.4346
   39MOL0     C 5287   2.583   6.137   2.057 -0.6068  0.4911 -0.1216
   39MOL0     C 5288   2.733   6.131   2.055 -0.8014 -0.2482 -0.1170
   39MOL0    Cl 5289   2.821   5.983   1.974 -0.2764 -0.0054  0.2293
   39MOL0     C 5290   1.752   6.204   2.317  0.5518 -0.9548  0.1091
   39MOL0     C 5291   1.618   6.234   2.354  0.2763  0.3374  0.3313
   39MOL0     O 5292   1.486   6.501   2.366 -0.0801 -0.4576  0.3440
   39MOL0     C 5293   1.221   6.435   2.594 -0.5813  0.9360 -0.0273
   39MOL0     C 5294   1.096   6.474   2.636 -0.4656  0.6579 -0.1059
   39MOL0     N 5295   0.536   6.949   3.025 -0.2986  0.4734  0.1527
   39MOL0     N 5296   0.585   7.026   3.118  0.9931 -0.7140 -0.8666
   39MOL0     C 5297   1.250   6.032   3.363  0.9386  0.2654  1.2925
   39MOL0     C 5298   1.237   5.899   3.330  0.2867 -0.5964  0.6426
   39MOL0     C 5299   1.096   5.507   3.344  0.3109  0.1783  0.5561
   39MOL0     C 5300   1.127   5.421   3.454  0.1454 -0.7180  0.1811
   39MOL0     C 5301   1.117   5.279   3.450 -0.5487  0.5024 -0.4995
   39MOL0     C 5302   1.075   5.218   3.327  0.0306 -0.1339 -0.3025
   39MOL0     O 5303   1.051   5.078   3.329 -0.6487  0.2461 -0.7989
   39MOL0     C 5304   1.042   5.006   3.452  0.3147  0.9595  0.0034
   39MOL0     C 5305   0.990   4.865   3.415 -0.1616 -0.6045 -0.0295
   39MOL0     C 5306   0.977   4.790   3.546  0.0943  0.0682  0.2969
   39MOL0     C 5307   0.973   4.644   3.521 -0.0205 -0.3424  0.8200
   39MOL0     C 5308   1.102   4.610   3.459  0.7955  0.4714 -0.5486
   39MOL0     C 5309   1.220   4.586   3.422  0.4591  0.3240  0.4064
   39MOL0     C 5310   1.056   5.302   3.213 -0.7752 -0.1653 -0.2203
   39MOL0     C 5311   1.053   5.443   3.221 -0.6731  0.0230  0.0982
   39MOL0     C 5312   1.025   5.509   3.082 -0.0950 -0.2679  0.5300
   39MOL0     H 5313   0.926   5.897   3.169  0.0072  3.2465 -2.5021
   39MOL0     H 5314   0.939   6.127   3.272 -0.9698  0.3132  0.5949
   39MOL0     H 5315   1.326   6.328   3.422 -1.2234  1.3738  0.1203
   39MOL0     H 5316   1.260   6.223   3.541  1.1583  0.2364 -0.9267
   39MOL0     H 5317   1.067   6.400   3.559  0.5278  0.2067  1.8534
   39MOL0     H 5318   1.232   6.453   3.618  0.6481 -1.1560  0.8925
   39MOL0     H 5319   1.268   6.607   3.460 -0.7798  0.8830 -0.9414
   39MOL0     H 5320   1.181   6.517   3.337  1.0832 -0.5332 -0.0532
   39MOL0     H 5321   0.976   6.577   3.434 -0.1543 -0.2890 -0.5950
   39MOL0     H 5322   1.054   6.677   3.565 -0.5919  2.8001 -1.9951
   39MOL0     H 5323   1.084   6.758   3.280  2.6087  0.6533  0.5203
   39MOL0     H 5324   1.117   6.849   3.429 -0.4391  0.0599  2.2665
   39MOL0     H 5325   0.835   6.761   3.331 -0.0991 -0.3977  1.2042
   39MOL0     H 5326   0.867   6.854   3.468 -3.3333 -2.7398  0.0645
   39MOL0     H 5327   0.967   6.933   3.198  0.7356 -1.2723  1.8611
   39MOL0     H 5328   0.988   7.031   3.345  3.5648 -2.6119  0.0456
   39MOL0     H 5329   0.716   7.002   3.347  0.7562 -3.4728 -0.2729
   39MOL0     H 5330   0.790   7.136   3.254 -1.8980  0.1095 -0.4068
   39MOL0     H 5331   0.814   6.797   3.092 -0.4733  0.0572 -1.4682
   39MOL0     H 5332   0.500   6.748   2.863  1.3907  1.5582 -2.4949
   39MOL0     H 5333   0.605   6.631   2.954 -2.8545 -2.5214 -4.2881
   39MOL0     H 5334   0.672   6.836   2.739  0.2462  2.3468  2.2231
   39MOL0     H 5335   0.793   6.746   2.831 -1.0306 -0.9317  1.7800
   39MOL0     H 5336   0.706   6.524   2.749 -0.8987  0.3026  0.3247
   39MOL0     H 5337   0.592   6.604   2.647  0.9524  2.5802 -4.1194
   39MOL0     H 5338   0.814   6.518   2.528  1.2439 -2.2465  2.7724
   39MOL0     H 5339   0.774   6.674   2.496 -0.3931 -0.8632 -0.3963
   39MOL0     H 5340   1.063   6.737   2.420 -3.4363  1.3877  3.2178
   39MOL0     H 5341   1.288   6.614   2.213  0.5792  0.4722  0.1990
   39MOL0     H 5342   1.377   6.720   2.325  1.2496 -0.6221  0.3970
   39MOL0     H 5343   1.209   6.759   2.275 -0.4416 -0.6991  0.3319
   39MOL0     H 5344   1.649   6.319   2.675  1.6109 -1.6654  1.2618
   39MOL0     H 5345   1.879   6.251   2.622  1.5055 -2.4705 -1.6676
   39MOL0     H 5346   1.956   6.075   2.219  1.5785  0.9590 -2.8960
   39MOL0     H 5347   2.109   6.168   2.241  0.9323 -0.3931  1.3817
   39MOL0     H 5348   2.178   6.027   2.420  2.0941 -2.2584 -1.5930
   39MOL0     H 5349   2.023   5.925   2.411  2.6331 -2.0545  1.7213
   39MOL0     H 5350   2.110   5.901   2.169  2.6203 -0.7946 -2.3931
   39MOL0     H 5351   2.147   5.795   2.307  3.3264 -0.0708  0.3350
   39MOL0     H 5352   2.359   5.815   2.190  1.6748  1.1270 -0.8736
   39MOL0     H 5353   2.379   5.899   2.333  1.7769  2.2697 -1.0071
   39MOL0     H 5354   2.350   6.000   2.051 -1.1604  0.5552 -0.5664
   39MOL0     H 5355   2.322   6.117   2.189 -0.9946  0.3227 -2.4129
   39MOL0     H 5356   2.558   5.941   2.145  2.9059  2.2644 -0.2255
   39MOL0     H 5357   2.554   6.062   2.266  1.6576 -2.6338  0.9634
   39MOL0     H 5358   2.546   6.236   2.086  0.1956  1.2535 -1.5814
   39MOL0     H 5359   2.555   6.103   1.957 -1.9790 -2.3296  1.1222
   39MOL0     H 5360   2.763   6.137   2.160  0.7898  1.6298 -0.6114
   39MOL0     H 5361   2.775   6.220   2.008  0.8012 -1.2629 -0.7048
   39MOL0     H 5362   1.778   6.180   2.214  0.2315 -0.5479 -0.0707
   39MOL0     H 5363   1.546   6.222   2.274  0.5591  1.4705 -0.1265
   39MOL0     H 5364   1.256   6.346   2.647  1.3068  0.1626 -2.3904
   39MOL0     H 5365   1.031   6.440   2.717 -0.9437  3.3830  0.7555
   39MOL0     H 5366   1.332   6.077   3.418  1.0590  1.5261  0.1577
   39MOL0     H 5367   1.306   5.819   3.354 -2.0614 -3.6820 -1.9729
   39MOL0     H 5368   1.155   5.461   3.551 -2.0783 -0.0686  0.6387
   39MOL0     H 5369   1.128   5.212   3.535 -3.3095 -1.7730 -1.7615
   39MOL0     H 5370   1.133   4.997   3.511  0.8705  2.2033 -0.6329
   39MOL0     H 5371   0.963   5.041   3.520  1.4914 -1.5877  2.9359
   39MOL0     H 5372   1.054   4.818   3.341  0.7519  1.8075 -0.8850
   39MOL0     H 5373   0.893   4.872   3.365  0.2797  2.9838 -0.6650
   39MOL0     H 5374   1.057   4.809   3.618  1.4088 -2.9357 -0.2085
   39MOL0     H 5375   0.890   4.822   3.604 -1.9897 -2.3201 -1.2774
   39MOL0     H 5376   0.892   4.618   3.452 -3.0402 -1.3535  4.4452
   39MOL0     H 5377   0.946   4.598   3.616  0.3066  1.8540  2.0467
   39MOL0     H 5378   1.321   4.584   3.387  0.2706  0.7218 -0.1947
   39MOL0     H 5379   1.033   5.254   3.118 -1.0633  1.2625 -0.8931
   39MOL0     H 5380   0.972   5.605   3.085  0.2331 -0.0372 -0.6583
   39MOL0     H 5381   1.122   5.537   3.038 -0.9571  1.1996 -0.5462
   39MOL0     H 5382   0.968   5.442   3.017  0.1450 -1.4363  1.5085
   40MOL0     O 5383   7.356   1.788   6.146  0.0898 -0.6028 -0.6654
   40MOL0     C 5384   7.418   1.824   6.044  0.0554 -0.2070  0.0231
   40MOL0     O 5385   7.389   1.791   5.919 -0.3663  0.0844 -0.6462
   40MOL0     C 5386   7.296   1.698   5.873  0.4774 -0.7308 -1.5084
   40MOL0     C 5387   7.274   1.697   5.733  0.1088  0.2348  0.5198
   40MOL0     C 5388   7.170   1.615   5.681  0.4243 -0.1259  0.1320
   40MOL0     C 5389   7.089   1.531   5.756 -1.6137 -0.1927  0.0354
   40MOL0     O 5390   6.988   1.467   5.706 -0.1846 -0.0080 -0.0655
   40MOL0     C 5391   6.918   1.492   5.585 -0.2704 -0.0071 -0.3719
   40MOL0     C 5392   6.845   1.626   5.595 -0.2569 -0.0547  0.0579
   40MOL0     C 5393   6.788   1.661   5.455  0.8407 -0.3970 -1.1807
   40MOL0     C 5394   6.705   1.551   5.387  0.5211 -0.7421  0.6145
   40MOL0     C 5395   6.646   1.585   5.245  0.0643  0.0123  0.4191
   40MOL0     C 5396   6.579   1.470   5.163  0.1466 -0.1034  0.4330
   40MOL0     C 5397   6.441   1.426   5.223  0.5013  0.8867  0.6963
   40MOL0     C 5398   6.382   1.311   5.136  0.1682  0.1324  0.9885
   40MOL0     N 5399   6.328   1.363   5.012  0.1853 -0.1422  0.4035
   40MOL0     C 5400   6.222   1.446   5.003 -0.1470 -0.1098 -0.4338
   40MOL0     C 5401   6.225   1.502   4.876  0.1379  0.8654 -0.4983
   40MOL0     C 5402   6.145   1.602   4.810  0.0207  0.1769 -0.4728
   40MOL0     C 5403   6.180   1.748   4.849  0.0324  0.2164  0.3889
   40MOL0     C 5404   6.147   1.843   4.730  0.1752 -0.7390 -1.1002
   40MOL0     C 5405   6.151   1.990   4.802  0.2062  0.3352 -0.5847
   40MOL0     O 5406   6.110   2.082   4.698 -0.4519 -0.7918  0.1660
   40MOL0     C 5407   5.986   2.080   4.642  0.2860 -0.5213  0.1610
   40MOL0     C 5408   5.980   2.126   4.513 -0.4036  0.0186  1.3568
   40MOL0     C 5409   5.869   2.101   4.421 -0.3376  0.1720 -0.6232
   40MOL0     C 5410   5.886   2.158   4.273  0.1205  0.2380 -0.5227
   40MOL0     C 5411   5.764   2.021   4.458  0.8390 -0.5124 -0.2606
   40MOL0     C 5412   5.662   1.972   4.367 -0.7120 -0.1077  0.3432
   40MOL0     O 5413   5.593   1.854   4.407 -0.7265  0.0438  0.0345
   40MOL0     C 5414   5.506   1.787   4.319 -0.6379 -0.2406  0.2025
   40MOL0     C 5415   5.371   1.769   4.358  0.5547  0.9282 -0.0314
   40MOL0     C 5416   5.273   1.745   4.253 -0.3031  0.1388  0.2830
   40MOL0     C 5417   5.314   1.752   4.115  0.0440 -0.4845  0.4605
   40MOL0     O 5418   5.207   1.748   4.038  0.5703  0.3469  0.4570
   40MOL0     C 5419   5.217   1.678   3.908 -0.3550 -0.2700  0.4225
   40MOL0     C 5420   5.091   1.706   3.816 -0.0551 -0.1214  0.3216
   40MOL0     C 5421   5.101   1.640   3.686  0.4505  0.1749 -1.3845
   40MOL0     C 5422   4.975   1.634   3.603 -0.0132  0.0703  0.0501
   40MOL0     C 5423   4.942   1.764   3.551 -0.6572 -1.0833  0.8454
   40MOL0     C 5424   5.038   1.812   3.435 -0.1752 -0.4913  0.1882
   40MOL0     C 5425   5.010   1.967   3.386 -0.3884  0.7587  1.9099
   40MOL0     C 5426   5.062   2.035   3.261 -0.0509 -0.6736 -0.8967
   40MOL0    Cl 5427   5.241   2.063   3.274  0.5832 -0.0361  0.5427
   40MOL0     C 5428   5.445   1.761   4.078  0.0445 -0.7506  0.0103
   40MOL0     C 5429   5.537   1.780   4.182  0.4324 -0.0617  0.0473
   40MOL0     O 5430   5.641   2.033   4.263 -0.1570  0.4677 -0.3038
   40MOL0     C 5431   5.760   1.989   4.591 -0.6379 -0.0067  0.2356
   40MOL0     C 5432   5.866   2.013   4.689 -0.2702 -0.2043  0.2768
   40MOL0     N 5433   6.335   1.445   4.815  0.6336  0.3615  0.0393
   40MOL0     N 5434   6.403   1.368   4.892  0.9028  0.5001 -0.5568
   40MOL0     C 5435   7.114   1.532   5.888 -0.2124 -0.4146  0.4008
   40MOL0     C 5436   7.213   1.612   5.951  0.7581 -0.5593 -0.9126
   40MOL0     C 5437   7.537   1.913   6.072  0.1603  0.7952  0.6728
   40MOL0     C 5438   7.591   1.919   6.200  0.9301  1.4593 -0.6607
   40MOL0     C 5439   7.708   1.992   6.226 -0.8449 -0.2647 -0.7875
   40MOL0     C 5440   7.769   2.081   6.129  0.2536  0.8674  0.0890
   40MOL0     O 5441   7.868   2.176   6.152 -0.4861 -0.2333 -0.2674
   40MOL0     C 5442   7.977   2.132   6.226 -0.0776 -0.4678 -0.1663
   40MOL0     C 5443   8.031   2.253   6.301  0.5319 -0.1310  0.0398
   40MOL0     C 5444   7.915   2.314   6.388  0.3221  0.4904  0.7054
   40MOL0     C 5445   7.959   2.448   6.452 -0.3026 -0.3167  0.3004
   40MOL0     C 5446   7.969   2.556   6.355 -0.1290 -0.2313  0.5373
   40MOL0     C 5447   8.001   2.646   6.277  0.0488 -0.2608  0.4342
   40MOL0     C 5448   7.708   2.088   6.005  0.1360 -0.1060 -0.0907
   40MOL0     C 5449   7.604   1.997   5.968 -0.2863  0.3630  0.1039
   40MOL0     C 5450   7.553   2.008   5.823 -0.2063  0.2359  0.2162
   40MOL0     H 5451   7.327   1.770   5.673  1.3633  0.5273  1.9173
   40MOL0     H 5452   7.148   1.620   5.575 -2.5124  0.4016  0.6907
   40MOL0     H 5453   6.838   1.418   5.575 -2.7209  2.3561  0.3180
   40MOL0     H 5454   6.982   1.491   5.496 -0.4492 -0.3256 -0.4982
   40MOL0     H 5455   6.757   1.622   5.660 -3.5903  0.7320 -3.9601
   40MOL0     H 5456   6.907   1.709   5.629 -0.8163  0.4596 -0.1592
   40MOL0     H 5457   6.734   1.755   5.470  0.4861 -1.0187  2.2198
   40MOL0     H 5458   6.870   1.689   5.388  0.7838  1.3272 -0.5789
   40MOL0     H 5459   6.759   1.456   5.378 -0.4699 -1.3171  0.6552
   40MOL0     H 5460   6.621   1.532   5.454  1.8484 -1.1848  2.2211
   40MOL0     H 5461   6.721   1.629   5.179  0.1882  0.9202  1.1428
   40MOL0     H 5462   6.576   1.669   5.252  0.9144  0.9552 -1.7243
   40MOL0     H 5463   6.562   1.522   5.068  3.7087  1.0294  0.2576
   40MOL0     H 5464   6.638   1.378   5.155  0.7981  0.4316 -1.3003
   40MOL0     H 5465   6.364   1.501   5.245 -0.3648  0.6811 -1.4104
   40MOL0     H 5466   6.459   1.391   5.325 -0.5855  1.5929  1.1480
   40MOL0     H 5467   6.459   1.237   5.115 -0.0397  0.0143  0.6283
   40MOL0     H 5468   6.298   1.265   5.189 -1.3673  1.0717 -0.5256
   40MOL0     H 5469   6.154   1.456   5.088 -2.1293 -1.9962 -1.6944
   40MOL0     H 5470   6.036   1.590   4.817  0.0055  0.7133  0.4019
   40MOL0     H 5471   6.176   1.590   4.706 -0.5172  2.4062 -0.9570
   40MOL0     H 5472   6.110   1.755   4.933 -1.5465 -3.5941 -0.3794
   40MOL0     H 5473   6.284   1.750   4.881  0.3785 -0.3150 -0.6719
   40MOL0     H 5474   6.230   1.832   4.658  0.3057  1.8532 -1.4432
   40MOL0     H 5475   6.055   1.813   4.680 -1.0021 -0.7733  0.9892
   40MOL0     H 5476   6.074   1.972   4.878 -1.2660 -2.6285 -2.5854
   40MOL0     H 5477   6.245   2.006   4.855 -0.3384 -0.3725  0.6465
   40MOL0     H 5478   6.072   2.161   4.467  0.1980 -1.4680  1.3722
   40MOL0     H 5479   5.874   2.066   4.216 -3.4931 -0.2915  0.7953
   40MOL0     H 5480   5.985   2.195   4.246  0.3563 -0.2299 -0.3022
   40MOL0     H 5481   5.805   2.230   4.256  1.5599  2.4121  1.2608
   40MOL0     H 5482   5.339   1.785   4.460  3.3139 -0.6304  1.1930
   40MOL0     H 5483   5.172   1.734   4.293 -0.1137 -2.6037  0.2529
   40MOL0     H 5484   5.298   1.714   3.844 -1.5966  0.9730 -0.5100
   40MOL0     H 5485   5.225   1.570   3.925  0.8889 -0.1070  0.9723
   40MOL0     H 5486   5.003   1.673   3.871  0.3387 -1.3725  0.2236
   40MOL0     H 5487   5.093   1.814   3.796  0.3756 -0.4800 -1.8956
   40MOL0     H 5488   5.137   1.537   3.700  1.3936  0.9192  3.4140
   40MOL0     H 5489   5.188   1.684   3.636  1.7354 -1.7463 -0.9507
   40MOL0     H 5490   4.896   1.601   3.671  1.4780  0.6830  2.2097
   40MOL0     H 5491   4.988   1.570   3.515  2.0283 -0.2668  0.5367
   40MOL0     H 5492   4.838   1.771   3.518 -0.3172 -0.8034 -0.2093
   40MOL0     H 5493   4.938   1.832   3.636 -3.1356 -4.0551  3.3468
   40MOL0     H 5494   5.029   1.743   3.351 -5.8857  3.4419 -3.1184
   40MOL0     H 5495   5.145   1.819   3.459 -0.6584  0.7010  2.2052
   40MOL0     H 5496   5.034   2.036   3.467 -2.7835  0.9279  2.5761
   40MOL0     H 5497   4.903   1.967   3.363  0.5310  0.6060 -3.7865
   40MOL0     H 5498   5.005   2.126   3.243 -0.6699  0.4026  4.6580
   40MOL0     H 5499   5.043   1.956   3.187 -1.6856 -1.2713  0.0971
   40MOL0     H 5500   5.474   1.763   3.974  2.5522 -0.4754  0.6546
   40MOL0     H 5501   5.641   1.797   4.155  0.0701  0.5206 -1.0398
   40MOL0     H 5502   5.669   1.938   4.619  0.4232 -2.0514  0.2081
   40MOL0     H 5503   5.854   1.990   4.794  0.0248  0.6466  0.5119
   40MOL0     H 5504   7.054   1.470   5.955  0.1575 -2.5433 -1.1472
   40MOL0     H 5505   7.217   1.614   6.059 -1.0755  4.7848 -0.6641
   40MOL0     H 5506   7.549   1.863   6.283  0.0185  1.3976 -1.1522
   40MOL0     H 5507   7.749   1.974   6.325 -1.0246  0.2789 -0.6114
   40MOL0     H 5508   7.965   2.047   6.294  2.0112 -0.7190 -0.0546
   40MOL0     H 5509   8.050   2.099   6.152  0.7638 -0.4737  0.6486
   40MOL0     H 5510   8.059   2.326   6.225 -2.3815 -1.9636 -3.0734
   40MOL0     H 5511   8.117   2.232   6.366  1.5454  0.2269 -1.1511
   40MOL0     H 5512   7.816   2.335   6.347  0.1107  1.4154  1.6453
   40MOL0     H 5513   7.892   2.243   6.469  0.9273 -1.3207 -0.6296
   40MOL0     H 5514   8.059   2.433   6.495  1.6775  1.4254 -3.1706
   40MOL0     H 5515   7.890   2.478   6.530 -0.1144 -1.1400  0.7934
   40MOL0     H 5516   8.029   2.722   6.207  2.1224  0.4755  1.9736
   40MOL0     H 5517   7.740   2.157   5.927 -1.5636  1.4643  0.5350
   40MOL0     H 5518   7.596   2.094   5.770  0.7215 -1.0740 -1.2307
   40MOL0     H 5519   7.565   1.918   5.763 -2.0400  0.0161  0.1005
   40MOL0     H 5520   7.444   2.017   5.831 -0.3387  1.6768 -2.0571
   41MOL0     O 5521   5.851   8.574   5.519  0.3384 -0.1186  0.0805
   41MOL0     C 5522   5.736   8.544   5.463 -1.4031  1.3051 -0.1265
   41MOL0     O 5523   5.638   8.638   5.427  0.8466  0.2276 -0.4440
   41MOL0     C 5524   5.608   8.767   5.470 -0.0258 -0.0544 -0.6631
   41MOL0     C 5525   5.702   8.847   5.543 -0.0888  1.5213  0.3608
   41MOL0     C 5526   5.667   8.977   5.569 -0.2818  0.3115  0.3629
   41MOL0     C 5527   5.541   9.029   5.550  0.0918  0.4182 -0.0356
   41MOL0     O 5528   5.517   9.163   5.576  1.0312 -0.3517 -0.1007
   41MOL0     C 5529   5.384   9.189   5.608 -0.5765  0.2494 -0.5449
   41MOL0     C 5530   5.368   9.331   5.673 -0.7119  0.5485 -0.0268
   41MOL0     C 5531   5.450   9.348   5.805 -1.1598  0.1948  0.5360
   41MOL0     C 5532   5.405   9.489   5.861 -0.4970 -0.7271 -0.7572
   41MOL0     C 5533   5.481   9.531   5.975 -1.1059 -0.0321  0.5337
   41MOL0     C 5534   5.416   9.648   6.042 -1.0730 -0.4051 -0.3139
   41MOL0     C 5535   5.501   9.697   6.164  0.0373 -0.2244 -0.2328
   41MOL0     C 5536   5.495   9.600   6.289 -0.4952 -0.5277 -0.6057
   41MOL0     N 5537   5.585   9.653   6.395  0.6943 -0.4900 -0.7880
   41MOL0     C 5538   5.647   9.775   6.404  0.9273 -0.5576  0.7103
   41MOL0     C 5539   5.701   9.771   6.523  0.4697  0.5298 -0.4012
   41MOL0     C 5540   5.776   9.886   6.588  0.0704  0.2247  0.1978
   41MOL0     C 5541   5.876   9.830   6.703 -0.1079 -0.5428  0.1614
   41MOL0     C 5542   5.955   9.944   6.772 -0.3346  0.2129 -0.3214
   41MOL0     C 5543   6.089   9.874   6.828 -0.5068 -0.0048 -0.2338
   41MOL0     O 5544   6.215   9.940   6.832 -0.4961 -0.0360 -0.3592
   41MOL0     C 5545   6.321   9.895   6.914 -0.7567  0.1935  0.6633
   41MOL0     C 5546   6.425   9.983   6.947 -0.5988 -0.2508  0.0184
   41MOL0     C 5547   6.536   9.948   7.023  0.3965  0.1021  0.3106
   41MOL0     C 5548   6.639  10.060   7.059 -0.1124 -0.3100 -0.3408
   41MOL0     C 5549   6.550   9.817   7.063  0.9844 -0.3829 -1.3774
   41MOL0     C 5550   6.659   9.769   7.154  1.0414  0.0214 -0.2802
   41MOL0     O 5551   6.622   9.720   7.281 -0.5697 -0.3116 -0.2187
   41MOL0     C 5552   6.715   9.638   7.349  0.5744  0.8815 -0.5196
   41MOL0     C 5553   6.656   9.517   7.413  0.0842  0.0746  0.8428
   41MOL0     C 5554   6.739   9.432   7.487  0.2671 -0.5413  0.0420
   41MOL0     C 5555   6.868   9.463   7.517 -0.3269 -0.4211 -1.1093
   41MOL0     O 5556   6.926   9.384   7.616  0.9053  0.0239  0.3938
   41MOL0     C 5557   7.044   9.412   7.697 -0.0091  0.0187  0.7937
   41MOL0     C 5558   7.120   9.288   7.745  0.3799 -0.1767 -0.2088
   41MOL0     C 5559   7.141   9.198   7.619  0.4250 -0.3592 -0.7877
   41MOL0     C 5560   7.272   9.118   7.616  0.6676 -1.1829  0.1728
   41MOL0     C 5561   7.280   8.994   7.514  0.1801  0.9581  0.5739
   41MOL0     C 5562   7.179   8.889   7.563 -0.4490  0.3743 -0.7356
   41MOL0     C 5563   7.223   8.741   7.524  0.1525 -1.1570 -0.1063
   41MOL0     C 5564   7.150   8.628   7.593  0.6233 -0.0521 -0.1704
   41MOL0    Cl 5565   7.010   8.596   7.508 -0.4334  0.0880  0.0769
   41MOL0     C 5566   6.917   9.581   7.458  0.2243 -0.1196 -0.2849
   41MOL0     C 5567   6.842   9.666   7.381  0.9311  0.3645 -1.7003
   41MOL0     O 5568   6.769   9.752   7.094  0.4629  0.3722  0.0118
   41MOL0     C 5569   6.439   9.727   7.032  0.2525  0.6218  0.3017
   41MOL0     C 5570   6.330   9.767   6.950 -0.4270  0.7578  0.0294
   41MOL0     N 5571   5.683   9.647   6.592 -0.2898  0.1637  0.7968
   41MOL0     N 5572   5.607   9.586   6.516 -0.5246  0.9424  0.2318
   41MOL0     C 5573   5.446   8.945   5.491 -0.4364 -0.2223  0.1566
   41MOL0     C 5574   5.484   8.818   5.443 -0.1308 -1.3847  0.4030
   41MOL0     C 5575   5.718   8.408   5.418 -0.8398 -0.5146  0.7649
   41MOL0     C 5576   5.727   8.304   5.517 -0.1692 -0.9818 -0.6569
   41MOL0     C 5577   5.733   8.169   5.486  0.9491 -0.5441  0.1992
   41MOL0     C 5578   5.712   8.129   5.351  1.5567  0.1628 -1.0936
   41MOL0     O 5579   5.741   8.004   5.305 -0.0591 -0.7543  0.4258
   41MOL0     C 5580   5.821   7.923   5.397 -0.4761  0.6401  0.0315
   41MOL0     C 5581   5.890   7.796   5.354 -0.3717 -0.5427  0.1265
   41MOL0     C 5582   5.801   7.718   5.262  0.4745 -0.5924 -0.8919
   41MOL0     C 5583   5.707   7.635   5.338  0.2154  0.4445  0.1068
   41MOL0     C 5584   5.584   7.591   5.257  0.5446  0.2437 -0.1042
   41MOL0     C 5585   5.479   7.552   5.203  0.9204 -0.1885 -0.0420
   41MOL0     C 5586   5.679   8.225   5.263 -0.3783  0.0345  1.1844
   41MOL0     C 5587   5.682   8.368   5.289  0.7490  0.6914 -0.2832
   41MOL0     C 5588   5.665   8.461   5.178  0.8980  0.5222 -0.2779
   41MOL0     H 5589   5.804   8.812   5.546  1.1788  4.7981  0.1135
   41MOL0     H 5590   5.732   9.044   5.625 -1.9791  2.3057  0.0630
   41MOL0     H 5591   5.361   9.110   5.680 -0.2491 -0.7087 -1.4616
   41MOL0     H 5592   5.321   9.182   5.519 -0.8789  3.4190 -0.7062
   41MOL0     H 5593   5.395   9.415   5.608  0.5619  0.4068  0.2856
   41MOL0     H 5594   5.259   9.332   5.683 -1.6523 -2.9761 -5.4321
   41MOL0     H 5595   5.426   9.273   5.880 -1.7750  1.1048  1.2688
   41MOL0     H 5596   5.558   9.337   5.793 -1.1469  0.8959 -0.1294
   41MOL0     H 5597   5.418   9.565   5.783  0.7021  0.7225  0.7888
   41MOL0     H 5598   5.298   9.492   5.883 -0.0618  1.2823  1.4680
   41MOL0     H 5599   5.577   9.560   5.931 -0.8994  0.2961  1.1830
   41MOL0     H 5600   5.497   9.457   6.055  0.7382 -1.0750 -0.7271
   41MOL0     H 5601   5.411   9.728   5.968  0.8876 -0.2824 -0.3577
   41MOL0     H 5602   5.313   9.621   6.066 -0.3096 -4.4269 -0.7588
   41MOL0     H 5603   5.466   9.791   6.206  3.1621  0.3948  1.3161
   41MOL0     H 5604   5.606   9.697   6.132  0.5044 -1.5227  1.1286
   41MOL0     H 5605   5.390   9.588   6.314  0.0725 -0.8635  1.8165
   41MOL0     H 5606   5.534   9.503   6.258  0.6476  0.0324 -0.9809
   41MOL0     H 5607   5.652   9.850   6.326  1.3210 -0.1815  1.0953
   41MOL0     H 5608   5.703   9.961   6.619 -0.8330 -0.9534  1.0608
   41MOL0     H 5609   5.838   9.923   6.506 -0.4754  1.2077  0.2190
   41MOL0     H 5610   5.813   9.775   6.774  0.5461 -3.3173 -1.2697
   41MOL0     H 5611   5.946   9.774   6.642 -0.6142  1.3169 -2.2889
   41MOL0     H 5612   5.973  10.017   6.693 -3.2065  0.2652 -1.0612
   41MOL0     H 5613   5.902   9.991   6.855 -0.4730 -2.0719  0.9700
   41MOL0     H 5614   6.066   9.866   6.935  0.1990  1.0674  0.0071
   41MOL0     H 5615   6.115   9.778   6.783  2.6538  0.5667  0.1452
   41MOL0     H 5616   6.407  10.085   6.915  2.9418 -0.0390 -1.7415
   41MOL0     H 5617   6.694  10.047   7.152  0.0138 -1.1901 -0.5331
   41MOL0     H 5618   6.588  10.154   7.081  1.0054  0.0182  0.9672
   41MOL0     H 5619   6.713  10.079   6.981  2.5691 -1.3409  1.7951
   41MOL0     H 5620   6.554   9.484   7.398  0.7731 -0.7806 -3.3875
   41MOL0     H 5621   6.692   9.339   7.515 -0.2163 -0.4815 -0.5495
   41MOL0     H 5622   7.110   9.482   7.644 -2.4498  1.6781 -0.2710
   41MOL0     H 5623   7.021   9.464   7.791 -4.6908  1.8914 -1.0317
   41MOL0     H 5624   7.222   9.312   7.778  1.8302 -2.9863 -2.1951
   41MOL0     H 5625   7.063   9.236   7.822  0.7353 -1.6914 -0.9119
   41MOL0     H 5626   7.154   9.271   7.538 -0.6377 -1.0302 -1.5880
   41MOL0     H 5627   7.057   9.133   7.595  0.3832 -1.1741  1.3377
   41MOL0     H 5628   7.282   9.078   7.717 -1.1387 -1.0036  0.4487
   41MOL0     H 5629   7.360   9.183   7.605 -0.3466  0.0008 -1.5077
   41MOL0     H 5630   7.270   9.017   7.408 -2.3383 -3.3584 -0.3575
   41MOL0     H 5631   7.380   8.953   7.529  0.1205  0.7426  0.3936
   41MOL0     H 5632   7.081   8.903   7.517 -0.2758 -0.4898 -1.3882
   41MOL0     H 5633   7.171   8.885   7.672  8.0349 -0.4778  0.5113
   41MOL0     H 5634   7.330   8.725   7.536  0.6577  1.4418 -0.4766
   41MOL0     H 5635   7.200   8.727   7.418 -0.9148 -1.4422  0.1505
   41MOL0     H 5636   7.116   8.663   7.691 -1.5964 -2.2225 -0.0992
   41MOL0     H 5637   7.217   8.542   7.604 -1.8941 -2.5086 -2.6557
   41MOL0     H 5638   7.022   9.604   7.473  0.4265 -0.2640 -1.3753
   41MOL0     H 5639   6.886   9.759   7.346  1.4605  1.0191  0.5238
   41MOL0     H 5640   6.431   9.636   7.089  0.9726 -0.4244 -1.2061
   41MOL0     H 5641   6.255   9.695   6.919  0.6539 -1.2272  1.7807
   41MOL0     H 5642   5.347   8.983   5.469 -0.8830  0.6479  3.1735
   41MOL0     H 5643   5.413   8.761   5.383 -1.4908  0.8958 -0.3243
   41MOL0     H 5644   5.736   8.342   5.618  1.9085 -0.2522 -1.0665
   41MOL0     H 5645   5.751   8.101   5.569 -2.6597 -2.3453 -0.3047
   41MOL0     H 5646   5.901   7.973   5.451  1.1346 -3.3676  1.6950
   41MOL0     H 5647   5.762   7.899   5.486  3.4183  1.6969  3.1777
   41MOL0     H 5648   5.929   7.734   5.436 -1.2605 -1.7540 -0.3278
   41MOL0     H 5649   5.975   7.823   5.291 -2.0834 -1.1937 -2.6197
   41MOL0     H 5650   5.742   7.787   5.200 -0.4175  1.6050  2.1599
   41MOL0     H 5651   5.858   7.653   5.196 -0.6864 -0.7435 -1.7739
   41MOL0     H 5652   5.665   7.692   5.421  0.0918  1.1829 -0.4497
   41MOL0     H 5653   5.741   7.542   5.385 -1.0635  0.6077  1.4093
   41MOL0     H 5654   5.388   7.509   5.167  1.5249  0.1162 -2.0819
   41MOL0     H 5655   5.656   8.192   5.162  3.2952  1.3147 -0.2358
   41MOL0     H 5656   5.596   8.539   5.209 -1.6209 -1.7912  0.2928
   41MOL0     H 5657   5.755   8.512   5.140  1.2666 -1.4981 -2.3414
   41MOL0     H 5658   5.620   8.415   5.090  1.3170  1.1350 -0.8223
   42MOL0     O 5659   4.570   4.391   1.854 -0.8795  0.1864 -0.0819
   42MOL0     C 5660   4.518   4.388   1.743 -0.9515 -1.0704 -1.0171
   42MOL0     O 5661   4.387   4.375   1.715  1.0619  0.3921  0.2686
   42MOL0     C 5662   4.301   4.385   1.824 -0.1655 -0.1485  0.9039
   42MOL0     C 5663   4.271   4.511   1.899 -0.9688 -0.5299  0.0438
   42MOL0     C 5664   4.182   4.508   2.011  0.0338  0.4207 -0.4632
   42MOL0     C 5665   4.101   4.396   2.022  0.4745  0.2983 -0.1730
   42MOL0     O 5666   3.978   4.397   2.095 -0.1233 -0.1699  0.5318
   42MOL0     C 5667   3.963   4.493   2.201  0.1748  0.0973 -0.1853
   42MOL0     C 5668   3.869   4.449   2.313  0.3013  0.5843 -0.3775
   42MOL0     C 5669   3.721   4.449   2.269 -0.2579  0.8203  0.1681
   42MOL0     C 5670   3.662   4.585   2.272 -0.0059 -0.2619 -0.2997
   42MOL0     C 5671   3.515   4.577   2.206  0.9199 -1.0120  0.2517
   42MOL0     C 5672   3.409   4.490   2.269  0.4463  0.0374  0.4492
   42MOL0     C 5673   3.364   4.525   2.411 -0.4866 -0.4920 -0.0000
   42MOL0     C 5674   3.227   4.468   2.442  1.0162  0.4343  0.2185
   42MOL0     N 5675   3.125   4.504   2.340  1.0066  0.3601 -0.0676
   42MOL0     C 5676   3.111   4.619   2.279  0.2424 -0.1007 -1.0082
   42MOL0     C 5677   3.011   4.604   2.195  0.2946  0.0133 -0.4243
   42MOL0     C 5678   2.974   4.710   2.097  0.8473 -0.3523 -0.6959
   42MOL0     C 5679   2.903   4.662   1.970 -0.3984  0.1977 -0.6230
   42MOL0     C 5680   2.875   4.772   1.873 -0.5076 -0.0650 -0.2476
   42MOL0     C 5681   2.792   4.731   1.753 -0.0564  0.8642  1.2685
   42MOL0     O 5682   2.850   4.623   1.669 -0.0133 -0.9149  0.4079
   42MOL0     C 5683   2.809   4.633   1.537  0.5250 -0.4066 -0.7240
   42MOL0     C 5684   2.718   4.535   1.488 -0.6116 -0.2064  0.5672
   42MOL0     C 5685   2.654   4.561   1.367 -0.5369  0.2217 -0.4914
   42MOL0     C 5686   2.530   4.482   1.336 -0.7399 -0.2382 -0.2487
   42MOL0     C 5687   2.702   4.677   1.289  0.7015  0.0101 -0.5408
   42MOL0     C 5688   2.646   4.724   1.164  0.9317 -0.8682  0.6776
   42MOL0     O 5689   2.684   4.845   1.116  0.3125  0.2598 -0.2704
   42MOL0     C 5690   2.653   4.882   0.990 -0.0195  0.4214 -0.1608
   42MOL0     C 5691   2.520   4.914   0.955 -0.9906  0.0266  0.3815
   42MOL0     C 5692   2.506   4.981   0.824  0.3698 -0.5287 -0.7285
   42MOL0     C 5693   2.616   5.009   0.745 -0.1239  0.5620  0.6861
   42MOL0     O 5694   2.578   5.075   0.629 -0.3981 -0.8596  0.6223
   42MOL0     C 5695   2.691   5.107   0.540  0.4308  0.8943  0.7438
   42MOL0     C 5696   2.669   5.242   0.460  0.1002  0.4052  0.3526
   42MOL0     C 5697   2.531   5.255   0.398 -0.4642 -0.0445 -0.0826
   42MOL0     C 5698   2.533   5.407   0.346  0.7583 -0.4691 -0.7411
   42MOL0     C 5699   2.420   5.441   0.242 -0.7121  0.3629 -0.9109
   42MOL0     C 5700   2.286   5.415   0.307  0.4461 -0.6510 -0.4503
   42MOL0     C 5701   2.176   5.385   0.205 -0.4843 -0.0485  0.7238
   42MOL0     C 5702   2.182   5.252   0.126  1.0129  0.4316  0.3502
   42MOL0    Cl 5703   2.222   5.125   0.234  0.0856  0.2391 -0.0532
   42MOL0     C 5704   2.745   4.964   0.782 -0.4455  0.3921 -0.3306
   42MOL0     C 5705   2.764   4.893   0.898  0.5643  0.1093 -0.4686
   42MOL0     O 5706   2.560   4.651   1.112 -0.2749  0.7487 -0.3902
   42MOL0     C 5707   2.806   4.752   1.337  0.0563 -0.2750 -0.3133
   42MOL0     C 5708   2.856   4.734   1.467 -0.2391 -0.6848  0.5949
   42MOL0     N 5709   2.948   4.474   2.211 -0.3645  0.1540 -0.3345
   42MOL0     N 5710   3.024   4.418   2.303  0.8483 -0.2411  0.8530
   42MOL0     C 5711   4.117   4.277   1.941 -0.7583 -0.1483 -0.6095
   42MOL0     C 5712   4.222   4.273   1.846  0.6058  0.4687  0.6708
   42MOL0     C 5713   4.615   4.426   1.641 -0.1628 -0.4645  0.4077
   42MOL0     C 5714   4.556   4.478   1.525 -0.9245  0.8825 -0.4698
   42MOL0     C 5715   4.618   4.507   1.407 -0.1221 -0.3600  0.9661
   42MOL0     C 5716   4.759   4.488   1.399 -0.1088  0.3562  0.2195
   42MOL0     O 5717   4.833   4.517   1.288 -0.0393  0.0594  0.2423
   42MOL0     C 5718   4.832   4.661   1.253  0.2536 -0.2696  0.5475
   42MOL0     C 5719   4.941   4.692   1.140  0.9262 -0.2274  0.5908
   42MOL0     C 5720   4.888   4.641   1.008  0.0517  0.1493 -0.4379
   42MOL0     C 5721   4.797   4.738   0.936  0.0845 -0.6217 -0.0700
   42MOL0     C 5722   4.773   4.696   0.798 -0.2548 -0.1159 -0.2975
   42MOL0     C 5723   4.738   4.657   0.688  0.0146  0.7743 -0.1131
   42MOL0     C 5724   4.816   4.431   1.511  1.2285 -0.3535  0.2478
   42MOL0     C 5725   4.754   4.405   1.631  0.1011 -0.6047 -0.7909
   42MOL0     C 5726   4.834   4.342   1.742 -0.3761 -0.4042  0.1775
   42MOL0     H 5727   4.325   4.604   1.880 -2.6960  1.2099  2.8268
   42MOL0     H 5728   4.171   4.592   2.079 -4.3335 -0.4689  0.2052
   42MOL0     H 5729   3.930   4.591   2.166  0.3648  1.2443  2.6042
   42MOL0     H 5730   4.064   4.507   2.240  0.7580  1.0378 -1.9329
   42MOL0     H 5731   3.900   4.350   2.347  1.4089  1.0896  0.1115
   42MOL0     H 5732   3.870   4.509   2.405  1.2806  0.1258 -0.0814
   42MOL0     H 5733   3.717   4.424   2.162 -0.2548 -2.0475  0.7631
   42MOL0     H 5734   3.672   4.370   2.325 -0.4418 -0.6785 -1.9613
   42MOL0     H 5735   3.672   4.624   2.373  0.4843  0.8346 -0.7488
   42MOL0     H 5736   3.719   4.651   2.206 -3.0394  0.8487 -2.0177
   42MOL0     H 5737   3.533   4.541   2.105  2.0375  1.6748 -0.6166
   42MOL0     H 5738   3.478   4.680   2.198  0.3652 -1.1867  0.5242
   42MOL0     H 5739   3.323   4.504   2.204  0.7580  4.8439  0.6782
   42MOL0     H 5740   3.442   4.386   2.261  1.0330  0.2372  0.1824
   42MOL0     H 5741   3.378   4.632   2.431  3.2508 -0.8388 -0.1090
   42MOL0     H 5742   3.422   4.465   2.481 -3.0136 -1.7619  1.1263
   42MOL0     H 5743   3.224   4.360   2.454 -2.6579  0.3208 -0.5139
   42MOL0     H 5744   3.184   4.512   2.533 -1.4684  0.1409 -0.7336
   42MOL0     H 5745   3.179   4.703   2.286 -3.2335  2.8610  0.3499
   42MOL0     H 5746   3.063   4.767   2.068 -0.1427  0.9484 -1.3045
   42MOL0     H 5747   2.914   4.777   2.160  1.4068 -0.5859  0.1017
   42MOL0     H 5748   2.970   4.581   1.940  0.3420  1.0083 -1.2250
   42MOL0     H 5749   2.809   4.612   1.995 -0.0440  0.5401  1.5524
   42MOL0     H 5750   2.819   4.851   1.925  0.4906 -0.7487  1.9569
   42MOL0     H 5751   2.964   4.816   1.829  0.0229 -3.2455 -2.7366
   42MOL0     H 5752   2.699   4.694   1.797  0.2250 -1.3899  0.1033
   42MOL0     H 5753   2.782   4.819   1.689 -0.8035 -0.9251 -1.1967
   42MOL0     H 5754   2.705   4.437   1.534 -2.8498 -0.6800 -0.9114
   42MOL0     H 5755   2.526   4.439   1.235  2.3473  0.9926 -1.0027
   42MOL0     H 5756   2.431   4.529   1.345 -1.9916 -2.2710 -2.1514
   42MOL0     H 5757   2.523   4.395   1.401  1.9327 -1.1017 -1.0124
   42MOL0     H 5758   2.434   4.900   1.020 -1.2114 -3.3263 -0.4186
   42MOL0     H 5759   2.405   5.000   0.790 -0.6562 -1.3665  1.6186
   42MOL0     H 5760   2.781   5.119   0.602  0.8673 -2.2346  0.8914
   42MOL0     H 5761   2.711   5.028   0.467 -2.5454 -0.9550  1.7603
   42MOL0     H 5762   2.693   5.328   0.523  0.2018  0.1776  0.6232
   42MOL0     H 5763   2.747   5.247   0.383  0.1008  0.8449  0.3808
   42MOL0     H 5764   2.459   5.241   0.479 -1.2608  4.1079  0.1414
   42MOL0     H 5765   2.513   5.181   0.319 -1.7737  1.1872 -0.9945
   42MOL0     H 5766   2.627   5.444   0.304  0.5359  0.7971 -0.1709
   42MOL0     H 5767   2.505   5.466   0.434  0.4724  0.5023 -1.4723
   42MOL0     H 5768   2.418   5.545   0.210 -2.5833  0.0683 -1.8585
   42MOL0     H 5769   2.452   5.384   0.154 -0.9857  3.8615 -3.4627
   42MOL0     H 5770   2.251   5.507   0.355  1.3792 -0.7190  0.3926
   42MOL0     H 5771   2.285   5.332   0.377  3.5689 -0.5172 -0.1023
   42MOL0     H 5772   2.157   5.472   0.141  1.7765 -0.4665 -0.6341
   42MOL0     H 5773   2.088   5.373   0.269 -0.3213  2.6380  1.5688
   42MOL0     H 5774   2.252   5.264   0.042 -1.8222  0.1485 -2.2476
   42MOL0     H 5775   2.081   5.220   0.099  0.6913  1.9307 -0.2870
   42MOL0     H 5776   2.839   4.976   0.728  1.7780 -3.2622  2.2112
   42MOL0     H 5777   2.862   4.854   0.923  1.4562  1.3943 -1.8248
   42MOL0     H 5778   2.853   4.830   1.277 -1.4923  2.4227  1.7422
   42MOL0     H 5779   2.926   4.807   1.506 -1.3554  1.5413 -1.2981
   42MOL0     H 5780   4.050   4.192   1.943 -3.2638  1.7326  0.0212
   42MOL0     H 5781   4.230   4.190   1.777 -2.4078  1.5782 -1.2319
   42MOL0     H 5782   4.448   4.492   1.524 -1.2910 -1.3600  0.5757
   42MOL0     H 5783   4.565   4.556   1.325  1.1902  2.1207  1.4842
   42MOL0     H 5784   4.734   4.698   1.222  1.1552  0.4453 -1.5723
   42MOL0     H 5785   4.864   4.711   1.344  1.1568  0.3703 -0.1068
   42MOL0     H 5786   5.025   4.629   1.171  1.2962  0.4884  1.0875
   42MOL0     H 5787   4.969   4.797   1.127  1.9344 -0.8505 -3.4515
   42MOL0     H 5788   4.964   4.621   0.932 -2.2054 -0.1447 -2.7921
   42MOL0     H 5789   4.838   4.545   1.022 -0.6198  0.6294  0.5499
   42MOL0     H 5790   4.831   4.841   0.931 -2.3473  0.1552 -3.3833
   42MOL0     H 5791   4.697   4.743   0.981  0.3663 -3.0942  1.0397
   42MOL0     H 5792   4.704   4.620   0.593 -0.5846  0.5658  0.1764
   42MOL0     H 5793   4.924   4.424   1.515  1.1192 -1.7338  1.4431
   42MOL0     H 5794   4.900   4.416   1.788  0.4927 -2.6431  2.8297
   42MOL0     H 5795   4.775   4.300   1.824 -0.3390 -2.8255 -0.9577
   42MOL0     H 5796   4.895   4.256   1.711 -0.3460 -1.5701  3.1552
   43MOL0     O 5797   0.473   7.900   4.387  1.0010  0.8454  0.4149
   43MOL0     C 5798   0.347   7.892   4.394 -0.6917  0.9144 -0.2564
   43MOL0     O 5799   0.266   7.999   4.369  0.4110 -0.3836 -0.2472
   43MOL0     C 5800   0.306   8.128   4.387 -0.7195  0.5265 -0.0640
   43MOL0     C 5801   0.230   8.208   4.308 -0.4183  0.2654  0.4732
   43MOL0     C 5802   0.253   8.346   4.324 -1.0550 -0.2367  0.5711
   43MOL0     C 5803   0.334   8.400   4.430  0.7598 -1.1157 -0.3091
   43MOL0     O 5804   0.365   8.525   4.453 -0.1299 -0.9069 -0.3170
   43MOL0     C 5805   0.267   8.624   4.413 -1.0572 -0.2327  0.0445
   43MOL0     C 5806   0.327   8.763   4.445  0.3386 -0.2711  0.1475
   43MOL0     C 5807   0.242   8.874   4.392 -0.2381  0.4590 -0.3191
   43MOL0     C 5808   0.296   8.925   4.264 -0.8709 -0.5095  1.2157
   43MOL0     C 5809   0.220   9.041   4.204  0.8013 -0.4077  0.3346
   43MOL0     C 5810   0.248   9.092   4.063  0.1745 -1.1316 -0.6980
   43MOL0     C 5811   0.144   9.194   4.007 -0.0733 -0.3334 -0.2579
   43MOL0     C 5812  -0.005   9.149   4.008  0.6264  0.9604  0.0941
   43MOL0     N 5813  -0.029   9.017   3.947 -0.8665  0.2785  0.6303
   43MOL0     C 5814   0.023   8.966   3.830  0.4572  0.1030  0.6279
   43MOL0     C 5815  -0.052   8.850   3.808  0.8867 -0.2566 -0.1849
   43MOL0     C 5816  -0.055   8.750   3.693  0.0895  0.1561 -0.3254
   43MOL0     C 5817  -0.091   8.823   3.551 -0.1785 -0.4424 -0.1685
   43MOL0     C 5818  -0.224   8.896   3.540  0.6741  0.2915  0.1409
   43MOL0     C 5819  -0.337   8.796   3.571  0.6579  0.0072  0.5953
   43MOL0     O 5820  -0.364   8.711   3.452  0.2854 -0.5712 -0.5350
   43MOL0     C 5821  -0.462   8.616   3.480  0.0960 -0.2638 -0.0876
   43MOL0     C 5822  -0.553   8.618   3.585 -0.2158  0.3799 -0.1861
   43MOL0     C 5823  -0.643   8.517   3.612  0.2626  0.3438  0.2750
   43MOL0     C 5824  -0.732   8.535   3.723  1.3943 -0.2230  0.0721
   43MOL0     C 5825  -0.656   8.407   3.521  0.6185  0.1838  0.6953
   43MOL0     C 5826  -0.757   8.300   3.528  0.1427  0.2828  0.0862
   43MOL0     O 5827  -0.844   8.287   3.627  0.4952 -0.3218  0.0501
   43MOL0     C 5828  -0.937   8.182   3.635 -0.8259  0.1161 -0.2782
   43MOL0     C 5829  -1.051   8.207   3.714  0.0138  0.2344  0.2458
   43MOL0     C 5830  -1.154   8.115   3.728  0.2609  0.4537  1.1586
   43MOL0     C 5831  -1.150   7.995   3.654  0.8807 -0.3095 -1.1874
   43MOL0     O 5832  -1.262   7.914   3.649  0.1056  0.1259 -0.4018
   43MOL0     C 5833  -1.289   7.834   3.541 -0.3284 -0.6592  0.7659
   43MOL0     C 5834  -1.413   7.747   3.567 -0.4803 -0.1621 -0.0095
   43MOL0     C 5835  -1.444   7.647   3.466 -0.5336  0.1141  0.3838
   43MOL0     C 5836  -1.588   7.594   3.480  0.3378  0.0995  0.0541
   43MOL0     C 5837  -1.615   7.454   3.399 -0.2745  0.1195 -1.3421
   43MOL0     C 5838  -1.755   7.379   3.418  0.0194 -0.5670  0.5505
   43MOL0     C 5839  -1.871   7.474   3.394 -0.1119 -0.4662 -0.0698
   43MOL0     C 5840  -1.992   7.425   3.302 -0.5675  0.3935 -0.2497
   43MOL0    Cl 5841  -2.052   7.559   3.212  0.4344  0.1963  0.4828
   43MOL0     C 5842  -1.035   7.965   3.587 -0.7106 -0.2989  0.4861
   43MOL0     C 5843  -0.924   8.056   3.575 -0.4104  1.1473 -0.0847
   43MOL0     O 5844  -0.740   8.219   3.436 -0.1666  0.0477  0.4012
   43MOL0     C 5845  -0.561   8.404   3.419  0.6500 -0.1620  0.7657
   43MOL0     C 5846  -0.473   8.504   3.395 -0.9864  0.6011  0.0547
   43MOL0     N 5847  -0.144   8.841   3.916  0.5309 -0.6425 -0.3803
   43MOL0     N 5848  -0.127   8.938   3.998 -0.5023  0.1603 -0.5320
   43MOL0     C 5849   0.408   8.307   4.501  0.0631 -0.4748 -0.4651
   43MOL0     C 5850   0.398   8.168   4.487  0.9836 -0.1350  0.2346
   43MOL0     C 5851   0.282   7.757   4.420 -0.2657 -0.3146 -0.0808
   43MOL0     C 5852   0.142   7.761   4.429 -0.5220 -0.4578 -0.2435
   43MOL0     C 5853   0.062   7.656   4.460  1.1640  0.9654 -0.3988
   43MOL0     C 5854   0.111   7.531   4.484  0.1610 -0.3350 -0.4653
   43MOL0     O 5855   0.038   7.422   4.516 -0.1169 -0.1904  0.1956
   43MOL0     C 5856  -0.104   7.435   4.513 -0.1409  0.7156  0.0546
   43MOL0     C 5857  -0.162   7.441   4.368  0.8120  0.4322 -0.0885
   43MOL0     C 5858  -0.165   7.313   4.288 -0.1094  0.1276  1.0077
   43MOL0     C 5859  -0.019   7.267   4.257 -0.0605 -0.5935 -0.8734
   43MOL0     C 5860  -0.028   7.154   4.165 -0.5362  0.0501 -1.0167
   43MOL0     C 5861  -0.031   7.061   4.084  0.2536 -0.8572 -0.0226
   43MOL0     C 5862   0.254   7.522   4.477  0.6313  0.0469  0.2052
   43MOL0     C 5863   0.344   7.632   4.446 -0.4914 -0.1016 -0.5359
   43MOL0     C 5864   0.490   7.613   4.470 -0.4155  0.9113 -0.0621
   43MOL0     H 5865   0.150   8.165   4.249 -1.7983  0.5110  2.0925
   43MOL0     H 5866   0.200   8.412   4.255  1.3486  0.0625 -1.1289
   43MOL0     H 5867   0.169   8.619   4.460 -1.3192 -0.5653 -0.5287
   43MOL0     H 5868   0.268   8.619   4.304  4.8136  1.2928 -0.3012
   43MOL0     H 5869   0.326   8.779   4.554  1.7664 -4.1430  0.8769
   43MOL0     H 5870   0.433   8.782   4.425  0.3122  1.4885  1.4026
   43MOL0     H 5871   0.137   8.846   4.383 -0.2780 -0.0453  1.3383
   43MOL0     H 5872   0.235   8.959   4.460 -1.1286  2.5226 -2.8616
   43MOL0     H 5873   0.402   8.953   4.269 -0.7241  0.2192 -2.8948
   43MOL0     H 5874   0.290   8.841   4.195 -0.8722 -0.1666  0.7959
   43MOL0     H 5875   0.226   9.122   4.277  1.8589 -1.1304  1.0745
   43MOL0     H 5876   0.115   9.010   4.198  0.6565  0.2618 -1.2552
   43MOL0     H 5877   0.337   9.154   4.061  0.1241 -0.9311  1.1314
   43MOL0     H 5878   0.265   9.011   3.992  0.7904 -0.2715 -1.5502
   43MOL0     H 5879   0.183   9.222   3.909  4.5410 -3.0837  0.4697
   43MOL0     H 5880   0.133   9.277   4.077 -0.5952 -0.8625  0.2968
   43MOL0     H 5881  -0.045   9.129   4.108  1.9324 -4.9185 -0.2223
   43MOL0     H 5882  -0.062   9.230   3.961  1.7207  1.6166 -0.1223
   43MOL0     H 5883   0.107   8.999   3.769  0.9343 -4.2805 -1.5309
   43MOL0     H 5884  -0.115   8.661   3.715 -0.6080  1.2098  2.4438
   43MOL0     H 5885   0.049   8.716   3.697  0.0853 -0.6577 -3.8896
   43MOL0     H 5886  -0.015   8.898   3.527 -0.4877  0.3973  1.3319
   43MOL0     H 5887  -0.077   8.748   3.472  1.7958  1.5271 -1.8370
   43MOL0     H 5888  -0.232   8.982   3.608 -2.1341 -0.2139  0.5876
   43MOL0     H 5889  -0.228   8.935   3.438 -0.9127  1.7501  0.7067
   43MOL0     H 5890  -0.312   8.732   3.656  2.0124 -1.7101 -1.0152
   43MOL0     H 5891  -0.427   8.853   3.600 -1.8011 -3.5076  0.5185
   43MOL0     H 5892  -0.550   8.697   3.659 -3.8726  0.5592 -0.0426
   43MOL0     H 5893  -0.737   8.445   3.786  0.4186 -1.4530 -1.6666
   43MOL0     H 5894  -0.830   8.570   3.691  0.4605 -2.4767  0.2330
   43MOL0     H 5895  -0.683   8.605   3.791 -1.1560  1.0037  0.7225
   43MOL0     H 5896  -1.067   8.309   3.749 -1.2303  0.3697 -0.6662
   43MOL0     H 5897  -1.244   8.145   3.781 -1.2067  1.4815 -1.7078
   43MOL0     H 5898  -1.324   7.898   3.459  5.2100  0.9492 -0.7380
   43MOL0     H 5899  -1.199   7.784   3.507  0.2971  1.7891 -1.6062
   43MOL0     H 5900  -1.406   7.703   3.666  1.7123  1.5050  0.6745
   43MOL0     H 5901  -1.501   7.811   3.573  0.2338  0.8824 -0.4128
   43MOL0     H 5902  -1.391   7.555   3.492 -1.7622 -0.8602 -0.4482
   43MOL0     H 5903  -1.443   7.680   3.362 -0.7519 -6.6764 -2.2788
   43MOL0     H 5904  -1.658   7.665   3.436  0.2604 -0.9896 -1.6695
   43MOL0     H 5905  -1.603   7.567   3.585 -0.7680  1.0301  0.1540
   43MOL0     H 5906  -1.601   7.489   3.296 -2.4027  3.7749 -0.5514
   43MOL0     H 5907  -1.540   7.384   3.436 -2.0391 -0.2212  1.9184
   43MOL0     H 5908  -1.766   7.342   3.520 -0.4051 -1.4414  0.1991
   43MOL0     H 5909  -1.745   7.292   3.353 -1.0187 -0.9724  0.9151
   43MOL0     H 5910  -1.826   7.564   3.351  0.2090  0.3952  1.9419
   43MOL0     H 5911  -1.913   7.504   3.491  0.0460 -1.1645  0.2204
   43MOL0     H 5912  -2.076   7.379   3.355  0.0468 -1.0108 -0.4561
   43MOL0     H 5913  -1.946   7.348   3.240  1.0289  0.7174  0.4890
   43MOL0     H 5914  -1.019   7.875   3.528 -3.1321 -0.8785  0.5767
   43MOL0     H 5915  -0.832   8.024   3.529  1.7484  2.7523  2.8121
   43MOL0     H 5916  -0.551   8.325   3.345  1.6682  2.1374 -1.7513
   43MOL0     H 5917  -0.389   8.488   3.328 -0.2595 -1.6641  1.3905
   43MOL0     H 5918   0.466   8.346   4.584 -2.1810 -0.7508  1.3488
   43MOL0     H 5919   0.452   8.103   4.555 -2.5999  1.1553  4.8221
   43MOL0     H 5920   0.089   7.855   4.414  0.1921 -0.2649 -1.7802
   43MOL0     H 5921  -0.045   7.670   4.454  0.3681 -1.3642  3.9600
   43MOL0     H 5922  -0.149   7.347   4.560 -2.8912  1.1237 -1.5685
   43MOL0     H 5923  -0.140   7.523   4.568  0.7844  1.2277 -0.1525
   43MOL0     H 5924  -0.112   7.513   4.303  2.2997 -2.3622 -2.2593
   43MOL0     H 5925  -0.264   7.480   4.381  0.5356 -0.8344  2.0172
   43MOL0     H 5926  -0.219   7.241   4.349  0.9169 -1.3436  0.2362
   43MOL0     H 5927  -0.214   7.335   4.192 -0.7738 -2.9881  0.5190
   43MOL0     H 5928   0.012   7.222   4.351 -2.6757  1.4114  1.0918
   43MOL0     H 5929   0.050   7.344   4.221  0.8959 -0.6423  0.7634
   43MOL0     H 5930  -0.048   6.978   4.018  0.5544 -0.6337 -0.3865
   43MOL0     H 5931   0.294   7.425   4.504 -0.9002 -0.7027 -0.0625
   43MOL0     H 5932   0.559   7.697   4.456 -0.4696  1.2812  1.6922
   43MOL0     H 5933   0.506   7.595   4.576  4.1755  0.1095 -0.6615
   43MOL0     H 5934   0.531   7.523   4.422 -2.6043 -0.0444 -0.2325
   44MOL0     O 5935   4.412   1.923   0.742  0.2419 -0.3611 -0.3283
   44MOL0     C 5936   4.336   1.861   0.665  0.2613 -0.2177  0.4564
   44MOL0     O 5937   4.236   1.917   0.586  0.2971 -0.0709 -0.5198
   44MOL0     C 5938   4.214   2.049   0.606  0.0578  0.6042  0.2492
   44MOL0     C 5939   4.224   2.133   0.497 -0.3393 -0.5306  0.0764
   44MOL0     C 5940   4.190   2.268   0.512 -0.2021  0.3048 -0.1909
   44MOL0     C 5941   4.163   2.319   0.644  0.0443  0.5701  0.1075
   44MOL0     O 5942   4.155   2.452   0.673  0.0949  0.7977 -0.6446
   44MOL0     C 5943   4.119   2.545   0.566  0.1712  0.0423  0.1060
   44MOL0     C 5944   4.082   2.678   0.611 -0.3180 -0.8624  0.7500
   44MOL0     C 5945   3.948   2.698   0.687  0.5230  0.0796 -0.1309
   44MOL0     C 5946   3.916   2.843   0.706  0.0909  0.0871 -0.3165
   44MOL0     C 5947   3.816   2.872   0.821 -0.1724  0.3249  0.2656
   44MOL0     C 5948   3.660   2.871   0.790 -0.5847 -0.6513  0.1135
   44MOL0     C 5949   3.583   2.896   0.923  0.1042  0.5209 -0.6612
   44MOL0     C 5950   3.556   3.041   0.937  0.3238 -0.8123  1.1158
   44MOL0     N 5951   3.517   3.082   1.070  1.0887 -1.1705 -0.5736
   44MOL0     C 5952   3.414   3.164   1.112 -0.3330 -0.1264  0.4434
   44MOL0     C 5953   3.399   3.135   1.249  0.1395  0.4717  0.9893
   44MOL0     C 5954   3.275   3.203   1.322 -0.0775 -0.7259 -0.4441
   44MOL0     C 5955   3.320   3.284   1.450 -0.7143 -0.2391 -0.7407
   44MOL0     C 5956   3.205   3.306   1.549  0.4231  0.3794  0.0195
   44MOL0     C 5957   3.220   3.436   1.618  0.2920  0.3400  0.0819
   44MOL0     O 5958   3.105   3.458   1.701 -0.6438  0.3769 -0.0271
   44MOL0     C 5959   3.128   3.481   1.837  0.0853 -0.4998 -0.4874
   44MOL0     C 5960   3.208   3.402   1.926  0.3638 -0.7480  0.8598
   44MOL0     C 5961   3.229   3.436   2.059 -0.5087 -0.3687 -0.4750
   44MOL0     C 5962   3.330   3.345   2.125  0.8958 -0.1900 -0.5685
   44MOL0     C 5963   3.176   3.554   2.113 -0.8041 -0.6402 -0.1147
   44MOL0     C 5964   3.188   3.597   2.260 -0.2141 -0.1985  0.1270
   44MOL0     O 5965   3.176   3.729   2.288 -0.3220  0.3512  0.5876
   44MOL0     C 5966   3.186   3.771   2.418  0.9488  0.1626  0.3667
   44MOL0     C 5967   3.089   3.855   2.480 -0.2047  0.5367 -0.2812
   44MOL0     C 5968   3.112   3.901   2.617 -0.3680 -0.9812  0.0113
   44MOL0     C 5969   3.229   3.854   2.690 -0.5062  0.4338 -0.9770
   44MOL0     O 5970   3.229   3.883   2.828 -0.1334  0.2231  0.4235
   44MOL0     C 5971   3.318   3.805   2.907  0.0548  0.2947 -1.0165
   44MOL0     C 5972   3.279   3.843   3.058  0.5092 -0.3580 -0.4971
   44MOL0     C 5973   3.368   3.779   3.162 -0.9244 -0.2965 -0.5724
   44MOL0     C 5974   3.298   3.785   3.302 -0.5458 -0.2280  0.1040
   44MOL0     C 5975   3.247   3.922   3.349  1.6257  0.2544  0.7596
   44MOL0     C 5976   3.188   3.916   3.493  0.3645 -0.6926 -0.4347
   44MOL0     C 5977   3.058   3.828   3.510  0.1711 -0.2712 -0.0307
   44MOL0     C 5978   2.936   3.909   3.570  0.1950  1.1151 -0.1646
   44MOL0    Cl 5979   2.916   4.043   3.463 -0.1958 -0.3131 -0.0195
   44MOL0     C 5980   3.321   3.777   2.616  0.1250  0.0942 -0.2849
   44MOL0     C 5981   3.308   3.742   2.485  0.5969 -0.3833  0.9121
   44MOL0     O 5982   3.197   3.504   2.344 -0.3205  0.0099 -0.0325
   44MOL0     C 5983   3.105   3.634   2.028 -0.5479  0.0889 -0.7719
   44MOL0     C 5984   3.084   3.599   1.894  0.1485  0.2935  0.6844
   44MOL0     N 5985   3.498   3.040   1.271 -0.5871  0.0338  0.1617
   44MOL0     N 5986   3.567   3.017   1.169  0.5279 -0.4623 -0.0753
   44MOL0     C 5987   4.147   2.228   0.751  0.4805 -1.3693 -1.1487
   44MOL0     C 5988   4.158   2.090   0.721 -0.0331 -0.5135  0.4128
   44MOL0     C 5989   4.340   1.719   0.672 -0.7308  0.1754  0.2937
   44MOL0     C 5990   4.212   1.649   0.706 -0.4225 -0.8882 -0.0196
   44MOL0     C 5991   4.219   1.517   0.724  1.1292  0.3021  0.0190
   44MOL0     C 5992   4.337   1.448   0.714  0.0847  0.3958  0.2639
   44MOL0     O 5993   4.319   1.306   0.722 -0.3087 -0.3792  0.8433
   44MOL0     C 5994   4.396   1.225   0.629  0.9925  0.7256 -0.7135
   44MOL0     C 5995   4.291   1.112   0.601  0.3657  0.4409  0.7974
   44MOL0     C 5996   4.340   0.999   0.501  0.4892  0.3847  0.1956
   44MOL0     C 5997   4.249   0.881   0.500 -0.1070 -0.9048  0.3112
   44MOL0     C 5998   4.118   0.912   0.435 -0.3505  0.6548 -0.2756
   44MOL0     C 5999   4.026   0.910   0.355  0.9530 -0.2055 -0.9356
   44MOL0     C 6000   4.452   1.512   0.669 -0.1895 -0.2845  0.1052
   44MOL0     C 6001   4.456   1.650   0.636 -0.1827  0.2000 -0.7298
   44MOL0     C 6002   4.590   1.708   0.603  0.4668  0.0907  0.1330
   44MOL0     H 6003   4.268   2.097   0.405 -1.8831  0.5889 -1.1450
   44MOL0     H 6004   4.208   2.333   0.427 -2.9615  3.3809  1.3459
   44MOL0     H 6005   4.041   2.501   0.503  1.2159  0.5033 -1.5835
   44MOL0     H 6006   4.205   2.552   0.499  0.0256  1.1189  0.0033
   44MOL0     H 6007   4.166   2.710   0.673  2.0042 -1.1958 -2.0228
   44MOL0     H 6008   4.094   2.731   0.516  0.2314 -3.6736 -0.8785
   44MOL0     H 6009   3.864   2.655   0.632  0.4736 -1.5434  1.1096
   44MOL0     H 6010   3.951   2.643   0.782 -2.4736 -1.0733 -0.5712
   44MOL0     H 6011   4.015   2.882   0.733  0.1555  1.7186 -2.6756
   44MOL0     H 6012   3.887   2.890   0.612 -4.7774 -4.0662 -1.3256
   44MOL0     H 6013   3.846   2.972   0.853  0.2993  1.3424 -3.0218
   44MOL0     H 6014   3.831   2.810   0.910 -0.8305  0.8218  0.7294
   44MOL0     H 6015   3.644   2.941   0.707  2.1889  0.3615  0.3218
   44MOL0     H 6016   3.643   2.770   0.750  0.3158 -1.1415  0.9315
   44MOL0     H 6017   3.651   2.857   0.999  3.1362  1.1089 -2.8948
   44MOL0     H 6018   3.492   2.836   0.931  0.0137  0.9350  3.4273
   44MOL0     H 6019   3.646   3.100   0.917  1.4138 -2.3409  1.3270
   44MOL0     H 6020   3.490   3.082   0.860  2.1454  0.4997  0.1759
   44MOL0     H 6021   3.368   3.236   1.045  0.3885 -1.2343 -1.3001
   44MOL0     H 6022   3.207   3.124   1.354 -3.7559  2.4167  0.2997
   44MOL0     H 6023   3.218   3.264   1.251 -0.4534 -0.1719  0.3193
   44MOL0     H 6024   3.389   3.224   1.509 -1.3467 -0.3596 -0.1087
   44MOL0     H 6025   3.375   3.374   1.421  0.8104  0.7533  4.2722
   44MOL0     H 6026   3.108   3.297   1.499 -0.0298  0.6835  0.8171
   44MOL0     H 6027   3.223   3.233   1.628  1.6160  1.1889  0.5221
   44MOL0     H 6028   3.312   3.431   1.676  0.1123 -1.2512  0.2763
   44MOL0     H 6029   3.217   3.518   1.545  0.2148  0.3164  0.0579
   44MOL0     H 6030   3.253   3.312   1.885 -0.9480 -1.9659  1.9672
   44MOL0     H 6031   3.420   3.393   2.164 -0.2038 -0.7075  2.9653
   44MOL0     H 6032   3.355   3.252   2.074 -0.8728 -2.2351  2.0199
   44MOL0     H 6033   3.274   3.311   2.213  0.8440  2.1994  0.4174
   44MOL0     H 6034   2.992   3.894   2.451 -0.1254  2.1853  1.4124
   44MOL0     H 6035   3.055   3.974   2.674  2.9248  2.0260 -0.1754
   44MOL0     H 6036   3.309   3.697   2.900 -0.9572  0.3391 -0.4769
   44MOL0     H 6037   3.423   3.829   2.886 -0.3933  2.4255 -1.0294
   44MOL0     H 6038   3.298   3.950   3.055 -1.5524  0.1356  1.6776
   44MOL0     H 6039   3.175   3.811   3.070  1.1085 -2.7150 -0.9115
   44MOL0     H 6040   3.464   3.832   3.161  0.3189 -2.3947 -1.7574
   44MOL0     H 6041   3.390   3.676   3.131 -0.1333 -0.8728  1.7449
   44MOL0     H 6042   3.358   3.746   3.385 -3.0999 -2.1840  1.1719
   44MOL0     H 6043   3.211   3.718   3.296 -1.1303  0.2984  2.0295
   44MOL0     H 6044   3.315   4.006   3.336 -1.1828  2.5636 -0.2485
   44MOL0     H 6045   3.166   3.955   3.283  2.2125  2.1475  0.9403
   44MOL0     H 6046   3.162   4.017   3.527 -0.7694 -0.7188 -1.1666
   44MOL0     H 6047   3.273   3.892   3.558 -2.3604  0.5467  4.0373
   44MOL0     H 6048   3.077   3.739   3.570  1.3159  0.2917  0.4554
   44MOL0     H 6049   3.021   3.795   3.412  4.0974 -0.8128 -1.4963
   44MOL0     H 6050   2.954   3.939   3.674  1.8392 -2.3799  0.7143
   44MOL0     H 6051   2.844   3.850   3.575  1.7506 -1.3904  0.9079
   44MOL0     H 6052   3.410   3.746   2.669 -0.1542  1.8884  1.3240
   44MOL0     H 6053   3.372   3.666   2.440 -0.6385  0.7934 -3.2644
   44MOL0     H 6054   3.068   3.724   2.078 -1.5700 -0.9766  0.4557
   44MOL0     H 6055   3.030   3.671   1.834  0.1820  0.1561  0.4908
   44MOL0     H 6056   4.105   2.260   0.846  1.1193 -2.3457 -0.5134
   44MOL0     H 6057   4.123   2.023   0.799 -3.2339 -1.4378 -1.6266
   44MOL0     H 6058   4.128   1.713   0.728  0.5989  0.6549 -0.4310
   44MOL0     H 6059   4.120   1.476   0.746  1.1265 -0.2153 -0.9371
   44MOL0     H 6060   4.428   1.274   0.537  0.1425  2.1195 -0.2960
   44MOL0     H 6061   4.489   1.192   0.676 -1.0136 -1.1983  2.3130
   44MOL0     H 6062   4.200   1.154   0.556 -2.8089 -2.7611  3.5822
   44MOL0     H 6063   4.258   1.067   0.695 -1.3928  3.0823  1.5657
   44MOL0     H 6064   4.342   1.034   0.398 -2.0236 -0.8552 -0.3296
   44MOL0     H 6065   4.440   0.961   0.528  1.5095  2.6780 -0.1467
   44MOL0     H 6066   4.229   0.836   0.598 -1.4832 -1.4643 -0.1879
   44MOL0     H 6067   4.296   0.803   0.439 -1.6599 -1.2660 -0.4734
   44MOL0     H 6068   3.949   0.886   0.285  1.0539 -2.0562 -0.4614
   44MOL0     H 6069   4.534   1.441   0.660 -0.8839 -1.1999  0.8333
   44MOL0     H 6070   4.641   1.760   0.684 -2.0356  4.9225 -1.0638
   44MOL0     H 6071   4.651   1.633   0.552  2.5335  2.4290 -1.0531
   44MOL0     H 6072   4.566   1.783   0.528  0.3835 -0.0772 -0.0095
   45MOL0     O 6073   6.413   5.079   7.278 -0.0701  0.4248 -0.4514
   45MOL0     C 6074   6.465   4.990   7.210 -0.0808  0.5874 -0.7294
   45MOL0     O 6075   6.452   4.850   7.233 -0.3688  0.2934  0.2945
   45MOL0     C 6076   6.446   4.800   7.353 -0.1169 -0.3096  0.4555
   45MOL0     C 6077   6.494   4.856   7.471 -0.5538 -0.1512  0.5353
   45MOL0     C 6078   6.472   4.788   7.588  0.5674  0.4680 -0.9789
   45MOL0     C 6079   6.384   4.676   7.603  1.1570 -0.6562  0.0630
   45MOL0     O 6080   6.352   4.624   7.719  0.3498 -0.3260  0.7793
   45MOL0     C 6081   6.283   4.726   7.806 -0.0691  0.3940 -0.6463
   45MOL0     C 6082   6.238   4.649   7.932  0.1188  0.2450 -0.5434
   45MOL0     C 6083   6.117   4.556   7.908 -0.3726 -0.5488 -0.4835
   45MOL0     C 6084   6.055   4.495   8.032 -0.3808  0.5816 -0.9809
   45MOL0     C 6085   6.155   4.425   8.125 -0.7036  0.0203  0.1092
   45MOL0     C 6086   6.103   4.327   8.228  0.1987 -0.3310 -0.3316
   45MOL0     C 6087   6.204   4.288   8.341 -0.6855  0.1707  0.2581
   45MOL0     C 6088   6.166   4.155   8.421  0.3903 -0.8280  0.0612
   45MOL0     N 6089   6.280   4.113   8.509  0.7053 -0.2241  0.3807
   45MOL0     C 6090   6.267   4.128   8.647 -1.1908  0.8723 -0.3241
   45MOL0     C 6091   6.399   4.131   8.689 -0.2773  0.4268 -0.5339
   45MOL0     C 6092   6.461   4.179   8.825  0.2097  0.4584 -0.5528
   45MOL0     C 6093   6.367   4.146   8.947 -0.3121  0.4662 -0.3271
   45MOL0     C 6094   6.435   4.177   9.076  0.4012 -1.1040  0.5855
   45MOL0     C 6095   6.329   4.176   9.196  0.2687 -0.4734 -0.1598
   45MOL0     O 6096   6.387   4.212   9.322 -0.9201  0.8587 -0.1233
   45MOL0     C 6097   6.343   4.156   9.439 -0.1353 -0.0682 -0.4308
   45MOL0     C 6098   6.210   4.126   9.467 -0.5665  0.0501  0.4439
   45MOL0     C 6099   6.171   4.101   9.602  0.3431 -0.2620  0.5635
   45MOL0     C 6100   6.019   4.079   9.602  0.4032  0.2240  0.0589
   45MOL0     C 6101   6.258   4.099   9.707  0.7550  0.6990  0.2120
   45MOL0     C 6102   6.218   4.069   9.850 -0.2325  0.1373 -1.1322
   45MOL0     O 6103   6.292   4.109   9.955 -0.6580 -0.2589 -0.0316
   45MOL0     C 6104   6.243   4.135  10.085 -0.0465  0.7625 -0.3532
   45MOL0     C 6105   6.347   4.121  10.181  0.8087  0.5889  0.7404
   45MOL0     C 6106   6.319   4.108  10.308  0.3115 -0.2366  0.3519
   45MOL0     C 6107   6.182   4.115  10.351  0.9291  0.0592 -0.4863
   45MOL0     O 6108   6.160   4.096  10.487 -0.1577 -0.6729 -0.3203
   45MOL0     C 6109   6.077   4.192  10.556 -0.4556  0.3317  0.2256
   45MOL0     C 6110   6.144   4.331  10.577  0.1918  0.4792 -0.0284
   45MOL0     C 6111   6.296   4.313  10.630 -0.8639 -0.2949  0.8235
   45MOL0     C 6112   6.294   4.237  10.764  0.4366  0.5699 -0.3986
   45MOL0     C 6113   6.429   4.248  10.847  0.0613 -0.2773 -0.5744
   45MOL0     C 6114   6.403   4.308  10.994  0.0807  0.0986 -0.2797
   45MOL0     C 6115   6.523   4.296  11.079 -0.6055  0.6865  0.6523
   45MOL0     C 6116   6.526   4.397  11.193  0.3476  0.8043  0.3204
   45MOL0    Cl 6117   6.414   4.336  11.325  0.3732 -0.4602 -0.0462
   45MOL0     C 6118   6.071   4.141  10.256 -1.1709 -0.0748 -0.8151
   45MOL0     C 6119   6.106   4.133  10.131  0.3290  0.9772  1.1577
   45MOL0     O 6120   6.112   4.006   9.870  0.2285  0.1784  0.4244
   45MOL0     C 6121   6.396   4.118   9.676  1.4851 -0.3986  0.6446
   45MOL0     C 6122   6.435   4.156   9.543  0.2728 -1.1278 -0.0797
   45MOL0     N 6123   6.484   4.098   8.580 -0.2911 -0.3361 -0.1880
   45MOL0     N 6124   6.410   4.102   8.474 -0.2382  0.0611  0.2180
   45MOL0     C 6125   6.313   4.635   7.487 -0.6744 -0.4359  0.6688
   45MOL0     C 6126   6.348   4.692   7.356  0.2747  0.3122  0.0005
   45MOL0     C 6127   6.532   5.025   7.088 -0.1257  0.7683  0.5966
   45MOL0     C 6128   6.533   4.925   6.984  1.0482 -0.5148  0.5980
   45MOL0     C 6129   6.597   4.951   6.867 -0.8061  1.2121  0.0111
   45MOL0     C 6130   6.656   5.074   6.838 -0.3541  0.0637  0.1845
   45MOL0     O 6131   6.708   5.097   6.714 -1.0515 -0.2766 -0.3399
   45MOL0     C 6132   6.724   4.994   6.613  0.1891  1.1364  0.4240
   45MOL0     C 6133   6.598   4.998   6.536 -0.1473 -0.0584 -0.5965
   45MOL0     C 6134   6.583   4.884   6.436  0.0965 -0.4639 -0.1578
   45MOL0     C 6135   6.500   4.927   6.317  0.3541  0.1304  0.1161
   45MOL0     C 6136   6.559   5.029   6.228  0.4277  0.7781 -1.0210
   45MOL0     C 6137   6.583   5.101   6.140  0.6269 -0.5711  0.4471
   45MOL0     C 6138   6.662   5.174   6.931  0.3903 -0.3419 -0.0441
   45MOL0     C 6139   6.602   5.151   7.059  0.8836  0.4020 -0.2796
   45MOL0     C 6140   6.614   5.260   7.162  0.8690 -0.1218 -0.6512
   45MOL0     H 6141   6.557   4.944   7.470 -2.6731  1.4298  0.1040
   45MOL0     H 6142   6.529   4.796   7.680  2.0096  0.6524 -1.8586
   45MOL0     H 6143   6.196   4.765   7.753 -0.2173 -2.2318 -2.5397
   45MOL0     H 6144   6.355   4.801   7.839  0.7342 -0.3349 -0.6804
   45MOL0     H 6145   6.316   4.583   7.973 -1.6901 -3.0863 -2.0269
   45MOL0     H 6146   6.209   4.716   8.014  0.6305  0.7330 -0.7608
   45MOL0     H 6147   6.040   4.610   7.851 -0.6759 -1.7662 -1.2650
   45MOL0     H 6148   6.155   4.473   7.848  0.5808 -2.1142  2.1303
   45MOL0     H 6149   6.010   4.576   8.089 -0.0965 -3.0323  5.2663
   45MOL0     H 6150   5.985   4.416   8.001  0.6217  0.0385 -1.9349
   45MOL0     H 6151   6.222   4.503   8.161  1.6005 -2.1499  0.8139
   45MOL0     H 6152   6.218   4.367   8.057  0.4449  0.8343  0.4530
   45MOL0     H 6153   6.025   4.379   8.286 -2.0400 -2.6888 -1.0399
   45MOL0     H 6154   6.060   4.238   8.180 -1.4781  0.0608  0.3563
   45MOL0     H 6155   6.229   4.374   8.404  1.7001 -0.6561  0.5167
   45MOL0     H 6156   6.298   4.261   8.292 -1.5859 -0.5743 -1.1110
   45MOL0     H 6157   6.075   4.168   8.480  0.5524 -1.9119  0.5689
   45MOL0     H 6158   6.144   4.081   8.344 -0.1230 -1.5290  0.8692
   45MOL0     H 6159   6.184   4.160   8.709  2.9566  2.4845  5.1831
   45MOL0     H 6160   6.498   4.281   8.809  2.6996 -0.2462  0.3229
   45MOL0     H 6161   6.555   4.127   8.842 -0.3122 -0.7484 -1.2638
   45MOL0     H 6162   6.283   4.214   8.929 -0.2386  0.4499 -0.7513
   45MOL0     H 6163   6.331   4.043   8.947  2.2840 -0.5410 -1.3386
   45MOL0     H 6164   6.517   4.106   9.091 -0.2898 -2.0518 -0.0042
   45MOL0     H 6165   6.469   4.280   9.069  1.7938 -1.6137 -0.5587
   45MOL0     H 6166   6.254   4.250   9.168  1.6188  0.5812 -1.1315
   45MOL0     H 6167   6.303   4.070   9.199  2.7676 -1.1818 -0.8086
   45MOL0     H 6168   6.137   4.140   9.388  1.1137 -3.7237 -2.0549
   45MOL0     H 6169   5.972   4.127   9.516 -1.2061 -0.5298  0.4889
   45MOL0     H 6170   5.980   4.125   9.694  0.9948  3.0697 -1.0149
   45MOL0     H 6171   6.003   3.971   9.588  3.8691 -0.0669 -3.1258
   45MOL0     H 6172   6.451   4.119  10.150 -0.1310 -0.5336 -2.7335
   45MOL0     H 6173   6.405   4.107  10.375  1.2756 -0.6000 -0.8538
   45MOL0     H 6174   5.974   4.203  10.522  0.3984  0.8986 -2.4467
   45MOL0     H 6175   6.062   4.150  10.656 -2.8400  0.8641  0.1479
   45MOL0     H 6176   6.151   4.385  10.482 -1.3071  1.6344  0.4832
   45MOL0     H 6177   6.094   4.399  10.645 -1.0467  0.6099 -1.0394
   45MOL0     H 6178   6.350   4.408  10.630  1.2176 -1.3960  2.1688
   45MOL0     H 6179   6.349   4.252  10.556 -2.1461  2.7431 -2.8925
   45MOL0     H 6180   6.276   4.133  10.737 -3.1473  1.0363 -0.3221
   45MOL0     H 6181   6.211   4.267  10.828 -1.4178 -2.4582 -1.2239
   45MOL0     H 6182   6.466   4.145  10.855 -3.0112 -1.4557  0.3474
   45MOL0     H 6183   6.499   4.317  10.799  0.3697 -0.2408 -0.0819
   45MOL0     H 6184   6.324   4.242  11.030  1.3015 -1.9893 -1.2852
   45MOL0     H 6185   6.365   4.411  10.997  1.3773  0.5698  1.7252
   45MOL0     H 6186   6.613   4.320  11.022  0.5367 -1.0552  1.6219
   45MOL0     H 6187   6.537   4.192  11.113 -1.7085  1.3627  3.4745
   45MOL0     H 6188   6.503   4.495  11.149  0.1825  0.8303  0.4592
   45MOL0     H 6189   6.625   4.390  11.238 -1.0992 -2.0718  3.5513
   45MOL0     H 6190   5.967   4.139  10.287 -0.6142 -2.6835  1.2883
   45MOL0     H 6191   6.024   4.138  10.060  2.1723  0.3046 -1.1611
   45MOL0     H 6192   6.461   4.130   9.762  0.2968  4.1416  1.1191
   45MOL0     H 6193   6.535   4.196   9.532 -1.0545  1.9491 -2.3594
   45MOL0     H 6194   6.237   4.558   7.493 -1.7091  0.6516  2.6067
   45MOL0     H 6195   6.292   4.666   7.266 -0.1953  1.3088 -0.0041
   45MOL0     H 6196   6.478   4.833   7.001 -0.3363  0.7114  3.5697
   45MOL0     H 6197   6.583   4.863   6.805 -1.1418  0.8461  0.5948
   45MOL0     H 6198   6.816   5.013   6.557  1.0577  1.6301  1.9464
   45MOL0     H 6199   6.749   4.899   6.662 -0.8250  0.6750  0.0702
   45MOL0     H 6200   6.589   5.097   6.490  1.2601  0.1559 -0.4416
   45MOL0     H 6201   6.519   4.991   6.612  1.5733  1.2828  1.4463
   45MOL0     H 6202   6.681   4.853   6.397 -0.1095 -0.0394 -1.0341
   45MOL0     H 6203   6.530   4.796   6.472  2.5587 -2.1202 -0.3324
   45MOL0     H 6204   6.400   4.955   6.351 -1.5415 -2.8668 -2.3837
   45MOL0     H 6205   6.483   4.840   6.252 -0.5215  0.6332 -0.3443
   45MOL0     H 6206   6.599   5.172   6.061  0.8838 -1.9362 -0.7753
   45MOL0     H 6207   6.710   5.268   6.908 -0.9843  0.7921  1.5095
   45MOL0     H 6208   6.618   5.223   7.264  0.1848  1.6434  0.0518
   45MOL0     H 6209   6.698   5.329   7.150  1.3417 -0.5721  0.0033
   45MOL0     H 6210   6.518   5.311   7.166  2.0091  2.0769  0.3932
   46MOL0     O 6211   9.802   2.299   1.136  0.5454  0.5054  0.1797
   46MOL0     C 6212   9.704   2.368   1.151  0.4416 -0.5921  0.2012
   46MOL0     O 6213   9.575   2.335   1.116 -0.8971 -0.3708 -0.7264
   46MOL0     C 6214   9.563   2.204   1.082 -0.5231 -0.0181 -0.0263
   46MOL0     C 6215   9.608   2.158   0.961  0.0991  0.0023  0.6107
   46MOL0     C 6216   9.597   2.029   0.926  0.0870  0.6024  0.4406
   46MOL0     C 6217   9.531   1.934   1.009 -0.1376 -0.4486  1.1278
   46MOL0     O 6218   9.520   1.799   0.982  1.0444 -0.2126 -0.2356
   46MOL0     C 6219   9.482   1.757   0.847  0.1061  0.9282 -0.1605
   46MOL0     C 6220   9.437   1.602   0.861  0.3346 -0.4480 -0.2433
   46MOL0     C 6221   9.360   1.562   0.732  0.0654  0.0593 -1.1226
   46MOL0     C 6222   9.207   1.580   0.745  0.3385 -0.0983  0.8379
   46MOL0     C 6223   9.142   1.506   0.627  0.4787 -0.6548  0.2064
   46MOL0     C 6224   9.083   1.598   0.524 -0.8015 -0.8262 -0.8154
   46MOL0     C 6225   9.065   1.514   0.402  0.9651 -0.8742  0.4453
   46MOL0     C 6226   8.984   1.588   0.303 -0.1277 -0.4767 -0.1658
   46MOL0     N 6227   9.055   1.710   0.248  0.4129  0.6094 -0.1339
   46MOL0     C 6228   9.138   1.711   0.135  0.4789 -0.4668 -0.1817
   46MOL0     C 6229   9.179   1.835   0.130 -0.2195 -0.6385  0.6081
   46MOL0     C 6230   9.275   1.896   0.021  0.5312 -0.4261  0.2266
   46MOL0     C 6231   9.350   2.014   0.075  0.5203  0.6207 -0.0799
   46MOL0     C 6232   9.493   2.025   0.028 -0.7675  0.3262 -0.0309
   46MOL0     C 6233   9.556   2.142   0.101 -0.4095 -0.0705  0.4560
   46MOL0     O 6234   9.672   2.164   0.010 -0.4232 -0.4226 -0.0169
   46MOL0     C 6235   9.788   2.084   0.020  0.6587  0.9824 -0.1398
   46MOL0     C 6236   9.805   1.990   0.121  1.1552  0.7284 -0.0280
   46MOL0     C 6237   9.918   1.915   0.134  0.0616 -0.6205  0.7929
   46MOL0     C 6238   9.920   1.818   0.246  1.0000  0.6342 -0.5808
   46MOL0     C 6239  10.029   1.958   0.049  1.2024 -0.3851  0.3501
   46MOL0     C 6240  10.163   1.900   0.042 -0.0933 -0.5801  0.5264
   46MOL0     O 6241  10.256   1.970  -0.032  0.3110 -0.9903 -0.3749
   46MOL0     C 6242  10.393   1.952  -0.012 -0.0282  0.2251  0.4540
   46MOL0     C 6243  10.449   1.905   0.109 -0.0219 -0.1308  0.0378
   46MOL0     C 6244  10.591   1.887   0.118 -0.4785 -0.5351 -0.2447
   46MOL0     C 6245  10.675   1.903   0.009  0.4116  1.0388  0.2996
   46MOL0     O 6246  10.811   1.882   0.008  0.9375  0.6957 -0.2250
   46MOL0     C 6247  10.860   1.796   0.111 -0.7547  0.2649  0.0183
   46MOL0     C 6248  11.012   1.765   0.093  1.0128  0.4663 -0.3156
   46MOL0     C 6249  11.057   1.663   0.193 -0.0009 -1.5517  0.3158
   46MOL0     C 6250  11.103   1.731   0.323  0.4422 -0.6840  0.9224
   46MOL0     C 6251  11.169   1.626   0.413 -0.9278  0.6606 -0.1496
   46MOL0     C 6252  11.256   1.686   0.522  0.4079 -0.3027  0.2937
   46MOL0     C 6253  11.310   1.564   0.609 -0.3363  0.4417 -0.2612
   46MOL0     C 6254  11.300   1.603   0.763 -0.0795  0.2062 -0.8007
   46MOL0    Cl 6255  11.445   1.680   0.821 -0.1151 -0.4376 -0.1207
   46MOL0     C 6256  10.618   1.947  -0.117 -0.0338  0.5114 -0.5997
   46MOL0     C 6257  10.479   1.970  -0.127  1.6604 -0.1396  0.0056
   46MOL0     O 6258  10.185   1.790   0.093 -0.0141  0.7458 -0.8028
   46MOL0     C 6259  10.006   2.059  -0.051  0.0334 -0.7665 -0.5006
   46MOL0     C 6260   9.886   2.118  -0.061 -0.5299 -0.4069  0.2528
   46MOL0     N 6261   9.111   1.914   0.233 -0.3003  0.5016  0.1947
   46MOL0     N 6262   9.038   1.834   0.308  0.2934 -0.2846 -0.0082
   46MOL0     C 6263   9.479   1.981   1.130  0.0682  0.5795 -0.0934
   46MOL0     C 6264   9.494   2.116   1.163 -1.2845  1.1249  0.2243
   46MOL0     C 6265   9.719   2.504   1.191 -0.4630 -0.6043  1.6364
   46MOL0     C 6266   9.598   2.584   1.191 -0.1311  0.4067  0.9021
   46MOL0     C 6267   9.601   2.714   1.243  0.4644 -0.3484 -0.2389
   46MOL0     C 6268   9.718   2.782   1.271  0.0765  0.0508  0.2068
   46MOL0     O 6269   9.715   2.911   1.322  0.8715  0.4604 -0.2340
   46MOL0     C 6270   9.805   2.939   1.431  0.5543  0.6235 -0.1681
   46MOL0     C 6271   9.779   2.860   1.564  0.2517 -0.2042  0.1996
   46MOL0     C 6272   9.899   2.878   1.655 -0.8258 -0.0065  0.2344
   46MOL0     C 6273  10.012   2.788   1.610 -0.2223  0.7435 -0.6680
   46MOL0     C 6274  10.139   2.803   1.677 -0.9988  0.0305  0.6548
   46MOL0     C 6275  10.240   2.840   1.729 -0.3009  0.3783 -0.5931
   46MOL0     C 6276   9.837   2.709   1.252  0.0788  0.3739 -0.5730
   46MOL0     C 6277   9.841   2.577   1.209  0.5509  0.2099 -0.3353
   46MOL0     C 6278   9.982   2.514   1.190 -0.1076 -0.3351 -0.1869
   46MOL0     H 6279   9.661   2.228   0.896 -0.1736 -0.9479 -0.6872
   46MOL0     H 6280   9.630   1.981   0.834 -1.9607  1.4950 -0.8259
   46MOL0     H 6281   9.567   1.768   0.779 -0.7634  2.1630 -1.1057
   46MOL0     H 6282   9.406   1.827   0.810  1.1584  2.0390 -0.2683
   46MOL0     H 6283   9.526   1.539   0.868  1.0996  0.3397 -2.0720
   46MOL0     H 6284   9.378   1.590   0.952  1.8017  0.9129  0.9575
   46MOL0     H 6285   9.391   1.619   0.644 -2.3062 -0.6466 -2.5018
   46MOL0     H 6286   9.376   1.459   0.699 -1.7991 -0.3649 -0.7836
   46MOL0     H 6287   9.171   1.520   0.830 -3.9606  0.7150 -0.1711
   46MOL0     H 6288   9.177   1.685   0.743  1.0083  0.0983  0.8604
   46MOL0     H 6289   9.054   1.451   0.660  0.2261  0.7027  1.9710
   46MOL0     H 6290   9.209   1.439   0.572 -0.4015 -0.6693 -0.8758
   46MOL0     H 6291   8.988   1.637   0.563  0.8921 -0.0012  2.9130
   46MOL0     H 6292   9.145   1.687   0.508 -1.8048 -0.3070 -2.0213
   46MOL0     H 6293   9.004   1.427   0.430  1.3473 -0.4254  3.0005
   46MOL0     H 6294   9.164   1.487   0.364  1.5062  2.3010 -0.7059
   46MOL0     H 6295   8.956   1.525   0.219 -1.6897 -0.6804  0.4764
   46MOL0     H 6296   8.894   1.622   0.354 -0.7426 -1.2940 -0.6770
   46MOL0     H 6297   9.170   1.636   0.063  2.9173  2.1110 -2.0202
   46MOL0     H 6298   9.218   1.931  -0.066  5.0658  2.3343 -2.0209
   46MOL0     H 6299   9.344   1.820  -0.017  0.3355 -0.3400 -0.3140
   46MOL0     H 6300   9.298   2.101   0.034 -3.1451 -1.4007 -0.1885
   46MOL0     H 6301   9.353   2.022   0.184 -2.6305  4.3194 -0.0335
   46MOL0     H 6302   9.541   1.930   0.052  0.5813  0.9078 -0.3636
   46MOL0     H 6303   9.514   2.034  -0.078  0.2076  1.1955  0.2237
   46MOL0     H 6304   9.494   2.232   0.105 -0.8026 -0.3417  0.5537
   46MOL0     H 6305   9.574   2.115   0.205  0.8416 -1.6399 -0.1200
   46MOL0     H 6306   9.735   1.956   0.196  0.4859 -1.4314 -1.5576
   46MOL0     H 6307  10.024   1.798   0.273  0.6373 -1.8475 -0.7582
   46MOL0     H 6308   9.870   1.723   0.226 -1.1949  0.8802  2.9284
   46MOL0     H 6309   9.873   1.857   0.337 -0.6775 -0.4532 -0.9355
   46MOL0     H 6310  10.378   1.878   0.187 -0.1402 -4.6118 -1.3639
   46MOL0     H 6311  10.631   1.850   0.212 -3.2845 -1.1129  0.8357
   46MOL0     H 6312  10.845   1.823   0.217  2.6671  0.3540  0.5769
   46MOL0     H 6313  10.801   1.704   0.102 -0.8783  0.3853 -0.3936
   46MOL0     H 6314  11.020   1.730  -0.010 -2.3004  3.7715 -1.9158
   46MOL0     H 6315  11.062   1.862   0.085 -0.1691  1.0922 -0.3216
   46MOL0     H 6316  11.130   1.598   0.144 -0.6979 -2.8834  0.9852
   46MOL0     H 6317  10.966   1.615   0.230 -2.7665  3.5941  1.1558
   46MOL0     H 6318  11.024   1.787   0.372  0.1110 -0.1945 -0.1507
   46MOL0     H 6319  11.186   1.796   0.295  0.1017 -1.4288 -2.1649
   46MOL0     H 6320  11.092   1.567   0.464  0.2037 -0.7614 -0.0402
   46MOL0     H 6321  11.226   1.554   0.354  0.3662  1.4769  0.0560
   46MOL0     H 6322  11.180   1.742   0.578 -2.1470 -0.9407 -2.2801
   46MOL0     H 6323  11.341   1.746   0.490  0.0368  1.2123  1.9661
   46MOL0     H 6324  11.416   1.542   0.590 -0.7792 -0.8938 -1.3923
   46MOL0     H 6325  11.251   1.473   0.595  1.9607 -1.3796  1.1252
   46MOL0     H 6326  11.282   1.520   0.832 -2.6829 -1.6837 -3.4463
   46MOL0     H 6327  11.215   1.672   0.771  0.7351  1.1854 -0.4461
   46MOL0     H 6328  10.677   1.966  -0.206 -0.3825 -2.4544 -1.5474
   46MOL0     H 6329  10.430   2.000  -0.220  2.2008 -0.8812 -0.5275
   46MOL0     H 6330  10.075   2.100  -0.125 -0.3270  1.2758  0.2337
   46MOL0     H 6331   9.876   2.191  -0.141  0.0017 -0.3830  0.1999
   46MOL0     H 6332   9.423   1.917   1.196 -0.6115  1.0579 -0.1894
   46MOL0     H 6333   9.449   2.160   1.251  1.1586  3.2003  0.5418
   46MOL0     H 6334   9.504   2.536   1.166  1.1592 -2.2966  0.8923
   46MOL0     H 6335   9.516   2.779   1.259  0.8551  0.3036 -0.7547
   46MOL0     H 6336   9.907   2.922   1.395  0.4281 -0.0626 -0.2079
   46MOL0     H 6337   9.815   3.047   1.451  0.3055  0.2699  2.1035
   46MOL0     H 6338   9.760   2.753   1.548 -0.6700  0.1946 -1.6835
   46MOL0     H 6339   9.689   2.896   1.615 -2.2338 -0.6668 -3.4517
   46MOL0     H 6340   9.932   2.982   1.651 -2.5954  0.5654 -1.3463
   46MOL0     H 6341   9.869   2.858   1.758 -0.7187  1.5957  0.6043
   46MOL0     H 6342  10.029   2.804   1.503 -0.1517  1.4972 -0.5508
   46MOL0     H 6343   9.984   2.684   1.626  1.6957  0.2967 -0.0478
   46MOL0     H 6344  10.337   2.869   1.764 -0.8176  2.0207 -0.4303
   46MOL0     H 6345   9.930   2.766   1.251 -0.1601  0.8825  1.7734
   46MOL0     H 6346   9.988   2.447   1.277  0.1218 -0.2215 -0.1148
   46MOL0     H 6347   9.981   2.461   1.095  0.9400 -3.1693  1.2471
   46MOL0     H 6348  10.061   2.589   1.198  2.8606 -3.0986 -1.0577
   47MOL0     O 6349   5.495   8.789   0.282 -0.4936  0.2196 -0.2389
   47MOL0     C 6350   5.530   8.878   0.367  0.1450 -0.2016 -0.2925
   47MOL0     O 6351   5.465   8.888   0.493 -0.1738 -0.6590 -0.5478
   47MOL0     C 6352   5.361   8.804   0.522  0.3440 -0.1547 -0.7049
   47MOL0     C 6353   5.359   8.747   0.648  0.3023  0.6005 -0.3269
   47MOL0     C 6354   5.236   8.695   0.693 -0.2112 -0.1289 -0.7103
   47MOL0     C 6355   5.120   8.686   0.615  0.7857 -0.0046 -0.0719
   47MOL0     O 6356   5.007   8.626   0.662 -0.3208  0.2730  0.1961
   47MOL0     C 6357   4.901   8.714   0.680  0.2910  1.0616  0.1238
   47MOL0     C 6358   4.775   8.665   0.604 -0.2547  0.7079  0.1750
   47MOL0     C 6359   4.636   8.718   0.639 -0.2927 -0.2642 -0.0413
   47MOL0     C 6360   4.626   8.869   0.632  0.6911  0.4103 -0.0707
   47MOL0     C 6361   4.482   8.920   0.686  0.0476 -0.3368 -0.7614
   47MOL0     C 6362   4.474   9.068   0.690  0.0556  0.2378  0.0876
   47MOL0     C 6363   4.335   9.122   0.745 -0.2266  0.2361 -0.2948
   47MOL0     C 6364   4.331   9.272   0.761 -0.6337 -0.1457  0.8978
   47MOL0     N 6365   4.206   9.303   0.824 -0.2560 -0.4083 -0.6692
   47MOL0     C 6366   4.091   9.357   0.765 -0.0142  0.4477 -0.0783
   47MOL0     C 6367   3.995   9.339   0.855  0.0182 -0.5849  0.1791
   47MOL0     C 6368   3.851   9.375   0.827  0.7070 -0.5521  0.8041
   47MOL0     C 6369   3.803   9.359   0.674 -0.5781 -0.7397 -0.3975
   47MOL0     C 6370   3.649   9.381   0.651 -0.6814 -0.6361  0.3580
   47MOL0     C 6371   3.556   9.302   0.741 -0.1303  0.5345  0.0701
   47MOL0     O 6372   3.541   9.157   0.713  0.0450  0.8390  0.0934
   47MOL0     C 6373   3.654   9.080   0.720 -0.8880  0.6984  1.0655
   47MOL0     C 6374   3.714   9.048   0.844  0.6365 -0.7649  0.0849
   47MOL0     C 6375   3.821   8.957   0.854 -0.4282 -0.0852  0.4790
   47MOL0     C 6376   3.887   8.943   0.993  0.5086 -0.5576 -0.0508
   47MOL0     C 6377   3.875   8.906   0.738  0.3949  0.3325  0.4918
   47MOL0     C 6378   4.008   8.823   0.742  0.6232 -0.7521  0.6051
   47MOL0     O 6379   4.036   8.722   0.831 -0.0685  0.2029 -0.1026
   47MOL0     C 6380   4.157   8.668   0.811 -0.5281 -0.1075  0.3330
   47MOL0     C 6381   4.166   8.551   0.743 -0.5950 -0.5955 -0.1992
   47MOL0     C 6382   4.288   8.488   0.742  0.0855 -0.8308  0.0046
   47MOL0     C 6383   4.399   8.535   0.817  0.0630 -0.1003  0.9735
   47MOL0     O 6384   4.528   8.470   0.822 -0.0276  0.8760 -0.6038
   47MOL0     C 6385   4.538   8.335   0.751 -0.2882 -0.7022 -0.4734
   47MOL0     C 6386   4.671   8.260   0.771 -0.2790 -0.2811 -0.6272
   47MOL0     C 6387   4.704   8.229   0.919 -0.2202  0.4710 -0.2025
   47MOL0     C 6388   4.825   8.140   0.908 -0.0644  0.0468  0.7750
   47MOL0     C 6389   4.876   8.101   1.053 -0.2003 -0.0034 -0.1546
   47MOL0     C 6390   5.027   8.045   1.034 -0.4997 -0.3256  0.1846
   47MOL0     C 6391   5.059   7.939   1.150  0.0329 -0.2016  0.0583
   47MOL0     C 6392   5.207   7.884   1.158 -0.3609 -0.5127  0.4147
   47MOL0    Cl 6393   5.300   7.992   1.257 -0.1786 -0.0518 -0.3486
   47MOL0     C 6394   4.387   8.654   0.891 -0.3591 -0.8599  0.3339
   47MOL0     C 6395   4.267   8.723   0.888  0.3279  0.3206  0.8808
   47MOL0     O 6396   4.081   8.870   0.656 -0.6965  0.4273 -0.5539
   47MOL0     C 6397   3.817   8.937   0.609  1.1419 -0.5728 -1.4478
   47MOL0     C 6398   3.706   9.022   0.604 -0.4187 -1.0453 -0.5125
   47MOL0     N 6399   4.056   9.300   0.972  0.5787  0.1351  0.2310
   47MOL0     N 6400   4.179   9.277   0.954 -0.8617  0.5164 -0.0140
   47MOL0     C 6401   5.124   8.761   0.498  0.5319  0.1246  0.1093
   47MOL0     C 6402   5.241   8.817   0.447 -0.1369 -0.7089  0.7974
   47MOL0     C 6403   5.655   8.949   0.346  0.3673 -0.1929 -1.2488
   47MOL0     C 6404   5.772   8.883   0.303 -0.1717  0.0366  1.1521
   47MOL0     C 6405   5.893   8.954   0.297  0.8441  0.5576 -0.1468
   47MOL0     C 6406   5.904   9.095   0.331 -0.7281  0.2173 -0.2170
   47MOL0     O 6407   6.021   9.158   0.331 -0.3560  1.6120 -0.7322
   47MOL0     C 6408   6.134   9.091   0.382  0.4614 -0.1146 -0.1316
   47MOL0     C 6409   6.237   9.195   0.402 -0.5785 -1.6530 -0.4021
   47MOL0     C 6410   6.286   9.257   0.276  0.0281  0.1471 -0.0433
   47MOL0     C 6411   6.406   9.343   0.299  0.1606  0.7374  0.8872
   47MOL0     C 6412   6.479   9.388   0.187  0.2151 -0.2225  1.4294
   47MOL0     C 6413   6.526   9.443   0.084 -0.2050  0.2289 -0.6452
   47MOL0     C 6414   5.782   9.148   0.375 -1.0323 -0.8247 -0.5734
   47MOL0     C 6415   5.663   9.082   0.388 -0.1627  0.3094 -0.0351
   47MOL0     C 6416   5.547   9.169   0.436  0.1058 -0.0126  0.4303
   47MOL0     H 6417   5.454   8.748   0.701  0.0335 -1.7500  0.3020
   47MOL0     H 6418   5.227   8.654   0.793  2.0969  2.5137  0.7249
   47MOL0     H 6419   4.921   8.820   0.665 -2.2702  1.8947  1.8774
   47MOL0     H 6420   4.883   8.700   0.787  3.2691 -1.3734  0.4595
   47MOL0     H 6421   4.774   8.692   0.498  0.3344  1.2199  0.2920
   47MOL0     H 6422   4.763   8.557   0.616  1.7409 -0.1496 -3.7370
   47MOL0     H 6423   4.569   8.669   0.567 -0.0851 -1.6170  0.6574
   47MOL0     H 6424   4.619   8.681   0.741  2.2248 -3.0664 -0.4930
   47MOL0     H 6425   4.712   8.909   0.687  1.7545  0.6921 -1.8311
   47MOL0     H 6426   4.634   8.891   0.525 -1.6706  2.0888  0.0134
   47MOL0     H 6427   4.472   8.887   0.789  1.6393 -3.9262 -1.6000
   47MOL0     H 6428   4.399   8.874   0.631 -0.3201 -1.9174  1.0152
   47MOL0     H 6429   4.548   9.100   0.763  1.0484  1.6685 -1.4703
   47MOL0     H 6430   4.491   9.107   0.589 -1.8320 -1.5739 -0.9973
   47MOL0     H 6431   4.303   9.054   0.825  0.8745  0.2058  0.1366
   47MOL0     H 6432   4.272   9.112   0.656  0.1853  1.4907 -0.7485
   47MOL0     H 6433   4.421   9.289   0.821  0.6549 -0.9757 -0.7221
   47MOL0     H 6434   4.346   9.319   0.663  1.3840 -1.9800  0.2470
   47MOL0     H 6435   4.077   9.388   0.662  0.2873 -1.5242 -0.7510
   47MOL0     H 6436   3.837   9.476   0.864 -1.2895 -0.5925  0.2658
   47MOL0     H 6437   3.800   9.301   0.889  0.5979 -0.3991  0.8964
   47MOL0     H 6438   3.866   9.431   0.622 -1.1834  1.2995  1.5572
   47MOL0     H 6439   3.837   9.262   0.635  1.7324  1.4488 -4.5959
   47MOL0     H 6440   3.635   9.487   0.674 -1.5581 -0.9007  1.1457
   47MOL0     H 6441   3.612   9.356   0.551  0.8736 -0.4547 -0.2853
   47MOL0     H 6442   3.580   9.308   0.848 -2.0943 -1.8919  0.7443
   47MOL0     H 6443   3.463   9.358   0.726  0.5270  1.4388 -0.7705
   47MOL0     H 6444   3.684   9.102   0.933 -1.0798  0.6910 -1.3127
   47MOL0     H 6445   3.961   8.864   1.006 -0.3663 -1.7382 -1.8742
   47MOL0     H 6446   3.811   8.935   1.072 -2.3331 -2.1603 -2.7634
   47MOL0     H 6447   3.945   9.034   1.011  1.4307 -0.7851 -1.7488
   47MOL0     H 6448   4.072   8.512   0.704 -1.4956 -0.5653  1.8151
   47MOL0     H 6449   4.285   8.403   0.675  2.1399 -1.4970  0.6691
   47MOL0     H 6450   4.460   8.269   0.790 -1.9272 -0.3415 -2.9339
   47MOL0     H 6451   4.512   8.344   0.645 -0.9834 -4.5609 -0.7625
   47MOL0     H 6452   4.668   8.168   0.712 -2.2132  1.0553 -2.7990
   47MOL0     H 6453   4.755   8.318   0.732 -0.1781 -0.5830 -0.8630
   47MOL0     H 6454   4.617   8.186   0.969 -2.3418  0.8856 -3.2676
   47MOL0     H 6455   4.730   8.323   0.968  0.9219  0.9458 -1.6661
   47MOL0     H 6456   4.914   8.179   0.858  1.1642 -2.3280  0.9840
   47MOL0     H 6457   4.799   8.055   0.845  1.1157  1.4815 -1.8093
   47MOL0     H 6458   4.879   8.189   1.117  0.1692  1.1712 -1.7349
   47MOL0     H 6459   4.814   8.023   1.100 -0.7881  0.7968  0.4242
   47MOL0     H 6460   5.091   8.133   1.044  0.9052 -1.2607 -0.2193
   47MOL0     H 6461   5.046   7.999   0.936 -2.6304 -2.3951  0.6634
   47MOL0     H 6462   4.989   7.859   1.126 -0.2465  0.2920 -0.8068
   47MOL0     H 6463   5.027   7.991   1.241 -0.7887  2.2028 -1.5053
   47MOL0     H 6464   5.241   7.857   1.058 -1.6574 -1.9403  0.3158
   47MOL0     H 6465   5.193   7.788   1.210 -1.1603 -2.2109 -2.6840
   47MOL0     H 6466   4.473   8.688   0.948 -1.1120  3.3917 -0.7236
   47MOL0     H 6467   4.264   8.823   0.929 -0.7543  0.9454 -0.6139
   47MOL0     H 6468   3.855   8.907   0.511 -0.9726  0.7539 -2.7664
   47MOL0     H 6469   3.665   9.035   0.504 -1.5874 -0.9173 -0.0253
   47MOL0     H 6470   5.035   8.771   0.437 -1.8028 -0.7535  3.1702
   47MOL0     H 6471   5.234   8.888   0.365  0.1585 -0.4596  0.9831
   47MOL0     H 6472   5.762   8.776   0.288 -0.8816 -0.0369  2.0426
   47MOL0     H 6473   5.985   8.915   0.256  0.2887 -1.6660  0.5737
   47MOL0     H 6474   6.121   9.040   0.478  1.4471  2.6061  1.5551
   47MOL0     H 6475   6.176   9.023   0.308  2.1411  0.9070 -0.1482
   47MOL0     H 6476   6.316   9.152   0.464 -0.4745  0.1941  0.8275
   47MOL0     H 6477   6.191   9.275   0.461  1.4739 -1.0490  0.4896
   47MOL0     H 6478   6.317   9.185   0.200  0.0631 -0.5249  0.5998
   47MOL0     H 6479   6.209   9.320   0.230  2.7381  2.6040 -1.5649
   47MOL0     H 6480   6.476   9.297   0.369  0.6417 -0.6224 -0.4125
   47MOL0     H 6481   6.384   9.436   0.350  0.7344  1.0978  0.4959
   47MOL0     H 6482   6.576   9.496   0.005 -2.3822  0.8086 -1.6970
   47MOL0     H 6483   5.789   9.254   0.394  0.1762 -1.0442  0.3605
   47MOL0     H 6484   5.537   9.263   0.382 -1.8497 -0.6768 -0.4564
   47MOL0     H 6485   5.453   9.116   0.418  0.9211 -1.1578 -0.6615
   47MOL0     H 6486   5.554   9.197   0.541  0.3840  0.6925  0.2279
   48MOL0     O 6487   4.022   9.464   9.964 -0.0115 -0.5563  0.0004
   48MOL0     C 6488   4.038   9.342   9.975 -0.0708  0.7676  0.6892
   48MOL0     O 6489   4.030   9.279  10.093 -0.5371  0.5122  0.1479
   48MOL0     C 6490   3.976   9.348  10.197  0.1274  1.3800 -0.1392
   48MOL0     C 6491   3.838   9.346  10.209 -0.1628  0.0358 -0.0945
   48MOL0     C 6492   3.787   9.389  10.331 -0.8601  0.7003  0.0465
   48MOL0     C 6493   3.863   9.451  10.427  0.3938  0.1028  1.1251
   48MOL0     O 6494   3.813   9.519  10.547 -0.7031  0.5381  0.1839
   48MOL0     C 6495   3.673   9.520  10.571 -1.0297 -0.8145  0.1083
   48MOL0     C 6496   3.632   9.573  10.714  0.8601 -0.4202 -0.8880
   48MOL0     C 6497   3.661   9.484  10.837 -0.6852 -0.3638 -0.7666
   48MOL0     C 6498   3.815   9.477  10.867  0.0416 -0.5361  0.2809
   48MOL0     C 6499   3.841   9.423  11.009 -0.1053  0.2067 -1.5648
   48MOL0     C 6500   3.991   9.457  11.036 -0.4759 -1.0087  0.7097
   48MOL0     C 6501   4.063   9.353  11.130 -0.7374 -0.7458 -0.4235
   48MOL0     C 6502   4.208   9.396  11.171  0.0857 -0.1886 -0.4910
   48MOL0     N 6503   4.261   9.288  11.252 -0.1095 -0.0063 -0.6021
   48MOL0     C 6504   4.212   9.272  11.378  0.4930 -0.1012  0.6737
   48MOL0     C 6505   4.258   9.150  11.412 -0.7418 -0.9041  0.0867
   48MOL0     C 6506   4.217   9.074  11.535 -0.6462  0.4526  0.0589
   48MOL0     C 6507   4.139   8.953  11.508 -0.3807  0.2809  0.5969
   48MOL0     C 6508   4.067   8.910  11.639  0.4725  0.0210  0.7136
   48MOL0     C 6509   3.985   8.775  11.615 -1.1567  0.0096 -0.2091
   48MOL0     O 6510   4.060   8.653  11.575  0.3650  0.1378  0.2871
   48MOL0     C 6511   4.124   8.590  11.676 -1.1536  0.2921 -0.1203
   48MOL0     C 6512   4.142   8.626  11.812  0.8141  0.6291 -0.9818
   48MOL0     C 6513   4.198   8.536  11.901 -0.5500 -0.2432  0.1209
   48MOL0     C 6514   4.193   8.589  12.040 -0.2295  1.1728 -0.2560
   48MOL0     C 6515   4.256   8.415  11.855  0.2071  0.3966  0.1585
   48MOL0     C 6516   4.313   8.307  11.939 -0.1517  0.1517 -1.0450
   48MOL0     O 6517   4.347   8.189  11.889  0.1459  0.3028  0.3964
   48MOL0     C 6518   4.397   8.091  11.968 -1.4843 -0.1908 -1.0950
   48MOL0     C 6519   4.538   8.087  11.990  0.0425 -0.4902  0.2358
   48MOL0     C 6520   4.591   7.989  12.073 -1.1646 -0.3449  1.0408
   48MOL0     C 6521   4.512   7.896  12.134 -0.4106  1.4995 -2.0090
   48MOL0     O 6522   4.563   7.798  12.225 -0.3470  0.5862 -0.1495
   48MOL0     C 6523   4.694   7.803  12.284 -0.3995  0.8014  0.3772
   48MOL0     C 6524   4.718   7.666  12.342  0.3355  0.1880  0.0077
   48MOL0     C 6525   4.853   7.659  12.404  0.8538 -0.4674 -0.4283
   48MOL0     C 6526   4.971   7.649  12.313 -0.5694 -0.0212 -0.1090
   48MOL0     C 6527   5.095   7.729  12.359 -0.0707  0.3367 -0.2838
   48MOL0     C 6528   5.214   7.712  12.257  0.9850 -0.6242  0.4235
   48MOL0     C 6529   5.335   7.797  12.295 -0.4694  0.8756  1.6904
   48MOL0     C 6530   5.465   7.758  12.209 -0.1461 -0.3964  1.0258
   48MOL0    Cl 6531   5.438   7.780  12.033  0.2003 -0.3745  0.3975
   48MOL0     C 6532   4.366   7.894  12.108  0.8297  0.0386  0.5619
   48MOL0     C 6533   4.310   7.993  12.024 -0.6436  0.0974  0.3380
   48MOL0     O 6534   4.316   8.322  12.058  0.4794 -0.5183 -1.3206
   48MOL0     C 6535   4.256   8.385  11.715  0.9726 -0.4214  0.5436
   48MOL0     C 6536   4.209   8.487  11.629  0.0404  0.3512  0.8786
   48MOL0     N 6537   4.330   9.098  11.308 -0.3297 -0.2445 -0.1016
   48MOL0     N 6538   4.344   9.187  11.215 -0.0277 -1.0018 -1.3608
   48MOL0     C 6539   4.002   9.459  10.406  0.2842  0.4723  1.1727
   48MOL0     C 6540   4.063   9.396  10.290  0.4537 -1.0272 -0.9030
   48MOL0     C 6541   4.062   9.275   9.845 -0.2858 -1.2703 -0.3639
   48MOL0     C 6542   4.023   9.330   9.716 -0.4674  0.1482  0.1516
   48MOL0     C 6543   4.038   9.258   9.600 -0.5559  0.0243 -0.8211
   48MOL0     C 6544   4.083   9.133   9.593  0.2788  0.5188  0.5560
   48MOL0     O 6545   4.075   9.040   9.487  0.0511 -0.4288  0.6113
   48MOL0     C 6546   3.965   9.063   9.391 -0.7800  1.0615 -1.1029
   48MOL0     C 6547   3.843   8.984   9.418  0.4943 -0.7356  0.6904
   48MOL0     C 6548   3.868   8.835   9.369  0.0452  0.1409  0.6320
   48MOL0     C 6549   3.789   8.731   9.451 -0.1013 -0.1873  0.2025
   48MOL0     C 6550   3.814   8.734   9.600  0.5004  0.4355  0.5474
   48MOL0     C 6551   3.853   8.730   9.715  0.4680  0.9985  0.1534
   48MOL0     C 6552   4.130   9.079   9.710 -0.8505 -0.2562  0.4932
   48MOL0     C 6553   4.124   9.148   9.840 -0.4944 -0.7258 -0.0732
   48MOL0     C 6554   4.200   9.094   9.952  0.4393 -0.3252 -0.1539
   48MOL0     H 6555   3.765   9.305  10.140  0.2318 -0.4411 -0.2318
   48MOL0     H 6556   3.682   9.370  10.350 -1.2131  1.4924 -1.0201
   48MOL0     H 6557   3.628   9.421  10.562  0.5448 -1.5810  0.3601
   48MOL0     H 6558   3.643   9.596  10.498  4.1874  3.6106  1.8933
   48MOL0     H 6559   3.668   9.676  10.728 -0.6627 -0.1164  1.5377
   48MOL0     H 6560   3.522   9.573  10.717  0.6932  1.2065 -3.7100
   48MOL0     H 6561   3.609   9.513  10.929 -0.2763 -1.0825 -0.3043
   48MOL0     H 6562   3.634   9.378  10.828 -3.0992  0.1696 -0.6213
   48MOL0     H 6563   3.860   9.410  10.793 -0.9104 -0.8071 -0.0720
   48MOL0     H 6564   3.848   9.581  10.862 -2.4888  0.3277 -0.1619
   48MOL0     H 6565   3.838   9.315  11.023 -4.7193  0.5505  3.3809
   48MOL0     H 6566   3.787   9.474  11.090  1.6425 -0.2727 -0.0252
   48MOL0     H 6567   4.037   9.466  10.937 -3.2316 -1.2794 -0.7178
   48MOL0     H 6568   3.988   9.554  11.086 -0.3594  0.0303 -1.1961
   48MOL0     H 6569   4.068   9.253  11.086 -0.4552 -1.3199  0.8618
   48MOL0     H 6570   4.010   9.338  11.225  0.9138  0.2347  0.6908
   48MOL0     H 6571   4.276   9.405  11.086 -1.4560  0.0096 -1.7603
   48MOL0     H 6572   4.203   9.493  11.222  1.4684 -0.4337  0.1443
   48MOL0     H 6573   4.146   9.332  11.439 -2.5837 -2.8115  0.2988
   48MOL0     H 6574   4.151   9.140  11.592  1.2466  0.8385  1.9289
   48MOL0     H 6575   4.309   9.045  11.587 -1.0884 -0.8324  0.1650
   48MOL0     H 6576   4.056   8.975  11.440 -1.0565 -0.5073  1.1343
   48MOL0     H 6577   4.205   8.877  11.466  1.4582  1.0185  1.9928
   48MOL0     H 6578   4.149   8.878  11.703 -0.8063 -1.1146  1.8308
   48MOL0     H 6579   4.009   8.988  11.688  3.6532  3.7115 -0.8067
   48MOL0     H 6580   3.916   8.743  11.693 -0.1955 -3.1470 -0.5009
   48MOL0     H 6581   3.914   8.794  11.534 -1.4800  0.9218  0.2763
   48MOL0     H 6582   4.087   8.713  11.848  0.1231  0.0934 -0.7342
   48MOL0     H 6583   4.268   8.552  12.111  0.3249  5.0844  1.4321
   48MOL0     H 6584   4.091   8.587  12.078  0.3105 -0.5407  1.2502
   48MOL0     H 6585   4.221   8.693  12.022 -2.4023  1.4496 -2.5288
   48MOL0     H 6586   4.617   8.145  11.945  2.5186 -1.2920  3.2272
   48MOL0     H 6587   4.697   7.985  12.092 -1.2991 -0.3454  1.8133
   48MOL0     H 6588   4.770   7.822  12.207  0.7689  2.5684  1.8803
   48MOL0     H 6589   4.697   7.882  12.359  1.7938  2.2206 -1.0647
   48MOL0     H 6590   4.642   7.636  12.415  0.7217 -0.4479  0.1483
   48MOL0     H 6591   4.698   7.593  12.264  0.7664  1.6581 -1.5455
   48MOL0     H 6592   4.851   7.583  12.484 -0.5661 -1.0532 -0.9765
   48MOL0     H 6593   4.848   7.755  12.456  0.1787 -0.4591 -0.4999
   48MOL0     H 6594   4.951   7.684  12.211  0.5589  1.7920  0.2255
   48MOL0     H 6595   4.991   7.544  12.292  0.9485  0.3826 -0.8639
   48MOL0     H 6596   5.071   7.835  12.378 -0.1800  0.0626  1.2900
   48MOL0     H 6597   5.129   7.698  12.459  1.3712 -0.3750 -0.9609
   48MOL0     H 6598   5.182   7.753  12.161 -0.1828  1.2636  1.5629
   48MOL0     H 6599   5.229   7.605  12.239 -0.2464 -0.4769 -1.6566
   48MOL0     H 6600   5.348   7.791  12.404  0.0094 -3.3738  1.5676
   48MOL0     H 6601   5.321   7.905  12.286 -0.2318  0.7690 -0.3413
   48MOL0     H 6602   5.504   7.659  12.233 -1.2300 -0.7132  1.5708
   48MOL0     H 6603   5.550   7.824  12.228  1.7072 -1.5238 -2.4412
   48MOL0     H 6604   4.306   7.815  12.152  1.0495 -1.2339 -1.3015
   48MOL0     H 6605   4.207   7.986  11.989 -0.1461 -1.8726 -0.8461
   48MOL0     H 6606   4.313   8.305  11.670  1.8283  1.5591 -2.1296
   48MOL0     H 6607   4.211   8.477  11.521  1.6776 -3.9624  1.1223
   48MOL0     H 6608   4.057   9.526  10.471 -0.1137  2.1738 -0.1610
   48MOL0     H 6609   4.167   9.379  10.265  0.2885 -3.3971 -0.1835
   48MOL0     H 6610   3.992   9.433   9.706 -0.2002  0.1645 -0.5205
   48MOL0     H 6611   4.006   9.314   9.513 -2.4093  0.0003 -0.2077
   48MOL0     H 6612   3.932   9.167   9.385 -1.6790  0.7559 -1.7969
   48MOL0     H 6613   3.990   9.055   9.285 -0.3949  3.2454 -1.2214
   48MOL0     H 6614   3.769   9.033   9.354  2.6773 -1.4213 -2.5739
   48MOL0     H 6615   3.815   8.988   9.524  1.4019 -0.1035  0.9215
   48MOL0     H 6616   3.849   8.826   9.261  2.4369  0.0047  0.1551
   48MOL0     H 6617   3.968   8.792   9.376  0.8109  1.8069  0.5726
   48MOL0     H 6618   3.816   8.636   9.404 -0.9310 -1.9074  2.9246
   48MOL0     H 6619   3.682   8.736   9.429 -0.1083  1.1547  0.5110
   48MOL0     H 6620   3.885   8.726   9.817  0.0027  1.7433  0.3399
   48MOL0     H 6621   4.170   8.979   9.705  0.6665  0.4006 -1.2625
   48MOL0     H 6622   4.241   9.176  10.012 -0.8642  0.4660 -0.3105
   48MOL0     H 6623   4.133   9.038  10.017  2.0934  0.2747  2.2049
   48MOL0     H 6624   4.280   9.027   9.921 -0.4209 -1.4044 -0.0928
   49MOL0     O 6625   5.665   3.597   4.862  0.1262 -0.8938  0.1637
   49MOL0     C 6626   5.721   3.673   4.935 -0.1873 -0.5274  0.2618
   49MOL0     O 6627   5.850   3.706   4.928  0.6673  0.7008  0.0660
   49MOL0     C 6628   5.933   3.624   4.844  0.5314 -0.5008 -0.7607
   49MOL0     C 6629   6.009   3.524   4.906  1.1200 -0.1770 -0.4072
   49MOL0     C 6630   6.102   3.456   4.825 -0.1618 -0.8193 -0.3715
   49MOL0     C 6631   6.110   3.464   4.687 -0.3290 -0.8858  1.1550
   49MOL0     O 6632   6.200   3.396   4.610  0.0214  0.3208 -0.7711
   49MOL0     C 6633   6.256   3.276   4.673 -0.2665 -0.8726 -0.4106
   49MOL0     C 6634   6.328   3.192   4.575 -0.4207 -0.8441  0.0837
   49MOL0     C 6635   6.245   3.143   4.453  0.9894 -0.2336 -0.8642
   49MOL0     C 6636   6.157   3.020   4.486 -0.1095  0.3522 -0.3538
   49MOL0     C 6637   6.079   2.969   4.373  0.1910  0.0496 -0.4191
   49MOL0     C 6638   5.942   3.034   4.365 -0.3752  0.2540 -0.3939
   49MOL0     C 6639   5.865   2.966   4.243  0.3130  0.2078 -0.2888
   49MOL0     C 6640   5.713   2.979   4.249 -0.8880  0.3195  1.0327
   49MOL0     N 6641   5.646   2.913   4.136  0.2190 -0.1597  0.6970
   49MOL0     C 6642   5.625   2.779   4.120 -0.2443  0.3560  0.3782
   49MOL0     C 6643   5.623   2.748   3.987  0.2014  0.8386 -1.1800
   49MOL0     C 6644   5.582   2.613   3.924 -0.1416 -0.1405 -0.0803
   49MOL0     C 6645   5.518   2.617   3.777  0.2180 -0.0129  0.1868
   49MOL0     C 6646   5.361   2.662   3.795 -0.3470  0.7439 -0.0100
   49MOL0     C 6647   5.333   2.805   3.763 -0.4431 -0.8891  0.0489
   49MOL0     O 6648   5.209   2.847   3.824  0.0630  0.6270 -0.4148
   49MOL0     C 6649   5.193   2.979   3.858 -0.2751 -0.3220  0.3715
   49MOL0     C 6650   5.084   2.995   3.933  0.4950  0.3105  0.2205
   49MOL0     C 6651   5.037   3.120   3.977 -0.1269  1.2349  0.1051
   49MOL0     C 6652   4.923   3.130   4.070  0.2040  0.3171 -0.1787
   49MOL0     C 6653   5.116   3.230   3.933 -0.5003  0.2540  0.6840
   49MOL0     C 6654   5.094   3.376   3.981 -0.5942  1.2890  0.4109
   49MOL0     O 6655   5.170   3.463   3.917 -0.6305 -0.6365 -0.0245
   49MOL0     C 6656   5.150   3.598   3.934  0.0460 -0.0999  0.1132
   49MOL0     C 6657   5.240   3.674   4.003  0.5137  0.7971  0.0962
   49MOL0     C 6658   5.227   3.811   3.995  1.0812 -1.4579  1.4034
   49MOL0     C 6659   5.127   3.877   3.938  0.2881  0.4384  0.2630
   49MOL0     O 6660   5.138   4.009   3.924 -0.1675  0.2807 -1.2727
   49MOL0     C 6661   5.064   4.077   3.814 -0.4627 -0.2244  0.0098
   49MOL0     C 6662   5.165   4.146   3.727 -0.0951 -0.4105 -0.3303
   49MOL0     C 6663   5.114   4.167   3.581 -0.0496 -0.1559 -1.0145
   49MOL0     C 6664   5.223   4.235   3.501  0.4371  0.8776 -1.7558
   49MOL0     C 6665   5.330   4.133   3.458  0.5934 -0.4885  0.1999
   49MOL0     C 6666   5.415   4.183   3.345  0.2777 -0.1979 -0.7279
   49MOL0     C 6667   5.339   4.188   3.223 -0.5925  0.6585 -0.5445
   49MOL0     C 6668   5.266   4.062   3.168 -0.2506  0.5719 -0.0088
   49MOL0    Cl 6669   5.100   4.029   3.236  0.0711  0.0368  0.6760
   49MOL0     C 6670   5.021   3.799   3.877  0.2652 -0.4101 -1.0332
   49MOL0     C 6671   5.043   3.657   3.870 -0.7586 -0.3163 -0.2099
   49MOL0     O 6672   5.004   3.406   4.058  0.4275 -0.4475 -0.5744
   49MOL0     C 6673   5.234   3.211   3.849 -0.3453  0.2919  0.0219
   49MOL0     C 6674   5.272   3.083   3.807  0.5557 -0.0164 -0.4195
   49MOL0     N 6675   5.647   2.868   3.922  0.3269  0.4632  0.6683
   49MOL0     N 6676   5.651   2.966   4.010 -1.2072  0.4806  0.5275
   49MOL0     C 6677   6.037   3.562   4.628  0.5287  0.2782 -0.5373
   49MOL0     C 6678   5.947   3.645   4.711  0.0456  0.3277  0.8595
   49MOL0     C 6679   5.632   3.764   5.010  0.8730  0.6501  1.0311
   49MOL0     C 6680   5.674   3.884   5.050 -0.3668 -0.2149  0.3038
   49MOL0     C 6681   5.607   3.965   5.137 -0.2331  0.8141  0.2274
   49MOL0     C 6682   5.498   3.912   5.203  0.5535  0.1367 -0.8487
   49MOL0     O 6683   5.446   3.993   5.301 -0.7288 -0.7072 -0.4106
   49MOL0     C 6684   5.370   3.918   5.402  0.0085 -0.0302 -0.4051
   49MOL0     C 6685   5.371   4.005   5.532 -0.0699 -0.1557  0.2754
   49MOL0     C 6686   5.504   4.008   5.607  0.4324 -0.1543 -0.3711
   49MOL0     C 6687   5.522   4.119   5.715  0.1879  1.2888  0.0023
   49MOL0     C 6688   5.443   4.108   5.839  1.1124 -1.1716 -0.1242
   49MOL0     C 6689   5.374   4.111   5.937  0.4154  0.4108  0.6994
   49MOL0     C 6690   5.442   3.790   5.163  0.7429 -0.4128  0.0392
   49MOL0     C 6691   5.505   3.718   5.065 -0.7229 -0.2647 -0.9935
   49MOL0     C 6692   5.443   3.580   5.036  0.3771  0.2009 -0.1917
   49MOL0     H 6693   6.013   3.510   5.013  2.5166  0.5407 -0.3463
   49MOL0     H 6694   6.157   3.385   4.886  0.9513  0.6828  0.4398
   49MOL0     H 6695   6.180   3.214   4.723  1.6747 -0.6809  3.0646
   49MOL0     H 6696   6.328   3.304   4.751 -1.7872  4.3978 -0.5501
   49MOL0     H 6697   6.405   3.263   4.542 -2.1444  2.2859  2.2027
   49MOL0     H 6698   6.373   3.112   4.635  2.2310  2.7642  3.4654
   49MOL0     H 6699   6.182   3.227   4.421 -1.7436 -1.4041  1.0897
   49MOL0     H 6700   6.318   3.130   4.372 -0.6481 -2.6935 -2.0758
   49MOL0     H 6701   6.233   2.947   4.514  0.7819  0.8401 -1.4167
   49MOL0     H 6702   6.092   3.045   4.571 -1.4595 -0.0571 -1.2473
   49MOL0     H 6703   6.068   2.860   4.379  1.6220 -0.0635  0.9803
   49MOL0     H 6704   6.136   2.988   4.282  2.0394  0.2933  0.7256
   49MOL0     H 6705   5.897   3.033   4.465  0.4324  2.9398  0.0830
   49MOL0     H 6706   5.951   3.137   4.331 -2.6699  0.5945 -0.1405
   49MOL0     H 6707   5.900   2.863   4.232 -0.1226 -0.1449  1.3315
   49MOL0     H 6708   5.890   3.012   4.147 -3.5281 -1.7301 -2.4344
   49MOL0     H 6709   5.679   2.933   4.342 -3.7882  1.3900  0.5799
   49MOL0     H 6710   5.689   3.084   4.262  1.0162  0.8663  0.5577
   49MOL0     H 6711   5.594   2.699   4.187 -0.3400 -1.2118 -1.4316
   49MOL0     H 6712   5.497   2.577   3.982 -0.2957 -0.1900 -0.3349
   49MOL0     H 6713   5.674   2.553   3.928  1.0261  1.5008 -1.1471
   49MOL0     H 6714   5.573   2.685   3.711 -2.0261  1.8682  0.1588
   49MOL0     H 6715   5.528   2.516   3.736  1.3555 -0.4591  1.4874
   49MOL0     H 6716   5.310   2.595   3.725  0.3854  0.6507 -0.4615
   49MOL0     H 6717   5.301   2.646   3.885  0.2436  0.5271  0.3492
   49MOL0     H 6718   5.419   2.863   3.796 -0.0016 -1.0618 -0.7688
   49MOL0     H 6719   5.328   2.823   3.655 -0.6373  1.1938  0.3672
   49MOL0     H 6720   5.042   2.905   3.977  1.9377  0.4196  1.9386
   49MOL0     H 6721   4.967   3.106   4.167  2.1475  1.8743 -0.6012
   49MOL0     H 6722   4.842   3.060   4.045 -2.6556  3.0206  0.8582
   49MOL0     H 6723   4.876   3.228   4.063  1.4709  0.8286 -3.5537
   49MOL0     H 6724   5.323   3.625   4.053  1.5425  0.8393 -1.4845
   49MOL0     H 6725   5.304   3.874   4.038 -1.5342  1.1958  2.5695
   49MOL0     H 6726   5.007   4.009   3.749  1.2979  1.8055 -4.0660
   49MOL0     H 6727   4.995   4.156   3.844 -0.2994  0.1383 -0.5584
   49MOL0     H 6728   5.201   4.239   3.772  0.9273 -0.3880 -1.1470
   49MOL0     H 6729   5.253   4.081   3.730 -0.1433 -0.4554  0.2640
   49MOL0     H 6730   5.030   4.236   3.567  1.6094  2.3760  0.6523
   49MOL0     H 6731   5.086   4.070   3.539 -5.2403  0.7716 -0.4315
   49MOL0     H 6732   5.270   4.322   3.548 -3.0626  1.4491  1.1271
   49MOL0     H 6733   5.166   4.270   3.414 -0.8258  2.4926 -0.3299
   49MOL0     H 6734   5.391   4.112   3.546  0.2883  1.1452  0.8378
   49MOL0     H 6735   5.272   4.044   3.430 -0.0360 -0.3013  0.8895
   49MOL0     H 6736   5.494   4.111   3.319  3.5805  2.1012  2.0516
   49MOL0     H 6737   5.462   4.277   3.374 -1.1541  0.3138 -0.0107
   49MOL0     H 6738   5.411   4.214   3.145 -0.1776  2.4684  0.4044
   49MOL0     H 6739   5.266   4.269   3.213 -1.7557 -0.4585 -1.5510
   49MOL0     H 6740   5.336   3.979   3.179  2.2435  2.7380  1.7145
   49MOL0     H 6741   5.259   4.094   3.064 -1.8054  2.5887  0.6285
   49MOL0     H 6742   4.931   3.832   3.827  0.6136  2.3293 -0.0187
   49MOL0     H 6743   4.970   3.596   3.819  0.8265 -1.7450 -0.8832
   49MOL0     H 6744   5.295   3.296   3.820  1.7105 -0.9891  0.4411
   49MOL0     H 6745   5.369   3.070   3.761  0.7015 -1.5116  0.2420
   49MOL0     H 6746   6.049   3.557   4.520  0.6980 -0.6021 -0.4833
   49MOL0     H 6747   5.890   3.724   4.663  3.9256  1.5283 -2.2913
   49MOL0     H 6748   5.768   3.924   5.016  0.1681 -1.2729  0.4851
   49MOL0     H 6749   5.638   4.066   5.162  1.8615  0.6199 -1.3435
   49MOL0     H 6750   5.268   3.907   5.364 -0.3427 -0.4225  0.5912
   49MOL0     H 6751   5.415   3.820   5.420  2.2796  1.3672  2.2013
   49MOL0     H 6752   5.296   3.957   5.596  0.0511 -0.0755  0.4808
   49MOL0     H 6753   5.350   4.110   5.511  1.7159  0.3001  0.5894
   49MOL0     H 6754   5.522   3.908   5.646  1.5440 -0.8343 -2.4496
   49MOL0     H 6755   5.574   4.032   5.526  1.9184 -0.9597  0.6329
   49MOL0     H 6756   5.501   4.214   5.665  1.2279  1.5599  0.0595
   49MOL0     H 6757   5.628   4.114   5.742  0.4572 -1.0300 -1.1588
   49MOL0     H 6758   5.318   4.125   6.027  1.6340  1.1363  1.3838
   49MOL0     H 6759   5.351   3.742   5.197  0.3923 -1.2532 -1.9482
   49MOL0     H 6760   5.529   3.513   5.027  1.4862  1.5860 -0.3167
   49MOL0     H 6761   5.372   3.543   5.110  1.3031 -3.2013 -0.8326
   49MOL0     H 6762   5.393   3.574   4.939 -1.6778  0.1136  0.8206
   50MOL0     O 6763   9.820   1.235   5.080  0.1687 -0.7083  0.6660
   50MOL0     C 6764   9.739   1.142   5.086 -0.8668  0.2383 -0.1758
   50MOL0     O 6765   9.779   1.012   5.094  0.7584 -0.0396 -0.8742
   50MOL0     C 6766   9.910   0.981   5.106 -0.7066 -0.3550 -0.2495
   50MOL0     C 6767   9.985   1.013   5.224 -0.8769  0.5264  0.1328
   50MOL0     C 6768  10.121   0.968   5.240 -0.2930  0.0041 -0.2602
   50MOL0     C 6769  10.180   0.891   5.125 -0.3061  0.3010 -0.5624
   50MOL0     O 6770  10.304   0.830   5.119  0.4946 -0.3096 -1.5002
   50MOL0     C 6771  10.401   0.851   5.214  0.5323 -0.1765 -0.6262
   50MOL0     C 6772  10.384   0.743   5.320  1.0582 -0.0657 -1.2612
   50MOL0     C 6773  10.520   0.711   5.395  0.2685 -0.7633  0.1136
   50MOL0     C 6774  10.493   0.694   5.552  0.1747 -0.6292  0.1468
   50MOL0     C 6775  10.607   0.634   5.622  0.8689  1.1874 -0.6949
   50MOL0     C 6776  10.717   0.733   5.664 -0.8340 -0.0202  0.0517
   50MOL0     C 6777  10.848   0.652   5.691  0.9133  0.3175  0.7917
   50MOL0     C 6778  10.897   0.690   5.823  0.3868 -0.1439  1.1974
   50MOL0     N 6779  11.015   0.620   5.869  0.1815  0.7364 -0.4159
   50MOL0     C 6780  11.106   0.541   5.798  0.0126 -0.1386 -0.0516
   50MOL0     C 6781  11.178   0.476   5.893 -1.0476 -0.4879 -0.0805
   50MOL0     C 6782  11.311   0.396   5.878  0.9615 -0.6678 -0.0373
   50MOL0     C 6783  11.445   0.457   5.918  0.0344 -0.3492 -0.0548
   50MOL0     C 6784  11.478   0.452   6.065 -0.1048 -0.6200 -0.3752
   50MOL0     C 6785  11.541   0.591   6.113 -0.6968 -0.2814 -0.5576
   50MOL0     O 6786  11.684   0.595   6.070  0.4013  0.2311 -0.6820
   50MOL0     C 6787  11.758   0.698   6.118  0.3136  0.4297 -0.0861
   50MOL0     C 6788  11.745   0.825   6.064  0.6981  0.1145 -0.8941
   50MOL0     C 6789  11.815   0.934   6.099  0.7152  0.1291 -0.2216
   50MOL0     C 6790  11.783   1.073   6.039  0.3097 -0.4746 -0.2390
   50MOL0     C 6791  11.913   0.913   6.197 -0.1464 -0.4679  0.1334
   50MOL0     C 6792  12.002   1.013   6.246 -0.7352 -0.0384 -0.1877
   50MOL0     O 6793  12.067   0.979   6.359 -0.5672  0.3552  0.4689
   50MOL0     C 6794  12.163   1.073   6.396 -0.1806  0.2466 -0.7639
   50MOL0     C 6795  12.299   1.070   6.350  0.4392 -0.8451  0.2126
   50MOL0     C 6796  12.384   1.178   6.391  0.2338  0.6360 -0.2759
   50MOL0     C 6797  12.355   1.264   6.497 -0.1910 -1.2700 -0.2174
   50MOL0     O 6798  12.452   1.353   6.544  0.6494  0.5400  0.1905
   50MOL0     C 6799  12.430   1.441   6.654 -0.0013 -0.3572  0.5517
   50MOL0     C 6800  12.358   1.570   6.601  0.1683 -0.2659  0.7774
   50MOL0     C 6801  12.433   1.659   6.502  0.2329 -0.2565  0.2598
   50MOL0     C 6802  12.566   1.706   6.564  0.5123 -1.1548  0.3264
   50MOL0     C 6803  12.636   1.830   6.494  0.3440 -0.4195  0.1139
   50MOL0     C 6804  12.558   1.964   6.481 -0.5569  0.6984 -0.8453
   50MOL0     C 6805  12.636   2.064   6.401 -0.7311  0.3167 -0.0572
   50MOL0     C 6806  12.595   2.205   6.418  0.8920 -0.4994  0.0234
   50MOL0    Cl 6807  12.433   2.228   6.354  0.3088 -0.2480  0.2846
   50MOL0     C 6808  12.219   1.258   6.550 -0.2948 -0.2579  0.2970
   50MOL0     C 6809  12.127   1.168   6.494 -0.1445  0.2669 -0.1346
   50MOL0     O 6810  12.015   1.119   6.193  0.3951 -0.3837  0.9242
   50MOL0     C 6811  11.928   0.786   6.257 -1.6096 -0.0437  0.3868
   50MOL0     C 6812  11.859   0.678   6.213 -1.0625  0.2433  0.8182
   50MOL0     N 6813  11.136   0.510   6.013 -0.1650  0.7996 -0.0363
   50MOL0     N 6814  11.037   0.583   6.002 -0.9550 -0.6049  0.2324
   50MOL0     C 6815  10.107   0.870   5.013 -0.3658  0.2784  0.8140
   50MOL0     C 6816   9.976   0.910   5.007  0.1952  0.8878  0.5659
   50MOL0     C 6817   9.591   1.179   5.064  0.1613 -0.2823 -0.1332
   50MOL0     C 6818   9.556   1.312   5.036 -0.9890 -0.9084  0.2438
   50MOL0     C 6819   9.421   1.350   5.029  0.2047  0.4049  2.0232
   50MOL0     C 6820   9.317   1.257   5.037  0.2230 -1.1073  0.2458
   50MOL0     O 6821   9.182   1.284   4.996 -0.2541 -0.5888 -0.3191
   50MOL0     C 6822   9.138   1.427   5.002 -0.5683 -0.2929  0.2681
   50MOL0     C 6823   8.986   1.435   5.000 -0.0097  0.8239 -1.3679
   50MOL0     C 6824   8.923   1.578   5.004 -0.4696 -0.3708  0.5188
   50MOL0     C 6825   8.762   1.566   5.009  0.4294 -0.2550 -0.3931
   50MOL0     C 6826   8.714   1.703   5.024  0.7977  0.9233  0.0646
   50MOL0     C 6827   8.709   1.824   5.044 -0.3620  0.4731 -0.5697
   50MOL0     C 6828   9.358   1.128   5.064 -0.0542  0.1132 -1.0953
   50MOL0     C 6829   9.494   1.082   5.090 -0.1123 -0.2057  0.4091
   50MOL0     C 6830   9.511   0.935   5.101 -0.1154 -0.2884 -0.1837
   50MOL0     H 6831   9.936   1.069   5.303 -2.4599 -2.6937  1.5841
   50MOL0     H 6832  10.177   1.003   5.326 -2.7013 -1.3765  2.0367
   50MOL0     H 6833  10.408   0.948   5.265 -0.4654 -0.1237 -0.5726
   50MOL0     H 6834  10.498   0.843   5.164  1.8452 -0.9344  1.8602
   50MOL0     H 6835  10.309   0.768   5.395 -0.5041 -0.5372 -2.5934
   50MOL0     H 6836  10.355   0.650   5.270 -4.1264  0.7846 -0.4367
   50MOL0     H 6837  10.562   0.617   5.359  1.8386 -0.2246  0.4354
   50MOL0     H 6838  10.589   0.796   5.384 -2.2681  1.3445 -0.3240
   50MOL0     H 6839  10.466   0.783   5.610 -0.9186 -1.7591  1.4372
   50MOL0     H 6840  10.400   0.637   5.559 -1.1776  1.5897  1.5774
   50MOL0     H 6841  10.640   0.565   5.544  1.4125  0.9036 -0.2270
   50MOL0     H 6842  10.569   0.577   5.708  1.1820 -0.8594 -1.8486
   50MOL0     H 6843  10.734   0.806   5.584  1.0788 -0.3556  0.0835
   50MOL0     H 6844  10.677   0.767   5.760 -4.4398 -5.5448  0.9904
   50MOL0     H 6845  10.920   0.658   5.609  1.8510  1.7656  1.6777
   50MOL0     H 6846  10.824   0.545   5.699  0.8129  0.4159  1.8693
   50MOL0     H 6847  10.909   0.797   5.838 -1.8556  0.5180 -0.9811
   50MOL0     H 6848  10.817   0.662   5.891 -2.8966  1.3132 -1.7307
   50MOL0     H 6849  11.121   0.544   5.690  1.4993  0.4237  0.1440
   50MOL0     H 6850  11.320   0.371   5.772  1.5330 -1.3787  0.1734
   50MOL0     H 6851  11.288   0.308   5.939 -0.4882  0.0137  0.4689
   50MOL0     H 6852  11.526   0.410   5.861  0.4984  0.5296 -0.1279
   50MOL0     H 6853  11.448   0.560   5.884  1.7707 -0.7011 -1.0727
   50MOL0     H 6854  11.390   0.429   6.125  1.6424  0.5877  2.8734
   50MOL0     H 6855  11.557   0.381   6.090  2.3575  3.0667  3.8391
   50MOL0     H 6856  11.487   0.683   6.089  2.1970  1.9656  0.8909
   50MOL0     H 6857  11.536   0.601   6.222  1.1692  2.6142 -0.6223
   50MOL0     H 6858  11.661   0.854   6.001  0.1223 -0.4713 -0.4181
   50MOL0     H 6859  11.859   1.109   5.969 -0.0302  0.0557 -0.3413
   50MOL0     H 6860  11.770   1.152   6.114  0.4769  0.0858 -0.7915
   50MOL0     H 6861  11.687   1.058   5.988  0.3566 -2.3103  0.1252
   50MOL0     H 6862  12.333   1.001   6.273 -0.6376 -1.7395  0.5087
   50MOL0     H 6863  12.485   1.176   6.354 -0.5894  0.6681 -2.6696
   50MOL0     H 6864  12.377   1.386   6.731 -0.4247 -1.2986 -0.3902
   50MOL0     H 6865  12.524   1.472   6.701 -0.8539 -0.5779  2.4767
   50MOL0     H 6866  12.271   1.531   6.547  0.8320 -0.5164 -0.1263
   50MOL0     H 6867  12.318   1.632   6.682  0.2917 -0.3883  0.9323
   50MOL0     H 6868  12.361   1.739   6.485 -0.9164 -1.3617 -0.2430
   50MOL0     H 6869  12.450   1.604   6.409  1.9583 -0.2445  0.5509
   50MOL0     H 6870  12.646   1.633   6.577  0.2648 -2.0530 -2.5856
   50MOL0     H 6871  12.538   1.745   6.662 -1.7192  0.5538 -0.8860
   50MOL0     H 6872  12.725   1.858   6.552  0.5803  3.9671 -2.0039
   50MOL0     H 6873  12.666   1.785   6.399 -0.7635 -0.5267 -0.2026
   50MOL0     H 6874  12.519   1.990   6.580  2.7028  0.4020  0.6107
   50MOL0     H 6875  12.474   1.947   6.413 -0.9090  2.4021 -0.8851
   50MOL0     H 6876  12.627   2.040   6.295 -1.4925 -1.3042  0.3455
   50MOL0     H 6877  12.738   2.048   6.439 -0.0955 -0.1614 -1.8541
   50MOL0     H 6878  12.658   2.273   6.360 -0.7924  1.8023  0.7733
   50MOL0     H 6879  12.606   2.247   6.518  2.8516  2.4541 -1.3013
   50MOL0     H 6880  12.182   1.313   6.636  2.1162  0.5146  0.9095
   50MOL0     H 6881  12.022   1.166   6.522 -0.9439 -0.9709 -2.8979
   50MOL0     H 6882  12.010   0.762   6.324 -0.5923 -3.3999 -1.8423
   50MOL0     H 6883  11.882   0.572   6.227  1.2720  0.8592  2.3253
   50MOL0     H 6884  10.142   0.810   4.929 -1.6371 -1.2802  1.3440
   50MOL0     H 6885   9.910   0.895   4.923  0.7062  0.9894  0.1451
   50MOL0     H 6886   9.635   1.385   5.024 -0.8113 -0.4917  3.3831
   50MOL0     H 6887   9.416   1.452   4.993  0.9452  0.0534  0.8452
   50MOL0     H 6888   9.183   1.473   5.090 -0.0451  1.2563 -0.7744
   50MOL0     H 6889   9.162   1.488   4.915 -0.3618  1.5269  1.5398
   50MOL0     H 6890   8.951   1.400   5.098 -1.7573  1.1231 -1.8494
   50MOL0     H 6891   8.941   1.366   4.929  2.3763 -2.4200  0.0218
   50MOL0     H 6892   8.954   1.640   5.089 -1.1467  1.4278 -0.4730
   50MOL0     H 6893   8.948   1.638   4.917  0.2587 -0.3525  0.7382
   50MOL0     H 6894   8.729   1.516   5.101 -0.8522 -1.4175 -1.4533
   50MOL0     H 6895   8.730   1.513   4.919  0.6124 -0.1576 -0.5155
   50MOL0     H 6896   8.715   1.929   5.067 -2.1616  0.9350 -1.9637
   50MOL0     H 6897   9.277   1.057   5.057  0.5417 -0.7691  0.4863
   50MOL0     H 6898   9.585   0.923   5.180 -0.8860  1.6388  0.9079
   50MOL0     H 6899   9.424   0.891   5.151  0.8662  0.2288  2.0905
   50MOL0     H 6900   9.549   0.890   5.009  0.7449  1.4685 -0.7264
   51MOL0     O 6901   4.684  11.038   0.204  0.6084  0.6686  0.0233
   51MOL0     C 6902   4.717  10.965   0.291  0.4225 -0.2015  0.1798
   51MOL0     O 6903   4.648  10.934   0.399 -0.6519 -0.2256 -0.7785
   51MOL0     C 6904   4.547  11.012   0.444 -0.9210 -0.5975  0.5891
   51MOL0     C 6905   4.444  10.953   0.510  0.3022 -0.4157 -1.2094
   51MOL0     C 6906   4.336  11.025   0.573 -0.6259  0.1286  0.0552
   51MOL0     C 6907   4.331  11.161   0.552  0.2643  0.1949  1.8130
   51MOL0     O 6908   4.227  11.221   0.624  0.1632 -0.0224 -0.6249
   51MOL0     C 6909   4.187  11.359   0.592  0.3661  0.3032 -0.7689
   51MOL0     C 6910   4.259  11.470   0.675 -0.5363  1.0660 -0.0725
   51MOL0     C 6911   4.251  11.423   0.826  0.5155  0.3614 -0.3102
   51MOL0     C 6912   4.330  11.521   0.915  0.3883  0.4444 -0.1953
   51MOL0     C 6913   4.316  11.479   1.069  0.2665 -0.8523  0.7119
   51MOL0     C 6914   4.188  11.522   1.147  0.3235  0.3611  1.7179
   51MOL0     C 6915   4.181  11.491   1.295  0.6036  0.2067  0.3217
   51MOL0     C 6916   4.092  11.602   1.364  0.8762  0.1508 -0.3041
   51MOL0     N 6917   4.063  11.564   1.499 -0.4716 -0.2455  0.3162
   51MOL0     C 6918   3.949  11.501   1.544  0.8148 -0.5096  0.4812
   51MOL0     C 6919   3.951  11.511   1.684  0.0638  0.1225 -0.2398
   51MOL0     C 6920   3.833  11.479   1.772  0.2828 -0.8165 -0.8656
   51MOL0     C 6921   3.689  11.497   1.714 -0.0396 -0.5069  0.3579
   51MOL0     C 6922   3.574  11.449   1.809  1.1907 -0.4575 -0.5018
   51MOL0     C 6923   3.439  11.496   1.773 -1.3947 -0.0654 -0.1034
   51MOL0     O 6924   3.436  11.634   1.786 -0.4354  0.3632 -1.2152
   51MOL0     C 6925   3.335  11.706   1.722  0.5410 -0.1769 -0.0435
   51MOL0     C 6926   3.358  11.842   1.685 -0.0313  0.3180 -0.0111
   51MOL0     C 6927   3.267  11.918   1.605 -0.4484  0.4684 -0.0735
   51MOL0     C 6928   3.291  12.074   1.601 -0.3527  0.6834  0.1456
   51MOL0     C 6929   3.155  11.854   1.544  0.4640  0.3618 -0.2306
   51MOL0     C 6930   3.085  11.912   1.432  1.6379 -0.8623  0.1792
   51MOL0     O 6931   2.953  11.874   1.425  0.1030  0.7027 -0.2850
   51MOL0     C 6932   2.876  11.898   1.322 -0.8785  0.8089 -0.1401
   51MOL0     C 6933   2.911  11.871   1.185  0.4033  0.5525 -0.1057
   51MOL0     C 6934   2.821  11.896   1.077  0.7268  0.1106 -0.2939
   51MOL0     C 6935   2.695  11.947   1.109 -0.6517 -1.5741  0.5343
   51MOL0     O 6936   2.602  11.964   1.009  0.4054 -0.1311  0.6848
   51MOL0     C 6937   2.604  11.865   0.912  0.2435  0.6411  0.9863
   51MOL0     C 6938   2.473  11.861   0.843  0.5540 -0.5732  0.7311
   51MOL0     C 6939   2.470  11.784   0.701  0.7403  0.4511 -0.3901
   51MOL0     C 6940   2.357  11.819   0.607 -0.6650 -0.1231  0.2508
   51MOL0     C 6941   2.370  11.752   0.473 -1.1766  0.3385 -1.7061
   51MOL0     C 6942   2.320  11.835   0.364  0.1583 -0.2042  0.0863
   51MOL0     C 6943   2.173  11.826   0.339 -0.3335  0.0115 -0.2434
   51MOL0     C 6944   2.118  11.916   0.233  0.0914  0.0544  0.7371
   51MOL0    Cl 6945   2.125  12.091   0.248 -0.2368 -0.1891  0.7455
   51MOL0     C 6946   2.661  11.978   1.239  0.5902 -0.5463  0.1813
   51MOL0     C 6947   2.744  11.946   1.350  0.1450 -0.6483  0.2307
   51MOL0     O 6948   3.144  11.982   1.351 -0.4664 -0.3551  0.8717
   51MOL0     C 6949   3.130  11.720   1.589  0.2136  0.4285 -0.8954
   51MOL0     C 6950   3.222  11.646   1.675  0.7689 -0.6651  0.5214
   51MOL0     N 6951   4.069  11.575   1.713 -0.0834 -0.2886 -0.3102
   51MOL0     N 6952   4.132  11.604   1.603 -0.0057  0.0613  0.4747
   51MOL0     C 6953   4.425  11.221   0.476 -0.3707  0.0312  1.3078
   51MOL0     C 6954   4.528  11.149   0.425 -0.0615 -1.0775  0.1715
   51MOL0     C 6955   4.850  10.904   0.259 -0.2182 -1.2642  0.0866
   51MOL0     C 6956   4.902  10.908   0.128 -0.0977  0.2463  0.0993
   51MOL0     C 6957   5.014  10.853   0.095 -0.5635  0.0965  0.0154
   51MOL0     C 6958   5.091  10.785   0.192 -0.1797  0.7492 -0.3339
   51MOL0     O 6959   5.204  10.710   0.152 -0.6217  1.3666 -0.2151
   51MOL0     C 6960   5.295  10.644   0.243 -0.1309 -0.3009  0.3236
   51MOL0     C 6961   5.416  10.600   0.152 -1.2322  0.4587 -0.5029
   51MOL0     C 6962   5.491  10.482   0.216  1.3387  0.5930 -0.7865
   51MOL0     C 6963   5.522  10.381   0.112  0.6113  0.8751  0.4848
   51MOL0     C 6964   5.640  10.434   0.054  0.1890  0.4812 -0.1067
   51MOL0     C 6965   5.733  10.480  -0.004  0.5303  0.0666  0.9687
   51MOL0     C 6966   5.042  10.782   0.326  0.4416 -0.2525 -0.0464
   51MOL0     C 6967   4.926  10.845   0.363  0.5001 -0.6063  0.9827
   51MOL0     C 6968   4.902  10.866   0.516  0.8807  0.5948  0.0585
   51MOL0     H 6969   4.467  10.848   0.524 -0.2097 -0.6984 -2.3520
   51MOL0     H 6970   4.261  10.970   0.629  1.8114 -4.9460 -1.0530
   51MOL0     H 6971   4.080  11.374   0.613  0.0947  3.7844 -3.6600
   51MOL0     H 6972   4.182  11.365   0.483 -4.2217 -2.7417 -1.0529
   51MOL0     H 6973   4.364  11.469   0.642  0.0492 -0.0560  1.6724
   51MOL0     H 6974   4.228  11.575   0.674 -2.1560  0.6101 -1.2341
   51MOL0     H 6975   4.149  11.409   0.864  0.9362 -2.5129 -0.0383
   51MOL0     H 6976   4.301  11.326   0.826  0.4165  0.3049  0.3573
   51MOL0     H 6977   4.434  11.514   0.882  0.7329  0.7902  0.7971
   51MOL0     H 6978   4.292  11.622   0.899 -1.3939 -0.2438 -0.5529
   51MOL0     H 6979   4.398  11.528   1.121 -0.6623  0.1072  1.3010
   51MOL0     H 6980   4.324  11.370   1.067 -0.1697 -0.9294  2.2927
   51MOL0     H 6981   4.190  11.630   1.128 -0.3560  0.0291 -0.4785
   51MOL0     H 6982   4.100  11.488   1.091  1.3523 -0.2604  0.4335
   51MOL0     H 6983   4.279  11.497   1.343 -1.1249  1.1594  4.1274
   51MOL0     H 6984   4.143  11.390   1.312 -0.4213  0.5603  0.2703
   51MOL0     H 6985   4.140  11.699   1.355  1.8631  0.6354  6.0179
   51MOL0     H 6986   3.993  11.601   1.315  0.6188  2.3669  0.0845
   51MOL0     H 6987   3.878  11.454   1.477 -0.9361  0.8279  1.3073
   51MOL0     H 6988   3.836  11.534   1.866  0.0671 -1.9429 -0.1832
   51MOL0     H 6989   3.850  11.376   1.805 -1.0177 -0.7247  0.1764
   51MOL0     H 6990   3.677  11.606   1.708 -1.1182 -0.6756 -0.7050
   51MOL0     H 6991   3.681  11.452   1.615 -0.0986  2.1395 -0.9169
   51MOL0     H 6992   3.576  11.340   1.813  2.2460 -0.7171 -4.1274
   51MOL0     H 6993   3.589  11.486   1.911 -3.2224  0.6748 -0.0700
   51MOL0     H 6994   3.411  11.460   1.674  0.2556 -2.5156  0.2266
   51MOL0     H 6995   3.362  11.462   1.842  0.7805  0.6544  2.8622
   51MOL0     H 6996   3.450  11.894   1.713  1.2246 -0.9769 -1.5105
   51MOL0     H 6997   3.199  12.121   1.565 -0.7943  1.2135  1.8940
   51MOL0     H 6998   3.375  12.120   1.547  0.8429  1.1678  2.2994
   51MOL0     H 6999   3.305  12.086   1.709 -2.8995 -1.2586  0.7787
   51MOL0     H 7000   3.008  11.839   1.148  0.6976  1.0683  0.2082
   51MOL0     H 7001   2.858  11.892   0.975  1.2839  1.3207 -0.1462
   51MOL0     H 7002   2.683  11.893   0.841 -0.2251 -1.9921 -0.7262
   51MOL0     H 7003   2.623  11.764   0.950  0.2094  0.7510  1.3032
   51MOL0     H 7004   2.394  11.822   0.907  0.1411  1.4891  1.5514
   51MOL0     H 7005   2.444  11.964   0.821 -0.5151 -1.2596 -1.3128
   51MOL0     H 7006   2.467  11.675   0.714  2.6139  0.5752  1.5797
   51MOL0     H 7007   2.566  11.803   0.653  0.4916  1.1232 -0.6361
   51MOL0     H 7008   2.362  11.928   0.596  0.5468 -0.1988 -0.1191
   51MOL0     H 7009   2.270  11.802   0.671  1.4045 -2.5087  2.6446
   51MOL0     H 7010   2.476  11.732   0.455 -1.0093  0.6459 -1.0891
   51MOL0     H 7011   2.324  11.653   0.474 -0.4688  0.0153 -0.8401
   51MOL0     H 7012   2.367  11.785   0.279 -1.2340  1.5587 -1.8128
   51MOL0     H 7013   2.351  11.939   0.381 -0.4997  0.1063 -0.5149
   51MOL0     H 7014   2.115  11.842   0.430  2.0792  0.1740  1.3716
   51MOL0     H 7015   2.151  11.721   0.317 -0.3171  0.3427 -1.9881
   51MOL0     H 7016   2.012  11.892   0.233 -0.7684  3.4256  0.9673
   51MOL0     H 7017   2.169  11.883   0.141 -1.1554 -1.8649  0.6704
   51MOL0     H 7018   2.566  12.031   1.248  1.4282  1.2094 -0.7190
   51MOL0     H 7019   2.722  11.973   1.453  1.9133 -0.0810  0.4995
   51MOL0     H 7020   3.041  11.678   1.544  1.3220 -2.1067 -0.8952
   51MOL0     H 7021   3.197  11.544   1.705  1.8529 -1.6951 -1.7915
   51MOL0     H 7022   4.418  11.327   0.457  0.7464 -0.2120 -0.6820
   51MOL0     H 7023   4.604  11.207   0.375  0.9623 -0.3532  2.4206
   51MOL0     H 7024   4.852  10.966   0.050  0.6220  1.8285  0.7739
   51MOL0     H 7025   5.050  10.870  -0.006  0.6769 -1.7961  0.0853
   51MOL0     H 7026   5.335  10.712   0.318  0.0916 -0.3328  0.2341
   51MOL0     H 7027   5.247  10.555   0.285  0.1080 -1.3149 -1.4591
   51MOL0     H 7028   5.481  10.688   0.147 -0.7674  0.0598 -2.2949
   51MOL0     H 7029   5.385  10.577   0.049  3.0734 -0.0914 -1.8912
   51MOL0     H 7030   5.580  10.521   0.267  1.6389  0.5260 -1.2538
   51MOL0     H 7031   5.425  10.427   0.283  1.6285 -0.5658 -1.4294
   51MOL0     H 7032   5.430  10.370   0.053  0.6628 -1.9975  0.8050
   51MOL0     H 7033   5.553  10.279   0.136 -0.5612 -0.3269 -2.5507
   51MOL0     H 7034   5.809  10.516  -0.070  0.7989 -1.4686  0.4104
   51MOL0     H 7035   5.105  10.733   0.400 -0.6315 -1.2967  0.2029
   51MOL0     H 7036   4.977  10.806   0.568 -0.6156 -2.3250 -0.9454
   51MOL0     H 7037   4.918  10.966   0.557  1.9624 -0.1268  1.4902
   51MOL0     H 7038   4.801  10.841   0.549  0.4182  3.2556  0.9167
   52MOL0     O 7039   2.910   5.316   1.855 -0.4572  0.6563 -0.4048
   52MOL0     C 7040   2.969   5.210   1.849 -0.4208 -0.4010 -0.1178
   52MOL0     O 7041   3.051   5.159   1.954 -0.0019  0.4267  0.3020
   52MOL0     C 7042   3.061   5.249   2.061  0.0671  0.4653  1.1691
   52MOL0     C 7043   3.089   5.387   2.054 -0.0086 -1.0205 -0.6194
   52MOL0     C 7044   3.109   5.470   2.165  0.6581  0.2771  1.0228
   52MOL0     C 7045   3.101   5.416   2.293 -1.2878 -0.0943 -1.0324
   52MOL0     O 7046   3.132   5.501   2.396  0.3573 -0.5419 -0.2814
   52MOL0     C 7047   3.184   5.457   2.518 -0.0648 -0.8268 -0.2517
   52MOL0     C 7048   3.215   5.577   2.611  0.7156  0.3662  0.3140
   52MOL0     C 7049   3.098   5.680   2.630 -0.3338  1.1550  0.9859
   52MOL0     C 7050   3.158   5.803   2.702  0.2095  0.8550  0.0299
   52MOL0     C 7051   3.164   5.793   2.856  0.0129 -0.0596  0.1012
   52MOL0     C 7052   3.042   5.727   2.923 -0.4365 -0.3095  0.6322
   52MOL0     C 7053   3.049   5.758   3.076  0.3414 -0.5999 -0.9876
   52MOL0     C 7054   3.095   5.629   3.147 -1.0633  0.1995 -1.1164
   52MOL0     N 7055   3.241   5.615   3.133  0.1801 -0.6767 -0.7504
   52MOL0     C 7056   3.289   5.498   3.087 -0.0632 -0.2919  0.1143
   52MOL0     C 7057   3.414   5.503   3.124  0.9338 -0.3631  0.7449
   52MOL0     C 7058   3.500   5.384   3.115  0.2352  0.2146 -0.0891
   52MOL0     C 7059   3.615   5.413   3.025 -0.1165  1.0816  0.5792
   52MOL0     C 7060   3.575   5.439   2.878  0.4685  0.4592 -1.0554
   52MOL0     C 7061   3.515   5.313   2.818  0.5160  0.9549  0.8936
   52MOL0     O 7062   3.371   5.322   2.828 -0.1434 -0.0025  0.4142
   52MOL0     C 7063   3.289   5.230   2.774  0.6284  0.7444  0.6097
   52MOL0     C 7064   3.152   5.245   2.772 -0.2826  0.0615 -0.1317
   52MOL0     C 7065   3.064   5.150   2.711 -0.1608 -0.1855  0.5746
   52MOL0     C 7066   2.907   5.180   2.712 -0.2464  0.2433 -0.1951
   52MOL0     C 7067   3.117   5.022   2.663  1.4391  0.2840 -0.2180
   52MOL0     C 7068   3.036   4.907   2.609 -0.0437  0.5162 -0.2379
   52MOL0     O 7069   2.895   4.921   2.626 -0.2456 -0.0614  0.2377
   52MOL0     C 7070   2.796   4.832   2.590  0.3010 -0.6576 -0.0408
   52MOL0     C 7071   2.810   4.720   2.509  0.5428 -0.0361 -0.4199
   52MOL0     C 7072   2.708   4.630   2.479 -0.0332 -0.1247  0.0852
   52MOL0     C 7073   2.579   4.656   2.515  0.9683  0.0135 -0.3904
   52MOL0     O 7074   2.480   4.570   2.493  0.6196 -0.4019 -0.1630
   52MOL0     C 7075   2.464   4.519   2.363  0.6359 -0.3270 -0.1547
   52MOL0     C 7076   2.343   4.418   2.352  0.3123 -0.1016  0.2756
   52MOL0     C 7077   2.205   4.481   2.377  0.9497 -0.4481  0.5923
   52MOL0     C 7078   2.093   4.375   2.343  0.0323 -0.9111  0.2989
   52MOL0     C 7079   1.940   4.430   2.348  0.0721  0.5204  0.2691
   52MOL0     C 7080   1.897   4.525   2.233 -0.2947 -0.2199 -1.0001
   52MOL0     C 7081   1.753   4.565   2.244 -0.2817 -0.2585 -0.1228
   52MOL0     C 7082   1.727   4.659   2.138 -0.1490 -0.0080 -0.3600
   52MOL0    Cl 7083   1.583   4.743   2.192 -0.2032 -0.3800  0.0406
   52MOL0     C 7084   2.564   4.756   2.611 -0.3657 -0.1054  0.8421
   52MOL0     C 7085   2.664   4.846   2.646  0.1707 -0.6514  0.6556
   52MOL0     O 7086   3.091   4.812   2.560  0.0030  0.1888  0.3782
   52MOL0     C 7087   3.256   5.009   2.665  0.3246 -0.1519 -0.0498
   52MOL0     C 7088   3.348   5.116   2.716 -0.0317  0.2806  0.4613
   52MOL0     N 7089   3.445   5.618   3.186  1.0328 -0.2950 -0.4887
   52MOL0     N 7090   3.335   5.694   3.191  0.4985 -0.8163  0.1216
   52MOL0     C 7091   3.082   5.277   2.300 -0.2922  0.6005 -0.7595
   52MOL0     C 7092   3.063   5.193   2.189  0.4662  0.4079 -1.1096
   52MOL0     C 7093   2.982   5.139   1.714  0.3944 -0.7738  0.5431
   52MOL0     C 7094   3.087   5.043   1.698 -1.0179  0.3402 -0.5618
   52MOL0     C 7095   3.119   4.977   1.583  0.3282  0.7302 -0.2052
   52MOL0     C 7096   3.038   5.004   1.469 -0.0518 -0.3620 -0.5322
   52MOL0     O 7097   3.068   4.951   1.350 -0.2343  0.2365 -0.6730
   52MOL0     C 7098   3.070   5.037   1.231 -0.2591  0.5764  0.5468
   52MOL0     C 7099   3.093   4.936   1.112 -0.5288 -0.5788  0.5476
   52MOL0     C 7100   3.227   4.867   1.106  0.6927  0.0213  0.4917
   52MOL0     C 7101   3.292   4.864   0.967  0.1272  0.8209 -0.0449
   52MOL0     C 7102   3.208   4.825   0.855  0.1022 -1.5030  0.4596
   52MOL0     C 7103   3.152   4.789   0.756 -0.3475 -0.1215  1.0865
   52MOL0     C 7104   2.923   5.085   1.486  0.0236  0.8888 -0.3754
   52MOL0     C 7105   2.889   5.150   1.609  0.5088 -0.3561  0.1406
   52MOL0     C 7106   2.768   5.241   1.618 -0.8247  0.2554  0.3860
   52MOL0     H 7107   3.098   5.431   1.955 -2.5314 -0.5063 -0.6895
   52MOL0     H 7108   3.114   5.577   2.150 -2.0178  0.4058  0.6726
   52MOL0     H 7109   3.280   5.408   2.499 -0.0792 -1.3761  0.9890
   52MOL0     H 7110   3.114   5.391   2.569  1.4085 -2.4677 -0.2562
   52MOL0     H 7111   3.249   5.541   2.709 -0.6891  0.2844  0.7859
   52MOL0     H 7112   3.301   5.631   2.568  0.2287 -0.5163 -1.9197
   52MOL0     H 7113   3.066   5.708   2.529  0.1228 -1.3694  0.0552
   52MOL0     H 7114   3.016   5.639   2.690  2.7594 -0.9843  4.1870
   52MOL0     H 7115   3.256   5.815   2.656  0.6703 -1.5486  0.2466
   52MOL0     H 7116   3.098   5.892   2.682 -0.5659  0.4462  0.4654
   52MOL0     H 7117   3.175   5.899   2.883  1.9308 -0.3259  0.4996
   52MOL0     H 7118   3.251   5.739   2.893 -0.9340 -1.2436  0.6450
   52MOL0     H 7119   2.947   5.759   2.880 -0.0906  0.3416  0.3383
   52MOL0     H 7120   3.051   5.618   2.923  0.1315 -0.2742  1.3703
   52MOL0     H 7121   2.961   5.781   3.137  2.5831 -1.2965  2.8342
   52MOL0     H 7122   3.110   5.843   3.108 -0.0651 -1.5380  2.7654
   52MOL0     H 7123   3.079   5.630   3.256 -1.0715 -4.3473 -0.8749
   52MOL0     H 7124   3.052   5.535   3.112  0.3676 -0.8638 -0.1448
   52MOL0     H 7125   3.239   5.414   3.040  2.4088 -0.7147 -2.0292
   52MOL0     H 7126   3.453   5.294   3.074 -2.2388  2.0229 -1.5254
   52MOL0     H 7127   3.518   5.353   3.218  2.0088  0.7153 -0.2195
   52MOL0     H 7128   3.664   5.504   3.062 -2.7908  3.0690 -0.4574
   52MOL0     H 7129   3.688   5.332   3.016 -1.7222 -0.2782 -1.0575
   52MOL0     H 7130   3.489   5.507   2.878  0.0353  0.0226  1.4869
   52MOL0     H 7131   3.661   5.475   2.820  2.5978  0.9567  2.1662
   52MOL0     H 7132   3.530   5.315   2.709  1.2274 -2.1521  0.8461
   52MOL0     H 7133   3.550   5.226   2.874  0.5456  1.1561  1.1906
   52MOL0     H 7134   3.111   5.337   2.813  2.0571  1.4786 -0.8023
   52MOL0     H 7135   2.878   5.285   2.713 -2.9888 -0.4378  1.4371
   52MOL0     H 7136   2.856   5.131   2.795  2.0605 -0.1477  1.1011
   52MOL0     H 7137   2.860   5.150   2.618 -0.2211 -2.9023  0.6728
   52MOL0     H 7138   2.909   4.699   2.467  1.5529  1.3096  1.1612
   52MOL0     H 7139   2.736   4.548   2.413  2.5473 -0.8849  1.9340
   52MOL0     H 7140   2.458   4.599   2.289  0.2351 -1.7176 -1.6965
   52MOL0     H 7141   2.551   4.457   2.339  1.3444  0.4854  0.2826
   52MOL0     H 7142   2.331   4.390   2.247 -1.5822 -0.1965  0.4811
   52MOL0     H 7143   2.360   4.330   2.415  0.6816 -0.4127 -0.2477
   52MOL0     H 7144   2.199   4.565   2.307  0.9485  1.9932  3.3303
   52MOL0     H 7145   2.192   4.507   2.482  0.7404  1.5477  0.1027
   52MOL0     H 7146   2.095   4.298   2.421  0.6493 -2.6301 -1.3333
   52MOL0     H 7147   2.117   4.340   2.242 -1.8961 -0.7361 -0.2590
   52MOL0     H 7148   1.872   4.344   2.354  1.4349 -0.5821  0.2718
   52MOL0     H 7149   1.932   4.497   2.434 -5.2904  0.2460  0.3356
   52MOL0     H 7150   1.904   4.486   2.131 -1.9055  1.3940 -1.7909
   52MOL0     H 7151   1.955   4.618   2.237 -1.5229  0.5107  0.9883
   52MOL0     H 7152   1.728   4.605   2.343  1.9031 -0.9987  0.8088
   52MOL0     H 7153   1.696   4.474   2.223  1.5334 -1.6743  0.7608
   52MOL0     H 7154   1.707   4.615   2.040  1.4513  0.3598 -0.8829
   52MOL0     H 7155   1.801   4.739   2.138  0.2764 -0.3933  0.3938
   52MOL0     H 7156   2.471   4.775   2.662 -1.1513 -3.2607  0.8025
   52MOL0     H 7157   2.633   4.921   2.717  1.0654 -0.4156  0.8093
   52MOL0     H 7158   3.309   4.929   2.614 -1.5257 -2.4884  1.5259
   52MOL0     H 7159   3.456   5.112   2.707  0.0542  3.2200 -1.3693
   52MOL0     H 7160   3.088   5.223   2.393  0.7489 -0.5205 -1.4438
   52MOL0     H 7161   3.051   5.087   2.208 -0.7311  1.1181  3.2002
   52MOL0     H 7162   3.142   5.025   1.789 -1.0082  0.4469 -0.5464
   52MOL0     H 7163   3.200   4.907   1.569  1.6870  2.1817  0.0725
   52MOL0     H 7164   2.975   5.087   1.214 -0.4172  0.5858  1.4100
   52MOL0     H 7165   3.145   5.115   1.245 -0.0569  0.9461 -2.1988
   52MOL0     H 7166   3.086   4.994   1.020  1.8854 -1.2605 -0.1445
   52MOL0     H 7167   3.014   4.859   1.108 -3.1411  1.7216  3.2487
   52MOL0     H 7168   3.298   4.913   1.176 -1.6122 -1.9827  4.4856
   52MOL0     H 7169   3.216   4.764   1.139  0.6612 -0.3387 -0.6211
   52MOL0     H 7170   3.380   4.799   0.966  1.8755  2.9976 -2.6110
   52MOL0     H 7171   3.328   4.966   0.952 -1.1330  1.3753  0.5330
   52MOL0     H 7172   3.101   4.763   0.665  0.1639  1.2622  0.3735
   52MOL0     H 7173   2.868   5.115   1.397  2.6261  3.9651 -1.1632
   52MOL0     H 7174   2.806   5.343   1.618  0.9484 -0.3475  1.6252
   52MOL0     H 7175   2.699   5.224   1.534 -1.0202 -3.2396  1.0937
   52MOL0     H 7176   2.704   5.227   1.705 -2.7547 -1.4807 -1.1964
   53MOL0     O 7177  10.101   6.884   9.601 -0.0183 -0.2275 -0.4233
   53MOL0     C 7178  10.148   6.993   9.583  0.3725  0.0984 -0.4233
   53MOL0     O 7179  10.241   7.034   9.492  0.0479 -0.4629 -0.1292
   53MOL0     C 7180  10.250   6.972   9.371  0.3999  0.0990  0.1883
   53MOL0     C 7181  10.298   6.841   9.364 -0.7192  0.5815  0.0291
   53MOL0     C 7182  10.320   6.776   9.233  0.7938  0.3140  0.0689
   53MOL0     C 7183  10.297   6.847   9.112 -1.0950 -0.1797  0.3727
   53MOL0     O 7184  10.329   6.805   8.980  0.8060  0.1657 -0.3010
   53MOL0     C 7185  10.299   6.673   8.934 -0.0089  0.0569  0.0625
   53MOL0     C 7186  10.400   6.615   8.832  0.6489  0.1054 -0.2331
   53MOL0     C 7187  10.373   6.485   8.758  0.4576  0.0122  0.3442
   53MOL0     C 7188  10.498   6.438   8.679 -0.3022 -0.0278  0.3479
   53MOL0     C 7189  10.486   6.294   8.616 -0.1136 -0.5310 -0.2016
   53MOL0     C 7190  10.604   6.195   8.637  0.0059  0.0565 -0.0334
   53MOL0     C 7191  10.554   6.055   8.658  0.0929  0.2362 -0.5016
   53MOL0     C 7192  10.679   5.953   8.662  0.0695 -0.8848 -0.2418
   53MOL0     N 7193  10.663   5.821   8.704  0.7750  0.6477  0.3737
   53MOL0     C 7194  10.762   5.741   8.741 -0.7813  1.1754  0.5316
   53MOL0     C 7195  10.705   5.620   8.770 -0.0196 -0.2346  0.0974
   53MOL0     C 7196  10.796   5.497   8.795 -0.0503  0.1905  0.4391
   53MOL0     C 7197  10.731   5.348   8.809 -0.1470  0.2509  0.9378
   53MOL0     C 7198  10.821   5.248   8.884  0.8306  0.1379  0.1790
   53MOL0     C 7199  10.790   5.211   9.038  0.1004  0.4693  0.1207
   53MOL0     O 7200  10.852   5.313   9.119 -0.7131  0.4553  0.1127
   53MOL0     C 7201  10.768   5.390   9.191  0.0136  0.1134 -0.2350
   53MOL0     C 7202  10.635   5.430   9.148 -0.5379 -0.7012  0.3671
   53MOL0     C 7203  10.562   5.530   9.212 -0.2542 -0.0185  0.4105
   53MOL0     C 7204  10.427   5.564   9.158 -0.2689 -0.5977  1.0510
   53MOL0     C 7205  10.623   5.599   9.317  0.4119 -0.0018  0.8911
   53MOL0     C 7206  10.572   5.716   9.389  0.1608 -0.0572 -0.1458
   53MOL0     O 7207  10.434   5.714   9.405 -0.1394  0.6978 -0.5144
   53MOL0     C 7208  10.367   5.822   9.465 -0.6938 -0.5792  0.3022
   53MOL0     C 7209  10.252   5.875   9.391 -0.6228 -0.3430 -0.4626
   53MOL0     C 7210  10.185   5.988   9.434 -0.3783 -0.5492 -0.3769
   53MOL0     C 7211  10.225   6.055   9.550 -0.1612  0.2810 -0.2850
   53MOL0     O 7212  10.168   6.166   9.607 -0.1413  0.0414  0.7321
   53MOL0     C 7213  10.076   6.256   9.541  0.1050  0.0317  0.1996
   53MOL0     C 7214   9.937   6.216   9.572  0.3630  1.0156  1.1662
   53MOL0     C 7215   9.924   6.212   9.726  0.7478  0.6127  0.4437
   53MOL0     C 7216   9.770   6.179   9.763  0.5993  0.5128  0.6102
   53MOL0     C 7217   9.687   6.310   9.750 -0.0501  0.3970 -0.8263
   53MOL0     C 7218   9.555   6.274   9.825 -0.3584 -0.2517  0.0424
   53MOL0     C 7219   9.514   6.374   9.928  0.0701 -0.4368 -0.1437
   53MOL0     C 7220   9.391   6.353  10.018  0.1193  1.2412  0.4596
   53MOL0    Cl 7221   9.343   6.497  10.115  0.0692  0.1314  0.2807
   53MOL0     C 7222  10.343   6.013   9.611  0.7467  0.0005 -0.8234
   53MOL0     C 7223  10.415   5.897   9.571  1.8201 -0.6484  0.2081
   53MOL0     O 7224  10.646   5.805   9.436 -0.1892  0.0295 -0.1141
   53MOL0     C 7225  10.753   5.576   9.356  0.5467 -0.4745 -0.6293
   53MOL0     C 7226  10.817   5.471   9.302 -1.5859  0.1291  1.0289
   53MOL0     N 7227  10.570   5.633   8.767 -0.4662  0.1394  0.3629
   53MOL0     N 7228  10.546   5.755   8.717  0.3528  0.5835 -0.7927
   53MOL0     C 7229  10.245   6.977   9.119 -0.5475 -0.8221 -0.4399
   53MOL0     C 7230  10.217   7.030   9.245  1.0482 -1.1547 -0.4441
   53MOL0     C 7231  10.072   7.102   9.655  0.4735 -0.6264  0.4027
   53MOL0     C 7232  10.096   7.235   9.613 -0.0890  0.4597 -0.3536
   53MOL0     C 7233  10.037   7.344   9.676  0.2198 -0.5038 -0.5799
   53MOL0     C 7234   9.961   7.316   9.788 -0.0384 -0.3512  0.3275
   53MOL0     O 7235   9.923   7.426   9.867  0.2566  0.3361  0.2345
   53MOL0     C 7236  10.013   7.488   9.950 -0.0239  0.4416  0.2505
   53MOL0     C 7237   9.950   7.532  10.083 -0.2678 -0.7546  0.4367
   53MOL0     C 7238   9.929   7.421  10.181  0.5898 -0.4964 -0.4317
   53MOL0     C 7239   9.885   7.481  10.310  0.2820 -0.4079 -1.0064
   53MOL0     C 7240   9.872   7.379  10.413  0.7948 -0.5260 -0.3421
   53MOL0     C 7241   9.855   7.302  10.505  0.3145  1.1928 -0.0603
   53MOL0     C 7242   9.919   7.190   9.820 -0.1319  0.6847  0.1301
   53MOL0     C 7243   9.970   7.078   9.758  0.2413  0.2320 -0.6750
   53MOL0     C 7244   9.914   6.942   9.800  0.0386 -0.7583  0.1965
   53MOL0     H 7245  10.329   6.771   9.441  2.9774  1.3843 -0.5316
   53MOL0     H 7246  10.373   6.682   9.218 -1.1985 -1.3308  2.4292
   53MOL0     H 7247  10.206   6.678   8.876  0.4910  2.6894 -0.6649
   53MOL0     H 7248  10.272   6.607   9.017 -2.7459  3.6574  2.3480
   53MOL0     H 7249  10.423   6.684   8.750  0.2065  0.1228 -0.3447
   53MOL0     H 7250  10.491   6.594   8.888  0.7561  0.1552 -0.3887
   53MOL0     H 7251  10.346   6.414   8.837  2.5684 -1.8068 -0.4720
   53MOL0     H 7252  10.293   6.496   8.684 -1.2979 -0.6150  2.0267
   53MOL0     H 7253  10.515   6.518   8.607  1.6983  0.5581  1.3914
   53MOL0     H 7254  10.583   6.447   8.747 -0.2733  1.0944  0.1668
   53MOL0     H 7255  10.449   6.311   8.515 -2.8061  1.9127  1.0598
   53MOL0     H 7256  10.398   6.250   8.664 -1.9854  1.0260 -2.0514
   53MOL0     H 7257  10.670   6.199   8.550  0.0103 -1.1379 -0.1014
   53MOL0     H 7258  10.661   6.233   8.723 -0.1124  2.9708 -1.1212
   53MOL0     H 7259  10.483   6.024   8.580 -0.8863  0.7610  0.1646
   53MOL0     H 7260  10.510   6.052   8.758 -0.7004  0.5740 -0.8358
   53MOL0     H 7261  10.733   5.957   8.567  2.8174  0.6974  1.2503
   53MOL0     H 7262  10.757   5.999   8.725 -1.3344  2.8716 -0.9416
   53MOL0     H 7263  10.868   5.761   8.728 -0.2088 -1.7506 -0.1234
   53MOL0     H 7264  10.856   5.518   8.884  1.8201 -0.9054 -0.5185
   53MOL0     H 7265  10.867   5.492   8.712 -0.0740  0.0618  0.4280
   53MOL0     H 7266  10.637   5.339   8.865 -2.1703 -2.8401 -2.5076
   53MOL0     H 7267  10.697   5.303   8.715  1.8816  0.3086  0.1480
   53MOL0     H 7268  10.819   5.157   8.824 -0.3759  0.5356 -0.4182
   53MOL0     H 7269  10.919   5.298   8.880  0.4499  1.4280  3.6039
   53MOL0     H 7270  10.683   5.192   9.049  0.1701  0.0432  0.0850
   53MOL0     H 7271  10.844   5.116   9.047 -0.2723  0.2954  0.5781
   53MOL0     H 7272  10.581   5.384   9.065 -1.1468 -0.9570  0.8945
   53MOL0     H 7273  10.415   5.532   9.054 -0.3853  1.4217  0.4043
   53MOL0     H 7274  10.404   5.671   9.159 -0.1933 -0.5809  2.7821
   53MOL0     H 7275  10.343   5.512   9.205 -0.2963 -1.4041  0.1468
   53MOL0     H 7276  10.228   5.835   9.293  2.5533  0.0708 -1.5300
   53MOL0     H 7277  10.108   6.039   9.377 -1.7892 -1.2356  0.8342
   53MOL0     H 7278  10.113   6.352   9.578  0.5475  0.9528 -2.3982
   53MOL0     H 7279  10.092   6.270   9.434  0.8696  0.6505  0.3815
   53MOL0     H 7280   9.866   6.287   9.529 -1.2787 -0.3575  1.5311
   53MOL0     H 7281   9.911   6.121   9.525  0.4415  1.3684  0.3914
   53MOL0     H 7282   9.955   6.304   9.777 -0.7714  0.5295  1.5710
   53MOL0     H 7283   9.984   6.135   9.775 -0.9606  0.2984  2.1452
   53MOL0     H 7284   9.763   6.136   9.864  0.9223 -3.2022 -0.7898
   53MOL0     H 7285   9.730   6.096   9.703 -1.1506  1.1468  0.8306
   53MOL0     H 7286   9.737   6.393   9.799 -2.6563  2.8212 -1.9781
   53MOL0     H 7287   9.665   6.342   9.648  0.2104  2.9200 -0.1471
   53MOL0     H 7288   9.563   6.179   9.878  0.0487 -1.7614 -2.5361
   53MOL0     H 7289   9.475   6.275   9.750 -2.4520  1.1021  2.1561
   53MOL0     H 7290   9.489   6.460   9.864 -0.0776  0.8805  1.6210
   53MOL0     H 7291   9.602   6.399   9.987  1.2482 -2.2874 -1.0313
   53MOL0     H 7292   9.424   6.266  10.074  2.8392  1.6381 -0.4020
   53MOL0     H 7293   9.297   6.325   9.970  0.5650  1.0473 -0.3166
   53MOL0     H 7294  10.382   6.086   9.681 -1.7187  1.1786 -0.5663
   53MOL0     H 7295  10.505   5.863   9.621  2.5064 -1.9746 -1.7942
   53MOL0     H 7296  10.806   5.640   9.426 -1.2686  0.7532 -0.3133
   53MOL0     H 7297  10.920   5.443   9.324 -1.7929 -1.5658  0.0458
   53MOL0     H 7298  10.235   7.035   9.028  1.8411  1.0782  0.3842
   53MOL0     H 7299  10.181   7.132   9.244  1.4855 -0.9517 -3.3107
   53MOL0     H 7300  10.164   7.249   9.530  0.1472  2.4392  0.1349
   53MOL0     H 7301  10.077   7.443   9.653  0.2305 -0.2878  0.3580
   53MOL0     H 7302  10.102   7.426   9.965 -0.8393 -0.6310  0.7876
   53MOL0     H 7303  10.039   7.586   9.908  1.8513  1.1729  2.8042
   53MOL0     H 7304   9.855   7.585  10.065 -1.1791 -2.4942 -0.1008
   53MOL0     H 7305  10.021   7.604  10.124 -0.3341 -0.7213  0.4939
   53MOL0     H 7306   9.867   7.340  10.141 -0.9417  0.2344  0.3754
   53MOL0     H 7307  10.032   7.389  10.199  0.6587 -0.8121 -1.3037
   53MOL0     H 7308   9.783   7.521  10.310  0.4875  0.1415 -0.4407
   53MOL0     H 7309   9.964   7.551  10.340  1.5249 -1.8841 -0.7053
   53MOL0     H 7310   9.830   7.230  10.579 -0.6792  1.7288  0.1508
   53MOL0     H 7311   9.847   7.185   9.901 -2.3217  0.6389 -1.7173
   53MOL0     H 7312   9.817   6.952   9.849 -2.1295  0.4672 -3.9576
   53MOL0     H 7313   9.891   6.883   9.711 -1.6426  0.1274  0.0090
   53MOL0     H 7314   9.980   6.872   9.851 -0.4853 -2.3557 -1.2341
   54MOL0     O 7315   0.140   0.896   0.147  0.8224  0.1015  0.3023
   54MOL0     C 7316   0.200   0.989   0.088  0.7670 -1.5627 -0.3257
   54MOL0     O 7317   0.328   1.055   0.131  0.2772  0.5558  0.7265
   54MOL0     C 7318   0.382   1.006   0.250  0.2937 -0.7826 -0.6843
   54MOL0     C 7319   0.301   0.995   0.365 -1.2904 -0.4762  0.9424
   54MOL0     C 7320   0.359   0.938   0.475 -0.3603 -0.2331 -0.9788
   54MOL0     C 7321   0.504   0.906   0.477  0.1456 -0.6171 -0.4573
   54MOL0     O 7322   0.555   0.830   0.581 -0.3155  0.1383 -0.1534
   54MOL0     C 7323   0.670   0.886   0.649  1.1504 -0.1557  0.4684
   54MOL0     C 7324   0.644   0.934   0.794  0.8660  0.5247  0.3186
   54MOL0     C 7325   0.713   0.837   0.889 -0.0951 -0.0484  0.2812
   54MOL0     C 7326   0.866   0.867   0.910  0.2433 -0.0587 -0.8933
   54MOL0     C 7327   0.921   0.761   0.997 -0.5066  0.1695  0.1898
   54MOL0     C 7328   0.851   0.733   1.129  0.1022 -0.3663  0.1281
   54MOL0     C 7329   0.867   0.859   1.214 -0.4837  0.1244  0.4146
   54MOL0     C 7330   0.779   0.834   1.340 -0.1314 -0.6172 -0.1869
   54MOL0     N 7331   0.788   0.954   1.421  0.2450  0.8632 -0.4865
   54MOL0     C 7332   0.903   1.011   1.466  0.0646  0.0714 -0.2477
   54MOL0     C 7333   0.871   1.127   1.525  0.4257 -0.1390 -0.2497
   54MOL0     C 7334   0.961   1.208   1.612 -0.4798 -0.3919  0.7143
   54MOL0     C 7335   0.961   1.353   1.564 -0.0705 -0.3608  0.3324
   54MOL0     C 7336   1.049   1.443   1.641 -1.0992  0.7175 -0.3360
   54MOL0     C 7337   1.049   1.594   1.610  0.0011 -0.2114 -0.7511
   54MOL0     O 7338   1.089   1.619   1.476  0.0141 -0.0806 -0.6068
   54MOL0     C 7339   1.079   1.750   1.433 -1.2303 -0.0186 -0.8925
   54MOL0     C 7340   1.077   1.767   1.296 -0.4089  0.0871 -0.1926
   54MOL0     C 7341   1.060   1.891   1.229 -0.3815 -0.5083 -0.3268
   54MOL0     C 7342   1.066   1.894   1.083  0.5333  0.8361 -0.0409
   54MOL0     C 7343   1.052   2.007   1.314 -0.4367 -1.1173 -0.1050
   54MOL0     C 7344   1.042   2.146   1.247  0.2690  0.9963 -0.1311
   54MOL0     O 7345   0.982   2.165   1.120 -0.8512  0.1729  0.2844
   54MOL0     C 7346   0.997   2.289   1.051  0.4585 -0.2415 -0.6028
   54MOL0     C 7347   1.117   2.364   1.046  0.5982  0.1116  0.1363
   54MOL0     C 7348   1.128   2.473   0.955  0.2549  0.0751 -0.3082
   54MOL0     C 7349   1.013   2.520   0.884  0.0861  0.6396 -0.3414
   54MOL0     O 7350   1.019   2.633   0.817  0.2867 -0.0909 -0.0906
   54MOL0     C 7351   0.914   2.663   0.721 -0.4095 -0.2653  1.5148
   54MOL0     C 7352   0.972   2.776   0.635  0.1575  0.2372 -0.0333
   54MOL0     C 7353   0.858   2.850   0.556 -0.3175 -0.5892 -0.4427
   54MOL0     C 7354   0.840   2.782   0.420  0.4691  0.0654  0.3505
   54MOL0     C 7355   0.742   2.871   0.340 -0.6714  0.3000 -0.3045
   54MOL0     C 7356   0.715   2.808   0.192 -0.1451 -0.3506 -0.3320
   54MOL0     C 7357   0.650   2.921   0.100 -0.9232  1.3079 -0.4428
   54MOL0     C 7358   0.597   2.846  -0.024  1.0336 -0.1579 -0.1762
   54MOL0    Cl 7359   0.745   2.781  -0.118  0.5082 -0.0962 -0.1006
   54MOL0     C 7360   0.898   2.434   0.880 -0.1857 -1.0220 -0.0886
   54MOL0     C 7361   0.892   2.327   0.967  0.3770  0.4047  0.5571
   54MOL0     O 7362   1.114   2.232   1.308  0.0670  0.1186  0.4894
   54MOL0     C 7363   1.073   1.990   1.449  0.8515 -0.0903 -0.7013
   54MOL0     C 7364   1.072   1.869   1.513 -0.5057 -0.1974 -0.3696
   54MOL0     N 7365   0.733   1.142   1.499  0.0757 -0.0076 -0.2971
   54MOL0     N 7366   0.681   1.036   1.446 -0.2025 -0.3050 -0.3755
   54MOL0     C 7367   0.582   0.937   0.371 -0.7853  2.1219  0.5541
   54MOL0     C 7368   0.517   0.974   0.259 -0.2502 -0.2311  0.7890
   54MOL0     C 7369   0.127   1.061  -0.022 -0.3998  0.0516  0.2421
   54MOL0     C 7370   0.145   1.201  -0.033  0.4852 -0.0828 -1.0949
   54MOL0     C 7371   0.097   1.280  -0.129  0.9629 -0.3758  0.2336
   54MOL0     C 7372   0.014   1.223  -0.229 -0.8886  0.3882  0.4725
   54MOL0     O 7373  -0.023   1.313  -0.328  0.0166  0.7048 -0.0529
   54MOL0     C 7374  -0.106   1.258  -0.433  0.6386  1.3918 -1.3443
   54MOL0     C 7375  -0.154   1.384  -0.510  0.3015  0.0200  0.5694
   54MOL0     C 7376  -0.103   1.402  -0.653 -0.1264  1.0325  0.6531
   54MOL0     C 7377   0.047   1.432  -0.673  0.1073  0.3319 -0.0952
   54MOL0     C 7378   0.069   1.536  -0.775  1.1948 -0.6444 -0.0133
   54MOL0     C 7379   0.072   1.622  -0.861  0.6469 -0.4318  0.5289
   54MOL0     C 7380  -0.016   1.085  -0.215  0.2128 -0.9816 -0.4785
   54MOL0     C 7381   0.042   1.001  -0.111  0.3022 -0.2181 -0.6854
   54MOL0     C 7382   0.001   0.851  -0.112  0.1777  0.3087 -0.0700
   54MOL0     H 7383   0.202   1.037   0.352 -1.0909 -0.4832 -0.8032
   54MOL0     H 7384   0.304   0.905   0.562  1.8906 -0.5944  0.3739
   54MOL0     H 7385   0.705   0.976   0.597 -1.1037  0.4253 -0.1583
   54MOL0     H 7386   0.755   0.818   0.656  3.6909  3.0167  3.8287
   54MOL0     H 7387   0.674   1.039   0.803  0.6130  0.8250 -1.7990
   54MOL0     H 7388   0.536   0.936   0.805  0.3547  1.5859 -3.5617
   54MOL0     H 7389   0.651   0.852   0.978 -2.3516 -1.0522 -1.0280
   54MOL0     H 7390   0.689   0.731   0.872  0.8897  0.0285 -1.9078
   54MOL0     H 7391   0.931   0.876   0.823  2.2822  2.0372  0.7240
   54MOL0     H 7392   0.881   0.962   0.962  1.4148 -0.8583  0.3072
   54MOL0     H 7393   1.022   0.797   1.019 -0.8266 -0.1748  2.4820
   54MOL0     H 7394   0.932   0.664   0.946  0.9120  1.3582 -1.9012
   54MOL0     H 7395   0.746   0.713   1.106  0.7134 -2.2255 -1.2351
   54MOL0     H 7396   0.885   0.644   1.183  0.3381 -1.2687 -1.4639
   54MOL0     H 7397   0.836   0.953   1.168  1.2344  0.7888  0.5176
   54MOL0     H 7398   0.976   0.862   1.230  0.3594 -3.2935 -3.2161
   54MOL0     H 7399   0.673   0.830   1.315 -0.1584 -0.4535 -0.0994
   54MOL0     H 7400   0.815   0.742   1.388 -2.5966 -0.5972  1.8713
   54MOL0     H 7401   1.003   0.968   1.467  0.4564  0.6013  4.5458
   54MOL0     H 7402   1.066   1.176   1.617 -0.0828  0.6623 -0.3483
   54MOL0     H 7403   0.921   1.220   1.713  0.9882 -0.1002  1.2854
   54MOL0     H 7404   0.989   1.345   1.459 -2.1388 -3.3190 -0.1263
   54MOL0     H 7405   0.861   1.389   1.587 -0.7638 -0.9684 -1.5893
   54MOL0     H 7406   1.021   1.421   1.744 -0.3347  0.1311 -0.2419
   54MOL0     H 7407   1.151   1.405   1.629 -2.3404 -2.7677 -1.0726
   54MOL0     H 7408   0.956   1.648   1.630  0.2282 -0.6065  1.6319
   54MOL0     H 7409   1.127   1.635   1.675 -0.2629 -0.3967 -0.3134
   54MOL0     H 7410   1.103   1.681   1.235 -0.2831 -2.1150  2.7755
   54MOL0     H 7411   0.974   1.941   1.047 -0.6433 -0.4502  1.2052
   54MOL0     H 7412   1.085   1.793   1.045  0.5417  1.0571 -0.6351
   54MOL0     H 7413   1.151   1.956   1.051  1.9336  0.1332  2.0939
   54MOL0     H 7414   1.203   2.339   1.108  1.7041  0.1655 -1.3252
   54MOL0     H 7415   1.215   2.537   0.955 -1.8139  3.1250  0.4921
   54MOL0     H 7416   0.885   2.579   0.657 -0.5340 -0.6794  2.1094
   54MOL0     H 7417   0.814   2.690   0.757  0.8902  0.1746  5.1548
   54MOL0     H 7418   1.011   2.852   0.704 -1.3485  1.5775 -0.5891
   54MOL0     H 7419   1.049   2.737   0.568 -0.8158  3.6703 -3.4905
   54MOL0     H 7420   0.890   2.954   0.542 -2.1215  0.0571 -0.0756
   54MOL0     H 7421   0.760   2.846   0.605 -1.0452 -0.5309 -1.8133
   54MOL0     H 7422   0.816   2.675   0.427  3.2594 -0.7639 -0.9951
   54MOL0     H 7423   0.935   2.794   0.368 -0.2701  0.8039 -0.8659
   54MOL0     H 7424   0.646   2.886   0.391  0.5278 -1.6276  2.7881
   54MOL0     H 7425   0.790   2.969   0.328 -0.3283 -0.1317 -3.2904
   54MOL0     H 7426   0.644   2.724   0.201 -0.2414 -0.0592  2.5264
   54MOL0     H 7427   0.806   2.771   0.144  0.6566 -0.8784  1.5096
   54MOL0     H 7428   0.724   2.993   0.064 -0.7482  1.5535  0.3962
   54MOL0     H 7429   0.566   2.970   0.150 -3.0382 -3.0981  0.8778
   54MOL0     H 7430   0.543   2.917  -0.087 -2.9576 -0.1962  2.8737
   54MOL0     H 7431   0.524   2.772   0.009  1.3822 -0.3715  0.1245
   54MOL0     H 7432   0.814   2.441   0.811 -0.0303 -5.3589 -0.9995
   54MOL0     H 7433   0.801   2.268   0.979  0.0466 -0.6235 -4.6259
   54MOL0     H 7434   1.085   2.077   1.512  2.3402 -1.3977  0.9019
   54MOL0     H 7435   1.077   1.878   1.621 -0.3651 -2.6640 -0.1213
   54MOL0     H 7436   0.682   0.897   0.368 -1.3521  0.5832  1.0194
   54MOL0     H 7437   0.586   0.984   0.175  1.6004 -1.0453  2.1402
   54MOL0     H 7438   0.210   1.241   0.044  0.6769 -1.1774 -0.6597
   54MOL0     H 7439   0.123   1.385  -0.136 -3.2698  0.8686  0.3779
   54MOL0     H 7440  -0.068   1.192  -0.512  1.5624  1.0477 -0.6155
   54MOL0     H 7441  -0.197   1.212  -0.394  2.3105 -1.9725 -1.0791
   54MOL0     H 7442  -0.141   1.473  -0.447 -3.1195 -1.4833  3.7754
   54MOL0     H 7443  -0.261   1.366  -0.522  0.3876  0.2622 -0.7016
   54MOL0     H 7444  -0.124   1.299  -0.686 -0.4105  1.0497  0.7858
   54MOL0     H 7445  -0.170   1.463  -0.714 -1.4386  0.1792  1.2034
   54MOL0     H 7446   0.090   1.343  -0.719  0.4883 -0.0119  0.9111
   54MOL0     H 7447   0.090   1.451  -0.574 -0.3461 -2.2530  0.6444
   54MOL0     H 7448   0.073   1.699  -0.935  0.5512 -0.0978  0.8708
   54MOL0     H 7449  -0.067   1.022  -0.287 -2.4256  2.4020 -1.8483
   54MOL0     H 7450  -0.089   0.831  -0.172 -0.0291  2.7712 -0.6738
   54MOL0     H 7451   0.076   0.776  -0.138 -3.2831 -3.7940  0.6714
   54MOL0     H 7452  -0.034   0.816  -0.014  1.1508  0.9355  0.5123
   55MOL0     O 7453   3.180  10.813   0.309 -0.1298  0.6053 -0.1540
   55MOL0     C 7454   3.113  10.728   0.242 -0.2735  0.4279 -0.0063
   55MOL0     O 7455   3.069  10.604   0.289  0.6449  0.2612 -0.6812
   55MOL0     C 7456   3.108  10.550   0.414  1.0736 -0.2451  0.3634
   55MOL0     C 7457   3.162  10.419   0.411 -0.0581  0.1380  0.0607
   55MOL0     C 7458   3.213  10.361   0.528  0.1005  0.0175 -0.7524
   55MOL0     C 7459   3.200  10.441   0.647  0.7019  0.6182  0.3081
   55MOL0     O 7460   3.239  10.393   0.770 -0.0449 -0.2623  0.3297
   55MOL0     C 7461   3.213  10.253   0.795 -0.7648 -0.3899  0.1542
   55MOL0     C 7462   3.304  10.212   0.905 -0.6846 -0.4563  1.3850
   55MOL0     C 7463   3.438  10.155   0.845 -0.1215 -1.0550  0.4349
   55MOL0     C 7464   3.545  10.126   0.964  0.2413  0.2589  0.3765
   55MOL0     C 7465   3.651  10.035   0.899  0.4584  0.4076  0.7115
   55MOL0     C 7466   3.784  10.021   0.976 -0.1625 -0.3018 -0.4235
   55MOL0     C 7467   3.883   9.930   0.910 -0.1540  0.1680 -0.3441
   55MOL0     C 7468   3.840   9.792   0.875 -0.3661  1.0611 -0.0702
   55MOL0     N 7469   3.790   9.712   0.999  0.4168  0.0301  0.4924
   55MOL0     C 7470   3.864   9.630   1.086  0.4895 -0.1245 -0.1127
   55MOL0     C 7471   3.773   9.573   1.166  0.4102 -0.5701 -0.0928
   55MOL0     C 7472   3.790   9.465   1.273 -0.4945 -1.1956 -0.0584
   55MOL0     C 7473   3.720   9.332   1.233 -0.5913 -0.8128  0.3139
   55MOL0     C 7474   3.809   9.212   1.227 -0.4953 -0.4248 -0.3685
   55MOL0     C 7475   3.845   9.168   1.374  0.4053  0.5563 -0.8640
   55MOL0     O 7476   3.879   9.024   1.376  0.1791  1.0696 -0.1271
   55MOL0     C 7477   4.007   8.986   1.337  0.0862 -0.1704  0.4805
   55MOL0     C 7478   4.040   8.849   1.348  0.2769  0.0105 -0.6554
   55MOL0     C 7479   4.169   8.792   1.307 -0.1348 -0.3820  0.3208
   55MOL0     C 7480   4.196   8.645   1.334  0.1260  0.4749 -0.6175
   55MOL0     C 7481   4.262   8.886   1.250  0.0173 -0.1708  0.0112
   55MOL0     C 7482   4.399   8.842   1.210 -0.7482 -0.0633 -0.1080
   55MOL0     O 7483   4.469   8.942   1.148  0.5055  0.2123 -0.4164
   55MOL0     C 7484   4.590   8.927   1.088  1.1346  0.0776 -0.0102
   55MOL0     C 7485   4.679   8.819   1.088 -0.8327 -0.3671  0.0715
   55MOL0     C 7486   4.804   8.829   1.033  0.3308  0.9450 -0.2573
   55MOL0     C 7487   4.847   8.954   0.972  0.3564  0.4953 -0.2048
   55MOL0     O 7488   4.975   8.954   0.929 -0.4220 -0.3672  0.4927
   55MOL0     C 7489   5.079   8.972   1.031 -0.4917  0.2062 -0.5667
   55MOL0     C 7490   5.199   8.914   0.974 -0.6808  0.4504 -0.2943
   55MOL0     C 7491   5.332   8.938   1.050  0.0047  0.2853 -0.7448
   55MOL0     C 7492   5.456   8.859   0.984 -0.0203 -1.3286 -0.5573
   55MOL0     C 7493   5.590   8.891   1.064 -0.3355  0.7425  0.3164
   55MOL0     C 7494   5.596   8.798   1.188 -1.2805 -0.7666  0.2388
   55MOL0     C 7495   5.676   8.864   1.307 -0.8093  0.1545 -0.3119
   55MOL0     C 7496   5.630   8.801   1.440 -0.1095 -0.3612 -0.8732
   55MOL0    Cl 7497   5.709   8.890   1.571 -0.4852 -0.0397  0.4815
   55MOL0     C 7498   4.754   9.059   0.967  0.2478 -1.0990  0.0210
   55MOL0     C 7499   4.630   9.044   1.026 -0.3865  0.2444  0.9743
   55MOL0     O 7500   4.448   8.745   1.267 -0.5543 -0.6287 -0.4035
   55MOL0     C 7501   4.225   9.027   1.238  0.6053 -0.0472 -0.1772
   55MOL0     C 7502   4.101   9.071   1.277  0.4800 -0.1692 -0.6852
   55MOL0     N 7503   3.656   9.626   1.128  0.5241  0.8720 -0.4206
   55MOL0     N 7504   3.661   9.705   1.027 -0.2349 -0.2160 -0.3565
   55MOL0     C 7505   3.146  10.570   0.644 -0.9608  0.6580 -0.6576
   55MOL0     C 7506   3.110  10.632   0.533  0.2198 -0.0208  0.5905
   55MOL0     C 7507   3.081  10.765   0.099 -0.0106  0.1369 -0.8472
   55MOL0     C 7508   3.144  10.875   0.042 -0.5240  0.3697 -0.6558
   55MOL0     C 7509   3.127  10.922  -0.085 -0.6057 -0.4054  0.4476
   55MOL0     C 7510   3.037  10.856  -0.166  0.4459  0.0914  0.4542
   55MOL0     O 7511   3.023  10.899  -0.299 -0.1253 -0.1876 -0.7958
   55MOL0     C 7512   2.897  10.870  -0.365  0.5656 -0.9225  1.1750
   55MOL0     C 7513   2.856  10.967  -0.472 -0.0985 -0.0919 -0.4633
   55MOL0     C 7514   2.787  11.095  -0.410 -0.0592 -0.9233 -0.4092
   55MOL0     C 7515   2.735  11.180  -0.524 -0.8989 -0.1981 -0.5558
   55MOL0     C 7516   2.854  11.249  -0.591  0.3674  0.0418 -1.3296
   55MOL0     C 7517   2.946  11.312  -0.642  0.5141 -0.6781  0.1928
   55MOL0     C 7518   2.962  10.745  -0.110  1.1515 -0.3070  0.5179
   55MOL0     C 7519   2.985  10.700   0.021  0.7569 -0.3921 -0.8479
   55MOL0     C 7520   2.900  10.581   0.073  1.1319  1.0965  0.9023
   55MOL0     H 7521   3.180  10.378   0.312  2.2135  2.4658 -0.5899
   55MOL0     H 7522   3.258  10.263   0.521 -2.3076 -1.2089 -0.1050
   55MOL0     H 7523   3.214  10.183   0.711  1.8594 -2.1093  1.4706
   55MOL0     H 7524   3.112  10.249   0.836  0.0084  1.4422  2.4992
   55MOL0     H 7525   3.320  10.294   0.976  2.9759 -0.5543  0.8744
   55MOL0     H 7526   3.266  10.121   0.954 -1.8989 -1.1574 -0.7168
   55MOL0     H 7527   3.419  10.057   0.801  0.9840 -0.1925 -2.1286
   55MOL0     H 7528   3.477  10.235   0.782 -2.3970 -1.3481 -1.4412
   55MOL0     H 7529   3.595  10.218   0.996 -0.1553  0.8516 -0.6670
   55MOL0     H 7530   3.500  10.079   1.052  3.4550 -3.0220  0.5240
   55MOL0     H 7531   3.676  10.066   0.797  0.5303 -1.5277  0.0993
   55MOL0     H 7532   3.604   9.936   0.899  0.7714  0.2519 -0.4648
   55MOL0     H 7533   3.838  10.116   0.985  2.3953 -1.4420 -2.3559
   55MOL0     H 7534   3.751   9.989   1.075 -2.2639 -1.2654 -1.3753
   55MOL0     H 7535   3.968   9.931   0.978  0.3912  1.9419 -0.9871
   55MOL0     H 7536   3.914   9.989   0.823  2.7252 -1.1110 -0.2973
   55MOL0     H 7537   3.764   9.793   0.797 -1.5877 -2.3646  0.9099
   55MOL0     H 7538   3.922   9.738   0.825 -0.6328  0.0295  0.5733
   55MOL0     H 7539   3.971   9.616   1.075  0.2734 -1.3119 -0.9050
   55MOL0     H 7540   3.741   9.501   1.365  1.5729  0.6215  0.3982
   55MOL0     H 7541   3.896   9.451   1.295  1.6453  4.5102 -4.4586
   55MOL0     H 7542   3.631   9.315   1.293  0.4376  0.3527  2.2831
   55MOL0     H 7543   3.682   9.351   1.132 -1.7068 -2.1846  0.4442
   55MOL0     H 7544   3.747   9.130   1.187  0.1035 -0.8619 -0.4158
   55MOL0     H 7545   3.892   9.229   1.157  2.4789  0.7194  3.1327
   55MOL0     H 7546   3.919   9.230   1.425 -0.3100 -0.0690  1.0068
   55MOL0     H 7547   3.757   9.189   1.435  1.8260  0.6514  1.2392
   55MOL0     H 7548   3.972   8.775   1.390  0.1153 -1.7753 -3.8015
   55MOL0     H 7549   4.250   8.605   1.248  1.6072  2.0277 -0.4720
   55MOL0     H 7550   4.105   8.585   1.342  0.3970 -0.1612 -2.0991
   55MOL0     H 7551   4.243   8.638   1.433 -1.0122  4.1664  0.3382
   55MOL0     H 7552   4.648   8.731   1.143 -1.8649 -0.2830 -0.3618
   55MOL0     H 7553   4.879   8.751   1.048  0.4939  1.0363 -0.5846
   55MOL0     H 7554   5.096   9.079   1.049  3.0729 -0.2698 -0.5203
   55MOL0     H 7555   5.044   8.935   1.128 -1.6564  1.1409 -0.5974
   55MOL0     H 7556   5.180   8.807   0.984  1.3846 -0.0901 -1.5190
   55MOL0     H 7557   5.200   8.947   0.870 -3.4223  0.3266 -0.4317
   55MOL0     H 7558   5.316   8.905   1.153  0.4429  1.6341 -0.2254
   55MOL0     H 7559   5.348   9.046   1.049  1.1017  0.1544  0.2322
   55MOL0     H 7560   5.457   8.875   0.876  2.0521  0.5362 -0.3187
   55MOL0     H 7561   5.425   8.754   0.991 -1.7899 -0.7891  0.1852
   55MOL0     H 7562   5.672   8.870   0.994  0.8779 -1.2681  2.2219
   55MOL0     H 7563   5.587   8.998   1.089 -2.9909  0.8725 -0.2595
   55MOL0     H 7564   5.622   8.693   1.171 -3.4821 -1.0589 -1.8456
   55MOL0     H 7565   5.493   8.775   1.216 -1.0111 -3.8896 -0.8546
   55MOL0     H 7566   5.663   8.973   1.313 -0.9378  0.1044  0.4894
   55MOL0     H 7567   5.785   8.857   1.304 -0.8145  0.4840 -2.1249
   55MOL0     H 7568   5.649   8.693   1.446  1.1190 -0.0938  1.0609
   55MOL0     H 7569   5.524   8.820   1.461  0.1588  0.9515 -0.6570
   55MOL0     H 7570   4.786   9.149   0.916 -1.8884  0.1427  0.7365
   55MOL0     H 7571   4.556   9.124   1.030 -3.5092 -2.4686  2.6663
   55MOL0     H 7572   4.284   9.108   1.196  0.4141 -0.6464 -1.6863
   55MOL0     H 7573   4.082   9.178   1.277 -1.1129 -0.4038 -1.7242
   55MOL0     H 7574   3.147  10.615   0.743  2.1998 -1.5003  0.4268
   55MOL0     H 7575   3.089  10.738   0.540 -0.3978 -0.1865  1.4461
   55MOL0     H 7576   3.216  10.936   0.095 -0.5063 -0.6643  0.5699
   55MOL0     H 7577   3.177  10.996  -0.145 -0.2931  0.5762  1.8710
   55MOL0     H 7578   2.888  10.768  -0.404 -1.5669 -0.4510  0.2852
   55MOL0     H 7579   2.820  10.862  -0.287  0.6721 -2.4432  1.1623
   55MOL0     H 7580   2.794  10.920  -0.548 -0.3117  0.0298 -0.3673
   55MOL0     H 7581   2.952  10.988  -0.521  0.4216 -0.6229  0.2830
   55MOL0     H 7582   2.701  11.063  -0.350 -0.7871  1.4502 -0.0613
   55MOL0     H 7583   2.857  11.157  -0.353  0.0518 -0.5496 -0.9491
   55MOL0     H 7584   2.666  11.250  -0.475 -0.0453  0.1451  0.1949
   55MOL0     H 7585   2.674  11.135  -0.602 -3.3138  1.1898  0.4131
   55MOL0     H 7586   3.020  11.374  -0.689  1.2248  0.8070  3.0783
   55MOL0     H 7587   2.889  10.686  -0.164  1.2558 -1.8788  2.0004
   55MOL0     H 7588   2.850  10.542  -0.016  4.1013 -0.9227 -0.0477
   55MOL0     H 7589   2.961  10.496   0.105  2.3098  1.3552 -0.5318
   55MOL0     H 7590   2.827  10.609   0.149 -0.4129 -1.2431  0.3998
   56MOL0     O 7591   8.256   0.412   6.126 -1.4435 -0.0519  0.3300
   56MOL0     C 7592   8.210   0.345   6.039 -0.0585 -0.3237  0.8713
   56MOL0     O 7593   8.186   0.216   6.057 -0.0052  0.3452  0.0864
   56MOL0     C 7594   8.273   0.139   6.132 -0.5355  0.3233  0.3490
   56MOL0     C 7595   8.258   0.116   6.272  1.2626 -0.1016 -0.3376
   56MOL0     C 7596   8.354   0.039   6.337  0.9890 -0.4533 -0.1244
   56MOL0     C 7597   8.461  -0.009   6.265 -0.4156 -0.3156 -0.5307
   56MOL0     O 7598   8.546  -0.100   6.319 -0.1744  0.1886 -0.1019
   56MOL0     C 7599   8.491  -0.211   6.386  0.3144  0.0446  0.4767
   56MOL0     C 7600   8.597  -0.312   6.424  0.7036  0.1101 -1.3794
   56MOL0     C 7601   8.671  -0.373   6.315 -0.1646 -0.2424 -0.2411
   56MOL0     C 7602   8.755  -0.494   6.368 -1.0866  0.1501  0.6078
   56MOL0     C 7603   8.878  -0.534   6.278 -0.6697 -0.0342  0.5614
   56MOL0     C 7604   8.971  -0.641   6.335  0.2037  0.0404  0.0100
   56MOL0     C 7605   8.929  -0.785   6.309 -0.8988  0.0679 -0.1050
   56MOL0     C 7606   8.949  -0.836   6.172  0.5590  0.1107  0.7897
   56MOL0     N 7607   9.086  -0.858   6.122  0.5793 -0.1051 -0.0678
   56MOL0     C 7608   9.144  -0.765   6.026 -0.0334 -0.2215 -0.2851
   56MOL0     C 7609   9.279  -0.799   6.035  0.0994  0.6133 -0.5246
   56MOL0     C 7610   9.386  -0.713   5.966  0.4726  0.2281  0.6873
   56MOL0     C 7611   9.479  -0.636   6.068  0.7121  0.0961 -0.7805
   56MOL0     C 7612   9.604  -0.711   6.107  0.1741 -0.4835 -0.2509
   56MOL0     C 7613   9.666  -0.693   6.244 -0.3174  0.0258  0.3556
   56MOL0     O 7614   9.703  -0.549   6.245  0.0035 -0.5196 -0.5189
   56MOL0     C 7615   9.818  -0.516   6.315  0.4189  0.3254  1.0488
   56MOL0     C 7616   9.865  -0.588   6.424  0.5134  0.5482  0.3125
   56MOL0     C 7617   9.985  -0.551   6.494  0.3184 -0.1407  0.5994
   56MOL0     C 7618  10.019  -0.650   6.607  0.1434  0.4676 -0.5331
   56MOL0     C 7619  10.061  -0.444   6.455  0.4446  0.0175 -0.0522
   56MOL0     C 7620  10.185  -0.410   6.534  0.1691  0.5647  0.3424
   56MOL0     O 7621  10.197  -0.274   6.563  0.5325 -0.4157  0.0892
   56MOL0     C 7622  10.327  -0.223   6.575  0.8164 -0.3560 -0.0771
   56MOL0     C 7623  10.395  -0.201   6.460  0.7305 -0.8120  0.0665
   56MOL0     C 7624  10.529  -0.151   6.463 -0.2671 -1.1323  0.0493
   56MOL0     C 7625  10.591  -0.113   6.577 -0.2100 -0.5225 -0.1335
   56MOL0     O 7626  10.720  -0.059   6.567  0.1274  0.6457  0.3454
   56MOL0     C 7627  10.790  -0.077   6.691  0.4622  0.6100 -0.4087
   56MOL0     C 7628  10.942  -0.081   6.668 -0.1011  0.1184  0.2518
   56MOL0     C 7629  11.021  -0.099   6.811 -1.2434 -0.6338  0.5862
   56MOL0     C 7630  11.169  -0.078   6.794  0.0345  0.5554  0.0646
   56MOL0     C 7631  11.235  -0.096   6.935  0.0023  0.7353 -0.6388
   56MOL0     C 7632  11.175  -0.016   7.054  0.1921  0.4329 -0.9094
   56MOL0     C 7633  11.233  -0.078   7.190 -0.1115 -0.8125  0.3347
   56MOL0     C 7634  11.203   0.007   7.311 -0.0582 -0.7803  0.3109
   56MOL0    Cl 7635  11.041   0.006   7.384 -0.5382  0.2690 -0.5774
   56MOL0     C 7636  10.525  -0.127   6.695  0.4394 -0.5541 -0.0869
   56MOL0     C 7637  10.392  -0.183   6.696  0.0213 -0.1695 -0.2550
   56MOL0     O 7638  10.283  -0.485   6.539  0.0786 -0.0892  0.4630
   56MOL0     C 7639  10.005  -0.361   6.349 -0.6737 -0.4492 -0.5443
   56MOL0     C 7640   9.892  -0.408   6.270 -1.4376  0.4131  0.0878
   56MOL0     N 7641   9.297  -0.903   6.116  0.1192 -0.5855  0.5409
   56MOL0     N 7642   9.182  -0.945   6.167  0.7261  0.2564  1.1193
   56MOL0     C 7643   8.469   0.019   6.132 -0.7514 -0.2461 -0.2221
   56MOL0     C 7644   8.375   0.087   6.063  0.7649 -0.1134  0.3026
   56MOL0     C 7645   8.159   0.413   5.921  0.3163  0.1195  0.1618
   56MOL0     C 7646   8.227   0.525   5.873  0.0761  0.6945 -0.3638
   56MOL0     C 7647   8.182   0.606   5.780 -0.6716  0.9730  0.4256
   56MOL0     C 7648   8.063   0.572   5.706 -0.7665 -0.7111 -0.3749
   56MOL0     O 7649   7.998   0.647   5.610 -1.2034  0.2516  0.1957
   56MOL0     C 7650   8.054   0.771   5.556  0.3842 -0.7830 -0.1345
   56MOL0     C 7651   7.976   0.900   5.595  0.1720  0.2878 -0.1318
   56MOL0     C 7652   7.846   0.914   5.509 -0.2583 -0.1901 -0.1246
   56MOL0     C 7653   7.725   0.849   5.575 -0.4077  0.2303 -0.9283
   56MOL0     C 7654   7.607   0.857   5.481 -0.3375  0.1065 -1.4791
   56MOL0     C 7655   7.499   0.868   5.423 -0.8316 -0.7109 -1.4161
   56MOL0     C 7656   7.999   0.452   5.744 -1.1509 -0.7850  1.5630
   56MOL0     C 7657   8.036   0.383   5.858 -0.9899  0.7548 -0.5392
   56MOL0     C 7658   7.940   0.279   5.913 -0.7008 -0.4648  1.3960
   56MOL0     H 7659   8.167   0.153   6.318 -0.6197 -1.2251 -2.9115
   56MOL0     H 7660   8.351   0.031   6.445 -0.5354 -0.2478 -0.1289
   56MOL0     H 7661   8.411  -0.247   6.320  0.3941  1.8189 -0.6597
   56MOL0     H 7662   8.441  -0.181   6.478  2.6465  0.9848  1.5242
   56MOL0     H 7663   8.668  -0.269   6.496 -0.0568 -3.8017  2.1105
   56MOL0     H 7664   8.547  -0.400   6.465 -0.9306  1.0181 -1.3318
   56MOL0     H 7665   8.602  -0.411   6.238 -0.5615  1.0664 -0.5502
   56MOL0     H 7666   8.739  -0.299   6.272 -1.0136  0.6073 -0.1535
   56MOL0     H 7667   8.791  -0.490   6.471 -0.6363  1.3441  0.4165
   56MOL0     H 7668   8.687  -0.579   6.358 -3.8407  2.1956  0.5861
   56MOL0     H 7669   8.942  -0.446   6.274  1.6223 -1.5879  1.0071
   56MOL0     H 7670   8.849  -0.567   6.178 -2.5364 -3.8577  2.1291
   56MOL0     H 7671   9.076  -0.627   6.308 -0.4273  3.2147 -1.2662
   56MOL0     H 7672   8.979  -0.627   6.443 -0.6133  0.6139  0.0060
   56MOL0     H 7673   8.824  -0.796   6.337 -0.9844 -0.6763 -0.6707
   56MOL0     H 7674   8.990  -0.849   6.373  0.8510  0.3079 -1.4185
   56MOL0     H 7675   8.904  -0.936   6.182  2.9199 -0.9722  1.5028
   56MOL0     H 7676   8.887  -0.773   6.109 -0.7915 -2.3189 -0.4744
   56MOL0     H 7677   9.110  -0.681   5.968  0.7357  2.5400  2.9354
   56MOL0     H 7678   9.332  -0.640   5.905  4.0346  0.6141 -2.3733
   56MOL0     H 7679   9.438  -0.776   5.894 -1.3558  0.2158 -0.6933
   56MOL0     H 7680   9.504  -0.539   6.023 -0.4792  0.0426 -1.5961
   56MOL0     H 7681   9.414  -0.622   6.155 -1.8359 -3.2510 -1.9229
   56MOL0     H 7682   9.586  -0.819   6.108 -1.1692 -0.2745 -0.2414
   56MOL0     H 7683   9.684  -0.694   6.034 -0.2536  1.1764 -0.3797
   56MOL0     H 7684   9.607  -0.712   6.335  1.2743 -1.1767  1.1738
   56MOL0     H 7685   9.751  -0.761   6.247  2.3837  3.0797 -0.5110
   56MOL0     H 7686   9.794  -0.656   6.469 -2.0905  2.6586 -0.3333
   56MOL0     H 7687  10.030  -0.585   6.694 -2.0154  3.2108 -2.1252
   56MOL0     H 7688  10.110  -0.705   6.584 -0.0681  0.9359 -2.8275
   56MOL0     H 7689   9.941  -0.722   6.633  1.1062 -0.0137  1.1640
   56MOL0     H 7690  10.336  -0.222   6.371 -0.7639  5.8475 -1.0227
   56MOL0     H 7691  10.579  -0.150   6.366 -0.0139  3.3795  0.0313
   56MOL0     H 7692  10.771  -0.003   6.769  2.1670 -0.2482  0.9062
   56MOL0     H 7693  10.768  -0.166   6.751 -1.1186  2.1006  1.3635
   56MOL0     H 7694  10.959  -0.168   6.603  0.5405 -0.7200  1.5098
   56MOL0     H 7695  10.983   0.007   6.618  2.4496 -1.5233 -0.7957
   56MOL0     H 7696  11.002  -0.195   6.859  2.6889 -0.3894  3.0374
   56MOL0     H 7697  10.995  -0.013   6.873  0.9636  1.2091 -0.8659
   56MOL0     H 7698  11.195   0.022   6.757 -3.2188  1.1531 -0.9323
   56MOL0     H 7699  11.210  -0.144   6.716 -1.5395 -0.7271  0.2678
   56MOL0     H 7700  11.245  -0.201   6.967  2.8595  1.3309  0.6675
   56MOL0     H 7701  11.334  -0.054   6.917  0.0997  0.9564  0.3649
   56MOL0     H 7702  11.067  -0.029   7.063  0.5906 -1.7362  2.1265
   56MOL0     H 7703  11.194   0.092   7.049  1.4944  0.4268  2.0749
   56MOL0     H 7704  11.342  -0.080   7.189 -0.0222 -1.2929 -3.8291
   56MOL0     H 7705  11.193  -0.176   7.217 -2.6135 -1.0532 -3.5405
   56MOL0     H 7706  11.217   0.113   7.286 -1.0389 -0.2546  1.8477
   56MOL0     H 7707  11.281  -0.002   7.387  2.0243  2.9743 -1.0938
   56MOL0     H 7708  10.574  -0.096   6.787  0.8575  1.9533 -1.0606
   56MOL0     H 7709  10.334  -0.211   6.783 -0.3181 -0.0230 -0.4301
   56MOL0     H 7710  10.067  -0.277   6.319 -1.7267  0.3852 -0.4112
   56MOL0     H 7711   9.865  -0.359   6.176  2.2592  0.8616 -0.9036
   56MOL0     H 7712   8.552  -0.023   6.075  0.4172  1.0001  0.5043
   56MOL0     H 7713   8.369   0.109   5.957 -2.1153 -0.8471  0.2256
   56MOL0     H 7714   8.325   0.536   5.917 -1.5663  0.6172  3.7817
   56MOL0     H 7715   8.240   0.698   5.770  0.5537  0.2855  0.9223
   56MOL0     H 7716   8.157   0.769   5.592  0.3529 -2.3011 -0.0336
   56MOL0     H 7717   8.072   0.776   5.448 -0.7863  0.0285 -0.3039
   56MOL0     H 7718   8.039   0.979   5.552 -0.8911  1.1039 -0.2168
   56MOL0     H 7719   7.959   0.898   5.703 -1.4226 -1.6443 -0.3721
   56MOL0     H 7720   7.834   1.021   5.487  0.6612  0.0699  0.5466
   56MOL0     H 7721   7.866   0.876   5.408 -1.8204 -2.3072  0.2961
   56MOL0     H 7722   7.710   0.894   5.674  2.6996 -0.9143  0.1825
   56MOL0     H 7723   7.750   0.744   5.594  1.7047  1.2031  2.6812
   56MOL0     H 7724   7.421   0.898   5.356 -1.7231 -1.7314 -0.8736
   56MOL0     H 7725   7.914   0.408   5.692 -1.6653 -0.6515  2.2672
   56MOL0     H 7726   7.934   0.282   6.022  0.4445 -3.6094  1.6600
   56MOL0     H 7727   7.839   0.296   5.876  0.4567 -1.6369 -2.8391
   56MOL0     H 7728   7.967   0.175   5.890  0.9267  0.3508 -0.7370
   57MOL0     O 7729   4.175   5.399   3.681  0.2943  0.1138 -0.0233
   57MOL0     C 7730   4.164   5.375   3.798  0.5622 -0.3242  0.4511
   57MOL0     O 7731   4.263   5.357   3.881 -0.1387  1.5670  0.3131
   57MOL0     C 7732   4.395   5.399   3.860  0.4265  0.7015  0.0153
   57MOL0     C 7733   4.473   5.349   3.958 -0.1267  0.3276  0.8184
   57MOL0     C 7734   4.617   5.370   3.958  0.0125  0.0558 -0.1203
   57MOL0     C 7735   4.663   5.439   3.845 -1.0108 -0.2351 -0.2874
   57MOL0     O 7736   4.799   5.441   3.807  0.1833 -0.5064 -1.2637
   57MOL0     C 7737   4.885   5.335   3.853  0.5605 -0.7069  0.0468
   57MOL0     C 7738   4.999   5.316   3.746 -1.0672 -0.2604 -0.2796
   57MOL0     C 7739   5.073   5.434   3.679  0.3803 -0.6819  0.8923
   57MOL0     C 7740   5.120   5.386   3.542 -0.3138 -0.5018  0.3439
   57MOL0     C 7741   5.203   5.480   3.454 -0.2176 -0.0655  0.2797
   57MOL0     C 7742   5.321   5.422   3.379  0.9782  0.3670 -0.6611
   57MOL0     C 7743   5.433   5.521   3.343 -0.5319  0.5004 -0.3560
   57MOL0     C 7744   5.521   5.579   3.462  0.6979 -0.0788 -0.0405
   57MOL0     N 7745   5.600   5.697   3.436 -0.3917  0.0725  0.1611
   57MOL0     C 7746   5.681   5.674   3.323  0.0066  0.4937 -1.1840
   57MOL0     C 7747   5.695   5.793   3.262  0.5602 -0.0661  0.1489
   57MOL0     C 7748   5.768   5.817   3.130  0.2646 -0.7476 -0.0918
   57MOL0     C 7749   5.917   5.822   3.123 -0.0258  0.3772  0.5261
   57MOL0     C 7750   5.972   5.849   2.977  0.1643  0.3722 -0.5893
   57MOL0     C 7751   6.123   5.810   2.965 -0.2056 -0.5874  0.0698
   57MOL0     O 7752   6.188   5.872   3.075  0.6357  0.4175  0.2040
   57MOL0     C 7753   6.323   5.866   3.086  0.7722 -0.1066 -0.1938
   57MOL0     C 7754   6.408   5.879   2.977  0.7636 -0.2795  0.7305
   57MOL0     C 7755   6.537   5.861   2.989 -0.9360 -0.0261  0.8856
   57MOL0     C 7756   6.601   5.877   2.848 -0.3769  0.6361 -1.4314
   57MOL0     C 7757   6.599   5.833   3.111 -0.6482 -0.6313  0.3121
   57MOL0     C 7758   6.748   5.822   3.119  0.9759 -0.8146 -0.3594
   57MOL0     O 7759   6.806   5.702   3.131  0.2892  0.0837  1.1808
   57MOL0     C 7760   6.941   5.693   3.130  0.0665 -0.8754 -0.5369
   57MOL0     C 7761   7.018   5.655   3.241 -0.6845 -0.3496  0.3059
   57MOL0     C 7762   7.160   5.640   3.225  0.5842 -0.6488  1.0311
   57MOL0     C 7763   7.227   5.645   3.092 -0.0111  0.0249 -1.1432
   57MOL0     O 7764   7.361   5.627   3.076 -0.4708 -0.4632 -0.0667
   57MOL0     C 7765   7.426   5.646   2.952 -0.5186 -0.2033 -0.3917
   57MOL0     C 7766   7.575   5.633   2.952 -0.3705 -0.0500 -0.3192
   57MOL0     C 7767   7.645   5.747   3.033  0.7506 -0.4130 -0.1645
   57MOL0     C 7768   7.651   5.875   2.950  0.5085  0.0387  1.1006
   57MOL0     C 7769   7.701   5.986   3.051  0.8495  0.0479  0.2277
   57MOL0     C 7770   7.703   6.122   2.965 -0.1178  0.0420 -0.1582
   57MOL0     C 7771   7.772   6.233   3.044  0.4214  0.0645  0.6438
   57MOL0     C 7772   7.672   6.288   3.160 -0.2337 -0.5483 -0.2298
   57MOL0    Cl 7773   7.758   6.403   3.262 -0.1390 -0.1979 -0.0948
   57MOL0     C 7774   7.144   5.666   2.990  0.2462 -0.3445  0.0222
   57MOL0     C 7775   7.005   5.694   3.006  0.0595  0.4742 -0.9647
   57MOL0     O 7776   6.814   5.920   3.106  0.2624  0.1971  0.0175
   57MOL0     C 7777   6.511   5.827   3.223 -0.0624  0.2118 -0.0059
   57MOL0     C 7778   6.372   5.846   3.214 -0.3458 -0.0016  0.3806
   57MOL0     N 7779   5.620   5.884   3.331  0.4325 -0.4834 -0.2705
   57MOL0     N 7780   5.551   5.826   3.428  0.0767 -0.6238  0.7555
   57MOL0     C 7781   4.579   5.514   3.767 -1.0774 -0.0342 -0.1212
   57MOL0     C 7782   4.450   5.481   3.760  0.7659 -0.6380 -0.5356
   57MOL0     C 7783   4.024   5.378   3.852 -0.6309 -0.2175  0.6773
   57MOL0     C 7784   3.967   5.508   3.877  0.6477 -0.6620 -0.1772
   57MOL0     C 7785   3.838   5.513   3.935  0.3676  0.8624  0.4997
   57MOL0     C 7786   3.760   5.393   3.944 -0.1611 -0.2206 -0.0758
   57MOL0     O 7787   3.635   5.395   3.987 -0.2338  0.4107 -0.4168
   57MOL0     C 7788   3.609   5.283   4.081 -0.2012 -0.3602  0.7278
   57MOL0     C 7789   3.507   5.313   4.192 -0.3540  0.0731 -0.3486
   57MOL0     C 7790   3.582   5.292   4.321 -0.6937 -0.1288  0.8385
   57MOL0     C 7791   3.491   5.322   4.447  0.8046 -0.6285  0.7312
   57MOL0     C 7792   3.583   5.348   4.565 -0.1843 -0.0981  0.5260
   57MOL0     C 7793   3.643   5.365   4.664 -0.8194 -0.7540  0.8341
   57MOL0     C 7794   3.816   5.272   3.902 -0.0629 -0.2578  0.3367
   57MOL0     C 7795   3.953   5.261   3.864  0.1221  0.2926 -0.8511
   57MOL0     C 7796   4.016   5.130   3.829  0.2628 -0.6298 -0.7207
   57MOL0     H 7797   4.428   5.301   4.044  1.8762 -1.3902  1.0118
   57MOL0     H 7798   4.681   5.339   4.040  1.0234  1.7525 -0.2039
   57MOL0     H 7799   4.840   5.236   3.868  1.1970 -1.1812 -1.0569
   57MOL0     H 7800   4.926   5.366   3.949  2.8292 -0.7899 -0.8504
   57MOL0     H 7801   5.072   5.253   3.797 -2.8281 -1.1988  1.2026
   57MOL0     H 7802   4.956   5.260   3.662 -2.9401 -2.5596  2.0378
   57MOL0     H 7803   5.018   5.527   3.667  1.7877 -0.0052 -0.9058
   57MOL0     H 7804   5.164   5.456   3.735  0.8375 -2.4544  0.9227
   57MOL0     H 7805   5.168   5.290   3.564 -1.2556 -0.0263  5.9801
   57MOL0     H 7806   5.030   5.362   3.484 -0.5854 -0.7680  0.8661
   57MOL0     H 7807   5.244   5.566   3.508  0.1328 -0.0569 -0.0022
   57MOL0     H 7808   5.134   5.531   3.386  0.3364  2.5321  1.5108
   57MOL0     H 7809   5.358   5.337   3.436  4.0071  3.1640  1.9921
   57MOL0     H 7810   5.287   5.386   3.282 -1.7677 -0.7670  0.6169
   57MOL0     H 7811   5.393   5.606   3.288  1.4060  0.4365 -1.9701
   57MOL0     H 7812   5.494   5.451   3.286 -0.9635 -0.1996  0.0279
   57MOL0     H 7813   5.455   5.602   3.546 -0.9903 -0.1705 -1.2856
   57MOL0     H 7814   5.591   5.506   3.505 -0.6028 -0.5300  1.3685
   57MOL0     H 7815   5.712   5.574   3.297 -1.5458 -1.3144  2.9794
   57MOL0     H 7816   5.738   5.913   3.087  2.8413  1.1485  2.0217
   57MOL0     H 7817   5.722   5.744   3.062 -3.1820 -0.0719  1.3094
   57MOL0     H 7818   5.947   5.898   3.195  0.6240 -1.0022  1.7849
   57MOL0     H 7819   5.957   5.724   3.151 -0.6457  0.0473  0.2757
   57MOL0     H 7820   5.928   5.797   2.891  0.1748  0.5649 -0.7126
   57MOL0     H 7821   5.959   5.954   2.950 -1.6105  0.3442  0.0632
   57MOL0     H 7822   6.146   5.703   2.963  1.4711 -0.2559 -0.0618
   57MOL0     H 7823   6.166   5.850   2.873  2.2053 -1.2136  0.8432
   57MOL0     H 7824   6.365   5.889   2.878  1.2560 -0.8210  0.4552
   57MOL0     H 7825   6.582   5.787   2.789 -2.0918 -1.3034  1.8042
   57MOL0     H 7826   6.708   5.871   2.867 -0.8425 -0.8447  1.1683
   57MOL0     H 7827   6.567   5.966   2.793  0.2199  1.8149  0.0428
   57MOL0     H 7828   6.977   5.642   3.341 -2.0835 -0.3571 -0.2435
   57MOL0     H 7829   7.224   5.629   3.311  0.7603  2.3858  1.4181
   57MOL0     H 7830   7.387   5.567   2.887  0.7752 -1.2779  0.0841
   57MOL0     H 7831   7.392   5.739   2.906 -0.8179 -0.9976 -1.8360
   57MOL0     H 7832   7.597   5.539   3.004 -0.0088  0.0970 -0.1977
   57MOL0     H 7833   7.619   5.619   2.853  2.1005  0.6213  0.6141
   57MOL0     H 7834   7.745   5.714   3.064 -0.0628 -0.0092  3.3380
   57MOL0     H 7835   7.588   5.766   3.124  0.9423 -0.8222  0.0479
   57MOL0     H 7836   7.554   5.898   2.905  1.5948  1.2871 -0.7306
   57MOL0     H 7837   7.715   5.858   2.864 -1.6687  2.5307 -1.2100
   57MOL0     H 7838   7.615   6.002   3.117 -0.2859 -0.0649 -1.1597
   57MOL0     H 7839   7.780   5.958   3.121  0.7578 -2.9019 -0.7255
   57MOL0     H 7840   7.604   6.159   2.935  0.4629  0.8000 -1.2164
   57MOL0     H 7841   7.766   6.105   2.878 -2.5495 -3.3186 -1.4685
   57MOL0     H 7842   7.791   6.312   2.971 -1.3637  0.1560  0.2473
   57MOL0     H 7843   7.866   6.198   3.087  1.3546  2.8549  1.0958
   57MOL0     H 7844   7.634   6.209   3.226 -3.7090  0.4410 -0.8657
   57MOL0     H 7845   7.582   6.338   3.122 -1.4300  0.2659  3.2530
   57MOL0     H 7846   7.165   5.660   2.883  1.3054 -0.4056  0.2302
   57MOL0     H 7847   6.938   5.722   2.926 -0.2036  2.5085 -0.0790
   57MOL0     H 7848   6.547   5.786   3.317 -1.6874 -2.9110 -0.6069
   57MOL0     H 7849   6.311   5.826   3.302  0.6101  0.2670  1.1246
   57MOL0     H 7850   4.627   5.578   3.694  0.5492 -1.3264 -0.2288
   57MOL0     H 7851   4.378   5.518   3.688  0.4244 -2.6224 -1.2808
   57MOL0     H 7852   4.013   5.601   3.846 -0.0437  0.1968  1.2680
   57MOL0     H 7853   3.814   5.609   3.979  0.2747  0.9081  0.3510
   57MOL0     H 7854   3.574   5.196   4.025 -2.5869  0.6204  0.5566
   57MOL0     H 7855   3.707   5.259   4.123  1.5317 -1.3082 -3.3330
   57MOL0     H 7856   3.433   5.233   4.185 -0.4859  0.1667 -0.0576
   57MOL0     H 7857   3.455   5.409   4.188  1.8127  1.3818  0.8916
   57MOL0     H 7858   3.611   5.187   4.320 -0.7991 -0.2269 -2.2601
   57MOL0     H 7859   3.676   5.348   4.323 -2.1579  2.5015  1.7254
   57MOL0     H 7860   3.423   5.237   4.449  2.6553 -2.1550  1.3803
   57MOL0     H 7861   3.417   5.400   4.426 -1.8563 -3.3604 -0.7630
   57MOL0     H 7862   3.699   5.401   4.748 -0.4057  2.0351 -0.5143
   57MOL0     H 7863   3.757   5.181   3.892 -0.5366 -0.0135  0.8622
   57MOL0     H 7864   4.031   5.124   3.720 -0.6471 -0.3377 -0.8648
   57MOL0     H 7865   4.119   5.130   3.867  0.1758  0.0046 -0.4786
   57MOL0     H 7866   3.964   5.039   3.858 -0.6611 -0.7484 -2.5693
   58MOL0     O 7867   6.328   6.974   4.061 -0.0904 -0.0438  0.7628
   58MOL0     C 7868   6.350   7.081   3.999 -0.8495 -0.1782 -0.9093
   58MOL0     O 7869   6.472   7.128   3.986  0.0471 -0.4850  0.6413
   58MOL0     C 7870   6.587   7.066   4.051 -0.1054 -0.5527  0.7617
   58MOL0     C 7871   6.666   7.139   4.124 -0.3981 -0.6276 -0.3246
   58MOL0     C 7872   6.787   7.099   4.183 -0.3848  0.2236  0.5649
   58MOL0     C 7873   6.835   6.969   4.159  0.5162  0.1385 -0.2914
   58MOL0     O 7874   6.948   6.934   4.233 -0.0814 -0.1208 -0.6941
   58MOL0     C 7875   7.014   6.805   4.215  0.1119 -0.7614 -0.4015
   58MOL0     C 7876   7.140   6.818   4.125 -0.3446 -0.1832 -0.3966
   58MOL0     C 7877   7.244   6.907   4.196 -0.4073 -0.6934 -0.2995
   58MOL0     C 7878   7.327   6.839   4.307  0.5740 -0.2814 -0.3809
   58MOL0     C 7879   7.421   6.935   4.383 -0.2374 -0.1597  0.7209
   58MOL0     C 7880   7.521   6.863   4.478 -0.4997 -0.4756 -0.8001
   58MOL0     C 7881   7.606   6.964   4.542 -0.8049 -1.0535 -0.0718
   58MOL0     C 7882   7.707   6.909   4.653 -1.2378  0.0432  0.3188
   58MOL0     N 7883   7.744   7.008   4.753  0.5144  0.2758 -0.6424
   58MOL0     C 7884   7.863   7.074   4.765 -0.7490  0.2100  0.5404
   58MOL0     C 7885   7.846   7.160   4.868 -0.3704  0.6089  0.4489
   58MOL0     C 7886   7.947   7.230   4.945  1.0378  0.4194 -0.8415
   58MOL0     C 7887   8.034   7.142   5.045 -0.1066  0.0718 -0.1801
   58MOL0     C 7888   8.140   7.229   5.109  0.5813  0.1026  0.0767
   58MOL0     C 7889   8.228   7.150   5.201  0.7892 -0.0303 -0.1405
   58MOL0     O 7890   8.299   7.048   5.122  0.4440 -0.6758  1.0290
   58MOL0     C 7891   8.286   6.916   5.153 -0.3316  0.7266 -0.5138
   58MOL0     C 7892   8.168   6.854   5.189  0.0706 -0.4262  0.4102
   58MOL0     C 7893   8.177   6.722   5.229  0.7529  0.1032 -0.1563
   58MOL0     C 7894   8.047   6.670   5.283  0.7146  0.1964  0.1519
   58MOL0     C 7895   8.300   6.647   5.216  0.1935 -0.4754  0.2384
   58MOL0     C 7896   8.302   6.501   5.248 -0.3656  0.4816 -1.2285
   58MOL0     O 7897   8.377   6.414   5.174  0.5544  0.6767  0.3945
   58MOL0     C 7898   8.352   6.273   5.187 -0.0441 -0.1695 -0.8654
   58MOL0     C 7899   8.462   6.191   5.191 -0.7493 -1.2405 -0.2056
   58MOL0     C 7900   8.451   6.054   5.199  0.4905  1.2695  0.4259
   58MOL0     C 7901   8.323   5.996   5.205  0.1645 -0.5187  0.2315
   58MOL0     O 7902   8.299   5.864   5.198 -0.0234  0.0554 -0.3422
   58MOL0     C 7903   8.399   5.773   5.229 -0.7523 -0.1858  0.1356
   58MOL0     C 7904   8.342   5.636   5.255 -0.3646 -0.3722 -0.1217
   58MOL0     C 7905   8.237   5.638   5.369 -0.4864  0.9586  0.5419
   58MOL0     C 7906   8.264   5.721   5.491  0.4013 -0.4838 -1.3149
   58MOL0     C 7907   8.221   5.666   5.626  0.2279 -0.0616 -0.0068
   58MOL0     C 7908   8.073   5.628   5.645 -0.6483  0.8148 -0.2816
   58MOL0     C 7909   8.055   5.597   5.795 -0.0137  0.3458 -0.5853
   58MOL0     C 7910   7.929   5.506   5.815  0.4687  0.7799  0.7333
   58MOL0    Cl 7911   7.785   5.570   5.738  0.3690 -0.3261  0.2250
   58MOL0     C 7912   8.210   6.078   5.208 -0.5676  0.6509  0.0022
   58MOL0     C 7913   8.223   6.218   5.209  0.0473  0.8980 -0.0948
   58MOL0     O 7914   8.242   6.467   5.352  0.0143 -0.0240  0.3619
   58MOL0     C 7915   8.411   6.710   5.160  0.3658 -0.3546 -0.1479
   58MOL0     C 7916   8.407   6.844   5.138  0.6103 -0.8173  0.8938
   58MOL0     N 7917   7.712   7.150   4.911 -0.8216 -0.5885 -0.0815
   58MOL0     N 7918   7.660   7.062   4.844  0.4120  0.9208 -0.8976
   58MOL0     C 7919   6.748   6.883   4.086  0.0615  0.9661 -0.4397
   58MOL0     C 7920   6.633   6.931   4.027  0.1575  0.0008  0.0962
   58MOL0     C 7921   6.245   7.168   3.933 -0.1300 -1.5743  0.5383
   58MOL0     C 7922   6.239   7.308   3.946  0.6423  0.0851 -0.1722
   58MOL0     C 7923   6.135   7.375   3.888 -0.3307 -0.0193  0.8081
   58MOL0     C 7924   6.035   7.308   3.818 -0.5987  0.1867  0.8465
   58MOL0     O 7925   5.923   7.362   3.777 -0.5169  0.1447  0.4479
   58MOL0     C 7926   5.897   7.508   3.762 -0.1597  0.7076  0.3006
   58MOL0     C 7927   5.777   7.530   3.664 -0.4411  0.0082 -0.1469
   58MOL0     C 7928   5.823   7.472   3.522  0.4907 -0.4120  0.2187
   58MOL0     C 7929   5.780   7.333   3.495  0.3904 -0.0592 -0.3013
   58MOL0     C 7930   5.868   7.272   3.389 -0.3032 -0.5444  0.4516
   58MOL0     C 7931   5.940   7.203   3.322 -0.2925 -0.4381  0.3831
   58MOL0     C 7932   6.049   7.169   3.799 -0.0392  0.0546  0.9949
   58MOL0     C 7933   6.152   7.100   3.854 -0.8562 -0.1834 -0.1589
   58MOL0     C 7934   6.141   6.950   3.812 -1.1181  0.7639 -1.4351
   58MOL0     H 7935   6.634   7.240   4.146  0.1310 -0.3957 -0.6226
   58MOL0     H 7936   6.853   7.162   4.243  2.2420 -0.5885 -1.2496
   58MOL0     H 7937   6.955   6.727   4.166  0.6803 -2.2777  1.2387
   58MOL0     H 7938   7.047   6.770   4.313 -0.4049  2.8415  1.2162
   58MOL0     H 7939   7.181   6.719   4.106  0.2101  0.1934 -1.2213
   58MOL0     H 7940   7.096   6.870   4.039 -0.7450  0.1208 -0.0138
   58MOL0     H 7941   7.315   6.942   4.121 -0.5674  1.0914  0.3358
   58MOL0     H 7942   7.196   6.997   4.236 -3.4146 -1.5992 -1.5814
   58MOL0     H 7943   7.277   6.773   4.378  0.9741  0.2942  0.4627
   58MOL0     H 7944   7.404   6.783   4.254 -0.3528 -1.0661 -0.9125
   58MOL0     H 7945   7.355   6.986   4.454 -0.8294 -0.4775  0.3970
   58MOL0     H 7946   7.471   7.010   4.321  0.8203  0.7917  2.6268
   58MOL0     H 7947   7.475   6.796   4.551  3.8962 -1.8172  1.0833
   58MOL0     H 7948   7.588   6.807   4.411 -0.1775 -2.6548  1.2213
   58MOL0     H 7949   7.531   7.020   4.599 -0.3616 -0.9564  0.4288
   58MOL0     H 7950   7.651   7.040   4.477 -1.4701 -0.3960  0.2241
   58MOL0     H 7951   7.672   6.820   4.705  1.0765 -2.6273 -2.3248
   58MOL0     H 7952   7.798   6.880   4.599 -1.9146 -0.6161 -0.4825
   58MOL0     H 7953   7.946   7.076   4.696 -1.4026 -0.1966 -0.2884
   58MOL0     H 7954   7.890   7.311   4.994  0.0407 -0.0451 -1.2003
   58MOL0     H 7955   8.022   7.278   4.882  0.7586  0.9289 -0.7931
   58MOL0     H 7956   7.974   7.108   5.130 -0.6795  1.4961  0.0210
   58MOL0     H 7957   8.073   7.055   4.991 -3.8462  0.6321 -4.3844
   58MOL0     H 7958   8.197   7.297   5.045  0.1796 -1.7107 -2.3371
   58MOL0     H 7959   8.076   7.293   5.171 -1.5543 -1.9118  0.0881
   58MOL0     H 7960   8.306   7.217   5.239  1.2034 -2.0737  3.0044
   58MOL0     H 7961   8.166   7.103   5.278 -2.7262  2.9539 -0.8793
   58MOL0     H 7962   8.089   6.924   5.210 -1.8991 -2.6232  0.7820
   58MOL0     H 7963   7.957   6.728   5.260 -0.5725 -1.5295  0.5584
   58MOL0     H 7964   8.064   6.668   5.391  3.0004 -2.9726 -0.1195
   58MOL0     H 7965   8.033   6.570   5.240 -0.3235  0.7636 -0.8856
   58MOL0     H 7966   8.540   6.264   5.172 -2.8416  0.7641 -1.6337
   58MOL0     H 7967   8.537   5.989   5.191  2.2363  3.6189 -1.1110
   58MOL0     H 7968   8.469   5.775   5.146 -0.5679  1.7395  0.2939
   58MOL0     H 7969   8.453   5.805   5.319 -2.5727  1.5133  0.6905
   58MOL0     H 7970   8.300   5.599   5.162 -1.6994 -2.4919  1.2447
   58MOL0     H 7971   8.423   5.569   5.288  1.6213  2.9893  2.5179
   58MOL0     H 7972   8.228   5.531   5.392 -0.4674 -0.1760 -3.7395
   58MOL0     H 7973   8.142   5.676   5.329  0.4150  2.3511 -0.3450
   58MOL0     H 7974   8.232   5.821   5.460  1.5229  0.2957 -0.0588
   58MOL0     H 7975   8.369   5.731   5.516  0.7380 -3.6153 -1.0117
   58MOL0     H 7976   8.276   5.574   5.648 -1.1419 -2.0858 -4.0334
   58MOL0     H 7977   8.249   5.747   5.694 -1.6106  0.4566  0.1954
   58MOL0     H 7978   8.059   5.536   5.587 -3.0689  0.0584  1.3563
   58MOL0     H 7979   8.007   5.710   5.616 -1.5183  0.5543  0.8984
   58MOL0     H 7980   8.046   5.685   5.859 -3.6578 -0.2153 -0.1026
   58MOL0     H 7981   8.139   5.534   5.823  0.3873  0.7877 -0.7722
   58MOL0     H 7982   7.895   5.499   5.918  1.2550  0.0053  0.9522
   58MOL0     H 7983   7.952   5.406   5.776 -0.2308  0.4413  1.1839
   58MOL0     H 7984   8.117   6.024   5.225 -1.6963  2.0384 -1.4770
   58MOL0     H 7985   8.133   6.277   5.222  0.2214  0.9762  0.8482
   58MOL0     H 7986   8.506   6.661   5.141  0.9358  1.3405 -2.0842
   58MOL0     H 7987   8.494   6.902   5.109  0.2982 -1.2580 -1.0510
   58MOL0     H 7988   6.781   6.784   4.057  1.5490  1.5418 -0.7780
   58MOL0     H 7989   6.583   6.864   3.957  1.3872  0.7576 -1.5926
   58MOL0     H 7990   6.314   7.363   4.001  0.9915  1.8962 -2.3125
   58MOL0     H 7991   6.131   7.482   3.908  0.5874 -0.6054  4.9739
   58MOL0     H 7992   5.884   7.536   3.867  1.1342 -0.0224  0.6784
   58MOL0     H 7993   5.986   7.556   3.719 -0.4846 -0.0968 -1.3705
   58MOL0     H 7994   5.771   7.637   3.646 -1.8606 -0.4520 -2.9973
   58MOL0     H 7995   5.682   7.495   3.704 -0.9420  1.9317  0.4493
   58MOL0     H 7996   5.774   7.537   3.450 -3.0357 -0.8212  2.0415
   58MOL0     H 7997   5.931   7.485   3.507  0.4208  1.1372  0.8543
   58MOL0     H 7998   5.675   7.331   3.463 -0.0312  0.5619  0.9709
   58MOL0     H 7999   5.788   7.269   3.583 -3.6670  0.2674  0.4946
   58MOL0     H 8000   6.012   7.153   3.260  1.6284  1.0870  1.2956
   58MOL0     H 8001   5.970   7.112   3.752 -0.7067  0.2571  1.8598
   58MOL0     H 8002   6.036   6.920   3.805 -1.2230  0.5606  0.5514
   58MOL0     H 8003   6.190   6.913   3.721  2.2886  2.4848 -0.4751
   58MOL0     H 8004   6.180   6.889   3.893  1.6804  2.4389 -1.4075
   59MOL0     O 8005   0.047   4.984   0.814  0.2238 -0.1319 -0.1859
   59MOL0     C 8006  -0.050   4.916   0.811  0.0523 -0.3232 -1.3828
   59MOL0     O 8007  -0.154   4.937   0.901 -0.6818 -0.8659 -0.3706
   59MOL0     C 8008  -0.174   5.046   0.981 -0.1121  0.1212 -0.3760
   59MOL0     C 8009  -0.264   5.027   1.084  0.1706 -0.5800 -0.9312
   59MOL0     C 8010  -0.303   5.138   1.161  0.2445  0.8010  0.1904
   59MOL0     C 8011  -0.250   5.271   1.132 -0.2632  0.7549  0.4033
   59MOL0     O 8012  -0.284   5.384   1.187 -0.6223  0.0916  0.8345
   59MOL0     C 8013  -0.430   5.404   1.211 -0.9748 -0.1252  0.9840
   59MOL0     C 8014  -0.456   5.381   1.363  0.3264  0.5794  1.0024
   59MOL0     C 8015  -0.602   5.385   1.406  0.2547 -0.1139  0.0871
   59MOL0     C 8016  -0.607   5.489   1.513  0.4802 -0.8169 -0.4352
   59MOL0     C 8017  -0.610   5.635   1.459  1.3133  0.6936  1.4557
   59MOL0     C 8018  -0.611   5.733   1.575  0.5495 -0.2388  0.0863
   59MOL0     C 8019  -0.597   5.882   1.525  0.2322  0.1462  0.1053
   59MOL0     C 8020  -0.479   5.922   1.448  0.3381  0.2472 -0.0725
   59MOL0     N 8021  -0.443   6.058   1.468 -0.4928 -0.1528 -1.0295
   59MOL0     C 8022  -0.497   6.161   1.399 -0.0161 -0.9561  0.2736
   59MOL0     C 8023  -0.411   6.267   1.431  0.1194 -0.9560  0.1356
   59MOL0     C 8024  -0.416   6.417   1.386 -0.2640  0.3217  0.2564
   59MOL0     C 8025  -0.522   6.509   1.453  0.3022  0.1206 -0.5526
   59MOL0     C 8026  -0.528   6.492   1.616  0.7967 -0.6844  0.5560
   59MOL0     C 8027  -0.599   6.597   1.692 -0.6122  0.6745  0.1443
   59MOL0     O 8028  -0.743   6.563   1.701 -0.4266 -0.1983 -0.0817
   59MOL0     C 8029  -0.827   6.653   1.762 -0.0626 -0.7852  0.7621
   59MOL0     C 8030  -0.940   6.599   1.835 -0.6251  0.2089  0.4934
   59MOL0     C 8031  -1.032   6.679   1.912 -0.3523  1.2722 -0.5045
   59MOL0     C 8032  -1.128   6.621   2.012 -0.0425  0.7525 -0.5924
   59MOL0     C 8033  -1.007   6.816   1.920  0.0086 -1.0546  0.1741
   59MOL0     C 8034  -1.086   6.923   1.990 -0.2136  0.3289 -0.0584
   59MOL0     O 8035  -1.028   7.033   2.049  0.4476  0.6188  0.2655
   59MOL0     C 8036  -1.103   7.099   2.137  0.2294  0.5172  0.5171
   59MOL0     C 8037  -1.127   7.041   2.259  0.3411  0.0173 -0.0995
   59MOL0     C 8038  -1.193   7.121   2.357  0.0412  0.9850  0.6863
   59MOL0     C 8039  -1.230   7.256   2.325 -0.1638  0.1596  0.9404
   59MOL0     O 8040  -1.300   7.337   2.413 -0.1456 -0.3974 -0.4330
   59MOL0     C 8041  -1.407   7.279   2.484 -0.6023  1.0502 -0.4142
   59MOL0     C 8042  -1.508   7.388   2.512 -0.5317 -0.2530 -0.1209
   59MOL0     C 8043  -1.651   7.351   2.570 -0.9529 -0.6557  0.7457
   59MOL0     C 8044  -1.747   7.277   2.464 -0.2838 -0.5656 -0.4182
   59MOL0     C 8045  -1.888   7.279   2.520  0.5285  0.0849  0.2890
   59MOL0     C 8046  -2.004   7.217   2.434  0.3209 -0.3032 -0.0556
   59MOL0     C 8047  -1.990   7.239   2.286  0.1395  1.0276 -1.1707
   59MOL0     C 8048  -2.116   7.173   2.202 -0.7116 -0.1993 -0.4146
   59MOL0    Cl 8049  -2.275   7.278   2.228 -0.0856  0.0456  0.3334
   59MOL0     C 8050  -1.198   7.309   2.205  0.7116 -0.5349 -0.2670
   59MOL0     C 8051  -1.147   7.225   2.110 -0.6721 -0.5403  0.4687
   59MOL0     O 8052  -1.209   6.901   1.995 -0.3805  0.9879  0.0043
   59MOL0     C 8053  -0.915   6.869   1.827  1.1695  0.3498  0.5770
   59MOL0     C 8054  -0.830   6.789   1.752  0.7870 -0.7161  0.7432
   59MOL0     N 8055  -0.316   6.229   1.516  0.5720 -0.9079  0.0778
   59MOL0     N 8056  -0.338   6.105   1.544 -0.2718  0.5878 -0.6721
   59MOL0     C 8057  -0.167   5.285   1.026 -0.7896  0.0459 -0.0606
   59MOL0     C 8058  -0.120   5.181   0.949  0.7800  1.1127  0.0465
   59MOL0     C 8059  -0.061   4.784   0.743  0.0226 -0.4783 -0.1631
   59MOL0     C 8060  -0.128   4.677   0.805 -0.2717  0.2513  0.4754
   59MOL0     C 8061  -0.136   4.552   0.741  0.1629 -0.2285  0.0461
   59MOL0     C 8062  -0.089   4.533   0.613  0.6966  0.9645  0.2411
   59MOL0     O 8063  -0.128   4.425   0.534 -0.0232 -0.1406  0.1869
   59MOL0     C 8064  -0.158   4.302   0.590  0.1512 -0.5282 -1.0323
   59MOL0     C 8065  -0.123   4.188   0.491  0.1379 -0.6616 -0.3705
   59MOL0     C 8066  -0.009   4.232   0.399 -0.5255 -0.0553  0.6704
   59MOL0     C 8067   0.051   4.115   0.314 -0.1428 -0.5591 -0.4722
   59MOL0     C 8068  -0.047   4.076   0.218  0.8394  0.1071  0.7201
   59MOL0     C 8069  -0.128   4.032   0.137  0.7151  0.1136 -1.1286
   59MOL0     C 8070  -0.007   4.639   0.560 -0.1355  0.6292 -0.5153
   59MOL0     C 8071   0.007   4.758   0.621  0.6300 -0.4884  0.6488
   59MOL0     C 8072   0.079   4.866   0.545  0.4652  0.3228  0.0481
   59MOL0     H 8073  -0.311   4.930   1.099  1.9006 -1.0742  2.1911
   59MOL0     H 8074  -0.372   5.111   1.240 -0.2904  0.1050 -0.5001
   59MOL0     H 8075  -0.498   5.338   1.158 -0.2318  0.8398 -1.2999
   59MOL0     H 8076  -0.438   5.511   1.188  3.1014  0.4994  1.6344
   59MOL0     H 8077  -0.419   5.282   1.392  0.3688  0.4540  0.5254
   59MOL0     H 8078  -0.384   5.447   1.412 -0.0466  0.9969  0.9888
   59MOL0     H 8079  -0.669   5.415   1.325 -0.5440 -1.1754  0.3295
   59MOL0     H 8080  -0.633   5.286   1.441 -2.1416  1.0837  1.6221
   59MOL0     H 8081  -0.695   5.469   1.575  3.1195 -0.5718  3.7429
   59MOL0     H 8082  -0.535   5.476   1.594  0.6598 -1.2818 -0.6600
   59MOL0     H 8083  -0.708   5.641   1.410  2.0017  1.9039  0.1511
   59MOL0     H 8084  -0.524   5.654   1.394  1.3367 -1.3806  0.8061
   59MOL0     H 8085  -0.712   5.730   1.618 -1.9339  1.9375 -4.8330
   59MOL0     H 8086  -0.531   5.719   1.648  0.7745  0.1099 -0.0959
   59MOL0     H 8087  -0.605   5.946   1.613 -1.6478  0.1690 -0.0413
   59MOL0     H 8088  -0.690   5.898   1.470  1.1847 -0.7394 -1.8802
   59MOL0     H 8089  -0.394   5.863   1.484  2.9319  1.2102 -3.9613
   59MOL0     H 8090  -0.498   5.899   1.342  2.9841  0.4326 -0.6654
   59MOL0     H 8091  -0.579   6.159   1.328  2.2563 -0.9021 -2.5506
   59MOL0     H 8092  -0.430   6.442   1.280 -2.1570 -2.2162 -0.1862
   59MOL0     H 8093  -0.321   6.460   1.418 -0.6506 -0.0285  1.9660
   59MOL0     H 8094  -0.491   6.611   1.428  0.9983 -0.2544 -1.2532
   59MOL0     H 8095  -0.619   6.481   1.410 -1.2685  2.6561  1.0719
   59MOL0     H 8096  -0.586   6.400   1.629 -0.7939  0.2680  0.5664
   59MOL0     H 8097  -0.429   6.470   1.656  0.8602 -1.3339  0.0473
   59MOL0     H 8098  -0.556   6.597   1.793 -0.8507 -2.3597  0.3554
   59MOL0     H 8099  -0.575   6.692   1.645  2.7711 -0.5911 -0.9727
   59MOL0     H 8100  -0.961   6.493   1.837 -1.5803  0.3813  3.4646
   59MOL0     H 8101  -1.101   6.646   2.115 -1.4628  1.0505 -0.2717
   59MOL0     H 8102  -1.131   6.513   1.995  1.3644  0.2212  2.0395
   59MOL0     H 8103  -1.226   6.661   1.984  0.9014  3.0385 -0.8018
   59MOL0     H 8104  -1.098   6.936   2.269 -2.4548 -1.1707 -2.8313
   59MOL0     H 8105  -1.217   7.072   2.451 -0.7101 -2.3854 -1.0859
   59MOL0     H 8106  -1.458   7.200   2.429  2.1070 -0.7519 -0.5476
   59MOL0     H 8107  -1.353   7.236   2.570  1.7450  3.4654 -0.5565
   59MOL0     H 8108  -1.465   7.467   2.575 -1.5524  0.5046 -0.3358
   59MOL0     H 8109  -1.517   7.440   2.416  2.1039 -0.2657 -0.4616
   59MOL0     H 8110  -1.702   7.445   2.591 -0.5891 -0.0921 -0.7501
   59MOL0     H 8111  -1.638   7.290   2.660  0.8795  0.0636  1.0136
   59MOL0     H 8112  -1.710   7.177   2.438  2.9436  0.3752  0.1696
   59MOL0     H 8113  -1.743   7.338   2.374  0.0802 -0.6389 -0.4503
   59MOL0     H 8114  -1.902   7.235   2.620 -0.8464 -0.6729 -0.2176
   59MOL0     H 8115  -1.904   7.386   2.538 -1.4158 -0.1181 -0.0585
   59MOL0     H 8116  -2.094   7.263   2.476  0.7436  0.3342  0.1601
   59MOL0     H 8117  -2.015   7.109   2.443 -0.4250 -0.0822  2.4660
   59MOL0     H 8118  -1.894   7.198   2.251 -0.8418 -0.7487 -1.9029
   59MOL0     H 8119  -1.999   7.347   2.273 -2.3663  1.4467  2.6789
   59MOL0     H 8120  -2.128   7.068   2.229 -3.5141  0.1261 -0.0701
   59MOL0     H 8121  -2.086   7.166   2.097 -3.4019  1.0380 -1.3665
   59MOL0     H 8122  -1.218   7.410   2.169  1.4521 -0.5740 -0.8165
   59MOL0     H 8123  -1.114   7.254   2.011 -2.8733  4.6359  0.9227
   59MOL0     H 8124  -0.919   6.977   1.813 -0.5175  0.1235 -1.0507
   59MOL0     H 8125  -0.755   6.839   1.691  0.7186 -4.2038 -2.5957
   59MOL0     H 8126  -0.136   5.388   1.017 -1.8800  0.3111 -1.0525
   59MOL0     H 8127  -0.059   5.194   0.860 -1.8177  0.1007 -2.0211
   59MOL0     H 8128  -0.184   4.700   0.896 -0.8814  2.1244 -0.3168
   59MOL0     H 8129  -0.207   4.491   0.796 -1.9200  2.6496  0.8270
   59MOL0     H 8130  -0.108   4.281   0.686 -2.5829  0.6947  0.7846
   59MOL0     H 8131  -0.264   4.293   0.616  0.5848 -0.1250  1.0961
   59MOL0     H 8132  -0.203   4.169   0.418  0.0761  1.4294 -0.9144
   59MOL0     H 8133  -0.103   4.094   0.544 -0.1310 -0.3864  0.2304
   59MOL0     H 8134  -0.031   4.309   0.325 -0.6125  1.9374  2.6537
   59MOL0     H 8135   0.071   4.262   0.468  0.3326 -1.4381  0.3132
   59MOL0     H 8136   0.066   4.027   0.377  2.4126  1.2175  1.6351
   59MOL0     H 8137   0.149   4.139   0.271 -0.4265 -1.5019 -1.6883
   59MOL0     H 8138  -0.192   4.000   0.057  2.6621  1.1338 -3.2019
   59MOL0     H 8139   0.036   4.605   0.466  1.6002 -2.5032  1.2355
   59MOL0     H 8140   0.127   4.821   0.458  0.1718 -0.8978  0.5109
   59MOL0     H 8141   0.024   4.952   0.506  1.1753  1.2099  0.9317
   59MOL0     H 8142   0.156   4.904   0.614  0.4967 -3.3368  2.2825
   60MOL0     O 8143   2.596   7.084   1.820  0.0489  0.0917  0.4714
   60MOL0     C 8144   2.638   7.020   1.913  0.9553 -0.3382  0.5857
   60MOL0     O 8145   2.592   7.026   2.038 -0.0564 -0.0640  0.3236
   60MOL0     C 8146   2.480   7.097   2.068 -0.6949  0.1084 -0.4645
   60MOL0     C 8147   2.356   7.051   2.033  0.1045  0.1942  0.2262
   60MOL0     C 8148   2.237   7.089   2.105  0.3426  1.4082  0.7344
   60MOL0     C 8149   2.258   7.174   2.212 -0.1956 -0.0353 -0.5063
   60MOL0     O 8150   2.151   7.210   2.290  0.4689  0.3335  0.2892
   60MOL0     C 8151   2.017   7.153   2.262 -0.3197  0.1808 -0.5067
   60MOL0     C 8152   1.901   7.229   2.328 -0.3251  0.7409 -0.3047
   60MOL0     C 8153   1.909   7.228   2.488  0.4303 -0.3763  0.5799
   60MOL0     C 8154   1.856   7.094   2.543 -0.7525 -0.2805 -1.2285
   60MOL0     C 8155   1.848   7.093   2.699 -0.0189  0.3740 -0.5890
   60MOL0     C 8156   1.983   7.082   2.767  0.9426  0.6955  0.5713
   60MOL0     C 8157   2.026   6.927   2.761 -0.0409 -0.5879  0.0279
   60MOL0     C 8158   2.130   6.879   2.856  1.8425 -0.3714 -0.3379
   60MOL0     N 8159   2.135   6.734   2.854  0.2091 -0.4974 -0.5993
   60MOL0     C 8160   2.220   6.666   2.766  1.0592 -0.7575 -0.5999
   60MOL0     C 8161   2.214   6.545   2.816  1.1500  0.9060  0.2074
   60MOL0     C 8162   2.323   6.437   2.794  0.6896 -0.6660 -0.5364
   60MOL0     C 8163   2.290   6.351   2.672  0.5709 -0.9254  0.1320
   60MOL0     C 8164   2.404   6.325   2.578  1.2803  0.0648 -0.3653
   60MOL0     C 8165   2.504   6.241   2.639 -0.8247 -0.6550 -0.9586
   60MOL0     O 8166   2.592   6.317   2.735 -0.1375 -0.4331  0.4798
   60MOL0     C 8167   2.702   6.381   2.671 -0.2328  0.2885  0.7429
   60MOL0     C 8168   2.791   6.457   2.751 -0.1854  0.4288 -0.3007
   60MOL0     C 8169   2.901   6.523   2.699  0.3823 -0.6170  0.1636
   60MOL0     C 8170   2.980   6.609   2.797  0.8603 -0.8740  0.6383
   60MOL0     C 8171   2.920   6.532   2.558  0.7185 -0.1049  0.6692
   60MOL0     C 8172   3.036   6.605   2.490  0.1672 -0.5835  0.2660
   60MOL0     O 8173   3.019   6.641   2.359  0.2319  0.1132 -0.6074
   60MOL0     C 8174   3.117   6.709   2.299 -0.2400  0.2667 -0.2475
   60MOL0     C 8175   3.122   6.848   2.317 -0.2513  0.0657  0.2821
   60MOL0     C 8176   3.219   6.920   2.249 -0.7915 -0.3809 -0.5022
   60MOL0     C 8177   3.315   6.848   2.165  0.3818 -0.6662  0.9736
   60MOL0     O 8178   3.416   6.902   2.096 -0.9115 -0.0188 -0.5152
   60MOL0     C 8179   3.434   7.041   2.110 -0.2120  1.4905  0.3093
   60MOL0     C 8180   3.531   7.107   2.024 -0.4405  0.2862 -0.8377
   60MOL0     C 8181   3.532   7.259   2.049 -0.3460  0.2021  0.3599
   60MOL0     C 8182   3.674   7.327   2.002  0.4608 -0.2055 -0.4626
   60MOL0     C 8183   3.696   7.472   2.043  0.5094 -0.5285 -0.0450
   60MOL0     C 8184   3.815   7.535   1.976 -0.0391 -0.3594  0.5891
   60MOL0     C 8185   3.832   7.672   2.037 -0.0098 -0.0783 -0.9196
   60MOL0     C 8186   3.968   7.742   2.013 -0.7993  0.1770  0.0944
   60MOL0    Cl 8187   4.082   7.644   2.106  0.2103 -0.1308 -0.7596
   60MOL0     C 8188   3.313   6.710   2.154  1.0576  1.1032 -0.4118
   60MOL0     C 8189   3.205   6.644   2.221  0.1496 -0.2528  0.0374
   60MOL0     O 8190   3.139   6.637   2.553  0.2935  0.1911  0.3975
   60MOL0     C 8191   2.842   6.456   2.479  0.3202  0.4441  0.5231
   60MOL0     C 8192   2.733   6.373   2.535  0.0800 -0.2094 -0.0942
   60MOL0     N 8193   2.124   6.532   2.924 -1.3005 -0.5288  0.2260
   60MOL0     N 8194   2.078   6.647   2.941  1.2164  0.4315  1.1404
   60MOL0     C 8195   2.389   7.220   2.254  0.7375  1.0236 -0.1282
   60MOL0     C 8196   2.500   7.176   2.180  1.3079  0.4393  0.0458
   60MOL0     C 8197   2.762   6.945   1.890  0.8434  0.8111 -0.0230
   60MOL0     C 8198   2.766   6.851   1.787 -0.6028 -0.1916  0.7223
   60MOL0     C 8199   2.875   6.769   1.772  0.3300  0.1594 -0.5096
   60MOL0     C 8200   2.987   6.777   1.846  0.7059  0.3965 -0.1817
   60MOL0     O 8201   3.101   6.708   1.826 -0.3147 -0.7850 -0.2118
   60MOL0     C 8202   3.115   6.636   1.700 -0.1425 -0.0512  0.2415
   60MOL0     C 8203   3.228   6.533   1.735  0.2514  0.5889 -0.4074
   60MOL0     C 8204   3.360   6.602   1.760  0.1067  0.0400 -0.4062
   60MOL0     C 8205   3.396   6.678   1.632 -0.8175  1.0457  0.1011
   60MOL0     C 8206   3.390   6.591   1.509 -0.2581 -0.2266  0.5601
   60MOL0     C 8207   3.388   6.563   1.394  0.6732 -0.9392  0.1259
   60MOL0     C 8208   2.980   6.856   1.956 -0.2168  0.1812  0.6007
   60MOL0     C 8209   2.876   6.948   1.979 -0.0607  0.4503  0.6598
   60MOL0     C 8210   2.877   7.051   2.093 -0.1319 -0.0296  0.8216
   60MOL0     H 8211   2.337   6.978   1.954 -0.6483 -0.3974  0.9359
   60MOL0     H 8212   2.149   7.027   2.088  1.2888  0.7341 -2.4050
   60MOL0     H 8213   2.015   7.049   2.297 -3.9316 -0.4959 -2.2638
   60MOL0     H 8214   2.002   7.144   2.154  1.8437  2.3245 -1.0744
   60MOL0     H 8215   1.918   7.334   2.300  1.2291  0.2732 -1.2136
   60MOL0     H 8216   1.807   7.190   2.289 -0.4445 -0.5004  1.1418
   60MOL0     H 8217   2.003   7.252   2.537  0.3861  0.0707  0.4499
   60MOL0     H 8218   1.843   7.304   2.530  0.4491 -1.8507  3.5687
   60MOL0     H 8219   1.756   7.083   2.498 -1.6017  1.0993  0.2051
   60MOL0     H 8220   1.925   7.014   2.516  1.3891  0.3147  1.9445
   60MOL0     H 8221   1.800   7.002   2.735 -1.3985  1.3640  0.1207
   60MOL0     H 8222   1.788   7.177   2.735 -0.3595 -0.1078 -0.0269
   60MOL0     H 8223   2.052   7.151   2.718  3.2853 -2.3537 -0.7826
   60MOL0     H 8224   1.974   7.122   2.868  0.3271 -0.3937  0.9646
   60MOL0     H 8225   2.063   6.896   2.663 -0.0430  2.7090 -1.1646
   60MOL0     H 8226   1.938   6.870   2.789 -0.5969  1.5404  3.0637
   60MOL0     H 8227   2.224   6.929   2.832  2.7865  0.2163  3.8640
   60MOL0     H 8228   2.110   6.915   2.957 -2.2114 -2.5077 -0.1812
   60MOL0     H 8229   2.282   6.712   2.690  0.5413  1.4922  0.2367
   60MOL0     H 8230   2.324   6.381   2.888 -0.3555  2.0421  1.2118
   60MOL0     H 8231   2.413   6.499   2.788 -0.5790  1.3001 -0.2201
   60MOL0     H 8232   2.251   6.257   2.712  1.3625 -0.9893  0.7590
   60MOL0     H 8233   2.207   6.400   2.620  0.3130 -0.4552  0.9843
   60MOL0     H 8234   2.355   6.273   2.495 -0.3406  0.1997  0.4775
   60MOL0     H 8235   2.446   6.420   2.542 -0.0307  0.5500 -0.6486
   60MOL0     H 8236   2.469   6.154   2.696 -0.6276  0.4090  0.8768
   60MOL0     H 8237   2.558   6.196   2.555  1.7438 -0.1873  0.3124
   60MOL0     H 8238   2.762   6.469   2.855  0.3262  3.7492 -0.4409
   60MOL0     H 8239   2.977   6.715   2.773 -2.1694 -1.0709 -0.2015
   60MOL0     H 8240   3.082   6.570   2.789  1.1950  0.3159 -1.4836
   60MOL0     H 8241   2.956   6.592   2.903  2.5834  0.5911  1.3147
   60MOL0     H 8242   3.038   6.895   2.368  1.7023  3.1408  0.8996
   60MOL0     H 8243   3.224   7.027   2.262  4.0122  0.1577 -4.2105
   60MOL0     H 8244   3.335   7.077   2.078 -1.8407 -2.9520 -0.4202
   60MOL0     H 8245   3.458   7.060   2.215 -2.7851 -3.9410  2.2800
   60MOL0     H 8246   3.629   7.062   2.041 -1.3982 -1.0935  1.5152
   60MOL0     H 8247   3.518   7.083   1.918  3.1547 -0.9673 -1.1148
   60MOL0     H 8248   3.504   7.281   2.153  2.6228 -1.9453  1.7808
   60MOL0     H 8249   3.459   7.305   1.982 -0.8183  0.4519  1.0382
   60MOL0     H 8250   3.679   7.312   1.893  2.4035 -3.1722 -0.0825
   60MOL0     H 8251   3.752   7.261   2.040 -2.2397 -3.1284  0.4336
   60MOL0     H 8252   3.608   7.535   2.030 -0.0705 -1.4734 -0.8554
   60MOL0     H 8253   3.729   7.472   2.147  0.6879 -3.9679  0.0334
   60MOL0     H 8254   3.785   7.537   1.871 -0.3686 -1.2508  0.6632
   60MOL0     H 8255   3.905   7.473   1.985 -0.4944 -1.2794 -0.7939
   60MOL0     H 8256   3.823   7.668   2.146 -1.6108  0.8083 -0.9862
   60MOL0     H 8257   3.744   7.731   2.010 -0.3399 -0.3729 -0.5033
   60MOL0     H 8258   3.965   7.849   2.038  1.1705  0.1772  0.5261
   60MOL0     H 8259   3.989   7.724   1.907 -2.4030 -1.7538  0.0485
   60MOL0     H 8260   3.388   6.661   2.094 -0.7036 -2.0739 -0.2274
   60MOL0     H 8261   3.201   6.537   2.206  0.2242 -0.2215 -0.1975
   60MOL0     H 8262   2.862   6.451   2.373  0.9832  2.4766  0.5082
   60MOL0     H 8263   2.665   6.319   2.470 -1.1098 -3.3874  3.3979
   60MOL0     H 8264   2.401   7.271   2.349  0.9121  3.4297 -1.3525
   60MOL0     H 8265   2.601   7.203   2.211  1.3936  1.4002 -0.9922
   60MOL0     H 8266   2.681   6.846   1.719  1.6179  0.6538 -2.3532
   60MOL0     H 8267   2.877   6.709   1.682 -0.1566  0.2065 -0.5534
   60MOL0     H 8268   3.023   6.584   1.671 -0.5512  0.0054  1.4094
   60MOL0     H 8269   3.148   6.696   1.615  2.2239  1.1200  1.8738
   60MOL0     H 8270   3.245   6.460   1.655  1.1150  2.1673 -1.7466
   60MOL0     H 8271   3.199   6.475   1.822  3.2916  0.1510  0.4422
   60MOL0     H 8272   3.358   6.656   1.855  5.8844  0.4929 -0.1809
   60MOL0     H 8273   3.430   6.525   1.794 -0.5836 -1.0403 -1.3597
   60MOL0     H 8274   3.500   6.713   1.640 -0.7213  1.4343 -2.2338
   60MOL0     H 8275   3.341   6.771   1.615  0.1107  1.7566  0.8777
   60MOL0     H 8276   3.383   6.559   1.287 -0.3548  4.5702 -0.3374
   60MOL0     H 8277   3.070   6.856   2.018  1.7195  1.4870 -2.0119
   60MOL0     H 8278   2.799   7.037   2.169 -0.6024  0.7429  0.4977
   60MOL0     H 8279   2.964   7.031   2.155 -1.3216 -4.3993  1.4008
   60MOL0     H 8280   2.877   7.153   2.053  1.7996  0.6486  2.4152
   61MOL0     O 8281   0.477   1.133   7.424 -0.1570  0.0067 -0.4000
   61MOL0     C 8282   0.495   1.254   7.429 -0.1781 -0.0534 -0.4670
   61MOL0     O 8283   0.586   1.322   7.497 -0.4900  0.2207 -0.0902
   61MOL0     C 8284   0.663   1.266   7.596  1.0550  0.0564  0.0477
   61MOL0     C 8285   0.611   1.248   7.722 -0.0881 -0.0542  0.5090
   61MOL0     C 8286   0.693   1.198   7.827  0.2854 -0.1352 -0.2621
   61MOL0     C 8287   0.826   1.165   7.799  0.1949  0.5536  0.5178
   61MOL0     O 8288   0.904   1.107   7.895 -0.4646 -1.1633 -0.4252
   61MOL0     C 8289   0.845   1.039   8.003 -0.0126  0.0959 -0.7160
   61MOL0     C 8290   0.935   0.944   8.069 -0.1889 -0.9858 -0.0902
   61MOL0     C 8291   0.977   0.814   7.990  0.6689 -0.1851  0.4065
   61MOL0     C 8292   1.047   0.845   7.854  0.7912  0.0900 -0.1541
   61MOL0     C 8293   1.128   0.736   7.790  1.0452 -0.8925  1.9500
   61MOL0     C 8294   1.190   0.785   7.649  0.6392 -0.3327  0.2748
   61MOL0     C 8295   1.271   0.670   7.585 -0.1075 -0.0813  0.8028
   61MOL0     C 8296   1.399   0.648   7.650  0.2776  0.6765 -0.9918
   61MOL0     N 8297   1.452   0.525   7.597 -0.3265  0.0475 -0.0142
   61MOL0     C 8298   1.500   0.494   7.473  0.5615 -0.5969 -0.6832
   61MOL0     C 8299   1.564   0.376   7.487 -0.5521  0.5766  0.3195
   61MOL0     C 8300   1.680   0.329   7.396  0.4343  0.4092 -0.5644
   61MOL0     C 8301   1.825   0.363   7.441 -1.1767  0.5091 -0.0953
   61MOL0     C 8302   1.881   0.477   7.359 -1.0094  0.3194  0.4044
   61MOL0     C 8303   2.016   0.523   7.417 -1.2255 -0.5240  0.9932
   61MOL0     O 8304   1.986   0.568   7.543  0.3260 -0.3063  0.4609
   61MOL0     C 8305   2.082   0.623   7.628  0.2958 -0.4448 -0.7185
   61MOL0     C 8306   2.209   0.574   7.619 -0.1055  0.5109  0.4166
   61MOL0     C 8307   2.305   0.641   7.702 -0.7142  0.7390 -0.0976
   61MOL0     C 8308   2.442   0.572   7.696  0.4249  0.5942 -0.3127
   61MOL0     C 8309   2.270   0.742   7.798  0.2863 -0.6712  0.0556
   61MOL0     C 8310   2.371   0.807   7.888  0.0043 -0.7302  0.0753
   61MOL0     O 8311   2.352   0.933   7.937 -0.1833 -0.1544 -0.7259
   61MOL0     C 8312   2.450   0.983   8.022  0.5604 -0.9526 -0.5825
   61MOL0     C 8313   2.577   1.013   7.974  0.1625  0.7327  0.4566
   61MOL0     C 8314   2.661   1.087   8.068 -0.0487  0.4884  0.3445
   61MOL0     C 8315   2.627   1.099   8.199 -0.0626  0.1396  0.7921
   61MOL0     O 8316   2.704   1.141   8.298 -0.6989  0.2324  1.3523
   61MOL0     C 8317   2.832   1.210   8.279 -0.6280 -0.5606 -0.2635
   61MOL0     C 8318   2.921   1.241   8.407 -0.1105 -0.3893  0.5450
   61MOL0     C 8319   2.853   1.353   8.485  0.0653  0.1217 -0.4826
   61MOL0     C 8320   2.896   1.497   8.437 -0.3589 -0.5284 -0.3322
   61MOL0     C 8321   3.017   1.552   8.509  0.1243 -0.5168  0.0372
   61MOL0     C 8322   2.987   1.588   8.653  0.5135 -0.1287 -1.4849
   61MOL0     C 8323   3.107   1.651   8.719 -0.1011 -0.0706 -0.0554
   61MOL0     C 8324   3.070   1.660   8.879  0.6590  0.6499  0.6158
   61MOL0    Cl 8325   3.059   1.497   8.960 -0.2900 -0.2059  0.2040
   61MOL0     C 8326   2.499   1.073   8.241  0.5108  0.8142 -0.2280
   61MOL0     C 8327   2.416   1.025   8.148  0.6752  0.0573 -0.5389
   61MOL0     O 8328   2.460   0.730   7.926 -0.6484  0.3296  0.6797
   61MOL0     C 8329   2.140   0.787   7.800  0.1599  0.9099  0.2070
   61MOL0     C 8330   2.045   0.717   7.723 -0.2928 -0.1040 -0.0953
   61MOL0     N 8331   1.537   0.317   7.612 -0.1105 -0.3817  0.0031
   61MOL0     N 8332   1.483   0.419   7.674  0.0464  0.2369 -1.1193
   61MOL0     C 8333   0.876   1.177   7.672 -0.8846  0.6292 -0.5110
   61MOL0     C 8334   0.789   1.217   7.574 -0.6101 -0.1698  0.3579
   61MOL0     C 8335   0.408   1.330   7.340  1.1062 -0.7126  0.5616
   61MOL0     C 8336   0.441   1.469   7.340 -0.2106  0.6607  0.7891
   61MOL0     C 8337   0.363   1.562   7.267 -0.4435  0.3595 -0.0117
   61MOL0     C 8338   0.243   1.526   7.215 -0.0687  0.2453 -0.5771
   61MOL0     O 8339   0.152   1.603   7.162 -0.4321 -0.4905 -0.2467
   61MOL0     C 8340   0.165   1.747   7.172  0.8075  0.5464  1.0719
   61MOL0     C 8341   0.078   1.811   7.070  0.8348  0.0915  0.1668
   61MOL0     C 8342  -0.073   1.782   7.105 -0.4287  0.5616  0.3752
   61MOL0     C 8343  -0.174   1.837   6.993 -0.4952  0.2865 -1.1333
   61MOL0     C 8344  -0.156   1.980   7.004 -0.3719  0.3338  0.2273
   61MOL0     C 8345  -0.144   2.099   7.029 -0.7001 -0.3562 -0.9374
   61MOL0     C 8346   0.209   1.393   7.215 -0.3883  0.1463 -0.5213
   61MOL0     C 8347   0.286   1.289   7.280  0.3150  1.0331  0.1283
   61MOL0     C 8348   0.249   1.138   7.256 -0.0004 -0.1254 -0.2705
   61MOL0     H 8349   0.516   1.300   7.735 -0.3859 -0.9110  1.9066
   61MOL0     H 8350   0.676   1.185   7.933  4.5082  1.6675  0.8263
   61MOL0     H 8351   0.759   0.979   7.970  0.0813  0.0928 -0.9612
   61MOL0     H 8352   0.810   1.116   8.073 -0.8094 -1.5203  0.7440
   61MOL0     H 8353   1.032   0.988   8.095  0.4664 -2.2336 -0.3420
   61MOL0     H 8354   0.891   0.909   8.163  2.0810 -1.9796  0.6883
   61MOL0     H 8355   1.048   0.767   8.060  0.9509  0.2209  0.3971
   61MOL0     H 8356   0.887   0.754   7.977 -0.7878  1.8703  0.6122
   61MOL0     H 8357   0.970   0.864   7.778 -2.3598 -0.8001  2.5584
   61MOL0     H 8358   1.112   0.933   7.858  0.5676  0.3312 -1.4219
   61MOL0     H 8359   1.062   0.649   7.782  0.5552 -0.4347  0.9788
   61MOL0     H 8360   1.203   0.703   7.863  0.6230 -6.8459  0.2055
   61MOL0     H 8361   1.107   0.800   7.579 -0.0834  0.2006  1.2211
   61MOL0     H 8362   1.242   0.881   7.655  2.9267 -1.3809 -1.1526
   61MOL0     H 8363   1.290   0.690   7.479 -1.3428  0.1746  0.6124
   61MOL0     H 8364   1.204   0.583   7.590 -0.8466  0.5506  3.0557
   61MOL0     H 8365   1.465   0.734   7.636  2.4661 -0.9569 -1.1806
   61MOL0     H 8366   1.383   0.649   7.758 -1.2088 -0.1256 -1.1717
   61MOL0     H 8367   1.495   0.562   7.389 -1.1557 -2.6935 -2.4004
   61MOL0     H 8368   1.667   0.357   7.291  1.9971  0.2470 -0.8144
   61MOL0     H 8369   1.669   0.220   7.395  0.2252  0.3978 -2.9732
   61MOL0     H 8370   1.834   0.391   7.546 -0.4241  0.9954 -0.2777
   61MOL0     H 8371   1.890   0.278   7.422 -1.6580  0.1442 -0.1349
   61MOL0     H 8372   1.889   0.429   7.260  4.0316 -0.6248  0.9918
   61MOL0     H 8373   1.815   0.564   7.354 -0.6303  0.5918  0.0932
   61MOL0     H 8374   2.088   0.440   7.414 -1.7167 -1.0388  2.5619
   61MOL0     H 8375   2.059   0.598   7.350 -0.9894 -2.1633 -0.7857
   61MOL0     H 8376   2.239   0.503   7.543 -0.0310  1.9611 -0.9609
   61MOL0     H 8377   2.447   0.520   7.600  0.9633  1.2145 -0.6316
   61MOL0     H 8378   2.468   0.508   7.780  1.1334  2.0232  0.5897
   61MOL0     H 8379   2.515   0.653   7.689  0.6732  0.3090 -1.2316
   61MOL0     H 8380   2.602   0.991   7.871 -0.1775  1.4718  0.2121
   61MOL0     H 8381   2.753   1.131   8.031 -0.3836  0.7546 -0.1840
   61MOL0     H 8382   2.899   1.137   8.232 -1.3179 -1.7974  0.6256
   61MOL0     H 8383   2.829   1.297   8.213  1.6408 -1.2470 -1.3716
   61MOL0     H 8384   2.932   1.150   8.466  1.6101  0.1784  1.1575
   61MOL0     H 8385   3.020   1.277   8.379 -1.0729  0.1350 -2.6664
   61MOL0     H 8386   2.885   1.336   8.588  1.4807  0.5961 -0.8289
   61MOL0     H 8387   2.745   1.348   8.465  0.3152 -2.2970 -1.5612
   61MOL0     H 8388   2.808   1.561   8.448  0.7376  1.3193 -1.7036
   61MOL0     H 8389   2.911   1.511   8.330 -4.9936  0.2779 -1.1039
   61MOL0     H 8390   3.101   1.482   8.505  1.2006  0.4581  2.6685
   61MOL0     H 8391   3.041   1.641   8.450 -3.0915  0.6264  0.2379
   61MOL0     H 8392   2.959   1.500   8.713  0.2298  1.8770  1.5233
   61MOL0     H 8393   2.906   1.661   8.655 -0.1171 -0.8137 -1.3325
   61MOL0     H 8394   3.114   1.755   8.687 -4.1278  1.3284  2.8187
   61MOL0     H 8395   3.200   1.595   8.700  0.6452  0.5905  1.4594
   61MOL0     H 8396   2.980   1.720   8.890  0.9330  1.4587 -1.3116
   61MOL0     H 8397   3.149   1.724   8.922  2.1403 -0.3926 -0.4558
   61MOL0     H 8398   2.465   1.086   8.343  0.1986 -1.2260 -0.0327
   61MOL0     H 8399   2.315   1.014   8.187  1.0115  0.7667  0.5949
   61MOL0     H 8400   2.117   0.857   7.880  1.5491  0.8577  0.6803
   61MOL0     H 8401   1.940   0.738   7.741  0.3064  1.1969  2.2066
   61MOL0     H 8402   0.975   1.135   7.661 -0.6916  0.5531  1.2782
   61MOL0     H 8403   0.823   1.229   7.472  1.4016  0.9448  1.0992
   61MOL0     H 8404   0.528   1.524   7.377  0.6539 -1.2216  1.6742
   61MOL0     H 8405   0.398   1.664   7.280 -0.7096  0.6723 -1.5168
   61MOL0     H 8406   0.130   1.776   7.271 -2.7009  1.4825 -0.2873
   61MOL0     H 8407   0.269   1.777   7.157  1.1824 -0.5245  1.4181
   61MOL0     H 8408   0.095   1.755   6.977 -0.3565  1.9004 -1.1793
   61MOL0     H 8409   0.102   1.916   7.051 -0.0491  0.8278  2.7156
   61MOL0     H 8410  -0.089   1.675   7.117 -1.9986  0.9364  2.0478
   61MOL0     H 8411  -0.095   1.837   7.197 -0.0833  2.0551 -0.4042
   61MOL0     H 8412  -0.278   1.822   7.023 -0.3704 -0.4671 -1.0401
   61MOL0     H 8413  -0.151   1.806   6.891 -3.0079  0.0113 -1.6591
   61MOL0     H 8414  -0.127   2.203   7.045 -1.7652  0.0309 -2.1418
   61MOL0     H 8415   0.115   1.375   7.166 -1.4075 -0.1130  1.4124
   61MOL0     H 8416   0.311   1.104   7.172 -0.7018  0.0489 -0.8730
   61MOL0     H 8417   0.256   1.071   7.342  1.5048  0.4755  0.1101
   61MOL0     H 8418   0.144   1.121   7.232 -0.8936  1.3427  2.1797
   62MOL0     O 8419   5.520   9.867   8.473  0.0675 -0.3279  0.6084
   62MOL0     C 8420   5.472   9.883   8.358 -0.1814  0.2629 -0.1540
   62MOL0     O 8421   5.455  10.001   8.291  0.6364 -0.0089 -0.3342
   62MOL0     C 8422   5.458  10.117   8.359 -0.5888  1.2723 -0.4005
   62MOL0     C 8423   5.535  10.224   8.312 -0.2090  1.3812 -0.1277
   62MOL0     C 8424   5.560  10.336   8.385 -0.7098  0.6797 -0.2022
   62MOL0     C 8425   5.484  10.365   8.500  0.3310 -0.0872  0.5320
   62MOL0     O 8426   5.506  10.485   8.565  0.8222 -0.4662  0.3198
   62MOL0     C 8427   5.421  10.585   8.523  1.2489 -0.4677 -0.0252
   62MOL0     C 8428   5.490  10.710   8.494  0.0000 -0.3488  0.4759
   62MOL0     C 8429   5.386  10.821   8.471  0.0288 -0.1798  0.3631
   62MOL0     C 8430   5.446  10.961   8.485 -0.3317  0.9501  0.4413
   62MOL0     C 8431   5.352  11.076   8.442 -0.6079 -0.2960  0.0376
   62MOL0     C 8432   5.428  11.214   8.435  0.7155  0.2028 -0.0957
   62MOL0     C 8433   5.330  11.325   8.404 -0.0017 -1.0798 -0.3871
   62MOL0     C 8434   5.404  11.468   8.399 -0.1277 -0.5440 -0.1018
   62MOL0     N 8435   5.489  11.467   8.284 -0.3656  0.1707  0.5606
   62MOL0     C 8436   5.459  11.417   8.152 -0.8400 -0.4502 -0.4517
   62MOL0     C 8437   5.563  11.469   8.072  0.5792  0.8019 -1.1026
   62MOL0     C 8438   5.560  11.464   7.929 -0.0295  0.1911 -0.5513
   62MOL0     C 8439   5.524  11.587   7.854  1.2102  0.2821 -0.1687
   62MOL0     C 8440   5.458  11.559   7.717 -0.3703  0.4219  0.3242
   62MOL0     C 8441   5.453  11.677   7.628 -0.4156  0.6908 -0.1266
   62MOL0     O 8442   5.402  11.639   7.502 -0.6695  0.3877 -0.8441
   62MOL0     C 8443   5.305  11.718   7.464 -0.4042 -0.9278 -0.4570
   62MOL0     C 8444   5.306  11.755   7.326 -0.5020  0.2039  0.3821
   62MOL0     C 8445   5.220  11.856   7.277 -0.4695  0.5869  0.9711
   62MOL0     C 8446   5.223  11.890   7.128  0.5379  0.7547  0.5112
   62MOL0     C 8447   5.118  11.905   7.356 -0.5035  0.0082  0.2316
   62MOL0     C 8448   5.009  11.987   7.295 -0.2883  0.6370  0.8557
   62MOL0     O 8449   4.895  11.929   7.253  0.1866 -0.2519 -0.5199
   62MOL0     C 8450   4.795  12.019   7.235 -0.4001  0.3703 -0.6610
   62MOL0     C 8451   4.758  12.121   7.327  0.6202 -0.1030 -0.0354
   62MOL0     C 8452   4.655  12.213   7.292  1.4181  0.5439 -0.4715
   62MOL0     C 8453   4.591  12.207   7.167  0.6576  0.3623 -0.0369
   62MOL0     O 8454   4.490  12.294   7.128 -0.1694  0.2284  1.0367
   62MOL0     C 8455   4.441  12.393   7.229  0.4125 -0.3159  0.5130
   62MOL0     C 8456   4.326  12.470   7.169 -0.1163 -0.4538  0.3319
   62MOL0     C 8457   4.191  12.389   7.157  0.3969 -0.3752  0.7267
   62MOL0     C 8458   4.114  12.379   7.286  0.1196 -0.1192  0.1753
   62MOL0     C 8459   3.974  12.312   7.268 -0.1748  0.3349  0.7006
   62MOL0     C 8460   3.996  12.158   7.231  0.5658  0.6206  0.3706
   62MOL0     C 8461   4.070  12.070   7.326 -0.4226  0.5179 -0.1438
   62MOL0     C 8462   4.035  11.917   7.313 -0.9674  0.7092  1.2502
   62MOL0    Cl 8463   4.092  11.847   7.158 -0.4364 -0.4270  0.1371
   62MOL0     C 8464   4.622  12.098   7.087  0.0510 -0.9318 -0.7609
   62MOL0     C 8465   4.714  12.001   7.119 -0.4047 -0.4232  0.4447
   62MOL0     O 8466   5.028  12.108   7.291 -0.0533  0.1337 -0.0222
   62MOL0     C 8467   5.102  11.864   7.488 -0.0204  0.8699 -0.6324
   62MOL0     C 8468   5.206  11.772   7.540  0.2164  0.0850 -0.8897
   62MOL0     N 8469   5.650  11.538   8.154 -0.4130 -0.0076  0.0384
   62MOL0     N 8470   5.607  11.542   8.276 -0.0532  0.2338  0.7858
   62MOL0     C 8471   5.404  10.257   8.550 -0.1717  0.3712 -0.0430
   62MOL0     C 8472   5.404  10.136   8.482  0.1676  0.2844 -0.1448
   62MOL0     C 8473   5.425   9.758   8.286  0.1050 -0.0351 -0.5779
   62MOL0     C 8474   5.349   9.782   8.168  0.8658  0.6615  0.4305
   62MOL0     C 8475   5.304   9.672   8.092 -0.3145  0.2509 -0.9236
   62MOL0     C 8476   5.328   9.540   8.121  0.1848 -1.4751 -0.5683
   62MOL0     O 8477   5.288   9.451   8.026 -0.9161 -1.0840 -0.1808
   62MOL0     C 8478   5.338   9.314   8.040 -0.0906  0.1725  0.0574
   62MOL0     C 8479   5.252   9.225   8.131  0.1883  0.2070 -0.2504
   62MOL0     C 8480   5.116   9.166   8.066 -0.0947 -0.8167 -0.2955
   62MOL0     C 8481   5.004   9.265   8.016  0.1755  0.4257  0.7523
   62MOL0     C 8482   4.868   9.216   8.049 -0.0517  0.4023  0.8259
   62MOL0     C 8483   4.759   9.169   8.048  0.6047 -0.4433  0.0699
   62MOL0     C 8484   5.408   9.516   8.236  0.2483 -0.1729 -0.1542
   62MOL0     C 8485   5.455   9.621   8.325 -1.0423 -0.0649  0.1219
   62MOL0     C 8486   5.529   9.588   8.452 -0.0689 -0.1215  0.7472
   62MOL0     H 8487   5.578  10.202   8.214 -1.0575  1.7702 -0.5930
   62MOL0     H 8488   5.634  10.407   8.349 -0.5915  0.4956 -0.3266
   62MOL0     H 8489   5.352  10.607   8.606 -0.4068  2.1267 -1.9291
   62MOL0     H 8490   5.366  10.547   8.437  0.3413  0.2589  0.2131
   62MOL0     H 8491   5.574  10.734   8.560  3.0874  0.8909 -3.5285
   62MOL0     H 8492   5.551  10.700   8.404 -0.1735  2.7332 -0.0932
   62MOL0     H 8493   5.356  10.814   8.366 -1.9332  3.7016  0.4911
   62MOL0     H 8494   5.305  10.802   8.542 -0.7039 -1.0867 -0.6574
   62MOL0     H 8495   5.467  10.959   8.592  1.0111  1.0490  0.1954
   62MOL0     H 8496   5.542  10.976   8.435  0.8463  2.2910  2.9173
   62MOL0     H 8497   5.285  11.099   8.526 -1.0455  0.6399 -0.5576
   62MOL0     H 8498   5.303  11.053   8.348  1.4345  1.9094 -1.6781
   62MOL0     H 8499   5.486  11.245   8.523 -2.3911  2.2378  1.4035
   62MOL0     H 8500   5.493  11.196   8.348 -1.2388  1.9913 -2.0689
   62MOL0     H 8501   5.250  11.337   8.479 -0.1902  0.8658 -0.8499
   62MOL0     H 8502   5.271  11.325   8.312  1.7043  1.9674 -1.6225
   62MOL0     H 8503   5.327  11.544   8.385  1.1107  0.7466 -0.1280
   62MOL0     H 8504   5.462  11.476   8.492 -0.2502 -1.1217  0.0274
   62MOL0     H 8505   5.364  11.384   8.112 -1.1965 -0.4904  0.4094
   62MOL0     H 8506   5.495  11.379   7.907  1.7238 -2.3621  3.0594
   62MOL0     H 8507   5.661  11.434   7.900 -0.0218 -1.5084  1.0770
   62MOL0     H 8508   5.450  11.638   7.917  1.7827  0.4477  0.3710
   62MOL0     H 8509   5.608  11.658   7.854 -0.6131  2.7301  3.0384
   62MOL0     H 8510   5.507  11.470   7.675 -0.9125 -0.7228  1.9818
   62MOL0     H 8511   5.356  11.524   7.735  0.0284 -0.4690  0.9179
   62MOL0     H 8512   5.399  11.751   7.687  0.8139 -2.1198  5.1331
   62MOL0     H 8513   5.549  11.726   7.611 -0.1982  0.4345  0.3578
   62MOL0     H 8514   5.372  11.712   7.252 -0.8596  1.6926 -0.8368
   62MOL0     H 8515   5.324  11.867   7.092  0.3803 -0.5546  0.8663
   62MOL0     H 8516   5.195  11.993   7.105  0.8730  0.5310 -1.0025
   62MOL0     H 8517   5.151  11.832   7.070  1.9498 -0.0380 -0.5072
   62MOL0     H 8518   4.824  12.144   7.411  0.1635 -0.5547  0.4563
   62MOL0     H 8519   4.632  12.298   7.355 -0.8715 -1.6322  1.8608
   62MOL0     H 8520   4.414  12.351   7.326 -3.0008 -1.7426 -0.9112
   62MOL0     H 8521   4.518  12.468   7.249 -1.3006  1.0474  2.3193
   62MOL0     H 8522   4.316  12.557   7.234 -0.4944 -0.3204  0.0993
   62MOL0     H 8523   4.365  12.509   7.075  0.6301  0.0442  0.8435
   62MOL0     H 8524   4.205  12.283   7.134 -1.4337 -0.9309  1.9524
   62MOL0     H 8525   4.120  12.437   7.088  1.5541  0.7070  0.2523
   62MOL0     H 8526   4.096  12.479   7.326  1.3501  0.1421  0.0967
   62MOL0     H 8527   4.172  12.318   7.355 -1.4246 -2.7262 -0.6416
   62MOL0     H 8528   3.915  12.325   7.359  0.8706  4.0547  1.0169
   62MOL0     H 8529   3.921  12.369   7.191 -0.4250 -0.5579  0.1967
   62MOL0     H 8530   4.045  12.150   7.133 -4.1877 -0.2572 -2.2445
   62MOL0     H 8531   3.896  12.124   7.205 -0.2902  1.6583  2.1605
   62MOL0     H 8532   4.051  12.097   7.430  0.1112 -0.0738  0.1139
   62MOL0     H 8533   4.178  12.078   7.314 -0.1566 -0.7303  1.1854
   62MOL0     H 8534   3.927  11.903   7.323 -1.2643 -1.2595 -2.8835
   62MOL0     H 8535   4.091  11.872   7.396 -0.5386 -3.3301 -0.9477
   62MOL0     H 8536   4.568  12.091   6.993 -1.6139 -0.4045  0.1110
   62MOL0     H 8537   4.736  11.916   7.055 -0.8325 -1.7379  1.9867
   62MOL0     H 8538   5.024  11.905   7.551  0.2844  0.4628  0.0252
   62MOL0     H 8539   5.189  11.736   7.641  0.7594  0.7144 -0.5676
   62MOL0     H 8540   5.358  10.267   8.648 -1.2674 -0.3422 -0.4646
   62MOL0     H 8541   5.350  10.054   8.528  3.9671 -1.5236  1.4885
   62MOL0     H 8542   5.320   9.885   8.146  3.0801  1.5538  1.3743
   62MOL0     H 8543   5.253   9.698   8.000 -0.3034 -1.0071 -1.3078
   62MOL0     H 8544   5.336   9.269   7.940 -0.3994  0.9672 -0.3045
   62MOL0     H 8545   5.438   9.308   8.083 -0.8349 -0.6294  1.7727
   62MOL0     H 8546   5.228   9.290   8.216  3.3550 -0.2038  1.0920
   62MOL0     H 8547   5.313   9.142   8.169 -1.2471 -1.8697 -2.2108
   62MOL0     H 8548   5.135   9.091   7.988  4.4136 -2.3061  1.9078
   62MOL0     H 8549   5.074   9.107   8.148 -0.1654 -1.5077 -0.8137
   62MOL0     H 8550   5.007   9.278   7.907  1.0873  2.0344  0.9356
   62MOL0     H 8551   5.029   9.355   8.074 -2.6861  1.9807 -0.2559
   62MOL0     H 8552   4.660   9.127   8.044  0.9128 -1.1529 -0.2177
   62MOL0     H 8553   5.421   9.414   8.272  0.2223  0.6853  2.5217
   62MOL0     H 8554   5.550   9.481   8.442  0.5266  0.2394 -5.4397
   62MOL0     H 8555   5.626   9.637   8.463 -1.9275  3.3830  3.9010
   62MOL0     H 8556   5.473   9.622   8.539  2.4537  1.0183  2.0338
   63MOL0     O 8557   6.678   2.568   3.601 -0.7997 -0.9057  0.4994
   63MOL0     C 8558   6.585   2.554   3.669  0.2800 -0.2101 -0.0756
   63MOL0     O 8559   6.466   2.511   3.632 -0.2129 -0.3416  0.3514
   63MOL0     C 8560   6.443   2.466   3.504  0.0387 -0.4008 -0.0121
   63MOL0     C 8561   6.397   2.549   3.402 -0.1604  0.1963 -1.6327
   63MOL0     C 8562   6.381   2.504   3.269  0.4550 -0.0824  0.9733
   63MOL0     C 8563   6.392   2.366   3.243 -0.1499  0.4099 -0.9744
   63MOL0     O 8564   6.365   2.309   3.124 -0.0507 -0.0443  0.1860
   63MOL0     C 8565   6.246   2.352   3.066  0.0803  0.9462 -0.3982
   63MOL0     C 8566   6.209   2.248   2.952 -0.4467 -1.6324  0.5620
   63MOL0     C 8567   6.074   2.292   2.884  0.2728  0.9849 -0.1202
   63MOL0     C 8568   6.020   2.190   2.783 -0.0594 -0.3873 -0.1471
   63MOL0     C 8569   5.889   2.221   2.736  0.3539  0.0114 -0.5277
   63MOL0     C 8570   5.853   2.180   2.597  0.0640  1.0854  0.2327
   63MOL0     C 8571   5.938   2.240   2.478  0.9808 -0.2618 -0.0079
   63MOL0     C 8572   5.916   2.169   2.356 -0.3504  0.0051 -0.4824
   63MOL0     N 8573   6.008   2.211   2.251  0.0789 -0.3042  0.2500
   63MOL0     C 8574   6.114   2.139   2.199  0.1921  0.2495  0.2851
   63MOL0     C 8575   6.175   2.219   2.114  0.4378 -0.4911 -0.0764
   63MOL0     C 8576   6.290   2.200   2.033  0.1777 -0.3707 -0.1336
   63MOL0     C 8577   6.276   2.214   1.886  0.3532 -0.8718 -0.9526
   63MOL0     C 8578   6.373   2.316   1.828  0.3568  0.2574  0.5101
   63MOL0     C 8579   6.347   2.346   1.677  0.8712 -0.9821 -0.1862
   63MOL0     O 8580   6.462   2.324   1.594 -0.3396  0.4293 -0.4423
   63MOL0     C 8581   6.513   2.197   1.582 -0.0117 -0.2903 -0.3614
   63MOL0     C 8582   6.442   2.077   1.593  0.4109 -0.1349  0.3797
   63MOL0     C 8583   6.499   1.946   1.570  1.5427  0.4843 -0.4279
   63MOL0     C 8584   6.390   1.840   1.583  0.2197  0.8828 -0.4625
   63MOL0     C 8585   6.630   1.940   1.525 -0.5608  1.0109 -0.1519
   63MOL0     C 8586   6.690   1.816   1.483  0.4354  0.4103  1.6311
   63MOL0     O 8587   6.821   1.823   1.428  0.6038  0.2523 -0.3059
   63MOL0     C 8588   6.860   1.702   1.370 -0.6900  0.4717 -0.0158
   63MOL0     C 8589   6.866   1.689   1.231 -0.1182 -0.0067 -0.6988
   63MOL0     C 8590   6.921   1.578   1.170 -0.6127  0.2934 -0.1550
   63MOL0     C 8591   6.957   1.461   1.238 -0.0459  0.1865  0.6271
   63MOL0     O 8592   7.000   1.355   1.164  0.4301  0.4951  0.4595
   63MOL0     C 8593   6.952   1.231   1.208 -0.4139  0.0329 -0.9802
   63MOL0     C 8594   7.007   1.124   1.117  0.3104 -0.0749  0.3322
   63MOL0     C 8595   6.966   1.147   0.969  0.7407 -0.2528 -0.6668
   63MOL0     C 8596   7.042   1.049   0.880  0.5911  0.1432 -0.4717
   63MOL0     C 8597   7.022   1.097   0.734  0.0453 -0.3117  0.5022
   63MOL0     C 8598   6.873   1.103   0.692  1.2299  0.0238  0.7339
   63MOL0     C 8599   6.848   1.156   0.553  0.2025 -1.0217 -0.5414
   63MOL0     C 8600   6.700   1.124   0.515 -0.4441  0.2316 -0.5903
   63MOL0    Cl 8601   6.688   1.201   0.363  0.4058 -0.2602 -0.1674
   63MOL0     C 8602   6.949   1.473   1.380 -0.2569 -0.9734 -0.3626
   63MOL0     C 8603   6.909   1.594   1.443  0.4594 -0.8989 -0.6289
   63MOL0     O 8604   6.616   1.715   1.490 -0.4568  0.0842 -1.5052
   63MOL0     C 8605   6.706   2.066   1.510 -0.6368  1.0020 -1.0256
   63MOL0     C 8606   6.651   2.186   1.560 -0.1472  0.0417 -0.1047
   63MOL0     N 8607   6.104   2.332   2.102 -0.0565  0.4994  0.2672
   63MOL0     N 8608   6.008   2.336   2.190  0.0445 -0.7203 -0.2713
   63MOL0     C 8609   6.456   2.279   3.332 -0.4088 -0.0982 -0.7783
   63MOL0     C 8610   6.473   2.331   3.460  0.5004 -0.7930 -0.4509
   63MOL0     C 8611   6.587   2.597   3.810  0.2160  0.3465 -0.0112
   63MOL0     C 8612   6.466   2.644   3.867 -0.1717 -0.0995  0.3692
   63MOL0     C 8613   6.463   2.705   3.988  0.4909  0.3940  1.2608
   63MOL0     C 8614   6.575   2.716   4.068  0.2092 -0.1361 -0.0277
   63MOL0     O 8615   6.546   2.804   4.174 -0.4684 -0.3642 -0.1806
   63MOL0     C 8616   6.643   2.822   4.280  0.1349 -0.0968 -0.1241
   63MOL0     C 8617   6.632   2.692   4.360 -0.7106  0.4446  0.9113
   63MOL0     C 8618   6.763   2.678   4.431  0.3723  0.6049 -0.6094
   63MOL0     C 8619   6.788   2.533   4.480  1.1287  0.1218  0.1969
   63MOL0     C 8620   6.905   2.525   4.560 -0.8327  0.3975  0.2432
   63MOL0     C 8621   7.012   2.512   4.611 -0.7948  0.7216  0.6140
   63MOL0     C 8622   6.690   2.655   4.023 -0.0340 -1.2754 -0.4919
   63MOL0     C 8623   6.701   2.603   3.894 -0.0326 -0.9562  0.7509
   63MOL0     C 8624   6.840   2.569   3.844 -0.2502 -0.6847  0.4669
   63MOL0     H 8625   6.358   2.642   3.442 -0.4834  0.2057 -1.9559
   63MOL0     H 8626   6.339   2.574   3.197  1.4324 -2.3486 -2.0491
   63MOL0     H 8627   6.266   2.455   3.035  5.9743  0.5405  0.8635
   63MOL0     H 8628   6.173   2.359   3.147  0.7427 -2.3239  0.6461
   63MOL0     H 8629   6.285   2.254   2.874 -0.5574  3.5361  0.5037
   63MOL0     H 8630   6.197   2.147   2.993 -3.1136 -0.4528  3.1107
   63MOL0     H 8631   5.998   2.290   2.962 -0.3344  1.8956 -0.6710
   63MOL0     H 8632   6.077   2.389   2.834  0.9159  1.5631  0.9869
   63MOL0     H 8633   6.097   2.186   2.705  0.4100  4.7619 -0.3032
   63MOL0     H 8634   6.022   2.096   2.840 -0.9432 -0.7624 -0.7201
   63MOL0     H 8635   5.876   2.329   2.748  1.0900 -0.0826  1.7249
   63MOL0     H 8636   5.823   2.189   2.818 -0.7226  0.6904 -1.1124
   63MOL0     H 8637   5.852   2.071   2.596 -3.2066  0.9335 -3.4105
   63MOL0     H 8638   5.751   2.201   2.562  0.8936  0.8533 -2.5335
   63MOL0     H 8639   6.045   2.232   2.499  1.6107  0.4878 -2.5821
   63MOL0     H 8640   5.925   2.349   2.481 -0.0619 -0.3524 -0.7003
   63MOL0     H 8641   5.934   2.063   2.373 -0.2443 -0.1348 -1.4068
   63MOL0     H 8642   5.817   2.173   2.311  0.5192 -2.1846 -2.8055
   63MOL0     H 8643   6.156   2.039   2.206 -1.5854 -0.4593  1.7326
   63MOL0     H 8644   6.333   2.104   2.063 -4.4604 -2.8493 -0.5098
   63MOL0     H 8645   6.366   2.276   2.054  1.1141 -1.8319  2.1219
   63MOL0     H 8646   6.290   2.113   1.847 -1.5826 -0.2515 -3.4924
   63MOL0     H 8647   6.178   2.255   1.858  0.5408 -0.8521 -1.5793
   63MOL0     H 8648   6.358   2.408   1.885  1.7392  0.0696  1.2293
   63MOL0     H 8649   6.475   2.280   1.841 -0.0427 -2.4985 -2.6959
   63MOL0     H 8650   6.264   2.286   1.639  1.2048 -0.3682 -1.9984
   63MOL0     H 8651   6.313   2.450   1.674  2.2597 -0.3903  2.2154
   63MOL0     H 8652   6.340   2.084   1.630  0.5374 -0.2080  0.7535
   63MOL0     H 8653   6.305   1.872   1.645  0.1147 -2.2537  1.2339
   63MOL0     H 8654   6.420   1.751   1.639 -1.6639  0.0685 -0.6714
   63MOL0     H 8655   6.348   1.810   1.487 -2.5135  1.5666  0.4181
   63MOL0     H 8656   6.850   1.780   1.174  0.0883 -0.9042 -2.2675
   63MOL0     H 8657   6.920   1.583   1.062 -0.4939  3.6553 -0.0956
   63MOL0     H 8658   6.980   1.211   1.312  1.6627  2.2567 -1.0339
   63MOL0     H 8659   6.844   1.213   1.205 -1.0300  3.2873 -1.1473
   63MOL0     H 8660   7.116   1.128   1.116  0.5945  0.5404 -6.0400
   63MOL0     H 8661   6.970   1.025   1.145  0.7364  0.0584  1.4055
   63MOL0     H 8662   6.982   1.251   0.939 -2.2761  1.2888  2.3854
   63MOL0     H 8663   6.861   1.118   0.959  0.5090  0.6465 -0.9116
   63MOL0     H 8664   6.993   0.952   0.880  1.2806 -0.3184 -3.5354
   63MOL0     H 8665   7.148   1.059   0.903  1.0886 -0.1073 -2.4601
   63MOL0     H 8666   7.062   1.197   0.713 -0.3192 -0.6490 -2.1604
   63MOL0     H 8667   7.076   1.033   0.665  0.2005  1.7470 -1.3951
   63MOL0     H 8668   6.817   1.166   0.761 -3.1104 -2.0426 -0.5123
   63MOL0     H 8669   6.830   1.003   0.706  1.2806 -0.8680 -3.8746
   63MOL0     H 8670   6.918   1.118   0.478  2.0967  2.4023 -0.7197
   63MOL0     H 8671   6.857   1.265   0.553 -0.1375 -0.9912 -1.1402
   63MOL0     H 8672   6.618   1.158   0.580 -0.1480  0.0016 -0.1008
   63MOL0     H 8673   6.686   1.017   0.502 -0.4047  0.0629  0.6662
   63MOL0     H 8674   6.972   1.393   1.450  0.1701 -0.8492 -0.3583
   63MOL0     H 8675   6.934   1.606   1.548 -0.6593 -0.0436 -0.4376
   63MOL0     H 8676   6.811   2.056   1.489 -0.8761 -0.4657 -1.6457
   63MOL0     H 8677   6.712   2.276   1.565 -2.5145  1.7938 -0.7907
   63MOL0     H 8678   6.497   2.185   3.297  3.7049  0.1925  2.5553
   63MOL0     H 8679   6.539   2.273   3.523  2.6512 -0.3653 -2.2013
   63MOL0     H 8680   6.370   2.644   3.816  1.4734 -2.7180 -3.1920
   63MOL0     H 8681   6.375   2.760   4.019  1.9256  1.4179  3.8039
   63MOL0     H 8682   6.741   2.833   4.232  0.7001 -2.7642  0.2821
   63MOL0     H 8683   6.625   2.909   4.344 -0.1199  1.1189 -1.7659
   63MOL0     H 8684   6.615   2.601   4.303  1.9005 -1.4816  2.9577
   63MOL0     H 8685   6.541   2.705   4.420 -3.5907 -0.2887 -2.9298
   63MOL0     H 8686   6.849   2.729   4.388 -2.1670  2.9935 -3.3382
   63MOL0     H 8687   6.748   2.733   4.525 -1.1392 -0.5447 -0.1286
   63MOL0     H 8688   6.796   2.470   4.391 -0.3362  1.3168 -0.8254
   63MOL0     H 8689   6.703   2.503   4.542  1.6385  1.5315  1.6316
   63MOL0     H 8690   7.103   2.496   4.665  0.6333 -1.8833 -2.2246
   63MOL0     H 8691   6.774   2.684   4.086 -1.5842  0.9211  0.7007
   63MOL0     H 8692   6.923   2.617   3.897  2.1824  0.0332 -3.5685
   63MOL0     H 8693   6.849   2.460   3.840 -0.1660 -0.6484 -2.1377
   63MOL0     H 8694   6.853   2.611   3.744 -1.4153  1.4690  1.1550
   64MOL0     O 8695   9.399  10.381   1.286  0.4075 -0.0525  0.1051
   64MOL0     C 8696   9.368  10.311   1.377 -0.3209 -0.9977 -0.5358
   64MOL0     O 8697   9.240  10.263   1.402 -0.0300  0.2262  0.6415
   64MOL0     C 8698   9.145  10.288   1.310  0.4735 -0.1908  0.3581
   64MOL0     C 8699   9.024  10.307   1.372  1.1555 -0.2110 -0.0852
   64MOL0     C 8700   8.902  10.332   1.302 -0.5681  0.7722 -0.5279
   64MOL0     C 8701   8.900  10.322   1.164 -0.7341 -0.2372 -0.2630
   64MOL0     O 8702   8.792  10.342   1.089  0.3622 -0.3357  0.0832
   64MOL0     C 8703   8.676  10.420   1.123 -0.3722 -0.1807 -0.0533
   64MOL0     C 8704   8.582  10.415   1.003  0.1257  0.0096 -0.5473
   64MOL0     C 8705   8.629  10.492   0.874  0.4743  0.9477  0.3305
   64MOL0     C 8706   8.543  10.457   0.748 -0.2749  0.6262 -0.9702
   64MOL0     C 8707   8.563  10.545   0.627 -0.6097 -0.8034  0.6769
   64MOL0     C 8708   8.497  10.692   0.644 -0.3233 -0.8976  0.7785
   64MOL0     C 8709   8.557  10.777   0.527  0.2215 -0.3567 -0.2956
   64MOL0     C 8710   8.498  10.918   0.522 -0.2825  0.0807 -0.5464
   64MOL0     N 8711   8.560  11.020   0.609 -0.6080 -0.9344  0.2344
   64MOL0     C 8712   8.684  11.079   0.600 -0.0741 -0.4132 -0.1867
   64MOL0     C 8713   8.705  11.162   0.713  0.3167  0.8301  0.6704
   64MOL0     C 8714   8.830  11.240   0.748  0.3305 -0.4652 -0.6401
   64MOL0     C 8715   8.951  11.148   0.788 -0.1852 -0.3273  0.5854
   64MOL0     C 8716   8.915  11.052   0.895  0.4236  0.4872  1.2660
   64MOL0     C 8717   9.027  10.976   0.953 -0.2672 -0.0356  1.3395
   64MOL0     O 8718   9.126  11.069   0.999 -0.3490  0.0063 -0.5787
   64MOL0     C 8719   9.239  11.014   1.052 -0.2447  1.2227  0.1766
   64MOL0     C 8720   9.326  11.096   1.110 -0.7249 -1.2928 -0.6882
   64MOL0     C 8721   9.446  11.049   1.174 -0.1900  0.7527 -0.1519
   64MOL0     C 8722   9.547  11.154   1.230  0.6351  0.5693 -0.0187
   64MOL0     C 8723   9.473  10.901   1.173  0.7685 -1.0041 -0.6254
   64MOL0     C 8724   9.591  10.843   1.245  0.0644  0.1670  0.9221
   64MOL0     O 8725   9.640  10.725   1.194  0.5648  0.5824 -0.8424
   64MOL0     C 8726   9.756  10.676   1.241  0.1633 -1.0096 -0.4523
   64MOL0     C 8727   9.887  10.735   1.192  0.5710  0.6669 -0.5659
   64MOL0     C 8728  10.003  10.700   1.251  0.3117  0.7803 -0.0478
   64MOL0     C 8729  10.001  10.599   1.354 -0.4333  0.4139 -0.6048
   64MOL0     O 8730  10.118  10.548   1.411 -0.1959  0.1179  0.6987
   64MOL0     C 8731  10.225  10.641   1.439 -0.4688 -0.0149  0.4849
   64MOL0     C 8732  10.290  10.613   1.580  0.1321 -0.2512  0.2391
   64MOL0     C 8733  10.372  10.478   1.603 -0.1296 -0.9989  0.7148
   64MOL0     C 8734  10.326  10.374   1.716 -0.0942 -0.0710  0.3562
   64MOL0     C 8735  10.254  10.254   1.652  0.1305 -0.0504  0.1671
   64MOL0     C 8736  10.336  10.149   1.576  0.0954  0.5811 -0.0288
   64MOL0     C 8737  10.381  10.026   1.662 -0.2236 -0.2343  0.0651
   64MOL0     C 8738  10.456   9.917   1.582 -0.2484 -0.0587 -0.6318
   64MOL0    Cl 8739  10.633   9.952   1.596 -0.1572  0.2408  0.0759
   64MOL0     C 8740   9.884  10.524   1.383 -0.1244 -0.9174 -0.7559
   64MOL0     C 8741   9.757  10.576   1.336 -0.2938  0.9490  1.1100
   64MOL0     O 8742   9.635  10.906   1.340 -0.1733  0.3726  0.3025
   64MOL0     C 8743   9.381  10.823   1.097 -2.3544 -0.8385 -0.4485
   64MOL0     C 8744   9.270  10.875   1.041 -0.1656  0.3428 -0.2182
   64MOL0     N 8745   8.572  11.163   0.774 -1.7978 -0.6353 -0.1051
   64MOL0     N 8746   8.494  11.082   0.705 -0.7262 -0.4313 -0.9090
   64MOL0     C 8747   9.028  10.309   1.094  0.2420 -0.1149  0.0167
   64MOL0     C 8748   9.147  10.288   1.170 -0.9587 -0.9996  0.2579
   64MOL0     C 8749   9.476  10.258   1.467  0.6135  0.4571  0.5253
   64MOL0     C 8750   9.469  10.268   1.605  0.4682  0.4785  0.2662
   64MOL0     C 8751   9.576  10.235   1.695 -0.8050  0.1699  0.0095
   64MOL0     C 8752   9.690  10.185   1.636  0.4881 -0.3286  0.3468
   64MOL0     O 8753   9.797  10.138   1.702 -0.3422 -0.2861 -0.0564
   64MOL0     C 8754   9.771   9.996   1.733  0.1341  0.0236  0.6063
   64MOL0     C 8755   9.881   9.915   1.653 -0.5241 -0.1520  0.2758
   64MOL0     C 8756   9.833   9.801   1.569  0.2812  0.5670 -0.1159
   64MOL0     C 8757   9.951   9.723   1.510 -1.2493  0.7125 -0.3676
   64MOL0     C 8758   9.894   9.610   1.439  0.5093  0.0362  0.3551
   64MOL0     C 8759   9.837   9.517   1.391 -0.8283  0.1232 -0.2284
   64MOL0     C 8760   9.698  10.169   1.498 -0.1211 -0.3532  0.4872
   64MOL0     C 8761   9.593  10.203   1.406  0.6298 -0.2655 -0.6526
   64MOL0     C 8762   9.609  10.177   1.263  0.5711 -0.2701 -1.1016
   64MOL0     H 8763   9.015  10.311   1.481  1.8567  2.4856 -0.0667
   64MOL0     H 8764   8.819  10.352   1.369 -0.2122 -3.5598  1.6286
   64MOL0     H 8765   8.710  10.523   1.136  0.2501 -0.0859 -2.1436
   64MOL0     H 8766   8.627  10.382   1.214  0.2481 -0.2143  0.2731
   64MOL0     H 8767   8.557  10.311   0.978 -2.3216  0.6991 -1.2038
   64MOL0     H 8768   8.495  10.468   1.041 -0.5370 -1.2858 -0.2105
   64MOL0     H 8769   8.612  10.596   0.902 -1.1824  0.4998  1.1254
   64MOL0     H 8770   8.735  10.475   0.856  0.4100 -0.2839  0.9377
   64MOL0     H 8771   8.561  10.355   0.712 -2.8615  0.4000 -1.8198
   64MOL0     H 8772   8.437  10.456   0.776  0.4067 -0.8149  2.0686
   64MOL0     H 8773   8.521  10.496   0.538 -0.3714 -2.2663  1.3438
   64MOL0     H 8774   8.670  10.557   0.608 -0.6699  1.7930  1.6927
   64MOL0     H 8775   8.389  10.675   0.644 -0.3638 -0.8838 -1.2951
   64MOL0     H 8776   8.512  10.730   0.746  2.5783  1.2382 -0.3003
   64MOL0     H 8777   8.524  10.724   0.438  0.4400 -2.7760  0.9566
   64MOL0     H 8778   8.666  10.785   0.515  0.0537  0.6198 -1.2214
   64MOL0     H 8779   8.500  10.939   0.415  1.3016 -2.1940 -1.0339
   64MOL0     H 8780   8.394  10.922   0.557  0.2663  1.8377  1.0838
   64MOL0     H 8781   8.753  11.075   0.517 -1.2851  1.4797 -1.3550
   64MOL0     H 8782   8.810  11.302   0.836  3.7058  3.1484 -2.0945
   64MOL0     H 8783   8.845  11.312   0.667  0.0090  1.8623  1.2321
   64MOL0     H 8784   8.993  11.101   0.698  0.9249  1.4798  0.0962
   64MOL0     H 8785   9.036  11.210   0.818 -0.5196  0.9946 -1.0529
   64MOL0     H 8786   8.859  11.102   0.974 -1.0709 -0.2550  0.7051
   64MOL0     H 8787   8.844  10.982   0.851 -2.1492  0.1809  5.4466
   64MOL0     H 8788   9.001  10.900   1.027 -0.8593 -2.0381 -0.7941
   64MOL0     H 8789   9.069  10.917   0.872 -2.1342 -0.2666  0.4872
   64MOL0     H 8790   9.301  11.202   1.107 -3.9521 -1.8131  2.2729
   64MOL0     H 8791   9.518  11.255   1.197 -1.0190  0.6260  1.4834
   64MOL0     H 8792   9.645  11.145   1.183  1.0415  1.5198  0.6151
   64MOL0     H 8793   9.542  11.157   1.339 -2.4638 -2.8209  0.1357
   64MOL0     H 8794   9.883  10.816   1.120  3.1026 -0.5542 -2.2373
   64MOL0     H 8795  10.101  10.732   1.219  1.7406 -2.5838  0.5992
   64MOL0     H 8796  10.293  10.642   1.354 -3.2872  2.4516 -1.9540
   64MOL0     H 8797  10.189  10.744   1.434 -3.8654 -1.0256  1.0341
   64MOL0     H 8798  10.362  10.695   1.592 -0.2634  0.2270 -0.5417
   64MOL0     H 8799  10.210  10.627   1.653 -1.0606 -0.5580 -0.9721
   64MOL0     H 8800  10.472  10.511   1.636 -0.5389 -0.1709  1.1724
   64MOL0     H 8801  10.388  10.425   1.508 -1.9438 -2.8877  1.3908
   64MOL0     H 8802  10.268  10.431   1.788  1.7968  3.8449 -0.9175
   64MOL0     H 8803  10.413  10.344   1.775  1.1438 -0.0569 -1.3700
   64MOL0     H 8804  10.186  10.196   1.715 -1.5796  1.4602 -0.1978
   64MOL0     H 8805  10.182  10.303   1.586 -0.7222  1.2769  2.0095
   64MOL0     H 8806  10.416  10.204   1.526  0.0695  0.5227 -0.1355
   64MOL0     H 8807  10.271  10.106   1.498 -0.5052 -0.2724  0.9204
   64MOL0     H 8808  10.296   9.975   1.708  0.2091 -0.7298  0.3243
   64MOL0     H 8809  10.443  10.063   1.743  3.6253 -3.2581 -1.2086
   64MOL0     H 8810  10.435   9.933   1.475 -0.4714 -0.7320 -0.6971
   64MOL0     H 8811  10.423   9.815   1.601 -0.6948  0.1913 -0.0678
   64MOL0     H 8812   9.885  10.435   1.445 -1.2217 -2.1282 -2.4020
   64MOL0     H 8813   9.667  10.527   1.372 -1.6164  1.6500 -1.0936
   64MOL0     H 8814   9.409  10.718   1.096  0.6913 -0.1232 -0.3343
   64MOL0     H 8815   9.202  10.797   1.008  1.9771 -2.7180  2.1003
   64MOL0     H 8816   9.035  10.324   0.987 -0.9186  0.2417 -0.0249
   64MOL0     H 8817   9.244  10.271   1.126  0.1348  1.8883  1.3771
   64MOL0     H 8818   9.380  10.297   1.661 -0.1694 -0.7121 -0.1050
   64MOL0     H 8819   9.561  10.246   1.802 -1.1359  0.4905 -0.0671
   64MOL0     H 8820   9.779   9.981   1.841  0.2747 -1.3668  0.4260
   64MOL0     H 8821   9.670   9.965   1.704  0.7490  0.6961 -2.6892
   64MOL0     H 8822   9.948   9.873   1.729  0.5732  3.8230  1.7606
   64MOL0     H 8823   9.947   9.983   1.599  0.8955 -1.0818  0.7751
   64MOL0     H 8824   9.765   9.733   1.623 -0.0296 -1.0497 -2.3669
   64MOL0     H 8825   9.770   9.826   1.483 -0.9672 -1.5814  0.0890
   64MOL0     H 8826  10.016   9.694   1.593  0.5254 -1.2556 -2.2960
   64MOL0     H 8827  10.011   9.784   1.442  2.0130 -0.7635  0.9547
   64MOL0     H 8828   9.785   9.437   1.342 -0.3923 -0.5635  0.4151
   64MOL0     H 8829   9.796  10.147   1.456 -0.0634  0.7191  0.0225
   64MOL0     H 8830   9.695  10.116   1.232  0.7310  0.3318 -1.8687
   64MOL0     H 8831   9.523  10.115   1.235 -1.1761  0.9363  1.2424
   64MOL0     H 8832   9.612  10.269   1.204  0.0862  0.8597  0.5679
   65MOL0     O 8833   1.812  11.068   7.082  0.3245 -0.1719  0.0839
   65MOL0     C 8834   1.829  10.949   7.077  0.6536  0.5818 -0.6311
   65MOL0     O 8835   1.912  10.874   7.148  0.9024  0.7048 -0.3955
   65MOL0     C 8836   1.993  10.949   7.225  0.3555 -0.2449  0.7358
   65MOL0     C 8837   2.111  10.998   7.175 -0.4845  0.0287  0.5118
   65MOL0     C 8838   2.201  11.060   7.260 -0.2689  0.1072 -0.0123
   65MOL0     C 8839   2.170  11.082   7.397  0.8421  0.0596  0.3199
   65MOL0     O 8840   2.265  11.136   7.475  0.1389  0.1280 -0.0775
   65MOL0     C 8841   2.240  11.157   7.613 -0.3598 -0.2495  0.1346
   65MOL0     C 8842   2.358  11.225   7.674  0.1869  0.1458  0.5021
   65MOL0     C 8843   2.331  11.227   7.826  0.7607  0.3481  0.3041
   65MOL0     C 8844   2.436  11.288   7.916 -0.1690 -1.1521  0.2268
   65MOL0     C 8845   2.412  11.264   8.064 -0.1142  0.3219  0.6541
   65MOL0     C 8846   2.386  11.116   8.109 -0.6805  0.1924  0.1962
   65MOL0     C 8847   2.495  11.020   8.068 -0.4450  0.2852  0.1596
   65MOL0     C 8848   2.482  10.872   8.117 -0.1595  1.8554 -0.3171
   65MOL0     N 8849   2.363  10.796   8.069 -0.3768 -0.4597 -0.0064
   65MOL0     C 8850   2.273  10.734   8.144  0.9050 -1.4915 -1.0514
   65MOL0     C 8851   2.178  10.689   8.058 -0.2159  0.4047 -0.2985
   65MOL0     C 8852   2.065  10.592   8.086  0.3240 -0.5099  0.4090
   65MOL0     C 8853   2.111  10.463   8.125  0.7710 -0.2060  0.3005
   65MOL0     C 8854   2.165  10.391   8.002 -0.5018 -0.3805 -0.6560
   65MOL0     C 8855   2.173  10.236   8.023  0.0017 -0.0229 -1.2881
   65MOL0     O 8856   2.206  10.190   8.154  0.0108  0.4872 -0.3517
   65MOL0     C 8857   2.202  10.061   8.187  0.5629 -0.9402 -0.0589
   65MOL0     C 8858   2.265  10.016   8.306 -0.2961 -0.4299  0.1299
   65MOL0     C 8859   2.275   9.878   8.346 -0.1255 -0.4352 -0.6176
   65MOL0     C 8860   2.363   9.851   8.467  0.0908  0.1091  0.5177
   65MOL0     C 8861   2.235   9.774   8.260 -0.3171  0.7334 -0.3686
   65MOL0     C 8862   2.237   9.626   8.295 -0.6944  0.1983 -0.6225
   65MOL0     O 8863   2.243   9.551   8.184 -0.2981 -1.0115  0.4913
   65MOL0     C 8864   2.258   9.417   8.191 -0.0474  0.6053  0.2520
   65MOL0     C 8865   2.197   9.341   8.086  0.3775  0.3621 -0.1429
   65MOL0     C 8866   2.200   9.203   8.097  0.6053  0.0560  0.3200
   65MOL0     C 8867   2.268   9.133   8.193  0.0116  0.0080 -0.3912
   65MOL0     O 8868   2.255   8.997   8.210 -0.1176 -0.1497 -0.5731
   65MOL0     C 8869   2.364   8.924   8.152 -1.1282  0.0805  0.0295
   65MOL0     C 8870   2.347   8.774   8.176 -0.4402 -0.7670 -0.5631
   65MOL0     C 8871   2.450   8.691   8.119  0.6192  0.1300 -0.7073
   65MOL0     C 8872   2.446   8.688   7.968 -0.4325 -0.2666  0.0329
   65MOL0     C 8873   2.549   8.587   7.917 -0.7661  0.9434  0.6695
   65MOL0     C 8874   2.529   8.541   7.776  0.0968  0.2776 -0.6514
   65MOL0     C 8875   2.576   8.642   7.683  0.3692  0.3063  0.6090
   65MOL0     C 8876   2.576   8.586   7.539  0.1955  0.6044 -0.8126
   65MOL0    Cl 8877   2.419   8.554   7.485 -0.4596  0.3467 -0.1407
   65MOL0     C 8878   2.340   9.200   8.289 -0.6124  0.4869  0.6342
   65MOL0     C 8879   2.334   9.339   8.278 -0.5902 -0.1852 -1.1940
   65MOL0     O 8880   2.250   9.582   8.408  0.6911 -0.5305 -0.3691
   65MOL0     C 8881   2.162   9.824   8.149  0.5694 -0.2937  0.2677
   65MOL0     C 8882   2.148   9.961   8.110  0.2652  0.4205  0.3893
   65MOL0     N 8883   2.211  10.744   7.929  0.0764  0.3478  0.2000
   65MOL0     N 8884   2.320  10.804   7.941 -0.6040 -0.6258 -0.6029
   65MOL0     C 8885   2.041  11.058   7.436 -0.0300 -0.7324 -0.3562
   65MOL0     C 8886   1.960  10.978   7.353 -0.4356  0.3253 -0.3141
   65MOL0     C 8887   1.723  10.868   6.989  0.3564 -0.0431  0.3303
   65MOL0     C 8888   1.718  10.726   7.011  0.4082 -0.0516  0.7943
   65MOL0     C 8889   1.620  10.649   6.947 -0.4219 -0.2437  0.0436
   65MOL0     C 8890   1.530  10.709   6.867  0.3566  0.3965  0.0965
   65MOL0     O 8891   1.434  10.632   6.809  0.5857  0.0048 -0.7549
   65MOL0     C 8892   1.455  10.501   6.759 -0.5816 -0.1380  0.0143
   65MOL0     C 8893   1.520  10.509   6.619  0.2096  0.0039  0.5494
   65MOL0     C 8894   1.680  10.536   6.628  0.2008 -0.3034 -0.6045
   65MOL0     C 8895   1.739  10.502   6.490 -0.4054  0.4010 -0.0273
   65MOL0     C 8896   1.712  10.605   6.389  0.0018  1.2130 -0.5983
   65MOL0     C 8897   1.694  10.693   6.310 -1.2765 -0.3884  0.3016
   65MOL0     C 8898   1.535  10.844   6.849 -0.2493  0.4289 -1.5503
   65MOL0     C 8899   1.633  10.924   6.899  0.7754 -0.3865 -0.1933
   65MOL0     C 8900   1.621  11.077   6.870  0.1854  0.0118  0.3808
   65MOL0     H 8901   2.137  10.975   7.073  0.4486 -2.0845  1.1744
   65MOL0     H 8902   2.295  11.095   7.217 -0.5273 -0.3431 -0.9923
   65MOL0     H 8903   2.235  11.059   7.663 -2.1266  0.4492  1.4518
   65MOL0     H 8904   2.147  11.212   7.629  1.4574  2.6299  1.6093
   65MOL0     H 8905   2.447  11.165   7.652 -1.1216 -1.9806  0.7591
   65MOL0     H 8906   2.381  11.326   7.640 -0.7369  0.2210  0.0635
   65MOL0     H 8907   2.235  11.277   7.841  0.1891 -0.1780 -1.4176
   65MOL0     H 8908   2.316  11.122   7.852  0.3397 -0.7847 -3.8138
   65MOL0     H 8909   2.533  11.241   7.900  0.5319 -0.9630  3.3715
   65MOL0     H 8910   2.451  11.395   7.901 -0.1841 -1.0885  0.6481
   65MOL0     H 8911   2.323  11.320   8.092 -0.3530  1.1889 -1.6643
   65MOL0     H 8912   2.498  11.307   8.116  0.4170  2.3324 -1.7186
   65MOL0     H 8913   2.380  11.121   8.218 -0.3360 -0.4363  0.2506
   65MOL0     H 8914   2.293  11.072   8.070 -0.5393 -0.0365  0.1133
   65MOL0     H 8915   2.591  11.056   8.105  0.5563 -0.3772 -1.6613
   65MOL0     H 8916   2.496  11.027   7.959  1.5437 -1.8838 -0.0312
   65MOL0     H 8917   2.571  10.834   8.066 -0.7449  0.7436 -0.5263
   65MOL0     H 8918   2.494  10.854   8.225  2.2037  0.5697 -0.7224
   65MOL0     H 8919   2.278  10.701   8.247 -3.0631 -3.4929 -1.2878
   65MOL0     H 8920   1.995  10.592   8.002 -2.2243 -2.6812  2.3562
   65MOL0     H 8921   2.014  10.628   8.175  2.2856  0.5067  1.1943
   65MOL0     H 8922   2.175  10.470   8.213  2.8503  1.3110 -1.2288
   65MOL0     H 8923   2.022  10.400   8.141  0.8034 -0.1348  0.7642
   65MOL0     H 8924   2.110  10.419   7.912 -2.2868  4.3022  1.5456
   65MOL0     H 8925   2.268  10.423   7.987 -0.3836 -0.0710  0.6459
   65MOL0     H 8926   2.077  10.200   7.987 -0.0082  0.3505 -1.6506
   65MOL0     H 8927   2.235  10.167   7.964  0.9274 -1.7005  1.4729
   65MOL0     H 8928   2.305  10.099   8.364 -0.1852 -0.1259 -0.3752
   65MOL0     H 8929   2.394   9.945   8.513  0.5678  0.8770 -1.3203
   65MOL0     H 8930   2.455   9.808   8.426  0.8751  0.0457  2.2562
   65MOL0     H 8931   2.328   9.781   8.544 -0.3162 -2.1620 -1.5963
   65MOL0     H 8932   2.133   9.383   8.009 -0.5299  0.6925  0.7670
   65MOL0     H 8933   2.136   9.137   8.040 -0.8760  1.8375 -0.1782
   65MOL0     H 8934   2.379   8.940   8.045  1.5816  4.1137  0.8011
   65MOL0     H 8935   2.459   8.957   8.195  0.5898 -2.2744 -1.6196
   65MOL0     H 8936   2.325   8.745   8.280 -2.2752  1.7257 -0.1646
   65MOL0     H 8937   2.249   8.749   8.136 -2.4105  1.1252  2.6595
   65MOL0     H 8938   2.436   8.593   8.165 -1.4729  1.0934  0.8385
   65MOL0     H 8939   2.548   8.726   8.152  0.8257 -0.5290 -0.6046
   65MOL0     H 8940   2.465   8.785   7.923  2.2209 -0.5977  0.3121
   65MOL0     H 8941   2.347   8.643   7.952  0.5236 -2.3042 -0.4885
   65MOL0     H 8942   2.647   8.633   7.936  0.3663 -0.5990 -1.0188
   65MOL0     H 8943   2.546   8.502   7.986  0.2537  1.1066  0.9413
   65MOL0     H 8944   2.421   8.520   7.769 -0.0520  0.1241  1.4443
   65MOL0     H 8945   2.592   8.453   7.767  0.5215  0.2523  1.7519
   65MOL0     H 8946   2.674   8.688   7.701  1.3766  0.4796 -4.0168
   65MOL0     H 8947   2.517   8.734   7.689 -2.4470 -1.3530  0.4144
   65MOL0     H 8948   2.633   8.492   7.534 -1.9097 -0.7978  0.1522
   65MOL0     H 8949   2.613   8.657   7.464 -0.9805  0.4053 -1.5950
   65MOL0     H 8950   2.396   9.148   8.366 -0.5391  0.8888  0.8560
   65MOL0     H 8951   2.375   9.381   8.369 -0.1439 -1.7603 -0.6260
   65MOL0     H 8952   2.118   9.756   8.077 -0.5828 -0.1026  0.7700
   65MOL0     H 8953   2.091   9.995   8.025  0.6661  2.3227  0.8301
   65MOL0     H 8954   2.001  11.080   7.534 -1.2679  2.3036 -1.4128
   65MOL0     H 8955   1.863  10.959   7.398 -0.9416  2.8578 -0.1910
   65MOL0     H 8956   1.797  10.689   7.076  1.6667  3.6490  1.6136
   65MOL0     H 8957   1.618  10.541   6.958 -0.6557 -0.4327 -1.5925
   65MOL0     H 8958   1.517  10.436   6.822 -0.2632  2.0761  2.1538
   65MOL0     H 8959   1.356  10.460   6.738 -0.4463  0.0346 -0.9897
   65MOL0     H 8960   1.461  10.579   6.558  1.0413  1.6325  1.5376
   65MOL0     H 8961   1.504  10.419   6.560 -1.2497  0.5528  0.0617
   65MOL0     H 8962   1.712  10.636   6.658  1.1364 -1.4054  2.4931
   65MOL0     H 8963   1.724  10.475   6.707  1.6320  0.6171 -0.6612
   65MOL0     H 8964   1.703  10.406   6.454  0.3918  0.4343 -0.9550
   65MOL0     H 8965   1.847  10.498   6.508  0.2961  5.6751 -1.2855
   65MOL0     H 8966   1.672  10.763   6.232  1.8254 -1.7916 -2.0668
   65MOL0     H 8967   1.449  10.879   6.793 -3.0961  1.2463  2.8467
   65MOL0     H 8968   1.580  11.120   6.962 -0.2375 -0.6070  0.4880
   65MOL0     H 8969   1.721  11.117   6.852 -0.3653  2.0735  1.5629
   65MOL0     H 8970   1.569  11.107   6.779  0.3345 -1.4890 -0.2194
   66MOL0     O 8971   5.266   2.101   8.570  0.4935  0.1295 -0.1165
   66MOL0     C 8972   5.172   2.127   8.639  0.5614 -0.4471 -0.1765
   66MOL0     O 8973   5.042   2.128   8.599 -0.3294  0.2664 -0.4617
   66MOL0     C 8974   5.018   2.127   8.469 -0.1205 -0.3522  0.7008
   66MOL0     C 8975   4.925   2.036   8.419  0.4401 -0.4751  0.8408
   66MOL0     C 8976   4.899   2.034   8.274  0.7450  0.6103 -0.9458
   66MOL0     C 8977   4.958   2.134   8.200 -0.2997  0.8286  0.4084
   66MOL0     O 8978   4.909   2.134   8.063 -0.1415 -0.7231 -0.4014
   66MOL0     C 8979   4.925   2.020   7.986 -0.3345 -0.9909 -0.0541
   66MOL0     C 8980   4.935   2.066   7.841  0.3849 -0.7428  0.5705
   66MOL0     C 8981   4.802   2.113   7.789 -0.0061 -0.2674 -0.8057
   66MOL0     C 8982   4.691   2.009   7.794  0.3802  0.2824  0.1697
   66MOL0     C 8983   4.563   2.068   7.735 -0.0382  0.0133  0.4002
   66MOL0     C 8984   4.457   1.956   7.723 -0.1095  0.4850  0.1738
   66MOL0     C 8985   4.330   1.998   7.655 -0.2965  0.1568 -0.4642
   66MOL0     C 8986   4.350   2.002   7.507  0.2612  0.9142  0.6202
   66MOL0     N 8987   4.224   2.007   7.439 -0.1153 -0.5307  0.5773
   66MOL0     C 8988   4.116   2.088   7.457  0.1602  0.0436 -0.5426
   66MOL0     C 8989   4.014   2.036   7.383 -0.1355  0.6339  0.1414
   66MOL0     C 8990   3.871   2.072   7.387 -0.0496 -0.0553  0.5036
   66MOL0     C 8991   3.815   2.182   7.284  0.1782  0.0576 -0.6098
   66MOL0     C 8992   3.832   2.133   7.149  0.5284 -1.2101  0.2663
   66MOL0     C 8993   3.774   1.998   7.100 -0.4694  0.0890  0.4815
   66MOL0     O 8994   3.629   1.975   7.109 -0.5093  0.2164 -0.3657
   66MOL0     C 8995   3.572   1.914   7.001  0.1636  0.6310 -0.1717
   66MOL0     C 8996   3.467   1.978   6.936 -0.1276  0.3358 -0.5255
   66MOL0     C 8997   3.396   1.911   6.833 -0.4655 -0.5519  0.0441
   66MOL0     C 8998   3.296   1.997   6.760 -1.1091 -0.4524  0.3596
   66MOL0     C 8999   3.409   1.767   6.814  0.2093  0.3026  1.0006
   66MOL0     C 9000   3.332   1.686   6.713  1.2309  0.3909 -1.1628
   66MOL0     O 9001   3.396   1.586   6.651  0.2629 -0.2042  0.0431
   66MOL0     C 9002   3.351   1.526   6.531 -0.2170 -0.1787  0.8758
   66MOL0     C 9003   3.270   1.582   6.426  0.2807  0.2235 -0.2775
   66MOL0     C 9004   3.223   1.524   6.316  0.4280  1.0997 -0.4354
   66MOL0     C 9005   3.253   1.388   6.291 -0.8022  0.5877 -0.9120
   66MOL0     O 9006   3.246   1.315   6.175 -0.6211  0.1794 -0.4869
   66MOL0     C 9007   3.159   1.370   6.086  0.4661 -1.1113 -0.0354
   66MOL0     C 9008   3.177   1.283   5.962  0.3955  0.2600 -0.3780
   66MOL0     C 9009   3.089   1.337   5.839  0.2691  0.0333 -0.6938
   66MOL0     C 9010   3.140   1.476   5.789 -0.6400 -0.2328 -0.4141
   66MOL0     C 9011   3.046   1.511   5.672  1.1286 -0.6553 -0.3334
   66MOL0     C 9012   2.902   1.546   5.719  0.1025 -0.0144  0.3550
   66MOL0     C 9013   2.899   1.642   5.840 -0.3173 -0.4213  1.6207
   66MOL0     C 9014   2.761   1.690   5.899  0.2283 -0.9882 -0.2566
   66MOL0    Cl 9015   2.647   1.556   5.938 -0.0708 -0.4502  0.1830
   66MOL0     C 9016   3.325   1.323   6.394 -0.7992  0.0670  0.1858
   66MOL0     C 9017   3.378   1.386   6.510  0.7070 -0.3375 -0.7955
   66MOL0     O 9018   3.213   1.700   6.705 -0.0870 -0.6552  0.1555
   66MOL0     C 9019   3.515   1.712   6.884  0.3567  0.2810  0.3438
   66MOL0     C 9020   3.601   1.782   6.971  0.7542  0.6528 -0.2725
   66MOL0     N 9021   4.063   1.929   7.312  0.2630 -0.6582 -0.4290
   66MOL0     N 9022   4.187   1.917   7.348 -0.0530 -0.4306  0.8229
   66MOL0     C 9023   5.049   2.225   8.255  0.9595  0.6274  0.7902
   66MOL0     C 9024   5.078   2.220   8.386  0.5679  0.4365 -0.1515
   66MOL0     C 9025   5.193   2.160   8.784  0.1803 -0.5227 -0.2137
   66MOL0     C 9026   5.090   2.138   8.878 -0.0891 -1.2103  0.0054
   66MOL0     C 9027   5.105   2.126   9.010  0.3184 -0.7072  0.0218
   66MOL0     C 9028   5.223   2.170   9.068  0.6579 -0.3825  0.2095
   66MOL0     O 9029   5.234   2.165   9.209 -0.8712 -0.2872  0.5427
   66MOL0     C 9030   5.371   2.162   9.264  0.4857  0.5312 -0.0993
   66MOL0     C 9031   5.439   2.035   9.222 -0.2067 -0.0348  0.6636
   66MOL0     C 9032   5.576   2.027   9.277 -1.2700  0.0710 -0.7787
   66MOL0     C 9033   5.674   2.129   9.219  0.8225  0.4993  0.2025
   66MOL0     C 9034   5.793   2.050   9.212  0.0885 -0.6693  0.0938
   66MOL0     C 9035   5.905   1.995   9.189  0.9131  0.4004  1.1407
   66MOL0     C 9036   5.320   2.213   8.985  0.5320 -0.1372 -0.2648
   66MOL0     C 9037   5.323   2.187   8.844  0.8402 -0.2594 -0.0733
   66MOL0     C 9038   5.446   2.209   8.759  0.8322  0.5611 -0.3024
   66MOL0     H 9039   4.876   1.957   8.473  0.3357 -0.6719  0.4575
   66MOL0     H 9040   4.834   1.955   8.238 -0.1414  0.8564  0.0533
   66MOL0     H 9041   4.851   1.943   8.007 -1.9364  0.6494  0.6112
   66MOL0     H 9042   5.020   1.969   8.003 -1.7245 -3.5366  0.4924
   66MOL0     H 9043   5.010   2.144   7.822 -0.3608 -0.3675 -0.9997
   66MOL0     H 9044   4.973   1.986   7.777 -2.0063 -1.1421 -0.4533
   66MOL0     H 9045   4.770   2.187   7.863  1.5250 -2.9571  2.8383
   66MOL0     H 9046   4.806   2.151   7.686 -1.4516 -0.2994 -0.8854
   66MOL0     H 9047   4.711   1.910   7.754  1.1715 -1.1608  3.7735
   66MOL0     H 9048   4.674   1.999   7.902 -2.9281 -2.2027 -0.3982
   66MOL0     H 9049   4.586   2.100   7.633 -0.2192  0.7787  0.5952
   66MOL0     H 9050   4.529   2.149   7.801 -4.1358 -0.2194 -1.1450
   66MOL0     H 9051   4.492   1.864   7.676 -0.4801  0.9331 -1.0069
   66MOL0     H 9052   4.430   1.932   7.827  2.5096 -3.1714  0.1909
   66MOL0     H 9053   4.303   2.098   7.691  2.0013  0.4796  0.5266
   66MOL0     H 9054   4.258   1.924   7.691 -1.2991  1.3295  0.0045
   66MOL0     H 9055   4.408   2.088   7.472  1.4612 -0.1649 -0.0811
   66MOL0     H 9056   4.389   1.904   7.481 -3.5335 -1.2287  2.1114
   66MOL0     H 9057   4.110   2.168   7.530  2.4117 -0.2334  0.0021
   66MOL0     H 9058   3.856   2.107   7.490 -1.1910 -1.7311  0.9392
   66MOL0     H 9059   3.805   1.985   7.386 -0.3278  0.1390 -1.2746
   66MOL0     H 9060   3.707   2.190   7.299 -0.0255  0.5554 -2.1582
   66MOL0     H 9061   3.861   2.278   7.306 -1.4448  0.8165 -0.3486
   66MOL0     H 9062   3.780   2.214   7.096  0.5928 -0.8605  0.7294
   66MOL0     H 9063   3.936   2.145   7.116 -0.3820 -0.9569 -2.8622
   66MOL0     H 9064   3.807   1.993   6.995  0.8436  1.9601  0.7680
   66MOL0     H 9065   3.830   1.921   7.152  3.7523  2.3869 -0.2481
   66MOL0     H 9066   3.448   2.075   6.982 -0.5660 -0.3678  0.8278
   66MOL0     H 9067   3.346   2.087   6.722  1.3177 -0.7249  2.6509
   66MOL0     H 9068   3.215   2.031   6.825 -0.7510  0.6110  0.2637
   66MOL0     H 9069   3.253   1.950   6.671  0.9593 -1.0880 -0.3770
   66MOL0     H 9070   3.247   1.686   6.443  0.0805 -0.2211  2.7443
   66MOL0     H 9071   3.167   1.587   6.247  0.4080 -0.4037 -1.8578
   66MOL0     H 9072   3.056   1.372   6.122 -0.2161 -1.0305 -1.8975
   66MOL0     H 9073   3.177   1.475   6.061  1.1337 -1.0234  0.7607
   66MOL0     H 9074   3.279   1.284   5.923 -0.4850  3.0087 -3.0401
   66MOL0     H 9075   3.146   1.179   5.976  0.1364  0.4887  0.8524
   66MOL0     H 9076   2.987   1.330   5.875  0.5934  2.2741  0.8141
   66MOL0     H 9077   3.106   1.266   5.757 -2.2106  0.7118 -1.8886
   66MOL0     H 9078   3.242   1.464   5.752  0.3331  2.4821  1.1438
   66MOL0     H 9079   3.154   1.552   5.866  1.0101 -0.7156 -0.2045
   66MOL0     H 9080   3.084   1.606   5.632  0.5443 -1.3548 -2.7329
   66MOL0     H 9081   3.041   1.430   5.599 -0.8325 -0.8868  0.0200
   66MOL0     H 9082   2.852   1.455   5.753 -1.4367  0.3883 -0.7300
   66MOL0     H 9083   2.841   1.594   5.641  0.1533 -1.3259 -0.5142
   66MOL0     H 9084   2.966   1.725   5.816 -0.3521 -0.8952 -0.2519
   66MOL0     H 9085   2.944   1.590   5.925 -0.3192 -0.1451  1.7921
   66MOL0     H 9086   2.713   1.761   5.832  0.7342  1.5015  1.8461
   66MOL0     H 9087   2.773   1.743   5.994 -1.8087 -1.8533  0.5476
   66MOL0     H 9088   3.350   1.221   6.368 -0.0498 -0.0290  1.2300
   66MOL0     H 9089   3.432   1.348   6.597 -0.1111 -2.6012 -1.2064
   66MOL0     H 9090   3.535   1.606   6.878 -0.4573  0.0337  1.6277
   66MOL0     H 9091   3.672   1.723   7.027 -2.2983 -1.0850  2.0460
   66MOL0     H 9092   5.077   2.311   8.195 -0.6145  0.7148  0.1565
   66MOL0     H 9093   5.131   2.304   8.430  0.9323 -0.5291  1.2873
   66MOL0     H 9094   4.993   2.103   8.843  0.3708  0.1569 -2.8654
   66MOL0     H 9095   5.031   2.094   9.082  0.1131  0.7195  0.4908
   66MOL0     H 9096   5.427   2.254   9.244 -3.5486  2.5572 -3.7365
   66MOL0     H 9097   5.348   2.171   9.371 -0.7158  0.1537 -0.3132
   66MOL0     H 9098   5.451   2.027   9.114 -0.3601 -0.5644  0.6807
   66MOL0     H 9099   5.379   1.950   9.255  2.5321 -3.4382 -2.2612
   66MOL0     H 9100   5.564   2.042   9.385  2.9068 -1.9654  0.1422
   66MOL0     H 9101   5.615   1.925   9.273 -2.4045 -0.3723 -0.9581
   66MOL0     H 9102   5.669   2.218   9.282  2.4689  0.6780  0.1280
   66MOL0     H 9103   5.648   2.158   9.117 -2.4656 -0.4488  0.6790
   66MOL0     H 9104   6.005   1.965   9.165 -0.6368 -1.1599 -4.8207
   66MOL0     H 9105   5.417   2.241   9.025  0.3470 -3.3060  2.9756
   66MOL0     H 9106   5.411   2.275   8.679 -1.5870  1.2429  1.1871
   66MOL0     H 9107   5.533   2.252   8.810  1.2433 -0.1322 -0.4092
   66MOL0     H 9108   5.482   2.120   8.707 -0.8788  0.5355 -1.5198
   67MOL0     O 9109   5.453   4.656   7.756  0.5733 -0.0105 -0.1736
   67MOL0     C 9110   5.476   4.554   7.810  0.2745  0.3361 -0.0470
   67MOL0     O 9111   5.447   4.430   7.761 -0.1519 -0.9783 -0.2734
   67MOL0     C 9112   5.353   4.399   7.671 -0.4782  0.3090  0.0272
   67MOL0     C 9113   5.225   4.450   7.689 -0.2989 -0.5539 -0.1829
   67MOL0     C 9114   5.128   4.412   7.598 -0.1892 -0.8115  0.2654
   67MOL0     C 9115   5.166   4.346   7.479  0.4132  0.5304  0.0343
   67MOL0     O 9116   5.075   4.326   7.382  0.6331  0.0587  0.7579
   67MOL0     C 9117   5.046   4.179   7.367  0.8239 -0.1253  0.7091
   67MOL0     C 9118   4.894   4.153   7.372 -0.7388  0.1802  0.0988
   67MOL0     C 9119   4.879   4.023   7.298  1.2662  0.3243 -0.6071
   67MOL0     C 9120   4.724   3.994   7.273 -0.4503 -0.3822  0.4540
   67MOL0     C 9121   4.727   3.884   7.172 -0.7428 -0.2507 -0.0435
   67MOL0     C 9122   4.587   3.858   7.110 -0.4773 -0.0329 -0.1759
   67MOL0     C 9123   4.458   3.891   7.198  0.3106  0.1452 -0.2825
   67MOL0     C 9124   4.398   3.791   7.296  0.4786  0.0013 -0.3204
   67MOL0     N 9125   4.417   3.650   7.244 -0.5190 -0.0931 -0.6857
   67MOL0     C 9126   4.367   3.595   7.133  0.2353  0.5624 -0.7059
   67MOL0     C 9127   4.390   3.455   7.146  0.7844 -1.4641 -0.0333
   67MOL0     C 9128   4.340   3.347   7.041 -0.4540  0.8662 -0.0587
   67MOL0     C 9129   4.263   3.425   6.937 -0.0388  0.3468  0.1187
   67MOL0     C 9130   4.182   3.326   6.839  0.4917 -0.1495 -0.6026
   67MOL0     C 9131   4.272   3.258   6.735  0.2299  0.3807 -0.6130
   67MOL0     O 9132   4.308   3.350   6.623  0.0977  0.4293  0.2147
   67MOL0     C 9133   4.271   3.303   6.501 -0.3341  0.3502 -0.1564
   67MOL0     C 9134   4.301   3.174   6.460  0.6258  0.8166 -0.5161
   67MOL0     C 9135   4.259   3.125   6.330 -0.2192 -0.6063 -0.1363
   67MOL0     C 9136   4.268   2.979   6.314 -0.7606  1.0684  0.1289
   67MOL0     C 9137   4.208   3.212   6.227  0.4935 -0.8254 -1.2573
   67MOL0     C 9138   4.179   3.182   6.085 -1.3877 -0.1102 -0.2852
   67MOL0     O 9139   4.130   3.288   6.007  0.3353 -0.5800  0.1166
   67MOL0     C 9140   4.120   3.268   5.868  0.6797  0.8692 -0.1797
   67MOL0     C 9141   4.000   3.306   5.798  0.6428 -0.8105  0.3306
   67MOL0     C 9142   3.999   3.276   5.660 -0.0912 -0.6984 -0.7990
   67MOL0     C 9143   4.101   3.217   5.592  0.4955 -1.2973  0.5194
   67MOL0     O 9144   4.106   3.179   5.453  0.6667 -0.7402 -0.2525
   67MOL0     C 9145   3.992   3.213   5.382 -0.4823 -0.1428  1.6147
   67MOL0     C 9146   4.004   3.180   5.242  0.1780  0.9529  0.4853
   67MOL0     C 9147   4.082   3.289   5.161 -0.4317 -0.0418 -0.1816
   67MOL0     C 9148   4.129   3.242   5.024 -0.7023  0.5911  0.6933
   67MOL0     C 9149   4.182   3.352   4.920  0.2566 -0.5073 -0.1048
   67MOL0     C 9150   4.248   3.298   4.793 -1.1053  0.0643 -0.6296
   67MOL0     C 9151   4.146   3.216   4.708  0.4846 -0.2638  0.0399
   67MOL0     C 9152   4.205   3.166   4.577  0.4924  0.0693  0.5700
   67MOL0    Cl 9153   4.361   3.073   4.593  0.6066  0.1008 -0.0728
   67MOL0     C 9154   4.217   3.176   5.660  0.5550 -0.1128 -0.3217
   67MOL0     C 9155   4.224   3.205   5.795  0.7197  0.5260  0.1508
   67MOL0     O 9156   4.225   3.078   6.044  0.3474 -0.0598  0.1066
   67MOL0     C 9157   4.175   3.338   6.277 -0.4299 -0.1059  0.5280
   67MOL0     C 9158   4.204   3.375   6.403  0.4149 -0.0370  0.4665
   67MOL0     N 9159   4.442   3.434   7.270  0.5877  0.2841 -0.1190
   67MOL0     N 9160   4.458   3.556   7.329 -0.0401 -0.6113  0.5946
   67MOL0     C 9161   5.296   4.300   7.461  0.2022  0.1136 -0.0191
   67MOL0     C 9162   5.389   4.316   7.564  0.6906 -0.8487 -0.0777
   67MOL0     C 9163   5.564   4.560   7.933  0.4805 -0.6048  0.0206
   67MOL0     C 9164   5.520   4.492   8.048 -0.4135 -0.0589 -0.3614
   67MOL0     C 9165   5.584   4.511   8.171  0.3544 -1.2495 -0.2756
   67MOL0     C 9166   5.703   4.586   8.182  0.6745  0.1463 -0.5667
   67MOL0     O 9167   5.767   4.585   8.301  0.2676  0.4070 -0.5112
   67MOL0     C 9168   5.867   4.689   8.328 -0.2008 -0.3623  0.7821
   67MOL0     C 9169   5.941   4.667   8.459  0.5483 -0.4529  1.2435
   67MOL0     C 9170   5.856   4.698   8.583 -0.8123  0.1594  0.0856
   67MOL0     C 9171   5.744   4.595   8.617  1.0709  0.1122  0.1463
   67MOL0     C 9172   5.818   4.472   8.656 -0.0260 -0.1082 -0.6145
   67MOL0     C 9173   5.889   4.369   8.667 -0.4251  0.0553  0.6001
   67MOL0     C 9174   5.746   4.651   8.063  0.2745 -1.0434  0.1816
   67MOL0     C 9175   5.681   4.634   7.938 -0.4584  0.1675  0.2634
   67MOL0     C 9176   5.727   4.715   7.816 -0.6908 -0.5945  0.0870
   67MOL0     H 9177   5.198   4.513   7.773  0.5115  1.8945 -1.6384
   67MOL0     H 9178   5.031   4.460   7.601  0.3715  0.5522 -1.4360
   67MOL0     H 9179   5.088   4.128   7.454  2.3393 -0.0258  0.0526
   67MOL0     H 9180   5.092   4.152   7.271 -0.3356  1.1810 -0.2513
   67MOL0     H 9181   4.870   4.139   7.478  1.9545 -2.8242  0.5015
   67MOL0     H 9182   4.845   4.232   7.314  0.6322  0.4745 -0.7210
   67MOL0     H 9183   4.932   4.036   7.203 -0.2930 -0.1916 -1.5847
   67MOL0     H 9184   4.915   3.937   7.355 -0.0317 -0.4508 -0.9127
   67MOL0     H 9185   4.680   3.963   7.367  0.2883  0.9136  1.2602
   67MOL0     H 9186   4.678   4.085   7.232  3.5084  0.9754 -1.5168
   67MOL0     H 9187   4.745   3.792   7.228 -0.6414  1.6526  3.3191
   67MOL0     H 9188   4.802   3.895   7.093 -1.8992 -0.5547 -1.2235
   67MOL0     H 9189   4.594   3.925   7.023 -1.2376 -0.5043 -0.6074
   67MOL0     H 9190   4.601   3.758   7.069  2.7156 -0.0268  0.6083
   67MOL0     H 9191   4.375   3.897   7.127 -3.2791  1.5618  3.6092
   67MOL0     H 9192   4.472   3.986   7.252 -1.1952  0.1110  0.2062
   67MOL0     H 9193   4.459   3.807   7.385 -1.2188  3.3446  0.3850
   67MOL0     H 9194   4.292   3.806   7.319  0.6362  0.1380  0.3454
   67MOL0     H 9195   4.339   3.653   7.046 -0.6207 -0.5606 -1.2158
   67MOL0     H 9196   4.281   3.281   7.105  1.5315 -0.5396  0.4205
   67MOL0     H 9197   4.421   3.298   6.986 -3.6303 -2.3653 -2.2483
   67MOL0     H 9198   4.179   3.479   6.981  1.1243  0.9823  1.6506
   67MOL0     H 9199   4.325   3.487   6.873  0.8790  1.7235  2.2312
   67MOL0     H 9200   4.131   3.253   6.903  0.6511 -0.5953 -0.9813
   67MOL0     H 9201   4.105   3.384   6.788 -0.3978 -1.7127 -1.0934
   67MOL0     H 9202   4.364   3.223   6.782 -1.4327 -1.7568  1.3183
   67MOL0     H 9203   4.221   3.165   6.707  2.2929 -1.7908  2.1738
   67MOL0     H 9204   4.355   3.111   6.530 -1.0135  0.6048  0.6019
   67MOL0     H 9205   4.282   2.934   6.413 -2.5701 -0.3646 -0.2101
   67MOL0     H 9206   4.349   2.957   6.244 -1.3307  0.0063 -0.2217
   67MOL0     H 9207   4.178   2.943   6.263 -0.3940  0.9752 -0.4570
   67MOL0     H 9208   3.919   3.356   5.851  1.4305  1.1724 -0.2447
   67MOL0     H 9209   3.916   3.292   5.592  1.7933 -1.6784 -3.5064
   67MOL0     H 9210   3.897   3.172   5.418 -0.0538 -0.4723  2.4044
   67MOL0     H 9211   3.987   3.322   5.393 -0.5961  0.1535 -0.8795
   67MOL0     H 9212   4.043   3.081   5.219  0.0858  1.2247 -0.9575
   67MOL0     H 9213   3.905   3.192   5.196  0.5505  1.6702 -0.1413
   67MOL0     H 9214   4.177   3.311   5.211  1.0792 -3.1793 -1.3501
   67MOL0     H 9215   4.017   3.376   5.167 -1.6368 -0.8296 -1.2835
   67MOL0     H 9216   4.043   3.194   4.977 -0.0290  0.8190 -0.8308
   67MOL0     H 9217   4.202   3.160   5.038  0.0260  0.3627 -3.3762
   67MOL0     H 9218   4.095   3.413   4.896  1.6482  1.0530 -1.5323
   67MOL0     H 9219   4.258   3.410   4.974  0.0256  1.1586 -1.4741
   67MOL0     H 9220   4.333   3.232   4.814 -2.0693 -1.1892 -0.5005
   67MOL0     H 9221   4.286   3.389   4.746  1.4527  1.9077  4.2652
   67MOL0     H 9222   4.060   3.283   4.696 -0.6001 -1.3487  1.3660
   67MOL0     H 9223   4.106   3.128   4.760 -0.2036  0.4337  0.7351
   67MOL0     H 9224   4.204   3.246   4.503  0.6373  0.2117  0.7220
   67MOL0     H 9225   4.142   3.082   4.545 -0.3950  0.2558  1.7757
   67MOL0     H 9226   4.305   3.133   5.614 -1.9692 -4.5595 -1.6075
   67MOL0     H 9227   4.320   3.175   5.836  1.2122 -0.8985 -1.8783
   67MOL0     H 9228   4.141   3.421   6.216  2.1027  3.5825  3.6172
   67MOL0     H 9229   4.163   3.472   6.428 -2.4843 -0.8584 -0.6844
   67MOL0     H 9230   5.319   4.255   7.365 -1.8531  1.2880 -1.1257
   67MOL0     H 9231   5.493   4.282   7.560  0.9714  0.1067 -1.6616
   67MOL0     H 9232   5.427   4.437   8.048 -0.2563 -0.3352 -1.0093
   67MOL0     H 9233   5.529   4.481   8.260 -1.9948  0.6860 -0.9703
   67MOL0     H 9234   5.938   4.670   8.246 -0.7619 -2.1922  0.6776
   67MOL0     H 9235   5.817   4.785   8.321 -1.5396 -1.1140 -0.5517
   67MOL0     H 9236   6.042   4.709   8.463  1.4309 -2.5146  2.0197
   67MOL0     H 9237   5.955   4.560   8.444 -4.0260 -1.2055  0.8885
   67MOL0     H 9238   5.922   4.706   8.669 -1.7115  3.6285  0.6133
   67MOL0     H 9239   5.811   4.798   8.574  1.0273  1.0692  0.4624
   67MOL0     H 9240   5.684   4.559   8.533 -2.4643 -1.1120  2.9640
   67MOL0     H 9241   5.682   4.638   8.696  0.5150 -0.1209 -0.1623
   67MOL0     H 9242   5.928   4.269   8.668 -1.1990 -0.3414 -1.9880
   67MOL0     H 9243   5.838   4.708   8.067  2.4966 -4.2476 -0.7201
   67MOL0     H 9244   5.711   4.669   7.718 -0.1437  2.8318 -1.7892
   67MOL0     H 9245   5.681   4.814   7.826  0.5340 -0.1575  1.8806
   67MOL0     H 9246   5.836   4.723   7.828 -0.7166  1.0479 -0.3801
   68MOL0     O 9247   8.310   5.376   7.453 -0.3690 -0.7305  0.6151
   68MOL0     C 9248   8.322   5.269   7.392  0.2915 -0.9663  0.1631
   68MOL0     O 9249   8.268   5.249   7.270 -0.4182 -0.1194  0.3783
   68MOL0     C 9250   8.235   5.356   7.187 -0.5467  0.9423 -0.1111
   68MOL0     C 9251   8.138   5.437   7.227  0.3276  1.2546 -0.1642
   68MOL0     C 9252   8.082   5.536   7.138  0.7810  0.0975  0.0990
   68MOL0     C 9253   8.127   5.540   7.001 -0.6191  0.1655  0.2829
   68MOL0     O 9254   8.069   5.622   6.908  0.8043  0.6593 -0.0850
   68MOL0     C 9255   8.072   5.583   6.767  0.4467 -0.1203  0.4129
   68MOL0     C 9256   8.020   5.700   6.678 -0.0009  0.0333 -0.6029
   68MOL0     C 9257   8.109   5.824   6.701 -0.4631 -0.3507  0.0722
   68MOL0     C 9258   8.039   5.945   6.637  0.1470 -0.5930 -0.4057
   68MOL0     C 9259   8.093   6.078   6.676 -0.1279  0.1776 -0.3425
   68MOL0     C 9260   8.000   6.200   6.639 -0.5040 -0.0986  0.7118
   68MOL0     C 9261   7.864   6.193   6.709  0.5022 -0.2473 -0.4865
   68MOL0     C 9262   7.752   6.271   6.641  0.5885 -0.1457 -0.1080
   68MOL0     N 9263   7.696   6.220   6.513 -0.1055 -0.3181 -0.2176
   68MOL0     C 9264   7.675   6.296   6.402 -0.9491 -0.2056  0.6215
   68MOL0     C 9265   7.623   6.219   6.317  0.9314  0.1795 -0.3780
   68MOL0     C 9266   7.570   6.271   6.188  1.0885  0.0375 -0.3033
   68MOL0     C 9267   7.506   6.177   6.082 -0.2006  0.4051  0.7279
   68MOL0     C 9268   7.624   6.165   5.985  0.5108  0.4158  0.1429
   68MOL0     C 9269   7.600   6.076   5.861  0.0795 -0.3807  0.0892
   68MOL0     O 9270   7.508   6.142   5.778  0.5120 -0.5408  0.4668
   68MOL0     C 9271   7.549   6.256   5.699  0.3670  0.3149 -0.7703
   68MOL0     C 9272   7.688   6.295   5.674 -0.2794 -0.3726  0.5235
   68MOL0     C 9273   7.726   6.405   5.593  0.5636 -0.6701 -0.3539
   68MOL0     C 9274   7.880   6.442   5.581 -0.2562  0.0090  0.9205
   68MOL0     C 9275   7.622   6.472   5.522 -0.4472  0.1544  0.0193
   68MOL0     C 9276   7.650   6.584   5.429 -0.6547  1.3703 -0.3356
   68MOL0     O 9277   7.566   6.682   5.417  0.4768 -1.3061 -0.4708
   68MOL0     C 9278   7.614   6.802   5.382  0.3704  0.6685  0.7462
   68MOL0     C 9279   7.533   6.878   5.307 -0.4727 -0.5366 -0.2904
   68MOL0     C 9280   7.571   7.002   5.267 -0.0214  0.8328 -0.3028
   68MOL0     C 9281   7.696   7.056   5.286  0.0357 -0.3303  0.0655
   68MOL0     O 9282   7.743   7.186   5.247  0.0707 -0.2546  0.1701
   68MOL0     C 9283   7.656   7.296   5.197  1.1760  1.0243 -0.5129
   68MOL0     C 9284   7.627   7.384   5.319 -0.5016  0.4237 -1.1090
   68MOL0     C 9285   7.508   7.483   5.285  0.1606 -0.7702  0.7424
   68MOL0     C 9286   7.368   7.417   5.287  0.4175  0.5594  0.8629
   68MOL0     C 9287   7.259   7.518   5.253  0.2056 -0.0281 -0.1247
   68MOL0     C 9288   7.120   7.463   5.246 -1.3245 -0.4596  0.1881
   68MOL0     C 9289   7.021   7.575   5.225 -0.3123 -0.5785 -0.3502
   68MOL0     C 9290   6.996   7.620   5.076 -0.2485 -0.1748  0.2016
   68MOL0    Cl 9291   6.902   7.761   5.107  0.0266 -0.4196  0.0180
   68MOL0     C 9292   7.776   6.980   5.366  0.1850  0.2034  0.3036
   68MOL0     C 9293   7.744   6.855   5.414  0.0827 -0.4251  0.0069
   68MOL0     O 9294   7.752   6.558   5.365  0.2475 -0.3907  0.8453
   68MOL0     C 9295   7.493   6.440   5.544  0.2295  0.9800 -0.0298
   68MOL0     C 9296   7.457   6.332   5.624  0.1994  0.0598  0.3329
   68MOL0     N 9297   7.620   6.089   6.370 -0.1959 -1.2495 -0.5513
   68MOL0     N 9298   7.654   6.094   6.494 -1.2044  0.0703 -0.0662
   68MOL0     C 9299   8.221   5.449   6.962 -0.0618  0.1740  0.8609
   68MOL0     C 9300   8.289   5.361   7.055  0.1537 -0.2361 -0.4806
   68MOL0     C 9301   8.377   5.154   7.473 -1.2461 -0.3925 -0.2493
   68MOL0     C 9302   8.361   5.023   7.435  0.5807 -0.1660  0.4123
   68MOL0     C 9303   8.407   4.911   7.512 -0.2107 -0.6718 -0.4860
   68MOL0     C 9304   8.482   4.925   7.627  1.3459 -0.9409 -1.2445
   68MOL0     O 9305   8.560   4.832   7.683 -0.1698  0.7449 -0.1096
   68MOL0     C 9306   8.627   4.734   7.603 -0.1700 -0.2775  0.5715
   68MOL0     C 9307   8.707   4.644   7.692  0.2346  0.2826  0.4610
   68MOL0     C 9308   8.609   4.576   7.792 -0.0929  0.2385  0.3469
   68MOL0     C 9309   8.545   4.457   7.730  0.1113 -0.4024 -0.5302
   68MOL0     C 9310   8.446   4.409   7.824 -0.5005  0.3920  0.1217
   68MOL0     C 9311   8.353   4.389   7.893  0.0255 -0.7885 -0.0555
   68MOL0     C 9312   8.503   5.053   7.664 -1.1681 -0.2661  0.1017
   68MOL0     C 9313   8.445   5.166   7.593  0.9774  0.1542 -0.6549
   68MOL0     C 9314   8.467   5.299   7.668 -0.2859  0.6722 -0.6686
   68MOL0     H 9315   8.099   5.431   7.328  0.1656  0.5429 -0.2677
   68MOL0     H 9316   8.006   5.602   7.178  0.5571  1.1705 -1.9656
   68MOL0     H 9317   8.025   5.486   6.748  2.2404 -1.0533  0.4958
   68MOL0     H 9318   8.171   5.561   6.727  0.2277 -1.4133  0.5050
   68MOL0     H 9319   8.022   5.664   6.575 -0.6333 -0.5835 -0.4120
   68MOL0     H 9320   7.915   5.709   6.709 -0.0739 -1.2650 -0.4212
   68MOL0     H 9321   8.143   5.854   6.801  2.0785  5.0434 -2.0121
   68MOL0     H 9322   8.207   5.808   6.655 -0.6789 -0.0074 -0.5161
   68MOL0     H 9323   8.030   5.923   6.530 -3.1126 -0.5441 -0.2487
   68MOL0     H 9324   7.933   5.945   6.665 -0.7507  2.1931 -3.2132
   68MOL0     H 9325   8.191   6.105   6.635 -0.3718 -0.6641 -1.5234
   68MOL0     H 9326   8.105   6.066   6.784  2.3733 -2.2284 -0.7709
   68MOL0     H 9327   8.055   6.291   6.664 -2.6556  2.0522 -1.8015
   68MOL0     H 9328   7.987   6.199   6.530  0.2196 -3.4803  0.5515
   68MOL0     H 9329   7.877   6.218   6.815  0.6285 -0.0276 -0.5542
   68MOL0     H 9330   7.817   6.094   6.701 -0.2284  0.1710 -1.5948
   68MOL0     H 9331   7.679   6.282   6.722  0.1999  3.3178 -0.7467
   68MOL0     H 9332   7.788   6.373   6.620  1.2967  0.9345  4.8749
   68MOL0     H 9333   7.704   6.400   6.388 -0.0765 -0.2656  1.8668
   68MOL0     H 9334   7.642   6.342   6.148  0.6296  0.3649 -0.5555
   68MOL0     H 9335   7.486   6.332   6.222 -0.4486 -1.1561 -1.7721
   68MOL0     H 9336   7.471   6.080   6.118 -2.9450  0.7454 -0.7725
   68MOL0     H 9337   7.426   6.216   6.018 -2.4482 -3.4048  0.9388
   68MOL0     H 9338   7.648   6.266   5.951  1.2332  0.3300  0.3730
   68MOL0     H 9339   7.711   6.131   6.043  2.1712  1.3522 -1.6639
   68MOL0     H 9340   7.695   6.059   5.810  0.2415 -0.4821  0.4168
   68MOL0     H 9341   7.564   5.977   5.890  1.2581 -0.0233  3.1581
   68MOL0     H 9342   7.768   6.229   5.705  0.4766 -0.0713 -0.7443
   68MOL0     H 9343   7.883   6.551   5.574 -1.7829  0.1109  1.4543
   68MOL0     H 9344   7.922   6.395   5.491  0.6645  2.2625  0.0908
   68MOL0     H 9345   7.948   6.405   5.657  0.2503 -0.1605  0.3937
   68MOL0     H 9346   7.434   6.836   5.294 -2.0279  2.7630 -0.1296
   68MOL0     H 9347   7.493   7.047   5.207 -1.6447 -2.3642 -0.8319
   68MOL0     H 9348   7.701   7.348   5.113 -2.7459  3.6353 -1.2672
   68MOL0     H 9349   7.564   7.249   5.161  1.6265  1.2226 -1.9623
   68MOL0     H 9350   7.598   7.316   5.399 -0.8062  3.6674  1.7860
   68MOL0     H 9351   7.708   7.441   5.365 -2.9893  0.6385  3.6132
   68MOL0     H 9352   7.530   7.526   5.187  0.4558 -3.8752 -0.6491
   68MOL0     H 9353   7.523   7.567   5.354  3.5362 -1.3568  0.8890
   68MOL0     H 9354   7.358   7.368   5.384  1.0121 -3.0763 -0.7394
   68MOL0     H 9355   7.375   7.345   5.205 -2.0274  0.2656  0.8317
   68MOL0     H 9356   7.259   7.602   5.323 -1.8211 -1.3567  1.5953
   68MOL0     H 9357   7.287   7.542   5.150 -0.6522  1.8450  0.0359
   68MOL0     H 9358   7.092   7.403   5.333 -0.3930 -1.0943  0.0668
   68MOL0     H 9359   7.102   7.381   5.177  1.3763 -3.0663  2.3246
   68MOL0     H 9360   7.048   7.652   5.297  1.1137  0.1863 -1.6465
   68MOL0     H 9361   6.924   7.533   5.255  0.7208 -1.2577  2.2412
   68MOL0     H 9362   6.952   7.541   5.015  0.3904 -0.0639 -0.4064
   68MOL0     H 9363   7.086   7.652   5.024  0.5167 -0.9873  0.9800
   68MOL0     H 9364   7.877   7.011   5.390  0.8074 -1.7581  0.3760
   68MOL0     H 9365   7.812   6.794   5.473  1.3701 -1.0445 -2.0018
   68MOL0     H 9366   7.412   6.482   5.486  0.6826  2.2307  0.2312
   68MOL0     H 9367   7.355   6.299   5.641  0.4853  0.0347  2.2026
   68MOL0     H 9368   8.247   5.443   6.857  1.6664 -1.4168  1.3225
   68MOL0     H 9369   8.352   5.286   7.008  0.8327 -0.1852  0.3261
   68MOL0     H 9370   8.300   4.997   7.348 -3.1266 -1.1742  3.0479
   68MOL0     H 9371   8.385   4.813   7.470 -3.3639 -0.4913  0.4818
   68MOL0     H 9372   8.552   4.679   7.545 -0.9719  0.2305  1.0983
   68MOL0     H 9373   8.698   4.784   7.538  2.0521  1.5061  4.0410
   68MOL0     H 9374   8.774   4.706   7.753  0.3874 -0.0448  0.6279
   68MOL0     H 9375   8.766   4.571   7.636 -0.4758  1.0335 -1.3451
   68MOL0     H 9376   8.659   4.550   7.886  0.0566  1.8001  0.7313
   68MOL0     H 9377   8.528   4.642   7.824  2.2596  2.8015  1.4371
   68MOL0     H 9378   8.614   4.373   7.716 -1.2365 -2.8289  4.7549
   68MOL0     H 9379   8.483   4.474   7.641 -1.6987  0.0620  0.7572
   68MOL0     H 9380   8.267   4.375   7.955  0.9600  0.1209  1.4942
   68MOL0     H 9381   8.563   5.080   7.751 -1.2237  1.5335 -0.3647
   68MOL0     H 9382   8.368   5.339   7.691  0.9254  3.1565  0.5715
   68MOL0     H 9383   8.510   5.281   7.767  0.3352 -0.4456 -1.1179
   68MOL0     H 9384   8.530   5.369   7.612 -0.0594  0.9134 -0.1177
   69MOL0     O 9385   2.578  10.601   5.224 -0.1043 -0.5543  0.0404
   69MOL0     C 9386   2.515  10.658   5.142 -0.3586 -0.8049 -0.4374
   69MOL0     O 9387   2.567  10.730   5.038  0.2136  0.6324 -0.1627
   69MOL0     C 9388   2.698  10.746   5.017  0.2473 -0.0762 -0.3107
   69MOL0     C 9389   2.733  10.831   4.916  0.1700 -0.3693  0.2407
   69MOL0     C 9390   2.867  10.863   4.883  0.8863 -0.2541 -1.0129
   69MOL0     C 9391   2.971  10.821   4.972  0.6618 -0.0105  0.4886
   69MOL0     O 9392   3.101  10.847   4.942  0.1490 -0.0055 -0.5514
   69MOL0     C 9393   3.142  10.952   4.854  0.1756  0.0940  0.0549
   69MOL0     C 9394   3.295  10.966   4.837  1.2147 -0.4477 -1.0165
   69MOL0     C 9395   3.361  10.836   4.778 -0.6174  1.6063 -0.6127
   69MOL0     C 9396   3.502  10.860   4.730 -0.5879  0.3764  0.5236
   69MOL0     C 9397   3.580  10.732   4.686  0.2592  0.9257  0.1573
   69MOL0     C 9398   3.729  10.775   4.656  0.1169  0.4028 -0.2741
   69MOL0     C 9399   3.811  10.780   4.787  0.8192  0.0285 -0.5820
   69MOL0     C 9400   3.929  10.864   4.756  0.1421  0.4166  0.3259
   69MOL0     N 9401   4.023  10.821   4.652  0.9837  0.4654  0.8195
   69MOL0     C 9402   4.070  10.695   4.640  0.0863 -0.0859  0.3781
   69MOL0     C 9403   4.141  10.689   4.530 -0.3394  0.7133 -0.2238
   69MOL0     C 9404   4.193  10.561   4.467 -0.8833  0.6622  0.0474
   69MOL0     C 9405   4.077  10.517   4.372 -0.5794 -0.4452 -0.1373
   69MOL0     C 9406   4.127  10.424   4.254 -0.0301 -0.1220 -0.4860
   69MOL0     C 9407   4.189  10.298   4.323 -0.0929 -0.5645 -0.2935
   69MOL0     O 9408   4.256  10.229   4.215 -0.0265  0.8996  1.1932
   69MOL0     C 9409   4.367  10.174   4.249 -1.0040  0.4909 -0.3253
   69MOL0     C 9410   4.485  10.257   4.274 -0.0392  0.0021  0.2555
   69MOL0     C 9411   4.600  10.188   4.322  0.1975  0.0157 -0.3865
   69MOL0     C 9412   4.712  10.269   4.382 -1.1466  0.1214  0.4644
   69MOL0     C 9413   4.605  10.047   4.325  0.6582  0.3222  0.2586
   69MOL0     C 9414   4.719   9.959   4.372 -0.2472  0.1190 -0.6663
   69MOL0     O 9415   4.700   9.859   4.468  0.3676  0.4326 -0.3570
   69MOL0     C 9416   4.797   9.782   4.529  1.1736  0.0296  0.5239
   69MOL0     C 9417   4.927   9.821   4.556  0.4104  0.6609 -0.3618
   69MOL0     C 9418   5.001   9.744   4.649  0.0028 -0.4836  0.3242
   69MOL0     C 9419   4.960   9.623   4.688 -0.3208  0.0158  1.4144
   69MOL0     O 9420   5.019   9.542   4.780  0.7139  0.5315 -0.4518
   69MOL0     C 9421   5.144   9.584   4.843 -0.4909  0.1831  0.2373
   69MOL0     C 9422   5.159   9.485   4.956 -0.9053  0.9672  0.2715
   69MOL0     C 9423   5.193   9.550   5.090  0.0899  0.3834 -0.0478
   69MOL0     C 9424   5.216   9.451   5.201 -0.6668 -1.1658 -0.0320
   69MOL0     C 9425   5.302   9.509   5.317  0.5823 -0.6438  0.9688
   69MOL0     C 9426   5.336   9.670   5.318  0.2147 -0.2997 -0.5175
   69MOL0     C 9427   5.406   9.726   5.449  0.1019  0.5749  0.6436
   69MOL0     C 9428   5.394   9.877   5.463 -0.3966 -0.4269  0.1114
   69MOL0    Cl 9429   5.536   9.949   5.541 -0.6794  0.0206  0.1330
   69MOL0     C 9430   4.837   9.571   4.644  0.1859  0.5672  0.9232
   69MOL0     C 9431   4.759   9.651   4.569 -0.3220  0.0391 -0.1853
   69MOL0     O 9432   4.824   9.989   4.321 -0.2490  0.3323 -0.6812
   69MOL0     C 9433   4.492   9.974   4.288 -0.7865 -0.1120  0.4817
   69MOL0     C 9434   4.371  10.036   4.253  0.2714 -0.4400 -0.4253
   69MOL0     N 9435   4.148  10.816   4.478  0.1676 -0.5619  0.2225
   69MOL0     N 9436   4.072  10.892   4.547 -0.3216 -0.1570  0.2483
   69MOL0     C 9437   2.936  10.723   5.066  0.1477 -0.8661  1.0684
   69MOL0     C 9438   2.810  10.686   5.080 -0.8676  1.1201 -0.7576
   69MOL0     C 9439   2.371  10.640   5.131 -0.8877  0.1141  0.2589
   69MOL0     C 9440   2.311  10.706   5.027 -0.7812 -1.4065 -0.7720
   69MOL0     C 9441   2.174  10.707   5.016 -0.3300 -0.1406 -0.9492
   69MOL0     C 9442   2.098  10.620   5.086  0.6372 -0.0509 -0.4883
   69MOL0     O 9443   1.961  10.603   5.088  0.1439  0.5810 -0.6670
   69MOL0     C 9444   1.880  10.679   4.995  0.6447 -0.1223  0.6003
   69MOL0     C 9445   1.739  10.701   5.051 -0.4939 -0.0783  0.4468
   69MOL0     C 9446   1.732  10.820   5.141  0.6697 -0.2018 -0.5771
   69MOL0     C 9447   1.630  10.801   5.251 -0.4426  0.0300 -0.1556
   69MOL0     C 9448   1.601  10.914   5.330 -0.0422 -0.4855  0.2929
   69MOL0     C 9449   1.579  10.996   5.416 -0.2520 -0.3980 -0.6513
   69MOL0     C 9450   2.165  10.548   5.188  0.6459 -0.1718 -0.1080
   69MOL0     C 9451   2.298  10.562   5.220  0.2588  0.9178  0.1790
   69MOL0     C 9452   2.365  10.481   5.344  0.4740  0.3342  0.4291
   69MOL0     H 9453   2.654  10.873   4.855  1.9295  1.7015 -0.7768
   69MOL0     H 9454   2.883  10.924   4.795 -1.5000  1.8518 -0.1011
   69MOL0     H 9455   3.100  11.048   4.887 -2.2184 -1.2931  1.3739
   69MOL0     H 9456   3.102  10.932   4.754  0.8238  1.8515 -0.5786
   69MOL0     H 9457   3.319  11.050   4.772  2.1966  0.3703  0.3365
   69MOL0     H 9458   3.326  10.991   4.939  0.2853  0.9860 -1.0530
   69MOL0     H 9459   3.346  10.748   4.841 -2.1291  1.2813 -1.3655
   69MOL0     H 9460   3.303  10.807   4.689  0.0779  1.2219 -0.9451
   69MOL0     H 9461   3.499  10.924   4.640  2.3282  2.3876  1.7206
   69MOL0     H 9462   3.564  10.911   4.804 -0.7925 -0.0318  0.9778
   69MOL0     H 9463   3.544  10.705   4.587  2.2967  0.5438 -0.5188
   69MOL0     H 9464   3.572  10.650   4.759 -2.0053  1.5777  0.7360
   69MOL0     H 9465   3.766  10.711   4.576  1.0826 -0.0632  0.5260
   69MOL0     H 9466   3.730  10.879   4.620  1.7339  2.0866  3.9129
   69MOL0     H 9467   3.821  10.678   4.825  0.0703 -0.6760 -2.1438
   69MOL0     H 9468   3.757  10.842   4.860 -0.4082  1.6871 -2.7734
   69MOL0     H 9469   3.885  10.963   4.745  0.2740  0.4403  0.0067
   69MOL0     H 9470   3.994  10.860   4.843 -0.4318  3.1360  0.9650
   69MOL0     H 9471   4.034  10.614   4.703 -3.0149  2.4539  2.1607
   69MOL0     H 9472   4.221  10.479   4.533 -1.3726 -1.6055 -2.3778
   69MOL0     H 9473   4.284  10.591   4.414 -0.6983  3.2891  1.6490
   69MOL0     H 9474   3.999  10.467   4.431 -2.0091 -2.7058 -3.6111
   69MOL0     H 9475   4.034  10.607   4.326 -2.4796 -1.9595 -1.5112
   69MOL0     H 9476   4.048  10.390   4.186  0.1721  1.3162 -1.4873
   69MOL0     H 9477   4.204  10.480   4.201  1.4214  1.8721  3.3448
   69MOL0     H 9478   4.265  10.316   4.399  1.6780 -1.1468 -1.8240
   69MOL0     H 9479   4.118  10.234   4.377 -1.8115  0.6394 -1.0522
   69MOL0     H 9480   4.482  10.363   4.255 -1.3473 -0.3259 -1.5990
   69MOL0     H 9481   4.801  10.275   4.318 -1.3169 -1.4582  0.0340
   69MOL0     H 9482   4.758  10.247   4.479  1.8456  0.3820 -0.7761
   69MOL0     H 9483   4.673  10.371   4.389 -0.0620  0.5700  0.1376
   69MOL0     H 9484   4.954   9.921   4.524  1.6046 -0.0029 -1.5000
   69MOL0     H 9485   5.090   9.797   4.680  0.5236 -0.3705 -1.2586
   69MOL0     H 9486   5.215   9.582   4.760 -1.9514 -0.6208 -1.0509
   69MOL0     H 9487   5.125   9.684   4.883  1.5530  0.5997  0.2575
   69MOL0     H 9488   5.060   9.443   4.978 -1.3523  0.3605 -2.5552
   69MOL0     H 9489   5.238   9.416   4.923 -0.4299  1.2321  0.8299
   69MOL0     H 9490   5.122   9.627   5.121 -0.0938 -0.4198  1.6541
   69MOL0     H 9491   5.279   9.612   5.061 -0.1570 -0.1630 -2.0655
   69MOL0     H 9492   5.265   9.363   5.158  2.2245  1.0939 -1.7387
   69MOL0     H 9493   5.111   9.442   5.232 -1.0459  4.4851  1.3652
   69MOL0     H 9494   5.251   9.477   5.409  0.1333 -0.8298  0.6582
   69MOL0     H 9495   5.402   9.467   5.306  0.7757  0.5815 -4.6272
   69MOL0     H 9496   5.247   9.732   5.307  0.8168  0.7582  0.3861
   69MOL0     H 9497   5.407   9.693   5.238  1.6054  3.2515  1.5026
   69MOL0     H 9498   5.510   9.694   5.459  0.3975  0.6148 -1.7539
   69MOL0     H 9499   5.342   9.679   5.524 -4.2723  0.7667 -2.5439
   69MOL0     H 9500   5.313   9.908   5.529 -0.3057 -1.2199  0.6061
   69MOL0     H 9501   5.363   9.916   5.366 -0.5587  1.3339  0.8375
   69MOL0     H 9502   4.804   9.472   4.672  3.4632 -1.2206 -0.8650
   69MOL0     H 9503   4.659   9.622   4.538 -0.5639 -1.8251  2.0043
   69MOL0     H 9504   4.500   9.866   4.277 -1.1525 -0.3575  2.2758
   69MOL0     H 9505   4.284   9.975   4.233 -0.9378  1.0408  0.1186
   69MOL0     H 9506   3.023  10.691   5.123  0.2782  1.8164  2.5596
   69MOL0     H 9507   2.798  10.603   5.149  2.4369  1.1423  0.0042
   69MOL0     H 9508   2.363  10.758   4.948  2.1709  2.2812  3.1383
   69MOL0     H 9509   2.129  10.777   4.946  0.3425  1.9319  0.5813
   69MOL0     H 9510   1.935  10.769   4.967  2.6561 -1.9916 -2.0477
   69MOL0     H 9511   1.870  10.627   4.899 -0.7696  0.5240  0.3727
   69MOL0     H 9512   1.713  10.609   5.105  3.6779 -0.9215  1.3914
   69MOL0     H 9513   1.676  10.714   4.963 -0.0598 -1.0578 -0.0319
   69MOL0     H 9514   1.828  10.837   5.190  0.7828  2.1688 -1.5111
   69MOL0     H 9515   1.711  10.908   5.080 -1.0099  0.1362  0.4262
   69MOL0     H 9516   1.653  10.718   5.319  0.7656 -0.0880 -0.6955
   69MOL0     H 9517   1.539  10.777   5.194  1.5020 -1.5641 -2.7996
   69MOL0     H 9518   1.576  11.086   5.474  3.4607  1.4785 -2.9792
   69MOL0     H 9519   2.113  10.465   5.234  0.1984 -0.8940 -1.8503
   69MOL0     H 9520   2.417  10.399   5.293 -1.3151 -0.1734 -0.6639
   69MOL0     H 9521   2.431  10.543   5.405  0.6503 -0.3593  0.9523
   69MOL0     H 9522   2.296  10.438   5.416 -1.9484  1.7065 -0.9581
   70MOL0     O 9523   9.088   6.341   5.142  0.3112 -0.8263 -0.3362
   70MOL0     C 9524   9.143   6.446   5.162 -0.1171 -0.9873  1.0812
   70MOL0     O 9525   9.240   6.497   5.087 -0.2343 -0.2565  0.3835
   70MOL0     C 9526   9.226   6.488   4.951 -0.3317  0.0754  0.3853
   70MOL0     C 9527   9.105   6.507   4.890  0.4692 -0.0348  0.0448
   70MOL0     C 9528   9.088   6.496   4.751 -1.0822  1.2653 -0.3204
   70MOL0     C 9529   9.195   6.478   4.670  0.2527  0.4439  0.4583
   70MOL0     O 9530   9.180   6.440   4.539 -1.0973  0.9455  0.2619
   70MOL0     C 9531   9.269   6.508   4.448 -0.1993 -0.3933 -0.5460
   70MOL0     C 9532   9.201   6.527   4.307 -0.3267  0.4366 -0.1267
   70MOL0     C 9533   9.315   6.564   4.205  0.4447 -0.4388 -0.5698
   70MOL0     C 9534   9.271   6.619   4.066  0.7248 -0.0321  0.2913
   70MOL0     C 9535   9.398   6.644   3.966 -0.3462 -1.1796 -0.3841
   70MOL0     C 9536   9.343   6.676   3.826 -0.5408 -0.5977 -0.0093
   70MOL0     C 9537   9.468   6.681   3.739  0.7128  0.6990  1.0786
   70MOL0     C 9538   9.447   6.751   3.607  0.2572  0.6045  0.1216
   70MOL0     N 9539   9.460   6.897   3.631  0.3987 -0.3075  0.6428
   70MOL0     C 9540   9.566   6.962   3.599  0.4898 -0.9629  0.5463
   70MOL0     C 9541   9.555   7.077   3.678 -0.1338  0.3556 -0.1854
   70MOL0     C 9542   9.660   7.185   3.682  0.4243  0.6945 -1.0520
   70MOL0     C 9543   9.596   7.321   3.704 -0.3542  0.0926  0.0046
   70MOL0     C 9544   9.545   7.355   3.853 -0.8954  0.0458  0.0051
   70MOL0     C 9545   9.649   7.351   3.964 -0.3735  0.1732  0.2124
   70MOL0     O 9546   9.769   7.418   3.929 -0.3701 -0.1105  0.0834
   70MOL0     C 9547   9.885   7.407   3.993 -0.5917 -0.0047 -0.5717
   70MOL0     C 9548  10.001   7.462   3.930 -0.4548 -0.1099 -0.9899
   70MOL0     C 9549  10.129   7.469   4.000  0.6134 -0.2539  0.6995
   70MOL0     C 9550  10.245   7.543   3.927  0.5281  0.4766 -0.1160
   70MOL0     C 9551  10.133   7.411   4.127  0.7889  0.0219  0.0250
   70MOL0     C 9552  10.245   7.416   4.214  0.6177 -0.2089  0.1809
   70MOL0     O 9553  10.214   7.415   4.349 -0.1071  0.8265 -0.1600
   70MOL0     C 9554  10.306   7.399   4.442 -0.0406  0.0334 -0.0974
   70MOL0     C 9555  10.255   7.376   4.574 -0.2066 -0.1804 -0.1140
   70MOL0     C 9556  10.327   7.354   4.686 -0.3936  0.2272 -0.5100
   70MOL0     C 9557  10.470   7.356   4.672 -0.7822  0.1500 -0.3209
   70MOL0     O 9558  10.560   7.327   4.781  0.3753 -0.5672  0.2154
   70MOL0     C 9559  10.514   7.246   4.889 -0.7141  0.6631 -0.0151
   70MOL0     C 9560  10.605   7.273   5.006 -0.4505  0.9632 -0.6516
   70MOL0     C 9561  10.600   7.417   5.046 -0.6904  0.1308 -0.6707
   70MOL0     C 9562  10.455   7.479   5.056  0.9269  0.3111  0.4899
   70MOL0     C 9563  10.466   7.635   5.091 -0.4968  0.2446  0.6887
   70MOL0     C 9564  10.329   7.691   5.105  0.0304 -0.4001 -0.2895
   70MOL0     C 9565  10.322   7.822   5.191 -0.8047  0.6825 -0.4576
   70MOL0     C 9566  10.189   7.889   5.194  0.1296 -0.0706  0.2723
   70MOL0    Cl 9567  10.058   7.800   5.279 -0.6188 -0.0243 -0.2308
   70MOL0     C 9568  10.518   7.393   4.547 -1.4809  0.6795 -1.0677
   70MOL0     C 9569  10.444   7.417   4.439  0.2556  0.8788  0.5505
   70MOL0     O 9570  10.351   7.403   4.155  0.2143  0.3162 -0.3184
   70MOL0     C 9571  10.013   7.358   4.186 -0.6877  0.7343 -0.1105
   70MOL0     C 9572   9.894   7.351   4.118 -0.6591  1.1043 -0.1476
   70MOL0     N 9573   9.427   7.078   3.734 -0.5606 -0.4949 -0.3082
   70MOL0     N 9574   9.375   6.971   3.707  0.1865  0.2258 -0.0528
   70MOL0     C 9575   9.316   6.464   4.732  0.4704  0.0243  0.3135
   70MOL0     C 9576   9.339   6.477   4.867  0.0184  0.6496  0.0119
   70MOL0     C 9577   9.110   6.527   5.291 -0.3127 -0.4403  0.3179
   70MOL0     C 9578   9.001   6.621   5.287 -0.3581  0.8740  0.0022
   70MOL0     C 9579   8.964   6.689   5.395 -0.2319  0.1150 -0.3606
   70MOL0     C 9580   9.042   6.670   5.519  0.3197 -0.7505  0.1420
   70MOL0     O 9581   8.996   6.746   5.621 -0.5475 -0.4267  0.7305
   70MOL0     C 9582   9.035   6.717   5.752  0.1297  1.3764  0.0524
   70MOL0     C 9583   8.981   6.590   5.804  0.6491  0.5150 -0.3643
   70MOL0     C 9584   8.964   6.586   5.949  0.2007 -0.9384 -0.3748
   70MOL0     C 9585   9.089   6.633   6.030  0.1942  0.5493 -0.3469
   70MOL0     C 9586   9.047   6.656   6.168  0.7094  0.0627 -0.4853
   70MOL0     C 9587   9.018   6.684   6.280 -0.0362 -0.3831  0.2568
   70MOL0     C 9588   9.151   6.581   5.524 -0.8160 -0.0812 -0.1207
   70MOL0     C 9589   9.194   6.519   5.401 -0.9849 -0.6243 -0.7418
   70MOL0     C 9590   9.319   6.423   5.411  0.4892  0.5840 -0.3682
   70MOL0     H 9591   9.011   6.512   4.944 -0.9156 -1.2858 -2.1075
   70MOL0     H 9592   8.987   6.499   4.711 -1.8544 -3.1176  0.8407
   70MOL0     H 9593   9.362   6.451   4.443  0.9492  1.3439 -0.0972
   70MOL0     H 9594   9.295   6.609   4.481 -0.8313 -0.2209 -0.5739
   70MOL0     H 9595   9.152   6.435   4.274 -0.1814 -0.0530  0.9816
   70MOL0     H 9596   9.130   6.611   4.314  0.2415  0.7859  1.9811
   70MOL0     H 9597   9.378   6.647   4.237  1.6361 -1.5475  0.0229
   70MOL0     H 9598   9.383   6.479   4.192  0.2223 -0.6448 -0.3971
   70MOL0     H 9599   9.211   6.540   4.021 -1.2437  1.1048  0.7704
   70MOL0     H 9600   9.204   6.706   4.065  0.7189  0.0103  1.9822
   70MOL0     H 9601   9.455   6.551   3.956 -0.1177 -1.0570 -0.2314
   70MOL0     H 9602   9.465   6.717   4.013 -0.0258 -0.9106 -1.2543
   70MOL0     H 9603   9.275   6.600   3.786 -3.4465  1.9873 -0.3324
   70MOL0     H 9604   9.288   6.770   3.828  1.4656  0.6768  2.9298
   70MOL0     H 9605   9.494   6.576   3.719 -1.6085  0.6612 -2.7917
   70MOL0     H 9606   9.551   6.725   3.794  0.0791 -0.0068  2.6773
   70MOL0     H 9607   9.530   6.723   3.542  1.3525  1.1915  1.2052
   70MOL0     H 9608   9.351   6.715   3.569  1.0587 -3.1098  1.2014
   70MOL0     H 9609   9.653   6.930   3.543  0.1067 -0.8800 -0.0994
   70MOL0     H 9610   9.707   7.185   3.583  1.5472 -0.1287 -0.5407
   70MOL0     H 9611   9.740   7.158   3.752  0.5619 -0.0033 -1.4644
   70MOL0     H 9612   9.669   7.401   3.692 -0.6667  1.1626  3.9720
   70MOL0     H 9613   9.508   7.337   3.641 -0.3627  0.5077  0.1171
   70MOL0     H 9614   9.500   7.454   3.844  0.4744  0.7248  0.3845
   70MOL0     H 9615   9.466   7.283   3.878  1.3063 -1.9622  1.6858
   70MOL0     H 9616   9.601   7.400   4.049 -2.6526  1.6677 -1.7883
   70MOL0     H 9617   9.676   7.249   3.994 -0.9284 -0.2007 -0.5089
   70MOL0     H 9618   9.967   7.512   3.840 -3.2527 -0.0589 -0.0189
   70MOL0     H 9619  10.222   7.614   3.847 -0.1667 -0.3485 -0.6773
   70MOL0     H 9620  10.296   7.458   3.881 -1.7465 -2.2761  2.0654
   70MOL0     H 9621  10.316   7.585   3.999  0.6130 -0.8711  0.6266
   70MOL0     H 9622  10.148   7.364   4.589 -0.0311 -0.6472  0.7780
   70MOL0     H 9623  10.282   7.351   4.785 -1.7811  4.7128 -0.7767
   70MOL0     H 9624  10.412   7.254   4.926  0.3239  2.4968  2.7806
   70MOL0     H 9625  10.527   7.148   4.843 -1.2412  0.8812 -0.6296
   70MOL0     H 9626  10.565   7.211   5.087 -1.8436  2.2150 -0.3380
   70MOL0     H 9627  10.705   7.237   4.984 -0.5885 -1.3221  1.8006
   70MOL0     H 9628  10.657   7.466   4.966 -0.5091 -1.1970 -1.3962
   70MOL0     H 9629  10.656   7.421   5.139 -0.3557  0.8276 -0.8940
   70MOL0     H 9630  10.397   7.421   5.129  1.4257  0.4150  0.9753
   70MOL0     H 9631  10.398   7.474   4.962  1.5703  3.6123 -0.2245
   70MOL0     H 9632  10.514   7.639   5.189  0.6049 -0.4797  0.2014
   70MOL0     H 9633  10.516   7.688   5.010 -1.7979  0.3201 -0.1066
   70MOL0     H 9634  10.258   7.622   5.152 -0.2184  1.6998  2.6692
   70MOL0     H 9635  10.288   7.716   5.007  1.7406 -1.4655 -1.3221
   70MOL0     H 9636  10.398   7.884   5.142  0.2987  0.8502  1.3860
   70MOL0     H 9637  10.358   7.814   5.294 -1.0884  5.7777  0.2781
   70MOL0     H 9638  10.157   7.912   5.092 -0.0206  0.0224  0.3402
   70MOL0     H 9639  10.196   7.990   5.237  2.7362  0.5660 -1.3883
   70MOL0     H 9640  10.626   7.395   4.536 -1.3376 -1.1828 -0.2886
   70MOL0     H 9641  10.488   7.454   4.347 -0.1237  0.4387  0.1878
   70MOL0     H 9642  10.024   7.318   4.287  0.1274 -1.1000 -0.8722
   70MOL0     H 9643   9.820   7.305   4.183  1.9845 -0.6168  1.8409
   70MOL0     H 9644   9.399   6.464   4.662 -0.4510 -0.0784 -0.8186
   70MOL0     H 9645   9.441   6.465   4.903 -0.9829 -2.1182  2.2984
   70MOL0     H 9646   8.963   6.618   5.185  0.7568 -3.0359 -0.4834
   70MOL0     H 9647   8.873   6.747   5.406 -1.1549 -1.6277  2.1392
   70MOL0     H 9648   9.144   6.722   5.751  0.2696 -0.8931  0.2726
   70MOL0     H 9649   8.996   6.801   5.811 -2.7733  0.0159  0.2151
   70MOL0     H 9650   9.036   6.498   5.784 -1.0063 -0.4333 -0.7981
   70MOL0     H 9651   8.884   6.569   5.758  2.2545 -1.5397 -3.0863
   70MOL0     H 9652   8.881   6.652   5.976  0.1523 -0.7166 -1.0448
   70MOL0     H 9653   8.926   6.486   5.974 -1.3405 -0.4919 -0.7947
   70MOL0     H 9654   9.127   6.725   5.985 -1.7460  1.6120  0.0780
   70MOL0     H 9655   9.164   6.553   6.027 -2.9122 -2.8349  2.5552
   70MOL0     H 9656   9.004   6.724   6.378  2.8807 -1.2799  1.1316
   70MOL0     H 9657   9.197   6.553   5.619 -0.0624  0.4873 -0.3056
   70MOL0     H 9658   9.396   6.483   5.362  4.0998 -3.5837 -0.4738
   70MOL0     H 9659   9.349   6.413   5.516 -1.3824 -0.6928  0.1014
   70MOL0     H 9660   9.297   6.325   5.368  2.9522  0.0839 -0.6420
   71MOL0     O 9661   0.700   2.124   0.772 -0.0981 -0.1651  0.0017
   71MOL0     C 9662   0.741   2.193   0.679  0.0339  0.2761  0.6941
   71MOL0     O 9663   0.870   2.206   0.642  0.1721 -0.0456 -0.2496
   71MOL0     C 9664   0.962   2.111   0.684  0.4885 -0.1088 -1.3638
   71MOL0     C 9665   1.094   2.141   0.720  0.1248 -0.6979 -0.2921
   71MOL0     C 9666   1.190   2.040   0.744  0.9226  0.6241 -0.5710
   71MOL0     C 9667   1.155   1.905   0.741  0.2904 -0.4162  0.0546
   71MOL0     O 9668   1.254   1.810   0.753  0.4458 -0.1163  0.7150
   71MOL0     C 9669   1.292   1.753   0.631 -0.5988  0.1829 -0.3746
   71MOL0     C 9670   1.432   1.690   0.653 -1.6132  0.7141 -0.4353
   71MOL0     C 9671   1.552   1.788   0.669 -0.4047 -0.2479 -0.7236
   71MOL0     C 9672   1.568   1.876   0.549 -0.0865  0.3103  0.2436
   71MOL0     C 9673   1.699   1.955   0.533 -0.6860 -0.0924 -0.7279
   71MOL0     C 9674   1.728   2.049   0.651  0.1493  0.3171 -0.2585
   71MOL0     C 9675   1.873   2.100   0.632  0.5877  0.6560  0.0799
   71MOL0     C 9676   1.878   2.211   0.525 -1.0608 -0.3020 -0.0873
   71MOL0     N 9677   2.022   2.248   0.483 -0.0637  0.7123  0.4657
   71MOL0     C 9678   2.114   2.159   0.440 -0.0789  0.0396 -0.2217
   71MOL0     C 9679   2.226   2.231   0.409 -0.0069  0.1293 -0.2193
   71MOL0     C 9680   2.355   2.172   0.368 -0.3499  0.0142  0.6583
   71MOL0     C 9681   2.450   2.149   0.482 -0.0486 -0.1456 -0.4335
   71MOL0     C 9682   2.592   2.118   0.442  1.3901  0.6393 -0.3406
   71MOL0     C 9683   2.599   1.994   0.345 -0.5756 -0.2229 -0.6158
   71MOL0     O 9684   2.528   1.888   0.405 -0.3185  0.1794 -0.0395
   71MOL0     C 9685   2.432   1.819   0.331 -0.5320 -0.0017 -0.0688
   71MOL0     C 9686   2.333   1.771   0.409  0.8261  0.4384  0.8278
   71MOL0     C 9687   2.215   1.705   0.365  1.0736  0.0361  0.4845
   71MOL0     C 9688   2.120   1.645   0.470 -0.8227 -0.7064  0.4093
   71MOL0     C 9689   2.200   1.700   0.220  0.0814 -0.4363 -0.0121
   71MOL0     C 9690   2.085   1.626   0.162 -0.4108 -0.7700  0.0692
   71MOL0     O 9691   2.080   1.603   0.017 -0.2974 -0.4397 -0.6795
   71MOL0     C 9692   1.975   1.537  -0.027 -0.1508  1.2934 -1.4978
   71MOL0     C 9693   1.884   1.600  -0.104 -0.1713  0.1781  0.1087
   71MOL0     C 9694   1.790   1.525  -0.171 -0.7950 -0.0020 -0.7916
   71MOL0     C 9695   1.764   1.391  -0.137 -0.0539 -0.2148 -0.6620
   71MOL0     O 9696   1.668   1.317  -0.181 -0.4898  0.2659 -0.0168
   71MOL0     C 9697   1.589   1.351  -0.291  0.1830 -0.1945  0.9183
   71MOL0     C 9698   1.514   1.222  -0.332  0.4485 -0.3200 -0.3856
   71MOL0     C 9699   1.613   1.124  -0.388  0.1577  1.2606 -0.8931
   71MOL0     C 9700   1.552   0.989  -0.444 -0.7665  0.2790 -0.3035
   71MOL0     C 9701   1.453   1.009  -0.563  0.6205 -0.9595 -0.3459
   71MOL0     C 9702   1.311   0.990  -0.512 -0.7170  0.3173  0.1797
   71MOL0     C 9703   1.194   1.037  -0.602 -0.6816  1.0799 -0.3109
   71MOL0     C 9704   1.063   0.966  -0.545  0.6010  0.4670 -0.5460
   71MOL0    Cl 9705   1.036   0.806  -0.605  0.1012 -0.1672 -0.4510
   71MOL0     C 9706   1.846   1.334  -0.042 -0.0119 -0.0881  0.3440
   71MOL0     C 9707   1.951   1.401   0.015 -0.0978  0.7802  0.8392
   71MOL0     O 9708   1.995   1.595   0.239  0.8276  0.0895  0.3284
   71MOL0     C 9709   2.303   1.757   0.133  0.1409 -0.8874  0.6368
   71MOL0     C 9710   2.413   1.815   0.191 -0.4249 -0.3283  0.3761
   71MOL0     N 9711   2.190   2.367   0.413  0.5542  0.2812 -0.5840
   71MOL0     N 9712   2.069   2.372   0.469 -0.4213 -0.2439  0.4594
   71MOL0     C 9713   1.024   1.877   0.705 -1.0036  1.0353 -0.0054
   71MOL0     C 9714   0.928   1.967   0.682  1.3797  0.8639  0.4081
   71MOL0     C 9715   0.653   2.278   0.594 -0.3271 -0.2897 -0.0313
   71MOL0     C 9716   0.711   2.341   0.485  0.1164 -0.9083  0.2571
   71MOL0     C 9717   0.639   2.415   0.398 -1.0774 -0.2258  0.1708
   71MOL0     C 9718   0.502   2.429   0.414 -0.4216 -0.0472 -0.7064
   71MOL0     O 9719   0.452   2.524   0.333  0.5046  0.4440  0.2348
   71MOL0     C 9720   0.318   2.563   0.330  1.7602 -0.5432 -0.6165
   71MOL0     C 9721   0.311   2.687   0.228 -0.7727  0.1343  0.2619
   71MOL0     C 9722   0.174   2.722   0.164 -0.3027  0.0215  0.2744
   71MOL0     C 9723   0.180   2.866   0.108 -0.0173  1.2597 -0.2676
   71MOL0     C 9724   0.245   2.882  -0.026  0.7083  0.4056  0.2044
   71MOL0     C 9725   0.274   2.887  -0.140  0.8695  0.3547  0.5612
   71MOL0     C 9726   0.442   2.373   0.520  0.2142 -0.4470 -0.3869
   71MOL0     C 9727   0.515   2.297   0.609 -0.7542 -0.9705 -0.7719
   71MOL0     C 9728   0.431   2.236   0.719 -0.5087 -0.6204 -0.0707
   71MOL0     H 9729   1.125   2.245   0.722 -3.3352  0.4680  0.3973
   71MOL0     H 9730   1.288   2.075   0.773 -0.4570  3.5605  1.0435
   71MOL0     H 9731   1.291   1.815   0.541 -0.3468 -0.6933 -0.9959
   71MOL0     H 9732   1.218   1.674   0.616 -0.8173 -0.1322  2.0280
   71MOL0     H 9733   1.431   1.628   0.743 -0.4089 -0.6155 -1.2899
   71MOL0     H 9734   1.449   1.619   0.572 -0.6961  2.1236 -1.5289
   71MOL0     H 9735   1.549   1.828   0.771 -2.0544 -0.1591 -0.7766
   71MOL0     H 9736   1.643   1.727   0.675 -1.3541 -1.6091  2.6568
   71MOL0     H 9737   1.555   1.824   0.454 -1.2414  2.8750 -1.1042
   71MOL0     H 9738   1.493   1.956   0.546  0.0351  0.4044 -1.4481
   71MOL0     H 9739   1.689   2.017   0.443  1.7896 -1.2125 -1.8785
   71MOL0     H 9740   1.778   1.881   0.516  0.0451  0.9763 -2.2599
   71MOL0     H 9741   1.648   2.120   0.675 -1.3109 -1.5970  0.9350
   71MOL0     H 9742   1.729   1.985   0.740 -1.6463 -0.6683 -0.9000
   71MOL0     H 9743   1.941   2.017   0.613 -1.3673 -1.0735  0.3509
   71MOL0     H 9744   1.903   2.134   0.732  1.0736  1.6116 -0.3694
   71MOL0     H 9745   1.821   2.181   0.437 -1.6522 -1.1100  0.5483
   71MOL0     H 9746   1.843   2.307   0.563 -0.2754 -0.8236  2.1127
   71MOL0     H 9747   2.106   2.051   0.443 -0.4354  0.0442 -0.7123
   71MOL0     H 9748   2.406   2.231   0.291 -1.5612  3.3113  2.2132
   71MOL0     H 9749   2.340   2.071   0.330 -0.5437 -0.1146  1.0843
   71MOL0     H 9750   2.447   2.238   0.546  1.3949  0.8328 -1.6653
   71MOL0     H 9751   2.411   2.062   0.537 -3.9007  1.3909 -0.4794
   71MOL0     H 9752   2.651   2.204   0.411  0.9194  1.3939  0.7850
   71MOL0     H 9753   2.630   2.084   0.538 -0.0341  1.0598  0.3965
   71MOL0     H 9754   2.546   2.014   0.251 -0.4416  0.0745 -0.6294
   71MOL0     H 9755   2.701   1.957   0.329 -0.7277 -1.8627  1.6712
   71MOL0     H 9756   2.321   1.795   0.514 -3.1880  2.6137  0.0763
   71MOL0     H 9757   2.096   1.544   0.436  3.1800 -1.3027 -1.2933
   71MOL0     H 9758   2.035   1.705   0.501 -1.0924 -0.2001 -1.2247
   71MOL0     H 9759   2.162   1.637   0.570  2.7661  0.6019 -0.8176
   71MOL0     H 9760   1.891   1.704  -0.134  0.6528 -0.2035 -1.1171
   71MOL0     H 9761   1.726   1.578  -0.240  0.0585  2.7973  0.4184
   71MOL0     H 9762   1.511   1.421  -0.259 -0.3457  0.1343 -0.9697
   71MOL0     H 9763   1.649   1.395  -0.372  1.0744 -0.5897  1.3447
   71MOL0     H 9764   1.477   1.183  -0.236 -0.8741  2.3746  0.2815
   71MOL0     H 9765   1.437   1.243  -0.407  1.5899 -0.5828 -1.6657
   71MOL0     H 9766   1.671   1.102  -0.298 -1.7709  2.0970  0.6123
   71MOL0     H 9767   1.675   1.173  -0.463  2.0132 -1.6030 -1.4095
   71MOL0     H 9768   1.495   0.953  -0.358  2.9544 -0.9282  1.8885
   71MOL0     H 9769   1.634   0.920  -0.468  1.4051  0.7732  4.6132
   71MOL0     H 9770   1.467   1.107  -0.608 -3.9368  0.1118  0.1141
   71MOL0     H 9771   1.469   0.926  -0.633 -0.8574 -1.3492 -0.2559
   71MOL0     H 9772   1.294   1.049  -0.421  2.8013 -1.4452  2.1624
   71MOL0     H 9773   1.301   0.885  -0.484  1.4730  0.0564  0.1660
   71MOL0     H 9774   1.207   1.018  -0.709 -0.0265  0.3013 -0.1031
   71MOL0     H 9775   1.191   1.146  -0.590  2.8609  1.4270 -1.5026
   71MOL0     H 9776   0.976   1.022  -0.581  0.6417  1.5118  0.9347
   71MOL0     H 9777   1.050   0.983  -0.438  0.8686  4.4579 -0.9905
   71MOL0     H 9778   1.833   1.230  -0.011  0.9072  0.0653  1.3172
   71MOL0     H 9779   2.011   1.349   0.090 -1.8175  1.1223  2.5444
   71MOL0     H 9780   2.298   1.749   0.025  4.1363 -0.5411  0.2629
   71MOL0     H 9781   2.474   1.874   0.123 -2.6470  2.2475  0.4757
   71MOL0     H 9782   0.999   1.773   0.686  1.6375 -0.1127  2.0731
   71MOL0     H 9783   0.833   1.921   0.656  1.1444  0.8250  1.2972
   71MOL0     H 9784   0.814   2.341   0.452 -0.4946 -1.6155 -1.8676
   71MOL0     H 9785   0.697   2.466   0.322  3.4814 -1.6024  2.3798
   71MOL0     H 9786   0.238   2.493   0.305 -0.5734  1.2970  1.2158
   71MOL0     H 9787   0.295   2.594   0.433  0.3877 -2.3711 -0.3086
   71MOL0     H 9788   0.372   2.660   0.142 -1.9086 -1.3050 -0.1316
   71MOL0     H 9789   0.342   2.773   0.287 -0.3370 -0.2569  0.6081
   71MOL0     H 9790   0.138   2.647   0.092 -2.0886  0.1100  1.0370
   71MOL0     H 9791   0.104   2.718   0.247  1.7659 -1.0848  2.0717
   71MOL0     H 9792   0.231   2.935   0.176  0.7201 -0.7076  1.2658
   71MOL0     H 9793   0.079   2.903   0.088  0.3724  0.4339 -4.9853
   71MOL0     H 9794   0.297   2.910  -0.242  1.5189  1.0760  0.8575
   71MOL0     H 9795   0.335   2.387   0.533  0.0346  0.3462 -2.4263
   71MOL0     H 9796   0.323   2.244   0.701 -0.3919  2.1757 -0.0550
   71MOL0     H 9797   0.463   2.134   0.741 -0.4917 -0.1367  2.5074
   71MOL0     H 9798   0.440   2.294   0.812  1.0355 -0.0235 -0.5645
   72MOL0     O 9799   6.423   5.463   9.058 -0.7992 -1.4395 -0.0652
   72MOL0     C 9800   6.445   5.585   9.085 -0.0953  0.7565 -0.0932
   72MOL0     O 9801   6.390   5.637   9.199 -0.2573 -0.4418  0.1794
   72MOL0     C 9802   6.277   5.585   9.253  0.0059 -0.5001 -0.4802
   72MOL0     C 9803   6.267   5.545   9.390 -0.2413 -0.8584  0.8791
   72MOL0     C 9804   6.147   5.486   9.437  0.1510 -0.0135 -0.7599
   72MOL0     C 9805   6.029   5.462   9.361 -0.9954  0.3818  0.4470
   72MOL0     O 9806   5.930   5.393   9.426 -0.0371  0.2765 -0.2940
   72MOL0     C 9807   5.815   5.342   9.365  0.6796  0.2540  0.0542
   72MOL0     C 9808   5.716   5.291   9.478 -0.6648 -0.7327 -0.2130
   72MOL0     C 9809   5.578   5.236   9.423  0.0041 -0.6459  0.3321
   72MOL0     C 9810   5.588   5.152   9.300 -0.3428 -0.3363 -0.5919
   72MOL0     C 9811   5.686   5.027   9.312  0.7307  0.8651 -0.1615
   72MOL0     C 9812   5.709   4.952   9.170  0.4187  0.2338 -0.2405
   72MOL0     C 9813   5.620   4.838   9.143  0.5796  0.0025 -0.9144
   72MOL0     C 9814   5.650   4.762   9.010  0.1716  0.1265 -1.0859
   72MOL0     N 9815   5.602   4.620   9.020  0.4936  0.4048  0.1375
   72MOL0     C 9816   5.657   4.507   8.963 -0.1423  0.5667  0.2911
   72MOL0     C 9817   5.579   4.402   8.995 -0.9589  0.7100  0.2847
   72MOL0     C 9818   5.606   4.258   8.953  0.7235  0.2650 -0.2154
   72MOL0     C 9819   5.474   4.181   8.927  0.2762  0.1885  0.4911
   72MOL0     C 9820   5.357   4.261   8.868  0.0935 -0.2054 -0.4606
   72MOL0     C 9821   5.378   4.347   8.738  0.8035 -0.0899  0.3587
   72MOL0     O 9822   5.430   4.275   8.626  0.4076 -0.3569 -0.4650
   72MOL0     C 9823   5.355   4.282   8.511 -0.3311  0.0145  0.3113
   72MOL0     C 9824   5.320   4.400   8.450 -1.0581  0.3679 -1.2072
   72MOL0     C 9825   5.250   4.408   8.337 -0.2154 -0.8780 -1.1511
   72MOL0     C 9826   5.204   4.551   8.290  0.7472  0.5684 -0.6893
   72MOL0     C 9827   5.220   4.291   8.270  0.2069  0.1990 -0.6147
   72MOL0     C 9828   5.144   4.292   8.148 -0.2172 -0.6198  0.8196
   72MOL0     O 9829   5.038   4.204   8.137  0.2636 -0.5199 -0.3100
   72MOL0     C 9830   4.973   4.188   8.014 -0.6099 -0.5343 -0.7445
   72MOL0     C 9831   4.838   4.162   8.027  0.4174 -0.4445 -1.1199
   72MOL0     C 9832   4.755   4.154   7.915  0.3477  1.5266 -0.0128
   72MOL0     C 9833   4.798   4.168   7.789 -0.1824  0.4445  0.1198
   72MOL0     O 9834   4.706   4.159   7.691  0.2540  0.2259  0.4959
   72MOL0     C 9835   4.665   4.288   7.635  0.3563  0.3601 -0.0308
   72MOL0     C 9836   4.510   4.286   7.620  0.6211 -0.3122  0.9090
   72MOL0     C 9837   4.455   4.217   7.499 -0.1427  0.2641  0.4172
   72MOL0     C 9838   4.486   4.314   7.374  0.5821 -0.2780  0.5122
   72MOL0     C 9839   4.385   4.288   7.261  0.2631  0.0167  0.3916
   72MOL0     C 9840   4.397   4.386   7.153 -0.9736  0.1667  0.3098
   72MOL0     C 9841   4.318   4.345   7.030  0.1875 -0.3811 -0.1263
   72MOL0     C 9842   4.349   4.440   6.917  0.1547 -0.1842 -0.0851
   72MOL0    Cl 9843   4.518   4.418   6.850 -0.1716  0.1842 -0.2355
   72MOL0     C 9844   4.938   4.177   7.773 -0.0356 -0.1181  0.1364
   72MOL0     C 9845   5.028   4.188   7.886  0.1573  0.7237  0.6840
   72MOL0     O 9846   5.180   4.373   8.058  0.6500 -0.4066  0.0197
   72MOL0     C 9847   5.261   4.167   8.317  0.3473  0.3927 -0.3585
   72MOL0     C 9848   5.323   4.162   8.439 -0.0780 -0.7128 -0.7245
   72MOL0     N 9849   5.486   4.441   9.087 -0.0331 -0.1765  0.1657
   72MOL0     N 9850   5.508   4.570   9.101 -0.1052  0.0252 -0.6195
   72MOL0     C 9851   6.038   5.510   9.230 -0.3080  2.1115 -0.3709
   72MOL0     C 9852   6.154   5.567   9.180  0.2015 -0.7483  0.2686
   72MOL0     C 9853   6.525   5.672   8.985  0.0011  0.7604  1.7293
   72MOL0     C 9854   6.559   5.606   8.864  0.3267  0.3579 -0.2781
   72MOL0     C 9855   6.617   5.677   8.753 -0.2222 -0.5916 -0.2380
   72MOL0     C 9856   6.660   5.811   8.775  0.1564 -0.0656 -0.3696
   72MOL0     O 9857   6.717   5.885   8.672 -0.4013 -0.2010 -0.8394
   72MOL0     C 9858   6.673   5.864   8.538 -0.0467 -0.7739 -0.5871
   72MOL0     C 9859   6.556   5.956   8.507 -0.3874  0.0820 -0.3361
   72MOL0     C 9860   6.580   6.000   8.360 -0.0794 -0.3363  0.5565
   72MOL0     C 9861   6.446   6.043   8.290  0.3579 -0.6814 -0.1581
   72MOL0     C 9862   6.369   6.141   8.373 -0.6956 -0.0570 -0.1540
   72MOL0     C 9863   6.286   6.190   8.442 -0.1925 -0.0210 -0.7086
   72MOL0     C 9864   6.619   5.874   8.890  0.0763 -0.4908 -0.4457
   72MOL0     C 9865   6.551   5.810   8.996 -0.5025  0.6038  0.3801
   72MOL0     C 9866   6.504   5.898   9.117 -0.5652 -0.2463  0.2703
   72MOL0     H 9867   6.360   5.554   9.446 -0.8455 -0.9543  1.9227
   72MOL0     H 9868   6.145   5.457   9.541  2.4117 -1.2968 -1.0192
   72MOL0     H 9869   5.854   5.261   9.302 -0.8936 -0.2217 -0.3410
   72MOL0     H 9870   5.769   5.412   9.294  0.5407  0.3422  0.2332
   72MOL0     H 9871   5.761   5.208   9.532  1.7371  0.3902 -0.3438
   72MOL0     H 9872   5.694   5.372   9.549 -1.3513 -0.5935 -0.5801
   72MOL0     H 9873   5.514   5.184   9.495 -0.5948 -0.4121 -0.0190
   72MOL0     H 9874   5.520   5.322   9.388  0.1159 -0.4055  0.7307
   72MOL0     H 9875   5.487   5.115   9.278 -1.9108  2.5153  1.1776
   72MOL0     H 9876   5.625   5.227   9.229 -2.4209  1.5149  0.1709
   72MOL0     H 9877   5.657   4.953   9.387  0.2118  0.6425 -0.5801
   72MOL0     H 9878   5.785   5.062   9.344 -0.0173  2.8256  0.0890
   72MOL0     H 9879   5.686   5.026   9.093 -0.0523 -0.2748 -0.6014
   72MOL0     H 9880   5.816   4.928   9.166  0.0954 -1.2086 -2.1247
   72MOL0     H 9881   5.514   4.864   9.146  1.0593  2.1614 -1.1855
   72MOL0     H 9882   5.639   4.772   9.228  4.8053  2.7032  0.6056
   72MOL0     H 9883   5.616   4.816   8.921 -1.3953  3.3488  1.2701
   72MOL0     H 9884   5.759   4.762   9.010  0.3325 -1.0175  2.9321
   72MOL0     H 9885   5.751   4.517   8.909  0.4099 -1.9417  0.6763
   72MOL0     H 9886   5.655   4.207   9.037  0.6120 -0.8038 -0.7852
   72MOL0     H 9887   5.669   4.252   8.864 -1.8239  0.6318 -2.1448
   72MOL0     H 9888   5.488   4.108   8.846 -2.3398  2.1205 -1.9311
   72MOL0     H 9889   5.430   4.126   9.010 -0.3543 -1.1639 -0.6819
   72MOL0     H 9890   5.282   4.190   8.833  1.4394  0.0217 -4.2827
   72MOL0     H 9891   5.323   4.325   8.950 -2.5660 -0.6541 -1.1156
   72MOL0     H 9892   5.284   4.402   8.723  0.6562 -0.1077  1.1874
   72MOL0     H 9893   5.452   4.423   8.764  0.5376  0.3634 -0.1877
   72MOL0     H 9894   5.354   4.485   8.508 -2.1840 -1.8066  3.1419
   72MOL0     H 9895   5.227   4.615   8.376  0.8964  0.7191 -0.8423
   72MOL0     H 9896   5.096   4.553   8.275  0.9930  1.8157 -2.6210
   72MOL0     H 9897   5.269   4.582   8.208  1.9932  0.7047  0.3123
   72MOL0     H 9898   4.788   4.148   8.122  1.8455 -3.0303 -0.6555
   72MOL0     H 9899   4.649   4.143   7.936  0.7725 -0.8448  1.1955
   72MOL0     H 9900   4.692   4.369   7.704 -1.1598 -1.3719  2.8063
   72MOL0     H 9901   4.705   4.306   7.535 -0.3888 -1.3938 -0.6811
   72MOL0     H 9902   4.473   4.244   7.714  2.5890  0.3433  2.0307
   72MOL0     H 9903   4.460   4.382   7.632  0.1112 -0.7655  2.7936
   72MOL0     H 9904   4.350   4.188   7.506  0.0250 -0.6350 -0.5333
   72MOL0     H 9905   4.513   4.126   7.483 -1.7000 -0.6422 -0.1992
   72MOL0     H 9906   4.591   4.289   7.357  1.0012  1.4325  0.4631
   72MOL0     H 9907   4.490   4.419   7.405  1.3794 -0.4194  0.9062
   72MOL0     H 9908   4.402   4.188   7.219  1.6937  0.4231 -0.0625
   72MOL0     H 9909   4.285   4.297   7.305 -1.4023  0.6336 -3.1429
   72MOL0     H 9910   4.500   4.384   7.118 -1.3760  0.3460 -0.9237
   72MOL0     H 9911   4.382   4.491   7.180  2.2027  0.9217 -0.5146
   72MOL0     H 9912   4.211   4.353   7.048  0.3726 -1.2964  1.5264
   72MOL0     H 9913   4.346   4.254   6.976 -1.1598  1.8690 -5.3403
   72MOL0     H 9914   4.354   4.543   6.956 -1.4589  0.5227 -1.6295
   72MOL0     H 9915   4.277   4.428   6.837 -0.0147 -0.4909  0.1115
   72MOL0     H 9916   4.977   4.171   7.671  0.2577 -2.4546  0.3350
   72MOL0     H 9917   5.136   4.181   7.895  0.2003  3.3975  4.2552
   72MOL0     H 9918   5.234   4.078   8.261  0.4336  0.2644 -0.1929
   72MOL0     H 9919   5.336   4.065   8.485  2.1366 -1.7396 -3.2382
   72MOL0     H 9920   5.948   5.491   9.173 -1.1288  0.0603  1.4775
   72MOL0     H 9921   6.157   5.582   9.072  1.4002 -2.4692  0.0175
   72MOL0     H 9922   6.526   5.504   8.848 -0.8527  0.7591 -0.5401
   72MOL0     H 9923   6.638   5.628   8.659  1.6591  0.7306 -0.5541
   72MOL0     H 9924   6.762   5.897   8.484  1.4222 -2.4424  0.6802
   72MOL0     H 9925   6.639   5.767   8.501  0.8480 -1.3532  0.0837
   72MOL0     H 9926   6.564   6.045   8.570 -3.1679  0.4914 -0.4768
   72MOL0     H 9927   6.456   5.913   8.514 -0.5755 -0.3561 -3.8665
   72MOL0     H 9928   6.639   6.092   8.353  0.9239 -1.0646 -2.6203
   72MOL0     H 9929   6.629   5.921   8.301  3.0455  1.6483  0.2752
   72MOL0     H 9930   6.388   5.958   8.254  0.6530 -1.1939  0.5536
   72MOL0     H 9931   6.478   6.089   8.196 -0.8034 -2.3433 -1.4162
   72MOL0     H 9932   6.198   6.224   8.491  0.9343 -0.1434  1.5081
   72MOL0     H 9933   6.647   5.978   8.898  0.1277 -0.6727  3.1709
   72MOL0     H 9934   6.548   5.863   9.211 -0.9305  1.3984  1.0863
   72MOL0     H 9935   6.534   6.003   9.107 -1.9474  0.1470  0.1329
   72MOL0     H 9936   6.397   5.917   9.128 -0.1617  3.0705 -0.3462
   73MOL0     O 9937   3.487   4.895  10.286 -0.0942 -0.2960  0.1522
   73MOL0     C 9938   3.590   4.876  10.227 -0.4748 -0.4160 -0.5112
   73MOL0     O 9939   3.686   4.974  10.209 -0.6893  0.7670 -0.1607
   73MOL0     C 9940   3.693   5.076  10.296  0.6758  0.7345 -0.6396
   73MOL0     C 9941   3.675   5.071  10.436  0.5238 -0.6358 -0.5433
   73MOL0     C 9942   3.671   5.192  10.516 -0.9745 -0.1937  0.3460
   73MOL0     C 9943   3.701   5.309  10.451  0.2327  0.8238 -0.2253
   73MOL0     O 9944   3.680   5.426  10.526 -0.2798 -0.4023  0.7583
   73MOL0     C 9945   3.786   5.428  10.628 -0.3985  0.2496 -0.0101
   73MOL0     C 9946   3.883   5.540  10.584  0.6205  0.6011 -0.0865
   73MOL0     C 9947   3.990   5.581  10.684  0.0057  0.3562 -0.3692
   73MOL0     C 9948   4.064   5.470  10.756 -1.0595  0.0080 -0.1125
   73MOL0     C 9949   4.181   5.527  10.844 -0.2647 -0.3204  0.9117
   73MOL0     C 9950   4.258   5.414  10.928 -0.3017  0.5234  0.1073
   73MOL0     C 9951   4.304   5.480  11.062  0.5170 -0.5217  0.2201
   73MOL0     C 9952   4.400   5.415  11.144 -1.1031  0.4924  0.3288
   73MOL0     N 9953   4.363   5.282  11.191  0.4605 -0.4796  0.4241
   73MOL0     C 9954   4.340   5.267  11.325 -0.9709 -0.0713  0.7267
   73MOL0     C 9955   4.332   5.133  11.335 -0.8708  0.0463 -0.2229
   73MOL0     C 9956   4.326   5.056  11.467  0.1372 -0.5820  0.0055
   73MOL0     C 9957   4.196   5.073  11.540 -0.0082  0.2659  0.1993
   73MOL0     C 9958   4.195   5.006  11.687  0.5100 -0.3665 -0.2214
   73MOL0     C 9959   4.214   4.856  11.689 -0.6775 -0.8586 -0.5857
   73MOL0     O 9960   4.202   4.808  11.824  0.1809 -0.0773  0.0158
   73MOL0     C 9961   4.295   4.841  11.912  0.3240 -0.2064 -0.6005
   73MOL0     C 9962   4.433   4.850  11.894 -0.3579  0.0317 -0.1112
   73MOL0     C 9963   4.509   4.881  12.006  0.2895 -0.6646 -1.4247
   73MOL0     C 9964   4.653   4.917  11.968 -0.8815  0.3014 -0.7909
   73MOL0     C 9965   4.456   4.910  12.136  0.0618  0.1634  0.6208
   73MOL0     C 9966   4.537   4.958  12.250 -0.2891  0.4771 -0.5596
   73MOL0     O 9967   4.525   4.910  12.376  0.7308  0.3084  0.4911
   73MOL0     C 9968   4.562   4.982  12.492 -0.4275  0.9396 -0.6179
   73MOL0     C 9969   4.483   4.949  12.604  0.5596  0.1910  0.9091
   73MOL0     C 9970   4.490   5.029  12.724 -0.1140  0.0660  0.2638
   73MOL0     C 9971   4.575   5.132  12.738 -0.7737 -0.6905 -0.6969
   73MOL0     O 9972   4.579   5.191  12.868  0.4445  0.1831  0.5780
   73MOL0     C 9973   4.666   5.299  12.889 -0.8214 -0.1220  0.9512
   73MOL0     C 9974   4.653   5.341  13.044  1.1144  0.1802 -0.3245
   73MOL0     C 9975   4.500   5.357  13.073  0.4536  0.1980  1.2052
   73MOL0     C 9976   4.479   5.444  13.195  0.0594 -0.6942  0.7200
   73MOL0     C 9977   4.482   5.596  13.166  0.4246  0.2907  0.4105
   73MOL0     C 9978   4.403   5.645  13.041  0.3931  0.0881 -1.4370
   73MOL0     C 9979   4.340   5.790  13.060  0.3873  0.8822  0.8091
   73MOL0     C 9980   4.267   5.831  12.933  0.0946 -0.6443  0.0529
   73MOL0    Cl 9981   4.169   5.709  12.860 -0.2022  0.1928 -0.2732
   73MOL0     C 9982   4.653   5.160  12.630 -0.2695 -0.0737 -0.1320
   73MOL0     C 9983   4.665   5.080  12.511 -0.0479 -0.0252 -0.3534
   73MOL0     O 9984   4.615   5.053  12.217  0.3697 -0.5286  0.1696
   73MOL0     C 9985   4.324   4.900  12.152 -0.4786 -0.3524 -0.2627
   73MOL0     C 9986   4.243   4.868  12.044 -0.8261  0.9488 -0.2752
   73MOL0     N 9987   4.338   5.067  11.212 -0.5036  0.0466 -0.6491
   73MOL0     N 9988   4.351   5.162  11.126 -0.6132 -0.4475 -0.0216
   73MOL0     C 9989   3.710   5.308  10.311 -0.1602  0.0610 -1.0090
   73MOL0     C 9990   3.720   5.193  10.232  0.6947 -0.3239  0.1734
   73MOL0     C 9991   3.613   4.747  10.175  0.8096  0.3693  0.4261
   73MOL0     C 9992   3.667   4.737  10.046  0.1413  0.9703 -0.1688
   73MOL0     C 9993   3.733   4.623   9.993 -0.0640 -0.0038 -0.4907
   73MOL0     C 9994   3.716   4.506  10.065  1.1857  0.0468  0.4448
   73MOL0     O 9995   3.769   4.385  10.030 -0.1632  0.3942 -0.3341
   73MOL0     C 9996   3.895   4.383   9.958 -0.3282  0.0501  0.0568
   73MOL0     C 9997   3.882   4.372   9.805 -0.7004  0.6372  0.5505
   73MOL0     C 9998   3.817   4.249   9.744  0.0627 -1.1017  1.2507
   73MOL0     C 9999   3.900   4.125   9.768 -0.9437 -0.8601  0.1593
   73MOL0     C10000   3.875   4.067   9.905  0.2838  0.1816 -0.5912
   73MOL0     C10001   3.853   4.020  10.009  0.5484  0.7842 -0.1542
   73MOL0     C10002   3.631   4.497  10.179 -1.1523 -0.1915 -0.1779
   73MOL0     C10003   3.583   4.620  10.237  1.0415 -0.2909 -0.6268
   73MOL0     C10004   3.497   4.615  10.355 -0.4279 -0.8649 -0.9436
   73MOL0     H10005   3.645   4.987  10.498  3.6953 -1.8010 -0.4206
   73MOL0     H10006   3.631   5.194  10.617 -3.6343  1.2134 -0.6328
   73MOL0     H10007   3.851   5.340  10.630 -3.3271 -2.0643  1.7148
   73MOL0     H10008   3.750   5.465  10.724 -0.6798 -0.2851  0.0963
   73MOL0     H10009   3.933   5.501  10.494 -0.3305 -1.5592  0.2581
   73MOL0     H10010   3.837   5.634  10.555  1.4949  1.1656  0.3160
   73MOL0     H10011   4.062   5.636  10.623  2.5651 -5.7873 -3.8165
   73MOL0     H10012   3.948   5.655  10.752  1.6638  0.0714  1.0402
   73MOL0     H10013   3.996   5.412  10.820 -0.6537 -0.0037  0.3134
   73MOL0     H10014   4.108   5.392  10.693 -0.7335 -0.1845  0.3507
   73MOL0     H10015   4.136   5.600  10.912 -0.4583  0.4626 -0.0311
   73MOL0     H10016   4.245   5.594  10.786 -1.6199  1.4365  1.3491
   73MOL0     H10017   4.196   5.326  10.946 -0.2642 -0.4126 -3.6291
   73MOL0     H10018   4.343   5.381  10.868 -0.8047  0.6056 -0.6685
   73MOL0     H10019   4.215   5.484  11.125  1.2978 -1.0075  1.3857
   73MOL0     H10020   4.356   5.575  11.046  2.8552 -1.2011  2.8672
   73MOL0     H10021   4.486   5.407  11.077  0.1845 -0.2280  1.9971
   73MOL0     H10022   4.442   5.474  11.226 -0.5118  1.2776 -0.5201
   73MOL0     H10023   4.336   5.343  11.403  1.1214  0.2147  0.6272
   73MOL0     H10024   4.406   5.097  11.529 -2.5617  2.2614  1.8698
   73MOL0     H10025   4.346   4.949  11.450  2.0052 -0.1234 -0.8679
   73MOL0     H10026   4.188   5.182  11.550  5.2215  0.8114  1.5463
   73MOL0     H10027   4.113   5.036  11.480  0.2028 -2.6920  1.5717
   73MOL0     H10028   4.262   5.063  11.752  2.2054 -0.0535 -2.1516
   73MOL0     H10029   4.090   5.008  11.715  1.0119  0.5427  1.8260
   73MOL0     H10030   4.147   4.794  11.630 -1.2426 -1.2421  0.4384
   73MOL0     H10031   4.313   4.831  11.649 -0.9680 -0.4109 -1.6066
   73MOL0     H10032   4.474   4.835  11.794  0.8023 -0.3809  0.4178
   73MOL0     H10033   4.684   4.900  11.864  1.3517 -1.6923  0.1128
   73MOL0     H10034   4.727   4.872  12.035  0.4099  3.6367  0.2690
   73MOL0     H10035   4.669   5.024  11.986 -1.4181  0.5881 -1.8868
   73MOL0     H10036   4.393   4.890  12.586  0.5710 -0.4623  2.7793
   73MOL0     H10037   4.402   5.019  12.786 -0.8945 -2.1365 -1.0994
   73MOL0     H10038   4.771   5.278  12.866 -0.6791  0.7485  0.7615
   73MOL0     H10039   4.632   5.379  12.822  0.8492  1.1551  1.5501
   73MOL0     H10040   4.692   5.271  13.119 -1.2725 -1.3339 -0.3829
   73MOL0     H10041   4.697   5.437  13.070 -1.7893  0.8365  2.8209
   73MOL0     H10042   4.456   5.260  13.097  3.5378 -1.9561 -0.9904
   73MOL0     H10043   4.445   5.389  12.984 -2.4729 -0.8959  2.4980
   73MOL0     H10044   4.543   5.412  13.278 -0.6437 -1.8598  0.8458
   73MOL0     H10045   4.374   5.431  13.225 -0.2412  1.0765  0.5168
   73MOL0     H10046   4.432   5.640  13.253 -0.2153  0.1613  0.1139
   73MOL0     H10047   4.587   5.626  13.163  1.3497 -2.3015  2.4861
   73MOL0     H10048   4.318   5.577  13.034  1.3506 -1.3631  0.1706
   73MOL0     H10049   4.466   5.642  12.952 -0.5525 -3.0761 -2.1440
   73MOL0     H10050   4.422   5.861  13.079  1.2157 -0.4664  2.5878
   73MOL0     H10051   4.265   5.780  13.139 -1.5128  0.3806 -0.9900
   73MOL0     H10052   4.352   5.842  12.866 -1.5684 -3.4587 -2.8291
   73MOL0     H10053   4.215   5.927  12.936  2.0465  0.4768 -0.2476
   73MOL0     H10054   4.723   5.243  12.629 -0.4821  0.1454 -2.3380
   73MOL0     H10055   4.731   5.116  12.433 -1.7888  0.1218 -1.8123
   73MOL0     H10056   4.284   4.924  12.250  1.2868  0.8982  0.1916
   73MOL0     H10057   4.137   4.848  12.054  0.0339 -3.6482  2.8778
   73MOL0     H10058   3.716   5.405  10.262  0.4150 -0.2227 -1.5113
   73MOL0     H10059   3.739   5.201  10.126  1.5136  0.0387  0.3345
   73MOL0     H10060   3.664   4.821   9.977 -0.0579 -0.4581 -1.9663
   73MOL0     H10061   3.793   4.621   9.903  0.1763 -0.2266 -0.3290
   73MOL0     H10062   3.951   4.477   9.971  0.6918 -0.3380 -1.2350
   73MOL0     H10063   3.971   4.315   9.999 -1.8740 -0.4294  2.2869
   73MOL0     H10064   3.978   4.382   9.752 -1.9321 -0.9185 -2.1622
   73MOL0     H10065   3.832   4.467   9.786 -0.0840  1.3192  2.1126
   73MOL0     H10066   3.718   4.253   9.790  0.9667 -1.1194  3.2797
   73MOL0     H10067   3.807   4.272   9.637 -2.1182  1.6501  1.9494
   73MOL0     H10068   4.006   4.143   9.747 -1.4777  3.3540  0.2085
   73MOL0     H10069   3.865   4.053   9.695 -0.7242  1.7596 -2.7247
   73MOL0     H10070   3.831   3.948  10.084  0.8842 -0.6050 -1.3423
   73MOL0     H10071   3.609   4.404  10.229  2.3755 -0.7887  0.4740
   73MOL0     H10072   3.398   4.660  10.350 -0.9245 -1.7125  0.5387
   73MOL0     H10073   3.491   4.517  10.403 -0.1280 -0.2648  0.3682
   73MOL0     H10074   3.556   4.676  10.424 -3.3937 -0.6233  1.6102
   74MOL0     O10075   0.031   5.533  10.940  0.0144  0.0400 -0.0119
   74MOL0     C10076   0.063   5.436  11.011  0.7294  0.3047  1.5885
   74MOL0     O10077  -0.019   5.369  11.098  0.1189  0.4546  0.0714
   74MOL0     C10078  -0.158   5.370  11.087  0.0869 -1.1659  0.2230
   74MOL0     C10079  -0.230   5.323  11.195 -0.3247 -0.0939  0.3459
   74MOL0     C10080  -0.374   5.332  11.205 -0.3293  0.0457  0.6869
   74MOL0     C10081  -0.446   5.364  11.091  0.4125 -0.4165 -0.2003
   74MOL0     O10082  -0.581   5.355  11.082 -0.4515 -0.5026  0.9384
   74MOL0     C10083  -0.657   5.471  11.133 -0.0929 -0.4082  0.5118
   74MOL0     C10084  -0.800   5.437  11.123 -0.5316  0.1589  0.5334
   74MOL0     C10085  -0.851   5.365  11.249  0.4196 -0.6129  0.1876
   74MOL0     C10086  -1.004   5.341  11.245  0.7686 -0.1414  0.7607
   74MOL0     C10087  -1.045   5.230  11.147 -0.2787  0.8413  0.2003
   74MOL0     C10088  -1.190   5.235  11.098  1.0048  0.6323 -0.8900
   74MOL0     C10089  -1.205   5.124  10.994  0.4631  0.9747  0.0539
   74MOL0     C10090  -1.349   5.139  10.935 -0.4478  0.0550  0.3493
   74MOL0     N10091  -1.435   5.055  11.020 -0.4112  0.2486  0.4901
   74MOL0     C10092  -1.495   4.934  10.991 -0.0086 -0.5028  0.3338
   74MOL0     C10093  -1.548   4.889  11.113  0.1929 -0.7359 -0.8132
   74MOL0     C10094  -1.627   4.760  11.133  0.0271  0.3754 -0.3161
   74MOL0     C10095  -1.565   4.636  11.055  0.5093  0.2054 -0.8172
   74MOL0     C10096  -1.620   4.504  11.121  0.3196 -0.3290 -0.4097
   74MOL0     C10097  -1.769   4.491  11.080  0.5959  0.4687  1.6159
   74MOL0     O10098  -1.810   4.358  11.101  0.4338  0.4238  0.3276
   74MOL0     C10099  -1.935   4.329  11.047  0.5106 -0.9394  1.1684
   74MOL0     C10100  -1.949   4.202  11.014 -0.0824  0.4253  0.2673
   74MOL0     C10101  -2.049   4.150  10.930 -0.4409 -0.3400  0.9349
   74MOL0     C10102  -2.037   4.012  10.884 -0.0479 -0.1966 -0.0492
   74MOL0     C10103  -2.161   4.224  10.919  0.1511  0.3659  0.1504
   74MOL0     C10104  -2.290   4.184  10.864  0.6456 -0.0844  0.3766
   74MOL0     O10105  -2.374   4.283  10.824 -0.2370  0.0598 -0.0787
   74MOL0     C10106  -2.500   4.247  10.791  0.4977 -1.1867 -0.1969
   74MOL0     C10107  -2.612   4.281  10.875  0.5995 -0.3534  0.7137
   74MOL0     C10108  -2.748   4.238  10.848  0.8546 -0.1275  0.6050
   74MOL0     C10109  -2.764   4.149  10.743  0.1749  0.2824 -0.5928
   74MOL0     O10110  -2.890   4.104  10.725  0.3454  0.4538  0.4807
   74MOL0     C10111  -2.925   3.996  10.816  0.9085  0.3649 -0.3385
   74MOL0     C10112  -3.057   3.924  10.766 -0.6294 -0.5536 -0.7222
   74MOL0     C10113  -3.040   3.788  10.692 -0.6574 -0.6684  0.7242
   74MOL0     C10114  -2.972   3.811  10.554 -0.2610  0.0184  0.5056
   74MOL0     C10115  -2.980   3.678  10.468 -0.1839 -0.3700 -1.1139
   74MOL0     C10116  -2.910   3.673  10.331  0.2717  0.5553  0.7011
   74MOL0     C10117  -2.761   3.714  10.349 -1.0098 -0.7782 -0.5721
   74MOL0     C10118  -2.738   3.858  10.309  0.2945 -0.2532  0.5998
   74MOL0    Cl10119  -2.564   3.875  10.274  0.1705 -0.5761  0.0350
   74MOL0     C10120  -2.658   4.127  10.652 -0.5979  0.2443 -0.6871
   74MOL0     C10121  -2.526   4.171  10.671 -0.6379  0.0791 -0.1802
   74MOL0     O10122  -2.311   4.063  10.856 -0.4489 -0.8077  0.0684
   74MOL0     C10123  -2.152   4.365  10.957  0.5410 -0.1745 -0.4052
   74MOL0     C10124  -2.044   4.422  11.020  0.2513 -0.2568 -0.5750
   74MOL0     N10125  -1.528   4.990  11.205  0.0870  0.5212  0.7099
   74MOL0     N10126  -1.462   5.091  11.149  0.0973 -0.2219  0.0985
   74MOL0     C10127  -0.382   5.404  10.979  0.5330 -0.0375  0.4212
   74MOL0     C10128  -0.244   5.406  10.978  0.6950 -0.1950  1.5495
   74MOL0     C10129   0.214   5.405  11.008  0.5014  0.3813 -0.5715
   74MOL0     C10130   0.264   5.336  11.119  0.4396  0.7891 -0.7582
   74MOL0     C10131   0.384   5.268  11.114  0.1729  0.2209 -0.7434
   74MOL0     C10132   0.473   5.297  11.005  0.3893 -0.1641  0.1731
   74MOL0     O10133   0.586   5.221  11.000  0.5493  0.0121  0.0913
   74MOL0     C10134   0.657   5.232  10.875 -0.5463 -0.3257 -1.1254
   74MOL0     C10135   0.583   5.173  10.754  0.4252 -0.0143  0.4771
   74MOL0     C10136   0.637   5.242  10.625 -0.3623  1.4287 -1.0665
   74MOL0     C10137   0.589   5.157  10.504  0.6745 -0.3262  0.1845
   74MOL0     C10138   0.434   5.165  10.472 -0.6547 -0.1494  0.0410
   74MOL0     C10139   0.314   5.167  10.448  0.0711  0.3622  0.9283
   74MOL0     C10140   0.426   5.389  10.904 -0.1176  0.2213  0.1666
   74MOL0     C10141   0.296   5.434  10.899 -0.2446  0.0477 -0.1666
   74MOL0     C10142   0.245   5.507  10.773 -0.1902  0.7370  1.1211
   74MOL0     H10143  -0.171   5.287  11.279 -2.7665 -1.0652  1.7398
   74MOL0     H10144  -0.420   5.304  11.299 -0.2682 -0.6811  0.5040
   74MOL0     H10145  -0.654   5.557  11.065  0.4259  0.6013  1.7737
   74MOL0     H10146  -0.630   5.502  11.234 -1.3076  0.3821  0.6138
   74MOL0     H10147  -0.844   5.537  11.117  0.3672  0.6340  1.5053
   74MOL0     H10148  -0.833   5.378  11.037  0.2508  0.1055  0.2638
   74MOL0     H10149  -0.791   5.274  11.257  2.4940  0.6338 -0.3265
   74MOL0     H10150  -0.831   5.420  11.342 -2.6005 -1.6271  1.5601
   74MOL0     H10151  -1.049   5.308  11.339 -0.0764  1.5747  0.9980
   74MOL0     H10152  -1.065   5.422  11.205  0.7761 -0.8206 -0.6959
   74MOL0     H10153  -1.025   5.133  11.193  1.0024  1.4123  0.9100
   74MOL0     H10154  -0.981   5.236  11.059  3.1929 -1.1928  2.3625
   74MOL0     H10155  -1.248   5.216  11.189  3.6314 -1.0018  0.5890
   74MOL0     H10156  -1.215   5.333  11.057 -1.5889  0.9294  1.0994
   74MOL0     H10157  -1.199   5.022  11.033  0.2508  0.7937 -0.3761
   74MOL0     H10158  -1.130   5.150  10.919  0.3575  1.6427  0.1754
   74MOL0     H10159  -1.390   5.240  10.927  1.0790  0.7625  0.9293
   74MOL0     H10160  -1.344   5.100  10.833  0.4627  0.5085  0.2085
   74MOL0     H10161  -1.502   4.880  10.897 -2.4666 -0.1476  0.2348
   74MOL0     H10162  -1.731   4.772  11.100 -0.6039 -3.1234  0.0115
   74MOL0     H10163  -1.621   4.736  11.239  0.3572 -3.6478 -1.1015
   74MOL0     H10164  -1.598   4.636  10.950  1.2158  1.6816 -1.0616
   74MOL0     H10165  -1.458   4.623  11.072  0.1894 -1.1763  0.3357
   74MOL0     H10166  -1.544   4.428  11.099 -0.5018 -2.8817  4.1310
   74MOL0     H10167  -1.605   4.502  11.230 -3.6331  0.4682  0.2848
   74MOL0     H10168  -1.835   4.548  11.146 -1.1414  2.7601 -1.7904
   74MOL0     H10169  -1.790   4.511  10.975 -1.5038  1.5268  2.1732
   74MOL0     H10170  -1.869   4.134  11.040 -0.4718 -0.9762 -1.9609
   74MOL0     H10171  -1.931   3.987  10.881 -0.3682 -1.7275  0.5443
   74MOL0     H10172  -2.068   3.987  10.783 -1.3850  3.7757 -0.8155
   74MOL0     H10173  -2.082   3.946  10.959  3.5980 -1.7064  1.0223
   74MOL0     H10174  -2.600   4.346  10.961  2.0133 -1.5371  1.4583
   74MOL0     H10175  -2.839   4.271  10.897  0.9574  2.4175 -0.7369
   74MOL0     H10176  -2.859   3.909  10.814 -3.5449 -3.7526  3.9108
   74MOL0     H10177  -2.921   4.030  10.920  0.3052  1.2638 -0.5968
   74MOL0     H10178  -3.114   3.904  10.857  0.7148 -1.6121 -0.0678
   74MOL0     H10179  -3.113   4.002  10.714 -0.0160  0.1723 -0.3232
   74MOL0     H10180  -3.139   3.746  10.672 -0.1154 -2.5671  1.7872
   74MOL0     H10181  -2.988   3.715  10.756 -3.4063 -3.8986 -0.4549
   74MOL0     H10182  -2.866   3.837  10.559 -0.8133  2.8252 -0.5966
   74MOL0     H10183  -3.016   3.891  10.495  1.6044  2.4549  2.2091
   74MOL0     H10184  -2.957   3.589  10.527  0.6969  0.4409 -0.2092
   74MOL0     H10185  -3.085   3.669  10.437  0.8475  1.4652 -6.1843
   74MOL0     H10186  -2.963   3.730  10.254 -2.9650 -2.0720  0.7530
   74MOL0     H10187  -2.911   3.570  10.294 -0.9629  1.6381 -2.6248
   74MOL0     H10188  -2.701   3.644  10.290  2.2221  2.3641 -1.3577
   74MOL0     H10189  -2.723   3.712  10.451  0.1300  0.0971 -0.9584
   74MOL0     H10190  -2.797   3.924  10.374 -1.7841 -0.2024 -1.2599
   74MOL0     H10191  -2.774   3.876  10.208  2.3596 -0.6942 -0.2545
   74MOL0     H10192  -2.673   4.056  10.571  0.1769  0.9990 -1.5205
   74MOL0     H10193  -2.441   4.140  10.612  1.5220  0.7412  2.3911
   74MOL0     H10194  -2.245   4.421  10.948 -2.4704 -4.9035 -2.9369
   74MOL0     H10195  -2.040   4.525  11.054  0.3760  0.3048 -2.2023
   74MOL0     H10196  -0.437   5.435  10.891  0.8115 -0.9361 -0.0733
   74MOL0     H10197  -0.202   5.444  10.885  0.3695 -3.0869  0.1198
   74MOL0     H10198   0.206   5.312  11.207 -0.2710  3.6064 -0.3494
   74MOL0     H10199   0.410   5.196  11.191 -0.5134 -1.2218 -1.8119
   74MOL0     H10200   0.681   5.336  10.853  1.7926 -0.6792 -0.4949
   74MOL0     H10201   0.751   5.177  10.873  0.2345  0.9856 -1.5289
   74MOL0     H10202   0.475   5.181  10.772  0.3680  0.2924  0.0096
   74MOL0     H10203   0.601   5.065  10.750  2.8557  0.2972  1.5393
   74MOL0     H10204   0.595   5.343  10.623  0.4583  1.8173  0.1074
   74MOL0     H10205   0.746   5.251  10.635 -0.5508  1.1920  2.5931
   74MOL0     H10206   0.610   5.054  10.535 -0.4601 -0.6592 -0.0774
   74MOL0     H10207   0.650   5.192  10.420 -0.5437  1.9723  0.1858
   74MOL0     H10208   0.214   5.175  10.411  1.1775  4.0552 -1.8237
   74MOL0     H10209   0.489   5.408  10.818 -0.0166 -1.4756 -0.1673
   74MOL0     H10210   0.147   5.479  10.734 -1.2413  1.5637  3.0643
   74MOL0     H10211   0.229   5.613  10.797  0.3946  0.6168  2.0929
   74MOL0     H10212   0.310   5.500  10.685 -3.5492 -1.9293 -1.4146
   75MOL0     O10213   0.023   2.143  11.234  0.7376  0.4580 -0.5963
   75MOL0     C10214   0.110   2.197  11.292 -0.8266  0.3088 -1.1147
   75MOL0     O10215   0.248   2.167  11.282  0.7078 -0.0286  0.6053
   75MOL0     C10216   0.272   2.045  11.226  0.3781 -0.7332  0.7298
   75MOL0     C10217   0.288   2.035  11.088 -1.0734  0.0760 -0.1873
   75MOL0     C10218   0.324   1.913  11.035  0.3169  0.4236  0.0467
   75MOL0     C10219   0.354   1.803  11.115 -0.0012  0.1863 -0.0014
   75MOL0     O10220   0.393   1.688  11.054 -0.0540  0.3916  0.5385
   75MOL0     C10221   0.492   1.609  11.115  0.1112 -0.4325 -0.3417
   75MOL0     C10222   0.536   1.492  11.031 -0.1808  0.6701  0.7836
   75MOL0     C10223   0.421   1.387  10.997  0.4767  0.2158 -0.3540
   75MOL0     C10224   0.470   1.247  10.975  1.2419  0.7580  0.0783
   75MOL0     C10225   0.359   1.151  10.922  0.2752  0.0964  0.1654
   75MOL0     C10226   0.331   1.147  10.768  0.0717  0.0531  0.4274
   75MOL0     C10227   0.241   1.030  10.737 -0.8182 -1.0515  0.1010
   75MOL0     C10228   0.193   1.024  10.591 -0.3486  0.0147  0.8618
   75MOL0     N10229   0.072   1.103  10.543 -0.0688  0.4851 -0.7703
   75MOL0     C10230   0.034   1.232  10.580 -0.4842  0.0954  1.1729
   75MOL0     C10231  -0.098   1.245  10.548 -0.2683 -1.1982  0.0441
   75MOL0     C10232  -0.186   1.371  10.569 -0.6278 -0.1665  0.9516
   75MOL0     C10233  -0.147   1.484  10.477 -0.1214 -0.3862  0.4333
   75MOL0     C10234  -0.262   1.571  10.426  0.7347  0.7144  0.1725
   75MOL0     C10235  -0.235   1.686  10.335 -0.8354  0.1779  0.1124
   75MOL0     O10236  -0.097   1.727  10.344  0.4400  0.7290  0.6785
   75MOL0     C10237  -0.049   1.827  10.261  0.3457 -0.2012 -0.0531
   75MOL0     C10238  -0.117   1.901  10.168  0.1002 -0.5712 -0.3840
   75MOL0     C10239  -0.051   1.994  10.093  0.3814  0.2742 -1.4910
   75MOL0     C10240  -0.143   2.063   9.999  0.1114  0.1989 -0.5465
   75MOL0     C10241   0.085   2.017  10.113 -0.3688 -0.6072  0.6077
   75MOL0     C10242   0.156   2.126  10.039  0.3004 -0.0854 -0.1911
   75MOL0     O10243   0.287   2.099  10.005  0.0807 -0.7706  0.4712
   75MOL0     C10244   0.360   2.222  10.010  0.0854  0.0256 -0.2258
   75MOL0     C10245   0.462   2.230   9.918  0.4556  0.5300 -0.4796
   75MOL0     C10246   0.537   2.348   9.897 -0.3948 -0.5936 -1.3875
   75MOL0     C10247   0.498   2.473   9.963 -0.3555  0.4348 -0.3933
   75MOL0     O10248   0.546   2.598   9.952 -1.2406  0.5393  0.2021
   75MOL0     C10249   0.582   2.647   9.829  0.8936 -1.0012  0.1281
   75MOL0     C10250   0.650   2.791   9.842 -0.2128 -0.0456  0.6264
   75MOL0     C10251   0.711   2.843   9.707  0.5827 -0.2356 -1.0817
   75MOL0     C10252   0.859   2.814   9.709  0.0236 -0.3275  0.7884
   75MOL0     C10253   0.934   2.898   9.600 -0.1703 -0.2362 -0.2029
   75MOL0     C10254   1.087   2.893   9.608  0.6376  0.4052 -0.6037
   75MOL0     C10255   1.155   2.924   9.465  0.5846  0.1108 -1.4286
   75MOL0     C10256   1.299   2.956   9.462 -0.4806  0.9946  0.2391
   75MOL0    Cl10257   1.355   3.072   9.592  0.0314 -0.3561 -0.3878
   75MOL0     C10258   0.397   2.459  10.072  0.2022  0.4535  0.5187
   75MOL0     C10259   0.328   2.334  10.085  0.1232  0.5937  0.0944
   75MOL0     O10260   0.086   2.229  10.014  0.1493  0.1897 -0.1585
   75MOL0     C10261   0.155   1.952  10.219 -0.3500  0.1550  1.5413
   75MOL0     C10262   0.086   1.862  10.290  0.2413 -0.7031  0.2024
   75MOL0     N10263  -0.140   1.130  10.490  0.2357  0.3370  0.0176
   75MOL0     N10264  -0.040   1.043  10.480  0.1240  0.3098  0.1172
   75MOL0     C10265   0.326   1.805  11.247  0.6511  0.5705 -0.1367
   75MOL0     C10266   0.287   1.929  11.304  0.3955 -1.3992 -0.8679
   75MOL0     C10267   0.057   2.301  11.389  0.1537  0.0075  0.5960
   75MOL0     C10268   0.087   2.286  11.515 -0.9695  1.3808 -0.4243
   75MOL0     C10269   0.040   2.378  11.609 -0.8496  0.2712 -0.4521
   75MOL0     C10270  -0.057   2.474  11.571  0.1065 -0.1634 -0.5293
   75MOL0     O10271  -0.120   2.547  11.671 -0.4417  0.4977 -0.3703
   75MOL0     C10272  -0.256   2.501  11.696  0.5175  0.2263 -0.2729
   75MOL0     C10273  -0.289   2.534  11.845  0.1476 -0.7768  0.7933
   75MOL0     C10274  -0.177   2.490  11.945  0.2269 -0.0302 -0.2243
   75MOL0     C10275  -0.218   2.545  12.085  0.1295 -0.4056 -0.6631
   75MOL0     C10276  -0.099   2.535  12.177  1.0739 -0.1518  0.8187
   75MOL0     C10277  -0.034   2.537  12.285 -0.3535 -0.1999  0.4366
   75MOL0     C10278  -0.092   2.491  11.439  0.3191 -0.0688  0.1828
   75MOL0     C10279  -0.027   2.407  11.346  0.0280 -0.6570  0.3361
   75MOL0     C10280  -0.041   2.441  11.193 -0.1842  0.4148  0.0895
   75MOL0     H10281   0.266   2.117  11.020 -2.8785 -0.7839 -0.6946
   75MOL0     H10282   0.357   1.898  10.933  1.3331 -0.3997  0.4878
   75MOL0     H10283   0.462   1.576  11.215  0.7997 -0.7908 -0.2441
   75MOL0     H10284   0.573   1.680  11.134  1.4510 -2.6350  3.0761
   75MOL0     H10285   0.572   1.536  10.937  0.1439 -0.1168  0.5372
   75MOL0     H10286   0.620   1.441  11.078  0.5662  0.4475 -0.7100
   75MOL0     H10287   0.351   1.386  11.081  0.1216 -1.4399 -0.6315
   75MOL0     H10288   0.368   1.429  10.911  0.9679  4.3582  1.1214
   75MOL0     H10289   0.549   1.228  10.903 -0.6538 -0.6329 -1.7449
   75MOL0     H10290   0.505   1.212  11.073 -0.9462 -0.8343  0.3526
   75MOL0     H10291   0.259   1.167  10.962 -0.6551 -2.7788 -0.8149
   75MOL0     H10292   0.381   1.048  10.952 -1.4159  0.4180  2.7707
   75MOL0     H10293   0.271   1.233  10.737 -0.7021 -0.9596 -1.0176
   75MOL0     H10294   0.428   1.147  10.717 -0.7189  2.1490 -1.2154
   75MOL0     H10295   0.150   1.048  10.796  0.1795  2.9538  0.7035
   75MOL0     H10296   0.295   0.941  10.769  0.5999 -0.8367 -1.5315
   75MOL0     H10297   0.276   1.057  10.527  1.2633 -4.0035  0.6316
   75MOL0     H10298   0.193   0.920  10.558 -1.1725  1.1489 -3.2863
   75MOL0     H10299   0.101   1.308  10.618  0.5746 -0.8991  1.3664
   75MOL0     H10300  -0.171   1.404  10.672  0.0796 -1.0726  1.1506
   75MOL0     H10301  -0.290   1.339  10.561 -0.0307 -2.7063  2.2500
   75MOL0     H10302  -0.081   1.549  10.536  3.9743 -2.2983 -1.6791
   75MOL0     H10303  -0.082   1.458  10.394  0.8701  3.1923 -0.1076
   75MOL0     H10304  -0.335   1.510  10.372 -0.2381  1.2303  0.8716
   75MOL0     H10305  -0.308   1.615  10.515  2.8631 -0.1208  1.7758
   75MOL0     H10306  -0.252   1.653  10.232  1.3777 -0.8258  0.0234
   75MOL0     H10307  -0.300   1.769  10.363  1.7416  1.7020  2.0538
   75MOL0     H10308  -0.224   1.887  10.159 -0.1226 -0.7946  1.9552
   75MOL0     H10309  -0.239   2.013   9.986 -0.2679  1.1480 -1.5756
   75MOL0     H10310  -0.098   2.067   9.899  0.7128  3.3120 -0.2407
   75MOL0     H10311  -0.153   2.165  10.036  0.6461 -1.0652  3.6989
   75MOL0     H10312   0.495   2.145   9.858 -1.6228 -1.1307  0.5691
   75MOL0     H10313   0.623   2.349   9.831  0.2003 -0.3321 -0.6163
   75MOL0     H10314   0.666   2.583   9.798  2.0685  0.4382  0.2299
   75MOL0     H10315   0.495   2.631   9.765 -2.3565 -0.1362  3.9449
   75MOL0     H10316   0.566   2.859   9.860 -2.7883 -2.7105 -0.5434
   75MOL0     H10317   0.705   2.813   9.934 -0.6785  0.0999  0.8743
   75MOL0     H10318   0.698   2.950   9.690 -3.6204 -0.1531  1.1122
   75MOL0     H10319   0.668   2.784   9.626  2.4884 -1.9273 -0.9436
   75MOL0     H10320   0.884   2.710   9.686  0.6398  0.2892 -1.6606
   75MOL0     H10321   0.890   2.849   9.808 -4.1389  2.2155  1.4225
   75MOL0     H10322   0.905   2.844   9.510 -2.9148 -0.3935  0.7014
   75MOL0     H10323   0.885   2.994   9.583 -1.7085 -1.1330 -1.0504
   75MOL0     H10324   1.126   2.800   9.651  1.3531  0.7637 -0.4695
   75MOL0     H10325   1.113   2.980   9.668 -0.5862  0.3898 -0.0322
   75MOL0     H10326   1.115   3.023   9.440  0.3989  0.7454  1.0958
   75MOL0     H10327   1.126   2.850   9.390  0.6836 -1.8659  0.3935
   75MOL0     H10328   1.323   2.996   9.363  0.3758 -0.2797 -0.0905
   75MOL0     H10329   1.370   2.873   9.448 -2.5305 -0.6866 -0.7713
   75MOL0     H10330   0.376   2.544  10.138 -0.2731 -0.8652  2.1407
   75MOL0     H10331   0.266   2.330  10.174  0.7364  0.1828  0.5144
   75MOL0     H10332   0.258   1.979  10.237  1.5635 -5.0416  0.3501
   75MOL0     H10333   0.140   1.802  10.362 -2.7233  0.7130  3.9332
   75MOL0     H10334   0.330   1.716  11.310  2.1119 -0.3774 -1.5029
   75MOL0     H10335   0.271   1.929  11.411  1.6953  0.7923 -0.6256
   75MOL0     H10336   0.154   2.211  11.558  1.6688  2.5458 -2.2431
   75MOL0     H10337   0.067   2.373  11.714 -1.9655  2.5047  0.0086
   75MOL0     H10338  -0.330   2.547  11.630  0.5954  3.0005  1.3988
   75MOL0     H10339  -0.246   2.393  11.684  1.0675  0.3499 -0.9351
   75MOL0     H10340  -0.380   2.485  11.878 -0.5340  1.0893  1.7908
   75MOL0     H10341  -0.302   2.642  11.849  3.4231 -0.3069  3.0253
   75MOL0     H10342  -0.162   2.382  11.944 -0.8299 -0.1894  0.0536
   75MOL0     H10343  -0.080   2.527  11.911  1.5253 -3.1773 -0.2394
   75MOL0     H10344  -0.289   2.468  12.116  0.9504 -2.1619 -2.8695
   75MOL0     H10345  -0.253   2.648  12.088  3.6384  0.9156  0.5981
   75MOL0     H10346   0.038   2.524  12.363 -2.0043  1.7941  2.4168
   75MOL0     H10347  -0.157   2.576  11.425 -1.2559 -1.0759  1.0882
   75MOL0     H10348  -0.071   2.545  11.182  1.9412  1.4107  2.4774
   75MOL0     H10349   0.042   2.424  11.124 -2.8459 -0.7077 -3.0851
   75MOL0     H10350  -0.120   2.376  11.155 -0.5419 -0.9870  2.9655
   76MOL0     O10351   2.552   1.545   0.904  0.0753 -0.1156  0.1428
   76MOL0     C10352   2.507   1.462   0.819  0.5686 -0.1352  0.5157
   76MOL0     O10353   2.415   1.362   0.849  0.3494  0.0235 -0.5588
   76MOL0     C10354   2.334   1.403   0.955  0.0143  0.3726  0.4723
   76MOL0     C10355   2.218   1.470   0.938  0.2337 -0.8124 -0.2768
   76MOL0     C10356   2.129   1.490   1.047 -0.2687  0.7757 -0.2946
   76MOL0     C10357   2.157   1.443   1.171  0.1277 -1.1979  0.1101
   76MOL0     O10358   2.074   1.477   1.274 -0.7184  0.5840  0.1871
   76MOL0     C10359   1.933   1.455   1.268  1.1740 -0.6247 -1.3727
   76MOL0     C10360   1.858   1.495   1.397 -0.5408  0.0222  0.6300
   76MOL0     C10361   1.887   1.406   1.509  0.3857  0.2494 -1.0724
   76MOL0     C10362   1.776   1.302   1.519  0.4236 -0.6097  0.3789
   76MOL0     C10363   1.805   1.199   1.623  0.3814  0.4392 -0.1161
   76MOL0     C10364   1.682   1.116   1.648 -0.9775 -0.3555 -0.3142
   76MOL0     C10365   1.711   0.965   1.672  0.1956  0.4347  0.9833
   76MOL0     C10366   1.585   0.883   1.634 -0.8341 -0.6228 -1.0311
   76MOL0     N10367   1.478   0.900   1.732  0.0674  0.2701 -0.0546
   76MOL0     C10368   1.339   0.901   1.706  0.5413  0.9913 -0.3599
   76MOL0     C10369   1.282   0.928   1.823 -0.7119  0.3846 -0.1680
   76MOL0     C10370   1.135   0.937   1.857  0.7703 -0.5164  0.8851
   76MOL0     C10371   1.062   0.820   1.924  0.5917 -0.7547  0.1007
   76MOL0     C10372   0.938   0.870   2.001 -0.5721  0.5240  0.8912
   76MOL0     C10373   0.827   0.885   1.901 -0.4107 -0.3923 -0.1041
   76MOL0     O10374   0.796   0.769   1.823 -0.1100 -0.4317 -0.2646
   76MOL0     C10375   0.700   0.772   1.730  1.3807  0.2150 -0.1708
   76MOL0     C10376   0.601   0.873   1.723  0.8761  0.2746  0.0010
   76MOL0     C10377   0.505   0.860   1.620  0.6910  0.3250  0.1983
   76MOL0     C10378   0.386   0.958   1.620  0.0351 -0.2117  0.5513
   76MOL0     C10379   0.504   0.749   1.526 -0.1630 -0.4808  0.0647
   76MOL0     C10380   0.424   0.748   1.398  0.2556 -0.9948 -0.8307
   76MOL0     O10381   0.484   0.687   1.287 -0.3191 -0.4966 -0.5716
   76MOL0     C10382   0.406   0.664   1.174  0.4472  0.7689 -0.0746
   76MOL0     C10383   0.406   0.749   1.064  0.3639 -0.8039 -0.0956
   76MOL0     C10384   0.352   0.710   0.938 -0.1994  0.0294 -0.5298
   76MOL0     C10385   0.309   0.577   0.924  0.3975 -0.8589 -0.2833
   76MOL0     O10386   0.260   0.529   0.811  0.3436  0.6557  0.3548
   76MOL0     C10387   0.204   0.630   0.717  0.0236  0.4306  0.0072
   76MOL0     C10388   0.123   0.556   0.604 -1.1820 -0.2288 -0.0704
   76MOL0     C10389   0.096   0.643   0.486  0.5218  0.8192 -0.3452
   76MOL0     C10390  -0.002   0.752   0.504  0.1533  0.7114  0.5518
   76MOL0     C10391  -0.133   0.718   0.586 -0.6853 -0.0846  0.7542
   76MOL0     C10392  -0.229   0.829   0.608  0.7241 -0.0064  0.1787
   76MOL0     C10393  -0.374   0.765   0.618  0.1689 -0.1965 -0.5796
   76MOL0     C10394  -0.427   0.708   0.492 -0.6169  0.0751  0.5202
   76MOL0    Cl10395  -0.468   0.850   0.381  0.1282  0.1082 -0.3054
   76MOL0     C10396   0.314   0.493   1.034 -0.2107 -0.5901  0.0592
   76MOL0     C10397   0.365   0.531   1.152 -0.7625 -0.6198 -0.2483
   76MOL0     O10398   0.308   0.791   1.398 -0.3253  0.3133 -0.7233
   76MOL0     C10399   0.598   0.653   1.540  0.0237  0.6507  0.0862
   76MOL0     C10400   0.688   0.657   1.644  0.2331 -0.1518  0.3038
   76MOL0     N10401   1.378   0.939   1.919  0.5958  1.1939 -0.7536
   76MOL0     N10402   1.495   0.922   1.869 -0.2734 -0.1956  0.3645
   76MOL0     C10403   2.269   1.372   1.186 -0.8612 -0.1939 -0.7609
   76MOL0     C10404   2.363   1.350   1.084 -0.0447 -1.0014  0.9314
   76MOL0     C10405   2.592   1.440   0.701  0.9848 -0.2154 -0.6877
   76MOL0     C10406   2.596   1.314   0.650 -0.7958 -0.8488 -0.5392
   76MOL0     C10407   2.675   1.280   0.536  0.2261 -0.3740  0.7998
   76MOL0     C10408   2.762   1.380   0.481  0.4708 -0.4899  0.6511
   76MOL0     O10409   2.860   1.362   0.388  0.0986 -0.7136 -0.5355
   76MOL0     C10410   2.880   1.227   0.332 -0.0148 -0.0708  0.4385
   76MOL0     C10411   2.947   1.120   0.423  0.4767 -0.2754 -0.1946
   76MOL0     C10412   3.022   1.163   0.538 -1.0340 -0.7643 -0.5336
   76MOL0     C10413   3.054   1.056   0.640  0.4943  0.2381  0.6944
   76MOL0     C10414   2.935   0.981   0.682 -0.4684 -0.8101 -0.0020
   76MOL0     C10415   2.844   0.912   0.715  0.1166 -0.2620 -0.7234
   76MOL0     C10416   2.742   1.514   0.523 -1.4930 -0.1861 -0.4698
   76MOL0     C10417   2.660   1.544   0.630  1.0125 -0.3379 -0.0805
   76MOL0     C10418   2.633   1.684   0.663  0.5121 -0.7659  0.3492
   76MOL0     H10419   2.189   1.492   0.836  0.2478  0.6253  0.0126
   76MOL0     H10420   2.035   1.538   1.023 -0.6358  0.0890 -0.2480
   76MOL0     H10421   1.919   1.350   1.239  2.9995 -1.1721 -0.4841
   76MOL0     H10422   1.896   1.520   1.189  0.0725 -2.2505 -2.2560
   76MOL0     H10423   1.884   1.596   1.429  0.3685  0.0395 -0.1326
   76MOL0     H10424   1.751   1.497   1.376  0.3113  0.1513 -5.1114
   76MOL0     H10425   1.983   1.357   1.492  1.0166  0.9864  0.1785
   76MOL0     H10426   1.890   1.451   1.608 -0.7817 -0.4791 -0.6759
   76MOL0     H10427   1.684   1.353   1.548  1.0196 -1.2004  3.7606
   76MOL0     H10428   1.751   1.253   1.424  3.5518 -2.0662  0.1482
   76MOL0     H10429   1.835   1.250   1.715  0.7597  0.5648 -0.3087
   76MOL0     H10430   1.886   1.146   1.573 -1.6740 -0.5619 -2.6002
   76MOL0     H10431   1.631   1.153   1.737 -0.7283  3.0263 -1.4529
   76MOL0     H10432   1.623   1.128   1.557 -0.3262 -0.0101 -0.6975
   76MOL0     H10433   1.743   0.953   1.776  0.2865 -0.3165  0.8754
   76MOL0     H10434   1.796   0.938   1.608 -0.2804 -0.2309  0.6279
   76MOL0     H10435   1.551   0.900   1.531 -1.8294 -2.3840 -1.0288
   76MOL0     H10436   1.614   0.780   1.653 -0.2593 -0.5730 -1.6123
   76MOL0     H10437   1.284   0.888   1.613  3.3519 -0.0250 -2.0128
   76MOL0     H10438   1.091   0.956   1.758  0.9045 -0.4777  0.8331
   76MOL0     H10439   1.133   1.033   1.910  0.6803  1.0115 -1.6814
   76MOL0     H10440   1.029   0.748   1.849 -0.8727  2.3816 -2.4991
   76MOL0     H10441   1.142   0.775   1.985 -0.0439 -1.6903  0.2661
   76MOL0     H10442   0.897   0.800   2.075 -0.1606 -1.2280 -0.4842
   76MOL0     H10443   0.948   0.967   2.051 -0.0102 -0.1992  2.2420
   76MOL0     H10444   0.743   0.897   1.970 -0.5602  1.0747 -0.4975
   76MOL0     H10445   0.838   0.976   1.841 -1.1397 -1.0969 -1.3329
   76MOL0     H10446   0.590   0.956   1.791 -2.5777  1.8346 -2.1954
   76MOL0     H10447   0.376   0.995   1.518  0.7833 -2.6276 -0.4619
   76MOL0     H10448   0.401   1.036   1.696  1.3104 -0.4758  0.5981
   76MOL0     H10449   0.291   0.916   1.654 -0.7193  3.1954  3.2557
   76MOL0     H10450   0.448   0.847   1.085  0.1056 -0.2940 -1.7685
   76MOL0     H10451   0.342   0.782   0.857  1.5361  0.0720 -0.7522
   76MOL0     H10452   0.128   0.694   0.761 -0.5188 -0.4003  0.3113
   76MOL0     H10453   0.280   0.695   0.674  0.7906 -0.5717 -0.2094
   76MOL0     H10454   0.192   0.476   0.575 -1.6343 -0.4059 -0.6741
   76MOL0     H10455   0.034   0.507   0.643 -1.6147  1.5349  1.2990
   76MOL0     H10456   0.054   0.577   0.410 -2.3936  0.1678  1.6596
   76MOL0     H10457   0.188   0.679   0.438  1.0488 -0.1646 -0.0996
   76MOL0     H10458  -0.040   0.774   0.403 -0.1350  0.0061  0.4979
   76MOL0     H10459   0.047   0.845   0.533  0.5814  0.6905 -0.0750
   76MOL0     H10460  -0.167   0.630   0.530 -0.8797  0.4532  0.0247
   76MOL0     H10461  -0.110   0.676   0.685 -0.0373 -1.1875  0.1636
   76MOL0     H10462  -0.233   0.912   0.537 -2.3306 -0.7064 -0.6170
   76MOL0     H10463  -0.203   0.876   0.704 -0.5154 -1.9827  1.5705
   76MOL0     H10464  -0.448   0.836   0.655  1.2688  0.8841 -0.3845
   76MOL0     H10465  -0.370   0.677   0.684 -0.5285  0.3606  0.2153
   76MOL0     H10466  -0.506   0.637   0.518  0.4294 -1.2012  0.2996
   76MOL0     H10467  -0.349   0.640   0.456  3.2120  3.0251  2.5332
   76MOL0     H10468   0.270   0.394   1.027 -2.3210  0.1261  1.8912
   76MOL0     H10469   0.370   0.461   1.234 -0.6251 -0.2344  0.0790
   76MOL0     H10470   0.613   0.567   1.476 -4.5829 -2.1214  2.2395
   76MOL0     H10471   0.776   0.593   1.654 -0.6006 -1.8836 -2.4320
   76MOL0     H10472   2.292   1.331   1.284  4.4474  0.8569 -1.2920
   76MOL0     H10473   2.465   1.315   1.099  1.5827  3.3241  1.2922
   76MOL0     H10474   2.544   1.234   0.702  1.9875 -1.2431  1.9351
   76MOL0     H10475   2.678   1.177   0.500  1.4797 -0.1976  0.3452
   76MOL0     H10476   2.799   1.184   0.273  2.3707 -1.1696 -2.2506
   76MOL0     H10477   2.952   1.258   0.256  0.0778 -1.4793 -0.0866
   76MOL0     H10478   3.003   1.049   0.362 -0.7825 -1.6494  0.1908
   76MOL0     H10479   2.864   1.059   0.459  2.1821 -3.4291 -1.2319
   76MOL0     H10480   3.118   1.197   0.497  0.2352 -3.0059  0.3817
   76MOL0     H10481   2.973   1.239   0.599  0.4529 -0.8071  0.7743
   76MOL0     H10482   3.117   1.097   0.719 -0.3737 -0.5364  1.8362
   76MOL0     H10483   3.107   0.974   0.590 -0.6882  2.2867 -4.5448
   76MOL0     H10484   2.754   0.859   0.739  0.1676  0.2491  0.6256
   76MOL0     H10485   2.805   1.593   0.483 -1.1179 -0.3603 -0.2320
   76MOL0     H10486   2.676   1.743   0.581  0.8744 -1.3234  0.1319
   76MOL0     H10487   2.524   1.690   0.661  0.3858 -2.1056 -2.8216
   76MOL0     H10488   2.681   1.730   0.751 -1.2530  2.4308 -0.2093
   77MOL0     O10489   3.428   9.005   7.224  0.3677 -0.3751  0.5999
   77MOL0     C10490   3.379   8.937   7.316  0.3933 -0.5351 -0.0056
   77MOL0     O10491   3.321   8.989   7.424 -0.0411  0.5791 -0.3562
   77MOL0     C10492   3.316   9.127   7.436 -1.5097  0.2869  0.7047
   77MOL0     C10493   3.434   9.200   7.461  0.0213 -0.6080  0.4966
   77MOL0     C10494   3.444   9.340   7.451  0.7644  0.2537 -0.4327
   77MOL0     C10495   3.328   9.415   7.438 -0.0873  0.2041 -0.4551
   77MOL0     O10496   3.328   9.550   7.443 -0.3675 -0.3579  0.3031
   77MOL0     C10497   3.237   9.601   7.535 -0.4377  0.3871 -0.2331
   77MOL0     C10498   3.208   9.747   7.505 -0.5180  0.9540  0.0041
   77MOL0     C10499   3.116   9.769   7.384 -0.7160  0.4141 -0.2011
   77MOL0     C10500   3.188   9.783   7.243  0.9086  0.4940  0.5904
   77MOL0     C10501   3.105   9.731   7.120  0.3818 -0.1807 -0.0037
   77MOL0     C10502   3.137   9.818   6.997  0.7212 -0.3901  1.0370
   77MOL0     C10503   3.091   9.750   6.866 -0.0961  0.6272  0.3984
   77MOL0     C10504   2.940   9.719   6.859  0.0221 -0.1193 -0.4895
   77MOL0     N10505   2.885   9.670   6.730 -0.5095  0.1085 -0.2527
   77MOL0     C10506   2.917   9.558   6.647  0.5702 -0.1004 -0.4493
   77MOL0     C10507   2.849   9.578   6.534 -0.0518 -0.3519  0.0446
   77MOL0     C10508   2.840   9.475   6.420 -0.4980 -0.2941 -0.5468
   77MOL0     C10509   2.932   9.536   6.315  0.3189  0.0046  0.3198
   77MOL0     C10510   2.924   9.461   6.178  1.2297  0.0861  0.8274
   77MOL0     C10511   2.941   9.311   6.171 -0.6997  0.4643  1.0290
   77MOL0     O10512   3.059   9.237   6.218 -0.0556 -0.0334  0.3771
   77MOL0     C10513   3.167   9.312   6.263  0.2946 -0.9040  0.2362
   77MOL0     C10514   3.244   9.389   6.175 -0.1373  0.1926 -0.3499
   77MOL0     C10515   3.341   9.481   6.221  0.4111 -0.0392 -0.4189
   77MOL0     C10516   3.389   9.586   6.124 -0.2952  0.7939 -0.0206
   77MOL0     C10517   3.358   9.487   6.359  0.8205 -1.0186  0.0320
   77MOL0     C10518   3.482   9.556   6.422  0.2458 -1.2564  0.2900
   77MOL0     O10519   3.480   9.565   6.558  0.3197 -0.1011 -0.0284
   77MOL0     C10520   3.597   9.611   6.617  0.4786  0.0714 -0.2011
   77MOL0     C10521   3.669   9.523   6.693 -0.8895 -0.0982 -0.5339
   77MOL0     C10522   3.778   9.566   6.775  0.1134 -0.3646 -0.3176
   77MOL0     C10523   3.810   9.696   6.788  0.4818  0.9720  0.2762
   77MOL0     O10524   3.918   9.734   6.848  0.8270  0.1893 -0.2354
   77MOL0     C10525   3.890   9.815   6.959 -0.2236 -0.4306  0.6065
   77MOL0     C10526   4.007   9.818   7.046 -0.5456 -1.1116  0.2409
   77MOL0     C10527   4.025   9.686   7.122  0.7799 -0.0641 -0.4740
   77MOL0     C10528   4.108   9.699   7.252 -0.6505 -0.5348 -0.1624
   77MOL0     C10529   4.259   9.730   7.219 -0.3409 -1.3211  0.2053
   77MOL0     C10530   4.349   9.714   7.352 -0.0121  0.3609 -1.1693
   77MOL0     C10531   4.306   9.817   7.451 -1.1060  0.2331  0.4910
   77MOL0     C10532   4.423   9.825   7.556 -0.5103 -0.7390  0.3969
   77MOL0    Cl10533   4.373   9.953   7.675 -0.0348 -0.2598  0.0619
   77MOL0     C10534   3.745   9.784   6.707  0.5668 -0.1066 -0.2897
   77MOL0     C10535   3.645   9.746   6.615  0.3356  0.3437 -0.6673
   77MOL0     O10536   3.573   9.600   6.353 -0.0967  0.5035  0.1141
   77MOL0     C10537   3.289   9.411   6.448  0.3083 -0.2331 -0.9633
   77MOL0     C10538   3.185   9.324   6.407  0.3491  0.5814  0.2929
   77MOL0     N10539   2.785   9.704   6.537  0.0677 -0.8521 -0.1207
   77MOL0     N10540   2.800   9.749   6.657 -0.6942 -0.1116 -1.1394
   77MOL0     C10541   3.208   9.340   7.412  0.2164 -0.5858 -0.4058
   77MOL0     C10542   3.213   9.204   7.400  1.1113 -0.2788 -0.5289
   77MOL0     C10543   3.384   8.787   7.308 -1.2815 -0.3012  0.3702
   77MOL0     C10544   3.398   8.714   7.422 -0.3054  0.1671 -0.0944
   77MOL0     C10545   3.394   8.576   7.406  0.4393  0.2797 -0.1480
   77MOL0     C10546   3.362   8.512   7.291 -0.8337  0.3637  0.0926
   77MOL0     O10547   3.331   8.375   7.302  0.1290  0.3918 -0.9887
   77MOL0     C10548   3.381   8.283   7.203  0.5244  0.4392 -0.0171
   77MOL0     C10549   3.267   8.242   7.108 -0.5681 -0.1328 -0.2540
   77MOL0     C10550   3.303   8.132   7.012 -0.4604 -0.0705 -0.1565
   77MOL0     C10551   3.388   8.183   6.899  0.3905 -0.4784 -0.0635
   77MOL0     C10552   3.460   8.065   6.842  0.6916 -0.4710  0.0869
   77MOL0     C10553   3.527   7.985   6.783 -0.0918 -0.4669  0.2396
   77MOL0     C10554   3.345   8.590   7.178 -0.2874  1.1455 -1.5289
   77MOL0     C10555   3.353   8.726   7.179 -0.0728  0.1504 -0.0204
   77MOL0     C10556   3.312   8.797   7.061 -0.1654 -0.8314  0.2208
   77MOL0     H10557   3.522   9.143   7.490 -1.2003 -2.6040  0.4683
   77MOL0     H10558   3.532   9.393   7.485  0.3371  1.2727 -0.8596
   77MOL0     H10559   3.285   9.595   7.633 -3.0963 -1.1276  1.1109
   77MOL0     H10560   3.139   9.552   7.544 -0.1487  0.0809  1.8059
   77MOL0     H10561   3.171   9.795   7.595  2.9672 -1.1543  2.8305
   77MOL0     H10562   3.312   9.772   7.480 -0.0693 -1.2354 -0.5223
   77MOL0     H10563   3.039   9.693   7.371 -0.0275 -0.4979  0.8402
   77MOL0     H10564   3.079   9.870   7.402  3.0106  2.0043 -0.4122
   77MOL0     H10565   3.210   9.890   7.234  3.6704  0.2239  2.8063
   77MOL0     H10566   3.279   9.722   7.247  1.2782  0.2302 -4.5734
   77MOL0     H10567   2.998   9.734   7.144  0.3230 -0.2872 -0.2512
   77MOL0     H10568   3.131   9.628   7.095 -2.1223 -0.5553 -1.4097
   77MOL0     H10569   3.083   9.912   7.012  1.6231 -0.0350  2.2323
   77MOL0     H10570   3.245   9.833   6.992  0.7914 -1.2626 -2.4712
   77MOL0     H10571   3.136   9.656   6.835 -2.9757  0.3409 -3.7729
   77MOL0     H10572   3.118   9.823   6.789  3.0297 -0.5129  0.2673
   77MOL0     H10573   2.934   9.639   6.933  2.8465  0.9787  1.0701
   77MOL0     H10574   2.884   9.804   6.899  0.0474 -0.2090 -0.2606
   77MOL0     H10575   2.986   9.479   6.677  0.6650  0.1914  0.1060
   77MOL0     H10576   2.734   9.472   6.391 -1.0439 -0.5827  1.3414
   77MOL0     H10577   2.864   9.373   6.451  0.0434 -0.7084 -2.2186
   77MOL0     H10578   2.898   9.638   6.299  2.0057  0.7305  1.0721
   77MOL0     H10579   3.039   9.529   6.338  0.7970  4.2264  0.0085
   77MOL0     H10580   2.826   9.487   6.136  2.0794  2.7711  0.2880
   77MOL0     H10581   2.983   9.516   6.103 -1.3555  0.5605 -0.9881
   77MOL0     H10582   2.862   9.267   6.233 -1.3063  3.8625  2.9108
   77MOL0     H10583   2.920   9.293   6.066 -1.4594 -0.0913  1.2674
   77MOL0     H10584   3.242   9.379   6.067 -0.6478  3.6716 -0.7803
   77MOL0     H10585   3.415   9.681   6.172 -1.7165 -0.0473  2.6518
   77MOL0     H10586   3.306   9.603   6.055 -1.6145 -2.5177  0.5605
   77MOL0     H10587   3.470   9.541   6.066 -0.4467 -0.4957  0.7225
   77MOL0     H10588   3.645   9.418   6.697  2.5742 -1.2084 -3.2802
   77MOL0     H10589   3.854   9.503   6.821  1.5162 -1.0701 -3.3291
   77MOL0     H10590   3.887   9.916   6.916  0.9203 -1.3957 -1.9124
   77MOL0     H10591   3.807   9.783   7.023 -1.2049 -0.3255 -0.5772
   77MOL0     H10592   4.097   9.833   6.985 -0.4572 -2.9100 -0.1159
   77MOL0     H10593   4.001   9.905   7.112  2.2706  1.6300 -2.7772
   77MOL0     H10594   4.071   9.606   7.065  0.9839 -2.4596  2.7671
   77MOL0     H10595   3.922   9.659   7.147 -0.1450  2.6588 -0.9685
   77MOL0     H10596   4.119   9.609   7.314 -0.3149 -0.6424 -0.3764
   77MOL0     H10597   4.074   9.774   7.324  1.9995  1.4244 -0.7736
   77MOL0     H10598   4.283   9.655   7.143 -3.9310 -0.9479 -1.5181
   77MOL0     H10599   4.267   9.828   7.172 -0.5684  0.3548  3.3576
   77MOL0     H10600   4.454   9.738   7.332  0.9153 -1.1146  1.5281
   77MOL0     H10601   4.343   9.622   7.409  0.6659  0.4495 -0.9438
   77MOL0     H10602   4.218   9.771   7.496  1.3717 -1.8635  3.6999
   77MOL0     H10603   4.285   9.915   7.406  1.4462 -0.3537 -2.3026
   77MOL0     H10604   4.507   9.873   7.504  0.0593 -0.1802  1.7937
   77MOL0     H10605   4.446   9.731   7.607  1.9363  1.1671  3.1291
   77MOL0     H10606   3.779   9.887   6.695  1.5934 -0.0171  2.6473
   77MOL0     H10607   3.597   9.822   6.554 -2.9142  0.9992  2.3450
   77MOL0     H10608   3.315   9.403   6.553  0.4816 -0.6665 -1.0348
   77MOL0     H10609   3.133   9.266   6.483  0.4021  0.5648  0.3169
   77MOL0     H10610   3.113   9.391   7.401 -0.4636 -1.3733  1.4639
   77MOL0     H10611   3.118   9.155   7.385  0.3481 -0.0513  2.7092
   77MOL0     H10612   3.402   8.750   7.524 -0.5289  0.1364 -0.0757
   77MOL0     H10613   3.411   8.517   7.496  0.6447 -1.6821 -1.3986
   77MOL0     H10614   3.465   8.324   7.146 -0.0607  0.2806 -1.0159
   77MOL0     H10615   3.416   8.197   7.260 -0.7514 -0.6839 -0.8528
   77MOL0     H10616   3.228   8.326   7.049 -0.4149 -0.3975 -0.7397
   77MOL0     H10617   3.186   8.202   7.169 -0.4777 -0.1868 -0.1702
   77MOL0     H10618   3.358   8.053   7.064 -2.4293 -1.8757 -0.6739
   77MOL0     H10619   3.218   8.080   6.966 -0.1284 -1.1931  0.4776
   77MOL0     H10620   3.465   8.250   6.939  2.8668 -3.5885  0.7601
   77MOL0     H10621   3.332   8.244   6.828 -0.7646 -2.1967 -0.6867
   77MOL0     H10622   3.585   7.916   6.726 -4.4899 -0.2154 -5.4658
   77MOL0     H10623   3.298   8.540   7.093  1.8097  1.2400 -2.8146
   77MOL0     H10624   3.212   8.834   7.088  1.1245  0.1221  4.2592
   77MOL0     H10625   3.383   8.878   7.041 -0.6546 -0.3978  0.2149
   77MOL0     H10626   3.303   8.732   6.974 -2.7110 -0.8504  0.4229
   78MOL0     O10627   8.028   3.928   5.957 -0.0980  0.4778 -0.7716
   78MOL0     C10628   8.045   3.824   5.898 -1.3403 -0.0697  1.0863
   78MOL0     O10629   8.107   3.808   5.776  0.0359  0.5048 -0.6131
   78MOL0     C10630   8.069   3.901   5.684  0.5778 -0.0812 -0.4173
   78MOL0     C10631   8.105   4.035   5.696 -0.2394  0.5210  0.2085
   78MOL0     C10632   8.074   4.114   5.591  0.3914 -0.7464 -0.5571
   78MOL0     C10633   8.024   4.058   5.472 -0.3677  0.0000 -0.0669
   78MOL0     O10634   8.005   4.122   5.351  1.1293 -1.1135 -0.5332
   78MOL0     C10635   8.030   4.271   5.341 -0.3987  0.9442 -0.7896
   78MOL0     C10636   7.913   4.333   5.415 -0.7146 -0.3965 -0.4664
   78MOL0     C10637   7.781   4.333   5.336  0.4041 -0.8409  0.2012
   78MOL0     C10638   7.656   4.339   5.429  0.8122  0.6353  0.1403
   78MOL0     C10639   7.516   4.295   5.361  0.1208  0.3492 -0.1607
   78MOL0     C10640   7.448   4.353   5.237  0.0345 -0.5381  0.4387
   78MOL0     C10641   7.454   4.501   5.230 -0.5454  0.4711  0.1609
   78MOL0     C10642   7.348   4.556   5.322 -0.1938  1.0708  0.1037
   78MOL0     N10643   7.326   4.695   5.299  0.2693  0.4560  0.3004
   78MOL0     C10644   7.197   4.743   5.290 -0.0783  0.0412 -0.4673
   78MOL0     C10645   7.223   4.880   5.319  0.1917 -0.0181 -1.2428
   78MOL0     C10646   7.114   4.975   5.368 -0.0274  0.7093 -0.7809
   78MOL0     C10647   7.142   5.118   5.335 -0.3151  1.0343  0.1451
   78MOL0     C10648   7.156   5.141   5.190 -0.4062 -0.6375 -0.2876
   78MOL0     C10649   7.179   5.288   5.171 -0.3462  0.4192  0.1734
   78MOL0     O10650   7.046   5.345   5.161  0.3780  0.7664 -0.2760
   78MOL0     C10651   6.973   5.339   5.039 -0.7223 -0.2134 -0.0864
   78MOL0     C10652   7.029   5.285   4.922 -0.6268 -0.1103  0.5078
   78MOL0     C10653   6.951   5.275   4.804  0.2531 -0.2204  0.1439
   78MOL0     C10654   7.018   5.207   4.688 -0.1057 -0.6630 -0.5101
   78MOL0     C10655   6.824   5.325   4.800  0.3155  0.2779 -0.0650
   78MOL0     C10656   6.725   5.296   4.686 -0.4906 -0.0417  0.0188
   78MOL0     O10657   6.733   5.175   4.613  0.3660 -0.5087 -0.2557
   78MOL0     C10658   6.656   5.164   4.506  0.0890 -0.1654 -1.1040
   78MOL0     C10659   6.701   5.201   4.373  0.0829 -1.1049 -1.0622
   78MOL0     C10660   6.611   5.211   4.270 -0.3056 -0.3244  0.8497
   78MOL0     C10661   6.480   5.163   4.281  0.4068 -0.2226 -0.3189
   78MOL0     O10662   6.407   5.159   4.164 -0.4448 -0.6161  0.2348
   78MOL0     C10663   6.262   5.156   4.181 -0.5338  0.3733 -0.5305
   78MOL0     C10664   6.217   5.013   4.144  0.4664  1.4204 -0.2533
   78MOL0     C10665   6.226   4.919   4.262 -0.3478 -0.9274 -0.2505
   78MOL0     C10666   6.149   4.786   4.224 -0.0340  0.0191  0.4772
   78MOL0     C10667   6.167   4.671   4.328 -0.1501  0.3791 -0.2839
   78MOL0     C10668   6.162   4.723   4.478 -0.5868 -0.5150 -0.9451
   78MOL0     C10669   6.167   4.611   4.586 -0.5452  0.5007 -0.3320
   78MOL0     C10670   6.142   4.671   4.723 -0.0724 -0.3991 -1.1056
   78MOL0    Cl10671   5.982   4.753   4.723 -0.7146 -0.0897 -0.0447
   78MOL0     C10672   6.439   5.131   4.414  0.4428 -0.8334  1.0494
   78MOL0     C10673   6.517   5.136   4.529  0.5079  0.4303  0.5444
   78MOL0     O10674   6.634   5.372   4.672 -0.7390  0.6220  0.1003
   78MOL0     C10675   6.772   5.388   4.913 -0.0459 -0.1130  1.0575
   78MOL0     C10676   6.847   5.401   5.032 -0.2573 -0.1324  0.4102
   78MOL0     N10677   7.364   4.899   5.334  0.4144 -0.3766  0.4739
   78MOL0     N10678   7.424   4.790   5.312  0.0578  0.2103  1.3686
   78MOL0     C10679   7.971   3.934   5.475 -1.3392  0.2064  0.1183
   78MOL0     C10680   7.996   3.849   5.579 -0.1323  0.3900  0.3088
   78MOL0     C10681   8.035   3.704   5.980  0.5730  1.1698 -0.0623
   78MOL0     C10682   8.107   3.589   5.929 -0.2472 -0.6037 -0.1701
   78MOL0     C10683   8.106   3.464   5.996 -0.4746 -0.0011  0.3135
   78MOL0     C10684   8.035   3.453   6.118  0.6843  0.4578  0.3174
   78MOL0     O10685   8.030   3.329   6.177  0.3817  0.2084  0.3691
   78MOL0     C10686   7.991   3.332   6.317  0.1440  0.7858 -1.0073
   78MOL0     C10687   7.998   3.190   6.361  0.2380  0.6938 -0.3183
   78MOL0     C10688   8.148   3.132   6.347  0.7440  1.3450  0.6784
   78MOL0     C10689   8.133   2.979   6.371 -0.3616 -0.1430 -0.5514
   78MOL0     C10690   8.268   2.921   6.345  0.1129  0.2705 -0.9691
   78MOL0     C10691   8.378   2.873   6.336  0.7553 -0.4689 -0.0140
   78MOL0     C10692   7.969   3.564   6.163  0.1150 -0.7595  0.1063
   78MOL0     C10693   7.966   3.688   6.096  0.3037 -0.7737 -0.9301
   78MOL0     C10694   7.881   3.795   6.163  0.2387 -0.8268 -1.0817
   78MOL0     H10695   8.157   4.078   5.781 -2.5609  1.4546  1.2178
   78MOL0     H10696   8.098   4.219   5.581 -1.7396 -0.3667 -2.8403
   78MOL0     H10697   8.037   4.302   5.236 -2.5542  1.9243 -0.7101
   78MOL0     H10698   8.128   4.289   5.384 -0.6199 -1.7133  1.0649
   78MOL0     H10699   7.891   4.275   5.505 -0.9675 -0.6159 -0.6684
   78MOL0     H10700   7.927   4.434   5.455 -2.4584  0.6270 -2.2598
   78MOL0     H10701   7.776   4.417   5.266  2.1555 -1.0362 -0.2050
   78MOL0     H10702   7.768   4.242   5.277 -0.6095 -0.0795 -0.8108
   78MOL0     H10703   7.670   4.264   5.507  2.4915  2.1063  1.3361
   78MOL0     H10704   7.663   4.429   5.490  2.6102 -0.5589  1.8302
   78MOL0     H10705   7.436   4.289   5.436  1.7953 -1.7757  1.6051
   78MOL0     H10706   7.527   4.193   5.323  2.2109  1.8481 -4.1526
   78MOL0     H10707   7.508   4.314   5.155  0.5427 -1.9117  1.4222
   78MOL0     H10708   7.354   4.298   5.224 -0.1390 -0.6413  1.9423
   78MOL0     H10709   7.423   4.506   5.125  0.3449 -4.6766 -0.6099
   78MOL0     H10710   7.555   4.541   5.245 -0.7982  0.2925  2.8124
   78MOL0     H10711   7.259   4.495   5.305  0.4231 -0.1667  1.1586
   78MOL0     H10712   7.377   4.541   5.426 -1.8750  1.0102  0.5932
   78MOL0     H10713   7.100   4.696   5.277 -0.2416  1.0597 -3.5723
   78MOL0     H10714   7.094   4.964   5.475 -3.7865  2.4918 -1.1160
   78MOL0     H10715   7.024   4.961   5.307  1.1369  2.5324 -3.1185
   78MOL0     H10716   7.061   5.177   5.379  1.7382  2.9980  1.4925
   78MOL0     H10717   7.237   5.147   5.380  1.0404 -0.1418 -1.8483
   78MOL0     H10718   7.252   5.102   5.157 -0.0678  0.7603 -1.0216
   78MOL0     H10719   7.086   5.095   5.120  0.6942  1.1620 -2.7055
   78MOL0     H10720   7.232   5.339   5.252  0.3772  3.2392 -1.9134
   78MOL0     H10721   7.240   5.318   5.086  2.1270 -0.2185  1.6246
   78MOL0     H10722   7.130   5.247   4.930 -1.1370 -1.6008  0.2109
   78MOL0     H10723   6.977   5.105   4.679  0.9803 -1.0139 -1.8113
   78MOL0     H10724   7.126   5.208   4.702 -0.2322 -1.0197  0.6481
   78MOL0     H10725   7.004   5.254   4.591  0.2285  1.6686  0.5034
   78MOL0     H10726   6.805   5.223   4.351 -0.0441  2.3644  1.1174
   78MOL0     H10727   6.652   5.231   4.172 -2.0713  3.3562  0.7132
   78MOL0     H10728   6.225   5.175   4.282 -0.6165  1.1226 -0.6909
   78MOL0     H10729   6.220   5.230   4.111  0.0692 -1.6129 -3.1518
   78MOL0     H10730   6.118   5.019   4.097 -0.1864 -2.1702  0.3925
   78MOL0     H10731   6.284   4.963   4.074  0.4155 -2.4426  2.1584
   78MOL0     H10732   6.181   4.955   4.355  3.6794 -0.1707  1.6088
   78MOL0     H10733   6.329   4.886   4.275 -0.0251 -1.3360 -3.1680
   78MOL0     H10734   6.180   4.761   4.122  0.2741  1.1064  0.2959
   78MOL0     H10735   6.045   4.814   4.204 -0.6557 -2.1964  0.3397
   78MOL0     H10736   6.090   4.593   4.321 -0.3580  0.3663  1.6174
   78MOL0     H10737   6.265   4.625   4.314  0.4820  2.1345 -2.2189
   78MOL0     H10738   6.074   4.784   4.498 -0.7641 -0.5591 -1.5623
   78MOL0     H10739   6.246   4.788   4.504 -1.0459 -1.3054  3.1929
   78MOL0     H10740   6.270   4.573   4.586 -0.6947 -0.0628 -2.7046
   78MOL0     H10741   6.102   4.523   4.583  0.1576 -0.2175  2.1986
   78MOL0     H10742   6.217   4.743   4.756 -0.2886 -1.5673  2.3067
   78MOL0     H10743   6.148   4.594   4.800  1.2348  0.0931 -0.6785
   78MOL0     H10744   6.345   5.077   4.416 -0.2584  0.2213 -0.9376
   78MOL0     H10745   6.476   5.129   4.629 -3.1430  0.3455 -0.7901
   78MOL0     H10746   6.673   5.430   4.906  0.4634  1.0973  0.9413
   78MOL0     H10747   6.810   5.464   5.112  1.1718  3.5156 -1.5594
   78MOL0     H10748   7.911   3.906   5.389 -2.3727  1.7250  0.3070
   78MOL0     H10749   7.955   3.748   5.582 -3.5161  1.6445  0.8705
   78MOL0     H10750   8.166   3.590   5.838  0.1803  0.1872  0.1103
   78MOL0     H10751   8.162   3.385   5.948  0.4885  0.4610  0.6579
   78MOL0     H10752   8.053   3.382   6.392 -0.5835 -1.9056  1.5773
   78MOL0     H10753   7.897   3.383   6.339  1.3847  2.0984  1.6613
   78MOL0     H10754   7.929   3.132   6.299 -0.9311  2.4485 -0.7312
   78MOL0     H10755   7.970   3.186   6.467  2.2393 -2.0437  0.2243
   78MOL0     H10756   8.179   3.146   6.243 -0.7883  0.8938  0.1424
   78MOL0     H10757   8.223   3.188   6.404  0.4117  2.4140  0.0975
   78MOL0     H10758   8.061   2.930   6.305 -0.8785  1.9289 -1.5978
   78MOL0     H10759   8.111   2.954   6.475 -1.3666 -4.4441 -1.5724
   78MOL0     H10760   8.471   2.830   6.304  0.5314  1.4473 -3.8456
   78MOL0     H10761   7.902   3.550   6.247  1.1220 -2.9735  0.6210
   78MOL0     H10762   7.950   3.869   6.203  1.6067 -0.3614 -4.0679
   78MOL0     H10763   7.811   3.843   6.094  0.3935  0.4343 -0.3996
   78MOL0     H10764   7.813   3.760   6.242 -1.2473  3.6927 -0.0603
   79MOL0     O10765  10.021   8.770  10.014 -0.0686 -0.5333 -0.0157
   79MOL0     C10766   9.964   8.837   9.927  0.1481  0.7858  0.0236
   79MOL0     O10767   9.866   8.933   9.950  0.1390  0.3228  0.3837
   79MOL0     C10768   9.836   8.962  10.080  0.0758 -0.4907 -0.2422
   79MOL0     C10769   9.851   9.095  10.125 -0.1430  0.0370 -0.6543
   79MOL0     C10770   9.810   9.141  10.250  0.5036 -0.0265 -0.7952
   79MOL0     C10771   9.760   9.041  10.337  0.7153  1.2524  0.4267
   79MOL0     O10772   9.704   9.072  10.457 -0.2678 -0.2082  0.5468
   79MOL0     C10773   9.749   9.005  10.579 -0.7785  0.5689  0.6167
   79MOL0     C10774   9.689   9.053  10.709  0.6360  0.1141  0.7610
   79MOL0     C10775   9.537   9.064  10.721  1.0332  0.7176 -0.3138
   79MOL0     C10776   9.450   8.951  10.655 -1.8908  0.0420  0.1740
   79MOL0     C10777   9.306   8.946  10.700 -1.0556  0.5202  0.1135
   79MOL0     C10778   9.246   8.805  10.662  0.5614 -0.6961 -0.6241
   79MOL0     C10779   9.099   8.807  10.722 -0.0645  0.2138 -0.8571
   79MOL0     C10780   9.033   8.675  10.697 -1.1154  0.6302  0.0624
   79MOL0     N10781   9.094   8.567  10.777 -0.4598 -0.8665 -0.1803
   79MOL0     C10782   9.185   8.483  10.718 -0.4179  0.7357  0.0503
   79MOL0     C10783   9.192   8.378  10.803 -0.0968 -0.0817 -0.4780
   79MOL0     C10784   9.245   8.248  10.760 -0.1370  1.0561  0.3631
   79MOL0     C10785   9.249   8.162  10.877 -0.5041  0.3072 -0.1004
   79MOL0     C10786   9.341   8.044  10.845  0.9103 -0.4275  0.2736
   79MOL0     C10787   9.265   7.940  10.761  0.7928 -0.4447 -0.3868
   79MOL0     O10788   9.272   7.971  10.620  0.0996 -0.6287  0.5226
   79MOL0     C10789   9.171   7.948  10.528 -1.0141  0.1474  0.4671
   79MOL0     C10790   9.180   7.996  10.393 -0.3217  0.8477 -1.3238
   79MOL0     C10791   9.110   7.937  10.289 -0.0547 -0.0490  0.0757
   79MOL0     C10792   9.146   7.983  10.148 -0.6032  0.2432  1.1165
   79MOL0     C10793   9.008   7.843  10.312  0.4383 -0.4707 -0.0156
   79MOL0     C10794   8.926   7.784  10.201  0.1257 -0.1026  0.7175
   79MOL0     O10795   8.797   7.744  10.238  0.2426  0.2273  0.1999
   79MOL0     C10796   8.732   7.664  10.149 -0.0244 -0.0845 -0.3441
   79MOL0     C10797   8.649   7.725  10.066  0.9778  0.7939 -0.2763
   79MOL0     C10798   8.587   7.643   9.974  0.3975 -0.5478 -0.0560
   79MOL0     C10799   8.599   7.506   9.973 -1.3293 -0.6105  0.5562
   79MOL0     O10800   8.536   7.412   9.899 -0.4076 -0.0574  0.1191
   79MOL0     C10801   8.529   7.441   9.760 -0.2782 -0.6117 -0.0546
   79MOL0     C10802   8.549   7.318   9.676  0.1187 -0.8608  0.7655
   79MOL0     C10803   8.435   7.218   9.685 -0.8991  0.5548 -0.7975
   79MOL0     C10804   8.467   7.118   9.810  0.5003 -0.0438  0.5558
   79MOL0     C10805   8.597   7.047   9.801  0.8485 -0.5505  0.9500
   79MOL0     C10806   8.617   6.926   9.893 -0.0468 -0.2819 -1.5676
   79MOL0     C10807   8.610   6.953  10.040  0.5016  0.5126  0.0568
   79MOL0     C10808   8.683   6.842  10.125  0.8717  0.6091  0.1958
   79MOL0    Cl10809   8.640   6.873  10.294 -0.1997  0.1432  0.1374
   79MOL0     C10810   8.687   7.450  10.071  0.0811  0.2166 -0.7973
   79MOL0     C10811   8.745   7.527  10.165 -0.9510 -0.0076  0.4565
   79MOL0     O10812   8.978   7.761  10.093  0.5482  0.6463 -0.4130
   79MOL0     C10813   8.985   7.811  10.451  0.3700  0.9059  0.2659
   79MOL0     C10814   9.059   7.865  10.554 -0.4886 -0.4059  0.0436
   79MOL0     N10815   9.102   8.407  10.904  0.7670  0.3150 -0.4061
   79MOL0     N10816   9.054   8.521  10.899 -1.2169 -0.4603  0.5749
   79MOL0     C10817   9.746   8.913  10.293  0.5175  0.4285  0.4270
   79MOL0     C10818   9.776   8.864  10.157  0.7077  0.0129 -0.6388
   79MOL0     C10819   9.935   8.759   9.801 -0.4917 -0.7295 -1.1644
   79MOL0     C10820   9.798   8.751   9.764 -0.1045 -0.1772 -0.4462
   79MOL0     C10821   9.770   8.674   9.647  0.4059  0.5333  0.3772
   79MOL0     C10822   9.863   8.601   9.579  0.7320  0.3659  1.4926
   79MOL0     O10823   9.841   8.511   9.477  0.6432 -0.4297  0.3933
   79MOL0     C10824   9.736   8.526   9.374 -1.5035  0.7045 -0.4953
   79MOL0     C10825   9.783   8.479   9.238 -0.5631  0.0509 -0.7907
   79MOL0     C10826   9.920   8.526   9.203 -0.6664  0.2036 -0.5519
   79MOL0     C10827   9.961   8.460   9.078  0.7288 -0.0866 -0.3547
   79MOL0     C10828  10.084   8.512   9.019  0.8845 -0.6813 -0.2204
   79MOL0     C10829  10.180   8.559   8.965 -0.3787  0.7088  0.1058
   79MOL0     C10830   9.988   8.602   9.634  0.4101 -0.8932 -0.4355
   79MOL0     C10831  10.028   8.686   9.729 -0.6186  0.1618  0.7294
   79MOL0     C10832  10.173   8.671   9.784 -0.3093 -0.5532  0.5965
   79MOL0     H10833   9.887   9.162  10.048  2.9084  0.0948  0.6780
   79MOL0     H10834   9.803   9.243  10.286 -0.5074 -0.3821  0.0901
   79MOL0     H10835   9.857   9.025  10.580 -0.9739  1.8412  3.2816
   79MOL0     H10836   9.747   8.897  10.562  3.7909  0.8331 -4.1758
   79MOL0     H10837   9.736   8.995  10.788  1.8445 -0.8126 -0.5803
   79MOL0     H10838   9.723   9.156  10.719 -3.7627  2.0589 -1.3854
   79MOL0     H10839   9.515   9.069  10.828  0.5477 -0.9742 -0.3012
   79MOL0     H10840   9.512   9.164  10.684  0.2496 -0.0518 -1.9678
   79MOL0     H10841   9.457   8.966  10.546  0.4904  0.9617  0.3933
   79MOL0     H10842   9.507   8.863  10.688 -0.2689  1.6013  1.7674
   79MOL0     H10843   9.251   9.031  10.658 -0.7898  0.4891 -0.3080
   79MOL0     H10844   9.292   8.957  10.808  0.1302 -2.9250  0.7376
   79MOL0     H10845   9.247   8.786  10.554  0.4781  0.3538 -0.8223
   79MOL0     H10846   9.303   8.730  10.718  1.2900  0.2991  0.0165
   79MOL0     H10847   9.043   8.883  10.667 -1.1009  1.3438  1.6201
   79MOL0     H10848   9.090   8.836  10.827 -5.4200  1.0845 -1.2949
   79MOL0     H10849   8.929   8.685  10.730 -2.0527 -0.6279 -2.3149
   79MOL0     H10850   9.028   8.655  10.590  2.1585  0.9344 -0.2413
   79MOL0     H10851   9.216   8.497  10.614 -0.1544 -0.3255 -0.0212
   79MOL0     H10852   9.339   8.272  10.709 -2.0594  3.3166 -2.4121
   79MOL0     H10853   9.174   8.202  10.691  0.9014 -0.0150 -0.0261
   79MOL0     H10854   9.280   8.227  10.959 -0.2176  1.2025 -0.8990
   79MOL0     H10855   9.152   8.120  10.904  1.5453 -3.0351  2.9249
   79MOL0     H10856   9.428   8.084  10.792  0.1327  0.6817 -0.1945
   79MOL0     H10857   9.369   7.996  10.940 -0.5579 -0.0775  0.9054
   79MOL0     H10858   9.306   7.840  10.777  2.8751  0.7782  2.9983
   79MOL0     H10859   9.163   7.938  10.799  1.0128  3.5046  0.8772
   79MOL0     H10860   9.256   8.071  10.374  0.4592  1.8071  3.9610
   79MOL0     H10861   9.214   8.068  10.132 -1.1598  0.4492 -0.2426
   79MOL0     H10862   9.059   8.022  10.095  1.7013  2.4098 -1.3609
   79MOL0     H10863   9.191   7.899  10.094 -0.1909  2.3047 -2.0253
   79MOL0     H10864   8.649   7.834  10.065  0.7158  0.7963 -0.0658
   79MOL0     H10865   8.516   7.686   9.904 -1.3351 -3.1540 -0.0446
   79MOL0     H10866   8.435   7.492   9.735  2.2079  5.0176  0.6946
   79MOL0     H10867   8.594   7.523   9.729 -0.4561  0.0834  1.3338
   79MOL0     H10868   8.563   7.352   9.573  5.8891 -0.1394  1.4891
   79MOL0     H10869   8.646   7.273   9.700  0.0734  0.3412  3.6934
   79MOL0     H10870   8.421   7.151   9.600 -2.4561 -3.3215  2.1437
   79MOL0     H10871   8.341   7.269   9.707 -1.0450 -0.5431  1.5639
   79MOL0     H10872   8.393   7.037   9.815  1.2038 -0.7802 -0.6188
   79MOL0     H10873   8.460   7.170   9.906  2.3425  1.6706 -0.1810
   79MOL0     H10874   8.601   7.007   9.699  0.6958 -2.4522  1.6477
   79MOL0     H10875   8.676   7.122   9.810 -0.0195  1.0708 -2.9301
   79MOL0     H10876   8.713   6.879   9.868 -0.1372 -3.7466  3.2086
   79MOL0     H10877   8.541   6.848   9.880 -2.0065  1.2865 -0.1526
   79MOL0     H10878   8.505   6.929  10.059  0.3315 -0.5121 -1.9491
   79MOL0     H10879   8.629   7.056  10.072 -0.0365  1.2454 -1.8244
   79MOL0     H10880   8.791   6.844  10.108  0.7099 -1.4319 -1.4773
   79MOL0     H10881   8.664   6.739  10.095  0.5051 -0.7095  4.3018
   79MOL0     H10882   8.704   7.342  10.072  0.9998  0.3435  0.6614
   79MOL0     H10883   8.795   7.481  10.250 -2.3096  2.2189  2.5773
   79MOL0     H10884   8.917   7.728  10.469  2.8198 -1.0455  1.1055
   79MOL0     H10885   9.027   7.831  10.652 -1.6608 -0.7682 -0.4596
   79MOL0     H10886   9.717   8.846  10.372 -3.7918 -0.1436 -1.3526
   79MOL0     H10887   9.765   8.765  10.113  1.3938  0.9152 -3.0050
   79MOL0     H10888   9.719   8.809   9.810 -0.9892 -1.0338 -0.8264
   79MOL0     H10889   9.666   8.671   9.616 -1.0233  1.6573  4.4607
   79MOL0     H10890   9.645   8.472   9.402 -3.2936  2.7540 -1.9669
   79MOL0     H10891   9.712   8.629   9.346 -0.0824  1.2286  0.1425
   79MOL0     H10892   9.701   8.509   9.172 -2.9909 -1.8826  1.1264
   79MOL0     H10893   9.784   8.370   9.245 -1.8513 -0.0294 -1.4556
   79MOL0     H10894   9.918   8.633   9.181  1.0620  0.4013  0.0874
   79MOL0     H10895   9.991   8.512   9.286 -0.4672 -0.4720 -0.8299
   79MOL0     H10896   9.885   8.460   8.999 -0.9101 -0.6601  1.1524
   79MOL0     H10897   9.985   8.356   9.101 -2.8523 -0.5268  2.1184
   79MOL0     H10898  10.269   8.600   8.920  1.0119 -3.3835 -1.3368
   79MOL0     H10899  10.056   8.535   9.582 -1.2880 -0.0253 -4.1357
   79MOL0     H10900  10.224   8.587   9.736  1.7495  1.1384 -0.3105
   79MOL0     H10901  10.242   8.755   9.770  0.3532 -0.7091  2.5631
   79MOL0     H10902  10.170   8.638   9.889 -2.3880  0.4128  0.8881
   80MOL0     O10903   5.147   5.267   8.235  0.4289 -0.3415 -0.9300
   80MOL0     C10904   5.029   5.249   8.258  0.1909 -0.1957  0.3857
   80MOL0     O10905   4.929   5.331   8.213 -0.4673 -0.2249 -0.4362
   80MOL0     C10906   4.942   5.464   8.195  0.7554  0.8462 -0.1123
   80MOL0     C10907   5.042   5.546   8.249 -0.3743  0.0377 -0.3301
   80MOL0     C10908   5.044   5.684   8.240  0.5394  0.6112 -0.5232
   80MOL0     C10909   4.933   5.748   8.172 -0.3324  0.4782 -0.3724
   80MOL0     O10910   4.926   5.879   8.164 -0.1757  0.1794  0.2702
   80MOL0     C10911   4.800   5.941   8.137 -0.6096  0.6654  0.8713
   80MOL0     C10912   4.792   6.088   8.163 -0.7113 -1.1626 -0.3173
   80MOL0     C10913   4.861   6.173   8.048 -0.2244  0.4563  0.2139
   80MOL0     C10914   4.900   6.313   8.095 -0.8854 -0.2471  0.8858
   80MOL0     C10915   4.789   6.415   8.124  0.0185 -0.4433  0.0688
   80MOL0     C10916   4.833   6.554   8.167  1.0446  0.7719 -0.1447
   80MOL0     C10917   4.867   6.639   8.042  0.1115 -0.3017 -0.1330
   80MOL0     C10918   4.920   6.769   8.099  0.0487 -0.1027 -0.4289
   80MOL0     N10919   4.808   6.846   8.161  0.2218  0.4910  0.4888
   80MOL0     C10920   4.801   6.940   8.261 -0.4723 -0.8531 -0.1576
   80MOL0     C10921   4.669   6.990   8.255 -0.2337 -0.7061 -0.8922
   80MOL0     C10922   4.621   7.109   8.343 -0.6278 -0.0674 -0.0014
   80MOL0     C10923   4.669   7.246   8.291 -0.1258  0.5109  0.0044
   80MOL0     C10924   4.663   7.349   8.405  0.8128 -0.7856 -0.3564
   80MOL0     C10925   4.520   7.369   8.457 -0.6105  1.0436 -0.6250
   80MOL0     O10926   4.419   7.404   8.365 -0.6461 -0.1365  0.4122
   80MOL0     C10927   4.390   7.531   8.339 -0.7720  0.8532 -0.0361
   80MOL0     C10928   4.278   7.548   8.265  0.0266 -0.1785  0.3493
   80MOL0     C10929   4.239   7.678   8.239 -0.4589  0.0215 -0.2897
   80MOL0     C10930   4.115   7.690   8.168 -0.0635 -0.1492 -0.4723
   80MOL0     C10931   4.322   7.789   8.278 -0.0475  1.2514  0.5985
   80MOL0     C10932   4.280   7.934   8.279 -0.7060  1.2555  0.2670
   80MOL0     O10933   4.384   8.031   8.298 -0.6186 -0.2607  0.1265
   80MOL0     C10934   4.378   8.146   8.227 -0.5142 -0.0863  1.4022
   80MOL0     C10935   4.458   8.251   8.266 -0.0699 -0.0162  0.7240
   80MOL0     C10936   4.463   8.377   8.209  0.2266 -0.1849  1.2904
   80MOL0     C10937   4.376   8.401   8.100  0.3459  0.0477 -1.6119
   80MOL0     O10938   4.361   8.519   8.030 -0.0681  0.6154 -0.5159
   80MOL0     C10939   4.409   8.639   8.099 -0.2635 -0.7724  0.0156
   80MOL0     C10940   4.553   8.678   8.075  0.1995  0.5871 -0.3493
   80MOL0     C10941   4.586   8.705   7.919 -0.5208  0.2874 -0.5748
   80MOL0     C10942   4.644   8.842   7.895  1.1795  0.6285 -0.8238
   80MOL0     C10943   4.677   8.847   7.745 -0.4510 -0.2734 -0.2315
   80MOL0     C10944   4.770   8.968   7.707 -0.5707 -0.5619  0.1280
   80MOL0     C10945   4.925   8.943   7.701 -0.2505 -0.6847 -0.5144
   80MOL0     C10946   4.970   8.898   7.563  0.1180  0.3441 -0.3589
   80MOL0    Cl10947   4.923   8.728   7.520 -0.2529 -0.1981  0.0414
   80MOL0     C10948   4.304   8.298   8.045 -1.4193  0.7900  0.7952
   80MOL0     C10949   4.301   8.172   8.108  1.0024  0.1258 -0.5388
   80MOL0     O10950   4.158   7.961   8.272 -0.8112 -0.2061  0.3977
   80MOL0     C10951   4.453   7.762   8.313 -0.2838  0.6485 -0.2278
   80MOL0     C10952   4.482   7.633   8.364  0.6043  0.0366 -0.3575
   80MOL0     N10953   4.604   6.913   8.167 -0.3741  0.5278 -0.3933
   80MOL0     N10954   4.689   6.845   8.108 -0.0056  0.6004  0.1196
   80MOL0     C10955   4.839   5.671   8.114 -0.0266  0.1344 -0.1164
   80MOL0     C10956   4.843   5.532   8.124  0.1614 -0.0842  0.3079
   80MOL0     C10957   4.992   5.131   8.332  0.3651 -0.9059 -0.3671
   80MOL0     C10958   4.859   5.118   8.371  0.0888 -0.6650 -0.0188
   80MOL0     C10959   4.813   5.017   8.449  0.1017  0.2427 -0.9649
   80MOL0     C10960   4.886   4.903   8.477  0.3000  0.1059 -1.2667
   80MOL0     O10961   4.819   4.806   8.547 -0.1241 -0.3329 -0.7504
   80MOL0     C10962   4.871   4.677   8.557  0.5893  0.4744  0.7429
   80MOL0     C10963   4.846   4.604   8.429  0.8360 -0.1782 -0.4619
   80MOL0     C10964   4.894   4.457   8.440  0.9427 -0.6329  0.0266
   80MOL0     C10965   4.771   4.357   8.438  0.7476  1.5808  0.1956
   80MOL0     C10966   4.825   4.219   8.440  0.8105 -0.4026  0.6507
   80MOL0     C10967   4.865   4.108   8.439 -1.2347  0.3140 -0.9836
   80MOL0     C10968   5.013   4.896   8.421  0.2573 -0.0515 -1.1138
   80MOL0     C10969   5.069   5.015   8.365 -0.0811  0.1712 -0.4082
   80MOL0     C10970   5.209   4.992   8.329  0.1993 -0.3284  0.1430
   80MOL0     H10971   5.125   5.513   8.310 -0.5566  0.5452  0.1965
   80MOL0     H10972   5.121   5.744   8.288 -0.5101 -0.2820  2.4750
   80MOL0     H10973   4.722   5.876   8.177  0.1854 -2.5681 -2.3211
   80MOL0     H10974   4.786   5.932   8.029  2.2706 -0.9266  0.5378
   80MOL0     H10975   4.692   6.119   8.193  0.5313  1.5323  1.4223
   80MOL0     H10976   4.848   6.106   8.255  0.2721 -0.0936 -1.1026
   80MOL0     H10977   4.952   6.117   8.024 -0.8548  1.0453 -4.4557
   80MOL0     H10978   4.801   6.169   7.957 -1.0209 -2.3047  0.7611
   80MOL0     H10979   4.949   6.310   8.193 -1.0764 -3.4808  0.9832
   80MOL0     H10980   4.974   6.362   8.031 -0.1878 -2.3483 -0.0211
   80MOL0     H10981   4.729   6.373   8.205  0.2558  1.2789  1.1862
   80MOL0     H10982   4.721   6.429   8.039 -2.3103  1.7774  2.1551
   80MOL0     H10983   4.761   6.612   8.226  3.6685  2.2616  1.8451
   80MOL0     H10984   4.925   6.551   8.225  1.2093  0.5368 -0.4140
   80MOL0     H10985   4.774   6.662   7.989 -0.0118  1.5307  0.7996
   80MOL0     H10986   4.939   6.577   7.990 -0.3935 -2.2335  1.3565
   80MOL0     H10987   4.989   6.751   8.182 -0.8454  2.2191  0.9246
   80MOL0     H10988   4.972   6.817   8.016  2.4004 -5.1697 -2.2853
   80MOL0     H10989   4.880   6.989   8.318  0.2822  1.8240 -3.2079
   80MOL0     H10990   4.649   7.095   8.448 -1.3282 -3.6297 -0.1672
   80MOL0     H10991   4.512   7.114   8.339 -0.5500  1.7607 -0.5785
   80MOL0     H10992   4.775   7.244   8.265  0.5660  0.4349  2.6002
   80MOL0     H10993   4.604   7.279   8.210  0.4042 -1.1678 -1.1770
   80MOL0     H10994   4.734   7.325   8.485 -0.3687  3.9818  2.4831
   80MOL0     H10995   4.691   7.451   8.376 -2.8410  1.3346  2.6975
   80MOL0     H10996   4.486   7.283   8.515 -2.0269  2.2945  0.4994
   80MOL0     H10997   4.515   7.443   8.538  1.3507  0.3975  0.1519
   80MOL0     H10998   4.228   7.462   8.221 -0.8669  1.6304 -2.4807
   80MOL0     H10999   4.117   7.769   8.093  0.3995 -0.9910 -1.3736
   80MOL0     H11000   4.043   7.703   8.250  3.4386  3.4599  2.4214
   80MOL0     H11001   4.081   7.603   8.112 -1.1184 -0.1793  0.1813
   80MOL0     H11002   4.524   8.231   8.349  0.4423 -2.8538 -0.2542
   80MOL0     H11003   4.529   8.457   8.240 -0.9743  1.3814  0.0341
   80MOL0     H11004   4.347   8.720   8.060 -0.4562  0.7712  3.2117
   80MOL0     H11005   4.377   8.632   8.203  0.4338  2.2899  0.5222
   80MOL0     H11006   4.570   8.773   8.128 -0.1717  1.2032 -1.3051
   80MOL0     H11007   4.631   8.609   8.107  0.6082  2.0633  2.1540
   80MOL0     H11008   4.496   8.699   7.857  0.1739 -0.5584 -1.5382
   80MOL0     H11009   4.647   8.621   7.883 -0.5782  0.6604 -1.5805
   80MOL0     H11010   4.733   8.843   7.958  1.2536 -1.6954 -0.8045
   80MOL0     H11011   4.574   8.914   7.936 -0.4742  0.0113 -2.4037
   80MOL0     H11012   4.724   8.753   7.714  1.2437  1.3977 -3.0846
   80MOL0     H11013   4.586   8.840   7.685 -1.6930 -0.6049  1.6068
   80MOL0     H11014   4.747   9.054   7.771  2.8212  0.5236  0.1022
   80MOL0     H11015   4.737   8.998   7.607  1.3257 -3.0686 -1.3533
   80MOL0     H11016   4.965   8.881   7.781  2.1207  1.5533  0.2025
   80MOL0     H11017   4.977   9.039   7.714 -0.5108 -0.3940 -1.5400
   80MOL0     H11018   5.078   8.911   7.561  0.2848 -1.0033 -1.2814
   80MOL0     H11019   4.926   8.962   7.486 -0.4065 -0.1133 -0.4441
   80MOL0     H11020   4.239   8.333   7.965 -1.5835  1.9889  1.4286
   80MOL0     H11021   4.233   8.099   8.063 -0.4681  2.3811 -2.2121
   80MOL0     H11022   4.534   7.832   8.330 -0.3463  1.2764 -2.3156
   80MOL0     H11023   4.577   7.614   8.413  0.6335  1.4801  0.1757
   80MOL0     H11024   4.758   5.708   8.051  0.1441  1.4859  0.4268
   80MOL0     H11025   4.772   5.477   8.062  3.3429 -2.2075 -1.7550
   80MOL0     H11026   4.790   5.195   8.336 -0.3698 -0.9297  0.2974
   80MOL0     H11027   4.708   5.013   8.478  0.8049 -0.5293  1.7917
   80MOL0     H11028   4.980   4.680   8.565  0.7619  0.3077 -1.0746
   80MOL0     H11029   4.826   4.620   8.640 -1.6699  0.5675 -0.3388
   80MOL0     H11030   4.897   4.657   8.348  3.2088  0.0503  1.0860
   80MOL0     H11031   4.739   4.613   8.406  0.6829 -0.1212  0.2499
   80MOL0     H11032   4.961   4.427   8.359  0.3499  0.9322 -1.0971
   80MOL0     H11033   4.938   4.430   8.537  1.3143 -0.4695 -0.0959
   80MOL0     H11034   4.715   4.365   8.344 -1.5432  1.8626  1.5156
   80MOL0     H11035   4.692   4.388   8.507 -0.9996  3.5741 -2.5060
   80MOL0     H11036   4.923   4.018   8.438  1.3010  1.8488 -0.2775
   80MOL0     H11037   5.070   4.804   8.429  2.2057  1.1929  0.5410
   80MOL0     H11038   5.236   5.044   8.236 -2.3250  0.8549  0.0035
   80MOL0     H11039   5.276   5.019   8.411  2.5874 -2.2099 -1.0225
   80MOL0     H11040   5.234   4.886   8.315  1.6665 -0.0785  0.6157
   81MOL0     O11041   0.187  10.878   2.423  0.3985  0.3153  0.9665
   81MOL0     C11042   0.123  10.795   2.359  0.0341  0.0745  0.2262
   81MOL0     O11043   0.165  10.674   2.301 -0.0789  0.0398  0.4826
   81MOL0     C11044   0.287  10.627   2.340 -0.4820 -0.8092 -0.2760
   81MOL0     C11045   0.397  10.632   2.243  0.1864  0.8380 -0.2054
   81MOL0     C11046   0.522  10.612   2.277  0.4760 -0.3352 -0.9117
   81MOL0     C11047   0.549  10.563   2.409  0.0918 -0.2806 -0.3974
   81MOL0     O11048   0.668  10.513   2.455 -0.6983  0.0799 -0.6299
   81MOL0     C11049   0.784  10.563   2.398 -0.2550  0.2213 -0.7506
   81MOL0     C11050   0.909  10.514   2.475 -0.7652 -0.2623 -0.3961
   81MOL0     C11051   0.951  10.373   2.439  0.7278  0.3122 -0.0827
   81MOL0     C11052   1.061  10.323   2.532  0.4196 -0.3704 -0.7225
   81MOL0     C11053   1.119  10.188   2.508  0.4550 -0.0522  0.6488
   81MOL0     C11054   1.013  10.069   2.484 -0.1957 -0.2306  0.7680
   81MOL0     C11055   1.072   9.927   2.465  0.7454 -0.7297 -0.8139
   81MOL0     C11056   1.140   9.904   2.328  0.7388  0.1502 -0.0493
   81MOL0     N11057   1.162   9.764   2.289  0.1531 -0.3794 -0.5207
   81MOL0     C11058   1.196   9.668   2.369 -0.1877  0.8579 -1.5382
   81MOL0     C11059   1.169   9.545   2.311 -0.7750  0.1021 -0.3254
   81MOL0     C11060   1.185   9.408   2.368 -0.0595 -0.0157 -0.4653
   81MOL0     C11061   1.238   9.303   2.270  0.5364 -0.3615  0.2760
   81MOL0     C11062   1.288   9.179   2.341 -0.6533 -0.8960 -0.1129
   81MOL0     C11063   1.179   9.094   2.402  0.7656  0.3054 -1.2035
   81MOL0     O11064   1.244   8.985   2.457 -0.1202  0.4726  0.1881
   81MOL0     C11065   1.172   8.886   2.520 -0.3882  0.1176 -0.3561
   81MOL0     C11066   1.240   8.774   2.573 -0.5522 -0.2745  0.7420
   81MOL0     C11067   1.181   8.659   2.621 -0.6171 -1.3087 -0.1240
   81MOL0     C11068   1.277   8.547   2.670  0.2697 -0.2089  0.1555
   81MOL0     C11069   1.041   8.658   2.627 -0.0886  0.4185  1.4893
   81MOL0     C11070   0.970   8.555   2.703  0.3894  0.3532  0.1880
   81MOL0     O11071   0.841   8.582   2.747 -0.0516  0.3037 -0.8322
   81MOL0     C11072   0.766   8.501   2.824  0.2737 -0.2822 -0.5432
   81MOL0     C11073   0.806   8.435   2.935  0.6055  0.6637  0.3088
   81MOL0     C11074   0.721   8.361   3.023 -0.3384 -0.2576  0.2581
   81MOL0     C11075   0.587   8.362   2.994  0.9136  0.1732  0.5378
   81MOL0     O11076   0.492   8.293   3.068 -0.4343  0.0022  0.8287
   81MOL0     C11077   0.539   8.198   3.161 -0.7867  0.0102  0.3591
   81MOL0     C11078   0.442   8.090   3.186 -0.2958  0.6493 -1.4207
   81MOL0     C11079   0.484   7.992   3.299  0.3316 -0.0626  0.1218
   81MOL0     C11080   0.398   7.872   3.318  1.3988 -0.1308 -0.0967
   81MOL0     C11081   0.274   7.913   3.418 -0.0318 -0.6800 -0.2530
   81MOL0     C11082   0.165   7.806   3.430  0.2967  0.3680 -0.1644
   81MOL0     C11083   0.108   7.768   3.294 -0.2777 -0.4051 -0.1437
   81MOL0     C11084  -0.019   7.674   3.316 -0.4254  0.0315  0.2160
   81MOL0    Cl11085   0.038   7.509   3.316 -0.4778  0.1005 -0.0118
   81MOL0     C11086   0.543   8.417   2.876  0.3523 -0.3286 -0.2335
   81MOL0     C11087   0.626   8.480   2.797  0.5252 -0.4261 -0.4450
   81MOL0     O11088   1.028   8.447   2.727  0.1953  0.1004  0.1452
   81MOL0     C11089   0.966   8.770   2.591 -0.1631  0.3568  0.9501
   81MOL0     C11090   1.032   8.882   2.541 -0.1945  0.9887 -0.3960
   81MOL0     N11091   1.131   9.581   2.184 -1.2383 -0.1191  0.0479
   81MOL0     N11092   1.130   9.705   2.173  0.1685 -0.5055  0.0036
   81MOL0     C11093   0.450  10.553   2.506 -0.1748  0.6214 -0.6325
   81MOL0     C11094   0.318  10.590   2.473  0.4282 -0.6620  0.4112
   81MOL0     C11095  -0.010  10.840   2.329  0.4175 -0.0034 -0.3360
   81MOL0     C11096  -0.025  10.953   2.254 -0.5473 -0.5587 -0.4287
   81MOL0     C11097  -0.150  10.999   2.221 -0.2341  0.4032 -0.6978
   81MOL0     C11098  -0.266  10.931   2.261  0.7435  0.4215 -0.9289
   81MOL0     O11099  -0.389  10.980   2.219  0.1332 -0.2570 -0.4394
   81MOL0     C11100  -0.447  11.074   2.309 -0.4734  0.3398 -0.5615
   81MOL0     C11101  -0.522  11.170   2.217 -1.1962 -0.7662 -0.4030
   81MOL0     C11102  -0.611  11.280   2.285 -0.8020  0.1997 -0.4509
   81MOL0     C11103  -0.675  11.238   2.416  0.2979  0.2121 -0.4581
   81MOL0     C11104  -0.801  11.311   2.442 -0.4405  0.7780 -0.1046
   81MOL0     C11105  -0.905  11.365   2.472 -0.6135  0.4356  0.4762
   81MOL0     C11106  -0.249  10.798   2.318 -0.7106 -1.1048  0.3060
   81MOL0     C11107  -0.125  10.766   2.360 -0.7362  0.7295 -0.1432
   81MOL0     C11108  -0.118  10.643   2.453 -0.4219  0.3931 -0.1530
   81MOL0     H11109   0.386  10.673   2.143  3.8459  2.8887  0.0596
   81MOL0     H11110   0.597  10.609   2.199 -0.9046  0.4244 -2.2963
   81MOL0     H11111   0.768  10.670   2.417 -3.9885 -0.3158 -0.1585
   81MOL0     H11112   0.797  10.535   2.293  3.4332  0.6259 -0.5154
   81MOL0     H11113   0.995  10.574   2.443 -0.5789  0.3765  1.2248
   81MOL0     H11114   0.900  10.519   2.584  0.7016 -2.5211 -0.1152
   81MOL0     H11115   0.859  10.315   2.443  0.3295  0.8786 -0.9510
   81MOL0     H11116   0.981  10.378   2.334  0.5226 -1.8740 -0.3037
   81MOL0     H11117   1.136  10.403   2.528  1.6684 -1.4673 -0.0535
   81MOL0     H11118   1.017  10.312   2.631 -1.6364  0.2402 -1.5047
   81MOL0     H11119   1.184  10.158   2.591  2.5991 -1.5148 -1.4281
   81MOL0     H11120   1.184  10.201   2.421 -0.5918  0.1257 -0.1279
   81MOL0     H11121   0.945  10.072   2.569  1.0057  6.2911  1.9986
   81MOL0     H11122   0.965  10.079   2.386  4.0065 -2.1503 -1.7703
   81MOL0     H11123   0.986   9.860   2.471 -0.4094  0.4954 -2.6649
   81MOL0     H11124   1.131   9.894   2.550  0.7319 -2.0276 -1.2938
   81MOL0     H11125   1.067   9.944   2.257  1.2555  0.4298 -0.4312
   81MOL0     H11126   1.234   9.959   2.330 -0.2837  2.0344  2.9635
   81MOL0     H11127   1.221   9.689   2.472  0.7900  0.5282 -1.7038
   81MOL0     H11128   1.089   9.369   2.404  0.0621 -1.6463 -1.7910
   81MOL0     H11129   1.246   9.432   2.456  0.4815  2.7849 -1.5033
   81MOL0     H11130   1.155   9.291   2.200 -1.4252  3.2516  1.6910
   81MOL0     H11131   1.322   9.341   2.211  2.1106 -1.6074  1.6386
   81MOL0     H11132   1.344   9.118   2.269  0.5009 -1.2959  1.0831
   81MOL0     H11133   1.352   9.216   2.421 -1.1685  1.7849 -0.8655
   81MOL0     H11134   1.112   9.146   2.470  0.8614 -2.4206  1.1341
   81MOL0     H11135   1.106   9.064   2.326 -1.2260  3.1282 -0.5723
   81MOL0     H11136   1.349   8.769   2.574 -0.5590 -0.5792  0.1275
   81MOL0     H11137   1.294   8.464   2.601 -3.7852 -0.4150 -0.8412
   81MOL0     H11138   1.250   8.517   2.772  2.6914 -0.7906  0.6907
   81MOL0     H11139   1.377   8.590   2.678 -0.4215  1.1306  2.5370
   81MOL0     H11140   0.911   8.445   2.961  0.5514 -0.1298  0.8682
   81MOL0     H11141   0.765   8.316   3.111  1.6458  1.3393  0.1769
   81MOL0     H11142   0.633   8.151   3.133  0.1342  0.4111  2.5635
   81MOL0     H11143   0.554   8.253   3.254  1.1921  0.5847 -0.2650
   81MOL0     H11144   0.359   8.147   3.229 -0.5524 -0.6325 -0.1494
   81MOL0     H11145   0.423   8.045   3.087 -1.3184  1.6905 -1.7185
   81MOL0     H11146   0.504   8.048   3.391 -0.3497  0.5332 -0.0937
   81MOL0     H11147   0.581   7.943   3.281  0.2132 -1.0929  2.0161
   81MOL0     H11148   0.450   7.781   3.348 -1.9561 -2.5488 -1.0451
   81MOL0     H11149   0.372   7.854   3.214  0.4939 -0.4804  0.1814
   81MOL0     H11150   0.299   7.938   3.522 -3.8147  0.5620  0.5013
   81MOL0     H11151   0.224   8.006   3.388  1.7627  0.4816  0.1366
   81MOL0     H11152   0.080   7.847   3.486 -0.3606 -0.0910 -0.7896
   81MOL0     H11153   0.194   7.710   3.475 -2.4360  0.5627  2.3046
   81MOL0     H11154   0.178   7.699   3.247 -1.0693 -2.0380  0.9876
   81MOL0     H11155   0.079   7.853   3.231 -0.0946  0.8697  1.4168
   81MOL0     H11156  -0.101   7.702   3.250 -2.5156  2.1837  3.4053
   81MOL0     H11157  -0.068   7.693   3.412  0.6460 -1.9087  1.2141
   81MOL0     H11158   0.442   8.391   2.845  0.4236 -0.1866 -0.5881
   81MOL0     H11159   0.578   8.531   2.714  1.8911 -1.0585 -1.6759
   81MOL0     H11160   0.858   8.771   2.590 -0.1726  0.6690 -1.1553
   81MOL0     H11161   0.953   8.949   2.511 -1.6785  0.0856  1.3163
   81MOL0     H11162   0.469  10.501   2.599 -1.1197  0.0896 -0.7324
   81MOL0     H11163   0.231  10.581   2.538  0.4465 -2.0832  0.2539
   81MOL0     H11164   0.068  11.008   2.243 -2.2588  3.2991  2.2880
   81MOL0     H11165  -0.161  11.092   2.167 -2.8166 -0.9246 -2.6503
   81MOL0     H11166  -0.519  11.010   2.362  1.7038 -2.7772 -1.0744
   81MOL0     H11167  -0.370  11.122   2.368 -2.4600  4.0660 -0.7346
   81MOL0     H11168  -0.598  11.125   2.152 -2.2601  0.3130  0.0570
   81MOL0     H11169  -0.446  11.212   2.151  1.2719 -1.0958  2.0353
   81MOL0     H11170  -0.545  11.364   2.307 -2.4342  2.0777 -2.2570
   81MOL0     H11171  -0.687  11.317   2.216  0.5694 -1.8201 -3.2096
   81MOL0     H11172  -0.612  11.247   2.504  1.7047 -0.8668 -1.3123
   81MOL0     H11173  -0.685  11.131   2.395  0.8102 -0.2973  1.6927
   81MOL0     H11174  -0.980  11.437   2.497  0.1251  1.7928 -1.0334
   81MOL0     H11175  -0.341  10.742   2.332 -1.9412  0.3645 -1.3739
   81MOL0     H11176  -0.067  10.561   2.400  2.1760  1.2105  0.9335
   81MOL0     H11177  -0.062  10.679   2.540 -0.8576  2.3120 -0.6305
   81MOL0     H11178  -0.220  10.615   2.484  0.1168 -0.1431  1.2282
   82MOL0     O11179  10.261   8.942   5.397  0.4440 -0.2058 -0.3035
   82MOL0     C11180  10.251   9.047   5.327  0.0854 -0.0172  0.5501
   82MOL0     O11181  10.147   9.074   5.231 -0.2889  0.0722 -0.2337
   82MOL0     C11182  10.058   8.977   5.190  0.6437 -0.2439 -0.1845
   82MOL0     C11183  10.027   8.951   5.056  1.0470  1.0189  0.8495
   82MOL0     C11184   9.934   8.851   5.026 -0.5483 -0.0453 -0.0803
   82MOL0     C11185   9.877   8.776   5.125 -0.5068  0.3047 -0.4854
   82MOL0     O11186   9.802   8.676   5.081  0.5737  0.6535  0.2464
   82MOL0     C11187   9.776   8.561   5.172  0.6906 -1.2241 -0.0381
   82MOL0     C11188   9.905   8.475   5.191  0.3147 -0.7811 -0.5763
   82MOL0     C11189   9.910   8.365   5.297  0.5142 -0.1846 -0.6439
   82MOL0     C11190   9.888   8.216   5.259 -0.3620  0.0079  0.5883
   82MOL0     C11191   9.752   8.192   5.193 -0.5977 -0.5556 -0.0604
   82MOL0     C11192   9.633   8.194   5.290  0.8551 -0.8114 -0.5869
   82MOL0     C11193   9.507   8.184   5.208  0.1582 -1.3002  0.4434
   82MOL0     C11194   9.465   8.036   5.179 -0.4509 -0.0820 -0.0663
   82MOL0     N11195   9.458   7.942   5.294  0.3740 -1.0900 -0.6335
   82MOL0     C11196   9.363   7.948   5.394  0.6145 -0.3514  0.6663
   82MOL0     C11197   9.394   7.852   5.476 -0.4752  0.1812  0.6454
   82MOL0     C11198   9.320   7.806   5.591 -0.9023 -0.4121 -0.6333
   82MOL0     C11199   9.358   7.896   5.708  0.3595 -0.5552 -0.4416
   82MOL0     C11200   9.482   7.842   5.773 -0.6283  0.1813 -0.3976
   82MOL0     C11201   9.454   7.742   5.880  0.3992 -0.0422 -0.2639
   82MOL0     O11202   9.336   7.777   5.960 -0.0031  0.0988 -0.2986
   82MOL0     C11203   9.283   7.685   6.051  0.2741 -0.1025  0.8618
   82MOL0     C11204   9.151   7.713   6.101  0.0473 -0.0396 -0.8442
   82MOL0     C11205   9.093   7.629   6.195  1.8459 -0.2314 -0.0395
   82MOL0     C11206   8.946   7.659   6.235 -0.6348 -0.1455 -0.2000
   82MOL0     C11207   9.160   7.526   6.253  0.1136 -1.2225 -0.1386
   82MOL0     C11208   9.110   7.454   6.372  0.1601 -0.4318  0.4265
   82MOL0     O11209   9.153   7.320   6.396  0.9503 -0.1241  0.1822
   82MOL0     C11210   9.077   7.249   6.486 -0.5346  0.2708 -0.1847
   82MOL0     C11211   9.099   7.265   6.625 -0.4571 -0.6503 -0.2511
   82MOL0     C11212   9.033   7.177   6.711  0.7027  0.6420  0.0283
   82MOL0     C11213   8.957   7.074   6.672  0.7781 -0.6247  0.1216
   82MOL0     O11214   8.894   6.989   6.764 -0.1866  0.5327  0.6604
   82MOL0     C11215   8.800   6.881   6.737 -0.6326  0.5036 -0.3776
   82MOL0     C11216   8.726   6.835   6.859  0.2222 -0.5801  0.0078
   82MOL0     C11217   8.614   6.733   6.825 -0.1452  0.5881  0.1831
   82MOL0     C11218   8.636   6.590   6.879 -1.5581 -0.1654 -0.3267
   82MOL0     C11219   8.527   6.494   6.843 -0.4659  0.5693  0.4367
   82MOL0     C11220   8.554   6.359   6.915  0.1162 -0.0694 -1.3351
   82MOL0     C11221   8.453   6.243   6.885  0.3735  0.1652 -0.2928
   82MOL0     C11222   8.465   6.117   6.973 -0.1746 -0.0062 -0.2168
   82MOL0    Cl11223   8.594   6.020   6.906  0.2718  0.5855 -0.0584
   82MOL0     C11224   8.933   7.063   6.530 -0.4959  1.2926 -0.1456
   82MOL0     C11225   8.991   7.146   6.442 -1.5703  0.6586 -0.9478
   82MOL0     O11226   9.049   7.521   6.451 -0.2161  0.0380 -0.4993
   82MOL0     C11227   9.287   7.490   6.198  0.4988 -0.7061 -1.2452
   82MOL0     C11228   9.348   7.569   6.101 -0.2320  0.5986  0.1019
   82MOL0     N11229   9.511   7.785   5.432  0.3712  0.3938 -0.2772
   82MOL0     N11230   9.549   7.845   5.328 -0.2000 -0.4397  0.1141
   82MOL0     C11231   9.894   8.818   5.256  1.0752  0.2687  0.9270
   82MOL0     C11232   9.965   8.923   5.284  0.5381  0.6845  0.1064
   82MOL0     C11233  10.354   9.152   5.318  0.3677 -0.4589  0.5797
   82MOL0     C11234  10.352   9.244   5.423 -0.4145 -0.2059 -0.1915
   82MOL0     C11235  10.447   9.357   5.425 -0.3112 -0.2538  0.4670
   82MOL0     C11236  10.543   9.360   5.325  0.6568  0.2672 -0.1046
   82MOL0     O11237  10.641   9.453   5.327 -1.3489  0.3322 -0.0542
   82MOL0     C11238  10.723   9.486   5.452  1.3580 -0.5954  0.3470
   82MOL0     C11239  10.856   9.429   5.421 -0.4392  1.2688  0.5800
   82MOL0     C11240  10.958   9.479   5.533 -1.1168  0.3827  0.8057
   82MOL0     C11241  11.073   9.541   5.464 -0.4710 -0.5457  0.4200
   82MOL0     C11242  11.159   9.617   5.554  0.0060  0.3516 -0.3721
   82MOL0     C11243  11.232   9.653   5.640 -0.4779 -1.2522  1.2839
   82MOL0     C11244  10.526   9.276   5.212  0.1004  0.1433 -0.5321
   82MOL0     C11245  10.439   9.169   5.203  0.4455 -0.2020  0.2111
   82MOL0     C11246  10.438   9.081   5.076  0.0814  0.3979 -0.8489
   82MOL0     H11247  10.085   8.992   4.974  2.2545  0.5276  1.4432
   82MOL0     H11248   9.913   8.821   4.923 -1.0835 -1.2698  0.3621
   82MOL0     H11249   9.706   8.508   5.106  0.5107 -1.3206  0.2289
   82MOL0     H11250   9.725   8.589   5.264  1.4846 -1.9638  0.6360
   82MOL0     H11251   9.935   8.427   5.097  0.1830  1.3058 -1.7659
   82MOL0     H11252   9.971   8.558   5.220 -0.7704 -0.2687  0.4988
   82MOL0     H11253  10.012   8.361   5.336  0.1239 -0.0874  0.4210
   82MOL0     H11254   9.842   8.385   5.380  0.3573 -0.9926 -0.5668
   82MOL0     H11255   9.973   8.185   5.198  0.3384 -0.3781  1.7264
   82MOL0     H11256   9.892   8.149   5.346 -1.1109 -2.5127 -1.1990
   82MOL0     H11257   9.749   8.091   5.152 -0.4295 -0.7456  0.3874
   82MOL0     H11258   9.728   8.269   5.120 -1.7376  0.5635  1.4313
   82MOL0     H11259   9.641   8.116   5.366  0.2458 -2.0413 -1.7332
   82MOL0     H11260   9.629   8.293   5.336  2.3275 -0.0530 -1.9712
   82MOL0     H11261   9.526   8.235   5.112  0.5245  2.4768  2.3374
   82MOL0     H11262   9.432   8.240   5.263  1.1290  0.7067 -0.1836
   82MOL0     H11263   9.365   8.036   5.135 -1.0067  2.6923  0.9468
   82MOL0     H11264   9.533   7.991   5.107 -0.4360 -1.0184  0.5116
   82MOL0     H11265   9.284   8.022   5.394 -0.8946 -1.8510  2.0270
   82MOL0     H11266   9.338   7.699   5.603  4.2335  0.5548  4.2948
   82MOL0     H11267   9.214   7.830   5.583 -0.8563  1.7062  3.1352
   82MOL0     H11268   9.380   7.999   5.679 -0.1100 -0.5036 -0.6162
   82MOL0     H11269   9.264   7.907   5.763  0.1123 -1.9283 -0.5311
   82MOL0     H11270   9.553   7.797   5.702 -1.1869 -3.4361  1.1273
   82MOL0     H11271   9.530   7.926   5.825  1.6648 -1.3746  0.1570
   82MOL0     H11272   9.431   7.650   5.825 -0.6833 -1.3053  2.1699
   82MOL0     H11273   9.536   7.720   5.948 -1.9942 -0.4209  2.7243
   82MOL0     H11274   9.112   7.810   6.074  2.4083  1.7354  1.5813
   82MOL0     H11275   8.962   7.709   6.330  0.5395 -1.9044  0.5970
   82MOL0     H11276   8.868   7.582   6.240 -1.4638  0.6544 -0.4880
   82MOL0     H11277   8.901   7.723   6.159 -0.0572  3.1800  2.0614
   82MOL0     H11278   9.167   7.336   6.668 -3.6617  2.1445  0.6581
   82MOL0     H11279   9.061   7.188   6.815 -0.8333 -1.2259  0.7113
   82MOL0     H11280   8.724   6.922   6.669 -2.6279 -0.5104  1.1286
   82MOL0     H11281   8.862   6.797   6.705 -0.3635  0.2394  0.7898
   82MOL0     H11282   8.796   6.795   6.932 -0.0491 -1.5429 -0.2454
   82MOL0     H11283   8.671   6.918   6.904  1.4477  1.4222 -1.9959
   82MOL0     H11284   8.613   6.726   6.715  3.2158  1.9607 -0.0407
   82MOL0     H11285   8.511   6.761   6.850 -0.2491  1.0022 -0.6592
   82MOL0     H11286   8.670   6.580   6.983  2.4455  0.0412 -1.4509
   82MOL0     H11287   8.728   6.559   6.830  1.4388  2.4638  3.0800
   82MOL0     H11288   8.429   6.533   6.869 -1.3461 -1.4021  0.2518
   82MOL0     H11289   8.519   6.487   6.734 -1.7262 -0.5294  0.5728
   82MOL0     H11290   8.558   6.386   7.021  1.1110 -1.8376 -0.8716
   82MOL0     H11291   8.652   6.323   6.882 -0.4678 -3.1621 -0.0835
   82MOL0     H11292   8.452   6.208   6.781 -0.2136  1.4276 -0.7337
   82MOL0     H11293   8.348   6.271   6.901 -0.0820 -2.1942  1.6133
   82MOL0     H11294   8.371   6.064   6.988 -2.4697  3.2150 -1.9356
   82MOL0     H11295   8.498   6.160   7.068  0.0781  1.1895 -0.8283
   82MOL0     H11296   8.866   6.988   6.490 -0.7867  0.8670  1.1082
   82MOL0     H11297   9.001   7.120   6.337 -0.4672 -1.6171 -0.3515
   82MOL0     H11298   9.343   7.409   6.245 -4.4842 -3.4726  0.7405
   82MOL0     H11299   9.443   7.537   6.060 -0.1881  1.5088 -0.5606
   82MOL0     H11300   9.845   8.771   5.340 -0.4267  0.1686  0.0372
   82MOL0     H11301   9.968   8.971   5.382  0.4937  1.7147 -0.3839
   82MOL0     H11302  10.276   9.236   5.500  0.0973  1.4704  0.5483
   82MOL0     H11303  10.455   9.433   5.502  1.9133  0.0467 -0.0177
   82MOL0     H11304  10.710   9.594   5.464 -3.4870 -0.8882 -0.3110
   82MOL0     H11305  10.686   9.448   5.548 -2.1119  1.1267 -0.1554
   82MOL0     H11306  10.887   9.471   5.325 -2.2114 -0.7672 -0.9895
   82MOL0     H11307  10.854   9.320   5.419 -3.0395  1.2164 -2.3464
   82MOL0     H11308  10.914   9.558   5.595  1.7968 -0.7516  4.7674
   82MOL0     H11309  10.992   9.392   5.590 -0.2708  1.5866  2.2320
   82MOL0     H11310  11.030   9.609   5.390 -0.1587 -1.9348 -1.0987
   82MOL0     H11311  11.134   9.464   5.417 -1.0052  0.5300 -2.1986
   82MOL0     H11312  11.287   9.666   5.731 -1.3969  0.4570  1.6149
   82MOL0     H11313  10.598   9.276   5.131  0.0927 -1.1119 -0.5625
   82MOL0     H11314  10.415   9.133   4.982  3.4515 -1.3481 -2.8363
   82MOL0     H11315  10.538   9.037   5.070  0.2309  0.3711  1.0858
   82MOL0     H11316  10.379   8.991   5.094 -1.2756  1.4849  0.3886
   83MOL0     O11317   8.060   3.161  10.364  0.2364 -0.1146 -0.3269
   83MOL0     C11318   7.985   3.059  10.357  0.4646  0.4001  0.6217
   83MOL0     O11319   7.853   3.052  10.395 -0.1758 -0.2015 -0.1434
   83MOL0     C11320   7.805   3.161  10.465  0.0791 -0.9306 -0.3932
   83MOL0     C11321   7.829   3.170  10.600 -0.7211 -0.2934 -0.0988
   83MOL0     C11322   7.796   3.290  10.671 -0.0894  0.8625  0.3317
   83MOL0     C11323   7.728   3.390  10.612  0.4079 -0.7067 -0.3716
   83MOL0     O11324   7.725   3.513  10.670 -0.0002 -0.8468 -1.2957
   83MOL0     C11325   7.619   3.605  10.639  0.7198 -0.4234  0.9165
   83MOL0     C11326   7.619   3.718  10.732 -0.8998  0.4628 -0.2506
   83MOL0     C11327   7.671   3.678  10.871  0.1154  0.0378 -0.6587
   83MOL0     C11328   7.570   3.584  10.940  0.3100 -0.1543 -0.4886
   83MOL0     C11329   7.628   3.521  11.071 -0.6047  0.3700 -0.1775
   83MOL0     C11330   7.513   3.426  11.123 -0.7027  0.4293 -0.4475
   83MOL0     C11331   7.573   3.346  11.254 -0.2732 -0.7644  0.1148
   83MOL0     C11332   7.469   3.256  11.307  0.8435  0.4254 -0.3236
   83MOL0     N11333   7.497   3.177  11.424 -1.0677 -0.8137 -0.4963
   83MOL0     C11334   7.599   3.078  11.432 -0.1947 -0.8049  0.0504
   83MOL0     C11335   7.600   3.051  11.568 -0.4860 -0.2905  0.0174
   83MOL0     C11336   7.706   2.968  11.632  0.5686  0.3503 -0.2174
   83MOL0     C11337   7.655   2.848  11.716 -0.0861  0.5792 -0.9816
   83MOL0     C11338   7.539   2.774  11.650  0.2337  0.0524  0.7130
   83MOL0     C11339   7.517   2.641  11.720 -0.8762 -0.1428  0.4272
   83MOL0     O11340   7.427   2.554  11.654  0.1914 -0.7882 -0.1585
   83MOL0     C11341   7.292   2.555  11.672  0.0885 -1.0100 -0.4177
   83MOL0     C11342   7.222   2.654  11.745  0.8511 -0.3910  0.4704
   83MOL0     C11343   7.084   2.653  11.774 -0.5778 -0.5143 -0.7827
   83MOL0     C11344   7.026   2.757  11.855  0.6831  0.2637 -1.3765
   83MOL0     C11345   7.013   2.541  11.715 -0.4979 -0.0664 -0.0011
   83MOL0     C11346   6.868   2.516  11.727 -0.8242  0.6181 -0.3228
   83MOL0     O11347   6.840   2.386  11.694  0.2227  0.2426  0.1616
   83MOL0     C11348   6.714   2.335  11.699  0.9478 -0.0246  0.5074
   83MOL0     C11349   6.652   2.300  11.818  0.0689  0.6084 -0.7276
   83MOL0     C11350   6.527   2.239  11.826 -0.0828 -0.2637  0.1729
   83MOL0     C11351   6.450   2.213  11.719  0.2591  0.3617  1.3555
   83MOL0     O11352   6.325   2.161  11.724  0.3282  0.5955  0.8107
   83MOL0     C11353   6.282   2.102  11.856  0.0284 -0.0310  0.5453
   83MOL0     C11354   6.142   2.041  11.843  0.0440 -1.2534  0.0290
   83MOL0     C11355   6.025   2.133  11.815  0.2328 -0.0280 -0.4572
   83MOL0     C11356   5.917   2.146  11.929  0.6386  1.2014 -0.5007
   83MOL0     C11357   5.803   2.236  11.885  0.3608 -0.0885 -0.5757
   83MOL0     C11358   5.673   2.155  11.876 -0.3041  0.2352  0.3479
   83MOL0     C11359   5.672   2.070  11.738 -0.2482 -0.8793 -0.1282
   83MOL0     C11360   5.537   2.016  11.687 -0.0260  1.0929 -0.0085
   83MOL0    Cl11361   5.480   1.891  11.814  0.0391  0.1459 -0.2567
   83MOL0     C11362   6.512   2.246  11.597  0.5465 -0.8754  0.6439
   83MOL0     C11363   6.641   2.299  11.584  0.8200 -0.7091  0.3448
   83MOL0     O11364   6.790   2.599  11.769  0.3936  0.2132  0.4283
   83MOL0     C11365   7.087   2.448  11.639 -0.0665  0.6287  0.3078
   83MOL0     C11366   7.225   2.451  11.621 -0.2805 -0.5110  0.3761
   83MOL0     N11367   7.482   3.105  11.622  0.2374 -0.0157 -1.0881
   83MOL0     N11368   7.415   3.178  11.538 -0.1763 -0.3094  0.2146
   83MOL0     C11369   7.684   3.376  10.477 -0.3565 -0.4598  0.7278
   83MOL0     C11370   7.734   3.269  10.397  0.2798 -0.6497  0.1638
   83MOL0     C11371   8.043   2.924  10.311  0.0094  0.0297  0.3325
   83MOL0     C11372   8.022   2.811  10.386 -0.1482 -0.1519 -0.3719
   83MOL0     C11373   8.085   2.691  10.352 -0.0933  0.7034 -0.2941
   83MOL0     C11374   8.155   2.678  10.227 -0.6278  0.2933  0.1297
   83MOL0     O11375   8.196   2.552  10.182  0.1602 -0.3904  0.2623
   83MOL0     C11376   8.291   2.543  10.078  0.1238  0.3794  0.0274
   83MOL0     C11377   8.347   2.402  10.083 -0.4794  0.2000 -1.6293
   83MOL0     C11378   8.260   2.291  10.032  0.1434  0.3366  0.5957
   83MOL0     C11379   8.337   2.194   9.948  1.1215 -0.0975 -0.4764
   83MOL0     C11380   8.241   2.086   9.892 -0.3553  0.0191 -0.3619
   83MOL0     C11381   8.171   1.999   9.870 -0.2218  1.3561  0.5053
   83MOL0     C11382   8.181   2.794  10.153 -0.6710 -1.0923 -1.3055
   83MOL0     C11383   8.126   2.918  10.197 -1.2487 -0.6227  0.8211
   83MOL0     C11384   8.165   3.033  10.104  0.6120 -0.9072 -0.2977
   83MOL0     H11385   7.897   3.093  10.635  1.2839 -0.7501 -4.2858
   83MOL0     H11386   7.837   3.311  10.770  0.6254 -2.3714  0.8231
   83MOL0     H11387   7.519   3.561  10.646 -0.1927  1.4239  0.3032
   83MOL0     H11388   7.638   3.629  10.534 -2.7044 -0.5484  0.1490
   83MOL0     H11389   7.696   3.787  10.694 -0.9075  0.3455 -0.4824
   83MOL0     H11390   7.530   3.779  10.713 -0.5382  0.4498 -2.2199
   83MOL0     H11391   7.768   3.627  10.876  0.9592  1.6423  2.2720
   83MOL0     H11392   7.680   3.768  10.934  2.7487 -0.3116 -0.3962
   83MOL0     H11393   7.481   3.644  10.961 -0.0955 -0.3952 -1.4526
   83MOL0     H11394   7.542   3.502  10.873  0.3943  0.7678 -1.7092
   83MOL0     H11395   7.642   3.597  11.149  0.0840  1.0266 -0.9381
   83MOL0     H11396   7.717   3.462  11.050  1.5747  4.0909 -2.3539
   83MOL0     H11397   7.419   3.476  11.146 -1.1121 -0.9135  1.0381
   83MOL0     H11398   7.481   3.345  11.057  0.3573 -0.1176 -0.3063
   83MOL0     H11399   7.607   3.416  11.331  0.6784  0.8593 -1.6739
   83MOL0     H11400   7.674   3.305  11.248  1.9543  3.7450  1.7949
   83MOL0     H11401   7.388   3.323  11.338  1.8157 -0.0780  3.9069
   83MOL0     H11402   7.432   3.191  11.227  2.9028  1.3257 -2.1319
   83MOL0     H11403   7.670   3.050  11.356  3.2769  3.5191  1.3371
   83MOL0     H11404   7.782   3.023  11.687 -0.9828 -0.3445  2.7942
   83MOL0     H11405   7.765   2.920  11.553  0.2830  0.9170 -0.7821
   83MOL0     H11406   7.735   2.774  11.725 -1.7278 -1.0983  0.9100
   83MOL0     H11407   7.616   2.877  11.815 -2.4010 -0.1255 -1.6190
   83MOL0     H11408   7.446   2.830  11.665  1.4604  1.6168  3.1135
   83MOL0     H11409   7.561   2.759  11.544 -1.1927  0.6191  0.3161
   83MOL0     H11410   7.611   2.586  11.730 -1.7649 -1.5730  1.1411
   83MOL0     H11411   7.465   2.663  11.814  1.6342  1.2163  1.5875
   83MOL0     H11412   7.271   2.749  11.761 -1.4569  1.4737 -2.5126
   83MOL0     H11413   6.948   2.814  11.804 -1.0529 -2.4842 -1.9895
   83MOL0     H11414   7.104   2.820  11.899  1.7024 -1.6644 -0.2530
   83MOL0     H11415   6.978   2.705  11.939  4.0900 -0.1740  0.4825
   83MOL0     H11416   6.697   2.323  11.914 -1.9195 -0.6565  0.5839
   83MOL0     H11417   6.490   2.224  11.927 -1.4363 -3.0470 -0.6314
   83MOL0     H11418   6.350   2.023  11.890  1.8950 -0.7240 -4.0173
   83MOL0     H11419   6.277   2.180  11.932  3.7316  1.1792 -0.2474
   83MOL0     H11420   6.152   1.976  11.755 -0.9580  1.1034 -1.9270
   83MOL0     H11421   6.109   1.983  11.930 -1.8225 -1.9882 -1.0926
   83MOL0     H11422   5.978   2.104  11.721  0.7029 -0.0040 -0.7016
   83MOL0     H11423   6.069   2.229  11.785 -1.1854  0.8967  0.2585
   83MOL0     H11424   5.967   2.173  12.022  0.1619  0.4133 -0.0054
   83MOL0     H11425   5.880   2.043  11.931  3.0327  0.1447 -3.2379
   83MOL0     H11426   5.781   2.311  11.962 -4.2235 -3.5626  2.0493
   83MOL0     H11427   5.826   2.288  11.792 -0.7412 -3.3883 -2.8650
   83MOL0     H11428   5.586   2.221  11.873  0.6230  1.4732 -1.6349
   83MOL0     H11429   5.660   2.084  11.957 -0.8555  0.5495  0.5342
   83MOL0     H11430   5.745   1.989  11.738 -1.4857 -2.0768 -2.2243
   83MOL0     H11431   5.707   2.136  11.658 -0.6946 -0.8406 -0.2925
   83MOL0     H11432   5.539   1.969  11.588 -3.3580  2.1753 -0.7075
   83MOL0     H11433   5.463   2.095  11.673 -5.0263 -3.0286  0.3815
   83MOL0     H11434   6.461   2.241  11.501  1.8461  0.5743 -0.1674
   83MOL0     H11435   6.678   2.318  11.484  1.3563 -1.5765  0.3759
   83MOL0     H11436   7.052   2.362  11.583 -0.1034 -1.5298  3.4041
   83MOL0     H11437   7.273   2.366  11.574  1.0856 -0.8027  2.1975
   83MOL0     H11438   7.625   3.453  10.429  1.5561 -0.2202 -1.4729
   83MOL0     H11439   7.723   3.267  10.289  1.5687  4.2557 -0.2704
   83MOL0     H11440   7.959   2.801  10.473  2.8836  0.7820  2.1265
   83MOL0     H11441   8.062   2.607  10.417  0.2136  0.7354 -0.1390
   83MOL0     H11442   8.242   2.567   9.982  0.6006  4.3472  0.5896
   83MOL0     H11443   8.377   2.610  10.087  0.3067  0.2664 -0.8061
   83MOL0     H11444   8.385   2.374  10.182  0.7515  1.6697 -1.6548
   83MOL0     H11445   8.428   2.416  10.011  1.0586 -0.2544 -0.0399
   83MOL0     H11446   8.221   2.245  10.123  0.6300 -1.6785 -0.1553
   83MOL0     H11447   8.168   2.324   9.982 -1.6857 -0.2373  3.4057
   83MOL0     H11448   8.434   2.158   9.983  1.7767 -0.3388 -2.3944
   83MOL0     H11449   8.370   2.260   9.867  1.6094  1.3178  0.8180
   83MOL0     H11450   8.103   1.920   9.848 -0.7443  1.4593  1.6808
   83MOL0     H11451   8.236   2.799  10.060  2.6087  3.4464  0.5027
   83MOL0     H11452   8.270   3.061  10.094  0.3332  0.7974  0.9581
   83MOL0     H11453   8.120   3.017  10.006  2.3838 -0.3633 -1.2472
   83MOL0     H11454   8.128   3.130  10.140 -0.0501 -1.3597  0.2695
   84MOL0     O11455   6.622   4.584   1.314  0.2907 -0.9883  0.5252
   84MOL0     C11456   6.624   4.621   1.435 -0.2229  0.4717 -0.7073
   84MOL0     O11457   6.730   4.669   1.505 -0.1704  0.6984  0.3841
   84MOL0     C11458   6.854   4.698   1.448 -0.2686  0.7719 -1.0779
   84MOL0     C11459   6.875   4.731   1.308 -0.1077 -0.5714 -0.0786
   84MOL0     C11460   7.001   4.743   1.257  0.2504 -0.0830 -0.4922
   84MOL0     C11461   7.118   4.748   1.336  0.6003  0.5610 -1.0101
   84MOL0     O11462   7.247   4.766   1.291 -0.3728 -0.7589  0.8058
   84MOL0     C11463   7.295   4.813   1.165 -0.6653 -0.2557  0.9472
   84MOL0     C11464   7.412   4.737   1.104  0.6392  0.5499 -0.3629
   84MOL0     C11465   7.531   4.734   1.201 -0.3311 -0.4261  0.2158
   84MOL0     C11466   7.667   4.713   1.142  0.3673 -0.0988  1.2367
   84MOL0     C11467   7.769   4.697   1.250 -0.4850  0.3160 -0.1358
   84MOL0     C11468   7.909   4.672   1.165  0.4138 -0.3591  0.2930
   84MOL0     C11469   8.039   4.731   1.233  0.0690 -0.0686  0.7866
   84MOL0     C11470   8.041   4.886   1.197 -0.6315  0.6143  0.2890
   84MOL0     N11471   8.117   4.967   1.299 -0.1678  0.3079 -0.3666
   84MOL0     C11472   8.074   4.991   1.423 -0.3194 -0.1254 -0.3313
   84MOL0     C11473   8.171   5.061   1.480 -0.0814 -0.3683 -0.5747
   84MOL0     C11474   8.151   5.112   1.622 -0.0370 -0.6746  0.0312
   84MOL0     C11475   8.130   5.264   1.600  0.2965 -1.6454 -0.2501
   84MOL0     C11476   8.062   5.321   1.725 -1.1825 -0.1146  0.3172
   84MOL0     C11477   8.050   5.470   1.729 -0.7693  0.2407 -1.3678
   84MOL0     O11478   7.923   5.502   1.790 -0.4823  0.7371 -0.6271
   84MOL0     C11479   7.839   5.561   1.703  0.1687 -0.2021  0.0980
   84MOL0     C11480   7.760   5.663   1.755 -0.6394 -1.3687  0.6899
   84MOL0     C11481   7.671   5.735   1.682 -0.0397  0.4594 -0.5944
   84MOL0     C11482   7.584   5.830   1.750  0.4081  0.4524  0.4525
   84MOL0     C11483   7.652   5.698   1.543 -0.2346 -0.6286  0.1895
   84MOL0     C11484   7.567   5.780   1.443 -0.7647 -0.0881 -0.1350
   84MOL0     O11485   7.526   5.719   1.328  0.3057  0.0142 -0.2423
   84MOL0     C11486   7.479   5.786   1.226  0.1393  0.5370  0.4969
   84MOL0     C11487   7.345   5.800   1.214  0.0043 -0.9700 -0.7720
   84MOL0     C11488   7.292   5.855   1.101  0.7905  0.5066 -0.3413
   84MOL0     C11489   7.373   5.919   1.004 -0.6317 -0.0474 -0.5003
   84MOL0     O11490   7.306   5.970   0.904  0.1098 -0.0587 -0.5851
   84MOL0     C11491   7.371   6.027   0.787  0.7166 -0.4743 -0.2687
   84MOL0     C11492   7.292   6.028   0.665 -0.3789  0.5666  1.2995
   84MOL0     C11493   7.298   5.886   0.602 -0.6533  0.6970  0.5239
   84MOL0     C11494   7.286   5.765   0.700  0.3445 -0.3557  0.1366
   84MOL0     C11495   7.253   5.636   0.626 -0.1033 -0.3043 -0.7383
   84MOL0     C11496   7.236   5.515   0.718  0.0258  0.1148 -0.5325
   84MOL0     C11497   7.174   5.393   0.647 -0.4947 -0.3129 -0.8120
   84MOL0     C11498   7.029   5.401   0.599  0.1776 -0.2210  0.4019
   84MOL0    Cl11499   6.907   5.478   0.711  0.2645 -0.8575  0.2602
   84MOL0     C11500   7.516   5.912   1.024  1.0227 -0.5190 -0.0805
   84MOL0     C11501   7.567   5.838   1.125  0.0912  0.1290  0.5166
   84MOL0     O11502   7.545   5.901   1.464  0.2846 -0.3795 -0.4260
   84MOL0     C11503   7.732   5.591   1.493  0.7348 -0.3588  0.2749
   84MOL0     C11504   7.812   5.513   1.580  0.2755 -0.7467 -0.5011
   84MOL0     N11505   8.264   5.086   1.387 -1.0066 -1.2810 -1.3017
   84MOL0     N11506   8.239   5.020   1.283 -0.0533  0.4490  0.6855
   84MOL0     C11507   7.103   4.721   1.476  0.4836  1.0251  0.8558
   84MOL0     C11508   6.977   4.706   1.528  0.7637  0.6461  0.4198
   84MOL0     C11509   6.500   4.614   1.511 -0.0880  0.0543 -0.4297
   84MOL0     C11510   6.478   4.694   1.624  0.1682  0.4983  0.6614
   84MOL0     C11511   6.358   4.704   1.692 -0.7301  0.2009  0.2825
   84MOL0     C11512   6.248   4.633   1.649  0.1028 -0.4350  1.4620
   84MOL0     O11513   6.124   4.640   1.714 -0.2177  0.2695  0.2465
   84MOL0     C11514   6.107   4.712   1.831  0.7824 -0.8302  0.0228
   84MOL0     C11515   5.964   4.684   1.881  0.2434 -0.3476 -0.4905
   84MOL0     C11516   5.856   4.738   1.792 -0.3656  0.5099  0.2114
   84MOL0     C11517   5.732   4.791   1.871 -0.2000  0.1569 -0.2603
   84MOL0     C11518   5.665   4.674   1.927 -0.5303  1.3606  0.4579
   84MOL0     C11519   5.625   4.570   1.957 -0.6023  0.1248 -0.8407
   84MOL0     C11520   6.263   4.555   1.535  0.0693 -0.8098 -0.0314
   84MOL0     C11521   6.388   4.546   1.461 -0.4847  1.2825  0.7946
   84MOL0     C11522   6.401   4.450   1.340  0.0950  0.1846 -0.9602
   84MOL0     H11523   6.796   4.755   1.238  1.4295 -1.8314 -2.3927
   84MOL0     H11524   7.001   4.759   1.150  3.4736 -1.9039 -0.8666
   84MOL0     H11525   7.320   4.919   1.176  1.2194 -0.4735 -0.6299
   84MOL0     H11526   7.220   4.808   1.086 -1.1418  0.4910  1.3438
   84MOL0     H11527   7.378   4.636   1.078 -2.2570  1.8190 -2.1327
   84MOL0     H11528   7.448   4.797   1.019  0.5821  2.2726  0.7666
   84MOL0     H11529   7.530   4.819   1.270 -2.3283  1.3053 -1.7713
   84MOL0     H11530   7.526   4.646   1.266  2.0925 -1.1991 -0.5103
   84MOL0     H11531   7.667   4.621   1.083 -0.6723 -1.2435  2.9083
   84MOL0     H11532   7.683   4.797   1.074  0.6769 -3.2798 -3.0490
   84MOL0     H11533   7.747   4.612   1.314  1.6972 -0.3686 -0.2069
   84MOL0     H11534   7.787   4.791   1.304  0.1467  0.5664 -0.7540
   84MOL0     H11535   7.908   4.566   1.138 -0.5859 -0.0915 -0.8018
   84MOL0     H11536   7.896   4.728   1.072 -1.0893  1.8084  1.7003
   84MOL0     H11537   8.126   4.690   1.182 -2.0570  2.0451 -5.6137
   84MOL0     H11538   8.037   4.703   1.338  2.0254 -1.4860  0.4912
   84MOL0     H11539   8.078   4.898   1.095 -0.2755 -0.2471  0.3107
   84MOL0     H11540   7.938   4.923   1.197 -1.6106 -1.8626  0.4823
   84MOL0     H11541   7.985   4.952   1.473  0.5992 -2.6627 -0.5203
   84MOL0     H11542   8.234   5.092   1.691 -0.1104  1.4922  0.8359
   84MOL0     H11543   8.064   5.075   1.677  0.5656 -1.2660  0.6226
   84MOL0     H11544   8.227   5.312   1.583 -0.1793 -0.1411  0.9580
   84MOL0     H11545   8.058   5.292   1.523  0.9728  4.1970  0.7824
   84MOL0     H11546   7.965   5.271   1.727 -0.6007 -1.2866  0.8044
   84MOL0     H11547   8.122   5.297   1.814  4.5019 -1.8497 -3.4513
   84MOL0     H11548   8.123   5.517   1.796 -0.1480  0.1112 -1.9456
   84MOL0     H11549   8.064   5.522   1.634  2.6960  2.7553  0.2898
   84MOL0     H11550   7.761   5.684   1.861 -1.6848 -0.1708  0.4818
   84MOL0     H11551   7.598   5.859   1.855  1.3280 -3.0194  1.4098
   84MOL0     H11552   7.482   5.789   1.747  0.7746 -0.5147  0.9471
   84MOL0     H11553   7.591   5.927   1.700 -0.0479 -0.5226 -1.6228
   84MOL0     H11554   7.279   5.758   1.289 -0.7651 -1.0929 -1.5023
   84MOL0     H11555   7.189   5.864   1.069  1.7533  0.9238 -3.5873
   84MOL0     H11556   7.400   6.131   0.807 -0.0136 -0.0737 -1.1758
   84MOL0     H11557   7.465   5.978   0.759  0.5594 -2.1426  1.8834
   84MOL0     H11558   7.199   6.084   0.679  0.1762  2.6931 -2.2100
   84MOL0     H11559   7.347   6.071   0.581  1.6163 -2.1102  1.1062
   84MOL0     H11560   7.392   5.875   0.547  0.0285 -2.1404  2.0424
   84MOL0     H11561   7.213   5.886   0.534 -1.2249  2.2298  1.2026
   84MOL0     H11562   7.205   5.769   0.773 -1.3970  0.5589 -1.7784
   84MOL0     H11563   7.385   5.758   0.747 -0.9011  3.0420  3.9364
   84MOL0     H11564   7.160   5.644   0.568  1.1997 -0.1382 -2.9266
   84MOL0     H11565   7.331   5.606   0.556 -0.0298 -2.4388  0.1984
   84MOL0     H11566   7.184   5.534   0.812  1.1958 -0.7171  0.3074
   84MOL0     H11567   7.337   5.477   0.734 -0.8892 -4.6762 -3.8647
   84MOL0     H11568   7.170   5.297   0.701 -3.2601 -0.2806 -0.7972
   84MOL0     H11569   7.237   5.379   0.560 -0.2747  2.1957 -1.1164
   84MOL0     H11570   7.002   5.295   0.591 -2.0124  0.2330  1.2116
   84MOL0     H11571   7.033   5.446   0.500 -1.3174 -0.5446  0.1810
   84MOL0     H11572   7.597   5.954   0.965  4.2578 -0.9099  3.6290
   84MOL0     H11573   7.673   5.827   1.148  0.4901  2.2511 -0.0693
   84MOL0     H11574   7.726   5.567   1.387 -0.0870 -1.1464  0.4861
   84MOL0     H11575   7.864   5.425   1.543  0.3484 -0.6264 -0.6866
   84MOL0     H11576   7.184   4.711   1.547  0.0288 -2.9416  1.0618
   84MOL0     H11577   6.972   4.699   1.637  0.7792  1.5883  0.4862
   84MOL0     H11578   6.565   4.746   1.663  0.6647  1.8603 -2.0502
   84MOL0     H11579   6.342   4.770   1.777 -3.3846  0.9889 -0.7177
   84MOL0     H11580   6.193   4.686   1.894  2.7448  4.3053 -0.0724
   84MOL0     H11581   6.124   4.820   1.826  2.0097 -0.9630  0.6879
   84MOL0     H11582   5.945   4.712   1.985 -3.2062 -2.2172 -0.4650
   84MOL0     H11583   5.956   4.575   1.878  0.4345 -0.3652 -0.3989
   84MOL0     H11584   5.894   4.829   1.745  2.0411 -1.1711 -1.2846
   84MOL0     H11585   5.831   4.673   1.708 -1.1073  1.5014 -0.3537
   84MOL0     H11586   5.665   4.843   1.801  0.8566  2.2505  0.1962
   84MOL0     H11587   5.763   4.855   1.954  2.7080  1.8769 -2.4733
   84MOL0     H11588   5.572   4.482   1.987 -0.7691  0.6549  0.5049
   84MOL0     H11589   6.178   4.495   1.507  0.4859 -1.0055 -0.9072
   84MOL0     H11590   6.314   4.384   1.346  2.3623 -3.0334 -0.5387
   84MOL0     H11591   6.404   4.495   1.240 -1.7694  1.2689 -0.5803
   84MOL0     H11592   6.481   4.377   1.355  0.1753  0.5612  0.5691
   85MOL0     O11593   8.303   0.366   9.465 -0.2126 -0.1065  0.0216
   85MOL0     C11594   8.189   0.383   9.434 -0.3085  0.4338  0.6479
   85MOL0     O11595   8.085   0.387   9.520  0.4777 -0.0343  0.3807
   85MOL0     C11596   8.120   0.410   9.649 -0.1292 -0.2414  0.0787
   85MOL0     C11597   8.166   0.535   9.683  0.7929  0.5061  0.2677
   85MOL0     C11598   8.202   0.570   9.809  0.0950 -0.2079 -0.6515
   85MOL0     C11599   8.181   0.472   9.916  0.3023 -0.1112 -0.0846
   85MOL0     O11600   8.204   0.492  10.047  0.6481 -1.1150  0.2373
   85MOL0     C11601   8.178   0.619  10.102 -0.6255  0.6616 -0.2527
   85MOL0     C11602   8.242   0.632  10.240 -0.0577  1.1010 -0.6129
   85MOL0     C11603   8.174   0.749  10.313 -1.0402  0.0591  0.3786
   85MOL0     C11604   8.028   0.712  10.356 -0.0220  0.6789 -0.1379
   85MOL0     C11605   7.960   0.827  10.431  0.8555  0.3813  0.4532
   85MOL0     C11606   7.813   0.795  10.447  0.4508  0.4207 -0.5638
   85MOL0     C11607   7.753   0.932  10.513 -0.3443 -0.1700  0.5717
   85MOL0     C11608   7.616   0.922  10.579 -0.0843 -0.1699  0.4429
   85MOL0     N11609   7.613   0.869  10.721 -0.4665  0.7540 -0.5626
   85MOL0     C11610   7.657   0.747  10.766  0.6501 -0.1285 -1.1458
   85MOL0     C11611   7.647   0.756  10.902  0.6276  0.2658 -0.7489
   85MOL0     C11612   7.684   0.657  11.003  0.3259  0.1852  0.9843
   85MOL0     C11613   7.561   0.619  11.079 -0.0314  1.0694 -0.2576
   85MOL0     C11614   7.596   0.539  11.208 -0.4210  0.2194  1.1920
   85MOL0     C11615   7.466   0.499  11.286  0.4364 -0.5503  0.0896
   85MOL0     O11616   7.425   0.368  11.247 -0.0134 -0.1789  0.0231
   85MOL0     C11617   7.351   0.300  11.339  0.4035  0.3666 -0.8604
   85MOL0     C11618   7.351   0.309  11.479 -0.4591  0.2656 -0.7510
   85MOL0     C11619   7.269   0.225  11.560  1.0364 -0.1127 -1.0248
   85MOL0     C11620   7.295   0.257  11.707 -0.2282 -1.0828  0.2616
   85MOL0     C11621   7.192   0.125  11.507  0.1759 -0.0031  1.0954
   85MOL0     C11622   7.104   0.047  11.581 -0.0631  0.5915  0.2801
   85MOL0     O11623   7.039  -0.057  11.519  0.0852  0.0106 -0.0701
   85MOL0     C11624   6.949  -0.142  11.585 -0.4251  0.0352 -0.1652
   85MOL0     C11625   6.867  -0.091  11.683  0.6008 -0.0379 -0.2481
   85MOL0     C11626   6.785  -0.181  11.746 -0.7474 -0.1569  1.0579
   85MOL0     C11627   6.781  -0.316  11.721  1.0242 -0.3117 -0.5040
   85MOL0     O11628   6.692  -0.381  11.801  0.3781 -0.1329 -0.3682
   85MOL0     C11629   6.752  -0.451  11.908 -0.9308  0.1238  0.0890
   85MOL0     C11630   6.663  -0.572  11.955 -0.9022 -0.5161  0.1921
   85MOL0     C11631   6.527  -0.533  12.005 -0.3899  0.1739  0.7509
   85MOL0     C11632   6.533  -0.480  12.155  0.9435 -0.0879  0.1407
   85MOL0     C11633   6.401  -0.421  12.197 -0.2158  0.0751  0.5168
   85MOL0     C11634   6.400  -0.378  12.348 -0.3082  0.2577 -0.9045
   85MOL0     C11635   6.410  -0.232  12.378  0.2228 -0.4130 -0.1090
   85MOL0     C11636   6.367  -0.224  12.527  0.3993  0.2274  0.6124
   85MOL0    Cl11637   6.189  -0.208  12.540  0.0851 -0.2637 -0.1154
   85MOL0     C11638   6.855  -0.369  11.621 -0.0582 -0.2660  0.2962
   85MOL0     C11639   6.946  -0.281  11.557 -0.3962 -0.4320  0.0893
   85MOL0     O11640   7.088   0.065  11.698  0.5909  0.0394 -0.2940
   85MOL0     C11641   7.200   0.101  11.365  0.8901 -0.6323  0.4323
   85MOL0     C11642   7.289   0.176  11.289 -0.1928 -0.2806 -0.9059
   85MOL0     N11643   7.603   0.878  10.936 -0.1528  0.3326  0.7706
   85MOL0     N11644   7.589   0.951  10.829 -0.0857  0.6966 -0.7023
   85MOL0     C11645   8.128   0.346   9.877  0.0235  0.0636 -0.6422
   85MOL0     C11646   8.109   0.316   9.743  0.7813  0.9557  0.3691
   85MOL0     C11647   8.148   0.343   9.295 -0.1958 -1.0619 -0.4139
   85MOL0     C11648   8.021   0.315   9.262 -0.3193 -0.0048  0.1671
   85MOL0     C11649   7.974   0.307   9.131  0.2540  0.6715  1.0296
   85MOL0     C11650   8.060   0.314   9.021  0.0398 -0.3732 -0.0077
   85MOL0     O11651   8.015   0.295   8.893 -0.0008 -0.0687 -0.5191
   85MOL0     C11652   7.902   0.369   8.849  0.1704  0.6588 -0.4721
   85MOL0     C11653   7.875   0.318   8.708 -0.6687  0.3764  0.9872
   85MOL0     C11654   7.759   0.395   8.654 -0.2713  0.4199  0.5209
   85MOL0     C11655   7.774   0.548   8.665  0.2057 -0.0587 -0.1053
   85MOL0     C11656   7.690   0.626   8.568  1.5185 -0.0497 -0.1365
   85MOL0     C11657   7.625   0.685   8.491 -0.7298  0.4874  0.8754
   85MOL0     C11658   8.191   0.339   9.051 -0.4231  1.0313 -0.4733
   85MOL0     C11659   8.237   0.347   9.192 -1.1935  0.3179 -0.1056
   85MOL0     C11660   8.385   0.394   9.200 -0.5956  0.1945  0.1247
   85MOL0     H11661   8.172   0.606   9.601  1.6615  0.0750 -0.0591
   85MOL0     H11662   8.240   0.671   9.824 -4.2826  1.9333 -2.3128
   85MOL0     H11663   8.070   0.632  10.099 -1.1199 -2.5590  0.4065
   85MOL0     H11664   8.231   0.696  10.045  0.3131  1.8777  2.1013
   85MOL0     H11665   8.235   0.538  10.296 -0.9098  1.5228  0.0107
   85MOL0     H11666   8.346   0.661  10.225  1.0957 -2.8569 -1.6735
   85MOL0     H11667   8.231   0.796  10.393  0.0791  0.9622 -0.9129
   85MOL0     H11668   8.171   0.826  10.236 -2.8827  0.7469  1.0866
   85MOL0     H11669   7.972   0.676  10.269  1.3728 -1.2609 -0.2987
   85MOL0     H11670   8.031   0.621  10.417  4.4063 -0.3178 -1.5101
   85MOL0     H11671   7.972   0.919  10.373  3.3145  0.8452  1.5760
   85MOL0     H11672   8.013   0.837  10.527  1.2003 -2.0979  0.5969
   85MOL0     H11673   7.771   0.785  10.347  1.1955  0.7827 -0.9238
   85MOL0     H11674   7.802   0.704  10.507 -1.0316  0.5536 -0.6054
   85MOL0     H11675   7.737   0.997  10.427  4.1380 -2.7583 -2.6566
   85MOL0     H11676   7.815   0.984  10.587  0.6260 -1.6257  0.8399
   85MOL0     H11677   7.567   1.015  10.608  0.6278 -0.4894  2.9204
   85MOL0     H11678   7.546   0.893  10.500  0.3657 -0.7178  0.2359
   85MOL0     H11679   7.692   0.657  10.716 -1.7487 -0.5880 -2.1176
   85MOL0     H11680   7.742   0.715  11.076 -0.1547  1.3623  0.4466
   85MOL0     H11681   7.729   0.562  10.974 -0.6916 -0.7590  2.3338
   85MOL0     H11682   7.511   0.709  11.116  0.3248  0.0386  2.9904
   85MOL0     H11683   7.493   0.558  11.018 -0.9621  0.4686  1.3255
   85MOL0     H11684   7.651   0.451  11.177  1.3642  1.4601  0.6885
   85MOL0     H11685   7.668   0.596  11.268 -0.1114  1.0200  0.0880
   85MOL0     H11686   7.492   0.494  11.392  2.1376 -2.6052 -0.3389
   85MOL0     H11687   7.389   0.576  11.288  1.0315  0.0625  2.6567
   85MOL0     H11688   7.402   0.392  11.528  2.6516 -2.2815  0.7572
   85MOL0     H11689   7.328   0.170  11.764  0.9012  0.1652  1.5707
   85MOL0     H11690   7.201   0.299  11.745  0.6637  1.2441  0.0428
   85MOL0     H11691   7.374   0.331  11.723  0.8788 -1.2478 -3.4457
   85MOL0     H11692   6.868   0.014  11.710  0.8667 -0.0018 -0.3897
   85MOL0     H11693   6.722  -0.140  11.825 -0.7814  4.8751 -1.1817
   85MOL0     H11694   6.853  -0.481  11.877 -1.4568 -1.5599 -0.1181
   85MOL0     H11695   6.767  -0.389  11.996 -3.1267 -0.5455  0.9951
   85MOL0     H11696   6.642  -0.645  11.876  0.8836 -1.0999  0.2245
   85MOL0     H11697   6.715  -0.628  12.033 -0.8742 -1.0249 -0.1800
   85MOL0     H11698   6.451  -0.611  12.009 -0.5737  0.1337 -1.6205
   85MOL0     H11699   6.473  -0.482  11.923 -1.9266 -3.6968 -0.8853
   85MOL0     H11700   6.620  -0.413  12.160  0.4339  0.5339  0.9500
   85MOL0     H11701   6.550  -0.563  12.224 -3.1241 -2.1336 -1.0035
   85MOL0     H11702   6.379  -0.329  12.140  0.4878 -1.0976 -1.7591
   85MOL0     H11703   6.319  -0.491  12.182 -1.3565  1.4513  0.0346
   85MOL0     H11704   6.478  -0.436  12.399  0.0190 -0.0471 -1.7276
   85MOL0     H11705   6.304  -0.413  12.387 -1.1038  1.5459 -1.6456
   85MOL0     H11706   6.350  -0.173  12.308  1.8703  1.2240 -0.2141
   85MOL0     H11707   6.512  -0.193  12.386 -0.2219  0.4470  2.2614
   85MOL0     H11708   6.408  -0.133  12.571  1.1011 -0.9674  2.5670
   85MOL0     H11709   6.407  -0.307  12.586 -0.1535  0.4436  1.3027
   85MOL0     H11710   6.865  -0.476  11.602 -0.0385 -0.2961  0.4775
   85MOL0     H11711   7.014  -0.317  11.481  0.3800 -1.1358  1.0797
   85MOL0     H11712   7.138   0.024  11.319 -0.2645  1.0155 -0.8651
   85MOL0     H11713   7.305   0.136  11.189 -1.0374 -3.2515  0.0310
   85MOL0     H11714   8.115   0.258   9.939  1.1280  0.3278 -0.0171
   85MOL0     H11715   8.069   0.219   9.715 -2.6567  1.4339  2.9489
   85MOL0     H11716   7.941   0.327   9.335 -1.2357  1.4733 -1.0380
   85MOL0     H11717   7.876   0.281   9.092  2.6673 -1.5405 -4.5506
   85MOL0     H11718   7.809   0.342   8.900 -0.0206  0.0530 -1.1181
   85MOL0     H11719   7.928   0.475   8.848 -1.3938  1.0883  0.7108
   85MOL0     H11720   7.848   0.212   8.710 -0.3707  0.2934  2.9297
   85MOL0     H11721   7.957   0.337   8.637 -3.5255  1.3872 -2.3374
   85MOL0     H11722   7.742   0.366   8.549  1.9388  2.5050 -0.4846
   85MOL0     H11723   7.671   0.354   8.704 -1.0212 -0.8187 -1.6375
   85MOL0     H11724   7.875   0.567   8.628 -0.5455  1.5000 -1.4203
   85MOL0     H11725   7.766   0.571   8.772  1.4591 -3.3866  0.8411
   85MOL0     H11726   7.577   0.725   8.404 -0.4033 -2.5291 -0.8332
   85MOL0     H11727   8.267   0.329   8.973  1.0928  1.9646  0.8213
   85MOL0     H11728   8.444   0.331   9.267 -0.4170  3.3183  3.1593
   85MOL0     H11729   8.427   0.381   9.100  0.5135  1.4466  0.4042
   85MOL0     H11730   8.399   0.499   9.229  0.4224 -0.0009  0.3712
   86MOL0     O11731   8.735   5.280   1.164 -1.2985 -0.1290  0.2126
   86MOL0     C11732   8.805   5.202   1.103  0.8150  0.2901  0.8438
   86MOL0     O11733   8.769   5.139   0.988 -0.3065 -0.3640  0.8518
   86MOL0     C11734   8.659   5.183   0.921  0.2965 -0.0999 -0.1962
   86MOL0     C11735   8.665   5.222   0.788 -1.1018  0.5401 -1.2160
   86MOL0     C11736   8.554   5.254   0.717  0.8489 -0.6080  0.1245
   86MOL0     C11737   8.421   5.240   0.763 -0.5974  0.0561  0.2550
   86MOL0     O11738   8.307   5.271   0.691 -0.3401  0.6193 -0.0316
   86MOL0     C11739   8.313   5.295   0.548  0.4198  0.3719 -0.4325
   86MOL0     C11740   8.341   5.435   0.502 -0.5178 -0.4434 -1.0006
   86MOL0     C11741   8.238   5.532   0.542  0.8182  0.4440  0.0545
   86MOL0     C11742   8.279   5.669   0.485 -0.4579  0.0093  0.6378
   86MOL0     C11743   8.168   5.771   0.512 -0.6603  0.6310  0.4796
   86MOL0     C11744   8.181   5.906   0.441  0.0720  0.8353 -0.5011
   86MOL0     C11745   8.312   5.982   0.449 -0.1958 -0.7037 -0.2713
   86MOL0     C11746   8.420   5.969   0.333  0.2592 -0.4767  0.6330
   86MOL0     N11747   8.543   5.899   0.383  0.5268 -0.4457 -0.1604
   86MOL0     C11748   8.618   5.934   0.492 -0.9571 -0.7443 -0.4109
   86MOL0     C11749   8.728   5.852   0.479  0.0075  0.4656  0.5897
   86MOL0     C11750   8.821   5.842   0.600  0.4443 -0.2837 -1.1287
   86MOL0     C11751   8.786   5.742   0.715 -0.0630 -0.0209  0.4352
   86MOL0     C11752   8.633   5.731   0.745 -0.9348 -0.1365  0.3136
   86MOL0     C11753   8.590   5.666   0.874 -0.4220 -0.4031  0.5287
   86MOL0     O11754   8.444   5.677   0.884  0.3632  0.6102 -0.4005
   86MOL0     C11755   8.391   5.647   1.012  0.0496  0.2162  0.3885
   86MOL0     C11756   8.451   5.578   1.112 -0.2067  0.4582  0.8355
   86MOL0     C11757   8.389   5.554   1.236  0.9679  0.8228 -0.0119
   86MOL0     C11758   8.445   5.463   1.336  0.7028 -0.5031 -0.5639
   86MOL0     C11759   8.254   5.602   1.250 -0.4385 -0.1839 -0.6203
   86MOL0     C11760   8.176   5.577   1.368  0.3394 -0.6974 -0.1941
   86MOL0     O11761   8.050   5.506   1.359  0.3044 -0.3224  0.1682
   86MOL0     C11762   8.024   5.444   1.244 -0.9337 -0.0154 -1.3741
   86MOL0     C11763   8.096   5.337   1.195 -0.7614  0.6225  0.5029
   86MOL0     C11764   8.059   5.271   1.075 -0.8390 -0.0470 -0.2150
   86MOL0     C11765   7.948   5.303   1.000  0.6858 -0.3917 -0.4822
   86MOL0     O11766   7.893   5.235   0.892 -0.0167 -0.3178 -0.5458
   86MOL0     C11767   7.960   5.118   0.854 -0.4347 -0.2501  0.0758
   86MOL0     C11768   7.864   5.011   0.795  0.4732 -0.2130 -0.5085
   86MOL0     C11769   7.918   4.865   0.765  0.7486 -0.3689  0.1109
   86MOL0     C11770   7.793   4.788   0.716 -0.2855 -0.6328  0.3964
   86MOL0     C11771   7.824   4.655   0.652  0.1548  0.3253  0.8116
   86MOL0     C11772   7.910   4.672   0.521 -0.7748  0.3536  0.6841
   86MOL0     C11773   7.883   4.583   0.398  0.3844  0.3183 -0.3543
   86MOL0     C11774   7.734   4.585   0.354  0.6093  0.5994 -0.8507
   86MOL0    Cl11775   7.656   4.755   0.340 -0.2006  0.1700  0.2915
   86MOL0     C11776   7.873   5.406   1.052 -0.2050 -0.0834 -0.2966
   86MOL0     C11777   7.918   5.482   1.162  0.3834 -0.3091  0.7203
   86MOL0     O11778   8.208   5.638   1.474 -0.1276 -0.2913 -0.3228
   86MOL0     C11779   8.195   5.681   1.152  0.6305 -0.8516 -0.0547
   86MOL0     C11780   8.260   5.697   1.036 -0.7572 -0.1824 -0.5326
   86MOL0     N11781   8.710   5.766   0.366  0.3082 -0.2675  0.5272
   86MOL0     N11782   8.605   5.805   0.306  0.0861  0.5106 -0.0984
   86MOL0     C11783   8.415   5.203   0.897  0.2479  0.0297 -0.5663
   86MOL0     C11784   8.522   5.169   0.974 -0.6137  0.3388  0.2255
   86MOL0     C11785   8.935   5.150   1.163  0.4701  0.1693  1.0764
   86MOL0     C11786   8.986   5.209   1.285  0.0217  0.0944  0.5512
   86MOL0     C11787   9.117   5.189   1.326 -0.8217  0.2949 -0.3248
   86MOL0     C11788   9.203   5.099   1.257 -0.2962 -0.2141  0.5112
   86MOL0     O11789   9.331   5.078   1.290  0.9962 -0.3841  0.7500
   86MOL0     C11790   9.421   5.173   1.233  0.2247 -0.5183 -0.4205
   86MOL0     C11791   9.549   5.182   1.310 -0.0926  0.6468  0.6033
   86MOL0     C11792   9.631   5.301   1.255  0.6124  0.2283  0.2556
   86MOL0     C11793   9.676   5.397   1.357 -1.1473 -0.2747  0.5214
   86MOL0     C11794   9.768   5.338   1.459  1.4244  0.2817 -0.2612
   86MOL0     C11795   9.847   5.295   1.536 -0.3379 -0.4599  1.0132
   86MOL0     C11796   9.151   5.027   1.153  0.1910  0.5524  0.2927
   86MOL0     C11797   9.021   5.055   1.097 -0.4893 -0.0644 -0.9291
   86MOL0     C11798   8.990   4.970   0.976  0.0041 -0.1071  0.4812
   86MOL0     H11799   8.761   5.220   0.736 -0.6762 -0.1954 -0.4259
   86MOL0     H11800   8.574   5.281   0.614  0.5787  1.1486  0.5072
   86MOL0     H11801   8.220   5.270   0.495  1.0202  1.9881 -2.3803
   86MOL0     H11802   8.377   5.218   0.503  1.2569  0.7024  0.1866
   86MOL0     H11803   8.429   5.474   0.553  0.1749 -1.2525 -1.5520
   86MOL0     H11804   8.368   5.446   0.397  1.4977  1.9876 -0.3337
   86MOL0     H11805   8.135   5.509   0.512  0.6271  1.2103  0.1015
   86MOL0     H11806   8.238   5.543   0.651  0.9342  1.4634 -0.0320
   86MOL0     H11807   8.367   5.708   0.537 -1.0123  1.4740  0.5133
   86MOL0     H11808   8.308   5.666   0.380  1.3656  0.1257  1.1077
   86MOL0     H11809   8.165   5.793   0.619 -3.2331 -3.9213  1.6013
   86MOL0     H11810   8.069   5.729   0.494 -0.5984  0.4597  0.5449
   86MOL0     H11811   8.161   5.906   0.334  1.7582  0.6104 -0.8446
   86MOL0     H11812   8.100   5.958   0.493  0.1334 -0.0832  0.5581
   86MOL0     H11813   8.364   5.953   0.541 -3.1486 -4.3475  0.4523
   86MOL0     H11814   8.288   6.089   0.454 -0.5215 -0.8191  3.2072
   86MOL0     H11815   8.390   5.918   0.241 -0.5435 -2.8170  2.1018
   86MOL0     H11816   8.445   6.071   0.304 -2.5600 -0.1538 -0.9881
   86MOL0     H11817   8.602   6.010   0.568  3.5081  1.4945 -1.3641
   86MOL0     H11818   8.832   5.944   0.640 -1.2586 -1.9020  4.4888
   86MOL0     H11819   8.909   5.794   0.557  1.3929 -1.6439  2.0178
   86MOL0     H11820   8.817   5.646   0.672  0.2940 -0.1782  1.0297
   86MOL0     H11821   8.843   5.767   0.805  0.1574  0.8785  0.0563
   86MOL0     H11822   8.594   5.832   0.731 -1.5548 -0.7618 -3.5912
   86MOL0     H11823   8.582   5.676   0.665 -0.6094  1.0198 -0.7270
   86MOL0     H11824   8.641   5.570   0.877  2.8117  1.0836 -1.0372
   86MOL0     H11825   8.630   5.729   0.955 -0.1455 -2.3320  1.9619
   86MOL0     H11826   8.549   5.539   1.086 -0.1891  0.6240  0.6556
   86MOL0     H11827   8.398   5.366   1.312 -0.8880  0.2714 -0.7381
   86MOL0     H11828   8.434   5.497   1.439  1.1077 -1.1250 -0.3056
   86MOL0     H11829   8.554   5.456   1.335  1.0330  2.2443  2.1481
   86MOL0     H11830   8.187   5.302   1.243 -0.0409  1.4852 -0.1896
   86MOL0     H11831   8.125   5.191   1.042  0.2177  1.5095 -2.0746
   86MOL0     H11832   8.045   5.130   0.786  0.7851 -2.1586  1.1899
   86MOL0     H11833   8.003   5.079   0.947 -0.7520 -0.8735 -0.0391
   86MOL0     H11834   7.785   4.999   0.870  0.3398 -1.5410 -0.8253
   86MOL0     H11835   7.825   5.054   0.702  0.3069  1.3101  0.2354
   86MOL0     H11836   7.951   4.824   0.861  0.1509  1.2069  1.0271
   86MOL0     H11837   7.988   4.887   0.684 -1.7128  2.5568 -1.4456
   86MOL0     H11838   7.749   4.857   0.644  4.5081  1.3930 -1.0273
   86MOL0     H11839   7.723   4.777   0.799  0.2151 -0.6806  0.8156
   86MOL0     H11840   7.873   4.588   0.723  1.6584  0.3136 -0.1935
   86MOL0     H11841   7.734   4.595   0.635 -0.0434  1.1161 -1.1180
   86MOL0     H11842   8.009   4.650   0.561 -0.5594  4.8173  3.2657
   86MOL0     H11843   7.913   4.772   0.477 -1.1960  0.5191  1.0292
   86MOL0     H11844   7.901   4.480   0.429  1.3888  0.9770  1.3770
   86MOL0     H11845   7.934   4.600   0.302  1.8323  0.6733  0.4567
   86MOL0     H11846   7.689   4.520   0.429 -1.6156  0.9149 -1.8227
   86MOL0     H11847   7.723   4.548   0.252 -0.1550 -3.1270  0.4240
   86MOL0     H11848   7.786   5.439   0.996  0.4690  0.6399 -0.9444
   86MOL0     H11849   7.857   5.564   1.197 -1.3431 -0.6328 -1.3502
   86MOL0     H11850   8.096   5.723   1.169  0.9668 -0.0660  0.0308
   86MOL0     H11851   8.208   5.752   0.958  1.1319  1.4875 -0.7111
   86MOL0     H11852   8.314   5.205   0.936 -0.8642 -0.7583 -3.1866
   86MOL0     H11853   8.519   5.129   1.076  2.3289  2.4054  1.2795
   86MOL0     H11854   8.922   5.276   1.341 -3.0189 -3.1675  1.3522
   86MOL0     H11855   9.152   5.234   1.419  1.5759  0.4459 -1.2397
   86MOL0     H11856   9.443   5.147   1.129 -1.6906 -3.4372 -0.2279
   86MOL0     H11857   9.373   5.271   1.231 -1.3424 -1.1917  1.1509
   86MOL0     H11858   9.600   5.087   1.289 -3.1441 -0.8193 -0.8513
   86MOL0     H11859   9.533   5.185   1.418 -0.2874  1.0304  0.5638
   86MOL0     H11860   9.717   5.263   1.198 -1.7098 -0.1636 -3.3550
   86MOL0     H11861   9.576   5.357   1.179  3.6063  0.0889 -2.2541
   86MOL0     H11862   9.589   5.434   1.411 -2.4585 -1.5145 -0.6475
   86MOL0     H11863   9.731   5.484   1.319 -0.8779 -1.0773 -1.0204
   86MOL0     H11864   9.924   5.262   1.602  1.0669  3.0211  1.3316
   86MOL0     H11865   9.218   4.960   1.101  1.3861  1.5081  0.5564
   86MOL0     H11866   8.980   5.024   0.882 -1.1902  2.0233  1.7369
   86MOL0     H11867   9.076   4.902   0.972 -0.4213 -0.6833  0.9319
   86MOL0     H11868   8.898   4.914   0.994 -0.5046 -0.5550 -2.9403
   87MOL0     O11869   9.903   6.837   9.093 -0.5431  0.9190 -0.1539
   87MOL0     C11870   9.880   6.945   9.046 -0.0693 -1.0943 -1.7884
   87MOL0     O11871   9.845   6.973   8.918  0.2981  1.0296  0.2700
   87MOL0     C11872   9.831   6.862   8.837 -0.4263  0.6559  0.2077
   87MOL0     C11873   9.724   6.772   8.826  1.3837  0.3112 -0.0260
   87MOL0     C11874   9.740   6.657   8.747  0.6403  0.1801  0.6800
   87MOL0     C11875   9.859   6.627   8.683 -0.9451  1.3479  0.5383
   87MOL0     O11876   9.877   6.514   8.606 -0.6157  0.0987 -0.2033
   87MOL0     C11877   9.787   6.397   8.602  1.1296 -0.0150  0.5582
   87MOL0     C11878   9.857   6.276   8.546 -0.1983 -0.4539  0.0960
   87MOL0     C11879   9.984   6.223   8.619  0.1270  0.0928 -0.0798
   87MOL0     C11880  10.035   6.102   8.540  0.0744  0.2818  0.2526
   87MOL0     C11881  10.152   6.037   8.603  0.6268 -0.4973 -0.1323
   87MOL0     C11882  10.196   5.911   8.533  0.5282  0.0307 -0.5548
   87MOL0     C11883  10.213   5.913   8.378  0.3867  0.1148  1.1698
   87MOL0     C11884  10.326   6.015   8.341  0.2197  0.2902  0.5681
   87MOL0     N11885  10.357   6.056   8.205 -0.7723  0.4151  0.1111
   87MOL0     C11886  10.440   6.166   8.183  0.2411  0.0501 -0.5863
   87MOL0     C11887  10.468   6.166   8.053  0.3983  0.5108 -0.1940
   87MOL0     C11888  10.568   6.244   7.956  0.0300  0.6866 -0.4110
   87MOL0     C11889  10.521   6.388   7.942 -0.1895 -0.0997 -0.1360
   87MOL0     C11890  10.612   6.463   7.858  0.5707 -0.0894  0.3200
   87MOL0     C11891  10.566   6.610   7.848  0.5799 -0.5336  0.7005
   87MOL0     O11892  10.562   6.686   7.970  0.0649  0.3719  0.0868
   87MOL0     C11893  10.559   6.819   7.952 -0.1000 -0.0615  0.7399
   87MOL0     C11894  10.543   6.887   8.070 -0.1848  0.0891  2.1717
   87MOL0     C11895  10.532   7.026   8.068 -0.7955 -0.4844 -0.7017
   87MOL0     C11896  10.506   7.092   8.198  0.4026 -0.4419  0.1944
   87MOL0     C11897  10.535   7.097   7.945 -0.8222 -0.2559  0.0417
   87MOL0     C11898  10.511   7.246   7.919 -0.0222 -0.1917 -1.1308
   87MOL0     O11899  10.474   7.287   7.799  0.0717 -0.0183  0.5064
   87MOL0     C11900  10.470   7.423   7.768 -0.2941  0.5626 -0.1564
   87MOL0     C11901  10.512   7.465   7.643  0.2179 -0.1204 -0.2589
   87MOL0     C11902  10.499   7.596   7.596  0.5219  0.6972 -0.1611
   87MOL0     C11903  10.426   7.690   7.673  1.2213  0.9155 -0.5745
   87MOL0     O11904  10.402   7.813   7.631 -0.9980  0.0753  0.4394
   87MOL0     C11905  10.441   7.868   7.501 -0.3919  1.0861  0.0526
   87MOL0     C11906  10.566   7.960   7.522 -1.1418 -0.3495  0.1057
   87MOL0     C11907  10.573   8.062   7.398  0.1478  0.3431  0.7861
   87MOL0     C11908  10.697   8.142   7.413 -0.2514 -0.7736  0.6388
   87MOL0     C11909  10.716   8.249   7.302  0.1427 -0.7295  0.5737
   87MOL0     C11910  10.859   8.324   7.302  1.0071  0.3084 -0.7814
   87MOL0     C11911  10.970   8.233   7.247 -0.0968  0.3458  0.1346
   87MOL0     C11912  11.111   8.292   7.292  0.6736  0.5233 -0.1969
   87MOL0    Cl11913  11.156   8.441   7.208  0.0563 -0.1760  0.2082
   87MOL0     C11914  10.399   7.651   7.809 -0.6646  0.5869 -0.7241
   87MOL0     C11915  10.418   7.519   7.851 -0.3303  0.2421 -0.6507
   87MOL0     O11916  10.540   7.321   8.014  0.3915  0.2216  0.5653
   87MOL0     C11917  10.546   7.022   7.826  0.2402  0.9096 -1.2289
   87MOL0     C11918  10.570   6.887   7.831 -0.5949  0.8594  0.6934
   87MOL0     N11919  10.396   6.063   7.997 -0.2642 -0.6044 -0.2888
   87MOL0     N11920  10.345   5.992   8.085 -0.0906  1.1350  0.1131
   87MOL0     C11921   9.968   6.723   8.698 -0.5148  0.0656 -0.1728
   87MOL0     C11922   9.956   6.833   8.777  0.2349  0.2173 -0.1769
   87MOL0     C11923   9.883   7.070   9.136  0.3994 -0.3491 -1.1206
   87MOL0     C11924   9.884   7.197   9.072  0.1435  0.0828  0.3998
   87MOL0     C11925   9.887   7.320   9.138 -0.0327  0.0340 -0.0229
   87MOL0     C11926   9.895   7.314   9.281 -0.1642  0.0892  0.3352
   87MOL0     O11927   9.923   7.419   9.364  0.0883 -0.3032  0.1781
   87MOL0     C11928   9.902   7.553   9.312 -0.5863  0.0473  0.5165
   87MOL0     C11929   9.924   7.655   9.426 -0.1668 -1.3448  0.6102
   87MOL0     C11930   9.826   7.652   9.546 -0.6839 -0.4604 -0.0699
   87MOL0     C11931   9.871   7.737   9.667 -0.7454  0.2615  0.6765
   87MOL0     C11932   9.792   7.725   9.786  0.7457 -0.2731  0.7164
   87MOL0     C11933   9.717   7.710   9.871 -0.3537  0.2383  0.6800
   87MOL0     C11934   9.899   7.194   9.347  1.0390 -0.3748 -0.4324
   87MOL0     C11935   9.876   7.073   9.282 -0.2543  0.6661  0.4779
   87MOL0     C11936   9.859   6.951   9.364  0.7599 -0.1040  0.6915
   87MOL0     H11937   9.631   6.798   8.874 -0.4990  1.2928 -3.7928
   87MOL0     H11938   9.650   6.598   8.735  2.5345 -3.0600  1.0839
   87MOL0     H11939   9.704   6.434   8.542  1.0557  0.3803  0.8987
   87MOL0     H11940   9.751   6.376   8.703  0.5652  1.0417  0.5968
   87MOL0     H11941   9.786   6.194   8.543 -1.4550  0.4467 -5.8860
   87MOL0     H11942   9.885   6.304   8.444  0.5331  0.8079  0.6071
   87MOL0     H11943  10.045   6.313   8.630 -1.5156  1.3685 -1.0221
   87MOL0     H11944   9.954   6.179   8.714  1.0435 -2.2679 -0.8044
   87MOL0     H11945   9.949   6.037   8.555 -0.1310  0.6699  0.7789
   87MOL0     H11946  10.048   6.122   8.433 -1.0712 -1.9751 -0.3707
   87MOL0     H11947  10.133   6.028   8.710 -0.9938 -0.8101 -0.4212
   87MOL0     H11948  10.229   6.113   8.586 -0.9553  0.6981 -2.5295
   87MOL0     H11949  10.292   5.878   8.575 -0.8020 -2.0595  1.0694
   87MOL0     H11950  10.140   5.821   8.561  1.5627 -0.9227 -1.4176
   87MOL0     H11951  10.126   5.962   8.333  0.9277  0.9050  0.9566
   87MOL0     H11952  10.225   5.811   8.340  1.1428  0.6803 -0.1825
   87MOL0     H11953  10.291   6.106   8.391 -4.0316  0.3687 -2.0415
   87MOL0     H11954  10.415   5.973   8.388  1.3435  1.9261 -0.0220
   87MOL0     H11955  10.500   6.216   8.259 -0.0993 -2.4623  1.4561
   87MOL0     H11956  10.569   6.201   7.855  2.3984 -1.0457  0.2566
   87MOL0     H11957  10.668   6.248   8.002 -0.2594 -0.8334  0.4137
   87MOL0     H11958  10.420   6.393   7.899 -0.6735  4.0600  1.0565
   87MOL0     H11959  10.506   6.441   8.036 -0.5027  1.5251 -1.0616
   87MOL0     H11960  10.716   6.457   7.893  0.9906 -1.5785 -1.0556
   87MOL0     H11961  10.601   6.425   7.755  0.8160  2.2604 -0.6345
   87MOL0     H11962  10.636   6.651   7.775 -1.6087 -1.6866 -2.2644
   87MOL0     H11963  10.465   6.622   7.808 -0.6588 -0.5800  3.6241
   87MOL0     H11964  10.523   6.824   8.156 -3.1605 -0.9108  0.8649
   87MOL0     H11965  10.416   7.152   8.180 -1.1581 -2.4588  0.8550
   87MOL0     H11966  10.593   7.149   8.233 -1.7625  0.9876  3.8536
   87MOL0     H11967  10.486   7.016   8.274  1.3842  0.8136  1.7732
   87MOL0     H11968  10.562   7.397   7.574 -1.2973  2.3619 -4.1260
   87MOL0     H11969  10.544   7.620   7.500  4.0685  4.8578  2.1990
   87MOL0     H11970  10.456   7.797   7.419 -1.7765  0.3968  0.3755
   87MOL0     H11971  10.344   7.912   7.474 -0.6682 -0.8001 -2.4517
   87MOL0     H11972  10.553   8.002   7.622 -1.9935  0.6947 -0.4223
   87MOL0     H11973  10.656   7.899   7.521 -0.5952  0.3249  2.4131
   87MOL0     H11974  10.477   8.114   7.404 -1.4366 -2.4109  1.0595
   87MOL0     H11975  10.584   8.002   7.307  3.5521  0.3931  1.0550
   87MOL0     H11976  10.784   8.077   7.416  0.0514 -0.3507  1.5995
   87MOL0     H11977  10.710   8.191   7.511  0.5597  1.1169 -0.3571
   87MOL0     H11978  10.699   8.215   7.200 -0.5389 -0.8812  0.7286
   87MOL0     H11979  10.642   8.330   7.308  3.1245  2.2472  0.1072
   87MOL0     H11980  10.889   8.351   7.404  1.9140 -1.7229 -0.4653
   87MOL0     H11981  10.858   8.423   7.255  0.2632  2.6304  3.5483
   87MOL0     H11982  10.960   8.234   7.138  0.6223 -0.5389  0.0467
   87MOL0     H11983  10.961   8.130   7.283 -1.2536  0.3063 -0.2370
   87MOL0     H11984  11.178   8.216   7.249  1.0815  1.5406 -1.4054
   87MOL0     H11985  11.125   8.288   7.400 -2.2363 -2.5433  0.2639
   87MOL0     H11986  10.349   7.727   7.868 -4.8626 -0.8059 -2.1135
   87MOL0     H11987  10.379   7.500   7.951  2.4218 -1.3553  0.2133
   87MOL0     H11988  10.544   7.070   7.728 -1.6370  0.1796 -1.5926
   87MOL0     H11989  10.576   6.835   7.736  2.9234 -1.9698  2.2034
   87MOL0     H11990  10.054   6.710   8.634  0.3749 -2.0648  1.3069
   87MOL0     H11991  10.028   6.913   8.795  0.4082  0.3054 -1.1995
   87MOL0     H11992   9.868   7.199   8.965  1.3582 -0.2328  0.1965
   87MOL0     H11993   9.887   7.412   9.080 -4.1621  0.4345  0.3287
   87MOL0     H11994   9.985   7.568   9.241  2.0383  0.1299  3.4127
   87MOL0     H11995   9.805   7.555   9.260  0.4008 -0.9651 -1.4704
   87MOL0     H11996   9.938   7.749   9.372  1.0773  1.2068  4.8257
   87MOL0     H11997  10.024   7.637   9.467  0.2356 -0.6240 -0.0334
   87MOL0     H11998   9.739   7.699   9.499  0.4769  3.4055  1.2463
   87MOL0     H11999   9.809   7.549   9.578 -2.3711 -0.2153 -0.1053
   87MOL0     H12000   9.896   7.840   9.640  0.0483  0.0584  0.6067
   87MOL0     H12001   9.967   7.695   9.698 -0.3251 -1.5920 -2.6701
   87MOL0     H12002   9.643   7.699   9.947  0.1037 -3.2740  0.7787
   87MOL0     H12003   9.918   7.177   9.453 -3.0536 -0.6350  0.4060
   87MOL0     H12004   9.962   6.921   9.387  1.7868  1.1688 -1.8440
   87MOL0     H12005   9.820   6.972   9.463  2.0647 -2.1259  1.7219
   87MOL0     H12006   9.795   6.871   9.326  2.0759 -1.1866  0.6364
   88MOL0     O12007   1.339   9.967   7.645  0.5539 -0.8332 -0.1612
   88MOL0     C12008   1.361   9.967   7.767  0.1996  0.1702  0.5265
   88MOL0     O12009   1.339  10.067   7.850  0.2925 -0.6520 -1.2103
   88MOL0     C12010   1.336  10.191   7.802  0.1202 -1.1290 -0.1499
   88MOL0     C12011   1.254  10.284   7.864 -0.8076  0.0074  0.2653
   88MOL0     C12012   1.265  10.413   7.829 -0.1990  0.8252  0.4606
   88MOL0     C12013   1.354  10.464   7.733 -0.2412  0.4955  0.6182
   88MOL0     O12014   1.356  10.598   7.713  0.5532 -0.6431  0.5190
   88MOL0     C12015   1.478  10.666   7.696 -0.1314  0.7531 -0.2305
   88MOL0     C12016   1.481  10.786   7.789  0.1298 -0.5088  0.4232
   88MOL0     C12017   1.503  10.767   7.938  0.6216 -0.3931  0.4540
   88MOL0     C12018   1.636  10.688   7.959  0.6680  1.1211  0.1222
   88MOL0     C12019   1.680  10.674   8.109  0.2304  0.3101  0.5007
   88MOL0     C12020   1.741  10.789   8.183  1.0618  0.2465  0.4565
   88MOL0     C12021   1.657  10.829   8.312  0.3065 -0.1239 -0.0862
   88MOL0     C12022   1.692  10.967   8.379 -0.2552 -0.5235  0.1100
   88MOL0     N12023   1.824  10.968   8.436  0.1940 -0.6128 -0.2431
   88MOL0     C12024   1.876  10.898   8.541  0.2180  1.2604  0.0828
   88MOL0     C12025   2.003  10.929   8.547 -0.4945  0.3398 -0.0753
   88MOL0     C12026   2.105  10.895   8.647  0.5442 -0.7651  0.3598
   88MOL0     C12027   2.043  10.883   8.781  0.1816  0.8539  1.1142
   88MOL0     C12028   2.155  10.895   8.898 -0.2361 -0.4407  0.6000
   88MOL0     C12029   2.077  10.903   9.027  0.0121 -0.2209 -0.8812
   88MOL0     O12030   2.158  10.899   9.149  0.6383  0.6903  0.6345
   88MOL0     C12031   2.231  10.784   9.163 -0.0042 -0.2083 -0.9572
   88MOL0     C12032   2.184  10.658   9.169 -0.0437 -0.2577  0.6185
   88MOL0     C12033   2.267  10.542   9.162 -0.2982 -1.3988  0.6932
   88MOL0     C12034   2.214  10.405   9.181  0.6935  0.7088  0.6347
   88MOL0     C12035   2.408  10.561   9.141 -0.2879 -0.2213 -0.1776
   88MOL0     C12036   2.509  10.454   9.126 -0.8607 -0.5292 -0.7387
   88MOL0     O12037   2.634  10.468   9.180 -0.1522  0.6238 -0.5523
   88MOL0     C12038   2.728  10.362   9.189  0.4878 -0.0501  0.8207
   88MOL0     C12039   2.757  10.276   9.079 -0.3578 -0.4811  0.2040
   88MOL0     C12040   2.849  10.174   9.083 -0.7402  0.1532  0.0012
   88MOL0     C12041   2.918  10.154   9.203  0.3144  0.6943 -0.7079
   88MOL0     O12042   3.001  10.054   9.228 -0.4354  0.1411  0.4171
   88MOL0     C12043   3.054   9.980   9.117 -0.1764 -0.2639 -0.6597
   88MOL0     C12044   3.144   9.863   9.174  0.2168  0.5567 -0.4609
   88MOL0     C12045   3.219   9.792   9.060 -0.3139  0.2706 -0.4059
   88MOL0     C12046   3.141   9.678   8.995  0.4750 -0.1465 -0.8947
   88MOL0     C12047   3.224   9.596   8.893 -0.2845  0.0351  0.0292
   88MOL0     C12048   3.223   9.666   8.763  0.0742 -0.1231 -0.7195
   88MOL0     C12049   3.266   9.571   8.659 -0.4513  0.2679  0.4897
   88MOL0     C12050   3.260   9.624   8.517  1.3207  0.5480  0.9391
   88MOL0    Cl12051   3.393   9.736   8.481  0.1969  0.1131 -0.7891
   88MOL0     C12052   2.900  10.236   9.307 -0.1302 -0.2779  0.3590
   88MOL0     C12053   2.801  10.339   9.300  1.0868 -0.0763  1.1776
   88MOL0     O12054   2.475  10.372   9.049 -0.1730 -0.0315 -0.1021
   88MOL0     C12055   2.446  10.695   9.152 -0.5743 -0.4559  0.2246
   88MOL0     C12056   2.365  10.797   9.167  0.0741 -0.2167 -0.1394
   88MOL0     N12057   2.038  11.005   8.435 -0.0560 -0.7575  0.4164
   88MOL0     N12058   1.926  11.027   8.371  0.3506 -0.7242  0.2860
   88MOL0     C12059   1.431  10.375   7.666  0.4367  0.1706  0.4781
   88MOL0     C12060   1.431  10.238   7.705  0.2599 -0.0802  0.6803
   88MOL0     C12061   1.401   9.839   7.819  0.6902  0.5078  0.0607
   88MOL0     C12062   1.539   9.821   7.853  0.4592 -0.3058  0.9865
   88MOL0     C12063   1.590   9.693   7.899  0.0525  0.5846  0.3933
   88MOL0     C12064   1.489   9.594   7.931 -1.0861  0.3918 -0.8660
   88MOL0     O12065   1.536   9.468   7.981  0.8857  0.1012 -1.0690
   88MOL0     C12066   1.510   9.360   7.897  0.6388  0.0250  0.2626
   88MOL0     C12067   1.623   9.250   7.881  0.0780  0.1944 -0.4622
   88MOL0     C12068   1.651   9.201   8.027  1.4180  0.5315  0.2836
   88MOL0     C12069   1.765   9.095   8.031 -0.2344  0.2524  0.6190
   88MOL0     C12070   1.762   9.035   8.163  0.5755  0.2836  0.0184
   88MOL0     C12071   1.775   8.965   8.266 -0.0587  0.2586  0.9733
   88MOL0     C12072   1.355   9.619   7.897 -0.1042  0.2492 -0.5988
   88MOL0     C12073   1.313   9.737   7.843 -0.4885 -0.7271  0.3278
   88MOL0     C12074   1.174   9.735   7.800 -0.5884  0.3136 -0.2767
   88MOL0     H12075   1.197  10.257   7.953 -1.3292 -1.1672 -0.4064
   88MOL0     H12076   1.195  10.478   7.882 -1.2946 -0.3942  0.5665
   88MOL0     H12077   1.483  10.705   7.593  1.7612  0.0096 -0.4639
   88MOL0     H12078   1.575  10.616   7.695  1.6862  3.9829 -0.7571
   88MOL0     H12079   1.545  10.863   7.745 -1.0186  0.9214  1.1779
   88MOL0     H12080   1.379  10.824   7.779  1.4137  2.9827 -0.5698
   88MOL0     H12081   1.506  10.871   7.973 -0.8808  0.9615 -2.9078
   88MOL0     H12082   1.421  10.722   7.995 -0.0451  0.3928  0.1517
   88MOL0     H12083   1.614  10.591   7.913  3.1450 -0.8715  2.7042
   88MOL0     H12084   1.718  10.719   7.894  0.4542  0.1071 -0.6670
   88MOL0     H12085   1.764  10.605   8.097  0.7921  0.0575  4.5554
   88MOL0     H12086   1.598  10.632   8.168  0.9020 -0.1990  1.1007
   88MOL0     H12087   1.836  10.757   8.229  0.4216 -0.5589  1.2592
   88MOL0     H12088   1.754  10.882   8.127  1.4864  1.9390  3.1595
   88MOL0     H12089   1.675  10.743   8.378 -0.0462  0.1841  0.4161
   88MOL0     H12090   1.551  10.820   8.287  0.4512 -0.0716 -0.7235
   88MOL0     H12091   1.677  11.051   8.311 -0.4864 -0.9542 -0.3767
   88MOL0     H12092   1.611  10.987   8.450 -1.6499  1.1423 -1.8296
   88MOL0     H12093   1.807  10.841   8.602 -0.9835  0.7830 -1.6593
   88MOL0     H12094   2.188  10.967   8.649 -0.4882  0.4495  0.9730
   88MOL0     H12095   2.137  10.795   8.617  2.1715  0.3000 -1.7619
   88MOL0     H12096   1.972  10.965   8.793 -0.0696  0.5921  1.4085
   88MOL0     H12097   1.989  10.788   8.788 -0.9810  1.5403  1.5869
   88MOL0     H12098   2.224  10.811   8.903 -1.4457 -1.3943  1.8380
   88MOL0     H12099   2.210  10.989   8.888  0.7284 -1.2060 -2.3605
   88MOL0     H12100   2.006  10.987   9.023 -2.3922 -2.1526 -0.9496
   88MOL0     H12101   2.006  10.820   9.029 -0.0164 -0.2156 -1.4766
   88MOL0     H12102   2.076  10.648   9.176 -0.9741  4.9704 -1.5441
   88MOL0     H12103   2.271  10.347   9.255 -0.7915  2.5515  3.4071
   88MOL0     H12104   2.216  10.346   9.089 -2.1070  1.8821 -0.2611
   88MOL0     H12105   2.111  10.413   9.216 -0.7378 -0.9491 -2.8079
   88MOL0     H12106   2.705  10.286   8.984 -1.0577  0.0914  0.6362
   88MOL0     H12107   2.860  10.113   8.994 -2.7357  0.4053 -0.4570
   88MOL0     H12108   2.981   9.929   9.053  0.1365  1.0401 -2.1378
   88MOL0     H12109   3.112  10.047   9.053 -2.0021 -0.2524 -2.3933
   88MOL0     H12110   3.207   9.913   9.247 -0.2395  2.7034 -1.4669
   88MOL0     H12111   3.083   9.787   9.224  0.2784  1.2003  0.6163
   88MOL0     H12112   3.317   9.755   9.094 -0.0428  0.6559 -0.7607
   88MOL0     H12113   3.236   9.872   8.987 -1.9449  0.3314 -0.7670
   88MOL0     H12114   3.056   9.734   8.954 -0.6160  1.7035  3.3738
   88MOL0     H12115   3.109   9.616   9.079  1.8767  0.4302  0.1073
   88MOL0     H12116   3.325   9.578   8.930 -1.3550  0.6566  3.5951
   88MOL0     H12117   3.182   9.496   8.884  0.1444 -0.2352  0.9463
   88MOL0     H12118   3.277   9.760   8.778  1.6509 -1.4324  3.1986
   88MOL0     H12119   3.118   9.691   8.747 -0.8828 -0.5387  3.6733
   88MOL0     H12120   3.203   9.483   8.644 -0.6214 -0.0990  2.9731
   88MOL0     H12121   3.365   9.533   8.687 -0.1429  0.2945 -0.5244
   88MOL0     H12122   3.159   9.654   8.488  1.3824 -0.8816 -0.9438
   88MOL0     H12123   3.263   9.539   8.449 -1.6023  0.4987  0.7524
   88MOL0     H12124   2.966  10.214   9.390 -0.2780 -1.8313  0.0964
   88MOL0     H12125   2.768  10.401   9.383 -1.0466  0.1626  0.2069
   88MOL0     H12126   2.553  10.713   9.155 -0.3938 -1.3826 -0.1698
   88MOL0     H12127   2.406  10.898   9.168 -0.4533 -0.0031  0.7899
   88MOL0     H12128   1.498  10.408   7.587  2.1770 -0.6273  1.5402
   88MOL0     H12129   1.493  10.167   7.652 -0.6839 -1.5955  1.5091
   88MOL0     H12130   1.609   9.904   7.843 -1.8969  1.7085  0.1742
   88MOL0     H12131   1.696   9.681   7.916  0.5315  2.9618 -0.5961
   88MOL0     H12132   1.421   9.305   7.928  1.4583 -1.0408  0.7653
   88MOL0     H12133   1.487   9.400   7.797 -2.2146  0.1058  0.8471
   88MOL0     H12134   1.718   9.286   7.839  1.1254  1.4041  2.6129
   88MOL0     H12135   1.586   9.169   7.819 -2.3868  0.3772  0.6415
   88MOL0     H12136   1.680   9.292   8.080  2.4375  0.1442  0.4171
   88MOL0     H12137   1.557   9.178   8.077 -0.4202  1.7499 -2.3791
   88MOL0     H12138   1.867   9.133   8.017 -0.5695  0.7070 -0.7461
   88MOL0     H12139   1.750   9.021   7.952  2.8717 -1.3723  1.3676
   88MOL0     H12140   1.782   8.885   8.336  1.7711 -0.7916 -0.3219
   88MOL0     H12141   1.281   9.548   7.932  2.0720 -1.8697  0.0406
   88MOL0     H12142   1.172   9.727   7.691 -2.3603  3.1033 -0.5683
   88MOL0     H12143   1.121   9.653   7.848  5.6159 -1.8301  4.2142
   88MOL0     H12144   1.121   9.827   7.827  0.5624  0.3853  1.9646
   89MOL0     O12145   9.039  11.471   3.093 -0.4319 -1.0600  0.0103
   89MOL0     C12146   9.074  11.578   3.050 -0.5764  0.5861  0.6199
   89MOL0     O12147   9.183  11.603   2.982 -0.4655 -1.4293  0.1620
   89MOL0     C12148   9.293  11.525   2.967 -0.1061 -0.0712  0.1814
   89MOL0     C12149   9.333  11.428   3.063 -0.0563 -0.7294  0.7184
   89MOL0     C12150   9.440  11.344   3.027 -0.7772 -0.0132 -0.1787
   89MOL0     C12151   9.522  11.357   2.915  0.4411  0.2662  0.4787
   89MOL0     O12152   9.633  11.280   2.874  0.5824 -0.4741  0.9256
   89MOL0     C12153   9.691  11.191   2.972 -0.7039  0.0911 -0.4053
   89MOL0     C12154   9.794  11.111   2.909  0.2899  0.2714  1.0471
   89MOL0     C12155   9.891  11.202   2.826 -0.2823  0.1076 -0.1915
   89MOL0     C12156  10.006  11.121   2.767 -0.2169  0.6824  0.0776
   89MOL0     C12157  10.090  11.206   2.668  0.2753  0.3540  0.0065
   89MOL0     C12158  10.175  11.115   2.569  0.2993  0.0041 -0.1248
   89MOL0     C12159  10.278  11.206   2.506 -0.0760  0.5138 -0.2818
   89MOL0     C12160  10.361  11.149   2.389  0.5352  0.3435 -0.3273
   89MOL0     N12161  10.471  11.061   2.447 -0.3145 -0.4049  0.2761
   89MOL0     C12162  10.537  11.079   2.569 -0.5576  0.0120  0.3378
   89MOL0     C12163  10.611  10.966   2.591  1.4856  0.7395 -0.5032
   89MOL0     C12164  10.692  10.933   2.714  0.1514  0.0203  0.2841
   89MOL0     C12165  10.665  10.788   2.766 -0.4899 -0.1657 -0.9951
   89MOL0     C12166  10.707  10.783   2.918  0.2940  0.3620  0.3037
   89MOL0     C12167  10.698  10.642   2.986 -0.0587 -0.0934 -0.7827
   89MOL0     O12168  10.553  10.617   3.025 -0.2364 -0.4151  0.0284
   89MOL0     C12169  10.505  10.633   3.154  0.1738 -0.5334 -0.6122
   89MOL0     C12170  10.577  10.666   3.271 -0.3042 -0.2671 -0.1913
   89MOL0     C12171  10.533  10.651   3.398  0.4742 -0.3020  0.5221
   89MOL0     C12172  10.619  10.706   3.500 -0.2706  0.7643  0.0035
   89MOL0     C12173  10.396  10.619   3.413 -0.5657 -0.1623 -0.8395
   89MOL0     C12174  10.338  10.614   3.548 -0.1640 -0.5386 -0.1821
   89MOL0     O12175  10.221  10.533   3.552 -0.3339 -0.4933 -0.0305
   89MOL0     C12176  10.181  10.480   3.669 -0.2190 -0.0054  0.0372
   89MOL0     C12177  10.047  10.502   3.728  0.1366 -0.0476  0.9772
   89MOL0     C12178  10.004  10.460   3.851  0.1219 -0.4856  0.1571
   89MOL0     C12179  10.083  10.369   3.920  0.5262 -0.2476 -0.2937
   89MOL0     O12180  10.035  10.317   4.034 -0.3033  0.7978 -0.5104
   89MOL0     C12181  10.127  10.258   4.129 -0.0013 -0.5276  0.3688
   89MOL0     C12182  10.057  10.227   4.266  0.0717  0.7277 -1.0359
   89MOL0     C12183  10.017  10.359   4.342  0.3343 -0.2705  0.1028
   89MOL0     C12184  10.002  10.344   4.494 -0.2553 -0.0598 -0.9225
   89MOL0     C12185   9.960  10.480   4.567 -0.0231 -1.5257 -0.9266
   89MOL0     C12186  10.014  10.487   4.707  0.6346  0.4439  1.0029
   89MOL0     C12187   9.930  10.395   4.804 -0.3711  0.6969 -1.0332
   89MOL0     C12188   9.991  10.399   4.946 -0.4000  0.1877 -0.0548
   89MOL0    Cl12189   9.920  10.279   5.050 -0.2798  0.0780  0.0250
   89MOL0     C12190  10.216  10.347   3.869  0.0845  0.2012  0.1177
   89MOL0     C12191  10.270  10.402   3.752  1.1924  0.7239 -0.1641
   89MOL0     O12192  10.364  10.702   3.628 -0.4286  0.3191 -0.5038
   89MOL0     C12193  10.316  10.577   3.301 -0.0164  0.3474  0.1665
   89MOL0     C12194  10.377  10.586   3.174  0.4418 -0.4115 -0.4235
   89MOL0     N12195  10.579  10.870   2.496  0.1299 -0.3400  0.5111
   89MOL0     N12196  10.491  10.928   2.414 -0.6482 -0.7659  0.1628
   89MOL0     C12197   9.477  11.463   2.826 -0.0021 -0.2052 -0.2444
   89MOL0     C12198   9.372  11.550   2.861 -0.2079 -0.2017  0.8304
   89MOL0     C12199   8.974  11.692   3.075  1.2911 -0.6947  0.1698
   89MOL0     C12200   8.910  11.740   2.959  0.2493 -0.4825  0.7284
   89MOL0     C12201   8.798  11.828   2.981  0.0895  0.4809 -0.1530
   89MOL0     C12202   8.774  11.893   3.107 -0.9503 -0.0663 -0.0626
   89MOL0     O12203   8.691  12.001   3.111 -0.5650  0.0862 -0.0487
   89MOL0     C12204   8.557  11.976   3.153 -0.4866 -0.1077  0.4354
   89MOL0     C12205   8.549  12.070   3.269  0.6088 -0.0752  0.4484
   89MOL0     C12206   8.414  12.092   3.345  0.5796 -0.7000 -0.3101
   89MOL0     C12207   8.288  12.124   3.251 -0.2633  0.4820  0.1561
   89MOL0     C12208   8.241  12.002   3.182 -0.8377 -0.3577 -0.3705
   89MOL0     C12209   8.208  11.900   3.120  0.6312 -0.1716  0.4535
   89MOL0     C12210   8.847  11.846   3.218  0.6410  0.2261 -0.2786
   89MOL0     C12211   8.944  11.744   3.205  0.1270 -1.2771  1.2440
   89MOL0     C12212   9.009  11.706   3.335 -0.4190 -0.2050 -0.3458
   89MOL0     H12213   9.268  11.413   3.148 -2.5746 -2.0660 -1.2926
   89MOL0     H12214   9.457  11.270   3.105  0.7636  1.5390  1.0395
   89MOL0     H12215   9.620  11.137   3.035 -1.6628  0.9074 -0.7712
   89MOL0     H12216   9.742  11.259   3.041 -0.3873 -1.1284  0.6060
   89MOL0     H12217   9.858  11.059   2.980  3.9600  1.0778 -1.4108
   89MOL0     H12218   9.739  11.033   2.856  2.1850 -0.7721  0.5524
   89MOL0     H12219   9.845  11.247   2.738  2.1409 -0.6507 -1.9626
   89MOL0     H12220   9.926  11.276   2.898 -0.3075 -0.6906  0.6661
   89MOL0     H12221  10.081  11.104   2.845  1.3121  0.1504 -1.4297
   89MOL0     H12222   9.968  11.029   2.722  0.8942  0.6911 -0.9332
   89MOL0     H12223  10.162  11.272   2.717  3.1447 -1.8486 -0.9642
   89MOL0     H12224  10.027  11.269   2.604  2.8086  0.9307 -2.1089
   89MOL0     H12225  10.213  11.024   2.617  0.5809 -0.2370 -0.7808
   89MOL0     H12226  10.112  11.082   2.485  0.8251 -2.7427  0.4735
   89MOL0     H12227  10.343  11.259   2.576 -0.3530  2.5588 -1.4880
   89MOL0     H12228  10.216  11.288   2.467 -0.1973 -0.1032 -1.4409
   89MOL0     H12229  10.306  11.083   2.321 -1.1398  2.1110 -0.7664
   89MOL0     H12230  10.412  11.229   2.334 -1.5264  0.4537 -2.2339
   89MOL0     H12231  10.541  11.170   2.627 -0.7991 -1.0998  2.1737
   89MOL0     H12232  10.659  11.001   2.793 -3.2260 -1.9634  0.7613
   89MOL0     H12233  10.799  10.947   2.696  0.4965 -3.5951 -1.3864
   89MOL0     H12234  10.565  10.748   2.749 -0.4586  0.6826 -3.4688
   89MOL0     H12235  10.731  10.723   2.709  1.2968  0.6872  0.0033
   89MOL0     H12236  10.810  10.816   2.938  0.4076 -1.2648  2.7875
   89MOL0     H12237  10.637  10.849   2.970 -1.8062 -1.0895 -0.5941
   89MOL0     H12238  10.737  10.570   2.914  2.5175  1.8725 -1.5217
   89MOL0     H12239  10.757  10.632   3.077  2.9452  3.7897 -2.0052
   89MOL0     H12240  10.675  10.712   3.265  1.4225 -3.8134 -1.8720
   89MOL0     H12241  10.727  10.698   3.481 -0.4533  1.2280 -1.3249
   89MOL0     H12242  10.603  10.646   3.589  0.3286 -1.0689 -1.0706
   89MOL0     H12243  10.601  10.811   3.525 -1.2122  0.3948  0.9274
   89MOL0     H12244   9.980  10.567   3.671  2.3599  1.1193 -0.4421
   89MOL0     H12245   9.908  10.493   3.888  0.9418  0.6938  1.3344
   89MOL0     H12246  10.172  10.166   4.091  0.1998 -0.1723 -0.2563
   89MOL0     H12247  10.216  10.320   4.144  0.7511 -0.7783 -2.6067
   89MOL0     H12248   9.972  10.160   4.251 -0.1004  0.9966 -1.2528
   89MOL0     H12249  10.131  10.173   4.326  0.0253  1.5905 -0.1847
   89MOL0     H12250   9.927  10.407   4.303 -0.1015  0.3580  1.7834
   89MOL0     H12251  10.090  10.435   4.315  1.1451 -1.2187 -0.4656
   89MOL0     H12252  10.085  10.300   4.549 -2.6880 -1.4835  1.9004
   89MOL0     H12253   9.929  10.265   4.515  0.1740 -0.1897  0.1593
   89MOL0     H12254  10.004  10.563   4.511  1.2835 -0.3604  1.6583
   89MOL0     H12255   9.852  10.498   4.570  0.4964  2.5049  2.0705
   89MOL0     H12256  10.015  10.592   4.738  0.5593  0.9878 -0.7551
   89MOL0     H12257  10.121  10.462   4.703  0.5565  0.2547 -0.3647
   89MOL0     H12258   9.943  10.292   4.770 -0.2103  0.5577 -0.5547
   89MOL0     H12259   9.824  10.424   4.807  0.4398  4.0265 -0.2685
   89MOL0     H12260   9.972  10.499   4.984 -1.8734  0.0710 -0.4306
   89MOL0     H12261  10.100  10.395   4.951  0.5247  2.9601 -6.8113
   89MOL0     H12262  10.286  10.279   3.918  0.2492 -0.4887 -1.0386
   89MOL0     H12263  10.373  10.395   3.720  1.2855 -0.4423  0.3412
   89MOL0     H12264  10.217  10.535   3.289  0.0505  0.5329 -1.2482
   89MOL0     H12265  10.315  10.551   3.092 -0.8432  1.6574 -0.4167
   89MOL0     H12266   9.528  11.498   2.736  1.3762 -3.7305 -0.9735
   89MOL0     H12267   9.353  11.642   2.807 -1.0423 -1.3837 -1.0233
   89MOL0     H12268   8.950  11.698   2.868  1.2761 -1.1265  1.4454
   89MOL0     H12269   8.740  11.870   2.899  0.0590  2.4383  0.8353
   89MOL0     H12270   8.480  11.998   3.079  1.7101  1.4279 -1.5733
   89MOL0     H12271   8.533  11.870   3.170  3.2881 -1.5869 -2.0806
   89MOL0     H12272   8.570  12.170   3.230 -0.7635  0.5315  1.2095
   89MOL0     H12273   8.622  12.045   3.348  0.8996 -0.3657  0.0892
   89MOL0     H12274   8.393  12.002   3.403  0.1541 -2.5573 -3.1367
   89MOL0     H12275   8.425  12.167   3.424  1.7249  0.1515 -1.2408
   89MOL0     H12276   8.310  12.201   3.176 -0.3110 -1.0141 -1.4743
   89MOL0     H12277   8.211  12.167   3.316 -0.9543 -1.2849  0.5669
   89MOL0     H12278   8.168  11.811   3.075  1.3282 -0.4732  0.4213
   89MOL0     H12279   8.827  11.891   3.314  3.0041 -2.4661  1.6357
   89MOL0     H12280   8.936  11.646   3.391 -0.8248  0.6905  0.0951
   89MOL0     H12281   9.093  11.640   3.309 -1.8060 -3.0126  1.7634
   89MOL0     H12282   9.038  11.791   3.397 -2.8547  2.7214 -2.8926
   90MOL0     O12283   9.126   0.661   8.548  0.0513 -0.4563 -0.2941
   90MOL0     C12284   9.012   0.676   8.593  0.5691  1.3011  0.1326
   90MOL0     O12285   8.910   0.765   8.540 -0.9816 -0.5853  0.8397
   90MOL0     C12286   8.916   0.787   8.405  0.1974 -1.0256  0.8536
   90MOL0     C12287   8.946   0.687   8.310 -0.0361 -0.3850 -0.3453
   90MOL0     C12288   8.924   0.707   8.176  0.4622 -0.2323  0.4386
   90MOL0     C12289   8.873   0.837   8.131 -1.1135  1.1381 -0.5943
   90MOL0     O12290   8.860   0.861   8.000  0.2288  0.0745 -0.8071
   90MOL0     C12291   8.904   0.773   7.896  0.9090 -0.0969  0.4037
   90MOL0     C12292   8.858   0.849   7.768  0.4560 -0.7286  0.4050
   90MOL0     C12293   8.894   0.776   7.640 -0.0195  0.1336 -0.0069
   90MOL0     C12294   8.920   0.878   7.528 -0.2663 -0.0133 -0.2630
   90MOL0     C12295   8.941   0.800   7.401 -0.8230 -0.1429  0.2369
   90MOL0     C12296   8.809   0.770   7.330  0.5317 -0.8061  0.3336
   90MOL0     C12297   8.745   0.880   7.243  0.4380 -0.1090 -1.0460
   90MOL0     C12298   8.639   0.816   7.151  0.8581  0.2551 -0.5962
   90MOL0     N12299   8.552   0.926   7.097  0.0464 -0.1946  0.1858
   90MOL0     C12300   8.595   1.028   7.020  0.4880 -0.2337 -0.4279
   90MOL0     C12301   8.489   1.112   7.011  0.1614  0.5122 -0.7452
   90MOL0     C12302   8.487   1.220   6.910 -1.0883  0.4383 -0.3989
   90MOL0     C12303   8.496   1.360   6.974 -0.8808 -0.1810  0.7575
   90MOL0     C12304   8.469   1.478   6.872  0.4598  0.4630 -0.1610
   90MOL0     C12305   8.458   1.613   6.936  0.9480  0.2641  0.3724
   90MOL0     O12306   8.372   1.694   6.851 -0.5604 -0.2838 -0.6878
   90MOL0     C12307   8.409   1.747   6.733 -0.3025  0.0508 -0.9662
   90MOL0     C12308   8.314   1.825   6.670 -0.7213  0.7452 -0.0594
   90MOL0     C12309   8.326   1.874   6.546  0.0866  0.9415  0.1943
   90MOL0     C12310   8.199   1.939   6.501 -0.1061 -1.1698  0.3824
   90MOL0     C12311   8.449   1.856   6.479  0.7871 -0.5892 -0.3630
   90MOL0     C12312   8.469   1.899   6.340  0.3742  0.2099 -0.1892
   90MOL0     O12313   8.589   1.850   6.295  0.0063  0.0350  0.1840
   90MOL0     C12314   8.638   1.903   6.180  1.1618 -0.1226  1.0506
   90MOL0     C12315   8.674   2.036   6.179  1.1266 -0.4705  0.2015
   90MOL0     C12316   8.706   2.105   6.057 -0.0261  1.1400  0.1094
   90MOL0     C12317   8.712   2.037   5.940  0.2818  0.0286 -0.6917
   90MOL0     O12318   8.745   2.105   5.821  0.0742  0.2148 -0.4473
   90MOL0     C12319   8.762   2.033   5.699  0.1575 -1.1220 -0.9810
   90MOL0     C12320   8.795   2.133   5.593 -0.2517 -0.2761  0.8027
   90MOL0     C12321   8.876   2.261   5.643  0.1699 -0.2663 -0.5063
   90MOL0     C12322   8.784   2.369   5.692  0.2278  0.3805 -0.0868
   90MOL0     C12323   8.862   2.497   5.732 -0.2629 -0.4025  0.2653
   90MOL0     C12324   8.776   2.594   5.802 -0.7031  0.3488 -0.1400
   90MOL0     C12325   8.650   2.640   5.738  0.5056 -0.7313  0.5472
   90MOL0     C12326   8.591   2.763   5.810  0.5028  0.1483  0.3176
   90MOL0    Cl12327   8.566   2.735   5.986 -0.1453  0.1634 -0.3102
   90MOL0     C12328   8.683   1.899   5.944 -0.3970 -0.2169 -0.2876
   90MOL0     C12329   8.638   1.831   6.066 -0.7215 -1.2270 -0.2924
   90MOL0     O12330   8.387   1.964   6.273  1.1495  0.0507 -0.8328
   90MOL0     C12331   8.549   1.781   6.547 -0.2766 -0.0117 -0.5376
   90MOL0     C12332   8.528   1.727   6.666  0.6010  1.3504  0.1826
   90MOL0     N12333   8.395   1.077   7.099 -0.4307  0.0050 -0.3803
   90MOL0     N12334   8.434   0.969   7.164  0.0662 -0.4754 -0.6636
   90MOL0     C12335   8.859   0.931   8.226  0.2402  0.0031 -0.1994
   90MOL0     C12336   8.880   0.908   8.362  0.0971 -0.5396 -0.7568
   90MOL0     C12337   8.957   0.581   8.691  0.2252 -0.6671 -0.1774
   90MOL0     C12338   8.816   0.592   8.728  0.1974  0.2970 -0.1027
   90MOL0     C12339   8.758   0.493   8.814 -0.1908 -0.9559  0.0804
   90MOL0     C12340   8.827   0.386   8.870 -0.6671 -1.1252 -0.4420
   90MOL0     O12341   8.756   0.286   8.944  0.0823  0.0989  0.0708
   90MOL0     C12342   8.827   0.165   8.992 -0.7847 -0.0842  0.2212
   90MOL0     C12343   8.808   0.049   8.893 -1.1565 -0.6327 -0.2303
   90MOL0     C12344   8.810  -0.080   8.969  0.7490  0.3931 -1.2358
   90MOL0     C12345   8.789  -0.200   8.868  0.0185 -0.0646 -0.7561
   90MOL0     C12346   8.789  -0.328   8.943  0.0637  0.3643 -0.2879
   90MOL0     C12347   8.780  -0.433   9.005  0.9316  0.0341 -1.0765
   90MOL0     C12348   8.969   0.389   8.838 -0.1898 -0.1913  0.5138
   90MOL0     C12349   9.036   0.490   8.762  0.1486  0.0315  0.6775
   90MOL0     C12350   9.186   0.466   8.735 -0.3982 -0.1500  0.0150
   90MOL0     H12351   8.972   0.589   8.349 -0.7412 -0.4516 -0.0080
   90MOL0     H12352   8.955   0.632   8.104  1.6688 -0.5206  1.2234
   90MOL0     H12353   8.835   0.688   7.907  0.6943 -0.0422 -0.4428
   90MOL0     H12354   9.009   0.744   7.904  0.5828 -2.0450 -1.4498
   90MOL0     H12355   8.749   0.855   7.765  0.5737  1.7938 -0.5053
   90MOL0     H12356   8.890   0.953   7.774  2.4555 -1.3070  0.4906
   90MOL0     H12357   8.972   0.700   7.654 -0.4174 -0.6709 -1.8483
   90MOL0     H12358   8.805   0.718   7.610  0.6687  1.3361 -5.5076
   90MOL0     H12359   8.836   0.946   7.512 -0.1216 -0.1603 -1.8096
   90MOL0     H12360   8.998   0.947   7.559 -0.7832 -0.0611  1.2365
   90MOL0     H12361   8.999   0.708   7.407  4.8432  2.9018 -0.6211
   90MOL0     H12362   8.999   0.868   7.338 -0.8599  0.4632  0.8481
   90MOL0     H12363   8.832   0.684   7.267  0.3154 -1.4990  1.1706
   90MOL0     H12364   8.741   0.738   7.409 -0.3436 -0.6432 -0.3488
   90MOL0     H12365   8.812   0.936   7.177  2.1563 -4.3410 -3.2570
   90MOL0     H12366   8.704   0.959   7.306  0.0636 -1.3212  0.2784
   90MOL0     H12367   8.682   0.750   7.076 -0.5011 -0.1969 -0.9973
   90MOL0     H12368   8.576   0.755   7.216 -0.6261  1.3879 -0.9310
   90MOL0     H12369   8.687   1.028   6.962 -0.0907 -0.4328 -1.3664
   90MOL0     H12370   8.394   1.212   6.853 -0.1208 -0.6660 -1.8989
   90MOL0     H12371   8.574   1.210   6.844 -0.1120  0.0506  0.9053
   90MOL0     H12372   8.429   1.368   7.061 -0.4326 -0.7552  1.1663
   90MOL0     H12373   8.602   1.369   7.000 -0.4874  2.5811 -1.3547
   90MOL0     H12374   8.550   1.481   6.798 -0.0442 -2.0055 -0.9121
   90MOL0     H12375   8.372   1.446   6.833  0.3462 -2.3830  2.1620
   90MOL0     H12376   8.410   1.614   7.035 -2.7614 -0.5503 -1.2549
   90MOL0     H12377   8.559   1.654   6.938  0.9810  0.2088 -0.1416
   90MOL0     H12378   8.221   1.830   6.725 -0.7446 -0.1373 -0.0002
   90MOL0     H12379   8.122   1.955   6.577 -1.1172  0.0496 -0.8551
   90MOL0     H12380   8.152   1.873   6.427  3.1506 -0.0705 -2.9142
   90MOL0     H12381   8.223   2.040   6.468  1.0226 -1.0933  1.3469
   90MOL0     H12382   8.659   2.083   6.276  0.3652  1.0419 -0.6237
   90MOL0     H12383   8.730   2.210   6.046 -0.6653  1.2708 -0.0166
   90MOL0     H12384   8.842   1.959   5.708  1.9308  0.9100  1.0467
   90MOL0     H12385   8.681   1.965   5.668 -3.1767  2.3192 -0.5050
   90MOL0     H12386   8.849   2.077   5.517  1.2190  0.6337  1.1428
   90MOL0     H12387   8.704   2.169   5.543 -0.4935 -2.3627 -0.3700
   90MOL0     H12388   8.943   2.294   5.564  1.4599  5.4701  2.4235
   90MOL0     H12389   8.938   2.233   5.729 -0.5333  2.3618  0.9924
   90MOL0     H12390   8.722   2.350   5.779 -0.6396  3.3553  0.0777
   90MOL0     H12391   8.715   2.386   5.609  0.1242  3.0161  0.4292
   90MOL0     H12392   8.947   2.469   5.794  2.4016  0.2192 -2.8600
   90MOL0     H12393   8.899   2.538   5.637 -2.7410  0.4857 -0.4089
   90MOL0     H12394   8.830   2.688   5.820 -1.4810  0.2684  3.4102
   90MOL0     H12395   8.752   2.555   5.901  2.4064  0.6078  0.8240
   90MOL0     H12396   8.575   2.560   5.742  1.2804 -1.5188 -0.1876
   90MOL0     H12397   8.668   2.670   5.635  1.3959  0.1504  0.9476
   90MOL0     H12398   8.495   2.780   5.759 -2.3140 -1.2882  4.5989
   90MOL0     H12399   8.646   2.855   5.791  0.4625 -0.1359 -1.3884
   90MOL0     H12400   8.685   1.842   5.851 -2.3863 -0.9255  0.0597
   90MOL0     H12401   8.617   1.724   6.067 -2.9565 -0.8339 -0.1517
   90MOL0     H12402   8.646   1.747   6.513  0.3628  1.3566 -0.1773
   90MOL0     H12403   8.616   1.678   6.705  2.4703  5.7810  2.2606
   90MOL0     H12404   8.823   1.024   8.182  0.2364 -0.9784 -2.3895
   90MOL0     H12405   8.837   0.970   8.439 -0.0779  0.3196 -1.5311
   90MOL0     H12406   8.741   0.668   8.710 -1.4131 -0.8950  1.2347
   90MOL0     H12407   8.657   0.514   8.847  0.5960  0.8703  1.5368
   90MOL0     H12408   8.930   0.192   9.016 -1.4129  3.3098 -0.3698
   90MOL0     H12409   8.785   0.125   9.085  0.5893  0.1663  0.9691
   90MOL0     H12410   8.890   0.053   8.820 -1.1597  0.4315 -0.2030
   90MOL0     H12411   8.720   0.056   8.829  0.1847  0.0773 -2.1209
   90MOL0     H12412   8.899  -0.089   9.032 -0.1015  0.5610  0.0287
   90MOL0     H12413   8.726  -0.075   9.039  0.0179  0.1277 -2.0794
   90MOL0     H12414   8.866  -0.195   8.790 -1.4998  1.6676 -2.2605
   90MOL0     H12415   8.698  -0.186   8.808  0.9557  1.5750 -1.8527
   90MOL0     H12416   8.778  -0.524   9.062  1.5959  0.4095 -0.4389
   90MOL0     H12417   9.026   0.301   8.864 -0.6642 -1.1505 -1.4833
   90MOL0     H12418   9.209   0.422   8.638 -1.1734 -2.0355  0.6271
   90MOL0     H12419   9.232   0.564   8.731  0.1221 -0.3486  0.8376
   90MOL0     H12420   9.230   0.404   8.814 -1.5824 -2.0719 -0.7394
   91MOL0     O12421   1.122   9.888   0.155  0.5613  0.2946  0.1380
   91MOL0     C12422   1.197   9.810   0.219 -0.0147 -1.3460  0.6275
   91MOL0     O12423   1.299   9.739   0.169  0.4902 -0.9396 -0.1765
   91MOL0     C12424   1.332   9.761   0.044 -1.0217  0.7646 -0.3858
   91MOL0     C12425   1.352   9.651  -0.049  0.8063 -1.0447  1.1838
   91MOL0     C12426   1.418   9.676  -0.171 -0.0591  0.6697 -0.8467
   91MOL0     C12427   1.444   9.810  -0.211  0.0829 -0.0056 -0.6429
   91MOL0     O12428   1.504   9.831  -0.337  0.3264  0.6261  0.2900
   91MOL0     C12429   1.461   9.943  -0.409  0.1851 -0.8592 -0.0999
   91MOL0     C12430   1.510   9.933  -0.557  0.1280  0.1483 -0.8140
   91MOL0     C12431   1.557   9.794  -0.599  0.7337 -0.2022  0.4159
   91MOL0     C12432   1.635   9.814  -0.728 -0.5990  0.3919  0.0537
   91MOL0     C12433   1.677   9.693  -0.810  0.1491  0.5458  0.2922
   91MOL0     C12434   1.581   9.583  -0.806  0.0143  0.4277 -0.5911
   91MOL0     C12435   1.624   9.467  -0.893  0.4474  0.5533 -0.5257
   91MOL0     C12436   1.516   9.366  -0.916  0.5802  0.7958 -0.3511
   91MOL0     N12437   1.404   9.420  -0.986  0.5340  0.5281 -0.1625
   91MOL0     C12438   1.401   9.460  -1.118 -0.1714 -1.4517  0.5027
   91MOL0     C12439   1.272   9.512  -1.142 -0.6701 -0.4996  0.6232
   91MOL0     C12440   1.203   9.567  -1.258  0.6036 -0.2409  0.0566
   91MOL0     C12441   1.272   9.687  -1.318  0.3661  0.3576 -0.3020
   91MOL0     C12442   1.241   9.825  -1.247 -0.1849  0.6082 -1.1029
   91MOL0     C12443   1.339   9.934  -1.288 -0.1759 -0.2399  0.4242
   91MOL0     O12444   1.467   9.890  -1.229  0.2987 -0.1802  0.6241
   91MOL0     C12445   1.518   9.991  -1.148  0.6323  0.7092  1.3397
   91MOL0     C12446   1.449  10.044  -1.041  0.4197  0.7708  0.6842
   91MOL0     C12447   1.496  10.151  -0.968 -0.7860 -0.1556 -0.3766
   91MOL0     C12448   1.392  10.201  -0.863  0.0164 -0.5211 -0.4399
   91MOL0     C12449   1.615  10.214  -1.010 -0.2794 -0.0590 -0.6018
   91MOL0     C12450   1.676  10.328  -0.942 -0.5425  0.3937  0.0039
   91MOL0     O12451   1.803  10.360  -0.986  0.5661  0.3631 -0.4825
   91MOL0     C12452   1.887  10.454  -0.927  0.0314 -0.7934 -1.2043
   91MOL0     C12453   2.013  10.466  -0.978 -0.4868  0.0700 -0.4256
   91MOL0     C12454   2.120  10.549  -0.926  0.2707  0.2759  0.0556
   91MOL0     C12455   2.101  10.613  -0.806 -0.1408 -0.2717 -0.3654
   91MOL0     O12456   2.195  10.683  -0.741 -0.4548 -0.4890 -0.0080
   91MOL0     C12457   2.330  10.633  -0.720 -0.2632 -0.3872  0.2261
   91MOL0     C12458   2.296  10.532  -0.608  0.0191 -0.0260 -0.4504
   91MOL0     C12459   2.432  10.499  -0.525 -0.1503  0.1806  0.4204
   91MOL0     C12460   2.406  10.392  -0.418 -0.0194  0.0125  0.3608
   91MOL0     C12461   2.524  10.384  -0.316  0.3950 -0.5857 -1.4660
   91MOL0     C12462   2.491  10.265  -0.221 -0.6090  0.2733  0.2709
   91MOL0     C12463   2.584  10.269  -0.100  0.6120  0.9733  0.5609
   91MOL0     C12464   2.732  10.264  -0.128 -0.3224  0.4968  0.8981
   91MOL0    Cl12465   2.844  10.233   0.010 -0.0638 -0.0184 -0.3875
   91MOL0     C12466   1.972  10.605  -0.748  0.1620 -0.8281 -0.2992
   91MOL0     C12467   1.866  10.536  -0.814 -0.0901 -0.6074 -1.0717
   91MOL0     O12468   1.613  10.391  -0.864  0.0131 -1.1930  0.2273
   91MOL0     C12469   1.674  10.170  -1.129 -0.9265 -0.1723 -0.2781
   91MOL0     C12470   1.629  10.058  -1.191  0.2495  0.3775 -0.1664
   91MOL0     N12471   1.203   9.490  -1.020  0.5276  0.7025  0.0728
   91MOL0     N12472   1.278   9.437  -0.937 -0.2612  0.7894 -0.0860
   91MOL0     C12473   1.415   9.916  -0.125 -0.0838  0.9429  0.5861
   91MOL0     C12474   1.362   9.892  -0.004 -0.3454 -0.1503 -0.2709
   91MOL0     C12475   1.150   9.772   0.358  0.6551 -0.9552  0.3410
   91MOL0     C12476   1.204   9.656   0.416  0.3437  0.0800  0.4009
   91MOL0     C12477   1.161   9.613   0.551 -0.1174  0.9014 -0.7521
   91MOL0     C12478   1.058   9.673   0.621  0.0768 -0.7792  0.3878
   91MOL0     O12479   1.023   9.638   0.739  0.3291 -0.3361 -0.3930
   91MOL0     C12480   0.893   9.587   0.745  0.7229 -0.5932 -0.4616
   91MOL0     C12481   0.891   9.482   0.855  0.5567 -0.6297 -0.7404
   91MOL0     C12482   0.748   9.435   0.867 -1.8116 -0.5791 -0.4605
   91MOL0     C12483   0.741   9.339   0.989 -0.5702 -1.3686 -0.1769
   91MOL0     C12484   0.601   9.290   1.003  1.0910  0.3234  1.0188
   91MOL0     C12485   0.491   9.243   1.026  0.6830  0.2017 -0.3036
   91MOL0     C12486   1.021   9.796   0.572  0.4515 -0.6146  0.3221
   91MOL0     C12487   1.059   9.843   0.440 -0.8719  0.2913  0.5042
   91MOL0     C12488   1.002   9.981   0.400  0.5523  0.7902 -0.2241
   91MOL0     H12489   1.317   9.552  -0.021 -3.8258  0.8692  3.1842
   91MOL0     H12490   1.439   9.591  -0.235 -0.7352 -2.4386  2.7128
   91MOL0     H12491   1.501  10.033  -0.361  0.7772 -0.5144 -1.1806
   91MOL0     H12492   1.352   9.941  -0.407  0.1765 -0.6690  2.3255
   91MOL0     H12493   1.428   9.963  -0.624 -0.1081  0.1070 -0.5427
   91MOL0     H12494   1.594  10.002  -0.569 -1.3756  1.7624 -2.8356
   91MOL0     H12495   1.621   9.744  -0.526  2.3350 -0.1461 -0.8871
   91MOL0     H12496   1.466   9.735  -0.615  0.8401 -0.5686  1.1137
   91MOL0     H12497   1.576   9.877  -0.795 -0.0547  0.3700 -0.4498
   91MOL0     H12498   1.732   9.861  -0.717  1.7759 -4.0702  0.7139
   91MOL0     H12499   1.762   9.646  -0.761  0.8870  2.1401  0.5907
   91MOL0     H12500   1.696   9.711  -0.916  0.4861  0.2474  0.3018
   91MOL0     H12501   1.561   9.556  -0.702  2.2033 -2.2249 -0.7413
   91MOL0     H12502   1.493   9.629  -0.850 -1.3863 -0.0705  1.5391
   91MOL0     H12503   1.696   9.407  -0.835 -0.0147  1.7098  1.3128
   91MOL0     H12504   1.678   9.496  -0.984  2.8550 -1.7278  0.0302
   91MOL0     H12505   1.551   9.277  -0.969 -1.6511 -0.6875  0.5492
   91MOL0     H12506   1.478   9.323  -0.823 -1.0630  1.3573 -0.7299
   91MOL0     H12507   1.486   9.455  -1.185  1.0811 -1.5167  2.0336
   91MOL0     H12508   1.097   9.592  -1.243  0.2638 -2.5221  1.9498
   91MOL0     H12509   1.210   9.496  -1.341  3.0102 -1.2468  1.0518
   91MOL0     H12510   1.376   9.662  -1.338  0.1569 -0.6496 -0.1686
   91MOL0     H12511   1.224   9.687  -1.417  0.9199 -0.1928 -0.5748
   91MOL0     H12512   1.138   9.859  -1.265 -0.1937  1.3831  0.2750
   91MOL0     H12513   1.271   9.809  -1.143  3.5144  0.4595 -2.0478
   91MOL0     H12514   1.359   9.946  -1.395  2.7660 -2.2526  0.6398
   91MOL0     H12515   1.304  10.028  -1.243  3.1044  1.6942 -0.6477
   91MOL0     H12516   1.351  10.008  -1.010 -0.2711  1.0438 -1.0530
   91MOL0     H12517   1.298  10.146  -0.873 -0.8299  1.0497 -1.5039
   91MOL0     H12518   1.358  10.297  -0.902 -1.8234 -1.6508 -1.8113
   91MOL0     H12519   1.428  10.209  -0.760 -0.2374 -3.5448 -0.0154
   91MOL0     H12520   2.045  10.402  -1.060  1.2361 -1.7353  1.5189
   91MOL0     H12521   2.219  10.537  -0.968  0.0322  1.0820 -0.7575
   91MOL0     H12522   2.364  10.576  -0.807 -2.5500  0.2553 -1.1793
   91MOL0     H12523   2.392  10.711  -0.678 -0.7986 -0.7978  1.8370
   91MOL0     H12524   2.226  10.577  -0.537 -1.1863  0.5265 -1.9234
   91MOL0     H12525   2.241  10.444  -0.644  2.3892 -0.5015 -3.3360
   91MOL0     H12526   2.478  10.587  -0.480  0.5218  2.2602 -3.8098
   91MOL0     H12527   2.504  10.466  -0.600 -1.2036 -2.2199  0.3750
   91MOL0     H12528   2.398  10.294  -0.465  1.4677 -0.4238  0.9473
   91MOL0     H12529   2.316  10.417  -0.361  1.7145  1.7867  2.5025
   91MOL0     H12530   2.613  10.374  -0.379  0.5106  4.1507 -2.4234
   91MOL0     H12531   2.538  10.474  -0.255 -1.2269  0.6880 -2.8750
   91MOL0     H12532   2.512  10.177  -0.283  0.7468 -0.7844  2.1087
   91MOL0     H12533   2.389  10.257  -0.184 -1.0910 -1.1791 -1.2427
   91MOL0     H12534   2.560  10.179  -0.043  3.3512 -0.1096  0.1272
   91MOL0     H12535   2.555  10.353  -0.036  1.2002  1.7153 -0.1192
   91MOL0     H12536   2.772  10.349  -0.184  1.5302 -0.8700  0.0064
   91MOL0     H12537   2.743  10.184  -0.202 -4.4685  0.9124 -0.4271
   91MOL0     H12538   1.928  10.658  -0.663 -0.9690 -1.2343 -0.6236
   91MOL0     H12539   1.766  10.537  -0.773  0.7424 -3.5538  1.4204
   91MOL0     H12540   1.745  10.236  -1.178 -1.5105 -0.7294 -1.9296
   91MOL0     H12541   1.679  10.025  -1.282  1.9355 -1.2749  1.2913
   91MOL0     H12542   1.436  10.018  -0.158  1.3667  0.3017 -0.5568
   91MOL0     H12543   1.354   9.980   0.058  0.7397 -0.9189  1.0004
   91MOL0     H12544   1.284   9.599   0.370 -0.9473 -3.0444  1.7330
   91MOL0     H12545   1.203   9.525   0.597  0.4409  2.0853  1.0948
   91MOL0     H12546   0.829   9.670   0.776  0.1429 -0.3509 -2.1988
   91MOL0     H12547   0.851   9.558   0.648 -0.4016 -1.9254  0.3956
   91MOL0     H12548   0.930   9.535   0.943 -0.1070  1.0069 -1.4151
   91MOL0     H12549   0.965   9.403   0.837  0.6102 -1.0871  1.2020
   91MOL0     H12550   0.685   9.521   0.893 -0.5262  0.6152 -1.1506
   91MOL0     H12551   0.707   9.385   0.778  0.9171 -0.1768 -2.0581
   91MOL0     H12552   0.784   9.366   1.085 -0.4645 -1.6889 -0.1346
   91MOL0     H12553   0.800   9.252   0.959  0.0971 -1.6074  1.7316
   91MOL0     H12554   0.395   9.202   1.049  1.7055 -1.8678  0.5135
   91MOL0     H12555   0.960   9.857   0.637  0.6416  3.1070 -2.6729
   91MOL0     H12556   1.074  10.037   0.340 -0.0730 -0.5463 -2.3620
   91MOL0     H12557   0.926   9.953   0.325  0.0670  2.0409 -0.2383
   91MOL0     H12558   0.961  10.037   0.484  0.7970 -0.6664  0.8913
   92MOL0     O12559  11.054   7.594   5.054 -0.2859 -0.2920  0.3180
   92MOL0     C12560  10.987   7.578   4.955  0.1495 -1.6575  0.0188
   92MOL0     O12561  10.926   7.682   4.892 -0.1360  0.3976 -0.6495
   92MOL0     C12562  10.923   7.800   4.959  0.1922  1.1908 -0.8396
   92MOL0     C12563  11.006   7.895   4.916 -0.3908 -0.0240  0.2429
   92MOL0     C12564  10.993   8.024   4.987 -0.4036  0.8445  0.5572
   92MOL0     C12565  10.898   8.043   5.087  0.8566  0.6632  0.7220
   92MOL0     O12566  10.871   8.162   5.149 -0.8014 -0.2635  0.4102
   92MOL0     C12567  10.938   8.286   5.122  0.8624  0.6706 -0.2615
   92MOL0     C12568  11.044   8.322   5.225 -0.0124 -0.3424 -1.1248
   92MOL0     C12569  10.991   8.361   5.368  0.9398  0.7035  0.1206
   92MOL0     C12570  11.104   8.432   5.449  0.3313  0.2767 -0.6000
   92MOL0     C12571  11.042   8.470   5.592  0.5816  0.7750  0.5511
   92MOL0     C12572  11.161   8.474   5.704 -0.1028  0.0939 -0.2092
   92MOL0     C12573  11.116   8.546   5.833  0.0330  0.1776 -0.1365
   92MOL0     C12574  11.114   8.447   5.952 -0.8110 -1.3767  0.9564
   92MOL0     N12575  11.242   8.455   6.028 -0.1455 -0.0543 -0.8801
   92MOL0     C12576  11.364   8.436   5.976 -0.5894  0.2292  0.0903
   92MOL0     C12577  11.450   8.502   6.060  0.3313 -0.3306  0.6054
   92MOL0     C12578  11.588   8.518   6.015 -0.6658 -0.9326  0.6779
   92MOL0     C12579  11.680   8.571   6.128 -0.4223 -0.3347  0.0054
   92MOL0     C12580  11.778   8.683   6.097  0.2931 -0.1341  0.6579
   92MOL0     C12581  11.870   8.651   5.977  0.1167  0.4385  0.6278
   92MOL0     O12582  11.964   8.762   5.965  0.7871  0.5009 -0.0172
   92MOL0     C12583  11.991   8.807   5.840  0.0059  0.3817  0.6903
   92MOL0     C12584  12.009   8.721   5.729  0.3275 -0.2438  0.0094
   92MOL0     C12585  12.030   8.770   5.596 -0.3253  0.0662  0.2739
   92MOL0     C12586  12.052   8.680   5.481 -0.2483 -0.4076 -0.5240
   92MOL0     C12587  12.005   8.909   5.583 -0.2891 -0.1961  0.4476
   92MOL0     C12588  12.004   8.978   5.451  0.3969  1.1252  0.1336
   92MOL0     O12589  11.950   9.106   5.450 -0.2188  0.3017  0.2856
   92MOL0     C12590  11.824   9.140   5.501  0.3586 -1.1306  0.7396
   92MOL0     C12591  11.787   9.267   5.533 -0.1030 -0.5371  0.0178
   92MOL0     C12592  11.650   9.296   5.559  0.4471 -0.1363 -0.2466
   92MOL0     C12593  11.550   9.201   5.561  1.3696 -0.5441  0.1296
   92MOL0     O12594  11.426   9.250   5.609 -1.0469  1.1358 -0.0385
   92MOL0     C12595  11.305   9.175   5.583  0.2861  0.0540 -0.7149
   92MOL0     C12596  11.283   9.184   5.435  0.3939  0.6687 -0.3611
   92MOL0     C12597  11.136   9.149   5.414 -0.0347  1.1662  0.2330
   92MOL0     C12598  11.089   9.011   5.407 -1.4724  0.4754 -0.4547
   92MOL0     C12599  10.945   9.013   5.422  0.3315  1.0798  0.1884
   92MOL0     C12600  10.888   8.874   5.407  0.4838 -0.1276  0.3609
   92MOL0     C12601  10.737   8.860   5.401 -0.3325 -1.1145  0.4367
   92MOL0     C12602  10.685   8.805   5.263  0.2337  0.8176  0.5511
   92MOL0    Cl12603  10.755   8.641   5.220  0.7353  0.3522  0.1874
   92MOL0     C12604  11.590   9.074   5.520  0.2118 -0.9621 -0.0132
   92MOL0     C12605  11.717   9.047   5.487 -1.2456 -0.1036 -0.5988
   92MOL0     O12606  12.038   8.921   5.345 -0.6394  0.1430 -0.7452
   92MOL0     C12607  12.005   8.989   5.693  1.0046  0.2792 -0.3214
   92MOL0     C12608  11.989   8.940   5.828 -0.3885 -0.9670  0.8587
   92MOL0     N12609  11.381   8.559   6.163 -0.1754  0.5462  0.1828
   92MOL0     N12610  11.262   8.527   6.145 -0.1633 -0.3059  0.0080
   92MOL0     C12611  10.844   7.923   5.146 -0.4114 -0.8900  0.7701
   92MOL0     C12612  10.860   7.802   5.084  0.1745 -1.1122 -0.6865
   92MOL0     C12613  10.982   7.444   4.897  0.5470  0.7953  0.1778
   92MOL0     C12614  10.879   7.421   4.807 -0.1941 -0.1497  0.2452
   92MOL0     C12615  10.857   7.294   4.745 -0.2248 -0.1298  1.4424
   92MOL0     C12616  10.947   7.187   4.770  1.2261 -0.3348  0.2782
   92MOL0     O12617  10.933   7.069   4.707  0.7566 -0.6903 -0.0509
   92MOL0     C12618  11.037   6.987   4.655  0.3333  0.1435 -0.8841
   92MOL0     C12619  11.042   7.010   4.511 -0.0009 -0.7670  0.8322
   92MOL0     C12620  11.129   7.133   4.475  0.1421  0.5735  0.2731
   92MOL0     C12621  11.122   7.156   4.323  0.7023 -0.0060  0.6423
   92MOL0     C12622  11.187   7.055   4.237 -0.0723  0.5418 -0.9029
   92MOL0     C12623  11.228   6.972   4.162 -0.3148  0.6207 -0.7343
   92MOL0     C12624  11.047   7.213   4.861  0.4960 -0.3745  0.9275
   92MOL0     C12625  11.069   7.337   4.926 -0.7905 -0.6133  0.0388
   92MOL0     C12626  11.195   7.358   5.000 -0.3923 -0.2638  0.0208
   92MOL0     H12627  11.081   7.885   4.838 -2.1300  1.7236 -1.7584
   92MOL0     H12628  11.059   8.100   4.948  3.0806 -1.3676  1.6943
   92MOL0     H12629  10.864   8.367   5.126 -3.8464 -3.2374  2.1452
   92MOL0     H12630  10.983   8.291   5.023  1.1341 -0.3232 -0.1972
   92MOL0     H12631  11.110   8.235   5.229 -2.5773 -2.3644  0.7563
   92MOL0     H12632  11.101   8.407   5.186  0.6306 -1.0981 -1.8843
   92MOL0     H12633  10.906   8.427   5.347  0.8496 -0.2178 -3.0297
   92MOL0     H12634  10.970   8.271   5.426  1.9465  0.4910  0.1789
   92MOL0     H12635  11.181   8.354   5.452  0.8049  0.7196 -0.9908
   92MOL0     H12636  11.150   8.523   5.408  0.3049  0.3450 -0.4829
   92MOL0     H12637  10.970   8.392   5.621  2.7347 -1.6158 -0.0884
   92MOL0     H12638  11.000   8.569   5.576 -0.0785  0.6740  1.6287
   92MOL0     H12639  11.180   8.369   5.726 -1.2974  0.0885  0.9150
   92MOL0     H12640  11.252   8.525   5.670  1.2296 -0.8763  1.7384
   92MOL0     H12641  11.011   8.570   5.814  0.0977  1.0410  0.5450
   92MOL0     H12642  11.185   8.627   5.857  0.4393  0.0660 -0.8725
   92MOL0     H12643  11.032   8.478   6.017  0.5637  0.8877  1.7437
   92MOL0     H12644  11.083   8.347   5.922 -1.1316 -0.9125 -0.3075
   92MOL0     H12645  11.393   8.394   5.880 -0.7877 -0.4455  0.3170
   92MOL0     H12646  11.583   8.585   5.929  1.1763 -1.7074 -0.0764
   92MOL0     H12647  11.620   8.422   5.972  0.6913  0.2825 -1.1975
   92MOL0     H12648  11.630   8.617   6.214  1.2358 -1.2974  1.5622
   92MOL0     H12649  11.753   8.501   6.170  0.5446  0.2229 -0.7237
   92MOL0     H12650  11.728   8.772   6.058 -0.3188 -1.0752 -0.7799
   92MOL0     H12651  11.830   8.715   6.187 -0.9138  0.9151  1.0202
   92MOL0     H12652  11.930   8.564   6.004 -2.7606 -1.7498  0.4757
   92MOL0     H12653  11.813   8.615   5.891  0.2915 -1.8966  1.4155
   92MOL0     H12654  12.000   8.615   5.752 -0.5789 -1.1117 -3.7591
   92MOL0     H12655  12.147   8.711   5.437  0.1131  0.1369  0.6023
   92MOL0     H12656  11.970   8.704   5.412 -1.2114  1.0569  1.0698
   92MOL0     H12657  12.048   8.572   5.497  1.1088 -0.5754 -1.1792
   92MOL0     H12658  11.860   9.346   5.523  0.0451 -0.3320  2.2925
   92MOL0     H12659  11.625   9.399   5.581  4.5070  0.8088  0.6980
   92MOL0     H12660  11.309   9.070   5.614 -1.3821  0.2241  0.2035
   92MOL0     H12661  11.232   9.226   5.647 -0.7632 -1.8774 -0.2931
   92MOL0     H12662  11.302   9.290   5.412 -1.4594  1.3551  1.0784
   92MOL0     H12663  11.349   9.112   5.386  2.8317  0.7853  2.4667
   92MOL0     H12664  11.092   9.211   5.335  0.9961  1.5868 -0.0207
   92MOL0     H12665  11.072   9.187   5.495 -3.4840 -2.1359 -0.6306
   92MOL0     H12666  11.146   8.949   5.477 -0.2693  3.4162  1.3219
   92MOL0     H12667  11.121   8.981   5.307 -0.4085  0.7888 -0.2183
   92MOL0     H12668  10.912   9.035   5.525  2.3489 -0.6825  1.2882
   92MOL0     H12669  10.902   9.075   5.343 -1.9785  1.7883  1.8753
   92MOL0     H12670  10.921   8.814   5.493  0.1825 -3.2583 -1.5512
   92MOL0     H12671  10.927   8.822   5.319 -0.4384 -2.4713  1.2661
   92MOL0     H12672  10.687   8.953   5.428  1.2244 -0.8152  2.5372
   92MOL0     H12673  10.709   8.797   5.486  0.3335  0.8120  2.1464
   92MOL0     H12674  10.711   8.869   5.179 -3.3544  1.6123 -0.1364
   92MOL0     H12675  10.577   8.800   5.277  0.2817 -0.8747  0.5602
   92MOL0     H12676  11.504   9.008   5.512 -1.3918  0.8803  1.0121
   92MOL0     H12677  11.736   8.942   5.468  0.3124 -0.7658  3.5166
   92MOL0     H12678  11.996   9.097   5.685 -0.4992  0.1437 -0.6719
   92MOL0     H12679  11.992   8.998   5.920  1.2910 -1.4854  1.1549
   92MOL0     H12680  10.781   7.933   5.234 -0.9237  2.7464  0.1464
   92MOL0     H12681  10.816   7.717   5.136  0.3663  0.8948  3.1290
   92MOL0     H12682  10.810   7.492   4.764 -1.1312 -1.9735 -1.4061
   92MOL0     H12683  10.778   7.271   4.673  0.6028  0.0518  0.4448
   92MOL0     H12684  11.137   7.001   4.696  0.2065  0.4222 -0.6649
   92MOL0     H12685  11.010   6.882   4.668 -1.8811  0.3765 -2.9672
   92MOL0     H12686  10.936   7.017   4.485 -0.5212  0.9741  3.0340
   92MOL0     H12687  11.085   6.927   4.455 -0.8610  1.2734 -3.2545
   92MOL0     H12688  11.092   7.220   4.530  2.7839  2.2506 -0.4163
   92MOL0     H12689  11.230   7.111   4.510  0.0864  2.1532  1.5503
   92MOL0     H12690  11.159   7.255   4.294 -2.5008  1.5739  1.4540
   92MOL0     H12691  11.020   7.142   4.287  0.8627  0.1261  0.1214
   92MOL0     H12692  11.276   6.886   4.120 -0.1333 -0.4294  1.4701
   92MOL0     H12693  11.121   7.136   4.875 -2.4325 -3.9185 -1.3744
   92MOL0     H12694  11.260   7.438   4.966  0.8006 -1.2196 -0.0259
   92MOL0     H12695  11.175   7.373   5.106 -0.9490  2.9647 -0.4609
   92MOL0     H12696  11.243   7.259   4.994 -1.8572 -0.9970 -0.1630
   93MOL0     O12697   5.657   1.727  11.290 -0.5362 -0.5059 -0.4557
   93MOL0     C12698   5.600   1.704  11.396 -0.2306 -0.2439  0.5592
   93MOL0     O12699   5.659   1.685  11.518 -0.0252 -0.0510  0.8595
   93MOL0     C12700   5.791   1.719  11.504 -1.0121 -0.3472  0.1748
   93MOL0     C12701   5.841   1.841  11.462 -0.5502  0.5030 -0.5723
   93MOL0     C12702   5.981   1.866  11.454  0.5524 -1.1336 -0.2558
   93MOL0     C12703   6.082   1.771  11.486  0.0407 -0.9496 -0.3920
   93MOL0     O12704   6.217   1.795  11.478  0.5575  1.1330 -0.6944
   93MOL0     C12705   6.258   1.910  11.400 -0.7829 -0.8447  1.2371
   93MOL0     C12706   6.407   1.878  11.387  0.3611  0.2397 -0.3439
   93MOL0     C12707   6.471   1.933  11.509  0.5333  0.6961 -0.6541
   93MOL0     C12708   6.598   1.866  11.553  0.0654 -0.6841  0.8503
   93MOL0     C12709   6.698   1.949  11.634  0.1467 -0.1401  0.1991
   93MOL0     C12710   6.845   1.895  11.616  0.9714 -0.2123  0.4908
   93MOL0     C12711   6.946   1.983  11.679  0.2161  0.5169 -0.5923
   93MOL0     C12712   6.941   2.010  11.839  0.6629 -0.3095 -0.1048
   93MOL0     N12713   7.075   2.041  11.886 -0.5622 -0.6670 -0.4756
   93MOL0     C12714   7.128   2.166  11.876  0.2957  0.1040  0.2623
   93MOL0     C12715   7.259   2.148  11.893  0.4367 -0.0135 -0.3144
   93MOL0     C12716   7.368   2.248  11.898  0.5546 -1.3467 -0.1907
   93MOL0     C12717   7.442   2.246  12.034  0.5310 -0.0470  0.5851
   93MOL0     C12718   7.556   2.353  12.047  0.2720 -0.0554 -0.3115
   93MOL0     C12719   7.511   2.493  12.103 -0.3538 -1.0083  0.6197
   93MOL0     O12720   7.445   2.470  12.231  0.0110  0.5039  0.0362
   93MOL0     C12721   7.529   2.458  12.345  0.0333 -0.5100 -0.3367
   93MOL0     C12722   7.572   2.575  12.405  0.0100  0.6900 -0.1698
   93MOL0     C12723   7.665   2.565  12.513 -0.5580 -0.2865  0.0388
   93MOL0     C12724   7.726   2.686  12.567 -0.1427  1.1120 -0.6140
   93MOL0     C12725   7.688   2.437  12.567  0.1475  0.3365 -0.0899
   93MOL0     C12726   7.765   2.401  12.681  0.1815 -1.5599 -0.8267
   93MOL0     O12727   7.674   2.373  12.789  0.0478  0.0826 -0.4058
   93MOL0     C12728   7.723   2.310  12.903 -0.0509  0.0675 -0.4432
   93MOL0     C12729   7.798   2.189  12.899 -0.1856  0.0599 -0.0138
   93MOL0     C12730   7.809   2.116  13.019  0.0724 -0.3837 -0.6875
   93MOL0     C12731   7.741   2.155  13.144 -0.4456 -0.1749  0.2983
   93MOL0     O12732   7.768   2.071  13.252  0.3953 -0.0753  0.4215
   93MOL0     C12733   7.742   2.125  13.383 -0.7012 -0.6583 -0.0151
   93MOL0     C12734   7.854   2.223  13.433  0.4758 -0.0661  0.4007
   93MOL0     C12735   7.869   2.207  13.578 -0.6950  0.5470  0.0505
   93MOL0     C12736   7.999   2.286  13.616  0.0689 -0.4762 -0.7402
   93MOL0     C12737   8.048   2.278  13.763  0.0459 -0.0946  0.3611
   93MOL0     C12738   8.190   2.327  13.787 -0.2292 -1.5673  0.4370
   93MOL0     C12739   8.259   2.272  13.915 -0.2702 -0.0269  0.5224
   93MOL0     C12740   8.213   2.326  14.045  0.2409 -0.4422 -0.5396
   93MOL0    Cl12741   8.265   2.491  14.071 -0.0418 -0.1792  0.6220
   93MOL0     C12742   7.672   2.279  13.140 -0.0113  0.3913  0.5997
   93MOL0     C12743   7.665   2.351  13.021  0.3344 -0.1625  0.0094
   93MOL0     O12744   7.881   2.384  12.675 -0.0832 -0.0125 -0.7423
   93MOL0     C12745   7.631   2.325  12.510 -0.0213 -0.5145  0.1829
   93MOL0     C12746   7.554   2.337  12.392 -0.3402  0.1323 -1.1663
   93MOL0     N12747   7.282   2.013  11.913  0.0202 -0.2240 -0.3646
   93MOL0     N12748   7.169   1.945  11.892 -0.6387  0.1115  0.5666
   93MOL0     C12749   6.037   1.644  11.534 -1.3371 -0.6097 -0.1918
   93MOL0     C12750   5.897   1.628  11.537 -0.0068  0.8939  0.4820
   93MOL0     C12751   5.456   1.685  11.402  0.9145  0.4865 -0.2819
   93MOL0     C12752   5.405   1.648  11.533  0.0205  0.2566 -0.4388
   93MOL0     C12753   5.274   1.630  11.561 -1.1951 -0.0725 -0.6456
   93MOL0     C12754   5.184   1.621  11.463  0.3337  0.1207  0.5591
   93MOL0     O12755   5.061   1.577  11.511 -0.1461 -0.0228  0.7854
   93MOL0     C12756   4.952   1.565  11.412  0.2950 -0.0363  0.0525
   93MOL0     C12757   4.860   1.451  11.456  0.5123 -0.0805  0.3630
   93MOL0     C12758   4.931   1.309  11.457  0.0203 -1.9369 -0.0069
   93MOL0     C12759   4.971   1.244  11.330 -0.0519  0.8030 -0.6991
   93MOL0     C12760   5.101   1.282  11.280 -0.7162  0.1935  0.5057
   93MOL0     C12761   5.215   1.297  11.241  0.5136  1.0969  0.5120
   93MOL0     C12762   5.228   1.670  11.341 -0.1882  0.2866 -0.0683
   93MOL0     C12763   5.356   1.703  11.301 -0.0543  0.0423  0.3066
   93MOL0     C12764   5.383   1.731  11.153 -0.1464  0.2984 -0.6977
   93MOL0     H12765   5.767   1.915  11.434 -0.1640  1.0167 -0.2414
   93MOL0     H12766   6.014   1.962  11.415  2.6791 -1.2698  1.0904
   93MOL0     H12767   6.233   2.003  11.452 -2.2040 -1.0036  0.8659
   93MOL0     H12768   6.218   1.908  11.298  4.1202 -1.6814 -0.9801
   93MOL0     H12769   6.426   1.771  11.373  1.6778  0.3041  0.7716
   93MOL0     H12770   6.451   1.926  11.299  1.0708  0.8214  0.3155
   93MOL0     H12771   6.490   2.034  11.473 -0.1269  1.0116 -0.1127
   93MOL0     H12772   6.412   1.956  11.598  1.8000 -1.6457  0.9220
   93MOL0     H12773   6.579   1.772  11.606 -1.6764  0.1029  1.7041
   93MOL0     H12774   6.648   1.863  11.456 -1.0020  3.4540 -0.0076
   93MOL0     H12775   6.659   1.952  11.736 -1.0340  0.9526 -0.2456
   93MOL0     H12776   6.695   2.051  11.593 -1.4250  0.5223  1.8169
   93MOL0     H12777   6.825   1.802  11.670 -2.6913 -0.1852 -0.5611
   93MOL0     H12778   6.879   1.876  11.514  3.8104 -1.1229  1.5171
   93MOL0     H12779   6.945   2.080  11.628  1.2821  0.7230 -0.2452
   93MOL0     H12780   7.040   1.930  11.661 -0.1943  0.0782 -1.4846
   93MOL0     H12781   6.871   2.094  11.849  1.5679  0.5703 -0.9385
   93MOL0     H12782   6.906   1.924  11.897 -1.0157  1.7457  2.1866
   93MOL0     H12783   7.087   2.257  11.834 -0.4331 -0.1052  0.4964
   93MOL0     H12784   7.322   2.347  11.886  0.0789 -0.8309  4.2104
   93MOL0     H12785   7.443   2.227  11.822  0.0578 -0.0546 -1.0737
   93MOL0     H12786   7.374   2.266  12.117 -0.3742 -1.3010  0.1696
   93MOL0     H12787   7.496   2.151  12.046 -2.2156 -2.0588 -1.6644
   93MOL0     H12788   7.640   2.327  12.112 -1.1913 -1.7323  1.0013
   93MOL0     H12789   7.610   2.357  11.952 -0.6028 -0.0366 -0.8144
   93MOL0     H12790   7.594   2.565  12.104 -1.1305 -0.0498 -0.5809
   93MOL0     H12791   7.447   2.554  12.039 -0.3638  2.2151  3.3815
   93MOL0     H12792   7.551   2.667  12.351  1.4726  0.0723 -1.8932
   93MOL0     H12793   7.834   2.676  12.561 -0.1526  0.4523  0.1851
   93MOL0     H12794   7.698   2.692  12.672  0.7400  0.4293 -0.3329
   93MOL0     H12795   7.687   2.778  12.522 -2.7472 -0.6695 -2.2937
   93MOL0     H12796   7.845   2.154  12.808  0.0417  0.4977 -0.0673
   93MOL0     H12797   7.868   2.026  13.032 -3.6199 -2.9857 -0.4025
   93MOL0     H12798   7.643   2.172  13.379 -1.0604 -1.4050 -0.1176
   93MOL0     H12799   7.730   2.039  13.450 -2.7933 -1.1579 -0.9407
   93MOL0     H12800   7.938   2.204  13.366 -0.3955  1.5080 -1.2055
   93MOL0     H12801   7.823   2.325  13.408  1.3186  0.2272  0.5326
   93MOL0     H12802   7.883   2.103  13.609  0.2182  0.9550  1.0662
   93MOL0     H12803   7.782   2.247  13.630 -0.5157  1.1800 -0.1238
   93MOL0     H12804   7.981   2.394  13.609  0.5453 -0.3084  0.5148
   93MOL0     H12805   8.087   2.256  13.559  2.9429  1.3492  2.3893
   93MOL0     H12806   7.979   2.333  13.828 -2.6183 -0.0137 -2.3064
   93MOL0     H12807   8.051   2.170  13.781  3.6520 -0.1984 -0.0686
   93MOL0     H12808   8.196   2.435  13.772 -0.0655 -1.6914 -0.4699
   93MOL0     H12809   8.261   2.288  13.713  1.8109  2.9239 -0.2829
   93MOL0     H12810   8.362   2.309  13.921 -0.6621  1.1294  0.5197
   93MOL0     H12811   8.246   2.164  13.926 -2.2970  0.1998  0.6830
   93MOL0     H12812   8.245   2.270  14.133  1.3439 -0.8922 -1.2127
   93MOL0     H12813   8.104   2.329  14.049  0.2792 -0.8736  1.8726
   93MOL0     H12814   7.621   2.322  13.226 -0.4304  2.0542 -0.4292
   93MOL0     H12815   7.604   2.440  13.009  0.9554  0.5407  1.8239
   93MOL0     H12816   7.654   2.230  12.557 -3.6682 -1.7404 -0.1903
   93MOL0     H12817   7.517   2.245  12.348 -0.4512  0.0649 -0.9383
   93MOL0     H12818   6.110   1.571  11.565 -1.9810 -0.2462  2.3646
   93MOL0     H12819   5.863   1.533  11.578  0.0931  0.7191  0.1644
   93MOL0     H12820   5.462   1.621  11.621 -1.0919 -0.3701  0.1083
   93MOL0     H12821   5.237   1.601  11.659  1.5322 -0.6747  0.2900
   93MOL0     H12822   4.890   1.655  11.412  0.9979  0.4760  1.7525
   93MOL0     H12823   4.990   1.528  11.316  5.8836 -1.5409  2.4673
   93MOL0     H12824   4.791   1.453  11.371  2.7565 -0.6566 -1.5916
   93MOL0     H12825   4.816   1.473  11.554 -1.0237 -1.9246  0.1437
   93MOL0     H12826   5.021   1.314  11.520 -0.2247  3.3700  0.3548
   93MOL0     H12827   4.867   1.239  11.513 -0.1566 -1.1725  0.7716
   93MOL0     H12828   4.899   1.267  11.250  0.3275  1.0544 -0.9734
   93MOL0     H12829   4.978   1.138  11.356  1.1388  1.1825  0.6280
   93MOL0     H12830   5.318   1.292  11.211  0.9314 -1.0582  2.0043
   93MOL0     H12831   5.163   1.664  11.255  1.9176  2.1881 -1.9275
   93MOL0     H12832   5.365   1.642  11.092 -2.0858 -1.6502  2.3842
   93MOL0     H12833   5.303   1.802  11.132 -2.7442 -1.6999  1.6105
   93MOL0     H12834   5.488   1.756  11.138  0.4083 -2.2792 -1.7660
   94MOL0     O12835   6.311   4.777   2.094 -0.2776 -0.0326 -0.1470
   94MOL0     C12836   6.417   4.715   2.113  0.0521 -0.9137 -0.0838
   94MOL0     O12837   6.434   4.586   2.142  0.3552  0.6242  0.5007
   94MOL0     C12838   6.333   4.508   2.090  1.3677 -0.7787 -0.1934
   94MOL0     C12839   6.368   4.425   1.984 -0.6062 -0.2400  0.3761
   94MOL0     C12840   6.268   4.343   1.923 -0.3736 -0.7079 -0.8964
   94MOL0     C12841   6.135   4.348   1.971  0.1217  0.3924 -0.0048
   94MOL0     O12842   6.045   4.258   1.908  0.2206 -0.9460 -0.8556
   94MOL0     C12843   5.910   4.243   1.966 -0.9387 -0.3183  0.7392
   94MOL0     C12844   5.919   4.128   2.063 -0.1048 -0.4467  0.0966
   94MOL0     C12845   5.953   3.989   2.004  0.6020 -0.0793 -0.8588
   94MOL0     C12846   5.953   3.879   2.119 -0.0831 -0.3739 -0.5088
   94MOL0     C12847   6.032   3.749   2.076 -0.1300  0.1327  0.1705
   94MOL0     C12848   5.947   3.623   2.111 -0.6157  0.2029  0.6602
   94MOL0     C12849   6.009   3.490   2.052 -0.7393  0.6885  0.0769
   94MOL0     C12850   6.037   3.494   1.896 -0.3286 -1.0789 -0.1790
   94MOL0     N12851   6.043   3.358   1.844  0.1228  0.0092  0.4444
   94MOL0     C12852   6.150   3.271   1.851  0.2890 -0.1537  1.0954
   94MOL0     C12853   6.111   3.154   1.795  0.6189 -0.1018  0.7611
   94MOL0     C12854   6.199   3.040   1.775 -0.7206 -0.0256  0.7912
   94MOL0     C12855   6.247   3.047   1.626  0.9050 -0.1245 -0.4559
   94MOL0     C12856   6.381   3.117   1.593  0.4304 -0.0723 -0.0435
   94MOL0     C12857   6.395   3.108   1.437  0.1626 -0.4618 -0.6588
   94MOL0     O12858   6.502   3.193   1.403  0.0245  0.4088 -0.4857
   94MOL0     C12859   6.622   3.130   1.376  1.2301 -0.3991 -0.4263
   94MOL0     C12860   6.662   3.091   1.254  0.2900 -0.6453 -1.0208
   94MOL0     C12861   6.791   3.042   1.221 -0.4587  0.3779 -1.0598
   94MOL0     C12862   6.823   3.022   1.078 -0.3651  0.1478  0.3428
   94MOL0     C12863   6.883   3.031   1.334 -0.3429 -0.1160 -0.1164
   94MOL0     C12864   7.026   2.976   1.329  0.7255 -1.0468 -0.3761
   94MOL0     O12865   7.066   2.888   1.422 -0.0474  0.8469 -0.4810
   94MOL0     C12866   7.196   2.868   1.453  0.3633  0.2205 -0.5020
   94MOL0     C12867   7.218   2.752   1.522 -0.0397  0.5515 -0.4124
   94MOL0     C12868   7.352   2.729   1.575  0.2745 -0.4408  0.9456
   94MOL0     C12869   7.456   2.823   1.568  1.0153  0.7786 -0.0669
   94MOL0     O12870   7.570   2.795   1.633  0.0449 -0.1955 -0.4112
   94MOL0     C12871   7.607   2.892   1.729 -0.7862  0.1805 -0.9817
   94MOL0     C12872   7.578   2.834   1.872  0.1697  0.3254 -1.0868
   94MOL0     C12873   7.661   2.713   1.927 -0.1487 -0.4714 -0.0073
   94MOL0     C12874   7.613   2.666   2.061  0.2393 -0.2229  0.9862
   94MOL0     C12875   7.505   2.554   2.063 -0.3103  0.1896  0.4237
   94MOL0     C12876   7.448   2.511   2.198 -0.3246 -0.2458  0.5891
   94MOL0     C12877   7.325   2.440   2.169 -0.1891  0.2590 -0.1367
   94MOL0     C12878   7.275   2.372   2.297 -0.8876  0.4563  1.3285
   94MOL0    Cl12879   7.273   2.465   2.456 -0.4233  0.1643 -0.5107
   94MOL0     C12880   7.425   2.946   1.497  0.0975  0.1183  0.1707
   94MOL0     C12881   7.302   2.961   1.439  0.0006 -0.3769  1.1568
   94MOL0     O12882   7.095   3.013   1.235 -0.0254 -0.6683  0.1613
   94MOL0     C12883   6.848   3.070   1.460  0.4524 -0.4369  0.4289
   94MOL0     C12884   6.716   3.131   1.482  0.0400  0.3144 -0.4017
   94MOL0     N12885   5.977   3.166   1.763 -0.4418  0.5077 -0.5426
   94MOL0     N12886   5.940   3.285   1.790 -0.3402 -0.2782 -0.1457
   94MOL0     C12887   6.100   4.430   2.082 -0.5805 -0.1038 -0.6855
   94MOL0     C12888   6.195   4.506   2.141  0.5088 -0.6254 -0.3332
   94MOL0     C12889   6.535   4.789   2.159 -0.4000  0.1660 -0.1909
   94MOL0     C12890   6.553   4.831   2.288  0.2933  0.2791 -0.1142
   94MOL0     C12891   6.665   4.881   2.336 -0.1813 -0.5530  0.7270
   94MOL0     C12892   6.776   4.894   2.255  0.6588  0.2967  0.4095
   94MOL0     O12893   6.899   4.938   2.305  0.0776  0.6373 -0.0418
   94MOL0     C12894   7.007   4.923   2.215 -0.4926  0.3978 -0.6211
   94MOL0     C12895   7.146   4.954   2.300 -0.3342  0.2496  0.6734
   94MOL0     C12896   7.168   4.843   2.396 -0.0988 -0.1405  0.5856
   94MOL0     C12897   7.289   4.865   2.475  0.5766 -0.1124 -0.0175
   94MOL0     C12898   7.296   4.758   2.572  0.1599  1.3901 -0.2904
   94MOL0     C12899   7.312   4.668   2.662 -0.2951  0.1945 -0.1547
   94MOL0     C12900   6.749   4.868   2.118  0.3746 -0.4738  0.7241
   94MOL0     C12901   6.644   4.801   2.076  0.0886  0.0592 -0.1835
   94MOL0     C12902   6.626   4.770   1.924 -0.2912 -0.2438 -0.2601
   94MOL0     H12903   6.470   4.430   1.946 -0.9556  1.9937 -0.4053
   94MOL0     H12904   6.293   4.298   1.828 -1.2343 -1.5563 -0.7352
   94MOL0     H12905   5.845   4.207   1.885  0.2964 -0.2167 -0.3387
   94MOL0     H12906   5.876   4.338   2.008  3.4369  0.9083  2.0111
   94MOL0     H12907   5.989   4.154   2.142 -1.0776 -1.2677  1.2780
   94MOL0     H12908   5.819   4.123   2.109  0.0535 -0.6823  0.4236
   94MOL0     H12909   5.883   3.967   1.923  1.8317  0.8268 -2.1985
   94MOL0     H12910   6.050   3.996   1.956  1.0831 -0.5515  0.0142
   94MOL0     H12911   6.011   3.927   2.198  0.4845 -1.5850 -0.1735
   94MOL0     H12912   5.857   3.860   2.167  1.1990 -1.5246  1.7842
   94MOL0     H12913   6.128   3.754   2.129 -1.3543 -0.6068  2.6093
   94MOL0     H12914   6.056   3.742   1.969 -1.3649 -3.9037 -0.0122
   94MOL0     H12915   5.940   3.623   2.220  0.0197  1.0516  0.7159
   94MOL0     H12916   5.845   3.623   2.072 -0.9653 -0.5964  1.5541
   94MOL0     H12917   5.941   3.405   2.055  1.1439 -0.9887 -1.8246
   94MOL0     H12918   6.100   3.453   2.100 -0.8251 -2.0161 -1.6487
   94MOL0     H12919   5.975   3.568   1.845  0.2409  1.3792  2.4446
   94MOL0     H12920   6.134   3.540   1.875 -1.5356  1.1599 -1.2864
   94MOL0     H12921   6.248   3.298   1.887  1.3380 -1.0211 -0.9301
   94MOL0     H12922   6.155   2.943   1.799 -0.0120 -1.0865 -1.8503
   94MOL0     H12923   6.281   3.047   1.847  1.7843 -2.5491 -1.5706
   94MOL0     H12924   6.258   2.943   1.596 -2.7006 -0.7878 -0.0029
   94MOL0     H12925   6.173   3.080   1.553  2.3668 -2.2250 -3.0498
   94MOL0     H12926   6.370   3.223   1.620 -3.0809 -0.2838 -0.1772
   94MOL0     H12927   6.455   3.063   1.651 -0.8647  0.3944  2.1534
   94MOL0     H12928   6.402   3.003   1.407 -0.1699 -0.2291 -1.5958
   94MOL0     H12929   6.317   3.151   1.374 -0.6300 -2.0957 -0.8567
   94MOL0     H12930   6.602   3.106   1.165  0.5960 -2.4844 -1.5748
   94MOL0     H12931   6.765   3.071   1.000 -2.6241 -0.3538  1.6021
   94MOL0     H12932   6.812   2.915   1.061  1.4189  0.0572 -0.4697
   94MOL0     H12933   6.926   3.046   1.050 -0.8837  3.2704  0.7885
   94MOL0     H12934   7.133   2.688   1.546  0.1264  0.2722 -0.5617
   94MOL0     H12935   7.371   2.645   1.640  1.3677 -0.4217  0.6816
   94MOL0     H12936   7.712   2.904   1.702 -1.0980 -0.6895 -2.7249
   94MOL0     H12937   7.555   2.988   1.719  0.6272  0.8910 -1.7121
   94MOL0     H12938   7.610   2.914   1.939  2.1625 -1.5537  0.3740
   94MOL0     H12939   7.471   2.817   1.883  0.5953 -1.2820  1.2907
   94MOL0     H12940   7.764   2.749   1.935 -0.8709  2.5002 -2.0800
   94MOL0     H12941   7.667   2.640   1.846  1.7935 -0.0005 -0.3450
   94MOL0     H12942   7.586   2.754   2.119  0.9526  0.4566  0.3030
   94MOL0     H12943   7.703   2.619   2.102 -0.2038 -2.0265  0.0333
   94MOL0     H12944   7.426   2.599   2.002  1.6978  1.1410 -1.6257
   94MOL0     H12945   7.552   2.468   2.015 -1.4448  0.9449 -2.2330
   94MOL0     H12946   7.434   2.596   2.264  1.4233  0.6228 -0.0860
   94MOL0     H12947   7.518   2.441   2.245 -1.2938  0.0334  2.5212
   94MOL0     H12948   7.342   2.362   2.095  0.9539 -0.4161  0.7855
   94MOL0     H12949   7.251   2.513   2.136 -1.4630 -0.4813  0.9983
   94MOL0     H12950   7.347   2.294   2.326 -0.2743  0.4710 -0.0553
   94MOL0     H12951   7.178   2.326   2.278 -0.5455 -0.2631  1.2576
   94MOL0     H12952   7.501   3.024   1.499 -1.4022  1.6335  0.5210
   94MOL0     H12953   7.271   3.048   1.383  0.5200 -1.3103 -0.6536
   94MOL0     H12954   6.903   3.054   1.552 -0.9199 -0.7831  1.2113
   94MOL0     H12955   6.675   3.164   1.577 -0.1848 -0.3629 -0.2568
   94MOL0     H12956   6.002   4.451   2.122 -1.0858  0.7091 -2.2800
   94MOL0     H12957   6.162   4.578   2.214 -0.9647 -0.3142 -1.2608
   94MOL0     H12958   6.464   4.829   2.351  0.4801  2.8116  0.3388
   94MOL0     H12959   6.661   4.913   2.439  0.9705  0.0723  0.5866
   94MOL0     H12960   7.011   4.832   2.156 -0.9222  2.1707 -3.5808
   94MOL0     H12961   6.994   5.005   2.144  0.9279  1.3750  0.2023
   94MOL0     H12962   7.152   5.039   2.369 -0.1195 -0.0521  1.0319
   94MOL0     H12963   7.226   4.966   2.226 -0.6691 -1.6820 -0.0544
   94MOL0     H12964   7.086   4.835   2.468 -0.8970 -0.8278 -0.3657
   94MOL0     H12965   7.171   4.748   2.342  0.3107  0.2530 -0.0908
   94MOL0     H12966   7.276   4.959   2.529 -0.5005 -0.3256  0.1084
   94MOL0     H12967   7.374   4.863   2.406 -2.4424 -1.5511 -4.0812
   94MOL0     H12968   7.331   4.583   2.725  0.4498  0.0114 -0.6243
   94MOL0     H12969   6.821   4.907   2.047  0.3899 -2.6736 -0.5704
   94MOL0     H12970   6.598   4.668   1.895  0.7153 -0.6014 -0.0015
   94MOL0     H12971   6.546   4.839   1.893  0.5493  1.4218  1.1102
   94MOL0     H12972   6.719   4.794   1.871 -2.4991  1.7243 -3.6199
   95MOL0     O12973   7.817   0.115   4.706  0.7454 -1.1565 -0.1922
   95MOL0     C12974   7.860   0.127   4.819  0.1907 -0.7664  0.4356
   95MOL0     O12975   7.990   0.137   4.854  0.2068 -0.0866  0.7487
   95MOL0     C12976   8.084   0.186   4.765 -0.4105  0.6965 -0.0622
   95MOL0     C12977   8.051   0.284   4.660 -0.1680  0.6207 -0.6724
   95MOL0     C12978   8.140   0.342   4.578 -0.5531 -0.3180 -0.0437
   95MOL0     C12979   8.278   0.314   4.593 -0.0007  0.1599 -0.1780
   95MOL0     O12980   8.355   0.382   4.512 -0.4268 -0.1951  0.5586
   95MOL0     C12981   8.483   0.421   4.567 -0.0777 -0.4564  0.8191
   95MOL0     C12982   8.579   0.492   4.467  0.4196 -0.8384  1.2774
   95MOL0     C12983   8.703   0.561   4.534  0.0381  0.0173  0.3324
   95MOL0     C12984   8.710   0.705   4.503 -0.1498 -0.5172  0.0458
   95MOL0     C12985   8.744   0.746   4.359 -0.4123 -0.8289  0.7908
   95MOL0     C12986   8.825   0.875   4.347  0.5008 -0.0624 -0.5539
   95MOL0     C12987   8.756   0.990   4.418  0.6079 -0.1274 -0.1593
   95MOL0     C12988   8.825   1.123   4.384 -0.6828 -0.8031  0.4360
   95MOL0     N12989   8.750   1.249   4.406 -0.9486 -0.3155 -0.3725
   95MOL0     C12990   8.711   1.340   4.325 -0.2244 -0.8459  0.6044
   95MOL0     C12991   8.665   1.448   4.392 -0.0499  0.6589  1.2576
   95MOL0     C12992   8.611   1.584   4.327 -0.9821  0.6492  0.1245
   95MOL0     C12993   8.460   1.570   4.289 -0.4527 -0.5847 -0.0039
   95MOL0     C12994   8.437   1.434   4.214  0.1359  0.1537 -0.4814
   95MOL0     C12995   8.329   1.446   4.102 -0.0950 -0.3032 -0.9693
   95MOL0     O12996   8.371   1.344   4.006  0.2839 -0.0468  0.9046
   95MOL0     C12997   8.353   1.364   3.873  0.2414  0.4270  0.0170
   95MOL0     C12998   8.466   1.347   3.788  0.8174  0.2094 -0.8037
   95MOL0     C12999   8.448   1.343   3.650 -0.2511 -0.2242  0.1570
   95MOL0     C13000   8.572   1.290   3.576  0.3351 -0.3109 -0.4024
   95MOL0     C13001   8.311   1.379   3.593 -0.2601 -0.6715 -0.3711
   95MOL0     C13002   8.293   1.391   3.450  1.5517 -0.5628  0.6540
   95MOL0     O13003   8.169   1.434   3.397  0.6070  0.2708 -0.5159
   95MOL0     C13004   8.164   1.434   3.262  0.3105  0.0423 -0.0801
   95MOL0     C13005   8.107   1.325   3.191 -0.4292  0.5530 -0.8166
   95MOL0     C13006   8.108   1.314   3.052  0.1317 -0.0862  0.4624
   95MOL0     C13007   8.163   1.418   2.973  1.3244  0.9788 -0.5955
   95MOL0     O13008   8.137   1.434   2.844  0.2044 -0.3624  0.1380
   95MOL0     C13009   8.099   1.316   2.765  0.1185 -1.5668 -0.5025
   95MOL0     C13010   7.947   1.331   2.742  0.3681 -0.4372  1.2815
   95MOL0     C13011   7.922   1.428   2.627  0.1930 -0.1866 -0.1329
   95MOL0     C13012   7.799   1.509   2.595  0.1065  1.1864 -0.5093
   95MOL0     C13013   7.685   1.422   2.526  1.1103 -0.1947  1.4940
   95MOL0     C13014   7.635   1.335   2.629 -0.5295  1.0299  0.2065
   95MOL0     C13015   7.498   1.273   2.595 -0.6997  0.6530  0.1895
   95MOL0     C13016   7.475   1.154   2.690 -0.8682 -0.4703 -0.1216
   95MOL0    Cl13017   7.305   1.150   2.751  0.0305  0.1184  0.0581
   95MOL0     C13018   8.222   1.526   3.044 -0.0567 -0.4176  0.2371
   95MOL0     C13019   8.231   1.525   3.187 -0.5203 -0.0893 -0.3526
   95MOL0     O13020   8.392   1.384   3.382 -0.3902  0.1639 -0.1484
   95MOL0     C13021   8.202   1.400   3.682  0.3252 -0.5403 -0.2774
   95MOL0     C13022   8.227   1.390   3.817 -0.7670  0.4695  0.3452
   95MOL0     N13023   8.674   1.416   4.514 -1.1390  0.4921 -0.0961
   95MOL0     N13024   8.740   1.305   4.529 -0.0191  0.2924 -0.2228
   95MOL0     C13025   8.317   0.225   4.700 -0.2075 -0.2778 -0.7856
   95MOL0     C13026   8.221   0.159   4.785 -0.1977  0.3749  0.3312
   95MOL0     C13027   7.758   0.113   4.940  0.6332  0.4277 -0.9472
   95MOL0     C13028   7.795   0.055   5.066 -0.5226 -0.0380 -0.7696
   95MOL0     C13029   7.701   0.042   5.171 -0.7690  0.5563  0.7443
   95MOL0     C13030   7.570   0.092   5.161  0.7231  0.2444  0.2895
   95MOL0     O13031   7.473   0.080   5.265 -0.3225 -0.2659 -0.3033
   95MOL0     C13032   7.517   0.011   5.380 -0.8779 -0.2822  0.4297
   95MOL0     C13033   7.409  -0.024   5.479  0.4886 -0.0245 -0.5159
   95MOL0     C13034   7.367   0.100   5.558  0.5605 -0.6108 -0.8314
   95MOL0     C13035   7.233   0.084   5.635  0.9610  0.2045 -0.7252
   95MOL0     C13036   7.236  -0.020   5.742 -1.1337  0.1065 -0.4125
   95MOL0     C13037   7.250  -0.108   5.826  0.0678 -0.7725 -0.4622
   95MOL0     C13038   7.526   0.145   5.043 -0.5414 -0.1075  1.4573
   95MOL0     C13039   7.619   0.155   4.933 -0.5315 -0.6857  0.4369
   95MOL0     C13040   7.564   0.222   4.805 -0.5878 -0.7539  0.4675
   95MOL0     H13041   7.948   0.316   4.649 -0.3553  0.4317  0.4000
   95MOL0     H13042   8.108   0.418   4.508 -2.1733 -0.4283  0.5470
   95MOL0     H13043   8.534   0.331   4.604  0.8589 -0.6726 -0.8870
   95MOL0     H13044   8.463   0.493   4.646  0.3432  0.2699  0.2743
   95MOL0     H13045   8.615   0.422   4.391  0.6374  1.5167 -0.8878
   95MOL0     H13046   8.514   0.558   4.410  1.0011 -0.4937  1.0068
   95MOL0     H13047   8.686   0.556   4.642 -0.9621  0.5063  0.2099
   95MOL0     H13048   8.798   0.509   4.518  0.7480  0.0465  3.7713
   95MOL0     H13049   8.619   0.762   4.526  1.8479  2.1401  2.0618
   95MOL0     H13050   8.786   0.745   4.571 -3.5584 -0.4704  4.2190
   95MOL0     H13051   8.658   0.761   4.293 -2.1207  2.1856  3.4174
   95MOL0     H13052   8.808   0.665   4.323 -0.2431 -1.2935  2.0897
   95MOL0     H13053   8.922   0.852   4.393  1.0094 -0.1803 -1.6492
   95MOL0     H13054   8.844   0.903   4.244 -5.7323  3.3574 -1.2755
   95MOL0     H13055   8.747   0.978   4.527 -1.3732  0.3182 -0.2464
   95MOL0     H13056   8.652   0.997   4.387  0.2230 -0.7218  0.9518
   95MOL0     H13057   8.923   1.132   4.431  1.4806  0.8793 -3.9087
   95MOL0     H13058   8.840   1.114   4.276  0.2216 -0.0369  0.4827
   95MOL0     H13059   8.735   1.332   4.219  1.2359 -0.4485  0.8854
   95MOL0     H13060   8.672   1.600   4.237  1.5788 -1.4706  1.3672
   95MOL0     H13061   8.634   1.667   4.395 -0.8667 -1.0614  2.2724
   95MOL0     H13062   8.406   1.569   4.384  1.6519  2.2483  1.3729
   95MOL0     H13063   8.428   1.655   4.228  2.9691  1.5619  0.9419
   95MOL0     H13064   8.533   1.409   4.167  0.2130 -0.9478  0.2195
   95MOL0     H13065   8.407   1.349   4.276 -1.8164  0.7519 -0.5344
   95MOL0     H13066   8.230   1.432   4.148  0.3268  1.1294  0.4744
   95MOL0     H13067   8.322   1.548   4.064  1.2779  1.6794  3.4031
   95MOL0     H13068   8.560   1.320   3.835  1.0388  3.3164  0.8145
   95MOL0     H13069   8.629   1.382   3.554 -1.4524  1.8728  3.2162
   95MOL0     H13070   8.529   1.242   3.488  0.4660  2.3804 -2.0534
   95MOL0     H13071   8.631   1.226   3.642 -1.4470 -0.4184  1.1587
   95MOL0     H13072   8.074   1.245   3.256  1.3966  0.0988 -0.3936
   95MOL0     H13073   8.069   1.219   3.017 -2.7695  2.0239 -2.5898
   95MOL0     H13074   8.154   1.326   2.671 -0.6054 -0.5885 -0.8430
   95MOL0     H13075   8.119   1.220   2.814 -0.4858 -1.1719  0.5673
   95MOL0     H13076   7.915   1.230   2.714  0.3958 -0.2830  0.6806
   95MOL0     H13077   7.889   1.355   2.832  0.7039  0.3324  1.2975
   95MOL0     H13078   7.945   1.364   2.542  2.6152  0.2895  0.1119
   95MOL0     H13079   8.004   1.500   2.634 -0.8086  1.1211 -1.3179
   95MOL0     H13080   7.835   1.592   2.534  0.1280  2.5328  1.2653
   95MOL0     H13081   7.763   1.550   2.689 -0.9667  1.1671 -0.8930
   95MOL0     H13082   7.605   1.486   2.489  2.2499  1.8685  2.4265
   95MOL0     H13083   7.727   1.373   2.438  1.0213  0.2349  1.2116
   95MOL0     H13084   7.617   1.382   2.726 -2.9386  2.3908 -0.8100
   95MOL0     H13085   7.706   1.254   2.646  1.4579  2.5033 -0.7575
   95MOL0     H13086   7.506   1.241   2.491 -1.7332  0.2065  0.2431
   95MOL0     H13087   7.426   1.355   2.598 -3.3937 -1.5498 -0.7843
   95MOL0     H13088   7.542   1.161   2.776 -0.5952  0.2242 -0.3840
   95MOL0     H13089   7.494   1.059   2.639 -1.5401 -1.9315  2.2087
   95MOL0     H13090   8.252   1.615   2.990 -0.6237 -1.1947 -1.4460
   95MOL0     H13091   8.275   1.611   3.236  0.9472  0.7011 -2.8935
   95MOL0     H13092   8.104   1.435   3.651  2.0248  3.2605 -1.9977
   95MOL0     H13093   8.146   1.392   3.888  0.3357 -2.7429  1.8597
   95MOL0     H13094   8.421   0.197   4.716 -0.0846  0.0063 -1.0887
   95MOL0     H13095   8.263   0.108   4.871  1.4794  2.7496  1.0191
   95MOL0     H13096   7.902   0.042   5.078 -0.8124 -1.3417  0.8266
   95MOL0     H13097   7.743  -0.011   5.255 -1.3659  0.8941  1.2705
   95MOL0     H13098   7.552  -0.085   5.340  3.7881  1.9757 -1.7299
   95MOL0     H13099   7.604   0.063   5.421 -0.3426  2.8429 -3.9451
   95MOL0     H13100   7.431  -0.105   5.549 -2.1773  1.6610  2.5357
   95MOL0     H13101   7.325  -0.056   5.417  1.5880  0.3854 -2.2757
   95MOL0     H13102   7.443   0.140   5.624 -1.0231  0.5649  0.3582
   95MOL0     H13103   7.350   0.180   5.485  1.5591  1.2570  0.8965
   95MOL0     H13104   7.152   0.076   5.562  0.2442 -1.1268  0.1597
   95MOL0     H13105   7.199   0.176   5.683 -3.8989 -0.9706 -1.4237
   95MOL0     H13106   7.263  -0.178   5.906  0.4327 -0.3284 -0.1276
   95MOL0     H13107   7.420   0.165   5.034 -0.6780 -1.3924 -0.5626
   95MOL0     H13108   7.456   0.236   4.813 -0.9984 -3.0014 -0.3596
   95MOL0     H13109   7.617   0.314   4.780 -0.0166 -0.3307  2.9418
   95MOL0     H13110   7.578   0.160   4.716  1.0919  0.6294 -0.2996
   96MOL0     O13111  11.242   0.514  11.338  0.4841 -0.3425 -0.1191
   96MOL0     C13112  11.258   0.514  11.214  0.2045 -0.8683 -0.4908
   96MOL0     O13113  11.378   0.503  11.153 -0.0167 -0.0686  0.6386
   96MOL0     C13114  11.482   0.445  11.219 -0.4113  0.4990  0.8531
   96MOL0     C13115  11.536   0.323  11.175  0.2243  0.2615  0.0208
   96MOL0     C13116  11.638   0.255  11.242 -0.7697 -0.2788 -0.4812
   96MOL0     C13117  11.711   0.315  11.341  0.3134  0.1077 -0.3657
   96MOL0     O13118  11.816   0.259  11.399  0.1064 -0.5752 -0.7573
   96MOL0     C13119  11.782   0.127  11.464 -0.6491 -0.3166  0.0557
   96MOL0     C13120  11.834   0.134  11.599 -0.1281  0.1565 -1.4783
   96MOL0     C13121  11.786   0.261  11.671 -0.8280 -0.1719 -0.6120
   96MOL0     C13122  11.737   0.234  11.812  1.3069  0.8382  0.1428
   96MOL0     C13123  11.855   0.203  11.905 -0.0126  0.7996  0.4056
   96MOL0     C13124  11.796   0.146  12.039  1.1222 -0.3095 -0.5871
   96MOL0     C13125  11.887   0.069  12.117  0.2251 -0.6371 -0.6864
   96MOL0     C13126  11.846   0.049  12.259 -0.9533  1.0655  0.8987
   96MOL0     N13127  11.730  -0.039  12.287  0.1772 -0.8973 -0.7104
   96MOL0     C13128  11.711  -0.160  12.237  0.2230 -0.9422 -0.4324
   96MOL0     C13129  11.588  -0.196  12.286  0.0840 -0.4327 -0.4289
   96MOL0     C13130  11.541  -0.334  12.269  0.5646 -0.1959  0.0200
   96MOL0     C13131  11.510  -0.412  12.397 -0.8833 -0.1729  1.1476
   96MOL0     C13132  11.632  -0.442  12.486  0.3995 -0.5840  0.1105
   96MOL0     C13133  11.591  -0.496  12.616  0.1403 -0.4545 -0.4411
   96MOL0     O13134  11.501  -0.608  12.611  0.8356 -0.8804 -0.0371
   96MOL0     C13135  11.381  -0.596  12.680 -0.3790 -0.3707 -0.2321
   96MOL0     C13136  11.381  -0.559  12.816  0.0658 -0.0247 -0.5535
   96MOL0     C13137  11.258  -0.511  12.868  0.1609  0.2988 -0.7413
   96MOL0     C13138  11.248  -0.449  13.010  0.1988 -0.1003  0.0182
   96MOL0     C13139  11.138  -0.540  12.799  0.5775 -0.8852  0.0771
   96MOL0     C13140  10.994  -0.498  12.830  0.4995 -0.7778  0.7980
   96MOL0     O13141  10.888  -0.572  12.773  0.1435 -0.0792  0.3979
   96MOL0     C13142  10.758  -0.555  12.794  0.3238  0.5698  0.7406
   96MOL0     C13143  10.706  -0.431  12.824 -0.1828 -0.7905  0.0370
   96MOL0     C13144  10.571  -0.416  12.847  0.1274  0.3253 -0.5983
   96MOL0     C13145  10.483  -0.529  12.839  0.3138  0.3791  0.2615
   96MOL0     O13146  10.355  -0.492  12.835 -1.2495  0.8892  0.3245
   96MOL0     C13147  10.253  -0.582  12.784  0.3415 -0.0398  0.2399
   96MOL0     C13148  10.113  -0.530  12.796  0.0006  0.4983  0.5693
   96MOL0     C13149  10.088  -0.391  12.723 -0.5100  0.2268 -1.1420
   96MOL0     C13150   9.936  -0.372  12.722 -0.5183 -1.0560  0.1646
   96MOL0     C13151   9.927  -0.246  12.638  0.3236  0.1840 -0.2456
   96MOL0     C13152   9.793  -0.170  12.650 -0.2224  0.4155  0.4381
   96MOL0     C13153   9.688  -0.222  12.543  0.2267 -0.3470  0.4713
   96MOL0     C13154   9.557  -0.153  12.538 -0.7163  0.5454 -0.0239
   96MOL0    Cl13155   9.572   0.016  12.535 -0.3668  0.0962  0.0795
   96MOL0     C13156  10.540  -0.653  12.811 -0.0577 -0.3069 -0.0970
   96MOL0     C13157  10.676  -0.667  12.795  0.0854  0.4348 -0.6415
   96MOL0     O13158  10.978  -0.403  12.910  0.4949 -0.1003 -0.4053
   96MOL0     C13159  11.144  -0.594  12.666 -0.2049  0.1368 -1.0565
   96MOL0     C13160  11.262  -0.620  12.610 -0.4407  0.4837  0.5111
   96MOL0     N13161  11.542  -0.098  12.375  0.1824 -0.5168  0.5024
   96MOL0     N13162  11.628  -0.007  12.371  0.2960 -0.4231 -0.4671
   96MOL0     C13163  11.675   0.443  11.375 -0.0429 -0.8356  0.5884
   96MOL0     C13164  11.562   0.510  11.314 -1.8477  0.1297 -1.7555
   96MOL0     C13165  11.140   0.538  11.124 -0.3358  0.4435 -0.4503
   96MOL0     C13166  11.165   0.618  11.012  0.5628  0.4914  0.6140
   96MOL0     C13167  11.059   0.638  10.921 -0.0677  1.1583  0.3767
   96MOL0     C13168  10.934   0.591  10.933  0.0468 -1.2171 -0.6675
   96MOL0     O13169  10.836   0.635  10.850  0.1406 -1.1810 -0.0409
   96MOL0     C13170  10.832   0.584  10.709  0.6599  0.2468 -1.3091
   96MOL0     C13171  10.796   0.434  10.707  1.0721 -0.1856  0.8117
   96MOL0     C13172  10.638   0.387  10.739  0.0474 -0.5312 -0.1612
   96MOL0     C13173  10.617   0.242  10.704 -0.0786  0.2146  0.1128
   96MOL0     C13174  10.476   0.201  10.732 -1.1331 -0.2253  0.7735
   96MOL0     C13175  10.374   0.151  10.746  0.8096 -0.6939 -0.2084
   96MOL0     C13176  10.907   0.516  11.047  1.0480  0.8095 -0.2235
   96MOL0     C13177  11.009   0.478  11.139  0.3224  0.5506  0.0857
   96MOL0     C13178  10.981   0.367  11.234  0.1987  0.8387 -0.9862
   96MOL0     H13179  11.494   0.272  11.090  0.7148  0.2725 -0.2276
   96MOL0     H13180  11.672   0.154  11.223 -0.1570 -0.7871  2.6738
   96MOL0     H13181  11.832   0.046  11.409 -1.6771 -0.1566 -1.1851
   96MOL0     H13182  11.675   0.104  11.463 -0.2699 -2.3940 -1.2045
   96MOL0     H13183  11.800   0.041  11.646 -1.2170  2.1151  1.9706
   96MOL0     H13184  11.942   0.122  11.591 -0.3845 -4.3963 -0.8958
   96MOL0     H13185  11.874   0.326  11.676  1.3670 -2.9631 -0.8207
   96MOL0     H13186  11.710   0.311  11.609 -1.2225 -1.3762 -1.1250
   96MOL0     H13187  11.695   0.329  11.847 -2.4152 -1.0092  1.2995
   96MOL0     H13188  11.661   0.156  11.808  1.1199  0.8355  2.4367
   96MOL0     H13189  11.903   0.300  11.918 -0.4532  0.7933  2.2907
   96MOL0     H13190  11.924   0.132  11.859  0.5543  1.9075 -0.4910
   96MOL0     H13191  11.759   0.235  12.092 -0.9969 -0.0119 -2.3938
   96MOL0     H13192  11.709   0.085  12.013  0.1999  1.1838 -1.2038
   96MOL0     H13193  11.973   0.136  12.114  1.5973 -2.2989 -0.0400
   96MOL0     H13194  11.903  -0.028  12.069 -1.6081 -0.0192 -2.7273
   96MOL0     H13195  11.935   0.009  12.309 -0.7899 -0.7544 -0.7413
   96MOL0     H13196  11.827   0.145  12.308 -4.7142 -0.5168  2.9311
   96MOL0     H13197  11.774  -0.211  12.165 -1.1818  0.7097 -2.9593
   96MOL0     H13198  11.616  -0.391  12.213 -0.3787 -1.9486  0.4735
   96MOL0     H13199  11.457  -0.328  12.200  2.2073 -1.1968 -2.2260
   96MOL0     H13200  11.432  -0.360  12.453 -0.6176 -0.8070  2.1300
   96MOL0     H13201  11.468  -0.506  12.360  1.6678 -0.8714 -0.2299
   96MOL0     H13202  11.691  -0.511  12.424 -5.4159 -3.3296 -3.1660
   96MOL0     H13203  11.705  -0.363  12.507  1.2947 -0.9511 -1.3932
   96MOL0     H13204  11.680  -0.531  12.670  1.5678  1.1385 -1.6456
   96MOL0     H13205  11.547  -0.423  12.683  0.2742 -1.3592  0.6703
   96MOL0     H13206  11.473  -0.543  12.871  0.1785  2.6886 -1.3781
   96MOL0     H13207  11.227  -0.342  13.004  0.8413  0.3142  3.1520
   96MOL0     H13208  11.335  -0.479  13.069 -1.3597 -4.3648  0.4648
   96MOL0     H13209  11.173  -0.502  13.069 -2.7372  1.4106 -2.0965
   96MOL0     H13210  10.770  -0.344  12.825 -0.1042 -0.7908  2.9411
   96MOL0     H13211  10.549  -0.311  12.865 -1.9681  0.0178 -1.1442
   96MOL0     H13212  10.269  -0.592  12.677  0.5211  0.1664  0.2482
   96MOL0     H13213  10.249  -0.683  12.826  0.3231  1.1920  3.4735
   96MOL0     H13214  10.042  -0.608  12.765  1.2767 -0.1985 -0.7336
   96MOL0     H13215  10.102  -0.518  12.904 -3.1521  0.3409  0.3486
   96MOL0     H13216  10.131  -0.383  12.623  0.2518  0.2091 -0.8241
   96MOL0     H13217  10.142  -0.308  12.770  2.6076 -0.7626 -2.6927
   96MOL0     H13218   9.906  -0.345  12.824 -0.5238 -0.9168  0.1259
   96MOL0     H13219   9.880  -0.460  12.689 -0.0383 -1.2652 -0.1063
   96MOL0     H13220  10.003  -0.181  12.682  0.8897 -0.8503  0.3510
   96MOL0     H13221   9.949  -0.265  12.532  2.1112  2.0647 -0.2787
   96MOL0     H13222   9.821  -0.066  12.629  2.3952 -0.4048 -0.5305
   96MOL0     H13223   9.750  -0.184  12.750 -0.3561 -2.7369  0.0103
   96MOL0     H13224   9.667  -0.325  12.576 -0.3386 -0.0403  1.1067
   96MOL0     H13225   9.739  -0.218  12.447  1.2978 -1.1273  0.9928
   96MOL0     H13226   9.504  -0.178  12.630  0.1648 -0.9349  0.1090
   96MOL0     H13227   9.493  -0.186  12.456 -0.1559  2.7340 -1.4235
   96MOL0     H13228  10.469  -0.735  12.804  0.1542 -0.3629 -1.9486
   96MOL0     H13229  10.724  -0.764  12.784 -1.0430 -0.0469 -1.6141
   96MOL0     H13230  11.056  -0.622  12.609  0.6872  1.9864 -3.5827
   96MOL0     H13231  11.272  -0.643  12.504  1.1145 -0.4352  0.8223
   96MOL0     H13232  11.726   0.491  11.459  0.6390 -0.8411  0.1909
   96MOL0     H13233  11.533   0.611  11.342  1.1592  0.8021 -0.6755
   96MOL0     H13234  11.261   0.664  10.991 -0.5758  2.6171 -0.3057
   96MOL0     H13235  11.095   0.687  10.831  0.9563 -0.2558 -0.0151
   96MOL0     H13236  10.751   0.628  10.650  0.6685 -0.0086 -1.5142
   96MOL0     H13237  10.925   0.601  10.654  0.5472  3.8058 -0.6084
   96MOL0     H13238  10.861   0.363  10.760  0.0462 -1.6071  0.2122
   96MOL0     H13239  10.807   0.414  10.600  1.8884  0.3424  0.7843
   96MOL0     H13240  10.621   0.404  10.845  0.0988 -2.1560  0.1254
   96MOL0     H13241  10.555   0.441  10.692 -2.6258 -1.3444  3.2833
   96MOL0     H13242  10.680   0.184  10.771 -2.1731 -0.5393  1.5164
   96MOL0     H13243  10.631   0.231  10.596 -2.2127 -1.6944 -0.0371
   96MOL0     H13244  10.281   0.109  10.777 -1.5255  3.4541 -0.7751
   96MOL0     H13245  10.815   0.458  11.054  0.6377  1.0738 -2.6036
   96MOL0     H13246  10.969   0.270  11.185 -1.1096  0.6936 -0.4171
   96MOL0     H13247  11.071   0.361  11.296 -0.6270  4.9284  0.9781
   96MOL0     H13248  10.895   0.399  11.293  0.8183  2.8446 -1.0741
   97MOL0     O13249   2.170   9.111   4.754 -0.1533 -0.2903  0.1794
   97MOL0     C13250   2.109   9.110   4.864 -1.0353  0.0026 -0.2187
   97MOL0     O13251   2.109   8.999   4.944  0.4885 -1.0376  0.7332
   97MOL0     C13252   2.211   8.910   4.932 -0.6788 -0.3665  1.8208
   97MOL0     C13253   2.325   8.940   5.009  0.1186  0.3668  0.5102
   97MOL0     C13254   2.423   8.847   5.009 -0.5503 -0.4995  0.3925
   97MOL0     C13255   2.406   8.730   4.924 -0.0286  0.1878 -0.3649
   97MOL0     O13256   2.507   8.637   4.908 -0.0394  0.2601  1.0553
   97MOL0     C13257   2.486   8.504   4.950 -0.1866  0.2394  0.1654
   97MOL0     C13258   2.609   8.468   5.035  0.2852 -0.5181 -0.3120
   97MOL0     C13259   2.606   8.542   5.172  0.0472 -0.1572  0.0245
   97MOL0     C13260   2.751   8.527   5.227 -0.0970  0.9784 -1.1142
   97MOL0     C13261   2.771   8.598   5.357 -0.0854 -0.5981 -0.7421
   97MOL0     C13262   2.925   8.621   5.392  1.2468  0.8150 -0.0994
   97MOL0     C13263   2.940   8.723   5.516  0.6636 -0.0582  0.2014
   97MOL0     C13264   3.082   8.765   5.558  0.2693 -1.0223  0.5406
   97MOL0     N13265   3.139   8.649   5.612  0.7898  0.5680 -0.3163
   97MOL0     C13266   3.227   8.562   5.543  0.6912  0.2612  0.2479
   97MOL0     C13267   3.245   8.455   5.617 -0.2023  0.0867  0.6858
   97MOL0     C13268   3.315   8.327   5.550  0.0115  0.4267 -0.0354
   97MOL0     C13269   3.202   8.233   5.494 -0.2585 -0.5005 -0.5155
   97MOL0     C13270   3.263   8.146   5.387 -0.9621  0.0481  0.2091
   97MOL0     C13271   3.374   8.057   5.431 -0.5177 -0.1940 -0.0524
   97MOL0     O13272   3.502   8.125   5.423  0.5680  0.1799  0.2382
   97MOL0     C13273   3.612   8.056   5.481 -0.2851  0.0566  0.4999
   97MOL0     C13274   3.711   8.122   5.553 -0.5215  0.1369 -0.5747
   97MOL0     C13275   3.833   8.065   5.593 -1.8351  0.0146 -1.8217
   97MOL0     C13276   3.926   8.156   5.664  0.0893  0.1454 -0.6283
   97MOL0     C13277   3.853   7.918   5.594  0.7532 -0.2864 -0.3929
   97MOL0     C13278   3.973   7.858   5.649 -0.0713  0.3322 -0.4066
   97MOL0     O13279   3.946   7.725   5.692 -0.1158 -0.3626 -0.0581
   97MOL0     C13280   4.055   7.658   5.743 -0.2381 -0.2069 -0.1960
   97MOL0     C13281   4.141   7.580   5.671 -0.4656 -0.3134  0.5694
   97MOL0     C13282   4.241   7.506   5.735  0.2348 -0.4592 -0.4930
   97MOL0     C13283   4.272   7.525   5.877  0.1122 -0.9111  0.4285
   97MOL0     O13284   4.381   7.447   5.914  0.1803 -0.2140  0.2781
   97MOL0     C13285   4.399   7.442   6.056  0.3454  0.4635 -0.6479
   97MOL0     C13286   4.521   7.530   6.076  0.3204 -1.1716  0.4964
   97MOL0     C13287   4.491   7.675   6.094 -0.7597 -0.0692 -0.3615
   97MOL0     C13288   4.432   7.730   6.216  0.5663 -0.0927  0.0078
   97MOL0     C13289   4.414   7.881   6.244 -0.1764 -0.2776 -1.1771
   97MOL0     C13290   4.414   7.973   6.119  0.1723  0.1581  0.7337
   97MOL0     C13291   4.368   8.111   6.166  0.3022 -0.5386 -0.1525
   97MOL0     C13292   4.280   8.187   6.068 -0.5093 -0.6311  0.4092
   97MOL0    Cl13293   4.135   8.089   6.043  0.3544 -0.2341 -0.3687
   97MOL0     C13294   4.187   7.614   5.944  0.3013 -0.1880 -0.0944
   97MOL0     C13295   4.079   7.667   5.879  1.2472 -0.4664  0.1047
   97MOL0     O13296   4.083   7.912   5.653 -0.0048  1.0874  0.1544
   97MOL0     C13297   3.744   7.850   5.539 -0.4387 -1.1555 -0.6560
   97MOL0     C13298   3.635   7.920   5.483 -0.9580  0.6996 -0.2073
   97MOL0     N13299   3.155   8.461   5.726 -0.2268 -0.8452 -0.6736
   97MOL0     N13300   3.101   8.586   5.732 -0.1661  0.2162 -0.1398
   97MOL0     C13301   2.294   8.710   4.838  0.6271  0.7932 -0.3573
   97MOL0     C13302   2.202   8.818   4.824 -0.5687 -0.4882 -0.7269
   97MOL0     C13303   2.023   9.221   4.891  0.5783 -0.0341 -0.1877
   97MOL0     C13304   2.033   9.332   4.798  0.0120 -0.1210  0.4265
   97MOL0     C13305   1.940   9.440   4.808 -0.2541  0.1855  0.3974
   97MOL0     C13306   1.862   9.462   4.925  0.5217  0.3459  0.8173
   97MOL0     O13307   1.783   9.570   4.949  0.1424 -0.7488 -0.0295
   97MOL0     C13308   1.672   9.568   4.859 -0.5814  0.2721  0.2496
   97MOL0     C13309   1.551   9.664   4.892 -0.2399 -0.0954  0.6207
   97MOL0     C13310   1.526   9.662   5.038 -0.2476 -0.7434  0.3682
   97MOL0     C13311   1.391   9.728   5.076  0.4650 -0.4601 -0.3015
   97MOL0     C13312   1.389   9.877   5.041 -0.3290  0.4991 -0.4112
   97MOL0     C13313   1.387   9.999   5.020 -0.3218  0.5072  0.6482
   97MOL0     C13314   1.866   9.355   5.017  0.8505 -1.0038  1.1714
   97MOL0     C13315   1.936   9.235   5.004  0.2663 -0.0589 -0.6611
   97MOL0     C13316   1.910   9.135   5.115  0.2340  0.0774  0.8684
   97MOL0     H13317   2.326   9.027   5.074 -2.5044 -0.1322  1.3391
   97MOL0     H13318   2.516   8.853   5.065 -0.2765  0.8175 -0.1772
   97MOL0     H13319   2.486   8.437   4.863 -1.9257  2.0154 -1.3070
   97MOL0     H13320   2.400   8.472   5.009 -2.3750  0.6960 -2.5825
   97MOL0     H13321   2.615   8.360   5.047 -0.9372 -0.7008 -1.1073
   97MOL0     H13322   2.697   8.497   4.977 -0.0584 -0.3336 -0.7497
   97MOL0     H13323   2.569   8.645   5.167 -1.4664 -0.6984 -0.8446
   97MOL0     H13324   2.541   8.494   5.246  0.6774  0.5725  1.0704
   97MOL0     H13325   2.766   8.421   5.246 -3.3281  0.5783 -0.1077
   97MOL0     H13326   2.816   8.570   5.150 -0.0675 -0.2277 -1.7883
   97MOL0     H13327   2.728   8.550   5.445  3.4842 -1.3351  0.7881
   97MOL0     H13328   2.714   8.690   5.339  0.1422 -0.5517 -1.2545
   97MOL0     H13329   2.980   8.532   5.423  2.9257  1.0373 -2.2417
   97MOL0     H13330   2.980   8.650   5.302  2.9150 -2.7261 -0.3675
   97MOL0     H13331   2.886   8.673   5.596  3.1037 -0.7025  1.5246
   97MOL0     H13332   2.887   8.816   5.491  0.1676  0.4572  2.9194
   97MOL0     H13333   3.140   8.795   5.470  0.4147  1.9716  1.5453
   97MOL0     H13334   3.086   8.842   5.636  1.5477 -0.7527  0.2293
   97MOL0     H13335   3.259   8.578   5.440  0.0652  0.2013  0.0426
   97MOL0     H13336   3.389   8.275   5.610 -0.3259 -0.0168  0.0049
   97MOL0     H13337   3.372   8.373   5.469 -0.8898  1.3834 -0.1651
   97MOL0     H13338   3.149   8.173   5.569 -0.3549 -2.3774 -2.0012
   97MOL0     H13339   3.116   8.288   5.455 -2.9702 -2.3967  2.3343
   97MOL0     H13340   3.179   8.084   5.356  0.8039 -1.9620 -0.8264
   97MOL0     H13341   3.306   8.205   5.305  2.3848  0.7850  2.3015
   97MOL0     H13342   3.370   8.013   5.531  0.7912 -3.4541 -1.3009
   97MOL0     H13343   3.391   7.973   5.363 -2.3704 -0.5501 -0.1246
   97MOL0     H13344   3.701   8.230   5.562  1.5839  0.3522 -0.2490
   97MOL0     H13345   4.026   8.162   5.621  1.4864 -4.7140  1.2254
   97MOL0     H13346   3.948   8.130   5.768 -3.9460 -0.9528  0.1351
   97MOL0     H13347   3.867   8.248   5.673 -2.6277 -1.5013 -0.3593
   97MOL0     H13348   4.114   7.569   5.567  0.8926  1.0558  0.0413
   97MOL0     H13349   4.296   7.440   5.668  0.6518  0.2739 -0.8839
   97MOL0     H13350   4.320   7.478   6.123  0.7471  0.1296  0.0185
   97MOL0     H13351   4.433   7.341   6.081  1.6780  0.8237 -0.9076
   97MOL0     H13352   4.582   7.511   6.165 -1.8848  0.9899  2.6357
   97MOL0     H13353   4.579   7.525   5.984 -1.2436 -2.1033 -0.4806
   97MOL0     H13354   4.427   7.698   6.009 -0.4099  0.6592 -0.4336
   97MOL0     H13355   4.577   7.741   6.081 -2.2170  2.8109  2.8970
   97MOL0     H13356   4.477   7.684   6.305  5.2300 -0.7857 -2.4000
   97MOL0     H13357   4.334   7.682   6.206  2.3828 -3.7888 -2.3781
   97MOL0     H13358   4.319   7.896   6.296  0.2011  1.7234 -0.9957
   97MOL0     H13359   4.495   7.917   6.308 -0.1833  0.7598 -1.7225
   97MOL0     H13360   4.359   7.943   6.029  4.5891 -0.8335 -1.9580
   97MOL0     H13361   4.518   7.974   6.083  0.2965 -0.6024  1.0448
   97MOL0     H13362   4.459   8.166   6.190  2.7507 -4.2409 -0.1567
   97MOL0     H13363   4.302   8.100   6.252 -0.3679  1.4382 -0.3715
   97MOL0     H13364   4.315   8.197   5.965 -2.5323 -3.1931 -0.6575
   97MOL0     H13365   4.249   8.283   6.110 -0.4054 -1.8063  3.4425
   97MOL0     H13366   4.186   7.640   6.049 -1.4488  3.0870 -0.7852
   97MOL0     H13367   4.013   7.741   5.923  1.9524  0.2919 -0.0905
   97MOL0     H13368   3.759   7.742   5.531  1.7054 -1.0272  0.7473
   97MOL0     H13369   3.569   7.845   5.442  3.0525 -2.9872 -0.7498
   97MOL0     H13370   2.285   8.626   4.770 -3.7215  0.1390  0.6817
   97MOL0     H13371   2.122   8.831   4.752  0.9174 -2.6465 -2.9487
   97MOL0     H13372   2.108   9.336   4.721 -2.2891  2.2060 -1.9169
   97MOL0     H13373   1.944   9.512   4.727 -1.0170  0.8119  0.9025
   97MOL0     H13374   1.706   9.582   4.756 -0.2832 -0.9802  0.1607
   97MOL0     H13375   1.627   9.469   4.845 -0.6761  0.1118  1.5547
   97MOL0     H13376   1.457   9.627   4.850 -0.6405  0.0623  1.3524
   97MOL0     H13377   1.573   9.765   4.854  1.6931 -0.4800  0.6213
   97MOL0     H13378   1.522   9.561   5.079  3.4757 -1.2881 -0.2353
   97MOL0     H13379   1.604   9.720   5.088 -3.8304  3.2097  1.8876
   97MOL0     H13380   1.388   9.719   5.185  3.0974  2.4073  0.1487
   97MOL0     H13381   1.303   9.677   5.034 -1.6035 -0.1247  3.2503
   97MOL0     H13382   1.389  10.104   4.998 -5.7780  0.7935  0.2591
   97MOL0     H13383   1.792   9.368   5.096 -1.1633 -1.9607 -0.4392
   97MOL0     H13384   1.880   9.049   5.055  0.2419 -0.7533  2.0366
   97MOL0     H13385   2.002   9.110   5.167  0.3834  0.4632  0.7968
   97MOL0     H13386   1.829   9.169   5.181 -0.2033  0.4147  0.1687
   98MOL0     O13387   3.069   0.462   7.847  0.1818  0.4274  0.2487
   98MOL0     C13388   2.958   0.460   7.793 -0.3604 -0.0705  0.0123
   98MOL0     O13389   2.855   0.544   7.835 -0.5171  0.0968  0.5932
   98MOL0     C13390   2.863   0.602   7.961  0.8345 -0.7442  0.2453
   98MOL0     C13391   2.868   0.741   7.976  1.0669  0.3298 -0.4681
   98MOL0     C13392   2.862   0.791   8.109 -0.3182 -0.5915  0.7464
   98MOL0     C13393   2.850   0.704   8.217 -0.6778 -0.2997 -0.0077
   98MOL0     O13394   2.845   0.771   8.342 -0.3943  0.0970  0.4086
   98MOL0     C13395   2.845   0.692   8.461  1.2459 -0.2530 -0.1900
   98MOL0     C13396   2.854   0.789   8.576 -0.1680  0.1021  0.1599
   98MOL0     C13397   2.712   0.819   8.618  0.0353  0.3748 -0.2359
   98MOL0     C13398   2.702   0.947   8.707  0.5967 -0.3386 -0.5850
   98MOL0     C13399   2.552   0.993   8.712  0.5489 -0.2670 -0.2790
   98MOL0     C13400   2.534   1.084   8.827 -0.7564  0.4127 -0.6080
   98MOL0     C13401   2.397   1.146   8.847  0.3431  0.1323  0.0320
   98MOL0     C13402   2.364   1.208   8.983 -0.5046  0.2006  0.2660
   98MOL0     N13403   2.467   1.298   9.026  0.3577  0.0649 -0.5699
   98MOL0     C13404   2.474   1.424   8.979 -0.0312 -0.5293 -0.0403
   98MOL0     C13405   2.554   1.489   9.069  0.4552 -0.1803 -0.2862
   98MOL0     C13406   2.585   1.642   9.067  0.2246 -0.2722 -0.0841
   98MOL0     C13407   2.736   1.682   9.065 -0.4304 -0.5962 -0.2573
   98MOL0     C13408   2.824   1.632   9.175  0.1306  0.1874  0.1244
   98MOL0     C13409   2.773   1.679   9.311 -0.7834 -0.2939  0.1630
   98MOL0     O13410   2.778   1.825   9.318  0.9991  0.7736 -0.1610
   98MOL0     C13411   2.794   1.888   9.444  0.0456 -1.0702 -0.7979
   98MOL0     C13412   2.784   2.022   9.444  0.4790 -1.5999  0.0771
   98MOL0     C13413   2.811   2.105   9.559  0.2643  0.6300  0.3405
   98MOL0     C13414   2.810   2.258   9.532 -0.2890  0.2345  0.1982
   98MOL0     C13415   2.845   2.030   9.679  0.4544 -0.1227  0.8060
   98MOL0     C13416   2.878   2.108   9.799 -0.0626  0.0254 -0.4159
   98MOL0     O13417   2.971   2.210   9.779 -0.2096  0.3480 -0.5538
   98MOL0     C13418   3.009   2.292   9.883  0.1556 -0.7412  0.3054
   98MOL0     C13419   3.002   2.427   9.862 -0.2837 -1.0008 -0.2840
   98MOL0     C13420   3.035   2.515   9.964 -0.7818 -0.0132 -0.1598
   98MOL0     C13421   3.072   2.468  10.090 -0.3383  0.5932 -0.7337
   98MOL0     O13422   3.101   2.541  10.201 -0.9250  0.1396  0.7958
   98MOL0     C13423   3.182   2.660  10.179  0.0452 -0.7200 -0.5503
   98MOL0     C13424   3.260   2.708  10.310  0.6335 -0.9516  0.3647
   98MOL0     C13425   3.370   2.603  10.356  0.0945 -0.1795  0.1803
   98MOL0     C13426   3.327   2.450  10.361  0.3141  0.0118  0.8493
   98MOL0     C13427   3.437   2.378  10.420 -0.4910 -0.6904 -0.8586
   98MOL0     C13428   3.423   2.225  10.436  0.1296 -0.0019 -0.3800
   98MOL0     C13429   3.527   2.160  10.525 -0.5457  0.3014 -0.2018
   98MOL0     C13430   3.488   2.011  10.552  0.3131 -0.3144  0.2649
   98MOL0    Cl13431   3.391   2.001  10.703  0.2972  0.1700  0.3990
   98MOL0     C13432   3.081   2.334  10.108  1.1224  0.2077 -0.0390
   98MOL0     C13433   3.054   2.241  10.002  0.6334 -0.0605 -0.3746
   98MOL0     O13434   2.821   2.077   9.903  0.3768 -0.3702  0.2313
   98MOL0     C13435   2.838   1.895   9.686 -0.3674  0.5575 -0.3788
   98MOL0     C13436   2.824   1.822   9.571  0.4846 -0.1876  0.7210
   98MOL0     N13437   2.598   1.399   9.167  0.4219 -0.4363  0.9306
   98MOL0     N13438   2.525   1.296   9.153  0.3135  0.5584  0.5374
   98MOL0     C13439   2.868   0.576   8.203 -0.2336  0.2107  0.2946
   98MOL0     C13440   2.853   0.526   8.080 -1.0321 -0.2966  0.0604
   98MOL0     C13441   2.933   0.357   7.690 -0.5323  1.1512  0.5772
   98MOL0     C13442   2.973   0.229   7.719  0.0123  1.2104  0.1076
   98MOL0     C13443   2.961   0.119   7.628  0.2327 -0.8986  0.3401
   98MOL0     C13444   2.904   0.160   7.501 -0.0877 -1.3935  0.8746
   98MOL0     O13445   2.880   0.065   7.411 -0.0741 -0.5101 -0.2682
   98MOL0     C13446   2.751   0.013   7.394  0.0012  0.2360  0.3456
   98MOL0     C13447   2.773  -0.119   7.326  0.0066 -0.1204 -0.1654
   98MOL0     C13448   2.638  -0.198   7.319  0.9414  0.4024  0.1936
   98MOL0     C13449   2.525  -0.138   7.221  0.3271  0.0787  0.7186
   98MOL0     C13450   2.390  -0.156   7.276  0.4820 -0.2062 -0.3066
   98MOL0     C13451   2.278  -0.170   7.323 -0.4601 -0.5443  0.8265
   98MOL0     C13452   2.847   0.291   7.471  0.7139 -0.6636  0.0003
   98MOL0     C13453   2.870   0.388   7.564  0.5708 -0.4141  1.1078
   98MOL0     C13454   2.825   0.528   7.525  0.1694 -0.9760  0.2765
   98MOL0     H13455   2.872   0.803   7.887 -0.8739 -1.3083 -1.7869
   98MOL0     H13456   2.854   0.897   8.131  1.1342 -0.4639  0.7483
   98MOL0     H13457   2.930   0.624   8.465  0.1720 -1.6164  3.5059
   98MOL0     H13458   2.757   0.628   8.452  0.9412  0.4101 -2.4920
   98MOL0     H13459   2.910   0.744   8.659  0.7532  2.5582  0.9576
   98MOL0     H13460   2.912   0.872   8.535  0.3199 -1.2261 -1.9915
   98MOL0     H13461   2.642   0.833   8.535 -1.4131 -0.6380  0.7539
   98MOL0     H13462   2.678   0.730   8.671  2.1932 -0.0330  0.5483
   98MOL0     H13463   2.736   0.917   8.807  1.7227  0.2047 -0.7916
   98MOL0     H13464   2.774   1.024   8.679  0.6530 -0.6272 -1.2684
   98MOL0     H13465   2.477   0.916   8.731 -1.9576  2.3426  1.1681
   98MOL0     H13466   2.520   1.045   8.621 -0.8628 -1.7337 -0.6739
   98MOL0     H13467   2.570   1.034   8.917 -1.3160  0.3739 -0.4075
   98MOL0     H13468   2.603   1.169   8.816  0.7640 -0.5485  0.9688
   98MOL0     H13469   2.324   1.068   8.825 -0.2657  0.8197 -0.4590
   98MOL0     H13470   2.380   1.224   8.772 -4.3368 -1.5795 -1.0251
   98MOL0     H13471   2.271   1.265   8.978 -2.3192 -2.6264 -0.8255
   98MOL0     H13472   2.345   1.139   9.065  0.7796 -0.1992  0.2578
   98MOL0     H13473   2.411   1.466   8.900  0.8981  1.3822  0.1621
   98MOL0     H13474   2.532   1.696   9.146  0.6243  2.9280 -1.8164
   98MOL0     H13475   2.544   1.688   8.976  0.2138 -1.9687 -0.9756
   98MOL0     H13476   2.775   1.635   8.975  1.0857 -1.0226  0.5826
   98MOL0     H13477   2.748   1.791   9.065 -2.7267 -0.2746 -1.0395
   98MOL0     H13478   2.848   1.525   9.167  3.6758  0.8871 -0.5057
   98MOL0     H13479   2.924   1.678   9.170  0.0301  0.9240  3.0549
   98MOL0     H13480   2.669   1.648   9.319 -0.4773 -2.1381 -1.7946
   98MOL0     H13481   2.837   1.636   9.389  1.7395  1.4217 -0.8141
   98MOL0     H13482   2.768   2.078   9.353 -0.3939 -0.8021  0.6992
   98MOL0     H13483   2.805   2.327   9.617  0.6165 -0.4500  0.8342
   98MOL0     H13484   2.724   2.287   9.471  1.7527  2.6000 -1.7853
   98MOL0     H13485   2.901   2.290   9.480 -0.0881  0.2044  0.5276
   98MOL0     H13486   2.978   2.457   9.760  2.5908  0.1326 -0.7233
   98MOL0     H13487   3.037   2.621   9.944 -0.7489 -0.4169 -2.6024
   98MOL0     H13488   3.237   2.644  10.085 -2.4099 -0.6830 -2.0877
   98MOL0     H13489   3.109   2.737  10.153 -1.5845 -2.6951 -2.1644
   98MOL0     H13490   3.298   2.810  10.298 -0.5542  0.0213  3.7348
   98MOL0     H13491   3.183   2.709  10.388 -0.5292 -0.3368 -0.7513
   98MOL0     H13492   3.420   2.626  10.450  1.1700 -0.1133 -0.3969
   98MOL0     H13493   3.445   2.603  10.277 -3.4842  1.1178 -3.5560
   98MOL0     H13494   3.310   2.406  10.262  0.3744 -0.5851  1.1033
   98MOL0     H13495   3.231   2.443  10.412 -0.6980  1.7149 -0.6905
   98MOL0     H13496   3.527   2.403  10.363 -0.5153  1.9211  0.1452
   98MOL0     H13497   3.447   2.415  10.522 -0.1994 -2.0432 -0.3775
   98MOL0     H13498   3.425   2.172  10.340  1.5627 -1.1679  0.2570
   98MOL0     H13499   3.327   2.216  10.488 -0.3630  3.3627 -0.4241
   98MOL0     H13500   3.542   2.205  10.623  3.2734  1.5208 -1.1617
   98MOL0     H13501   3.627   2.171  10.481  0.5852 -0.7994  1.9231
   98MOL0     H13502   3.587   1.966  10.555  1.3107  1.7412  0.1564
   98MOL0     H13503   3.433   1.957  10.475  0.3243 -2.5525  1.7516
   98MOL0     H13504   3.110   2.292  10.204  0.6813  2.4659  1.1513
   98MOL0     H13505   3.058   2.135  10.023 -1.8536 -0.2937 -0.7300
   98MOL0     H13506   2.858   1.847   9.781 -1.6435  0.0119 -0.3560
   98MOL0     H13507   2.813   1.714   9.576 -0.3719 -0.3326 -2.1969
   98MOL0     H13508   2.869   0.506   8.286 -3.3972  1.1973  1.2781
   98MOL0     H13509   2.856   0.418   8.068  1.9668 -0.3203  0.2633
   98MOL0     H13510   3.027   0.214   7.812  0.6031  2.6944  0.0374
   98MOL0     H13511   3.000   0.019   7.645  0.9314 -0.4829  1.2882
   98MOL0     H13512   2.705   0.007   7.493  1.8871  1.6768  1.3648
   98MOL0     H13513   2.687   0.080   7.336 -2.8864 -1.8874  0.8648
   98MOL0     H13514   2.841  -0.175   7.392  1.8244  0.6053 -1.3459
   98MOL0     H13515   2.813  -0.100   7.226 -1.3031 -0.0318 -0.6872
   98MOL0     H13516   2.658  -0.302   7.293  0.2172  1.0161 -3.2580
   98MOL0     H13517   2.609  -0.199   7.425 -0.9445 -1.1998 -0.2774
   98MOL0     H13518   2.535  -0.179   7.120  1.3574  1.0213  0.4127
   98MOL0     H13519   2.536  -0.031   7.203  1.7772 -0.2637 -0.7935
   98MOL0     H13520   2.176  -0.177   7.357 -0.6518 -0.8306  0.2037
   98MOL0     H13521   2.805   0.313   7.373  0.8249  0.0551  0.1098
   98MOL0     H13522   2.786   0.547   7.424 -0.0375  0.8625  0.6552
   98MOL0     H13523   2.745   0.568   7.588  0.0711  0.7363 -0.8687
   98MOL0     H13524   2.907   0.598   7.545  0.0159 -0.6039 -0.3554
   99MOL0     O13525   2.715   7.579   7.282  0.6800  0.3985  0.4858
   99MOL0     C13526   2.807   7.516   7.332  1.0677 -0.5243 -0.3259
   99MOL0     O13527   2.874   7.417   7.273 -0.3717 -1.0023 -0.0585
   99MOL0     C13528   2.876   7.397   7.134  0.4319  0.0425 -0.6812
   99MOL0     C13529   2.864   7.268   7.090  0.7620 -0.0555 -1.1896
   99MOL0     C13530   2.868   7.236   6.956  0.3958 -0.8193 -0.4176
   99MOL0     C13531   2.908   7.333   6.870  0.4827  0.4230 -0.3502
   99MOL0     O13532   2.923   7.291   6.735 -0.0351  0.2285 -0.3283
   99MOL0     C13533   3.009   7.372   6.658 -0.0866 -0.2406  0.5734
   99MOL0     C13534   3.024   7.314   6.515 -0.0847 -0.7549  0.5943
   99MOL0     C13535   2.888   7.330   6.437  0.2749 -0.2572  0.4341
   99MOL0     C13536   2.869   7.212   6.344  0.2982  0.7151  0.0413
   99MOL0     C13537   2.727   7.201   6.280 -0.7725  0.6488 -0.2999
   99MOL0     C13538   2.708   7.317   6.186 -0.2448 -0.0169  0.0289
   99MOL0     C13539   2.587   7.294   6.109 -0.2999 -0.4738  0.2303
   99MOL0     C13540   2.514   7.417   6.052  0.1710 -0.3215  0.2480
   99MOL0     N13541   2.427   7.501   6.138 -0.3307 -1.0007 -0.2461
   99MOL0     C13542   2.472   7.601   6.225 -0.2923  0.0831  0.1225
   99MOL0     C13543   2.357   7.621   6.296 -0.4204  0.2972  0.5784
   99MOL0     C13544   2.344   7.733   6.390  0.3480 -0.1797  0.2351
   99MOL0     C13545   2.446   7.710   6.490  0.0068 -0.1277  0.1522
   99MOL0     C13546   2.395   7.600   6.590 -0.5444  0.3277  0.5716
   99MOL0     C13547   2.508   7.513   6.650  0.3866 -0.0488 -0.1053
   99MOL0     O13548   2.548   7.416   6.555  0.4473 -0.0748  0.2979
   99MOL0     C13549   2.497   7.287   6.575 -0.2570  0.1513  0.3589
   99MOL0     C13550   2.560   7.201   6.665  0.3189 -0.2027  0.2443
   99MOL0     C13551   2.505   7.068   6.695 -0.7903 -1.0297 -0.0291
   99MOL0     C13552   2.567   6.981   6.807  0.2014  0.2050 -0.6460
   99MOL0     C13553   2.405   7.025   6.607 -0.0820 -0.8430 -0.7156
   99MOL0     C13554   2.369   6.891   6.597 -0.1595  0.4059 -0.4940
   99MOL0     O13555   2.239   6.860   6.596  0.8498  0.4085 -0.1604
   99MOL0     C13556   2.198   6.747   6.655 -0.4999  0.0867 -0.3083
   99MOL0     C13557   2.202   6.625   6.584  0.9997 -0.3977  0.4007
   99MOL0     C13558   2.147   6.517   6.637  1.2209 -0.6553 -0.4248
   99MOL0     C13559   2.070   6.528   6.753 -0.2155 -1.1326  0.1612
   99MOL0     O13560   2.013   6.413   6.795  0.1743  0.5653  0.1488
   99MOL0     C13561   1.875   6.413   6.838 -0.6632  0.1774 -0.5168
   99MOL0     C13562   1.772   6.468   6.733 -0.0003  0.0709 -0.1510
   99MOL0     C13563   1.814   6.440   6.591  0.3557 -1.1526 -0.6611
   99MOL0     C13564   1.690   6.473   6.500  0.1969 -0.9211 -0.4350
   99MOL0     C13565   1.723   6.462   6.348 -0.2852 -1.3810  0.7335
   99MOL0     C13566   1.636   6.538   6.251  0.4983 -0.2641  1.1860
   99MOL0     C13567   1.693   6.530   6.117 -0.3346  0.6209  0.1531
   99MOL0     C13568   1.622   6.622   6.009 -0.5140  0.0062 -0.4326
   99MOL0    Cl13569   1.479   6.531   5.940  0.0400  0.5136  0.2689
   99MOL0     C13570   2.055   6.653   6.822  0.3662  0.8886 -0.3217
   99MOL0     C13571   2.129   6.762   6.771  0.2388 -0.9452  0.5955
   99MOL0     O13572   2.459   6.800   6.604 -0.7050 -0.6859  0.1148
   99MOL0     C13573   2.340   7.116   6.518  0.7770  0.4632  0.2058
   99MOL0     C13574   2.388   7.242   6.507  0.9854 -0.6894  0.4122
   99MOL0     N13575   2.262   7.522   6.263  0.6076 -1.0394  0.8016
   99MOL0     N13576   2.300   7.457   6.165 -0.3788  0.4081  0.2896
   99MOL0     C13577   2.927   7.461   6.917 -0.7416 -0.1820 -0.4992
   99MOL0     C13578   2.915   7.491   7.047  0.7721  0.2199  0.2671
   99MOL0     C13579   2.850   7.562   7.471  0.2963 -0.5903  0.5346
   99MOL0     C13580   2.986   7.526   7.507 -0.0761  0.0982 -1.5342
   99MOL0     C13581   3.026   7.571   7.624 -0.3385 -0.5816  0.1612
   99MOL0     C13582   2.951   7.655   7.701  0.5058 -0.2394 -0.1741
   99MOL0     O13583   3.018   7.720   7.811 -0.5572  0.6285 -0.4997
   99MOL0     C13584   3.070   7.635   7.918 -0.1467 -0.6948  0.3161
   99MOL0     C13585   3.215   7.656   7.920 -0.7804 -0.8911  0.6812
   99MOL0     C13586   3.254   7.796   7.981  0.3106 -0.1316  0.9812
   99MOL0     C13587   3.192   7.837   8.122 -0.2797  0.0675  1.0146
   99MOL0     C13588   3.200   7.720   8.211 -0.2479  0.7177 -0.4845
   99MOL0     C13589   3.216   7.633   8.302  0.9586 -0.1426  0.9493
   99MOL0     C13590   2.818   7.694   7.663 -0.0681  0.0180 -0.3695
   99MOL0     C13591   2.771   7.648   7.542 -0.4866 -0.7447  0.6615
   99MOL0     C13592   2.627   7.686   7.521 -0.1401  0.5397 -0.2462
   99MOL0     H13593   2.827   7.187   7.152  2.0015 -0.6415 -1.2013
   99MOL0     H13594   2.854   7.131   6.933 -0.0475 -1.2991  1.7887
   99MOL0     H13595   3.108   7.373   6.705  0.2239  0.5092 -0.0669
   99MOL0     H13596   2.968   7.472   6.641 -3.1769 -1.7313 -1.7617
   99MOL0     H13597   3.099   7.368   6.457 -0.9536 -0.4333 -0.2531
   99MOL0     H13598   3.057   7.210   6.516 -1.1729 -1.2079 -2.3191
   99MOL0     H13599   2.806   7.336   6.510 -1.8826  2.4899 -1.9695
   99MOL0     H13600   2.881   7.427   6.387  3.5948  0.4737  1.1703
   99MOL0     H13601   2.945   7.220   6.266  0.7243  0.5573  0.4403
   99MOL0     H13602   2.878   7.116   6.395 -2.5311 -1.1235 -2.5206
   99MOL0     H13603   2.644   7.179   6.348 -1.5704 -3.4198 -2.2784
   99MOL0     H13604   2.723   7.112   6.216 -0.8255  2.1222 -2.4446
   99MOL0     H13605   2.703   7.400   6.257 -0.9608 -3.0451  3.8253
   99MOL0     H13606   2.792   7.328   6.116 -1.0021  1.5866 -0.6830
   99MOL0     H13607   2.514   7.240   6.170  0.1150 -1.4283 -0.1057
   99MOL0     H13608   2.606   7.228   6.024 -1.9831 -0.8596  0.1110
   99MOL0     H13609   2.591   7.476   6.002  0.2942 -0.0144  0.7919
   99MOL0     H13610   2.438   7.381   5.982  0.8036 -1.1826 -0.0109
   99MOL0     H13611   2.570   7.641   6.253 -0.5489  1.1095 -0.3941
   99MOL0     H13612   2.246   7.742   6.438  1.1912  2.1889  1.6393
   99MOL0     H13613   2.364   7.827   6.338  2.2027 -0.9883 -0.6127
   99MOL0     H13614   2.548   7.678   6.465  0.3637 -0.6506  2.1414
   99MOL0     H13615   2.465   7.801   6.546 -0.8828 -0.0873  0.4076
   99MOL0     H13616   2.342   7.663   6.661  1.5093  1.7593  0.9190
   99MOL0     H13617   2.318   7.530   6.555  2.1417 -3.7633  2.1202
   99MOL0     H13618   2.586   7.586   6.674  0.0973  0.5291 -0.8630
   99MOL0     H13619   2.486   7.460   6.743  0.4179  2.3144  1.3471
   99MOL0     H13620   2.648   7.240   6.716  0.9701  0.0843 -1.0419
   99MOL0     H13621   2.520   7.005   6.902  1.0868 -0.0625 -0.1257
   99MOL0     H13622   2.673   7.007   6.821 -0.0684 -0.2741  3.1428
   99MOL0     H13623   2.582   6.876   6.779  0.7409  0.4914 -1.4827
   99MOL0     H13624   2.247   6.612   6.486  1.1458 -0.7269  0.5115
   99MOL0     H13625   2.153   6.417   6.594 -4.1767  1.0076 -6.8236
   99MOL0     H13626   1.846   6.310   6.860  1.5866 -0.3685  0.0669
   99MOL0     H13627   1.867   6.479   6.925 -0.2915  1.7080 -1.6049
   99MOL0     H13628   1.669   6.435   6.750 -0.9123  1.9629 -1.6823
   99MOL0     H13629   1.773   6.576   6.752 -1.4427 -0.1715  1.6070
   99MOL0     H13630   1.834   6.332   6.588 -1.1321 -1.4411 -2.9061
   99MOL0     H13631   1.903   6.492   6.555  0.4257 -1.6343 -1.2159
   99MOL0     H13632   1.668   6.577   6.525 -0.3940 -0.8402 -1.2700
   99MOL0     H13633   1.604   6.407   6.516 -3.2054  3.4001  1.1389
   99MOL0     H13634   1.828   6.487   6.336 -0.4643 -0.0917  1.7032
   99MOL0     H13635   1.717   6.358   6.312 -0.4843 -1.0202 -0.3189
   99MOL0     H13636   1.641   6.644   6.276  4.7697  0.1985 -0.7158
   99MOL0     H13637   1.536   6.495   6.239 -0.1217  1.4823 -0.4583
   99MOL0     H13638   1.697   6.427   6.082  1.2400  0.8366 -0.3856
   99MOL0     H13639   1.798   6.561   6.127  0.4287 -2.3561  3.4871
   99MOL0     H13640   1.691   6.646   5.927  2.3966  0.2105  1.9177
   99MOL0     H13641   1.600   6.719   6.055 -3.3926  0.9793 -3.4897
   99MOL0     H13642   2.013   6.649   6.922  2.7044 -2.5919  0.7212
   99MOL0     H13643   2.120   6.860   6.817  2.5652 -1.4085  2.2364
   99MOL0     H13644   2.261   7.078   6.453  2.0367  1.7871 -2.2441
   99MOL0     H13645   2.340   7.317   6.446  0.8843  0.4091  1.7747
   99MOL0     H13646   2.981   7.529   6.852 -2.1385 -0.0142 -1.5260
   99MOL0     H13647   2.933   7.596   7.065 -1.7729  0.7758  0.0063
   99MOL0     H13648   3.038   7.457   7.440  0.3034 -1.1821  0.0130
   99MOL0     H13649   3.131   7.556   7.647 -0.5438 -1.9577  0.2651
   99MOL0     H13650   3.021   7.661   8.013  1.2840  1.1534  0.6034
   99MOL0     H13651   3.046   7.530   7.896  0.6494 -0.4891 -1.7317
   99MOL0     H13652   3.266   7.639   7.824  0.3838 -0.9520  1.2950
   99MOL0     H13653   3.263   7.579   7.981 -1.3368 -0.0044  2.2700
   99MOL0     H13654   3.363   7.793   7.985  0.5080 -3.9879 -1.4118
   99MOL0     H13655   3.235   7.873   7.906  0.6949 -0.7228  0.2611
   99MOL0     H13656   3.084   7.853   8.129 -0.1401  0.5022  5.7414
   99MOL0     H13657   3.240   7.923   8.169  1.5230 -0.9381  1.0947
   99MOL0     H13658   3.241   7.576   8.390 -3.8797  1.8717  4.0743
   99MOL0     H13659   2.752   7.754   7.725 -0.3251 -2.3182  1.7831
   99MOL0     H13660   2.622   7.744   7.429  0.0618 -0.7713 -1.1133
   99MOL0     H13661   2.578   7.590   7.504 -0.8173  1.2054 -2.3749
   99MOL0     H13662   2.585   7.729   7.613  0.3868 -0.9049  0.7151
  100MOL0     O13663  11.262   0.994   7.537 -0.0834 -0.5047 -0.8546
  100MOL0     C13664  11.273   1.074   7.443 -0.5770  0.2582 -0.8558
  100MOL0     O13665  11.211   1.195   7.426  0.0421 -0.0408 -0.2176
  100MOL0     C13666  11.123   1.237   7.517  0.9460  0.4048  0.2005
  100MOL0     C13667  11.161   1.292   7.647  0.7738 -0.0119  0.0637
  100MOL0     C13668  11.060   1.315   7.744 -0.6072  0.7380  0.5706
  100MOL0     C13669  10.935   1.263   7.728 -0.3663 -0.1310  0.3711
  100MOL0     O13670  10.844   1.263   7.835 -0.0613 -0.1559 -0.0850
  100MOL0     C13671  10.776   1.140   7.848 -0.0225  0.6138 -0.4345
  100MOL0     C13672  10.704   1.148   7.980  0.2362  0.2038 -0.0600
  100MOL0     C13673  10.780   1.167   8.097  0.7906  0.5617 -0.2249
  100MOL0     C13674  10.828   1.042   8.161  0.0207  0.6820 -0.0705
  100MOL0     C13675  10.917   1.051   8.289 -0.8932  0.9373 -0.5810
  100MOL0     C13676  10.946   0.912   8.343 -0.5106 -0.4472 -0.0946
  100MOL0     C13677  11.052   0.917   8.458 -0.6088  0.3415  0.1753
  100MOL0     C13678  11.205   0.939   8.411 -0.3404  0.5191 -0.5681
  100MOL0     N13679  11.296   0.976   8.528  0.7804  0.9780  0.7111
  100MOL0     C13680  11.277   1.088   8.598 -0.0816 -0.0330  0.5521
  100MOL0     C13681  11.354   1.067   8.713  0.0382  1.1271  0.9239
  100MOL0     C13682  11.383   1.168   8.818  0.7784 -0.3365 -0.4649
  100MOL0     C13683  11.395   1.309   8.767 -0.9845  0.0555  0.4051
  100MOL0     C13684  11.485   1.397   8.864 -0.1007  1.0249  0.1516
  100MOL0     C13685  11.535   1.524   8.794 -0.2927  0.2619 -0.3068
  100MOL0     O13686  11.674   1.535   8.824 -0.6955  0.0857  0.1484
  100MOL0     C13687  11.740   1.650   8.790  0.3874 -0.6474 -1.3635
  100MOL0     C13688  11.675   1.775   8.814 -0.3152 -0.2776  0.2651
  100MOL0     C13689  11.740   1.895   8.793  0.4697  0.0377  0.5754
  100MOL0     C13690  11.660   2.022   8.805  0.0605  1.0222  0.6003
  100MOL0     C13691  11.870   1.885   8.747 -0.5692  0.0566 -0.2292
  100MOL0     C13692  11.957   2.008   8.750  0.0752 -0.3936 -0.8394
  100MOL0     O13693  11.923   2.121   8.679  1.0997  0.4227  0.2069
  100MOL0     C13694  11.998   2.234   8.647 -0.3629  0.5682  0.9136
  100MOL0     C13695  12.135   2.255   8.665 -0.2662 -0.3186  0.6418
  100MOL0     C13696  12.199   2.378   8.621 -0.3615  0.3960  0.0723
  100MOL0     C13697  12.116   2.479   8.562 -0.0522  0.1840  0.5875
  100MOL0     O13698  12.167   2.592   8.499  0.0909  0.1565  0.3985
  100MOL0     C13699  12.108   2.714   8.537  0.8783 -0.5381  0.5982
  100MOL0     C13700  12.197   2.787   8.633  0.6524 -0.2978 -0.5505
  100MOL0     C13701  12.231   2.702   8.758 -0.5832 -0.0395  0.1452
  100MOL0     C13702  12.341   2.777   8.846  0.3868  1.1149  0.1279
  100MOL0     C13703  12.287   2.890   8.938 -0.1732  0.8017 -0.6787
  100MOL0     C13704  12.390   2.973   9.004  0.1878  1.0227  0.5279
  100MOL0     C13705  12.315   3.096   9.065 -1.0211  0.5364 -0.1148
  100MOL0     C13706  12.407   3.171   9.165  0.2987 -0.2875 -0.3662
  100MOL0    Cl13707  12.506   3.090   9.288  0.6100 -0.1281  0.1970
  100MOL0     C13708  11.980   2.455   8.551 -0.5326 -0.3194 -0.1382
  100MOL0     C13709  11.925   2.335   8.587  0.1469 -1.2242  0.1769
  100MOL0     O13710  12.061   1.999   8.817 -0.1110  0.1035  0.3203
  100MOL0     C13711  11.941   1.764   8.726 -0.3144  0.3798 -0.2089
  100MOL0     C13712  11.872   1.640   8.753  0.0124  0.9069 -0.1416
  100MOL0     N13713  11.406   0.942   8.704  0.1124 -0.4316 -0.4337
  100MOL0     N13714  11.378   0.892   8.594 -0.0810 -0.0421  0.3113
  100MOL0     C13715  10.903   1.223   7.597 -0.4037  0.1682  0.3941
  100MOL0     C13716  10.990   1.213   7.483 -0.4497  0.1875  0.6999
  100MOL0     C13717  11.342   1.025   7.324  0.2007  0.1611 -0.8318
  100MOL0     C13718  11.302   1.073   7.197 -0.3757  0.4608  0.0568
  100MOL0     C13719  11.361   1.015   7.090  0.5035 -0.6945  0.5469
  100MOL0     C13720  11.460   0.918   7.085  0.1220 -0.6207 -0.3437
  100MOL0     O13721  11.499   0.876   6.965  0.0669 -0.4590  0.0018
  100MOL0     C13722  11.627   0.915   6.924 -0.0308  0.3801 -0.0036
  100MOL0     C13723  11.723   0.798   6.934  0.0996 -0.5680  0.5431
  100MOL0     C13724  11.858   0.823   6.870  0.5325 -0.6134 -0.4583
  100MOL0     C13725  11.958   0.921   6.942 -0.5456  0.6782  0.5889
  100MOL0     C13726  11.948   1.053   6.866  0.0867 -0.2735 -0.1295
  100MOL0     C13727  11.914   1.155   6.813  0.5652  1.0524  1.2280
  100MOL0     C13728  11.502   0.867   7.205  0.8341  0.7379  0.1341
  100MOL0     C13729  11.444   0.922   7.321  0.2443  0.2719  0.2153
  100MOL0     C13730  11.496   0.853   7.452 -0.0481 -0.3946  0.2771
  100MOL0     H13731  11.260   1.324   7.678  0.6364  0.1588  0.3268
  100MOL0     H13732  11.073   1.356   7.844 -0.1629 -0.3306  0.9628
  100MOL0     H13733  10.848   1.059   7.861 -2.6756 -2.7403 -4.0744
  100MOL0     H13734  10.709   1.120   7.763  1.3669  2.9934 -2.2282
  100MOL0     H13735  10.637   1.234   7.974 -2.0744 -1.2099  2.9219
  100MOL0     H13736  10.633   1.066   7.995 -0.7449  0.7357 -1.5180
  100MOL0     H13737  10.866   1.229   8.071  0.7085  0.7478 -0.0529
  100MOL0     H13738  10.722   1.213   8.177  1.2084  1.1903 -0.2769
  100MOL0     H13739  10.746   0.969   8.170 -0.4892  1.3839  1.2986
  100MOL0     H13740  10.893   0.999   8.085 -3.0951  0.2514 -2.7271
  100MOL0     H13741  10.867   1.112   8.365  0.1220 -1.1358  1.9173
  100MOL0     H13742  11.006   1.111   8.267 -0.1140 -0.3104 -0.9586
  100MOL0     H13743  10.850   0.879   8.384  0.1719  1.0785  3.0174
  100MOL0     H13744  10.978   0.853   8.256  2.6792  2.9865 -1.5062
  100MOL0     H13745  11.057   0.823   8.512  2.0068  0.6274  0.5387
  100MOL0     H13746  11.017   0.993   8.529 -1.2403  1.1380 -0.9486
  100MOL0     H13747  11.231   0.843   8.364  0.4452 -0.8939  2.4707
  100MOL0     H13748  11.215   1.017   8.335  0.7145  0.0356 -0.9592
  100MOL0     H13749  11.211   1.169   8.568  1.9344  2.1966  1.7959
  100MOL0     H13750  11.479   1.144   8.865  0.5818  1.1015  0.7703
  100MOL0     H13751  11.299   1.172   8.888  1.5395  4.6952  0.5755
  100MOL0     H13752  11.459   1.300   8.678  0.9525 -0.5312  1.7769
  100MOL0     H13753  11.304   1.358   8.733  0.5882  1.1550 -2.6843
  100MOL0     H13754  11.439   1.421   8.961  0.4499 -1.0345  0.9552
  100MOL0     H13755  11.570   1.334   8.890 -0.7654  1.3249  3.5644
  100MOL0     H13756  11.504   1.514   8.689  0.4385 -0.4891 -0.4579
  100MOL0     H13757  11.480   1.611   8.829  0.2870 -0.0059  1.3481
  100MOL0     H13758  11.573   1.779   8.852  0.4942  0.6773  2.4979
  100MOL0     H13759  11.575   1.981   8.860  0.5255 -2.3829 -0.9589
  100MOL0     H13760  11.643   2.065   8.705 -1.5071 -3.6753 -1.4636
  100MOL0     H13761  11.695   2.102   8.870 -0.3088  2.5935 -1.0317
  100MOL0     H13762  12.193   2.180   8.718  1.5479 -1.8045 -3.1105
  100MOL0     H13763  12.306   2.391   8.631  0.0561  0.0933 -3.0570
  100MOL0     H13764  12.078   2.762   8.444 -2.0667 -1.8808  0.7664
  100MOL0     H13765  12.010   2.690   8.578  0.3483 -2.4545 -1.6261
  100MOL0     H13766  12.291   2.815   8.584  0.8922  2.0570  1.0896
  100MOL0     H13767  12.156   2.884   8.666  0.4423 -1.0205  1.4265
  100MOL0     H13768  12.287   2.624   8.707 -0.2875 -0.6283  1.3349
  100MOL0     H13769  12.150   2.662   8.820  1.9055 -1.4629  2.7485
  100MOL0     H13770  12.417   2.825   8.784 -0.3270  2.3919  0.2122
  100MOL0     H13771  12.395   2.709   8.912 -2.1295  2.0686  3.4501
  100MOL0     H13772  12.225   2.960   8.881  1.0045  2.4903  0.0370
  100MOL0     H13773  12.201   2.861   8.998 -0.1215  1.7445 -0.1292
  100MOL0     H13774  12.462   3.016   8.934  2.8225 -0.0146  2.4680
  100MOL0     H13775  12.441   2.908   9.076  0.1576 -0.2484 -0.5535
  100MOL0     H13776  12.232   3.054   9.121  0.5918 -0.9434  1.2949
  100MOL0     H13777  12.281   3.157   8.981  0.0930 -1.1593 -1.8880
  100MOL0     H13778  12.343   3.237   9.224 -0.8134 -2.9542  1.5666
  100MOL0     H13779  12.464   3.233   9.094  0.1462  2.9079  2.0648
  100MOL0     H13780  11.916   2.521   8.493  0.1627  0.5548  0.0584
  100MOL0     H13781  11.819   2.319   8.571 -0.2227  0.8698  0.1904
  100MOL0     H13782  12.047   1.764   8.704  0.2497  1.3478  2.1827
  100MOL0     H13783  11.921   1.543   8.751 -1.4115  0.1709 -2.5137
  100MOL0     H13784  10.810   1.173   7.569 -0.2889  0.1444  0.0521
  100MOL0     H13785  10.975   1.188   7.379 -0.9096  2.1828  0.2411
  100MOL0     H13786  11.224   1.148   7.182 -0.2282  0.6382  0.1777
  100MOL0     H13787  11.318   1.045   6.995  0.7395  1.4002  1.0408
  100MOL0     H13788  11.620   0.946   6.820  1.6849 -0.5827 -0.4341
  100MOL0     H13789  11.663   1.003   6.979 -0.0616 -0.6973  1.8443
  100MOL0     H13790  11.676   0.729   6.863 -0.8935 -0.4654  1.0927
  100MOL0     H13791  11.730   0.757   7.035 -1.1942 -0.0611  0.8484
  100MOL0     H13792  11.903   0.723   6.864 -0.5743 -1.4899  3.2841
  100MOL0     H13793  11.848   0.852   6.765  1.0807  0.1508 -0.3068
  100MOL0     H13794  12.064   0.897   6.937 -0.1027  2.5470 -0.0790
  100MOL0     H13795  11.938   0.929   7.050  2.9432  1.5676  1.3084
  100MOL0     H13796  11.908   1.256   6.779 -1.5899  0.5086 -0.1514
  100MOL0     H13797  11.575   0.787   7.199 -0.3898 -0.7927  3.1148
  100MOL0     H13798  11.517   0.902   7.547 -0.0326 -2.2739  1.2808
  100MOL0     H13799  11.428   0.772   7.479  2.4542 -2.7369  0.0528
  100MOL0     H13800  11.590   0.803   7.426 -1.0639 -0.4796 -4.0523
  101MOL0     O13801   5.084   2.191   9.895 -0.1806  0.8793  0.6301
  101MOL0     C13802   5.157   2.247   9.814  0.3004  0.2581 -0.6832
  101MOL0     O13803   5.122   2.340   9.728 -0.8269 -1.0910 -0.3883
  101MOL0     C13804   5.003   2.390   9.736  0.4262 -1.1155  0.7562
  101MOL0     C13805   4.917   2.371   9.629  0.1084  0.8291 -0.7793
  101MOL0     C13806   4.789   2.423   9.631  0.3462 -0.8675  0.0944
  101MOL0     C13807   4.748   2.511   9.733  0.2106 -0.0223 -0.4245
  101MOL0     O13808   4.632   2.576   9.744 -0.2782 -0.7545  0.3180
  101MOL0     C13809   4.518   2.515   9.684 -0.1428  0.7137 -0.4214
  101MOL0     C13810   4.491   2.572   9.544 -0.8415 -0.8000  0.4489
  101MOL0     C13811   4.375   2.501   9.476  0.5656  0.8282  0.3874
  101MOL0     C13812   4.399   2.354   9.435  0.1906  0.1585  1.0145
  101MOL0     C13813   4.333   2.315   9.299 -0.6736  0.2360  0.4545
  101MOL0     C13814   4.180   2.324   9.316  0.3446 -0.3550 -0.3263
  101MOL0     C13815   4.099   2.276   9.198  0.3276 -0.3567  0.6998
  101MOL0     C13816   4.105   2.123   9.183  1.0143 -0.2590 -0.0021
  101MOL0     N13817   4.014   2.061   9.282 -0.0718  0.3516  0.2554
  101MOL0     C13818   4.052   1.959   9.377 -0.2838 -0.0309 -0.1522
  101MOL0     C13819   3.941   1.917   9.432  0.0025  0.4857 -0.0527
  101MOL0     C13820   3.917   1.823   9.552  0.1722 -0.1778 -0.2890
  101MOL0     C13821   3.944   1.684   9.520  0.7267 -0.3790  0.1834
  101MOL0     C13822   3.925   1.592   9.644 -0.3292 -0.1406  0.0526
  101MOL0     C13823   3.921   1.440   9.615  0.7428  0.4839  0.0759
  101MOL0     O13824   3.903   1.377   9.740  0.3277  0.3945  0.3246
  101MOL0     C13825   3.799   1.287   9.760 -0.1976 -0.5848  0.8023
  101MOL0     C13826   3.829   1.151   9.788  0.3319  0.8529 -0.2418
  101MOL0     C13827   3.728   1.054   9.801  0.9588  0.4145  0.9240
  101MOL0     C13828   3.782   0.914   9.809 -1.0361  0.2657 -0.0855
  101MOL0     C13829   3.590   1.093   9.796 -0.0316 -0.4399 -0.2008
  101MOL0     C13830   3.471   1.000   9.802  0.7248 -0.9311 -0.7166
  101MOL0     O13831   3.500   0.866   9.807  0.2244 -0.3118 -0.2479
  101MOL0     C13832   3.395   0.782   9.765  0.5091  0.4880 -0.1088
  101MOL0     C13833   3.409   0.712   9.644 -0.5774  0.5003  0.1358
  101MOL0     C13834   3.347   0.597   9.614  0.4101  0.9419 -0.2284
  101MOL0     C13835   3.224   0.568   9.682 -0.6360  0.1479  0.5890
  101MOL0     O13836   3.145   0.462   9.631 -0.1871 -0.4096  0.5196
  101MOL0     C13837   3.059   0.402   9.731 -0.7276 -0.5842 -0.5762
  101MOL0     C13838   3.025   0.262   9.678 -0.3103  0.4946  0.5573
  101MOL0     C13839   2.923   0.182   9.754 -0.6999 -0.6723 -0.3139
  101MOL0     C13840   2.871   0.056   9.687 -0.6441 -0.9133 -0.1281
  101MOL0     C13841   2.750   0.092   9.590  0.0621 -0.4661  0.4726
  101MOL0     C13842   2.686  -0.038   9.528  0.4454 -0.4017 -0.1182
  101MOL0     C13843   2.557  -0.008   9.457 -1.6979  0.3820 -0.3095
  101MOL0     C13844   2.485  -0.141   9.435  0.6209  0.6893  0.3076
  101MOL0    Cl13845   2.441  -0.227   9.589  0.4273  0.3541  0.3680
  101MOL0     C13846   3.202   0.645   9.798 -0.4081 -0.2383  1.0070
  101MOL0     C13847   3.288   0.747   9.840 -0.4127  0.6632  0.1964
  101MOL0     O13848   3.353   1.046   9.806 -1.0607  0.8103  0.0062
  101MOL0     C13849   3.566   1.234   9.773  0.2895  1.1277  0.3352
  101MOL0     C13850   3.663   1.323   9.747  0.2234 -0.0571 -0.8895
  101MOL0     N13851   3.838   1.987   9.370 -0.6697 -0.8498  0.1850
  101MOL0     N13852   3.884   2.081   9.294 -0.4279  0.5297 -0.3574
  101MOL0     C13853   4.830   2.531   9.843  0.6652  1.0066 -0.0752
  101MOL0     C13854   4.961   2.476   9.843 -0.7238  0.3436 -0.1306
  101MOL0     C13855   5.305   2.216   9.813 -0.2236  0.9247  0.3942
  101MOL0     C13856   5.379   2.237   9.687  0.2856  0.5355  0.0098
  101MOL0     C13857   5.512   2.185   9.679  0.6011 -0.8043  0.1605
  101MOL0     C13858   5.576   2.104   9.771 -0.3493 -1.4045 -0.6302
  101MOL0     O13859   5.700   2.045   9.767 -0.4262  0.6340  0.8562
  101MOL0     C13860   5.803   2.095   9.682  0.5418 -0.5793  0.7401
  101MOL0     C13861   5.924   2.005   9.681 -0.3386  0.4944 -0.5292
  101MOL0     C13862   5.921   1.913   9.569  0.2240 -0.1715  0.1004
  101MOL0     C13863   6.051   1.854   9.524  0.9220  0.2138 -0.3118
  101MOL0     C13864   6.150   1.942   9.463  0.4132 -0.0876  0.0475
  101MOL0     C13865   6.221   2.012   9.392 -0.5375  0.2461 -0.0511
  101MOL0     C13866   5.508   2.089   9.895 -0.2987 -0.2378 -0.1997
  101MOL0     C13867   5.379   2.140   9.913  0.4861  0.6088 -1.1471
  101MOL0     C13868   5.326   2.124  10.059  0.3037  0.1368 -0.2996
  101MOL0     H13869   4.944   2.320   9.537  0.6727  0.4153 -0.3916
  101MOL0     H13870   4.730   2.417   9.540  1.1143  0.1561 -0.4935
  101MOL0     H13871   4.427   2.516   9.744 -0.3231 -1.8978 -0.5045
  101MOL0     H13872   4.533   2.408   9.666 -1.5607  0.5949 -0.9639
  101MOL0     H13873   4.455   2.675   9.558  1.2408 -0.0278  0.4540
  101MOL0     H13874   4.578   2.580   9.479  0.0793 -1.2459  1.5856
  101MOL0     H13875   4.279   2.500   9.528  1.1073 -1.6101  1.4827
  101MOL0     H13876   4.351   2.548   9.380 -0.2650  0.3714  0.3626
  101MOL0     H13877   4.506   2.332   9.436  0.6493  1.9683 -0.6337
  101MOL0     H13878   4.360   2.285   9.509  3.0011 -2.8159 -0.0196
  101MOL0     H13879   4.363   2.215   9.267  0.9064  0.9729 -0.5161
  101MOL0     H13880   4.371   2.384   9.223  0.2475 -0.6288  0.1148
  101MOL0     H13881   4.153   2.273   9.409  3.2624  1.6002  1.7474
  101MOL0     H13882   4.147   2.425   9.343 -3.6616 -2.1483  2.4213
  101MOL0     H13883   4.134   2.314   9.101 -0.3383  1.7960  1.2609
  101MOL0     H13884   4.000   2.320   9.208 -0.5850 -2.1991  0.2931
  101MOL0     H13885   4.063   2.109   9.083  2.0469 -2.2079 -0.2066
  101MOL0     H13886   4.205   2.080   9.186  1.1739 -0.1566 -2.2636
  101MOL0     H13887   4.152   1.917   9.388 -0.4985  0.0717  2.9234
  101MOL0     H13888   3.820   1.839   9.602  0.0465 -1.1140 -0.2143
  101MOL0     H13889   3.987   1.856   9.629 -2.5558  3.4468  0.9527
  101MOL0     H13890   3.871   1.648   9.447 -1.0144  1.0048  1.1541
  101MOL0     H13891   4.046   1.675   9.483  0.3160  0.0048 -1.0660
  101MOL0     H13892   4.003   1.611   9.719 -1.0744 -1.9669  1.3805
  101MOL0     H13893   3.829   1.617   9.690 -0.5269 -4.1345  2.2650
  101MOL0     H13894   3.840   1.423   9.543  1.4010 -0.2398 -0.5149
  101MOL0     H13895   4.018   1.420   9.568  1.8261  0.2846  2.2589
  101MOL0     H13896   3.934   1.123   9.788  0.4688  1.0743 -2.9928
  101MOL0     H13897   3.891   0.926   9.810 -0.9371  0.0839 -2.6479
  101MOL0     H13898   3.765   0.854   9.720  2.6556 -1.5281  0.2267
  101MOL0     H13899   3.759   0.858   9.900 -2.7664  2.8822  1.1944
  101MOL0     H13900   3.492   0.742   9.580 -0.0147 -0.5820  0.3231
  101MOL0     H13901   3.374   0.560   9.516 -2.6653  4.0047 -2.4860
  101MOL0     H13902   3.105   0.402   9.831 -1.8157 -0.3962 -0.0645
  101MOL0     H13903   2.963   0.450   9.749  0.5532  1.0970  2.6579
  101MOL0     H13904   2.976   0.284   9.582  1.5233 -0.4900 -0.6596
  101MOL0     H13905   3.112   0.197   9.664 -2.0714 -1.5358 -2.0003
  101MOL0     H13906   2.845   0.258   9.749  1.5278  1.7149 -0.8001
  101MOL0     H13907   2.949   0.170   9.860  4.6330  0.6673 -1.1776
  101MOL0     H13908   2.835  -0.021   9.757 -0.1976 -2.7274 -1.8019
  101MOL0     H13909   2.954   0.013   9.630 -0.0522  1.6098 -1.2866
  101MOL0     H13910   2.671   0.151   9.637  2.3090  1.9778  1.4149
  101MOL0     H13911   2.786   0.165   9.518  0.0673 -0.8955  0.0364
  101MOL0     H13912   2.667  -0.108   9.610  1.5000 -1.6594 -0.9146
  101MOL0     H13913   2.758  -0.086   9.462 -1.6222 -0.9141 -2.1294
  101MOL0     H13914   2.572   0.040   9.360  0.9649 -0.8551 -0.5908
  101MOL0     H13915   2.499   0.058   9.522  1.8912  3.2816  0.2161
  101MOL0     H13916   2.542  -0.212   9.374 -2.0927 -0.1607 -1.4220
  101MOL0     H13917   2.391  -0.118   9.384  0.6721  0.8393  0.2820
  101MOL0     H13918   3.111   0.618   9.851 -0.7976 -1.1702 -0.1087
  101MOL0     H13919   3.256   0.808   9.924 -1.2463 -1.4065  1.4671
  101MOL0     H13920   3.463   1.267   9.759 -0.8671 -2.4887 -0.9084
  101MOL0     H13921   3.639   1.427   9.729  0.2426  0.5011  1.8818
  101MOL0     H13922   4.805   2.586   9.934 -3.8230  0.8790 -1.0079
  101MOL0     H13923   5.031   2.496   9.924 -1.8845  2.7047  0.3895
  101MOL0     H13924   5.343   2.297   9.604  2.0596  3.4492  1.2018
  101MOL0     H13925   5.565   2.201   9.585 -0.3739 -2.7462 -0.7813
  101MOL0     H13926   5.777   2.121   9.579  1.6988 -0.7223  0.3988
  101MOL0     H13927   5.839   2.186   9.730  2.4636 -0.1803 -1.3265
  101MOL0     H13928   5.919   1.943   9.772 -1.3913  0.4887 -0.5771
  101MOL0     H13929   6.013   2.067   9.684  0.6241 -0.8578  1.3802
  101MOL0     H13930   5.853   1.831   9.592 -1.4622  0.7872 -1.1989
  101MOL0     H13931   5.870   1.966   9.488  0.7915 -1.4418 -1.1215
  101MOL0     H13932   6.022   1.783   9.447  0.1119  0.2874 -0.0796
  101MOL0     H13933   6.105   1.800   9.603 -1.5151 -3.4774 -0.9169
  101MOL0     H13934   6.272   2.074   9.320 -3.4895  1.2001 -1.4698
  101MOL0     H13935   5.578   2.053   9.969  1.9213  3.6551 -0.1050
  101MOL0     H13936   5.399   2.134  10.140 -1.9002 -0.8495  1.9262
  101MOL0     H13937   5.268   2.216  10.062 -2.7239 -1.3519 -4.0450
  101MOL0     H13938   5.261   2.038  10.077 -2.0485  1.8718 -0.0748
  102MOL0     O13939   8.827   3.329   8.341 -0.2579 -0.3187 -0.4593
  102MOL0     C13940   8.865   3.257   8.432  1.2655 -0.3789  0.1650
  102MOL0     O13941   8.852   3.128   8.446 -0.1102  1.0186 -0.2393
  102MOL0     C13942   8.806   3.050   8.338 -0.0896 -0.2641  0.1290
  102MOL0     C13943   8.885   2.953   8.265  0.2140 -0.2513 -0.1227
  102MOL0     C13944   8.825   2.881   8.170 -0.4838 -1.1722 -0.2451
  102MOL0     C13945   8.685   2.872   8.164  0.3124  0.0002  0.0163
  102MOL0     O13946   8.621   2.782   8.074 -0.5228 -0.7201  0.3811
  102MOL0     C13947   8.691   2.736   7.957  0.3398 -0.5016 -0.2536
  102MOL0     C13948   8.708   2.857   7.858  0.3865 -0.3648  0.4686
  102MOL0     C13949   8.572   2.909   7.808  0.5069 -0.0232  0.0503
  102MOL0     C13950   8.491   2.812   7.721 -0.7503  0.7476 -0.7167
  102MOL0     C13951   8.383   2.866   7.635  0.6183 -0.0441 -0.3378
  102MOL0     C13952   8.335   2.758   7.540 -0.4761 -0.2068 -0.1605
  102MOL0     C13953   8.221   2.794   7.449  1.1661  0.3598  0.2680
  102MOL0     C13954   8.220   2.939   7.390  0.0680 -0.2909  0.2084
  102MOL0     N13955   8.074   2.956   7.334  0.3902  0.2099  0.6970
  102MOL0     C13956   7.988   3.050   7.374  0.5720  0.2084 -0.6334
  102MOL0     C13957   7.884   3.028   7.285  0.1046 -0.6803 -0.0710
  102MOL0     C13958   7.749   3.093   7.276 -0.5064  0.6260 -0.2094
  102MOL0     C13959   7.760   3.218   7.182 -0.2864  0.3427  0.1085
  102MOL0     C13960   7.631   3.291   7.161  0.8608 -0.4605 -0.7410
  102MOL0     C13961   7.567   3.347   7.288  0.0823 -0.7339 -0.0605
  102MOL0     O13962   7.441   3.411   7.258 -0.5005 -0.1723 -0.4129
  102MOL0     C13963   7.383   3.485   7.367  0.1219  0.7744 -0.0886
  102MOL0     C13964   7.379   3.424   7.491  0.4878 -0.3015  0.1672
  102MOL0     C13965   7.282   3.474   7.584 -0.7440 -0.0185  0.1650
  102MOL0     C13966   7.310   3.405   7.718 -0.5065 -0.2431 -0.3434
  102MOL0     C13967   7.188   3.577   7.555  0.9439  0.3921 -0.3431
  102MOL0     C13968   7.081   3.633   7.653 -0.2284  0.1230  0.1099
  102MOL0     O13969   7.073   3.576   7.779  0.2443 -0.0031 -0.2780
  102MOL0     C13970   7.016   3.650   7.883  0.7064 -0.3444  0.5788
  102MOL0     C13971   7.090   3.759   7.940 -0.2894  0.0626 -0.4878
  102MOL0     C13972   7.044   3.833   8.043 -0.9657  0.4639 -0.0496
  102MOL0     C13973   6.919   3.803   8.102 -0.0486  0.3395  0.0754
  102MOL0     O13974   6.864   3.876   8.207  0.6465  0.1347  0.1842
  102MOL0     C13975   6.847   4.015   8.185  0.5892 -0.1241 -0.5510
  102MOL0     C13976   6.960   4.090   8.264  0.0892  1.0893  1.1715
  102MOL0     C13977   6.954   4.245   8.222  0.2701 -0.1580  0.4626
  102MOL0     C13978   7.071   4.345   8.251 -0.1478  0.0885  0.3781
  102MOL0     C13979   7.178   4.304   8.156 -0.3503  1.3440 -0.2833
  102MOL0     C13980   7.271   4.423   8.118 -0.6664  0.3839 -0.7159
  102MOL0     C13981   7.363   4.369   8.010 -0.0252 -0.1355  0.0664
  102MOL0     C13982   7.468   4.475   7.960 -0.2021 -0.0401  0.4627
  102MOL0    Cl13983   7.599   4.508   8.082 -0.3463  0.3110  0.1190
  102MOL0     C13984   6.847   3.686   8.052  0.7823  0.3131 -0.2247
  102MOL0     C13985   6.897   3.617   7.937 -0.9419 -0.3322 -0.3710
  102MOL0     O13986   7.003   3.725   7.613 -0.1129  0.2659  0.8482
  102MOL0     C13987   7.193   3.626   7.418 -0.2678  0.9112 -0.5995
  102MOL0     C13988   7.295   3.581   7.334  0.7649 -0.0225  1.0368
  102MOL0     N13989   7.912   2.938   7.190 -0.3613 -0.3171  0.0321
  102MOL0     N13990   8.019   2.880   7.234 -0.3317 -0.2255 -0.4085
  102MOL0     C13991   8.607   2.957   8.236 -0.0080  0.9883 -0.8533
  102MOL0     C13992   8.666   3.049   8.326 -0.1137 -0.3887  0.1670
  102MOL0     C13993   8.954   3.318   8.537 -0.0646 -0.2644 -0.0112
  102MOL0     C13994   9.059   3.241   8.587  1.1971 -0.2644  0.3086
  102MOL0     C13995   9.148   3.301   8.666 -0.8058 -0.9272 -0.4421
  102MOL0     C13996   9.144   3.432   8.724  0.0868  0.4444 -1.2152
  102MOL0     O13997   9.230   3.466   8.822 -0.8577 -0.1990 -0.3704
  102MOL0     C13998   9.229   3.583   8.910  0.2553 -0.7413  0.6457
  102MOL0     C13999   9.305   3.545   9.030 -0.0587 -0.5400  0.0671
  102MOL0     C14000   9.449   3.512   8.990  0.1455  0.1705  0.0574
  102MOL0     C14001   9.533   3.475   9.110  0.4110 -0.6342 -0.1375
  102MOL0     C14002   9.585   3.602   9.171  0.5949  0.5090 -0.5358
  102MOL0     C14003   9.631   3.703   9.228  0.3125  0.1110  0.7956
  102MOL0     C14004   9.041   3.511   8.669 -0.4379  0.8830 -0.0170
  102MOL0     C14005   8.944   3.455   8.578 -0.3514  0.0205  0.3031
  102MOL0     C14006   8.841   3.556   8.537 -1.0343  1.0007  0.3546
  102MOL0     H14007   8.992   2.935   8.263  0.9274  2.9528  1.5720
  102MOL0     H14008   8.900   2.835   8.106  2.9197  0.5199  2.2368
  102MOL0     H14009   8.628   2.659   7.909 -1.1279  0.8690 -0.6128
  102MOL0     H14010   8.789   2.694   7.980  0.5084  0.2189  0.3592
  102MOL0     H14011   8.746   2.945   7.910  0.1806  1.5019 -2.3101
  102MOL0     H14012   8.771   2.844   7.769  1.2969  3.8282  0.2995
  102MOL0     H14013   8.511   2.937   7.895 -0.3182 -4.0062  0.9643
  102MOL0     H14014   8.595   2.997   7.748  2.6200 -0.6714 -0.1390
  102MOL0     H14015   8.567   2.766   7.657 -0.3730  0.1070  0.1708
  102MOL0     H14016   8.453   2.730   7.782 -0.3503  0.3661 -0.9713
  102MOL0     H14017   8.412   2.961   7.589 -0.6242 -0.8878 -3.0718
  102MOL0     H14018   8.290   2.878   7.692 -0.9546 -1.9388 -2.3365
  102MOL0     H14019   8.427   2.740   7.482 -0.1355 -0.9085  0.5760
  102MOL0     H14020   8.307   2.667   7.594  0.7334 -0.8888 -0.6193
  102MOL0     H14021   8.125   2.770   7.495  0.1794  3.0689 -0.1762
  102MOL0     H14022   8.217   2.727   7.363  3.5612  0.5101 -0.0401
  102MOL0     H14023   8.237   3.011   7.470  0.4474 -1.2580  1.0271
  102MOL0     H14024   8.293   2.945   7.308 -0.8267  3.2009 -0.4864
  102MOL0     H14025   7.994   3.117   7.459 -0.7250  3.8979 -3.2111
  102MOL0     H14026   7.717   3.123   7.376 -4.4583 -2.6129 -0.2382
  102MOL0     H14027   7.669   3.023   7.248 -0.2796 -0.5397  1.7901
  102MOL0     H14028   7.830   3.294   7.218  0.8395  0.9151 -2.9976
  102MOL0     H14029   7.801   3.197   7.083  1.2843  1.4400  0.4881
  102MOL0     H14030   7.645   3.368   7.085 -0.9081 -1.2528 -1.9593
  102MOL0     H14031   7.557   3.218   7.124 -0.8153 -0.3008  2.0500
  102MOL0     H14032   7.544   3.269   7.362 -3.0902  3.3331  3.8280
  102MOL0     H14033   7.630   3.424   7.333  0.0690  0.8451 -2.5669
  102MOL0     H14034   7.427   3.332   7.521 -0.7002 -1.6444 -1.7892
  102MOL0     H14035   7.291   3.478   7.797  2.0332 -0.3354  0.4390
  102MOL0     H14036   7.413   3.370   7.715  0.1874  1.7014 -3.4348
  102MOL0     H14037   7.236   3.327   7.738 -0.4213  0.0504  1.2348
  102MOL0     H14038   7.185   3.786   7.896 -0.9013 -0.8179 -2.4859
  102MOL0     H14039   7.093   3.918   8.089 -2.0591  1.8190 -1.2853
  102MOL0     H14040   6.838   4.033   8.077 -0.0976  1.1758 -0.2948
  102MOL0     H14041   6.749   4.042   8.225  1.0657  1.5488 -0.4505
  102MOL0     H14042   6.954   4.074   8.372  1.8628  0.2060  1.1668
  102MOL0     H14043   7.050   4.036   8.233 -1.6506 -1.0321 -0.5521
  102MOL0     H14044   6.860   4.274   8.269 -1.0141 -2.9514 -0.1538
  102MOL0     H14045   6.921   4.260   8.118 -3.0832  0.1878  1.4796
  102MOL0     H14046   7.102   4.316   8.352  0.4523 -2.3983 -0.4620
  102MOL0     H14047   7.050   4.451   8.234 -0.1187 -0.1196 -1.0133
  102MOL0     H14048   7.248   4.231   8.196  0.6870 -1.0365 -5.5988
  102MOL0     H14049   7.135   4.269   8.062  3.4439  0.1984 -1.7364
  102MOL0     H14050   7.334   4.454   8.201 -2.4572  1.9678  0.1326
  102MOL0     H14051   7.219   4.511   8.080  1.4925  1.2967 -1.7290
  102MOL0     H14052   7.307   4.339   7.920  0.6913  2.7345 -1.4772
  102MOL0     H14053   7.420   4.287   8.054  1.8035  0.9671 -0.1434
  102MOL0     H14054   7.406   4.565   7.960 -1.0345 -0.6027  0.6647
  102MOL0     H14055   7.508   4.457   7.860 -0.5682 -1.0025  0.4835
  102MOL0     H14056   6.747   3.666   8.088  1.6170 -3.2533  0.5615
  102MOL0     H14057   6.856   3.535   7.880  1.2101  1.1536 -4.5120
  102MOL0     H14058   7.123   3.705   7.392 -0.3309  1.3033  0.6599
  102MOL0     H14059   7.292   3.624   7.235  0.1215  0.4262  1.2411
  102MOL0     H14060   8.498   2.962   8.230 -0.1977 -0.5702  0.4757
  102MOL0     H14061   8.606   3.107   8.396  0.4553 -0.5378  0.7847
  102MOL0     H14062   9.095   3.143   8.557  0.1687  0.0514 -2.1667
  102MOL0     H14063   9.235   3.249   8.704  0.2569  2.7521  2.7868
  102MOL0     H14064   9.282   3.669   8.868 -1.1579  1.7107  3.5270
  102MOL0     H14065   9.125   3.612   8.929 -0.4009 -0.6995 -2.4631
  102MOL0     H14066   9.241   3.461   9.060 -1.2942  0.0406 -0.8265
  102MOL0     H14067   9.311   3.620   9.109 -1.1358  1.0227 -1.2767
  102MOL0     H14068   9.441   3.421   8.930 -1.1972 -0.6119  1.3474
  102MOL0     H14069   9.485   3.601   8.938  2.4997 -0.5759  0.3324
  102MOL0     H14070   9.616   3.410   9.081  0.5081 -0.9077  0.7203
  102MOL0     H14071   9.470   3.422   9.182  0.8269 -0.7463  0.1519
  102MOL0     H14072   9.680   3.780   9.283 -1.9852  0.8683  1.8828
  102MOL0     H14073   9.026   3.612   8.706 -1.3335  0.2154  1.5566
  102MOL0     H14074   8.878   3.600   8.444 -0.3670  0.3053  0.2828
  102MOL0     H14075   8.750   3.498   8.520 -0.6142  0.4381  0.0196
  102MOL0     H14076   8.828   3.630   8.617  1.3159  0.8357  0.9770
  103MOL0     O14077   5.107   7.313   3.169 -0.0309 -0.2526 -0.1272
  103MOL0     C14078   5.149   7.393   3.247  0.5404 -0.6047  0.8369
  103MOL0     O14079   5.090   7.425   3.360 -0.0675  0.5228  0.6809
  103MOL0     C14080   4.970   7.366   3.389 -0.1722 -0.4938 -0.6069
  103MOL0     C14081   4.955   7.221   3.396  1.0887 -0.2187  0.4085
  103MOL0     C14082   4.828   7.163   3.416  0.2732 -0.0289  0.2946
  103MOL0     C14083   4.721   7.242   3.462 -0.2522 -0.1486 -1.2820
  103MOL0     O14084   4.625   7.174   3.521  0.6574 -0.3901 -0.3048
  103MOL0     C14085   4.571   7.221   3.647  0.1209 -0.0615  0.3600
  103MOL0     C14086   4.437   7.167   3.652  0.9792  1.0961  0.2949
  103MOL0     C14087   4.340   7.221   3.757 -0.9389  1.0384  0.4100
  103MOL0     C14088   4.233   7.108   3.793 -0.5422 -0.6868 -0.7010
  103MOL0     C14089   4.284   6.993   3.874  0.2150 -0.0918 -0.0468
  103MOL0     C14090   4.183   6.887   3.894 -1.0136 -0.4854 -0.5327
  103MOL0     C14091   4.087   6.929   4.007  0.5161 -0.1293 -0.0944
  103MOL0     C14092   4.005   6.811   4.064  0.3607  0.7340  1.4873
  103MOL0     N14093   3.937   6.738   3.956 -0.3583  1.1147 -0.6919
  103MOL0     C14094   3.849   6.786   3.869  0.9524  0.1180  0.2389
  103MOL0     C14095   3.820   6.684   3.787  0.1007  0.5856 -0.2102
  103MOL0     C14096   3.735   6.695   3.667  0.5559  0.7338 -0.3761
  103MOL0     C14097   3.632   6.585   3.656  0.0868 -0.4533 -0.2212
  103MOL0     C14098   3.554   6.608   3.534 -0.6571 -1.0501  0.4708
  103MOL0     C14099   3.478   6.479   3.491 -0.4746  0.5997 -0.1315
  103MOL0     O14100   3.387   6.414   3.589 -0.3074 -0.4353  0.2518
  103MOL0     C14101   3.325   6.295   3.556  0.5018 -0.6397  0.0282
  103MOL0     C14102   3.295   6.256   3.428 -0.0098  0.7775 -0.9432
  103MOL0     C14103   3.232   6.132   3.406  0.6354 -0.2086 -0.4579
  103MOL0     C14104   3.206   6.089   3.263 -0.1423 -0.0872 -0.1432
  103MOL0     C14105   3.207   6.045   3.517 -0.3432 -1.0453  0.1287
  103MOL0     C14106   3.160   5.904   3.519  0.2554 -0.8505  0.9813
  103MOL0     O14107   3.180   5.821   3.624 -0.0274 -0.4708 -0.1288
  103MOL0     C14108   3.173   5.692   3.627  0.1043  0.1832 -0.0170
  103MOL0     C14109   3.259   5.603   3.554  0.2188  0.4060 -0.0930
  103MOL0     C14110   3.264   5.460   3.591 -0.4441 -0.4964 -0.5480
  103MOL0     C14111   3.173   5.415   3.694  0.3724  0.7989  0.0507
  103MOL0     O14112   3.168   5.289   3.742 -0.6257  0.0490  1.0010
  103MOL0     C14113   3.291   5.236   3.771  0.8982 -0.1216  1.0757
  103MOL0     C14114   3.266   5.106   3.851  0.2202 -0.0388 -0.2174
  103MOL0     C14115   3.158   5.126   3.961 -0.2868 -0.4754  0.0865
  103MOL0     C14116   3.120   4.991   4.018  0.2239  0.3591 -1.0320
  103MOL0     C14117   3.113   5.008   4.171  0.3838  0.8219 -0.0850
  103MOL0     C14118   3.030   5.121   4.231 -0.2078 -0.2930 -0.8064
  103MOL0     C14119   3.090   5.163   4.372  0.0713 -0.1055 -0.1696
  103MOL0     C14120   3.148   5.049   4.463 -0.2003 -0.2745  0.3664
  103MOL0    Cl14121   3.166   5.087   4.624 -0.1469 -0.2646 -0.3261
  103MOL0     C14122   3.079   5.509   3.750  0.6025  0.2494 -0.7620
  103MOL0     C14123   3.087   5.639   3.718  1.3864 -0.6415  0.0211
  103MOL0     O14124   3.101   5.868   3.414  0.4904 -0.7285 -0.1382
  103MOL0     C14125   3.228   6.096   3.642 -0.0326 -0.8023 -0.1351
  103MOL0     C14126   3.294   6.217   3.662 -0.3612  0.2904  0.1889
  103MOL0     N14127   3.887   6.560   3.832  0.0958 -0.6171 -0.2350
  103MOL0     N14128   3.970   6.601   3.929 -0.1368 -0.4419  0.0023
  103MOL0     C14129   4.735   7.374   3.456  0.1272 -0.5828  0.9096
  103MOL0     C14130   4.858   7.439   3.430 -0.1392 -0.3072  0.0694
  103MOL0     C14131   5.293   7.446   3.221 -0.0232  0.6281  0.5475
  103MOL0     C14132   5.342   7.450   3.091 -1.4972  1.5734 -0.4013
  103MOL0     C14133   5.452   7.514   3.057  0.9371 -0.6064  0.0162
  103MOL0     C14134   5.528   7.580   3.153 -0.1809  0.1717  0.0277
  103MOL0     O14135   5.635   7.656   3.112 -0.0201  0.0702  0.4659
  103MOL0     C14136   5.745   7.696   3.190 -0.0172 -1.2531  0.0003
  103MOL0     C14137   5.859   7.593   3.171  0.5051 -0.1771  0.1546
  103MOL0     C14138   5.925   7.570   3.032  0.4137 -0.2447 -0.1973
  103MOL0     C14139   6.030   7.460   3.032 -0.0830 -0.2523 -0.5475
  103MOL0     C14140   6.155   7.529   3.059 -0.2121  0.0341  0.6658
  103MOL0     C14141   6.258   7.590   3.087  0.1274 -0.9782  0.5954
  103MOL0     C14142   5.496   7.571   3.296  0.1182 -0.4849 -0.4570
  103MOL0     C14143   5.383   7.496   3.326  0.3016  0.3793 -0.6838
  103MOL0     C14144   5.362   7.473   3.473  0.2172 -0.6322 -0.5010
  103MOL0     H14145   5.041   7.162   3.368 -0.1767 -1.6360 -0.5963
  103MOL0     H14146   4.832   7.055   3.412  2.4219  0.0447 -2.6318
  103MOL0     H14147   4.578   7.327   3.671  1.0984 -0.3047  1.2447
  103MOL0     H14148   4.622   7.169   3.729 -0.7767  0.0449  1.0003
  103MOL0     H14149   4.389   7.191   3.557  1.6589  0.3507 -0.2520
  103MOL0     H14150   4.453   7.059   3.650  1.1719  1.1256 -1.4210
  103MOL0     H14151   4.405   7.242   3.843  1.8796 -0.8795 -1.1111
  103MOL0     H14152   4.304   7.319   3.725  1.5252  1.6043 -0.9125
  103MOL0     H14153   4.162   7.161   3.857  0.7916  0.6885 -0.3251
  103MOL0     H14154   4.169   7.065   3.715 -3.1414 -3.5798  2.6992
  103MOL0     H14155   4.319   7.023   3.973 -2.8259  0.0671  1.0768
  103MOL0     H14156   4.368   6.952   3.816  0.4166  0.0420  0.1467
  103MOL0     H14157   4.125   6.884   3.801 -1.1188  2.2719 -0.6240
  103MOL0     H14158   4.248   6.801   3.914  0.8077  0.4407 -2.2200
  103MOL0     H14159   4.007   6.990   3.963  0.8946  1.3289  1.1630
  103MOL0     H14160   4.130   7.002   4.075 -1.8369  1.2425  0.0484
  103MOL0     H14161   4.061   6.735   4.120  0.2958  1.4996  2.6187
  103MOL0     H14162   3.928   6.853   4.129 -2.4532 -1.5324 -0.1258
  103MOL0     H14163   3.802   6.883   3.859 -2.3070 -1.2711  0.8926
  103MOL0     H14164   3.795   6.698   3.575  2.4601 -2.3985  0.5934
  103MOL0     H14165   3.675   6.786   3.669 -1.2052 -0.3720 -0.6576
  103MOL0     H14166   3.692   6.493   3.657  0.4192 -0.2391  1.2014
  103MOL0     H14167   3.568   6.586   3.745 -3.7114 -4.6253 -2.4865
  103MOL0     H14168   3.489   6.689   3.568  1.1307  0.4885  0.4105
  103MOL0     H14169   3.613   6.654   3.455 -1.4519  0.6918  0.8419
  103MOL0     H14170   3.430   6.525   3.404 -0.5630 -0.1348 -0.4826
  103MOL0     H14171   3.550   6.406   3.451 -1.4781 -1.1261  1.0737
  103MOL0     H14172   3.322   6.310   3.337 -1.2958  1.1524 -1.1131
  103MOL0     H14173   3.284   6.132   3.200 -1.8906  2.2475 -0.8806
  103MOL0     H14174   3.110   6.135   3.235  0.3603  1.0160 -0.1173
  103MOL0     H14175   3.202   5.981   3.248 -2.2466 -0.0598 -0.1105
  103MOL0     H14176   3.311   5.650   3.470  0.8615 -0.9515 -0.4741
  103MOL0     H14177   3.328   5.399   3.529 -1.2241  0.0563 -1.9434
  103MOL0     H14178   3.363   5.215   3.692  0.3145 -1.0673  0.7711
  103MOL0     H14179   3.328   5.311   3.842  2.4887  1.1317 -0.9720
  103MOL0     H14180   3.236   5.023   3.785  1.1085 -0.8553  0.3706
  103MOL0     H14181   3.358   5.078   3.903 -0.5838  0.4287  1.5200
  103MOL0     H14182   3.073   5.182   3.922  1.0984  0.6026 -1.5333
  103MOL0     H14183   3.213   5.184   4.036 -0.3854 -2.6235  1.9522
  103MOL0     H14184   3.202   4.923   3.992  0.3764  0.7290 -1.5416
  103MOL0     H14185   3.024   4.960   3.978 -1.7514  2.3080  1.8271
  103MOL0     H14186   3.090   4.911   4.217  3.5199  0.9383  2.0459
  103MOL0     H14187   3.217   5.027   4.198  1.1040 -2.9614  0.3645
  103MOL0     H14188   2.927   5.088   4.252 -0.3425  0.3812 -0.3495
  103MOL0     H14189   3.026   5.205   4.161  2.9929  0.6810  0.0505
  103MOL0     H14190   3.019   5.229   4.424 -0.0185 -0.3369  0.0041
  103MOL0     H14191   3.182   5.212   4.340  0.0827  0.6209  0.8990
  103MOL0     H14192   3.247   5.015   4.432 -0.0245 -0.9177  1.5338
  103MOL0     H14193   3.079   4.965   4.474 -0.8151  0.2395  0.5335
  103MOL0     H14194   3.013   5.472   3.829  1.1007 -0.3069 -0.6065
  103MOL0     H14195   3.011   5.704   3.760  1.2214 -0.4448 -0.5699
  103MOL0     H14196   3.202   6.038   3.729 -0.9322 -0.9731 -0.5039
  103MOL0     H14197   3.321   6.250   3.761  0.8498 -0.1956  0.0378
  103MOL0     H14198   4.647   7.421   3.499  0.6949 -0.4329  1.9490
  103MOL0     H14199   4.872   7.547   3.430  3.9539 -0.5526 -3.3762
  103MOL0     H14200   5.285   7.413   3.006 -1.0655  1.9306 -0.8512
  103MOL0     H14201   5.477   7.526   2.952  3.6955  0.0017  0.6628
  103MOL0     H14202   5.778   7.794   3.153 -0.4708 -2.3542 -3.6844
  103MOL0     H14203   5.714   7.714   3.293 -2.3689  2.2586 -1.1302
  103MOL0     H14204   5.808   7.498   3.187 -0.8578  0.3609 -0.8286
  103MOL0     H14205   5.940   7.610   3.243  0.2281  4.7373 -0.3283
  103MOL0     H14206   5.846   7.552   2.958 -1.5535  3.6005  0.7431
  103MOL0     H14207   5.978   7.661   3.002 -0.7340 -0.1070 -1.9631
  103MOL0     H14208   6.041   7.408   2.937  3.0442  0.9479 -0.9565
  103MOL0     H14209   6.007   7.379   3.102  1.8079 -0.6977 -0.3969
  103MOL0     H14210   6.355   7.635   3.096  0.1472  0.2009 -3.5368
  103MOL0     H14211   5.552   7.604   3.383  0.2818 -1.7832 -0.0511
  103MOL0     H14212   5.459   7.443   3.513  1.0536 -0.6730 -2.4421
  103MOL0     H14213   5.326   7.563   3.524 -2.3684 -1.7249 -0.1927
  103MOL0     H14214   5.299   7.387   3.499 -0.0850  0.3611  2.4912
  104MOL0     O14215  10.188   7.007   8.248  0.5281 -0.8739 -0.3281
  104MOL0     C14216  10.128   7.100   8.316 -0.4976 -0.2518  0.3716
  104MOL0     O14217  10.040   7.185   8.259 -0.8183  0.3343  0.1611
  104MOL0     C14218  10.008   7.161   8.129  0.0906  0.0533  0.1584
  104MOL0     C14219   9.892   7.099   8.100 -1.1067 -0.0043 -0.2867
  104MOL0     C14220   9.852   7.080   7.959 -0.1495  0.4326 -0.3593
  104MOL0     C14221   9.921   7.156   7.858  0.6099  1.0003  0.2320
  104MOL0     O14222   9.889   7.165   7.722 -0.3893  0.3863 -0.7502
  104MOL0     C14223   9.784   7.090   7.663  0.0420  0.5020 -0.1748
  104MOL0     C14224   9.827   7.063   7.517  0.5383  1.0220  0.1291
  104MOL0     C14225   9.974   7.015   7.489  1.1079 -0.1613 -0.5729
  104MOL0     C14226   9.976   6.866   7.458 -0.6125  1.5481 -0.3603
  104MOL0     C14227  10.132   6.827   7.459 -0.3218 -1.0190 -0.4094
  104MOL0     C14228  10.150   6.689   7.398 -0.2595 -1.3819  1.3431
  104MOL0     C14229  10.302   6.640   7.397  0.6855  0.3081 -0.1609
  104MOL0     C14230  10.384   6.680   7.283  0.4167 -0.7851 -0.3259
  104MOL0     N14231  10.438   6.823   7.293 -0.1256 -0.1303 -0.3639
  104MOL0     C14232  10.391   6.921   7.215 -0.1964 -0.3019  0.3106
  104MOL0     C14233  10.438   7.038   7.280  0.6958 -0.1343  1.1039
  104MOL0     C14234  10.420   7.181   7.220 -0.0849 -0.2204  0.5996
  104MOL0     C14235  10.363   7.284   7.320  0.5166  0.1741  1.0019
  104MOL0     C14236  10.238   7.245   7.394 -0.5400  0.3870 -0.1502
  104MOL0     C14237  10.187   7.341   7.492  0.2924  0.2440 -0.1691
  104MOL0     O14238  10.148   7.462   7.423 -0.1574  0.5246  0.0546
  104MOL0     C14239  10.100   7.571   7.488  0.9613  0.0526 -0.2185
  104MOL0     C14240  10.073   7.693   7.427  0.0960 -0.0794  0.6425
  104MOL0     C14241  10.051   7.813   7.491  0.0585  0.3771  0.1176
  104MOL0     C14242  10.032   7.927   7.384 -0.0836  0.1772  0.2000
  104MOL0     C14243  10.051   7.813   7.634  0.5980 -0.4135 -0.7590
  104MOL0     C14244  10.013   7.935   7.712 -0.3608  0.1725 -0.3592
  104MOL0     O14245   9.879   7.977   7.703 -0.5954  0.4343  0.9223
  104MOL0     C14246   9.829   8.083   7.768  0.5485  0.8363  0.6506
  104MOL0     C14247   9.686   8.076   7.779 -0.3563 -0.6889  1.2052
  104MOL0     C14248   9.617   8.177   7.855 -1.6241  0.0138 -0.0693
  104MOL0     C14249   9.690   8.292   7.902  0.2574 -0.4912  0.2437
  104MOL0     O14250   9.627   8.378   7.985  1.3208 -0.3607  0.6836
  104MOL0     C14251   9.498   8.429   7.932  0.0996 -0.1370  0.0786
  104MOL0     C14252   9.465   8.562   8.004  0.0221  0.0432 -0.7526
  104MOL0     C14253   9.578   8.676   7.997 -0.0905  0.4696  0.7731
  104MOL0     C14254   9.600   8.716   7.845  0.3209 -0.7081  0.0752
  104MOL0     C14255   9.703   8.831   7.838 -0.6908  0.1941  0.2775
  104MOL0     C14256   9.674   8.896   7.702  0.7133 -1.3447 -0.4958
  104MOL0     C14257   9.737   9.034   7.701  0.9228 -0.6479 -0.4982
  104MOL0     C14258   9.886   9.033   7.679  0.2149  1.2258  0.6903
  104MOL0    Cl14259   9.938   9.189   7.744 -0.1064  0.5117  0.0851
  104MOL0     C14260   9.827   8.306   7.877 -0.2542 -0.6998 -0.1700
  104MOL0     C14261   9.896   8.203   7.806  1.0264 -0.4093 -0.8623
  104MOL0     O14262  10.104   7.995   7.767  0.6962 -0.0706  0.1623
  104MOL0     C14263  10.074   7.699   7.704 -0.0172  0.5476 -0.7222
  104MOL0     C14264  10.099   7.575   7.632  0.2360  0.0901 -0.7728
  104MOL0     N14265  10.500   7.008   7.398 -0.3102 -0.0862 -0.1371
  104MOL0     N14266  10.498   6.875   7.405 -0.7296  1.4597 -0.1594
  104MOL0     C14267  10.038   7.217   7.898  0.0481  0.1339  0.1221
  104MOL0     C14268  10.088   7.218   8.030 -0.0776  0.0941  1.1350
  104MOL0     C14269  10.148   7.122   8.458 -0.0519  0.3564  0.0559
  104MOL0     C14270  10.090   7.244   8.510 -0.1106  0.0546  0.3787
  104MOL0     C14271  10.090   7.270   8.651  0.1949 -0.2384 -0.5027
  104MOL0     C14272  10.156   7.188   8.737  0.5055 -0.6772 -0.5225
  104MOL0     O14273  10.172   7.227   8.857  0.1057 -0.7126  0.3842
  104MOL0     C14274  10.291   7.304   8.886 -0.5581 -1.1591  0.0074
  104MOL0     C14275  10.261   7.457   8.867  0.0836 -0.3468  0.1931
  104MOL0     C14276  10.145   7.496   8.959 -0.2470 -0.3295 -0.6213
  104MOL0     C14277  10.099   7.638   8.913 -0.2205 -0.4574  0.8722
  104MOL0     C14278   9.982   7.678   8.980  0.0413 -0.5242  0.4585
  104MOL0     C14279   9.874   7.714   9.022  1.2173 -0.9956 -0.3147
  104MOL0     C14280  10.214   7.080   8.679  0.5138  0.4407 -0.3058
  104MOL0     C14281  10.215   7.043   8.552 -0.5413  1.4412  0.3797
  104MOL0     C14282  10.272   6.906   8.521  0.2669 -0.1991 -0.7247
  104MOL0     H14283   9.845   7.049   8.184  3.3243  0.0960  2.5327
  104MOL0     H14284   9.764   7.025   7.928 -0.5566  1.9346 -2.0600
  104MOL0     H14285   9.683   7.131   7.676 -0.4003 -0.7776  0.5484
  104MOL0     H14286   9.782   6.991   7.708 -1.2166  0.1202 -0.9925
  104MOL0     H14287   9.752   6.990   7.485  1.6386  0.7733 -2.0129
  104MOL0     H14288   9.796   7.149   7.458 -2.0544  0.2685  0.2768
  104MOL0     H14289   9.993   7.071   7.397 -0.5403  0.3220 -0.6442
  104MOL0     H14290  10.030   7.035   7.580  0.3343 -2.2480  0.4174
  104MOL0     H14291   9.927   6.799   7.529 -0.5093  2.6290  0.7736
  104MOL0     H14292   9.927   6.854   7.361 -0.0736  2.2917 -0.7349
  104MOL0     H14293  10.163   6.824   7.564  2.1044  1.2704 -0.9674
  104MOL0     H14294  10.181   6.904   7.399 -0.2726  1.4576  2.5397
  104MOL0     H14295  10.090   6.613   7.449 -2.7453  0.0978  0.7853
  104MOL0     H14296  10.130   6.693   7.291  3.1104  1.3036  0.6309
  104MOL0     H14297  10.303   6.531   7.398 -2.9529  0.1188  2.1514
  104MOL0     H14298  10.335   6.669   7.497 -3.8559  0.0459  1.6440
  104MOL0     H14299  10.479   6.627   7.275  0.3370 -0.9110 -0.4528
  104MOL0     H14300  10.332   6.668   7.188  0.9129 -0.7622 -0.6030
  104MOL0     H14301  10.334   6.920   7.123  1.7990 -1.6299 -0.9950
  104MOL0     H14302  10.350   7.168   7.136 -0.1657 -0.2763  0.6742
  104MOL0     H14303  10.518   7.213   7.183  0.7502  0.2679  3.0958
  104MOL0     H14304  10.439   7.313   7.394 -0.8558  3.9301  1.1445
  104MOL0     H14305  10.343   7.370   7.256  1.2652 -2.0984 -2.5603
  104MOL0     H14306  10.157   7.216   7.326  1.0618 -2.8597 -0.8929
  104MOL0     H14307  10.278   7.160   7.451  3.5161  0.0587 -3.0708
  104MOL0     H14308  10.096   7.290   7.523 -1.3198  3.2293  0.4311
  104MOL0     H14309  10.262   7.359   7.570 -2.8958 -2.9911  4.1275
  104MOL0     H14310  10.083   7.690   7.319  1.0802 -2.7145  0.7253
  104MOL0     H14311   9.990   8.019   7.426  1.5379  1.6727 -1.2761
  104MOL0     H14312   9.962   7.905   7.303 -3.9041  1.0924  2.9625
  104MOL0     H14313  10.134   7.954   7.353  1.0968 -2.0285  1.8622
  104MOL0     H14314   9.636   7.995   7.728 -0.0993  0.0102 -0.2066
  104MOL0     H14315   9.511   8.174   7.877 -1.1686 -0.3928  2.4167
  104MOL0     H14316   9.511   8.444   7.824  1.3490  3.4307  0.6095
  104MOL0     H14317   9.426   8.349   7.951  1.5439 -2.2525 -2.5251
  104MOL0     H14318   9.380   8.616   7.961  1.0157  2.6256  0.2973
  104MOL0     H14319   9.430   8.544   8.106 -1.1678  1.5011 -0.8652
  104MOL0     H14320   9.668   8.637   8.045  0.2503  1.2180  0.7525
  104MOL0     H14321   9.560   8.765   8.058  2.0377  0.8214  0.9397
  104MOL0     H14322   9.503   8.744   7.805 -0.2818 -3.0086 -0.2373
  104MOL0     H14323   9.619   8.627   7.784  0.8926  0.7117 -1.9281
  104MOL0     H14324   9.690   8.904   7.918  1.6619 -1.3532  2.1984
  104MOL0     H14325   9.806   8.796   7.842 -0.2501  1.2188 -1.3972
  104MOL0     H14326   9.566   8.914   7.694  0.8638 -0.3888 -0.4912
  104MOL0     H14327   9.707   8.830   7.622 -0.0546 -3.0175  0.5160
  104MOL0     H14328   9.717   9.077   7.800 -0.9013 -0.7465 -0.7789
  104MOL0     H14329   9.698   9.098   7.621  0.9024  1.1944  0.9069
  104MOL0     H14330   9.906   9.015   7.573 -0.2164 -1.0370  0.9322
  104MOL0     H14331   9.939   8.945   7.719  1.0489 -1.6380 -5.5327
  104MOL0     H14332   9.875   8.401   7.898 -0.4045 -0.6889  0.1422
  104MOL0     H14333   9.999   8.233   7.793  1.3752 -0.3332  1.5482
  104MOL0     H14334  10.080   7.693   7.812 -2.5783  3.2661 -0.2780
  104MOL0     H14335  10.114   7.485   7.692  0.1873  0.8464  0.3977
  104MOL0     H14336  10.090   7.252   7.810  1.1339  3.3620  1.9126
  104MOL0     H14337  10.183   7.259   8.062  0.1537 -0.3598  1.0446
  104MOL0     H14338  10.036   7.314   8.446  1.5580  1.0193 -0.0464
  104MOL0     H14339  10.031   7.354   8.686 -1.5987 -1.1923 -1.0627
  104MOL0     H14340  10.312   7.270   8.988 -2.9765 -0.3262  0.8425
  104MOL0     H14341  10.378   7.279   8.824 -1.6771 -0.6004 -1.8498
  104MOL0     H14342  10.238   7.468   8.761  0.7577  0.1340  0.0884
  104MOL0     H14343  10.348   7.517   8.894 -0.1217  2.2466 -4.0025
  104MOL0     H14344  10.061   7.426   8.953 -0.2415 -0.2567 -1.8924
  104MOL0     H14345  10.156   7.504   9.068 -4.6054 -0.6458  0.0109
  104MOL0     H14346  10.070   7.649   8.808 -2.6833 -1.8926  1.3276
  104MOL0     H14347  10.175   7.711   8.940 -1.5719  0.0100  3.8502
  104MOL0     H14348   9.782   7.752   9.062  1.5641 -0.6399  0.1565
  104MOL0     H14349  10.272   7.021   8.749  1.0796 -0.1780 -1.2760
  104MOL0     H14350  10.337   6.903   8.433  0.8959 -1.3476 -0.2401
  104MOL0     H14351  10.330   6.855   8.599 -1.7474  0.2877  1.2165
  104MOL0     H14352  10.189   6.837   8.504 -1.7113  1.7201  0.6146
  105MOL0     O14353   4.729   3.907   2.205  0.2026 -0.3085  0.2336
  105MOL0     C14354   4.834   3.895   2.136  0.3299 -0.5184 -0.2799
  105MOL0     O14355   4.857   3.935   2.010  1.0616  0.1733  0.0409
  105MOL0     C14356   4.753   3.971   1.928  0.8253 -0.4923 -0.1630
  105MOL0     C14357   4.616   3.991   1.956 -0.2268  0.0055 -0.6000
  105MOL0     C14358   4.524   4.033   1.854 -0.1625  0.4929  0.5648
  105MOL0     C14359   4.562   4.042   1.721 -0.6054 -0.0696  0.1149
  105MOL0     O14360   4.465   4.100   1.636  0.0542  0.0081 -0.1577
  105MOL0     C14361   4.395   4.001   1.568 -0.5115  0.4895  0.4926
  105MOL0     C14362   4.462   3.985   1.433  0.9266  0.8998 -0.4014
  105MOL0     C14363   4.469   4.118   1.363  0.4181 -0.7292 -0.0135
  105MOL0     C14364   4.527   4.099   1.222 -0.1067  1.1505 -0.9841
  105MOL0     C14365   4.549   4.217   1.128  0.3330  0.8891  0.5467
  105MOL0     C14366   4.430   4.293   1.096  0.5619 -0.5745 -0.0305
  105MOL0     C14367   4.328   4.215   1.011  0.1212 -0.4970  0.2875
  105MOL0     C14368   4.197   4.289   0.964  0.7330 -0.6246 -0.8985
  105MOL0     N14369   4.186   4.434   0.994  0.0832  0.4950 -0.3030
  105MOL0     C14370   4.098   4.493   1.086 -0.2558 -0.0950 -0.7270
  105MOL0     C14371   4.121   4.625   1.076 -0.0876 -0.7835 -0.0308
  105MOL0     C14372   4.061   4.739   1.159  0.3437  0.4138  0.1349
  105MOL0     C14373   4.148   4.796   1.284 -0.1968 -0.2691  0.2198
  105MOL0     C14374   4.151   4.690   1.399  0.0031  0.0526  1.3412
  105MOL0     C14375   4.167   4.746   1.533  1.1026  0.2267  0.4772
  105MOL0     O14376   4.280   4.831   1.546  0.0976 -0.2768  0.7035
  105MOL0     C14377   4.304   4.893   1.663  0.2472 -0.3136  0.2939
  105MOL0     C14378   4.427   4.956   1.670  0.4175 -0.0522 -0.0754
  105MOL0     C14379   4.481   5.030   1.778 -0.3442  0.2151 -0.0584
  105MOL0     C14380   4.603   5.113   1.765  0.6192  0.6954  0.1277
  105MOL0     C14381   4.397   5.043   1.896  0.1889  0.2390 -0.0796
  105MOL0     C14382   4.439   5.095   2.025 -0.0937 -0.5115  0.4289
  105MOL0     O14383   4.568   5.082   2.055  0.1522  0.1729  0.1442
  105MOL0     C14384   4.616   5.112   2.181 -0.0021 -0.2040 -0.4070
  105MOL0     C14385   4.740   5.184   2.189  0.6462  0.4840 -0.6801
  105MOL0     C14386   4.785   5.234   2.312  0.2335 -0.3646 -0.7275
  105MOL0     C14387   4.722   5.204   2.434 -0.4260 -0.7963 -0.0848
  105MOL0     O14388   4.787   5.258   2.539  0.5618  0.3338 -0.0177
  105MOL0     C14389   4.790   5.165   2.650  1.0073  0.1036  0.7008
  105MOL0     C14390   4.849   5.234   2.777  0.0280 -0.2440 -0.7239
  105MOL0     C14391   4.996   5.257   2.775 -0.5299  0.4009 -0.0775
  105MOL0     C14392   5.089   5.149   2.714  0.3055  0.3435 -0.4031
  105MOL0     C14393   5.236   5.189   2.720  0.5078 -0.2570 -0.2756
  105MOL0     C14394   5.327   5.067   2.678  0.9051 -0.0114  0.1492
  105MOL0     C14395   5.469   5.105   2.716  0.4519 -0.5308 -0.0563
  105MOL0     C14396   5.570   5.022   2.634 -0.1935 -0.0741  0.3311
  105MOL0    Cl14397   5.543   4.848   2.684 -0.4999 -0.0920 -0.0266
  105MOL0     C14398   4.605   5.124   2.432 -1.3430  0.1756  0.5903
  105MOL0     C14399   4.553   5.075   2.300  0.3584 -0.4455 -0.3327
  105MOL0     O14400   4.346   5.132   2.100  0.2014  0.4326  0.3644
  105MOL0     C14401   4.276   4.972   1.884 -0.4409 -0.8064 -0.3116
  105MOL0     C14402   4.226   4.898   1.778 -0.3763 -0.1602  0.0413
  105MOL0     N14403   4.221   4.645   0.983  0.5458  0.6067 -0.2847
  105MOL0     N14404   4.254   4.532   0.934 -0.3832  0.0361  0.8354
  105MOL0     C14405   4.696   4.022   1.686  0.2784  0.2484 -0.7371
  105MOL0     C14406   4.788   3.987   1.792  0.3018  0.4514  0.1756
  105MOL0     C14407   4.935   3.826   2.218  0.9823  0.8386 -0.0906
  105MOL0     C14408   4.943   3.847   2.357  0.3574  0.4971 -0.5057
  105MOL0     C14409   5.049   3.790   2.432 -0.3599  0.6822 -0.2986
  105MOL0     C14410   5.143   3.704   2.362 -0.1410 -0.0474 -0.7392
  105MOL0     O14411   5.235   3.638   2.434 -0.3666  0.1178  0.4411
  105MOL0     C14412   5.179   3.549   2.537  0.2222  0.2825  0.0544
  105MOL0     C14413   5.157   3.409   2.480  0.2690 -0.5217 -0.2142
  105MOL0     C14414   5.263   3.353   2.371  0.5120 -0.3770 -0.2417
  105MOL0     C14415   5.292   3.206   2.410  0.1317 -0.2303 -0.8714
  105MOL0     C14416   5.160   3.129   2.420  0.1863 -1.1320 -0.4533
  105MOL0     C14417   5.051   3.079   2.408 -0.6771 -0.2463 -0.2769
  105MOL0     C14418   5.128   3.685   2.234  0.6548 -0.3711  0.2582
  105MOL0     C14419   5.023   3.743   2.163 -0.7217  0.3124 -0.1223
  105MOL0     C14420   5.021   3.699   2.011 -0.2417 -0.3601 -0.2164
  105MOL0     H14421   4.581   3.983   2.058  1.4041 -1.0800 -0.0823
  105MOL0     H14422   4.424   4.049   1.894 -0.1160 -2.9930  2.4849
  105MOL0     H14423   4.290   4.033   1.561 -1.5101 -2.3742  0.8897
  105MOL0     H14424   4.404   3.908   1.625 -3.5689 -0.7601 -0.8108
  105MOL0     H14425   4.561   3.944   1.454  1.0182  0.7013 -1.2049
  105MOL0     H14426   4.387   3.916   1.394 -1.2735  0.5168  3.8727
  105MOL0     H14427   4.371   4.165   1.354  0.5773 -0.4079 -0.0634
  105MOL0     H14428   4.551   4.169   1.414  0.1405 -1.9243  1.7069
  105MOL0     H14429   4.625   4.053   1.235 -1.2226 -1.3803 -0.8166
  105MOL0     H14430   4.462   4.021   1.180  1.2537 -0.4847 -0.1750
  105MOL0     H14431   4.609   4.177   1.046  1.0049 -0.0132  1.4492
  105MOL0     H14432   4.611   4.292   1.179  0.4813  1.2670 -0.1717
  105MOL0     H14433   4.374   4.313   1.188  0.3274  0.9988 -0.4736
  105MOL0     H14434   4.455   4.386   1.045 -2.1128 -1.0508 -2.4233
  105MOL0     H14435   4.285   4.137   1.074  0.1963  0.0679  1.0546
  105MOL0     H14436   4.379   4.174   0.924  2.4132 -4.1237  3.0410
  105MOL0     H14437   4.203   4.272   0.856  0.9067 -1.9620 -0.6939
  105MOL0     H14438   4.113   4.234   1.008  2.2784  0.0861  3.3812
  105MOL0     H14439   4.014   4.448   1.138  0.8055 -0.4813  0.7277
  105MOL0     H14440   3.969   4.710   1.210  0.7389 -6.1014 -1.9053
  105MOL0     H14441   4.041   4.812   1.080  2.4525  0.5214 -0.3676
  105MOL0     H14442   4.252   4.813   1.254 -0.4896  0.7672 -0.2477
  105MOL0     H14443   4.095   4.887   1.311  0.0251 -0.2943  0.7538
  105MOL0     H14444   4.056   4.637   1.386  0.6119 -1.1343  1.5578
  105MOL0     H14445   4.224   4.610   1.385 -0.7204 -0.1641 -2.4563
  105MOL0     H14446   4.084   4.816   1.552  1.3997  0.8676 -0.5032
  105MOL0     H14447   4.181   4.671   1.611  0.8411  0.7413  1.0343
  105MOL0     H14448   4.489   4.947   1.581 -0.5509  0.0346 -0.7854
  105MOL0     H14449   4.638   5.117   1.662  2.6802 -0.6808  0.7205
  105MOL0     H14450   4.682   5.077   1.831  1.6774 -0.3694 -1.6400
  105MOL0     H14451   4.566   5.215   1.785 -4.6442 -0.3603 -2.4158
  105MOL0     H14452   4.794   5.215   2.100  3.9646 -0.1882  0.9330
  105MOL0     H14453   4.871   5.300   2.301 -0.4795  0.3887 -2.1493
  105MOL0     H14454   4.689   5.137   2.682  1.0361 -0.7311  0.1020
  105MOL0     H14455   4.842   5.072   2.627 -1.8579 -1.4305 -0.0826
  105MOL0     H14456   4.794   5.320   2.817 -0.0269 -0.5651 -0.0835
  105MOL0     H14457   4.830   5.162   2.857  1.3782  0.9256  0.7240
  105MOL0     H14458   5.033   5.284   2.874 -1.9517  1.8838  0.0791
  105MOL0     H14459   5.022   5.342   2.712 -2.3560 -0.2110 -1.7450
  105MOL0     H14460   5.063   5.138   2.609 -2.2349 -0.7110  0.2574
  105MOL0     H14461   5.070   5.056   2.769  0.6608  1.2074  1.2383
  105MOL0     H14462   5.262   5.277   2.660 -0.3395 -1.3373 -2.3159
  105MOL0     H14463   5.261   5.235   2.816 -1.2471 -0.7696  0.4669
  105MOL0     H14464   5.315   5.057   2.570 -2.0031  1.9695  0.1744
  105MOL0     H14465   5.297   4.973   2.726  0.7398 -1.2198 -2.1630
  105MOL0     H14466   5.480   5.085   2.823 -2.4580  0.2124  0.4515
  105MOL0     H14467   5.483   5.209   2.689 -2.8688 -0.5447 -2.4436
  105MOL0     H14468   5.671   5.056   2.662 -0.9105 -0.2258  3.5553
  105MOL0     H14469   5.553   5.026   2.527  0.7865 -2.5747  0.0041
  105MOL0     H14470   4.560   5.094   2.526 -0.0545 -2.1370  0.5451
  105MOL0     H14471   4.458   5.022   2.297 -1.2144  2.2105 -0.0060
  105MOL0     H14472   4.225   4.955   1.979  1.8052  0.2858  1.1824
  105MOL0     H14473   4.145   4.826   1.787  0.4063 -1.1018 -0.2735
  105MOL0     H14474   4.726   4.032   1.583 -2.6528  3.0441 -1.4543
  105MOL0     H14475   4.892   3.972   1.766  0.3592 -0.3443  0.8089
  105MOL0     H14476   4.887   3.923   2.410  3.1970  1.6914  0.9717
  105MOL0     H14477   5.069   3.809   2.537  1.6519 -0.7900 -0.3434
  105MOL0     H14478   5.250   3.536   2.619  0.3665 -1.9003 -0.3573
  105MOL0     H14479   5.080   3.579   2.573 -0.4961 -0.5192 -1.1862
  105MOL0     H14480   5.056   3.408   2.437  1.8175 -0.2215 -4.3590
  105MOL0     H14481   5.159   3.337   2.562 -1.1247 -1.1847 -0.7226
  105MOL0     H14482   5.216   3.356   2.272 -1.5313  3.9576  0.6278
  105MOL0     H14483   5.357   3.408   2.373  0.8583 -0.8598  3.5920
  105MOL0     H14484   5.331   3.199   2.512  0.6882  0.5721 -1.0191
  105MOL0     H14485   5.362   3.161   2.338 -1.5117 -2.8221 -0.9809
  105MOL0     H14486   4.953   3.034   2.409 -1.3707  1.1614  1.7755
  105MOL0     H14487   5.193   3.609   2.192  1.5587  0.4669  0.1166
  105MOL0     H14488   4.914   3.684   1.992  0.1522 -2.0847 -1.2803
  105MOL0     H14489   5.053   3.772   1.936 -0.5877 -1.7462 -1.7840
  105MOL0     H14490   5.072   3.604   1.992 -0.4622 -0.4628 -0.2914
  106MOL0     O14491   7.693   0.715   3.669 -0.0713  0.4466  1.0503
  106MOL0     C14492   7.735   0.705   3.551 -0.0350 -0.1111  0.0616
  106MOL0     O14493   7.757   0.813   3.466  0.2775  0.0425 -0.6410
  106MOL0     C14494   7.672   0.911   3.507 -1.3850 -0.1743  0.3205
  106MOL0     C14495   7.710   1.010   3.603  0.0297 -0.0558  0.5323
  106MOL0     C14496   7.618   1.109   3.638  0.6949 -0.6950 -0.6938
  106MOL0     C14497   7.489   1.106   3.583 -1.0223  0.4314  0.1789
  106MOL0     O14498   7.407   1.222   3.582  0.4654 -0.1256  0.0471
  106MOL0     C14499   7.420   1.328   3.672  0.3988 -0.0160  0.3588
  106MOL0     C14500   7.303   1.422   3.674  0.0256 -0.7642  0.5895
  106MOL0     C14501   7.226   1.453   3.540 -0.0008 -0.4215 -0.1825
  106MOL0     C14502   7.314   1.493   3.418  0.8880 -0.3891  0.0330
  106MOL0     C14503   7.223   1.543   3.300 -0.0291 -0.7680 -0.4496
  106MOL0     C14504   7.284   1.499   3.166  0.2731  0.1822  0.6128
  106MOL0     C14505   7.415   1.575   3.113  0.0077  0.4549 -0.5776
  106MOL0     C14506   7.451   1.522   2.977  0.4167 -1.1062  0.7349
  106MOL0     N14507   7.548   1.616   2.920 -0.4430  0.1011 -0.4817
  106MOL0     C14508   7.671   1.629   2.969 -0.3222 -0.0700 -0.1071
  106MOL0     C14509   7.730   1.723   2.897 -0.8195 -0.0566 -0.2318
  106MOL0     C14510   7.865   1.767   2.910  0.1644  0.0308  0.0706
  106MOL0     C14511   7.872   1.908   2.955 -0.6280 -0.5298 -0.2967
  106MOL0     C14512   7.846   1.931   3.097 -0.1897 -0.5712  0.3151
  106MOL0     C14513   7.843   2.083   3.140  0.3770  0.5318 -0.5255
  106MOL0     O14514   7.815   2.089   3.283  0.2086  0.0985 -0.6403
  106MOL0     C14515   7.810   2.214   3.338 -0.4090 -0.9672  0.3931
  106MOL0     C14516   7.906   2.320   3.312 -0.0359 -0.7065 -0.7674
  106MOL0     C14517   7.899   2.440   3.376 -0.6044  0.1236 -1.6875
  106MOL0     C14518   8.020   2.528   3.361  0.3635  0.3434  0.0972
  106MOL0     C14519   7.789   2.466   3.467  0.2574  0.2132 -0.4553
  106MOL0     C14520   7.758   2.593   3.539  0.1208  0.0737 -0.2912
  106MOL0     O14521   7.856   2.691   3.534 -0.0551  0.3732 -0.6720
  106MOL0     C14522   7.843   2.795   3.622  0.2181  0.0681 -0.2966
  106MOL0     C14523   7.749   2.894   3.586  0.9446 -0.7019 -0.2240
  106MOL0     C14524   7.745   3.011   3.674 -0.5964 -0.6203  0.0632
  106MOL0     C14525   7.820   3.011   3.789  0.3006 -1.4044 -0.8920
  106MOL0     O14526   7.782   3.113   3.881 -0.3796  0.3930  0.2006
  106MOL0     C14527   7.871   3.139   3.990  1.0270  0.2855  0.4587
  106MOL0     C14528   7.814   3.227   4.098 -0.4547 -0.3089 -0.0133
  106MOL0     C14529   7.941   3.271   4.187  0.3544  0.6664  0.0575
  106MOL0     C14530   7.915   3.330   4.316 -0.1327 -0.4392  0.4529
  106MOL0     C14531   8.041   3.396   4.384  0.1776  0.3226  0.3871
  106MOL0     C14532   8.030   3.408   4.536  0.1081 -0.2579 -0.6176
  106MOL0     C14533   8.155   3.462   4.614 -0.1365  0.1628  0.0774
  106MOL0     C14534   8.150   3.450   4.764 -0.3046 -0.4338 -0.2404
  106MOL0    Cl14535   8.234   3.318   4.816 -0.3465  0.3041  0.0277
  106MOL0     C14536   7.911   2.900   3.820  0.2053 -0.7714 -0.3010
  106MOL0     C14537   7.926   2.795   3.733  0.7369 -0.5227 -0.6813
  106MOL0     O14538   7.661   2.594   3.609 -0.2554 -0.0808  0.2208
  106MOL0     C14539   7.704   2.352   3.491 -0.1668 -0.6713 -0.2567
  106MOL0     C14540   7.716   2.227   3.437  0.2802 -0.0836 -0.1680
  106MOL0     N14541   7.634   1.777   2.817  0.6054 -0.0142 -0.0472
  106MOL0     N14542   7.527   1.715   2.834  0.5422 -0.8885 -0.3091
  106MOL0     C14543   7.451   1.018   3.483 -0.5277 -0.3906 -0.9910
  106MOL0     C14544   7.552   0.927   3.440  0.7000 -0.4501 -0.9896
  106MOL0     C14545   7.787   0.565   3.508 -0.1298 -1.4139 -1.0550
  106MOL0     C14546   7.826   0.473   3.609  0.0788 -0.0722  1.1767
  106MOL0     C14547   7.894   0.355   3.564 -0.2751 -0.1846 -0.5424
  106MOL0     C14548   7.916   0.335   3.432 -0.7949 -0.3805 -0.1949
  106MOL0     O14549   7.992   0.223   3.411 -0.2708  0.5312 -0.1514
  106MOL0     C14550   7.956   0.139   3.298 -0.9531  0.1616  0.3720
  106MOL0     C14551   7.828   0.063   3.339 -0.2131 -1.3796 -0.2725
  106MOL0     C14552   7.761   0.006   3.213  0.2764  0.8092  0.3219
  106MOL0     C14553   7.809  -0.133   3.167  1.3526  0.5792 -0.3345
  106MOL0     C14554   7.931  -0.128   3.084 -0.8922 -0.0240  0.0748
  106MOL0     C14555   8.020  -0.134   2.998 -0.1888 -0.0915 -0.4521
  106MOL0     C14556   7.871   0.429   3.332  0.6216 -0.3917  0.4352
  106MOL0     C14557   7.804   0.547   3.372 -1.4390 -0.4889  0.5976
  106MOL0     C14558   7.760   0.635   3.253  0.6524 -0.6255 -0.0185
  106MOL0     H14559   7.804   1.003   3.657  0.3244 -0.1817  0.0071
  106MOL0     H14560   7.652   1.202   3.682  2.2123 -0.5584 -2.0809
  106MOL0     H14561   7.518   1.376   3.660  0.7074 -0.4438  1.1097
  106MOL0     H14562   7.432   1.279   3.768  0.0679 -0.6440  0.0828
  106MOL0     H14563   7.240   1.394   3.759  0.4163 -4.7265 -0.2110
  106MOL0     H14564   7.346   1.516   3.709 -1.0616  0.1126 -0.3356
  106MOL0     H14565   7.182   1.361   3.501  1.1535 -0.2635 -2.0201
  106MOL0     H14566   7.156   1.529   3.575  0.6182  0.0688  0.0145
  106MOL0     H14567   7.386   1.571   3.443 -0.3563  0.3495  1.4961
  106MOL0     H14568   7.382   1.412   3.390 -1.3638 -2.0935 -0.8007
  106MOL0     H14569   7.226   1.652   3.309 -0.3088 -0.7725 -0.3057
  106MOL0     H14570   7.120   1.509   3.305  0.0625 -0.9086  0.7695
  106MOL0     H14571   7.320   1.395   3.168 -2.2307 -0.8159 -1.0923
  106MOL0     H14572   7.215   1.512   3.083  1.3735  0.0440 -0.3445
  106MOL0     H14573   7.502   1.562   3.178  0.3614  2.1048 -0.6602
  106MOL0     H14574   7.390   1.682   3.114  1.3722  0.9796  4.5758
  106MOL0     H14575   7.496   1.423   2.977 -1.1212 -1.8287  0.8057
  106MOL0     H14576   7.363   1.520   2.912  0.4517 -0.3017  0.6487
  106MOL0     H14577   7.708   1.571   3.052  3.7848 -0.3251 -1.8780
  106MOL0     H14578   7.923   1.768   2.817  1.1522  1.4007  0.6692
  106MOL0     H14579   7.912   1.695   2.979  1.0790  0.5271 -0.0195
  106MOL0     H14580   7.972   1.950   2.940 -0.9922  0.4646 -0.0353
  106MOL0     H14581   7.808   1.965   2.886  0.1206  0.7440  0.0253
  106MOL0     H14582   7.755   1.883   3.134 -0.5217 -0.5299 -0.4152
  106MOL0     H14583   7.928   1.882   3.148  1.0242  1.0114 -0.0367
  106MOL0     H14584   7.931   2.141   3.112  0.4728  0.8905  0.4717
  106MOL0     H14585   7.755   2.122   3.088  0.4823  1.4161 -0.0636
  106MOL0     H14586   7.979   2.314   3.233 -2.8344  1.7743 -3.8242
  106MOL0     H14587   8.070   2.551   3.455  0.1952 -2.0151  0.8105
  106MOL0     H14588   7.982   2.625   3.328  0.8434 -0.2094 -2.2793
  106MOL0     H14589   8.095   2.498   3.287  1.5777  0.0758  1.3883
  106MOL0     H14590   7.702   2.894   3.488 -0.5650  3.3509  0.3079
  106MOL0     H14591   7.673   3.090   3.657  0.2144  0.5196  1.6551
  106MOL0     H14592   7.905   3.049   4.042 -1.6743 -1.3881 -0.4827
  106MOL0     H14593   7.956   3.185   3.939  1.3390 -0.4498  0.3087
  106MOL0     H14594   7.774   3.316   4.048 -0.8172 -1.0780 -1.1248
  106MOL0     H14595   7.736   3.177   4.155 -1.8389  1.3540 -0.3666
  106MOL0     H14596   7.995   3.349   4.133  0.3365  1.2531  0.8714
  106MOL0     H14597   8.010   3.187   4.205 -1.4049 -0.8823 -0.0604
  106MOL0     H14598   7.877   3.252   4.382  1.8634 -0.3823  1.7621
  106MOL0     H14599   7.834   3.403   4.312  0.2613  0.0713  1.3417
  106MOL0     H14600   8.135   3.346   4.358  0.9561  1.4518  0.9166
  106MOL0     H14601   8.046   3.488   4.324  0.0972  0.6538  0.8827
  106MOL0     H14602   8.011   3.309   4.581  0.2508  0.2699  0.6340
  106MOL0     H14603   7.938   3.465   4.553  1.2856  1.5052  0.0289
  106MOL0     H14604   8.172   3.565   4.581 -1.9139  0.1852 -0.9148
  106MOL0     H14605   8.247   3.415   4.578  0.6779  0.7623  1.2885
  106MOL0     H14606   8.050   3.455   4.808  0.4736 -2.8468  2.0519
  106MOL0     H14607   8.187   3.545   4.804 -1.8603  0.4666 -0.8389
  106MOL0     H14608   7.986   2.901   3.899  0.0184 -0.3562 -0.1270
  106MOL0     H14609   7.995   2.712   3.740 -1.4088 -2.6069 -2.4226
  106MOL0     H14610   7.611   2.363   3.547  0.6522  0.9989  0.8286
  106MOL0     H14611   7.651   2.149   3.475  3.4158 -1.9599  1.8603
  106MOL0     H14612   7.344   1.011   3.466 -1.2309  1.8277  1.6712
  106MOL0     H14613   7.518   0.863   3.359 -2.0311 -1.5116  0.8524
  106MOL0     H14614   7.807   0.493   3.713  0.1555  4.0143  0.5399
  106MOL0     H14615   7.931   0.272   3.624  3.3126  2.0653  0.6352
  106MOL0     H14616   7.930   0.198   3.210  0.2442 -0.3844 -0.3726
  106MOL0     H14617   8.036   0.065   3.282 -1.8937 -0.9939  0.8595
  106MOL0     H14618   7.755   0.132   3.382  0.0302 -1.2808 -0.0081
  106MOL0     H14619   7.849  -0.004   3.424  3.1757 -1.8166 -1.3172
  106MOL0     H14620   7.654  -0.002   3.235  0.7819 -2.9818  2.1658
  106MOL0     H14621   7.765   0.084   3.136 -1.0502  0.4425 -0.1493
  106MOL0     H14622   7.732  -0.176   3.101 -0.0298  2.3147  0.0776
  106MOL0     H14623   7.811  -0.192   3.259  1.0852  0.9986 -0.0550
  106MOL0     H14624   8.091  -0.141   2.918 -2.4285 -0.5749 -2.5439
  106MOL0     H14625   7.905   0.411   3.231  0.0513 -0.9180  0.3286
  106MOL0     H14626   7.830   0.718   3.240  0.0806 -0.3364 -1.4375
  106MOL0     H14627   7.756   0.594   3.152  0.0364 -1.0681  0.1761
  106MOL0     H14628   7.659   0.667   3.282  0.7086  0.3768 -0.8890
  107MOL0     O14629   5.286   1.601   8.024  0.0079  0.4955  0.5611
  107MOL0     C14630   5.275   1.517   8.112  0.5403 -0.2891 -0.1417
  107MOL0     O14631   5.288   1.542   8.240 -0.1403 -0.1149  0.4019
  107MOL0     C14632   5.365   1.643   8.289  0.7353  0.4088  0.4359
  107MOL0     C14633   5.330   1.692   8.415 -1.1438 -0.2379  0.1557
  107MOL0     C14634   5.420   1.794   8.479 -0.0752  0.5311  0.2130
  107MOL0     C14635   5.543   1.831   8.411  0.6933 -0.1540  0.7624
  107MOL0     O14636   5.634   1.925   8.462  0.7280 -0.7675 -0.3932
  107MOL0     C14637   5.699   1.902   8.592  0.0664 -0.4967  0.3488
  107MOL0     C14638   5.795   2.024   8.616 -0.4826  0.5387  0.3072
  107MOL0     C14639   5.870   1.997   8.745 -0.3479 -0.3723  1.0449
  107MOL0     C14640   5.970   2.119   8.747 -0.3057  0.5744  0.1089
  107MOL0     C14641   6.069   2.120   8.861 -0.8752  0.6037 -0.5322
  107MOL0     C14642   6.163   2.237   8.849  0.3685 -0.4063  0.9196
  107MOL0     C14643   6.283   2.232   8.933 -0.3081 -0.5587 -0.6210
  107MOL0     C14644   6.264   2.282   9.077  0.5116 -0.9342 -0.4300
  107MOL0     N14645   6.386   2.324   9.148 -0.3499  0.3285 -0.0876
  107MOL0     C14646   6.477   2.427   9.111 -0.0852  0.3679 -1.0265
  107MOL0     C14647   6.545   2.458   9.229  0.9825  0.6832  0.3295
  107MOL0     C14648   6.645   2.564   9.258  0.0433  0.1930  0.0539
  107MOL0     C14649   6.782   2.516   9.195 -0.1486 -0.2481  0.6372
  107MOL0     C14650   6.857   2.643   9.155  0.4445 -0.2519  0.0658
  107MOL0     C14651   6.999   2.625   9.097  0.9796  0.2291 -0.0711
  107MOL0     O14652   6.961   2.554   8.980 -0.2332  0.4238  0.7428
  107MOL0     C14653   7.059   2.459   8.939  0.0854  0.7878 -0.2959
  107MOL0     C14654   7.041   2.403   8.810  0.2716  0.4957 -0.7295
  107MOL0     C14655   7.109   2.290   8.774 -0.3764  0.4362  0.2002
  107MOL0     C14656   7.069   2.233   8.637  0.7640  0.2124 -0.1920
  107MOL0     C14657   7.206   2.220   8.859 -0.2873 -0.5372  0.0352
  107MOL0     C14658   7.278   2.101   8.839 -0.6355  1.2236 -0.0137
  107MOL0     O14659   7.346   2.039   8.951 -0.6406  0.1074 -0.1223
  107MOL0     C14660   7.434   1.939   8.926  0.6795  1.0473  0.7505
  107MOL0     C14661   7.416   1.830   8.835  0.3950 -0.3981  0.8850
  107MOL0     C14662   7.515   1.732   8.819 -0.3369  0.3555 -0.2077
  107MOL0     C14663   7.636   1.740   8.894 -0.1776 -0.1193  0.1858
  107MOL0     O14664   7.744   1.656   8.894 -0.4090  0.7662 -0.0366
  107MOL0     C14665   7.737   1.538   8.815 -0.0868 -0.9925  0.0214
  107MOL0     C14666   7.868   1.465   8.822 -1.0996 -0.4702  0.9460
  107MOL0     C14667   7.880   1.353   8.712 -0.8837 -0.6310  0.0945
  107MOL0     C14668   8.024   1.305   8.716  0.8967  0.2778 -0.3424
  107MOL0     C14669   8.064   1.207   8.607  0.3054  0.5754  0.0077
  107MOL0     C14670   8.208   1.147   8.626  0.2998 -0.0217 -1.3003
  107MOL0     C14671   8.270   1.103   8.481  0.1805 -1.4577  0.0991
  107MOL0     C14672   8.363   1.204   8.423  0.0719  0.4477  0.2407
  107MOL0    Cl14673   8.515   1.199   8.497 -0.1549  0.0433  0.5706
  107MOL0     C14674   7.662   1.842   8.980 -0.1883  0.2592 -0.3646
  107MOL0     C14675   7.555   1.935   8.999  1.5890 -0.0881  1.0590
  107MOL0     O14676   7.298   2.075   8.719  0.9264  0.1926 -0.2585
  107MOL0     C14677   7.232   2.297   8.977 -0.4969  0.2021 -0.8073
  107MOL0     C14678   7.161   2.407   9.023  0.2302  0.8867 -0.4589
  107MOL0     N14679   6.511   2.365   9.325  0.5230  0.5984 -0.0159
  107MOL0     N14680   6.440   2.276   9.267  0.5846 -0.3793  0.3612
  107MOL0     C14681   5.571   1.781   8.284  0.2059  0.5714  0.6444
  107MOL0     C14682   5.487   1.684   8.227 -0.1423  0.4310  0.2410
  107MOL0     C14683   5.213   1.393   8.072  0.3227  0.4404 -0.8002
  107MOL0     C14684   5.297   1.280   8.055 -0.1913 -0.9397  0.8986
  107MOL0     C14685   5.231   1.165   8.025  0.2240  0.4026 -0.0481
  107MOL0     C14686   5.097   1.157   8.002  0.3457 -0.5720  1.0127
  107MOL0     O14687   5.046   1.034   7.965  0.6963 -0.5277 -0.8061
  107MOL0     C14688   4.907   1.024   7.927  1.2318 -0.0338 -0.4350
  107MOL0     C14689   4.808   1.038   8.051  0.5742 -1.2458 -0.2456
  107MOL0     C14690   4.667   1.091   8.016 -0.8164  0.0236  0.1958
  107MOL0     C14691   4.598   0.983   7.936 -0.2676 -0.3209 -0.2177
  107MOL0     C14692   4.461   1.025   7.922  0.7392  0.1208 -0.1274
  107MOL0     C14693   4.341   1.037   7.894 -0.5179 -0.2040  0.9796
  107MOL0     C14694   5.020   1.270   8.011  0.1026  0.3025  0.6382
  107MOL0     C14695   5.083   1.391   8.047  1.3861 -0.8795  0.5425
  107MOL0     C14696   5.000   1.511   8.051  0.1318 -0.1297  0.5924
  107MOL0     H14697   5.242   1.652   8.465 -1.8022 -0.5639 -1.2212
  107MOL0     H14698   5.401   1.833   8.579  2.6615  2.7342 -0.0055
  107MOL0     H14699   5.756   1.810   8.607  1.4528  0.8446  5.5290
  107MOL0     H14700   5.619   1.908   8.666 -0.8225  1.0174 -0.6875
  107MOL0     H14701   5.867   2.029   8.534 -1.2713  2.7518 -0.2989
  107MOL0     H14702   5.742   2.119   8.604 -1.5875 -0.3448 -2.5643
  107MOL0     H14703   5.801   1.986   8.829  0.6060 -0.3735  1.8389
  107MOL0     H14704   5.932   1.908   8.751 -2.7537 -2.0173  4.1873
  107MOL0     H14705   6.032   2.108   8.658 -0.1807 -2.3370  0.4631
  107MOL0     H14706   5.921   2.215   8.769  0.4874  0.4495  2.7891
  107MOL0     H14707   6.122   2.025   8.847 -3.0464 -0.7731  0.0197
  107MOL0     H14708   6.014   2.122   8.955 -2.0665  0.4983 -1.2134
  107MOL0     H14709   6.195   2.254   8.746 -1.0617  0.3329  0.5611
  107MOL0     H14710   6.109   2.328   8.877  2.5453  0.7450  1.6171
  107MOL0     H14711   6.359   2.298   8.889 -1.9060  3.8976  2.5949
  107MOL0     H14712   6.327   2.132   8.938  1.1725  0.1539  1.3896
  107MOL0     H14713   6.188   2.361   9.088 -0.3206 -1.7515 -0.1667
  107MOL0     H14714   6.223   2.199   9.135 -2.0346  1.7670  2.0286
  107MOL0     H14715   6.486   2.496   9.027  2.5446  2.2117  0.5889
  107MOL0     H14716   6.661   2.578   9.365 -0.1749  2.5567 -0.1713
  107MOL0     H14717   6.612   2.657   9.212 -1.0036  0.6822  1.7519
  107MOL0     H14718   6.840   2.453   9.262  1.4999 -1.6541 -1.9356
  107MOL0     H14719   6.761   2.447   9.112 -2.3626  0.2257  0.7396
  107MOL0     H14720   6.799   2.683   9.071  0.7223 -0.2778 -0.1391
  107MOL0     H14721   6.863   2.717   9.235 -1.5347 -0.9548  0.9456
  107MOL0     H14722   7.032   2.725   9.068 -0.6303  0.3669 -1.5516
  107MOL0     H14723   7.064   2.583   9.175  0.8306  0.7847  0.3603
  107MOL0     H14724   6.957   2.452   8.761 -2.3507  0.0342  2.8385
  107MOL0     H14725   7.152   2.236   8.566  0.9470 -0.6654 -0.0310
  107MOL0     H14726   6.979   2.281   8.598  0.9829  0.7272 -0.0831
  107MOL0     H14727   7.048   2.126   8.646  0.6234 -0.0843 -3.1809
  107MOL0     H14728   7.330   1.826   8.768 -0.6143 -1.4717  2.1929
  107MOL0     H14729   7.489   1.647   8.756 -4.5495  1.7077 -0.6371
  107MOL0     H14730   7.661   1.470   8.854 -2.0140  1.9048  1.7514
  107MOL0     H14731   7.710   1.571   8.714 -1.3215  1.4102  1.0442
  107MOL0     H14732   7.950   1.536   8.818 -0.5609 -0.9874  2.2632
  107MOL0     H14733   7.880   1.408   8.915  0.3484  1.0534  1.7306
  107MOL0     H14734   7.868   1.400   8.614 -0.9837  2.1224  1.3221
  107MOL0     H14735   7.798   1.281   8.723 -0.4082 -1.1241  0.4358
  107MOL0     H14736   8.035   1.245   8.807 -2.0828 -1.1078 -0.7807
  107MOL0     H14737   8.091   1.390   8.707  0.3631  0.5691 -1.9015
  107MOL0     H14738   8.000   1.120   8.588 -0.7126  1.4588 -0.7217
  107MOL0     H14739   8.055   1.261   8.513 -0.7687 -0.9963 -0.8428
  107MOL0     H14740   8.209   1.058   8.690 -0.6931 -0.7966 -2.3224
  107MOL0     H14741   8.269   1.223   8.677 -1.3632 -0.7623  2.0949
  107MOL0     H14742   8.191   1.088   8.407 -0.0739 -0.0282  0.0611
  107MOL0     H14743   8.326   1.012   8.505  1.4043 -1.2838 -1.8525
  107MOL0     H14744   8.326   1.306   8.410  0.2277  0.4017 -0.6015
  107MOL0     H14745   8.376   1.163   8.323  0.6777 -1.4474  1.0372
  107MOL0     H14746   7.747   1.844   9.048  1.0010 -5.1152 -1.2787
  107MOL0     H14747   7.572   2.018   9.068  1.3965  0.8653 -0.0065
  107MOL0     H14748   7.306   2.259   9.047 -2.2786 -0.9020  0.5720
  107MOL0     H14749   7.190   2.432   9.125  0.2212 -1.4867  0.1730
  107MOL0     H14750   5.666   1.808   8.239 -0.4212  0.1332 -1.0057
  107MOL0     H14751   5.500   1.641   8.128 -0.0044 -3.4764  1.7824
  107MOL0     H14752   5.404   1.271   8.074  0.1811  1.4815  0.3681
  107MOL0     H14753   5.288   1.073   8.024  2.2328  1.5774  0.4155
  107MOL0     H14754   4.881   1.100   7.852 -2.1441 -1.2108 -0.6128
  107MOL0     H14755   4.871   0.930   7.885  0.5528  0.2042 -0.3940
  107MOL0     H14756   4.851   1.105   8.126  0.7710  2.8655 -3.6170
  107MOL0     H14757   4.786   0.942   8.097  3.1184 -1.8573 -0.1103
  107MOL0     H14758   4.611   1.111   8.108  1.5718  0.4859  1.6632
  107MOL0     H14759   4.675   1.184   7.959 -1.0520  0.9789  1.6633
  107MOL0     H14760   4.616   0.878   7.963  2.4405 -1.5383 -5.4022
  107MOL0     H14761   4.646   0.977   7.838 -0.0102 -2.2989 -0.0240
  107MOL0     H14762   4.236   1.055   7.877 -0.6317 -1.6781 -0.0188
  107MOL0     H14763   4.912   1.274   8.007  0.1124  3.8022 -2.5991
  107MOL0     H14764   4.969   1.517   8.156  1.6442 -4.5468  1.4710
  107MOL0     H14765   5.041   1.608   8.019 -1.8966  0.9935  1.1729
  107MOL0     H14766   4.910   1.507   7.988 -0.9366  0.1239  2.0405
  108MOL0     O14767   9.472   2.135   5.723  0.2631  0.0679  0.2882
  108MOL0     C14768   9.377   2.201   5.746 -1.0964 -0.2079 -0.1953
  108MOL0     O14769   9.255   2.153   5.725  0.6602 -0.4898  0.5174
  108MOL0     C14770   9.242   2.018   5.680 -0.2086 -0.0300  1.1363
  108MOL0     C14771   9.157   1.929   5.745  0.0575 -0.1777  0.2544
  108MOL0     C14772   9.141   1.796   5.700 -0.5913 -1.1579 -0.4533
  108MOL0     C14773   9.202   1.745   5.595  0.0645 -0.3770  1.0442
  108MOL0     O14774   9.187   1.616   5.547 -0.3263  0.4186 -0.4317
  108MOL0     C14775   9.301   1.549   5.483  0.4510  0.0538  0.3884
  108MOL0     C14776   9.272   1.402   5.491  0.8793  1.1315 -0.1927
  108MOL0     C14777   9.397   1.339   5.437 -0.2467  0.8654 -0.1337
  108MOL0     C14778   9.398   1.189   5.468  0.1811  0.6621  1.3244
  108MOL0     C14779   9.541   1.139   5.462 -0.1325 -0.1311  1.0153
  108MOL0     C14780   9.545   0.988   5.475 -0.2805 -0.3621  0.3979
  108MOL0     C14781   9.680   0.946   5.499 -0.5617  0.1078  0.1516
  108MOL0     C14782   9.762   1.013   5.619 -0.4568 -0.7756  0.2628
  108MOL0     N14783   9.884   0.929   5.634 -0.0510  1.3110 -0.0610
  108MOL0     C14784   9.874   0.820   5.714 -0.3714  0.3810  0.0681
  108MOL0     C14785   9.974   0.740   5.669 -1.5312 -0.3154  0.7420
  108MOL0     C14786  10.027   0.610   5.719  0.7891  0.3739 -0.2235
  108MOL0     C14787  10.072   0.508   5.613 -0.4703  0.5282 -0.6078
  108MOL0     C14788  10.112   0.381   5.692  0.6838  0.2862  0.0756
  108MOL0     C14789  10.064   0.259   5.608 -0.5615  0.0736  0.7161
  108MOL0     O14790  10.086   0.275   5.467  1.0048 -0.2550  0.1131
  108MOL0     C14791  10.015   0.206   5.380 -0.2150  0.7227  1.1985
  108MOL0     C14792  10.011   0.260   5.253 -0.4191 -0.5323  0.9793
  108MOL0     C14793   9.956   0.185   5.145 -0.6532  0.0088  0.4862
  108MOL0     C14794   9.944   0.261   5.017 -0.0642 -0.7352  0.5177
  108MOL0     C14795   9.917   0.049   5.158  1.0879 -1.1375 -0.3113
  108MOL0     C14796   9.892  -0.045   5.048  0.2988  1.1205 -0.3941
  108MOL0     O14797   9.798  -0.148   5.061  0.7569 -0.7846  0.0338
  108MOL0     C14798   9.786  -0.247   4.973 -0.3225 -0.2220  0.0217
  108MOL0     C14799   9.664  -0.257   4.902 -0.0636 -0.6700  0.0172
  108MOL0     C14800   9.640  -0.365   4.815 -0.1668  1.4369 -0.2733
  108MOL0     C14801   9.735  -0.471   4.826  0.0375  1.3648  1.3114
  108MOL0     O14802   9.710  -0.588   4.747  0.5151 -1.7061  0.2542
  108MOL0     C14803   9.809  -0.689   4.743 -0.1303  0.5860 -0.3452
  108MOL0     C14804   9.768  -0.803   4.648 -0.2984  0.7702  0.7305
  108MOL0     C14805   9.670  -0.893   4.709 -0.5575  0.0528  0.1256
  108MOL0     C14806   9.523  -0.844   4.731 -0.0605  0.3497  0.3979
  108MOL0     C14807   9.464  -0.781   4.607  0.6255  0.1318  1.8143
  108MOL0     C14808   9.336  -0.706   4.624  0.3555 -0.8285 -0.4776
  108MOL0     C14809   9.304  -0.643   4.491 -0.2973  0.6389  0.6925
  108MOL0     C14810   9.178  -0.548   4.502 -0.1925  0.6007  0.6977
  108MOL0    Cl14811   9.166  -0.447   4.357 -0.1182 -0.4967  0.0501
  108MOL0     C14812   9.854  -0.460   4.904  0.5990  0.2297 -0.3431
  108MOL0     C14813   9.881  -0.345   4.975  0.1003 -0.4039  0.7387
  108MOL0     O14814   9.965  -0.032   4.950  0.3751 -0.8746  0.1670
  108MOL0     C14815   9.903   0.008   5.292 -0.5363 -0.5310 -0.6231
  108MOL0     C14816   9.949   0.086   5.405 -0.8397 -0.5419  0.8371
  108MOL0     N14817  10.033   0.797   5.557  0.0629 -0.4127 -0.5685
  108MOL0     N14818   9.983   0.916   5.537  0.1183 -0.0498  0.2931
  108MOL0     C14819   9.281   1.840   5.520 -1.0482  0.7661  0.0083
  108MOL0     C14820   9.299   1.970   5.560 -0.2889  0.2383 -0.3937
  108MOL0     C14821   9.391   2.330   5.825  0.3844 -0.4260  2.4775
  108MOL0     C14822   9.280   2.412   5.820  0.2973 -0.4208  0.5999
  108MOL0     C14823   9.274   2.532   5.891 -0.1023  0.4171 -1.4499
  108MOL0     C14824   9.400   2.575   5.956  0.6507  0.5197 -0.5222
  108MOL0     O14825   9.402   2.690   6.036  0.2343 -0.4031 -0.6595
  108MOL0     C14826   9.321   2.673   6.154 -1.1633  0.2687  0.7045
  108MOL0     C14827   9.372   2.793   6.251 -0.2218  0.5876  0.4250
  108MOL0     C14828   9.296   2.829   6.384  0.3305 -1.1795  0.5775
  108MOL0     C14829   9.206   2.713   6.420  0.3058  0.3950 -0.0569
  108MOL0     C14830   9.267   2.603   6.487 -0.8163  0.2661  0.6331
  108MOL0     C14831   9.326   2.509   6.533  0.2423 -0.3755 -0.5224
  108MOL0     C14832   9.506   2.489   5.958 -0.1749 -0.2527 -0.9030
  108MOL0     C14833   9.512   2.373   5.886  0.2186  0.4229  1.1137
  108MOL0     C14834   9.633   2.292   5.922 -0.4109  0.1271  0.3529
  108MOL0     H14835   9.107   1.963   5.835  3.8539 -0.6267  2.7771
  108MOL0     H14836   9.085   1.739   5.774 -1.7287  1.0241  0.4466
  108MOL0     H14837   9.397   1.573   5.531  0.8093 -2.1014  0.8943
  108MOL0     H14838   9.310   1.566   5.376  0.4291 -0.2995  0.3304
  108MOL0     H14839   9.250   1.357   5.588  1.7007  3.3318  1.0994
  108MOL0     H14840   9.180   1.388   5.434  1.1357 -1.0199 -0.1547
  108MOL0     H14841   9.410   1.365   5.331 -0.2894 -0.9413 -0.6136
  108MOL0     H14842   9.480   1.385   5.491 -0.0955  1.3673 -0.7873
  108MOL0     H14843   9.342   1.156   5.557 -2.5194 -1.5132 -0.9592
  108MOL0     H14844   9.348   1.140   5.384  0.2589  0.4684  1.3913
  108MOL0     H14845   9.588   1.184   5.549 -1.4332  0.6189  1.3518
  108MOL0     H14846   9.588   1.162   5.365 -1.6384 -0.7426  0.0966
  108MOL0     H14847   9.486   0.957   5.562 -0.8650  2.2959  1.0448
  108MOL0     H14848   9.501   0.938   5.389 -0.2202 -3.0482  1.8280
  108MOL0     H14849   9.742   0.957   5.410  0.7822 -2.1700  0.7221
  108MOL0     H14850   9.674   0.838   5.510  0.0149 -0.0100 -0.6198
  108MOL0     H14851   9.795   1.112   5.588 -0.7307 -0.1933  1.7513
  108MOL0     H14852   9.700   1.020   5.708 -0.6712  1.2982 -0.0034
  108MOL0     H14853   9.798   0.807   5.791 -0.7404  1.0610 -0.1766
  108MOL0     H14854   9.952   0.559   5.780 -0.0051  1.2715 -0.4177
  108MOL0     H14855  10.113   0.646   5.774  0.6389  0.2097  0.1184
  108MOL0     H14856   9.991   0.498   5.540  1.0465  0.2261 -2.3114
  108MOL0     H14857  10.149   0.554   5.550  0.3739 -0.2561 -0.1804
  108MOL0     H14858  10.221   0.371   5.701  0.9419 -1.4031 -3.1665
  108MOL0     H14859  10.070   0.380   5.793  1.3318  4.6813  0.5709
  108MOL0     H14860  10.107   0.163   5.636  2.3366  0.8949 -0.6183
  108MOL0     H14861   9.955   0.254   5.619 -0.8946  0.2474 -1.9338
  108MOL0     H14862  10.055   0.357   5.235  1.3984 -0.6502  4.1289
  108MOL0     H14863   9.840   0.259   4.982  0.7437 -2.1240 -2.0832
  108MOL0     H14864  10.022   0.222   4.952 -1.0081  0.3683 -1.3691
  108MOL0     H14865   9.949   0.369   5.036 -2.4008 -0.2422 -1.1623
  108MOL0     H14866   9.593  -0.176   4.917  0.3527 -0.8599  4.4023
  108MOL0     H14867   9.556  -0.384   4.750 -0.6266 -1.6278  1.0582
  108MOL0     H14868   9.905  -0.647   4.714 -0.3085  1.2668  0.0462
  108MOL0     H14869   9.810  -0.739   4.841 -5.3431  2.8455  1.2151
  108MOL0     H14870   9.740  -0.761   4.551 -1.8196  1.4271  1.4183
  108MOL0     H14871   9.861  -0.859   4.633 -1.6999 -1.4362 -0.1868
  108MOL0     H14872   9.716  -0.923   4.803  0.5362 -0.2370 -0.4741
  108MOL0     H14873   9.675  -0.974   4.636  2.6487 -2.8697  3.2006
  108MOL0     H14874   9.522  -0.779   4.819  2.5272  0.4469  0.4288
  108MOL0     H14875   9.468  -0.935   4.754 -0.4257 -0.0392 -1.7645
  108MOL0     H14876   9.519  -0.704   4.553 -0.4651 -1.7247 -2.3210
  108MOL0     H14877   9.435  -0.858   4.535 -1.0964 -0.4833  3.1000
  108MOL0     H14878   9.346  -0.622   4.693  0.6736 -0.1075 -1.3843
  108MOL0     H14879   9.267  -0.777   4.670  0.9220 -1.0351  0.0648
  108MOL0     H14880   9.284  -0.720   4.416  0.0783 -1.9919  3.0769
  108MOL0     H14881   9.381  -0.574   4.458 -0.7001  2.1405  2.7026
  108MOL0     H14882   9.181  -0.492   4.596  2.9426 -0.4747  1.3533
  108MOL0     H14883   9.089  -0.610   4.519  1.5377 -2.2562  0.1199
  108MOL0     H14884   9.915  -0.550   4.910 -2.0408 -1.6901 -0.5140
  108MOL0     H14885   9.967  -0.356   5.039  1.2335 -3.2963 -1.0892
  108MOL0     H14886   9.859  -0.090   5.307  1.2736 -1.3599 -0.3622
  108MOL0     H14887   9.952   0.039   5.503 -1.2292 -1.3468  0.4802
  108MOL0     H14888   9.322   1.803   5.427 -0.1535 -3.7589  1.9610
  108MOL0     H14889   9.367   2.037   5.510  1.4804 -1.5183 -0.4776
  108MOL0     H14890   9.194   2.380   5.763 -0.9505 -1.8707  3.0974
  108MOL0     H14891   9.183   2.592   5.892 -0.0854  0.6698  2.3586
  108MOL0     H14892   9.215   2.672   6.126 -1.2937  0.7751  1.1580
  108MOL0     H14893   9.346   2.581   6.207  0.0767  0.6841  0.8930
  108MOL0     H14894   9.352   2.890   6.203 -1.7135 -0.1928 -0.6140
  108MOL0     H14895   9.474   2.781   6.289 -0.0853 -2.8450 -0.6583
  108MOL0     H14896   9.372   2.856   6.458  0.3552 -2.7806  1.1719
  108MOL0     H14897   9.227   2.913   6.366  0.0778 -1.1216  1.7486
  108MOL0     H14898   9.141   2.677   6.340  2.7227 -2.1732 -1.0123
  108MOL0     H14899   9.127   2.749   6.487  0.3183 -1.4549  1.0116
  108MOL0     H14900   9.388   2.430   6.572 -2.6749 -1.7764  1.6286
  108MOL0     H14901   9.591   2.526   6.016  0.5803  0.9236 -2.6434
  108MOL0     H14902   9.671   2.256   5.826  0.5227  0.7541  0.4703
  108MOL0     H14903   9.724   2.333   5.967  2.5510 -3.6974 -1.5252
  108MOL0     H14904   9.601   2.212   5.989 -0.8343 -0.1492 -0.1753
  109MOL0     O14905  11.448   7.016   5.168 -0.1633 -0.2542  0.2918
  109MOL0     C14906  11.506   7.112   5.118 -0.4199 -0.6392 -0.7014
  109MOL0     O14907  11.525   7.230   5.172  0.5727  0.7050  0.1337
  109MOL0     C14908  11.490   7.250   5.303  0.2292  0.4233  0.2785
  109MOL0     C14909  11.588   7.275   5.391 -0.5791  0.9870 -0.3990
  109MOL0     C14910  11.545   7.291   5.528 -0.0105  0.0763  0.7038
  109MOL0     C14911  11.410   7.291   5.563  0.4354 -0.3961 -0.9619
  109MOL0     O14912  11.388   7.297   5.701 -0.6362  0.6005  0.5017
  109MOL0     C14913  11.252   7.332   5.737 -0.1970  0.3629 -0.0928
  109MOL0     C14914  11.255   7.353   5.894 -0.1693  0.8038  0.5400
  109MOL0     C14915  11.117   7.378   5.939  0.4911  0.4217  0.2074
  109MOL0     C14916  11.098   7.417   6.095  0.0582 -0.7321 -0.3343
  109MOL0     C14917  10.956   7.402   6.154  0.1635  0.3919  0.9350
  109MOL0     C14918  10.852   7.491   6.078 -0.0210 -1.1798 -0.2475
  109MOL0     C14919  10.749   7.547   6.171 -0.5837 -0.1406 -0.4282
  109MOL0     C14920  10.805   7.650   6.267  0.2537  0.0485  0.0155
  109MOL0     N14921  10.829   7.795   6.218  1.0100  0.7027 -0.6860
  109MOL0     C14922  10.762   7.902   6.265 -0.5354  0.2317  0.5479
  109MOL0     C14923  10.805   7.998   6.190  0.3281  0.4249  0.3349
  109MOL0     C14924  10.775   8.144   6.219  0.5029  0.3195  0.6795
  109MOL0     C14925  10.645   8.206   6.182  0.9504 -0.0717  0.5653
  109MOL0     C14926  10.613   8.201   6.032 -0.8916 -0.0025 -0.4868
  109MOL0     C14927  10.483   8.276   6.009  0.0100  0.3631  0.9283
  109MOL0     O14928  10.373   8.188   6.052  0.1372  0.7318  0.1791
  109MOL0     C14929  10.293   8.215   6.155  0.1374 -0.3733 -0.0549
  109MOL0     C14930  10.303   8.321   6.252 -0.1537  0.5839 -0.6907
  109MOL0     C14931  10.204   8.333   6.355 -0.5960 -0.9722  0.8620
  109MOL0     C14932  10.227   8.442   6.456  0.4436 -0.3449  0.6889
  109MOL0     C14933  10.095   8.242   6.360 -0.9358  0.1867  0.6530
  109MOL0     C14934   9.998   8.225   6.467  0.4210  1.0723 -0.9820
  109MOL0     O14935  10.048   8.246   6.588 -0.3871 -0.1548  0.7499
  109MOL0     C14936   9.967   8.212   6.685  0.4397  0.9384 -0.5709
  109MOL0     C14937   9.973   8.076   6.735  0.4737  0.0537 -0.0526
  109MOL0     C14938   9.892   8.041   6.847 -0.1337  0.4578  0.4593
  109MOL0     C14939   9.803   8.135   6.901 -0.7127  0.2318  0.4576
  109MOL0     O14940   9.719   8.105   7.005  0.8795 -0.0064 -0.3772
  109MOL0     C14941   9.672   7.967   7.019 -0.1423  0.3850  0.7644
  109MOL0     C14942   9.549   7.944   7.101 -0.2514  0.8330 -0.6401
  109MOL0     C14943   9.588   7.951   7.251  0.2012 -0.5504  0.2493
  109MOL0     C14944   9.619   7.812   7.318  1.0057 -1.5835 -0.4955
  109MOL0     C14945   9.647   7.816   7.474  0.1081  0.8312  0.2785
  109MOL0     C14946   9.692   7.672   7.536  0.1723  0.1681 -0.3826
  109MOL0     C14947   9.689   7.673   7.700  0.1596 -0.6482  0.6016
  109MOL0     C14948   9.707   7.527   7.751 -0.3445 -0.0037 -0.4286
  109MOL0    Cl14949   9.567   7.416   7.701 -0.2500  0.1229 -0.1724
  109MOL0     C14950   9.795   8.266   6.851  0.8246  0.2201  0.3014
  109MOL0     C14951   9.881   8.308   6.743  0.4119  1.1526  0.2133
  109MOL0     O14952   9.880   8.208   6.444 -0.7866 -1.2067  1.1636
  109MOL0     C14953  10.087   8.146   6.246  0.2405 -0.3068 -0.8468
  109MOL0     C14954  10.183   8.137   6.155  0.0638 -0.0690 -0.2129
  109MOL0     N14955  10.901   7.953   6.105 -0.7684  1.2593  0.2343
  109MOL0     N14956  10.918   7.821   6.114  0.3072  0.2546  0.8360
  109MOL0     C14957  11.313   7.287   5.469 -0.1044  0.8324  0.8827
  109MOL0     C14958  11.357   7.260   5.338  0.1321 -0.5920 -0.0465
  109MOL0     C14959  11.544   7.100   4.968  0.4188 -0.0999  0.3846
  109MOL0     C14960  11.475   7.008   4.892  0.1668  0.5936 -0.4571
  109MOL0     C14961  11.492   7.003   4.752  1.0814  0.2583  0.3375
  109MOL0     C14962  11.577   7.078   4.682  0.3173  0.5620  0.6594
  109MOL0     O14963  11.597   7.063   4.542 -1.0999 -0.6145  0.2586
  109MOL0     C14964  11.573   6.941   4.474 -0.2514 -0.6544  0.3914
  109MOL0     C14965  11.680   6.828   4.501  0.2942 -0.2863 -0.4750
  109MOL0     C14966  11.626   6.696   4.447  0.3713  0.3646  0.4478
  109MOL0     C14967  11.718   6.582   4.465 -0.0303 -0.4866 -0.2383
  109MOL0     C14968  11.653   6.461   4.438  1.3365  1.7400 -1.0131
  109MOL0     C14969  11.578   6.368   4.422 -0.5424 -0.2291  0.2332
  109MOL0     C14970  11.648   7.178   4.763  0.1488 -0.0136  0.8909
  109MOL0     C14971  11.632   7.187   4.901 -0.8884  0.0345  0.5627
  109MOL0     C14972  11.728   7.277   4.976  0.5997 -0.4838 -0.5037
  109MOL0     H14973  11.693   7.247   5.386 -1.4314 -2.6048 -1.2500
  109MOL0     H14974  11.629   7.316   5.592  1.0962 -0.4338 -0.5244
  109MOL0     H14975  11.192   7.244   5.716 -1.3752  1.1112  0.0509
  109MOL0     H14976  11.207   7.413   5.679 -1.2731 -0.8646 -1.0190
  109MOL0     H14977  11.305   7.266   5.937 -1.1604  0.1844  0.4758
  109MOL0     H14978  11.305   7.446   5.922 -0.4857  1.3448 -0.6388
  109MOL0     H14979  11.068   7.455   5.879 -0.3314 -1.3813 -1.5222
  109MOL0     H14980  11.060   7.285   5.932 -0.9636  1.2481  0.5384
  109MOL0     H14981  11.160   7.360   6.166  0.7903 -0.9211 -1.1059
  109MOL0     H14982  11.137   7.518   6.111  1.9976 -0.6519 -4.3506
  109MOL0     H14983  10.946   7.413   6.263 -2.9665 -1.5347  0.9779
  109MOL0     H14984  10.923   7.299   6.137  1.4729  0.0963  0.0545
  109MOL0     H14985  10.900   7.565   6.014  0.4338 -1.4687 -0.2384
  109MOL0     H14986  10.802   7.414   6.019 -0.6655 -1.6295  0.8454
  109MOL0     H14987  10.694   7.473   6.230 -0.9785  1.5008  1.3499
  109MOL0     H14988  10.674   7.594   6.106  0.7701 -1.2913 -2.9591
  109MOL0     H14989  10.730   7.653   6.346 -1.3929  0.4020 -1.5072
  109MOL0     H14990  10.895   7.610   6.315  1.1585 -2.2678 -3.2840
  109MOL0     H14991  10.699   7.919   6.352 -2.4253  1.4900 -0.9851
  109MOL0     H14992  10.850   8.209   6.174  0.5248  0.2778  0.6554
  109MOL0     H14993  10.763   8.150   6.328 -1.2003 -0.4057  0.5757
  109MOL0     H14994  10.562   8.150   6.226  1.0165 -3.6075 -3.1593
  109MOL0     H14995  10.661   8.306   6.225  2.3680 -0.6986  1.5426
  109MOL0     H14996  10.697   8.243   5.976  0.6147 -1.5998  0.4734
  109MOL0     H14997  10.604   8.098   5.994  1.0778 -0.1676 -0.6289
  109MOL0     H14998  10.487   8.366   6.071 -0.7356  0.8502  0.2781
  109MOL0     H14999  10.472   8.300   5.903 -2.4544 -2.3180  0.4690
  109MOL0     H15000  10.387   8.389   6.254  0.9937 -0.7918  1.0529
  109MOL0     H15001  10.299   8.400   6.528  0.3635  0.0502  1.0024
  109MOL0     H15002  10.136   8.465   6.511  0.0766 -1.7253  0.7119
  109MOL0     H15003  10.276   8.533   6.421  1.6700 -0.3725  2.2091
  109MOL0     H15004  10.048   8.008   6.697 -0.3856 -0.5952 -0.6462
  109MOL0     H15005   9.897   7.941   6.890 -0.9992 -0.3028 -1.1156
  109MOL0     H15006   9.645   7.932   6.919  0.5039 -3.4945  1.8098
  109MOL0     H15007   9.759   7.903   7.035 -0.2706 -1.0523 -3.1648
  109MOL0     H15008   9.466   8.014   7.093 -1.6861 -0.8543 -1.0510
  109MOL0     H15009   9.510   7.843   7.086 -2.9945  1.7452 -0.2388
  109MOL0     H15010   9.514   8.002   7.313 -0.3700 -1.8924  0.7161
  109MOL0     H15011   9.683   8.005   7.253  0.5370 -1.1288  1.8944
  109MOL0     H15012   9.712   7.774   7.275  0.9559 -0.3953 -1.7030
  109MOL0     H15013   9.536   7.745   7.296 -0.1801 -0.4001  0.1917
  109MOL0     H15014   9.732   7.883   7.491  0.5476  0.0618  1.2146
  109MOL0     H15015   9.560   7.859   7.524  0.8529  1.0368  1.4253
  109MOL0     H15016   9.787   7.644   7.490  1.2942  1.3175  1.1219
  109MOL0     H15017   9.620   7.599   7.496  3.1681 -2.4288 -1.4868
  109MOL0     H15018   9.591   7.712   7.730  1.4187  4.2041 -0.8149
  109MOL0     H15019   9.773   7.733   7.734  0.9955 -0.6934 -1.2700
  109MOL0     H15020   9.706   7.516   7.860 -2.9950  0.3498 -0.3355
  109MOL0     H15021   9.796   7.481   7.707 -0.4200  1.8308 -2.6617
  109MOL0     H15022   9.718   8.328   6.895 -0.4080 -0.7517 -0.4413
  109MOL0     H15023   9.881   8.409   6.704  3.0771  1.1654  0.0746
  109MOL0     H15024  10.006   8.074   6.237 -0.1757 -0.7795  4.0524
  109MOL0     H15025  10.179   8.063   6.076  0.2669  0.6255 -0.8954
  109MOL0     H15026  11.208   7.307   5.489 -1.6392  0.4979 -4.9913
  109MOL0     H15027  11.283   7.238   5.262  0.8484 -0.5075 -0.7867
  109MOL0     H15028  11.402   6.946   4.943  0.6092  0.5300  0.1033
  109MOL0     H15029  11.435   6.917   4.719 -0.2301  1.4817 -0.6498
  109MOL0     H15030  11.479   6.899   4.511  0.1677 -1.6522  0.3709
  109MOL0     H15031  11.564   6.958   4.366 -0.4825  0.0242  0.5187
  109MOL0     H15032  11.689   6.802   4.607  0.0796 -4.2875 -1.2928
  109MOL0     H15033  11.777   6.866   4.467 -0.3824  4.0421  1.6420
  109MOL0     H15034  11.530   6.660   4.484 -0.5542  1.1491 -1.0746
  109MOL0     H15035  11.611   6.704   4.339 -2.2980 -2.6021  0.4482
  109MOL0     H15036  11.774   6.580   4.559 -4.0330  3.7686  2.6990
  109MOL0     H15037  11.801   6.610   4.399 -0.1903 -0.0192 -0.2498
  109MOL0     H15038  11.503   6.298   4.394  0.0497 -1.0550  0.6702
  109MOL0     H15039  11.713   7.246   4.710 -0.9278 -0.8706 -1.6976
  109MOL0     H15040  11.741   7.229   5.074 -3.8237  1.3345  1.2018
  109MOL0     H15041  11.825   7.285   4.926  0.5928  0.8539 -0.3223
  109MOL0     H15042  11.677   7.373   4.982  2.4694  0.4484  2.0441
  110MOL0     O15043   2.758   8.427   1.953  0.1685 -0.0094  0.1642
  110MOL0     C15044   2.872   8.432   1.992  0.2373 -0.1687 -0.2232
  110MOL0     O15045   2.939   8.544   2.030  0.0012  0.0897 -0.1004
  110MOL0     C15046   2.871   8.665   2.017 -0.8617  0.9249 -0.0703
  110MOL0     C15047   2.831   8.727   1.899 -0.6714  0.6381 -0.1417
  110MOL0     C15048   2.762   8.851   1.889  0.8257  0.2769 -0.0921
  110MOL0     C15049   2.716   8.906   2.003  0.8121 -1.0091  0.3607
  110MOL0     O15050   2.654   9.026   1.984 -0.2373 -0.1435 -0.1503
  110MOL0     C15051   2.690   9.134   2.079  0.4222  0.2847 -0.3891
  110MOL0     C15052   2.845   9.152   2.090  0.2293  0.5730  0.3974
  110MOL0     C15053   2.906   9.212   1.952 -0.3314 -0.4003  0.2106
  110MOL0     C15054   2.895   9.368   1.954 -0.4028 -1.0220  0.5788
  110MOL0     C15055   2.990   9.435   2.052 -0.1075 -0.5945 -1.2759
  110MOL0     C15056   2.993   9.588   2.016  0.1738  1.5663 -0.3609
  110MOL0     C15057   3.040   9.670   2.132  0.5663 -0.3606  0.4172
  110MOL0     C15058   3.041   9.822   2.092  0.1771 -0.2157 -0.0283
  110MOL0     N15059   2.947   9.871   1.986  0.0461 -0.4411  0.0166
  110MOL0     C15060   2.989   9.853   1.852 -0.0500 -0.2548 -0.2190
  110MOL0     C15061   2.871   9.868   1.786  0.1480  0.1212  0.3615
  110MOL0     C15062   2.855   9.854   1.638  0.2356 -0.6031  0.2240
  110MOL0     C15063   2.823   9.712   1.600 -0.2397 -0.2893 -0.1696
  110MOL0     C15064   2.830   9.691   1.441  0.5696  0.8370  1.1916
  110MOL0     C15065   2.797   9.547   1.407 -0.1292 -0.3341 -0.0495
  110MOL0     O15066   2.909   9.463   1.460 -0.2712 -0.1861  0.0413
  110MOL0     C15067   2.906   9.326   1.461 -0.2944 -0.1762 -0.0173
  110MOL0     C15068   3.002   9.265   1.531  0.6140  1.1544 -0.4767
  110MOL0     C15069   3.014   9.123   1.534 -0.0433 -0.5632  0.2752
  110MOL0     C15070   3.133   9.070   1.596 -0.0965 -0.5827  0.4853
  110MOL0     C15071   2.916   9.043   1.479 -0.0397  0.1753 -0.8639
  110MOL0     C15072   2.913   8.892   1.496 -0.1093  0.3118 -0.6502
  110MOL0     O15073   2.850   8.812   1.400  0.5457 -0.1180  0.0425
  110MOL0     C15074   2.878   8.671   1.414  0.2151  0.3973 -0.5750
  110MOL0     C15075   2.849   8.605   1.533  0.0378  0.2517 -0.6589
  110MOL0     C15076   2.881   8.469   1.552 -0.0733 -0.0342 -0.3473
  110MOL0     C15077   2.946   8.399   1.454  0.1166 -0.3275  0.5007
  110MOL0     O15078   2.975   8.257   1.445 -0.0738 -0.1636 -0.2634
  110MOL0     C15079   3.123   8.229   1.452 -0.6340  0.3949  0.2469
  110MOL0     C15080   3.153   8.085   1.495  0.5924 -0.0682  0.9162
  110MOL0     C15081   3.289   8.049   1.543  0.1752 -0.4720 -0.0965
  110MOL0     C15082   3.287   7.906   1.607 -0.1410 -0.1238 -0.2890
  110MOL0     C15083   3.291   7.799   1.504 -0.5960 -0.5695 -0.1390
  110MOL0     C15084   3.302   7.659   1.562  0.3031 -1.1451  0.0548
  110MOL0     C15085   3.443   7.630   1.613 -0.7197  0.6836 -0.3066
  110MOL0     C15086   3.454   7.493   1.698  1.4267  0.3870 -0.0447
  110MOL0    Cl15087   3.310   7.498   1.811 -0.0379  0.1834  0.0735
  110MOL0     C15088   2.978   8.470   1.329  0.2492 -0.4900 -0.1732
  110MOL0     C15089   2.936   8.599   1.313 -0.2488  0.1528  0.3851
  110MOL0     O15090   2.935   8.863   1.617 -0.0728  0.8542 -0.3396
  110MOL0     C15091   2.817   9.104   1.390  0.8479 -0.6649  0.0347
  110MOL0     C15092   2.811   9.245   1.388 -0.5763  0.1963 -0.3993
  110MOL0     N15093   2.765   9.879   1.883  0.0158 -0.3884  0.4371
  110MOL0     N15094   2.809   9.891   2.003 -0.0006  0.4877 -0.4916
  110MOL0     C15095   2.742   8.843   2.128  0.0484  0.0326  0.2423
  110MOL0     C15096   2.819   8.722   2.127 -0.3684  0.3695 -0.3312
  110MOL0     C15097   2.939   8.307   2.004  0.0575  0.6161 -0.0979
  110MOL0     C15098   2.988   8.246   1.884  0.1480  0.0951 -0.4500
  110MOL0     C15099   3.053   8.126   1.891 -0.1557  0.2116  0.0007
  110MOL0     C15100   3.074   8.062   2.012  0.3690 -0.6174 -0.3769
  110MOL0     O15101   3.145   7.947   1.998  0.1172 -0.0598 -0.3424
  110MOL0     C15102   3.204   7.894   2.120  0.0824 -0.1861  0.5884
  110MOL0     C15103   3.313   7.799   2.069 -0.0688 -0.0028  0.0098
  110MOL0     C15104   3.396   7.708   2.178  0.6895 -0.1595  0.2809
  110MOL0     C15105   3.427   7.784   2.308 -0.2956 -0.5419  0.2080
  110MOL0     C15106   3.558   7.734   2.341  0.4263  0.9561 -1.8711
  110MOL0     C15107   3.665   7.699   2.387  0.0157 -0.6756 -0.9340
  110MOL0     C15108   3.031   8.121   2.127 -1.5218 -0.1719 -0.3710
  110MOL0     C15109   2.966   8.246   2.123  0.3805 -1.4527 -0.5032
  110MOL0     C15110   2.933   8.308   2.251  1.0822 -0.4506 -1.0819
  110MOL0     H15111   2.875   8.693   1.806 -0.7171  1.4480 -0.4667
  110MOL0     H15112   2.741   8.898   1.793  1.1783 -0.4790 -0.5509
  110MOL0     H15113   2.642   9.117   2.176 -3.7851  3.3367 -1.6527
  110MOL0     H15114   2.652   9.229   2.042 -1.6006  0.2347  1.3720
  110MOL0     H15115   2.843   9.225   2.171 -0.8690 -2.1953  3.0581
  110MOL0     H15116   2.903   9.065   2.121  0.9863  1.1051  0.5065
  110MOL0     H15117   3.010   9.178   1.954 -0.4830 -0.8744  0.0314
  110MOL0     H15118   2.866   9.170   1.860 -0.6676  1.6523 -0.6230
  110MOL0     H15119   2.919   9.406   1.854  0.3167  1.5146  1.6538
  110MOL0     H15120   2.791   9.395   1.972 -0.3333 -1.2628  1.3775
  110MOL0     H15121   3.087   9.388   2.037  1.1598  1.3185  0.3699
  110MOL0     H15122   2.971   9.406   2.156 -0.6783 -2.8762 -1.9715
  110MOL0     H15123   3.066   9.597   1.935  4.3326 -1.4976  2.6292
  110MOL0     H15124   2.901   9.635   1.978 -0.0421  2.6010  1.2921
  110MOL0     H15125   3.140   9.636   2.159  0.8971  1.1824  1.2543
  110MOL0     H15126   2.978   9.661   2.222  0.7069 -2.1328  0.3580
  110MOL0     H15127   3.039   9.890   2.178 -0.2051  1.1441 -1.0730
  110MOL0     H15128   3.142   9.847   2.061  1.0172  0.6398  3.0770
  110MOL0     H15129   3.089   9.849   1.811 -0.4925  0.4192 -1.3917
  110MOL0     H15130   2.955   9.872   1.598  1.1931  0.6514  2.9179
  110MOL0     H15131   2.781   9.920   1.592  0.2466  0.5444  1.7629
  110MOL0     H15132   2.889   9.650   1.661 -0.6007  1.4898  2.1628
  110MOL0     H15133   2.723   9.688   1.638  1.4646 -1.5922  4.0533
  110MOL0     H15134   2.761   9.761   1.394  2.7101  3.8619  2.2817
  110MOL0     H15135   2.934   9.701   1.409  0.9224  1.4836  2.4839
  110MOL0     H15136   2.699   9.534   1.454 -0.8746  3.7010 -0.1245
  110MOL0     H15137   2.763   9.517   1.308 -0.3572 -0.4926  0.0737
  110MOL0     H15138   3.075   9.318   1.592 -0.4697  0.4339  1.5586
  110MOL0     H15139   3.215   9.142   1.596  0.8828 -1.4058 -4.2219
  110MOL0     H15140   3.167   8.996   1.523 -0.1851 -1.4208  1.2635
  110MOL0     H15141   3.122   9.033   1.699  1.1379  2.8904  2.0165
  110MOL0     H15142   2.804   8.669   1.608  2.3465  0.8222  0.3452
  110MOL0     H15143   2.854   8.440   1.653  1.4504  2.4780  0.8749
  110MOL0     H15144   3.165   8.256   1.354  2.6068  0.7734  1.5860
  110MOL0     H15145   3.177   8.294   1.522 -1.1350  1.8453 -0.6747
  110MOL0     H15146   3.076   8.055   1.567  0.1188  2.5402  1.6111
  110MOL0     H15147   3.124   8.027   1.407  1.6885  0.8566 -0.0780
  110MOL0     H15148   3.320   8.115   1.624 -0.2238 -1.1746  0.6457
  110MOL0     H15149   3.364   8.060   1.464  0.8727  1.0986  0.7561
  110MOL0     H15150   3.202   7.873   1.668 -0.7659 -1.6308 -1.9017
  110MOL0     H15151   3.383   7.903   1.660  0.6456 -2.4172 -1.7126
  110MOL0     H15152   3.211   7.801   1.429  1.6616  1.1729 -2.7039
  110MOL0     H15153   3.383   7.807   1.444 -1.1141 -1.3313 -1.0662
  110MOL0     H15154   3.269   7.600   1.476  2.2863  0.1678 -1.6964
  110MOL0     H15155   3.231   7.645   1.644 -2.1287 -0.1416 -1.7689
  110MOL0     H15156   3.484   7.706   1.680  2.4528 -1.8648  0.9272
  110MOL0     H15157   3.521   7.630   1.537  0.7218 -0.6579  1.1038
  110MOL0     H15158   3.548   7.493   1.754  0.9359  3.0365  0.9529
  110MOL0     H15159   3.444   7.403   1.638 -1.7623 -0.8283  2.0533
  110MOL0     H15160   3.036   8.423   1.249  1.0430 -1.4439  0.9372
  110MOL0     H15161   2.956   8.655   1.222  2.5029  1.9667  1.9378
  110MOL0     H15162   2.744   9.048   1.333 -3.1637  2.8903  1.2212
  110MOL0     H15163   2.727   9.292   1.339 -0.3809  2.0300  0.9124
  110MOL0     H15164   2.683   8.889   2.207 -1.5200  2.6402 -2.2389
  110MOL0     H15165   2.837   8.666   2.218 -1.7314 -1.1098 -0.9284
  110MOL0     H15166   2.978   8.295   1.787  2.3860 -0.5801 -1.0960
  110MOL0     H15167   3.088   8.076   1.801 -2.7066 -2.2544  0.2219
  110MOL0     H15168   3.253   7.970   2.182 -0.6273  0.5463  0.2693
  110MOL0     H15169   3.125   7.849   2.181  1.4445 -1.1996  1.6789
  110MOL0     H15170   3.384   7.857   2.008  0.4890 -1.1179 -0.4274
  110MOL0     H15171   3.276   7.728   1.994  4.3288  1.5709 -4.2184
  110MOL0     H15172   3.332   7.623   2.205 -1.5816 -0.2981 -4.4573
  110MOL0     H15173   3.481   7.669   2.121  2.3862 -0.8339  3.0954
  110MOL0     H15174   3.353   7.779   2.388 -0.8468  2.5943  0.0125
  110MOL0     H15175   3.417   7.889   2.278 -0.4753 -0.2989  1.1015
  110MOL0     H15176   3.750   7.674   2.447 -0.7518 -0.0844  0.4367
  110MOL0     H15177   3.062   8.076   2.221  0.5062 -1.1764 -1.4553
  110MOL0     H15178   2.824   8.308   2.252  0.9627 -2.4235  2.3497
  110MOL0     H15179   2.952   8.249   2.341  1.8464 -2.4372 -2.4790
  110MOL0     H15180   2.979   8.405   2.273 -2.8630  1.0717  1.7308
  111MOL0     O15181   9.027   6.474   8.771 -0.4375  0.1300  0.2040
  111MOL0     C15182   8.999   6.516   8.881 -0.0722 -0.3132 -0.6314
  111MOL0     O15183   9.011   6.435   8.989  0.5870 -0.7497 -0.2483
  111MOL0     C15184   9.017   6.303   8.979 -0.2573  0.8527 -0.2800
  111MOL0     C15185   9.134   6.242   9.027 -0.7283  0.7190 -0.1620
  111MOL0     C15186   9.164   6.109   8.993  0.8707  0.1091 -0.0289
  111MOL0     C15187   9.070   6.028   8.921  0.3607 -0.0330 -0.2711
  111MOL0     O15188   9.119   5.901   8.894 -0.2420  0.6798  0.7489
  111MOL0     C15189   9.033   5.799   8.829 -0.1535  0.4754  0.1533
  111MOL0     C15190   8.941   5.737   8.939 -0.1515  0.5435 -0.2310
  111MOL0     C15191   8.808   5.702   8.864  0.4627  0.1185 -0.0904
  111MOL0     C15192   8.830   5.573   8.799 -0.0457  0.6725  0.3029
  111MOL0     C15193   8.708   5.521   8.722 -0.1880  0.6282 -0.2940
  111MOL0     C15194   8.738   5.468   8.577  0.5694 -0.0702 -0.8473
  111MOL0     C15195   8.842   5.353   8.571  0.2781 -0.1429  0.0131
  111MOL0     C15196   8.799   5.226   8.637 -0.7514 -1.3605  0.0594
  111MOL0     N15197   8.896   5.120   8.638 -0.2556  0.3933  0.4350
  111MOL0     C15198   8.997   5.080   8.728 -0.0726 -0.3612  0.4251
  111MOL0     C15199   9.068   4.982   8.656 -0.4947 -0.2715  0.1073
  111MOL0     C15200   9.197   4.917   8.706  1.0392 -0.6222  0.4135
  111MOL0     C15201   9.177   4.811   8.819 -0.8200 -0.8457  0.1064
  111MOL0     C15202   9.072   4.701   8.801  0.1944 -0.7394 -1.0175
  111MOL0     C15203   8.929   4.746   8.838  0.0490 -0.0783 -0.7692
  111MOL0     O15204   8.848   4.627   8.850 -0.1370 -1.2248  0.0171
  111MOL0     C15205   8.808   4.557   8.739 -0.3629  0.4612 -0.5930
  111MOL0     C15206   8.738   4.443   8.752 -0.5374  0.6695 -0.9761
  111MOL0     C15207   8.686   4.371   8.644  0.0419 -1.2832 -0.4547
  111MOL0     C15208   8.585   4.258   8.675  0.2572 -0.3265 -0.1436
  111MOL0     C15209   8.713   4.409   8.515 -0.0607  1.2207  0.6683
  111MOL0     C15210   8.668   4.329   8.396  1.0284 -0.9096 -0.1693
  111MOL0     O15211   8.748   4.347   8.280 -0.2377  0.4615  0.0717
  111MOL0     C15212   8.740   4.275   8.169 -0.7555  0.7878 -0.9582
  111MOL0     C15213   8.851   4.189   8.146  0.5558 -0.2133  0.1487
  111MOL0     C15214   8.845   4.102   8.040 -1.1689  0.1627  0.8084
  111MOL0     C15215   8.727   4.092   7.956 -0.0044  0.3660 -0.8257
  111MOL0     O15216   8.714   4.000   7.849 -0.6887 -0.8816  0.1809
  111MOL0     C15217   8.810   3.898   7.841  0.2416 -0.9659  0.2935
  111MOL0     C15218   8.754   3.770   7.784 -0.5898  0.2607 -0.4869
  111MOL0     C15219   8.857   3.653   7.772  0.5453  0.5215 -0.3475
  111MOL0     C15220   8.810   3.534   7.688 -0.0343 -0.4200  0.4648
  111MOL0     C15221   8.720   3.443   7.778 -0.2895  1.2703 -0.3669
  111MOL0     C15222   8.648   3.333   7.686  0.2088 -0.3030 -0.9597
  111MOL0     C15223   8.547   3.399   7.592 -0.2888 -0.2812  0.4107
  111MOL0     C15224   8.465   3.292   7.524 -0.4679 -0.4633  0.1036
  111MOL0    Cl15225   8.349   3.225   7.635 -0.2740 -0.3417  0.1050
  111MOL0     C15226   8.621   4.179   7.984  0.2304  0.3153  0.0194
  111MOL0     C15227   8.626   4.268   8.090  0.3809  0.0810  0.4230
  111MOL0     O15228   8.571   4.251   8.387  0.0461  0.1206 -0.1804
  111MOL0     C15229   8.785   4.522   8.496 -0.4238 -0.6928  0.0089
  111MOL0     C15230   8.828   4.596   8.610 -0.1835  0.5909 -0.5765
  111MOL0     N15231   9.011   4.959   8.539 -0.3607  0.0053 -0.2735
  111MOL0     N15232   8.912   5.043   8.529 -0.1074  0.2322  0.5455
  111MOL0     C15233   8.948   6.087   8.877 -0.0860 -0.2297 -0.4344
  111MOL0     C15234   8.922   6.219   8.905 -0.2203  0.4636 -1.2255
  111MOL0     C15235   8.968   6.667   8.898  0.9978  0.0905 -0.5272
  111MOL0     C15236   8.980   6.725   9.021  0.1194 -0.7485  0.2866
  111MOL0     C15237   8.940   6.851   9.048  0.1302 -0.2360  0.7733
  111MOL0     C15238   8.881   6.938   8.955  0.2555  0.1534 -0.1613
  111MOL0     O15239   8.844   7.074   8.983  0.5323  0.9571 -0.0221
  111MOL0     C15240   8.759   7.166   8.906 -0.5667 -0.1761 -0.7351
  111MOL0     C15241   8.629   7.094   8.897  0.7993  0.3477 -0.2374
  111MOL0     C15242   8.554   7.147   8.771 -0.7621  0.5348 -0.3256
  111MOL0     C15243   8.603   7.097   8.635  0.6687  0.5744  0.7870
  111MOL0     C15244   8.593   6.945   8.629 -0.2357 -0.6168 -0.7033
  111MOL0     C15245   8.600   6.831   8.626 -1.3649  0.2356 -0.6695
  111MOL0     C15246   8.871   6.880   8.820 -0.4661  0.6521 -0.5084
  111MOL0     C15247   8.917   6.750   8.799 -0.3378  0.0501 -0.1328
  111MOL0     C15248   8.917   6.729   8.649 -0.3805  0.3985 -0.5634
  111MOL0     H15249   9.209   6.304   9.074 -1.2409  1.4962 -0.3462
  111MOL0     H15250   9.263   6.065   8.998  1.2129  0.8100 -0.5001
  111MOL0     H15251   9.086   5.709   8.797 -0.9610 -0.9213  2.5294
  111MOL0     H15252   8.983   5.842   8.741  0.2574  0.2644 -0.1886
  111MOL0     H15253   8.975   5.645   8.987 -1.5191  1.3459  2.4768
  111MOL0     H15254   8.911   5.798   9.025  0.7804 -3.4037  3.2276
  111MOL0     H15255   8.717   5.688   8.923 -1.2750  4.3685 -1.3792
  111MOL0     H15256   8.787   5.781   8.791  1.8890  1.4284  0.8348
  111MOL0     H15257   8.915   5.582   8.731  1.1340 -2.4691  1.2074
  111MOL0     H15258   8.844   5.499   8.878  0.0726  1.1545  0.7363
  111MOL0     H15259   8.627   5.594   8.716 -2.4646 -1.7698 -0.2512
  111MOL0     H15260   8.669   5.435   8.777  1.9540  0.5948  1.2885
  111MOL0     H15261   8.647   5.437   8.525  0.2067  0.5722 -0.6050
  111MOL0     H15262   8.789   5.543   8.516  2.1306 -2.1156 -2.2073
  111MOL0     H15263   8.937   5.388   8.611 -0.7662  2.0658  0.7390
  111MOL0     H15264   8.849   5.323   8.466  2.6322 -2.6901  0.8026
  111MOL0     H15265   8.791   5.255   8.743  4.2336 -0.5776  0.4479
  111MOL0     H15266   8.709   5.183   8.592  0.0842  0.6563 -3.9703
  111MOL0     H15267   9.030   5.117   8.825  0.8404 -3.4756  1.4180
  111MOL0     H15268   9.273   4.992   8.731  1.0631  0.0287 -1.4096
  111MOL0     H15269   9.240   4.866   8.619 -0.3793 -0.6691 -0.2936
  111MOL0     H15270   9.266   4.748   8.810 -0.0635  0.3594 -1.1813
  111MOL0     H15271   9.173   4.857   8.918 -1.6871 -1.4270  0.3548
  111MOL0     H15272   9.060   4.675   8.696 -1.2529 -2.4821 -0.4609
  111MOL0     H15273   9.106   4.609   8.849 -0.7605  0.2239  1.6601
  111MOL0     H15274   8.935   4.775   8.944 -1.0396 -1.9686 -0.1393
  111MOL0     H15275   8.877   4.820   8.778 -1.2456 -1.8033 -1.8565
  111MOL0     H15276   8.713   4.412   8.853  0.2574  2.0425 -0.3357
  111MOL0     H15277   8.631   4.170   8.628 -0.6921 -0.9685  0.0909
  111MOL0     H15278   8.489   4.273   8.625  0.4939 -2.4777 -1.3860
  111MOL0     H15279   8.561   4.232   8.778  2.7933  1.3376  0.9740
  111MOL0     H15280   8.940   4.208   8.204 -1.3179  1.1621  2.7466
  111MOL0     H15281   8.940   4.054   8.022  1.0072  3.8959  1.3688
  111MOL0     H15282   8.892   3.945   7.786  0.9232  0.5513  2.4992
  111MOL0     H15283   8.839   3.865   7.941 -1.3970 -2.7114  0.2548
  111MOL0     H15284   8.666   3.743   7.843 -1.3370  0.2843 -1.5709
  111MOL0     H15285   8.727   3.796   7.681  3.6412 -0.3118 -1.9266
  111MOL0     H15286   8.876   3.620   7.874 -4.4913  0.4429  0.8124
  111MOL0     H15287   8.954   3.686   7.732  1.3429  0.4924  1.4955
  111MOL0     H15288   8.891   3.475   7.643 -2.3863 -2.2797 -1.6547
  111MOL0     H15289   8.763   3.572   7.597 -2.1749 -3.1540  0.2903
  111MOL0     H15290   8.783   3.390   7.850 -0.1758 -0.2401 -1.5243
  111MOL0     H15291   8.650   3.512   7.827  0.2483  1.2587  0.4344
  111MOL0     H15292   8.604   3.262   7.756  2.6714 -2.2050 -1.2023
  111MOL0     H15293   8.720   3.263   7.642  1.6694 -1.0921  2.3654
  111MOL0     H15294   8.603   3.454   7.516  0.8419  0.7785  1.9464
  111MOL0     H15295   8.477   3.462   7.648 -0.2623  0.1264 -0.0097
  111MOL0     H15296   8.514   3.203   7.483  0.0181  0.4335 -1.3556
  111MOL0     H15297   8.429   3.354   7.441  0.5586  1.3832  0.9815
  111MOL0     H15298   8.542   4.180   7.910 -0.0087  0.1688  0.2731
  111MOL0     H15299   8.549   4.341   8.112  0.3805 -0.2127  1.4208
  111MOL0     H15300   8.823   4.532   8.395  1.5168 -3.3220  0.3559
  111MOL0     H15301   8.876   4.689   8.582 -0.0714  1.6550  2.7271
  111MOL0     H15302   8.872   6.033   8.821 -0.2868  0.5487 -0.9314
  111MOL0     H15303   8.827   6.264   8.878  0.2165  3.5155  1.5827
  111MOL0     H15304   9.015   6.666   9.105 -2.4457 -2.2346  0.4044
  111MOL0     H15305   8.970   6.898   9.141  1.3136 -1.0097  0.8126
  111MOL0     H15306   8.754   7.261   8.960  1.1085 -0.6478  0.3448
  111MOL0     H15307   8.806   7.198   8.813 -1.9120 -2.3687 -2.2719
  111MOL0     H15308   8.562   7.131   8.976 -1.1039  2.2700 -2.5822
  111MOL0     H15309   8.630   6.985   8.900  2.1718  0.3691  1.2470
  111MOL0     H15310   8.453   7.113   8.793 -0.2338 -0.6625  0.3919
  111MOL0     H15311   8.558   7.256   8.777  2.6667  0.5021  3.8231
  111MOL0     H15312   8.702   7.141   8.618  0.5233  1.6337  2.3933
  111MOL0     H15313   8.538   7.127   8.553  3.1192  0.6704 -1.2530
  111MOL0     H15314   8.613   6.731   8.591 -0.0694  0.7845 -1.8515
  111MOL0     H15315   8.827   6.942   8.743  0.9209  1.6677 -0.5242
  111MOL0     H15316   9.017   6.715   8.606 -1.8505 -1.0281 -3.8279
  111MOL0     H15317   8.868   6.634   8.627 -0.2177  0.4750 -1.2835
  111MOL0     H15318   8.863   6.806   8.594 -0.7234  0.9803  0.5541
  112MOL0     O15319   1.198   1.823   7.759  0.2047  0.3336  0.2504
  112MOL0     C15320   1.143   1.909   7.818 -0.2826 -1.0193 -0.3506
  112MOL0     O15321   1.062   1.895   7.924  0.5082  0.5272 -0.5196
  112MOL0     C15322   1.064   1.772   7.985  1.4672 -0.2132  0.0221
  112MOL0     C15323   1.012   1.659   7.924  0.2943  0.1593  0.0414
  112MOL0     C15324   1.026   1.531   7.966 -0.7540  0.3722  0.4032
  112MOL0     C15325   1.110   1.505   8.081  0.5131 -0.5765  0.2261
  112MOL0     O15326   1.145   1.392   8.135  0.3599 -0.5600  0.3076
  112MOL0     C15327   1.164   1.281   8.050 -0.4414  0.2540  0.6054
  112MOL0     C15328   1.314   1.262   8.045  0.4318  0.4089 -0.8447
  112MOL0     C15329   1.392   1.219   8.170 -0.4959  0.9013 -0.4463
  112MOL0     C15330   1.358   1.092   8.240  0.6358  0.6370  0.8216
  112MOL0     C15331   1.352   0.968   8.147  0.4683  0.1920 -0.3905
  112MOL0     C15332   1.356   0.837   8.231 -0.5838 -0.4805  0.3770
  112MOL0     C15333   1.363   0.711   8.137  0.3259  0.0219 -1.3596
  112MOL0     C15334   1.343   0.594   8.225 -0.1359  0.3918  0.1412
  112MOL0     N15335   1.359   0.462   8.168 -0.5645  0.0160  0.5141
  112MOL0     C15336   1.444   0.363   8.209  0.0694  0.6527 -0.4011
  112MOL0     C15337   1.445   0.269   8.115  0.1728  0.5593  0.1683
  112MOL0     C15338   1.518   0.129   8.112  0.1945 -0.3073 -0.5798
  112MOL0     C15339   1.610   0.086   8.240  0.1851 -0.8840 -0.5427
  112MOL0     C15340   1.705  -0.021   8.193  0.4822 -0.3029 -0.3291
  112MOL0     C15341   1.636  -0.155   8.134 -0.2768 -0.4349 -0.7470
  112MOL0     O15342   1.712  -0.279   8.166 -0.5221  0.6659  0.1723
  112MOL0     C15343   1.736  -0.374   8.066 -0.3347  0.0951 -0.4406
  112MOL0     C15344   1.848  -0.444   8.068 -1.0476  0.2856  1.0707
  112MOL0     C15345   1.870  -0.537   7.963  0.1210 -1.1534  0.4783
  112MOL0     C15346   1.999  -0.602   7.967 -0.9187  0.2831  0.9737
  112MOL0     C15347   1.771  -0.571   7.861 -0.2380 -0.4307  0.4229
  112MOL0     C15348   1.808  -0.652   7.742  0.2589 -0.4987 -0.1566
  112MOL0     O15349   1.873  -0.770   7.751  0.1907  0.1672  0.1611
  112MOL0     C15350   1.902  -0.847   7.647 -0.8070 -1.0436  0.3172
  112MOL0     C15351   1.805  -0.876   7.543  0.8698 -0.0113  1.2129
  112MOL0     C15352   1.833  -0.953   7.428 -0.5215  1.1540  0.3457
  112MOL0     C15353   1.964  -1.013   7.418  0.3043 -0.5197 -1.1688
  112MOL0     O15354   1.981  -1.089   7.310 -0.4710 -0.7812 -0.3766
  112MOL0     C15355   2.106  -1.063   7.257  0.3645 -0.7460 -0.2458
  112MOL0     C15356   2.108  -1.132   7.118 -0.0476 -1.4355  0.0899
  112MOL0     C15357   2.248  -1.120   7.055  0.9606  0.4019  0.3214
  112MOL0     C15358   2.310  -0.982   7.042  1.0259 -0.2969  0.2330
  112MOL0     C15359   2.446  -0.990   6.964 -0.5106 -0.1008  0.9390
  112MOL0     C15360   2.548  -1.042   7.064  0.2449  0.5681 -0.1937
  112MOL0     C15361   2.692  -1.021   7.029  0.0468  0.3816 -0.5989
  112MOL0     C15362   2.791  -1.068   7.138  0.2084  0.0802 -0.1524
  112MOL0    Cl15363   2.791  -1.248   7.164 -0.0313 -0.2914  0.1671
  112MOL0     C15364   2.053  -0.984   7.527  0.1551  0.2107  1.3507
  112MOL0     C15365   2.023  -0.904   7.638  0.6442  0.0987  0.9759
  112MOL0     O15366   1.766  -0.600   7.640  0.3637  0.4157 -0.0406
  112MOL0     C15367   1.653  -0.501   7.869 -0.2223  0.0476  0.1064
  112MOL0     C15368   1.633  -0.410   7.971 -0.1553  0.0196 -0.7803
  112MOL0     N15369   1.349   0.302   8.025 -0.0237 -0.2683  0.8507
  112MOL0     N15370   1.301   0.413   8.053  0.3342  0.2764 -0.3334
  112MOL0     C15371   1.149   1.613   8.156 -0.0817 -0.5751 -0.2381
  112MOL0     C15372   1.125   1.748   8.108 -0.8352  0.6156 -0.0701
  112MOL0     C15373   1.157   2.047   7.766 -0.9542  0.1790 -0.9597
  112MOL0     C15374   1.252   2.133   7.830 -0.0978 -0.4762  0.0311
  112MOL0     C15375   1.271   2.260   7.779  0.3845 -0.2184 -0.8216
  112MOL0     C15376   1.211   2.299   7.664 -0.2062  0.7019 -0.5489
  112MOL0     O15377   1.209   2.421   7.606  0.1503 -0.5636  0.3165
  112MOL0     C15378   1.311   2.521   7.634  0.2953 -0.3101 -0.5511
  112MOL0     C15379   1.307   2.632   7.522  0.0142  0.0204 -0.0232
  112MOL0     C15380   1.393   2.753   7.557  0.1725 -0.0582 -0.6806
  112MOL0     C15381   1.372   2.871   7.459  0.3187  0.4391 -0.8937
  112MOL0     C15382   1.441   2.833   7.332 -0.4824 -0.5949 -0.6147
  112MOL0     C15383   1.496   2.825   7.227 -0.0665  0.7555  0.0827
  112MOL0     C15384   1.119   2.208   7.600 -0.6922  0.0165 -0.0427
  112MOL0     C15385   1.092   2.077   7.646 -0.1125  0.0173 -0.3445
  112MOL0     C15386   1.011   1.984   7.564 -0.3118 -0.4037 -0.3865
  112MOL0     H15387   0.947   1.682   7.840  0.6377 -1.2715 -0.6481
  112MOL0     H15388   0.983   1.455   7.901 -1.5549  1.1894 -0.0320
  112MOL0     H15389   1.114   1.287   7.953  2.1810  2.8866 -0.7685
  112MOL0     H15390   1.127   1.192   8.102  0.1813 -1.9321 -2.3900
  112MOL0     H15391   1.334   1.203   7.955 -2.9630  0.9008 -2.0571
  112MOL0     H15392   1.348   1.363   8.019 -0.0797  0.6133 -0.7300
  112MOL0     H15393   1.491   1.202   8.127  0.8621 -3.9198  3.5198
  112MOL0     H15394   1.412   1.295   8.246  4.0278  0.6351 -1.1213
  112MOL0     H15395   1.448   1.085   8.303  0.5366  2.8372  1.2896
  112MOL0     H15396   1.266   1.092   8.300  0.0320 -0.8655 -0.0488
  112MOL0     H15397   1.440   0.971   8.081  0.5917 -1.0377 -0.3054
  112MOL0     H15398   1.257   0.979   8.094 -0.0412  4.5413  1.0561
  112MOL0     H15399   1.450   0.838   8.288  2.9813  2.0257 -4.7877
  112MOL0     H15400   1.265   0.835   8.291  0.5260 -0.4007  2.1432
  112MOL0     H15401   1.457   0.708   8.082  1.9752 -3.1541  1.3055
  112MOL0     H15402   1.276   0.720   8.071  0.2655  1.5251 -1.1083
  112MOL0     H15403   1.394   0.607   8.320  1.4636 -1.2071 -0.4322
  112MOL0     H15404   1.235   0.588   8.243 -0.0911 -0.6439  0.1088
  112MOL0     H15405   1.477   0.377   8.312 -2.1954 -0.3293  0.5365
  112MOL0     H15406   1.572   0.127   8.016  1.9733 -2.6567  0.3394
  112MOL0     H15407   1.440   0.053   8.109  0.6189 -0.8645  1.2436
  112MOL0     H15408   1.674   0.172   8.258 -1.8099  0.6091 -0.1806
  112MOL0     H15409   1.552   0.068   8.331  1.9641  2.1287  1.3586
  112MOL0     H15410   1.781   0.006   8.119  1.4540 -2.3698 -0.1530
  112MOL0     H15411   1.756  -0.060   8.281  0.7048 -1.3657 -0.9183
  112MOL0     H15412   1.534  -0.167   8.171  0.3001 -2.8927  0.2788
  112MOL0     H15413   1.618  -0.153   8.027 -1.6449  1.9173 -0.5507
  112MOL0     H15414   1.913  -0.424   8.152  0.1912 -1.9467  0.7160
  112MOL0     H15415   2.050  -0.568   7.877  0.8808 -0.1766  1.7684
  112MOL0     H15416   1.998  -0.712   7.963  1.5939  0.2330 -1.2739
  112MOL0     H15417   2.060  -0.577   8.054  3.4411 -3.7915 -0.4824
  112MOL0     H15418   1.702  -0.843   7.544 -1.1251 -5.2976  1.6206
  112MOL0     H15419   1.768  -0.964   7.342 -0.9961 -0.6710  0.8859
  112MOL0     H15420   2.115  -0.954   7.249 -1.8336 -0.4124  1.0157
  112MOL0     H15421   2.184  -1.106   7.320  2.5594  1.0080 -1.6130
  112MOL0     H15422   2.075  -1.237   7.113 -0.1588 -1.4641  1.1792
  112MOL0     H15423   2.040  -1.072   7.057  0.5508 -2.2397 -1.4185
  112MOL0     H15424   2.244  -1.174   6.960 -2.4671 -0.8555  1.0324
  112MOL0     H15425   2.313  -1.164   7.131  0.0153  0.8612  1.4300
  112MOL0     H15426   2.311  -0.941   7.143 -2.0039 -0.2615  0.3466
  112MOL0     H15427   2.239  -0.917   6.990 -0.6274 -2.7791 -0.8136
  112MOL0     H15428   2.457  -1.063   6.884 -0.8253  1.5704 -0.6921
  112MOL0     H15429   2.464  -0.884   6.942  0.6933 -0.0564  1.9953
  112MOL0     H15430   2.524  -1.149   7.059 -0.4420  0.6594  0.8791
  112MOL0     H15431   2.526  -1.002   7.163  0.3950 -2.7860  1.3302
  112MOL0     H15432   2.687  -0.912   7.019  0.3253  0.2276 -2.8380
  112MOL0     H15433   2.716  -1.055   6.928 -3.3219  0.6127 -1.5729
  112MOL0     H15434   2.768  -1.028   7.237 -5.0515  1.4181 -1.6058
  112MOL0     H15435   2.889  -1.047   7.095 -1.6694  1.5397 -4.3719
  112MOL0     H15436   2.145  -1.040   7.534  0.4425  0.6212  0.8962
  112MOL0     H15437   2.106  -0.892   7.707  3.8268  0.4378 -2.5874
  112MOL0     H15438   1.560  -0.512   7.813 -1.0774 -1.1520  1.6583
  112MOL0     H15439   1.531  -0.375   7.981 -1.5510 -2.9932 -2.8911
  112MOL0     H15440   1.204   1.613   8.249 -2.4118  1.2924  1.2770
  112MOL0     H15441   1.164   1.828   8.170  0.1499  0.3818 -0.3726
  112MOL0     H15442   1.302   2.099   7.920  0.4475  0.7279  0.1985
  112MOL0     H15443   1.336   2.331   7.829  0.5793 -0.2999 -0.9614
  112MOL0     H15444   1.288   2.556   7.736  1.6260 -1.3307  0.1367
  112MOL0     H15445   1.411   2.476   7.631  1.3285  1.7297  0.7939
  112MOL0     H15446   1.204   2.670   7.520  0.6539  1.9840  1.3602
  112MOL0     H15447   1.335   2.595   7.423  0.7958  1.6237 -0.4353
  112MOL0     H15448   1.378   2.785   7.660 -0.0728 -1.3404 -0.2965
  112MOL0     H15449   1.499   2.726   7.554  0.3973  0.8797 -1.9539
  112MOL0     H15450   1.417   2.964   7.494 -0.5682  0.5702 -0.0540
  112MOL0     H15451   1.264   2.882   7.444  0.4427 -0.3741 -2.5332
  112MOL0     H15452   1.516   2.839   7.123 -1.7155 -0.5817 -0.4549
  112MOL0     H15453   1.078   2.252   7.510 -3.1348  0.4952  1.2271
  112MOL0     H15454   0.941   1.916   7.613 -1.1969  0.9884  0.3402
  112MOL0     H15455   0.937   2.052   7.520 -4.5852 -1.3766  4.3372
  112MOL0     H15456   1.068   1.931   7.487 -3.2520 -1.7908 -1.7576
  113MOL0     O15457   5.935   1.351   7.164 -0.0014  0.0542  0.0942
  113MOL0     C15458   5.907   1.353   7.045  1.0471  1.2182  0.2238
  113MOL0     O15459   5.776   1.345   7.007 -0.7409  0.9469  0.0732
  113MOL0     C15460   5.679   1.369   7.099  0.1481  0.0439  0.6673
  113MOL0     C15461   5.567   1.285   7.114  0.3888 -0.2288 -0.5184
  113MOL0     C15462   5.460   1.315   7.197  0.6604 -0.8265 -0.5043
  113MOL0     C15463   5.458   1.446   7.258 -0.5153  0.7765 -0.1642
  113MOL0     O15464   5.353   1.495   7.341  0.6218 -0.9627  0.0122
  113MOL0     C15465   5.238   1.414   7.380 -0.2210 -0.1468 -0.3308
  113MOL0     C15466   5.137   1.359   7.275  0.5151  0.6299 -0.0983
  113MOL0     C15467   5.092   1.459   7.167 -0.7401  0.5383 -0.3930
  113MOL0     C15468   4.983   1.394   7.081  0.6537 -0.2865 -0.3283
  113MOL0     C15469   4.932   1.487   6.966  0.7892 -1.1125  0.4370
  113MOL0     C15470   4.862   1.392   6.868  0.2244 -0.1021  0.7454
  113MOL0     C15471   4.788   1.461   6.751  1.1345 -0.0139  0.0615
  113MOL0     C15472   4.721   1.377   6.634  0.3544  0.5943 -0.1394
  113MOL0     N15473   4.635   1.456   6.544 -0.5172 -0.5194  0.7582
  113MOL0     C15474   4.505   1.459   6.545 -0.9224 -0.8749  0.5258
  113MOL0     C15475   4.466   1.535   6.437 -0.2780  0.6522  0.3557
  113MOL0     C15476   4.324   1.570   6.397  0.5451  0.0525 -0.5521
  113MOL0     C15477   4.268   1.691   6.478 -0.5920 -0.3148 -0.2343
  113MOL0     C15478   4.139   1.751   6.414 -0.3214 -0.4023  0.0521
  113MOL0     C15479   4.046   1.837   6.491 -0.8642 -0.1847  0.4910
  113MOL0     O15480   4.095   1.961   6.536 -0.6302  0.4277  0.5701
  113MOL0     C15481   3.996   2.057   6.540  0.8355 -1.1503 -0.5067
  113MOL0     C15482   3.872   2.042   6.614 -0.5326 -0.4659 -0.0171
  113MOL0     C15483   3.768   2.131   6.588 -0.1152 -0.4295  0.2334
  113MOL0     C15484   3.644   2.093   6.653  0.6329 -0.8097 -0.1239
  113MOL0     C15485   3.781   2.245   6.494 -0.3489 -0.4522 -0.0630
  113MOL0     C15486   3.665   2.320   6.463 -0.0161 -0.1917 -0.0496
  113MOL0     O15487   3.686   2.441   6.412 -0.4949 -0.5446 -0.4661
  113MOL0     C15488   3.589   2.532   6.398  1.1163  0.6995  0.8530
  113MOL0     C15489   3.473   2.524   6.312  0.2263  0.6692  1.2198
  113MOL0     C15490   3.392   2.628   6.291 -0.4773 -0.4332 -0.5154
  113MOL0     C15491   3.418   2.753   6.352 -0.9430 -0.0513  0.5114
  113MOL0     O15492   3.344   2.867   6.334  0.1658 -0.5321 -0.4438
  113MOL0     C15493   3.237   2.881   6.233  0.0965 -0.2301 -0.8775
  113MOL0     C15494   3.093   2.875   6.284 -0.2497 -0.6504 -0.6737
  113MOL0     C15495   3.037   2.732   6.299  0.4809  0.4167  0.5248
  113MOL0     C15496   2.909   2.740   6.377 -1.2461  0.5433 -0.6592
  113MOL0     C15497   2.850   2.597   6.387 -0.3915 -0.9262 -0.0103
  113MOL0     C15498   2.712   2.607   6.455 -0.4908 -0.2154 -0.6230
  113MOL0     C15499   2.614   2.644   6.335 -0.3028  0.0644  0.4896
  113MOL0     C15500   2.503   2.548   6.324 -0.2853 -0.0160 -0.2170
  113MOL0    Cl15501   2.559   2.378   6.257  0.5993 -0.2140  0.1456
  113MOL0     C15502   3.531   2.764   6.433 -0.1675 -0.3662  0.0737
  113MOL0     C15503   3.620   2.659   6.456  0.0511 -0.3598  0.8928
  113MOL0     O15504   3.553   2.278   6.489 -0.2299 -0.2959 -0.7895
  113MOL0     C15505   3.905   2.270   6.437 -0.3250  0.0615 -0.2005
  113MOL0     C15506   4.006   2.169   6.464 -0.1422  0.4830  0.7164
  113MOL0     N15507   4.579   1.590   6.376  0.1931  0.1071 -0.0802
  113MOL0     N15508   4.681   1.542   6.450 -0.3697  0.4002 -0.4382
  113MOL0     C15509   5.567   1.530   7.233 -0.1846 -0.0760  0.3848
  113MOL0     C15510   5.673   1.492   7.162 -0.1629 -0.2231 -0.7727
  113MOL0     C15511   6.006   1.333   6.933  0.3258  0.3800 -1.7088
  113MOL0     C15512   5.955   1.302   6.805  0.2974  0.7502  0.5272
  113MOL0     C15513   6.039   1.308   6.695  0.1002 -0.2400  0.0270
  113MOL0     C15514   6.168   1.356   6.700 -1.0125  0.0511 -0.6749
  113MOL0     O15515   6.242   1.342   6.584  0.3216  0.2681  0.3488
  113MOL0     C15516   6.342   1.242   6.583 -0.0424 -0.4901 -0.4871
  113MOL0     C15517   6.281   1.101   6.587 -0.9411  0.2857 -0.2533
  113MOL0     C15518   6.191   1.071   6.468 -0.1539 -0.4156  0.2654
  113MOL0     C15519   6.096   0.950   6.481  0.3023  0.8787  0.0142
  113MOL0     C15520   6.021   0.964   6.602  0.3050 -0.5295 -0.6162
  113MOL0     C15521   5.948   0.977   6.701  0.1879  0.4260  0.5905
  113MOL0     C15522   6.218   1.384   6.834  1.1688 -0.7643 -0.5738
  113MOL0     C15523   6.144   1.367   6.950  0.5686  0.4211 -1.0366
  113MOL0     C15524   6.213   1.396   7.081 -0.5607 -0.6347 -0.0219
  113MOL0     H15525   5.562   1.193   7.057 -2.2363 -0.4096 -0.1140
  113MOL0     H15526   5.376   1.247   7.212  1.1204 -1.7018 -1.7193
  113MOL0     H15527   5.189   1.478   7.453  5.5510  3.1206  1.3102
  113MOL0     H15528   5.286   1.329   7.431  2.4286  1.4612  0.0587
  113MOL0     H15529   5.172   1.270   7.223 -1.2041  0.3882 -0.9113
  113MOL0     H15530   5.044   1.336   7.327  1.5947 -0.0077  1.6538
  113MOL0     H15531   5.061   1.549   7.220  1.0466  1.6642 -1.1723
  113MOL0     H15532   5.176   1.472   7.098 -0.6531 -0.7550 -0.5563
  113MOL0     H15533   5.022   1.301   7.039  1.7638 -0.0257  0.0747
  113MOL0     H15534   4.897   1.377   7.146  1.9182 -0.4748  1.3868
  113MOL0     H15535   5.008   1.541   6.907  0.1474 -1.1475 -0.4445
  113MOL0     H15536   4.866   1.558   7.016  2.4653 -0.8721  2.4474
  113MOL0     H15537   4.940   1.321   6.839  0.0849 -1.6878  3.8172
  113MOL0     H15538   4.792   1.332   6.928 -1.6108  1.8449  0.6311
  113MOL0     H15539   4.859   1.528   6.703  0.9683  1.9267  2.3568
  113MOL0     H15540   4.704   1.519   6.791 -0.1811 -1.1941 -0.8770
  113MOL0     H15541   4.799   1.328   6.575 -0.8322  1.1032 -2.2099
  113MOL0     H15542   4.658   1.301   6.682 -1.0910  1.7637 -0.1016
  113MOL0     H15543   4.447   1.406   6.620  0.4549 -1.5468  1.1546
  113MOL0     H15544   4.255   1.494   6.434  1.1721  0.6929  2.1163
  113MOL0     H15545   4.307   1.564   6.289 -3.9546  1.4104 -0.1394
  113MOL0     H15546   4.265   1.675   6.586 -0.0283 -0.9744 -0.3107
  113MOL0     H15547   4.346   1.768   6.477 -0.8141 -0.0938 -0.6325
  113MOL0     H15548   4.166   1.804   6.323 -1.3031 -1.2652 -0.7576
  113MOL0     H15549   4.077   1.673   6.371 -0.3524  0.2272 -1.0844
  113MOL0     H15550   3.961   1.844   6.422  1.6838 -2.6824 -3.3429
  113MOL0     H15551   4.018   1.781   6.580 -2.4716 -0.2425 -0.0166
  113MOL0     H15552   3.867   1.958   6.682 -1.6677  0.9977  1.8265
  113MOL0     H15553   3.600   2.173   6.713  2.3654  0.4319 -0.4339
  113MOL0     H15554   3.660   2.011   6.724  2.1157  0.6186  1.2518
  113MOL0     H15555   3.573   2.063   6.575  2.6670 -1.0002 -2.0320
  113MOL0     H15556   3.471   2.437   6.248 -0.8622  1.9313 -0.5791
  113MOL0     H15557   3.305   2.597   6.233 -1.9915 -1.9788  2.3135
  113MOL0     H15558   3.254   2.983   6.199  1.7379  0.4332  1.6187
  113MOL0     H15559   3.253   2.808   6.153  1.5550 -2.7288  1.5013
  113MOL0     H15560   3.084   2.940   6.372  0.6447 -3.1536  1.3974
  113MOL0     H15561   3.025   2.916   6.210 -2.9205 -2.3423  0.6917
  113MOL0     H15562   3.114   2.665   6.337  0.5002 -0.1651 -0.5100
  113MOL0     H15563   3.024   2.698   6.196  4.8865 -2.2545  0.6222
  113MOL0     H15564   2.838   2.813   6.336 -1.6015  1.9064  2.1188
  113MOL0     H15565   2.920   2.789   6.474 -2.6524  0.1788 -0.2883
  113MOL0     H15566   2.849   2.537   6.296 -0.0304  0.0137 -0.6456
  113MOL0     H15567   2.913   2.538   6.453 -0.4927 -0.6514  0.3368
  113MOL0     H15568   2.713   2.691   6.524  1.0377  1.3350 -2.4276
  113MOL0     H15569   2.685   2.512   6.502  0.4336  0.0712  0.5220
  113MOL0     H15570   2.661   2.647   6.236 -0.2409  3.1474  0.4924
  113MOL0     H15571   2.570   2.741   6.360 -1.6668 -0.9052  2.0198
  113MOL0     H15572   2.414   2.592   6.278  0.2071 -1.0751 -2.3011
  113MOL0     H15573   2.460   2.524   6.422 -4.0420 -1.1767 -1.9609
  113MOL0     H15574   3.561   2.859   6.476  3.0230 -0.2470 -2.0988
  113MOL0     H15575   3.714   2.686   6.504 -0.0467 -0.1751  0.9804
  113MOL0     H15576   3.920   2.350   6.365  1.5608  1.5668  1.7501
  113MOL0     H15577   4.097   2.196   6.411 -1.8818  2.7842 -1.3574
  113MOL0     H15578   5.575   1.626   7.282 -3.3835 -0.0521  1.0312
  113MOL0     H15579   5.749   1.569   7.158 -1.6148  1.4015  1.1570
  113MOL0     H15580   5.863   1.248   6.786 -0.3419  1.0675  2.4564
  113MOL0     H15581   6.007   1.255   6.606  4.0886  0.5836 -2.1472
  113MOL0     H15582   6.392   1.251   6.486 -1.3934 -0.1297 -1.1767
  113MOL0     H15583   6.409   1.244   6.670  1.5296  1.1536 -1.6633
  113MOL0     H15584   6.234   1.066   6.680  0.3595  2.9128  1.5023
  113MOL0     H15585   6.376   1.047   6.586  1.1593  3.6826  0.0450
  113MOL0     H15586   6.140   1.167   6.455 -0.8365 -0.5974  1.4827
  113MOL0     H15587   6.255   1.045   6.383 -0.6532 -3.4935  0.7217
  113MOL0     H15588   6.151   0.856   6.474 -1.0995  0.1292 -3.3786
  113MOL0     H15589   6.031   0.951   6.393  0.3159  1.9248 -0.0004
  113MOL0     H15590   5.890   0.963   6.790  2.1677 -0.2945  1.8346
  113MOL0     H15591   6.322   1.413   6.832  1.7501 -2.7008 -3.1026
  113MOL0     H15592   6.310   1.444   7.063 -1.0488  1.1357  1.6828
  113MOL0     H15593   6.158   1.474   7.135 -1.7859  2.4701 -5.1256
  113MOL0     H15594   6.229   1.303   7.135  1.1238  0.9530  2.4631
  114MOL0     O15595   8.640   5.188   2.527 -0.6331 -0.4716  0.4909
  114MOL0     C15596   8.525   5.145   2.519 -0.4188  1.2468  0.0670
  114MOL0     O15597   8.407   5.208   2.559 -1.0212  0.0320 -0.0639
  114MOL0     C15598   8.417   5.339   2.593  1.0064  0.1005 -1.0084
  114MOL0     C15599   8.482   5.382   2.708 -0.6541 -0.6214 -0.4561
  114MOL0     C15600   8.495   5.519   2.729  0.4127 -0.3272 -0.2345
  114MOL0     C15601   8.436   5.621   2.649 -1.0488 -0.8311 -0.8190
  114MOL0     O15602   8.474   5.754   2.683  0.4647 -0.0219  0.1137
  114MOL0     C15603   8.577   5.805   2.604 -0.3731 -0.0663  0.5351
  114MOL0     C15604   8.634   5.937   2.659 -0.3218  0.3042  0.2500
  114MOL0     C15605   8.534   6.054   2.660  0.2134 -0.4505  0.2040
  114MOL0     C15606   8.608   6.184   2.686 -1.1664  0.1192  0.2690
  114MOL0     C15607   8.514   6.302   2.744  0.0363  1.0318  1.1834
  114MOL0     C15608   8.569   6.442   2.737 -0.7537  0.9175  0.2035
  114MOL0     C15609   8.478   6.552   2.774 -0.6751 -0.3958 -0.3703
  114MOL0     C15610   8.400   6.613   2.653 -0.0475  0.0795  0.2751
  114MOL0     N15611   8.472   6.726   2.592  0.2530  1.2664  0.0002
  114MOL0     C15612   8.534   6.829   2.655  0.2874 -0.0085 -0.2173
  114MOL0     C15613   8.614   6.893   2.575 -0.0578  0.0219  0.4672
  114MOL0     C15614   8.696   7.008   2.611  0.0006  0.0785  0.2635
  114MOL0     C15615   8.686   7.122   2.513 -1.1959  0.5834  0.3637
  114MOL0     C15616   8.739   7.260   2.549 -0.0655 -0.1354 -0.2281
  114MOL0     C15617   8.885   7.265   2.579  0.3709  1.1606  0.2240
  114MOL0     O15618   8.913   7.219   2.714  0.2594 -0.8387 -0.3987
  114MOL0     C15619   9.043   7.214   2.759  0.9065 -0.4521 -0.2061
  114MOL0     C15620   9.065   7.214   2.899 -0.9073 -0.1008  0.9964
  114MOL0     C15621   9.188   7.225   2.956 -0.6767  0.0948 -0.0357
  114MOL0     C15622   9.183   7.199   3.106  0.6357 -0.1157  0.3426
  114MOL0     C15623   9.302   7.227   2.880 -0.2464 -0.2071  1.0478
  114MOL0     C15624   9.442   7.230   2.936 -0.1308 -0.2873 -0.1250
  114MOL0     O15625   9.548   7.196   2.852 -0.5848  0.5058 -0.8456
  114MOL0     C15626   9.677   7.209   2.907  0.2435  0.3067  0.5475
  114MOL0     C15627   9.735   7.096   2.972 -0.2185  0.0444 -0.2858
  114MOL0     C15628   9.863   7.106   3.034 -1.0033 -0.5858 -0.1793
  114MOL0     C15629   9.928   7.228   3.051 -0.9289  0.1677 -0.4559
  114MOL0     O15630  10.056   7.230   3.105  0.3922 -0.2500  0.6978
  114MOL0     C15631  10.110   7.143   3.196 -0.4699  0.3641  0.0006
  114MOL0     C15632  10.259   7.170   3.212 -0.3005  0.0765  0.1523
  114MOL0     C15633  10.318   7.089   3.329 -0.2974 -0.3418 -0.1110
  114MOL0     C15634  10.445   7.142   3.382 -0.1216  0.2823 -0.0918
  114MOL0     C15635  10.513   7.055   3.484 -0.7664  0.1336 -0.5374
  114MOL0     C15636  10.587   6.936   3.430  0.4452 -0.1869  0.5565
  114MOL0     C15637  10.626   6.830   3.534  0.4274  0.2743  0.1199
  114MOL0     C15638  10.693   6.703   3.496 -0.0592  0.7699 -0.2716
  114MOL0    Cl15639  10.570   6.606   3.404  0.1203 -0.4483  0.0298
  114MOL0     C15640   9.877   7.336   2.973  0.9017 -0.2341 -0.8040
  114MOL0     C15641   9.752   7.327   2.910 -0.3750 -0.1056 -0.0481
  114MOL0     O15642   9.450   7.317   3.026 -0.3974  0.0537  0.8967
  114MOL0     C15643   9.289   7.218   2.733  0.0037  0.3630  0.8502
  114MOL0     C15644   9.156   7.216   2.679 -0.1511 -0.1301 -0.4368
  114MOL0     N15645   8.622   6.813   2.457  0.0151 -0.7000 -0.3493
  114MOL0     N15646   8.540   6.722   2.470  0.2393 -0.3834 -0.2345
  114MOL0     C15647   8.363   5.575   2.536 -1.0642 -0.5747  0.2553
  114MOL0     C15648   8.358   5.435   2.506 -0.9642  0.1644 -0.5318
  114MOL0     C15649   8.512   5.020   2.437 -0.2833 -1.1284 -0.6881
  114MOL0     C15650   8.399   5.000   2.359 -0.0025 -0.5841  0.1591
  114MOL0     C15651   8.382   4.878   2.294  0.0318  0.6505 -0.0097
  114MOL0     C15652   8.476   4.770   2.308  0.4852 -0.2287 -0.2743
  114MOL0     O15653   8.463   4.648   2.254  0.1973  0.4747 -0.1563
  114MOL0     C15654   8.390   4.631   2.127  0.4047 -0.4182 -1.1591
  114MOL0     C15655   8.441   4.503   2.068  0.4375 -0.0895 -0.5645
  114MOL0     C15656   8.394   4.384   2.149 -0.4350  0.2222  0.7346
  114MOL0     C15657   8.256   4.323   2.110  0.2447 -0.1431 -0.9891
  114MOL0     C15658   8.228   4.212   2.196 -0.1622 -0.2588 -0.8259
  114MOL0     C15659   8.223   4.139   2.290 -0.3602  0.6545 -1.4736
  114MOL0     C15660   8.586   4.797   2.390 -0.1618  0.5626 -1.4721
  114MOL0     C15661   8.613   4.918   2.451  0.4898 -0.4944  0.0898
  114MOL0     C15662   8.731   4.922   2.539 -1.1293 -0.3638  0.0665
  114MOL0     H15663   8.531   5.310   2.772  1.5769 -0.9885 -2.4676
  114MOL0     H15664   8.560   5.551   2.810  0.1074  1.2231 -0.5778
  114MOL0     H15665   8.568   5.815   2.495  2.5266 -1.4227  0.0886
  114MOL0     H15666   8.657   5.733   2.617 -0.9198 -0.6483  0.7376
  114MOL0     H15667   8.660   5.912   2.762 -0.3875 -1.2810 -0.0873
  114MOL0     H15668   8.723   5.971   2.605 -0.0819  0.8187  0.9547
  114MOL0     H15669   8.472   6.073   2.571 -1.4589  2.1021  1.7670
  114MOL0     H15670   8.463   6.034   2.740 -0.2918  2.9945  0.7795
  114MOL0     H15671   8.695   6.173   2.751  2.9894  2.2576 -4.1928
  114MOL0     H15672   8.664   6.215   2.597  1.1913  2.4929  2.3989
  114MOL0     H15673   8.490   6.289   2.850  1.9465 -0.9213  1.4209
  114MOL0     H15674   8.419   6.300   2.690  0.2497  0.0169  0.8386
  114MOL0     H15675   8.662   6.436   2.795 -0.2592  0.1743 -0.6373
  114MOL0     H15676   8.601   6.447   2.633 -1.5743  0.5851 -0.0762
  114MOL0     H15677   8.533   6.625   2.835 -0.4694  0.1421 -1.1814
  114MOL0     H15678   8.407   6.507   2.844 -0.7363 -1.2044 -0.9428
  114MOL0     H15679   8.370   6.541   2.577 -0.2938  2.4900 -2.0634
  114MOL0     H15680   8.299   6.636   2.687 -1.4392 -1.3615 -2.5862
  114MOL0     H15681   8.523   6.851   2.761  0.3325 -3.9316  0.7294
  114MOL0     H15682   8.799   6.972   2.604 -0.1699 -0.5608  0.8957
  114MOL0     H15683   8.668   7.040   2.712  3.9099  0.9895  1.2338
  114MOL0     H15684   8.733   7.085   2.421 -0.9916  1.4772  0.0960
  114MOL0     H15685   8.579   7.136   2.493 -0.8762  1.5416 -0.7870
  114MOL0     H15686   8.719   7.329   2.467 -2.2577 -0.3841  0.0496
  114MOL0     H15687   8.686   7.298   2.637 -1.8368  2.7691 -2.3547
  114MOL0     H15688   8.941   7.217   2.498 -0.4982 -0.3433  0.4907
  114MOL0     H15689   8.905   7.372   2.570  0.2790  1.1049 -0.8724
  114MOL0     H15690   8.970   7.193   2.948 -0.6542 -1.2478  1.0166
  114MOL0     H15691   9.256   7.121   3.128  2.9087  1.5904 -0.7779
  114MOL0     H15692   9.090   7.166   3.153 -0.0271 -0.1356 -0.9605
  114MOL0     H15693   9.219   7.284   3.166  2.2931 -1.7590  1.8268
  114MOL0     H15694   9.691   6.997   2.974  4.0210 -2.0311  1.0454
  114MOL0     H15695   9.902   7.020   3.087  0.1154  0.0983  0.1354
  114MOL0     H15696  10.069   7.168   3.294  2.0885  0.0038  1.2458
  114MOL0     H15697  10.094   7.045   3.150  2.4571  0.9180 -2.5250
  114MOL0     H15698  10.322   7.146   3.126 -0.0049  3.4217 -0.7000
  114MOL0     H15699  10.280   7.275   3.235  4.0023 -0.0479 -2.1428
  114MOL0     H15700  10.343   6.990   3.289  1.4863  0.0537 -0.0964
  114MOL0     H15701  10.250   7.075   3.414  1.9027  1.8032  2.1702
  114MOL0     H15702  10.422   7.237   3.431  1.3094  0.5421  0.1175
  114MOL0     H15703  10.510   7.150   3.294 -0.5800 -1.6044 -0.6557
  114MOL0     H15704  10.595   7.113   3.528  0.5594 -1.0233 -1.3821
  114MOL0     H15705  10.443   7.020   3.560 -0.7886 -0.7810 -0.9658
  114MOL0     H15706  10.672   6.975   3.374 -1.8250  3.1047 -0.8732
  114MOL0     H15707  10.530   6.888   3.350  2.9984  0.3499 -1.7179
  114MOL0     H15708  10.536   6.804   3.591  2.3103 -4.6617  1.3004
  114MOL0     H15709  10.692   6.889   3.599  1.0227 -0.5942  0.3121
  114MOL0     H15710  10.707   6.650   3.590 -0.6183 -0.2697 -0.7527
  114MOL0     H15711  10.780   6.731   3.436 -1.7280  2.9454 -1.8508
  114MOL0     H15712   9.927   7.432   2.974  0.3708  0.0465 -0.3450
  114MOL0     H15713   9.694   7.405   2.863  0.1387 -2.7639 -5.9132
  114MOL0     H15714   9.365   7.214   2.656  0.9639 -0.1341  1.7964
  114MOL0     H15715   9.151   7.214   2.570 -1.7534  2.1082 -0.4806
  114MOL0     H15716   8.321   5.652   2.472  0.3585  0.4096  0.4583
  114MOL0     H15717   8.314   5.393   2.416 -0.6398  2.7667 -1.9953
  114MOL0     H15718   8.326   5.077   2.339  0.3273 -0.6671 -1.5095
  114MOL0     H15719   8.297   4.862   2.228  0.5437 -1.7209 -0.1836
  114MOL0     H15720   8.282   4.635   2.139  0.7573  0.4951  3.5875
  114MOL0     H15721   8.420   4.714   2.063 -0.0027  0.1663 -0.6019
  114MOL0     H15722   8.549   4.501   2.051  0.2315 -0.0659 -2.0290
  114MOL0     H15723   8.405   4.501   1.964  0.9802  1.6802 -0.8242
  114MOL0     H15724   8.474   4.312   2.127 -0.1723 -0.2602  3.0101
  114MOL0     H15725   8.398   4.416   2.253 -3.9043  0.8121  0.7970
  114MOL0     H15726   8.263   4.288   2.006  0.2674  2.7977 -2.0683
  114MOL0     H15727   8.179   4.401   2.110  1.5300  1.2973  2.2871
  114MOL0     H15728   8.231   4.085   2.382 -5.7349 -1.3197 -1.7713
  114MOL0     H15729   8.640   4.704   2.405 -0.5931  0.7065  1.7522
  114MOL0     H15730   8.717   4.974   2.634  1.6967 -1.7127  1.3567
  114MOL0     H15731   8.773   4.828   2.578 -0.9960  1.0930  3.8925
  114MOL0     H15732   8.808   4.985   2.493 -0.8483 -0.4044  0.4715
  115MOL0     O15733   1.938   2.712   3.164  0.2919 -0.7920 -0.0131
  115MOL0     C15734   1.912   2.826   3.123 -0.6060  0.3827  0.0039
  115MOL0     O15735   1.827   2.858   3.020 -0.3998  0.1410  0.2978
  115MOL0     C15736   1.796   2.769   2.925 -0.9455  1.2701  0.7930
  115MOL0     C15737   1.667   2.705   2.917  0.4808 -0.0323 -1.3734
  115MOL0     C15738   1.634   2.614   2.825  0.2912  0.2348 -0.2867
  115MOL0     C15739   1.731   2.571   2.729  0.3854 -0.0527 -0.8884
  115MOL0     O15740   1.695   2.473   2.648  0.3145 -0.4233 -0.0425
  115MOL0     C15741   1.795   2.430   2.551 -0.4398  0.6628 -0.9513
  115MOL0     C15742   1.767   2.317   2.463 -0.0407  0.6026  0.2106
  115MOL0     C15743   1.678   2.361   2.350  0.3891 -0.4569 -0.2116
  115MOL0     C15744   1.620   2.248   2.271 -0.5313 -0.4885 -0.0883
  115MOL0     C15745   1.509   2.288   2.171  0.1723  0.1664 -0.2700
  115MOL0     C15746   1.365   2.323   2.233 -0.2479  0.7376  0.5055
  115MOL0     C15747   1.260   2.341   2.118 -0.8123 -0.2765  0.2713
  115MOL0     C15748   1.123   2.323   2.167 -0.4664  0.5476 -0.5297
  115MOL0     N15749   1.017   2.356   2.070 -0.7610  0.4367  0.3399
  115MOL0     C15750   0.999   2.477   2.011 -0.2070 -1.4581 -0.1961
  115MOL0     C15751   0.875   2.487   1.959  0.0144  0.0262  0.6983
  115MOL0     C15752   0.830   2.583   1.855  0.3260  0.5675  0.9810
  115MOL0     C15753   0.899   2.714   1.882  1.2497  0.5097 -0.4508
  115MOL0     C15754   0.841   2.837   1.805  0.5048 -0.2815  0.4379
  115MOL0     C15755   0.909   2.970   1.851 -0.4673 -0.4271 -0.1254
  115MOL0     O15756   0.846   3.012   1.970  0.0680  0.4842 -0.0371
  115MOL0     C15757   0.886   3.127   2.028  0.0639  0.3459  0.4045
  115MOL0     C15758   0.783   3.171   2.121 -0.2798  0.0230 -0.8608
  115MOL0     C15759   0.803   3.290   2.194  0.2148 -0.3569 -0.0718
  115MOL0     C15760   0.682   3.330   2.281  0.0555 -0.4517  0.0082
  115MOL0     C15761   0.928   3.357   2.185 -1.2166 -0.5743 -0.0330
  115MOL0     C15762   0.969   3.484   2.256  0.2976  0.3653 -0.1826
  115MOL0     O15763   0.881   3.535   2.339  0.2652 -0.1868 -0.1547
  115MOL0     C15764   0.910   3.649   2.413 -0.2672  0.3835  0.5206
  115MOL0     C15765   1.034   3.683   2.462  0.0825  1.1976  0.2653
  115MOL0     C15766   1.056   3.802   2.532 -0.5399  0.5744 -0.8919
  115MOL0     C15767   0.952   3.903   2.548  0.6298 -0.1425 -0.3293
  115MOL0     O15768   0.974   4.024   2.613  0.3647  0.0088 -0.1686
  115MOL0     C15769   0.863   4.117   2.626  0.0406  0.8439  0.2839
  115MOL0     C15770   0.917   4.236   2.716 -0.2215  0.2835 -0.5912
  115MOL0     C15771   0.995   4.349   2.650  0.8489  1.1717 -0.2617
  115MOL0     C15772   1.117   4.316   2.580 -0.6320 -0.6510  0.4442
  115MOL0     C15773   1.185   4.444   2.518  1.0193 -0.3274 -0.2219
  115MOL0     C15774   1.302   4.407   2.428 -0.1887 -0.5349 -0.4204
  115MOL0     C15775   1.399   4.340   2.515 -0.1742 -0.9869 -1.1534
  115MOL0     C15776   1.539   4.379   2.477  0.0833  0.9166 -0.4395
  115MOL0    Cl15777   1.651   4.257   2.549 -0.8687  0.2971  0.4977
  115MOL0     C15778   0.824   3.857   2.497 -0.4180  0.9158 -0.1160
  115MOL0     C15779   0.807   3.734   2.430 -0.4031  0.6601  0.7483
  115MOL0     O15780   1.072   3.536   2.224 -0.3918 -0.3696 -0.5351
  115MOL0     C15781   1.028   3.308   2.098 -0.3094  0.0101  0.5400
  115MOL0     C15782   1.007   3.196   2.018 -0.4051 -0.1443 -0.4464
  115MOL0     N15783   0.803   2.376   2.007  0.0964  0.1676 -0.5026
  115MOL0     N15784   0.888   2.297   2.068  0.1425  0.0850 -0.4025
  115MOL0     C15785   1.850   2.641   2.743 -0.3994  0.3708 -0.0125
  115MOL0     C15786   1.889   2.726   2.843 -0.0613  0.0941 -0.5981
  115MOL0     C15787   1.940   2.936   3.214  1.0639  0.0514 -0.4444
  115MOL0     C15788   1.882   3.063   3.190 -0.1685 -0.1968  0.0162
  115MOL0     C15789   1.921   3.173   3.258 -0.1414 -0.5411 -0.0689
  115MOL0     C15790   2.018   3.167   3.355  0.5634 -0.2849 -0.2679
  115MOL0     O15791   2.077   3.287   3.399 -0.1031  0.5347  1.1298
  115MOL0     C15792   1.991   3.404   3.402 -0.1932  0.1551  0.3506
  115MOL0     C15793   1.880   3.388   3.506 -0.4150 -0.1808  0.9159
  115MOL0     C15794   1.774   3.504   3.505 -0.0807 -0.8267  0.8168
  115MOL0     C15795   1.664   3.486   3.601 -0.3804 -1.0510 -0.6791
  115MOL0     C15796   1.714   3.461   3.735 -0.9995  0.0956  0.0659
  115MOL0     C15797   1.735   3.430   3.852  0.1718 -0.6149 -0.2213
  115MOL0     C15798   2.076   3.036   3.389 -0.5281  0.0064  0.4164
  115MOL0     C15799   2.038   2.921   3.317  1.1028 -0.3011  0.2651
  115MOL0     C15800   2.127   2.799   3.338 -0.2558 -0.5230  0.3320
  115MOL0     H15801   1.596   2.737   2.992  1.9567 -1.6814  0.8706
  115MOL0     H15802   1.534   2.571   2.825  0.6332 -0.5760  0.2257
  115MOL0     H15803   1.878   2.392   2.611  0.0127  2.7891 -0.1289
  115MOL0     H15804   1.837   2.508   2.486  0.5284 -0.2613 -1.4550
  115MOL0     H15805   1.861   2.276   2.425 -1.6769 -2.7999 -0.5844
  115MOL0     H15806   1.719   2.240   2.524  0.5799  0.5734  0.6659
  115MOL0     H15807   1.599   2.424   2.392 -0.8006 -1.7820 -0.3614
  115MOL0     H15808   1.723   2.429   2.278  0.8107 -1.5917 -1.0522
  115MOL0     H15809   1.704   2.203   2.217  1.2925  0.9886  1.3687
  115MOL0     H15810   1.580   2.172   2.339  1.2189 -0.2666  1.2884
  115MOL0     H15811   1.500   2.210   2.095 -0.7838  1.6535 -1.7562
  115MOL0     H15812   1.548   2.379   2.125  2.8104 -0.3028  0.8494
  115MOL0     H15813   1.345   2.244   2.306  2.3000 -0.8397 -0.3500
  115MOL0     H15814   1.372   2.419   2.283  2.1168  2.2811 -2.4610
  115MOL0     H15815   1.287   2.273   2.037  1.1364 -0.1602  0.7679
  115MOL0     H15816   1.274   2.445   2.087 -2.1735  0.7579  2.8001
  115MOL0     H15817   1.116   2.218   2.196  0.5779  0.7762  0.6544
  115MOL0     H15818   1.101   2.382   2.256 -0.0931 -1.4700  0.9855
  115MOL0     H15819   1.065   2.559   1.984 -1.2129 -1.2512 -2.2908
  115MOL0     H15820   0.722   2.593   1.851 -0.0360 -2.4590  1.1289
  115MOL0     H15821   0.866   2.551   1.757  2.3279  2.2622  1.0887
  115MOL0     H15822   0.879   2.738   1.987  0.1502 -3.7611  0.4813
  115MOL0     H15823   1.004   2.703   1.854  0.9530  0.6004 -1.6413
  115MOL0     H15824   0.855   2.824   1.697 -0.9155 -0.5052  0.2607
  115MOL0     H15825   0.733   2.844   1.815  0.2067 -3.3068  0.2228
  115MOL0     H15826   1.017   2.965   1.863 -0.5889 -0.4012  1.1562
  115MOL0     H15827   0.901   3.056   1.784 -0.0441 -1.0563 -0.9962
  115MOL0     H15828   0.699   3.107   2.147  2.0480 -2.2516  1.8405
  115MOL0     H15829   0.694   3.310   2.388  0.9500 -2.2406 -0.3938
  115MOL0     H15830   0.591   3.276   2.251  0.6792 -0.7109 -1.5232
  115MOL0     H15831   0.659   3.437   2.279 -0.2883 -0.5103  0.6192
  115MOL0     H15832   1.123   3.620   2.454  0.5820  1.8095  0.8465
  115MOL0     H15833   1.149   3.823   2.584 -1.3033  0.3587  0.6161
  115MOL0     H15834   0.837   4.145   2.524  1.6609 -3.4037 -1.5036
  115MOL0     H15835   0.771   4.083   2.675  0.1792  2.0161  1.4310
  115MOL0     H15836   0.830   4.288   2.757  0.4931  0.4843  0.7162
  115MOL0     H15837   0.968   4.187   2.799 -2.0943 -3.2886 -1.3629
  115MOL0     H15838   1.007   4.425   2.728 -2.6530  1.4134  0.1980
  115MOL0     H15839   0.929   4.400   2.580  0.7896 -0.0547 -1.1276
  115MOL0     H15840   1.123   4.226   2.518 -0.1863 -1.1584  1.2110
  115MOL0     H15841   1.186   4.295   2.662  0.6290  1.5078  0.0207
  115MOL0     H15842   1.113   4.506   2.465 -0.6798 -2.7957 -0.9990
  115MOL0     H15843   1.208   4.510   2.602 -1.6656 -2.4623  2.4381
  115MOL0     H15844   1.345   4.496   2.381  0.1441  0.1267  1.0854
  115MOL0     H15845   1.260   4.335   2.357 -1.4156 -1.1763  0.8977
  115MOL0     H15846   1.380   4.235   2.489 -1.3591 -0.6941 -1.5532
  115MOL0     H15847   1.402   4.361   2.622  1.9817  5.0549 -2.0111
  115MOL0     H15848   1.563   4.474   2.525 -0.0477  0.4457  0.5952
  115MOL0     H15849   1.550   4.376   2.368 -1.7358 -1.0196 -0.6286
  115MOL0     H15850   0.740   3.924   2.509 -1.6852 -0.6819  0.2435
  115MOL0     H15851   0.713   3.716   2.380  2.0484 -0.9302 -3.8749
  115MOL0     H15852   1.122   3.354   2.070 -1.8487  0.9677 -3.7442
  115MOL0     H15853   1.088   3.176   1.949 -0.4814 -0.2242 -0.5123
  115MOL0     H15854   1.912   2.621   2.656 -2.0735  1.7745 -1.6163
  115MOL0     H15855   1.994   2.753   2.845  0.6567 -2.4240  0.1731
  115MOL0     H15856   1.815   3.083   3.107  1.7737  1.1461 -1.3419
  115MOL0     H15857   1.870   3.266   3.237  0.9216  0.5604  1.9065
  115MOL0     H15858   2.052   3.491   3.429 -0.2502  0.1925  0.3616
  115MOL0     H15859   1.965   3.431   3.300  5.9030  0.4538 -1.5287
  115MOL0     H15860   1.939   3.395   3.597 -2.2579  4.2188  2.0501
  115MOL0     H15861   1.822   3.295   3.504  0.8626 -1.0612  2.5807
  115MOL0     H15862   1.827   3.598   3.524 -0.2246 -0.5151 -0.2725
  115MOL0     H15863   1.729   3.518   3.406 -2.7474  0.7841  2.1523
  115MOL0     H15864   1.618   3.391   3.570  1.2314 -2.7204  1.6560
  115MOL0     H15865   1.595   3.571   3.605 -0.8793 -1.4085 -1.4436
  115MOL0     H15866   1.744   3.413   3.957 -0.5636 -3.1143 -0.5102
  115MOL0     H15867   2.162   3.021   3.454 -0.7008  0.7040  0.8133
  115MOL0     H15868   2.205   2.822   3.411  0.8112 -1.1716 -0.5778
  115MOL0     H15869   2.076   2.717   3.389 -1.6398  0.6483  0.9139
  115MOL0     H15870   2.173   2.763   3.245  0.2272  0.6604  0.0894
  116MOL0     O15871   6.225   0.100   3.782  0.6416  0.1751  0.0298
  116MOL0     C15872   6.238   0.037   3.675 -0.1162 -0.1068  0.6184
  116MOL0     O15873   6.308  -0.074   3.664 -0.2505  0.1716 -0.0294
  116MOL0     C15874   6.402  -0.126   3.760 -0.0826 -0.3088 -0.2330
  116MOL0     C15875   6.439  -0.060   3.886 -0.2781  0.8713  0.1117
  116MOL0     C15876   6.518  -0.124   3.979  1.2164  0.0584  0.2061
  116MOL0     C15877   6.563  -0.256   3.964  1.1187  0.2353 -0.0701
  116MOL0     O15878   6.640  -0.293   4.070  0.2757 -0.1838 -0.8819
  116MOL0     C15879   6.680  -0.434   4.077  0.0843 -0.1544  0.2237
  116MOL0     C15880   6.808  -0.451   4.167  0.3181  0.0494  0.3669
  116MOL0     C15881   6.848  -0.602   4.173  0.0800 -0.9393  0.3306
  116MOL0     C15882   6.738  -0.686   4.241 -0.6450  0.7913 -0.0231
  116MOL0     C15883   6.790  -0.836   4.246 -0.3435 -0.1957 -0.5175
  116MOL0     C15884   6.681  -0.903   4.330 -0.5375  1.1790 -0.3124
  116MOL0     C15885   6.708  -1.058   4.342 -0.7421  0.4405 -0.3145
  116MOL0     C15886   6.845  -1.096   4.405 -0.0958  0.6329 -0.2727
  116MOL0     N15887   6.823  -1.219   4.486  0.5976 -0.7704  0.2514
  116MOL0     C15888   6.731  -1.238   4.587 -0.8536 -0.1787 -0.8315
  116MOL0     C15889   6.734  -1.374   4.604 -1.0252  0.4224  0.4649
  116MOL0     C15890   6.652  -1.450   4.706 -0.7363 -0.5406  0.0104
  116MOL0     C15891   6.728  -1.563   4.781  0.1294  0.7190 -0.5986
  116MOL0     C15892   6.627  -1.688   4.821 -0.2528 -0.3333 -0.6043
  116MOL0     C15893   6.485  -1.652   4.859 -2.0530  0.7730 -0.5226
  116MOL0     O15894   6.403  -1.645   4.742 -0.2222  0.0276  0.6327
  116MOL0     C15895   6.281  -1.578   4.743 -0.1872  0.7512 -0.0544
  116MOL0     C15896   6.200  -1.548   4.853  0.7499 -0.1373 -0.4917
  116MOL0     C15897   6.070  -1.497   4.844 -0.8576  0.1580  0.2723
  116MOL0     C15898   5.998  -1.467   4.978 -0.1526 -0.3754  0.3347
  116MOL0     C15899   6.027  -1.456   4.714  0.4314 -0.0106  0.5934
  116MOL0     C15900   5.893  -1.397   4.692  0.0831  0.7467 -1.1432
  116MOL0     O15901   5.900  -1.281   4.618 -0.0023 -0.3983  0.3140
  116MOL0     C15902   5.791  -1.221   4.588 -0.5219  0.0627  0.5523
  116MOL0     C15903   5.734  -1.243   4.462  0.2366 -0.1092  0.6491
  116MOL0     C15904   5.625  -1.170   4.426  0.2042  0.2031  0.1593
  116MOL0     C15905   5.564  -1.075   4.504  0.8865 -0.5479  0.6778
  116MOL0     O15906   5.466  -0.987   4.471  0.3477  0.2104 -0.4150
  116MOL0     C15907   5.357  -1.024   4.372 -0.3497 -0.2076  1.2319
  116MOL0     C15908   5.246  -0.927   4.378  0.0398  0.8677 -0.1312
  116MOL0     C15909   5.269  -0.773   4.381 -0.6338 -0.5235 -0.5178
  116MOL0     C15910   5.362  -0.721   4.263 -0.5105 -0.0236 -0.2540
  116MOL0     C15911   5.391  -0.569   4.257 -0.4051  0.6918 -0.0746
  116MOL0     C15912   5.264  -0.501   4.204  0.2051 -0.3520 -0.0378
  116MOL0     C15913   5.233  -0.366   4.268 -0.5038 -1.4592  0.6786
  116MOL0     C15914   5.326  -0.257   4.199 -0.1787 -0.6388  0.0484
  116MOL0    Cl15915   5.291  -0.097   4.273 -0.2923 -0.3534 -0.1376
  116MOL0     C15916   5.638  -1.038   4.621  0.1888 -0.4283 -0.4355
  116MOL0     C15917   5.752  -1.111   4.669  0.1408  0.7250  0.4757
  116MOL0     O15918   5.795  -1.450   4.751 -0.0586 -0.7416  0.4028
  116MOL0     C15919   6.114  -1.472   4.597 -0.2006 -0.1978  0.4593
  116MOL0     C15920   6.235  -1.537   4.612 -0.2604 -1.2409 -0.1708
  116MOL0     N15921   6.835  -1.421   4.511  0.5212  0.7536 -0.2899
  116MOL0     N15922   6.888  -1.327   4.446 -0.8769 -0.5132  0.4732
  116MOL0     C15923   6.524  -0.329   3.848  1.0679 -0.2521  1.1249
  116MOL0     C15924   6.444  -0.262   3.751  0.4428  0.4977  0.1257
  116MOL0     C15925   6.160   0.099   3.561 -0.6289  0.1773 -0.0903
  116MOL0     C15926   6.100   0.001   3.478  0.6263  0.1817 -0.1450
  116MOL0     C15927   6.035   0.053   3.372  0.2037 -0.1148  0.7299
  116MOL0     C15928   6.027   0.189   3.344  0.3599 -0.4778 -0.6476
  116MOL0     O15929   5.959   0.244   3.238 -0.4822  0.4652  0.5590
  116MOL0     C15930   5.979   0.178   3.113  1.2331 -0.7783  0.1063
  116MOL0     C15931   5.910   0.267   3.009 -1.4660  1.0551  1.1502
  116MOL0     C15932   5.899   0.175   2.878  0.2829 -0.0191  0.5476
  116MOL0     C15933   5.875   0.278   2.755  0.4761  0.5084 -0.9152
  116MOL0     C15934   5.900   0.215   2.635  0.1580 -0.2471 -0.3586
  116MOL0     C15935   5.905   0.143   2.536 -0.1816 -0.5008  1.1971
  116MOL0     C15936   6.083   0.288   3.429 -0.2616  0.3014 -0.3445
  116MOL0     C15937   6.151   0.246   3.547  0.6892 -0.2998  0.9032
  116MOL0     C15938   6.207   0.359   3.632 -0.2558  0.0693  0.1837
  116MOL0     H15939   6.404   0.037   3.920 -1.7809 -0.7374  3.7501
  116MOL0     H15940   6.548  -0.054   4.057  5.6336  0.2506 -1.3647
  116MOL0     H15941   6.707  -0.472   3.978  3.6218  1.1297  0.5307
  116MOL0     H15942   6.595  -0.488   4.119  0.3618 -0.0264  0.9680
  116MOL0     H15943   6.891  -0.387   4.137  1.2440 -0.0281  2.6127
  116MOL0     H15944   6.773  -0.415   4.264 -1.9042  1.5059 -0.8703
  116MOL0     H15945   6.862  -0.644   4.073  1.4332 -0.0993  0.1477
  116MOL0     H15946   6.942  -0.612   4.228 -2.0201 -0.8807  4.2648
  116MOL0     H15947   6.697  -0.659   4.339  1.1113 -1.5977  1.4747
  116MOL0     H15948   6.656  -0.684   4.168  1.0218 -1.3855 -2.1164
  116MOL0     H15949   6.886  -0.824   4.297 -1.4495 -1.2172  1.9338
  116MOL0     H15950   6.793  -0.888   4.149 -1.3527 -1.9917  0.3558
  116MOL0     H15951   6.663  -0.879   4.436 -2.3368 -3.7827  0.7820
  116MOL0     H15952   6.583  -0.888   4.285  0.5035  3.7004 -1.9562
  116MOL0     H15953   6.696  -1.085   4.237 -2.5012 -0.3560  0.0503
  116MOL0     H15954   6.626  -1.104   4.399 -0.4244 -3.1973 -2.4822
  116MOL0     H15955   6.930  -1.101   4.336 -1.9575 -0.9762 -2.6304
  116MOL0     H15956   6.878  -1.022   4.478  2.7557  0.5512 -1.3399
  116MOL0     H15957   6.669  -1.165   4.639 -0.2390  1.8885 -2.8317
  116MOL0     H15958   6.574  -1.492   4.642 -1.1345  0.5409 -0.2443
  116MOL0     H15959   6.603  -1.386   4.780 -2.5475 -1.8335 -0.0178
  116MOL0     H15960   6.810  -1.604   4.722  0.4491 -0.3346  0.5309
  116MOL0     H15961   6.774  -1.524   4.872  2.4285 -2.5847 -0.1774
  116MOL0     H15962   6.628  -1.762   4.740 -0.8896 -1.4291  0.3673
  116MOL0     H15963   6.651  -1.737   4.916  0.7620  1.3387  0.0447
  116MOL0     H15964   6.440  -1.733   4.917 -0.0857  1.1200  1.6058
  116MOL0     H15965   6.481  -1.561   4.918 -4.0510  0.0632  0.5253
  116MOL0     H15966   6.239  -1.562   4.953 -0.6453 -0.5248  0.0151
  116MOL0     H15967   5.890  -1.459   4.963 -0.1447  0.1095  0.5364
  116MOL0     H15968   6.031  -1.368   5.011  1.8114 -0.7237 -0.4686
  116MOL0     H15969   6.011  -1.546   5.053 -1.9670 -2.2084 -1.1623
  116MOL0     H15970   5.774  -1.316   4.393  1.2880  2.1225 -1.2741
  116MOL0     H15971   5.587  -1.193   4.327  0.7072  0.7375 -0.1599
  116MOL0     H15972   5.414  -1.022   4.279 -0.9758  0.7442  0.8549
  116MOL0     H15973   5.312  -1.123   4.389 -0.0918 -0.6050 -0.2874
  116MOL0     H15974   5.182  -0.947   4.292 -1.4921 -0.1918  1.1936
  116MOL0     H15975   5.197  -0.942   4.475 -1.4019 -2.6012 -1.2381
  116MOL0     H15976   5.308  -0.744   4.479 -2.6077 -0.6343  0.3439
  116MOL0     H15977   5.178  -0.713   4.379 -1.0239 -1.1204 -1.3272
  116MOL0     H15978   5.315  -0.760   4.173  0.0475 -0.6336 -0.2898
  116MOL0     H15979   5.461  -0.766   4.279  1.7637  3.1900 -3.6973
  116MOL0     H15980   5.424  -0.537   4.356 -1.2038 -1.2734  0.8761
  116MOL0     H15981   5.469  -0.557   4.180 -2.1478  3.3829 -1.5744
  116MOL0     H15982   5.180  -0.570   4.211 -0.6863  0.8674  3.9946
  116MOL0     H15983   5.278  -0.479   4.097  3.4157 -2.2023 -0.1336
  116MOL0     H15984   5.247  -0.357   4.376 -0.1527  2.8525  0.4450
  116MOL0     H15985   5.129  -0.337   4.251  0.1130  0.7319  0.3299
  116MOL0     H15986   5.299  -0.257   4.093  1.0078  0.3135 -0.2756
  116MOL0     H15987   5.430  -0.284   4.214  1.3683  3.5848 -1.4835
  116MOL0     H15988   5.591  -0.972   4.692  2.3698 -0.4387  1.1215
  116MOL0     H15989   5.809  -1.082   4.757 -0.3373  2.3149  0.3030
  116MOL0     H15990   6.095  -1.454   4.492  2.6118  0.4030 -0.0153
  116MOL0     H15991   6.297  -1.564   4.527  1.3818 -1.2268  0.9694
  116MOL0     H15992   6.568  -0.424   3.822  4.8771  1.5778  0.2264
  116MOL0     H15993   6.424  -0.320   3.662 -0.4212  2.1334 -0.7798
  116MOL0     H15994   6.112  -0.106   3.492 -0.7433  0.3355  3.4804
  116MOL0     H15995   5.970  -0.013   3.316 -1.7306 -1.0085  3.7714
  116MOL0     H15996   6.087   0.163   3.107  1.9402  1.0765  4.4649
  116MOL0     H15997   5.932   0.079   3.108  0.3436 -0.3996  0.6539
  116MOL0     H15998   5.968   0.359   2.996 -0.6060  0.8272  3.0304
  116MOL0     H15999   5.808   0.297   3.033 -2.4194 -1.7647  0.9479
  116MOL0     H16000   5.991   0.117   2.865  1.7798  2.4663 -0.7135
  116MOL0     H16001   5.812   0.110   2.885 -0.0441  0.4679  1.0741
  116MOL0     H16002   5.946   0.359   2.774  0.8829 -0.0422  0.0034
  116MOL0     H16003   5.772   0.314   2.757 -0.0202 -0.8632  0.0311
  116MOL0     H16004   5.916   0.085   2.447  1.3107 -1.9247  2.2590
  116MOL0     H16005   6.065   0.389   3.396 -2.2499 -0.7895 -2.9591
  116MOL0     H16006   6.144   0.447   3.614 -0.1350 -0.0164 -0.6938
  116MOL0     H16007   6.207   0.342   3.740  1.6454  0.2271  0.2481
  116MOL0     H16008   6.311   0.367   3.599  0.1871 -1.4726  1.1258
  117MOL0     O16009   3.248   9.559   3.984  0.3516  0.5591 -0.4105
  117MOL0     C16010   3.330   9.639   4.025  0.9635  0.2607  0.3399
  117MOL0     O16011   3.316   9.723   4.128 -0.1333  0.5224  0.0917
  117MOL0     C16012   3.195   9.735   4.194  0.0843  0.7762  1.4901
  117MOL0     C16013   3.142   9.627   4.257  0.4519  0.7082 -0.4085
  117MOL0     C16014   3.017   9.639   4.331 -0.0290  0.7361  0.1472
  117MOL0     C16015   2.952   9.757   4.330 -0.1727 -0.5803  0.2337
  117MOL0     O16016   2.822   9.749   4.371  0.1538  0.6252 -0.5758
  117MOL0     C16017   2.769   9.828   4.468  0.3039  0.1234 -0.0408
  117MOL0     C16018   2.627   9.801   4.500  1.2870  1.0026 -0.0745
  117MOL0     C16019   2.523   9.887   4.433  0.1781 -0.1910  0.6140
  117MOL0     C16020   2.496  10.019   4.506 -0.4520  0.8859 -0.4848
  117MOL0     C16021   2.380  10.104   4.469  1.1986 -0.6333  0.8603
  117MOL0     C16022   2.409  10.184   4.340 -0.6104 -1.2426 -0.1808
  117MOL0     C16023   2.295  10.284   4.304 -1.2733 -0.0444  0.4385
  117MOL0     C16024   2.276  10.313   4.152 -0.6770  0.7711  1.0097
  117MOL0     N16025   2.166  10.398   4.107  0.1448  0.2108  0.0653
  117MOL0     C16026   2.053  10.346   4.055  0.2943 -0.2156  0.0016
  117MOL0     C16027   1.973  10.453   4.041  0.4686  0.1895  0.5185
  117MOL0     C16028   1.832  10.442   4.013 -0.2140  0.0824 -0.4693
  117MOL0     C16029   1.800  10.444   3.867  0.1071 -0.3693  0.8497
  117MOL0     C16030   1.666  10.359   3.835 -0.2719 -0.2186 -0.7468
  117MOL0     C16031   1.633  10.382   3.685 -0.6140 -0.2417 -0.0459
  117MOL0     O16032   1.635  10.525   3.652 -0.4567  0.5869  0.7119
  117MOL0     C16033   1.524  10.602   3.679  0.6813 -1.7319  0.0620
  117MOL0     C16034   1.529  10.741   3.637  0.0120  0.7899 -0.1610
  117MOL0     C16035   1.429  10.829   3.660 -0.5805 -0.1856  0.3418
  117MOL0     C16036   1.455  10.971   3.637 -0.1472  0.2870  0.6192
  117MOL0     C16037   1.309  10.787   3.717  0.0052 -0.2304 -0.0602
  117MOL0     C16038   1.198  10.875   3.748 -0.1403 -0.2640 -0.3737
  117MOL0     O16039   1.142  10.952   3.661  1.0062 -0.2986  0.1999
  117MOL0     C16040   1.083  11.068   3.691 -0.1980 -0.2042 -0.0959
  117MOL0     C16041   1.127  11.147   3.800 -0.1303  0.4738  0.3156
  117MOL0     C16042   1.100  11.283   3.797  0.2696  0.6791 -0.1986
  117MOL0     C16043   1.012  11.337   3.711 -0.3215  0.5845  0.5286
  117MOL0     O16044   0.984  11.468   3.740 -0.1037 -0.3469  0.2261
  117MOL0     C16045   0.842  11.488   3.726 -0.4917  0.1253 -0.1545
  117MOL0     C16046   0.800  11.611   3.800 -0.3309 -0.1305  0.3269
  117MOL0     C16047   0.654  11.646   3.758  0.6193  0.0719 -0.1277
  117MOL0     C16048   0.602  11.746   3.853  0.1467  0.0431 -0.0956
  117MOL0     C16049   0.466  11.774   3.811  0.1676  1.2167 -0.2115
  117MOL0     C16050   0.409  11.890   3.890 -0.2731  0.4492 -0.2596
  117MOL0     C16051   0.269  11.923   3.848 -0.2950 -0.6835  0.0672
  117MOL0     C16052   0.229  12.050   3.918 -0.3658 -0.8504 -0.1987
  117MOL0    Cl16053   0.311  12.192   3.825 -0.4659 -0.9413  0.3029
  117MOL0     C16054   0.967  11.265   3.602  0.1429  0.7158  1.1081
  117MOL0     C16055   0.999  11.135   3.586 -0.6838 -0.0179  0.1699
  117MOL0     O16056   1.153  10.856   3.863  0.4333  0.3895 -0.7523
  117MOL0     C16057   1.301  10.652   3.750  0.0541  1.3916  0.3810
  117MOL0     C16058   1.404  10.562   3.731  0.2833 -0.3837  0.3212
  117MOL0     N16059   2.029  10.573   4.091  0.7418 -0.7856 -0.1343
  117MOL0     N16060   2.151  10.532   4.122 -0.3229  0.1714  0.0078
  117MOL0     C16061   3.004   9.868   4.254 -1.8615  0.0172  0.0904
  117MOL0     C16062   3.130   9.864   4.186  0.6698 -0.3206  0.1396
  117MOL0     C16063   3.454   9.660   3.950  0.0441  0.7284  0.5330
  117MOL0     C16064   3.504   9.795   3.929  0.4647  0.5367  0.0080
  117MOL0     C16065   3.601   9.836   3.841 -0.0212  0.1554 -0.3253
  117MOL0     C16066   3.651   9.737   3.758 -0.8842  0.4071 -0.0676
  117MOL0     O16067   3.765   9.775   3.689  1.3826  0.1259 -0.9480
  117MOL0     C16068   3.748   9.887   3.608  0.3528  0.3850 -0.3661
  117MOL0     C16069   3.840   9.871   3.477  0.2916  0.8128  0.5540
  117MOL0     C16070   3.811   9.980   3.369  0.9511 -0.1727  0.3402
  117MOL0     C16071   3.656  10.002   3.334 -0.1140 -1.0315 -0.3384
  117MOL0     C16072   3.645  10.052   3.198  0.2232  0.2157  0.5485
  117MOL0     C16073   3.635  10.104   3.092 -0.3584  0.3948 -0.8448
  117MOL0     C16074   3.616   9.606   3.775 -1.2309  0.3512 -0.3139
  117MOL0     C16075   3.523   9.559   3.872 -0.1892 -0.0987  0.9935
  117MOL0     C16076   3.491   9.408   3.864  0.8098  0.4517  0.4317
  117MOL0     H16077   3.184   9.527   4.256 -0.1418  0.4314  0.7825
  117MOL0     H16078   2.963   9.559   4.381 -0.1967  0.7410 -0.0236
  117MOL0     H16079   2.785   9.936   4.458  1.0515  0.1765  1.3511
  117MOL0     H16080   2.828   9.796   4.555  3.0509 -2.1636 -2.5172
  117MOL0     H16081   2.601   9.699   4.470  1.1789  1.3869 -1.3549
  117MOL0     H16082   2.623   9.808   4.609  2.2543 -1.8882  0.2397
  117MOL0     H16083   2.540   9.906   4.326  1.8042 -0.6163  0.7767
  117MOL0     H16084   2.426   9.836   4.436  0.1196 -0.2757 -1.1560
  117MOL0     H16085   2.475   9.983   4.607 -0.4931  1.6357 -0.2206
  117MOL0     H16086   2.590  10.074   4.498  2.6940 -3.9445 -0.6868
  117MOL0     H16087   2.367  10.181   4.545 -0.5079  0.1802 -0.1748
  117MOL0     H16088   2.290  10.044   4.452  0.0287  1.7602 -2.6478
  117MOL0     H16089   2.503  10.239   4.328 -0.8405 -0.7746  0.0946
  117MOL0     H16090   2.422  10.110   4.261 -0.6816 -0.0715 -1.3419
  117MOL0     H16091   2.323  10.380   4.349  0.8496 -0.3328 -0.1325
  117MOL0     H16092   2.200  10.252   4.348 -0.8093 -1.9496  0.1468
  117MOL0     H16093   2.365  10.358   4.108 -2.3020  4.2558  0.9359
  117MOL0     H16094   2.268  10.217   4.101 -2.2771  0.6287  1.4636
  117MOL0     H16095   2.030  10.242   4.033 -2.4859  0.4569 -0.7220
  117MOL0     H16096   1.781  10.524   4.063  0.5570 -0.1698  0.7748
  117MOL0     H16097   1.785  10.352   4.054 -0.4642  1.6605  3.1355
  117MOL0     H16098   1.791  10.552   3.851 -0.6671 -0.6062 -0.5459
  117MOL0     H16099   1.884  10.400   3.814 -0.9845 -0.5804 -0.7963
  117MOL0     H16100   1.669  10.254   3.864 -1.8725 -0.4763 -1.4041
  117MOL0     H16101   1.590  10.403   3.902  2.2999  0.3078  2.0700
  117MOL0     H16102   1.720  10.341   3.632  0.5660  1.0818  0.7705
  117MOL0     H16103   1.542  10.329   3.657 -0.2216 -1.3150  0.6651
  117MOL0     H16104   1.624  10.775   3.597  0.1454  1.9326  1.0406
  117MOL0     H16105   1.527  10.984   3.556 -1.2716  1.4247 -0.2360
  117MOL0     H16106   1.496  11.010   3.731  0.8866  1.1007 -0.1403
  117MOL0     H16107   1.369  11.032   3.607  1.1894  2.5877  1.1680
  117MOL0     H16108   1.204  11.103   3.863 -1.2170 -2.2195 -0.1133
  117MOL0     H16109   1.141  11.331   3.886 -3.0255  1.0090  1.3050
  117MOL0     H16110   0.818  11.506   3.621 -1.5862 -0.7174 -0.0634
  117MOL0     H16111   0.797  11.403   3.778  1.7566  0.4468  2.6308
  117MOL0     H16112   0.810  11.584   3.906  2.1473 -0.4251  0.0536
  117MOL0     H16113   0.863  11.698   3.780  1.3923 -1.2613  0.6140
  117MOL0     H16114   0.598  11.552   3.763  0.3351  0.2782  0.9798
  117MOL0     H16115   0.648  11.670   3.652 -0.4569 -2.6091 -0.7429
  117MOL0     H16116   0.656  11.839   3.835  1.1847 -0.6788 -0.7657
  117MOL0     H16117   0.621  11.718   3.957  1.5650 -0.8567 -0.5662
  117MOL0     H16118   0.474  11.810   3.708 -2.8244  0.5165 -0.7725
  117MOL0     H16119   0.409  11.680   3.811  0.2234  0.9879  3.8090
  117MOL0     H16120   0.482  11.970   3.876 -1.7152  1.5270 -2.0603
  117MOL0     H16121   0.410  11.868   3.997  3.0436 -0.8845 -0.4586
  117MOL0     H16122   0.188  11.854   3.874 -2.4823  2.1466  1.3057
  117MOL0     H16123   0.262  11.931   3.739 -1.9607 -2.1206  0.0151
  117MOL0     H16124   0.267  12.057   4.020 -3.6593  1.1990  1.0412
  117MOL0     H16125   0.121  12.054   3.906 -0.4920 -1.7469  0.5453
  117MOL0     H16126   0.907  11.313   3.526  3.7753  0.9453 -1.8569
  117MOL0     H16127   0.957  11.072   3.507  0.0912 -0.0029 -0.2605
  117MOL0     H16128   1.226  10.616   3.819  1.6943  0.2674  1.6594
  117MOL0     H16129   1.392  10.461   3.769  0.3359 -0.3087  0.5401
  117MOL0     H16130   2.942   9.956   4.237 -0.1172  0.8118 -2.9673
  117MOL0     H16131   3.169   9.944   4.123 -1.1179  1.8176  1.5941
  117MOL0     H16132   3.463   9.872   3.994 -0.7545  0.0321 -0.1318
  117MOL0     H16133   3.630   9.941   3.846 -0.2958  0.1931  0.7020
  117MOL0     H16134   3.647   9.903   3.571  0.2266 -0.0269 -0.1988
  117MOL0     H16135   3.782   9.974   3.665  0.2493 -1.1987  2.2431
  117MOL0     H16136   3.822   9.773   3.433 -2.0328  1.9347 -1.1948
  117MOL0     H16137   3.943   9.875   3.514  0.2695  0.5369  0.6532
  117MOL0     H16138   3.855  10.079   3.385  0.1803  0.5088 -1.4902
  117MOL0     H16139   3.872   9.948   3.285 -0.4238 -1.6056 -0.1696
  117MOL0     H16140   3.621  10.082   3.400  0.3193  0.6392 -2.0729
  117MOL0     H16141   3.599   9.910   3.352  0.7339 -1.4544  0.3253
  117MOL0     H16142   3.627  10.154   2.997 -1.5406  2.8629  0.4374
  117MOL0     H16143   3.664   9.542   3.701 -1.7284  0.8695 -1.1003
  117MOL0     H16144   3.391   9.388   3.826  0.6541  3.4482 -0.9937
  117MOL0     H16145   3.558   9.357   3.793 -0.5331 -2.0401  0.8428
  117MOL0     H16146   3.502   9.362   3.963 -0.2808 -1.3895 -0.2539
  118MOL0     O16147   2.665   6.830   1.199  0.7161  0.1069 -0.0854
  118MOL0     C16148   2.548   6.777   1.209 -0.8091 -0.6624  0.2883
  118MOL0     O16149   2.490   6.699   1.110  0.0600  0.0578 -0.0472
  118MOL0     C16150   2.577   6.621   1.044 -0.0137  0.0184  0.0954
  118MOL0     C16151   2.572   6.617   0.907  0.3918  0.0375  0.3573
  118MOL0     C16152   2.656   6.546   0.832 -1.0444 -0.9671 -0.4076
  118MOL0     C16153   2.760   6.474   0.901  0.0306 -0.5035  0.2794
  118MOL0     O16154   2.869   6.419   0.835 -0.0092 -0.4211  0.2103
  118MOL0     C16155   2.855   6.379   0.697 -0.5436  0.2790  0.9695
  118MOL0     C16156   2.978   6.305   0.640 -0.0480 -0.3686 -0.0147
  118MOL0     C16157   2.972   6.240   0.504  0.4550 -0.2067  0.4763
  118MOL0     C16158   3.110   6.172   0.449  0.7610  0.3989 -0.1610
  118MOL0     C16159   3.093   6.149   0.303  0.5197 -0.5571 -0.1608
  118MOL0     C16160   3.208   6.084   0.218  0.0472  0.7316  0.0045
  118MOL0     C16161   3.334   6.172   0.200  0.2178  0.7477  1.4717
  118MOL0     C16162   3.456   6.083   0.155  0.3717 -0.1292  0.3177
  118MOL0     N16163   3.581   6.153   0.126 -0.2163  1.3607  0.1674
  118MOL0     C16164   3.655   6.213   0.220  0.0457  0.2165 -0.0324
  118MOL0     C16165   3.774   6.227   0.154  0.6373  0.1950 -0.0401
  118MOL0     C16166   3.899   6.290   0.215  0.1684 -0.5492  0.0930
  118MOL0     C16167   3.859   6.414   0.301 -0.4049  0.7485  0.1664
  118MOL0     C16168   3.993   6.489   0.315  0.0180 -0.3045  0.7555
  118MOL0     C16169   4.010   6.615   0.397 -0.0269  0.0650  0.6302
  118MOL0     O16170   3.973   6.598   0.538  0.2928  0.4151  0.0865
  118MOL0     C16171   4.063   6.571   0.633 -0.0117  0.2595 -0.9901
  118MOL0     C16172   4.022   6.593   0.764 -0.6391  0.1173 -0.3268
  118MOL0     C16173   4.108   6.564   0.871  0.3432  0.0483  0.5398
  118MOL0     C16174   4.058   6.573   1.016  0.2138 -0.2263  0.1589
  118MOL0     C16175   4.244   6.520   0.838 -0.2097 -0.1013  0.3567
  118MOL0     C16176   4.344   6.486   0.946  0.1088  0.2734  0.7317
  118MOL0     O16177   4.475   6.499   0.911 -0.8747  0.4236  0.2255
  118MOL0     C16178   4.547   6.472   1.021 -0.2386  0.7918  0.4464
  118MOL0     C16179   4.619   6.350   1.020  0.2417 -0.4918  0.9052
  118MOL0     C16180   4.706   6.315   1.117  0.0801  0.0796  0.3330
  118MOL0     C16181   4.725   6.400   1.225 -0.0507 -0.8515 -0.7804
  118MOL0     O16182   4.804   6.368   1.329  0.1393  0.6649  0.4389
  118MOL0     C16183   4.927   6.305   1.303  0.3875 -0.2718  0.2671
  118MOL0     C16184   4.987   6.278   1.450 -0.7021 -0.2714  0.0255
  118MOL0     C16185   4.916   6.155   1.507  0.3366  0.2377 -0.2139
  118MOL0     C16186   4.915   6.147   1.664 -0.3956 -0.9585  0.6426
  118MOL0     C16187   5.053   6.161   1.729  1.1409 -0.8301  1.7410
  118MOL0     C16188   5.042   6.202   1.873 -0.3200  1.6528  0.4735
  118MOL0     C16189   4.979   6.088   1.961  0.4370  0.4032  0.1696
  118MOL0     C16190   5.003   6.127   2.118 -0.6803  0.8469  1.0260
  118MOL0    Cl16191   4.870   6.230   2.182  0.3344 -0.1600  0.3600
  118MOL0     C16192   4.667   6.529   1.229 -0.5203  0.2058 -0.2411
  118MOL0     C16193   4.574   6.566   1.126 -0.1994 -0.9826  0.4861
  118MOL0     O16194   4.301   6.450   1.053  0.6063 -0.0714  0.2736
  118MOL0     C16195   4.279   6.518   0.703  0.1097  0.2316 -0.3688
  118MOL0     C16196   4.190   6.526   0.601 -0.0980 -1.1510  0.0534
  118MOL0     N16197   3.770   6.171   0.023 -0.7303 -0.0085  0.0996
  118MOL0     N16198   3.648   6.124   0.005 -0.3112  0.1724 -0.1588
  118MOL0     C16199   2.759   6.467   1.039 -0.5315  0.4024 -0.5055
  118MOL0     C16200   2.676   6.543   1.111 -0.1380 -1.3286  0.1146
  118MOL0     C16201   2.466   6.792   1.334  0.5600  0.5564 -0.5517
  118MOL0     C16202   2.360   6.696   1.358  0.3742 -1.0530  0.3129
  118MOL0     C16203   2.270   6.714   1.477  0.2105 -1.0499  0.1292
  118MOL0     C16204   2.303   6.814   1.576  1.1297  0.3899 -0.8829
  118MOL0     O16205   2.240   6.845   1.696  0.6438 -0.1135  0.2931
  118MOL0     C16206   2.092   6.850   1.687  0.1115  1.1298  0.3588
  118MOL0     C16207   2.034   6.881   1.833 -0.4118  0.5347  0.4793
  118MOL0     C16208   1.875   6.873   1.834  0.9151 -0.2780  0.4607
  118MOL0     C16209   1.799   6.942   1.942 -0.7079  0.2920 -0.1549
  118MOL0     C16210   1.798   6.858   2.064  0.0487 -0.5213  0.0084
  118MOL0     C16211   1.801   6.792   2.167  0.4067 -0.2831 -0.2447
  118MOL0     C16212   2.424   6.878   1.553 -0.4304 -0.4663  0.4421
  118MOL0     C16213   2.506   6.877   1.438  0.3861  0.9147 -0.4057
  118MOL0     C16214   2.623   6.976   1.437 -1.3570  0.1376  0.4556
  118MOL0     H16215   2.486   6.665   0.861 -0.4104 -2.9238 -1.5288
  118MOL0     H16216   2.659   6.546   0.724  1.3379  2.2472 -0.4936
  118MOL0     H16217   2.851   6.470   0.636 -1.0723 -0.7493 -0.5829
  118MOL0     H16218   2.768   6.314   0.682 -2.0035  2.2160  0.5274
  118MOL0     H16219   3.055   6.382   0.642 -0.2165 -0.1537 -1.1487
  118MOL0     H16220   2.994   6.231   0.718 -1.5068 -0.3573  0.3348
  118MOL0     H16221   2.885   6.175   0.491 -0.6661  1.5849 -1.7034
  118MOL0     H16222   2.939   6.318   0.435 -1.6896 -1.5422 -0.1231
  118MOL0     H16223   3.182   6.253   0.464  2.8029 -1.1092 -1.2988
  118MOL0     H16224   3.143   6.082   0.503  1.0651 -0.3717 -1.5708
  118MOL0     H16225   3.054   6.231   0.242 -4.8224 -1.6661  1.2513
  118MOL0     H16226   3.011   6.076   0.299 -1.8565  1.9821 -1.5497
  118MOL0     H16227   3.230   5.988   0.265  0.1102 -0.0864 -1.6162
  118MOL0     H16228   3.174   6.050   0.120  1.1428 -0.8473  0.1380
  118MOL0     H16229   3.359   6.223   0.293 -0.8952  3.2313  0.5269
  118MOL0     H16230   3.313   6.251   0.126  1.5774  0.5455  0.8438
  118MOL0     H16231   3.478   6.019   0.241  0.7780  1.1359  1.1881
  118MOL0     H16232   3.421   6.013   0.078 -0.1946  2.4010 -1.8632
  118MOL0     H16233   3.636   6.242   0.323  2.6290 -0.8973  0.8484
  118MOL0     H16234   3.965   6.324   0.135 -0.4394  1.9923  0.5635
  118MOL0     H16235   3.953   6.215   0.273 -0.9583  0.5445  2.7394
  118MOL0     H16236   3.788   6.479   0.248 -1.8694 -0.9638 -0.0657
  118MOL0     H16237   3.825   6.369   0.395  0.4211 -2.1044 -0.8000
  118MOL0     H16238   4.065   6.418   0.357  1.7425  1.2157  0.5276
  118MOL0     H16239   4.020   6.514   0.212 -1.6758  0.5694  0.4815
  118MOL0     H16240   4.115   6.646   0.395 -1.1453  4.7262 -2.0488
  118MOL0     H16241   3.954   6.692   0.344 -0.4244 -2.0042 -2.2233
  118MOL0     H16242   3.927   6.628   0.803 -1.4517 -0.6420 -1.5552
  118MOL0     H16243   4.061   6.474   1.062  0.6489  0.0044  0.6331
  118MOL0     H16244   3.956   6.612   1.015  0.4206  0.4182 -2.3759
  118MOL0     H16245   4.128   6.636   1.071  2.3861 -1.2133 -1.3279
  118MOL0     H16246   4.583   6.276   0.949 -0.8690  0.8852 -0.0049
  118MOL0     H16247   4.743   6.214   1.122 -0.4850 -0.2265 -1.2708
  118MOL0     H16248   4.917   6.218   1.237  0.9529  0.1252 -0.3602
  118MOL0     H16249   5.006   6.369   1.263 -0.1240  2.2487  2.9479
  118MOL0     H16250   5.089   6.244   1.430 -0.7739 -2.1190  2.2820
  118MOL0     H16251   4.970   6.362   1.518  0.1336 -0.1377  0.0853
  118MOL0     H16252   4.971   6.069   1.468 -0.9647  0.0761 -1.7628
  118MOL0     H16253   4.810   6.143   1.483  0.1242 -2.5220  1.6530
  118MOL0     H16254   4.875   6.050   1.693 -0.0700 -0.6311  2.2553
  118MOL0     H16255   4.843   6.222   1.698  1.7438 -0.1081  3.7317
  118MOL0     H16256   5.101   6.063   1.725  0.8791 -0.9296 -0.7220
  118MOL0     H16257   5.120   6.222   1.667  2.6462 -2.9687  1.1681
  118MOL0     H16258   4.978   6.290   1.882  0.9697  2.5174  1.6541
  118MOL0     H16259   5.148   6.221   1.895  0.1991  0.0245 -0.4862
  118MOL0     H16260   5.029   5.994   1.940  0.3131  1.0899 -3.9131
  118MOL0     H16261   4.869   6.087   1.955  0.2955  1.8642  1.6253
  118MOL0     H16262   5.105   6.165   2.134  0.4476 -1.2489 -0.6920
  118MOL0     H16263   5.002   6.032   2.172 -0.0930  0.2224 -0.0199
  118MOL0     H16264   4.682   6.586   1.321  2.0134 -0.7608  0.0165
  118MOL0     H16265   4.510   6.654   1.119  0.9642 -0.2232 -1.7640
  118MOL0     H16266   4.381   6.513   0.666 -0.5473  2.1335 -2.6568
  118MOL0     H16267   4.217   6.504   0.498 -0.8801  0.6114 -0.5615
  118MOL0     H16268   2.832   6.408   1.094  0.8562 -0.1252 -2.7803
  118MOL0     H16269   2.685   6.562   1.218  0.2884 -2.7345  0.3543
  118MOL0     H16270   2.334   6.627   1.278 -1.8858  3.0874 -2.9670
  118MOL0     H16271   2.180   6.654   1.483 -0.0066 -0.8350 -0.7718
  118MOL0     H16272   2.052   6.928   1.621 -2.4189 -0.1638  0.1996
  118MOL0     H16273   2.052   6.753   1.654  0.6504  1.9252 -2.9764
  118MOL0     H16274   2.081   6.975   1.863  0.7328  0.5523 -1.2089
  118MOL0     H16275   2.067   6.809   1.908 -2.3532 -2.8981 -1.7142
  118MOL0     H16276   1.839   6.927   1.746 -0.6658  0.2251  1.3689
  118MOL0     H16277   1.842   6.770   1.818  0.4006  0.0545 -0.7175
  118MOL0     H16278   1.701   6.979   1.913  0.2107  1.9240 -1.3689
  118MOL0     H16279   1.840   7.040   1.964  0.9387 -1.0262  3.4187
  118MOL0     H16280   1.806   6.732   2.255  1.8252 -0.0076 -0.1073
  118MOL0     H16281   2.452   6.948   1.631 -2.4054  0.0916  0.7046
  118MOL0     H16282   2.640   7.015   1.337  1.5345  0.0108  0.8267
  118MOL0     H16283   2.598   7.054   1.510 -0.5080  0.2067  0.6727
  118MOL0     H16284   2.718   6.925   1.453 -1.4553  0.4709  2.3250
  119MOL0     O16285   0.413   1.773   0.572  0.1434 -0.7384 -0.3954
  119MOL0     C16286   0.327   1.731   0.649  0.4580 -0.4603  0.1793
  119MOL0     O16287   0.190   1.733   0.617  0.3831  0.0809 -0.1827
  119MOL0     C16288   0.146   1.729   0.490  1.1132 -0.5145 -0.4473
  119MOL0     C16289   0.221   1.695   0.372  1.3696 -0.1117 -1.6842
  119MOL0     C16290   0.153   1.718   0.257 -0.0026  0.8603  0.5138
  119MOL0     C16291   0.026   1.783   0.246  0.1792 -1.0658 -0.5187
  119MOL0     O16292  -0.031   1.819   0.129 -0.0804  0.4844  0.4253
  119MOL0     C16293   0.038   1.797   0.007 -0.3467  0.6127  0.3058
  119MOL0     C16294  -0.041   1.867  -0.095 -0.2988  0.7495 -0.0025
  119MOL0     C16295  -0.164   1.785  -0.149 -0.3465  0.8998  0.3176
  119MOL0     C16296  -0.228   1.860  -0.275  1.3002 -0.9415 -0.5820
  119MOL0     C16297  -0.282   1.770  -0.388  0.3364 -0.4762 -0.6137
  119MOL0     C16298  -0.357   1.840  -0.507 -0.3943  0.3204 -0.0650
  119MOL0     C16299  -0.270   1.904  -0.602 -0.3335 -0.6283  0.2457
  119MOL0     C16300  -0.175   1.806  -0.680  0.7720 -0.2953 -0.0591
  119MOL0     N16301  -0.107   1.879  -0.781 -0.4600 -0.6825  0.2128
  119MOL0     C16302   0.005   1.953  -0.746 -0.0422  0.0772  0.5743
  119MOL0     C16303   0.037   2.014  -0.858  0.1096 -0.0938 -0.1602
  119MOL0     C16304   0.149   2.116  -0.852  1.4152 -0.5205  0.2330
  119MOL0     C16305   0.208   2.139  -0.989 -1.2420  0.2299 -0.0928
  119MOL0     C16306   0.361   2.101  -0.986 -0.6712  0.3417 -0.4491
  119MOL0     C16307   0.426   2.145  -1.110 -0.4045  0.7308  0.4365
  119MOL0     O16308   0.422   2.289  -1.131  0.2225 -0.4361  0.2154
  119MOL0     C16309   0.545   2.354  -1.106  0.0316 -0.0514  0.1504
  119MOL0     C16310   0.626   2.341  -0.991 -0.5371  1.3163  0.3928
  119MOL0     C16311   0.753   2.403  -0.989  1.1925  0.1239  0.5623
  119MOL0     C16312   0.823   2.406  -0.861  0.0376  1.0629 -0.1686
  119MOL0     C16313   0.800   2.466  -1.109 -0.0044 -0.3572  0.2675
  119MOL0     C16314   0.944   2.507  -1.117  0.0227 -0.7125 -0.2405
  119MOL0     O16315   0.968   2.629  -1.194 -0.0336  0.3205  0.1845
  119MOL0     C16316   1.090   2.678  -1.177 -1.2422  0.0804 -1.0602
  119MOL0     C16317   1.122   2.744  -1.056  0.5461 -0.1170 -0.5706
  119MOL0     C16318   1.244   2.806  -1.026 -0.2530 -0.3874 -0.1934
  119MOL0     C16319   1.354   2.802  -1.111  0.2223  0.0976 -0.0616
  119MOL0     O16320   1.479   2.854  -1.085 -0.1053 -0.0504  0.8451
  119MOL0     C16321   1.507   2.928  -0.966  0.6334 -0.4085 -0.0426
  119MOL0     C16322   1.444   3.065  -0.972 -0.3146  0.3565 -0.0067
  119MOL0     C16323   1.524   3.161  -1.063  0.5727  0.3463  0.8128
  119MOL0     C16324   1.461   3.304  -1.048  0.5075  0.0049  0.1670
  119MOL0     C16325   1.479   3.403  -1.165  0.2952  0.0598  0.0556
  119MOL0     C16326   1.446   3.545  -1.128  0.7357 -0.1803  0.4254
  119MOL0     C16327   1.526   3.639  -1.220 -0.3141 -0.0462 -0.7053
  119MOL0     C16328   1.473   3.780  -1.218 -0.4455 -0.0889  0.4103
  119MOL0    Cl16329   1.569   3.873  -1.339  0.2658  0.2580 -0.0863
  119MOL0     C16330   1.321   2.751  -1.241 -0.2353  0.5647  0.0710
  119MOL0     C16331   1.200   2.685  -1.263  0.3314 -0.6521 -0.3429
  119MOL0     O16332   1.033   2.416  -1.101 -0.3014 -0.3285  0.4852
  119MOL0     C16333   0.720   2.470  -1.223 -0.3906  1.4029 -0.3082
  119MOL0     C16334   0.592   2.418  -1.216 -0.0648 -0.8454 -0.1929
  119MOL0     N16335  -0.054   1.984  -0.959  0.5117  0.2837  0.6394
  119MOL0     N16336  -0.133   1.894  -0.916  0.3057  0.3812  0.6593
  119MOL0     C16337  -0.040   1.810   0.364 -0.2016 -0.2283 -0.0171
  119MOL0     C16338   0.016   1.782   0.485 -0.4486 -0.3613 -0.6320
  119MOL0     C16339   0.347   1.696   0.788  0.5718  0.0796  0.1366
  119MOL0     C16340   0.261   1.607   0.845 -0.5510  0.4157 -0.6832
  119MOL0     C16341   0.287   1.558   0.978 -0.6621  0.0649  0.1580
  119MOL0     C16342   0.399   1.605   1.049  0.6706  0.2668  0.1697
  119MOL0     O16343   0.443   1.549   1.163  0.2727 -0.5066 -0.0004
  119MOL0     C16344   0.353   1.486   1.245  0.4159  0.8128  0.6395
  119MOL0     C16345   0.405   1.476   1.375  0.8534  0.1345  0.9492
  119MOL0     C16346   0.462   1.601   1.434 -0.5678 -0.8962 -0.4784
  119MOL0     C16347   0.610   1.626   1.411  0.2388  0.8237  0.3107
  119MOL0     C16348   0.638   1.756   1.469  0.6519  1.1804  0.3026
  119MOL0     C16349   0.676   1.864   1.498 -0.5983  0.0062 -0.5401
  119MOL0     C16350   0.485   1.702   0.995 -0.7907  1.2761  0.2850
  119MOL0     C16351   0.463   1.743   0.862 -0.2954  0.2346 -0.1679
  119MOL0     C16352   0.580   1.831   0.806  0.3883  0.2570 -0.2612
  119MOL0     H16353   0.315   1.642   0.382  0.6388 -1.0219  1.5879
  119MOL0     H16354   0.220   1.698   0.174 -0.4389 -1.4003  0.6672
  119MOL0     H16355   0.043   1.691  -0.019 -3.4671  0.5377 -0.3614
  119MOL0     H16356   0.134   1.849   0.003 -0.8404  1.6345 -3.7919
  119MOL0     H16357  -0.068   1.969  -0.069  1.8086  1.6417 -1.0597
  119MOL0     H16358   0.025   1.876  -0.182  1.1589  0.7505  1.0643
  119MOL0     H16359  -0.148   1.686  -0.192  1.5963  1.2315  0.1527
  119MOL0     H16360  -0.235   1.778  -0.066 -3.7644  1.3288 -2.3404
  119MOL0     H16361  -0.309   1.922  -0.236  2.9635 -0.0227  1.5709
  119MOL0     H16362  -0.148   1.925  -0.313  0.6267 -0.4689 -1.2249
  119MOL0     H16363  -0.338   1.694  -0.334  1.0041 -0.7019 -0.2323
  119MOL0     H16364  -0.193   1.718  -0.425  2.5417  2.0654  0.7821
  119MOL0     H16365  -0.400   1.762  -0.570  0.8758  1.2881 -2.2518
  119MOL0     H16366  -0.439   1.907  -0.478 -1.0031 -0.3204 -0.2931
  119MOL0     H16367  -0.215   1.972  -0.536  0.9933 -1.5040  0.0810
  119MOL0     H16368  -0.333   1.949  -0.679  2.3619 -0.5068 -2.0573
  119MOL0     H16369  -0.100   1.753  -0.620  0.6578  1.3708  1.6424
  119MOL0     H16370  -0.240   1.735  -0.731 -0.5526  0.7323  0.1608
  119MOL0     H16371   0.045   1.970  -0.647 -0.3414  1.1217  0.5272
  119MOL0     H16372   0.232   2.070  -0.797  3.2955 -0.8205 -2.5757
  119MOL0     H16373   0.111   2.208  -0.809  1.0270 -1.2687  1.5488
  119MOL0     H16374   0.166   2.066  -1.058 -0.2355  0.1227 -0.6079
  119MOL0     H16375   0.191   2.243  -1.020  2.1584  0.8683 -0.1617
  119MOL0     H16376   0.415   2.147  -0.902  1.4497  1.4706 -2.3391
  119MOL0     H16377   0.369   1.992  -0.975  1.7269  0.5934  1.1589
  119MOL0     H16378   0.527   2.104  -1.118 -1.2343 -1.8170  1.8005
  119MOL0     H16379   0.366   2.088  -1.182  1.8708 -2.1439  0.6294
  119MOL0     H16380   0.595   2.283  -0.905  0.7677  1.1818  0.7880
  119MOL0     H16381   0.860   2.506  -0.836  1.0249  1.2419 -2.1100
  119MOL0     H16382   0.908   2.337  -0.860 -2.2566 -2.0176  2.1972
  119MOL0     H16383   0.768   2.375  -0.772  1.3806  1.3927  0.8139
  119MOL0     H16384   1.049   2.738  -0.976 -0.8784 -0.0224 -1.8034
  119MOL0     H16385   1.257   2.855  -0.930  1.2730  0.8656 -0.9968
  119MOL0     H16386   1.480   2.875  -0.874  0.9013  1.7525  1.3548
  119MOL0     H16387   1.615   2.942  -0.958  1.7706 -3.4571 -5.5727
  119MOL0     H16388   1.343   3.045  -1.010 -1.5453  0.0454  3.0907
  119MOL0     H16389   1.421   3.105  -0.873 -3.3012  2.1301 -1.2610
  119MOL0     H16390   1.517   3.125  -1.167  1.4038  0.0630  0.8444
  119MOL0     H16391   1.627   3.144  -1.031  0.5014 -2.1024 -0.0199
  119MOL0     H16392   1.508   3.355  -0.964  1.2218  0.2406 -0.3704
  119MOL0     H16393   1.352   3.307  -1.036  0.4838 -0.2583  0.0222
  119MOL0     H16394   1.575   3.398  -1.217 -0.3981 -0.7787 -1.1769
  119MOL0     H16395   1.407   3.376  -1.242 -0.9915  2.2207  0.4317
  119MOL0     H16396   1.467   3.568  -1.023  0.5703 -0.8012  0.5991
  119MOL0     H16397   1.336   3.551  -1.135  0.7773  1.8909  0.7693
  119MOL0     H16398   1.535   3.600  -1.322  2.6560  2.3343 -1.4893
  119MOL0     H16399   1.629   3.643  -1.182 -0.1825  0.2360 -1.0900
  119MOL0     H16400   1.472   3.832  -1.122 -1.6754 -1.6365  1.2839
  119MOL0     H16401   1.368   3.765  -1.245 -0.3642 -0.6571  0.4082
  119MOL0     H16402   1.402   2.762  -1.313 -0.6091  1.1080 -0.2698
  119MOL0     H16403   1.186   2.643  -1.362  0.4979 -3.2580  0.6796
  119MOL0     H16404   0.767   2.512  -1.311 -1.7098  1.0959 -1.1755
  119MOL0     H16405   0.544   2.448  -1.309  2.1247 -1.1457 -1.4949
  119MOL0     H16406  -0.140   1.853   0.366  0.6136  2.0004 -1.9827
  119MOL0     H16407  -0.036   1.814   0.575  0.7359  1.0956 -0.4230
  119MOL0     H16408   0.184   1.549   0.796  0.7914 -1.4128 -0.7167
  119MOL0     H16409   0.237   1.472   1.019  0.1800 -1.9935 -2.7483
  119MOL0     H16410   0.252   1.529   1.251 -1.2446 -2.8644  3.6045
  119MOL0     H16411   0.335   1.389   1.198 -3.5805  0.5399  2.3276
  119MOL0     H16412   0.486   1.403   1.376  0.8375  0.0028  4.2047
  119MOL0     H16413   0.339   1.424   1.445  1.4894 -1.1674  0.6148
  119MOL0     H16414   0.396   1.685   1.409 -2.6565 -2.1031  0.6922
  119MOL0     H16415   0.441   1.588   1.541 -2.4296 -0.0842 -0.7076
  119MOL0     H16416   0.635   1.626   1.304 -2.3706 -0.7687 -0.3914
  119MOL0     H16417   0.672   1.545   1.449 -1.2612 -0.6349 -0.2521
  119MOL0     H16418   0.719   1.961   1.518  1.1134  0.0222 -3.6704
  119MOL0     H16419   0.579   1.729   1.043  0.2903 -2.3441  0.4558
  119MOL0     H16420   0.643   1.877   0.883 -0.9832  2.5991 -0.4139
  119MOL0     H16421   0.644   1.782   0.733  0.2964  1.4953 -1.2217
  119MOL0     H16422   0.529   1.909   0.749 -0.8053  0.4004  0.9524
  120MOL0     O16423   7.657   5.906   8.865 -0.0672  0.4944  0.2092
  120MOL0     C16424   7.696   5.999   8.792 -0.0205  0.3287  0.7830
  120MOL0     O16425   7.772   6.110   8.837 -0.0759 -0.3320 -0.1409
  120MOL0     C16426   7.793   6.137   8.968  0.5695 -0.2210 -1.2839
  120MOL0     C16427   7.738   6.252   9.028 -0.3200 -0.8579 -0.4825
  120MOL0     C16428   7.756   6.276   9.171  0.4712  0.2972  0.5005
  120MOL0     C16429   7.847   6.202   9.246  0.2374 -0.0625  0.2524
  120MOL0     O16430   7.876   6.215   9.380  0.0068  0.2707 -0.3779
  120MOL0     C16431   7.809   6.314   9.457 -0.2924  0.2350 -0.1015
  120MOL0     C16432   7.843   6.299   9.616  0.5741 -1.1342  0.9097
  120MOL0     C16433   7.990   6.337   9.624 -1.3078  0.8595  0.0815
  120MOL0     C16434   8.044   6.307   9.763  0.0973 -1.1989  0.5655
  120MOL0     C16435   8.194   6.346   9.768  0.6978  0.1509  0.9346
  120MOL0     C16436   8.256   6.306   9.895  0.2805 -0.0662  0.4611
  120MOL0     C16437   8.238   6.147   9.919 -0.6235  0.4943  0.4060
  120MOL0     C16438   8.355   6.075  10.007 -0.6873  0.3078  0.2150
  120MOL0     N16439   8.331   5.930  10.015 -0.3376 -0.5096 -0.9606
  120MOL0     C16440   8.295   5.849   9.905 -0.5547 -0.9915  1.2437
  120MOL0     C16441   8.308   5.721   9.946 -0.2345  0.3308  0.0549
  120MOL0     C16442   8.290   5.584   9.883  0.6519 -0.3849  0.8866
  120MOL0     C16443   8.369   5.573   9.748 -0.4684 -0.3908 -0.7805
  120MOL0     C16444   8.517   5.530   9.782 -0.1896  0.1419 -0.7954
  120MOL0     C16445   8.602   5.638   9.847 -0.7375  0.0807 -1.3022
  120MOL0     O16446   8.582   5.763   9.789  0.0621  0.8297  0.2634
  120MOL0     C16447   8.660   5.858   9.844  0.1170 -0.0249  0.2413
  120MOL0     C16448   8.645   5.982   9.771 -0.0406 -0.0911 -1.4206
  120MOL0     C16449   8.706   6.098   9.811  0.0816 -0.5885 -0.1068
  120MOL0     C16450   8.695   6.223   9.727  0.3099  0.3608 -0.6884
  120MOL0     C16451   8.789   6.085   9.930  0.5278  0.2256 -0.3784
  120MOL0     C16452   8.852   6.193   9.996  0.5462  0.8947 -0.3137
  120MOL0     O16453   8.776   6.296  10.018  0.3449 -0.2465  0.3268
  120MOL0     C16454   8.831   6.406  10.086  0.6435 -0.2149  1.1777
  120MOL0     C16455   8.782   6.434  10.218  0.0117 -0.3958  0.7501
  120MOL0     C16456   8.831   6.549  10.286  0.2255  0.6520 -0.2855
  120MOL0     C16457   8.924   6.638  10.224 -0.7649  0.4820 -0.3541
  120MOL0     O16458   8.962   6.735  10.313  0.3095  1.1119 -0.3233
  120MOL0     C16459   9.095   6.787  10.292  0.2135  0.1002 -0.5053
  120MOL0     C16460   9.144   6.860  10.411 -0.9904 -0.0733  0.2973
  120MOL0     C16461   9.287   6.910  10.387  0.5047  0.2008  0.2469
  120MOL0     C16462   9.330   6.988  10.505 -1.1925 -0.4325 -0.5675
  120MOL0     C16463   9.468   7.058  10.471 -0.4082  0.3418  0.6730
  120MOL0     C16464   9.576   7.024  10.557 -0.7471  0.4078 -0.7207
  120MOL0     C16465   9.541   7.086  10.704  0.0574  0.9061  0.2587
  120MOL0     C16466   9.472   7.227  10.708 -0.5665 -0.4095 -0.2498
  120MOL0    Cl16467   9.569   7.351  10.653 -0.4450 -0.2164 -0.2552
  120MOL0     C16468   8.975   6.611  10.102  0.6941  0.2089 -0.1820
  120MOL0     C16469   8.920   6.494  10.031 -0.2397  0.7179 -0.6325
  120MOL0     O16470   8.969   6.183  10.036 -0.1026 -0.1702  0.6774
  120MOL0     C16471   8.799   5.962   9.997 -0.4900  0.7001  0.3268
  120MOL0     C16472   8.735   5.848   9.965  0.4812 -1.0398  1.3154
  120MOL0     N16473   8.339   5.735  10.082  0.3200  1.0165 -0.4858
  120MOL0     N16474   8.343   5.852  10.124 -0.2200 -1.2184 -0.3459
  120MOL0     C16475   7.896   6.087   9.182 -0.7508 -0.0020  1.1083
  120MOL0     C16476   7.877   6.057   9.047 -0.0531 -0.6455 -0.8409
  120MOL0     C16477   7.663   6.005   8.642 -0.1953 -0.1402 -0.2858
  120MOL0     C16478   7.695   6.124   8.571  0.4215  0.1333 -0.7480
  120MOL0     C16479   7.667   6.146   8.438  0.4218  0.9136  0.1029
  120MOL0     C16480   7.582   6.053   8.363 -0.5003  1.0031 -0.2727
  120MOL0     O16481   7.523   6.084   8.241 -0.2566  0.6429 -1.0342
  120MOL0     C16482   7.596   6.175   8.156 -0.0826  0.1761 -0.3200
  120MOL0     C16483   7.589   6.114   8.015 -0.5307 -0.8179 -0.2066
  120MOL0     C16484   7.437   6.078   7.992  0.8870  0.2667  1.0171
  120MOL0     C16485   7.394   6.089   7.853 -0.0188  0.7053  0.0424
  120MOL0     C16486   7.449   5.995   7.753 -0.3605 -0.9378  0.5302
  120MOL0     C16487   7.509   5.930   7.674 -0.7521  0.1513  0.8135
  120MOL0     C16488   7.544   5.936   8.438 -1.0923 -0.5760  0.0789
  120MOL0     C16489   7.590   5.907   8.571 -0.4500  0.3285 -0.8509
  120MOL0     C16490   7.552   5.783   8.624  0.0364 -0.8001 -0.0368
  120MOL0     H16491   7.675   6.318   8.969 -0.4475 -0.6920 -0.1633
  120MOL0     H16492   7.701   6.361   9.211 -2.6125 -0.5895 -1.4971
  120MOL0     H16493   7.704   6.290   9.442 -0.2207 -1.0468  1.2311
  120MOL0     H16494   7.833   6.417   9.429  0.4959  0.5921  1.7306
  120MOL0     H16495   7.773   6.350   9.683 -0.7774  0.2470 -1.4136
  120MOL0     H16496   7.835   6.192   9.637  0.2038 -0.8378  2.3868
  120MOL0     H16497   8.061   6.298   9.550  2.1295 -0.1828  3.5744
  120MOL0     H16498   8.002   6.445   9.615  3.3622  0.4350 -1.7858
  120MOL0     H16499   7.995   6.373   9.836 -0.7520  0.3356 -1.2999
  120MOL0     H16500   8.026   6.203   9.792  1.6930 -0.7652  3.5329
  120MOL0     H16501   8.216   6.453   9.754 -2.2899  0.6105 -1.3428
  120MOL0     H16502   8.246   6.296   9.686  0.8463  2.9749 -0.8478
  120MOL0     H16503   8.362   6.330   9.883 -0.1483  1.3297 -0.7786
  120MOL0     H16504   8.220   6.365   9.979  1.0362  1.5209 -0.2753
  120MOL0     H16505   8.243   6.099   9.820  2.0768 -1.5866  1.4111
  120MOL0     H16506   8.147   6.138   9.978  0.7818 -4.0559  2.3373
  120MOL0     H16507   8.456   6.091   9.968  0.0347  0.7513  2.1675
  120MOL0     H16508   8.359   6.118  10.107 -0.3830  1.5487 -0.3049
  120MOL0     H16509   8.279   5.872   9.800  2.5983 -0.1751  0.8300
  120MOL0     H16510   8.188   5.566   9.848  0.2855  1.0587  1.1447
  120MOL0     H16511   8.310   5.503   9.954  1.0699 -3.0228 -2.0213
  120MOL0     H16512   8.316   5.501   9.684  1.8379 -2.1883 -0.7752
  120MOL0     H16513   8.367   5.669   9.695  1.3664 -0.0078 -0.2156
  120MOL0     H16514   8.528   5.447   9.853  2.4822  3.0111  2.5695
  120MOL0     H16515   8.573   5.510   9.691 -1.4317  2.7758 -2.2616
  120MOL0     H16516   8.578   5.636   9.954  4.9372 -3.2382  0.3303
  120MOL0     H16517   8.705   5.603   9.860 -0.8803  0.7067  4.8897
  120MOL0     H16518   8.582   5.979   9.683  0.3464  0.2024 -1.7092
  120MOL0     H16519   8.638   6.201   9.636  1.8817 -0.5713 -1.4953
  120MOL0     H16520   8.791   6.271   9.703  0.8828  0.7481  2.0542
  120MOL0     H16521   8.640   6.296   9.788  0.2036  1.3369 -1.9086
  120MOL0     H16522   8.711   6.361  10.255 -1.1585  1.4363  2.2990
  120MOL0     H16523   8.797   6.559  10.388  1.3634  0.7230  0.0944
  120MOL0     H16524   9.167   6.708  10.269  1.6614  1.6224 -1.3956
  120MOL0     H16525   9.103   6.846  10.200  0.6128 -2.1329 -1.9840
  120MOL0     H16526   9.080   6.943  10.442  0.3232  0.9999  0.2398
  120MOL0     H16527   9.135   6.795  10.498 -0.9299 -0.6968 -0.1589
  120MOL0     H16528   9.283   6.988  10.310  1.2414  1.0225  1.0249
  120MOL0     H16529   9.363   6.835  10.362  1.0281  1.2840 -1.5785
  120MOL0     H16530   9.344   6.934  10.599 -2.2845  3.3787  1.9862
  120MOL0     H16531   9.256   7.064  10.529 -0.0999  0.0520  1.4749
  120MOL0     H16532   9.497   7.018  10.373 -3.4033  1.1349 -0.6433
  120MOL0     H16533   9.435   7.162  10.462  0.7507  0.6608 -0.1398
  120MOL0     H16534   9.666   7.064  10.508 -0.1184 -0.0702  0.0133
  120MOL0     H16535   9.595   6.917  10.571  0.3652  0.9133  2.4184
  120MOL0     H16536   9.633   7.085  10.764 -2.1667 -1.9233  4.0982
  120MOL0     H16537   9.468   7.019  10.751 -0.6871  1.6959  0.2646
  120MOL0     H16538   9.442   7.250  10.811 -3.9076 -0.6061 -1.0771
  120MOL0     H16539   9.382   7.228  10.646 -0.7448 -2.1468 -0.0783
  120MOL0     H16540   9.048   6.674  10.053  2.3285 -0.4086  1.3797
  120MOL0     H16541   8.958   6.494   9.929 -1.8130  0.9239 -1.2372
  120MOL0     H16542   8.843   5.962  10.096 -0.3049  1.6784  0.2534
  120MOL0     H16543   8.737   5.766  10.037 -1.9684  1.4205  4.4552
  120MOL0     H16544   7.956   6.017   9.239  0.7986  0.5642  0.2462
  120MOL0     H16545   7.921   5.970   8.999  0.2159  0.7969 -3.3359
  120MOL0     H16546   7.755   6.192   8.631  1.7864 -1.6973  0.0658
  120MOL0     H16547   7.698   6.237   8.389  0.1306  0.1695 -1.5240
  120MOL0     H16548   7.558   6.278   8.161 -4.0291 -1.1179 -0.2799
  120MOL0     H16549   7.704   6.191   8.169 -0.6521  3.8126  1.1066
  120MOL0     H16550   7.654   6.027   8.013  0.9666  0.2601 -0.3948
  120MOL0     H16551   7.626   6.186   7.940 -3.2467 -1.9420 -2.8242
  120MOL0     H16552   7.418   5.972   8.013 -2.4650  0.7842  1.1464
  120MOL0     H16553   7.368   6.138   8.053 -0.6859 -0.2735 -0.1572
  120MOL0     H16554   7.406   6.194   7.822 -2.3852  1.2928  0.9171
  120MOL0     H16555   7.287   6.072   7.842 -0.4309  2.4175  1.0126
  120MOL0     H16556   7.570   5.870   7.610  1.3851  2.2513  0.7106
  120MOL0     H16557   7.478   5.859   8.400 -1.8215 -1.0102  2.1162
  120MOL0     H16558   7.470   5.804   8.693  0.5771 -0.9530  0.6639
  120MOL0     H16559   7.530   5.717   8.539 -1.0722  1.3671 -1.5244
  120MOL0     H16560   7.625   5.741   8.694 -0.7260 -0.4344  0.9990
  121MOL0     O16561   3.364   5.801   9.350  0.5410  0.1846 -0.0139
  121MOL0     C16562   3.296   5.904   9.373 -0.5311  0.6065  0.5641
  121MOL0     O16563   3.206   5.968   9.282  0.0144 -0.1120  0.4981
  121MOL0     C16564   3.192   5.938   9.150 -0.8302  0.3574  0.1652
  121MOL0     C16565   3.114   6.025   9.074  0.1810 -0.4851 -0.5243
  121MOL0     C16566   3.078   6.001   8.944  0.1339 -0.5351 -0.5235
  121MOL0     C16567   3.113   5.878   8.886  0.3253 -0.6456  0.7702
  121MOL0     O16568   3.045   5.868   8.763  0.1993  0.4528  0.2336
  121MOL0     C16569   3.045   5.737   8.694  0.2791 -0.6875 -1.7209
  121MOL0     C16570   2.924   5.720   8.595 -1.3422 -0.4301 -0.0003
  121MOL0     C16571   2.791   5.735   8.669  0.1680 -0.0240 -0.4423
  121MOL0     C16572   2.689   5.657   8.579 -0.0017  0.1349  0.0668
  121MOL0     C16573   2.564   5.629   8.668  0.2553  0.2216  0.5034
  121MOL0     C16574   2.460   5.733   8.642 -0.9515 -0.0660  0.8029
  121MOL0     C16575   2.313   5.704   8.692  0.5573  0.3570 -0.4976
  121MOL0     C16576   2.211   5.811   8.629  0.5390 -0.5955 -0.5113
  121MOL0     N16577   2.073   5.802   8.692  0.2363  0.1618 -0.0363
  121MOL0     C16578   1.983   5.709   8.638 -0.6786  0.3225 -0.7809
  121MOL0     C16579   1.902   5.693   8.742  0.2159 -0.4793 -0.3189
  121MOL0     C16580   1.783   5.614   8.738  0.2485  0.1243 -0.1576
  121MOL0     C16581   1.686   5.646   8.619  1.0538 -0.5907  0.4863
  121MOL0     C16582   1.640   5.797   8.621  0.2669  0.8503  0.1615
  121MOL0     C16583   1.510   5.818   8.538  0.0195 -0.8496 -0.5547
  121MOL0     O16584   1.409   5.802   8.637 -0.1150  0.1628  0.1153
  121MOL0     C16585   1.298   5.733   8.612  0.4758  0.0164  0.4519
  121MOL0     C16586   1.226   5.685   8.721 -0.2713 -0.2851  0.3919
  121MOL0     C16587   1.104   5.612   8.708 -0.7755  1.3620 -0.4469
  121MOL0     C16588   1.032   5.567   8.836 -0.1518  0.4838 -0.0992
  121MOL0     C16589   1.053   5.582   8.575  0.1976 -0.3923 -0.4427
  121MOL0     C16590   0.926   5.519   8.543  0.2846  0.1295 -0.5932
  121MOL0     O16591   0.878   5.430   8.624 -0.0985 -0.3268 -0.0744
  121MOL0     C16592   0.758   5.383   8.606  0.1944 -0.2400  0.3732
  121MOL0     C16593   0.660   5.444   8.680  0.4630  0.5272 -0.5828
  121MOL0     C16594   0.525   5.404   8.662 -0.1854  0.1345 -0.0006
  121MOL0     C16595   0.486   5.299   8.579 -0.4511  0.6708 -0.3301
  121MOL0     O16596   0.353   5.265   8.579 -0.7454  0.3176 -0.7426
  121MOL0     C16597   0.325   5.119   8.558 -0.5519  0.0411 -0.3650
  121MOL0     C16598   0.185   5.093   8.575  0.8085 -0.0277 -0.1262
  121MOL0     C16599   0.147   4.936   8.575  0.7533 -0.5760  0.0657
  121MOL0     C16600  -0.006   4.917   8.594 -0.6026 -1.2223 -0.8477
  121MOL0     C16601  -0.039   4.779   8.540 -0.0039 -0.6355 -0.8190
  121MOL0     C16602   0.023   4.672   8.622 -0.0216  0.4383  0.2430
  121MOL0     C16603  -0.056   4.638   8.754 -0.4596 -0.5268 -0.0877
  121MOL0     C16604  -0.201   4.592   8.751 -0.6795 -0.3171 -0.2990
  121MOL0    Cl16605  -0.220   4.437   8.689 -0.2904  0.6071 -0.1116
  121MOL0     C16606   0.599   5.234   8.501 -0.4394 -1.2487 -0.3263
  121MOL0     C16607   0.728   5.277   8.522 -0.1891 -0.1104 -1.0615
  121MOL0     O16608   0.875   5.543   8.431 -0.2326 -0.4978  0.3491
  121MOL0     C16609   1.129   5.643   8.474 -0.0608 -0.3454  0.0459
  121MOL0     C16610   1.246   5.715   8.490 -0.6438 -0.0509  0.9284
  121MOL0     N16611   1.934   5.778   8.850 -0.2649  1.0699 -0.2432
  121MOL0     N16612   2.033   5.849   8.815 -0.1853  0.2280  0.2255
  121MOL0     C16613   3.195   5.793   8.956  0.8483  0.4871  0.2733
  121MOL0     C16614   3.236   5.817   9.084  0.5587 -0.0253 -0.6602
  121MOL0     C16615   3.321   5.971   9.513 -0.3224  0.1946 -0.8629
  121MOL0     C16616   3.287   5.896   9.621  0.3155 -0.3082 -0.1964
  121MOL0     C16617   3.303   5.937   9.752 -0.4710 -0.0477  0.2296
  121MOL0     C16618   3.363   6.058   9.772 -0.0531  0.3786 -0.1921
  121MOL0     O16619   3.397   6.099   9.907  0.5895  0.0913  0.0596
  121MOL0     C16620   3.527   6.063   9.938 -0.4753 -0.3032  0.5848
  121MOL0     C16621   3.531   5.981  10.070 -1.1606 -0.3492  0.4271
  121MOL0     C16622   3.428   6.023  10.177 -0.6598  0.1569  0.6780
  121MOL0     C16623   3.423   6.176  10.206  0.5442 -0.6375  0.5768
  121MOL0     C16624   3.346   6.207  10.323  0.0135  1.3682 -0.7621
  121MOL0     C16625   3.272   6.215  10.415 -0.9418 -0.3553  0.2915
  121MOL0     C16626   3.388   6.146   9.663 -0.0158  0.3342  0.1504
  121MOL0     C16627   3.367   6.108   9.532 -0.0513  0.8164  0.1289
  121MOL0     C16628   3.399   6.188   9.415  0.6039 -0.7003  0.6029
  121MOL0     H16629   3.088   6.113   9.131  2.7050 -0.8780  1.3900
  121MOL0     H16630   3.013   6.065   8.885 -1.1264 -2.4828 -1.3553
  121MOL0     H16631   3.060   5.652   8.761  1.0945 -0.4352 -1.5697
  121MOL0     H16632   3.133   5.745   8.628  2.4472 -2.7624  0.7029
  121MOL0     H16633   2.929   5.798   8.519  3.5424  0.5002  0.9732
  121MOL0     H16634   2.938   5.626   8.541 -0.2939  0.2652 -0.9714
  121MOL0     H16635   2.813   5.687   8.765 -2.8274  0.4394  0.5634
  121MOL0     H16636   2.769   5.842   8.675  1.2666  0.3268 -1.9688
  121MOL0     H16637   2.666   5.712   8.487 -0.0586  2.0763  1.2028
  121MOL0     H16638   2.726   5.559   8.547 -1.0508  0.2017 -1.4823
  121MOL0     H16639   2.596   5.613   8.771  1.5223 -2.8934 -0.2442
  121MOL0     H16640   2.514   5.539   8.631  1.3749  0.3729 -1.5188
  121MOL0     H16641   2.496   5.827   8.684  4.1414 -0.9602 -0.8726
  121MOL0     H16642   2.457   5.748   8.534 -0.5735 -1.8342  0.5137
  121MOL0     H16643   2.300   5.689   8.799  0.4295  2.0896 -0.2407
  121MOL0     H16644   2.285   5.608   8.647 -0.9115  1.3178 -1.7173
  121MOL0     H16645   2.259   5.905   8.659  0.5660 -1.0154  0.8563
  121MOL0     H16646   2.195   5.808   8.521 -0.6443 -2.1790 -0.3270
  121MOL0     H16647   1.984   5.662   8.540 -1.4012 -0.8820 -0.2213
  121MOL0     H16648   1.718   5.641   8.822 -1.4758 -0.0141 -1.3816
  121MOL0     H16649   1.792   5.505   8.743 -2.2130 -0.1600 -0.2617
  121MOL0     H16650   1.749   5.632   8.531  0.3838 -1.4741  0.1277
  121MOL0     H16651   1.603   5.575   8.614  0.9309 -0.4321  0.2723
  121MOL0     H16652   1.626   5.844   8.719 -1.1202  2.4841 -0.7683
  121MOL0     H16653   1.714   5.866   8.580  3.3210 -3.4353 -2.3070
  121MOL0     H16654   1.504   5.916   8.488 -2.3092 -1.4009 -1.5287
  121MOL0     H16655   1.497   5.734   8.469 -1.2924 -0.5332 -0.7271
  121MOL0     H16656   1.264   5.699   8.822 -1.2739 -3.2258  1.2757
  121MOL0     H16657   1.051   5.627   8.925  0.1211 -1.2475  1.0544
  121MOL0     H16658   1.042   5.461   8.862 -2.6005  0.3403  0.5729
  121MOL0     H16659   0.924   5.580   8.821 -1.4650 -1.8556  5.1996
  121MOL0     H16660   0.685   5.515   8.758  0.5733 -0.2530  0.1107
  121MOL0     H16661   0.445   5.446   8.723 -1.8970  1.0318 -2.6535
  121MOL0     H16662   0.362   5.093   8.459 -0.2467  2.7368 -1.0332
  121MOL0     H16663   0.385   5.066   8.633  0.4136  1.6812  0.0942
  121MOL0     H16664   0.151   5.153   8.660  0.4315  2.0701 -1.6680
  121MOL0     H16665   0.142   5.139   8.485  4.4880  1.1713 -1.4302
  121MOL0     H16666   0.203   4.887   8.655 -1.3484 -1.4247  1.0964
  121MOL0     H16667   0.179   4.890   8.481 -1.0474  3.3668 -2.7510
  121MOL0     H16668  -0.056   4.992   8.533  1.6462 -0.1418 -1.4776
  121MOL0     H16669  -0.045   4.922   8.696 -0.4230 -1.3384 -0.7723
  121MOL0     H16670  -0.147   4.766   8.550  0.4112 -3.2792  1.7179
  121MOL0     H16671  -0.014   4.757   8.436 -0.8400 -1.8521 -0.7781
  121MOL0     H16672   0.128   4.682   8.652 -0.8753  1.0241  3.4250
  121MOL0     H16673   0.018   4.582   8.559  1.5373 -0.1640  0.9166
  121MOL0     H16674  -0.052   4.737   8.802 -1.8052 -0.1533 -0.7096
  121MOL0     H16675   0.001   4.558   8.801 -3.2503 -3.3278 -1.1426
  121MOL0     H16676  -0.264   4.665   8.700 -0.7060 -0.8398 -1.0287
  121MOL0     H16677  -0.222   4.610   8.857  0.5893  1.4616 -0.2987
  121MOL0     H16678   0.578   5.178   8.411  1.0521 -0.6080 -1.1094
  121MOL0     H16679   0.802   5.232   8.457  0.6885  1.7886 -1.4380
  121MOL0     H16680   1.094   5.643   8.371  1.2042 -0.1924 -0.4019
  121MOL0     H16681   1.301   5.770   8.415  1.8666  1.2400  3.5357
  121MOL0     H16682   3.229   5.700   8.911 -1.0117 -0.3523  0.5147
  121MOL0     H16683   3.304   5.743   9.124  0.7718 -0.0401 -1.0480
  121MOL0     H16684   3.232   5.804   9.602 -3.2296  0.8497  3.1610
  121MOL0     H16685   3.282   5.869   9.835  1.7980 -2.7648 -1.2379
  121MOL0     H16686   3.585   6.015   9.858  0.2954  0.0584  0.9262
  121MOL0     H16687   3.579   6.155   9.962 -0.6011 -0.2492  0.6506
  121MOL0     H16688   3.631   6.000  10.111 -1.2219 -1.2285  0.9964
  121MOL0     H16689   3.524   5.876  10.040  1.7594  0.1362 -2.5251
  121MOL0     H16690   3.332   5.996  10.131 -1.5654  2.3439  1.1524
  121MOL0     H16691   3.454   5.964  10.265  1.6899  1.7315  1.1280
  121MOL0     H16692   3.374   6.232  10.126  0.8066 -1.6274 -0.2915
  121MOL0     H16693   3.520   6.223  10.229 -0.3227  0.5513  2.0411
  121MOL0     H16694   3.201   6.229  10.494 -1.0474  0.0815  0.1243
  121MOL0     H16695   3.432   6.241   9.692  1.7428 -0.5130  0.4329
  121MOL0     H16696   3.308   6.209   9.357 -1.5187 -2.0482  3.2136
  121MOL0     H16697   3.428   6.287   9.449 -0.0114 -0.0871 -0.6100
  121MOL0     H16698   3.482   6.142   9.360  1.9007 -0.4294  2.2401
  122MOL0     O16699   3.801   4.465  10.854  0.2225 -0.1263 -0.2711
  122MOL0     C16700   3.702   4.535  10.886  0.3115 -0.0131  0.1894
  122MOL0     O16701   3.691   4.668  10.863 -0.2965  0.5490  0.6395
  122MOL0     C16702   3.802   4.743  10.826  0.7291  0.5809  1.2018
  122MOL0     C16703   3.830   4.750  10.690 -0.2790  0.2052  0.8564
  122MOL0     C16704   3.939   4.820  10.640  0.5598  0.5177  0.0688
  122MOL0     C16705   4.021   4.889  10.728 -0.8041  0.4144 -0.2839
  122MOL0     O16706   4.127   4.960  10.682  0.0036  0.2134  0.2947
  122MOL0     C16707   4.252   4.894  10.672  0.0131  0.3450  0.2365
  122MOL0     C16708   4.369   4.963  10.755  0.1894  0.0843 -0.5020
  122MOL0     C16709   4.415   4.867  10.860 -0.4936 -0.6176  0.1526
  122MOL0     C16710   4.568   4.867  10.900 -0.3241 -0.5485  0.8104
  122MOL0     C16711   4.616   5.000  10.956 -0.6305  0.2954  1.3488
  122MOL0     C16712   4.741   4.984  11.037 -0.1957 -0.1004  0.1165
  122MOL0     C16713   4.805   5.112  11.105  0.4380  0.3693 -0.2753
  122MOL0     C16714   4.711   5.187  11.205  0.0920 -0.1855  0.2939
  122MOL0     N16715   4.772   5.306  11.266  0.3080 -1.0633 -0.0578
  122MOL0     C16716   4.902   5.288  11.323  0.7457  0.2287  0.3706
  122MOL0     C16717   4.934   5.414  11.369 -0.6952 -0.5829 -0.5325
  122MOL0     C16718   5.068   5.467  11.423 -0.1533 -0.0417 -0.4522
  122MOL0     C16719   5.128   5.552  11.322 -0.6579 -0.7641 -0.9370
  122MOL0     C16720   5.254   5.614  11.372  0.1113 -0.6321 -0.1744
  122MOL0     C16721   5.334   5.680  11.259 -0.0275  0.5280  0.2394
  122MOL0     O16722   5.440   5.760  11.300 -0.7845 -0.5775 -0.0445
  122MOL0     C16723   5.494   5.857  11.220  0.1071  1.5394  0.6174
  122MOL0     C16724   5.444   5.888  11.089  0.6667 -0.1768  0.1878
  122MOL0     C16725   5.505   5.992  11.022  0.1448 -0.6557 -0.6754
  122MOL0     C16726   5.440   6.017  10.886  0.6416 -0.0924 -0.0659
  122MOL0     C16727   5.607   6.072  11.076  0.3166 -1.0256  0.2506
  122MOL0     C16728   5.659   6.200  11.019 -0.4949  0.5371  1.3405
  122MOL0     O16729   5.713   6.282  11.104 -0.3379  0.6935 -0.8215
  122MOL0     C16730   5.791   6.391  11.065  1.0823  1.0265  0.2632
  122MOL0     C16731   5.927   6.380  11.083 -0.1817  0.7838 -0.7437
  122MOL0     C16732   6.016   6.486  11.043 -0.0237  0.2492 -0.9780
  122MOL0     C16733   5.963   6.601  10.979 -0.6832  0.9184  0.7240
  122MOL0     O16734   6.036   6.712  10.935  0.7226  0.6903  0.6948
  122MOL0     C16735   6.139   6.749  11.024 -0.3066  0.9046 -0.7538
  122MOL0     C16736   6.233   6.844  10.944 -0.2106 -0.9566 -0.6401
  122MOL0     C16737   6.282   6.782  10.810  0.6227 -0.0636 -0.3564
  122MOL0     C16738   6.374   6.878  10.734  0.4638 -1.3253 -0.5056
  122MOL0     C16739   6.436   6.833  10.603  0.1028  1.3865  0.3796
  122MOL0     C16740   6.333   6.807  10.495 -0.5770 -0.2727 -1.1178
  122MOL0     C16741   6.387   6.746  10.367  0.0171 -0.0319  0.1630
  122MOL0     C16742   6.279   6.694  10.263  0.3856  0.3038  0.0068
  122MOL0    Cl16743   6.340   6.553  10.160  0.1311  0.0496  0.1693
  122MOL0     C16744   5.828   6.606  10.946 -0.1697  0.5533  0.3313
  122MOL0     C16745   5.741   6.498  10.980  0.3351  0.5825  0.6314
  122MOL0     O16746   5.650   6.223  10.898  0.2514 -1.0055 -0.3633
  122MOL0     C16747   5.653   6.038  11.204  0.0228 -0.7780  0.7234
  122MOL0     C16748   5.586   5.937  11.277  0.6206 -0.8878  1.3969
  122MOL0     N16749   4.830   5.490  11.331 -0.1508 -0.2420  0.4177
  122MOL0     N16750   4.739   5.434  11.261  0.2606 -0.5320  0.4945
  122MOL0     C16751   3.996   4.879  10.871 -0.2942 -0.7510  0.7329
  122MOL0     C16752   3.886   4.810  10.915 -0.4623  0.3406  0.1632
  122MOL0     C16753   3.595   4.459  10.944  0.5376 -0.2444 -0.4886
  122MOL0     C16754   3.619   4.406  11.073  0.0375 -0.5169  0.9157
  122MOL0     C16755   3.516   4.337  11.136  0.3290 -0.1533 -0.4369
  122MOL0     C16756   3.394   4.320  11.074  0.2447  0.2217  0.5133
  122MOL0     O16757   3.288   4.238  11.124  0.8327  0.3143  0.2118
  122MOL0     C16758   3.167   4.308  11.152  1.1571  0.0653  0.6420
  122MOL0     C16759   3.140   4.286  11.306  0.5912  1.1396 -0.2391
  122MOL0     C16760   3.245   4.365  11.385 -0.5321  0.6100 -0.6653
  122MOL0     C16761   3.229   4.317  11.528  0.1249  0.4610 -0.0054
  122MOL0     C16762   3.282   4.425  11.615  0.3922  0.0138  0.4831
  122MOL0     C16763   3.343   4.503  11.689  0.1452  0.1459  0.3293
  122MOL0     C16764   3.370   4.376  10.946 -0.0323  0.1359 -0.4341
  122MOL0     C16765   3.467   4.450  10.874  0.3885 -0.3482  0.6081
  122MOL0     C16766   3.430   4.549  10.761 -0.0176  0.2295 -0.4886
  122MOL0     H16767   3.752   4.702  10.630 -1.4164  0.1663  2.3176
  122MOL0     H16768   3.938   4.838  10.533 -0.0480  1.0719  0.1525
  122MOL0     H16769   4.282   4.912  10.568 -1.6245 -0.6169 -0.4323
  122MOL0     H16770   4.251   4.785  10.677  1.2061  0.3905  2.6560
  122MOL0     H16771   4.454   4.976  10.688  2.6869  0.0711  2.4139
  122MOL0     H16772   4.344   5.060  10.798  3.3168  1.3855 -1.3676
  122MOL0     H16773   4.359   4.889  10.951 -0.1903  0.5483  0.0821
  122MOL0     H16774   4.389   4.766  10.829  1.7583 -0.9882 -0.7353
  122MOL0     H16775   4.583   4.795  10.980 -1.7991 -0.8810  0.8156
  122MOL0     H16776   4.632   4.829  10.820  0.5801 -2.5110  2.3801
  122MOL0     H16777   4.541   5.031  11.030  0.1376 -1.6505  3.0324
  122MOL0     H16778   4.618   5.083  10.884 -2.0574  1.6356  2.7740
  122MOL0     H16779   4.719   4.908  11.113 -0.5984  0.1253  0.2298
  122MOL0     H16780   4.820   4.947  10.971  2.7137  2.1024  2.1106
  122MOL0     H16781   4.825   5.186  11.028 -0.8683  0.9130 -0.1182
  122MOL0     H16782   4.900   5.092  11.155  1.1703  0.1795 -1.7226
  122MOL0     H16783   4.619   5.217  11.156 -1.7796 -3.0803  1.7153
  122MOL0     H16784   4.690   5.118  11.288 -6.1394 -2.8172 -2.8083
  122MOL0     H16785   4.960   5.199  11.340 -0.3307 -0.0904  2.8805
  122MOL0     H16786   5.139   5.387  11.449  0.9195  1.6537  2.2347
  122MOL0     H16787   5.046   5.525  11.513  0.5138 -0.1576 -0.2063
  122MOL0     H16788   5.150   5.493  11.232  2.0119  0.0301 -0.8839
  122MOL0     H16789   5.055   5.633  11.316  0.7397  0.5840 -0.3110
  122MOL0     H16790   5.225   5.686  11.450 -0.0989  1.6487 -2.2496
  122MOL0     H16791   5.333   5.552  11.414  1.6017 -1.4370 -3.8542
  122MOL0     H16792   5.376   5.609  11.187  0.3857  1.4320 -0.4240
  122MOL0     H16793   5.250   5.721  11.202 -1.6401 -0.7105  1.6288
  122MOL0     H16794   5.371   5.826  11.039  0.8565 -1.0321  0.9506
  122MOL0     H16795   5.359   6.090  10.893  0.8621  0.0691  0.9857
  122MOL0     H16796   5.388   5.928  10.849  0.5167  0.1387 -0.4523
  122MOL0     H16797   5.514   6.049  10.812  0.0963  1.6320  0.1043
  122MOL0     H16798   5.970   6.289  11.125 -2.1889 -0.3305 -0.9803
  122MOL0     H16799   6.123   6.476  11.059  0.4544  1.8990 -2.7499
  122MOL0     H16800   6.103   6.797  11.115  0.0346 -0.0448 -0.1065
  122MOL0     H16801   6.198   6.661  11.052 -3.2152 -0.2603  2.2643
  122MOL0     H16802   6.175   6.937  10.942 -1.2805 -1.6099 -0.9905
  122MOL0     H16803   6.321   6.870  11.004 -1.5677  1.6989  0.3626
  122MOL0     H16804   6.201   6.763  10.740  1.2575 -1.3535 -0.7845
  122MOL0     H16805   6.320   6.682  10.833  0.8812  0.1801  0.3071
  122MOL0     H16806   6.442   6.925  10.806  0.0759 -0.2586 -0.8144
  122MOL0     H16807   6.301   6.956  10.708 -0.9403 -1.8159  1.7280
  122MOL0     H16808   6.504   6.911  10.566 -1.7639  2.9131  0.0180
  122MOL0     H16809   6.494   6.743  10.625 -2.5189 -0.4467  0.1738
  122MOL0     H16810   6.306   6.910  10.469  2.6660  0.7679 -0.7842
  122MOL0     H16811   6.244   6.751  10.525  0.4379 -2.1608 -1.5211
  122MOL0     H16812   6.451   6.666  10.404 -0.8244 -0.3947  0.8412
  122MOL0     H16813   6.457   6.813  10.315 -1.7781  0.2871 -1.9894
  122MOL0     H16814   6.240   6.769  10.194 -2.5082 -1.3692 -0.3428
  122MOL0     H16815   6.204   6.646  10.327  1.2932 -2.9337 -1.1658
  122MOL0     H16816   5.798   6.691  10.886  0.1928 -0.1558 -0.8775
  122MOL0     H16817   5.639   6.493  10.944 -0.2552  2.7613  1.7853
  122MOL0     H16818   5.725   6.105  11.251 -0.6027 -0.2829  0.9981
  122MOL0     H16819   5.605   5.930  11.384  2.0606  4.0164  1.7457
  122MOL0     H16820   4.061   4.943  10.930  1.4418 -0.2375 -1.5766
  122MOL0     H16821   3.866   4.818  11.021  3.9141  0.6156  1.1696
  122MOL0     H16822   3.717   4.408  11.120  0.3332 -2.5857  0.4912
  122MOL0     H16823   3.523   4.291  11.234 -0.8661 -0.0634 -0.2978
  122MOL0     H16824   3.162   4.416  11.133 -2.4729 -0.0463  0.3968
  122MOL0     H16825   3.087   4.264  11.092  4.3987 -2.1564 -2.4817
  122MOL0     H16826   3.141   4.181  11.339 -0.5656  1.8000  2.1696
  122MOL0     H16827   3.039   4.324  11.322 -0.3021 -1.2488  0.2640
  122MOL0     H16828   3.344   4.344  11.346 -1.0987  1.5457 -2.7263
  122MOL0     H16829   3.226   4.472  11.375 -0.8906  0.7404  0.9846
  122MOL0     H16830   3.279   4.223  11.552  1.6786  2.0162  3.6535
  122MOL0     H16831   3.125   4.292  11.549  0.6655 -1.7799  0.2806
  122MOL0     H16832   3.384   4.590  11.736  2.2639 -0.5745 -0.0578
  122MOL0     H16833   3.277   4.370  10.891 -0.1922  2.7974 -0.5769
  122MOL0     H16834   3.509   4.548  10.685  0.7889 -0.4278  0.3409
  122MOL0     H16835   3.333   4.535  10.713 -0.2900  2.1507 -0.5865
  122MOL0     H16836   3.413   4.645  10.810 -0.6639 -0.0884 -0.0941
  123MOL0     O16837   7.732   9.149   2.585 -0.8048  0.0390 -0.3079
  123MOL0     C16838   7.785   9.096   2.488  0.0274 -0.5341 -0.0132
  123MOL0     O16839   7.818   9.165   2.373  0.1338  0.2016  0.4650
  123MOL0     C16840   7.755   9.280   2.340  1.0398 -0.4035  0.2868
  123MOL0     C16841   7.776   9.404   2.409  0.6857 -0.3997  0.2651
  123MOL0     C16842   7.706   9.516   2.370 -0.3343  0.4980  0.1255
  123MOL0     C16843   7.629   9.513   2.247  0.4493  0.5903  0.2858
  123MOL0     O16844   7.556   9.622   2.209 -0.5798 -0.4282  0.3960
  123MOL0     C16845   7.470   9.681   2.313  0.0628 -0.0139 -0.1819
  123MOL0     C16846   7.351   9.737   2.245 -0.0176  0.7474  0.0840
  123MOL0     C16847   7.265   9.612   2.212 -0.0272  0.6743 -0.2105
  123MOL0     C16848   7.124   9.652   2.255  0.5527 -0.3017 -0.2772
  123MOL0     C16849   7.035   9.532   2.224  0.3561 -0.3809  0.6271
  123MOL0     C16850   7.001   9.521   2.077  0.8600 -0.0155 -0.7827
  123MOL0     C16851   6.909   9.641   2.029  0.0109  0.2959  0.1012
  123MOL0     C16852   6.788   9.595   1.948  0.6391  0.0916 -0.1788
  123MOL0     N16853   6.684   9.693   1.975  0.1159  0.0243 -0.1933
  123MOL0     C16854   6.659   9.818   1.919 -0.3116 -0.3241 -0.6665
  123MOL0     C16855   6.541   9.866   1.974 -0.8045  0.1592 -0.2089
  123MOL0     C16856   6.505  10.004   1.955 -0.0555  0.5363 -0.2405
  123MOL0     C16857   6.362  10.022   1.981 -0.4431  0.1994  0.3835
  123MOL0     C16858   6.314  10.021   2.119  1.4695  1.0640 -0.6406
  123MOL0     C16859   6.166  10.053   2.145 -0.7717 -0.4944 -0.5765
  123MOL0     O16860   6.112  10.139   2.034 -0.4145  0.1500  0.0887
  123MOL0     C16861   5.978  10.171   2.037 -0.0734  0.3099 -0.8932
  123MOL0     C16862   5.881  10.105   2.112 -1.5441  0.1996 -0.2635
  123MOL0     C16863   5.746  10.130   2.088  0.3414 -0.0542  0.0824
  123MOL0     C16864   5.649  10.067   2.177  0.6572  0.7259  0.8917
  123MOL0     C16865   5.705  10.227   1.988 -0.3558 -0.4299  1.2599
  123MOL0     C16866   5.569  10.253   1.952 -0.1809  0.7364 -0.5672
  123MOL0     O16867   5.475  10.146   1.940  0.1783  0.7676  0.1542
  123MOL0     C16868   5.367  10.155   1.866  0.3858 -0.4000 -0.3383
  123MOL0     C16869   5.373  10.199   1.737  1.1720 -0.5459 -0.1248
  123MOL0     C16870   5.260  10.213   1.658  0.3453  0.9929  0.0732
  123MOL0     C16871   5.132  10.168   1.702 -0.5092 -0.4866 -1.0791
  123MOL0     O16872   5.024  10.204   1.622 -0.4164  0.2863  0.1299
  123MOL0     C16873   4.900  10.136   1.623  0.1863 -0.1710  0.1212
  123MOL0     C16874   4.808  10.211   1.722  0.1146 -0.3643 -0.0202
  123MOL0     C16875   4.752  10.356   1.692 -1.1569  0.1919 -0.9217
  123MOL0     C16876   4.682  10.425   1.808  1.5145  0.8149  0.5620
  123MOL0     C16877   4.530  10.396   1.824  0.3667 -0.3193 -0.2893
  123MOL0     C16878   4.451  10.502   1.727 -1.0706  0.7863 -0.9465
  123MOL0     C16879   4.339  10.442   1.644  0.1049 -0.2728 -1.0633
  123MOL0     C16880   4.219  10.411   1.738  0.3431  0.4231  0.7687
  123MOL0    Cl16881   4.123  10.274   1.653 -0.2560 -0.0837 -0.4025
  123MOL0     C16882   5.122  10.110   1.827  0.8140  1.0443  0.0840
  123MOL0     C16883   5.243  10.094   1.901  0.4374  0.1685 -0.3051
  123MOL0     O16884   5.548  10.371   1.914  0.3081 -0.9011  0.3838
  123MOL0     C16885   5.812  10.307   1.933  1.3703 -0.0423 -0.1641
  123MOL0     C16886   5.936  10.274   1.954 -0.0095 -0.5262 -0.4639
  123MOL0     N16887   6.486   9.755   2.048  0.2863 -0.2516  0.7756
  123MOL0     N16888   6.572   9.655   2.037  0.1640  0.2789 -0.3873
  123MOL0     C16889   7.596   9.387   2.186  0.5692 -0.0107 -0.8299
  123MOL0     C16890   7.663   9.270   2.232 -1.9959 -0.1173  0.6670
  123MOL0     C16891   7.818   8.956   2.499 -0.7887  1.3986 -0.5812
  123MOL0     C16892   7.864   8.906   2.624 -0.3688 -0.4507  0.3762
  123MOL0     C16893   7.900   8.770   2.637 -0.6139 -0.2286  0.0199
  123MOL0     C16894   7.890   8.681   2.528 -0.2813  0.8133  0.7485
  123MOL0     O16895   7.954   8.564   2.525  0.7292 -0.0412  0.5744
  123MOL0     C16896   7.955   8.489   2.650 -1.0456 -0.5696  1.5038
  123MOL0     C16897   8.010   8.349   2.599  0.0858  0.7135 -0.4558
  123MOL0     C16898   7.992   8.268   2.726 -0.5359 -0.1343  0.3797
  123MOL0     C16899   8.017   8.121   2.712  0.0439  0.6885  0.1196
  123MOL0     C16900   8.156   8.081   2.741 -0.7884  0.3818 -0.4752
  123MOL0     C16901   8.271   8.059   2.770  0.2295 -0.1354 -0.3202
  123MOL0     C16902   7.839   8.732   2.411  0.1645 -0.4713  0.0122
  123MOL0     C16903   7.789   8.865   2.392 -0.3374  0.4470  0.5211
  123MOL0     C16904   7.709   8.901   2.271  0.4421 -0.3123 -1.0373
  123MOL0     H16905   7.835   9.427   2.497 -1.2227  0.2697  1.4335
  123MOL0     H16906   7.719   9.610   2.423 -0.4251  0.8422 -0.4527
  123MOL0     H16907   7.517   9.767   2.361  0.4460  0.4602 -1.3721
  123MOL0     H16908   7.446   9.609   2.391  0.1054 -1.7092 -1.6703
  123MOL0     H16909   7.297   9.813   2.303 -1.8670 -2.0026  2.2364
  123MOL0     H16910   7.369   9.783   2.148 -3.1440 -0.3666 -1.1643
  123MOL0     H16911   7.279   9.585   2.107  1.0981  1.2431 -0.2239
  123MOL0     H16912   7.298   9.525   2.269 -2.2989  0.9775  1.7131
  123MOL0     H16913   7.124   9.660   2.364 -0.3877 -0.9231 -0.2196
  123MOL0     H16914   7.096   9.743   2.201  0.0402  0.3062  0.9865
  123MOL0     H16915   6.944   9.544   2.285  0.4078 -0.0745  0.6489
  123MOL0     H16916   7.076   9.437   2.260 -1.7772 -2.9592 -3.0951
  123MOL0     H16917   7.093   9.516   2.017  1.9445  0.7646  0.7385
  123MOL0     H16918   6.963   9.422   2.050  2.6579 -0.7548 -0.7582
  123MOL0     H16919   6.965   9.712   1.967 -1.3084 -0.9845 -2.6991
  123MOL0     H16920   6.872   9.690   2.120  0.0146 -0.5337  0.5578
  123MOL0     H16921   6.810   9.588   1.841 -3.6235  4.3551 -1.6825
  123MOL0     H16922   6.753   9.498   1.986  0.3580 -0.7022 -2.3188
  123MOL0     H16923   6.721   9.875   1.850  0.5712  0.6268  0.8545
  123MOL0     H16924   6.518  10.021   1.848 -3.8941 -1.5080 -1.2415
  123MOL0     H16925   6.552  10.075   2.025 -1.8173  1.0579  0.4812
  123MOL0     H16926   6.355  10.119   1.931  1.3065 -0.3874 -1.1308
  123MOL0     H16927   6.309   9.959   1.909  0.5557  2.1087 -2.1850
  123MOL0     H16928   6.338   9.925   2.165  0.9081 -0.8779 -4.1171
  123MOL0     H16929   6.369  10.081   2.192  0.0041  1.0092  0.5695
  123MOL0     H16930   6.117   9.955   2.153 -1.0039 -0.2360  4.2106
  123MOL0     H16931   6.172  10.096   2.245  2.9339 -0.3664 -0.7287
  123MOL0     H16932   5.893  10.033   2.192 -2.7218  0.1593 -0.1065
  123MOL0     H16933   5.603  10.160   2.214 -1.2881 -0.1523  0.8148
  123MOL0     H16934   5.696  10.009   2.257  0.1521 -2.5668 -1.0246
  123MOL0     H16935   5.582   9.998   2.124  1.0840 -0.6003  2.0324
  123MOL0     H16936   5.466  10.236   1.695  0.7581 -2.4620 -3.0354
  123MOL0     H16937   5.274  10.250   1.557  0.7849 -3.4698 -1.7181
  123MOL0     H16938   4.846  10.148   1.528 -0.3772  1.0759  0.5771
  123MOL0     H16939   4.913  10.032   1.654  2.7306 -0.4842 -1.6830
  123MOL0     H16940   4.718  10.149   1.724 -1.4401  1.7801  1.5219
  123MOL0     H16941   4.845  10.203   1.825 -1.4046  0.2672  0.6092
  123MOL0     H16942   4.679  10.357   1.611 -0.8732 -1.3018 -1.2309
  123MOL0     H16943   4.836  10.421   1.666 -0.4270 -1.1143 -1.9157
  123MOL0     H16944   4.713  10.529   1.795  1.4532  0.5915 -1.7482
  123MOL0     H16945   4.740  10.385   1.892  2.1296 -3.5916 -1.6860
  123MOL0     H16946   4.512  10.292   1.793  1.7118 -1.5578  2.7389
  123MOL0     H16947   4.495  10.410   1.926  1.2815  0.9063 -0.1189
  123MOL0     H16948   4.525  10.558   1.670 -1.0804 -0.0986 -1.8571
  123MOL0     H16949   4.406  10.576   1.794 -0.2465 -0.8315  1.5289
  123MOL0     H16950   4.377  10.354   1.592  1.2216  0.3707 -1.3619
  123MOL0     H16951   4.311  10.515   1.567  1.1213  0.6570 -0.5832
  123MOL0     H16952   4.161  10.503   1.745  3.0489  2.3720 -0.5964
  123MOL0     H16953   4.242  10.388   1.842  1.2055 -0.8277  0.3321
  123MOL0     H16954   5.027  10.078   1.868  1.0723 -1.2630 -0.9339
  123MOL0     H16955   5.249  10.034   1.991  0.4080 -3.1783 -2.3327
  123MOL0     H16956   5.792  10.388   1.864 -1.7933 -1.0175 -0.5413
  123MOL0     H16957   6.018  10.323   1.903 -2.0288  0.6571 -2.8007
  123MOL0     H16958   7.526   9.373   2.104  1.6915  0.4236 -1.8788
  123MOL0     H16959   7.667   9.184   2.165 -1.7502 -0.1153  0.6807
  123MOL0     H16960   7.864   8.969   2.712 -2.0536  0.6635 -0.3764
  123MOL0     H16961   7.951   8.752   2.731  0.1382  3.6745  0.5332
  123MOL0     H16962   8.031   8.534   2.714 -1.6449 -0.7696  2.3808
  123MOL0     H16963   7.864   8.485   2.710 -2.2166 -1.3832 -0.2441
  123MOL0     H16964   8.114   8.364   2.568  0.0690 -0.5109 -1.2013
  123MOL0     H16965   7.955   8.307   2.514 -1.7210  0.6876  0.6831
  123MOL0     H16966   8.059   8.298   2.806 -1.2168  1.4472  0.3924
  123MOL0     H16967   7.891   8.278   2.766  0.3947  1.6040  2.4746
  123MOL0     H16968   7.996   8.084   2.612  0.7557 -1.4843  0.7090
  123MOL0     H16969   7.949   8.073   2.784  1.2931  0.1281  0.9678
  123MOL0     H16970   8.370   8.051   2.811  0.8677  1.1768 -1.4743
  123MOL0     H16971   7.832   8.656   2.333  2.5812 -0.8816  0.1048
  123MOL0     H16972   7.685   8.811   2.214 -1.0919 -0.0951 -0.7697
  123MOL0     H16973   7.616   8.951   2.300  1.5201  1.2848 -0.1539
  123MOL0     H16974   7.773   8.969   2.213  1.9585  0.7860  1.7120
  124MOL0     O16975   8.772   8.367   6.838  0.7295 -0.2121  0.3925
  124MOL0     C16976   8.657   8.400   6.834  0.1653 -0.4528 -0.6348
  124MOL0     O16977   8.549   8.315   6.826 -0.6456  0.3201 -0.0303
  124MOL0     C16978   8.556   8.181   6.842 -0.0511  0.4341  0.4293
  124MOL0     C16979   8.442   8.108   6.794 -0.8702 -0.3882 -0.3081
  124MOL0     C16980   8.438   7.967   6.796 -0.6991  0.0024 -0.6602
  124MOL0     C16981   8.555   7.898   6.835  0.3585  0.2038  0.9899
  124MOL0     O16982   8.578   7.764   6.840 -0.2685 -0.3755 -0.0003
  124MOL0     C16983   8.499   7.677   6.755 -0.0282 -0.5679 -1.1800
  124MOL0     C16984   8.385   7.625   6.848  0.1005  0.1750  1.4641
  124MOL0     C16985   8.428   7.562   6.978  0.4451  0.3148  0.4617
  124MOL0     C16986   8.314   7.517   7.069  0.5956  0.3187  0.0502
  124MOL0     C16987   8.374   7.475   7.209  0.2487 -0.0448 -0.0503
  124MOL0     C16988   8.255   7.465   7.316 -0.0211  0.7181  1.3776
  124MOL0     C16989   8.285   7.459   7.459 -1.7405 -0.4727 -0.5566
  124MOL0     C16990   8.399   7.370   7.497  0.1116  0.3200  0.2597
  124MOL0     N16991   8.395   7.309   7.631  0.2183 -0.2889  0.2504
  124MOL0     C16992   8.288   7.298   7.718 -0.1888  0.6121  0.1288
  124MOL0     C16993   8.349   7.241   7.830  0.1879  0.6089  0.8415
  124MOL0     C16994   8.300   7.234   7.970 -0.9262 -0.0629 -0.2169
  124MOL0     C16995   8.164   7.159   7.991  0.3763 -1.0124  0.7620
  124MOL0     C16996   8.146   7.121   8.135  1.1730 -0.1243  0.6471
  124MOL0     C16997   8.007   7.056   8.172  0.2863  0.2244 -0.1275
  124MOL0     O16998   7.883   7.117   8.132 -0.7534  0.4098 -1.1659
  124MOL0     C16999   7.818   7.185   8.234  0.4508 -0.2103 -0.8050
  124MOL0     C17000   7.838   7.320   8.251  0.0788 -0.6406 -0.2117
  124MOL0     C17001   7.758   7.393   8.334  1.1025 -0.8170 -0.4141
  124MOL0     C17002   7.767   7.543   8.322  0.3172 -1.2145 -0.4386
  124MOL0     C17003   7.661   7.329   8.417 -0.0064  0.2071 -0.4480
  124MOL0     C17004   7.562   7.404   8.498  0.5116  0.5165 -0.7655
  124MOL0     O17005   7.436   7.353   8.511 -0.1501 -0.3947  0.2362
  124MOL0     C17006   7.329   7.438   8.495 -0.2294 -0.2696  0.1102
  124MOL0     C17007   7.335   7.569   8.437 -0.5176 -0.7538  0.3079
  124MOL0     C17008   7.221   7.641   8.431 -0.6601 -0.8443 -1.7322
  124MOL0     C17009   7.096   7.584   8.445 -0.6563 -0.2164 -0.1205
  124MOL0     O17010   6.986   7.657   8.438 -0.0067 -0.0724 -0.4710
  124MOL0     C17011   6.959   7.745   8.325 -0.0108 -0.0860 -0.4601
  124MOL0     C17012   6.836   7.825   8.359  0.2063 -0.4505 -0.4925
  124MOL0     C17013   6.807   7.922   8.250 -0.1144  0.3551 -0.3774
  124MOL0     C17014   6.914   7.985   8.160  0.3169  0.3049  0.6658
  124MOL0     C17015   6.858   8.091   8.061  0.4282 -0.4826  0.1545
  124MOL0     C17016   6.973   8.139   7.976  0.6949  0.2503  0.8041
  124MOL0     C17017   6.969   8.055   7.847 -0.2715 -0.4316 -0.3201
  124MOL0     C17018   7.028   8.122   7.725  0.2235 -0.2769  0.2994
  124MOL0    Cl17019   7.052   8.002   7.591  0.2162 -0.2029 -0.4287
  124MOL0     C17020   7.093   7.452   8.484  0.7618  0.5828 -0.1256
  124MOL0     C17021   7.204   7.378   8.512  0.0846  0.5588  0.0749
  124MOL0     O17022   7.594   7.501   8.562  0.2406 -0.7637  0.6558
  124MOL0     C17023   7.654   7.188   8.415  0.2893 -0.5494  0.7587
  124MOL0     C17024   7.732   7.118   8.326 -1.1510 -0.3737 -0.2563
  124MOL0     N17025   8.482   7.212   7.808  0.0066  0.2069 -0.3226
  124MOL0     N17026   8.509   7.251   7.690  0.0652 -0.2560 -0.4831
  124MOL0     C17027   8.656   7.970   6.890  0.3960  0.0637  0.1117
  124MOL0     C17028   8.664   8.106   6.894 -0.1886 -0.3530  0.5574
  124MOL0     C17029   8.630   8.550   6.839 -0.1815  0.0985  0.9256
  124MOL0     C17030   8.494   8.591   6.809 -0.5036 -0.1889 -0.4458
  124MOL0     C17031   8.453   8.722   6.821 -0.9383  0.5521  0.4248
  124MOL0     C17032   8.543   8.820   6.842  0.7837 -1.1547 -0.0375
  124MOL0     O17033   8.489   8.946   6.858  0.0526 -0.7756  0.1587
  124MOL0     C17034   8.566   9.066   6.833  0.6944  0.5626  0.1838
  124MOL0     C17035   8.451   9.171   6.846  0.5101  0.1522 -0.2923
  124MOL0     C17036   8.504   9.317   6.848  0.4970 -0.5657  0.5416
  124MOL0     C17037   8.590   9.359   6.974 -0.0597  0.0774  0.9369
  124MOL0     C17038   8.605   9.504   7.000  1.2268  0.5172 -0.0051
  124MOL0     C17039   8.618   9.623   7.020 -0.0746  1.0312  0.3362
  124MOL0     C17040   8.676   8.792   6.849 -0.2150  0.4460 -0.6417
  124MOL0     C17041   8.723   8.663   6.853  1.0985  0.9401 -0.1892
  124MOL0     C17042   8.870   8.640   6.876  0.1927 -1.0439 -0.4537
  124MOL0     H17043   8.361   8.159   6.743  1.3980  1.5996 -2.1803
  124MOL0     H17044   8.353   7.909   6.762  0.0966 -1.9586  0.5261
  124MOL0     H17045   8.564   7.595   6.725  2.1802  0.2088  1.1956
  124MOL0     H17046   8.460   7.724   6.664  1.3894  2.1819 -0.4551
  124MOL0     H17047   8.311   7.703   6.867  3.0967  3.3122  1.3566
  124MOL0     H17048   8.344   7.542   6.790  1.4474  1.7709 -2.0348
  124MOL0     H17049   8.489   7.475   6.952  1.7829  1.5730 -0.8134
  124MOL0     H17050   8.484   7.645   7.023 -0.9297  1.9473 -0.7117
  124MOL0     H17051   8.253   7.607   7.083  0.6387  0.6659 -1.7682
  124MOL0     H17052   8.254   7.435   7.029  2.6895 -1.0903 -0.3651
  124MOL0     H17053   8.441   7.556   7.239  0.7722  0.7530 -3.0822
  124MOL0     H17054   8.426   7.379   7.211  3.4301  1.5270  0.0964
  124MOL0     H17055   8.197   7.557   7.304 -0.2611  0.5916  1.5468
  124MOL0     H17056   8.194   7.377   7.295  1.8580 -0.1669 -0.6364
  124MOL0     H17057   8.189   7.438   7.508 -2.5246  1.7898 -0.9769
  124MOL0     H17058   8.321   7.559   7.485 -1.8539 -0.0093 -2.0549
  124MOL0     H17059   8.411   7.289   7.424  0.2556  0.2058  0.4070
  124MOL0     H17060   8.487   7.434   7.504 -0.8079  1.4864  1.8168
  124MOL0     H17061   8.187   7.332   7.701 -1.6534 -1.3660  3.7424
  124MOL0     H17062   8.299   7.334   8.013  0.5065 -0.4455  0.7752
  124MOL0     H17063   8.385   7.186   8.020  2.5121  1.9102 -3.6993
  124MOL0     H17064   8.086   7.232   7.966 -0.0824 -2.1341 -1.3712
  124MOL0     H17065   8.176   7.073   7.924  1.0694  0.3768 -0.9609
  124MOL0     H17066   8.217   7.040   8.156 -0.5458 -1.6275  0.9217
  124MOL0     H17067   8.169   7.205   8.202  3.3662  2.2259 -2.7746
  124MOL0     H17068   7.995   6.953   8.137 -0.4762  0.0721  0.5609
  124MOL0     H17069   8.017   7.046   8.280 -2.8823 -1.6422  0.0900
  124MOL0     H17070   7.896   7.373   8.176 -1.9597  0.5021 -1.0458
  124MOL0     H17071   7.664   7.575   8.304  0.3406 -1.2080 -0.5582
  124MOL0     H17072   7.816   7.581   8.232 -2.8192  4.4021 -0.2124
  124MOL0     H17073   7.816   7.594   8.405 -0.2161  0.9738 -1.3944
  124MOL0     H17074   7.427   7.622   8.415 -0.0566 -1.9908 -0.8646
  124MOL0     H17075   7.213   7.746   8.402 -1.5363  0.1257  1.5668
  124MOL0     H17076   7.041   7.816   8.314  1.5560 -1.8981 -0.9337
  124MOL0     H17077   6.934   7.693   8.231 -3.2000  1.3923 -0.5511
  124MOL0     H17078   6.751   7.758   8.377 -0.1161 -0.5455 -2.1534
  124MOL0     H17079   6.853   7.875   8.454 -0.7039  1.3745 -1.2495
  124MOL0     H17080   6.761   8.011   8.294 -2.5596  0.1039 -2.1720
  124MOL0     H17081   6.732   7.891   8.177 -0.3075 -0.0927  0.0077
  124MOL0     H17082   6.952   7.901   8.102 -0.4069 -1.0817  2.1005
  124MOL0     H17083   6.998   8.033   8.212  1.1491  1.0000 -1.2463
  124MOL0     H17084   6.777   8.056   7.995  2.6946 -1.0698 -2.5122
  124MOL0     H17085   6.822   8.174   8.122  1.5682 -0.5701  0.9622
  124MOL0     H17086   7.068   8.116   8.026  1.6097 -0.0151 -0.9608
  124MOL0     H17087   6.969   8.247   7.960  0.3246  0.4933  2.3973
  124MOL0     H17088   6.864   8.035   7.827 -0.8528  0.5441  1.5195
  124MOL0     H17089   7.031   7.965   7.854 -3.5501 -3.0257 -1.8462
  124MOL0     H17090   7.125   8.154   7.763  1.2005 -0.7421 -1.6685
  124MOL0     H17091   6.969   8.207   7.689  1.7798  0.7368  0.0649
  124MOL0     H17092   6.995   7.410   8.508  1.2038  0.0420  0.7763
  124MOL0     H17093   7.198   7.271   8.529  0.0234  0.1601 -2.2103
  124MOL0     H17094   7.575   7.141   8.474  0.1350 -2.2648 -0.7168
  124MOL0     H17095   7.745   7.010   8.324  2.0606 -0.0868 -0.2239
  124MOL0     H17096   8.736   7.912   6.934  2.0434  1.4442 -0.9197
  124MOL0     H17097   8.737   8.150   6.961 -0.4472  0.0574  0.5783
  124MOL0     H17098   8.419   8.513   6.799 -0.4920 -0.2945  0.2227
  124MOL0     H17099   8.354   8.758   6.793 -0.7942 -0.1923 -1.1220
  124MOL0     H17100   8.635   9.075   6.917 -0.2186 -0.1738  1.0354
  124MOL0     H17101   8.622   9.063   6.739  2.7732  2.4907  1.2711
  124MOL0     H17102   8.392   9.149   6.935 -0.6790 -1.5916 -1.4337
  124MOL0     H17103   8.382   9.159   6.762  2.1149  1.0627 -1.8337
  124MOL0     H17104   8.543   9.341   6.748  0.5944  1.9205  1.1168
  124MOL0     H17105   8.408   9.369   6.858 -0.3009 -1.7303 -0.6666
  124MOL0     H17106   8.688   9.313   6.961 -0.5991 -0.4654 -1.9378
  124MOL0     H17107   8.544   9.310   7.061 -0.4168 -3.7467 -1.1792
  124MOL0     H17108   8.626   9.730   7.016 -1.9908  1.1882 -0.4662
  124MOL0     H17109   8.734   8.884   6.853 -0.7007  0.6951  1.3375
  124MOL0     H17110   8.919   8.620   6.780 -1.8208 -0.7644 -1.5822
  124MOL0     H17111   8.922   8.727   6.917 -0.2867 -0.0815 -1.8171
  124MOL0     H17112   8.887   8.554   6.940 -1.3738 -3.0355 -2.5426
  125MOL0     O17113   6.349  11.194  10.144  0.1790 -0.3156  0.4035
  125MOL0     C17114   6.328  11.182  10.264 -0.1191 -0.6022 -0.1171
  125MOL0     O17115   6.222  11.234  10.333  0.2838  0.3252 -0.7165
  125MOL0     C17116   6.154  11.337  10.268  0.1261  0.1216 -0.6450
  125MOL0     C17117   6.054  11.290  10.181  0.0772  0.4566 -0.8090
  125MOL0     C17118   5.988  11.379  10.102  0.0958 -0.1911 -0.7637
  125MOL0     C17119   5.976  11.513  10.132  0.2722 -0.5656 -0.2344
  125MOL0     O17120   5.913  11.605  10.052 -0.1657  0.5995  0.3660
  125MOL0     C17121   5.796  11.559   9.984  0.8216  1.1393 -0.0705
  125MOL0     C17122   5.722  11.681   9.937  0.2125  0.1199 -0.3778
  125MOL0     C17123   5.571  11.681   9.931  0.3607  0.9547  0.0009
  125MOL0     C17124   5.511  11.819   9.888  0.6315 -0.8413  0.0373
  125MOL0     C17125   5.569  11.872   9.758 -0.5707  0.1878  0.0850
  125MOL0     C17126   5.470  11.974   9.688  0.4975 -0.7490 -0.0815
  125MOL0     C17127   5.479  12.121   9.736  0.8305  0.6722  0.2283
  125MOL0     C17128   5.563  12.218   9.644  0.0725 -0.5836 -0.8274
  125MOL0     N17129   5.701  12.171   9.630  0.4052  0.2812 -0.5980
  125MOL0     C17130   5.753  12.103   9.523  0.4579 -0.0826  0.4143
  125MOL0     C17131   5.885  12.093   9.548  0.2601  0.8589  0.8713
  125MOL0     C17132   5.979  12.024   9.457 -0.4468 -0.5565 -0.5243
  125MOL0     C17133   6.130  12.075   9.466  0.6457  0.6027  0.0877
  125MOL0     C17134   6.201  12.006   9.347 -0.6290  0.2356  0.6038
  125MOL0     C17135   6.306  11.905   9.378 -1.0126  0.1749 -0.7571
  125MOL0     O17136   6.423  11.948   9.461  0.5143  0.6319  0.5671
  125MOL0     C17137   6.478  12.062   9.411 -0.3237 -0.5404 -0.5977
  125MOL0     C17138   6.510  12.092   9.280 -0.0173 -0.0525  0.4487
  125MOL0     C17139   6.575  12.202   9.237  0.7359 -0.5072  0.5802
  125MOL0     C17140   6.601  12.216   9.087 -0.5535 -0.6334 -0.2925
  125MOL0     C17141   6.608  12.300   9.329  0.2317 -0.8952 -0.1604
  125MOL0     C17142   6.677  12.425   9.292 -0.1412  0.1207 -0.7805
  125MOL0     O17143   6.782  12.455   9.379 -0.1364 -0.1134  0.4778
  125MOL0     C17144   6.834  12.578   9.373 -0.0497  0.0560  0.5730
  125MOL0     C17145   6.977  12.585   9.383 -0.3263 -0.2502  0.6520
  125MOL0     C17146   7.050  12.705   9.376 -0.8474 -0.4299 -0.1014
  125MOL0     C17147   6.985  12.822   9.359  0.1058 -0.1023  0.1766
  125MOL0     O17148   7.051  12.941   9.332  0.0998 -0.1516 -0.1236
  125MOL0     C17149   7.190  12.953   9.305 -0.3771 -0.4671  0.1949
  125MOL0     C17150   7.235  13.092   9.258 -0.3248  0.1508 -0.4044
  125MOL0     C17151   7.350  13.085   9.161 -0.2243 -0.4253 -0.3472
  125MOL0     C17152   7.443  13.210   9.165 -0.4582 -0.2777  0.6368
  125MOL0     C17153   7.517  13.202   9.299  0.5958 -0.2228  0.7896
  125MOL0     C17154   7.658  13.260   9.273  0.4088 -0.1367  1.1294
  125MOL0     C17155   7.741  13.265   9.403  0.3638  0.5937 -0.3036
  125MOL0     C17156   7.844  13.366   9.398  0.4634 -0.3911  0.5339
  125MOL0    Cl17157   7.968  13.366   9.523 -0.4496 -0.5407  0.2150
  125MOL0     C17158   6.848  12.825   9.352  0.3709  0.6286  0.2833
  125MOL0     C17159   6.764  12.708   9.375 -0.2952  0.0644 -0.0165
  125MOL0     O17160   6.667  12.476   9.182 -0.1685 -0.1224 -0.2941
  125MOL0     C17161   6.562  12.285   9.458  0.1268 -0.4079 -0.1732
  125MOL0     C17162   6.505  12.164   9.499  0.4963 -0.0047  0.1651
  125MOL0     N17163   5.910  12.161   9.662 -0.1723 -1.0274 -0.0388
  125MOL0     N17164   5.803  12.220   9.706  0.2023  0.1719  0.1746
  125MOL0     C17165   6.058  11.560  10.239  1.4525 -0.2744  0.8889
  125MOL0     C17166   6.149  11.474  10.309  0.5079  0.1135 -0.2961
  125MOL0     C17167   6.423  11.086  10.331  0.6201 -0.0079 -0.0367
  125MOL0     C17168   6.367  10.981  10.419  1.1399 -0.0394  0.2189
  125MOL0     C17169   6.443  10.870  10.455  0.1604 -0.6332  0.5031
  125MOL0     C17170   6.583  10.870  10.435 -0.3434 -0.2915 -0.3234
  125MOL0     O17171   6.670  10.771  10.473 -0.1902  0.3645  0.2606
  125MOL0     C17172   6.617  10.664  10.562  0.2294 -0.0585  0.1938
  125MOL0     C17173   6.590  10.713  10.702 -0.3632  0.0365  0.4181
  125MOL0     C17174   6.725  10.745  10.777  0.4519 -0.6978 -0.1666
  125MOL0     C17175   6.808  10.868  10.736  0.2003 -0.0340 -0.3917
  125MOL0     C17176   6.930  10.891  10.820  0.8069  0.0030 -0.4017
  125MOL0     C17177   7.006  10.919  10.907  0.0974 -0.4647 -0.7552
  125MOL0     C17178   6.636  10.981  10.369 -0.4837  0.0376 -0.2090
  125MOL0     C17179   6.558  11.084  10.314  0.0119 -0.0387 -0.7158
  125MOL0     C17180   6.631  11.196  10.230 -0.5612 -0.3951  0.3307
  125MOL0     H17181   6.052  11.184  10.157 -0.6129  0.9229 -3.0578
  125MOL0     H17182   5.935  11.331  10.020  0.4354 -0.6568 -0.7087
  125MOL0     H17183   5.727  11.506  10.050 -0.1856 -0.4484 -2.2398
  125MOL0     H17184   5.813  11.496   9.896 -0.5971  4.0301 -2.6329
  125MOL0     H17185   5.753  11.770   9.993  2.2293  0.7810 -2.3783
  125MOL0     H17186   5.765  11.716   9.842  1.4094 -0.7425 -0.1808
  125MOL0     H17187   5.543  11.599   9.864 -1.1157  0.4956  1.1355
  125MOL0     H17188   5.533  11.661  10.031  2.9152 -0.5358  0.7725
  125MOL0     H17189   5.402  11.828   9.889  0.5525 -1.0083 -2.4518
  125MOL0     H17190   5.533  11.889   9.970 -0.1584  0.4130 -0.7854
  125MOL0     H17191   5.579  11.784   9.693  2.2162 -0.7918  1.6524
  125MOL0     H17192   5.668  11.912   9.783 -0.2865  0.2170 -1.0378
  125MOL0     H17193   5.508  11.976   9.585  0.8663  3.8335 -0.0879
  125MOL0     H17194   5.366  11.941   9.693 -0.6451  2.6626  2.3996
  125MOL0     H17195   5.505  12.138   9.841  0.7949  5.5128 -0.2873
  125MOL0     H17196   5.380  12.164   9.718  1.2068  0.3829 -3.2179
  125MOL0     H17197   5.522  12.222   9.543 -0.5370  0.2069 -0.5598
  125MOL0     H17198   5.561  12.320   9.683 -2.3961 -1.1570  0.8180
  125MOL0     H17199   5.710  12.079   9.426  0.2031  0.2262  0.4513
  125MOL0     H17200   5.947  12.047   9.355 -2.6781  2.1715  0.6792
  125MOL0     H17201   5.985  11.915   9.471 -1.6367 -0.3919  1.6152
  125MOL0     H17202   6.136  12.184   9.458 -1.2313  0.6323 -1.6070
  125MOL0     H17203   6.184  12.052   9.558 -1.8195 -2.6390  0.9009
  125MOL0     H17204   6.129  11.950   9.285 -0.3330 -1.1253  1.4461
  125MOL0     H17205   6.234  12.094   9.291 -2.2935 -1.3019 -3.1607
  125MOL0     H17206   6.259  11.824   9.435  0.3740 -0.5779 -0.6552
  125MOL0     H17207   6.340  11.857   9.286  1.9499  1.6372 -0.5238
  125MOL0     H17208   6.468  12.025   9.206  1.0456 -0.7925  0.4983
  125MOL0     H17209   6.545  12.303   9.051 -3.0035 -0.9141  2.4651
  125MOL0     H17210   6.566  12.123   9.042 -3.2448 -1.2062  2.6529
  125MOL0     H17211   6.707  12.243   9.073 -0.9616 -0.1862 -3.1770
  125MOL0     H17212   7.034  12.495   9.403 -0.2671 -0.0626  1.3429
  125MOL0     H17213   7.158  12.700   9.379 -0.8336 -0.8203 -0.8781
  125MOL0     H17214   7.237  12.913   9.396  0.2665  0.2888  0.1989
  125MOL0     H17215   7.210  12.876   9.228 -0.8300 -1.0235  0.6255
  125MOL0     H17216   7.155  13.134   9.197  0.7015  0.5486 -1.5031
  125MOL0     H17217   7.241  13.159   9.344 -1.0283 -0.9104  0.5173
  125MOL0     H17218   7.308  13.086   9.060  0.3589 -3.7682 -0.7319
  125MOL0     H17219   7.407  12.992   9.166  1.9981  0.6292 -3.0876
  125MOL0     H17220   7.393  13.307   9.153  3.3527  1.7916 -0.1581
  125MOL0     H17221   7.511  13.196   9.081 -1.7325  0.5584 -0.5743
  125MOL0     H17222   7.455  13.255   9.371 -0.5516  0.5134 -0.6769
  125MOL0     H17223   7.533  13.097   9.325  3.4571 -0.3460 -1.0502
  125MOL0     H17224   7.649  13.365   9.243  1.6180 -0.1789  0.5212
  125MOL0     H17225   7.715  13.198   9.203 -1.7061 -1.5975  0.6088
  125MOL0     H17226   7.792  13.169   9.419  0.5954  0.8867  0.7930
  125MOL0     H17227   7.682  13.276   9.494  0.3887 -1.2601 -0.0276
  125MOL0     H17228   7.814  13.467   9.371  4.3628  0.4056 -1.5832
  125MOL0     H17229   7.904  13.350   9.308 -0.2708 -0.5025  0.0654
  125MOL0     H17230   6.808  12.925   9.342  0.2072  0.8058  2.2842
  125MOL0     H17231   6.656  12.708   9.365 -0.5131  0.6648  2.0677
  125MOL0     H17232   6.578  12.352   9.541 -3.1426 -0.3015  0.4992
  125MOL0     H17233   6.502  12.150   9.606  1.5278 -2.0057 -0.0202
  125MOL0     H17234   6.066  11.667  10.254 -0.8512 -0.1961  1.9641
  125MOL0     H17235   6.227  11.512  10.376 -0.2231 -0.2725  0.7945
  125MOL0     H17236   6.264  10.984  10.451 -0.2093 -2.1044 -3.3734
  125MOL0     H17237   6.386  10.788  10.498 -0.0166 -0.5165  0.4918
  125MOL0     H17238   6.532  10.622  10.509 -0.7071  2.2005 -0.2284
  125MOL0     H17239   6.693  10.586  10.565  1.7395  1.2001 -1.9129
  125MOL0     H17240   6.530  10.641  10.759  0.2087  1.0034  2.2938
  125MOL0     H17241   6.528  10.803  10.696 -0.6024 -0.0831  1.0241
  125MOL0     H17242   6.693  10.761  10.880  0.4198 -0.5717 -0.1966
  125MOL0     H17243   6.792  10.659  10.782 -0.5030 -1.4734 -0.3013
  125MOL0     H17244   6.753  10.962  10.747  0.7362 -0.0368  5.1458
  125MOL0     H17245   6.852  10.861  10.636  0.5290  0.8978 -0.3290
  125MOL0     H17246   7.077  10.938  10.985 -2.9044  0.4144  1.9510
  125MOL0     H17247   6.744  10.976  10.360 -0.6006 -1.0466 -1.2781
  125MOL0     H17248   6.618  11.290  10.285  1.3879  1.1511 -1.6887
  125MOL0     H17249   6.738  11.173  10.226 -0.0309  1.9502 -1.3454
  125MOL0     H17250   6.586  11.201  10.130  0.2762  1.4562  0.0139
  126MOL0     O17251  11.042   9.036   0.450  0.3517 -0.3924 -1.0197
  126MOL0     C17252  10.921   9.026   0.446 -0.1693 -0.4382 -0.0345
  126MOL0     O17253  10.839   9.110   0.376  0.4476 -0.0883 -0.1796
  126MOL0     C17254  10.894   9.200   0.288 -0.1007 -0.5284 -1.2528
  126MOL0     C17255  10.946   9.330   0.331 -0.1838  0.1153  0.1720
  126MOL0     C17256  10.994   9.418   0.235 -0.1845  1.6516  0.0095
  126MOL0     C17257  10.989   9.378   0.099 -0.3425  0.9639 -0.5799
  126MOL0     O17258  11.031   9.472   0.009 -0.2971  0.2293  0.0775
  126MOL0     C17259  11.171   9.470  -0.028 -0.4120 -0.3435  0.4761
  126MOL0     C17260  11.248   9.581   0.046  0.7370  0.7613  0.1224
  126MOL0     C17261  11.222   9.723  -0.006 -0.6069 -0.3472  0.4109
  126MOL0     C17262  11.101   9.783   0.054 -0.5652  0.1906 -0.0068
  126MOL0     C17263  11.089   9.928   0.025 -0.4194 -0.3597 -0.1015
  126MOL0     C17264  11.025   9.955  -0.110  0.8947  0.5263  0.0853
  126MOL0     C17265  11.030  10.106  -0.145  0.1746  0.5670  0.6654
  126MOL0     C17266  10.944  10.138  -0.277  0.2681  0.1203 -0.4109
  126MOL0     N17267  10.963  10.272  -0.318  0.1797  0.2443 -0.7195
  126MOL0     C17268  10.905  10.383  -0.258  0.1138 -0.1890 -1.1534
  126MOL0     C17269  10.969  10.496  -0.300  1.0969  0.0367  0.1162
  126MOL0     C17270  10.958  10.641  -0.272 -0.9208  0.7992  0.4031
  126MOL0     C17271  11.004  10.685  -0.130  0.8165  0.1731 -0.1279
  126MOL0     C17272  11.146  10.650  -0.123 -0.9690 -0.9535 -0.6817
  126MOL0     C17273  11.223  10.740  -0.021 -0.8215  0.6915  0.3765
  126MOL0     O17274  11.190  10.709   0.112  0.0438 -0.0644  1.0879
  126MOL0     C17275  11.183  10.803   0.216 -0.2835 -0.7323  0.2025
  126MOL0     C17276  11.223  10.941   0.211  0.7260 -0.2276  0.6563
  126MOL0     C17277  11.206  11.033   0.315 -0.3206 -0.3203  0.0129
  126MOL0     C17278  11.246  11.180   0.286 -0.5297 -0.0537 -1.3843
  126MOL0     C17279  11.143  10.991   0.436  0.5572  0.3145 -0.5725
  126MOL0     C17280  11.108  11.085   0.552 -0.8156 -1.0926  0.0773
  126MOL0     O17281  11.078  11.216   0.524 -0.5883  0.5777  0.2796
  126MOL0     C17282  11.077  11.309   0.620  0.4219  0.4127 -0.3600
  126MOL0     C17283  11.155  11.423   0.626  1.1830  0.4868 -0.0547
  126MOL0     C17284  11.144  11.507   0.739  0.2326 -0.8002  0.0536
  126MOL0     C17285  11.046  11.483   0.844 -0.1734 -0.7775 -0.4265
  126MOL0     O17286  11.035  11.570   0.951  0.2099 -0.1142  0.2891
  126MOL0     C17287  11.155  11.576   1.036  0.1281  0.6682  0.1742
  126MOL0     C17288  11.206  11.445   1.081 -0.3700  0.0881 -0.8209
  126MOL0     C17289  11.321  11.476   1.181 -0.8969  0.5972  0.1809
  126MOL0     C17290  11.437  11.552   1.125  1.2721 -0.1583 -0.4427
  126MOL0     C17291  11.540  11.556   1.239 -0.2618  0.2966 -0.3840
  126MOL0     C17292  11.689  11.547   1.198  0.0817  0.7106 -0.3438
  126MOL0     C17293  11.732  11.676   1.139  0.4488 -1.0643 -0.1331
  126MOL0     C17294  11.855  11.682   1.045  1.6295 -0.1897  0.8285
  126MOL0    Cl17295  12.014  11.666   1.122 -0.4502  0.3733 -0.3285
  126MOL0     C17296  10.955  11.377   0.816 -0.1159 -1.5966 -0.4912
  126MOL0     C17297  10.972  11.289   0.712 -0.0218 -0.3698  0.3504
  126MOL0     O17298  11.093  11.034   0.662 -0.3453 -0.0894 -0.9531
  126MOL0     C17299  11.115  10.851   0.446 -0.1043  0.1515  0.7285
  126MOL0     C17300  11.131  10.760   0.338  0.0515 -0.0602 -0.2182
  126MOL0     N17301  11.058  10.457  -0.390  0.9545  0.3028 -0.1649
  126MOL0     N17302  11.056  10.325  -0.404  0.8140  0.7968 -0.3903
  126MOL0     C17303  10.955   9.247   0.062 -0.5040 -0.1248 -0.3031
  126MOL0     C17304  10.907   9.152   0.155 -0.1148  0.9055  0.6368
  126MOL0     C17305  10.851   8.943   0.539 -0.8675 -0.4204 -0.4433
  126MOL0     C17306  10.738   8.868   0.495 -0.2748  0.1806 -0.3584
  126MOL0     C17307  10.679   8.785   0.585  0.1784 -0.0578  0.2552
  126MOL0     C17308  10.738   8.763   0.707 -0.5132  0.0163 -0.5714
  126MOL0     O17309  10.666   8.674   0.779  0.6736  0.8900 -0.1792
  126MOL0     C17310  10.717   8.638   0.902 -0.3141 -1.1169 -0.1983
  126MOL0     C17311  10.622   8.535   0.966  0.2617 -0.5748 -0.1502
  126MOL0     C17312  10.638   8.393   0.896  0.7895 -0.8490  0.2601
  126MOL0     C17313  10.769   8.323   0.915  0.0525 -0.2141 -0.5272
  126MOL0     C17314  10.793   8.210   0.827 -0.2471 -0.1716  0.4539
  126MOL0     C17315  10.808   8.111   0.751  0.3693  0.2437 -0.4831
  126MOL0     C17316  10.843   8.835   0.764  0.2166 -0.3476  0.3018
  126MOL0     C17317  10.894   8.940   0.675 -0.0498  0.9538  0.2238
  126MOL0     C17318  11.012   9.022   0.724  0.5004  0.1539 -0.1209
  126MOL0     H17319  10.942   9.338   0.439 -1.4829 -1.7772  0.3144
  126MOL0     H17320  11.040   9.512   0.261  1.5736  0.0299  3.4145
  126MOL0     H17321  11.189   9.490  -0.134  0.6698  1.8918  1.0275
  126MOL0     H17322  11.221   9.376  -0.005 -1.9489 -0.6800  2.7835
  126MOL0     H17323  11.236   9.580   0.155  1.4102  0.6583  0.1951
  126MOL0     H17324  11.354   9.556   0.035  0.2433 -0.5612 -2.3106
  126MOL0     H17325  11.306   9.788   0.020 -3.1375  2.8646  1.2284
  126MOL0     H17326  11.219   9.714  -0.115  2.6157 -2.2057  0.3607
  126MOL0     H17327  11.013   9.731   0.013 -0.0676  0.2899 -1.2359
  126MOL0     H17328  11.109   9.765   0.162 -0.6678 -1.0330 -0.1882
  126MOL0     H17329  11.191   9.968   0.019 -0.8107  1.2876  2.5402
  126MOL0     H17330  11.049   9.995   0.102 -0.6812  2.0805 -2.2241
  126MOL0     H17331  11.071   9.886  -0.181 -0.2350 -0.7709  0.5701
  126MOL0     H17332  10.920   9.926  -0.107  0.7539  1.0897  1.2105
  126MOL0     H17333  11.131  10.135  -0.176 -0.3712 -0.8015 -2.9096
  126MOL0     H17334  10.987  10.180  -0.077 -0.3689 -0.3945  1.3959
  126MOL0     H17335  10.969  10.078  -0.365  0.0117  0.7114 -0.8867
  126MOL0     H17336  10.841  10.103  -0.262  0.9115 -1.1924  1.3984
  126MOL0     H17337  10.828  10.389  -0.181  1.6772  1.3704  0.3584
  126MOL0     H17338  10.861  10.693  -0.271 -2.0008 -1.0950 -0.4191
  126MOL0     H17339  11.017  10.692  -0.349  0.7472 -1.2104  0.2855
  126MOL0     H17340  11.002  10.794  -0.131 -0.1657  0.2215 -3.4003
  126MOL0     H17341  10.947  10.652  -0.042 -0.3819 -0.4473 -1.1104
  126MOL0     H17342  11.148  10.542  -0.103  0.7292 -0.2490  4.2526
  126MOL0     H17343  11.190  10.670  -0.221 -0.9866 -0.3750 -0.5755
  126MOL0     H17344  11.332  10.730  -0.027 -0.9107 -0.4953  0.5041
  126MOL0     H17345  11.203  10.845  -0.047  0.5270  0.6300 -1.0286
  126MOL0     H17346  11.248  10.976   0.110 -1.5943 -0.3795 -0.0225
  126MOL0     H17347  11.322  11.215   0.357 -2.1319 -0.8500  0.8599
  126MOL0     H17348  11.162  11.249   0.285  0.0246  0.7938  1.2195
  126MOL0     H17349  11.292  11.196   0.188  1.3004 -0.5173 -0.6582
  126MOL0     H17350  11.240  11.432   0.559  1.1040 -3.0629 -0.8107
  126MOL0     H17351  11.214  11.589   0.754 -1.6030  1.3421 -2.1263
  126MOL0     H17352  11.227  11.637   0.980 -2.4098  2.1830 -1.6613
  126MOL0     H17353  11.111  11.611   1.130 -1.3738 -1.4358  0.3388
  126MOL0     H17354  11.121  11.396   1.129 -0.7716  3.1949  2.0088
  126MOL0     H17355  11.248  11.381   1.002  0.4478 -1.0168  0.4629
  126MOL0     H17356  11.352  11.377   1.214  0.2931  0.8546 -0.1408
  126MOL0     H17357  11.279  11.521   1.271 -0.9597  0.8087  0.0463
  126MOL0     H17358  11.400  11.650   1.093 -1.3628 -1.1682 -0.6958
  126MOL0     H17359  11.474  11.493   1.041 -2.5533  0.0200 -2.4473
  126MOL0     H17360  11.523  11.647   1.297 -0.7421 -0.9175  1.4902
  126MOL0     H17361  11.520  11.470   1.304 -0.6170 -2.1842 -3.5236
  126MOL0     H17362  11.694  11.466   1.125  2.9332 -1.2243  1.7755
  126MOL0     H17363  11.751  11.533   1.287 -2.5050 -0.2907  1.3778
  126MOL0     H17364  11.744  11.757   1.212 -0.8686 -1.7690  0.9167
  126MOL0     H17365  11.641  11.724   1.103  0.9020 -0.6413 -0.7411
  126MOL0     H17366  11.846  11.767   0.976 -1.4814 -0.6924  0.4610
  126MOL0     H17367  11.839  11.593   0.985 -0.3798 -0.0414  1.0528
  126MOL0     H17368  10.878  11.359   0.890 -2.1430  0.3194 -1.9908
  126MOL0     H17369  10.890  11.220   0.701  0.0125 -0.3432 -0.1039
  126MOL0     H17370  11.080  10.799   0.535 -3.4160 -1.8231 -1.5011
  126MOL0     H17371  11.092  10.659   0.335 -0.0627 -0.0550  0.8159
  126MOL0     H17372  10.953   9.227  -0.045 -0.1327  2.1192 -0.7853
  126MOL0     H17373  10.873   9.053   0.126  1.6366  0.0367  1.4263
  126MOL0     H17374  10.708   8.884   0.392  1.5864 -1.3750 -1.1981
  126MOL0     H17375  10.600   8.724   0.541 -1.3259  1.0062  1.3925
  126MOL0     H17376  10.817   8.597   0.890 -1.2260 -3.4101 -0.4954
  126MOL0     H17377  10.729   8.721   0.972 -2.6652 -0.6154 -0.2888
  126MOL0     H17378  10.521   8.575   0.957  1.3390  2.4834 -0.1889
  126MOL0     H17379  10.653   8.524   1.071  1.2316 -1.1299 -0.4857
  126MOL0     H17380  10.559   8.320   0.914 -0.5877  0.8868  1.5407
  126MOL0     H17381  10.632   8.411   0.788  1.6692  0.5515  0.4164
  126MOL0     H17382  10.770   8.280   1.016  0.3002 -3.7553 -1.8896
  126MOL0     H17383  10.849   8.397   0.904 -1.5604  2.2085  2.4090
  126MOL0     H17384  10.820   8.015   0.707  0.7056  0.5980 -1.1859
  126MOL0     H17385  10.895   8.818   0.858  2.4060  2.1660 -0.3430
  126MOL0     H17386  11.025   9.014   0.832 -0.1890 -0.5844 -0.0863
  126MOL0     H17387  11.104   8.985   0.677 -0.1272  1.1103 -2.2401
  126MOL0     H17388  10.995   9.129   0.708 -2.6028 -0.2404  0.0276
  127MOL0     O17389  10.335   6.554  11.303 -0.4926  0.3993 -0.0297
  127MOL0     C17390  10.442   6.576  11.367 -0.7171  0.0110  0.8750
  127MOL0     O17391  10.450   6.569  11.507  0.3223 -0.4150 -0.1847
  127MOL0     C17392  10.334   6.524  11.573 -0.8101 -0.8977 -0.1360
  127MOL0     C17393  10.325   6.397  11.633 -0.2072 -0.0953 -0.1488
  127MOL0     C17394  10.201   6.352  11.670  0.0246  0.6656 -0.2240
  127MOL0     C17395  10.093   6.439  11.669  0.2033  0.2123  0.0899
  127MOL0     O17396   9.973   6.396  11.722 -0.3454  0.0659 -0.2157
  127MOL0     C17397   9.973   6.331  11.853 -0.0026 -0.1120  0.2426
  127MOL0     C17398   9.929   6.430  11.967 -0.2843  0.5562 -0.2506
  127MOL0     C17399  10.008   6.561  11.971 -0.1705  0.7709  0.3175
  127MOL0     C17400   9.931   6.669  12.045  0.2461 -0.4076  0.5330
  127MOL0     C17401   9.900   6.641  12.191  0.2147 -0.1518 -0.6454
  127MOL0     C17402  10.026   6.639  12.278  0.0699  0.4316 -0.4540
  127MOL0     C17403  10.005   6.620  12.428  0.0417 -0.3073  0.3811
  127MOL0     C17404  10.143   6.595  12.493  0.2258  0.3661 -0.1409
  127MOL0     N17405  10.206   6.465  12.458  0.8337  0.1255 -0.9076
  127MOL0     C17406  10.301   6.458  12.356  0.4230  0.1308  0.1115
  127MOL0     C17407  10.308   6.324  12.326  0.6802 -0.1707  0.2862
  127MOL0     C17408  10.391   6.264  12.218 -0.6165  0.4787  0.0546
  127MOL0     C17409  10.501   6.180  12.284 -0.0865 -0.3816 -0.1458
  127MOL0     C17410  10.606   6.144  12.170  0.2844 -1.2734  0.4838
  127MOL0     C17411  10.677   6.273  12.114 -0.0810 -0.6468 -0.5579
  127MOL0     O17412  10.741   6.328  12.229 -0.6197 -0.2580 -0.4597
  127MOL0     C17413  10.768   6.468  12.212 -0.6572  0.6918  0.5357
  127MOL0     C17414  10.682   6.571  12.248  0.1231  0.7496  0.7128
  127MOL0     C17415  10.704   6.702  12.222  0.5881 -0.6840  1.0391
  127MOL0     C17416  10.597   6.800  12.258  0.9012  0.6047 -0.1444
  127MOL0     C17417  10.832   6.739  12.171 -0.1689 -0.2701 -0.6919
  127MOL0     C17418  10.869   6.875  12.154 -0.0057 -0.0305  1.1047
  127MOL0     O17419  10.973   6.891  12.062  0.2215  0.1528 -0.7097
  127MOL0     C17420  10.987   7.016  12.004  0.1349  0.4037 -0.3499
  127MOL0     C17421  11.032   7.128  12.078 -0.5407 -0.3450  0.4456
  127MOL0     C17422  11.025   7.250  12.021 -0.1771 -0.7378 -0.4652
  127MOL0     C17423  10.960   7.271  11.901  0.3032 -0.1280 -0.1958
  127MOL0     O17424  10.922   7.395  11.858  0.1016 -0.1185 -0.5080
  127MOL0     C17425  10.910   7.510  11.947  0.7817  0.2332 -0.4406
  127MOL0     C17426  11.033   7.603  11.927 -0.8235  0.8536 -0.6139
  127MOL0     C17427  11.019   7.739  12.014 -0.0673  1.4543 -0.1330
  127MOL0     C17428  11.159   7.798  12.050  0.4742 -0.6872  0.3443
  127MOL0     C17429  11.145   7.951  12.061 -0.0093 -0.1086  0.8140
  127MOL0     C17430  11.291   7.998  12.050 -0.8046 -0.7338 -0.3379
  127MOL0     C17431  11.311   8.157  12.069 -0.3855 -0.0832 -0.5344
  127MOL0     C17432  11.455   8.191  12.011 -0.5251  0.5642  0.3814
  127MOL0    Cl17433  11.485   8.371  12.014  0.2128 -0.4410  0.1535
  127MOL0     C17434  10.933   7.165  11.825  0.9505 -0.0048  0.1622
  127MOL0     C17435  10.950   7.030  11.874 -0.4201 -0.4543  0.2769
  127MOL0     O17436  10.801   6.973  12.195  1.0808 -0.5787 -0.9022
  127MOL0     C17437  10.915   6.641  12.120  0.5427  0.9995 -0.1194
  127MOL0     C17438  10.884   6.507  12.137 -0.3362  0.1795  0.2536
  127MOL0     N17439  10.214   6.261  12.403  0.9485 -0.1634 -0.9762
  127MOL0     N17440  10.167   6.339  12.483 -0.1339 -0.2479  0.2458
  127MOL0     C17441  10.102   6.579  11.615  0.0262  0.4067 -0.8149
  127MOL0     C17442  10.225   6.616  11.574 -0.1461 -0.4880  0.7041
  127MOL0     C17443  10.561   6.610  11.278  0.1222  0.0403 -0.1897
  127MOL0     C17444  10.546   6.596  11.133 -0.6245  0.2023 -0.6583
  127MOL0     C17445  10.647   6.632  11.050 -0.6078 -0.0117  0.8735
  127MOL0     C17446  10.762   6.684  11.107 -0.2614  0.0253  0.4158
  127MOL0     O17447  10.868   6.710  11.020  1.1281  0.6759 -0.2594
  127MOL0     C17448  10.898   6.857  11.005  0.1952  0.8609 -0.4536
  127MOL0     C17449  10.948   6.883  10.868  0.7504  0.0788  0.2592
  127MOL0     C17450  10.965   7.028  10.829 -0.3526  0.3761  0.4689
  127MOL0     C17451  11.031   7.057  10.695  0.0370 -0.0921  0.6391
  127MOL0     C17452  11.092   7.185  10.682  0.0652 -0.5851  0.5877
  127MOL0     C17453  11.159   7.291  10.675 -0.3262 -0.4090 -0.3027
  127MOL0     C17454  10.769   6.720  11.243  0.0900  0.4004  0.6260
  127MOL0     C17455  10.669   6.679  11.334 -0.6264 -0.5173  0.3503
  127MOL0     C17456  10.702   6.707  11.481 -0.6464  0.1921 -0.0586
  127MOL0     H17457  10.414   6.337  11.644  1.9233  2.7059 -0.8155
  127MOL0     H17458  10.208   6.255  11.719  2.0014  1.9127  2.2280
  127MOL0     H17459  10.070   6.284  11.873  0.5369  1.2167  0.8729
  127MOL0     H17460   9.904   6.247  11.867  1.9121 -1.1981  4.6138
  127MOL0     H17461   9.820   6.442  11.966 -0.6729 -2.2301 -1.4931
  127MOL0     H17462   9.953   6.384  12.063  0.0149 -3.5682 -2.0698
  127MOL0     H17463  10.109   6.553  12.012  0.3536  0.6511 -0.9625
  127MOL0     H17464  10.035   6.609  11.877  2.8081  2.7645  2.0494
  127MOL0     H17465   9.985   6.763  12.035 -3.0715  1.7537  1.3550
  127MOL0     H17466   9.830   6.681  12.004  1.0698  2.5927 -0.8473
  127MOL0     H17467   9.834   6.557  12.214 -1.4806  1.3252  0.1874
  127MOL0     H17468   9.842   6.733  12.207  1.1591  0.5948 -1.3998
  127MOL0     H17469  10.079   6.552  12.239 -0.5973 -0.4243  0.4839
  127MOL0     H17470  10.086   6.730  12.270  1.2433 -0.3969 -1.3398
  127MOL0     H17471   9.934   6.537  12.436 -2.3513  1.7617  2.4455
  127MOL0     H17472   9.945   6.699  12.474 -0.4645  0.8101 -2.0271
  127MOL0     H17473  10.211   6.678  12.471  0.4396 -0.0464 -1.0719
  127MOL0     H17474  10.143   6.584  12.602  1.0704  0.6429 -0.1027
  127MOL0     H17475  10.349   6.541  12.306 -1.1911  1.6020  0.8817
  127MOL0     H17476  10.437   6.347  12.164  2.9329  0.6463  2.9922
  127MOL0     H17477  10.324   6.200  12.159 -2.1772 -1.7114  3.8312
  127MOL0     H17478  10.553   6.242  12.358 -3.2450  2.3051  0.0451
  127MOL0     H17479  10.462   6.090  12.333 -1.3897  0.8963  1.2755
  127MOL0     H17480  10.675   6.066  12.203 -1.5207 -2.6570  1.1530
  127MOL0     H17481  10.549   6.100  12.087 -4.4234  1.9215  1.6493
  127MOL0     H17482  10.753   6.248  12.041 -0.8184  2.6744 -2.6884
  127MOL0     H17483  10.605   6.339  12.064  1.3972  0.0689 -1.8157
  127MOL0     H17484  10.586   6.544  12.292  0.7880 -0.2602  1.5811
  127MOL0     H17485  10.584   6.869  12.174 -2.2479  2.9231  2.0206
  127MOL0     H17486  10.624   6.861  12.344  0.8573  0.5935 -0.1220
  127MOL0     H17487  10.509   6.747  12.295  1.1400  2.2859  3.1510
  127MOL0     H17488  11.065   7.113  12.181 -1.9730 -0.6511  0.8722
  127MOL0     H17489  11.077   7.328  12.076  1.9626 -0.8171 -2.2259
  127MOL0     H17490  10.824   7.570  11.917 -1.5164 -2.0839  1.1846
  127MOL0     H17491  10.891   7.491  12.053 -1.1918  2.1376 -0.3866
  127MOL0     H17492  11.115   7.562  11.986 -0.1150  1.6029 -1.0504
  127MOL0     H17493  11.066   7.621  11.824 -3.9449 -0.7548 -2.0472
  127MOL0     H17494  10.976   7.716  12.113  2.0140 -2.0154  0.1286
  127MOL0     H17495  10.955   7.809  11.959  1.7875  2.1771 -1.4536
  127MOL0     H17496  11.222   7.769  11.965  0.9149 -1.5970  0.9527
  127MOL0     H17497  11.190   7.750  12.144 -1.1542 -2.3432  0.0986
  127MOL0     H17498  11.096   7.992  11.972  0.6357 -0.9061  0.0766
  127MOL0     H17499  11.098   7.981  12.155  1.1079  1.4318  0.9166
  127MOL0     H17500  11.325   7.965  11.952  1.0722  0.1820 -0.0304
  127MOL0     H17501  11.354   7.950  12.125  0.1762  0.4287 -0.3859
  127MOL0     H17502  11.315   8.185  12.175  0.1542  0.4719 -0.6964
  127MOL0     H17503  11.221   8.207  12.031  1.7774  3.0171 -2.0146
  127MOL0     H17504  11.444   8.153  11.909 -1.3612  2.7203 -0.3864
  127MOL0     H17505  11.531   8.127  12.057 -1.2649  1.6577  3.3211
  127MOL0     H17506  10.898   7.181  11.724 -2.0107 -1.1244  0.9199
  127MOL0     H17507  10.928   6.951  11.803 -1.7369 -0.5476  0.7639
  127MOL0     H17508  11.010   6.668  12.075  0.3170  0.9374 -0.6423
  127MOL0     H17509  10.938   6.418  12.109 -1.8436 -1.5965  2.5567
  127MOL0     H17510  10.021   6.651  11.613  0.9022  1.4867  0.4420
  127MOL0     H17511  10.230   6.713  11.525  0.4422 -0.4658  0.7990
  127MOL0     H17512  10.453   6.562  11.088  0.4283 -0.5311 -2.3801
  127MOL0     H17513  10.646   6.599  10.946  2.0839  0.7159  0.5351
  127MOL0     H17514  10.808   6.916  11.024  1.0179  1.4875  1.8820
  127MOL0     H17515  10.977   6.879  11.077 -0.3447  1.1138  0.0628
  127MOL0     H17516  10.866   6.845  10.807  0.7926 -1.9184  1.3804
  127MOL0     H17517  11.047   6.837  10.863  1.7980  2.1446  0.7890
  127MOL0     H17518  10.871   7.084  10.829  1.2884  3.4097 -1.4506
  127MOL0     H17519  11.020   7.080  10.908  2.5879  0.4776 -1.5066
  127MOL0     H17520  10.955   7.045  10.618 -1.0506  1.9194  1.3425
  127MOL0     H17521  11.103   6.975  10.686 -3.8664 -3.7063 -2.0047
  127MOL0     H17522  11.225   7.373  10.657  0.6464 -0.0889  3.8159
  127MOL0     H17523  10.854   6.786  11.255  1.9986 -1.7522 -0.2029
  127MOL0     H17524  10.775   6.784  11.505  1.0793 -1.5185  0.4544
  127MOL0     H17525  10.604   6.737  11.518 -0.8555  0.4664 -0.8187
  127MOL0     H17526  10.730   6.615  11.532 -3.3316 -1.5311 -1.4143
  128MOL0     O17527   2.424  10.237  10.746  0.6254 -0.4353 -0.3631
  128MOL0     C17528   2.520  10.175  10.697  0.6501 -0.5649  0.3786
  128MOL0     O17529   2.580  10.218  10.591 -0.5954  0.1775 -0.4437
  128MOL0     C17530   2.567  10.354  10.554 -0.5486 -0.0643  0.9049
  128MOL0     C17531   2.549  10.392  10.423 -0.0571  0.6884  0.6989
  128MOL0     C17532   2.564  10.527  10.387 -0.0877 -0.3146 -0.5268
  128MOL0     C17533   2.605  10.617  10.487 -0.6389 -0.5543  1.2142
  128MOL0     O17534   2.597  10.757  10.465 -0.2089 -0.4770 -0.6028
  128MOL0     C17535   2.552  10.814  10.343  0.5628 -0.2804 -0.0695
  128MOL0     C17536   2.654  10.812  10.223 -0.3440 -1.0220  0.5230
  128MOL0     C17537   2.734  10.942  10.219 -0.5755 -0.7886  1.1409
  128MOL0     C17538   2.645  11.065  10.174  0.3293  0.4565 -0.0461
  128MOL0     C17539   2.699  11.154  10.065  0.1107 -0.1348 -0.0194
  128MOL0     C17540   2.830  11.235  10.108 -1.5249 -0.0076 -0.8594
  128MOL0     C17541   2.826  11.373  10.038 -0.0088 -0.3452 -0.2937
  128MOL0     C17542   2.959  11.445  10.041  0.7672 -0.1056 -0.2762
  128MOL0     N17543   3.057  11.390   9.952  0.9429 -0.1110  0.5286
  128MOL0     C17544   3.031  11.337   9.825  0.9443  0.9084  0.1377
  128MOL0     C17545   3.148  11.259   9.798 -0.4498  0.5164 -0.3884
  128MOL0     C17546   3.156  11.148   9.697  1.0667  1.1893 -0.7322
  128MOL0     C17547   3.151  11.000   9.757  0.0387 -0.7112 -0.4913
  128MOL0     C17548   3.001  10.954   9.779  0.5650 -0.4757  0.0586
  128MOL0     C17549   2.981  10.878   9.911  0.6648 -0.0953 -0.4575
  128MOL0     O17550   2.857  10.805   9.903 -0.2325  0.9503 -0.3870
  128MOL0     C17551   2.852  10.677   9.969 -0.3122  0.0931  0.0230
  128MOL0     C17552   2.946  10.617  10.050 -0.9705 -0.0519 -0.2643
  128MOL0     C17553   2.940  10.479  10.091  0.8729  1.2037 -0.4963
  128MOL0     C17554   3.053  10.430  10.184 -0.0997  0.1936  0.2441
  128MOL0     C17555   2.824  10.409  10.052  1.5599  1.0299  0.8253
  128MOL0     C17556   2.808  10.264  10.076  0.1629  0.1632  0.6802
  128MOL0     O17557   2.695  10.234  10.145  0.5252 -0.0375 -0.4291
  128MOL0     C17558   2.658  10.108  10.187  0.1591  0.5438 -1.3235
  128MOL0     C17559   2.741  10.006  10.215 -1.0901  0.4384 -0.8334
  128MOL0     C17560   2.703   9.879  10.262  0.5708  0.1474 -0.7415
  128MOL0     C17561   2.570   9.853  10.286  0.5090  1.1122  0.8549
  128MOL0     O17562   2.538   9.722  10.326  0.4516  0.1498  0.1448
  128MOL0     C17563   2.499   9.635  10.218 -0.3380  0.1012  0.1650
  128MOL0     C17564   2.564   9.501  10.248 -0.1963 -0.0004  0.2018
  128MOL0     C17565   2.717   9.509  10.249 -0.6023  0.6471  0.1741
  128MOL0     C17566   2.787   9.382  10.299 -0.5332 -0.1199  0.0565
  128MOL0     C17567   2.934   9.403  10.310  0.1297  0.4098  0.1365
  128MOL0     C17568   3.012   9.266  10.329 -1.4252 -0.5049  0.0823
  128MOL0     C17569   3.166   9.288  10.345 -0.1522  0.6514 -0.5063
  128MOL0     C17570   3.226   9.345  10.213  0.9353 -0.0672  0.3036
  128MOL0    Cl17571   3.407   9.346  10.227  0.3568 -0.7623 -0.4346
  128MOL0     C17572   2.475   9.954  10.262  0.2694  0.1503 -0.5634
  128MOL0     C17573   2.522  10.077  10.215  0.0875 -0.3999  0.1298
  128MOL0     O17574   2.891  10.182  10.044  0.0649  0.6684  0.6853
  128MOL0     C17575   2.723  10.473   9.980  0.1680 -0.3672 -0.9330
  128MOL0     C17576   2.733  10.612   9.961  0.4078 -0.3391 -0.9034
  128MOL0     N17577   3.231  11.267   9.906 -0.0135  0.6086 -0.6740
  128MOL0     N17578   3.179  11.346   9.998  0.4121 -0.0526 -1.2429
  128MOL0     C17579   2.612  10.581  10.621 -0.4114 -0.0063  0.5392
  128MOL0     C17580   2.603  10.450  10.651 -0.3717  0.0339  0.7475
  128MOL0     C17581   2.541  10.038  10.742 -0.5945 -0.0904  0.3274
  128MOL0     C17582   2.605   9.955  10.655 -0.2551  1.0428  0.4453
  128MOL0     C17583   2.661   9.828  10.687 -0.1352  0.0203  0.1109
  128MOL0     C17584   2.654   9.789  10.822  0.6310 -0.4767 -0.0853
  128MOL0     O17585   2.727   9.686  10.872 -0.9399 -0.4089  0.0512
  128MOL0     C17586   2.847   9.728  10.931  0.2169 -0.0039 -0.1640
  128MOL0     C17587   2.961   9.616  10.941  0.0406  0.0516 -0.3284
  128MOL0     C17588   2.939   9.506  11.036 -0.1399  0.0828 -0.4257
  128MOL0     C17589   2.973   9.519  11.183  0.1691  0.1055 -0.3150
  128MOL0     C17590   2.870   9.600  11.246 -0.2813  0.5959  0.6950
  128MOL0     C17591   2.793   9.670  11.299 -0.4813 -0.4282  0.7299
  128MOL0     C17592   2.587   9.866  10.910  0.1587 -0.4843  0.4990
  128MOL0     C17593   2.535   9.988  10.873  0.4828 -0.1570 -0.0576
  128MOL0     C17594   2.471  10.067  10.990  0.0098  0.0208  0.2365
  128MOL0     H17595   2.539  10.322  10.341  3.4929 -0.0057  0.7060
  128MOL0     H17596   2.540  10.550  10.284  0.0721 -2.8702 -1.2087
  128MOL0     H17597   2.510  10.914  10.354 -1.0654 -1.0085  0.7594
  128MOL0     H17598   2.469  10.744  10.327 -0.4498  1.1369 -1.2785
  128MOL0     H17599   2.719  10.725  10.221  0.4193 -0.4601 -0.9089
  128MOL0     H17600   2.597  10.812  10.129  0.5105 -1.0616 -0.0008
  128MOL0     H17601   2.792  10.960  10.310  3.0186  1.9046 -1.3657
  128MOL0     H17602   2.818  10.934  10.149 -1.6306 -0.0092 -0.2556
  128MOL0     H17603   2.547  11.030  10.141 -0.3560 -0.4230  2.7143
  128MOL0     H17604   2.626  11.134  10.257 -2.5463 -2.6461  2.1335
  128MOL0     H17605   2.620  11.225  10.040 -0.1831  0.3931  2.2657
  128MOL0     H17606   2.717  11.088   9.979 -0.5323 -1.5508  0.8864
  128MOL0     H17607   2.852  11.242  10.215  2.9622  0.0746 -1.5950
  128MOL0     H17608   2.920  11.180  10.079 -0.3323 -0.8050  3.6578
  128MOL0     H17609   2.745  11.443  10.061 -0.4132 -1.0065  0.3390
  128MOL0     H17610   2.800  11.356   9.933 -1.3978  2.8044 -0.5533
  128MOL0     H17611   2.946  11.545  10.000 -0.2731  0.8442  2.1372
  128MOL0     H17612   2.992  11.462  10.144  1.2887 -0.9437 -0.3019
  128MOL0     H17613   2.941  11.337   9.764  0.0032  0.5380  1.4775
  128MOL0     H17614   3.247  11.168   9.638  0.9505  4.3540 -0.0343
  128MOL0     H17615   3.070  11.161   9.630 -2.5072  0.9946  3.4160
  128MOL0     H17616   3.217  10.937   9.696  3.4801  1.3033  0.8759
  128MOL0     H17617   3.203  11.002   9.853 -0.5728 -2.7385 -0.0617
  128MOL0     H17618   2.936  11.041   9.768  3.8511  1.8135 -3.8892
  128MOL0     H17619   2.975  10.887   9.697 -2.6087 -0.9670  1.3161
  128MOL0     H17620   3.070  10.816   9.921  0.2049 -0.5714  0.8817
  128MOL0     H17621   2.981  10.960   9.983  3.7698  1.8391 -2.4133
  128MOL0     H17622   3.041  10.664  10.075  1.3051 -4.0166 -0.5133
  128MOL0     H17623   3.021  10.418  10.288  1.1148  2.6649  0.9807
  128MOL0     H17624   3.141  10.495  10.178  0.7235 -0.1964  4.6681
  128MOL0     H17625   3.089  10.330  10.159  2.9560  0.9982  0.9327
  128MOL0     H17626   2.848  10.017  10.201 -0.1894 -1.7678  2.8592
  128MOL0     H17627   2.781   9.804  10.274  0.7593  0.0898 -2.1085
  128MOL0     H17628   2.390   9.633  10.228 -0.1768  0.1460  2.4901
  128MOL0     H17629   2.530   9.662  10.117 -0.4041  0.3379  0.2078
  128MOL0     H17630   2.511   9.470  10.339 -0.0038 -4.4386 -0.9597
  128MOL0     H17631   2.543   9.421  10.176 -0.1401  0.7688 -0.6970
  128MOL0     H17632   2.755   9.583  10.319  3.7120 -2.2828  1.3591
  128MOL0     H17633   2.758   9.535  10.151  0.6965 -0.0530  0.5026
  128MOL0     H17634   2.761   9.300  10.230 -1.9066 -0.2857  0.7325
  128MOL0     H17635   2.752   9.342  10.395  2.1539 -1.6740  0.4843
  128MOL0     H17636   2.984   9.450  10.224  0.3182 -0.1919 -0.0872
  128MOL0     H17637   2.958   9.467  10.396 -2.3624  0.2910  0.9820
  128MOL0     H17638   3.002   9.210  10.236  2.4714  0.1359 -0.9303
  128MOL0     H17639   2.969   9.207  10.410 -4.4034  1.4635  0.0895
  128MOL0     H17640   3.217   9.191  10.354  0.6529  1.1250  0.1924
  128MOL0     H17641   3.182   9.354  10.431  0.9104  0.1018 -0.2635
  128MOL0     H17642   3.180   9.439  10.180 -3.8401 -2.3905 -0.4976
  128MOL0     H17643   3.208   9.269  10.136 -1.8540  2.6743 -2.0248
  128MOL0     H17644   2.370   9.947  10.288  1.4656 -1.6749  5.1318
  128MOL0     H17645   2.452  10.155  10.186  1.3099  0.4319 -0.6869
  128MOL0     H17646   2.640  10.413   9.943  1.2837 -1.9716 -0.9515
  128MOL0     H17647   2.646  10.663   9.921  0.7606  3.8638  2.8058
  128MOL0     H17648   2.611  10.661  10.694 -0.2285  0.0144  0.5206
  128MOL0     H17649   2.610  10.415  10.753 -0.5005 -1.1924  0.3536
  128MOL0     H17650   2.624   9.993  10.555  6.0673  1.3990  1.3898
  128MOL0     H17651   2.727   9.777  10.618 -1.8998 -2.5916  0.2040
  128MOL0     H17652   2.888   9.822  10.892 -0.9092 -0.2355 -2.0384
  128MOL0     H17653   2.827   9.754  11.035 -1.7937  2.4258 -1.0570
  128MOL0     H17654   3.060   9.658  10.957  0.0717  0.2113 -0.9289
  128MOL0     H17655   2.967   9.571  10.841 -1.6398 -1.8347  0.3391
  128MOL0     H17656   2.833   9.479  11.030 -0.7824  2.1859  0.3643
  128MOL0     H17657   3.009   9.427  11.008  2.7220  1.3937  2.3682
  128MOL0     H17658   3.071   9.562  11.206 -0.1654 -0.1616  1.8501
  128MOL0     H17659   2.965   9.419  11.227 -3.5429  1.1897  1.9637
  128MOL0     H17660   2.712   9.723  11.345 -0.7910 -0.4076  0.1610
  128MOL0     H17661   2.577   9.836  11.013 -0.1192 -1.6040  0.1555
  128MOL0     H17662   2.373  10.104  10.960 -0.4455 -2.3129 -1.3706
  128MOL0     H17663   2.465  10.010  11.083  2.1306 -1.0729 -0.2267
  128MOL0     H17664   2.529  10.154  11.024  0.2760 -0.9852  2.4930
  129MOL0     O17665   9.698   9.103   6.786 -0.0732 -0.8315 -0.0366
  129MOL0     C17666   9.813   9.111   6.831 -0.1334 -0.3810  0.8197
  129MOL0     O17667   9.881   9.229   6.846  0.2139  0.3758  0.2828
  129MOL0     C17668   9.824   9.355   6.827  0.7127  0.3620  0.3316
  129MOL0     C17669   9.693   9.379   6.870 -0.3318 -1.1361 -0.3423
  129MOL0     C17670   9.641   9.503   6.869  0.4692  0.5328  0.4623
  129MOL0     C17671   9.733   9.614   6.849 -0.1940  0.5494  0.2772
  129MOL0     O17672   9.695   9.750   6.868 -0.2329 -0.0566 -0.6790
  129MOL0     C17673   9.562   9.789   6.832  0.0009  0.7549 -0.6408
  129MOL0     C17674   9.530   9.941   6.847  0.1770 -1.1506  0.5701
  129MOL0     C17675   9.389   9.963   6.797 -0.6010 -1.2740  0.2208
  129MOL0     C17676   9.351  10.114   6.779 -0.3068 -0.5364 -0.1592
  129MOL0     C17677   9.248  10.178   6.868 -0.3634 -1.8346 -0.1372
  129MOL0     C17678   9.303  10.199   7.005  0.0048  0.0091  0.8083
  129MOL0     C17679   9.197  10.213   7.111  0.4217  0.1468 -1.0515
  129MOL0     C17680   9.255  10.251   7.250  0.0326 -0.1350 -0.7051
  129MOL0     N17681   9.158  10.253   7.366  0.6984  0.5006  0.3948
  129MOL0     C17682   9.177  10.214   7.487 -0.2241  1.4446 -0.0909
  129MOL0     C17683   9.061  10.243   7.554  0.7847 -0.6011 -0.9368
  129MOL0     C17684   9.018  10.196   7.695 -0.7754 -0.3647 -0.7978
  129MOL0     C17685   8.918  10.077   7.681  0.9118  0.0349 -0.7170
  129MOL0     C17686   8.983   9.939   7.661  0.6074 -0.0773  0.6568
  129MOL0     C17687   9.097   9.904   7.751  0.7386 -0.2500 -0.0283
  129MOL0     O17688   9.054   9.903   7.891 -0.5531  0.0926  0.1826
  129MOL0     C17689   9.145   9.870   7.984 -0.5453 -0.1351  0.2583
  129MOL0     C17690   9.103   9.877   8.119  0.1509  0.1580 -1.4368
  129MOL0     C17691   9.181   9.842   8.226  0.3112  0.0132 -0.3738
  129MOL0     C17692   9.113   9.855   8.356 -0.2081  0.2380  0.3049
  129MOL0     C17693   9.320   9.810   8.205  0.4677  0.8979 -0.7855
  129MOL0     C17694   9.409   9.779   8.313 -0.5053 -0.7085 -0.6753
  129MOL0     O17695   9.371   9.817   8.437  0.1027 -0.2657  0.8486
  129MOL0     C17696   9.436   9.762   8.542 -0.1801 -1.1805  0.4470
  129MOL0     C17697   9.571   9.803   8.573  0.2161  0.8484  0.2937
  129MOL0     C17698   9.635   9.747   8.675 -0.2779 -0.6438  0.4716
  129MOL0     C17699   9.579   9.646   8.754  0.0967  0.4077  1.0321
  129MOL0     O17700   9.665   9.597   8.854 -0.1535  0.5316  0.6710
  129MOL0     C17701   9.675   9.461   8.882 -0.7628  0.7806 -0.2641
  129MOL0     C17702   9.765   9.439   9.000 -0.7370 -0.2099 -0.3705
  129MOL0     C17703   9.916   9.455   8.971  0.3215 -0.1524 -0.0162
  129MOL0     C17704   9.957   9.340   8.885 -0.2245 -0.2880  1.0399
  129MOL0     C17705  10.105   9.341   8.865  0.5844  0.4913 -0.2305
  129MOL0     C17706  10.147   9.234   8.766  0.0704 -0.2141  0.3214
  129MOL0     C17707  10.291   9.229   8.735  0.6584  0.8308  0.4656
  129MOL0     C17708  10.353   9.356   8.664 -0.0033  0.1337 -0.1530
  129MOL0    Cl17709  10.283   9.382   8.499  0.0163 -0.1051  0.4966
  129MOL0     C17710   9.453   9.600   8.718 -0.6895 -0.4837  0.3221
  129MOL0     C17711   9.378   9.660   8.616 -0.2894 -0.4896 -0.2301
  129MOL0     O17712   9.508   9.703   8.283 -0.6636  0.8812  0.2103
  129MOL0     C17713   9.366   9.812   8.076  0.1704 -0.5758 -0.5231
  129MOL0     C17714   9.281   9.839   7.960  0.9102  0.1856  0.1897
  129MOL0     N17715   8.977  10.309   7.465 -0.2612  0.6310 -0.6132
  129MOL0     N17716   9.043  10.314   7.350  0.9318  0.3613  0.1380
  129MOL0     C17717   9.864   9.593   6.810  0.2592  0.1140 -0.7080
  129MOL0     C17718   9.910   9.462   6.804 -0.5274 -0.0480 -0.0957
  129MOL0     C17719   9.890   8.984   6.837 -0.2167 -0.1824  0.6031
  129MOL0     C17720  10.031   8.997   6.871  1.4701 -0.5359 -0.5334
  129MOL0     C17721  10.112   8.885   6.899  0.1047 -0.2484  0.8378
  129MOL0     C17722  10.062   8.756   6.878  0.3063 -0.5521 -0.0177
  129MOL0     O17723  10.154   8.644   6.875  0.4969 -0.2419 -0.2436
  129MOL0     C17724  10.187   8.593   7.000  0.7755  0.2090 -1.4544
  129MOL0     C17725  10.202   8.437   6.996 -0.4589  0.3752  0.0232
  129MOL0     C17726  10.310   8.397   6.895  0.0296  0.9444  0.5627
  129MOL0     C17727  10.295   8.257   6.836  0.2469  0.0045  0.0283
  129MOL0     C17728  10.319   8.139   6.916  0.3558  0.4655  0.1384
  129MOL0     C17729  10.345   8.045   6.991  0.0769 -0.8867 -0.4299
  129MOL0     C17730   9.929   8.742   6.848 -0.1398  0.2679  0.1074
  129MOL0     C17731   9.843   8.857   6.830 -0.0674  1.0417 -1.0801
  129MOL0     C17732   9.699   8.823   6.823 -1.5036  0.2992  0.4105
  129MOL0     H17733   9.626   9.298   6.897 -3.2997  1.4746  0.7895
  129MOL0     H17734   9.537   9.518   6.898  0.1579 -4.1796  2.7630
  129MOL0     H17735   9.486   9.739   6.892 -1.4118  1.1057 -2.0534
  129MOL0     H17736   9.556   9.766   6.725 -1.2999  2.0402 -0.8857
  129MOL0     H17737   9.553   9.975   6.949  0.3243  0.7075 -0.0385
  129MOL0     H17738   9.592   9.998   6.777 -1.4282 -0.1917 -0.1186
  129MOL0     H17739   9.398   9.911   6.701  1.7446  1.5257 -1.2392
  129MOL0     H17740   9.308   9.918   6.856 -2.7571  3.2184  1.0938
  129MOL0     H17741   9.447  10.164   6.792 -0.4907 -1.0127  4.8144
  129MOL0     H17742   9.304  10.113   6.680  0.9748  1.8558 -0.8645
  129MOL0     H17743   9.160  10.115   6.880 -1.1446 -0.5850  0.8624
  129MOL0     H17744   9.213  10.274   6.830  0.6470 -1.9245 -1.3899
  129MOL0     H17745   9.368  10.118   7.041 -0.3913 -0.3879  0.6446
  129MOL0     H17746   9.351  10.297   7.002  1.2946 -0.4964 -4.5311
  129MOL0     H17747   9.148  10.116   7.124  0.6929 -0.3686 -3.3258
  129MOL0     H17748   9.122  10.286   7.080  1.0451  1.3994  0.2807
  129MOL0     H17749   9.346  10.190   7.263 -1.4834 -2.7786 -1.5941
  129MOL0     H17750   9.289  10.354   7.240 -0.6618 -0.1690 -5.7400
  129MOL0     H17751   9.259  10.150   7.520 -1.1290 -0.9902 -2.2560
  129MOL0     H17752   8.977  10.278   7.756  0.5666  1.3900 -2.1275
  129MOL0     H17753   9.107  10.150   7.737  0.2088  0.9577 -1.3529
  129MOL0     H17754   8.875  10.087   7.781  1.0054  1.0196 -0.7680
  129MOL0     H17755   8.838  10.098   7.608 -0.5561  3.6976  1.6856
  129MOL0     H17756   8.908   9.862   7.681  2.9399 -2.2653  1.3415
  129MOL0     H17757   9.019   9.933   7.558 -2.1552  0.7717 -0.4581
  129MOL0     H17758   9.127   9.804   7.718  2.6607  0.1989  0.2634
  129MOL0     H17759   9.190   9.962   7.745  0.7164  0.6016  4.4966
  129MOL0     H17760   8.998   9.900   8.130 -0.8450 -2.3207 -4.3927
  129MOL0     H17761   9.141   9.952   8.398  1.6400  0.5032 -1.4010
  129MOL0     H17762   9.143   9.777   8.426 -0.1317 -2.7741 -2.8071
  129MOL0     H17763   9.004   9.847   8.347 -0.2196  2.0566 -5.7370
  129MOL0     H17764   9.621   9.873   8.507  0.1188  1.2128  0.6091
  129MOL0     H17765   9.738   9.781   8.678 -0.1264 -0.9333 -0.8074
  129MOL0     H17766   9.580   9.415   8.913 -1.6750  2.3887 -0.5189
  129MOL0     H17767   9.707   9.419   8.787  0.2324  0.7992  0.0503
  129MOL0     H17768   9.727   9.509   9.074 -1.0061  0.0416 -0.7411
  129MOL0     H17769   9.740   9.335   9.024 -0.1023 -0.7172 -1.7853
  129MOL0     H17770   9.979   9.447   9.060 -0.2629  1.8507  0.6379
  129MOL0     H17771   9.934   9.555   8.930 -0.3651  1.1067  2.5402
  129MOL0     H17772   9.924   9.355   8.782  0.3551  0.7764  0.9974
  129MOL0     H17773   9.911   9.246   8.918  0.5968 -0.4745  1.6968
  129MOL0     H17774  10.117   9.441   8.824 -3.7723  0.6685 -1.6541
  129MOL0     H17775  10.159   9.329   8.959 -1.0270  2.5140  1.0334
  129MOL0     H17776  10.085   9.248   8.677  0.6001 -0.5668 -0.1156
  129MOL0     H17777  10.124   9.136   8.809 -1.4987 -1.1915 -2.4958
  129MOL0     H17778  10.312   9.141   8.672 -2.5597 -1.4235  2.2277
  129MOL0     H17779  10.341   9.222   8.832 -0.8467  2.5277  1.4275
  129MOL0     H17780  10.458   9.325   8.655 -0.5522 -1.4880 -1.5194
  129MOL0     H17781  10.337   9.434   8.738  0.3076 -0.9498  1.0884
  129MOL0     H17782   9.413   9.517   8.776  0.9687 -1.9284 -0.4787
  129MOL0     H17783   9.277   9.637   8.586 -0.5052 -2.6750  1.8506
  129MOL0     H17784   9.468   9.784   8.051  0.3429 -0.6564  0.2379
  129MOL0     H17785   9.313   9.801   7.863  1.6088  1.7543 -0.2269
  129MOL0     H17786   9.929   9.679   6.813  1.7037 -0.9170  2.9316
  129MOL0     H17787  10.016   9.453   6.779 -0.7233 -2.5303 -0.2241
  129MOL0     H17788  10.087   9.090   6.878 -0.4117  0.6672 -0.5730
  129MOL0     H17789  10.219   8.901   6.914  0.1685  0.6512 -0.3847
  129MOL0     H17790  10.274   8.641   7.046  0.6111 -2.9736  2.7025
  129MOL0     H17791  10.107   8.616   7.071 -0.9362 -1.7671 -2.6302
  129MOL0     H17792  10.110   8.384   6.972 -2.2535  2.1917  2.3083
  129MOL0     H17793  10.234   8.398   7.093  0.3371 -1.4439 -0.9245
  129MOL0     H17794  10.306   8.465   6.809 -2.0122 -2.2573 -2.1561
  129MOL0     H17795  10.409   8.409   6.939  0.2147  1.1450  0.1014
  129MOL0     H17796  10.354   8.240   6.745 -1.6002 -0.4843 -1.1452
  129MOL0     H17797  10.192   8.251   6.798 -0.2693  1.8592  1.0083
  129MOL0     H17798  10.369   7.966   7.059 -0.7315 -0.6863  0.1018
  129MOL0     H17799   9.881   8.645   6.854  0.5956 -0.0583  0.8745
  129MOL0     H17800   9.675   8.716   6.822  0.9259 -0.2937 -0.2838
  129MOL0     H17801   9.640   8.872   6.901 -2.1730  0.0323  0.0871
  129MOL0     H17802   9.673   8.859   6.723  1.6422 -0.1970 -0.6937
  130MOL0     O17803   6.419   0.755   8.426 -0.4515  0.5955 -0.1039
  130MOL0     C17804   6.456   0.695   8.528  0.1592  0.4576  0.0006
  130MOL0     O17805   6.383   0.686   8.649  0.2342 -0.1480  0.1694
  130MOL0     C17806   6.254   0.698   8.637  0.9253 -0.0964 -1.1578
  130MOL0     C17807   6.171   0.600   8.589 -0.2489 -0.7858  0.7083
  130MOL0     C17808   6.035   0.615   8.598  0.7042 -0.7617  0.0101
  130MOL0     C17809   5.972   0.719   8.673 -0.8860 -1.2856  0.3516
  130MOL0     O17810   5.834   0.719   8.687 -0.1407  0.1257  0.0101
  130MOL0     C17811   5.762   0.829   8.651  0.5098 -0.6476 -0.6055
  130MOL0     C17812   5.772   0.863   8.502 -0.0966  0.3380 -0.8542
  130MOL0     C17813   5.678   0.777   8.412 -0.8900  0.2814 -0.7112
  130MOL0     C17814   5.536   0.826   8.408  0.5845 -0.0823  0.4537
  130MOL0     C17815   5.435   0.764   8.315 -0.4489 -1.0498 -0.7481
  130MOL0     C17816   5.508   0.734   8.190  0.5873  0.7279 -0.0965
  130MOL0     C17817   5.403   0.700   8.081 -1.1853  0.0796 -0.6298
  130MOL0     C17818   5.491   0.669   7.951  0.6471 -0.0382 -0.9861
  130MOL0     N17819   5.395   0.613   7.854  0.3986 -0.2649  0.1677
  130MOL0     C17820   5.370   0.683   7.734 -0.2116 -0.1243 -1.4610
  130MOL0     C17821   5.277   0.600   7.675 -0.1286  0.2875 -0.0561
  130MOL0     C17822   5.198   0.634   7.552 -0.4796  0.3106 -0.1874
  130MOL0     C17823   5.090   0.737   7.586  0.5503 -0.7777 -0.2055
  130MOL0     C17824   5.014   0.737   7.720 -0.4466  0.2310  0.0579
  130MOL0     C17825   4.935   0.607   7.737 -0.7391 -0.9102 -1.3110
  130MOL0     O17826   4.832   0.611   7.839  0.3438  0.2885  0.2904
  130MOL0     C17827   4.864   0.607   7.971 -0.0733 -0.3159  0.0736
  130MOL0     C17828   4.763   0.634   8.059  0.1086 -0.4414  0.6614
  130MOL0     C17829   4.796   0.627   8.195 -0.5705 -0.2146 -0.2435
  130MOL0     C17830   4.682   0.643   8.293 -0.2315 -0.0120 -0.4979
  130MOL0     C17831   4.927   0.616   8.239  0.1608  0.4512 -0.1256
  130MOL0     C17832   4.968   0.615   8.387  0.0258 -1.0875  0.0068
  130MOL0     O17833   5.108   0.606   8.402 -0.0622 -0.2921  0.6731
  130MOL0     C17834   5.156   0.640   8.519  0.2188 -0.0789 -1.0113
  130MOL0     C17835   5.185   0.774   8.550  0.4877  0.1987  0.5870
  130MOL0     C17836   5.224   0.819   8.678  0.0831 -0.2462  0.4052
  130MOL0     C17837   5.250   0.725   8.776  0.7362  0.2595 -0.2103
  130MOL0     O17838   5.291   0.773   8.895 -1.6162 -0.5101  0.1450
  130MOL0     C17839   5.406   0.697   8.950  0.4058 -0.2018  0.1259
  130MOL0     C17840   5.487   0.758   9.072 -0.6722  0.5585 -0.3326
  130MOL0     C17841   5.422   0.743   9.206  0.7601  0.4849  0.1035
  130MOL0     C17842   5.276   0.793   9.216 -0.9824 -0.6807 -0.7195
  130MOL0     C17843   5.246   0.944   9.185  0.1247  1.5146 -0.3494
  130MOL0     C17844   5.099   0.957   9.162 -0.5080 -0.6419  0.1789
  130MOL0     C17845   5.041   1.089   9.082 -0.8368 -0.1752  0.4510
  130MOL0     C17846   5.000   1.051   8.934  0.3559 -0.6580 -0.2765
  130MOL0    Cl17847   4.885   1.147   8.848 -0.2328  0.0007  0.4272
  130MOL0     C17848   5.232   0.591   8.746 -0.5494 -0.0658  0.7175
  130MOL0     C17849   5.187   0.540   8.623  0.2015 -0.1950  0.3905
  130MOL0     O17850   4.884   0.632   8.478  0.1012  0.1603 -0.5600
  130MOL0     C17851   5.028   0.601   8.153 -0.3390  0.2648  1.0761
  130MOL0     C17852   4.996   0.585   8.018 -0.5428 -0.0491  1.0775
  130MOL0     N17853   5.257   0.482   7.751 -0.6880 -0.5284  0.2840
  130MOL0     N17854   5.340   0.490   7.853  0.4886 -0.0014 -0.3937
  130MOL0     C17855   6.055   0.829   8.706 -0.6640  0.3262 -0.6305
  130MOL0     C17856   6.198   0.813   8.692 -0.4442  0.0018 -0.6339
  130MOL0     C17857   6.583   0.630   8.521  0.4133  0.1094  0.2599
  130MOL0     C17858   6.604   0.548   8.415 -0.3468  1.2249 -0.4676
  130MOL0     C17859   6.731   0.486   8.404  0.8057 -0.5821  0.1401
  130MOL0     C17860   6.834   0.499   8.492 -0.7304  0.3298 -0.0784
  130MOL0     O17861   6.960   0.453   8.474 -0.2943 -0.2722  0.4517
  130MOL0     C17862   6.991   0.366   8.362 -0.0328  0.3841  0.1405
  130MOL0     C17863   7.138   0.319   8.370 -0.1118 -0.7565 -0.4016
  130MOL0     C17864   7.143   0.214   8.483 -1.0138  0.9703 -0.1706
  130MOL0     C17865   7.116   0.062   8.448 -0.0057 -0.1922  0.0218
  130MOL0     C17866   7.185   0.015   8.334 -0.0544 -0.1124  0.5996
  130MOL0     C17867   7.228  -0.035   8.228  0.0411 -0.4219  0.3064
  130MOL0     C17868   6.808   0.583   8.604 -0.0667 -0.2504  0.4179
  130MOL0     C17869   6.688   0.647   8.623 -1.5164  0.5435 -0.3947
  130MOL0     C17870   6.667   0.730   8.745 -0.3344  0.8027 -0.1781
  130MOL0     H17871   6.211   0.507   8.548 -1.0438 -4.0206  6.2774
  130MOL0     H17872   5.973   0.540   8.550 -0.5292 -0.4924  1.1214
  130MOL0     H17873   5.802   0.913   8.708 -2.5453  0.1432  0.5446
  130MOL0     H17874   5.661   0.811   8.689  0.3357  2.0311  0.4233
  130MOL0     H17875   5.745   0.969   8.507 -2.7010 -0.2523  3.1756
  130MOL0     H17876   5.878   0.857   8.479 -1.0254 -0.5519 -6.0431
  130MOL0     H17877   5.713   0.780   8.308  1.3156  2.5728  0.0097
  130MOL0     H17878   5.683   0.677   8.456  0.8419  1.3135  1.6486
  130MOL0     H17879   5.500   0.819   8.511 -1.4358 -2.5470 -0.3101
  130MOL0     H17880   5.537   0.933   8.386  0.1348 -0.4281 -1.3929
  130MOL0     H17881   5.357   0.837   8.289 -1.2686 -1.2493  1.0323
  130MOL0     H17882   5.397   0.674   8.363 -2.2110  0.8329  1.6575
  130MOL0     H17883   5.557   0.825   8.153 -0.2784  0.3354 -2.4088
  130MOL0     H17884   5.575   0.647   8.195  1.1680  1.2102  0.7480
  130MOL0     H17885   5.342   0.790   8.073  1.9752  2.3559 -0.9388
  130MOL0     H17886   5.333   0.621   8.109 -1.4898  0.4141 -0.4363
  130MOL0     H17887   5.541   0.756   7.909  1.8105  0.5386  1.4451
  130MOL0     H17888   5.567   0.592   7.970  2.0230  0.7485 -2.9214
  130MOL0     H17889   5.423   0.769   7.693 -1.2845  0.7600 -1.0672
  130MOL0     H17890   5.144   0.546   7.515 -1.9893  1.5685 -1.1087
  130MOL0     H17891   5.255   0.678   7.470 -2.1279  1.8722 -0.5715
  130MOL0     H17892   5.143   0.833   7.578 -2.9246  1.4717  1.3703
  130MOL0     H17893   5.018   0.718   7.505  2.7488 -0.8294 -2.2541
  130MOL0     H17894   5.096   0.747   7.791  3.6291 -0.5364 -4.1020
  130MOL0     H17895   4.947   0.824   7.719 -0.1239  0.5382 -2.5138
  130MOL0     H17896   4.888   0.581   7.642 -2.1576  0.8758 -1.1375
  130MOL0     H17897   4.987   0.513   7.759  1.6771  0.1523 -2.1974
  130MOL0     H17898   4.667   0.654   8.013  0.9573  2.0013 -0.2132
  130MOL0     H17899   4.594   0.645   8.229 -1.2799 -2.1821  0.7631
  130MOL0     H17900   4.701   0.736   8.348  2.0518 -1.0411  0.5855
  130MOL0     H17901   4.671   0.555   8.358 -0.3261  1.0642  1.0007
  130MOL0     H17902   5.178   0.860   8.483 -1.7739  1.3851  2.1701
  130MOL0     H17903   5.241   0.923   8.703  0.9762 -0.4148  0.5279
  130MOL0     H17904   5.373   0.595   8.971 -3.7530  0.6559 -1.3537
  130MOL0     H17905   5.483   0.698   8.872  0.4850 -1.5662  0.1734
  130MOL0     H17906   5.587   0.713   9.070  1.3606  4.5602 -3.3103
  130MOL0     H17907   5.506   0.865   9.069 -2.0435  0.8651  0.8490
  130MOL0     H17908   5.469   0.798   9.288 -0.0744 -0.7612  1.4738
  130MOL0     H17909   5.422   0.638   9.236 -1.8922  0.5253  0.4743
  130MOL0     H17910   5.245   0.783   9.320  1.7141 -2.3575  0.0086
  130MOL0     H17911   5.211   0.734   9.150 -0.7914 -1.2807 -0.3847
  130MOL0     H17912   5.262   1.004   9.275  1.6315 -1.0545  1.2321
  130MOL0     H17913   5.304   0.980   9.099  0.5056 -0.9129 -1.1994
  130MOL0     H17914   5.042   0.943   9.254  0.2826 -1.0547  0.6228
  130MOL0     H17915   5.073   0.879   9.089  1.4052  1.3437 -2.8468
  130MOL0     H17916   5.118   1.166   9.086  0.8752 -1.8388  1.3812
  130MOL0     H17917   4.961   1.138   9.138  0.7911  4.4806 -0.8666
  130MOL0     H17918   4.953   0.952   8.929  1.8880 -1.3711 -2.1414
  130MOL0     H17919   5.087   1.055   8.867  1.2296  3.9138  0.8222
  130MOL0     H17920   5.241   0.529   8.834  1.0498 -0.0737  0.5808
  130MOL0     H17921   5.162   0.436   8.608 -2.7705  0.4666  0.1126
  130MOL0     H17922   5.134   0.599   8.178  0.6571  0.4928 -2.5945
  130MOL0     H17923   5.073   0.547   7.952 -2.2001 -4.2046  1.2320
  130MOL0     H17924   6.009   0.906   8.768  0.3119  1.2853 -1.0644
  130MOL0     H17925   6.273   0.879   8.734  1.0859 -3.1103  1.9172
  130MOL0     H17926   6.530   0.513   8.343 -0.1144 -5.1457  1.7416
  130MOL0     H17927   6.737   0.415   8.322 -1.5756 -1.5517  0.7325
  130MOL0     H17928   6.921   0.283   8.369 -0.2955  0.7757  3.9295
  130MOL0     H17929   6.983   0.430   8.273  0.2070 -0.1840 -0.2953
  130MOL0     H17930   7.203   0.397   8.410 -0.3181 -1.9151  2.4541
  130MOL0     H17931   7.161   0.282   8.270 -1.7474 -0.3413 -0.9664
  130MOL0     H17932   7.248   0.217   8.512 -0.7673  1.5497 -1.1041
  130MOL0     H17933   7.091   0.258   8.569 -2.1747  0.0396 -0.3723
  130MOL0     H17934   7.009   0.058   8.426 -0.6027  2.7886  1.8130
  130MOL0     H17935   7.129  -0.004   8.534  1.0684  2.5917  2.1475
  130MOL0     H17936   7.271  -0.067   8.135  2.1296 -2.4051  1.8677
  130MOL0     H17937   6.879   0.600   8.684 -0.4637 -1.4343  1.0527
  130MOL0     H17938   6.662   0.835   8.715  1.7514  0.7015 -1.0484
  130MOL0     H17939   6.578   0.695   8.797  0.2664  2.4090  2.0474
  130MOL0     H17940   6.743   0.707   8.820  1.8805  0.3949 -2.3795
  131MOL0     O17941  10.757   6.112   5.741  0.5282 -0.5359 -0.0529
  131MOL0     C17942  10.708   6.127   5.852 -0.3301 -0.6261 -0.6975
  131MOL0     O17943  10.656   6.024   5.934 -0.7715 -0.3124  0.0054
  131MOL0     C17944  10.715   5.901   5.895 -0.4381 -0.2390  0.0441
  131MOL0     C17945  10.849   5.880   5.917 -1.0040  0.1636 -0.0167
  131MOL0     C17946  10.903   5.753   5.882  0.0219 -0.2225  0.1527
  131MOL0     C17947  10.831   5.652   5.815 -0.0819  0.2227 -0.0670
  131MOL0     O17948  10.885   5.528   5.788  0.6347 -0.4133 -0.2469
  131MOL0     C17949  10.948   5.503   5.668  0.8235  0.5737 -0.2648
  131MOL0     C17950  11.095   5.533   5.684  0.5275  0.1133  0.5951
  131MOL0     C17951  11.185   5.467   5.781  0.0947 -0.2846  0.1772
  131MOL0     C17952  11.154   5.482   5.929  0.2258 -0.2694 -0.3668
  131MOL0     C17953  11.248   5.407   6.019 -0.0517 -0.8195  0.0738
  131MOL0     C17954  11.401   5.427   5.999 -1.1475 -0.5386 -0.1191
  131MOL0     C17955  11.457   5.566   5.973 -0.1514 -0.2583  0.8453
  131MOL0     C17956  11.411   5.672   6.067 -0.5581 -0.7675 -0.0072
  131MOL0     N17957  11.467   5.676   6.202 -0.3166 -0.3205  0.4406
  131MOL0     C17958  11.427   5.629   6.323 -0.2397  0.5565 -0.7994
  131MOL0     C17959  11.513   5.684   6.416 -0.2668  0.2761  0.4086
  131MOL0     C17960  11.505   5.653   6.557  0.9594 -0.2001 -0.8625
  131MOL0     C17961  11.630   5.697   6.636 -0.1662 -0.1590  0.0070
  131MOL0     C17962  11.616   5.692   6.782 -0.0212 -0.0965 -0.4478
  131MOL0     C17963  11.517   5.796   6.826  0.2315  0.5879  0.2131
  131MOL0     O17964  11.384   5.740   6.837 -0.9112  0.2657 -1.0607
  131MOL0     C17965  11.271   5.811   6.831  1.2207 -0.0626  0.0657
  131MOL0     C17966  11.248   5.948   6.804 -0.5750 -0.0568 -0.0075
  131MOL0     C17967  11.119   6.010   6.794 -0.2613 -0.3731  0.2769
  131MOL0     C17968  11.110   6.165   6.808  0.0389  0.7202 -0.3460
  131MOL0     C17969  11.008   5.925   6.801 -0.3340 -0.6081  0.1501
  131MOL0     C17970  10.868   5.987   6.784 -0.2432  1.2331 -1.0546
  131MOL0     O17971  10.798   5.915   6.691 -0.0795 -0.1098 -0.3065
  131MOL0     C17972  10.674   5.961   6.653 -0.6742  0.0882  0.4368
  131MOL0     C17973  10.579   5.965   6.760 -0.0387  0.5649  0.1956
  131MOL0     C17974  10.451   6.009   6.728 -0.0601 -0.0311 -0.5182
  131MOL0     C17975  10.414   6.049   6.604  0.3097  0.4840  0.1264
  131MOL0     O17976  10.284   6.102   6.591 -0.6469  0.1529 -0.4204
  131MOL0     C17977  10.225   6.092   6.456 -0.5664 -1.4028 -0.2396
  131MOL0     C17978  10.081   6.156   6.436  0.5467 -0.4298 -0.4874
  131MOL0     C17979  10.066   6.280   6.515  0.4245 -0.2847  0.2859
  131MOL0     C17980   9.927   6.348   6.497 -0.5021 -0.4494  0.7729
  131MOL0     C17981   9.914   6.468   6.586  0.0073  0.1345  0.7435
  131MOL0     C17982   9.763   6.506   6.584 -0.2507 -0.2747  0.5402
  131MOL0     C17983   9.740   6.653   6.603  0.0018  0.7226  0.1114
  131MOL0     C17984   9.593   6.670   6.627  0.5935 -0.7392  0.9873
  131MOL0    Cl17985   9.527   6.600   6.776  0.0031 -0.6268  0.0151
  131MOL0     C17986  10.516   6.048   6.506  0.1035  0.0512  0.0901
  131MOL0     C17987  10.644   6.013   6.527 -0.2500 -0.3892 -0.9448
  131MOL0     O17988  10.824   6.082   6.849  0.1756 -0.0109 -0.5900
  131MOL0     C17989  11.022   5.785   6.827  0.3845 -0.5535  0.0736
  131MOL0     C17990  11.154   5.733   6.859 -0.7287 -0.3158 -0.4020
  131MOL0     N17991  11.610   5.754   6.340 -0.0686 -0.3529 -0.3620
  131MOL0     N17992  11.584   5.748   6.213  0.0383 -0.4375 -1.5573
  131MOL0     C17993  10.696   5.677   5.798  0.5542  0.2484  0.4329
  131MOL0     C17994  10.635   5.799   5.843 -1.4247 -0.2210 -0.2044
  131MOL0     C17995  10.690   6.261   5.899  0.0160 -0.8491 -0.1075
  131MOL0     C17996  10.686   6.369   5.808  0.1813  0.8374 -0.3486
  131MOL0     C17997  10.652   6.497   5.862 -0.0519  0.3231 -0.2076
  131MOL0     C17998  10.627   6.522   5.996 -0.1806 -0.2822  0.0279
  131MOL0     O17999  10.556   6.638   6.027  0.2505  0.1852  1.0481
  131MOL0     C18000  10.604   6.733   6.118 -0.9412  0.0125 -0.4410
  131MOL0     C18001  10.492   6.803   6.193 -0.5458  0.2336  1.2570
  131MOL0     C18002  10.452   6.728   6.317 -0.2482 -0.4588  0.0376
  131MOL0     C18003  10.363   6.819   6.411  0.0278  0.5574  0.1802
  131MOL0     C18004  10.291   6.734   6.509 -0.5136  0.3272 -0.3621
  131MOL0     C18005  10.244   6.658   6.591  0.2688 -0.5204 -0.7425
  131MOL0     C18006  10.641   6.421   6.088  0.5122 -0.5252 -0.3733
  131MOL0     C18007  10.667   6.290   6.043 -1.0459  0.7691  0.3601
  131MOL0     C18008  10.658   6.184   6.147  0.6018 -0.9678  0.3209
  131MOL0     H18009  10.912   5.953   5.965 -0.3691 -0.3719 -0.0225
  131MOL0     H18010  11.009   5.728   5.881  0.1164 -0.2512 -3.3829
  131MOL0     H18011  10.905   5.567   5.591 -1.7199 -1.0285 -0.2941
  131MOL0     H18012  10.942   5.397   5.640 -0.9991  1.6183 -4.5896
  131MOL0     H18013  11.140   5.526   5.585  1.0963  2.1433  0.6660
  131MOL0     H18014  11.102   5.638   5.714  1.6719 -0.2986  1.8661
  131MOL0     H18015  11.183   5.361   5.757 -3.8566 -0.5169  0.8406
  131MOL0     H18016  11.285   5.504   5.757 -0.6522  3.1329  1.6510
  131MOL0     H18017  11.139   5.588   5.949 -1.6276 -0.6951  0.8298
  131MOL0     H18018  11.055   5.439   5.949 -1.3563  2.5699 -1.5736
  131MOL0     H18019  11.224   5.300   6.012  1.1865 -1.0098 -3.0129
  131MOL0     H18020  11.228   5.440   6.121  1.2281  1.3423 -0.3017
  131MOL0     H18021  11.452   5.382   6.084 -0.4112  2.2395  1.0065
  131MOL0     H18022  11.429   5.368   5.911 -0.3006 -0.2051 -0.0814
  131MOL0     H18023  11.418   5.603   5.878 -2.8594 -4.1749  0.1898
  131MOL0     H18024  11.566   5.559   5.963  0.0175 -2.3417  3.1751
  131MOL0     H18025  11.427   5.768   6.016 -5.2590  1.0833  1.4760
  131MOL0     H18026  11.304   5.664   6.087 -0.8414 -2.3278 -1.8910
  131MOL0     H18027  11.336   5.576   6.349  0.3640  0.7877  2.0444
  131MOL0     H18028  11.491   5.546   6.571 -6.7552  0.6057  2.6483
  131MOL0     H18029  11.410   5.702   6.581  0.7053 -0.7663 -0.7150
  131MOL0     H18030  11.717   5.636   6.609 -0.4700  0.1750 -1.8185
  131MOL0     H18031  11.645   5.804   6.622 -0.3992 -0.0325  0.6754
  131MOL0     H18032  11.584   5.596   6.824 -1.5745  1.0631  1.1460
  131MOL0     H18033  11.711   5.719   6.829 -0.7239  4.5769 -1.2271
  131MOL0     H18034  11.547   5.844   6.919  0.6551  1.2886 -0.2701
  131MOL0     H18035  11.507   5.882   6.758  0.8441 -0.5356 -1.3490
  131MOL0     H18036  11.337   6.009   6.810 -0.4250 -0.3447  0.7038
  131MOL0     H18037  11.016   6.208   6.772 -0.5137 -1.5527 -1.8398
  131MOL0     H18038  11.197   6.216   6.764 -1.2362  1.7638 -1.7701
  131MOL0     H18039  11.121   6.189   6.914 -2.1792  4.1547 -0.7282
  131MOL0     H18040  10.623   5.949   6.858  1.1923  1.2033 -0.2226
  131MOL0     H18041  10.380   6.025   6.809 -0.0125  0.0940 -0.5006
  131MOL0     H18042  10.281   6.146   6.380 -0.1950 -1.2640  0.1295
  131MOL0     H18043  10.210   5.992   6.414 -1.8232 -0.2666 -2.6433
  131MOL0     H18044  10.065   6.178   6.330 -0.3427  1.3546 -0.0251
  131MOL0     H18045  10.010   6.083   6.475 -1.1179  0.9884 -0.7198
  131MOL0     H18046  10.155   6.339   6.493  0.7395 -0.7827  0.2245
  131MOL0     H18047  10.081   6.258   6.621  3.4165  0.9019  0.2038
  131MOL0     H18048   9.851   6.271   6.508 -3.2045  1.6341 -1.6386
  131MOL0     H18049   9.921   6.378   6.392  1.9290 -0.7437  0.4886
  131MOL0     H18050   9.955   6.445   6.684  2.4050 -0.7421 -0.3894
  131MOL0     H18051   9.974   6.553   6.552  1.9432 -1.6647 -0.5660
  131MOL0     H18052   9.715   6.447   6.663  1.0501  0.2106  1.7212
  131MOL0     H18053   9.714   6.477   6.490 -1.4565 -0.9210  1.3363
  131MOL0     H18054   9.776   6.704   6.514  0.6862 -2.2728 -1.4522
  131MOL0     H18055   9.785   6.695   6.694  1.6907 -0.0977 -0.3061
  131MOL0     H18056   9.542   6.623   6.543 -0.0769  2.6290 -0.6547
  131MOL0     H18057   9.579   6.779   6.620 -3.9310 -1.2416 -0.7313
  131MOL0     H18058  10.485   6.077   6.406 -0.9453 -2.2517 -0.3213
  131MOL0     H18059  10.718   6.026   6.448 -2.2158  3.8523 -2.3950
  131MOL0     H18060  10.928   5.739   6.857  0.2027 -0.9034 -0.9858
  131MOL0     H18061  11.160   5.628   6.885  0.6544  0.2662  1.8227
  131MOL0     H18062  10.641   5.609   5.733 -0.1959  0.5756  0.7088
  131MOL0     H18063  10.529   5.819   5.832 -1.4902 -1.2056 -1.6466
  131MOL0     H18064  10.695   6.356   5.701  0.2722  1.6578 -0.4418
  131MOL0     H18065  10.661   6.583   5.796  0.7351  0.8883  0.6048
  131MOL0     H18066  10.663   6.695   6.202 -0.4561  0.4971 -0.5572
  131MOL0     H18067  10.663   6.818   6.080 -0.4232  0.9292  2.1754
  131MOL0     H18068  10.402   6.809   6.130 -0.9222  2.1966  1.9115
  131MOL0     H18069  10.525   6.902   6.227 -1.4106  0.4074  1.6224
  131MOL0     H18070  10.403   6.633   6.292  0.3933 -1.1536  1.3278
  131MOL0     H18071  10.542   6.704   6.374  0.4473 -0.0798 -0.8706
  131MOL0     H18072  10.283   6.866   6.354  1.6491  0.7157 -2.1267
  131MOL0     H18073  10.417   6.897   6.466 -1.9810  1.3151  1.1645
  131MOL0     H18074  10.212   6.583   6.660  0.6518  0.3943  0.4755
  131MOL0     H18075  10.615   6.440   6.191  1.3230  0.9371 -0.4104
  131MOL0     H18076  10.639   6.226   6.247 -1.4203 -2.2236  0.5038
  131MOL0     H18077  10.572   6.118   6.137 -0.2833 -0.5329  3.6798
  131MOL0     H18078  10.751   6.128   6.164  0.1032 -0.9865  3.6450
  132MOL0     O18079   3.536   4.129   2.320  0.4503 -0.6049 -0.0424
  132MOL0     C18080   3.600   4.022   2.313 -0.3741 -0.3375 -0.0365
  132MOL0     O18081   3.636   3.937   2.415  0.3987  1.1013  0.6851
  132MOL0     C18082   3.622   3.986   2.543 -0.1946 -0.1554  1.7156
  132MOL0     C18083   3.518   4.062   2.597 -0.7092 -0.1802  0.4818
  132MOL0     C18084   3.517   4.083   2.732  0.0146  0.4145 -0.7324
  132MOL0     C18085   3.623   4.048   2.819 -0.3157  0.0130  0.1692
  132MOL0     O18086   3.608   4.077   2.954  0.3479 -0.1473  0.0105
  132MOL0     C18087   3.699   4.030   3.042 -0.5816  0.1770 -0.6192
  132MOL0     C18088   3.681   4.095   3.183 -0.3746 -0.2299 -0.4827
  132MOL0     C18089   3.761   4.022   3.289  0.2724 -0.4009 -0.5363
  132MOL0     C18090   3.708   3.883   3.327  0.0060 -0.0535 -0.6893
  132MOL0     C18091   3.804   3.816   3.419 -0.0003 -0.2559  0.0459
  132MOL0     C18092   3.740   3.695   3.493 -0.5262 -0.0245  0.7402
  132MOL0     C18093   3.686   3.575   3.411  0.6861 -0.0109 -0.3787
  132MOL0     C18094   3.796   3.493   3.337 -0.7680 -0.0025  0.4415
  132MOL0     N18095   3.736   3.374   3.264 -0.5794  0.8808  0.0422
  132MOL0     C18096   3.720   3.357   3.127 -0.8603  0.7982  0.2483
  132MOL0     C18097   3.684   3.231   3.113  0.0513  0.1535  0.5823
  132MOL0     C18098   3.678   3.160   2.987 -0.5907 -0.1735  0.5241
  132MOL0     C18099   3.821   3.131   2.939  0.6340 -0.8773  0.6277
  132MOL0     C18100   3.883   3.026   3.022 -0.5494  0.4102  0.7593
  132MOL0     C18101   4.026   2.998   2.957 -0.4820 -0.1666  0.6142
  132MOL0     O18102   4.019   2.937   2.832  0.1379 -0.6691 -0.1251
  132MOL0     C18103   4.122   2.940   2.739  0.2874  0.8890 -0.7619
  132MOL0     C18104   4.086   2.888   2.617  0.3642  0.2715  0.7127
  132MOL0     C18105   4.180   2.873   2.513  0.5739 -0.1114 -0.7157
  132MOL0     C18106   4.125   2.837   2.380  0.0434  0.4476  0.3904
  132MOL0     C18107   4.317   2.906   2.537 -0.1519 -0.9935  0.0562
  132MOL0     C18108   4.430   2.869   2.448  0.0689  0.4909 -0.3843
  132MOL0     O18109   4.551   2.924   2.484 -0.4853 -0.6424 -0.1665
  132MOL0     C18110   4.657   2.907   2.388 -0.6290  0.1445  0.3115
  132MOL0     C18111   4.747   2.800   2.387 -0.4464  0.7861  0.9823
  132MOL0     C18112   4.852   2.793   2.289  0.0243 -0.7868 -0.3487
  132MOL0     C18113   4.860   2.886   2.185  0.2520 -0.2302 -0.1832
  132MOL0     O18114   4.955   2.866   2.085 -0.2678  0.2055 -1.3017
  132MOL0     C18115   5.093   2.886   2.128  0.8427 -0.2668 -0.5123
  132MOL0     C18116   5.169   2.773   2.083  0.6707  0.0610 -0.8325
  132MOL0     C18117   5.321   2.790   2.100  0.4736 -0.9974 -0.4509
  132MOL0     C18118   5.392   2.927   2.064 -0.3482  0.7378 -0.2518
  132MOL0     C18119   5.543   2.919   2.094 -0.8099 -0.0502  0.3089
  132MOL0     C18120   5.637   3.039   2.053  0.2680  0.1637 -0.6180
  132MOL0     C18121   5.587   3.176   2.104 -0.9682  0.7959 -0.1015
  132MOL0     C18122   5.699   3.286   2.099  0.4621  0.2258  1.1590
  132MOL0    Cl18123   5.800   3.248   2.244 -0.1705 -0.2850  0.3475
  132MOL0     C18124   4.761   2.985   2.178 -0.6964  0.6086 -0.5618
  132MOL0     C18125   4.670   3.001   2.286  0.3243  0.1953  0.0995
  132MOL0     O18126   4.399   2.815   2.343  0.2267 -0.2289  0.0946
  132MOL0     C18127   4.354   2.951   2.660  0.6274  0.6692  1.1897
  132MOL0     C18128   4.257   2.972   2.760  0.9161  0.3488 -0.0081
  132MOL0     N18129   3.661   3.177   3.235 -0.1903  0.4475  0.1816
  132MOL0     N18130   3.700   3.263   3.330 -0.1109  0.2878  0.0065
  132MOL0     C18131   3.723   3.974   2.762 -0.5848  0.6570 -0.1586
  132MOL0     C18132   3.718   3.937   2.632  0.6763  0.9555 -0.8293
  132MOL0     C18133   3.644   3.999   2.173 -0.0856  0.2093  0.4699
  132MOL0     C18134   3.710   4.098   2.099 -0.6078  0.6539 -0.6823
  132MOL0     C18135   3.772   4.073   1.976 -0.4801  0.0964 -0.7054
  132MOL0     C18136   3.783   3.943   1.929  0.7354  0.8423  0.9584
  132MOL0     O18137   3.850   3.929   1.815  0.0537 -0.2302 -0.5202
  132MOL0     C18138   3.783   3.837   1.727  1.0908  0.1547  0.8666
  132MOL0     C18139   3.860   3.812   1.596  1.1274 -0.8477  0.4560
  132MOL0     C18140   3.874   3.935   1.504  0.2521 -0.5650  0.5764
  132MOL0     C18141   3.992   3.916   1.408  0.0259  0.9393 -0.2952
  132MOL0     C18142   3.974   3.818   1.298  0.6887  0.1828  0.1189
  132MOL0     C18143   3.967   3.732   1.203  0.0977 -0.0977 -1.5191
  132MOL0     C18144   3.717   3.840   2.003 -0.2596  0.2568  0.4705
  132MOL0     C18145   3.652   3.868   2.128  1.2280 -0.3835  0.5418
  132MOL0     C18146   3.590   3.744   2.187  1.2443 -0.0326  0.6450
  132MOL0     H18147   3.433   4.101   2.543 -0.8400  0.3065  1.0265
  132MOL0     H18148   3.433   4.132   2.778 -1.8791 -4.1873  1.2812
  132MOL0     H18149   3.800   4.065   3.016 -1.6026  1.6296 -3.0063
  132MOL0     H18150   3.686   3.922   3.041 -0.3024  0.1465 -1.0903
  132MOL0     H18151   3.709   4.201   3.194 -1.8382  0.5035 -2.9435
  132MOL0     H18152   3.574   4.091   3.207 -0.1402  1.0592  0.9328
  132MOL0     H18153   3.868   4.029   3.265  0.8146  0.6736  1.8992
  132MOL0     H18154   3.758   4.079   3.382  0.3462 -1.6370  0.2478
  132MOL0     H18155   3.607   3.906   3.364  0.9458  4.5784 -0.3497
  132MOL0     H18156   3.698   3.827   3.234 -3.2339 -0.1595 -0.4071
  132MOL0     H18157   3.820   3.891   3.497 -0.6663 -0.6332  0.5494
  132MOL0     H18158   3.894   3.774   3.373  0.2741  0.4272 -0.0528
  132MOL0     H18159   3.806   3.667   3.575 -2.5405  2.4402  3.3900
  132MOL0     H18160   3.666   3.750   3.551  0.4482  1.6336  0.4787
  132MOL0     H18161   3.616   3.609   3.334 -1.6666  0.8492  1.9608
  132MOL0     H18162   3.627   3.515   3.481 -1.8688 -1.2754 -3.4085
  132MOL0     H18163   3.853   3.551   3.263 -0.0954 -1.2077 -0.0209
  132MOL0     H18164   3.856   3.446   3.415 -3.3272 -2.4375  1.1091
  132MOL0     H18165   3.735   3.426   3.044 -0.2308  1.8882  1.2301
  132MOL0     H18166   3.620   3.219   2.915 -1.0967 -2.1953 -0.8288
  132MOL0     H18167   3.633   3.060   2.995  3.3668 -2.1801  0.1844
  132MOL0     H18168   3.820   3.095   2.836  1.7087 -2.2930  1.0809
  132MOL0     H18169   3.877   3.224   2.950  0.8414 -0.6344 -1.8606
  132MOL0     H18170   3.899   3.055   3.126 -0.9252 -2.0362  1.5600
  132MOL0     H18171   3.830   2.931   3.015  0.5587 -0.3561  2.2321
  132MOL0     H18172   4.085   3.089   2.967  0.1733 -0.7581  2.5569
  132MOL0     H18173   4.080   2.927   3.021  3.0110  0.2361 -1.5960
  132MOL0     H18174   3.984   2.864   2.590  1.1786 -0.2432 -2.3390
  132MOL0     H18175   4.154   2.736   2.349  0.5377  0.9799 -0.9631
  132MOL0     H18176   4.166   2.893   2.295 -0.9066 -1.0850 -1.1299
  132MOL0     H18177   4.017   2.848   2.371  0.0289 -1.0359 -1.7668
  132MOL0     H18178   4.737   2.720   2.459  0.2466  0.6919  0.9753
  132MOL0     H18179   4.922   2.711   2.291  0.1826 -0.6383  0.4942
  132MOL0     H18180   5.116   2.984   2.085  1.1167 -0.2415 -0.3140
  132MOL0     H18181   5.116   2.910   2.232  2.5888 -1.7662 -0.5000
  132MOL0     H18182   5.131   2.690   2.144 -1.1426  2.3765  1.3685
  132MOL0     H18183   5.143   2.751   1.979 -3.3125 -1.2667  0.2680
  132MOL0     H18184   5.366   2.706   2.047  5.0755  0.4854  0.6389
  132MOL0     H18185   5.348   2.780   2.206  2.2279 -0.7918 -0.8354
  132MOL0     H18186   5.342   3.008   2.117  0.6804 -0.6733  3.1185
  132MOL0     H18187   5.397   2.936   1.955  3.4018  0.1960 -0.2814
  132MOL0     H18188   5.541   2.905   2.202 -0.3918  0.3334  0.3642
  132MOL0     H18189   5.583   2.840   2.030  2.4685  3.2862 -2.2144
  132MOL0     H18190   5.646   3.065   1.947 -1.4949  0.4364 -0.7290
  132MOL0     H18191   5.733   3.026   2.104 -0.1125 -0.6997 -0.0968
  132MOL0     H18192   5.545   3.167   2.205  0.7088 -0.8845  0.5133
  132MOL0     H18193   5.512   3.219   2.037 -0.9597  4.5961  2.0508
  132MOL0     H18194   5.648   3.383   2.109 -5.2815 -1.5799 -4.0035
  132MOL0     H18195   5.762   3.288   2.010  0.6151  0.1794  1.2659
  132MOL0     H18196   4.757   3.058   2.098 -1.3131  0.6651 -0.4816
  132MOL0     H18197   4.598   3.082   2.294 -2.0423 -1.6461 -1.2268
  132MOL0     H18198   4.456   2.970   2.691  2.0616 -3.4235 -0.2822
  132MOL0     H18199   4.292   2.999   2.859 -3.4120 -2.8128  2.7681
  132MOL0     H18200   3.800   3.943   2.832 -2.2541 -2.1867  0.5844
  132MOL0     H18201   3.793   3.869   2.592 -0.0223 -0.8778  0.8242
  132MOL0     H18202   3.716   4.198   2.139 -2.5740  0.8501 -0.7631
  132MOL0     H18203   3.837   4.149   1.934  2.1819 -1.3697  0.4839
  132MOL0     H18204   3.771   3.737   1.769  0.3169 -0.5476 -0.8914
  132MOL0     H18205   3.683   3.874   1.699  1.9426  0.3900 -2.2249
  132MOL0     H18206   3.813   3.729   1.542 -0.7470  1.1081 -1.0498
  132MOL0     H18207   3.962   3.781   1.618  2.9639  0.2049 -5.1842
  132MOL0     H18208   3.783   3.947   1.446 -0.4937 -1.7077  1.4635
  132MOL0     H18209   3.893   4.025   1.563 -1.1614 -1.4344  2.4573
  132MOL0     H18210   4.068   3.872   1.472 -0.0061 -0.5825 -1.2287
  132MOL0     H18211   4.043   4.004   1.369 -1.5674  1.2411 -1.8455
  132MOL0     H18212   3.955   3.665   1.120 -0.0719  1.7678 -3.0647
  132MOL0     H18213   3.726   3.739   1.966 -1.1210  0.4764 -0.3743
  132MOL0     H18214   3.501   3.765   2.248  1.5299 -0.3815  1.1857
  132MOL0     H18215   3.569   3.663   2.116  1.4975 -1.7997  2.4885
  132MOL0     H18216   3.662   3.702   2.257 -0.8185 -2.8758  1.2362
  133MOL0     O18217   7.564  10.251   9.113 -0.2652 -0.2420  0.2851
  133MOL0     C18218   7.470  10.197   9.049  0.1139 -0.2513 -0.4701
  133MOL0     O18219   7.485  10.121   8.938  0.3856 -0.8224 -0.3852
  133MOL0     C18220   7.614  10.092   8.910 -0.3168  0.7058  0.3631
  133MOL0     C18221   7.693  10.180   8.833  0.1110 -0.8434  1.2200
  133MOL0     C18222   7.831  10.159   8.796 -0.2609 -0.8839 -0.3544
  133MOL0     C18223   7.894  10.049   8.856 -0.3993 -0.7790  0.2735
  133MOL0     O18224   8.030  10.037   8.849  0.6950  1.1174 -0.3275
  133MOL0     C18225   8.075   9.963   8.734 -0.3588  0.3226  0.3401
  133MOL0     C18226   8.121  10.057   8.630  0.0156  0.0264  0.1567
  133MOL0     C18227   8.241  10.138   8.677 -0.4421  0.4459  0.9862
  133MOL0     C18228   8.283  10.268   8.596 -1.2496 -0.6223  0.6778
  133MOL0     C18229   8.391  10.343   8.664  0.0144 -0.4226  0.1309
  133MOL0     C18230   8.518  10.384   8.580 -0.4904 -0.5634  0.3757
  133MOL0     C18231   8.612  10.488   8.664  0.4991 -0.0572  0.1312
  133MOL0     C18232   8.544  10.614   8.730 -0.1541  0.3904  0.5764
  133MOL0     N18233   8.647  10.681   8.801  0.3776 -0.1796  0.1856
  133MOL0     C18234   8.726  10.776   8.732  0.2327 -0.2267 -1.0115
  133MOL0     C18235   8.828  10.789   8.826 -0.3041  0.8939  0.5162
  133MOL0     C18236   8.950  10.871   8.779 -0.2689 -0.7993 -0.0574
  133MOL0     C18237   9.070  10.847   8.874  0.6458 -0.0841  0.2538
  133MOL0     C18238   9.078  10.958   8.980 -0.0703 -0.6534  0.7909
  133MOL0     C18239   9.198  10.946   9.083  0.7119 -0.0588 -0.3490
  133MOL0     O18240   9.325  10.976   9.035  0.3896 -0.4467 -0.9665
  133MOL0     C18241   9.434  10.934   9.104  0.1210  0.6662 -0.4613
  133MOL0     C18242   9.557  10.937   9.038 -0.5131  0.9726  1.5543
  133MOL0     C18243   9.678  10.917   9.105 -0.1493 -1.1020  0.1243
  133MOL0     C18244   9.808  10.925   9.015 -1.1296 -0.0620 -0.6029
  133MOL0     C18245   9.673  10.895   9.244  1.1821  0.5019 -0.2169
  133MOL0     C18246   9.795  10.889   9.322 -0.0775  0.0313 -0.1375
  133MOL0     O18247   9.787  10.900   9.457  0.4821  0.2223  0.2437
  133MOL0     C18248   9.886  10.842   9.530  0.8905 -0.4024  0.1990
  133MOL0     C18249   9.925  10.703   9.527  0.7369 -0.4716 -0.1428
  133MOL0     C18250  10.017  10.655   9.612 -0.1739 -1.1445 -0.0572
  133MOL0     C18251  10.071  10.735   9.716 -0.0756 -1.1378  1.0413
  133MOL0     O18252  10.155  10.691   9.807 -0.2083 -0.2412 -0.4056
  133MOL0     C18253  10.116  10.731   9.940 -1.3256 -1.0851 -0.6265
  133MOL0     C18254  10.176  10.639  10.032 -0.1170 -0.3884 -0.2883
  133MOL0     C18255  10.330  10.642  10.030 -0.1701 -0.0113 -0.6488
  133MOL0     C18256  10.388  10.619  10.171  0.8786  0.1784  0.1208
  133MOL0     C18257  10.536  10.645  10.168  0.0966  1.2236  0.4525
  133MOL0     C18258  10.606  10.615  10.308 -0.6151  0.4317 -0.3663
  133MOL0     C18259  10.590  10.469  10.364 -0.3836  1.0181  0.2497
  133MOL0     C18260  10.703  10.437  10.466  0.1234  0.0334  0.6723
  133MOL0    Cl18261  10.852  10.411  10.364  0.2429  0.1924  0.3048
  133MOL0     C18262  10.039  10.876   9.713 -0.3348  0.6498  0.4522
  133MOL0     C18263   9.942  10.928   9.623 -0.0920  0.3171 -0.7547
  133MOL0     O18264   9.900  10.856   9.265  0.6571  0.1433  0.3238
  133MOL0     C18265   9.551  10.896   9.310  0.1898 -0.7270  0.8112
  133MOL0     C18266   9.429  10.915   9.243  0.0092  0.0963  0.5974
  133MOL0     N18267   8.808  10.694   8.930 -0.6952 -0.7481  1.0040
  133MOL0     N18268   8.701  10.637   8.914  0.7756  0.3289 -0.5196
  133MOL0     C18269   7.822   9.969   8.942 -0.8158 -0.1561 -0.1209
  133MOL0     C18270   7.679   9.986   8.962 -1.0518  0.6219 -0.5938
  133MOL0     C18271   7.332  10.216   9.107  0.3381  0.3370  0.2908
  133MOL0     C18272   7.314  10.310   9.217  0.0499  0.6262  0.0712
  133MOL0     C18273   7.189  10.326   9.277  0.6881 -0.6165  0.6101
  133MOL0     C18274   7.079  10.259   9.224  0.0493 -0.3379  0.1193
  133MOL0     O18275   6.959  10.290   9.287  0.1230 -0.4403  0.0912
  133MOL0     C18276   6.835  10.248   9.235  0.2334  0.2464  0.2484
  133MOL0     C18277   6.724  10.337   9.297 -0.2852 -0.4367 -1.1577
  133MOL0     C18278   6.573  10.300   9.302  0.2964  0.9559 -0.0470
  133MOL0     C18279   6.484  10.395   9.399 -0.2084  0.3018  0.2419
  133MOL0     C18280   6.343  10.402   9.341  0.2161  0.1464 -0.5535
  133MOL0     C18281   6.226  10.420   9.306  0.0014  0.1050 -0.7087
  133MOL0     C18282   7.093  10.166   9.114  0.6180  0.7951 -0.2173
  133MOL0     C18283   7.217  10.144   9.055  0.8115 -0.3034 -0.4181
  133MOL0     C18284   7.208  10.038   8.937 -0.1186  0.1431 -0.2715
  133MOL0     H18285   7.639  10.266   8.794  0.3405 -0.9774  0.5925
  133MOL0     H18286   7.872  10.238   8.733  1.5317  1.4003  3.3386
  133MOL0     H18287   7.988   9.908   8.698  1.6100 -3.1863  0.4624
  133MOL0     H18288   8.156   9.892   8.754  2.0960  2.4669 -1.2023
  133MOL0     H18289   8.152   9.993   8.546  1.9487 -2.3535  2.5079
  133MOL0     H18290   8.040  10.128   8.609 -0.2258  0.3606  2.0465
  133MOL0     H18291   8.241  10.164   8.783  1.3349  1.3765  0.8056
  133MOL0     H18292   8.326  10.069   8.673 -0.2126  0.6975  1.5092
  133MOL0     H18293   8.308  10.237   8.494 -0.8694  3.1379 -0.5041
  133MOL0     H18294   8.200  10.337   8.580 -0.2453  0.3953 -0.3235
  133MOL0     H18295   8.416  10.291   8.757  0.3794 -1.0217 -0.2934
  133MOL0     H18296   8.346  10.437   8.698 -1.2171 -1.4571  1.5398
  133MOL0     H18297   8.580  10.297   8.559 -1.2541 -1.0382  0.0134
  133MOL0     H18298   8.479  10.433   8.490 -0.8039 -1.2274  0.1402
  133MOL0     H18299   8.682  10.525   8.588 -1.2705  0.3069 -1.4040
  133MOL0     H18300   8.675  10.437   8.736  0.5048 -0.0484  0.1335
  133MOL0     H18301   8.497  10.679   8.655  0.6062 -1.1009 -1.2686
  133MOL0     H18302   8.459  10.594   8.796  0.4754  3.5296  2.5569
  133MOL0     H18303   8.711  10.835   8.642 -0.8538 -0.6133 -1.1053
  133MOL0     H18304   8.924  10.978   8.779 -2.0211 -1.0380  3.5567
  133MOL0     H18305   8.968  10.837   8.677 -4.4971 -0.4945 -1.1004
  133MOL0     H18306   9.058  10.755   8.932 -0.7904  0.4861  0.9035
  133MOL0     H18307   9.159  10.847   8.811  0.3114 -1.3867 -0.2331
  133MOL0     H18308   9.101  11.048   8.923 -1.5682 -2.8605 -3.7515
  133MOL0     H18309   8.984  10.969   9.035 -1.2974  3.2741 -1.7340
  133MOL0     H18310   9.170  11.012   9.166 -3.3341 -2.2396  0.2702
  133MOL0     H18311   9.187  10.844   9.120 -1.6343 -0.0347 -0.8068
  133MOL0     H18312   9.554  10.969   8.935 -3.1897  3.0876  2.1718
  133MOL0     H18313   9.872  11.007   9.051 -0.5551 -0.3706 -0.9031
  133MOL0     H18314   9.784  10.924   8.908 -1.0092  2.6488 -0.7378
  133MOL0     H18315   9.864  10.832   9.025 -1.7451 -0.2471  1.4883
  133MOL0     H18316   9.899  10.627   9.454  0.8866  0.5924 -1.3294
  133MOL0     H18317  10.062  10.557   9.606  0.8998 -0.6412 -0.8153
  133MOL0     H18318  10.161  10.828   9.960 -1.0278 -1.4759  0.7395
  133MOL0     H18319  10.007  10.739   9.942 -1.2554 -0.0480  1.0362
  133MOL0     H18320  10.150  10.666  10.135 -0.6461  0.8511 -0.7300
  133MOL0     H18321  10.136  10.539  10.013 -2.0868  0.2485  0.2683
  133MOL0     H18322  10.370  10.733   9.984 -0.9813  1.9149  2.1333
  133MOL0     H18323  10.355  10.550   9.977 -1.8993 -2.7720  2.8540
  133MOL0     H18324  10.369  10.520  10.213  0.4001  0.7080  1.1833
  133MOL0     H18325  10.354  10.684  10.252  1.4206 -1.1329  1.4473
  133MOL0     H18326  10.577  10.583  10.089  0.3948 -2.6702  3.3725
  133MOL0     H18327  10.550  10.751  10.144 -2.0278  1.0912 -1.8169
  133MOL0     H18328  10.574  10.686  10.385  3.3202  0.8417  1.1434
  133MOL0     H18329  10.714  10.633  10.301  0.3369 -4.1513 -0.7087
  133MOL0     H18330  10.608  10.400  10.281  4.0871 -0.9778  2.5498
  133MOL0     H18331  10.492  10.463  10.412 -2.3386  0.9327 -3.4117
  133MOL0     H18332  10.680  10.357  10.537  1.5849  2.0495  3.6203
  133MOL0     H18333  10.731  10.509  10.543  2.4006 -1.6738  1.5438
  133MOL0     H18334  10.090  10.943   9.781  2.6479 -0.2607 -0.7315
  133MOL0     H18335   9.897  11.025   9.642  0.3917  0.4796 -0.4304
  133MOL0     H18336   9.528  10.871   9.413 -0.9075  0.2238  0.8253
  133MOL0     H18337   9.337  10.949   9.290 -0.5398 -0.4736 -0.0337
  133MOL0     H18338   7.876   9.884   8.983  0.0523 -0.7261 -2.2633
  133MOL0     H18339   7.624   9.921   9.030 -0.2559  1.2277  0.6864
  133MOL0     H18340   7.403  10.353   9.264 -0.6562  2.6987 -0.3674
  133MOL0     H18341   7.189  10.403   9.352  1.6974 -0.7297  0.7386
  133MOL0     H18342   6.829  10.251   9.125  2.7700 -1.9802 -0.0461
  133MOL0     H18343   6.834  10.143   9.264 -0.3500  0.4325  0.9229
  133MOL0     H18344   6.735  10.432   9.244  0.2301 -0.0725 -0.4169
  133MOL0     H18345   6.756  10.336   9.402 -1.2071 -1.3184 -0.8704
  133MOL0     H18346   6.540  10.322   9.200  0.8851  0.9741 -0.2383
  133MOL0     H18347   6.556  10.196   9.328  0.9593  0.6432 -0.8084
  133MOL0     H18348   6.538  10.490   9.405  0.7159 -0.2738  1.8964
  133MOL0     H18349   6.481  10.366   9.505 -0.2257  2.1749  0.7831
  133MOL0     H18350   6.129  10.435   9.263  1.3405  2.2529 -3.2477
  133MOL0     H18351   7.001  10.115   9.086 -1.0267  2.7820  1.2281
  133MOL0     H18352   7.225   9.932   8.960 -0.1545 -0.0520 -1.1106
  133MOL0     H18353   7.109  10.044   8.891  0.2234  1.6087 -0.8770
  133MOL0     H18354   7.274  10.063   8.852  1.5774  0.3748  1.0504
  134MOL0     O18355   1.598   0.823  10.698 -0.3991  0.5858 -0.2457
  134MOL0     C18356   1.683   0.731  10.711 -0.4736  0.2736  0.0389
  134MOL0     O18357   1.768   0.679  10.614  0.4882  1.1512  0.6164
  134MOL0     C18358   1.755   0.723  10.479 -0.3192 -0.6156 -0.2885
  134MOL0     C18359   1.711   0.633  10.373  0.4242  0.2221 -0.2891
  134MOL0     C18360   1.698   0.680  10.243  0.1479 -0.4798 -1.1799
  134MOL0     C18361   1.731   0.815  10.211  0.9042 -0.5444  0.8693
  134MOL0     O18362   1.734   0.848  10.079  1.2899 -0.5936  0.7062
  134MOL0     C18363   1.753   0.987  10.048 -0.2666 -0.1503  0.6769
  134MOL0     C18364   1.730   1.027   9.900  0.5567  0.8033  0.5743
  134MOL0     C18365   1.803   0.944   9.797  0.4575  1.4988  0.3670
  134MOL0     C18366   1.753   0.973   9.653  0.4801  0.1472 -0.8907
  134MOL0     C18367   1.783   0.875   9.550  0.0538 -0.1632  0.5815
  134MOL0     C18368   1.724   0.925   9.417 -0.0816  0.5880 -0.1056
  134MOL0     C18369   1.768   0.828   9.299  1.2279 -0.5768  0.2476
  134MOL0     C18370   1.712   0.882   9.168 -0.6872  1.0653  0.2813
  134MOL0     N18371   1.773   0.823   9.045  0.1311 -0.0924  0.0104
  134MOL0     C18372   1.888   0.859   8.984  0.3088  0.1277 -0.6556
  134MOL0     C18373   1.917   0.771   8.892  0.3246  0.0709  0.0654
  134MOL0     C18374   2.036   0.781   8.809  0.2628 -0.4518  0.0185
  134MOL0     C18375   2.174   0.791   8.878  0.1235 -0.6479  0.0837
  134MOL0     C18376   2.220   0.668   8.956 -0.9368  1.0408 -0.0003
  134MOL0     C18377   2.317   0.712   9.061 -0.4422 -0.1900 -0.4057
  134MOL0     O18378   2.373   0.605   9.137  0.2321  0.5347  0.0135
  134MOL0     C18379   2.422   0.641   9.261  0.0218  0.8174 -0.2348
  134MOL0     C18380   2.486   0.533   9.333  0.0410 -0.6516  0.2361
  134MOL0     C18381   2.556   0.548   9.452  0.6103 -0.0976 -0.3239
  134MOL0     C18382   2.619   0.422   9.511 -0.7422 -0.4272  0.0744
  134MOL0     C18383   2.574   0.680   9.505 -0.2313 -0.6560 -0.9351
  134MOL0     C18384   2.651   0.716   9.627 -0.3118 -0.6405  0.7792
  134MOL0     O18385   2.687   0.843   9.647 -0.2570 -0.3433  0.2107
  134MOL0     C18386   2.776   0.877   9.750  0.3007 -0.0850 -0.6917
  134MOL0     C18387   2.869   0.971   9.725  0.4819 -0.0144  0.3659
  134MOL0     C18388   2.969   0.995   9.818  0.3760 -0.7063  0.5982
  134MOL0     C18389   2.954   0.943   9.939 -0.1257  0.3643 -1.4748
  134MOL0     O18390   3.065   0.980  10.029  0.8772 -0.2586 -0.0121
  134MOL0     C18391   3.037   1.018  10.166  0.1645  0.2987  0.2578
  134MOL0     C18392   3.170   1.018  10.238 -1.1343  0.1740 -1.2092
  134MOL0     C18393   3.274   1.117  10.189  0.2086  0.4920  0.6759
  134MOL0     C18394   3.382   1.137  10.296 -0.1006 -0.0361 -0.2458
  134MOL0     C18395   3.490   1.213  10.241  0.3783  0.0556  0.2328
  134MOL0     C18396   3.624   1.204  10.320  0.2157 -0.4662  0.1407
  134MOL0     C18397   3.733   1.289  10.252  0.2195 -0.9467 -0.0268
  134MOL0     C18398   3.783   1.220  10.134 -1.0478 -0.4845 -0.2916
  134MOL0    Cl18399   3.865   1.069  10.164  0.1111 -0.0411 -0.0045
  134MOL0     C18400   2.845   0.864   9.978  0.9197 -0.4456 -0.9477
  134MOL0     C18401   2.755   0.826   9.882 -0.9211  0.7250 -0.9562
  134MOL0     O18402   2.673   0.624   9.708  0.1681 -0.6979  0.0417
  134MOL0     C18403   2.498   0.783   9.441 -0.3113 -0.3202 -0.0868
  134MOL0     C18404   2.437   0.765   9.313  0.0642  0.2573  0.3121
  134MOL0     N18405   1.815   0.679   8.897  0.1694  0.0878 -0.6506
  134MOL0     N18406   1.725   0.712   8.981  0.8893  0.6408 -0.5804
  134MOL0     C18407   1.775   0.900  10.323  0.2800  0.5997  0.8365
  134MOL0     C18408   1.778   0.860  10.450 -0.6006  0.3435  0.5430
  134MOL0     C18409   1.702   0.677  10.851  0.8822  0.7621  0.7342
  134MOL0     C18410   1.829   0.684  10.899 -0.3011  0.4541  0.6635
  134MOL0     C18411   1.854   0.657  11.032  0.0805  0.9890 -0.4540
  134MOL0     C18412   1.755   0.608  11.112 -0.2477  0.0030 -0.1784
  134MOL0     O18413   1.778   0.558  11.232  0.6324 -0.3966 -0.0476
  134MOL0     C18414   1.694   0.595  11.342 -0.0422 -0.0829  0.2954
  134MOL0     C18415   1.710   0.738  11.385  0.3657  0.5196 -0.5193
  134MOL0     C18416   1.854   0.764  11.418  0.6603 -0.0560  0.2946
  134MOL0     C18417   1.885   0.915  11.409 -0.1571  1.2694 -0.8212
  134MOL0     C18418   1.917   0.942  11.270  0.8373 -0.3435  0.4522
  134MOL0     C18419   1.938   0.956  11.154  0.5898  0.6760  1.0222
  134MOL0     C18420   1.627   0.600  11.065  1.0082  0.4639  0.4721
  134MOL0     C18421   1.595   0.646  10.935  0.7764  1.6931 -0.0791
  134MOL0     C18422   1.447   0.633  10.887 -0.4058 -0.5020  0.8538
  134MOL0     H18423   1.702   0.526  10.387 -2.0421  0.4811  0.6106
  134MOL0     H18424   1.673   0.613  10.161  1.4162 -1.0241 -1.1347
  134MOL0     H18425   1.860   1.007  10.056  0.1837 -0.1408 -3.2997
  134MOL0     H18426   1.686   1.046  10.112  1.7091 -0.6695  3.4404
  134MOL0     H18427   1.626   1.004   9.875  1.7646 -5.2897 -0.4598
  134MOL0     H18428   1.762   1.131   9.890  0.2293  0.9312  0.8529
  134MOL0     H18429   1.910   0.962   9.807  0.6440  2.3292 -2.2321
  134MOL0     H18430   1.781   0.837   9.800 -0.1244  1.6395  2.8394
  134MOL0     H18431   1.646   0.958   9.664  0.4161  1.4830  0.9121
  134MOL0     H18432   1.783   1.077   9.635 -0.0744  0.7258  1.2282
  134MOL0     H18433   1.737   0.777   9.566 -0.3555 -0.3401 -1.3759
  134MOL0     H18434   1.892   0.876   9.547  0.0669  1.7155  0.1670
  134MOL0     H18435   1.616   0.922   9.434 -0.3127  0.9559 -1.4140
  134MOL0     H18436   1.755   1.024   9.385 -1.0532  1.0187  0.2442
  134MOL0     H18437   1.712   0.735   9.309 -0.9527  0.6340 -0.2377
  134MOL0     H18438   1.876   0.824   9.281  1.0049  0.3789 -1.4603
  134MOL0     H18439   1.604   0.865   9.167 -0.7108  0.9705 -2.6244
  134MOL0     H18440   1.726   0.991   9.168  1.6155  0.8220  0.6495
  134MOL0     H18441   1.940   0.949   9.016  3.0319 -1.7432  0.5752
  134MOL0     H18442   2.025   0.876   8.756 -2.5392  0.9116  2.7553
  134MOL0     H18443   2.047   0.705   8.731 -0.5493 -2.0405  1.3910
  134MOL0     H18444   2.238   0.822   8.795 -2.1043 -0.1320 -1.5673
  134MOL0     H18445   2.168   0.881   8.940  0.6144  0.9705 -2.0569
  134MOL0     H18446   2.133   0.613   8.992 -0.2664 -0.2650 -0.3108
  134MOL0     H18447   2.277   0.609   8.883  0.5178  3.5970 -1.0861
  134MOL0     H18448   2.406   0.768   9.028 -0.1295  2.2574  3.8958
  134MOL0     H18449   2.259   0.787   9.115 -2.1473 -0.6840 -1.4679
  134MOL0     H18450   2.477   0.435   9.287 -0.2493  0.3075 -1.8767
  134MOL0     H18451   2.728   0.422   9.507 -0.6203 -2.2640  1.6623
  134MOL0     H18452   2.590   0.334   9.453 -2.4410  0.7503 -0.9857
  134MOL0     H18453   2.585   0.405   9.614 -1.9127 -1.0626 -0.3944
  134MOL0     H18454   2.886   1.005   9.623  1.3929 -0.5444  0.3318
  134MOL0     H18455   3.044   1.061   9.775 -0.1488  0.1305  0.9608
  134MOL0     H18456   2.995   1.119  10.167 -1.6027 -0.3905  1.6515
  134MOL0     H18457   2.969   0.949  10.217 -1.8401  2.0831  0.1608
  134MOL0     H18458   3.151   1.057  10.339  0.6344  1.0263 -1.1738
  134MOL0     H18459   3.203   0.916  10.256 -1.6657  0.5278  2.5879
  134MOL0     H18460   3.230   1.216  10.170 -2.3278 -0.7870 -0.6300
  134MOL0     H18461   3.310   1.079  10.093  1.1385  0.5910  0.9800
  134MOL0     H18462   3.415   1.055  10.361 -1.0596 -0.0995  0.1859
  134MOL0     H18463   3.334   1.196  10.374 -0.6649  2.5782 -2.4358
  134MOL0     H18464   3.501   1.189  10.135  0.4013 -2.4950  0.7511
  134MOL0     H18465   3.453   1.316  10.246 -0.5219 -0.3192  2.4214
  134MOL0     H18466   3.665   1.102  10.325  0.7381 -0.3236 -1.0280
  134MOL0     H18467   3.600   1.242  10.420 -0.8533  2.4325 -1.1111
  134MOL0     H18468   3.818   1.305  10.319  0.8150  0.0932 -0.9951
  134MOL0     H18469   3.691   1.386  10.225 -0.3235 -1.1185  0.1960
  134MOL0     H18470   3.855   1.289  10.090 -0.8132 -0.0715  0.7054
  134MOL0     H18471   3.709   1.194  10.058  0.1853  1.7055 -2.3763
  134MOL0     H18472   2.832   0.820  10.077  0.9617 -0.5602 -0.9933
  134MOL0     H18473   2.682   0.762   9.930 -0.7842  1.6569  0.5743
  134MOL0     H18474   2.505   0.887   9.472 -0.8274  0.0722 -1.2423
  134MOL0     H18475   2.394   0.855   9.272  0.3296 -0.5555 -1.8656
  134MOL0     H18476   1.793   1.003  10.296  4.3640 -0.4807 -1.3691
  134MOL0     H18477   1.812   0.920  10.533 -0.5787  0.9472  0.1084
  134MOL0     H18478   1.912   0.714  10.837 -0.1250  2.6818  1.8615
  134MOL0     H18479   1.954   0.654  11.075 -0.8746 -3.0289  2.1307
  134MOL0     H18480   1.586   0.578  11.329 -0.4847 -0.8412  3.8026
  134MOL0     H18481   1.713   0.539  11.434 -5.4234 -1.3747  1.0081
  134MOL0     H18482   1.660   0.774  11.476  1.3691  1.3800 -0.2883
  134MOL0     H18483   1.690   0.809  11.304  0.0389  0.2359 -0.6862
  134MOL0     H18484   1.868   0.746  11.525 -3.3915 -1.5892  0.7250
  134MOL0     H18485   1.923   0.703  11.358  1.7933  1.4422  0.0104
  134MOL0     H18486   1.971   0.940  11.471 -0.9040  0.1719  0.7132
  134MOL0     H18487   1.804   0.981  11.442  0.3108  0.4267  2.2623
  134MOL0     H18488   1.952   0.965  11.048  1.2983  1.9697  1.1985
  134MOL0     H18489   1.544   0.564  11.125 -0.5252  1.8994 -0.7089
  134MOL0     H18490   1.402   0.533  10.899  1.0785 -1.1868  0.8771
  134MOL0     H18491   1.384   0.703  10.942 -2.1472 -1.0562 -0.3258
  134MOL0     H18492   1.429   0.646  10.779 -0.0148 -0.5551  0.7811
  135MOL0     O18493   1.271   6.809  10.497 -0.3726  0.2848  0.1716
  135MOL0     C18494   1.241   6.732  10.408 -0.4012 -0.9005 -0.2510
  135MOL0     O18495   1.190   6.770  10.288  0.1954  0.0592  0.5483
  135MOL0     C18496   1.213   6.899  10.252  0.2017 -0.3708 -0.9930
  135MOL0     C18497   1.321   6.982  10.289  0.2574  0.3996 -0.5575
  135MOL0     C18498   1.321   7.113  10.255  0.3476 -0.7855 -0.9607
  135MOL0     C18499   1.219   7.163  10.174  0.4997 -0.7242  0.4086
  135MOL0     O18500   1.217   7.300  10.135  0.2326 -0.6324 -0.0852
  135MOL0     C18501   1.335   7.337  10.072 -1.2068  0.0380  0.0040
  135MOL0     C18502   1.407   7.468  10.141 -1.0467  0.3090 -0.2551
  135MOL0     C18503   1.322   7.532  10.246 -0.3788 -0.6886  0.0003
  135MOL0     C18504   1.413   7.632  10.320  0.6728  0.3120 -0.2002
  135MOL0     C18505   1.460   7.752  10.254  0.3286  0.4138 -1.2340
  135MOL0     C18506   1.514   7.852  10.356 -0.6720 -0.0828 -0.1451
  135MOL0     C18507   1.410   7.926  10.448  0.2984 -0.0619  1.0938
  135MOL0     C18508   1.489   8.015  10.543 -0.8847  0.2828 -0.7907
  135MOL0     N18509   1.501   8.147  10.476 -0.5919  0.1054 -0.1767
  135MOL0     C18510   1.423   8.256  10.491 -0.0754  0.2664  0.0655
  135MOL0     C18511   1.476   8.359  10.420  0.5588 -0.3781 -0.4024
  135MOL0     C18512   1.409   8.495  10.415  0.0053 -0.4406  0.5017
  135MOL0     C18513   1.482   8.602  10.501 -0.2009 -0.4363  0.1824
  135MOL0     C18514   1.449   8.578  10.653 -0.0933 -0.1302  0.1868
  135MOL0     C18515   1.544   8.652  10.753 -0.0209  0.2086  0.4520
  135MOL0     O18516   1.508   8.789  10.771  1.0854  1.0556  0.2260
  135MOL0     C18517   1.583   8.862  10.849 -0.1412  0.6086  0.8591
  135MOL0     C18518   1.683   8.822  10.939  0.0846  0.7271  0.0629
  135MOL0     C18519   1.752   8.920  11.019 -0.2305 -0.5385  1.0610
  135MOL0     C18520   1.829   8.862  11.136 -0.6501  0.1824  0.0724
  135MOL0     C18521   1.726   9.060  11.007  0.1518 -0.2349 -0.3461
  135MOL0     C18522   1.791   9.162  11.097  0.0565  1.0957  0.1488
  135MOL0     O18523   1.734   9.288  11.085 -0.1247 -0.0811  0.8978
  135MOL0     C18524   1.793   9.399  11.145 -0.5037 -0.3540 -0.5803
  135MOL0     C18525   1.919   9.446  11.109  0.3499  0.6646  0.4850
  135MOL0     C18526   1.982   9.553  11.172 -0.6744 -0.5566 -0.5114
  135MOL0     C18527   1.913   9.630  11.266  0.0173 -0.5134  0.2274
  135MOL0     O18528   1.974   9.746  11.313  1.2809  0.7713  0.2623
  135MOL0     C18529   1.920   9.830  11.419 -0.2220  0.2649 -0.6684
  135MOL0     C18530   1.993   9.965  11.421  0.5244  0.0391  1.0044
  135MOL0     C18531   1.923  10.076  11.341 -0.6417 -0.7271 -0.6068
  135MOL0     C18532   1.811  10.132  11.417 -0.1929  1.1723 -0.0292
  135MOL0     C18533   1.736  10.240  11.348 -0.1737 -0.4356  0.1899
  135MOL0     C18534   1.817  10.372  11.347 -0.6493 -0.9174  0.4239
  135MOL0     C18535   1.760  10.481  11.253  0.1260  0.0052 -0.7089
  135MOL0     C18536   1.829  10.614  11.236  0.5337 -0.1907  0.1345
  135MOL0    Cl18537   1.823  10.700  11.398 -0.1735 -0.0942  0.8529
  135MOL0     C18538   1.783   9.595  11.302 -0.4530  0.0040 -0.1858
  135MOL0     C18539   1.725   9.476  11.241 -0.2549  0.1061 -0.3923
  135MOL0     O18540   1.906   9.139  11.137 -0.0610 -0.0084 -0.1374
  135MOL0     C18541   1.622   9.103  10.924 -0.1741  0.6435 -0.3802
  135MOL0     C18542   1.559   9.001  10.844 -0.7088 -0.5515 -0.7235
  135MOL0     N18543   1.593   8.316  10.364  1.1548 -0.1782  0.0151
  135MOL0     N18544   1.608   8.182  10.392 -0.4963 -0.7347  0.6667
  135MOL0     C18545   1.112   7.086  10.133  0.8533  0.0787  0.2645
  135MOL0     C18546   1.112   6.960  10.173 -0.3056  0.6611  0.0829
  135MOL0     C18547   1.263   6.591  10.436  0.5404  0.1047 -0.6477
  135MOL0     C18548   1.181   6.495  10.360 -0.4424 -0.5973 -0.2843
  135MOL0     C18549   1.206   6.362  10.383  0.3660 -0.3857 -0.7464
  135MOL0     C18550   1.290   6.316  10.484  0.5457  0.0798 -0.9536
  135MOL0     O18551   1.289   6.183  10.512  0.7274 -0.4885 -0.5087
  135MOL0     C18552   1.421   6.125  10.532 -0.3840  0.4259  0.4330
  135MOL0     C18553   1.511   6.143  10.405  0.5173  1.5373  0.8238
  135MOL0     C18554   1.448   6.086  10.276  0.3805 -0.3371  0.7285
  135MOL0     C18555   1.543   6.072  10.155 -0.4645 -0.1793  0.4190
  135MOL0     C18556   1.458   6.068  10.038  0.0262 -0.0241 -0.6154
  135MOL0     C18557   1.372   6.065   9.954  0.2260 -0.4163 -0.4444
  135MOL0     C18558   1.358   6.404  10.551 -0.4226 -0.6872 -0.7548
  135MOL0     C18559   1.348   6.543  10.537  0.1478  0.8174 -0.3646
  135MOL0     C18560   1.440   6.626  10.626 -0.3417 -0.4526 -0.1883
  135MOL0     H18561   1.409   6.957  10.349 -0.5527 -2.4575 -0.4253
  135MOL0     H18562   1.396   7.184  10.290 -0.4046 -0.6866  0.5584
  135MOL0     H18563   1.326   7.364   9.967  0.3699 -1.4206 -0.5417
  135MOL0     H18564   1.407   7.256  10.085  2.6891  2.5975 -3.2137
  135MOL0     H18565   1.496   7.434  10.196 -0.0641 -0.4818 -2.2301
  135MOL0     H18566   1.440   7.537  10.062  3.3664  1.2843  2.0899
  135MOL0     H18567   1.243   7.593  10.202 -2.6207  0.0030  4.4952
  135MOL0     H18568   1.286   7.457  10.317  0.4641  0.0575  1.2641
  135MOL0     H18569   1.362   7.667  10.410 -0.7464 -2.4855  0.2205
  135MOL0     H18570   1.501   7.574  10.351  1.9327  1.1852 -1.9924
  135MOL0     H18571   1.371   7.794  10.206 -0.4905  1.8528  1.3168
  135MOL0     H18572   1.541   7.736  10.183  3.2396 -0.9507  2.0729
  135MOL0     H18573   1.587   7.802  10.419 -0.6833  0.5360  0.3691
  135MOL0     H18574   1.574   7.926  10.303  1.3527  0.0433  2.1675
  135MOL0     H18575   1.336   7.861  10.497  0.0782  0.2053  1.1199
  135MOL0     H18576   1.352   7.986  10.377 -0.9697 -0.1233  2.0312
  135MOL0     H18577   1.438   8.042  10.636  0.4568 -2.4724  0.8901
  135MOL0     H18578   1.590   7.977  10.565  0.0809  3.5173  0.9224
  135MOL0     H18579   1.338   8.264  10.558  0.7858  2.8549  0.9844
  135MOL0     H18580   1.303   8.478  10.438 -0.5846  0.5961 -1.2136
  135MOL0     H18581   1.415   8.532  10.312  1.1543  1.9160  1.3393
  135MOL0     H18582   1.590   8.609  10.492 -0.2751 -1.3032 -1.8975
  135MOL0     H18583   1.442   8.697  10.465  0.1839 -0.9236 -1.6280
  135MOL0     H18584   1.349   8.617  10.675  0.9706  2.7231  0.2490
  135MOL0     H18585   1.459   8.469  10.662  3.9595 -0.0165 -1.2522
  135MOL0     H18586   1.551   8.593  10.844  1.3653 -0.5391 -0.1088
  135MOL0     H18587   1.643   8.669  10.711 -0.7946  1.2450 -1.0670
  135MOL0     H18588   1.689   8.715  10.955 -2.2074  0.2319 -1.7840
  135MOL0     H18589   1.801   8.909  11.231 -0.7264  0.6012 -0.1582
  135MOL0     H18590   1.933   8.891  11.125 -0.2656 -1.7108 -2.2574
  135MOL0     H18591   1.816   8.753  11.140 -0.9620  0.2229  0.1935
  135MOL0     H18592   1.971   9.413  11.020  1.5923  2.6178  0.4323
  135MOL0     H18593   2.083   9.590  11.157 -1.2098  0.5558 -1.5475
  135MOL0     H18594   1.811   9.844  11.417 -0.0475  1.9409 -0.2332
  135MOL0     H18595   1.934   9.777  11.513 -1.3987 -1.0338 -1.1886
  135MOL0     H18596   1.999  10.014  11.519  0.3464 -1.4155  1.7655
  135MOL0     H18597   2.092   9.953  11.376  0.9941  2.4734  1.2165
  135MOL0     H18598   1.891  10.048  11.240 -2.7524 -0.6575 -0.0066
  135MOL0     H18599   1.996  10.158  11.337  0.4508 -1.7095 -3.1523
  135MOL0     H18600   1.837  10.154  11.521 -0.9157  0.3853  0.3316
  135MOL0     H18601   1.735  10.053  11.417 -1.3257  2.2264  1.1644
  135MOL0     H18602   1.711  10.210  11.246  4.5179 -0.0225 -1.3461
  135MOL0     H18603   1.648  10.251  11.411 -1.2382 -2.0943 -0.9297
  135MOL0     H18604   1.918  10.356  11.310 -1.2093  0.3566 -1.8686
  135MOL0     H18605   1.810  10.406  11.451  2.7679 -3.4259  1.6634
  135MOL0     H18606   1.658  10.502  11.285  1.1877  1.2595  2.1907
  135MOL0     H18607   1.779  10.440  11.153  4.1257  1.3958 -0.6769
  135MOL0     H18608   1.796  10.664  11.145  1.7527 -1.5950 -1.1256
  135MOL0     H18609   1.931  10.597  11.203  0.3962  1.9088 -1.5745
  135MOL0     H18610   1.736   9.655  11.379 -0.2555  4.9449 -3.3947
  135MOL0     H18611   1.622   9.453  11.263 -0.0241 -0.6604 -0.0888
  135MOL0     H18612   1.603   9.209  10.911 -0.2091  0.5418 -1.1772
  135MOL0     H18613   1.485   9.032  10.771 -1.6231 -0.4155  0.2368
  135MOL0     H18614   1.031   7.125  10.073  1.5750  1.0411 -0.1153
  135MOL0     H18615   1.031   6.900  10.132 -3.1171  3.0806  1.6990
  135MOL0     H18616   1.118   6.521  10.275  1.2460  0.0787 -1.3773
  135MOL0     H18617   1.154   6.278  10.338  3.0397 -0.5498 -3.9376
  135MOL0     H18618   1.475   6.159  10.620  3.5625 -0.8226 -1.2742
  135MOL0     H18619   1.405   6.018  10.548  1.7435  0.0973  0.5710
  135MOL0     H18620   1.605   6.094  10.429 -1.2086 -3.0172 -0.6322
  135MOL0     H18621   1.534   6.248  10.385  0.4304  1.6985  1.5729
  135MOL0     H18622   1.407   5.987  10.298 -0.3103 -0.3969 -0.6980
  135MOL0     H18623   1.369   6.152  10.239  0.6639 -1.0187 -1.2311
  135MOL0     H18624   1.596   5.977  10.162  0.3831  0.4137  3.7554
  135MOL0     H18625   1.620   6.150  10.152  0.6687 -1.2670  0.3668
  135MOL0     H18626   1.286   6.062   9.889  0.0184 -0.3938 -0.1752
  135MOL0     H18627   1.421   6.368  10.632 -0.1434 -0.4422 -0.8603
  135MOL0     H18628   1.391   6.706  10.682 -1.3666 -0.3917 -1.1349
  135MOL0     H18629   1.489   6.566  10.702 -1.0155 -0.1325  0.5109
  135MOL0     H18630   1.518   6.677  10.568 -0.2505 -0.0675  0.2644
  136MOL0     O18631   7.668   9.901  10.295 -0.3830 -0.0029  0.1812
  136MOL0     C18632   7.557   9.939  10.262  0.9917  0.0970  0.1635
  136MOL0     O18633   7.527  10.050  10.191 -0.4958  0.7928  0.3139
  136MOL0     C18634   7.625  10.108  10.115 -1.2372 -0.4757  0.1766
  136MOL0     C18635   7.682  10.064   9.999 -0.8864 -0.4672  0.5204
  136MOL0     C18636   7.787  10.132   9.932 -0.2417 -0.3581 -0.8963
  136MOL0     C18637   7.840  10.252   9.994 -1.0792  1.9443  0.2072
  136MOL0     O18638   7.956  10.309   9.939  0.4782  0.7368 -0.3059
  136MOL0     C18639   7.983  10.448   9.967  0.3087  0.2982 -0.8425
  136MOL0     C18640   8.083  10.523   9.881 -0.2945 -0.5677  0.5164
  136MOL0     C18641   8.228  10.468   9.889  0.4875  0.7835  0.2136
  136MOL0     C18642   8.326  10.536   9.788  0.2547  0.5376 -0.1226
  136MOL0     C18643   8.444  10.450   9.752  0.3972 -0.0066 -0.1985
  136MOL0     C18644   8.525  10.511   9.640 -0.1326  0.7274  1.0868
  136MOL0     C18645   8.597  10.649   9.684  0.1797  0.5593  0.5986
  136MOL0     C18646   8.742  10.642   9.647 -1.3199 -0.0664  0.9982
  136MOL0     N18647   8.818  10.523   9.698  0.4355  0.6257  0.0815
  136MOL0     C18648   8.909  10.442   9.630 -0.7325 -0.0829 -0.5616
  136MOL0     C18649   8.953  10.362   9.731  0.7505 -0.1806  0.4475
  136MOL0     C18650   9.035  10.239   9.721  0.3687  0.1681  0.7111
  136MOL0     C18651   9.099  10.198   9.589  0.5290 -0.0905  0.6951
  136MOL0     C18652   9.221  10.099   9.604 -0.9208 -0.4164 -0.2607
  136MOL0     C18653   9.364  10.152   9.659 -0.4838 -0.8361 -0.8539
  136MOL0     O18654   9.458  10.053   9.619  0.4654  0.9727  0.6322
  136MOL0     C18655   9.589  10.068   9.648  0.3280 -0.1525 -0.4834
  136MOL0     C18656   9.659   9.961   9.713 -0.2225 -0.5930  0.8341
  136MOL0     C18657   9.803   9.964   9.727 -0.2594  0.0843 -1.1830
  136MOL0     C18658   9.871   9.843   9.789 -0.6681  0.3186 -0.0560
  136MOL0     C18659   9.869  10.081   9.678 -1.5537  0.0063 -0.4448
  136MOL0     C18660  10.018  10.115   9.696 -0.2192  0.8816 -0.6456
  136MOL0     O18661  10.071  10.230   9.656  1.3154 -0.2460  0.5267
  136MOL0     C18662  10.200  10.258   9.707  1.0958  1.4736  0.0706
  136MOL0     C18663  10.233  10.263   9.845  0.3283  0.8156  0.3884
  136MOL0     C18664  10.365  10.275   9.875  0.3699  0.1671  0.2898
  136MOL0     C18665  10.462  10.292   9.778  0.6475 -0.0399  0.3242
  136MOL0     O18666  10.591  10.260   9.808 -0.6406  0.1910 -0.9656
  136MOL0     C18667  10.620  10.178   9.922  0.6353  0.1992 -0.4007
  136MOL0     C18668  10.771  10.154   9.922 -0.3849  0.4530 -0.0805
  136MOL0     C18669  10.809  10.043   9.821  0.2070  0.5256 -0.5865
  136MOL0     C18670  10.902   9.937   9.875  0.6488  0.4670  0.2650
  136MOL0     C18671  10.832   9.859   9.991 -0.9466 -0.5267  0.3564
  136MOL0     C18672  10.903   9.729  10.051 -0.3640 -0.1709 -0.1376
  136MOL0     C18673  10.789   9.642  10.115 -0.0225  1.0693  0.8942
  136MOL0     C18674  10.844   9.497  10.119  0.1749  0.3119  0.0536
  136MOL0    Cl18675  10.970   9.488  10.239  0.3545 -0.3975  0.5357
  136MOL0     C18676  10.430  10.287   9.643 -0.1774  1.5235 -1.2299
  136MOL0     C18677  10.296  10.267   9.612  0.7674  0.1868 -0.4395
  136MOL0     O18678  10.091  10.016   9.725 -0.4830  0.4691  0.1938
  136MOL0     C18679   9.794  10.184   9.610 -0.5675 -0.3228 -0.5421
  136MOL0     C18680   9.656  10.177   9.601  0.0446  0.3561  0.5203
  136MOL0     N18681   8.898  10.401   9.859 -0.0253 -0.4996 -0.0194
  136MOL0     N18682   8.826  10.503   9.828  0.0815 -1.3295 -0.3120
  136MOL0     C18683   7.783  10.303  10.108  0.8647 -0.2738  0.6722
  136MOL0     C18684   7.673  10.231  10.164 -0.2796 -0.2861  0.4441
  136MOL0     C18685   7.455   9.889  10.359  0.0003  0.0645 -0.0573
  136MOL0     C18686   7.459   9.753  10.406  0.4617  0.5040 -0.0947
  136MOL0     C18687   7.349   9.699  10.481  0.0980 -0.2631  0.0308
  136MOL0     C18688   7.246   9.782  10.521  0.0513 -0.6681 -0.0244
  136MOL0     O18689   7.123   9.736  10.556 -1.0681 -0.3033  0.7726
  136MOL0     C18690   7.088   9.624  10.475  1.3016 -0.7659  0.8843
  136MOL0     C18691   6.940   9.592  10.499 -0.0508  0.0883 -0.6462
  136MOL0     C18692   6.854   9.691  10.427  0.0805 -0.7244  0.0190
  136MOL0     C18693   6.818   9.621  10.287 -0.4573 -0.6298  0.4699
  136MOL0     C18694   6.743   9.706  10.193  0.3604 -0.4370  0.4915
  136MOL0     C18695   6.676   9.762  10.113  0.3446 -0.4209 -0.8871
  136MOL0     C18696   7.238   9.916  10.483 -0.4552  0.0726 -0.4484
  136MOL0     C18697   7.338   9.967  10.397  0.8075 -0.3190  0.3655
  136MOL0     C18698   7.295  10.114  10.348  0.3140  1.0632 -0.3849
  136MOL0     H18699   7.643   9.973   9.954  1.2442 -0.6515 -1.1233
  136MOL0     H18700   7.825  10.095   9.838 -1.1815  0.2257 -1.5239
  136MOL0     H18701   8.022  10.452  10.069 -0.1338 -1.7007 -0.5641
  136MOL0     H18702   7.894  10.511   9.968 -0.7062 -1.0849  0.8125
  136MOL0     H18703   8.051  10.522   9.777  2.5180 -2.1888 -0.4483
  136MOL0     H18704   8.086  10.627   9.915  3.8305 -0.6180  0.8129
  136MOL0     H18705   8.261  10.484   9.992  1.6511 -0.2480  0.0276
  136MOL0     H18706   8.212  10.362   9.865 -0.2983  0.8500  0.4305
  136MOL0     H18707   8.291  10.565   9.689  2.6724  4.4023 -0.0504
  136MOL0     H18708   8.351  10.627   9.843  2.6190 -0.7199  1.0414
  136MOL0     H18709   8.399  10.356   9.719  2.6009 -1.1685 -0.0691
  136MOL0     H18710   8.511  10.432   9.836  2.0197  2.7892 -0.7745
  136MOL0     H18711   8.597  10.430   9.624 -1.5440 -0.5792  1.1811
  136MOL0     H18712   8.470  10.538   9.550 -1.1617 -1.0426  1.1429
  136MOL0     H18713   8.588  10.663   9.792 -0.2077 -0.6956  0.7433
  136MOL0     H18714   8.539  10.733   9.644  3.4477  3.1178  0.7629
  136MOL0     H18715   8.763  10.644   9.540  0.3078 -0.0808  1.2920
  136MOL0     H18716   8.788  10.729   9.694 -1.5756  0.7771 -0.2813
  136MOL0     H18717   8.927  10.441   9.523  4.3248 -1.7922  0.0422
  136MOL0     H18718   8.979  10.151   9.756 -0.3524 -0.2774 -1.4076
  136MOL0     H18719   9.115  10.258   9.794  1.5972  1.2544 -0.8610
  136MOL0     H18720   9.018  10.155   9.529  0.1715  0.8398  0.4820
  136MOL0     H18721   9.148  10.281   9.536  3.0066 -1.9394 -0.1240
  136MOL0     H18722   9.184  10.015   9.664 -4.7646  0.1357 -1.6240
  136MOL0     H18723   9.242  10.067   9.502  0.2977  0.3659 -0.2853
  136MOL0     H18724   9.376  10.253   9.619 -0.6376  0.2298  1.6133
  136MOL0     H18725   9.363  10.158   9.768 -1.4180  1.9616 -0.9261
  136MOL0     H18726   9.600   9.880   9.754 -1.3318  0.2592  0.9753
  136MOL0     H18727   9.806   9.756   9.797  1.3468 -1.7251 -3.4192
  136MOL0     H18728   9.906   9.861   9.891  3.8614  3.9297 -1.8764
  136MOL0     H18729   9.953   9.805   9.727 -1.9950  0.6825 -2.1385
  136MOL0     H18730  10.168  10.265   9.932  4.7565  0.0466  4.1912
  136MOL0     H18731  10.379  10.257   9.981 -3.3490 -0.4610  0.7934
  136MOL0     H18732  10.596  10.231  10.014  0.1289  0.5394 -0.7202
  136MOL0     H18733  10.564  10.084   9.919  1.5142 -0.3121 -2.2531
  136MOL0     H18734  10.813  10.250   9.890 -0.3909  0.6985  0.6255
  136MOL0     H18735  10.819  10.140  10.019  0.8620  4.5655  0.0887
  136MOL0     H18736  10.864  10.102   9.747 -1.7397  2.2013 -0.7896
  136MOL0     H18737  10.720   9.998   9.777  1.0467 -2.6994  0.7616
  136MOL0     H18738  10.999   9.970   9.914  1.6847 -2.7548  0.7482
  136MOL0     H18739  10.927   9.867   9.794  0.4547  0.1367  0.4902
  136MOL0     H18740  10.820   9.928  10.074 -0.3114 -0.3385  0.3032
  136MOL0     H18741  10.736   9.823   9.954  0.8285 -3.9124 -1.4838
  136MOL0     H18742  10.982   9.749  10.124 -0.7809 -1.0057  0.5633
  136MOL0     H18743  10.949   9.678   9.966  3.2628  0.3552  1.3128
  136MOL0     H18744  10.694   9.644  10.063  1.6388  2.3665 -2.3217
  136MOL0     H18745  10.772   9.676  10.218 -0.8543  2.7937  0.2119
  136MOL0     H18746  10.869   9.458  10.020  1.9446  2.5822 -0.4579
  136MOL0     H18747  10.758   9.438  10.154 -1.3361 -0.1769 -3.9553
  136MOL0     H18748  10.508  10.289   9.567  0.8877  3.1672 -0.1520
  136MOL0     H18749  10.254  10.259   9.512 -0.9235  1.5988  0.1036
  136MOL0     H18750   9.857  10.265   9.575  0.5491 -1.3586 -1.0119
  136MOL0     H18751   9.603  10.260   9.554  2.4028  1.7039  0.0752
  136MOL0     H18752   7.814  10.397  10.154 -0.6756  0.2252  0.7738
  136MOL0     H18753   7.631  10.274  10.254  0.1572  2.1038 -0.4010
  136MOL0     H18754   7.538   9.685  10.376  0.3221  0.2722  0.0579
  136MOL0     H18755   7.342   9.592  10.503  1.0750 -1.0765 -3.1113
  136MOL0     H18756   7.109   9.641  10.369 -1.6667  0.4823  0.4064
  136MOL0     H18757   7.149   9.540  10.508 -0.8214 -2.9380 -0.3759
  136MOL0     H18758   6.921   9.578  10.606  1.0520  0.2057 -0.4206
  136MOL0     H18759   6.923   9.490  10.464  4.1342 -1.0855  0.1770
  136MOL0     H18760   6.764   9.719  10.482 -1.0879 -3.7743 -0.1837
  136MOL0     H18761   6.913   9.783  10.411 -0.6836 -0.5334 -2.1455
  136MOL0     H18762   6.761   9.528  10.293  1.2101 -1.6761  0.4389
  136MOL0     H18763   6.906   9.597  10.227  0.8953  0.4571  1.9527
  136MOL0     H18764   6.611   9.807  10.041  2.0069  2.1687 -0.9204
  136MOL0     H18765   7.153   9.978  10.509 -0.0998 -0.4115  2.0950
  136MOL0     H18766   7.290  10.111  10.238 -4.1305  1.7467 -0.4136
  136MOL0     H18767   7.196  10.140  10.388  0.3194 -0.0969  0.4487
  136MOL0     H18768   7.360  10.195  10.381  1.1860  0.7759 -1.3337
  137MOL0     O18769  10.268   9.540   2.471 -0.8011  0.3640  0.5055
  137MOL0     C18770  10.195   9.591   2.390 -0.6184  0.3300  0.3314
  137MOL0     O18771  10.083   9.527   2.330 -0.3754  0.5931  0.9346
  137MOL0     C18772  10.027   9.409   2.382  0.3969 -0.3745 -1.2584
  137MOL0     C18773   9.887   9.395   2.382  0.2955  0.4599 -0.2841
  137MOL0     C18774   9.818   9.272   2.406 -0.5750 -0.8313 -0.0653
  137MOL0     C18775   9.886   9.163   2.463  0.0841 -0.2017  0.1172
  137MOL0     O18776   9.819   9.060   2.520 -0.1848  1.1001 -0.2328
  137MOL0     C18777   9.741   8.962   2.456  0.2692 -0.2909 -0.0259
  137MOL0     C18778   9.666   8.886   2.565  0.0723 -0.3721 -0.5327
  137MOL0     C18779   9.571   8.781   2.502 -0.7717  0.5637  0.2654
  137MOL0     C18780   9.470   8.730   2.615  0.3731  0.0643  0.7124
  137MOL0     C18781   9.341   8.666   2.554  0.0810 -0.0067  0.6549
  137MOL0     C18782   9.348   8.548   2.447  0.3207 -2.4115  0.6274
  137MOL0     C18783   9.220   8.531   2.373  0.9492  0.6827 -0.0109
  137MOL0     C18784   9.236   8.473   2.234 -0.1445  0.3132  0.0850
  137MOL0     N18785   9.108   8.470   2.144 -0.4811  0.3298  0.2205
  137MOL0     C18786   8.987   8.535   2.166  0.2851  0.3626 -0.0990
  137MOL0     C18787   8.911   8.509   2.048  0.5513  0.6149 -0.5126
  137MOL0     C18788   8.768   8.558   2.034 -0.2857 -0.5848 -0.6464
  137MOL0     C18789   8.704   8.545   1.894  0.2940 -0.1093 -0.6241
  137MOL0     C18790   8.764   8.627   1.789  0.0367 -0.5012  1.1311
  137MOL0     C18791   8.702   8.622   1.655 -0.8185 -0.3355  0.7132
  137MOL0     O18792   8.743   8.496   1.592  0.6801 -0.6008 -0.3919
  137MOL0     C18793   8.679   8.475   1.470 -0.1283 -0.9670  0.4379
  137MOL0     C18794   8.734   8.510   1.340 -0.6347  0.4060 -0.6902
  137MOL0     C18795   8.663   8.492   1.220  0.6027 -0.3359 -0.2939
  137MOL0     C18796   8.745   8.512   1.092  0.9434 -0.3371 -0.1918
  137MOL0     C18797   8.528   8.448   1.232 -0.0385 -0.3620 -0.3705
  137MOL0     C18798   8.444   8.424   1.106 -0.8315 -0.9364 -0.2409
  137MOL0     O18799   8.423   8.524   1.012  0.4908  0.1321 -0.6870
  137MOL0     C18800   8.393   8.497   0.886 -0.0263  0.6949 -0.7494
  137MOL0     C18801   8.420   8.372   0.827 -0.2761  0.3808 -0.4547
  137MOL0     C18802   8.381   8.354   0.693 -0.3925 -0.7316  0.8623
  137MOL0     C18803   8.318   8.451   0.621 -0.3857  0.1729  0.0995
  137MOL0     O18804   8.291   8.431   0.488 -0.4219  0.4331  0.2412
  137MOL0     C18805   8.328   8.543   0.412  0.2807 -0.1128  0.5177
  137MOL0     C18806   8.363   8.506   0.271 -0.6901  0.9340  0.7330
  137MOL0     C18807   8.511   8.453   0.254 -0.2899  0.8518 -0.9269
  137MOL0     C18808   8.529   8.303   0.280  0.0083  0.1027  0.1793
  137MOL0     C18809   8.659   8.252   0.223 -0.5742 -0.1702  0.3381
  137MOL0     C18810   8.655   8.097   0.208 -0.8244 -0.1697  0.6199
  137MOL0     C18811   8.616   8.034   0.342 -0.0920  0.0963 -0.2004
  137MOL0     C18812   8.586   7.884   0.312 -0.1195  0.4574  0.1618
  137MOL0    Cl18813   8.705   7.797   0.207  0.6459 -0.1485 -1.3797
  137MOL0     C18814   8.283   8.573   0.682  0.6124  0.1171  0.2309
  137MOL0     C18815   8.331   8.600   0.811  0.9830  0.4574  0.0193
  137MOL0     O18816   8.395   8.314   1.111  0.1098 -0.3577  0.5999
  137MOL0     C18817   8.466   8.422   1.358  0.4596 -0.6171  0.8369
  137MOL0     C18818   8.539   8.434   1.476 -0.2572 -0.6314 -0.9173
  137MOL0     N18819   8.994   8.441   1.963 -1.2010  0.0815 -0.1089
  137MOL0     N18820   9.111   8.416   2.017  0.5730 -0.1118 -0.1593
  137MOL0     C18821  10.028   9.170   2.458 -0.2136 -0.3991  0.5405
  137MOL0     C18822  10.097   9.293   2.419 -0.7491 -0.3997 -1.0719
  137MOL0     C18823  10.212   9.739   2.363  0.7239 -0.2204 -0.1930
  137MOL0     C18824  10.151   9.789   2.240 -0.6387 -0.0900 -0.9630
  137MOL0     C18825  10.146   9.920   2.206 -0.5778  0.0009  0.0494
  137MOL0     C18826  10.204  10.009   2.294 -0.5506 -0.4811  0.0013
  137MOL0     O18827  10.209  10.140   2.236 -0.2440  0.6482  0.3985
  137MOL0     C18828  10.276  10.248   2.301 -0.5166 -0.3950 -0.5405
  137MOL0     C18829  10.432  10.232   2.316 -0.7823 -0.0851  0.2877
  137MOL0     C18830  10.519  10.229   2.178 -0.4036 -0.4021 -0.4629
  137MOL0     C18831  10.525  10.093   2.117  0.2308 -0.4099  0.0779
  137MOL0     C18832  10.624  10.087   2.010 -0.0561  0.1008 -0.2877
  137MOL0     C18833  10.712  10.093   1.928  0.8639 -0.3984  0.3464
  137MOL0     C18834  10.261   9.971   2.418  0.4529 -0.4288  0.7977
  137MOL0     C18835  10.268   9.832   2.453 -0.2487  0.2347 -0.7831
  137MOL0     C18836  10.322   9.805   2.585 -0.7120 -0.3026 -0.4041
  137MOL0     H18837   9.823   9.477   2.350 -1.2335 -1.8374 -3.6580
  137MOL0     H18838   9.712   9.249   2.410 -0.6337 -0.5632 -0.0993
  137MOL0     H18839   9.799   8.894   2.392 -0.1413 -0.1784 -0.5219
  137MOL0     H18840   9.666   9.012   2.394 -0.0718  0.8251  1.2392
  137MOL0     H18841   9.735   8.847   2.640 -0.6666  0.9916  0.9304
  137MOL0     H18842   9.609   8.957   2.626 -0.5626  0.4487 -2.0446
  137MOL0     H18843   9.508   8.838   2.433 -0.7614  2.6833  1.8978
  137MOL0     H18844   9.617   8.705   2.438 -0.6277  3.2925 -3.2152
  137MOL0     H18845   9.519   8.648   2.670 -0.9455  1.0127  3.4998
  137MOL0     H18846   9.437   8.812   2.679 -2.9568 -1.2724  0.9097
  137MOL0     H18847   9.287   8.752   2.515  0.4910  1.3333  2.8563
  137MOL0     H18848   9.285   8.619   2.636 -1.4093 -1.0224 -0.8909
  137MOL0     H18849   9.433   8.576   2.383 -0.5890 -0.9291  0.0313
  137MOL0     H18850   9.374   8.453   2.495 -2.9764 -1.2460  5.3842
  137MOL0     H18851   9.164   8.625   2.376  0.1870  0.2630  3.7783
  137MOL0     H18852   9.172   8.456   2.436  4.2296  0.4333  2.4491
  137MOL0     H18853   9.318   8.530   2.189 -0.9510  1.2194 -0.2610
  137MOL0     H18854   9.273   8.370   2.239 -0.5616  0.2089  1.3273
  137MOL0     H18855   8.964   8.593   2.254 -1.0479  2.4809 -1.7510
  137MOL0     H18856   8.766   8.658   2.079 -1.9853 -2.2942  3.6054
  137MOL0     H18857   8.714   8.504   2.113  0.5309 -1.6277 -0.7673
  137MOL0     H18858   8.711   8.441   1.860  0.3004  0.1578 -1.4722
  137MOL0     H18859   8.596   8.562   1.893  0.6214  2.2481 -0.1887
  137MOL0     H18860   8.743   8.730   1.820  2.0728  0.3278 -0.0391
  137MOL0     H18861   8.873   8.621   1.776 -0.1309  0.7564 -1.5989
  137MOL0     H18862   8.594   8.618   1.664 -0.7779 -4.6029  1.5097
  137MOL0     H18863   8.731   8.702   1.586 -0.6420 -1.4926 -0.5949
  137MOL0     H18864   8.838   8.541   1.345 -0.9879  1.6064 -0.4393
  137MOL0     H18865   8.808   8.600   1.111  1.9232 -0.9935 -0.3248
  137MOL0     H18866   8.690   8.537   1.000  0.0707  0.3884  0.5015
  137MOL0     H18867   8.812   8.427   1.081  2.5488  1.0087 -1.4731
  137MOL0     H18868   8.463   8.286   0.877 -0.9117 -0.3926 -1.1841
  137MOL0     H18869   8.402   8.272   0.626  2.2604  2.7969 -3.1209
  137MOL0     H18870   8.249   8.617   0.398  0.4543 -0.2662 -1.5915
  137MOL0     H18871   8.415   8.597   0.451  1.1290 -0.0393 -1.3446
  137MOL0     H18872   8.283   8.448   0.224  0.6764  0.5161 -1.2005
  137MOL0     H18873   8.365   8.596   0.208  0.9204  0.6594  0.3510
  137MOL0     H18874   8.575   8.511   0.322  1.8011 -1.7760 -0.4874
  137MOL0     H18875   8.544   8.475   0.152  0.2950  0.6615 -0.7837
  137MOL0     H18876   8.442   8.250   0.240  1.8146 -1.5087 -1.8085
  137MOL0     H18877   8.534   8.292   0.389 -0.1474  0.4495  0.2237
  137MOL0     H18878   8.676   8.305   0.129 -1.7992 -0.8773 -0.3129
  137MOL0     H18879   8.743   8.282   0.285 -1.5396  1.5669  0.8602
  137MOL0     H18880   8.748   8.064   0.161 -0.5325  1.7803 -0.3222
  137MOL0     H18881   8.575   8.073   0.138 -2.3168 -1.1604  2.6090
  137MOL0     H18882   8.533   8.079   0.397  0.2647 -0.2495  0.6351
  137MOL0     H18883   8.705   8.046   0.404 -0.3836  1.3579 -0.0018
  137MOL0     H18884   8.483   7.882   0.274 -1.5404  0.0668  3.5963
  137MOL0     H18885   8.582   7.826   0.405  0.0534 -2.1371 -1.3630
  137MOL0     H18886   8.230   8.636   0.611  0.1929  1.3711  1.6041
  137MOL0     H18887   8.296   8.693   0.855 -0.9341 -1.0277  1.8777
  137MOL0     H18888   8.364   8.391   1.375 -0.7733  2.2396 -0.7339
  137MOL0     H18889   8.489   8.402   1.567  1.3517  1.1442  0.6787
  137MOL0     H18890  10.059   9.071   2.488  0.7331  0.0730  1.1675
  137MOL0     H18891  10.204   9.309   2.421 -0.7811 -0.2090 -0.8036
  137MOL0     H18892  10.093   9.713   2.189  0.9655 -1.7638 -0.4349
  137MOL0     H18893  10.107   9.957   2.112 -1.3176 -0.3320  0.2225
  137MOL0     H18894  10.263  10.334   2.235 -2.3083 -1.2059 -1.3125
  137MOL0     H18895  10.228  10.248   2.399 -2.7103 -5.2656 -1.3271
  137MOL0     H18896  10.456  10.140   2.370  0.7843  1.8076  3.0432
  137MOL0     H18897  10.474  10.313   2.376 -0.4853 -1.9318  2.7474
  137MOL0     H18898  10.482  10.303   2.106 -0.8748  0.5222  0.6868
  137MOL0     H18899  10.620  10.262   2.203 -0.5517 -0.9223  0.9749
  137MOL0     H18900  10.427  10.062   2.079 -0.4516 -1.0659  2.2375
  137MOL0     H18901  10.553  10.011   2.184  2.8444  1.5045  1.5489
  137MOL0     H18902  10.790  10.103   1.855 -0.3341 -2.0676 -1.2371
  137MOL0     H18903  10.300  10.052   2.479 -2.9766  2.2540 -0.2623
  137MOL0     H18904  10.431   9.793   2.577 -0.5548  1.4101 -1.4005
  137MOL0     H18905  10.304   9.888   2.654 -3.3031 -0.1791 -1.1254
  137MOL0     H18906  10.267   9.725   2.635 -1.3864 -0.2522 -1.0491
  138MOL0     O18907   6.685   2.950   4.747 -0.9291  0.5199 -0.9036
  138MOL0     C18908   6.706   2.953   4.868  0.1930 -0.0438 -0.4784
  138MOL0     O18909   6.613   2.960   4.975 -0.3442  0.4133  0.1849
  138MOL0     C18910   6.486   2.944   4.939 -0.2676 -0.2642 -0.6420
  138MOL0     C18911   6.446   2.843   4.847  1.0408 -0.4351 -0.3495
  138MOL0     C18912   6.319   2.823   4.809 -0.6720 -0.2796  0.0861
  138MOL0     C18913   6.220   2.913   4.869 -0.2057 -0.2113 -1.0856
  138MOL0     O18914   6.095   2.874   4.826 -0.2563  0.2690 -0.4589
  138MOL0     C18915   5.979   2.918   4.910 -0.4307  0.5679  0.1415
  138MOL0     C18916   5.843   2.871   4.856 -0.1859 -0.4850  0.0001
  138MOL0     C18917   5.831   2.726   4.827 -0.2917 -0.4182  0.3678
  138MOL0     C18918   5.700   2.692   4.754 -0.9995 -0.6040 -0.0585
  138MOL0     C18919   5.712   2.691   4.595 -0.6774  0.2787 -0.6346
  138MOL0     C18920   5.783   2.576   4.521  0.0749  0.0422 -0.8409
  138MOL0     C18921   5.734   2.424   4.541  0.6994 -0.8329 -0.8546
  138MOL0     C18922   5.590   2.396   4.483 -0.8506  0.0688  0.0860
  138MOL0     N18923   5.505   2.304   4.563  0.0112 -0.2145 -0.3280
  138MOL0     C18924   5.423   2.192   4.529 -0.1991 -0.2202 -0.6933
  138MOL0     C18925   5.401   2.125   4.646  0.2526  1.0619 -0.2641
  138MOL0     C18926   5.300   2.015   4.662 -0.7470  0.5533 -0.0584
  138MOL0     C18927   5.158   2.074   4.682  0.0741  0.4842 -0.0057
  138MOL0     C18928   5.062   1.943   4.702 -0.0569 -0.1164  0.5461
  138MOL0     C18929   4.921   1.993   4.745 -0.1495 -1.3118 -0.7190
  138MOL0     O18930   4.860   2.064   4.637  0.3032  0.5625  0.3578
  138MOL0     C18931   4.779   2.164   4.679 -0.0898  0.4830 -0.4711
  138MOL0     C18932   4.636   2.136   4.664 -0.8048  0.2785  0.8833
  138MOL0     C18933   4.538   2.229   4.684  0.4147  0.0016  0.0091
  138MOL0     C18934   4.395   2.187   4.663  1.1905 -0.8976 -0.5114
  138MOL0     C18935   4.576   2.359   4.735 -0.0953 -0.7056  0.8803
  138MOL0     C18936   4.479   2.469   4.766  0.4560 -0.3574 -0.3441
  138MOL0     O18937   4.530   2.591   4.790 -0.2470 -0.4154 -0.1721
  138MOL0     C18938   4.476   2.684   4.876 -1.0048  0.3399  0.1903
  138MOL0     C18939   4.471   2.817   4.844  0.4534 -0.4379  0.6462
  138MOL0     C18940   4.424   2.922   4.932 -1.0460 -0.1869  0.6949
  138MOL0     C18941   4.397   2.879   5.063 -0.1688 -0.5044  0.2535
  138MOL0     O18942   4.382   2.985   5.146  0.7563  0.1608 -0.1395
  138MOL0     C18943   4.306   2.966   5.267  0.3255 -0.1602 -0.3438
  138MOL0     C18944   4.400   2.945   5.393  0.2043  1.1596 -0.4191
  138MOL0     C18945   4.333   2.848   5.497 -0.6003  0.3039  0.2486
  138MOL0     C18946   4.429   2.846   5.618 -0.1001 -0.0518 -0.1120
  138MOL0     C18947   4.345   2.820   5.754 -0.2217 -0.3750  0.6049
  138MOL0     C18948   4.425   2.807   5.872  0.2686  0.7990 -0.5988
  138MOL0     C18949   4.521   2.691   5.879 -0.2475 -0.7640  0.1272
  138MOL0     C18950   4.631   2.718   5.977 -0.1878 -0.1390  0.0751
  138MOL0    Cl18951   4.547   2.746   6.138 -0.0678  0.0868  0.6828
  138MOL0     C18952   4.418   2.743   5.103  0.8183  0.0753 -0.0341
  138MOL0     C18953   4.449   2.646   5.010 -0.5804 -0.3112 -0.6216
  138MOL0     O18954   4.362   2.441   4.784  0.4808  0.1883 -1.0137
  138MOL0     C18955   4.710   2.386   4.749 -0.5687 -0.3610  0.5261
  138MOL0     C18956   4.810   2.290   4.712  0.1686 -0.1919  0.2539
  138MOL0     N18957   5.462   2.190   4.753  0.2096  0.9722  0.1957
  138MOL0     N18958   5.524   2.285   4.698 -0.2707  0.6381 -0.3828
  138MOL0     C18959   6.250   3.014   4.957 -0.4765 -0.7092  0.0162
  138MOL0     C18960   6.389   3.037   4.986 -0.3465 -0.1907 -0.2729
  138MOL0     C18961   6.849   2.966   4.913  0.0835 -0.1711 -0.5179
  138MOL0     C18962   6.872   3.068   5.012  0.6197  1.4951  0.2308
  138MOL0     C18963   6.994   3.103   5.063 -1.0634 -1.2828 -0.1885
  138MOL0     C18964   7.104   3.017   5.029 -0.1965 -0.4848 -0.0912
  138MOL0     O18965   7.217   3.032   5.113  0.0133 -0.2290  0.9201
  138MOL0     C18966   7.331   2.947   5.101 -0.2619  0.9746  0.1724
  138MOL0     C18967   7.307   2.838   5.204  1.0831 -0.7324  0.4767
  138MOL0     C18968   7.429   2.742   5.211  0.0474  0.6868 -0.9348
  138MOL0     C18969   7.430   2.657   5.335  0.2833  0.2609  0.0832
  138MOL0     C18970   7.297   2.598   5.347 -0.6017 -0.6942 -0.9777
  138MOL0     C18971   7.200   2.527   5.339 -0.2480  0.6753  0.7620
  138MOL0     C18972   7.095   2.926   4.922  0.7230 -0.9506  0.7585
  138MOL0     C18973   6.967   2.894   4.865 -0.2408 -0.3632 -0.2201
  138MOL0     C18974   6.965   2.793   4.752 -0.3927  1.1371 -0.0584
  138MOL0     H18975   6.523   2.774   4.815  1.2284 -1.3655  1.9269
  138MOL0     H18976   6.302   2.751   4.729  2.7154  3.0503 -4.1611
  138MOL0     H18977   5.971   3.027   4.917 -2.5587  0.3592  2.3616
  138MOL0     H18978   5.997   2.881   5.012  0.4589 -1.8021 -0.8194
  138MOL0     H18979   5.757   2.893   4.921 -1.8838 -2.8197 -1.2797
  138MOL0     H18980   5.810   2.923   4.766  1.1129 -0.2423 -0.3450
  138MOL0     H18981   5.920   2.700   4.768  1.0588  3.6353  0.3456
  138MOL0     H18982   5.828   2.663   4.917 -1.8449 -0.5609  0.2525
  138MOL0     H18983   5.664   2.592   4.781  1.7324 -2.2932 -2.1087
  138MOL0     H18984   5.625   2.762   4.791 -0.3618 -1.2644  2.7272
  138MOL0     H18985   5.759   2.787   4.572 -4.6586  2.5049 -0.5303
  138MOL0     H18986   5.614   2.711   4.551 -0.4427  3.6821  0.1387
  138MOL0     H18987   5.802   2.590   4.414  1.1114 -0.5284 -0.7445
  138MOL0     H18988   5.876   2.573   4.579  0.7736 -1.1248 -1.9577
  138MOL0     H18989   5.731   2.400   4.648  0.6047 -3.1856 -1.3313
  138MOL0     H18990   5.809   2.355   4.501  2.5892  0.5760  0.1093
  138MOL0     H18991   5.538   2.492   4.473 -2.4007 -0.9058 -2.1866
  138MOL0     H18992   5.597   2.366   4.378 -2.8147  2.2213 -0.7524
  138MOL0     H18993   5.379   2.173   4.432  0.7060 -2.2711 -0.7624
  138MOL0     H18994   5.323   1.952   4.748  2.4201  1.0223 -0.4610
  138MOL0     H18995   5.309   1.952   4.573  3.7631 -0.4703  0.9014
  138MOL0     H18996   5.138   2.156   4.752 -0.5651  1.4783 -1.3094
  138MOL0     H18997   5.118   2.133   4.599 -2.7089  2.1175  2.2991
  138MOL0     H18998   5.049   1.888   4.608 -0.5737  2.8057 -1.2453
  138MOL0     H18999   5.104   1.886   4.785  2.0529  0.1245 -0.2848
  138MOL0     H19000   4.860   1.908   4.776 -2.4406  0.0176 -1.3233
  138MOL0     H19001   4.922   2.059   4.832  1.1185 -0.2722 -1.4777
  138MOL0     H19002   4.597   2.045   4.619 -1.6583  0.5854  0.9786
  138MOL0     H19003   4.343   2.162   4.756 -0.2311 -0.1595 -1.0879
  138MOL0     H19004   4.380   2.103   4.595 -2.8312 -0.9151  0.1518
  138MOL0     H19005   4.340   2.272   4.622 -2.0979 -3.2186 -1.3000
  138MOL0     H19006   4.491   2.847   4.742 -2.5015 -2.6668 -0.7657
  138MOL0     H19007   4.431   3.026   4.904  3.7694 -0.2824  0.7101
  138MOL0     H19008   4.251   3.058   5.283  1.7856  0.3236  2.6440
  138MOL0     H19009   4.233   2.885   5.263 -0.0348  0.2041 -1.1733
  138MOL0     H19010   4.492   2.901   5.354  0.0378  0.8104 -0.4198
  138MOL0     H19011   4.420   3.039   5.445  1.4249 -0.0492  1.4367
  138MOL0     H19012   4.316   2.745   5.465  2.3382 -1.7210  4.2681
  138MOL0     H19013   4.239   2.893   5.531 -0.7395  0.8731 -0.8443
  138MOL0     H19014   4.495   2.933   5.616  0.5225 -0.5068 -2.1887
  138MOL0     H19015   4.485   2.753   5.606 -4.9435 -3.4158  0.5456
  138MOL0     H19016   4.272   2.901   5.765 -0.9009 -0.7678 -0.7455
  138MOL0     H19017   4.299   2.721   5.760  1.8291 -1.4073  0.1167
  138MOL0     H19018   4.358   2.801   5.958  1.6106 -1.9952  0.3603
  138MOL0     H19019   4.469   2.905   5.892 -1.9431  1.9372 -0.9986
  138MOL0     H19020   4.572   2.680   5.783 -0.8373 -0.3333 -0.2417
  138MOL0     H19021   4.470   2.596   5.899 -1.5085 -0.5325 -1.7217
  138MOL0     H19022   4.683   2.807   5.940 -1.9906  1.1298  0.4398
  138MOL0     H19023   4.698   2.632   5.989  1.3847  0.8815 -1.0357
  138MOL0     H19024   4.389   2.720   5.206  0.0442 -0.7973 -0.4253
  138MOL0     H19025   4.456   2.541   5.037  0.9245  0.9915  5.4220
  138MOL0     H19026   4.743   2.484   4.783  2.9353 -0.9456 -0.7207
  138MOL0     H19027   4.913   2.323   4.724  0.2383 -0.4869  0.4913
  138MOL0     H19028   6.177   3.085   4.994  0.9002 -1.1488  4.1243
  138MOL0     H19029   6.417   3.125   5.043  1.2049 -1.1687  0.5537
  138MOL0     H19030   6.789   3.119   5.060 -1.0254 -3.6487  3.7685
  138MOL0     H19031   6.993   3.184   5.135 -0.1238  1.4605 -2.9889
  138MOL0     H19032   7.352   2.907   5.001 -3.4930 -0.7434  0.0568
  138MOL0     H19033   7.424   3.000   5.124  0.8630 -0.6520 -0.4153
  138MOL0     H19034   7.216   2.786   5.171 -1.1440  1.9042  2.0431
  138MOL0     H19035   7.291   2.886   5.301 -0.1081  0.0600 -0.0885
  138MOL0     H19036   7.431   2.683   5.119 -0.5231  0.7139 -0.9677
  138MOL0     H19037   7.519   2.805   5.205 -2.1163  3.9532 -2.1583
  138MOL0     H19038   7.450   2.712   5.428  1.8153 -0.4902  0.2391
  138MOL0     H19039   7.508   2.580   5.330 -0.2605 -0.4306  1.3951
  138MOL0     H19040   7.105   2.479   5.347 -1.1255  2.2919  0.3341
  138MOL0     H19041   7.178   2.872   4.878 -1.0145 -2.2028 -1.1800
  138MOL0     H19042   6.929   2.836   4.658 -2.4558 -3.0186 -1.4165
  138MOL0     H19043   7.068   2.758   4.743 -0.9434 -0.4979 -0.4842
  138MOL0     H19044   6.902   2.705   4.767  2.3314 -0.8164  0.8403
  139MOL0     O19045   9.792   0.287   3.344  0.3429  0.0196 -0.6622
  139MOL0     C19046   9.740   0.383   3.291 -0.0173 -0.9808 -0.7629
  139MOL0     O19047   9.778   0.512   3.311  0.0947  0.2698  0.5730
  139MOL0     C19048   9.911   0.545   3.337 -0.2789  1.1656  0.0508
  139MOL0     C19049   9.947   0.658   3.412 -0.0462  0.4423 -0.0082
  139MOL0     C19050  10.086   0.680   3.444  0.4476  0.0748  0.3036
  139MOL0     C19051  10.181   0.587   3.392  0.5165  0.3336 -0.0347
  139MOL0     O19052  10.300   0.621   3.448 -0.0286 -0.8340 -0.1983
  139MOL0     C19053  10.398   0.521   3.423 -0.2281  0.7551 -0.7814
  139MOL0     C19054  10.530   0.564   3.483 -0.8142  0.5540 -0.5644
  139MOL0     C19055  10.580   0.705   3.450 -1.2617 -0.1279  0.7378
  139MOL0     C19056  10.718   0.704   3.377  0.6050  0.0677  0.1296
  139MOL0     C19057  10.707   0.644   3.237  0.3182  0.2647  0.3442
  139MOL0     C19058  10.689   0.751   3.129  0.4167  0.6037 -0.8702
  139MOL0     C19059  10.637   0.677   3.004 -0.2116  0.5145 -0.3272
  139MOL0     C19060  10.599   0.770   2.896  0.2948  0.8351 -0.4802
  139MOL0     N19061  10.486   0.863   2.926  0.2844  0.7370  0.5099
  139MOL0     C19062  10.348   0.830   2.946 -0.0366  0.8909  0.4104
  139MOL0     C19063  10.286   0.930   3.007 -0.5730  0.0336  0.1600
  139MOL0     C19064  10.143   0.941   3.038  0.5014  0.5877 -0.6830
  139MOL0     C19065  10.057   1.002   2.929 -1.5019  0.3626  0.4643
  139MOL0     C19066  10.124   1.005   2.784  0.1851 -0.4241 -0.4035
  139MOL0     C19067  10.030   1.064   2.676 -0.2143  0.2872 -0.1662
  139MOL0     O19068  10.032   1.201   2.693 -0.5903 -0.2020  0.3320
  139MOL0     C19069   9.937   1.269   2.626 -0.2202  0.0943 -0.6520
  139MOL0     C19070   9.817   1.290   2.689 -1.1703 -0.4757 -1.2394
  139MOL0     C19071   9.703   1.367   2.639 -0.0735  0.6003 -0.3515
  139MOL0     C19072   9.577   1.349   2.714  0.0591  0.1103  0.1525
  139MOL0     C19073   9.722   1.424   2.510 -0.5265 -0.2054  0.1870
  139MOL0     C19074   9.622   1.492   2.427 -1.1937  0.8737  0.8815
  139MOL0     O19075   9.658   1.576   2.328 -1.4562  0.4175 -1.0980
  139MOL0     C19076   9.555   1.632   2.247 -0.1491  0.3260  0.9888
  139MOL0     C19077   9.478   1.743   2.290  0.1858  0.6848 -0.5377
  139MOL0     C19078   9.377   1.790   2.208 -0.1954 -0.1551 -0.3354
  139MOL0     C19079   9.359   1.727   2.083  0.9031 -0.2517  0.2806
  139MOL0     O19080   9.253   1.773   2.016  0.2260 -0.0878 -0.0553
  139MOL0     C19081   9.213   1.711   1.890 -0.2323  0.3918  0.4439
  139MOL0     C19082   9.098   1.782   1.826 -0.3993 -0.1236  0.8832
  139MOL0     C19083   9.085   1.706   1.693  1.0291  0.4962  0.0695
  139MOL0     C19084   9.183   1.768   1.593 -0.0155 -0.9117 -0.6790
  139MOL0     C19085   9.138   1.713   1.469  0.4496 -0.3678 -0.3904
  139MOL0     C19086   9.243   1.752   1.356 -0.0457  0.5661 -1.0090
  139MOL0     C19087   9.199   1.725   1.210 -0.0984 -0.2247  0.2474
  139MOL0     C19088   9.105   1.839   1.155  0.3411 -0.2006 -0.2341
  139MOL0    Cl19089   9.043   1.796   1.000  0.0986 -0.5063 -0.0857
  139MOL0     C19090   9.428   1.613   2.039  0.0707  0.2975 -0.6756
  139MOL0     C19091   9.526   1.567   2.125  0.2206  0.9154 -0.8946
  139MOL0     O19092   9.507   1.476   2.465  0.4241 -0.4086 -0.3567
  139MOL0     C19093   9.848   1.409   2.446 -0.1208 -0.1825  1.0378
  139MOL0     C19094   9.955   1.332   2.495  0.1331  0.0045 -0.8481
  139MOL0     N19095  10.385   1.034   3.007  0.2676  0.2129 -0.4131
  139MOL0     N19096  10.496   0.989   2.967  0.3232  0.3500  0.2642
  139MOL0     C19097  10.152   0.484   3.306  0.1935  0.4388 -0.2808
  139MOL0     C19098  10.021   0.470   3.282 -0.0466  0.2161 -0.3320
  139MOL0     C19099   9.616   0.358   3.211 -0.9796 -0.1301  0.0195
  139MOL0     C19100   9.553   0.473   3.167 -0.2572 -0.1873 -1.3386
  139MOL0     C19101   9.434   0.471   3.091  0.2355 -0.0162 -0.3445
  139MOL0     C19102   9.378   0.349   3.052  0.0214  0.0856  0.4866
  139MOL0     O19103   9.257   0.336   2.979 -0.1472 -0.7272  0.2851
  139MOL0     C19104   9.254   0.416   2.850  0.3223  0.1475 -1.1756
  139MOL0     C19105   9.361   0.372   2.750  0.5285 -0.3880  0.9766
  139MOL0     C19106   9.380   0.478   2.634  0.6598  0.8639 -0.5009
  139MOL0     C19107   9.491   0.428   2.540 -0.0860  0.2416  0.0398
  139MOL0     C19108   9.498   0.521   2.434  0.1408 -0.2863 -0.4953
  139MOL0     C19109   9.504   0.588   2.334  0.6779 -0.0386  0.1153
  139MOL0     C19110   9.444   0.235   3.083 -0.1093  0.6162  0.7685
  139MOL0     C19111   9.565   0.234   3.157  1.3336 -0.8510 -0.1784
  139MOL0     C19112   9.639   0.108   3.183 -0.1819 -0.0399 -0.2885
  139MOL0     H19113   9.869   0.716   3.459 -1.5635 -2.0079  0.6631
  139MOL0     H19114  10.100   0.757   3.518  1.1785  1.5136 -1.2591
  139MOL0     H19115  10.417   0.503   3.317 -1.8118 -0.6906 -0.8572
  139MOL0     H19116  10.372   0.422   3.461  0.1863  0.7253 -0.5618
  139MOL0     H19117  10.517   0.564   3.591  0.8605  1.6066 -0.3147
  139MOL0     H19118  10.602   0.485   3.459 -0.2793  1.4219 -2.0246
  139MOL0     H19119  10.501   0.753   3.392 -2.7018 -1.1306  1.8353
  139MOL0     H19120  10.597   0.770   3.536 -0.8612  1.8928 -0.7665
  139MOL0     H19121  10.748   0.808   3.362  0.0400  0.6585  2.5965
  139MOL0     H19122  10.806   0.665   3.430  2.5036  2.7270 -0.8577
  139MOL0     H19123  10.622   0.575   3.234  0.4901 -0.1618  2.7471
  139MOL0     H19124  10.798   0.588   3.212  0.0124  0.0755 -0.3758
  139MOL0     H19125  10.608   0.819   3.156 -1.1204 -2.0934  1.9625
  139MOL0     H19126  10.782   0.807   3.118 -0.9730  3.2047 -0.1897
  139MOL0     H19127  10.561   0.603   3.029  0.9667 -0.6805 -0.2150
  139MOL0     H19128  10.720   0.613   2.975  2.8894  4.6062 -1.3814
  139MOL0     H19129  10.695   0.820   2.881  0.9965  0.1656  1.4697
  139MOL0     H19130  10.577   0.702   2.813  0.2253  1.6669 -1.1582
  139MOL0     H19131  10.303   0.738   2.911  0.8626  0.6944 -0.2688
  139MOL0     H19132  10.133   0.995   3.133 -0.4753  1.0815 -1.0518
  139MOL0     H19133  10.107   0.838   3.042  3.4673 -0.6689 -2.6626
  139MOL0     H19134   9.963   0.952   2.907 -0.5663 -0.2711 -2.5747
  139MOL0     H19135  10.031   1.104   2.961 -0.2479 -0.3091  4.0448
  139MOL0     H19136  10.218   1.060   2.789 -0.1668  0.1687 -0.1317
  139MOL0     H19137  10.146   0.907   2.742  3.3654 -0.0597  0.1632
  139MOL0     H19138  10.074   1.028   2.582 -2.1405  0.7894 -1.2969
  139MOL0     H19139   9.932   1.015   2.677  0.7991 -2.1661  3.4435
  139MOL0     H19140   9.812   1.249   2.789  1.3989 -0.9836 -1.2537
  139MOL0     H19141   9.503   1.289   2.659  0.0062 -0.2494  0.6065
  139MOL0     H19142   9.536   1.450   2.721  2.5477  1.2731 -1.1439
  139MOL0     H19143   9.593   1.310   2.815  0.4713  0.7902  0.3551
  139MOL0     H19144   9.487   1.784   2.390  0.0435  0.3029 -0.3698
  139MOL0     H19145   9.308   1.870   2.230  1.3295  1.6669 -1.8402
  139MOL0     H19146   9.300   1.709   1.823  0.5174 -0.9500  1.4039
  139MOL0     H19147   9.181   1.608   1.911 -1.6987  0.7451  0.0565
  139MOL0     H19148   9.009   1.776   1.888 -1.7396 -3.5872 -1.1042
  139MOL0     H19149   9.118   1.888   1.805 -1.1303 -0.6195 -3.4102
  139MOL0     H19150   8.982   1.722   1.660  0.2927 -1.2238  1.3789
  139MOL0     H19151   9.086   1.597   1.702 -0.3511  0.2590 -1.9240
  139MOL0     H19152   9.285   1.736   1.615 -0.0204 -1.7660 -1.8444
  139MOL0     H19153   9.183   1.876   1.578  3.7319 -0.7124 -0.1867
  139MOL0     H19154   9.134   1.603   1.469 -0.3714 -0.3622  1.3510
  139MOL0     H19155   9.037   1.744   1.441 -0.3703 -2.8914 -0.5218
  139MOL0     H19156   9.330   1.691   1.382  0.0892  1.8910  2.1426
  139MOL0     H19157   9.262   1.859   1.367 -1.2315  0.6048  1.7087
  139MOL0     H19158   9.152   1.629   1.186  0.8384 -0.3492 -1.2192
  139MOL0     H19159   9.294   1.712   1.157  1.5463 -1.2302  3.1679
  139MOL0     H19160   9.158   1.934   1.140 -0.1153  0.0696 -0.1670
  139MOL0     H19161   9.032   1.865   1.232  0.1234 -1.5129  0.0237
  139MOL0     H19162   9.415   1.552   1.950 -1.1626 -1.6669  0.7691
  139MOL0     H19163   9.582   1.486   2.081 -2.0439  1.3801 -5.1176
  139MOL0     H19164   9.865   1.460   2.352  0.3970 -4.6959 -1.5915
  139MOL0     H19165  10.053   1.348   2.451  0.8008  0.3920  0.7240
  139MOL0     H19166  10.227   0.416   3.267  1.2260  1.2744  0.1849
  139MOL0     H19167  10.002   0.386   3.217  0.9675  0.5055 -1.0292
  139MOL0     H19168   9.591   0.572   3.193 -0.3242 -0.4166 -0.3407
  139MOL0     H19169   9.398   0.564   3.049  0.4447  1.2401  2.0966
  139MOL0     H19170   9.151   0.426   2.813 -1.0894  0.1748  2.4171
  139MOL0     H19171   9.292   0.516   2.871  3.4893 -1.1340 -0.2260
  139MOL0     H19172   9.346   0.280   2.693  2.0568  0.8919 -1.7391
  139MOL0     H19173   9.455   0.361   2.805 -0.2765 -3.4843  1.9099
  139MOL0     H19174   9.282   0.492   2.587 -0.7111  0.5625  2.1072
  139MOL0     H19175   9.417   0.575   2.667  0.0128  0.5393  1.2394
  139MOL0     H19176   9.445   0.336   2.503 -1.6901  0.5120  1.2485
  139MOL0     H19177   9.595   0.411   2.568  0.3680  0.1049 -1.6044
  139MOL0     H19178   9.489   0.641   2.242  0.2792 -1.5323 -0.7220
  139MOL0     H19179   9.392   0.143   3.058 -3.1840  0.2554  6.6176
  139MOL0     H19180   9.745   0.129   3.166 -0.4188  1.8903  0.3467
  139MOL0     H19181   9.622   0.059   3.279 -0.7676  1.5600  0.4687
  139MOL0     H19182   9.604   0.029   3.116 -2.1533 -0.2088  0.8396
  140MOL0     O19183   2.407   2.517   8.167 -0.0740 -0.9338  0.1008
  140MOL0     C19184   2.448   2.601   8.245 -0.5144 -0.4933 -0.0020
  140MOL0     O19185   2.459   2.737   8.221  0.6348 -0.8027  0.3199
  140MOL0     C19186   2.425   2.797   8.100 -0.4285 -1.3304  1.1070
  140MOL0     C19187   2.499   2.917   8.087  0.3930  0.3968 -0.6619
  140MOL0     C19188   2.485   2.998   7.974 -0.3564 -0.2606 -0.8558
  140MOL0     C19189   2.415   2.956   7.866  0.1134 -0.5527  1.0451
  140MOL0     O19190   2.398   3.030   7.745 -0.4987  0.2815  0.1893
  140MOL0     C19191   2.305   3.132   7.771 -0.2465 -0.5547  0.4509
  140MOL0     C19192   2.313   3.241   7.662  0.6554 -0.6025  0.4074
  140MOL0     C19193   2.292   3.188   7.521  1.0547 -0.6270  0.4119
  140MOL0     C19194   2.144   3.142   7.501 -0.6969  0.5129 -1.7983
  140MOL0     C19195   2.096   3.127   7.368 -0.1236  0.2372 -0.8135
  140MOL0     C19196   1.949   3.105   7.362  0.0348 -0.4865  0.0469
  140MOL0     C19197   1.901   3.146   7.217  0.8616 -0.2790 -1.6308
  140MOL0     C19198   1.742   3.150   7.208 -0.1081  0.2019  0.2158
  140MOL0     N19199   1.710   3.155   7.058 -1.1038 -0.5293 -0.2751
  140MOL0     C19200   1.675   3.266   6.984  1.3679 -0.8323 -0.3506
  140MOL0     C19201   1.647   3.230   6.859 -0.6746  0.6258  0.2284
  140MOL0     C19202   1.603   3.317   6.753  0.0552 -0.1350  0.1875
  140MOL0     C19203   1.454   3.306   6.747  0.1781 -0.2015  0.8835
  140MOL0     C19204   1.397   3.329   6.596  0.2853 -0.8357  0.3732
  140MOL0     C19205   1.245   3.374   6.588 -0.3485  0.5224 -1.2202
  140MOL0     O19206   1.216   3.444   6.469 -0.4393 -0.0529  0.8845
  140MOL0     C19207   1.088   3.487   6.459  0.2710  0.2932 -0.4437
  140MOL0     C19208   0.981   3.417   6.513 -0.7652 -0.1880  0.1513
  140MOL0     C19209   0.853   3.452   6.493 -0.8745 -1.0841 -0.5113
  140MOL0     C19210   0.750   3.378   6.562  0.5222  1.0336 -0.7618
  140MOL0     C19211   0.813   3.555   6.414 -0.2120  0.2104  0.0158
  140MOL0     C19212   0.674   3.597   6.398  0.9823  0.2441  0.0344
  140MOL0     O19213   0.567   3.519   6.403 -0.4741  0.4518  0.2290
  140MOL0     C19214   0.444   3.573   6.405 -0.2320  0.0769  0.0991
  140MOL0     C19215   0.387   3.592   6.533 -0.9102  0.7664 -0.5118
  140MOL0     C19216   0.265   3.659   6.545  0.2532  0.0376 -0.1193
  140MOL0     C19217   0.195   3.704   6.427 -0.4965  0.0236 -0.4863
  140MOL0     O19218   0.067   3.759   6.441  0.0288 -0.1038 -0.3021
  140MOL0     C19219   0.028   3.865   6.363 -0.4395  0.6690  0.1915
  140MOL0     C19220  -0.052   3.958   6.446 -0.0449 -0.0534 -0.4464
  140MOL0     C19221   0.029   4.013   6.560  0.5108  0.9091 -0.2820
  140MOL0     C19222  -0.058   4.120   6.628 -0.1788  0.4676 -0.0747
  140MOL0     C19223  -0.187   4.081   6.694 -0.4005  1.1716 -0.2874
  140MOL0     C19224  -0.164   3.998   6.816  0.3315  1.2235 -0.1430
  140MOL0     C19225  -0.062   4.059   6.914 -0.1253  0.2297 -0.2111
  140MOL0     C19226  -0.043   3.983   7.045  0.1311  0.0799  0.2625
  140MOL0    Cl19227   0.072   4.060   7.152 -0.1600 -0.0125 -0.3984
  140MOL0     C19228   0.257   3.682   6.303  0.5795 -0.2214  0.0650
  140MOL0     C19229   0.380   3.621   6.293 -0.9142 -0.3995 -0.5605
  140MOL0     O19230   0.672   3.715   6.378  0.4305 -0.1240 -0.4297
  140MOL0     C19231   0.925   3.633   6.367  0.1324  0.3956  0.0427
  140MOL0     C19232   1.057   3.598   6.388 -0.1092  0.3176  0.6690
  140MOL0     N19233   1.662   3.095   6.865 -0.5453  0.6193  1.1271
  140MOL0     N19234   1.697   3.044   6.980  0.4421  0.1915 -0.3098
  140MOL0     C19235   2.343   2.837   7.869 -0.0599 -0.1809 -0.4408
  140MOL0     C19236   2.346   2.759   7.991 -0.1410 -0.1899  1.1389
  140MOL0     C19237   2.490   2.550   8.375 -0.1978 -0.4050 -0.1599
  140MOL0     C19238   2.489   2.635   8.488 -0.2724  0.0650 -0.7968
  140MOL0     C19239   2.540   2.599   8.615 -0.0933 -0.1544 -0.8914
  140MOL0     C19240   2.583   2.468   8.635 -0.7993  1.1854 -0.4160
  140MOL0     O19241   2.638   2.400   8.747 -0.6305 -0.5755 -0.3477
  140MOL0     C19242   2.580   2.433   8.885 -0.4629 -0.6435  1.2500
  140MOL0     C19243   2.675   2.539   8.943  0.1277 -0.2018  0.7658
  140MOL0     C19244   2.637   2.577   9.086 -0.0417 -0.3756 -0.0278
  140MOL0     C19245   2.696   2.487   9.197  0.2440 -0.1193 -0.3722
  140MOL0     C19246   2.825   2.533   9.230 -0.0622  0.1744  0.4467
  140MOL0     C19247   2.937   2.552   9.261 -0.7705  0.5756  0.5900
  140MOL0     C19248   2.596   2.382   8.522  1.0942  0.0970 -0.4551
  140MOL0     C19249   2.549   2.429   8.395  0.2746  0.0575 -0.5683
  140MOL0     C19250   2.580   2.346   8.281 -0.0534  0.4486 -0.1070
  140MOL0     H19251   2.564   2.946   8.169  2.9489  1.1483 -2.8226
  140MOL0     H19252   2.541   3.089   7.958  0.2015 -0.7952 -2.0499
  140MOL0     H19253   2.333   3.189   7.860  1.2580 -0.4099 -0.0768
  140MOL0     H19254   2.204   3.091   7.780 -0.3793 -0.1775  0.6686
  140MOL0     H19255   2.235   3.316   7.682 -0.6527 -2.4469  2.6582
  140MOL0     H19256   2.406   3.297   7.676 -0.3076  0.6265  2.2836
  140MOL0     H19257   2.318   3.271   7.455 -0.2866  0.5146  1.2896
  140MOL0     H19258   2.356   3.101   7.503  0.2603 -1.1938  0.2695
  140MOL0     H19259   2.136   3.046   7.553 -0.9635  1.1578 -0.6023
  140MOL0     H19260   2.077   3.215   7.548 -1.6804  1.2300 -4.1557
  140MOL0     H19261   2.145   3.039   7.324  1.4429 -0.3412  1.8782
  140MOL0     H19262   2.131   3.208   7.303 -1.2706  0.2983 -1.3746
  140MOL0     H19263   1.924   3.001   7.384 -0.4780 -0.7313 -1.5868
  140MOL0     H19264   1.893   3.150   7.446 -0.1359 -3.3602  1.6073
  140MOL0     H19265   1.947   3.076   7.147  0.7056 -0.7631 -1.2565
  140MOL0     H19266   1.938   3.245   7.189 -0.2377  1.2489  1.7936
  140MOL0     H19267   1.690   3.070   7.262  2.6037  0.0492  2.8697
  140MOL0     H19268   1.697   3.233   7.265 -0.5127 -2.1049  3.5763
  140MOL0     H19269   1.702   3.365   7.017  1.8652 -0.3016 -2.2322
  140MOL0     H19270   1.640   3.282   6.656 -0.0210 -0.0992  0.1454
  140MOL0     H19271   1.641   3.416   6.780  1.2849 -0.0524 -1.6258
  140MOL0     H19272   1.422   3.205   6.775 -2.3494 -0.0861 -1.1610
  140MOL0     H19273   1.412   3.370   6.824  0.6132 -2.9277  3.5836
  140MOL0     H19274   1.448   3.414   6.550 -2.0533 -0.5788 -1.9719
  140MOL0     H19275   1.416   3.239   6.536  0.7131  0.0270 -0.8274
  140MOL0     H19276   1.190   3.279   6.593 -0.5332  0.6726 -0.1824
  140MOL0     H19277   1.235   3.448   6.668 -1.4428 -0.8102 -0.0703
  140MOL0     H19278   0.999   3.325   6.568 -1.7844 -1.0968 -0.9827
  140MOL0     H19279   0.783   3.330   6.655 -2.3623  0.4021  0.0377
  140MOL0     H19280   0.700   3.300   6.504 -0.2564  0.7447  0.2631
  140MOL0     H19281   0.679   3.445   6.611  0.1296 -1.5431  2.5862
  140MOL0     H19282   0.433   3.562   6.626  3.5229  0.7343 -2.4712
  140MOL0     H19283   0.236   3.666   6.650  3.3983 -1.2646  0.9601
  140MOL0     H19284   0.115   3.910   6.314 -0.9094  0.5345 -0.8142
  140MOL0     H19285  -0.033   3.822   6.283 -0.1403 -3.4309  1.9099
  140MOL0     H19286  -0.088   4.036   6.379  0.1371  0.3665 -0.0575
  140MOL0     H19287  -0.143   3.906   6.479 -1.9637  2.8168 -0.8876
  140MOL0     H19288   0.124   4.056   6.526  0.7538  1.6920  1.2670
  140MOL0     H19289   0.044   3.931   6.631 -2.7294 -0.1400 -0.6409
  140MOL0     H19290  -0.082   4.182   6.542  0.8417 -4.1853 -4.1365
  140MOL0     H19291   0.005   4.189   6.685 -3.2042  4.2318 -0.8698
  140MOL0     H19292  -0.235   4.174   6.726  0.5092  1.7858 -0.6398
  140MOL0     H19293  -0.261   4.028   6.633 -0.1420  0.0621  0.3445
  140MOL0     H19294  -0.130   3.899   6.783  2.7758  1.8639  0.2624
  140MOL0     H19295  -0.260   3.997   6.870 -1.2558  2.7240 -2.7130
  140MOL0     H19296  -0.097   4.161   6.932 -1.8727 -0.8315  3.6777
  140MOL0     H19297   0.032   4.053   6.859 -1.3446 -0.9422 -2.2732
  140MOL0     H19298  -0.023   3.876   7.031 -0.0116 -0.0053  0.6966
  140MOL0     H19299  -0.139   3.989   7.096 -0.2533  2.9373 -0.5926
  140MOL0     H19300   0.196   3.704   6.216  1.1857  3.3996  0.4060
  140MOL0     H19301   0.416   3.602   6.192 -1.8026 -0.3218 -0.8993
  140MOL0     H19302   0.911   3.716   6.298 -1.5205  0.6753  0.6717
  140MOL0     H19303   1.140   3.654   6.345 -0.8989  1.3442  0.4358
  140MOL0     H19304   2.274   2.797   7.795 -0.4843  0.6426 -0.4910
  140MOL0     H19305   2.290   2.666   7.999  0.2835 -0.6130 -0.5186
  140MOL0     H19306   2.465   2.740   8.484 -0.2766  0.1133  0.3021
  140MOL0     H19307   2.556   2.668   8.698  1.1284 -1.6019  0.1462
  140MOL0     H19308   2.482   2.482   8.885 -0.0813  0.4969 -2.7670
  140MOL0     H19309   2.581   2.342   8.945  0.0316 -1.8851 -0.5844
  140MOL0     H19310   2.676   2.631   8.884  1.3717 -0.2887  0.6241
  140MOL0     H19311   2.775   2.496   8.945  1.5903  2.7045 -1.4560
  140MOL0     H19312   2.667   2.682   9.099 -2.3850  0.2507  0.8231
  140MOL0     H19313   2.528   2.581   9.097 -0.2329 -0.5854 -1.6544
  140MOL0     H19314   2.685   2.383   9.164  2.2841 -0.1549 -1.0526
  140MOL0     H19315   2.642   2.496   9.291  0.5469  2.7193 -0.3906
  140MOL0     H19316   3.040   2.567   9.284 -0.4113  1.3071 -1.3137
  140MOL0     H19317   2.651   2.288   8.524 -0.1240 -0.6250  0.6673
  140MOL0     H19318   2.631   2.411   8.210  0.3243  0.0380 -0.2143
  140MOL0     H19319   2.659   2.278   8.315 -0.5070  1.4972  3.4841
  140MOL0     H19320   2.493   2.293   8.241  2.1437 -2.9119 -0.8948
  141MOL0     O19321   7.532   8.775  11.136  0.1223  0.0291 -0.1132
  141MOL0     C19322   7.615   8.777  11.054  0.2289  0.1416 -0.3601
  141MOL0     O19323   7.749   8.766  11.083 -0.0826  0.1393  0.0670
  141MOL0     C19324   7.791   8.771  11.210 -0.6742  0.0840  0.0262
  141MOL0     C19325   7.783   8.654  11.289  0.6184 -0.5162  0.5590
  141MOL0     C19326   7.818   8.648  11.427  0.5287  0.3219  0.9511
  141MOL0     C19327   7.871   8.766  11.492 -0.3745 -0.2930 -0.3077
  141MOL0     O19328   7.920   8.771  11.616  0.2656 -0.2180  0.0212
  141MOL0     C19329   7.850   8.716  11.724  0.0427 -0.3255 -0.3024
  141MOL0     C19330   7.951   8.642  11.819  0.1471 -0.1224 -1.0858
  141MOL0     C19331   7.867   8.565  11.927  1.6887  0.2531 -0.2539
  141MOL0     C19332   7.958   8.498  12.030  1.2403  0.1191 -0.8547
  141MOL0     C19333   7.885   8.404  12.133  0.4745 -0.4700  1.6304
  141MOL0     C19334   7.957   8.405  12.273  0.8585 -0.8702 -0.2435
  141MOL0     C19335   7.909   8.309  12.379 -0.1052 -0.1497 -0.1898
  141MOL0     C19336   7.765   8.341  12.423 -0.1476 -0.0354  0.2634
  141MOL0     N19337   7.660   8.265  12.356  0.2157  0.9747  0.8893
  141MOL0     C19338   7.670   8.142  12.300  0.4022 -0.2687  0.0940
  141MOL0     C19339   7.548   8.114  12.251  0.4400 -0.2144 -0.7262
  141MOL0     C19340   7.510   7.996  12.176  0.4798 -0.0818 -0.4053
  141MOL0     C19341   7.497   8.032  12.029  0.1761 -0.9151 -0.8485
  141MOL0     C19342   7.606   8.124  11.964  0.3074 -1.3881 -0.0361
  141MOL0     C19343   7.585   8.135  11.809  0.9866  0.2358 -0.6871
  141MOL0     O19344   7.447   8.179  11.796  1.0498 -0.2046 -0.5106
  141MOL0     C19345   7.389   8.246  11.694 -0.6065 -0.7220 -0.2045
  141MOL0     C19346   7.257   8.271  11.715  0.0183  0.1971 -0.2477
  141MOL0     C19347   7.175   8.321  11.624 -1.0162  0.0840  0.8265
  141MOL0     C19348   7.028   8.338  11.652  0.1615  0.3345 -0.0306
  141MOL0     C19349   7.225   8.371  11.496 -0.7010  0.3479 -1.2618
  141MOL0     C19350   7.146   8.441  11.392  0.6965  0.9580 -0.0536
  141MOL0     O19351   7.120   8.373  11.274 -0.9454 -0.5434 -0.1947
  141MOL0     C19352   7.116   8.452  11.168 -1.0119 -0.3772 -0.1259
  141MOL0     C19353   7.220   8.528  11.131  0.7223  0.2617 -0.4965
  141MOL0     C19354   7.221   8.582  10.997 -0.4921 -0.1284  1.7996
  141MOL0     C19355   7.110   8.569  10.905 -0.1961  0.3961  1.4656
  141MOL0     O19356   7.102   8.610  10.776 -0.9226  0.1151  0.2541
  141MOL0     C19357   7.190   8.705  10.715  0.4569 -1.1883 -0.2503
  141MOL0     C19358   7.126   8.836  10.733 -0.4516  0.3279  0.2913
  141MOL0     C19359   7.020   8.877  10.628  0.3095  0.6709 -0.0914
  141MOL0     C19360   6.909   8.771  10.617 -1.1937  0.1929  0.0009
  141MOL0     C19361   6.802   8.803  10.509  0.1828  0.9130 -1.0465
  141MOL0     C19362   6.698   8.906  10.552 -0.6630  0.3426 -0.0411
  141MOL0     C19363   6.763   9.050  10.543 -0.0937 -0.6664  0.2332
  141MOL0     C19364   6.669   9.162  10.478  0.2397 -0.8241  0.3859
  141MOL0    Cl19365   6.782   9.283  10.406  0.0090 -0.4454 -0.5011
  141MOL0     C19366   7.006   8.487  10.954 -0.3868 -0.9805 -0.9366
  141MOL0     C19367   7.011   8.436  11.082 -0.3790  0.3047 -0.3589
  141MOL0     O19368   7.096   8.550  11.421 -0.1147 -0.8939  0.3172
  141MOL0     C19369   7.364   8.342  11.468  0.2068 -0.3105  0.5332
  141MOL0     C19370   7.442   8.282  11.569 -0.3454  0.4423  0.2877
  141MOL0     N19371   7.463   8.215  12.276  0.1726  0.4086 -0.0616
  141MOL0     N19372   7.528   8.309  12.328  0.0411 -0.2219 -0.5920
  141MOL0     C19373   7.876   8.880  11.403 -0.1509 -0.7429 -0.0795
  141MOL0     C19374   7.839   8.886  11.269 -0.2429 -0.0487 -0.9631
  141MOL0     C19375   7.584   8.797  10.920 -0.7664 -0.3143  0.0876
  141MOL0     C19376   7.607   8.687  10.826  0.1285 -0.1100  0.1716
  141MOL0     C19377   7.567   8.704  10.697  0.5155  0.7746  0.4207
  141MOL0     C19378   7.510   8.821  10.663 -0.6066 -0.6614  0.6847
  141MOL0     O19379   7.464   8.819  10.540 -0.1425 -0.4705  0.8059
  141MOL0     C19380   7.432   8.935  10.469 -0.1552 -0.0071 -1.0718
  141MOL0     C19381   7.455   8.930  10.320 -1.0596  0.6615  0.1687
  141MOL0     C19382   7.330   8.860  10.246 -0.8610  0.1673  1.6735
  141MOL0     C19383   7.326   8.888  10.088 -0.2943  0.5094 -0.5153
  141MOL0     C19384   7.188   8.854  10.039 -0.7546  0.1516  0.5853
  141MOL0     C19385   7.066   8.840  10.016 -0.4803  0.0680  0.7514
  141MOL0     C19386   7.511   8.935  10.751 -0.5877  0.5095 -0.2916
  141MOL0     C19387   7.545   8.928  10.878 -0.1301 -0.5317 -0.3874
  141MOL0     C19388   7.542   9.052  10.977 -0.8999  0.2223 -0.5588
  141MOL0     H19389   7.738   8.575  11.230  0.0091  0.2274 -0.0080
  141MOL0     H19390   7.802   8.550  11.471  2.3327 -0.2326  0.4755
  141MOL0     H19391   7.767   8.654  11.690  0.2295  0.1128 -1.5978
  141MOL0     H19392   7.809   8.800  11.781 -3.7021 -2.8426  1.1219
  141MOL0     H19393   8.001   8.569  11.754  1.1339 -1.3878  0.9866
  141MOL0     H19394   8.019   8.712  11.867 -1.1940 -0.2904  1.2028
  141MOL0     H19395   7.799   8.637  11.972  2.7246  1.3898 -0.4393
  141MOL0     H19396   7.806   8.496  11.868 -0.4937 -0.3721  2.5049
  141MOL0     H19397   8.047   8.454  11.985  1.0433 -0.7145 -0.4605
  141MOL0     H19398   7.993   8.586  12.085  0.1964  2.0424 -3.0918
  141MOL0     H19399   7.885   8.298  12.106  2.2002 -0.4870  1.5952
  141MOL0     H19400   7.778   8.426  12.141  0.2720 -0.8447  0.2395
  141MOL0     H19401   8.061   8.373  12.259  1.2481 -0.4714  1.5629
  141MOL0     H19402   7.950   8.509  12.306 -0.3541 -0.2915 -2.1512
  141MOL0     H19403   7.974   8.299  12.467 -2.7888  0.5707  2.0027
  141MOL0     H19404   7.931   8.209  12.340  5.4862  0.6935 -0.0736
  141MOL0     H19405   7.749   8.304  12.524  0.0444 -1.9509 -0.3693
  141MOL0     H19406   7.756   8.449  12.409  2.0422  0.2840  0.9292
  141MOL0     H19407   7.759   8.081  12.286  0.7118  0.4570 -1.2403
  141MOL0     H19408   7.412   7.962  12.209  0.3941  2.5336  2.5366
  141MOL0     H19409   7.574   7.910  12.197 -1.8185 -1.9279 -0.5458
  141MOL0     H19410   7.482   7.939  11.974  0.2519 -0.8624 -0.9585
  141MOL0     H19411   7.402   8.088  12.028 -0.3146 -1.5934  1.7225
  141MOL0     H19412   7.629   8.221  12.009  1.7068 -1.2759 -0.9069
  141MOL0     H19413   7.697   8.063  11.973 -1.0969 -4.1036 -2.5143
  141MOL0     H19414   7.655   8.205  11.763 -1.4342  3.2967 -0.0381
  141MOL0     H19415   7.598   8.037  11.761 -0.0508 -0.7498  0.9539
  141MOL0     H19416   7.220   8.232  11.809 -1.0110 -2.6506 -1.6999
  141MOL0     H19417   6.983   8.259  11.712  0.1261  1.3971  1.3937
  141MOL0     H19418   6.976   8.338  11.556  0.6470 -1.4682 -0.3244
  141MOL0     H19419   7.007   8.430  11.707 -2.4039  0.7863 -1.6026
  141MOL0     H19420   7.308   8.549  11.192  2.1495  0.6244 -2.5803
  141MOL0     H19421   7.295   8.652  10.960 -1.9225  0.8874  0.7415
  141MOL0     H19422   7.283   8.727  10.768  0.3255  2.8447 -1.3530
  141MOL0     H19423   7.208   8.695  10.608  1.4999  1.6444 -0.4245
  141MOL0     H19424   7.079   8.838  10.832  2.9958  4.8269  2.2157
  141MOL0     H19425   7.211   8.904  10.731  1.3130 -1.7787 -1.4526
  141MOL0     H19426   7.066   8.895  10.530  1.8769  0.1693  0.5175
  141MOL0     H19427   6.974   8.970  10.663  0.2709  1.0007 -0.9875
  141MOL0     H19428   6.858   8.753  10.712 -0.2326 -2.2471  0.1418
  141MOL0     H19429   6.949   8.672  10.592 -0.5112  1.1244 -3.0149
  141MOL0     H19430   6.838   8.825  10.408  0.4950 -3.3617 -2.0567
  141MOL0     H19431   6.744   8.711  10.498 -0.6954  1.1870  0.8564
  141MOL0     H19432   6.652   8.890  10.651 -0.5984 -1.4627 -0.2725
  141MOL0     H19433   6.619   8.905  10.477  0.0612  2.6878 -0.9355
  141MOL0     H19434   6.853   9.045  10.481 -0.2209 -0.7839  0.0562
  141MOL0     H19435   6.780   9.082  10.646 -1.8673  0.9240  0.0933
  141MOL0     H19436   6.610   9.213  10.555  1.5982 -2.8281  2.9289
  141MOL0     H19437   6.601   9.117  10.404 -2.0567  2.8250  0.0082
  141MOL0     H19438   6.919   8.464  10.893 -0.2959 -1.6654 -0.8157
  141MOL0     H19439   6.930   8.379  11.128 -1.4508  1.3249 -0.9288
  141MOL0     H19440   7.409   8.371  11.374 -3.1088  2.8294 -0.2781
  141MOL0     H19441   7.548   8.269  11.547 -0.1385 -0.0632  1.5320
  141MOL0     H19442   7.925   8.962  11.456  0.1262 -2.3273  2.2822
  141MOL0     H19443   7.844   8.970  11.201 -0.4305 -1.8607 -3.3622
  141MOL0     H19444   7.654   8.597  10.864 -0.5704  0.3789  2.2835
  141MOL0     H19445   7.550   8.630  10.620 -4.4927  3.3368 -1.4155
  141MOL0     H19446   7.335   8.972  10.502  0.5644  3.3549 -2.3201
  141MOL0     H19447   7.505   9.017  10.478  0.7687 -0.5274 -3.1576
  141MOL0     H19448   7.552   8.884  10.300 -1.8525 -0.5136 -1.1609
  141MOL0     H19449   7.462   9.035  10.291 -0.1020  1.9945  4.4693
  141MOL0     H19450   7.322   8.751  10.258 -0.8162  0.1286  1.3451
  141MOL0     H19451   7.245   8.903  10.299 -1.9245 -1.9676  1.8114
  141MOL0     H19452   7.388   8.807  10.051 -2.0150 -2.8542  3.2781
  141MOL0     H19453   7.358   8.990  10.064  0.2113  0.7298  1.0020
  141MOL0     H19454   6.960   8.841  10.003 -0.3211  1.6468 -0.7839
  141MOL0     H19455   7.492   9.035  10.711 -0.5716  0.6394  0.0199
  141MOL0     H19456   7.472   9.126  10.936  1.8161  1.7606 -2.7346
  141MOL0     H19457   7.504   9.017  11.074  0.3014  1.7703  0.4961
  141MOL0     H19458   7.642   9.095  10.980 -1.0570  0.9210 -3.2530
  142MOL0     O19459  10.278   3.778   0.427 -1.0394  0.3017  0.1082
  142MOL0     C19460  10.313   3.835   0.319  0.5494 -0.5345 -0.0177
  142MOL0     O19461  10.421   3.804   0.234 -0.2194 -1.0889  0.7770
  142MOL0     C19462  10.523   3.713   0.271  0.8152 -0.1731 -0.8953
  142MOL0     C19463  10.578   3.719   0.403 -0.9864 -0.2839 -0.6515
  142MOL0     C19464  10.674   3.613   0.434  0.3075 -0.4888  0.7729
  142MOL0     C19465  10.724   3.520   0.343 -0.4027 -0.3781  0.4058
  142MOL0     O19466  10.828   3.444   0.379  0.3935  0.1597 -0.2177
  142MOL0     C19467  10.909   3.374   0.281  0.3577 -0.4967 -0.7385
  142MOL0     C19468  11.036   3.321   0.353  0.3595  0.8503 -0.2623
  142MOL0     C19469  11.157   3.419   0.372  0.6725  0.1894  1.0332
  142MOL0     C19470  11.156   3.495   0.501  0.6983 -0.8816  0.0825
  142MOL0     C19471  11.273   3.601   0.494  0.0825 -0.1477 -0.0135
  142MOL0     C19472  11.233   3.714   0.596  0.1413  0.4042 -1.3210
  142MOL0     C19473  11.353   3.810   0.606  0.2061  1.5327  0.4353
  142MOL0     C19474  11.366   3.904   0.724 -0.3294  0.5091 -0.1464
  142MOL0     N19475  11.318   3.855   0.851 -0.5168 -0.4124 -0.1689
  142MOL0     C19476  11.200   3.806   0.889  0.3755  0.5794  0.2529
  142MOL0     C19477  11.197   3.811   1.032 -0.5294 -0.3327 -0.2836
  142MOL0     C19478  11.088   3.768   1.127 -0.1155 -0.3866 -0.6670
  142MOL0     C19479  11.103   3.617   1.164 -0.9442 -0.5983  0.8832
  142MOL0     C19480  10.992   3.560   1.259 -0.3115  0.3083  0.0770
  142MOL0     C19481  10.963   3.655   1.387  1.2707 -0.2281  0.9796
  142MOL0     O19482  10.842   3.597   1.445 -0.0590 -0.9552 -0.0033
  142MOL0     C19483  10.802   3.649   1.569  0.0714 -0.4612 -1.0958
  142MOL0     C19484  10.877   3.752   1.632  0.0507  0.0184 -0.8633
  142MOL0     C19485  10.829   3.807   1.753 -0.3499  0.9086 -0.0653
  142MOL0     C19486  10.906   3.929   1.796 -0.1405  0.1450  0.4507
  142MOL0     C19487  10.719   3.745   1.821  0.0868 -0.9668 -0.5839
  142MOL0     C19488  10.662   3.799   1.948 -0.0329 -0.7192 -1.5320
  142MOL0     O19489  10.573   3.714   2.018 -0.2102 -0.1586 -0.5027
  142MOL0     C19490  10.486   3.768   2.110  0.6995  0.1233  0.2782
  142MOL0     C19491  10.421   3.893   2.093 -0.7934  0.9755  0.0768
  142MOL0     C19492  10.336   3.940   2.195  0.0134  0.4988 -0.0415
  142MOL0     C19493  10.283   3.849   2.294 -0.3176  0.8476 -0.9982
  142MOL0     O19494  10.186   3.891   2.386  0.2499  0.2770  0.6627
  142MOL0     C19495  10.092   3.793   2.432  0.1883 -0.1527 -0.1403
  142MOL0     C19496   9.947   3.832   2.384 -0.6922 -1.2046  0.0808
  142MOL0     C19497   9.832   3.731   2.396  0.5058  0.1588 -0.3609
  142MOL0     C19498   9.701   3.793   2.364 -0.0128 -0.8298  0.1278
  142MOL0     C19499   9.590   3.688   2.366  0.6441 -0.1656  0.8349
  142MOL0     C19500   9.451   3.752   2.343 -0.8427 -1.1347 -0.0147
  142MOL0     C19501   9.424   3.787   2.203  0.0987 -0.0926  0.1534
  142MOL0     C19502   9.281   3.829   2.182 -0.1176 -1.2284 -0.4947
  142MOL0    Cl19503   9.265   4.007   2.250 -0.2165 -0.0107 -0.1114
  142MOL0     C19504  10.352   3.728   2.320  0.1441  0.3690  0.3219
  142MOL0     C19505  10.449   3.691   2.224 -0.1617  0.1291  0.5488
  142MOL0     O19506  10.722   3.892   1.999  0.4407  0.0544 -0.2902
  142MOL0     C19507  10.647   3.642   1.750  0.0511  0.5717  0.4989
  142MOL0     C19508  10.690   3.597   1.623  0.2379  0.8088 -0.2658
  142MOL0     N19509  11.319   3.850   1.068 -0.1946 -0.5515 -0.4300
  142MOL0     N19510  11.395   3.861   0.963 -0.2094 -0.0601  0.2745
  142MOL0     C19511  10.669   3.524   0.213 -0.5980 -0.1141  0.0960
  142MOL0     C19512  10.577   3.620   0.176  0.6374 -0.1669  0.1710
  142MOL0     C19513  10.218   3.929   0.268 -0.6193  0.0145 -1.4309
  142MOL0     C19514  10.089   3.886   0.240  1.4350 -0.1976  0.5458
  142MOL0     C19515  10.006   3.976   0.172 -0.3401 -0.3045  0.4657
  142MOL0     C19516  10.039   4.116   0.148  0.2782  0.4572 -0.3143
  142MOL0     O19517   9.945   4.190   0.085  0.0489  0.6827  0.3691
  142MOL0     C19518   9.957   4.329   0.097 -0.5228  0.1920 -0.4394
  142MOL0     C19519   9.994   4.377  -0.040  0.1078 -0.7393 -0.9526
  142MOL0     C19520   9.979   4.530  -0.044  0.2165 -0.2383  1.4101
  142MOL0     C19521   9.839   4.567  -0.079  1.0817 -0.4958  0.3550
  142MOL0     C19522   9.816   4.710  -0.115  0.2827  0.4221 -0.4443
  142MOL0     C19523   9.776   4.816  -0.150  0.1284  0.6617  0.2650
  142MOL0     C19524  10.166   4.156   0.186 -0.5732  0.4735  0.7039
  142MOL0     C19525  10.255   4.064   0.246 -0.0661 -0.5977 -0.0724
  142MOL0     C19526  10.395   4.120   0.275  0.0152 -0.8242  0.7788
  142MOL0     H19527  10.544   3.791   0.477  3.7941  1.4974  0.1481
  142MOL0     H19528  10.718   3.609   0.533  3.5854 -2.3971 -0.5785
  142MOL0     H19529  10.932   3.436   0.194  0.0451  0.0334 -0.4498
  142MOL0     H19530  10.854   3.282   0.256 -1.1381 -0.5990  2.4396
  142MOL0     H19531  11.013   3.278   0.451 -1.4350  2.0261 -0.1244
  142MOL0     H19532  11.074   3.244   0.285  1.7808 -0.0012  1.3908
  142MOL0     H19533  11.244   3.352   0.362  0.6621  0.3045  0.1066
  142MOL0     H19534  11.164   3.478   0.280  1.1790 -2.9882 -1.1592
  142MOL0     H19535  11.059   3.545   0.513 -0.5529 -2.4708 -2.4880
  142MOL0     H19536  11.162   3.426   0.586 -3.7339 -1.1787  0.4082
  142MOL0     H19537  11.278   3.644   0.394 -0.2525  2.6719  1.1059
  142MOL0     H19538  11.371   3.561   0.523  1.1955  1.9935 -0.6016
  142MOL0     H19539  11.148   3.773   0.561  0.0754  0.4566 -1.0749
  142MOL0     H19540  11.223   3.656   0.688 -0.0119  2.9778  0.3934
  142MOL0     H19541  11.365   3.854   0.507  3.5631 -4.1238 -2.1320
  142MOL0     H19542  11.432   3.737   0.624 -1.7461  0.1944  5.0030
  142MOL0     H19543  11.467   3.940   0.743 -0.0459  0.6161 -1.7507
  142MOL0     H19544  11.321   3.999   0.696 -2.4818 -0.4301 -0.1046
  142MOL0     H19545  11.120   3.775   0.822  0.0689  2.0195 -0.0816
  142MOL0     H19546  10.988   3.779   1.083  0.1371  1.4331 -0.8488
  142MOL0     H19547  11.092   3.830   1.217  2.3366 -1.1847 -0.1430
  142MOL0     H19548  11.098   3.551   1.077  2.8687  3.8902 -3.3233
  142MOL0     H19549  11.194   3.606   1.223  0.6889  1.9274 -0.9806
  142MOL0     H19550  10.899   3.545   1.203  0.7104 -1.0982 -1.2993
  142MOL0     H19551  11.028   3.462   1.292  0.8596  0.8628  0.4797
  142MOL0     H19552  11.050   3.637   1.450  1.6794 -5.0608 -0.5546
  142MOL0     H19553  10.945   3.758   1.355 -2.0025 -1.6209 -2.4270
  142MOL0     H19554  10.956   3.799   1.574 -1.2210  3.7541  0.1763
  142MOL0     H19555  10.841   4.017   1.802 -1.3174 -0.6754  0.0989
  142MOL0     H19556  10.995   3.945   1.734  1.3128  0.2951  2.4669
  142MOL0     H19557  10.940   3.908   1.898  0.6782 -2.1364 -0.2297
  142MOL0     H19558  10.469   3.967   2.029 -1.9074  1.2250 -0.4968
  142MOL0     H19559  10.304   4.043   2.196  0.6712  0.7855 -2.5886
  142MOL0     H19560  10.110   3.690   2.398  2.0665  0.2123 -0.4020
  142MOL0     H19561  10.090   3.777   2.540  0.4377 -2.1315 -0.3844
  142MOL0     H19562   9.935   3.920   2.448  0.2600 -2.6002  2.3383
  142MOL0     H19563   9.957   3.856   2.278  1.3903  1.4615  0.7625
  142MOL0     H19564   9.835   3.707   2.503  3.9915  1.7221  0.0438
  142MOL0     H19565   9.841   3.637   2.341 -0.2519 -0.5558  0.6850
  142MOL0     H19566   9.716   3.849   2.271  1.0691  0.8041  1.2322
  142MOL0     H19567   9.686   3.865   2.445  0.2908 -0.1168 -0.4274
  142MOL0     H19568   9.616   3.610   2.295  1.1300  1.2735 -0.6442
  142MOL0     H19569   9.584   3.617   2.449  2.6306 -1.9710 -0.4857
  142MOL0     H19570   9.444   3.846   2.398 -2.7014 -1.0004 -0.4230
  142MOL0     H19571   9.374   3.679   2.369 -0.9956 -0.2367  2.3226
  142MOL0     H19572   9.437   3.702   2.135 -1.4387 -0.8282  0.7416
  142MOL0     H19573   9.501   3.858   2.172 -0.0090 -0.0176  0.0576
  142MOL0     H19574   9.218   3.758   2.237 -2.3657  0.8701 -0.1839
  142MOL0     H19575   9.245   3.829   2.079  1.6152  0.7262 -1.1824
  142MOL0     H19576  10.322   3.668   2.405 -0.2882 -0.8607 -0.6792
  142MOL0     H19577  10.499   3.596   2.238 -1.7936 -0.6541  1.4095
  142MOL0     H19578  10.561   3.602   1.803 -1.0301  2.5628  0.3433
  142MOL0     H19579  10.629   3.535   1.558  0.5507 -3.4946  3.0344
  142MOL0     H19580  10.700   3.455   0.136  1.0674 -0.2647  0.8513
  142MOL0     H19581  10.537   3.616   0.075 -1.0703 -4.1291  0.7890
  142MOL0     H19582  10.064   3.783   0.260  1.8460 -0.8875 -2.0692
  142MOL0     H19583   9.910   3.940   0.136 -0.2863 -1.2273  1.1894
  142MOL0     H19584   9.854   4.353   0.125 -1.6296 -0.4691 -3.5018
  142MOL0     H19585  10.031   4.366   0.168  0.8985 -4.4198  0.8284
  142MOL0     H19586   9.928   4.326  -0.111 -1.4920 -4.0510  2.5892
  142MOL0     H19587  10.101   4.365  -0.060  0.0122 -2.8868 -0.3725
  142MOL0     H19588  10.002   4.574   0.054 -2.9615 -1.2884  2.7860
  142MOL0     H19589  10.053   4.567  -0.115 -1.9813 -3.8685 -3.2907
  142MOL0     H19590   9.773   4.533   0.001  0.9062  0.1380  0.4834
  142MOL0     H19591   9.824   4.506  -0.169  5.9251 -1.3311 -0.1957
  142MOL0     H19592   9.750   4.916  -0.177  0.9335  0.9423  0.5193
  142MOL0     H19593  10.201   4.258   0.172  0.7366  0.0968  1.1000
  142MOL0     H19594  10.392   4.209   0.338 -2.8983  0.1203 -0.5300
  142MOL0     H19595  10.457   4.050   0.333  2.8717 -0.2032 -1.2935
  142MOL0     H19596  10.449   4.130   0.181  0.0785 -1.0491  0.7893
  143MOL0     O19597   8.130   7.742   4.389 -0.1266 -0.1318 -0.6483
  143MOL0     C19598   8.128   7.663   4.481  0.7066 -0.5289 -1.3207
  143MOL0     O19599   8.164   7.704   4.605  0.3042 -0.7426 -0.1996
  143MOL0     C19600   8.250   7.807   4.627  0.3051 -0.3510 -0.4525
  143MOL0     C19601   8.339   7.864   4.531 -1.1003  0.1022  0.7169
  143MOL0     C19602   8.417   7.978   4.537  0.1337 -0.7242 -0.3838
  143MOL0     C19603   8.421   8.049   4.665  0.2201  0.3569  0.1929
  143MOL0     O19604   8.491   8.170   4.678  1.2131 -0.2047  0.4509
  143MOL0     C19605   8.407   8.278   4.728  0.0147  0.1522  0.0069
  143MOL0     C19606   8.493   8.398   4.734 -1.2258  0.6237 -0.5763
  143MOL0     C19607   8.569   8.455   4.607 -0.5863  0.1824  0.9932
  143MOL0     C19608   8.594   8.600   4.616 -0.5935  0.2400 -0.6203
  143MOL0     C19609   8.684   8.650   4.504  0.3019  0.7809 -0.0137
  143MOL0     C19610   8.693   8.803   4.489  0.6710  0.3672  0.4482
  143MOL0     C19611   8.777   8.848   4.362  0.5559 -0.2464 -0.9622
  143MOL0     C19612   8.713   8.817   4.224 -0.8238  0.1919 -0.5400
  143MOL0     N19613   8.588   8.901   4.212  0.2644  0.2959  0.7889
  143MOL0     C19614   8.464   8.842   4.234 -0.1239  0.0869 -0.0953
  143MOL0     C19615   8.372   8.938   4.180 -1.2837  0.7373 -0.4949
  143MOL0     C19616   8.237   8.907   4.159  0.4897 -0.1469  0.1337
  143MOL0     C19617   8.147   8.927   4.271  0.3950 -0.5983 -0.2669
  143MOL0     C19618   8.015   8.991   4.229  0.4260  0.1944 -0.2442
  143MOL0     C19619   8.025   9.136   4.169 -0.4914  0.7957  0.1687
  143MOL0     O19620   7.894   9.193   4.153 -0.0299  0.2480 -0.7835
  143MOL0     C19621   7.884   9.307   4.073  0.1843 -0.6678  0.0464
  143MOL0     C19622   7.996   9.392   4.035  0.1191 -0.1996 -0.2403
  143MOL0     C19623   7.982   9.502   3.959 -0.0542 -0.6260 -0.0956
  143MOL0     C19624   8.111   9.587   3.928  0.8038  0.6502  0.4592
  143MOL0     C19625   7.851   9.530   3.897 -0.1347  0.1051  0.6236
  143MOL0     C19626   7.817   9.649   3.822 -0.3115 -0.3869  1.2642
  143MOL0     O19627   7.697   9.701   3.844  0.0213 -0.6455  0.3295
  143MOL0     C19628   7.641   9.811   3.778 -0.1224  0.4109 -0.2190
  143MOL0     C19629   7.535   9.870   3.836  0.8227 -0.2663 -0.5399
  143MOL0     C19630   7.460   9.966   3.770  0.6791  0.5995  0.6692
  143MOL0     C19631   7.504  10.015   3.645  1.0939 -0.0057 -0.4986
  143MOL0     O19632   7.439  10.114   3.582  0.6226  0.4449  0.1126
  143MOL0     C19633   7.416  10.238   3.652  0.4530  0.9796  0.2885
  143MOL0     C19634   7.356  10.335   3.555 -0.1913 -0.0920 -0.0598
  143MOL0     C19635   7.322  10.476   3.614 -0.1459 -0.8991  0.4031
  143MOL0     C19636   7.279  10.577   3.505 -0.4170  0.1377 -0.1467
  143MOL0     C19637   7.342  10.708   3.532  0.4475 -1.4553 -0.1515
  143MOL0     C19638   7.272  10.809   3.439  0.2514  0.2865  0.5134
  143MOL0     C19639   7.369  10.925   3.412 -0.0422  0.2658  0.0017
  143MOL0     C19640   7.297  11.046   3.352 -0.2858  0.5204  0.7780
  143MOL0    Cl19641   7.423  11.168   3.290 -0.1590 -0.0694  0.5780
  143MOL0     C19642   7.622   9.965   3.596 -1.2683  0.1056 -0.3465
  143MOL0     C19643   7.687   9.862   3.661  0.2918 -0.7009  1.1959
  143MOL0     O19644   7.902   9.691   3.746 -0.6111  0.0759  0.2410
  143MOL0     C19645   7.750   9.442   3.933  0.1237  0.1348  0.7319
  143MOL0     C19646   7.760   9.329   4.012  0.6564 -0.1935 -0.2935
  143MOL0     N19647   8.447   9.034   4.118  0.0660 -0.2678  0.3109
  143MOL0     N19648   8.569   9.015   4.135  0.0621  0.3266  0.2372
  143MOL0     C19649   8.337   7.990   4.771  1.0079 -0.2412  0.7363
  143MOL0     C19650   8.255   7.870   4.750  0.9776 -1.2399 -1.0512
  143MOL0     C19651   8.088   7.524   4.454 -0.8260  0.8759  0.2088
  143MOL0     C19652   7.998   7.471   4.549 -0.7326  0.1460 -0.5825
  143MOL0     C19653   7.956   7.340   4.539  1.1899  0.0170  0.9239
  143MOL0     C19654   7.999   7.249   4.442  0.8118  0.4671  0.1033
  143MOL0     O19655   7.939   7.130   4.440 -0.2130  1.1441 -0.3537
  143MOL0     C19656   7.961   7.040   4.330 -0.8413 -0.9756  0.3544
  143MOL0     C19657   7.881   7.091   4.207 -0.0463  0.1921 -0.4899
  143MOL0     C19658   7.744   7.033   4.189  0.2719  0.3681  0.6434
  143MOL0     C19659   7.681   7.076   4.049  0.7739 -0.2485 -0.0628
  143MOL0     C19660   7.753   7.015   3.935  0.1656 -0.2239 -1.1063
  143MOL0     C19661   7.809   6.966   3.838 -0.1613  0.0907  0.4266
  143MOL0     C19662   8.079   7.303   4.338 -0.4495 -0.5109  0.4657
  143MOL0     C19663   8.123   7.439   4.341 -0.7244 -0.6675  0.1094
  143MOL0     C19664   8.213   7.489   4.224 -0.0643 -0.2240  0.6565
  143MOL0     H19665   8.330   7.812   4.436 -0.2524  0.8288  0.2238
  143MOL0     H19666   8.460   8.032   4.454  0.2138 -1.5478 -0.8856
  143MOL0     H19667   8.363   8.259   4.826 -1.9062 -0.2941 -0.8943
  143MOL0     H19668   8.329   8.309   4.658  0.9348  3.0705  0.1256
  143MOL0     H19669   8.445   8.484   4.784  0.4055  0.3845  1.5681
  143MOL0     H19670   8.574   8.372   4.803 -1.1374 -2.2193 -1.6250
  143MOL0     H19671   8.672   8.418   4.604 -1.1384 -1.6002 -2.9110
  143MOL0     H19672   8.517   8.431   4.513  0.3325 -1.0330  0.7719
  143MOL0     H19673   8.497   8.651   4.617 -0.5364  0.3469  0.1550
  143MOL0     H19674   8.650   8.608   4.710  0.9339 -4.6473 -0.8474
  143MOL0     H19675   8.632   8.604   4.420 -0.7297  0.4877  0.7673
  143MOL0     H19676   8.782   8.603   4.513  0.8451  1.8006 -0.4763
  143MOL0     H19677   8.594   8.848   4.491  1.2205  1.5914  0.8832
  143MOL0     H19678   8.755   8.839   4.572 -0.5821 -0.7321  1.8983
  143MOL0     H19679   8.881   8.817   4.371  0.7189  0.3222 -0.8323
  143MOL0     H19680   8.772   8.957   4.363  0.5346 -0.2470 -0.9422
  143MOL0     H19681   8.779   8.854   4.145  0.9412  0.4010  0.9704
  143MOL0     H19682   8.711   8.708   4.210  3.3110 -0.5039  2.5627
  143MOL0     H19683   8.462   8.740   4.269  1.3793 -0.3754 -1.2521
  143MOL0     H19684   8.234   8.798   4.147 -2.1404  0.0434 -2.0616
  143MOL0     H19685   8.208   8.960   4.068  0.6194  0.3601  0.3886
  143MOL0     H19686   8.116   8.828   4.305 -0.8909 -0.9265 -2.2779
  143MOL0     H19687   8.193   8.981   4.355 -2.1551  1.5276 -0.1287
  143MOL0     H19688   7.951   8.932   4.163  2.1684 -3.5320  1.0663
  143MOL0     H19689   7.949   9.004   4.315  1.9057  0.7543  0.8502
  143MOL0     H19690   8.077   9.191   4.247 -1.9255 -1.0932  2.6061
  143MOL0     H19691   8.085   9.131   4.078  0.1679 -2.0198  0.6658
  143MOL0     H19692   8.097   9.360   4.062  0.5609  3.0477  2.6465
  143MOL0     H19693   8.181   9.586   4.012  1.7881 -0.9997 -0.3215
  143MOL0     H19694   8.093   9.689   3.893 -1.0760  0.1503 -0.1258
  143MOL0     H19695   8.154   9.531   3.845  0.1705  1.0470 -0.1419
  143MOL0     H19696   7.509   9.839   3.937  1.1690 -3.0381 -1.2109
  143MOL0     H19697   7.369   9.991   3.825  1.1929 -0.0825  1.8774
  143MOL0     H19698   7.344  10.222   3.733 -0.7539  1.7535 -0.5861
  143MOL0     H19699   7.511  10.280   3.686 -0.3997  4.6905 -1.3201
  143MOL0     H19700   7.441  10.345   3.487  0.7095  0.1801  1.0781
  143MOL0     H19701   7.263  10.301   3.507 -0.0173 -0.0615 -0.4189
  143MOL0     H19702   7.413  10.500   3.669  0.6233 -1.9574 -0.3550
  143MOL0     H19703   7.242  10.479   3.688 -0.6917 -0.5221 -0.1844
  143MOL0     H19704   7.169  10.579   3.511 -0.3958  0.7369  0.1119
  143MOL0     H19705   7.312  10.547   3.405 -0.8547  5.3154 -2.1331
  143MOL0     H19706   7.326  10.732   3.638  1.2405  1.0623 -0.5339
  143MOL0     H19707   7.451  10.704   3.520  1.3482  2.3594  3.7502
  143MOL0     H19708   7.184  10.840   3.496 -1.0536 -4.2787  1.4063
  143MOL0     H19709   7.238  10.766   3.345  2.6726 -1.6364  0.4094
  143MOL0     H19710   7.442  10.897   3.336 -1.6522  0.0758 -1.5582
  143MOL0     H19711   7.411  10.962   3.506 -4.1122  0.8472  1.8227
  143MOL0     H19712   7.230  11.094   3.424 -1.2060 -3.2360  2.6820
  143MOL0     H19713   7.233  11.010   3.271  0.9469 -0.5928  0.2570
  143MOL0     H19714   7.658   9.998   3.499 -0.5572  2.2872  0.5852
  143MOL0     H19715   7.776   9.825   3.611  0.7961  0.4367  1.2249
  143MOL0     H19716   7.651   9.454   3.889  1.0778 -2.0479 -2.3804
  143MOL0     H19717   7.679   9.267   4.048  1.1315 -0.6634 -0.0163
  143MOL0     H19718   8.337   8.046   4.864  2.5501 -1.2623  1.3908
  143MOL0     H19719   8.214   7.815   4.834  0.0379 -2.9417 -2.5567
  143MOL0     H19720   7.956   7.535   4.627  3.6730  4.4057 -1.2524
  143MOL0     H19721   7.884   7.301   4.609  2.3682 -1.7610  1.1996
  143MOL0     H19722   8.067   7.039   4.303 -1.0204  2.3032 -0.8835
  143MOL0     H19723   7.930   6.938   4.355  0.7023 -1.6416 -0.3365
  143MOL0     H19724   7.945   7.055   4.126 -2.4385 -1.7442 -1.6731
  143MOL0     H19725   7.862   7.198   4.197  1.0985  0.3498 -1.0846
  143MOL0     H19726   7.748   6.924   4.182  2.5659  0.3945 -6.2399
  143MOL0     H19727   7.683   7.064   4.275  3.2234  0.6142  2.7889
  143MOL0     H19728   7.657   7.181   4.033 -2.5884 -1.3435 -4.0299
  143MOL0     H19729   7.582   7.032   4.038  1.6594 -2.2202 -0.7755
  143MOL0     H19730   7.858   6.918   3.755  0.9122  0.5624  0.7721
  143MOL0     H19731   8.115   7.247   4.252 -3.5631 -0.4960 -0.9998
  143MOL0     H19732   8.149   7.549   4.159  1.2872  2.3218  1.5517
  143MOL0     H19733   8.296   7.554   4.254 -0.3706  0.5987 -0.2317
  143MOL0     H19734   8.255   7.413   4.159 -2.8326 -0.5446 -0.9263
  144MOL0     O19735  11.565   4.241  11.242  0.8034 -0.6639 -0.0056
  144MOL0     C19736  11.494   4.313  11.317 -0.3947 -0.1338  0.0330
  144MOL0     O19737  11.544   4.378  11.422 -0.4525  0.2017  0.3181
  144MOL0     C19738  11.673   4.376  11.457 -1.2451  0.1665 -0.7511
  144MOL0     C19739  11.724   4.332  11.586 -0.1025 -0.7048  0.3492
  144MOL0     C19740  11.857   4.342  11.611  0.3432  0.7395  0.5142
  144MOL0     C19741  11.945   4.413  11.523 -0.3270 -0.6430 -0.0665
  144MOL0     O19742  12.076   4.422  11.558  0.2283 -0.3803  1.3975
  144MOL0     C19743  12.126   4.566  11.576  0.1421 -0.4296 -0.3730
  144MOL0     C19744  12.242   4.559  11.673 -1.2690  0.9123  0.6257
  144MOL0     C19745  12.343   4.670  11.633 -0.3291  0.0717 -0.3198
  144MOL0     C19746  12.463   4.659  11.729  0.1338 -0.4882  0.2081
  144MOL0     C19747  12.575   4.765  11.697  0.0104  0.8002 -0.5555
  144MOL0     C19748  12.560   4.909  11.755 -0.5362  0.2543 -0.6361
  144MOL0     C19749  12.645   4.992  11.667 -0.2690 -1.0019  0.1145
  144MOL0     C19750  12.650   5.121  11.735  0.3634  0.0822  0.1486
  144MOL0     N19751  12.726   5.225  11.659  0.3716  1.3592  1.0645
  144MOL0     C19752  12.705   5.352  11.672  0.1826 -0.3694  0.1195
  144MOL0     C19753  12.809   5.411  11.608 -0.0240 -0.1459  0.6823
  144MOL0     C19754  12.826   5.561  11.581  0.0764  0.0133  0.1410
  144MOL0     C19755  12.938   5.618  11.667 -0.7055  0.1486  0.2291
  144MOL0     C19756  12.881   5.686  11.782  0.4529  0.9569  0.1355
  144MOL0     C19757  13.001   5.766  11.861 -0.1996  1.0350 -0.0706
  144MOL0     O19758  13.058   5.867  11.773 -0.1429  0.3812  0.1774
  144MOL0     C19759  13.123   5.974  11.827  0.4960 -0.0357  0.1659
  144MOL0     C19760  13.150   5.989  11.968  0.2505 -0.0737  0.4088
  144MOL0     C19761  13.246   6.072  12.017 -0.1381 -0.9483  0.3211
  144MOL0     C19762  13.247   6.086  12.176 -0.0230  0.3711  0.2172
  144MOL0     C19763  13.294   6.172  11.927 -0.6409  0.2901 -0.3517
  144MOL0     C19764  13.390   6.291  11.964 -0.2438 -0.0833 -0.0618
  144MOL0     O19765  13.437   6.294  12.092  0.1354 -0.1016 -0.4306
  144MOL0     C19766  13.532   6.378  12.129 -0.2999 -0.0066  0.6378
  144MOL0     C19767  13.580   6.498  12.067  1.2171  0.1494 -0.5292
  144MOL0     C19768  13.668   6.590  12.128 -0.2094  0.1763 -0.5932
  144MOL0     C19769  13.711   6.566  12.253  0.1504  0.8285  0.6880
  144MOL0     O19770  13.789   6.661  12.302 -0.4128  0.2755  0.0275
  144MOL0     C19771  13.735   6.760  12.397 -0.0580 -0.4525  0.6637
  144MOL0     C19772  13.796   6.729  12.535  0.4765  0.3484 -0.5909
  144MOL0     C19773  13.737   6.833  12.649  0.6442  0.2184 -0.5856
  144MOL0     C19774  13.807   6.975  12.653 -0.1549  0.8105  0.1703
  144MOL0     C19775  13.742   7.058  12.767  0.1762 -0.3362  0.5495
  144MOL0     C19776  13.844   7.174  12.806  0.0896  0.3031  0.0014
  144MOL0     C19777  13.772   7.297  12.870 -1.0341  0.4745  0.4209
  144MOL0     C19778  13.795   7.412  12.774 -0.1374  0.0718 -1.2220
  144MOL0    Cl19779  13.672   7.538  12.800 -0.3570 -0.1455  0.3191
  144MOL0     C19780  13.676   6.451  12.321 -0.0874 -0.0136  0.5901
  144MOL0     C19781  13.595   6.353  12.252 -0.0380 -0.0950  0.2638
  144MOL0     O19782  13.403   6.376  11.878 -0.2562 -0.1883  0.0788
  144MOL0     C19783  13.258   6.165  11.794 -0.7586  0.5705 -1.3030
  144MOL0     C19784  13.181   6.064  11.746 -0.2585  0.0703  0.2457
  144MOL0     N19785  12.889   5.308  11.569 -0.1878 -0.9767  0.4989
  144MOL0     N19786  12.838   5.192  11.594  0.0335 -0.0023  0.4677
  144MOL0     C19787  11.893   4.464  11.403  0.8802  0.2413  0.5195
  144MOL0     C19788  11.755   4.445  11.368  0.7127  0.0959  0.6022
  144MOL0     C19789  11.353   4.315  11.296  0.7899  0.1565  0.6834
  144MOL0     C19790  11.270   4.235  11.386 -0.4043 -0.4264  0.3432
  144MOL0     C19791  11.135   4.243  11.368  0.0247 -0.0726  0.9323
  144MOL0     C19792  11.078   4.302  11.254  0.6076  0.4014  0.2721
  144MOL0     O19793  10.944   4.282  11.247 -0.8711  0.1367 -0.4632
  144MOL0     C19794  10.877   4.264  11.121 -0.2591 -0.0903  0.2895
  144MOL0     C19795  10.933   4.144  11.034  0.1952  1.0410 -0.1701
  144MOL0     C19796  10.908   4.012  11.108 -0.0199  1.1994 -0.4089
  144MOL0     C19797  10.973   3.894  11.040 -0.2165 -0.0625 -0.4619
  144MOL0     C19798  11.123   3.894  11.048 -0.5563  0.6810  0.3214
  144MOL0     C19799  11.243   3.874  11.034  0.9115 -0.3863 -0.3257
  144MOL0     C19800  11.156   4.372  11.160 -0.4480 -0.5704  0.2986
  144MOL0     C19801  11.291   4.377  11.182  0.4727 -0.5177  1.1576
  144MOL0     C19802  11.372   4.441  11.071 -0.8742 -0.6990 -0.3627
  144MOL0     H19803  11.660   4.268  11.647 -1.8158  0.5306 -0.0780
  144MOL0     H19804  11.901   4.299  11.701 -2.0454 -0.9547  0.9459
  144MOL0     H19805  12.050   4.625  11.627  2.6954  0.8116  2.2180
  144MOL0     H19806  12.152   4.613  11.481 -0.9070 -0.2584 -0.5818
  144MOL0     H19807  12.210   4.565  11.777 -0.9989 -3.3241  1.1341
  144MOL0     H19808  12.294   4.464  11.654  2.6340  3.0941 -0.6963
  144MOL0     H19809  12.372   4.663  11.527 -2.5494 -4.4452 -0.8682
  144MOL0     H19810  12.285   4.760  11.650  0.0311  0.6559 -1.9627
  144MOL0     H19811  12.438   4.672  11.835  2.0951  0.9060  0.5517
  144MOL0     H19812  12.511   4.561  11.725 -1.0301 -1.0303 -2.8029
  144MOL0     H19813  12.581   4.774  11.589 -3.2929 -2.5581 -1.2296
  144MOL0     H19814  12.677   4.731  11.717  0.6716  1.3733 -2.7247
  144MOL0     H19815  12.454   4.935  11.757 -0.5780  0.1294 -1.0637
  144MOL0     H19816  12.593   4.901  11.859 -2.2056  1.8189  0.0637
  144MOL0     H19817  12.597   5.022  11.574  1.2029  0.2346 -0.2927
  144MOL0     H19818  12.746   4.951  11.657  0.9983  1.9938 -0.3190
  144MOL0     H19819  12.549   5.155  11.762 -0.0907 -0.2234 -1.0895
  144MOL0     H19820  12.705   5.114  11.830  3.1274 -2.6731 -1.4722
  144MOL0     H19821  12.620   5.394  11.725 -0.1392 -0.2768 -0.4611
  144MOL0     H19822  12.725   5.604  11.586 -0.3256 -0.8003 -0.7144
  144MOL0     H19823  12.854   5.564  11.475  3.3093  1.3207  0.9209
  144MOL0     H19824  13.020   5.548  11.686 -0.3251  0.6332  0.3922
  144MOL0     H19825  12.971   5.701  11.603 -1.3568  1.1411  1.1299
  144MOL0     H19826  12.813   5.761  11.740 -2.0990 -0.8176  0.8225
  144MOL0     H19827  12.824   5.625  11.853  2.6635 -2.1796 -0.5705
  144MOL0     H19828  12.951   5.813  11.946 -1.2711  2.9436 -1.6824
  144MOL0     H19829  13.083   5.703  11.898 -0.1812  1.5766  0.8593
  144MOL0     H19830  13.096   5.917  12.028  1.5720  0.5650  2.4917
  144MOL0     H19831  13.350   6.101  12.209 -0.1577  2.0323 -0.0339
  144MOL0     H19832  13.209   5.996  12.225 -3.0422  0.2245 -2.1257
  144MOL0     H19833  13.193   6.177  12.205 -2.1982 -0.6752 -0.3289
  144MOL0     H19834  13.534   6.534  11.975  1.9815  2.2100 -0.1601
  144MOL0     H19835  13.675   6.686  12.077  1.0116  1.2829  1.5086
  144MOL0     H19836  13.763   6.862  12.372  1.5751 -0.8456  0.8142
  144MOL0     H19837  13.626   6.764  12.406 -0.1088  0.5603 -0.2885
  144MOL0     H19838  13.756   6.629  12.552  1.8263 -0.5655 -2.4891
  144MOL0     H19839  13.905   6.733  12.530  0.4203  2.4600 -1.2190
  144MOL0     H19840  13.743   6.773  12.740  0.8450 -0.3593 -0.9750
  144MOL0     H19841  13.628   6.838  12.636  0.1995  0.5732  2.5133
  144MOL0     H19842  13.810   7.019  12.553 -2.0872  2.2280  0.6815
  144MOL0     H19843  13.910   6.952  12.681  0.1227  0.7989 -0.8198
  144MOL0     H19844  13.653   7.108  12.728  1.3374  3.7569  2.5394
  144MOL0     H19845  13.722   7.005  12.860  0.7334 -0.1760  0.7675
  144MOL0     H19846  13.904   7.201  12.719  0.3781 -2.5297 -0.7909
  144MOL0     H19847  13.911   7.123  12.877 -2.9345 -1.8828  1.4933
  144MOL0     H19848  13.829   7.329  12.958 -1.4742  1.7875  0.2479
  144MOL0     H19849  13.665   7.279  12.883 -1.1851 -0.2388 -1.4775
  144MOL0     H19850  13.798   7.389  12.667 -1.2442  1.0010 -1.4665
  144MOL0     H19851  13.894   7.455  12.792  1.7411 -3.8703 -1.0850
  144MOL0     H19852  13.716   6.442  12.421 -0.6389 -2.2250  0.6659
  144MOL0     H19853  13.572   6.264  12.309  1.0520 -0.6118 -0.0767
  144MOL0     H19854  13.295   6.239  11.724  0.8658  0.1892 -0.9008
  144MOL0     H19855  13.159   6.054  11.641 -3.5482  1.1013  0.7210
  144MOL0     H19856  11.963   4.517  11.339  2.6411 -0.0975  2.0855
  144MOL0     H19857  11.713   4.494  11.280  0.4647 -1.8115 -0.3832
  144MOL0     H19858  11.307   4.167  11.462 -2.4697 -3.3894 -1.0543
  144MOL0     H19859  11.066   4.193  11.435  0.8895 -3.8461 -0.7219
  144MOL0     H19860  10.768   4.259  11.135 -0.3235  1.4551  0.4408
  144MOL0     H19861  10.880   4.355  11.061  1.5494  0.1447  0.6987
  144MOL0     H19862  11.039   4.169  11.031  0.5465 -0.2866 -4.3746
  144MOL0     H19863  10.895   4.150  10.932  1.3884  0.9408 -0.6284
  144MOL0     H19864  10.931   4.010  11.215 -5.0501 -2.6260  1.0035
  144MOL0     H19865  10.801   3.990  11.110  0.3406 -0.6660  1.6362
  144MOL0     H19866  10.935   3.887  10.938 -4.9927 -0.0811  1.0984
  144MOL0     H19867  10.945   3.798  11.083 -1.9900  0.5262 -0.2220
  144MOL0     H19868  11.341   3.834  11.016  2.2169  2.3733  0.0240
  144MOL0     H19869  11.104   4.422  11.079  2.7744  1.6415 -0.5811
  144MOL0     H19870  11.459   4.492  11.114  0.3057 -3.4116  0.6459
  144MOL0     H19871  11.409   4.370  10.997  1.4628  0.4012 -0.3287
  144MOL0     H19872  11.299   4.503  11.018 -1.3660 -1.1904 -0.2691
  145MOL0     O19873   8.305   6.308   1.328 -0.2861 -0.8078  0.4320
  145MOL0     C19874   8.272   6.195   1.368 -0.9465 -0.7022 -0.2769
  145MOL0     O19875   8.162   6.124   1.313  0.2849  0.6618 -0.9324
  145MOL0     C19876   8.048   6.184   1.261  0.1228 -0.1613  0.6422
  145MOL0     C19877   8.056   6.303   1.184 -0.0304  0.1505 -0.6578
  145MOL0     C19878   7.932   6.354   1.139 -0.8504  0.0900 -0.0524
  145MOL0     C19879   7.811   6.288   1.155  1.0259  0.4824  0.4648
  145MOL0     O19880   7.692   6.343   1.102 -0.2558  0.4816 -0.1594
  145MOL0     C19881   7.567   6.282   1.107  0.4999 -0.3075  0.1539
  145MOL0     C19882   7.495   6.336   1.234  0.9415 -0.0612 -0.1333
  145MOL0     C19883   7.407   6.224   1.304  0.6190 -0.0703  0.9423
  145MOL0     C19884   7.388   6.242   1.452  0.8191 -0.2158  0.3484
  145MOL0     C19885   7.268   6.158   1.495 -0.0235  0.4033 -0.0293
  145MOL0     C19886   7.280   6.157   1.644  0.4135 -0.4535  0.0474
  145MOL0     C19887   7.178   6.059   1.699  0.4875  0.0623  0.0395
  145MOL0     C19888   7.215   6.001   1.838  0.0880  0.6500  1.4034
  145MOL0     N19889   7.267   6.103   1.927 -0.6125  0.9550 -0.0370
  145MOL0     C19890   7.195   6.189   2.004  0.2526 -0.3307  0.2088
  145MOL0     C19891   7.288   6.267   2.070  0.3632  0.7442  0.0480
  145MOL0     C19892   7.250   6.400   2.136  0.6323  0.9618  0.6086
  145MOL0     C19893   7.189   6.388   2.275  0.0266  1.0918  0.7686
  145MOL0     C19894   7.284   6.394   2.398 -0.2178  0.7738  1.3185
  145MOL0     C19895   7.381   6.281   2.392  0.0223  0.1091  0.6785
  145MOL0     O19896   7.321   6.168   2.452 -0.0783 -0.5891  0.0508
  145MOL0     C19897   7.260   6.076   2.364  0.2436 -0.1697  0.1481
  145MOL0     C19898   7.338   5.984   2.291 -0.6803 -0.1759  0.1907
  145MOL0     C19899   7.284   5.883   2.220  0.5515 -0.0833 -0.0349
  145MOL0     C19900   7.371   5.773   2.175 -0.7971 -1.0204 -0.4916
  145MOL0     C19901   7.142   5.877   2.215 -0.0314  0.1788 -0.1206
  145MOL0     C19902   7.091   5.771   2.133  0.1591 -0.0942  0.9253
  145MOL0     O19903   7.113   5.636   2.179 -0.2795  0.3844 -0.3743
  145MOL0     C19904   7.051   5.525   2.115 -0.6343 -0.6026 -0.0888
  145MOL0     C19905   6.917   5.517   2.069 -0.0758 -0.9651  0.3013
  145MOL0     C19906   6.858   5.411   2.011  0.6937  0.3696 -0.5219
  145MOL0     C19907   6.939   5.299   2.006  0.5359  0.0296  0.3702
  145MOL0     O19908   6.925   5.190   1.929 -1.2295 -0.9083 -0.1474
  145MOL0     C19909   6.799   5.145   1.886 -0.9139  0.4819 -0.0055
  145MOL0     C19910   6.809   5.054   1.765 -0.0426 -0.1070 -0.1424
  145MOL0     C19911   6.880   5.139   1.656 -0.5025 -0.4598 -0.0282
  145MOL0     C19912   6.863   5.076   1.524 -0.1940 -0.0825 -0.3032
  145MOL0     C19913   6.966   5.134   1.422 -0.9104 -1.1835  0.1796
  145MOL0     C19914   6.902   5.103   1.280 -0.1179 -0.3321 -0.4912
  145MOL0     C19915   6.966   5.183   1.170 -0.5428  0.1784  0.3195
  145MOL0     C19916   6.907   5.166   1.027 -0.4928  0.0561 -0.4050
  145MOL0    Cl19917   6.923   4.993   0.986 -0.1959 -0.1308 -0.0260
  145MOL0     C19918   7.065   5.297   2.060 -0.0416  0.5279  0.4845
  145MOL0     C19919   7.131   5.408   2.111  0.8070 -0.7247  0.4079
  145MOL0     O19920   7.010   5.807   2.038 -0.1398  0.2520  0.0486
  145MOL0     C19921   7.066   5.966   2.282  0.7413 -0.2212 -0.0984
  145MOL0     C19922   7.125   6.061   2.361  0.5010 -0.4611  0.4854
  145MOL0     N19923   7.420   6.226   2.034  0.4167  0.0090 -0.0164
  145MOL0     N19924   7.403   6.127   1.952 -0.5856  0.6456  0.3036
  145MOL0     C19925   7.820   6.169   1.215  0.7150  0.4987 -0.2505
  145MOL0     C19926   7.924   6.112   1.273 -0.3578  0.3631 -0.5390
  145MOL0     C19927   8.364   6.113   1.450 -0.5748  0.2093 -1.2460
  145MOL0     C19928   8.344   5.971   1.444 -0.1686  0.4944 -0.5451
  145MOL0     C19929   8.416   5.882   1.529  0.0267  0.0155 -0.7087
  145MOL0     C19930   8.528   5.927   1.594  0.0169 -0.1324 -0.5660
  145MOL0     O19931   8.587   5.835   1.679  0.1363 -0.0990  0.5075
  145MOL0     C19932   8.690   5.867   1.772 -1.3987 -0.4524  0.0770
  145MOL0     C19933   8.739   5.745   1.859  1.2024 -0.1385  0.2576
  145MOL0     C19934   8.827   5.639   1.773  0.1778 -1.0287  0.0501
  145MOL0     C19935   8.890   5.541   1.878 -0.0906 -0.3805 -0.7917
  145MOL0     C19936   8.960   5.428   1.824  0.6518  0.2488 -0.1175
  145MOL0     C19937   9.006   5.322   1.773 -0.1777  0.3094 -0.6910
  145MOL0     C19938   8.545   6.063   1.603 -0.0401 -0.0621 -0.0812
  145MOL0     C19939   8.477   6.153   1.527  0.3494  0.0629  0.8197
  145MOL0     C19940   8.526   6.302   1.528 -1.5096  0.8787 -0.1372
  145MOL0     H19941   8.153   6.336   1.147 -0.9744  3.0044 -0.8323
  145MOL0     H19942   7.926   6.451   1.091  1.2027  0.7982  0.9863
  145MOL0     H19943   7.574   6.173   1.108  2.5810 -0.2090  1.1175
  145MOL0     H19944   7.504   6.312   1.022 -0.2957  0.0901  0.8659
  145MOL0     H19945   7.564   6.392   1.297 -0.0476  3.6582 -2.0704
  145MOL0     H19946   7.428   6.419   1.213 -0.6223 -0.9341  1.1692
  145MOL0     H19947   7.315   6.219   1.244  1.2103 -0.7599  0.0676
  145MOL0     H19948   7.450   6.125   1.287 -2.0567 -1.0296 -0.9778
  145MOL0     H19949   7.475   6.211   1.510 -0.2375 -0.5146  1.8621
  145MOL0     H19950   7.367   6.346   1.481 -1.6432 -0.7842  0.9013
  145MOL0     H19951   7.263   6.059   1.448  0.8894  0.7057 -0.7884
  145MOL0     H19952   7.174   6.202   1.460 -1.2530 -0.8622  1.5048
  145MOL0     H19953   7.381   6.124   1.671  0.1293 -2.7843 -1.3982
  145MOL0     H19954   7.268   6.255   1.689 -1.0334 -0.5793 -0.0094
  145MOL0     H19955   7.182   5.972   1.632 -1.8533 -2.7719  3.2397
  145MOL0     H19956   7.081   6.109   1.707  1.5089  2.2082 -0.3030
  145MOL0     H19957   7.123   5.949   1.867 -0.8634  1.4752  0.0060
  145MOL0     H19958   7.296   5.927   1.829  0.6654  1.5154 -2.5482
  145MOL0     H19959   7.088   6.209   2.005  0.3072  0.7230  4.2494
  145MOL0     H19960   7.192   6.464   2.069  2.0389  0.1179 -1.5377
  145MOL0     H19961   7.343   6.457   2.145  1.3413 -0.1236  0.3308
  145MOL0     H19962   7.111   6.464   2.284 -1.2380 -0.3892  3.5862
  145MOL0     H19963   7.131   6.296   2.283  0.1574  1.0024  0.6876
  145MOL0     H19964   7.331   6.493   2.392  2.5126 -0.5238 -2.4188
  145MOL0     H19965   7.228   6.378   2.490  2.2022 -1.4416  2.5207
  145MOL0     H19966   7.434   6.271   2.297 -1.3733  4.2024 -0.7383
  145MOL0     H19967   7.458   6.315   2.461  0.3087  0.3392  0.2507
  145MOL0     H19968   7.445   5.981   2.313 -0.6943 -0.3504  0.2443
  145MOL0     H19969   7.376   5.690   2.246 -0.3779  0.1739  0.9242
  145MOL0     H19970   7.475   5.807   2.174  0.2062 -3.6965  1.3932
  145MOL0     H19971   7.354   5.743   2.071  0.8408 -0.1977 -1.0484
  145MOL0     H19972   6.867   5.613   2.076  0.2355 -0.5378 -2.3251
  145MOL0     H19973   6.762   5.415   1.960  0.4295 -0.6970 -0.1249
  145MOL0     H19974   6.742   5.084   1.957 -0.3788 -0.2461 -0.1923
  145MOL0     H19975   6.729   5.226   1.866 -1.3586 -0.4507 -2.6696
  145MOL0     H19976   6.866   4.962   1.780  1.9407  1.0384 -0.3296
  145MOL0     H19977   6.710   5.023   1.731  0.4751 -2.6417  0.4402
  145MOL0     H19978   6.987   5.137   1.680 -0.7721 -3.4611  1.3024
  145MOL0     H19979   6.826   5.234   1.648  0.2198 -0.0439 -0.1242
  145MOL0     H19980   6.759   5.094   1.495 -0.4192  1.4917  1.2911
  145MOL0     H19981   6.884   4.969   1.525  0.3032 -0.0021 -1.0611
  145MOL0     H19982   7.000   5.237   1.437  0.6871 -1.9298  2.1214
  145MOL0     H19983   7.059   5.075   1.423 -2.2695 -3.8616 -3.8572
  145MOL0     H19984   6.798   5.136   1.283 -0.2416 -0.6680 -1.0142
  145MOL0     H19985   6.902   4.995   1.264 -0.4422 -0.5641  0.8868
  145MOL0     H19986   7.071   5.152   1.160 -0.3296  1.1848 -0.8425
  145MOL0     H19987   6.976   5.287   1.203 -4.4336  0.5872  0.6963
  145MOL0     H19988   6.970   5.224   0.959 -1.7676  2.6445  0.4884
  145MOL0     H19989   6.803   5.198   1.026 -0.6447 -0.3568  0.7008
  145MOL0     H19990   7.132   5.212   2.070  0.8500  1.3629  2.0215
  145MOL0     H19991   7.227   5.411   2.161  0.5017 -0.3667  0.9905
  145MOL0     H19992   6.959   5.949   2.281  0.6541  0.2433  0.6641
  145MOL0     H19993   7.051   6.117   2.418  0.3894 -1.2933  1.1838
  145MOL0     H19994   7.724   6.123   1.229 -0.7144  3.3051 -0.0610
  145MOL0     H19995   7.920   6.019   1.328  4.2853  1.4169  2.1651
  145MOL0     H19996   8.264   5.935   1.380  0.0254  1.5949 -1.4455
  145MOL0     H19997   8.399   5.775   1.531 -1.6611  0.2245 -1.9039
  145MOL0     H19998   8.774   5.916   1.722 -0.8503 -2.7955 -1.4624
  145MOL0     H19999   8.651   5.931   1.851  2.4834 -2.3522  3.9933
  145MOL0     H20000   8.655   5.699   1.913  0.3633  3.3507  2.2293
  145MOL0     H20001   8.808   5.792   1.929  0.4464 -0.2776  1.1026
  145MOL0     H20002   8.785   5.574   1.696 -0.0324 -1.3382  0.4232
  145MOL0     H20003   8.904   5.701   1.728 -0.5338 -0.4799 -0.4368
  145MOL0     H20004   8.811   5.524   1.951  1.6119  2.3570  1.9626
  145MOL0     H20005   8.966   5.600   1.931 -3.6731  3.3989  0.6526
  145MOL0     H20006   9.056   5.236   1.734  0.5930  1.0693 -1.4123
  145MOL0     H20007   8.624   6.117   1.654 -0.1725  0.6886 -0.6441
  145MOL0     H20008   8.437   6.365   1.537 -2.1421 -0.0010 -0.0673
  145MOL0     H20009   8.589   6.326   1.614 -0.9419 -0.9284 -0.0130
  145MOL0     H20010   8.584   6.321   1.438  0.2483 -1.9657  0.2685
  146MOL0     O20011   6.826   1.917   9.301  0.0216 -0.0959 -0.2657
  146MOL0     C20012   6.758   1.816   9.298  1.0245  0.3218 -0.5877
  146MOL0     O20013   6.749   1.726   9.399 -0.5158  0.9210  0.4052
  146MOL0     C20014   6.828   1.731   9.516 -0.2556  0.4768  0.5934
  146MOL0     C20015   6.951   1.677   9.507 -0.9963 -0.2859 -0.0651
  146MOL0     C20016   7.033   1.672   9.619 -0.3566  0.7920 -0.5997
  146MOL0     C20017   6.987   1.731   9.742  0.5079 -0.1698  0.2908
  146MOL0     O20018   7.045   1.728   9.862  0.2745  0.6099 -0.4833
  146MOL0     C20019   7.166   1.637   9.890  0.7963  0.0799  0.4276
  146MOL0     C20020   7.135   1.498   9.941 -0.7457 -0.4682  0.6542
  146MOL0     C20021   7.049   1.418   9.843 -0.7662  0.6324  0.9626
  146MOL0     C20022   7.004   1.287   9.900  0.4936  0.7397  0.2937
  146MOL0     C20023   6.900   1.219   9.803 -0.0631  0.2582  0.1379
  146MOL0     C20024   6.847   1.072   9.831 -0.6188  0.5438  1.0594
  146MOL0     C20025   6.751   1.027   9.722  0.5375  0.0251 -0.5184
  146MOL0     C20026   6.613   1.105   9.721 -0.7598  0.3036  0.8175
  146MOL0     N20027   6.530   1.017   9.650  0.4897 -0.3562  0.0118
  146MOL0     C20028   6.459   0.914   9.705  0.1004  0.1041 -0.1072
  146MOL0     C20029   6.361   0.882   9.630  0.1477 -0.9806  0.2868
  146MOL0     C20030   6.244   0.799   9.668 -0.0899 -0.5356 -0.6024
  146MOL0     C20031   6.181   0.833   9.804  0.2385  0.0533  0.3650
  146MOL0     C20032   6.088   0.963   9.796  0.0307 -0.4240 -0.1670
  146MOL0     C20033   6.173   1.091   9.820  0.0488 -0.0595  0.3048
  146MOL0     O20034   6.086   1.186   9.876 -0.6364 -0.0850 -0.5069
  146MOL0     C20035   6.015   1.270   9.806  0.0165  0.7293 -0.2984
  146MOL0     C20036   6.025   1.287   9.663  0.4214  0.4930 -0.1760
  146MOL0     C20037   5.940   1.364   9.585  1.1506 -0.1831 -1.0056
  146MOL0     C20038   5.962   1.365   9.434  1.1802  0.2145 -0.2085
  146MOL0     C20039   5.832   1.441   9.650  0.6833 -0.1474  0.5524
  146MOL0     C20040   5.735   1.541   9.589 -0.4054  1.1124 -0.4142
  146MOL0     O20041   5.623   1.568   9.658 -0.1941 -0.3582  0.0987
  146MOL0     C20042   5.519   1.641   9.597  0.0806 -0.0263 -0.6985
  146MOL0     C20043   5.421   1.587   9.512 -0.2672  0.2329 -0.4481
  146MOL0     C20044   5.321   1.667   9.446 -0.3346  0.2058  0.3690
  146MOL0     C20045   5.304   1.803   9.489  0.6442 -0.5882 -0.3123
  146MOL0     O20046   5.205   1.893   9.447  0.5499  1.3546  0.1805
  146MOL0     C20047   5.094   1.875   9.535  0.3049  0.3631 -0.5719
  146MOL0     C20048   4.983   1.983   9.515  0.1669 -0.5089 -0.1494
  146MOL0     C20049   4.900   2.008   9.643 -0.6620 -0.0475 -0.7301
  146MOL0     C20050   4.753   1.982   9.622  0.0686  0.1336  0.2405
  146MOL0     C20051   4.709   1.842   9.641  1.0612  0.2713 -0.5632
  146MOL0     C20052   4.559   1.845   9.651 -0.5007  0.0893  0.6530
  146MOL0     C20053   4.506   1.701   9.650 -0.7500  0.4567  0.3367
  146MOL0     C20054   4.354   1.712   9.678 -0.2828 -0.1071  0.6734
  146MOL0    Cl20055   4.281   1.548   9.714 -0.2094 -0.1660  0.1732
  146MOL0     C20056   5.387   1.853   9.594 -1.0727  0.7019 -0.3830
  146MOL0     C20057   5.494   1.773   9.637 -0.0702 -0.2309  0.6193
  146MOL0     O20058   5.756   1.576   9.476 -0.3358  0.1718  0.7664
  146MOL0     C20059   5.821   1.425   9.795 -1.1252  0.2176  0.9010
  146MOL0     C20060   5.916   1.337   9.861  0.3627 -0.1357 -0.1250
  146MOL0     N20061   6.359   0.961   9.517  0.4755 -1.0173  0.3552
  146MOL0     N20062   6.469   1.044   9.527 -0.0244 -0.4185 -0.2937
  146MOL0     C20063   6.855   1.780   9.745  0.9390  0.9875 -0.0639
  146MOL0     C20064   6.773   1.783   9.629  0.4935  0.0973  0.0003
  146MOL0     C20065   6.692   1.778   9.169 -0.1173 -0.8772  0.0382
  146MOL0     C20066   6.708   1.651   9.116  0.4893 -0.1781 -0.0898
  146MOL0     C20067   6.645   1.621   8.991 -0.4167  1.0795 -0.0195
  146MOL0     C20068   6.588   1.716   8.909 -0.2577  0.2276  0.1835
  146MOL0     O20069   6.556   1.693   8.780  0.5581  0.3899  0.2563
  146MOL0     C20070   6.527   1.553   8.744  0.2130 -0.0107  0.3776
  146MOL0     C20071   6.496   1.562   8.587  0.8827 -0.3137  0.0467
  146MOL0     C20072   6.630   1.575   8.506 -0.9188 -0.2491  0.4145
  146MOL0     C20073   6.624   1.525   8.357  0.2971 -0.5714  0.4115
  146MOL0     C20074   6.536   1.619   8.283 -0.7586  0.7254  0.4366
  146MOL0     C20075   6.463   1.703   8.235  0.2391 -0.1017  0.1873
  146MOL0     C20076   6.574   1.844   8.969  0.3884  0.5621 -1.5910
  146MOL0     C20077   6.620   1.871   9.094 -0.2835  0.3431  0.0625
  146MOL0     C20078   6.582   2.006   9.152 -0.1425 -0.4586  0.1731
  146MOL0     H20079   6.986   1.634   9.414  3.8321  1.7093  0.5548
  146MOL0     H20080   7.131   1.629   9.602 -0.8926 -0.6030 -0.3164
  146MOL0     H20081   7.227   1.688   9.964  1.6800  2.4913 -1.7994
  146MOL0     H20082   7.219   1.625   9.795 -1.1280  0.1938 -0.7181
  146MOL0     H20083   7.227   1.444   9.965 -0.3337  0.7759  2.0394
  146MOL0     H20084   7.083   1.506  10.038 -3.1699 -3.0948 -0.2929
  146MOL0     H20085   6.953   1.469   9.828 -1.6514 -0.8647  1.3497
  146MOL0     H20086   7.106   1.416   9.750 -1.2362 -0.4512  0.6760
  146MOL0     H20087   7.090   1.222   9.921  0.1293 -0.9785 -2.8988
  146MOL0     H20088   6.963   1.308   9.999  2.6228  3.1178  0.7597
  146MOL0     H20089   6.934   1.233   9.700  2.6344  1.5435  1.1015
  146MOL0     H20090   6.813   1.283   9.815  0.1281  0.1880  2.1630
  146MOL0     H20091   6.933   1.005   9.816 -1.2356  0.1778 -1.2486
  146MOL0     H20092   6.792   1.061   9.925 -3.6624 -1.8388 -0.8013
  146MOL0     H20093   6.726   0.921   9.733  1.3109 -0.1319 -0.2038
  146MOL0     H20094   6.795   1.041   9.623  1.3807  2.7885  0.1759
  146MOL0     H20095   6.571   1.119   9.822 -0.9407  0.4603  0.7209
  146MOL0     H20096   6.631   1.206   9.685 -0.4532  1.6450  4.3538
  146MOL0     H20097   6.465   0.870   9.804  2.0524  0.0988 -0.1978
  146MOL0     H20098   6.285   0.698   9.672  1.3487  0.0569  1.9502
  146MOL0     H20099   6.165   0.812   9.593  0.3845  1.3154 -0.8233
  146MOL0     H20100   6.117   0.747   9.829 -0.1661  0.2135 -0.0994
  146MOL0     H20101   6.262   0.845   9.876 -0.2090  0.8272  0.7542
  146MOL0     H20102   6.030   0.957   9.703 -2.6475 -2.7936  1.4940
  146MOL0     H20103   6.013   0.949   9.874 -0.2828  1.3036 -0.1176
  146MOL0     H20104   6.246   1.060   9.895  2.0832  1.3802 -0.9763
  146MOL0     H20105   6.231   1.114   9.729  0.9944  0.6384  1.0592
  146MOL0     H20106   6.102   1.229   9.613  2.9596  2.3393  1.3311
  146MOL0     H20107   6.042   1.292   9.418  0.7364 -0.8423  2.0569
  146MOL0     H20108   5.991   1.463   9.394  3.5915 -0.3466  0.0253
  146MOL0     H20109   5.873   1.325   9.384  0.3541 -1.1410  2.1634
  146MOL0     H20110   5.438   1.486   9.477  1.0465 -0.2792  1.4614
  146MOL0     H20111   5.255   1.630   9.367 -0.3529 -2.1066  1.3811
  146MOL0     H20112   5.045   1.777   9.535  2.7126 -0.9339  1.2668
  146MOL0     H20113   5.122   1.900   9.638 -0.7809  2.9853 -0.8391
  146MOL0     H20114   5.019   2.077   9.474  3.2486 -1.2647  0.5670
  146MOL0     H20115   4.918   1.939   9.439  3.8967 -0.7805 -3.4430
  146MOL0     H20116   4.916   2.113   9.671  0.4878 -0.5336  0.5275
  146MOL0     H20117   4.939   1.964   9.735 -0.5667  2.2957  0.4512
  146MOL0     H20118   4.718   2.010   9.523 -5.2782  1.2387  2.1032
  146MOL0     H20119   4.693   2.045   9.689  1.4007  2.3780 -0.5412
  146MOL0     H20120   4.733   1.783   9.553  0.7908 -0.2094 -0.3229
  146MOL0     H20121   4.746   1.808   9.739 -3.2076  0.7868  1.4749
  146MOL0     H20122   4.521   1.894   9.560 -1.6967  2.2919  2.2407
  146MOL0     H20123   4.527   1.904   9.738  1.1445  0.6681  0.9007
  146MOL0     H20124   4.559   1.640   9.723  0.2062  1.6462  0.6681
  146MOL0     H20125   4.521   1.655   9.552  2.0671  0.6673  0.5804
  146MOL0     H20126   4.302   1.743   9.586  0.5918 -1.3682 -0.2769
  146MOL0     H20127   4.327   1.780   9.759 -1.6301  1.1415 -0.7578
  146MOL0     H20128   5.373   1.951   9.640  2.0110  0.1690  2.0016
  146MOL0     H20129   5.571   1.815   9.701 -0.2165 -0.1163  0.7195
  146MOL0     H20130   5.762   1.489   9.860 -2.3520 -0.6642  0.6810
  146MOL0     H20131   5.911   1.324   9.969  1.7266 -2.3930 -0.2607
  146MOL0     H20132   6.811   1.818   9.836 -0.4753 -0.6198 -0.0305
  146MOL0     H20133   6.673   1.817   9.606  0.5911 -0.8565 -2.1255
  146MOL0     H20134   6.759   1.573   9.172 -2.6308 -1.3797  1.2845
  146MOL0     H20135   6.659   1.518   8.958  2.2520  2.0351 -2.2890
  146MOL0     H20136   6.618   1.496   8.764 -0.9401 -1.1513  2.9138
  146MOL0     H20137   6.439   1.533   8.807 -1.7012  2.8146 -1.1630
  146MOL0     H20138   6.435   1.651   8.570  1.2927  0.7554  3.5209
  146MOL0     H20139   6.441   1.473   8.556 -2.5032  1.9900 -1.0886
  146MOL0     H20140   6.678   1.673   8.513  1.4724 -1.1409 -1.7929
  146MOL0     H20141   6.702   1.514   8.561 -0.6390  2.3367  3.1751
  146MOL0     H20142   6.594   1.421   8.369  1.8295 -1.2911 -1.4276
  146MOL0     H20143   6.730   1.530   8.332  1.2983 -0.1446  4.1674
  146MOL0     H20144   6.391   1.767   8.189 -0.3625 -1.4061 -0.7726
  146MOL0     H20145   6.532   1.919   8.903  0.5474  1.3354 -0.8246
  146MOL0     H20146   6.502   2.067   9.109 -0.5417  1.3230  3.1425
  146MOL0     H20147   6.553   2.009   9.257  1.9704  2.0214  0.7932
  146MOL0     H20148   6.672   2.068   9.145 -0.0166 -0.4271  1.6645
  147MOL0     O20149   5.575   4.722   1.012 -0.0786  0.3013 -0.8476
  147MOL0     C20150   5.541   4.679   0.903  1.0664 -0.4252 -1.4238
  147MOL0     O20151   5.615   4.595   0.835 -0.5857  0.0678  0.1613
  147MOL0     C20152   5.748   4.554   0.875 -0.1310  0.2349 -0.3885
  147MOL0     C20153   5.843   4.631   0.940 -0.8804 -0.0748  0.4893
  147MOL0     C20154   5.975   4.588   0.952 -0.1568  0.2069 -0.2221
  147MOL0     C20155   6.019   4.459   0.914  0.2482  0.8579  0.6890
  147MOL0     O20156   6.139   4.407   0.941  0.3157 -0.4436 -0.0481
  147MOL0     C20157   6.249   4.499   0.946 -0.5010  0.0364  0.3969
  147MOL0     C20158   6.381   4.433   0.954  0.3244 -0.7481  0.7912
  147MOL0     C20159   6.496   4.542   0.956 -0.1047  0.4356  0.4198
  147MOL0     C20160   6.628   4.469   0.973 -0.8445 -1.1325  1.1349
  147MOL0     C20161   6.754   4.539   0.924  0.6362  0.6958  0.9582
  147MOL0     C20162   6.875   4.445   0.922 -1.2606 -0.1401  0.0151
  147MOL0     C20163   7.004   4.533   0.904  0.3655  0.0871  0.3456
  147MOL0     C20164   7.118   4.439   0.868 -0.0788  0.3635 -1.1976
  147MOL0     N20165   7.160   4.340   0.974 -0.1493  0.0565 -1.1483
  147MOL0     C20166   7.115   4.218   0.985 -0.7297  0.2582 -0.9460
  147MOL0     C20167   7.190   4.165   1.089  0.3487  0.1362 -0.4776
  147MOL0     C20168   7.184   4.027   1.146 -0.2446  0.9761 -0.8700
  147MOL0     C20169   7.224   3.923   1.051  0.6484 -0.1235  0.0830
  147MOL0     C20170   7.108   3.849   0.986 -0.5270 -0.1179  0.1210
  147MOL0     C20171   7.036   3.761   1.087  0.0509 -0.6197 -1.6398
  147MOL0     O20172   6.922   3.695   1.029  0.2331  0.2842  0.1667
  147MOL0     C20173   6.823   3.670   1.120 -0.5156  0.7142  1.1412
  147MOL0     C20174   6.838   3.596   1.232  0.4152  0.5023  0.4199
  147MOL0     C20175   6.726   3.561   1.308  0.1332 -0.1806  0.8752
  147MOL0     C20176   6.757   3.485   1.436  0.1532 -0.7702  1.0468
  147MOL0     C20177   6.593   3.607   1.266  0.1043 -0.2499 -0.4575
  147MOL0     C20178   6.471   3.581   1.341  0.0107  0.3606 -0.2901
  147MOL0     O20179   6.373   3.540   1.264  0.1708 -0.3184  0.1941
  147MOL0     C20180   6.249   3.493   1.307 -0.1170 -0.7995 -0.4072
  147MOL0     C20181   6.239   3.417   1.425  0.3400 -0.3198 -0.2372
  147MOL0     C20182   6.111   3.363   1.466 -0.5715 -0.3299  0.7555
  147MOL0     C20183   6.015   3.375   1.373  0.2428 -0.0864 -0.2387
  147MOL0     O20184   5.884   3.330   1.396 -0.8039 -0.3355 -0.3322
  147MOL0     C20185   5.834   3.363   1.531  0.7676  0.3552  0.1744
  147MOL0     C20186   5.693   3.437   1.536  0.3732  0.6381 -0.2959
  147MOL0     C20187   5.589   3.373   1.449  0.2218 -0.4501  0.4259
  147MOL0     C20188   5.455   3.464   1.456 -0.9619  0.6708 -0.5382
  147MOL0     C20189   5.424   3.549   1.334 -0.2080  0.3867 -0.1592
  147MOL0     C20190   5.346   3.681   1.382  0.3119 -0.1887  0.3981
  147MOL0     C20191   5.222   3.647   1.466  0.2949 -0.4014 -0.9140
  147MOL0     C20192   5.169   3.765   1.563 -0.4741  0.5609  0.7237
  147MOL0    Cl20193   5.052   3.693   1.667  0.3047  0.1460  0.4667
  147MOL0     C20194   6.030   3.435   1.250 -1.0532  0.3883 -0.1747
  147MOL0     C20195   6.146   3.496   1.221 -0.5580 -0.5643  0.5624
  147MOL0     O20196   6.470   3.595   1.468 -0.2056  0.6156  0.4300
  147MOL0     C20197   6.584   3.654   1.137  0.5898  0.2361  1.1523
  147MOL0     C20198   6.698   3.694   1.067 -0.9731  0.5437  0.8453
  147MOL0     N20199   7.289   4.263   1.131 -0.8771 -0.6149 -1.2177
  147MOL0     N20200   7.267   4.363   1.058  0.3203  0.2950  0.1022
  147MOL0     C20201   5.923   4.386   0.854 -0.3423  0.2887 -1.2104
  147MOL0     C20202   5.786   4.426   0.831 -0.2833  0.2828  0.2541
  147MOL0     C20203   5.411   4.722   0.843  0.2016  0.0742  0.1594
  147MOL0     C20204   5.308   4.768   0.936 -0.6582 -0.0552 -0.0526
  147MOL0     C20205   5.194   4.834   0.895 -0.4507 -0.2367  0.1899
  147MOL0     C20206   5.175   4.860   0.758 -0.5642 -0.7515 -0.0778
  147MOL0     O20207   5.082   4.945   0.699  0.0068  0.0717  0.7109
  147MOL0     C20208   5.020   5.049   0.769  0.3262 -0.7004  0.0642
  147MOL0     C20209   4.998   5.170   0.678 -0.5570  0.2186 -0.2103
  147MOL0     C20210   5.115   5.222   0.591  0.2417 -0.3008 -0.1311
  147MOL0     C20211   5.137   5.366   0.608 -1.0668  0.0541  0.0782
  147MOL0     C20212   5.041   5.451   0.551 -1.1649  0.2864  0.0130
  147MOL0     C20213   4.967   5.533   0.503 -0.0378 -0.3178 -0.1149
  147MOL0     C20214   5.261   4.791   0.671 -0.2203  0.6841 -0.2353
  147MOL0     C20215   5.376   4.722   0.703  0.8412 -0.4081  0.3764
  147MOL0     C20216   5.464   4.669   0.590 -0.6655  0.1660 -0.6316
  147MOL0     H20217   5.810   4.729   0.975 -0.1257  0.1427  0.5997
  147MOL0     H20218   6.044   4.645   1.012 -0.5730  1.3185 -0.7585
  147MOL0     H20219   6.246   4.567   1.032  1.7440 -3.7397  3.8695
  147MOL0     H20220   6.242   4.564   0.859  0.6813  1.8349  1.5737
  147MOL0     H20221   6.385   4.364   1.039 -3.1654 -1.4364  0.5424
  147MOL0     H20222   6.398   4.373   0.864  1.8497 -2.9909  2.4499
  147MOL0     H20223   6.501   4.586   0.855  3.8355 -2.9060 -1.1409
  147MOL0     H20224   6.485   4.620   1.031  2.4897  1.2504  0.0580
  147MOL0     H20225   6.644   4.445   1.079  1.5041  1.2766  1.4369
  147MOL0     H20226   6.622   4.374   0.920 -3.8862 -0.4025 -0.0002
  147MOL0     H20227   6.762   4.635   0.976  0.9476 -0.0327  2.3171
  147MOL0     H20228   6.736   4.582   0.825 -1.2461 -2.2935 -0.1339
  147MOL0     H20229   6.884   4.378   1.008 -0.7175  0.4091  0.3892
  147MOL0     H20230   6.854   4.384   0.833  1.3214  1.1977 -1.6301
  147MOL0     H20231   7.019   4.585   0.999 -1.2808  1.7001 -0.2003
  147MOL0     H20232   6.982   4.608   0.827 -1.0743  0.8911  1.4644
  147MOL0     H20233   7.105   4.382   0.776  2.1929 -2.3428  0.0004
  147MOL0     H20234   7.204   4.503   0.845  1.5279 -0.0374  2.8342
  147MOL0     H20235   7.050   4.162   0.918  0.1751 -0.9264 -0.8699
  147MOL0     H20236   7.086   4.014   1.193 -0.0068  0.7553 -0.4283
  147MOL0     H20237   7.254   4.028   1.230 -0.2591  0.8251 -0.8546
  147MOL0     H20238   7.283   3.966   0.969  2.3176 -0.2884  1.1597
  147MOL0     H20239   7.291   3.847   1.092  0.8477  0.1119  0.1948
  147MOL0     H20240   7.036   3.919   0.944  0.5517  0.1617 -1.3273
  147MOL0     H20241   7.136   3.788   0.899 -1.1233  0.3831 -0.4341
  147MOL0     H20242   7.103   3.690   1.136  4.5999  3.7790 -0.5266
  147MOL0     H20243   6.996   3.826   1.165 -1.0317 -0.2632 -2.4708
  147MOL0     H20244   6.940   3.562   1.248  0.6043 -1.2141 -3.2026
  147MOL0     H20245   6.702   3.390   1.432 -2.1702  0.5612 -1.2551
  147MOL0     H20246   6.717   3.531   1.527  2.8672  4.3644  0.0398
  147MOL0     H20247   6.866   3.473   1.443  1.3956  5.7162 -0.9818
  147MOL0     H20248   6.328   3.394   1.482 -0.2962 -2.6170 -0.0653
  147MOL0     H20249   6.094   3.307   1.557  0.2057  1.4789  2.0730
  147MOL0     H20250   5.820   3.269   1.585  0.1816  0.6435  0.5347
  147MOL0     H20251   5.906   3.422   1.586 -0.7013  0.4125  2.1486
  147MOL0     H20252   5.658   3.454   1.638  2.0290  2.3271  0.0555
  147MOL0     H20253   5.722   3.533   1.493 -0.0996  1.1194  0.4280
  147MOL0     H20254   5.570   3.270   1.479 -0.9149 -1.2312 -2.6168
  147MOL0     H20255   5.634   3.365   1.349 -2.8212  2.5298 -1.3916
  147MOL0     H20256   5.463   3.526   1.546 -2.0033  0.6588 -0.4332
  147MOL0     H20257   5.372   3.399   1.484 -1.2520  2.2725  2.9195
  147MOL0     H20258   5.520   3.560   1.284  0.0396 -1.7725 -0.2656
  147MOL0     H20259   5.362   3.488   1.268  0.8739 -1.2386  0.2650
  147MOL0     H20260   5.321   3.737   1.292  0.7960  0.9966  0.9780
  147MOL0     H20261   5.418   3.743   1.436 -1.8009  2.5396  0.2613
  147MOL0     H20262   5.243   3.561   1.530 -0.6005  0.5036  0.6666
  147MOL0     H20263   5.146   3.608   1.397  1.2867 -4.2421 -0.0346
  147MOL0     H20264   5.118   3.851   1.520 -0.2333  1.3143  1.9010
  147MOL0     H20265   5.249   3.810   1.623  0.9876 -1.4858  0.4063
  147MOL0     H20266   5.966   3.429   1.162  0.6434  0.5557 -1.4601
  147MOL0     H20267   6.164   3.545   1.126 -0.1634  1.8600  1.8324
  147MOL0     H20268   6.493   3.679   1.083  1.3689  2.3207  0.7452
  147MOL0     H20269   6.692   3.732   0.966  1.4098 -1.7529 -0.2940
  147MOL0     H20270   5.970   4.293   0.823  2.4087  1.0180  0.4174
  147MOL0     H20271   5.713   4.358   0.789 -0.9454  0.0811  1.6644
  147MOL0     H20272   5.329   4.781   1.042  0.9889  2.5544 -0.6236
  147MOL0     H20273   5.131   4.873   0.973  0.7001 -1.2082  1.6698
  147MOL0     H20274   4.931   5.000   0.809  1.7552 -0.8989  3.3436
  147MOL0     H20275   5.081   5.089   0.850  0.1535 -1.5625  0.6356
  147MOL0     H20276   4.958   5.251   0.739  0.2953  1.0239 -0.7045
  147MOL0     H20277   4.937   5.138   0.592  0.8338  1.1016 -1.5794
  147MOL0     H20278   5.209   5.183   0.629  0.3595  0.7704  0.7409
  147MOL0     H20279   5.106   5.188   0.488  3.4469 -0.7863 -0.3273
  147MOL0     H20280   5.236   5.387   0.565 -1.2316 -0.0048 -0.3372
  147MOL0     H20281   5.143   5.371   0.717 -0.5410 -3.5322  0.3111
  147MOL0     H20282   4.902   5.604   0.456 -0.6634 -2.0677 -2.0674
  147MOL0     H20283   5.249   4.804   0.563  1.4852  0.1207 -0.5225
  147MOL0     H20284   5.469   4.560   0.593 -5.3452 -0.2695 -1.5447
  147MOL0     H20285   5.430   4.700   0.490 -0.1793 -0.9173 -1.1511
  147MOL0     H20286   5.561   4.719   0.593  0.5366 -2.0758  0.6542
  148MOL0     O20287   0.629   3.931   2.274 -0.4021  0.4157 -0.3396
  148MOL0     C20288   0.673   3.875   2.175 -0.7626 -0.5495  0.8408
  148MOL0     O20289   0.777   3.927   2.100 -0.0396 -0.3006 -0.5147
  148MOL0     C20290   0.802   4.065   2.114  0.4466  0.5009 -0.0162
  148MOL0     C20291   0.752   4.160   2.022 -0.5833 -0.2491 -0.0334
  148MOL0     C20292   0.776   4.301   2.041 -0.0268 -0.6118  0.1026
  148MOL0     C20293   0.850   4.348   2.155  0.6463 -0.0597 -0.3466
  148MOL0     O20294   0.849   4.485   2.170 -0.0918  0.2166  1.0328
  148MOL0     C20295   0.955   4.551   2.237 -0.0247 -0.9250  0.5991
  148MOL0     C20296   0.912   4.701   2.220 -0.0087  0.2128  0.1150
  148MOL0     C20297   0.992   4.796   2.310 -0.9980 -0.0018 -0.0837
  148MOL0     C20298   1.144   4.767   2.291  0.2308  0.2583 -0.8003
  148MOL0     C20299   1.235   4.853   2.385 -0.5458 -0.3213  0.2957
  148MOL0     C20300   1.331   4.783   2.472 -0.1353  0.6080  0.0825
  148MOL0     C20301   1.434   4.881   2.541  0.1773 -0.2547 -0.1451
  148MOL0     C20302   1.517   4.817   2.657  1.3039  0.5530  0.9438
  148MOL0     N20303   1.654   4.781   2.610  0.3725 -0.3664 -0.3180
  148MOL0     C20304   1.760   4.866   2.584  0.6615  0.1834  0.0867
  148MOL0     C20305   1.873   4.792   2.579  0.5878  0.1336  0.5702
  148MOL0     C20306   2.011   4.840   2.557  0.1905 -0.5027 -0.4149
  148MOL0     C20307   2.071   4.840   2.410 -0.1438 -0.9284  0.2593
  148MOL0     C20308   2.003   4.933   2.315  0.0940  0.2883  0.9937
  148MOL0     C20309   2.012   5.080   2.359 -0.4464  0.1101  0.1961
  148MOL0     O20310   2.144   5.117   2.328 -0.1480 -0.9528 -0.2820
  148MOL0     C20311   2.171   5.185   2.215  0.3081  0.7063  0.9090
  148MOL0     C20312   2.085   5.195   2.102 -0.2509  0.5429 -0.5889
  148MOL0     C20313   2.126   5.247   1.975  0.9195  0.4373  0.1770
  148MOL0     C20314   2.032   5.215   1.860  0.3482  0.4855 -0.2206
  148MOL0     C20315   2.255   5.309   1.964 -0.0799  0.7296  0.0099
  148MOL0     C20316   2.305   5.363   1.833 -0.3034  0.0986 -0.9732
  148MOL0     O20317   2.435   5.383   1.823  0.8743  0.4316 -0.5853
  148MOL0     C20318   2.489   5.451   1.709  0.1165 -0.6295 -0.3912
  148MOL0     C20319   2.441   5.445   1.574  0.1658 -0.8601  0.7382
  148MOL0     C20320   2.499   5.522   1.467  0.0347  0.6299 -0.3268
  148MOL0     C20321   2.616   5.593   1.488  0.0478  0.2804 -0.5267
  148MOL0     O20322   2.682   5.663   1.389 -0.0433  0.9700  0.3751
  148MOL0     C20323   2.815   5.696   1.406 -0.0170  0.5575 -0.0893
  148MOL0     C20324   2.893   5.710   1.280 -0.9004 -0.0924  0.2523
  148MOL0     C20325   3.046   5.706   1.291 -0.2875  0.1779  0.5915
  148MOL0     C20326   3.087   5.852   1.329 -0.7167  0.5322  0.6664
  148MOL0     C20327   3.235   5.882   1.372 -0.3673  0.4345  0.3362
  148MOL0     C20328   3.259   6.034   1.389  0.4075 -0.2209 -0.6847
  148MOL0     C20329   3.402   6.068   1.415  0.0807 -0.0236  1.6484
  148MOL0     C20330   3.430   6.207   1.468 -0.0097  0.1792 -0.5446
  148MOL0    Cl20331   3.395   6.219   1.645 -0.3842  0.1468 -1.0384
  148MOL0     C20332   2.662   5.597   1.621 -0.3088 -0.0131  0.7094
  148MOL0     C20333   2.603   5.522   1.723 -0.2466 -0.3787  0.0145
  148MOL0     O20334   2.224   5.408   1.762 -0.0370  0.3022  0.3519
  148MOL0     C20335   2.332   5.312   2.080 -0.7944 -0.3371  0.1933
  148MOL0     C20336   2.293   5.249   2.197 -0.5957 -0.8956 -0.4013
  148MOL0     N20337   1.833   4.661   2.602 -0.1986  0.0412  0.1544
  148MOL0     N20338   1.709   4.653   2.623  0.9000 -0.7722 -0.1343
  148MOL0     C20339   0.909   4.251   2.233 -0.0380  0.2216  0.0860
  148MOL0     C20340   0.885   4.114   2.210 -0.6930  0.8618  0.3204
  148MOL0     C20341   0.598   3.749   2.142 -1.0690  0.4255 -0.2834
  148MOL0     C20342   0.480   3.722   2.216 -0.8721 -0.2599 -0.0472
  148MOL0     C20343   0.411   3.605   2.190  0.4857  0.3344 -0.0498
  148MOL0     C20344   0.443   3.526   2.080 -0.1383 -0.3603  0.1166
  148MOL0     O20345   0.369   3.409   2.061 -0.4302 -0.2532 -0.2280
  148MOL0     C20346   0.325   3.380   1.927  0.0409 -0.5665 -0.7914
  148MOL0     C20347   0.335   3.235   1.884  0.5591 -0.8398  0.5499
  148MOL0     C20348   0.251   3.151   1.979 -0.4174  0.3414 -1.0327
  148MOL0     C20349   0.343   3.039   2.030  0.4739 -0.8819  0.3493
  148MOL0     C20350   0.375   2.953   1.914 -0.5556  0.1081  0.8832
  148MOL0     C20351   0.391   2.879   1.812  0.2501 -0.1873  0.2178
  148MOL0     C20352   0.560   3.555   2.002 -0.2767  0.2254 -0.3185
  148MOL0     C20353   0.640   3.665   2.036 -1.0271 -0.1941 -0.1342
  148MOL0     C20354   0.773   3.676   1.965  0.2463 -0.1271  0.1867
  148MOL0     H20355   0.678   4.124   1.952 -1.5110 -1.0074  1.2886
  148MOL0     H20356   0.726   4.371   1.975 -2.5939 -0.2042  2.2932
  148MOL0     H20357   1.050   4.534   2.186  2.6891  1.9417  4.1896
  148MOL0     H20358   0.956   4.534   2.345  0.5194  0.6515  0.8721
  148MOL0     H20359   0.922   4.723   2.113  0.9647  1.5094  0.4500
  148MOL0     H20360   0.806   4.711   2.245 -0.4032 -2.4010 -0.2108
  148MOL0     H20361   0.972   4.901   2.288 -0.7011 -0.1029 -0.8826
  148MOL0     H20362   0.961   4.760   2.408 -0.6258 -2.2849 -0.7452
  148MOL0     H20363   1.174   4.664   2.312 -1.1649 -0.0300 -0.1190
  148MOL0     H20364   1.178   4.795   2.191  0.0279 -2.6094 -1.7624
  148MOL0     H20365   1.187   4.930   2.446  1.4731 -0.6923  2.4927
  148MOL0     H20366   1.300   4.905   2.314 -0.2560 -2.1849 -0.8639
  148MOL0     H20367   1.265   4.737   2.546  0.6061 -0.1076  0.3007
  148MOL0     H20368   1.387   4.711   2.412  2.4097  1.4860  1.2533
  148MOL0     H20369   1.378   4.965   2.584  0.5407  0.8088 -1.6604
  148MOL0     H20370   1.506   4.923   2.471 -0.6696  2.9251  0.6956
  148MOL0     H20371   1.519   4.859   2.758 -1.5728 -1.1521  1.8170
  148MOL0     H20372   1.470   4.720   2.678  0.7582  0.7848  0.7999
  148MOL0     H20373   1.748   4.974   2.590 -0.7293 -0.0238  2.0325
  148MOL0     H20374   2.071   4.771   2.617 -0.2246 -0.8602 -0.4030
  148MOL0     H20375   2.017   4.932   2.615  2.6555 -0.8169 -0.0728
  148MOL0     H20376   2.172   4.882   2.416  0.0172 -0.9806 -1.5282
  148MOL0     H20377   2.090   4.743   2.364 -1.2485 -0.8072 -0.4774
  148MOL0     H20378   2.038   4.914   2.213  1.7752 -2.3749  1.9647
  148MOL0     H20379   1.896   4.913   2.305  0.2460  0.1001 -0.4595
  148MOL0     H20380   1.940   5.145   2.309 -1.2161  0.1727  1.3548
  148MOL0     H20381   2.005   5.088   2.468  1.4725 -2.1044  0.5801
  148MOL0     H20382   1.990   5.143   2.113 -0.8664  1.4728 -1.3298
  148MOL0     H20383   2.003   5.113   1.888 -1.2109  0.8538 -0.4444
  148MOL0     H20384   2.088   5.214   1.766 -2.0380 -1.5498 -1.7619
  148MOL0     H20385   1.950   5.286   1.846 -1.9980 -2.4598 -3.1715
  148MOL0     H20386   2.354   5.384   1.550 -0.4091  1.0352 -2.6611
  148MOL0     H20387   2.463   5.515   1.364 -0.0819 -1.3602 -0.1916
  148MOL0     H20388   2.820   5.791   1.459  2.4633  0.7991 -0.6163
  148MOL0     H20389   2.868   5.625   1.471 -2.9444  0.2420  2.1473
  148MOL0     H20390   2.857   5.624   1.224 -2.7883 -0.2369  1.6107
  148MOL0     H20391   2.867   5.803   1.229 -1.1170 -1.0529 -1.4867
  148MOL0     H20392   3.090   5.670   1.198  0.7827  2.3447  0.2002
  148MOL0     H20393   3.084   5.631   1.361  1.1457 -2.6292 -2.9061
  148MOL0     H20394   3.030   5.883   1.417 -1.1359 -1.0083  0.9662
  148MOL0     H20395   3.067   5.922   1.247  0.0800 -0.1083 -0.0972
  148MOL0     H20396   3.249   5.828   1.466 -0.8856 -1.9449 -0.8905
  148MOL0     H20397   3.314   5.850   1.303 -2.5343 -0.6175 -1.7921
  148MOL0     H20398   3.200   6.071   1.473  0.7060  2.5309 -1.6006
  148MOL0     H20399   3.225   6.085   1.299 -0.9826 -0.4329 -0.3017
  148MOL0     H20400   3.453   6.037   1.323  0.1842 -4.7738  3.0547
  148MOL0     H20401   3.449   6.008   1.494  0.6979 -2.3575 -0.3484
  148MOL0     H20402   3.362   6.276   1.416 -1.6150 -2.1195 -1.6320
  148MOL0     H20403   3.538   6.224   1.455  0.0403 -0.3645 -0.8346
  148MOL0     H20404   2.749   5.660   1.639 -1.6263  2.4334 -0.8571
  148MOL0     H20405   2.650   5.522   1.821  1.3797 -1.0686 -0.7190
  148MOL0     H20406   2.435   5.344   2.070  1.0183 -4.9334  1.3365
  148MOL0     H20407   2.355   5.261   2.285 -2.6026 -3.5291  1.5785
  148MOL0     H20408   0.975   4.279   2.315  1.8869  1.5024 -1.7894
  148MOL0     H20409   0.925   4.049   2.287 -0.9850 -0.1915 -0.3941
  148MOL0     H20410   0.444   3.790   2.292  0.4045  0.0251  0.3242
  148MOL0     H20411   0.330   3.577   2.256  1.6656  1.3826  1.9346
  148MOL0     H20412   0.219   3.407   1.918 -0.2717 -1.6435 -0.4940
  148MOL0     H20413   0.372   3.441   1.849  2.5747 -1.5358 -0.1097
  148MOL0     H20414   0.438   3.205   1.866  0.8364  0.4763 -0.1554
  148MOL0     H20415   0.283   3.242   1.788 -1.5879  1.9453  1.7702
  148MOL0     H20416   0.216   3.201   2.070  0.7961 -0.0449 -0.3315
  148MOL0     H20417   0.165   3.119   1.920 -1.2591  0.3998  0.1280
  148MOL0     H20418   0.285   2.976   2.098  0.7391 -0.5868  0.8539
  148MOL0     H20419   0.434   3.083   2.071 -0.7223  0.5469  1.5523
  148MOL0     H20420   0.412   2.817   1.728 -0.6934  0.5817 -0.6110
  148MOL0     H20421   0.597   3.489   1.924 -1.5329  0.9786 -1.5925
  148MOL0     H20422   0.784   3.778   1.928  0.4961 -0.0420  0.4942
  148MOL0     H20423   0.846   3.661   2.045  0.9303  0.4499 -0.3190
  148MOL0     H20424   0.801   3.606   1.885  1.6102  1.3822 -0.7031
  149MOL0     O20425   4.712   5.396  10.734  0.4494 -0.1480 -0.2958
  149MOL0     C20426   4.800   5.308  10.729  0.1878 -0.3382 -0.0258
  149MOL0     O20427   4.918   5.318  10.795 -0.4842  0.3379  0.2601
  149MOL0     C20428   4.949   5.432  10.853 -0.3372  0.0477  0.4133
  149MOL0     C20429   4.862   5.514  10.937  0.2883 -0.1386  0.1061
  149MOL0     C20430   4.902   5.640  10.995 -1.0582  0.2341 -0.1071
  149MOL0     C20431   5.033   5.686  10.967  0.4473  0.1424 -0.3773
  149MOL0     O20432   5.079   5.812  11.020  0.3307  0.7276  0.1497
  149MOL0     C20433   4.983   5.904  11.079 -1.4384 -0.3894 -0.5320
  149MOL0     C20434   5.066   6.031  11.108 -0.1297  0.5678  0.5541
  149MOL0     C20435   5.063   6.142  11.006  0.1399  0.9305 -0.1022
  149MOL0     C20436   5.083   6.278  11.065  0.5851  0.5420 -0.1722
  149MOL0     C20437   5.218   6.313  11.124 -0.4303  0.7699  0.0850
  149MOL0     C20438   5.246   6.458  11.140 -0.7736  0.0196  0.1069
  149MOL0     C20439   5.206   6.514  11.276  0.5218  0.2135  0.3273
  149MOL0     C20440   5.255   6.658  11.314  1.5658  0.0253  0.9141
  149MOL0     N20441   5.135   6.739  11.333 -0.1741 -0.1221  0.6775
  149MOL0     C20442   5.099   6.841  11.246  0.4500 -0.7821 -0.1737
  149MOL0     C20443   4.991   6.904  11.308 -0.9041 -0.0075 -0.0562
  149MOL0     C20444   4.922   7.031  11.259  0.4397 -0.5979 -0.4247
  149MOL0     C20445   4.998   7.149  11.301 -1.5084 -0.3683 -0.3964
  149MOL0     C20446   4.908   7.267  11.339 -0.1070  1.4578 -0.0745
  149MOL0     C20447   4.974   7.403  11.354  0.1817  0.1573 -0.2334
  149MOL0     O20448   5.051   7.439  11.239  0.2429 -0.0872  0.3112
  149MOL0     C20449   4.992   7.505  11.138  0.2477 -0.4136  0.3079
  149MOL0     C20450   5.079   7.541  11.040 -0.1053  0.2632  0.4967
  149MOL0     C20451   5.045   7.602  10.923  0.6089  0.0577 -0.9705
  149MOL0     C20452   5.162   7.641  10.839  1.0376  0.6486 -0.0389
  149MOL0     C20453   4.909   7.617  10.889 -0.3022  0.5549  0.0538
  149MOL0     C20454   4.853   7.682  10.769  0.5441 -0.5225 -0.8330
  149MOL0     O20455   4.734   7.736  10.778  0.3517  0.0981 -0.4460
  149MOL0     C20456   4.663   7.801  10.678  0.4547  0.1000  1.0097
  149MOL0     C20457   4.552   7.878  10.720  0.1099 -1.4239 -0.0797
  149MOL0     C20458   4.476   7.959  10.631  0.2906  0.4741  0.0392
  149MOL0     C20459   4.512   7.953  10.497 -0.0874 -0.9128 -0.7806
  149MOL0     O20460   4.431   8.024  10.410 -0.6067  0.3600 -0.2427
  149MOL0     C20461   4.429   7.999  10.262  0.2380 -0.6126  0.0328
  149MOL0     C20462   4.327   8.094  10.196 -0.6219 -0.3424  0.0238
  149MOL0     C20463   4.177   8.070  10.228  0.8573 -1.0560  0.5515
  149MOL0     C20464   4.088   8.153  10.132 -0.0123 -0.0686 -0.4231
  149MOL0     C20465   4.021   8.257  10.207 -0.2589 -1.0404 -0.1500
  149MOL0     C20466   4.107   8.367  10.285  0.5597  0.4251  0.0135
  149MOL0     C20467   4.031   8.498  10.327  0.5611  1.1305 -0.5440
  149MOL0     C20468   3.937   8.490  10.450  0.3176 -0.1101  1.4594
  149MOL0    Cl20469   3.801   8.369  10.433 -0.6151  0.0323 -0.0039
  149MOL0     C20470   4.614   7.862  10.452 -0.3265  0.2415 -0.6735
  149MOL0     C20471   4.693   7.794  10.540  0.1701  0.4158 -0.8379
  149MOL0     O20472   4.926   7.687  10.670  0.7844  0.1685 -0.4156
  149MOL0     C20473   4.817   7.585  10.992 -0.0868  1.0122 -0.1074
  149MOL0     C20474   4.857   7.520  11.108 -0.3377 -0.0863 -0.3969
  149MOL0     N20475   4.974   6.849  11.442  0.0968  0.4196 -0.7032
  149MOL0     N20476   5.065   6.754  11.447 -0.4040  0.5349 -0.5585
  149MOL0     C20477   5.113   5.611  10.880  0.0975 -0.3375  0.0842
  149MOL0     C20478   5.082   5.482  10.830 -0.1737 -0.2610  0.4099
  149MOL0     C20479   4.774   5.178  10.648 -0.2962  0.0935 -1.4227
  149MOL0     C20480   4.871   5.072  10.666  1.1335  0.4442  0.5298
  149MOL0     C20481   4.851   4.942  10.621 -0.1102  0.1642  0.2280
  149MOL0     C20482   4.742   4.919  10.536  0.0840 -0.2614 -0.4990
  149MOL0     O20483   4.710   4.793  10.497  0.0049 -0.2642 -0.0566
  149MOL0     C20484   4.755   4.674  10.575  1.2390 -0.7434 -0.0413
  149MOL0     C20485   4.651   4.564  10.550  0.4856  0.2766 -0.5494
  149MOL0     C20486   4.521   4.573  10.625  0.1007 -0.5724 -0.5618
  149MOL0     C20487   4.517   4.502  10.766  0.6004 -0.5807 -0.4658
  149MOL0     C20488   4.574   4.364  10.755  0.2545 -0.5674 -0.0170
  149MOL0     C20489   4.598   4.240  10.759 -0.8849 -0.5854  0.1654
  149MOL0     C20490   4.653   5.022  10.511 -1.0349 -0.3732 -0.1597
  149MOL0     C20491   4.664   5.143  10.569 -0.6057 -0.7525 -0.4543
  149MOL0     C20492   4.548   5.231  10.559  1.0487 -0.2096  0.6224
  149MOL0     H20493   4.766   5.479  10.973  0.2287  1.1745  1.3283
  149MOL0     H20494   4.843   5.696  11.067 -2.5965 -0.7407 -0.5685
  149MOL0     H20495   4.930   5.868  11.168 -0.1014  1.2289  0.9897
  149MOL0     H20496   4.913   5.939  11.002 -0.8123  2.9891  0.2658
  149MOL0     H20497   5.026   6.065  11.204 -2.3650  3.3922 -1.2321
  149MOL0     H20498   5.169   5.996  11.121 -0.4547 -1.6490 -1.9305
  149MOL0     H20499   5.151   6.117  10.946 -0.5457  1.4080 -1.3395
  149MOL0     H20500   4.985   6.137  10.930  1.0653 -1.3471 -1.0022
  149MOL0     H20501   5.063   6.357  10.992  0.1328  0.8369  0.2630
  149MOL0     H20502   4.998   6.272  11.134 -1.4698 -2.4744 -2.7012
  149MOL0     H20503   5.293   6.276  11.053  0.7370 -1.0232  2.1221
  149MOL0     H20504   5.246   6.253  11.211  1.6810  1.6118  0.0668
  149MOL0     H20505   5.353   6.469  11.122 -0.4402 -1.1202  1.2514
  149MOL0     H20506   5.195   6.502  11.053  2.2446  0.0579 -1.8068
  149MOL0     H20507   5.227   6.442  11.356 -1.1627  1.3421  1.8563
  149MOL0     H20508   5.098   6.528  11.275  0.6449  1.2943  0.6729
  149MOL0     H20509   5.317   6.636  11.402  3.2094 -0.5185 -0.3282
  149MOL0     H20510   5.320   6.702  11.238  2.5418  4.5052  3.9668
  149MOL0     H20511   5.144   6.866  11.150  0.1286  4.5554  0.7401
  149MOL0     H20512   4.823   7.034  11.305 -0.0246  0.2376 -1.4348
  149MOL0     H20513   4.914   7.042  11.151  3.0091  1.1908 -0.5242
  149MOL0     H20514   5.065   7.136  11.387 -0.1973  0.0175 -1.3284
  149MOL0     H20515   5.067   7.187  11.225  2.7030 -0.9548  2.7443
  149MOL0     H20516   4.839   7.280  11.254  1.2059  1.3995 -1.1881
  149MOL0     H20517   4.855   7.231  11.427  2.2981  0.4406  1.0503
  149MOL0     H20518   4.902   7.485  11.366  1.0619  1.3437 -2.4103
  149MOL0     H20519   5.044   7.396  11.437 -0.1565  0.5113  0.0883
  149MOL0     H20520   5.184   7.527  11.067  0.4274  0.5892 -1.2450
  149MOL0     H20521   5.136   7.729  10.780 -1.0593  0.6003  0.7548
  149MOL0     H20522   5.180   7.553  10.775 -1.1480 -0.0014  0.1842
  149MOL0     H20523   5.257   7.658  10.891  2.2154 -0.0580 -1.8625
  149MOL0     H20524   4.541   7.881  10.828  3.7370 -2.7717  0.4993
  149MOL0     H20525   4.401   8.030  10.664 -1.1989 -0.2734 -1.5608
  149MOL0     H20526   4.529   8.023  10.223  0.3224 -1.7808 -0.5100
  149MOL0     H20527   4.404   7.893  10.261 -2.3127 -0.0749 -0.8974
  149MOL0     H20528   4.359   8.195  10.226  0.8887  0.0042 -2.4348
  149MOL0     H20529   4.350   8.109  10.090  3.1799 -0.6961  0.6653
  149MOL0     H20530   4.145   8.082  10.332  0.4726  1.5539  0.2237
  149MOL0     H20531   4.168   7.966  10.198  0.7596 -1.1643  0.9581
  149MOL0     H20532   4.017   8.090  10.078 -0.0575  1.4254 -2.2183
  149MOL0     H20533   4.153   8.196  10.055  2.7960  0.0388  1.8541
  149MOL0     H20534   3.952   8.311  10.141 -1.2389 -3.1335 -0.9486
  149MOL0     H20535   3.960   8.209  10.285  0.4940  3.0895  3.4052
  149MOL0     H20536   4.196   8.398  10.231  0.7811  1.3845  0.9123
  149MOL0     H20537   4.131   8.301  10.369  0.1410  0.7540  0.4024
  149MOL0     H20538   3.979   8.536  10.238 -1.0300  0.9807  0.2839
  149MOL0     H20539   4.100   8.577  10.357 -1.4112  2.8033 -0.1850
  149MOL0     H20540   3.901   8.589  10.480 -1.0729 -0.1597  0.0858
  149MOL0     H20541   4.003   8.442  10.523  1.2802 -3.3807 -1.3325
  149MOL0     H20542   4.629   7.866  10.344 -2.5211  0.7464 -1.0166
  149MOL0     H20543   4.776   7.737  10.500  0.3905  1.2333 -1.5678
  149MOL0     H20544   4.711   7.595  10.973  0.5067  0.8475 -4.2566
  149MOL0     H20545   4.788   7.490  11.186  2.1327 -2.6216  0.9601
  149MOL0     H20546   5.207   5.658  10.852  0.0545 -0.0783  0.3782
  149MOL0     H20547   5.161   5.431  10.776 -0.2781 -0.5023  0.4861
  149MOL0     H20548   4.967   5.096  10.710  0.2848  0.4284  2.4798
  149MOL0     H20549   4.916   4.860  10.651 -0.1470 -0.0400 -0.2354
  149MOL0     H20550   4.846   4.634  10.528  0.0715 -2.2157 -1.1274
  149MOL0     H20551   4.748   4.687  10.683 -4.9003 -3.0149  0.1860
  149MOL0     H20552   4.697   4.469  10.580 -0.2223  0.5000  1.4450
  149MOL0     H20553   4.642   4.557  10.442 -1.1313 -0.7649 -0.3790
  149MOL0     H20554   4.493   4.679  10.632  0.9374 -0.4309  0.9271
  149MOL0     H20555   4.440   4.531  10.565 -2.5568  1.1779  1.5617
  149MOL0     H20556   4.414   4.491  10.801  0.2217  1.3309 -0.8904
  149MOL0     H20557   4.575   4.559  10.839 -1.3194  0.1061  0.6000
  149MOL0     H20558   4.638   4.141  10.759  2.2675  0.5553 -0.9049
  149MOL0     H20559   4.582   4.991  10.435  1.3285 -2.4268 -1.6966
  149MOL0     H20560   4.479   5.228  10.644 -0.8552  3.1060 -0.6534
  149MOL0     H20561   4.562   5.338  10.542 -3.0352  0.0092 -2.8250
  149MOL0     H20562   4.492   5.190  10.475  2.5324 -2.8677  0.7966
  150MOL0     O20563   3.803   8.836   8.929 -0.2637  0.0762 -0.7115
  150MOL0     C20564   3.815   8.745   8.854  0.9985 -0.8769  0.2043
  150MOL0     O20565   3.845   8.620   8.895 -0.4849  0.6248  0.0501
  150MOL0     C20566   3.848   8.569   9.024  0.7963 -0.2743  0.7066
  150MOL0     C20567   3.955   8.587   9.111 -0.9525 -0.3496  0.0511
  150MOL0     C20568   3.966   8.521   9.224 -0.0717  0.6718 -0.9447
  150MOL0     C20569   3.865   8.430   9.263  0.9233  0.2142 -0.4317
  150MOL0     O20570   3.873   8.367   9.387 -0.5166  0.7071  0.5639
  150MOL0     C20571   3.984   8.394   9.468 -0.0223  0.1901  0.1803
  150MOL0     C20572   3.955   8.343   9.609  0.0711  0.5835 -0.7620
  150MOL0     C20573   3.946   8.182   9.613  0.3256 -0.4526 -0.1954
  150MOL0     C20574   3.945   8.106   9.742 -0.5073  0.2498 -0.4189
  150MOL0     C20575   4.041   7.982   9.735  0.1724 -0.2495 -0.1252
  150MOL0     C20576   3.954   7.857   9.734  0.0712  0.0703 -0.8560
  150MOL0     C20577   4.025   7.738   9.807 -0.3357  0.3971  0.2496
  150MOL0     C20578   3.955   7.604   9.813  0.3394 -0.6665  0.0058
  150MOL0     N20579   3.862   7.584   9.926 -0.2301  0.2955  1.0645
  150MOL0     C20580   3.738   7.632   9.916  0.2698  0.5056 -0.0950
  150MOL0     C20581   3.686   7.604  10.040  0.5959  0.7407  0.5855
  150MOL0     C20582   3.548   7.637  10.094  0.3858  0.0092  1.0865
  150MOL0     C20583   3.454   7.532  10.145 -0.9696  0.1196 -0.7902
  150MOL0     C20584   3.470   7.406  10.062  0.5011  0.6856  0.8677
  150MOL0     C20585   3.377   7.297  10.105  0.9289  0.0574 -0.0333
  150MOL0     O20586   3.382   7.169  10.036  0.2222 -0.4840  0.3817
  150MOL0     C20587   3.486   7.080  10.077 -1.1180  0.2018 -0.2783
  150MOL0     C20588   3.589   7.113  10.170  0.8977  0.2231 -0.2991
  150MOL0     C20589   3.681   7.020  10.222  0.5853 -0.1111  0.1219
  150MOL0     C20590   3.774   7.066  10.336  0.8366  0.3494 -0.0500
  150MOL0     C20591   3.677   6.881  10.177  0.4326  0.8907 -0.5086
  150MOL0     C20592   3.763   6.772  10.230  0.5159  0.5770  0.2922
  150MOL0     O20593   3.839   6.799  10.340  0.0124  0.1389  0.6199
  150MOL0     C20594   3.942   6.709  10.371  1.6500 -0.1536  0.4125
  150MOL0     C20595   4.016   6.637  10.270  0.1805 -0.1858 -0.7787
  150MOL0     C20596   4.112   6.544  10.309  0.6508  0.2608  0.9168
  150MOL0     C20597   4.138   6.534  10.443  0.4283 -0.9264 -0.6388
  150MOL0     O20598   4.231   6.454  10.506  0.3484  0.7078  0.3100
  150MOL0     C20599   4.326   6.387  10.431  0.2724  0.7430 -0.1053
  150MOL0     C20600   4.444   6.333  10.522 -0.5780  0.8313 -0.1470
  150MOL0     C20601   4.383   6.239  10.632 -0.0350  0.3943  0.5880
  150MOL0     C20602   4.430   6.263  10.776  0.0773 -0.7645 -0.1647
  150MOL0     C20603   4.346   6.205  10.886 -0.4998  0.0308  0.8555
  150MOL0     C20604   4.404   6.070  10.935 -0.2162  0.2632 -0.4871
  150MOL0     C20605   4.304   5.993  11.024  0.1626 -0.1743  0.8413
  150MOL0     C20606   4.359   5.850  11.063  1.0854 -0.5173 -0.3638
  150MOL0    Cl20607   4.500   5.853  11.170  0.2263 -0.1765  0.1094
  150MOL0     C20608   4.065   6.611  10.537 -0.2440  0.9089 -0.2808
  150MOL0     C20609   3.960   6.689  10.501 -0.6700 -0.2224  0.5206
  150MOL0     O20610   3.739   6.656  10.180 -0.6296  0.1714 -0.0159
  150MOL0     C20611   3.590   6.846  10.073  0.4470  0.4079 -0.3296
  150MOL0     C20612   3.487   6.939  10.031 -0.3482 -0.6267 -0.1740
  150MOL0     N20613   3.779   7.535  10.116  0.0304  0.0192 -0.4028
  150MOL0     N20614   3.877   7.518  10.042 -0.5221  0.3814 -0.4911
  150MOL0     C20615   3.756   8.405   9.181 -0.1927 -1.1373 -0.9332
  150MOL0     C20616   3.750   8.468   9.057  0.1933  0.3536 -0.2669
  150MOL0     C20617   3.787   8.778   8.710  0.0552 -0.0520  0.6275
  150MOL0     C20618   3.719   8.902   8.677  0.0516  0.1469  0.8202
  150MOL0     C20619   3.694   8.942   8.548 -0.3442 -0.1364 -0.3411
  150MOL0     C20620   3.734   8.862   8.440  0.0631 -0.2054  0.0343
  150MOL0     O20621   3.707   8.925   8.318  0.1425  0.2737 -0.3069
  150MOL0     C20622   3.706   8.852   8.192  0.7996 -0.6856 -0.4855
  150MOL0     C20623   3.605   8.901   8.090 -0.6761 -0.1205  0.0718
  150MOL0     C20624   3.636   8.864   7.942 -0.6623  0.0513  0.2799
  150MOL0     C20625   3.530   8.888   7.835  0.3844 -0.3762 -0.7443
  150MOL0     C20626   3.482   9.034   7.831  0.4366  0.2242 -0.9360
  150MOL0     C20627   3.440   9.150   7.826 -0.3522 -1.4612  0.3716
  150MOL0     C20628   3.801   8.739   8.466 -0.1637 -0.2188 -0.2326
  150MOL0     C20629   3.825   8.697   8.601  0.5249 -0.5293 -0.1798
  150MOL0     C20630   3.905   8.567   8.621 -0.2148 -0.2983  0.0682
  150MOL0     H20631   4.027   8.664   9.085 -1.0501 -0.1586  0.3470
  150MOL0     H20632   4.057   8.547   9.278  0.5130  1.2480 -2.1859
  150MOL0     H20633   4.002   8.501   9.477 -1.7918  0.4050  1.8047
  150MOL0     H20634   4.078   8.352   9.430 -1.0324 -0.3937 -1.8127
  150MOL0     H20635   4.046   8.368   9.665  1.9323 -4.7126 -0.7426
  150MOL0     H20636   3.863   8.389   9.644  1.0033  1.3913  0.7347
  150MOL0     H20637   3.863   8.146   9.552 -0.2980  3.3460 -1.9132
  150MOL0     H20638   4.037   8.169   9.554  1.0144  1.2915  0.4000
  150MOL0     H20639   3.987   8.177   9.815 -0.0902 -1.2725  0.8876
  150MOL0     H20640   3.840   8.082   9.761 -0.3486  0.1913  0.4213
  150MOL0     H20641   4.111   7.993   9.820  1.4304  2.4067 -1.3850
  150MOL0     H20642   4.095   7.979   9.640 -0.6656  2.5930 -0.7831
  150MOL0     H20643   3.856   7.885   9.775 -0.3505 -1.0607 -1.0575
  150MOL0     H20644   3.942   7.827   9.629  1.9560  1.7523 -1.6170
  150MOL0     H20645   4.045   7.757   9.913 -0.3198 -0.6018  0.4424
  150MOL0     H20646   4.121   7.737   9.756  0.5383  0.2155  1.8250
  150MOL0     H20647   3.913   7.583   9.714 -3.7030  3.0063  0.6565
  150MOL0     H20648   4.034   7.529   9.804  2.9584  2.1516 -3.5885
  150MOL0     H20649   3.705   7.667   9.819 -0.5768 -1.8871 -0.7406
  150MOL0     H20650   3.508   7.680  10.001  1.1560 -0.6117  0.4483
  150MOL0     H20651   3.553   7.715  10.169 -1.9918 -1.3115  2.7301
  150MOL0     H20652   3.476   7.514  10.251 -3.4108  0.2493 -0.1951
  150MOL0     H20653   3.353   7.575  10.153 -0.2220  1.9041 -0.4231
  150MOL0     H20654   3.470   7.415   9.953 -0.6676  0.7229  0.8617
  150MOL0     H20655   3.573   7.370  10.065 -0.3477 -1.9801  0.4973
  150MOL0     H20656   3.399   7.282  10.212  1.2130  4.2616  0.6669
  150MOL0     H20657   3.274   7.332  10.114  1.1896  1.4512 -1.9999
  150MOL0     H20658   3.598   7.215  10.207 -0.3176 -0.4641  2.0688
  150MOL0     H20659   3.747   7.168  10.363 -5.9753 -0.4158 -2.2005
  150MOL0     H20660   3.880   7.055  10.308  0.8832  0.9650 -0.1212
  150MOL0     H20661   3.752   7.009  10.426 -2.9212  2.3055  0.4704
  150MOL0     H20662   3.997   6.669  10.168  1.5497  3.8943  0.0445
  150MOL0     H20663   4.161   6.477  10.238 -2.2732 -2.4925  1.2734
  150MOL0     H20664   4.286   6.304  10.372  0.8647 -0.1918  0.7614
  150MOL0     H20665   4.352   6.456  10.350 -2.2674  0.2948 -1.3942
  150MOL0     H20666   4.533   6.304  10.465 -1.8190 -0.6374 -1.4197
  150MOL0     H20667   4.485   6.421  10.572  0.4166  2.1428 -3.0339
  150MOL0     H20668   4.401   6.131  10.624  1.2559  0.5178  1.5221
  150MOL0     H20669   4.275   6.240  10.616  0.3118  0.5584 -2.2127
  150MOL0     H20670   4.445   6.367  10.806  0.2125 -1.3318  1.9111
  150MOL0     H20671   4.533   6.226  10.780 -0.3599 -2.5096 -2.5178
  150MOL0     H20672   4.350   6.270  10.974 -0.5983 -1.1111  1.7170
  150MOL0     H20673   4.241   6.190  10.858 -0.1787 -0.5986 -0.0370
  150MOL0     H20674   4.495   6.075  10.996 -0.1267  1.6366 -0.6912
  150MOL0     H20675   4.440   6.013  10.849  0.7688  1.3563 -0.8214
  150MOL0     H20676   4.211   5.989  10.967 -0.3724  1.7424  1.5215
  150MOL0     H20677   4.283   6.052  11.113  0.0778 -2.0891  2.1449
  150MOL0     H20678   4.382   5.789  10.976  2.1063 -2.0929  0.9365
  150MOL0     H20679   4.280   5.801  11.121  3.3330 -1.9749  1.6638
  150MOL0     H20680   4.093   6.601  10.641  0.6828  1.5834 -0.4540
  150MOL0     H20681   3.905   6.744  10.576  0.8781  2.8230 -0.3927
  150MOL0     H20682   3.599   6.747  10.029  2.7169 -1.2305  3.3243
  150MOL0     H20683   3.410   6.904   9.963 -1.4294  1.3978 -0.0479
  150MOL0     H20684   3.685   8.339   9.230 -2.1412  1.8342  0.4865
  150MOL0     H20685   3.673   8.442   8.985 -1.1006  0.3324  1.0880
  150MOL0     H20686   3.699   8.976   8.753 -0.8899  2.6124 -1.6413
  150MOL0     H20687   3.651   9.041   8.532  2.2877  1.4725  1.7235
  150MOL0     H20688   3.809   8.848   8.155  0.0426  0.5451 -2.9266
  150MOL0     H20689   3.683   8.751   8.227  0.8196 -0.2722  0.7410
  150MOL0     H20690   3.588   9.008   8.097  2.1638  0.5089 -1.2087
  150MOL0     H20691   3.519   8.842   8.124 -0.4973  1.8798  4.6481
  150MOL0     H20692   3.736   8.906   7.926 -0.4316  0.4724  2.4952
  150MOL0     H20693   3.650   8.756   7.953 -0.2287  0.1436  0.6878
  150MOL0     H20694   3.452   8.814   7.852  0.3780 -0.5276 -1.3953
  150MOL0     H20695   3.561   8.868   7.732  4.6241  0.5294  0.1489
  150MOL0     H20696   3.389   9.245   7.820 -1.4953 -2.1127 -3.6324
  150MOL0     H20697   3.838   8.675   8.386  0.2521 -1.4860  0.9226
  150MOL0     H20698   4.003   8.594   8.662  1.4697 -0.7689 -3.2614
  150MOL0     H20699   3.861   8.496   8.692  1.3445 -2.3837 -0.9481
  150MOL0     H20700   3.915   8.513   8.527 -1.3094 -1.5327  0.6297
  151MOL0     O20701   1.287   1.300   6.186  0.0109 -0.5519 -0.3765
  151MOL0     C20702   1.175   1.266   6.148 -0.0026 -0.5940  0.1599
  151MOL0     O20703   1.101   1.342   6.063  0.2862  0.4379 -0.3205
  151MOL0     C20704   1.153   1.456   6.011  0.0368 -0.1897  0.5762
  151MOL0     C20705   1.206   1.473   5.880 -0.3937  1.0410 -0.4723
  151MOL0     C20706   1.254   1.595   5.834 -0.1851  0.0463 -0.0886
  151MOL0     C20707   1.254   1.710   5.920 -0.2052  0.2060 -0.5205
  151MOL0     O20708   1.296   1.822   5.873  0.6685 -0.6067 -0.3295
  151MOL0     C20709   1.373   1.902   5.958  0.1051 -0.5710 -0.1645
  151MOL0     C20710   1.408   2.032   5.885  0.0168 -0.0534 -0.7280
  151MOL0     C20711   1.463   2.001   5.747 -0.4627 -0.8848  0.3448
  151MOL0     C20712   1.546   2.119   5.689 -0.2477  0.0190 -0.0712
  151MOL0     C20713   1.638   2.088   5.576 -0.3597  0.2809 -0.0549
  151MOL0     C20714   1.756   1.987   5.601  0.9078  0.4449  0.1691
  151MOL0     C20715   1.840   1.966   5.475  0.6039  0.0358 -0.6686
  151MOL0     C20716   1.927   2.093   5.444 -0.0281 -0.2305  0.6103
  151MOL0     N20717   1.980   2.086   5.307 -0.8822  0.0969  0.4292
  151MOL0     C20718   2.074   2.178   5.266 -0.1130 -0.0487 -0.4434
  151MOL0     C20719   2.078   2.177   5.131  0.2887 -0.8722 -0.3290
  151MOL0     C20720   2.167   2.246   5.027  0.1634  1.0228 -0.3121
  151MOL0     C20721   2.138   2.394   5.013  0.6933 -0.6048  0.4011
  151MOL0     C20722   2.141   2.480   5.139  0.0644  1.6132  0.3522
  151MOL0     C20723   2.019   2.489   5.226 -0.1803  0.5648 -0.2369
  151MOL0     O20724   1.901   2.462   5.154 -0.1637  0.2424 -0.7503
  151MOL0     C20725   1.778   2.480   5.216  0.3328 -0.4639  0.1607
  151MOL0     C20726   1.685   2.374   5.231 -0.4998 -0.5729  0.2096
  151MOL0     C20727   1.559   2.381   5.293  0.2820 -0.1700  0.5830
  151MOL0     C20728   1.476   2.257   5.290 -0.0543 -0.5474  0.8066
  151MOL0     C20729   1.523   2.508   5.345  0.1742 -0.9102 -0.5717
  151MOL0     C20730   1.388   2.543   5.410  0.8692 -0.1210  0.6498
  151MOL0     O20731   1.285   2.455   5.392 -0.0824  0.0440  0.7108
  151MOL0     C20732   1.178   2.473   5.488  0.3088  0.9342 -0.8417
  151MOL0     C20733   1.206   2.416   5.612  0.2804 -0.0770  0.6974
  151MOL0     C20734   1.119   2.448   5.717 -1.2892 -0.3193  0.2786
  151MOL0     C20735   1.007   2.531   5.703 -0.7264 -0.3277  0.1772
  151MOL0     O20736   0.957   2.584   5.819  0.1674 -0.6031 -0.2016
  151MOL0     C20737   0.864   2.688   5.820 -0.0450 -0.0401 -0.6982
  151MOL0     C20738   0.851   2.747   5.957  0.5062  0.1897 -0.5987
  151MOL0     C20739   0.816   2.649   6.064  0.1297 -0.0571  0.0340
  151MOL0     C20740   0.794   2.716   6.200 -0.4474  0.1671 -0.3521
  151MOL0     C20741   0.733   2.613   6.290 -0.3148  0.5315 -0.8551
  151MOL0     C20742   0.738   2.658   6.436  0.4977  0.9536  0.0888
  151MOL0     C20743   0.645   2.761   6.487  0.1209 -0.6587 -0.1789
  151MOL0     C20744   0.502   2.730   6.454 -0.2734  1.1511  0.4701
  151MOL0    Cl20745   0.401   2.850   6.527 -0.3977  0.3623  0.3045
  151MOL0     C20746   0.991   2.590   5.574  0.2657  0.3482 -0.5658
  151MOL0     C20747   1.071   2.551   5.470  0.7167  0.3760  0.7776
  151MOL0     O20748   1.374   2.655   5.471  0.2061  0.5523 -0.0112
  151MOL0     C20749   1.617   2.622   5.330 -0.2280  0.7795 -1.1887
  151MOL0     C20750   1.740   2.606   5.263  0.3018 -0.5924  0.2316
  151MOL0     N20751   1.971   2.102   5.091  0.4587  0.3352 -1.3319
  151MOL0     N20752   1.920   2.036   5.195 -0.4342  0.2881 -0.4519
  151MOL0     C20753   1.210   1.686   6.053  1.1047  0.1622  0.6064
  151MOL0     C20754   1.164   1.561   6.104 -0.8726  0.4289  0.7826
  151MOL0     C20755   1.122   1.142   6.189 -0.0491 -0.0043  0.6588
  151MOL0     C20756   1.080   1.042   6.095  0.0423 -0.3090  1.2108
  151MOL0     C20757   1.054   0.914   6.140 -0.3317 -0.3133  0.1658
  151MOL0     C20758   1.061   0.880   6.275 -0.1032  0.6700 -0.3578
  151MOL0     O20759   1.029   0.759   6.311  0.3213  0.5189 -0.3278
  151MOL0     C20760   1.101   0.710   6.426  0.5328 -0.5643 -0.0720
  151MOL0     C20761   1.094   0.560   6.453  0.1050  0.7776 -0.3452
  151MOL0     C20762   1.175   0.523   6.573  0.5261 -0.6534 -0.1490
  151MOL0     C20763   1.181   0.371   6.600  0.5730 -0.8247  0.3016
  151MOL0     C20764   1.263   0.294   6.500 -0.6347 -1.0418 -0.2723
  151MOL0     C20765   1.355   0.243   6.440  0.1306 -0.0413  0.6374
  151MOL0     C20766   1.102   0.978   6.367  0.9964  0.3428  0.4513
  151MOL0     C20767   1.115   1.114   6.327 -0.0885 -0.2609 -0.7092
  151MOL0     C20768   1.147   1.224   6.439  0.0952 -0.3258 -0.6821
  151MOL0     H20769   1.199   1.383   5.820  0.0536 -2.0461  3.6729
  151MOL0     H20770   1.280   1.611   5.730 -0.3591  0.6455 -0.0412
  151MOL0     H20771   1.472   1.861   5.976 -0.2802 -2.9034 -2.6673
  151MOL0     H20772   1.328   1.931   6.053 -1.0147 -4.5939  0.7031
  151MOL0     H20773   1.315   2.089   5.879 -1.4997 -2.2524  0.6870
  151MOL0     H20774   1.474   2.099   5.941  1.9596 -0.7497 -2.0729
  151MOL0     H20775   1.519   1.908   5.737  0.6617  0.0356 -4.3322
  151MOL0     H20776   1.393   1.982   5.666 -0.1743 -1.0114  0.1214
  151MOL0     H20777   1.481   2.204   5.666  0.1124  0.0834 -0.9173
  151MOL0     H20778   1.612   2.160   5.766  2.3480 -3.7707 -0.0540
  151MOL0     H20779   1.670   2.186   5.539 -1.4809  0.3193 -0.9741
  151MOL0     H20780   1.586   2.035   5.496  1.1670 -3.2801  1.1179
  151MOL0     H20781   1.824   2.026   5.678  2.0904 -1.0452 -0.0837
  151MOL0     H20782   1.716   1.894   5.641 -1.0570  0.8464 -0.7622
  151MOL0     H20783   1.775   1.936   5.392  2.2670 -3.1999 -0.9526
  151MOL0     H20784   1.908   1.883   5.495 -1.1058 -1.0636  0.8172
  151MOL0     H20785   1.866   2.183   5.441 -2.3162 -1.6619  1.3422
  151MOL0     H20786   2.001   2.100   5.524 -1.8851 -1.3633  2.5427
  151MOL0     H20787   2.139   2.229   5.336 -1.2690  2.1359 -0.8677
  151MOL0     H20788   2.157   2.187   4.936  2.6281  0.9056 -0.5821
  151MOL0     H20789   2.272   2.243   5.060  0.6218  2.6619 -1.4713
  151MOL0     H20790   2.204   2.443   4.940  1.2970  1.4972  2.2479
  151MOL0     H20791   2.035   2.404   4.978  0.3002  0.1582  1.6854
  151MOL0     H20792   2.227   2.448   5.199  0.8240  2.5571 -0.2054
  151MOL0     H20793   2.166   2.583   5.111 -2.2639  2.3376  0.7723
  151MOL0     H20794   2.017   2.420   5.310  0.2644 -0.5902 -1.1416
  151MOL0     H20795   2.012   2.594   5.255  0.6923 -0.3460  3.9072
  151MOL0     H20796   1.712   2.282   5.180  2.1357  1.2807 -1.9640
  151MOL0     H20797   1.447   2.213   5.386 -0.9783 -5.7768 -1.5145
  151MOL0     H20798   1.523   2.177   5.233  1.0021 -0.3908  1.4152
  151MOL0     H20799   1.385   2.278   5.233  0.0507 -3.3257 -0.5410
  151MOL0     H20800   1.299   2.360   5.621  0.0819 -0.0721  3.8929
  151MOL0     H20801   1.152   2.407   5.812  0.2724 -2.6721 -1.1917
  151MOL0     H20802   0.891   2.769   5.751  2.6095 -2.2960 -2.5732
  151MOL0     H20803   0.767   2.647   5.790 -1.3252  1.1324  1.6273
  151MOL0     H20804   0.939   2.805   5.985 -0.5920  1.6834 -0.0948
  151MOL0     H20805   0.760   2.808   5.969 -0.2439 -1.2584  1.7269
  151MOL0     H20806   0.898   2.577   6.072  0.6114  0.0184 -2.9396
  151MOL0     H20807   0.729   2.589   6.032  0.3191 -0.0924 -0.4245
  151MOL0     H20808   0.728   2.802   6.198  0.4935  0.9385  0.4761
  151MOL0     H20809   0.893   2.748   6.234 -0.8777 -0.6034  1.8540
  151MOL0     H20810   0.635   2.597   6.244 -0.1584  3.2298 -2.3836
  151MOL0     H20811   0.795   2.524   6.276 -0.9714 -0.4436  1.9342
  151MOL0     H20812   0.833   2.709   6.452 -0.0142  2.9087 -2.4080
  151MOL0     H20813   0.734   2.571   6.503  1.6192  0.0629 -0.9683
  151MOL0     H20814   0.669   2.857   6.439 -0.5103 -0.1988  0.3996
  151MOL0     H20815   0.663   2.772   6.594  1.1961 -0.9115 -0.3241
  151MOL0     H20816   0.477   2.632   6.494  1.1493  0.4520 -0.3114
  151MOL0     H20817   0.487   2.726   6.346 -0.1873 -4.1913  0.4293
  151MOL0     H20818   0.909   2.658   5.551 -0.1921 -0.4089 -1.2647
  151MOL0     H20819   1.072   2.609   5.378 -0.3083  0.6003  0.8983
  151MOL0     H20820   1.598   2.724   5.363 -2.0056  0.6897 -1.7952
  151MOL0     H20821   1.810   2.688   5.277  1.2443 -1.6768  2.2646
  151MOL0     H20822   1.186   1.773   6.114 -1.6648 -2.2320  3.3037
  151MOL0     H20823   1.132   1.548   6.207  1.5979  1.1545  1.7040
  151MOL0     H20824   1.069   1.067   5.990 -2.0201  1.5511  1.7933
  151MOL0     H20825   1.011   0.847   6.066 -1.0340  2.6327 -2.3222
  151MOL0     H20826   1.207   0.738   6.423  0.1015  1.5006  1.5600
  151MOL0     H20827   1.068   0.756   6.520  0.6607 -1.1955  0.2894
  151MOL0     H20828   1.142   0.507   6.370 -1.0838 -0.1357 -0.4732
  151MOL0     H20829   0.995   0.517   6.462  1.9581 -3.8894  0.2287
  151MOL0     H20830   1.278   0.560   6.569  0.0480  1.1819  2.2300
  151MOL0     H20831   1.141   0.575   6.663 -0.6994  1.4487 -1.7442
  151MOL0     H20832   1.086   0.318   6.612 -0.8181  1.4599 -0.0351
  151MOL0     H20833   1.237   0.362   6.694 -1.3539 -2.3151  1.3714
  151MOL0     H20834   1.430   0.197   6.380  1.3952  1.1791  1.2220
  151MOL0     H20835   1.112   0.948   6.471 -2.0596 -2.3717  0.1154
  151MOL0     H20836   1.201   1.314   6.409 -2.0310  0.9404 -0.9012
  151MOL0     H20837   1.057   1.266   6.485 -0.4037 -0.3919 -1.5632
  151MOL0     H20838   1.208   1.175   6.515  0.2747  0.3280 -0.3954
  152MOL0     O20839   4.878   3.467   6.064  0.3719  0.0397  0.9571
  152MOL0     C20840   4.918   3.584   6.041 -0.7917  0.6823  0.2358
  152MOL0     O20841   4.867   3.663   5.941  0.2757 -0.1434  0.2611
  152MOL0     C20842   4.759   3.633   5.866  0.6149  0.2523  0.0627
  152MOL0     C20843   4.651   3.563   5.912 -0.2607  0.2746  0.9535
  152MOL0     C20844   4.549   3.532   5.818 -0.3044 -0.2123  0.5658
  152MOL0     C20845   4.555   3.584   5.687 -0.4813 -0.5873  0.5452
  152MOL0     O20846   4.458   3.577   5.599  0.6667 -0.8234  0.1080
  152MOL0     C20847   4.449   3.438   5.556  0.2141 -1.3086  0.4411
  152MOL0     C20848   4.412   3.427   5.404 -0.6151 -0.2303  0.7499
  152MOL0     C20849   4.530   3.456   5.314 -0.0532 -1.0275  0.2666
  152MOL0     C20850   4.502   3.421   5.167 -0.3596 -0.2243  0.2033
  152MOL0     C20851   4.614   3.467   5.080  0.1214 -0.8075  1.0359
  152MOL0     C20852   4.652   3.365   4.965  0.4949  0.4107 -1.8877
  152MOL0     C20853   4.712   3.425   4.847 -0.2655 -0.4554  0.3412
  152MOL0     C20854   4.602   3.462   4.754 -0.2900  0.1203  0.5675
  152MOL0     N20855   4.659   3.506   4.624 -0.8351  0.3079  0.0699
  152MOL0     C20856   4.672   3.433   4.506  0.2639  0.9267 -0.4590
  152MOL0     C20857   4.715   3.518   4.408  0.0522  0.0558  0.1734
  152MOL0     C20858   4.760   3.491   4.270 -0.1676  0.2037  0.1179
  152MOL0     C20859   4.706   3.566   4.161  0.7967  0.3734 -0.0270
  152MOL0     C20860   4.560   3.530   4.117 -0.9690 -0.4700 -0.1583
  152MOL0     C20861   4.483   3.656   4.098 -0.2429 -0.6162  0.6584
  152MOL0     O20862   4.343   3.637   4.130 -0.2994 -0.1017  0.4591
  152MOL0     C20863   4.313   3.648   4.264 -0.7360 -0.6065  0.7085
  152MOL0     C20864   4.204   3.590   4.316  0.8972  0.4695  0.6580
  152MOL0     C20865   4.178   3.583   4.457  0.8709 -0.5861 -0.2991
  152MOL0     C20866   4.042   3.519   4.487 -0.8094 -0.2756 -0.6505
  152MOL0     C20867   4.269   3.633   4.558  0.3339 -0.5799 -0.6828
  152MOL0     C20868   4.237   3.652   4.709 -0.6853  0.3473 -0.2617
  152MOL0     O20869   4.346   3.667   4.792 -0.7887 -0.4381 -0.6105
  152MOL0     C20870   4.328   3.705   4.924 -0.0988 -0.2620 -0.3605
  152MOL0     C20871   4.442   3.766   4.980  1.2074  0.5310 -0.2629
  152MOL0     C20872   4.446   3.814   5.113  0.1331 -0.0250 -0.1643
  152MOL0     C20873   4.338   3.800   5.194  0.9830 -0.1503 -0.1842
  152MOL0     O20874   4.342   3.841   5.328  0.4198  0.9627  0.1176
  152MOL0     C20875   4.463   3.903   5.370 -0.7356  0.4756  0.4341
  152MOL0     C20876   4.436   3.960   5.515  0.3691  0.1844 -0.4820
  152MOL0     C20877   4.309   4.047   5.524 -0.3041  0.7407  0.1512
  152MOL0     C20878   4.314   4.129   5.652  0.1265 -0.0195  0.1116
  152MOL0     C20879   4.229   4.254   5.634  0.1005 -0.4674  0.9622
  152MOL0     C20880   4.238   4.339   5.764 -0.2658 -0.1697  0.5515
  152MOL0     C20881   4.168   4.478   5.764  0.1797 -0.8792  0.1077
  152MOL0     C20882   4.022   4.468   5.732  0.4459 -0.6626 -0.7457
  152MOL0    Cl20883   3.930   4.611   5.752  0.1908  0.3929  0.1984
  152MOL0     C20884   4.225   3.744   5.147 -0.1566 -0.1453  0.1696
  152MOL0     C20885   4.214   3.705   5.009  0.6045 -0.1126 -0.0550
  152MOL0     O20886   4.118   3.666   4.737  1.0351 -0.3344 -0.2911
  152MOL0     C20887   4.393   3.678   4.504  0.4652  0.2886  0.9755
  152MOL0     C20888   4.411   3.692   4.368 -0.4787  0.3684  0.0324
  152MOL0     N20889   4.730   3.642   4.478 -0.1702 -0.9386  0.0839
  152MOL0     N20890   4.689   3.643   4.603 -0.0286 -0.1970 -0.0795
  152MOL0     C20891   4.660   3.667   5.649 -0.3450 -0.4813 -0.1790
  152MOL0     C20892   4.756   3.703   5.741 -0.3663  0.7145  0.1424
  152MOL0     C20893   5.058   3.626   6.085 -0.0068 -0.0266  0.5181
  152MOL0     C20894   5.136   3.706   6.001  0.4570  0.1574 -0.4282
  152MOL0     C20895   5.261   3.750   6.039 -0.2832  0.7223  0.3294
  152MOL0     C20896   5.302   3.715   6.166 -0.5665  0.7819 -0.6642
  152MOL0     O20897   5.429   3.750   6.207  0.1614 -0.3660  0.4755
  152MOL0     C20898   5.448   3.819   6.332  0.9422  0.5805  0.3907
  152MOL0     C20899   5.481   3.723   6.457 -0.6714  0.2642  0.8727
  152MOL0     C20900   5.593   3.622   6.423  0.0782  0.3423 -0.1918
  152MOL0     C20901   5.662   3.554   6.538  0.1210  0.0568 -0.2235
  152MOL0     C20902   5.716   3.425   6.488 -1.0005  0.2199  0.4859
  152MOL0     C20903   5.752   3.313   6.450 -0.2150  0.2445  0.2290
  152MOL0     C20904   5.229   3.635   6.247  0.5226 -0.7513 -0.1576
  152MOL0     C20905   5.105   3.589   6.205  0.0462 -0.3380 -0.9010
  152MOL0     C20906   5.021   3.524   6.313 -0.0059  0.0925 -0.2095
  152MOL0     H20907   4.635   3.512   6.007  0.2675 -1.7304  0.0313
  152MOL0     H20908   4.474   3.456   5.835  1.5685 -2.5467 -0.9700
  152MOL0     H20909   4.384   3.381   5.623  2.1636 -4.4794 -0.1202
  152MOL0     H20910   4.547   3.389   5.558  0.0999 -1.7342 -1.6324
  152MOL0     H20911   4.384   3.323   5.383  3.8379 -2.3456  3.7890
  152MOL0     H20912   4.327   3.496   5.393  0.0499  0.5422  0.3998
  152MOL0     H20913   4.549   3.564   5.309 -1.6993 -0.7389 -0.9643
  152MOL0     H20914   4.616   3.393   5.338  0.5668 -1.5528 -2.8943
  152MOL0     H20915   4.482   3.313   5.168 -1.7102  0.0263  1.5083
  152MOL0     H20916   4.412   3.471   5.130 -0.0731 -1.4323 -2.3729
  152MOL0     H20917   4.708   3.488   5.132  1.1937  2.0586 -1.7314
  152MOL0     H20918   4.599   3.568   5.039  1.1470 -1.1180 -0.1745
  152MOL0     H20919   4.720   3.297   5.018 -3.5924 -2.3410  0.3675
  152MOL0     H20920   4.564   3.307   4.935  3.3750 -4.3846 -2.2033
  152MOL0     H20921   4.778   3.351   4.800 -0.2337  0.9340 -1.9815
  152MOL0     H20922   4.784   3.506   4.859 -0.5209  0.1421 -1.7661
  152MOL0     H20923   4.555   3.365   4.737  3.1780 -1.9156  1.5392
  152MOL0     H20924   4.544   3.544   4.797  1.2694  2.2569 -1.1571
  152MOL0     H20925   4.652   3.330   4.479  0.6008  1.4845 -3.2148
  152MOL0     H20926   4.751   3.383   4.255  2.0847 -0.0405  0.2077
  152MOL0     H20927   4.865   3.519   4.265 -0.6798  2.0780 -1.2504
  152MOL0     H20928   4.705   3.672   4.190 -0.4142  0.5576 -0.6630
  152MOL0     H20929   4.780   3.548   4.081  1.7246 -0.1534  0.9237
  152MOL0     H20930   4.554   3.470   4.026  1.4052  1.5985 -1.8361
  152MOL0     H20931   4.518   3.469   4.197  2.0046  0.6368  2.4672
  152MOL0     H20932   4.518   3.752   4.137  0.1320 -1.0714  1.4750
  152MOL0     H20933   4.489   3.662   3.989 -1.4249 -3.3756  0.3367
  152MOL0     H20934   4.134   3.547   4.246  0.9792  0.7284  0.4157
  152MOL0     H20935   3.964   3.591   4.514  0.1514  1.5109 -2.3949
  152MOL0     H20936   4.049   3.443   4.566 -1.8349 -0.6905 -0.9477
  152MOL0     H20937   4.007   3.469   4.397  1.0227 -0.1248 -1.5030
  152MOL0     H20938   4.522   3.785   4.910  1.0588 -2.3602 -1.3589
  152MOL0     H20939   4.537   3.847   5.161 -0.8709  0.0738  1.7759
  152MOL0     H20940   4.539   3.824   5.373 -2.0890 -1.0985 -2.4485
  152MOL0     H20941   4.502   3.975   5.298  2.2838 -1.7823 -0.4113
  152MOL0     H20942   4.438   3.889   5.598 -2.8379  1.8956  1.2524
  152MOL0     H20943   4.525   4.019   5.540 -1.2361  2.1360  0.9912
  152MOL0     H20944   4.213   3.996   5.521 -0.3109  0.7868 -0.5217
  152MOL0     H20945   4.315   4.121   5.443 -1.3346 -1.2525 -1.8408
  152MOL0     H20946   4.414   4.168   5.674 -0.2169 -0.3756  2.5972
  152MOL0     H20947   4.279   4.064   5.733  1.2359 -2.5713 -1.3319
  152MOL0     H20948   4.268   4.322   5.557 -1.3969  1.8303  2.1012
  152MOL0     H20949   4.126   4.239   5.602  0.6102 -0.6882 -0.6744
  152MOL0     H20950   4.345   4.355   5.778  0.0997 -2.1160  0.1723
  152MOL0     H20951   4.216   4.267   5.843  2.9525 -1.8619  0.0701
  152MOL0     H20952   4.217   4.550   5.698 -3.5032  0.6545 -1.2600
  152MOL0     H20953   4.180   4.510   5.867  0.4082 -0.0945 -0.1604
  152MOL0     H20954   3.976   4.396   5.801  1.1960 -0.8532 -0.4338
  152MOL0     H20955   4.000   4.431   5.631 -2.6222 -1.6401  0.1527
  152MOL0     H20956   4.147   3.734   5.221  0.3699  0.7957  0.8670
  152MOL0     H20957   4.116   3.672   4.976 -0.0579  0.3002  1.4240
  152MOL0     H20958   4.464   3.714   4.578 -1.2263 -0.1336  2.8931
  152MOL0     H20959   4.501   3.748   4.343 -0.5608  0.5246  0.0839
  152MOL0     H20960   4.664   3.703   5.546 -4.1772  0.9671  0.0191
  152MOL0     H20961   4.848   3.753   5.711  0.7467 -0.4913  1.3982
  152MOL0     H20962   5.099   3.745   5.907 -1.6429  0.9480  0.6691
  152MOL0     H20963   5.313   3.817   5.971 -2.3634  1.3735 -0.7025
  152MOL0     H20964   5.544   3.869   6.320  1.9059 -1.2515  0.0780
  152MOL0     H20965   5.371   3.892   6.361  1.0708  1.2112 -0.8114
  152MOL0     H20966   5.400   3.665   6.502 -0.1057 -0.2459  1.2644
  152MOL0     H20967   5.506   3.784   6.543 -3.9638  1.5434  1.0627
  152MOL0     H20968   5.543   3.540   6.370 -1.6184  0.7567  0.6900
  152MOL0     H20969   5.670   3.662   6.356 -0.3649 -1.8409 -2.1262
  152MOL0     H20970   5.599   3.532   6.624  0.9245 -1.1032  0.0932
  152MOL0     H20971   5.741   3.619   6.575 -0.3658  0.5248  0.0014
  152MOL0     H20972   5.768   3.209   6.430 -0.9313 -0.1363  1.5259
  152MOL0     H20973   5.261   3.610   6.348  1.0717  0.3388 -0.0458
  152MOL0     H20974   4.933   3.587   6.329  0.1574 -0.3042  2.7653
  152MOL0     H20975   4.992   3.426   6.275  1.3038  0.2010 -1.5768
  152MOL0     H20976   5.075   3.506   6.406 -2.8046 -0.2252  1.4780
  153MOL0     O20977   6.185   0.211   0.142  0.6635  0.6915  0.3756
  153MOL0     C20978   6.238   0.124   0.067 -0.0602 -0.4802  0.2623
  153MOL0     O20979   6.310   0.151  -0.044  0.3371 -0.1920  0.6822
  153MOL0     C20980   6.305   0.269  -0.113  0.2973 -0.7560 -0.9084
  153MOL0     C20981   6.197   0.360  -0.108  0.0956 -0.2172  0.8072
  153MOL0     C20982   6.185   0.484  -0.179 -0.7142 -0.1067 -0.3050
  153MOL0     C20983   6.284   0.517  -0.273  0.4736  0.2800 -0.3131
  153MOL0     O20984   6.258   0.638  -0.345  0.5183 -0.3823  0.6980
  153MOL0     C20985   6.364   0.699  -0.412 -0.9386 -0.3683 -0.3272
  153MOL0     C20986   6.316   0.822  -0.481 -0.0732  0.0941 -0.3248
  153MOL0     C20987   6.259   0.924  -0.387 -0.1431 -0.4073  0.0143
  153MOL0     C20988   6.255   1.059  -0.456 -0.9783 -0.4719  0.1670
  153MOL0     C20989   6.177   1.173  -0.387 -0.2557  0.7985  0.3848
  153MOL0     C20990   6.166   1.300  -0.467  0.5582 -0.0254 -0.4710
  153MOL0     C20991   6.092   1.396  -0.363 -0.2095 -0.5333  0.3891
  153MOL0     C20992   6.043   1.527  -0.426 -0.0809 -0.7390 -0.4556
  153MOL0     N20993   6.138   1.595  -0.519 -0.5531  0.3032  0.6471
  153MOL0     C20994   6.164   1.577  -0.654 -0.3999  0.0575 -0.6090
  153MOL0     C20995   6.265   1.670  -0.683  0.0506  0.3881 -0.0074
  153MOL0     C20996   6.349   1.689  -0.815 -0.5771  0.4705 -0.0463
  153MOL0     C20997   6.373   1.835  -0.861 -0.0488  1.1408 -0.4575
  153MOL0     C20998   6.448   1.858  -0.994 -0.7759  0.4600 -1.0486
  153MOL0     C20999   6.429   2.005  -1.025  0.0029 -0.8861  0.4667
  153MOL0     O21000   6.485   2.036  -1.150 -0.3160 -0.1776 -0.2178
  153MOL0     C21001   6.475   2.167  -1.195 -0.5866  1.6719  0.1944
  153MOL0     C21002   6.388   2.208  -1.296 -0.8557 -0.7003 -0.4605
  153MOL0     C21003   6.399   2.327  -1.352 -0.2327 -1.5086  0.9199
  153MOL0     C21004   6.324   2.349  -1.482  0.2405 -0.4776  0.6595
  153MOL0     C21005   6.477   2.429  -1.295 -0.0915  0.3142  0.6962
  153MOL0     C21006   6.498   2.564  -1.347 -0.6818 -0.8149 -0.3105
  153MOL0     O21007   6.617   2.616  -1.312  0.3625  0.8570  0.5151
  153MOL0     C21008   6.686   2.691  -1.403  0.8404 -0.5996  0.4675
  153MOL0     C21009   6.758   2.798  -1.348 -0.2145 -0.6308  0.4407
  153MOL0     C21010   6.821   2.887  -1.433 -0.2705  0.0394 -0.8033
  153MOL0     C21011   6.827   2.862  -1.570  0.5662 -0.3883  0.6678
  153MOL0     O21012   6.891   2.950  -1.647 -0.2375  0.0306  0.0148
  153MOL0     C21013   6.826   2.992  -1.760  0.4867 -0.3036  1.0863
  153MOL0     C21014   6.874   3.128  -1.813 -0.2639  0.3226 -0.0058
  153MOL0     C21015   6.997   3.112  -1.913 -0.7698  0.5940 -1.1655
  153MOL0     C21016   7.046   3.233  -1.988 -0.3978  0.4552 -0.8799
  153MOL0     C21017   6.942   3.322  -2.041 -0.1779  0.3570 -0.1291
  153MOL0     C21018   7.007   3.394  -2.160  0.0406 -1.0185  1.1656
  153MOL0     C21019   7.132   3.477  -2.129 -0.4883 -0.1009 -0.9603
  153MOL0     C21020   7.250   3.452  -2.225 -0.7426  0.0016  0.4543
  153MOL0    Cl21021   7.212   3.505  -2.384 -0.1867 -0.0356 -0.0180
  153MOL0     C21022   6.766   2.753  -1.628 -0.5744  1.0925 -1.2659
  153MOL0     C21023   6.690   2.668  -1.544  1.2889 -0.0425  0.3872
  153MOL0     O21024   6.408   2.614  -1.412  0.7310 -0.2485  0.0021
  153MOL0     C21025   6.545   2.395  -1.176 -0.2631 -0.1555  0.8198
  153MOL0     C21026   6.559   2.262  -1.138  1.2191 -0.0415  0.3886
  153MOL0     N21027   6.289   1.741  -0.566 -0.0427 -0.5196  0.3335
  153MOL0     N21028   6.209   1.698  -0.480 -0.5773 -0.0745 -1.1852
  153MOL0     C21029   6.396   0.433  -0.278 -1.0306  0.2556 -0.3098
  153MOL0     C21030   6.409   0.318  -0.198 -0.0449  0.4431 -1.0804
  153MOL0     C21031   6.243  -0.012   0.126 -0.0752 -0.5454 -0.4102
  153MOL0     C21032   6.147  -0.052   0.224  0.2470  0.2684 -0.1832
  153MOL0     C21033   6.149  -0.181   0.287  0.3279 -0.8500 -0.5553
  153MOL0     C21034   6.247  -0.274   0.257 -0.4045 -0.5562  0.2110
  153MOL0     O21035   6.243  -0.401   0.312 -0.5706  0.6370 -0.4490
  153MOL0     C21036   6.132  -0.454   0.379  0.0101  1.2067 -0.2923
  153MOL0     C21037   5.994  -0.457   0.297  0.0495 -0.1538  0.5537
  153MOL0     C21038   5.891  -0.506   0.391  0.7181 -0.9155  1.8146
  153MOL0     C21039   5.745  -0.485   0.347  0.1305 -0.0009  0.9846
  153MOL0     C21040   5.704  -0.351   0.317 -0.2601  0.5338  0.5328
  153MOL0     C21041   5.684  -0.233   0.295 -0.2108 -0.5689 -0.4916
  153MOL0     C21042   6.344  -0.234   0.160  0.0745  0.7217  0.2009
  153MOL0     C21043   6.348  -0.110   0.095  0.0905  0.2314 -0.0761
  153MOL0     C21044   6.451  -0.107  -0.013  0.5367  0.6642  0.7579
  153MOL0     H21045   6.107   0.330  -0.054 -0.9322 -0.0217 -0.7363
  153MOL0     H21046   6.095   0.543  -0.162 -0.7829 -0.9608  2.8677
  153MOL0     H21047   6.399   0.628  -0.488 -0.6806 -1.2313  0.5680
  153MOL0     H21048   6.446   0.733  -0.348  2.4059  0.2317 -4.4763
  153MOL0     H21049   6.400   0.852  -0.545  0.9931 -2.2594 -0.1134
  153MOL0     H21050   6.242   0.778  -0.548  0.8600 -0.0135 -1.3161
  153MOL0     H21051   6.169   0.889  -0.336  0.5723  2.4877  3.6927
  153MOL0     H21052   6.328   0.936  -0.303  0.3526  1.3185 -0.5991
  153MOL0     H21053   6.355   1.097  -0.479 -0.1791 -0.8763  2.6521
  153MOL0     H21054   6.190   1.040  -0.542 -2.0821 -1.8109  1.2386
  153MOL0     H21055   6.205   1.189  -0.282  0.2203 -0.2389  0.4249
  153MOL0     H21056   6.080   1.122  -0.385  1.4058 -2.6985 -0.2346
  153MOL0     H21057   6.270   1.335  -0.467  0.3263  0.8298  1.7975
  153MOL0     H21058   6.115   1.288  -0.564 -3.6724  1.1647  1.3562
  153MOL0     H21059   6.163   1.427  -0.286  0.3948 -0.8590 -0.0217
  153MOL0     H21060   6.007   1.346  -0.315  0.9429 -1.9945  1.0209
  153MOL0     H21061   5.949   1.529  -0.482  0.0151  0.4473 -0.5970
  153MOL0     H21062   6.020   1.593  -0.342 -0.2561  0.6873 -1.5934
  153MOL0     H21063   6.138   1.502  -0.729  1.8468 -2.2335  0.7692
  153MOL0     H21064   6.287   1.640  -0.891 -0.8308  0.2362  0.3114
  153MOL0     H21065   6.450   1.646  -0.808  0.5696  2.6849 -1.5928
  153MOL0     H21066   6.270   1.867  -0.874  0.4360  2.3035 -1.6168
  153MOL0     H21067   6.414   1.891  -0.777 -1.7382 -3.1188  3.6891
  153MOL0     H21068   6.555   1.843  -0.979 -0.3938  1.5897 -2.3502
  153MOL0     H21069   6.413   1.797  -1.078  1.5232  0.0912 -1.8185
  153MOL0     H21070   6.322   2.028  -1.024  0.0123 -0.8493  1.4374
  153MOL0     H21071   6.467   2.078  -0.953 -0.3548 -1.6033  1.3996
  153MOL0     H21072   6.324   2.130  -1.338  1.2204 -2.0786 -1.2398
  153MOL0     H21073   6.233   2.405  -1.461 -0.1923 -1.4024  1.3071
  153MOL0     H21074   6.289   2.254  -1.524 -1.6775 -0.1667  1.4561
  153MOL0     H21075   6.386   2.388  -1.564 -0.4634 -1.4815 -0.3806
  153MOL0     H21076   6.751   2.812  -1.241 -0.7618  2.1382  0.1377
  153MOL0     H21077   6.879   2.962  -1.382  1.5609 -1.5593 -0.4354
  153MOL0     H21078   6.847   2.926  -1.845  0.4439  4.0580 -2.6837
  153MOL0     H21079   6.718   3.004  -1.744  0.5183  3.3431 -0.6138
  153MOL0     H21080   6.791   3.164  -1.875 -1.8382  1.3546  2.5400
  153MOL0     H21081   6.885   3.198  -1.730 -0.1747 -0.4882  0.6791
  153MOL0     H21082   6.962   3.039  -1.986 -2.3863 -1.5300  1.5501
  153MOL0     H21083   7.076   3.065  -1.853 -1.8566  0.0452 -0.1153
  153MOL0     H21084   7.098   3.194  -2.076 -2.0855 -1.4090 -1.1345
  153MOL0     H21085   7.119   3.277  -1.919  0.1667 -3.4176  1.2922
  153MOL0     H21086   6.858   3.264  -2.082  0.4943  0.0188 -1.0610
  153MOL0     H21087   6.899   3.378  -1.957 -0.4575 -0.6045  0.3836
  153MOL0     H21088   6.929   3.460  -2.198 -0.4855 -4.2553 -4.3743
  153MOL0     H21089   7.021   3.329  -2.246  1.8377 -0.1892  0.7806
  153MOL0     H21090   7.163   3.478  -2.024  1.0625  2.6741 -1.3577
  153MOL0     H21091   7.104   3.582  -2.135 -4.9505 -0.7269  2.8916
  153MOL0     H21092   7.274   3.346  -2.218 -2.0075 -0.2335  1.6052
  153MOL0     H21093   7.342   3.506  -2.198  0.1380 -0.6091 -1.2049
  153MOL0     H21094   6.788   2.737  -1.734  3.0321  0.6610 -0.5687
  153MOL0     H21095   6.636   2.584  -1.585 -1.2115  0.8734  1.6061
  153MOL0     H21096   6.607   2.470  -1.129 -0.9329 -0.5756  2.4350
  153MOL0     H21097   6.624   2.249  -1.052  0.8873  3.6370  1.3531
  153MOL0     H21098   6.470   0.450  -0.355  0.2561  2.3086  1.2611
  153MOL0     H21099   6.493   0.250  -0.208 -0.3071 -0.2090  0.7185
  153MOL0     H21100   6.070   0.014   0.263  2.1612  1.7723  1.2623
  153MOL0     H21101   6.066  -0.209   0.352  1.6000 -2.3393  0.5063
  153MOL0     H21102   6.158  -0.560   0.381 -1.1766  0.4846 -5.9985
  153MOL0     H21103   6.122  -0.406   0.477 -1.8445  2.4866 -1.0573
  153MOL0     H21104   6.004  -0.510   0.202 -1.6476 -1.1489  0.8892
  153MOL0     H21105   5.965  -0.357   0.265 -1.2350 -1.0702 -1.3100
  153MOL0     H21106   5.903  -0.614   0.387 -1.0027 -1.1966 -3.0536
  153MOL0     H21107   5.905  -0.470   0.493  0.9743 -1.4402  1.9660
  153MOL0     H21108   5.677  -0.536   0.415  0.0395  0.1980  1.0408
  153MOL0     H21109   5.745  -0.548   0.257 -2.2085  2.0441 -0.5802
  153MOL0     H21110   5.649  -0.136   0.265  2.2740 -0.8329 -5.1498
  153MOL0     H21111   6.420  -0.305   0.130 -0.4633 -0.3022  1.2148
  153MOL0     H21112   6.408  -0.077  -0.109 -0.3644 -2.0995  0.2103
  153MOL0     H21113   6.530  -0.032   0.001  0.4935  0.9761 -0.5626
  153MOL0     H21114   6.490  -0.207  -0.032  0.2833  0.2734  2.1876
  154MOL0     O21115   1.162   5.825   7.881  0.4258 -0.7524 -0.2113
  154MOL0     C21116   1.171   5.731   7.963  0.0838 -0.1669  0.6222
  154MOL0     O21117   1.267   5.731   8.072 -0.0928 -0.1507 -0.2883
  154MOL0     C21118   1.355   5.835   8.086  0.8489 -0.2640  0.0426
  154MOL0     C21119   1.487   5.817   8.049  0.0290  0.7234  0.4537
  154MOL0     C21120   1.595   5.905   8.077 -0.7302 -0.0422  0.3019
  154MOL0     C21121   1.565   6.027   8.133 -0.2429  0.8199 -0.1118
  154MOL0     O21122   1.677   6.107   8.137 -0.0687  0.1234 -0.2624
  154MOL0     C21123   1.674   6.246   8.165 -0.7422  0.4766  0.3875
  154MOL0     C21124   1.604   6.318   8.055 -0.5626 -0.8683 -0.6004
  154MOL0     C21125   1.685   6.298   7.922 -0.5356  0.8360  0.8322
  154MOL0     C21126   1.821   6.369   7.909 -1.3330  0.0634  0.0684
  154MOL0     C21127   1.920   6.305   7.807  0.5361 -0.1923  0.4474
  154MOL0     C21128   2.030   6.406   7.757  0.4263  0.5192 -0.9034
  154MOL0     C21129   2.100   6.357   7.633 -0.0449 -0.5643 -0.2293
  154MOL0     C21130   2.203   6.465   7.603 -0.6984  0.1827  1.3372
  154MOL0     N21131   2.302   6.418   7.502 -0.2747 -0.2810 -0.1002
  154MOL0     C21132   2.279   6.406   7.374 -0.1719 -1.1766 -0.3331
  154MOL0     C21133   2.384   6.350   7.327 -0.0842 -0.0696 -0.0022
  154MOL0     C21134   2.398   6.289   7.186  1.5128  0.4101  0.0485
  154MOL0     C21135   2.481   6.394   7.106  0.1369  0.4624  0.0552
  154MOL0     C21136   2.401   6.447   6.982  0.5315 -0.0626  0.0762
  154MOL0     C21137   2.480   6.558   6.910  0.6016  0.3876  0.6543
  154MOL0     O21138   2.610   6.507   6.875 -0.1978 -0.4679 -0.1235
  154MOL0     C21139   2.644   6.459   6.751 -0.0765  0.4628 -0.4829
  154MOL0     C21140   2.775   6.424   6.737  0.1008  0.7367 -0.2207
  154MOL0     C21141   2.833   6.366   6.626 -0.0875  0.5068  0.3990
  154MOL0     C21142   2.974   6.320   6.647 -0.0005 -0.7444 -0.1955
  154MOL0     C21143   2.738   6.336   6.517  0.2433 -0.0488  0.4049
  154MOL0     C21144   2.780   6.273   6.378  0.8936 -0.5296 -0.3527
  154MOL0     O21145   2.678   6.231   6.303  0.6031 -0.1434  0.1887
  154MOL0     C21146   2.701   6.161   6.187 -1.3477 -0.3543 -0.4200
  154MOL0     C21147   2.778   6.210   6.076 -0.2239 -1.1570  0.0948
  154MOL0     C21148   2.789   6.141   5.961  0.1084  0.8099  0.2306
  154MOL0     C21149   2.730   6.018   5.938  1.0715  0.2279 -1.0861
  154MOL0     O21150   2.726   5.942   5.828  0.6387 -0.0338 -0.1403
  154MOL0     C21151   2.854   5.889   5.786  0.2171  0.1085  0.7142
  154MOL0     C21152   2.832   5.812   5.660 -0.5267 -1.1490  0.2526
  154MOL0     C21153   2.728   5.713   5.664 -0.5109 -0.3939  0.3763
  154MOL0     C21154   2.745   5.608   5.767  0.7783 -0.3473 -0.2833
  154MOL0     C21155   2.626   5.509   5.774  1.0047 -0.6785 -1.0367
  154MOL0     C21156   2.488   5.565   5.824 -0.9332 -0.4233  0.1613
  154MOL0     C21157   2.384   5.455   5.823 -0.0521  0.5930  0.5024
  154MOL0     C21158   2.353   5.407   5.671 -0.5452 -0.6074 -0.3930
  154MOL0    Cl21159   2.352   5.236   5.667  0.0400 -0.6619 -0.1036
  154MOL0     C21160   2.664   5.963   6.053 -0.3982 -0.9574  0.9477
  154MOL0     C21161   2.657   6.025   6.173 -0.1779  0.3027 -0.1728
  154MOL0     O21162   2.898   6.241   6.360 -0.4670 -0.1886 -0.0854
  154MOL0     C21163   2.603   6.379   6.525 -0.7055  1.0402  0.8509
  154MOL0     C21164   2.556   6.440   6.638  0.7864 -0.1499  0.2249
  154MOL0     N21165   2.479   6.330   7.422  0.0017  0.4772  0.2745
  154MOL0     N21166   2.425   6.365   7.532 -0.4970  0.0571 -0.1851
  154MOL0     C21167   1.434   6.051   8.182 -0.4275  0.5167 -1.1489
  154MOL0     C21168   1.326   5.953   8.158 -0.1092 -0.3521 -0.3703
  154MOL0     C21169   1.086   5.612   7.947 -0.4676 -0.2035  0.1410
  154MOL0     C21170   1.029   5.564   8.062  0.4074 -0.5893 -0.1748
  154MOL0     C21171   0.935   5.457   8.056  0.0990  0.8009  0.3929
  154MOL0     C21172   0.907   5.382   7.941 -0.1423 -0.3349 -0.3466
  154MOL0     O21173   0.821   5.272   7.953  0.8199 -0.2296  0.2986
  154MOL0     C21174   0.814   5.187   8.075  0.5626 -0.2678  0.6378
  154MOL0     C21175   0.786   5.048   8.036  0.2559  0.5921 -0.3102
  154MOL0     C21176   0.815   4.938   8.137  0.5032 -0.6739  0.3590
  154MOL0     C21177   0.695   4.927   8.230  0.3265 -0.3137  0.9011
  154MOL0     C21178   0.703   4.788   8.286  0.1369 -0.2105  0.5223
  154MOL0     C21179   0.716   4.670   8.317 -0.4966 -0.5020  0.3410
  154MOL0     C21180   0.963   5.436   7.823  0.2198 -0.1888  0.2550
  154MOL0     C21181   1.049   5.545   7.822 -0.2800 -0.1307 -0.5080
  154MOL0     C21182   1.101   5.579   7.683 -0.2788  0.0714 -0.6971
  154MOL0     H21183   1.506   5.717   8.010  1.2582  0.0428  2.6200
  154MOL0     H21184   1.695   5.895   8.036 -1.2051  2.6097 -1.8238
  154MOL0     H21185   1.774   6.289   8.174 -0.1768 -0.8785  0.8917
  154MOL0     H21186   1.617   6.265   8.256 -0.1660  2.3439  0.4153
  154MOL0     H21187   1.500   6.283   8.052  0.0838 -3.3938  1.8647
  154MOL0     H21188   1.605   6.423   8.086 -0.0337 -0.1774 -2.8245
  154MOL0     H21189   1.696   6.192   7.899  0.2001  0.6801  1.8472
  154MOL0     H21190   1.625   6.345   7.843  2.9180  2.2526 -1.1848
  154MOL0     H21191   1.815   6.476   7.888 -5.6012 -0.4238 -2.4114
  154MOL0     H21192   1.879   6.362   8.001  0.8077  1.9165 -1.0422
  154MOL0     H21193   1.868   6.250   7.728 -0.4744  0.4931  0.6219
  154MOL0     H21194   1.966   6.226   7.867  1.2814  0.5203  0.8183
  154MOL0     H21195   1.989   6.507   7.753 -2.8567 -0.6381  0.3537
  154MOL0     H21196   2.112   6.397   7.829  0.9724  0.5918 -1.5084
  154MOL0     H21197   2.034   6.345   7.546 -0.7864 -2.3084  0.5491
  154MOL0     H21198   2.154   6.265   7.653 -0.1502 -0.4885  0.4266
  154MOL0     H21199   2.154   6.558   7.573 -1.2988  0.9258  4.3544
  154MOL0     H21200   2.264   6.485   7.692  1.0897  1.8575 -0.1664
  154MOL0     H21201   2.187   6.436   7.324 -1.7504 -1.7680  2.0372
  154MOL0     H21202   2.304   6.254   7.142  0.9854  0.9687  0.7136
  154MOL0     H21203   2.457   6.197   7.183 -1.3646 -1.5965 -3.5684
  154MOL0     H21204   2.509   6.480   7.168  0.9057  0.4112 -0.2174
  154MOL0     H21205   2.580   6.356   7.081  0.3283  2.2912 -2.3642
  154MOL0     H21206   2.366   6.371   6.911 -0.5970 -0.7520  1.3441
  154MOL0     H21207   2.305   6.490   7.013 -0.3407 -0.0737 -2.4060
  154MOL0     H21208   2.430   6.608   6.827 -1.4414  0.2579  1.7385
  154MOL0     H21209   2.506   6.642   6.976  1.7613  1.4205 -1.0442
  154MOL0     H21210   2.827   6.448   6.829  2.6235  1.8615 -1.8157
  154MOL0     H21211   3.032   6.391   6.587 -0.2842  3.0046  3.5197
  154MOL0     H21212   2.976   6.213   6.627  1.2819 -1.0477  1.3542
  154MOL0     H21213   2.998   6.347   6.750 -1.9650 -1.4724  0.4905
  154MOL0     H21214   2.823   6.308   6.090 -0.9609 -0.8750  0.5218
  154MOL0     H21215   2.853   6.184   5.885  2.1074 -3.6974 -1.0058
  154MOL0     H21216   2.925   5.971   5.770 -1.6656  2.2643  2.6925
  154MOL0     H21217   2.884   5.817   5.862 -2.1238 -0.6303  0.9959
  154MOL0     H21218   2.812   5.887   5.583 -0.7845 -0.0136  1.3951
  154MOL0     H21219   2.920   5.765   5.614 -0.5662 -0.7965 -0.1847
  154MOL0     H21220   2.717   5.676   5.562 -2.7948 -1.6074  0.9761
  154MOL0     H21221   2.636   5.770   5.682 -2.2480 -2.8769 -0.1280
  154MOL0     H21222   2.753   5.646   5.869  1.4672  3.4929 -1.6077
  154MOL0     H21223   2.833   5.548   5.740  1.6751  0.6633  0.3466
  154MOL0     H21224   2.621   5.452   5.681 -1.4375  1.0169 -2.0561
  154MOL0     H21225   2.649   5.433   5.848 -1.8877 -1.3997 -0.7694
  154MOL0     H21226   2.452   5.649   5.764  0.0993 -0.2423 -0.2212
  154MOL0     H21227   2.508   5.609   5.922  1.9803 -0.3951 -0.3569
  154MOL0     H21228   2.293   5.496   5.869  0.9860  2.0961  1.2823
  154MOL0     H21229   2.410   5.367   5.882  0.7271 -0.1450 -0.8933
  154MOL0     H21230   2.425   5.452   5.602  0.5297 -1.1905  0.3221
  154MOL0     H21231   2.253   5.427   5.634 -1.8294 -3.5138  1.1432
  154MOL0     H21232   2.617   5.867   6.032  1.7044 -2.0451  0.8833
  154MOL0     H21233   2.594   5.997   6.258  0.0220 -2.2666 -0.7891
  154MOL0     H21234   2.537   6.362   6.440 -0.6152  0.4805  0.8909
  154MOL0     H21235   2.452   6.468   6.644  1.0978  0.6614  3.4499
  154MOL0     H21236   1.419   6.143   8.237  0.1577  0.7875 -1.4270
  154MOL0     H21237   1.239   5.970   8.221 -0.4856 -1.1630 -0.6612
  154MOL0     H21238   1.061   5.609   8.156 -4.6201 -1.4755  2.2964
  154MOL0     H21239   0.890   5.410   8.143 -1.9807 -2.3282 -2.1392
  154MOL0     H21240   0.907   5.197   8.131  0.2270  0.9487  1.0052
  154MOL0     H21241   0.736   5.224   8.143  1.0466  0.3650  0.8557
  154MOL0     H21242   0.859   5.030   7.956  1.4623  2.4617  0.2984
  154MOL0     H21243   0.685   5.051   7.995  0.1783  0.5399 -0.1214
  154MOL0     H21244   0.816   4.842   8.085 -4.7638 -1.4499  1.0852
  154MOL0     H21245   0.911   4.961   8.184  1.5950 -1.7969 -1.2478
  154MOL0     H21246   0.601   4.956   8.182  2.3946  2.6048 -1.8345
  154MOL0     H21247   0.712   5.003   8.306  1.1704 -0.0821  0.4968
  154MOL0     H21248   0.734   4.567   8.337 -2.0451 -0.7413  0.6759
  154MOL0     H21249   0.939   5.390   7.727 -0.7708  0.4926  0.1616
  154MOL0     H21250   1.196   5.527   7.671 -1.2348 -2.7600  2.5090
  154MOL0     H21251   1.039   5.551   7.597  2.2392 -2.2414 -1.8963
  154MOL0     H21252   1.111   5.688   7.671  1.0246 -0.0889 -1.1872
  155MOL0     O21253   9.311   6.849   6.905 -0.4940  0.0587  1.0759
  155MOL0     C21254   9.193   6.815   6.902 -0.0658 -0.7194  0.1868
  155MOL0     O21255   9.132   6.768   6.792 -0.5086  0.4031  0.1350
  155MOL0     C21256   9.197   6.780   6.677  1.4550 -0.4396 -1.5533
  155MOL0     C21257   9.184   6.671   6.597 -0.9268  0.8079  1.2135
  155MOL0     C21258   9.253   6.661   6.468  0.4570 -0.1295 -0.6804
  155MOL0     C21259   9.327   6.778   6.421  0.3854  0.1519  0.1074
  155MOL0     O21260   9.413   6.769   6.314  0.5413 -0.5577 -0.2823
  155MOL0     C21261   9.451   6.644   6.267 -0.3644 -0.2873 -0.7917
  155MOL0     C21262   9.538   6.659   6.143 -0.2597 -0.3498  0.9134
  155MOL0     C21263   9.671   6.741   6.178  0.2295 -0.3289 -0.3351
  155MOL0     C21264   9.751   6.757   6.054 -0.2400  0.1367 -0.7103
  155MOL0     C21265   9.892   6.815   6.084  0.2756  0.0398 -0.3163
  155MOL0     C21266   9.937   6.908   5.968 -0.6403 -0.2063 -0.4833
  155MOL0     C21267   9.973   6.836   5.834 -0.4262  0.2674  0.6524
  155MOL0     C21268  10.007   6.920   5.711 -0.0923 -1.1966  0.2609
  155MOL0     N21269  10.114   7.012   5.732 -0.7986 -0.8793  0.1532
  155MOL0     C21270  10.243   6.996   5.745 -0.1216  0.3564  0.6358
  155MOL0     C21271  10.300   7.121   5.782 -0.8129 -0.2171  0.1044
  155MOL0     C21272  10.446   7.148   5.802 -0.6448  0.2924 -0.7085
  155MOL0     C21273  10.504   7.075   5.918  0.2020  0.5539  0.7674
  155MOL0     C21274  10.467   7.127   6.064  0.0407  0.6799  0.4340
  155MOL0     C21275  10.460   7.275   6.082 -0.8884 -0.4664  0.6901
  155MOL0     O21276  10.332   7.334   6.053  0.2575 -0.3896 -0.2570
  155MOL0     C21277  10.236   7.331   6.147  0.0595 -0.6597 -0.3696
  155MOL0     C21278  10.228   7.258   6.277 -0.4178  0.1909 -0.0235
  155MOL0     C21279  10.111   7.241   6.351 -1.3237  1.1615  0.1944
  155MOL0     C21280  10.112   7.128   6.447 -0.1999  0.2914 -0.4621
  155MOL0     C21281   9.995   7.310   6.308 -0.2588 -0.7675  0.8888
  155MOL0     C21282   9.873   7.294   6.381  0.6407  0.1830 -0.0804
  155MOL0     O21283   9.769   7.375   6.342 -0.4512  0.4945 -0.2490
  155MOL0     C21284   9.670   7.416   6.425  0.2750 -0.8124  0.0583
  155MOL0     C21285   9.639   7.380   6.556 -0.4553 -0.6441 -1.0561
  155MOL0     C21286   9.537   7.445   6.628  1.0113 -0.8435  0.1509
  155MOL0     C21287   9.453   7.537   6.574  0.5009 -0.5624 -0.2554
  155MOL0     O21288   9.363   7.592   6.662 -0.2954 -0.7507 -0.0245
  155MOL0     C21289   9.258   7.699   6.627 -0.2511  0.2923  0.4687
  155MOL0     C21290   9.309   7.837   6.680  1.2472  0.4539  1.7669
  155MOL0     C21291   9.200   7.923   6.729  0.2636 -0.5225 -0.1763
  155MOL0     C21292   9.097   7.951   6.617 -0.0977 -0.1537  0.5860
  155MOL0     C21293   8.970   8.031   6.668  0.0160 -0.5874  0.7442
  155MOL0     C21294   8.857   8.061   6.571  0.0269 -0.1039 -0.0004
  155MOL0     C21295   8.789   7.937   6.531  0.1376  0.5295 -0.4751
  155MOL0     C21296   8.673   7.958   6.433 -0.3598 -0.2571 -0.8495
  155MOL0    Cl21297   8.570   7.807   6.434  0.2118 -0.3639 -0.0910
  155MOL0     C21298   9.486   7.583   6.448 -0.3546  0.0057 -0.3129
  155MOL0     C21299   9.584   7.518   6.369 -0.5523  0.4185 -0.1809
  155MOL0     O21300   9.856   7.206   6.470 -0.8164 -0.6522  0.2831
  155MOL0     C21301  10.001   7.395   6.191 -0.7618  0.2141  0.2748
  155MOL0     C21302  10.120   7.405   6.111  1.0691 -0.9626 -0.1099
  155MOL0     N21303  10.203   7.212   5.773  0.2959 -0.4275  0.3566
  155MOL0     N21304  10.091   7.145   5.749  0.7747  0.7501 -0.2645
  155MOL0     C21305   9.322   6.892   6.493  0.0751 -0.1964 -0.4666
  155MOL0     C21306   9.254   6.897   6.627 -0.6299  0.0150 -0.1495
  155MOL0     C21307   9.130   6.776   7.029 -0.3843 -1.2341 -0.0885
  155MOL0     C21308   9.071   6.646   7.047 -0.0680 -0.1625 -0.7428
  155MOL0     C21309   9.026   6.602   7.173  0.1441 -0.1682 -0.9586
  155MOL0     C21310   9.032   6.691   7.285 -0.1310 -1.4495 -0.4139
  155MOL0     O21311   9.000   6.668   7.420 -0.2659  0.6494 -0.0779
  155MOL0     C21312   8.919   6.544   7.442  0.0342  0.5214 -0.0048
  155MOL0     C21313   8.766   6.564   7.401  0.3254 -0.0664 -0.2531
  155MOL0     C21314   8.699   6.423   7.368  0.6497 -0.3497  1.2802
  155MOL0     C21315   8.573   6.401   7.451 -0.3311 -0.2802  0.7136
  155MOL0     C21316   8.489   6.329   7.378 -1.0689 -0.0398 -0.2430
  155MOL0     C21317   8.393   6.287   7.313  0.7784  0.0651 -1.1075
  155MOL0     C21318   9.077   6.825   7.268 -0.2875  0.5279  0.2470
  155MOL0     C21319   9.130   6.863   7.142  0.1744 -0.1382 -0.3346
  155MOL0     C21320   9.193   6.993   7.122  0.2748 -0.3724  0.1315
  155MOL0     H21321   9.129   6.579   6.615 -1.6330  1.5259  2.8955
  155MOL0     H21322   9.245   6.569   6.411  2.5359 -0.4699 -0.4953
  155MOL0     H21323   9.360   6.596   6.229  0.1290  0.6193 -3.2533
  155MOL0     H21324   9.504   6.581   6.339  0.9162  1.9748  0.3346
  155MOL0     H21325   9.560   6.561   6.099 -1.5454 -1.3017  2.2847
  155MOL0     H21326   9.482   6.716   6.069 -0.7650  0.3802  1.8279
  155MOL0     H21327   9.655   6.840   6.222  2.4205  0.8946 -2.0839
  155MOL0     H21328   9.726   6.697   6.262 -3.9581  1.3732  3.7524
  155MOL0     H21329   9.760   6.665   5.994 -1.8614  0.9408 -2.2878
  155MOL0     H21330   9.703   6.825   5.983  0.9469 -2.7236 -4.6144
  155MOL0     H21331   9.971   6.741   6.098  2.5916  1.9936 -2.2168
  155MOL0     H21332   9.888   6.869   6.178  2.1028  0.1473 -0.2711
  155MOL0     H21333   9.862   6.985   5.948  0.8039  0.7194 -2.8272
  155MOL0     H21334  10.024   6.959   6.011 -0.9311 -0.9431  1.0354
  155MOL0     H21335   9.891   6.768   5.812  1.3206 -1.3713 -1.1945
  155MOL0     H21336  10.056   6.768   5.855 -0.3467 -0.6599 -2.2091
  155MOL0     H21337  10.015   6.848   5.629 -2.8120 -0.2859 -0.9133
  155MOL0     H21338   9.918   6.983   5.701 -0.8906 -2.1446  1.0935
  155MOL0     H21339  10.294   6.900   5.741 -1.1531 -0.1719 -1.8554
  155MOL0     H21340  10.458   7.256   5.819 -0.8231 -0.0612  2.2099
  155MOL0     H21341  10.490   7.117   5.707  0.4633 -0.4472  0.0262
  155MOL0     H21342  10.486   6.967   5.918 -0.0854  0.6005  1.2249
  155MOL0     H21343  10.611   7.091   5.908  0.3298 -1.0906 -1.2178
  155MOL0     H21344  10.368   7.094   6.098 -1.0292  1.6440 -1.5046
  155MOL0     H21345  10.545   7.089   6.130 -0.0019  1.1430  0.7544
  155MOL0     H21346  10.487   7.308   6.183 -1.1285 -0.7627  0.8514
  155MOL0     H21347  10.532   7.320   6.013 -0.8243 -1.0445  0.3711
  155MOL0     H21348  10.323   7.207   6.289 -0.9942 -0.5943  1.3879
  155MOL0     H21349  10.078   7.145   6.550  2.5488 -1.6938  0.9173
  155MOL0     H21350  10.218   7.100   6.451  0.7542  3.5789  0.9616
  155MOL0     H21351  10.056   7.041   6.411 -2.0597  0.6563  1.3787
  155MOL0     H21352   9.689   7.312   6.624 -3.5375 -0.6381  1.4553
  155MOL0     H21353   9.516   7.432   6.734 -1.3779  2.0120  0.1630
  155MOL0     H21354   9.243   7.709   6.519  2.0419 -0.9732 -0.0345
  155MOL0     H21355   9.167   7.668   6.678 -0.5230  0.3550  0.0265
  155MOL0     H21356   9.369   7.804   6.766  0.8901 -0.6401  1.6087
  155MOL0     H21357   9.364   7.893   6.604 -0.3452 -0.3963 -0.0844
  155MOL0     H21358   9.240   8.018   6.767  0.7767 -0.2568 -1.3308
  155MOL0     H21359   9.147   7.862   6.803  0.3145 -2.0148 -1.3277
  155MOL0     H21360   9.061   7.854   6.582  3.2164 -1.4094  0.2113
  155MOL0     H21361   9.145   8.011   6.539  2.7193 -0.8716  1.6507
  155MOL0     H21362   8.922   7.982   6.754 -0.8810  0.2344  0.7205
  155MOL0     H21363   9.005   8.131   6.697  0.7931  0.1339 -2.3624
  155MOL0     H21364   8.894   8.111   6.481 -2.5544 -0.5263 -1.4004
  155MOL0     H21365   8.801   8.133   6.632 -0.7689  1.2593 -2.2160
  155MOL0     H21366   8.765   7.880   6.621  2.3596  0.5281  0.1946
  155MOL0     H21367   8.852   7.880   6.462 -0.0908  0.2447 -0.4492
  155MOL0     H21368   8.723   7.977   6.338 -3.9869 -1.2941 -3.1751
  155MOL0     H21369   8.609   8.042   6.464 -0.9206 -0.4494 -1.4673
  155MOL0     H21370   9.434   7.668   6.405 -0.3063  0.8417  1.2215
  155MOL0     H21371   9.613   7.551   6.269  3.8651  2.6509  1.5607
  155MOL0     H21372   9.915   7.456   6.164 -1.4614 -1.5200 -1.6567
  155MOL0     H21373  10.111   7.458   6.017 -0.3647 -0.9188  0.0333
  155MOL0     H21374   9.382   6.981   6.479 -0.2548 -0.0215 -0.7851
  155MOL0     H21375   9.237   6.991   6.678 -1.6406 -0.5697  0.6400
  155MOL0     H21376   9.069   6.574   6.965  1.1809 -1.3359  0.2168
  155MOL0     H21377   8.974   6.508   7.189 -0.4435  0.4926  1.4515
  155MOL0     H21378   8.975   6.453   7.419 -1.9928 -1.1938  1.5160
  155MOL0     H21379   8.920   6.542   7.551 -1.8176  0.8588  0.0538
  155MOL0     H21380   8.755   6.635   7.319 -2.8934  1.4243  1.2659
  155MOL0     H21381   8.714   6.612   7.485 -2.3710  0.3695 -2.0603
  155MOL0     H21382   8.668   6.434   7.263 -1.8067 -1.9338  1.7651
  155MOL0     H21383   8.757   6.330   7.380  0.6480 -0.3010  1.6799
  155MOL0     H21384   8.518   6.494   7.470 -3.1276 -1.5236 -0.6542
  155MOL0     H21385   8.595   6.348   7.544 -1.5093  1.5243  2.0930
  155MOL0     H21386   8.320   6.242   7.248 -0.0019  0.8887 -0.8204
  155MOL0     H21387   9.091   6.905   7.339 -0.2494  0.0318  0.8022
  155MOL0     H21388   9.200   7.044   7.218  2.5413 -2.2347  1.0681
  155MOL0     H21389   9.299   6.990   7.096  1.2770  0.6708  3.5838
  155MOL0     H21390   9.140   7.055   7.049 -0.6288  0.1506  1.2133
  156MOL0     O21391   0.185   7.871   0.204 -0.2901 -0.2352  0.3470
  156MOL0     C21392   0.225   7.761   0.234  1.0332 -0.8948 -0.9078
  156MOL0     O21393   0.268   7.665   0.149 -0.0478  0.3451 -0.3762
  156MOL0     C21394   0.273   7.677   0.012  0.1669 -0.0049  0.0681
  156MOL0     C21395   0.313   7.797  -0.044 -0.3362  0.1166 -0.9432
  156MOL0     C21396   0.310   7.816  -0.179 -0.5525 -0.8831 -0.7866
  156MOL0     C21397   0.264   7.705  -0.256  0.1832 -0.4175  0.3638
  156MOL0     O21398   0.257   7.709  -0.395 -0.2182 -0.0061 -0.7318
  156MOL0     C21399   0.337   7.609  -0.464  0.3841 -0.1456  0.4758
  156MOL0     C21400   0.480   7.616  -0.417  0.2026  0.3640 -0.0828
  156MOL0     C21401   0.568   7.519  -0.499  0.1321  0.4370 -0.9238
  156MOL0     C21402   0.704   7.554  -0.440 -0.5791  0.5029 -0.2125
  156MOL0     C21403   0.810   7.468  -0.508 -0.7438  0.4738 -0.5217
  156MOL0     C21404   0.945   7.533  -0.510  0.2114  0.4444 -0.5825
  156MOL0     C21405   1.044   7.448  -0.592 -0.4931  0.4058 -0.1539
  156MOL0     C21406   1.191   7.509  -0.576  0.0425  0.0601 -0.2293
  156MOL0     N21407   1.227   7.624  -0.667  0.3143 -0.3085 -0.1209
  156MOL0     C21408   1.194   7.756  -0.627 -0.9000  0.1253  0.9095
  156MOL0     C21409   1.236   7.825  -0.738  0.7226 -0.1536 -0.8545
  156MOL0     C21410   1.238   7.976  -0.746  0.7480 -0.7726 -0.3225
  156MOL0     C21411   1.374   8.032  -0.702  0.3977  0.8009 -0.4152
  156MOL0     C21412   1.375   8.180  -0.697 -0.1547  0.7054  0.0472
  156MOL0     C21413   1.519   8.226  -0.658  0.4802  0.5750 -1.5086
  156MOL0     O21414   1.581   8.260  -0.775  0.1287  0.0828 -0.8111
  156MOL0     C21415   1.711   8.301  -0.775  0.1659 -0.9637  0.4704
  156MOL0     C21416   1.780   8.301  -0.899  0.7423  0.7066 -0.7417
  156MOL0     C21417   1.909   8.355  -0.913  0.8769 -0.1975  0.4750
  156MOL0     C21418   1.966   8.351  -1.052 -0.2869  0.2201 -0.5957
  156MOL0     C21419   1.966   8.430  -0.802  0.1433 -0.5368 -0.1301
  156MOL0     C21420   2.099   8.496  -0.815 -0.1799 -0.9627 -0.6270
  156MOL0     O21421   2.196   8.435  -0.883  0.2157  0.1480 -0.2878
  156MOL0     C21422   2.325   8.489  -0.875 -0.4556  0.4939 -1.0834
  156MOL0     C21423   2.398   8.503  -0.759  0.6631 -0.2735  0.4363
  156MOL0     C21424   2.513   8.576  -0.751  0.6832 -0.2603  0.3667
  156MOL0     C21425   2.574   8.625  -0.868  0.1470 -0.1188 -0.2684
  156MOL0     O21426   2.701   8.676  -0.882 -0.1674  0.0342  0.0806
  156MOL0     C21427   2.740   8.760  -0.773  0.8732 -0.0616  0.6799
  156MOL0     C21428   2.785   8.894  -0.826 -0.1451 -0.2278  0.3902
  156MOL0     C21429   2.672   8.951  -0.909 -0.0292  0.4728 -0.6239
  156MOL0     C21430   2.710   9.085  -0.981 -0.1270  0.4653  0.6832
  156MOL0     C21431   2.586   9.179  -1.016 -0.1950 -0.1186 -0.2272
  156MOL0     C21432   2.530   9.116  -1.147 -0.1914 -0.0918  1.0749
  156MOL0     C21433   2.385   9.176  -1.153 -1.0069  0.0485  0.8509
  156MOL0     C21434   2.294   9.142  -1.276 -0.5119 -0.6418  0.6550
  156MOL0    Cl21435   2.297   8.973  -1.298 -0.2318 -0.1265 -0.0381
  156MOL0     C21436   2.500   8.612  -0.986  0.4507  0.1308  0.9635
  156MOL0     C21437   2.376   8.554  -0.989  0.0255  0.3272 -0.0446
  156MOL0     O21438   2.103   8.609  -0.770  0.1809  0.5878  0.1428
  156MOL0     C21439   1.902   8.423  -0.674  0.2313  0.2513  0.3912
  156MOL0     C21440   1.778   8.364  -0.663  0.0413 -0.5701  0.6985
  156MOL0     N21441   1.288   7.742  -0.835 -0.5150  0.0098 -0.0889
  156MOL0     N21442   1.265   7.618  -0.797 -0.2934  0.2956 -0.3499
  156MOL0     C21443   0.218   7.582  -0.203 -0.2376  0.2999  0.3872
  156MOL0     C21444   0.240   7.571  -0.066  0.4263  0.7304  0.9745
  156MOL0     C21445   0.251   7.744   0.373  0.2667 -1.4673  0.6957
  156MOL0     C21446   0.356   7.657   0.405 -0.6393 -0.3505  0.0411
  156MOL0     C21447   0.394   7.626   0.537  0.2039 -0.5780 -0.9302
  156MOL0     C21448   0.315   7.676   0.642 -0.0581  0.5068 -0.1224
  156MOL0     O21449   0.360   7.635   0.760  0.7330 -0.1583 -0.0817
  156MOL0     C21450   0.265   7.599   0.861 -0.0820  0.0940  0.7746
  156MOL0     C21451   0.328   7.571   0.998 -1.6731  0.7594  0.0117
  156MOL0     C21452   0.240   7.474   1.078 -0.4969  0.3893  0.1222
  156MOL0     C21453   0.301   7.439   1.211  0.8145  0.4947  0.1571
  156MOL0     C21454   0.411   7.342   1.194 -1.7019  0.9249  0.1249
  156MOL0     C21455   0.501   7.267   1.168  0.3227 -0.0098  0.3101
  156MOL0     C21456   0.207   7.754   0.611 -0.0267 -0.9847 -0.6088
  156MOL0     C21457   0.165   7.780   0.481  0.0751 -0.7351 -0.4665
  156MOL0     C21458   0.045   7.865   0.473 -0.1803 -0.2029  0.8032
  156MOL0     H21459   0.353   7.878   0.016 -1.3239  0.4360 -0.6944
  156MOL0     H21460   0.346   7.905  -0.230  0.3418 -0.6964  0.1457
  156MOL0     H21461   0.322   7.615  -0.572 -1.6830 -0.2375  0.7330
  156MOL0     H21462   0.304   7.510  -0.429 -0.7874 -0.5271 -1.5110
  156MOL0     H21463   0.503   7.719  -0.445  1.0636 -0.1315 -1.3008
  156MOL0     H21464   0.488   7.597  -0.310 -1.0070 -0.1731 -0.0678
  156MOL0     H21465   0.536   7.415  -0.487  0.9975  0.2981  0.3726
  156MOL0     H21466   0.563   7.530  -0.608  0.8087 -3.1073 -1.4143
  156MOL0     H21467   0.720   7.661  -0.456  3.1452  0.2243  0.6295
  156MOL0     H21468   0.711   7.536  -0.332 -2.1687 -2.4052 -0.4706
  156MOL0     H21469   0.787   7.450  -0.613 -1.7634 -0.7710 -0.1166
  156MOL0     H21470   0.829   7.371  -0.462  0.0468 -0.0384 -1.8981
  156MOL0     H21471   0.930   7.630  -0.558  1.2271 -0.4134 -2.7773
  156MOL0     H21472   0.992   7.559  -0.415  3.4491 -0.2461 -1.8633
  156MOL0     H21473   1.020   7.452  -0.698 -4.5847  2.8918  0.6184
  156MOL0     H21474   1.035   7.342  -0.567 -1.3262  0.4516 -0.2334
  156MOL0     H21475   1.200   7.530  -0.469 -4.3485 -4.5599  1.4525
  156MOL0     H21476   1.265   7.431  -0.595 -0.4265 -0.8405  1.3955
  156MOL0     H21477   1.154   7.786  -0.532  0.8896 -4.8972  3.6506
  156MOL0     H21478   1.150   8.019  -0.698  2.5794  2.7743  0.1750
  156MOL0     H21479   1.220   8.014  -0.848  0.3868  0.7676  0.2836
  156MOL0     H21480   1.409   7.989  -0.607  0.5725  1.0579 -0.3630
  156MOL0     H21481   1.444   7.993  -0.777  1.5651 -0.2554  1.1265
  156MOL0     H21482   1.333   8.232  -0.783 -0.2083  3.6125  1.6923
  156MOL0     H21483   1.323   8.209  -0.605 -0.9655 -0.4925 -0.0210
  156MOL0     H21484   1.519   8.324  -0.611  0.7045  2.5594 -5.2996
  156MOL0     H21485   1.570   8.169  -0.580 -0.2748  1.7998 -0.0578
  156MOL0     H21486   1.729   8.259  -0.985  0.7996 -1.7794  0.3313
  156MOL0     H21487   1.887   8.370  -1.126  0.6537 -0.2083 -1.7324
  156MOL0     H21488   2.019   8.258  -1.076  0.5483  0.6075 -0.2890
  156MOL0     H21489   2.040   8.430  -1.065  1.0846 -0.7743  0.7719
  156MOL0     H21490   2.353   8.487  -0.661 -1.7960  0.0911 -0.5784
  156MOL0     H21491   2.564   8.583  -0.655  1.0599 -0.1858  0.1603
  156MOL0     H21492   2.657   8.772  -0.703  1.1345 -1.7743  1.3262
  156MOL0     H21493   2.825   8.707  -0.729  1.4553 -0.9762 -1.4134
  156MOL0     H21494   2.800   8.949  -0.733  1.6189 -1.2027  0.7226
  156MOL0     H21495   2.877   8.880  -0.882 -2.1566 -0.6578 -3.0746
  156MOL0     H21496   2.592   8.975  -0.838  1.5354  2.5168  0.5683
  156MOL0     H21497   2.657   8.874  -0.985 -0.4466  0.6535 -0.7285
  156MOL0     H21498   2.789   9.070  -1.056  3.0457  1.1218  3.6064
  156MOL0     H21499   2.766   9.151  -0.913  1.1300 -0.0147  0.1399
  156MOL0     H21500   2.520   9.163  -0.931  3.3933 -3.5192  2.2700
  156MOL0     H21501   2.615   9.284  -1.028  0.4807 -0.3321 -0.5276
  156MOL0     H21502   2.525   9.007  -1.137 -1.9459 -0.0417  0.9492
  156MOL0     H21503   2.583   9.135  -1.241 -2.0720 -2.1003 -0.5152
  156MOL0     H21504   2.385   9.285  -1.149 -2.6299  0.2353 -1.7148
  156MOL0     H21505   2.332   9.125  -1.072 -0.1088 -1.9613  0.2521
  156MOL0     H21506   2.328   9.187  -1.370  1.8838 -1.9189  0.8481
  156MOL0     H21507   2.194   9.182  -1.257  0.0770  1.5529 -0.4706
  156MOL0     H21508   2.540   8.646  -1.081 -1.3364  0.4430  0.2777
  156MOL0     H21509   2.319   8.550  -1.081 -0.3968  0.4280  0.2066
  156MOL0     H21510   1.950   8.479  -0.595 -0.1696 -0.6247  1.2724
  156MOL0     H21511   1.745   8.354  -0.560 -0.7995 -0.5047  0.4415
  156MOL0     H21512   0.178   7.495  -0.254  0.5144 -0.9345  1.8052
  156MOL0     H21513   0.211   7.477  -0.021  2.1554 -0.1900  0.2574
  156MOL0     H21514   0.413   7.611   0.325 -0.2540 -2.3779  1.4016
  156MOL0     H21515   0.475   7.564   0.573 -0.2798  0.0410  1.4003
  156MOL0     H21516   0.197   7.683   0.879 -0.4080 -0.5271  2.8045
  156MOL0     H21517   0.208   7.516   0.820 -2.5087  1.7424  0.5865
  156MOL0     H21518   0.350   7.662   1.055  1.6586  0.0104  0.1241
  156MOL0     H21519   0.422   7.517   0.982 -1.3222  1.2866  0.2350
  156MOL0     H21520   0.142   7.517   1.102 -0.7651 -1.5151  3.0592
  156MOL0     H21521   0.218   7.382   1.023  1.4751 -0.9341  1.3977
  156MOL0     H21522   0.219   7.409   1.277  1.2647 -1.9201 -0.3048
  156MOL0     H21523   0.333   7.530   1.263 -0.7781  2.0106 -1.3719
  156MOL0     H21524   0.573   7.193   1.139 -2.1135 -2.1863 -0.6302
  156MOL0     H21525   0.150   7.799   0.691 -0.1888 -1.0709 -0.6758
  156MOL0     H21526  -0.010   7.884   0.566  0.3211  0.9028  0.8910
  156MOL0     H21527   0.080   7.964   0.442  0.2789 -0.2260  1.2327
  156MOL0     H21528  -0.026   7.830   0.397 -0.2251  2.4631 -0.4968
  157MOL0     O21529   1.227   5.151   1.096 -0.3098 -0.0269 -0.2734
  157MOL0     C21530   1.179   5.264   1.098 -0.5188  0.3542 -0.9270
  157MOL0     O21531   1.241   5.365   1.035 -0.4409 -0.2069 -0.3346
  157MOL0     C21532   1.372   5.348   0.992 -0.3620  0.8437 -0.5637
  157MOL0     C21533   1.473   5.329   1.089  0.0237 -0.7629 -0.6880
  157MOL0     C21534   1.606   5.313   1.038 -0.0905 -1.1116 -0.4590
  157MOL0     C21535   1.635   5.322   0.904 -0.0062  0.3828 -0.2086
  157MOL0     O21536   1.768   5.303   0.866 -0.3078  0.0921  0.1040
  157MOL0     C21537   1.806   5.271   0.733 -0.9866  0.3752 -0.2966
  157MOL0     C21538   1.959   5.283   0.754  0.5309  0.3114  0.0100
  157MOL0     C21539   2.056   5.283   0.643  0.9509  0.3122 -0.3104
  157MOL0     C21540   2.203   5.293   0.676  0.4093  0.3735 -1.4920
  157MOL0     C21541   2.261   5.424   0.697 -0.0803  0.5953 -0.4710
  157MOL0     C21542   2.410   5.415   0.729 -0.1154  0.7260  0.5763
  157MOL0     C21543   2.458   5.560   0.755  0.6952  0.8871  0.0606
  157MOL0     C21544   2.422   5.599   0.901  0.2462 -0.5911 -0.0621
  157MOL0     N21545   2.478   5.736   0.929 -0.4520 -0.6264 -0.1206
  157MOL0     C21546   2.414   5.819   1.025 -1.1471  0.3971 -0.2404
  157MOL0     C21547   2.519   5.899   1.077 -0.2112 -0.0203  0.5329
  157MOL0     C21548   2.518   5.985   1.192  0.4263 -1.0341  0.5709
  157MOL0     C21549   2.560   6.132   1.157 -0.1379 -0.0625 -0.7134
  157MOL0     C21550   2.586   6.229   1.292  0.0248 -0.8769 -0.1345
  157MOL0     C21551   2.463   6.282   1.370  0.1467  0.4690  0.1326
  157MOL0     O21552   2.356   6.286   1.274  0.6113 -0.1422 -0.1574
  157MOL0     C21553   2.243   6.351   1.301  0.1852 -0.4785 -0.0815
  157MOL0     C21554   2.181   6.344   1.428 -0.1581 -0.0714  0.4339
  157MOL0     C21555   2.057   6.418   1.450 -0.2307  0.2149  0.6007
  157MOL0     C21556   2.000   6.413   1.594  0.1651  0.4054  0.1245
  157MOL0     C21557   2.005   6.496   1.343 -0.1668  0.1073  0.3410
  157MOL0     C21558   1.879   6.580   1.352  1.0600  1.0617  0.0061
  157MOL0     O21559   1.895   6.705   1.403  1.1747  0.1433  0.0337
  157MOL0     C21560   1.779   6.775   1.410  0.4652 -0.0919 -0.1959
  157MOL0     C21561   1.675   6.749   1.503  0.5202 -0.4376 -0.0160
  157MOL0     C21562   1.567   6.837   1.506  0.4391 -0.6938  1.5683
  157MOL0     C21563   1.557   6.938   1.414  1.2935  0.3633 -0.4481
  157MOL0     O21564   1.442   7.012   1.389 -0.9151  0.8085  0.5034
  157MOL0     C21565   1.318   6.978   1.448 -0.3218  0.3443 -0.3770
  157MOL0     C21566   1.220   7.096   1.408 -0.0399  0.9274 -0.0346
  157MOL0     C21567   1.255   7.220   1.491  0.1467  0.3183  0.2273
  157MOL0     C21568   1.208   7.354   1.434 -0.5446  0.0281 -0.0299
  157MOL0     C21569   1.249   7.464   1.534  0.1684  0.4926  0.0286
  157MOL0     C21570   1.147   7.502   1.639 -0.3039  0.1829 -0.0088
  157MOL0     C21571   1.186   7.622   1.722 -0.0023  0.1756  0.3976
  157MOL0     C21572   1.105   7.641   1.846 -0.3348  0.2402 -0.7650
  157MOL0    Cl21573   0.933   7.672   1.786 -0.5163 -0.1557 -0.4290
  157MOL0     C21574   1.656   6.955   1.321 -0.7169 -0.8067 -0.1855
  157MOL0     C21575   1.773   6.880   1.322  0.6617  0.4701  1.0015
  157MOL0     O21576   1.771   6.536   1.307  0.0169 -0.4472 -0.0243
  157MOL0     C21577   2.059   6.484   1.217  0.0267 -0.5908  1.2947
  157MOL0     C21578   2.173   6.406   1.194  0.3734 -0.6045 -0.4710
  157MOL0     N21579   2.639   5.856   1.011  0.6554  0.0873  0.1228
  157MOL0     N21580   2.613   5.767   0.924 -1.0188 -0.2426 -0.4944
  157MOL0     C21581   1.531   5.350   0.813 -0.7754  0.1761 -0.5893
  157MOL0     C21582   1.404   5.367   0.858  0.3179  0.7073  0.3836
  157MOL0     C21583   1.054   5.278   1.164 -0.6785  0.2425 -0.5971
  157MOL0     C21584   1.028   5.200   1.273  0.0662 -0.3740  0.5265
  157MOL0     C21585   0.916   5.206   1.353  0.2127 -0.1794 -0.9705
  157MOL0     C21586   0.820   5.301   1.344  0.6521 -0.3695 -0.4404
  157MOL0     O21587   0.706   5.319   1.422 -0.0104  0.0672  0.5140
  157MOL0     C21588   0.677   5.204   1.508 -0.0146 -0.6089 -0.2551
  157MOL0     C21589   0.538   5.252   1.561  0.2953  0.3186  0.5499
  157MOL0     C21590   0.464   5.158   1.663 -0.8034  0.4269 -0.5554
  157MOL0     C21591   0.371   5.056   1.606  0.8854  0.4223  0.6953
  157MOL0     C21592   0.450   4.963   1.527 -0.2870  0.0545  0.4813
  157MOL0     C21593   0.502   4.861   1.484 -0.4934  0.3707  0.8883
  157MOL0     C21594   0.838   5.392   1.232  0.1523 -0.2417  1.0074
  157MOL0     C21595   0.957   5.382   1.144  0.9721 -0.3616 -0.1343
  157MOL0     C21596   0.956   5.476   1.029  0.7171  0.8585 -0.3702
  157MOL0     H21597   1.465   5.339   1.197 -0.4933  4.6223 -0.9107
  157MOL0     H21598   1.692   5.299   1.102 -0.9123  1.8757  1.5509
  157MOL0     H21599   1.795   5.344   0.652  1.4759  0.8551 -0.2989
  157MOL0     H21600   1.762   5.174   0.708 -1.4477  0.5109 -0.0234
  157MOL0     H21601   1.983   5.371   0.815 -1.4610 -0.0812  1.4652
  157MOL0     H21602   1.991   5.201   0.818 -2.4407 -1.6118 -0.8109
  157MOL0     H21603   2.041   5.189   0.590  0.9977 -1.0566  1.9492
  157MOL0     H21604   2.018   5.359   0.575 -2.4674 -1.5837 -0.7547
  157MOL0     H21605   2.209   5.225   0.762 -2.7549  0.6416 -0.9320
  157MOL0     H21606   2.262   5.255   0.592 -0.3262 -0.6558 -1.5573
  157MOL0     H21607   2.199   5.478   0.768 -2.4792  1.7085 -3.1767
  157MOL0     H21608   2.247   5.474   0.600  2.0774 -0.3394 -1.3252
  157MOL0     H21609   2.438   5.355   0.816  0.5990  0.6077  0.2677
  157MOL0     H21610   2.465   5.365   0.648 -0.1682 -1.0142  1.5578
  157MOL0     H21611   2.411   5.626   0.681 -2.2311  0.7577  1.6622
  157MOL0     H21612   2.567   5.559   0.747  0.6415  3.2353 -3.1801
  157MOL0     H21613   2.313   5.602   0.916  0.4336  0.8035  1.1624
  157MOL0     H21614   2.445   5.520   0.974 -0.7345  0.9233  1.9710
  157MOL0     H21615   2.312   5.807   1.060 -1.5849 -2.0177 -2.0300
  157MOL0     H21616   2.580   5.958   1.278  5.3446  1.4612 -1.7668
  157MOL0     H21617   2.414   5.980   1.228  0.3164  0.2467  0.4805
  157MOL0     H21618   2.661   6.122   1.116 -0.1993  0.2308 -0.9392
  157MOL0     H21619   2.501   6.185   1.082  0.8709  1.8062 -0.2460
  157MOL0     H21620   2.675   6.204   1.350  3.1356  2.0201 -3.1501
  157MOL0     H21621   2.615   6.326   1.251 -0.5005 -0.4874  0.4019
  157MOL0     H21622   2.456   6.215   1.455 -1.0450  0.7478  0.2682
  157MOL0     H21623   2.483   6.380   1.416 -2.1761  1.1135 -0.1379
  157MOL0     H21624   2.242   6.290   1.501  5.1834  2.9019 -1.2823
  157MOL0     H21625   2.058   6.455   1.677  1.2441 -3.9497  1.8301
  157MOL0     H21626   1.961   6.318   1.631  1.6265  0.3805  1.7392
  157MOL0     H21627   1.914   6.482   1.596 -0.3629  0.1828 -4.2283
  157MOL0     H21628   1.675   6.676   1.584 -2.2435 -0.7695 -0.2208
  157MOL0     H21629   1.494   6.816   1.583 -2.3963  1.6875 -0.2778
  157MOL0     H21630   1.295   6.879   1.408  2.1741 -0.9127  1.0608
  157MOL0     H21631   1.320   6.976   1.557  0.0211  0.6273 -0.3750
  157MOL0     H21632   1.225   7.111   1.299  2.8107  0.2486 -0.0764
  157MOL0     H21633   1.116   7.067   1.426 -0.3081  0.1124 -2.4281
  157MOL0     H21634   1.364   7.221   1.504  0.1827 -1.8152  0.3975
  157MOL0     H21635   1.211   7.208   1.590 -0.5791 -2.3856 -0.3344
  157MOL0     H21636   1.100   7.341   1.419 -0.2541 -6.6754  0.6549
  157MOL0     H21637   1.264   7.370   1.341  3.0321 -1.1041  1.7442
  157MOL0     H21638   1.343   7.432   1.579 -0.3862 -0.5789  0.4358
  157MOL0     H21639   1.256   7.549   1.465 -0.7977 -1.2179 -2.3404
  157MOL0     H21640   1.129   7.407   1.689 -0.0139 -2.0259 -3.7218
  157MOL0     H21641   1.053   7.532   1.592 -0.1339  1.1702  0.2559
  157MOL0     H21642   1.181   7.710   1.657  5.3805  0.0867 -0.5402
  157MOL0     H21643   1.291   7.607   1.745  0.1822 -2.6717 -1.7525
  157MOL0     H21644   1.145   7.723   1.906  1.7140 -1.1266 -0.1261
  157MOL0     H21645   1.105   7.555   1.914  3.3624  0.4633 -0.2398
  157MOL0     H21646   1.656   7.026   1.239  1.9640  1.2365  1.3893
  157MOL0     H21647   1.855   6.922   1.265  0.1064 -0.0437 -0.1994
  157MOL0     H21648   2.014   6.540   1.136  0.4538 -0.6351  1.0199
  157MOL0     H21649   2.220   6.397   1.096 -0.2009 -2.5105 -0.6068
  157MOL0     H21650   1.542   5.355   0.706 -1.1855 -0.2187 -0.6517
  157MOL0     H21651   1.318   5.364   0.792  1.5519 -0.1301 -1.2537
  157MOL0     H21652   1.087   5.111   1.294 -2.6741 -1.9316  2.2705
  157MOL0     H21653   0.915   5.137   1.437  0.6894  1.3027  0.2972
  157MOL0     H21654   0.677   5.105   1.461  0.0320  0.3654 -2.4624
  157MOL0     H21655   0.753   5.208   1.587  0.9024 -2.1800 -0.9993
  157MOL0     H21656   0.461   5.263   1.484 -0.4096 -1.3904  0.9666
  157MOL0     H21657   0.553   5.347   1.614 -0.6271  0.1943  1.0563
  157MOL0     H21658   0.545   5.121   1.727 -1.0491  1.1653  0.1895
  157MOL0     H21659   0.394   5.215   1.724 -0.3473  0.7867 -0.3562
  157MOL0     H21660   0.298   5.107   1.543 -1.2190 -1.9794  1.0152
  157MOL0     H21661   0.315   5.008   1.687 -0.1337  0.8237  0.2416
  157MOL0     H21662   0.555   4.773   1.454 -2.9417 -1.3153  1.1894
  157MOL0     H21663   0.760   5.468   1.223 -0.9436 -1.4495 -0.1793
  157MOL0     H21664   0.996   5.574   1.056  0.0303  2.3491 -4.1811
  157MOL0     H21665   1.026   5.448   0.949 -2.2497  0.8520 -3.1761
  157MOL0     H21666   0.855   5.475   0.985 -0.5397 -3.5518  1.9615
  158MOL0     O21667  11.028  10.603   3.347  0.5381 -0.8962 -0.7825
  158MOL0     C21668  11.149  10.580   3.375  0.9515  0.0199  0.3814
  158MOL0     O21669  11.190  10.521   3.496  0.0270 -0.0932  0.4091
  158MOL0     C21670  11.112  10.502   3.606 -0.6592 -0.4895  0.0248
  158MOL0     C21671  10.980  10.505   3.616  0.5250 -0.2758  0.3100
  158MOL0     C21672  10.919  10.501   3.738  0.2703 -0.8835  0.5829
  158MOL0     C21673  10.985  10.483   3.854 -0.1162  1.2838  0.7154
  158MOL0     O21674  10.919  10.477   3.977  0.2879 -0.2502  0.1538
  158MOL0     C21675  10.778  10.483   4.000  0.3726 -0.1991  0.6662
  158MOL0     C21676  10.765  10.535   4.148  1.0686 -0.2333 -0.2375
  158MOL0     C21677  10.846  10.457   4.252  0.4256 -0.9581 -0.1886
  158MOL0     C21678  10.803  10.312   4.287  0.2038 -0.6667  0.2398
  158MOL0     C21679  10.656  10.304   4.337 -0.0300 -0.5989  2.0087
  158MOL0     C21680  10.623  10.184   4.426 -0.0113 -0.2730 -0.0475
  158MOL0     C21681  10.676  10.051   4.383 -0.7005  1.0546 -0.5875
  158MOL0     C21682  10.575   9.978   4.303  0.5676 -0.4020  0.7233
  158MOL0     N21683  10.563  10.044   4.166 -0.3819 -0.5383 -1.4453
  158MOL0     C21684  10.650  10.034   4.061 -0.4977 -0.5722 -0.5567
  158MOL0     C21685  10.580  10.055   3.951 -0.5531 -0.2226 -0.2604
  158MOL0     C21686  10.638  10.055   3.810  0.0072  0.3929  0.1008
  158MOL0     C21687  10.690  10.191   3.760  0.2340 -0.2426 -0.2715
  158MOL0     C21688  10.665  10.212   3.611 -0.6162  0.6089 -0.5452
  158MOL0     C21689  10.760  10.133   3.526  0.5426  0.0981  0.1349
  158MOL0     O21690  10.735  10.129   3.385  0.3340  0.0981 -0.6625
  158MOL0     C21691  10.602  10.125   3.340 -0.0962  1.1384  0.1310
  158MOL0     C21692  10.507  10.026   3.375  0.9586 -0.2002 -0.6161
  158MOL0     C21693  10.387  10.014   3.311 -0.1821  0.2557  0.7447
  158MOL0     C21694  10.308   9.892   3.349 -0.5334 -0.1655  0.0159
  158MOL0     C21695  10.350  10.101   3.205 -1.1212  0.4753 -0.0638
  158MOL0     C21696  10.220  10.094   3.131  0.3643 -0.6340  0.3829
  158MOL0     O21697  10.187  10.208   3.064  0.3911  0.3464  0.3685
  158MOL0     C21698  10.054  10.224   3.034 -0.5529 -0.4355 -0.5051
  158MOL0     C21699   9.968  10.273   3.125 -0.6173 -0.5630 -0.5848
  158MOL0     C21700   9.830  10.268   3.108 -0.3165  0.5745 -0.1674
  158MOL0     C21701   9.779  10.219   2.992  0.4619  0.1457  0.7431
  158MOL0     O21702   9.650  10.212   2.968  0.6782 -0.5668  0.2555
  158MOL0     C21703   9.549  10.204   3.072  0.4788 -0.0042 -0.5978
  158MOL0     C21704   9.460  10.081   3.064  0.2162  0.5850 -0.2067
  158MOL0     C21705   9.523   9.952   3.113 -0.9160 -0.7145  0.5473
  158MOL0     C21706   9.428   9.835   3.093  1.5850  0.3829 -0.4078
  158MOL0     C21707   9.456   9.701   3.172  0.1947  0.9964  0.7366
  158MOL0     C21708   9.328   9.612   3.182  1.0809 -0.1273  0.0366
  158MOL0     C21709   9.341   9.501   3.289  0.0021  0.3599 -0.4609
  158MOL0     C21710   9.440   9.380   3.258 -1.0864 -0.5767  0.2750
  158MOL0    Cl21711   9.429   9.323   3.095 -0.2903  0.3418 -0.5274
  158MOL0     C21712   9.866  10.181   2.890  0.3603  0.1685  0.1474
  158MOL0     C21713  10.011  10.193   2.909  0.6843  0.3419 -0.4403
  158MOL0     O21714  10.147  10.001   3.143 -0.0678 -0.6387  0.0770
  158MOL0     C21715  10.438  10.208   3.177 -0.6676  0.8893 -0.4481
  158MOL0     C21716  10.563  10.227   3.248  0.7963 -0.0549  0.2073
  158MOL0     N21717  10.454  10.091   3.989 -0.1858 -0.0878 -0.3411
  158MOL0     N21718  10.447  10.100   4.114 -0.5393  0.3950  0.2427
  158MOL0     C21719  11.118  10.491   3.858 -0.1287 -0.1619  0.3432
  158MOL0     C21720  11.185  10.508   3.734  0.2276  0.4054 -0.3843
  158MOL0     C21721  11.264  10.597   3.271  1.0573 -0.1161 -0.0337
  158MOL0     C21722  11.225  10.656   3.144  0.3897 -0.5415  0.1457
  158MOL0     C21723  11.322  10.687   3.047 -0.6200 -0.1546 -0.1793
  158MOL0     C21724  11.456  10.661   3.068 -0.3947 -0.4301  0.1010
  158MOL0     O21725  11.561  10.672   2.981 -0.3306 -0.2802 -0.3873
  158MOL0     C21726  11.535  10.747   2.866 -0.3371  0.2697  0.1081
  158MOL0     C21727  11.663  10.777   2.789  0.7666  1.0457 -0.1936
  158MOL0     C21728  11.759  10.872   2.872  0.0461 -0.1112 -0.3952
  158MOL0     C21729  11.884  10.901   2.802 -0.2442 -0.0402  0.1287
  158MOL0     C21730  11.968  10.975   2.890  0.0112 -0.3567  0.6505
  158MOL0     C21731  12.048  11.016   2.967 -0.3915  0.7038 -0.1452
  158MOL0     C21732  11.490  10.606   3.194 -0.0690  0.3712  0.0134
  158MOL0     C21733  11.403  10.580   3.304  0.2623 -0.3004 -0.4874
  158MOL0     C21734  11.468  10.517   3.430  0.2040  0.2466  0.4586
  158MOL0     H21735  10.914  10.497   3.530  3.2112  0.4472 -1.9482
  158MOL0     H21736  10.811  10.493   3.736  0.1391  0.7129 -1.3600
  158MOL0     H21737  10.742  10.380   4.004  1.0961 -0.4264  2.6177
  158MOL0     H21738  10.729  10.550   3.929  1.0688 -1.4164 -1.0101
  158MOL0     H21739  10.791  10.641   4.152 -0.9654  0.3215 -0.9978
  158MOL0     H21740  10.659  10.524   4.173  0.6938  2.1364 -0.5491
  158MOL0     H21741  10.954  10.463   4.235  0.3053 -0.5996 -0.8691
  158MOL0     H21742  10.841  10.524   4.338  1.5211  2.5125 -2.6019
  158MOL0     H21743  10.816  10.244   4.202 -1.2395 -1.8714  0.9219
  158MOL0     H21744  10.868  10.274   4.367  1.4290  0.6408 -0.0977
  158MOL0     H21745  10.599  10.296   4.244  3.4780 -2.8021 -0.1878
  158MOL0     H21746  10.633  10.396   4.392  1.7238 -0.1051  1.9627
  158MOL0     H21747  10.658  10.202   4.528  0.4670 -3.0350  0.3457
  158MOL0     H21748  10.514  10.178   4.438  0.1375 -0.9517  1.0666
  158MOL0     H21749  10.688   9.979   4.464  0.3565  1.2029 -0.5977
  158MOL0     H21750  10.773  10.060   4.332 -1.5344 -1.0917 -2.7535
  158MOL0     H21751  10.593   9.871   4.297 -1.7461 -0.9767  2.4649
  158MOL0     H21752  10.482   9.981   4.361  1.8404 -0.9985  2.9226
  158MOL0     H21753  10.742   9.976   4.066  0.0027  0.2849  0.6857
  158MOL0     H21754  10.562  10.017   3.742 -0.3991 -1.2024  1.3953
  158MOL0     H21755  10.728   9.992   3.809  1.5278  2.2940  2.8425
  158MOL0     H21756  10.639  10.263   3.825 -1.2587  1.4046 -3.1071
  158MOL0     H21757  10.799  10.202   3.770  0.4080 -1.0862 -1.0590
  158MOL0     H21758  10.558  10.191   3.601 -1.0901 -0.6025  4.2815
  158MOL0     H21759  10.682  10.317   3.586  1.5943 -0.0778 -2.2213
  158MOL0     H21760  10.854  10.186   3.543  0.7706 -0.5794  1.0690
  158MOL0     H21761  10.782  10.030   3.557  0.1718  0.4885  1.7996
  158MOL0     H21762  10.538   9.949   3.446 -2.4150  0.9357  2.4248
  158MOL0     H21763  10.282   9.818   3.273 -0.7976  0.3816 -0.4362
  158MOL0     H21764  10.209   9.921   3.387 -1.7763 -4.0564  0.2299
  158MOL0     H21765  10.359   9.843   3.433  0.6541 -0.3147 -0.7775
  158MOL0     H21766  10.008  10.303   3.221  1.6349 -1.3893 -1.1905
  158MOL0     H21767   9.757  10.299   3.182 -1.7314 -1.4063 -0.6788
  158MOL0     H21768   9.580  10.208   3.177 -0.2118 -3.8295 -0.0665
  158MOL0     H21769   9.492  10.295   3.053 -0.4078 -0.3449  0.2808
  158MOL0     H21770   9.379  10.106   3.133  0.8430 -0.4104  0.9591
  158MOL0     H21771   9.423  10.072   2.962 -1.0207 -5.8111  0.3895
  158MOL0     H21772   9.551   9.950   3.219 -0.3957 -0.0457  0.4330
  158MOL0     H21773   9.615   9.935   3.056 -0.2148  1.1862  1.0062
  158MOL0     H21774   9.396   9.814   2.990  0.2488  0.5400 -0.0410
  158MOL0     H21775   9.336   9.880   3.131  0.1944 -1.1362 -1.7980
  158MOL0     H21776   9.530   9.641   3.118  1.1644  2.1903  0.6694
  158MOL0     H21777   9.476   9.727   3.276  1.8356  1.1512  0.4124
  158MOL0     H21778   9.311   9.573   3.081  1.0939  0.2923 -0.1317
  158MOL0     H21779   9.248   9.678   3.217  0.8782 -1.6522  2.7237
  158MOL0     H21780   9.238   9.470   3.310 -0.7384  1.1204 -2.7592
  158MOL0     H21781   9.391   9.546   3.376 -0.3227  2.4012 -1.3027
  158MOL0     H21782   9.424   9.303   3.334  2.2585  2.0944  4.1407
  158MOL0     H21783   9.541   9.416   3.280 -1.0587 -0.7626  0.4540
  158MOL0     H21784   9.833  10.149   2.792  2.8750  0.5005 -0.8687
  158MOL0     H21785  10.089  10.159   2.841 -1.7132 -3.3826 -1.6737
  158MOL0     H21786  10.407  10.293   3.118  0.0605  0.7800 -1.0075
  158MOL0     H21787  10.635  10.305   3.228  1.1153 -0.0203  1.3924
  158MOL0     H21788  11.166  10.487   3.955  2.3182 -0.9324 -0.7999
  158MOL0     H21789  11.293  10.509   3.741  0.2786 -2.5489  0.3844
  158MOL0     H21790  11.120  10.673   3.124  0.9732  1.9276 -1.1442
  158MOL0     H21791  11.297  10.723   2.947  1.0647 -0.0672 -0.6082
  158MOL0     H21792  11.458  10.704   2.802  0.0151  0.7030 -0.6326
  158MOL0     H21793  11.489  10.846   2.874 -0.6368  0.4707 -2.9358
  158MOL0     H21794  11.629  10.846   2.710 -0.7039  2.5950  1.6909
  158MOL0     H21795  11.710  10.684   2.757  0.1918  0.6687  0.0552
  158MOL0     H21796  11.712  10.967   2.897  2.3765  0.5070  2.1447
  158MOL0     H21797  11.780  10.828   2.970  1.5146  2.0440  0.3450
  158MOL0     H21798  11.869  10.962   2.713 -3.9968  0.0540  0.6577
  158MOL0     H21799  11.935  10.811   2.766  0.1428  0.7262 -1.2881
  158MOL0     H21800  12.126  11.038   3.037 -1.9222 -1.3667  2.4080
  158MOL0     H21801  11.597  10.592   3.206 -0.0732  1.4565  1.6150
  158MOL0     H21802  11.437  10.567   3.523  1.8584  2.6599 -0.1790
  158MOL0     H21803  11.455  10.409   3.438  1.4298 -0.0499 -1.1114
  158MOL0     H21804  11.575  10.540   3.424  1.1402 -3.6888 -0.5811
  159MOL0     O21805   7.905   2.376   8.606 -0.3179  0.6700 -0.9837
  159MOL0     C21806   7.795   2.348   8.649 -0.8833  0.1561  0.0658
  159MOL0     O21807   7.765   2.283   8.771 -0.7451  0.1876  0.1968
  159MOL0     C21808   7.867   2.213   8.830 -0.0828 -0.2128  0.5349
  159MOL0     C21809   7.933   2.267   8.936 -0.2935 -0.9200  0.1299
  159MOL0     C21810   8.010   2.184   9.018  0.9063 -0.9350 -0.0527
  159MOL0     C21811   8.042   2.060   8.977 -0.5277 -0.1978  0.1467
  159MOL0     O21812   8.134   2.000   9.062  0.2721  0.2785  0.7385
  159MOL0     C21813   8.137   1.865   9.080  0.7205  0.1284 -0.2961
  159MOL0     C21814   8.190   1.830   9.226  0.7737 -0.6507 -0.5577
  159MOL0     C21815   8.337   1.789   9.232 -0.5003 -0.1614 -0.0790
  159MOL0     C21816   8.432   1.900   9.187 -0.5525 -0.5438 -0.1723
  159MOL0     C21817   8.576   1.886   9.234  0.4446 -0.0296  0.3113
  159MOL0     C21818   8.670   2.010   9.206 -0.3724  0.4650 -0.6093
  159MOL0     C21819   8.701   2.031   9.056 -0.2791 -0.5355  0.6909
  159MOL0     C21820   8.609   2.127   8.991 -0.1642 -0.8242 -0.8681
  159MOL0     N21821   8.648   2.264   9.019 -1.4838 -0.1268  0.0012
  159MOL0     C21822   8.716   2.360   8.937 -0.0400  0.7309 -0.7850
  159MOL0     C21823   8.701   2.474   8.995  0.2530 -0.0252  0.3072
  159MOL0     C21824   8.750   2.602   8.948  1.1072  0.2058 -0.1368
  159MOL0     C21825   8.884   2.626   9.008 -0.0532 -0.1814  0.7934
  159MOL0     C21826   8.902   2.597   9.158 -0.4520  0.6165 -0.3284
  159MOL0     C21827   9.036   2.657   9.201 -0.4602 -0.2553  0.2943
  159MOL0     O21828   9.140   2.592   9.125 -0.4879 -0.7016  0.8342
  159MOL0     C21829   9.248   2.680   9.130  0.1231  0.4256  0.5044
  159MOL0     C21830   9.325   2.690   9.247 -0.1801  0.5479 -0.5849
  159MOL0     C21831   9.435   2.773   9.261  0.4432 -1.2306  0.5689
  159MOL0     C21832   9.517   2.772   9.387 -0.6726 -0.2633 -0.0151
  159MOL0     C21833   9.482   2.836   9.145 -1.0966  0.4215 -0.2157
  159MOL0     C21834   9.606   2.912   9.145  0.7572  0.1285  0.4733
  159MOL0     O21835   9.600   3.026   9.213  0.6753 -0.1146 -0.6747
  159MOL0     C21836   9.702   3.115   9.245  0.8207 -0.6372  0.2804
  159MOL0     C21837   9.678   3.240   9.299  0.9638 -0.3469 -0.5233
  159MOL0     C21838   9.773   3.330   9.333  0.7292  0.4987  0.4137
  159MOL0     C21839   9.906   3.299   9.324  0.0272  0.1104  0.1411
  159MOL0     O21840  10.009   3.372   9.370  0.2331  0.0215  0.7947
  159MOL0     C21841   9.982   3.464   9.475  0.0858 -0.5045  1.1453
  159MOL0     C21842  10.106   3.531   9.524  0.4569  0.0819  0.4094
  159MOL0     C21843  10.089   3.627   9.652  0.0353 -0.1847  0.6674
  159MOL0     C21844  10.209   3.727   9.671 -0.6515  0.4674  0.5230
  159MOL0     C21845  10.200   3.855   9.590 -0.8663 -0.6282  0.3552
  159MOL0     C21846  10.152   3.974   9.672 -0.6693  0.2497 -0.1630
  159MOL0     C21847  10.147   4.101   9.583 -0.6892  0.5404 -0.2223
  159MOL0     C21848  10.138   4.236   9.660  0.2471 -0.1535 -0.1480
  159MOL0    Cl21849  10.310   4.296   9.693 -0.1249  0.2109 -0.6037
  159MOL0     C21850   9.936   3.171   9.262 -0.0880 -0.0637  0.6487
  159MOL0     C21851   9.831   3.085   9.225 -0.0852  0.2848 -0.6617
  159MOL0     O21852   9.690   2.877   9.076 -0.2194 -0.6264  0.7474
  159MOL0     C21853   9.415   2.809   9.025 -0.2697 -0.7264 -0.3911
  159MOL0     C21854   9.295   2.735   9.014 -0.0774 -0.6597  0.1155
  159MOL0     N21855   8.628   2.454   9.105  0.0249  0.5231  0.1247
  159MOL0     N21856   8.587   2.334   9.110 -0.2838  0.6603  0.3986
  159MOL0     C21857   7.983   1.996   8.863  1.1792 -0.1438 -0.4305
  159MOL0     C21858   7.898   2.077   8.789  0.0983 -0.2070  1.2378
  159MOL0     C21859   7.678   2.388   8.566  0.0331 -0.2637  0.7494
  159MOL0     C21860   7.554   2.352   8.603  0.0428 -0.1905  0.5469
  159MOL0     C21861   7.446   2.375   8.518  0.1226  1.3947 -0.1025
  159MOL0     C21862   7.455   2.441   8.394  0.2079  0.2396  0.0637
  159MOL0     O21863   7.345   2.479   8.320 -0.8260 -0.0934  0.3955
  159MOL0     C21864   7.219   2.478   8.376  0.0968  0.7044 -0.7330
  159MOL0     C21865   7.115   2.497   8.266 -0.5437  0.4170  0.6855
  159MOL0     C21866   6.969   2.476   8.304 -0.4388 -0.4781 -1.1428
  159MOL0     C21867   6.890   2.481   8.178 -0.0661 -0.2777 -1.0721
  159MOL0     C21868   6.749   2.481   8.207  0.8085  0.3393 -0.2104
  159MOL0     C21869   6.642   2.496   8.254 -0.4641  0.0965  0.4150
  159MOL0     C21870   7.581   2.480   8.355 -0.6081  0.0729  0.9525
  159MOL0     C21871   7.697   2.449   8.437  0.3252 -0.4607 -0.8712
  159MOL0     C21872   7.828   2.508   8.390  0.1182 -1.5080 -0.5139
  159MOL0     H21873   7.931   2.367   8.978 -0.5811 -1.2899  1.0204
  159MOL0     H21874   8.065   2.225   9.102 -3.2335 -0.0999  2.5335
  159MOL0     H21875   8.191   1.811   9.002  1.8572  2.9894 -1.6503
  159MOL0     H21876   8.036   1.824   9.082  1.5408 -2.0040 -0.4160
  159MOL0     H21877   8.170   1.914   9.293  3.4529  0.0987 -0.5563
  159MOL0     H21878   8.154   1.734   9.266 -1.3178  0.6950  0.9553
  159MOL0     H21879   8.362   1.740   9.327 -1.1490 -0.9364 -0.2961
  159MOL0     H21880   8.348   1.701   9.168 -1.9981 -1.2560  1.1011
  159MOL0     H21881   8.432   1.903   9.077  4.1358 -0.5729 -0.3793
  159MOL0     H21882   8.405   1.999   9.225 -0.0022 -0.8217  0.9771
  159MOL0     H21883   8.618   1.792   9.199 -0.8668 -0.8048  0.7588
  159MOL0     H21884   8.567   1.874   9.343 -1.5312  0.4428  0.2349
  159MOL0     H21885   8.646   2.102   9.261  1.7543  0.6224  0.1424
  159MOL0     H21886   8.768   1.979   9.244 -0.3884 -4.5673 -3.7961
  159MOL0     H21887   8.683   1.936   9.004  0.8417 -0.7190  0.5990
  159MOL0     H21888   8.807   2.054   9.041 -0.0459 -1.7143  0.4010
  159MOL0     H21889   8.605   2.110   8.882  0.9558 -2.1119 -0.7395
  159MOL0     H21890   8.510   2.113   9.035  0.7647  0.8750  2.0207
  159MOL0     H21891   8.781   2.337   8.852  2.8350  1.8688  0.9626
  159MOL0     H21892   8.690   2.671   9.008  0.6756 -1.5527  1.5676
  159MOL0     H21893   8.743   2.621   8.840  0.2345  1.6791  0.1507
  159MOL0     H21894   8.957   2.561   8.957  1.4437  1.2839  0.9786
  159MOL0     H21895   8.910   2.731   8.994 -5.8639  1.5212  0.2821
  159MOL0     H21896   8.825   2.647   9.217  0.8100  2.0761  0.1623
  159MOL0     H21897   8.898   2.491   9.184 -2.3737  0.9277  0.8000
  159MOL0     H21898   9.033   2.763   9.173  0.0255 -0.1903  0.4742
  159MOL0     H21899   9.053   2.647   9.309 -0.1034 -0.4669  0.2202
  159MOL0     H21900   9.295   2.624   9.328  0.6605  2.1184  1.0844
  159MOL0     H21901   9.616   2.731   9.365  0.0229 -0.4539  2.9594
  159MOL0     H21902   9.468   2.714   9.466 -2.0580  2.0826  0.9676
  159MOL0     H21903   9.530   2.874   9.424  0.3615 -1.1475  2.2803
  159MOL0     H21904   9.574   3.260   9.323  0.6860 -0.8174 -1.2938
  159MOL0     H21905   9.739   3.427   9.365  0.4258  0.7372 -0.5807
  159MOL0     H21906   9.918   3.542   9.433 -1.8313 -1.2216  2.6079
  159MOL0     H21907   9.939   3.412   9.561  0.3611  1.4988  2.5523
  159MOL0     H21908  10.175   3.446   9.531 -0.5888 -0.8205  0.2317
  159MOL0     H21909  10.153   3.589   9.444  3.2362 -2.2714  0.1710
  159MOL0     H21910  10.074   3.562   9.739 -0.6077  1.0372  1.4991
  159MOL0     H21911   9.993   3.679   9.660 -1.7277 -3.0874 -0.0765
  159MOL0     H21912  10.295   3.669   9.637 -0.4060  0.6944  0.7565
  159MOL0     H21913  10.202   3.741   9.779 -0.2697  1.3881  0.4391
  159MOL0     H21914  10.298   3.884   9.551 -1.6312 -1.4722 -2.4049
  159MOL0     H21915  10.137   3.846   9.501  1.2464 -1.6652 -1.1136
  159MOL0     H21916  10.222   3.997   9.753 -4.4623  1.9597  2.9708
  159MOL0     H21917  10.052   3.950   9.709  0.1357 -0.5331  1.6262
  159MOL0     H21918  10.060   4.091   9.516 -1.0990  0.2636  0.3438
  159MOL0     H21919  10.233   4.108   9.516 -0.9017 -1.1783 -0.7419
  159MOL0     H21920  10.087   4.236   9.757 -0.5472  0.9888 -0.5349
  159MOL0     H21921  10.083   4.309   9.599  2.7089  0.0215 -2.3281
  159MOL0     H21922  10.036   3.129   9.253 -0.4660 -0.5144 -2.7712
  159MOL0     H21923   9.862   2.989   9.185  0.5837  0.5054 -0.6863
  159MOL0     H21924   9.469   2.844   8.938 -0.9367 -1.2243 -1.0175
  159MOL0     H21925   9.245   2.725   8.918  0.6007 -0.0690 -0.3192
  159MOL0     H21926   7.984   1.891   8.836 -3.1290 -1.8037  4.2468
  159MOL0     H21927   7.841   2.033   8.707  0.2000  1.4656  0.2173
  159MOL0     H21928   7.547   2.290   8.692  1.2263 -1.4869 -0.2124
  159MOL0     H21929   7.353   2.331   8.552  0.4715 -0.7402 -1.6875
  159MOL0     H21930   7.195   2.382   8.422 -2.6592  1.5365 -0.2355
  159MOL0     H21931   7.204   2.565   8.441  1.0780  0.3947 -0.0766
  159MOL0     H21932   7.125   2.418   8.190  1.1788  0.0742  1.2270
  159MOL0     H21933   7.119   2.597   8.221  0.1299  0.7554  1.4691
  159MOL0     H21934   6.952   2.380   8.355  0.3705 -0.3245 -0.5579
  159MOL0     H21935   6.929   2.560   8.362  2.7041  1.5223 -1.6878
  159MOL0     H21936   6.917   2.403   8.106  0.6061 -1.0001 -0.0476
  159MOL0     H21937   6.912   2.577   8.130 -0.6893  1.7077  2.2993
  159MOL0     H21938   6.551   2.498   8.310  0.4777  5.2969  2.2836
  159MOL0     H21939   7.609   2.526   8.261  4.2857 -2.6334  0.7260
  159MOL0     H21940   7.890   2.568   8.458  2.2166 -0.7694 -2.9118
  159MOL0     H21941   7.895   2.443   8.333  4.3256  0.1210  2.1481
  159MOL0     H21942   7.802   2.582   8.314 -0.0309  0.1434  1.0809
  160MOL0     O21943  10.194   0.971   8.147  0.5864 -0.1873 -0.4203
  160MOL0     C21944  10.289   1.017   8.080 -0.0961  0.1859  0.0306
  160MOL0     O21945  10.411   1.063   8.133 -0.0720  0.4942  1.2820
  160MOL0     C21946  10.439   1.023   8.257 -0.8109 -0.0343 -0.0157
  160MOL0     C21947  10.494   1.123   8.337  0.1067  0.4929  0.4060
  160MOL0     C21948  10.551   1.084   8.463 -0.1883  0.4770  0.1312
  160MOL0     C21949  10.515   0.966   8.531 -1.1390  1.1741 -0.5975
  160MOL0     O21950  10.559   0.956   8.662  0.3489  0.9840  0.2462
  160MOL0     C21951  10.485   0.876   8.750 -0.6518  0.0139 -0.0742
  160MOL0     C21952  10.547   0.903   8.894  1.1215 -0.3659  1.8350
  160MOL0     C21953  10.469   1.019   8.956  0.5630 -1.2151 -0.8322
  160MOL0     C21954  10.491   1.159   8.895 -0.6747 -0.5239  1.2427
  160MOL0     C21955  10.428   1.267   8.996  0.2960  0.1558  0.7017
  160MOL0     C21956  10.530   1.310   9.110 -0.3224 -0.0736 -0.5875
  160MOL0     C21957  10.478   1.422   9.201 -0.3879 -0.7740 -0.6133
  160MOL0     C21958  10.601   1.458   9.286 -0.1022 -0.4961 -0.0275
  160MOL0     N21959  10.566   1.559   9.383 -1.1571  0.5176  0.3580
  160MOL0     C21960  10.475   1.536   9.479  0.0446 -0.2026 -0.6020
  160MOL0     C21961  10.488   1.654   9.557  0.5264  0.2971 -0.7991
  160MOL0     C21962  10.395   1.692   9.666 -0.3928 -0.3398 -0.1602
  160MOL0     C21963  10.468   1.743   9.794  0.7190  1.3290  0.6553
  160MOL0     C21964  10.367   1.792   9.901 -0.5304  0.3333  0.4193
  160MOL0     C21965  10.449   1.824  10.027  0.7515 -0.9661  0.3857
  160MOL0     O21966  10.363   1.880  10.128  0.0961  0.1170 -0.2980
  160MOL0     C21967  10.410   1.933  10.244 -0.6429  0.1801  0.3469
  160MOL0     C21968  10.323   1.974  10.338 -0.6005 -0.0830  0.0221
  160MOL0     C21969  10.369   2.035  10.460  0.1602  0.1365 -0.1527
  160MOL0     C21970  10.269   2.105  10.553 -0.4369 -0.1132  1.0699
  160MOL0     C21971  10.505   2.040  10.487 -0.8093  0.2993  0.2168
  160MOL0     C21972  10.550   2.087  10.611 -0.6440 -0.1911 -0.4290
  160MOL0     O21973  10.520   2.015  10.723  0.4912 -0.8330  0.5265
  160MOL0     C21974  10.510   2.069  10.847 -0.2360 -0.5886 -0.7729
  160MOL0     C21975  10.561   2.000  10.958 -0.8374 -1.7785  0.2531
  160MOL0     C21976  10.544   2.050  11.085 -0.9322 -0.5804 -1.0060
  160MOL0     C21977  10.479   2.176  11.095 -0.2987  0.0411 -0.6486
  160MOL0     O21978  10.470   2.227  11.228  1.0744  0.0314 -0.3907
  160MOL0     C21979  10.350   2.287  11.271  0.2568  0.6775 -1.0542
  160MOL0     C21980  10.339   2.295  11.428 -0.3227 -0.1689 -0.1625
  160MOL0     C21981  10.463   2.355  11.496  0.6251 -0.4884  0.5840
  160MOL0     C21982  10.466   2.513  11.494  0.0537 -0.2400  0.6226
  160MOL0     C21983  10.537   2.560  11.621 -0.1369  0.8772  0.5280
  160MOL0     C21984  10.692   2.552  11.590  0.4946  0.0710  0.9710
  160MOL0     C21985  10.765   2.613  11.713  0.2541  0.6583  0.5289
  160MOL0     C21986  10.916   2.583  11.691 -0.0776 -0.1451 -0.9265
  160MOL0    Cl21987  11.017   2.660  11.821  0.0140  0.1402 -0.0494
  160MOL0     C21988  10.417   2.236  10.986 -0.3090 -0.7863 -0.1011
  160MOL0     C21989  10.424   2.180  10.864 -0.6046 -0.0699  0.6613
  160MOL0     O21990  10.638   2.174  10.614 -0.5158  0.6852 -0.5079
  160MOL0     C21991  10.589   1.976  10.401  0.3271  0.3310 -0.1814
  160MOL0     C21992  10.545   1.924  10.281 -0.5455 -0.1174  0.6824
  160MOL0     N21993  10.586   1.733   9.507  1.2596  0.6853 -0.0190
  160MOL0     N21994  10.630   1.675   9.407 -0.4189  1.0167  0.3350
  160MOL0     C21995  10.456   0.868   8.448  0.3731 -0.2061  0.6927
  160MOL0     C21996  10.423   0.898   8.316 -0.3162  0.4637  0.0415
  160MOL0     C21997  10.262   1.049   7.939  0.2674 -0.2989  0.0807
  160MOL0     C21998  10.333   1.159   7.887  1.1498  0.1522  0.5500
  160MOL0     C21999  10.338   1.187   7.744 -0.2301 -0.8237 -0.6852
  160MOL0     C22000  10.270   1.096   7.663 -0.1700  0.0970  0.3377
  160MOL0     O22001  10.275   1.091   7.531 -0.2769 -0.5020 -0.0929
  160MOL0     C22002  10.368   1.189   7.467 -0.3015  0.4539  0.6528
  160MOL0     C22003  10.374   1.185   7.314  0.4325 -0.1023  0.3324
  160MOL0     C22004  10.231   1.164   7.257 -0.4839  1.3573 -0.8249
  160MOL0     C22005  10.252   1.180   7.108  0.3723  0.0573  0.3937
  160MOL0     C22006  10.125   1.177   7.034 -1.0627 -0.2524  0.6272
  160MOL0     C22007  10.022   1.169   6.963  0.4641 -0.3910  0.0874
  160MOL0     C22008  10.190   0.997   7.720 -0.0380 -0.3580  0.1928
  160MOL0     C22009  10.169   0.981   7.852  0.6484 -0.1093 -1.2009
  160MOL0     C22010  10.089   0.865   7.887  0.2740 -0.3456 -0.4870
  160MOL0     H22011  10.506   1.225   8.300  1.8402  0.4145  0.6560
  160MOL0     H22012  10.610   1.159   8.516 -2.0877  4.5690 -2.9330
  160MOL0     H22013  10.490   0.769   8.727 -0.8524  0.1154 -0.6178
  160MOL0     H22014  10.382   0.911   8.754 -0.2372  1.1582  2.8443
  160MOL0     H22015  10.529   0.813   8.954  1.9217 -1.0116  1.1237
  160MOL0     H22016  10.656   0.909   8.897  1.1745 -1.2277  1.8368
  160MOL0     H22017  10.360   1.005   8.950  0.5995 -1.3659 -1.2049
  160MOL0     H22018  10.504   1.034   9.058 -1.0250 -0.6392 -0.3419
  160MOL0     H22019  10.595   1.177   8.865 -1.5387  0.9053 -1.2374
  160MOL0     H22020  10.435   1.157   8.800  1.6612  1.7240 -0.3356
  160MOL0     H22021  10.329   1.241   9.034  1.3160 -1.6124  2.2859
  160MOL0     H22022  10.415   1.358   8.936 -1.7193 -0.8338 -0.4571
  160MOL0     H22023  10.570   1.223   9.163  0.2545 -0.6276 -1.8833
  160MOL0     H22024  10.621   1.353   9.068  1.1894  2.0916  4.2760
  160MOL0     H22025  10.401   1.378   9.266  1.2537  1.2660  2.9873
  160MOL0     H22026  10.444   1.512   9.148  0.2005  1.1288  2.0403
  160MOL0     H22027  10.637   1.375   9.348  1.3219  1.5078  1.9774
  160MOL0     H22028  10.678   1.507   9.226  1.8216  0.5684  3.0679
  160MOL0     H22029  10.412   1.449   9.498 -0.1203 -0.2720 -1.4186
  160MOL0     H22030  10.328   1.613   9.700 -1.5484 -0.0762 -1.7015
  160MOL0     H22031  10.326   1.769   9.630  1.0682  2.2489  2.1140
  160MOL0     H22032  10.516   1.653   9.836 -0.3926 -0.8192 -2.3920
  160MOL0     H22033  10.544   1.818   9.770 -0.1712  1.6064 -1.4736
  160MOL0     H22034  10.312   1.881   9.869 -0.2755 -0.7642 -3.6336
  160MOL0     H22035  10.297   1.711   9.924  1.7134 -2.2556 -1.1680
  160MOL0     H22036  10.484   1.734  10.078  3.0487 -0.6532 -0.5406
  160MOL0     H22037  10.532   1.892  10.007 -0.1720 -0.1046 -0.6873
  160MOL0     H22038  10.218   1.949  10.320 -1.6857  2.1018  2.6130
  160MOL0     H22039  10.169   2.093  10.510  0.2686  1.2402 -1.0928
  160MOL0     H22040  10.297   2.209  10.573  1.5905 -0.8180  2.1800
  160MOL0     H22041  10.268   2.056  10.651  1.2424  1.0500  1.7301
  160MOL0     H22042  10.618   1.909  10.944  2.2926  0.2608 -1.4449
  160MOL0     H22043  10.594   2.001  11.168 -0.2179  0.3586 -0.8659
  160MOL0     H22044  10.346   2.389  11.232  1.1964  0.8500 -0.7288
  160MOL0     H22045  10.263   2.231  11.237 -0.5584  0.3850  1.3364
  160MOL0     H22046  10.247   2.340  11.468 -1.2395 -1.1931 -1.0584
  160MOL0     H22047  10.331   2.190  11.455  4.2173 -1.3804 -2.5984
  160MOL0     H22048  10.554   2.313  11.453 -1.3701 -2.4474 -2.0334
  160MOL0     H22049  10.452   2.316  11.598 -2.8099 -2.2130 -0.2746
  160MOL0     H22050  10.363   2.549  11.485  0.4158  0.8094  0.5371
  160MOL0     H22051  10.513   2.554  11.404 -1.1669  1.7244  0.8155
  160MOL0     H22052  10.514   2.663  11.648  0.1942  1.5355 -1.5157
  160MOL0     H22053  10.511   2.504  11.711  2.9574  0.6220  1.3837
  160MOL0     H22054  10.723   2.601  11.497  3.4556 -1.4382  1.0312
  160MOL0     H22055  10.713   2.444  11.587  2.9315  0.5165 -0.4725
  160MOL0     H22056  10.727   2.562  11.802 -0.4833  1.2300  0.5552
  160MOL0     H22057  10.735   2.718  11.721 -1.3644  0.1591  1.5836
  160MOL0     H22058  10.944   2.631  11.597 -3.9204  2.3736 -1.0149
  160MOL0     H22059  10.932   2.475  11.698  3.4161  0.3618  0.9616
  160MOL0     H22060  10.372   2.334  11.001  4.5123  1.3036  3.1848
  160MOL0     H22061  10.378   2.235  10.782  0.3478 -0.7378 -0.3478
  160MOL0     H22062  10.696   1.963  10.415  0.4736  0.3568 -1.2092
  160MOL0     H22063  10.614   1.874  10.214 -0.6710  1.8221 -1.0020
  160MOL0     H22064  10.448   0.764   8.476 -1.1099 -0.4600 -0.6056
  160MOL0     H22065  10.385   0.816   8.254  2.0232  0.8431 -2.0637
  160MOL0     H22066  10.375   1.228   7.959 -1.5344  1.4203  1.0202
  160MOL0     H22067  10.395   1.273   7.712  1.6716 -2.3213 -1.5097
  160MOL0     H22068  10.337   1.292   7.487  2.9872  1.2000  2.5616
  160MOL0     H22069  10.468   1.184   7.509  0.3613 -0.6799 -0.9576
  160MOL0     H22070  10.437   1.099   7.293 -0.4775 -0.5430 -0.7390
  160MOL0     H22071  10.414   1.284   7.289 -0.1692  0.7887  2.6171
  160MOL0     H22072  10.194   1.064   7.281 -1.0149  2.1019  1.6714
  160MOL0     H22073  10.158   1.241   7.281 -2.0905 -0.6586  1.1528
  160MOL0     H22074  10.314   1.099   7.070 -0.1475 -0.2643  0.2186
  160MOL0     H22075  10.307   1.272   7.087  0.3207  0.8650  3.2943
  160MOL0     H22076   9.933   1.155   6.905 -3.5812  0.4873  5.3336
  160MOL0     H22077  10.132   0.928   7.659  1.1116 -4.9324  3.6662
  160MOL0     H22078  10.114   0.779   7.823 -1.1297 -0.0645 -1.4660
  160MOL0     H22079  10.117   0.814   7.979 -1.7582 -1.6059 -0.4899
  160MOL0     H22080   9.981   0.884   7.884  0.7794  3.1630 -0.3168
  161MOL0     O22081   7.608   6.538   4.321  0.2631  0.1322  0.2401
  161MOL0     C22082   7.596   6.465   4.222 -1.5444 -1.1406  0.8958
  161MOL0     O22083   7.619   6.332   4.215  0.3171  0.0377  0.6947
  161MOL0     C22084   7.676   6.263   4.311  0.2914 -0.0435  0.6813
  161MOL0     C22085   7.787   6.307   4.390  0.6899  0.2187  0.0773
  161MOL0     C22086   7.837   6.231   4.493 -0.2238  0.7567 -0.4264
  161MOL0     C22087   7.773   6.109   4.521  0.4107  0.9378 -0.8661
  161MOL0     O22088   7.790   6.035   4.639  0.9881 -0.3550 -0.8605
  161MOL0     C22089   7.916   6.053   4.704 -0.0437 -0.3766  0.4715
  161MOL0     C22090   7.929   5.955   4.827  0.3323  0.2482  0.4031
  161MOL0     C22091   7.964   5.815   4.786 -0.0191  0.4092 -0.0458
  161MOL0     C22092   7.995   5.724   4.904 -1.0370 -0.1046  0.2968
  161MOL0     C22093   8.047   5.579   4.865 -0.4048 -0.3948  0.3480
  161MOL0     C22094   8.200   5.594   4.857  0.5555  0.7846 -0.6847
  161MOL0     C22095   8.245   5.451   4.819 -0.4100  0.9532  0.0334
  161MOL0     C22096   8.399   5.447   4.797 -0.4715 -0.2267 -0.7041
  161MOL0     N22097   8.467   5.445   4.924  0.7373 -0.1057  0.3337
  161MOL0     C22098   8.596   5.496   4.957  0.0382 -0.9264  0.8474
  161MOL0     C22099   8.625   5.461   5.084  0.6512 -0.0085 -0.3787
  161MOL0     C22100   8.743   5.501   5.158  0.4677  0.1182 -0.0503
  161MOL0     C22101   8.727   5.646   5.202 -0.4773  0.7682  0.3832
  161MOL0     C22102   8.844   5.708   5.266 -0.3544 -0.0344 -0.6961
  161MOL0     C22103   8.855   5.682   5.411 -0.1727 -0.3903 -0.8018
  161MOL0     O22104   8.765   5.763   5.490  0.0875  0.0404  0.5410
  161MOL0     C22105   8.768   5.770   5.629  0.3431  0.6428  0.3507
  161MOL0     C22106   8.653   5.823   5.697 -0.2378 -0.2873 -0.1289
  161MOL0     C22107   8.650   5.817   5.838 -0.2980  0.2154  0.0087
  161MOL0     C22108   8.527   5.877   5.894  0.9439  0.3006 -0.2603
  161MOL0     C22109   8.749   5.747   5.910 -0.4518 -0.2180  0.1427
  161MOL0     C22110   8.743   5.722   6.060  0.5324  0.5572  0.6285
  161MOL0     O22111   8.851   5.668   6.117  0.2182  0.2265 -0.6032
  161MOL0     C22112   8.876   5.672   6.257  0.4707  0.3276  0.2552
  161MOL0     C22113   8.779   5.648   6.360  0.0011  0.4884  0.7197
  161MOL0     C22114   8.802   5.666   6.495  0.6167  0.2366  0.6378
  161MOL0     C22115   8.933   5.693   6.534  0.0871  0.5510  0.0336
  161MOL0     O22116   8.981   5.705   6.667  0.4994  0.0187  0.1432
  161MOL0     C22117   8.878   5.727   6.773  0.4894  0.6572  0.8060
  161MOL0     C22118   8.939   5.773   6.904 -0.9056  0.2817  0.3536
  161MOL0     C22119   9.043   5.671   6.955  0.3502 -0.2836 -0.5596
  161MOL0     C22120   9.070   5.710   7.101 -0.1288  0.5213 -0.5361
  161MOL0     C22121   9.178   5.625   7.163 -0.4510  1.3705 -0.1009
  161MOL0     C22122   9.223   5.673   7.299  0.6592 -0.6339  0.6249
  161MOL0     C22123   9.292   5.557   7.374 -0.7405 -0.5802 -1.0340
  161MOL0     C22124   9.309   5.597   7.523 -0.1942 -0.0242 -0.2477
  161MOL0    Cl22125   9.152   5.596   7.603 -0.4304 -0.1188  0.8596
  161MOL0     C22126   9.030   5.713   6.435  0.9655  0.0244 -0.6658
  161MOL0     C22127   9.002   5.709   6.302  0.5419 -0.4714 -0.3953
  161MOL0     O22128   8.640   5.745   6.126 -1.1707 -0.0446  0.1914
  161MOL0     C22129   8.862   5.695   5.845 -0.4495  0.1287 -0.3682
  161MOL0     C22130   8.865   5.701   5.703 -0.0530 -0.6738 -0.8454
  161MOL0     N22131   8.515   5.396   5.135 -0.4955  0.4917  1.6751
  161MOL0     N22132   8.425   5.380   5.040  0.1462 -0.3588 -0.2966
  161MOL0     C22133   7.657   6.061   4.454 -0.9938  0.6012 -0.0347
  161MOL0     C22134   7.615   6.139   4.351 -0.0008  0.2651  0.0516
  161MOL0     C22135   7.550   6.526   4.101  1.2011  0.6834  1.0520
  161MOL0     C22136   7.602   6.638   4.057  0.0173  0.1347  0.6155
  161MOL0     C22137   7.558   6.700   3.945  0.2473  0.3742 -0.1770
  161MOL0     C22138   7.446   6.644   3.870  0.1135 -0.0464  0.1596
  161MOL0     O22139   7.403   6.689   3.743  0.2864 -0.0434 -0.8103
  161MOL0     C22140   7.474   6.797   3.685  0.9096 -0.1808  0.9082
  161MOL0     C22141   7.412   6.928   3.742 -0.2129  0.9362  0.3720
  161MOL0     C22142   7.249   6.924   3.748 -1.0283  0.7481 -0.2739
  161MOL0     C22143   7.187   7.067   3.718  0.2295  0.7611 -0.6541
  161MOL0     C22144   7.048   7.059   3.665  0.3309  0.0595 -1.5079
  161MOL0     C22145   6.930   7.065   3.642 -0.8364  0.4337  0.2136
  161MOL0     C22146   7.394   6.527   3.916  0.0096 -0.4703  0.3954
  161MOL0     C22147   7.440   6.464   4.025 -0.6440 -0.5793  0.5222
  161MOL0     C22148   7.367   6.346   4.067 -0.4231 -0.0700 -0.8984
  161MOL0     H22149   7.829   6.405   4.373 -0.5480  0.5569 -1.1156
  161MOL0     H22150   7.905   6.279   4.562 -3.3041  2.5086  1.6299
  161MOL0     H22151   7.931   6.146   4.760  0.7368 -0.2130  0.0059
  161MOL0     H22152   7.997   6.047   4.631  0.1206 -0.3772  0.6504
  161MOL0     H22153   8.010   6.005   4.881 -0.4409 -0.1553  2.0003
  161MOL0     H22154   7.843   5.963   4.893 -0.2118  2.2686 -0.4498
  161MOL0     H22155   7.885   5.772   4.723  0.1184  0.1842 -0.0649
  161MOL0     H22156   8.053   5.822   4.724 -0.3486 -2.5505 -1.0066
  161MOL0     H22157   8.055   5.779   4.977 -0.0693 -0.7832  0.0282
  161MOL0     H22158   7.898   5.695   4.944 -1.2669 -0.0458 -0.2038
  161MOL0     H22159   8.004   5.542   4.771  3.0107  2.9381 -2.9231
  161MOL0     H22160   8.023   5.517   4.952  2.5307 -0.1112  1.4756
  161MOL0     H22161   8.236   5.655   4.773  1.3725 -0.5923 -1.3790
  161MOL0     H22162   8.244   5.627   4.951  0.8414  1.0213 -0.9018
  161MOL0     H22163   8.206   5.420   4.722  2.6673 -3.5980 -0.0699
  161MOL0     H22164   8.205   5.380   4.892 -3.4610  1.4423 -1.0446
  161MOL0     H22165   8.428   5.361   4.737 -0.6838 -0.1067 -0.9777
  161MOL0     H22166   8.424   5.546   4.756 -1.2579  1.5454  2.6896
  161MOL0     H22167   8.658   5.562   4.897 -0.7999  2.7403  3.6358
  161MOL0     H22168   8.820   5.481   5.083 -1.2562 -1.2789 -1.5444
  161MOL0     H22169   8.771   5.442   5.247 -0.5884 -1.5512 -0.7754
  161MOL0     H22170   8.706   5.701   5.110  0.3117 -1.8547 -1.4942
  161MOL0     H22171   8.638   5.655   5.264 -1.2813  1.7823 -0.8789
  161MOL0     H22172   8.931   5.680   5.206  0.0587 -3.0377  1.0690
  161MOL0     H22173   8.835   5.817   5.265 -1.8588 -0.1278 -0.0233
  161MOL0     H22174   8.820   5.583   5.440  0.3708 -0.4304 -0.2537
  161MOL0     H22175   8.961   5.687   5.438 -0.8014  0.7611  1.7326
  161MOL0     H22176   8.576   5.876   5.642  0.5365  0.2219 -0.7381
  161MOL0     H22177   8.491   5.962   5.834 -1.1713  0.6968  1.4480
  161MOL0     H22178   8.542   5.918   5.994  1.3316 -0.3710 -0.0417
  161MOL0     H22179   8.439   5.812   5.897 -1.0432  2.8000 -0.2322
  161MOL0     H22180   8.676   5.629   6.331  0.4720  0.1054 -0.7901
  161MOL0     H22181   8.723   5.648   6.567  1.8056 -0.5412  1.7940
  161MOL0     H22182   8.797   5.792   6.738 -0.3657 -1.6321 -1.8516
  161MOL0     H22183   8.818   5.636   6.784 -0.2796  1.4106  3.3113
  161MOL0     H22184   9.004   5.859   6.884  0.9666 -0.8538  1.2008
  161MOL0     H22185   8.858   5.799   6.972 -1.1097 -0.1328  0.2709
  161MOL0     H22186   9.137   5.675   6.901  1.7498 -2.0226  1.5659
  161MOL0     H22187   9.000   5.570   6.951 -2.3308  0.3614  3.9959
  161MOL0     H22188   8.974   5.698   7.152  1.2242 -1.7134  1.6934
  161MOL0     H22189   9.106   5.812   7.116  0.2293 -0.1582  5.7701
  161MOL0     H22190   9.137   5.527   7.188  0.8589  0.5107 -1.1526
  161MOL0     H22191   9.262   5.607   7.095 -1.3118 -2.3106 -0.4180
  161MOL0     H22192   9.150   5.719   7.367  1.4751 -0.0720  1.1359
  161MOL0     H22193   9.294   5.753   7.274  1.3176 -1.6469 -0.8326
  161MOL0     H22194   9.383   5.533   7.317 -2.7724 -1.0040 -4.3482
  161MOL0     H22195   9.241   5.461   7.367 -1.7113 -0.2249  0.5065
  161MOL0     H22196   9.356   5.695   7.536 -1.5154  1.0064 -2.5273
  161MOL0     H22197   9.373   5.520   7.566  0.2144  0.9901  1.0074
  161MOL0     H22198   9.132   5.734   6.466  0.9704 -0.8268 -0.0605
  161MOL0     H22199   9.082   5.738   6.235  2.1399  1.0844  2.0166
  161MOL0     H22200   8.935   5.638   5.901 -1.9870 -1.8330 -0.2444
  161MOL0     H22201   8.955   5.662   5.655  0.6469  0.9087 -0.8927
  161MOL0     H22202   7.594   5.973   4.463  0.7164 -1.3261 -4.4676
  161MOL0     H22203   7.541   6.097   4.284 -0.6016  0.6412  0.4612
  161MOL0     H22204   7.688   6.674   4.113 -0.1530  1.2605  0.1897
  161MOL0     H22205   7.614   6.788   3.918  1.5216 -0.7098 -1.2343
  161MOL0     H22206   7.583   6.791   3.697  1.0722  0.3504 -0.1858
  161MOL0     H22207   7.459   6.794   3.577  1.9692 -0.8438  0.7588
  161MOL0     H22208   7.442   7.006   3.673 -0.7296 -0.6411 -1.7374
  161MOL0     H22209   7.450   6.947   3.843  0.5155  0.8016  0.1285
  161MOL0     H22210   7.212   6.870   3.660 -1.2156 -0.5378  0.5554
  161MOL0     H22211   7.210   6.887   3.844  0.6960 -2.8443 -0.7638
  161MOL0     H22212   7.229   7.114   3.628 -1.1988 -1.8712 -2.8628
  161MOL0     H22213   7.191   7.139   3.800 -1.8097 -0.3833  0.5434
  161MOL0     H22214   6.830   7.070   3.605 -0.6550 -1.2760 -0.5713
  161MOL0     H22215   7.309   6.482   3.866 -0.4454 -0.6013  1.2727
  161MOL0     H22216   7.268   6.357   4.022 -0.9776  3.5715  0.8191
  161MOL0     H22217   7.425   6.261   4.031  0.4242  0.1137 -0.0045
  161MOL0     H22218   7.352   6.347   4.175 -3.3939  0.2897 -1.2252
  162MOL0     O22219   7.168  11.115   6.151  0.3656 -0.4242 -1.3282
  162MOL0     C22220   7.104  11.047   6.068  0.1466 -0.0890  0.6062
  162MOL0     O22221   6.968  11.056   6.039 -0.4187 -0.1074  0.4792
  162MOL0     C22222   6.888  11.145   6.101  0.9344 -0.5163 -1.1687
  162MOL0     C22223   6.765  11.090   6.120  0.9721 -0.2245 -0.5613
  162MOL0     C22224   6.673  11.173   6.189  0.2788  1.7495  0.1360
  162MOL0     C22225   6.697  11.305   6.232  0.2985  0.0481 -0.5714
  162MOL0     O22226   6.600  11.380   6.294 -0.3418  0.5060 -0.2924
  162MOL0     C22227   6.470  11.397   6.219  0.1177  0.5738 -0.4416
  162MOL0     C22228   6.382  11.515   6.260  0.4609 -0.4379  0.2226
  162MOL0     C22229   6.388  11.626   6.157  0.3580  0.0605 -0.0672
  162MOL0     C22230   6.338  11.756   6.218 -0.5944  0.4502 -0.5297
  162MOL0     C22231   6.301  11.842   6.097 -0.2565  0.3066 -0.2437
  162MOL0     C22232   6.153  11.810   6.069  0.8826  0.4101  0.0539
  162MOL0     C22233   6.089  11.884   5.960  0.0975  0.0682  0.3551
  162MOL0     C22234   5.935  11.856   5.958 -0.8086 -0.4002  0.3812
  162MOL0     N22235   5.883  11.719   5.945  0.3469  0.0563  0.1698
  162MOL0     C22236   5.854  11.657   5.825 -0.0030 -0.6119 -0.1017
  162MOL0     C22237   5.819  11.539   5.865  0.2915  0.9597 -1.2094
  162MOL0     C22238   5.802  11.416   5.783 -0.5457  0.1022  1.5829
  162MOL0     C22239   5.764  11.290   5.855  0.1066  0.2711 -0.1663
  162MOL0     C22240   5.759  11.174   5.753  0.0373 -0.7318 -0.3933
  162MOL0     C22241   5.697  11.046   5.802  0.3756  0.0312  0.4510
  162MOL0     O22242   5.657  10.983   5.680 -0.3217 -0.6066 -0.3358
  162MOL0     C22243   5.592  10.865   5.686 -0.7116 -1.2048  0.3486
  162MOL0     C22244   5.655  10.749   5.642 -0.5118  0.1920  0.6186
  162MOL0     C22245   5.595  10.621   5.664  0.2379 -1.3628 -1.0374
  162MOL0     C22246   5.668  10.502   5.632 -0.7747  0.1317  0.1197
  162MOL0     C22247   5.470  10.619   5.735 -0.2129 -0.2433  0.2050
  162MOL0     C22248   5.393  10.495   5.775 -0.9159  0.7591 -0.0313
  162MOL0     O22249   5.451  10.376   5.769 -0.7589 -0.0534  0.2609
  162MOL0     C22250   5.376  10.262   5.798  0.1176  0.7580  0.3272
  162MOL0     C22251   5.451  10.154   5.848  0.3239 -0.6429  0.8418
  162MOL0     C22252   5.383  10.031   5.878  0.7990  0.5790  0.0042
  162MOL0     C22253   5.248  10.007   5.868 -0.3644 -0.9111 -0.4940
  162MOL0     O22254   5.198   9.892   5.906 -0.4092  0.0390  0.5079
  162MOL0     C22255   5.056   9.873   5.914  0.1750  0.8839  0.7327
  162MOL0     C22256   5.026   9.788   5.794 -0.5307  0.0652 -0.9250
  162MOL0     C22257   5.035   9.639   5.834  0.4253 -0.1263 -0.0310
  162MOL0     C22258   5.005   9.548   5.723 -0.3881 -0.4925  0.4748
  162MOL0     C22259   4.861   9.516   5.693 -0.0891 -0.3145 -0.1454
  162MOL0     C22260   4.860   9.416   5.572 -0.9069 -0.0518 -0.1631
  162MOL0     C22261   4.713   9.380   5.528 -0.0095  0.4943 -0.0444
  162MOL0     C22262   4.687   9.335   5.383 -0.4696  0.7456  0.0334
  162MOL0    Cl22263   4.784   9.432   5.274 -0.3001 -0.4698  0.6126
  162MOL0     C22264   5.174  10.122   5.823 -0.4306 -0.5012 -1.0595
  162MOL0     C22265   5.234  10.236   5.776  0.7570 -0.7246 -0.8301
  162MOL0     O22266   5.279  10.518   5.816  0.5688  0.5230  0.3160
  162MOL0     C22267   5.416  10.749   5.779  1.1264  0.4752  0.5671
  162MOL0     C22268   5.466  10.867   5.756 -0.1624  0.0698  0.0744
  162MOL0     N22269   5.830  11.528   6.005  0.0171  1.0306  0.1889
  162MOL0     N22270   5.866  11.634   6.046  0.8552  0.0336  0.4985
  162MOL0     C22271   6.824  11.356   6.193  0.1174  0.0062 -0.7800
  162MOL0     C22272   6.920  11.278   6.138 -0.2906  0.2597  0.4848
  162MOL0     C22273   7.165  10.933   6.005 -0.3784  0.4382  0.4600
  162MOL0     C22274   7.210  10.824   6.085 -0.2386  0.0804  0.5360
  162MOL0     C22275   7.268  10.709   6.031 -0.0091 -0.6296  0.2333
  162MOL0     C22276   7.287  10.694   5.893  0.0428 -0.0379  0.1382
  162MOL0     O22277   7.358  10.584   5.849 -0.0824 -0.3322 -0.5533
  162MOL0     C22278   7.359  10.563   5.710  0.1326  0.4243 -0.5654
  162MOL0     C22279   7.238  10.490   5.658  0.4603  0.5641 -0.0884
  162MOL0     C22280   7.212  10.345   5.705  0.5968  0.2172 -1.2427
  162MOL0     C22281   7.105  10.267   5.622  0.0055 -0.1376 -0.3920
  162MOL0     C22282   7.125  10.122   5.616  0.2250 -0.0292  0.1321
  162MOL0     C22283   7.165  10.011   5.623  0.4051  0.1651  0.2635
  162MOL0     C22284   7.231  10.792   5.816 -0.2039 -0.1758  0.0728
  162MOL0     C22285   7.172  10.908   5.863  0.4859 -0.7909 -1.1956
  162MOL0     C22286   7.125  11.012   5.770 -0.2077 -0.1797  0.0943
  162MOL0     H22287   6.753  10.987   6.088  4.2848 -1.7246  2.3448
  162MOL0     H22288   6.578  11.129   6.215  0.5882  0.2637 -1.1223
  162MOL0     H22289   6.408  11.308   6.236  2.1493 -0.4162  2.6443
  162MOL0     H22290   6.495  11.412   6.114  1.7143  3.7938  0.2626
  162MOL0     H22291   6.280  11.476   6.263 -0.1372  1.0825  0.4509
  162MOL0     H22292   6.409  11.545   6.362 -1.6894 -0.4101  0.8410
  162MOL0     H22293   6.490  11.649   6.124  0.5314 -1.0468 -0.3215
  162MOL0     H22294   6.327  11.597   6.072  1.5504  1.1585 -1.3548
  162MOL0     H22295   6.258  11.725   6.286  0.3539 -1.6897 -0.3063
  162MOL0     H22296   6.417  11.793   6.283  0.7886 -1.7585 -0.8415
  162MOL0     H22297   6.360  11.830   6.006  0.8015 -0.3552  0.5004
  162MOL0     H22298   6.317  11.948   6.119 -0.9085  0.9939 -2.8117
  162MOL0     H22299   6.136  11.704   6.045 -1.7507  0.1076  2.6741
  162MOL0     H22300   6.100  11.832   6.162 -2.3172  0.0882 -1.5843
  162MOL0     H22301   6.128  11.856   5.862 -0.7858  0.4026 -0.1078
  162MOL0     H22302   6.111  11.991   5.970 -0.5877  0.2533 -0.0097
  162MOL0     H22303   5.897  11.889   6.055 -1.2811 -1.7247  0.6655
  162MOL0     H22304   5.892  11.909   5.872 -1.7511  0.0561  1.1085
  162MOL0     H22305   5.866  11.707   5.729 -0.9358  2.3524  1.2190
  162MOL0     H22306   5.889  11.384   5.725 -0.1483  0.0901  2.1773
  162MOL0     H22307   5.725  11.447   5.713 -0.2778 -2.3424  0.1030
  162MOL0     H22308   5.840  11.263   5.928  1.7517  2.2671 -1.0681
  162MOL0     H22309   5.668  11.308   5.904 -0.1949  0.4382 -0.8109
  162MOL0     H22310   5.695  11.210   5.673 -0.0713 -2.0194 -0.9110
  162MOL0     H22311   5.856  11.148   5.709 -0.9105 -2.7223 -1.3959
  162MOL0     H22312   5.777  10.990   5.851  0.5666  0.3084  0.4563
  162MOL0     H22313   5.608  11.077   5.858  0.1190  1.3377 -0.6238
  162MOL0     H22314   5.759  10.746   5.610 -0.4263 -2.0163  0.9753
  162MOL0     H22315   5.616  10.412   5.599 -2.9185  2.3428 -3.0384
  162MOL0     H22316   5.742  10.477   5.709  1.6112  0.2387 -2.0330
  162MOL0     H22317   5.720  10.521   5.538 -0.2188 -0.9423  0.1983
  162MOL0     H22318   5.560  10.159   5.849  0.3586  5.3210 -0.2343
  162MOL0     H22319   5.424   9.946   5.933 -3.9017 -0.5081  2.3268
  162MOL0     H22320   5.029   9.820   6.005 -0.6118  3.8749  2.3889
  162MOL0     H22321   5.004   9.970   5.908 -0.3009  0.6468  0.9571
  162MOL0     H22322   4.923   9.807   5.764 -1.1457 -0.1153  0.9754
  162MOL0     H22323   5.095   9.813   5.712 -2.1879  1.7000 -1.8953
  162MOL0     H22324   4.988   9.603   5.925 -2.9323 -0.6430 -1.8176
  162MOL0     H22325   5.144   9.628   5.844  0.1523 -0.3476  5.7516
  162MOL0     H22326   5.053   9.451   5.739  4.9324  1.9103  1.3976
  162MOL0     H22327   5.056   9.576   5.630 -2.9317 -1.5949 -1.3665
  162MOL0     H22328   4.813   9.473   5.781 -0.2737  2.8911  1.4644
  162MOL0     H22329   4.800   9.603   5.664  0.5168  0.0504 -0.3589
  162MOL0     H22330   4.915   9.322   5.586  0.3202  0.3038 -2.3002
  162MOL0     H22331   4.920   9.462   5.494 -1.1156  2.8410  1.2610
  162MOL0     H22332   4.659   9.475   5.531 -0.6974  0.0723  1.5157
  162MOL0     H22333   4.670   9.304   5.593  1.6302 -1.0556 -0.6708
  162MOL0     H22334   4.580   9.327   5.363 -0.3848 -1.3295  0.2413
  162MOL0     H22335   4.724   9.234   5.368  1.2676  0.9798  2.2159
  162MOL0     H22336   5.068  10.121   5.802 -0.9795  3.6019  0.6105
  162MOL0     H22337   5.189  10.320   5.723  1.5638 -0.1660 -0.6571
  162MOL0     H22338   5.325  10.752   5.839 -0.5790 -2.4201 -1.5741
  162MOL0     H22339   5.421  10.964   5.774 -0.4980 -0.3551  1.7286
  162MOL0     H22340   6.850  11.455   6.229  0.9479 -1.3797  2.9212
  162MOL0     H22341   7.024  11.310   6.131 -0.3961  0.3023 -2.6410
  162MOL0     H22342   7.213  10.829   6.193 -2.1827 -2.3178  0.7981
  162MOL0     H22343   7.309  10.634   6.098 -1.0275  1.1212  2.9739
  162MOL0     H22344   7.377  10.661   5.665  0.1809  1.1152  0.8984
  162MOL0     H22345   7.443  10.496   5.688  0.8183  1.8277 -2.5193
  162MOL0     H22346   7.248  10.500   5.549 -0.4853 -1.4959 -0.4106
  162MOL0     H22347   7.150  10.545   5.693  0.8863  0.5227  1.0849
  162MOL0     H22348   7.303  10.285   5.699  1.5563  1.7529 -3.2089
  162MOL0     H22349   7.183  10.345   5.811 -0.6750 -0.7647 -1.5771
  162MOL0     H22350   7.103  10.307   5.520  0.4200 -1.9195 -1.1333
  162MOL0     H22351   7.008  10.292   5.667 -0.2119 -3.1502  1.0145
  162MOL0     H22352   7.212   9.915   5.627 -1.7030 -0.8953  1.7364
  162MOL0     H22353   7.225  10.782   5.708 -0.0357 -0.4182  0.0851
  162MOL0     H22354   7.167  11.109   5.799  0.2467  0.0125 -1.1579
  162MOL0     H22355   7.153  11.004   5.664  0.0361  0.7967  0.0754
  162MOL0     H22356   7.016  11.017   5.765 -0.3388 -1.8248  0.6653
  163MOL0     O22357   9.920   4.800  10.361  0.2024  0.0330  0.0745
  163MOL0     C22358   9.852   4.707  10.312 -0.0808 -0.1119  0.3234
  163MOL0     O22359   9.903   4.598  10.253  0.0839 -0.2429  0.7347
  163MOL0     C22360  10.035   4.580  10.237 -0.5737 -0.8006  0.8766
  163MOL0     C22361  10.078   4.558  10.109 -0.5915  0.8237 -0.0287
  163MOL0     C22362  10.211   4.531  10.078  0.1280 -0.6539  0.6594
  163MOL0     C22363  10.295   4.525  10.175 -0.0788  0.7313 -0.4833
  163MOL0     O22364  10.419   4.476  10.149  0.1873 -0.2070 -0.1717
  163MOL0     C22365  10.537   4.517  10.231  0.5475 -0.9505  0.9568
  163MOL0     C22366  10.662   4.451  10.182 -0.4253 -0.5577  0.3353
  163MOL0     C22367  10.783   4.520  10.262 -0.4562  0.1361  0.2134
  163MOL0     C22368  10.787   4.464  10.399  1.1668  0.2554  0.1838
  163MOL0     C22369  10.884   4.556  10.468  0.1246  0.4126  1.9005
  163MOL0     C22370  10.927   4.504  10.608  0.2713 -0.1986  0.2395
  163MOL0     C22371  10.823   4.461  10.715  0.2416 -0.1857  0.6038
  163MOL0     C22372  10.710   4.565  10.741  0.6128  0.4932 -0.3057
  163MOL0     N22373  10.639   4.528  10.865 -1.0210  0.2594 -0.2645
  163MOL0     C22374  10.661   4.586  10.987  0.2686  0.5021  0.0294
  163MOL0     C22375  10.570   4.533  11.071  1.2042 -0.4701 -0.4415
  163MOL0     C22376  10.567   4.581  11.218 -0.0421  0.3129 -0.2752
  163MOL0     C22377  10.551   4.458  11.320 -1.0848 -0.0268  0.5235
  163MOL0     C22378  10.502   4.502  11.458 -0.5667 -0.1618  0.2267
  163MOL0     C22379  10.362   4.458  11.492  0.5324  0.7624  1.1565
  163MOL0     O22380  10.337   4.427  11.624 -0.3160 -0.5612 -0.2302
  163MOL0     C22381  10.312   4.546  11.700 -0.2823  1.2835  0.1530
  163MOL0     C22382  10.270   4.665  11.652 -0.1462  0.3166 -0.0670
  163MOL0     C22383  10.249   4.777  11.735 -0.3061 -0.6012 -0.7187
  163MOL0     C22384  10.203   4.897  11.665  0.7381 -0.5799  0.0684
  163MOL0     C22385  10.268   4.767  11.872 -0.9846 -0.4873 -0.1823
  163MOL0     C22386  10.256   4.886  11.971 -1.0358  0.3598 -0.3614
  163MOL0     O22387  10.202   5.002  11.930  0.0302  0.3272 -0.0931
  163MOL0     C22388  10.189   5.113  12.005 -0.2767  0.3535  0.3026
  163MOL0     C22389  10.171   5.116  12.138  0.3823  1.2385 -0.3979
  163MOL0     C22390  10.176   5.233  12.212  0.3393  0.0323  0.1541
  163MOL0     C22391  10.190   5.356  12.137 -0.1824  0.0359  0.5610
  163MOL0     O22392  10.191   5.484  12.196 -0.7941  0.0251  0.0469
  163MOL0     C22393  10.211   5.497  12.342  0.0796  0.3015  0.3850
  163MOL0     C22394  10.226   5.639  12.386 -0.1615 -0.4728 -0.5101
  163MOL0     C22395  10.106   5.740  12.352 -0.3333  0.2735  0.0825
  163MOL0     C22396  10.059   5.752  12.207 -0.6035  1.3280  0.7491
  163MOL0     C22397   9.958   5.866  12.196  0.4809 -0.3572 -0.3179
  163MOL0     C22398  10.033   6.007  12.191 -0.0320  0.7160  0.0154
  163MOL0     C22399   9.953   6.141  12.204  0.1741  0.4011 -0.3535
  163MOL0     C22400   9.880   6.168  12.337  0.0805  0.5177  1.0775
  163MOL0    Cl22401   9.741   6.275  12.286 -0.3014 -0.1337 -0.1553
  163MOL0     C22402  10.201   5.354  11.999  1.2011 -0.8367  0.1443
  163MOL0     C22403  10.196   5.233  11.932 -0.2646 -0.0544 -0.2815
  163MOL0     O22404  10.326   4.885  12.074  0.0307  0.9132 -0.4017
  163MOL0     C22405  10.298   4.633  11.923  0.1385 -0.1772  0.2215
  163MOL0     C22406  10.336   4.534  11.835 -0.8832  0.8205  0.3657
  163MOL0     N22407  10.493   4.441  10.994 -0.1189 -0.5927  0.3961
  163MOL0     N22408  10.539   4.442  10.871  0.1717  0.0941 -0.1886
  163MOL0     C22409  10.267   4.556  10.305  0.5844  0.5357 -0.5475
  163MOL0     C22410  10.133   4.582  10.341 -0.0821  0.7780  0.6041
  163MOL0     C22411   9.703   4.730  10.323  0.4384 -0.4741 -0.6249
  163MOL0     C22412   9.648   4.819  10.419 -0.6734 -0.4186 -0.4998
  163MOL0     C22413   9.520   4.850  10.456  0.0085  0.1843 -0.7950
  163MOL0     C22414   9.430   4.775  10.371  0.6204 -1.1298 -0.7255
  163MOL0     O22415   9.295   4.784  10.388 -0.6751 -0.0773 -0.3382
  163MOL0     C22416   9.232   4.860  10.490 -0.3346 -0.1143 -0.7368
  163MOL0     C22417   9.102   4.786  10.544 -0.1912 -0.5763 -0.0024
  163MOL0     C22418   9.003   4.760  10.428  0.4454  0.7432  0.0195
  163MOL0     C22419   9.012   4.602  10.399  0.8682 -0.8190 -0.2178
  163MOL0     C22420   8.929   4.549  10.288  0.7571 -0.4485 -0.9093
  163MOL0     C22421   8.864   4.496  10.203 -0.3230 -0.1441  0.7233
  163MOL0     C22422   9.471   4.684  10.264 -0.8738  0.3297 -0.4611
  163MOL0     C22423   9.608   4.657  10.249  1.0856  0.3794 -0.1784
  163MOL0     C22424   9.639   4.542  10.171  0.1656  0.3200  0.2265
  163MOL0     H22425  10.013   4.552  10.022 -1.5080  1.7647  0.5753
  163MOL0     H22426  10.249   4.535   9.976  2.3367  0.1033  1.4548
  163MOL0     H22427  10.515   4.476  10.330 -3.5230  0.3552  0.7680
  163MOL0     H22428  10.553   4.625  10.231 -0.8605 -0.6181  4.3723
  163MOL0     H22429  10.661   4.344  10.202 -2.7759 -0.8583 -1.0366
  163MOL0     H22430  10.679   4.476  10.076  0.0281  3.6074  1.2230
  163MOL0     H22431  10.877   4.510  10.208  1.5239  1.6360  3.1274
  163MOL0     H22432  10.761   4.627  10.272 -0.8732  0.0153  0.6694
  163MOL0     H22433  10.691   4.473  10.450  0.2874  0.6441 -1.4618
  163MOL0     H22434  10.831   4.364  10.394  0.6616 -0.0229  1.1115
  163MOL0     H22435  10.833   4.650  10.490 -0.8466 -0.3970  3.2107
  163MOL0     H22436  10.972   4.572  10.405  1.5525  0.0926  3.7386
  163MOL0     H22437  10.992   4.418  10.594  0.9825  0.1301  1.3860
  163MOL0     H22438  10.996   4.577  10.651  0.5209  0.4381 -1.1564
  163MOL0     H22439  10.883   4.443  10.804 -1.5500 -0.7759  1.7293
  163MOL0     H22440  10.783   4.363  10.688 -0.0701 -0.1800  1.0315
  163MOL0     H22441  10.753   4.665  10.753  0.5175  0.6056 -0.8725
  163MOL0     H22442  10.639   4.560  10.659  0.9042  2.4216 -0.7263
  163MOL0     H22443  10.745   4.650  11.012  0.6199  1.0685 -2.3815
  163MOL0     H22444  10.478   4.644  11.223 -1.8364 -2.1913  1.6765
  163MOL0     H22445  10.655   4.641  11.244  0.1998 -0.2808  0.2991
  163MOL0     H22446  10.481   4.384  11.281  1.0498 -1.9091  0.0680
  163MOL0     H22447  10.655   4.425  11.331 -0.5169  0.9221 -1.4708
  163MOL0     H22448  10.556   4.461  11.543 -0.9970  2.4791  1.9136
  163MOL0     H22449  10.503   4.612  11.462  0.5991 -0.0015 -2.2666
  163MOL0     H22450  10.290   4.518  11.435 -1.1151 -1.8352  0.3111
  163MOL0     H22451  10.343   4.363  11.442 -1.4803  0.7402  1.8496
  163MOL0     H22452  10.249   4.673  11.545 -0.6372 -0.1756 -0.0100
  163MOL0     H22453  10.284   4.969  11.647  1.0885 -1.0613 -0.3006
  163MOL0     H22454  10.124   4.937  11.729 -0.3744 -0.6842 -1.2013
  163MOL0     H22455  10.162   4.885  11.565  0.9357  2.0448 -0.3984
  163MOL0     H22456  10.165   5.026  12.200 -2.8138  1.9849  0.5452
  163MOL0     H22457  10.151   5.231  12.318 -0.9299  1.1574 -0.0991
  163MOL0     H22458  10.119   5.470  12.395 -0.3187  2.7186  1.0073
  163MOL0     H22459  10.298   5.443  12.380  1.8154  3.4924  1.3139
  163MOL0     H22460  10.234   5.632  12.495 -0.8058  0.6818 -0.3738
  163MOL0     H22461  10.315   5.674  12.334  0.1326 -3.9847 -2.7210
  163MOL0     H22462  10.136   5.838  12.390 -3.8528 -0.3617  5.6868
  163MOL0     H22463  10.024   5.720  12.422 -1.4170  1.1767 -0.8933
  163MOL0     H22464  10.014   5.655  12.182 -2.0205  2.2472 -0.4327
  163MOL0     H22465  10.143   5.773  12.139  0.4458 -4.2289 -0.2140
  163MOL0     H22466   9.899   5.855  12.105  0.2462 -2.0570  0.0023
  163MOL0     H22467   9.899   5.861  12.288  2.7735 -2.9768  1.1748
  163MOL0     H22468  10.079   6.021  12.093  0.5992  0.1525  0.2212
  163MOL0     H22469  10.105   6.002  12.274  0.4118  1.0097 -0.3487
  163MOL0     H22470   9.868   6.122  12.137  0.0045 -0.7416  0.1595
  163MOL0     H22471  10.027   6.218  12.181  1.3915 -0.0643  1.7699
  163MOL0     H22472   9.945   6.222  12.406 -1.6841  0.2717  3.0096
  163MOL0     H22473   9.846   6.081  12.392 -0.0094  0.6561  1.2411
  163MOL0     H22474  10.207   5.447  11.944 -2.8004 -1.1529 -1.1635
  163MOL0     H22475  10.207   5.241  11.825  0.7540  0.7984 -0.1271
  163MOL0     H22476  10.331   4.612  12.024  2.9440  0.2982 -0.4898
  163MOL0     H22477  10.382   4.440  11.864  1.5791  1.5676 -0.8771
  163MOL0     H22478  10.331   4.551  10.392 -0.6202 -0.2820  0.3313
  163MOL0     H22479  10.095   4.592  10.442  0.6338  1.9581  0.7704
  163MOL0     H22480   9.727   4.869  10.475 -1.1385  0.0664 -0.2716
  163MOL0     H22481   9.499   4.913  10.541 -1.9170 -0.5429 -0.6828
  163MOL0     H22482   9.303   4.863  10.573  0.0643  1.6140 -1.0996
  163MOL0     H22483   9.220   4.957  10.440  1.2973  0.7319  0.4097
  163MOL0     H22484   9.061   4.851  10.622  1.1421  0.3891 -0.0645
  163MOL0     H22485   9.136   4.697  10.597  1.9591  0.6573  0.8507
  163MOL0     H22486   8.906   4.800  10.459  1.2984  1.6444  1.6480
  163MOL0     H22487   9.033   4.808  10.335  1.0803 -0.7735 -0.6031
  163MOL0     H22488   8.984   4.545  10.488  2.4935 -1.3797 -0.0325
  163MOL0     H22489   9.116   4.581  10.372  1.2362  0.1584  0.3960
  163MOL0     H22490   8.813   4.446  10.124  2.5486 -0.6717 -0.9238
  163MOL0     H22491   9.398   4.623  10.212  1.8654 -2.1628 -1.7007
  163MOL0     H22492   9.644   4.455  10.237  0.5031 -1.8195 -2.4126
  163MOL0     H22493   9.565   4.526  10.092  1.1156  1.7170 -1.0069
  163MOL0     H22494   9.730   4.559  10.112  1.4184 -1.7774  1.4170
  164MOL0     O22495   9.941   1.466   6.636 -0.2128  0.1599 -0.1436
  164MOL0     C22496   9.913   1.460   6.510  0.1341 -0.5055 -1.0609
  164MOL0     O22497   9.870   1.347   6.445  0.6318  0.6971  0.1147
  164MOL0     C22498   9.871   1.225   6.516  0.7409  0.2441 -0.4666
  164MOL0     C22499   9.786   1.206   6.622  0.8670 -0.0785  0.1852
  164MOL0     C22500   9.777   1.085   6.691 -0.2172 -0.5071 -0.1802
  164MOL0     C22501   9.863   0.983   6.649 -0.1357 -0.1433 -1.0306
  164MOL0     O22502   9.848   0.866   6.716  0.2219  0.2852 -0.3735
  164MOL0     C22503   9.979   0.832   6.786  0.3640 -0.6753 -0.1948
  164MOL0     C22504   9.954   0.734   6.897 -0.5008  0.8075  0.0413
  164MOL0     C22505   9.916   0.794   7.034 -0.0504  0.2404  0.2597
  164MOL0     C22506   9.908   0.679   7.141 -0.4617  0.4908 -0.4594
  164MOL0     C22507   9.897   0.747   7.280 -1.1072 -0.9268 -0.0589
  164MOL0     C22508   9.918   0.646   7.398  0.0049 -0.1406 -0.0115
  164MOL0     C22509   9.888   0.701   7.527 -0.2004  0.3918 -0.4639
  164MOL0     C22510   9.734   0.691   7.548  0.3310 -0.2283 -0.0837
  164MOL0     N22511   9.703   0.763   7.670  1.1858  0.3573  0.2962
  164MOL0     C22512   9.674   0.705   7.791  0.4782  0.5171  0.8852
  164MOL0     C22513   9.632   0.799   7.868  0.2870  1.5178 -0.7684
  164MOL0     C22514   9.595   0.783   8.009  0.8168 -0.1839 -0.3038
  164MOL0     C22515   9.457   0.709   8.024  0.3864 -0.2378 -0.3901
  164MOL0     C22516   9.334   0.797   7.997 -0.1206  0.5209 -0.5620
  164MOL0     C22517   9.294   0.825   7.858 -0.8617  0.4249  1.0294
  164MOL0     O22518   9.255   0.697   7.802 -0.1088  0.9089  0.5131
  164MOL0     C22519   9.304   0.671   7.679 -1.1516  0.3055  0.0499
  164MOL0     C22520   9.375   0.562   7.643  0.1338 -0.3948 -0.4745
  164MOL0     C22521   9.425   0.550   7.515 -1.0508  0.0327  0.1343
  164MOL0     C22522   9.514   0.418   7.503 -0.0034 -0.5886  0.9852
  164MOL0     C22523   9.415   0.647   7.413 -0.3741 -0.3250 -1.1973
  164MOL0     C22524   9.468   0.634   7.274  0.8273  0.5444  0.0951
  164MOL0     O22525   9.498   0.749   7.205  0.5402 -0.8475 -0.1238
  164MOL0     C22526   9.501   0.766   7.062 -0.6162  0.1457  0.5247
  164MOL0     C22527   9.548   0.664   6.969  0.3547 -0.0730 -0.9285
  164MOL0     C22528   9.559   0.685   6.835 -0.0063  0.4942  0.0004
  164MOL0     C22529   9.521   0.811   6.781 -0.1536 -0.8323 -0.1887
  164MOL0     O22530   9.544   0.838   6.649  0.0300 -0.8998 -1.0388
  164MOL0     C22531   9.599   0.745   6.561 -0.4012  0.2257 -0.1668
  164MOL0     C22532   9.563   0.774   6.416 -0.8213  0.7200 -0.7238
  164MOL0     C22533   9.653   0.728   6.302  0.3395 -0.6685 -0.9576
  164MOL0     C22534   9.652   0.573   6.292 -0.0207 -0.5565  0.1272
  164MOL0     C22535   9.769   0.537   6.200  0.7654  0.3098 -0.4799
  164MOL0     C22536   9.758   0.384   6.170 -0.0258  0.3735 -1.3506
  164MOL0     C22537   9.862   0.341   6.063  0.7632  0.4227 -0.8655
  164MOL0     C22538   9.852   0.202   6.009 -0.0134 -0.5470  0.0587
  164MOL0    Cl22539   9.687   0.177   5.970 -0.5865 -0.2852  0.0957
  164MOL0     C22540   9.480   0.918   6.868 -0.4896  0.0783  0.6520
  164MOL0     C22541   9.461   0.894   7.002 -0.3525 -0.0794  0.4133
  164MOL0     O22542   9.460   0.519   7.217  0.3007  0.0506  0.1164
  164MOL0     C22543   9.345   0.762   7.454 -0.2414  0.5547  0.5756
  164MOL0     C22544   9.288   0.774   7.578 -1.1138  0.1385 -0.0406
  164MOL0     N22545   9.628   0.919   7.796  0.4175 -0.0870 -0.3210
  164MOL0     N22546   9.678   0.899   7.682 -0.1996  0.1883  0.4351
  164MOL0     C22547   9.954   1.002   6.552 -0.5171  0.0647  1.5385
  164MOL0     C22548   9.958   1.127   6.479  0.7959  0.5707  0.0198
  164MOL0     C22549   9.920   1.583   6.437  0.1721 -0.5242  0.1776
  164MOL0     C22550   9.852   1.693   6.497 -0.2060  0.2101 -0.1253
  164MOL0     C22551   9.850   1.815   6.439 -0.8274  0.4655  0.4742
  164MOL0     C22552   9.891   1.825   6.309  0.6667  0.0434 -0.5851
  164MOL0     O22553   9.881   1.946   6.242 -0.1273 -1.0435  0.5252
  164MOL0     C22554  10.015   2.005   6.223 -0.3370 -0.0366  0.9318
  164MOL0     C22555  10.031   2.116   6.313 -0.4936 -0.9131  0.0860
  164MOL0     C22556  10.142   2.216   6.282  0.7326 -0.1415 -0.2486
  164MOL0     C22557  10.272   2.160   6.318 -0.5763  0.4880  0.9310
  164MOL0     C22558  10.378   2.258   6.268 -0.7471 -0.6695  0.4996
  164MOL0     C22559  10.473   2.321   6.223  0.1412  0.0683  0.1142
  164MOL0     C22560   9.957   1.721   6.248  0.6654  0.8252  0.3990
  164MOL0     C22561   9.977   1.598   6.316 -0.2235  0.2459 -0.5710
  164MOL0     C22562  10.050   1.496   6.241  0.7132  0.3257 -0.8424
  164MOL0     H22563   9.715   1.286   6.642  0.9451  1.1697 -3.6818
  164MOL0     H22564   9.721   1.068   6.782 -1.2940 -0.1590 -0.7630
  164MOL0     H22565  10.018   0.917   6.842 -1.2377 -1.0550  1.6370
  164MOL0     H22566  10.051   0.791   6.715 -0.7195  0.8380 -2.2921
  164MOL0     H22567   9.871   0.668   6.870 -2.2967  3.1718 -0.5655
  164MOL0     H22568  10.043   0.675   6.920 -3.6525 -5.0197 -0.9834
  164MOL0     H22569   9.975   0.880   7.066  0.9332  0.6387 -2.3678
  164MOL0     H22570   9.812   0.829   7.031 -0.0836  0.6087  3.1578
  164MOL0     H22571   9.825   0.609   7.128  0.4737 -0.7113 -0.2257
  164MOL0     H22572   9.998   0.617   7.152 -1.7013 -1.0935  1.6549
  164MOL0     H22573   9.800   0.797   7.286 -0.7674 -0.1831 -0.6689
  164MOL0     H22574   9.976   0.821   7.288  1.0924 -3.3188  2.7633
  164MOL0     H22575   9.867   0.552   7.373  0.5705  0.0295 -1.9840
  164MOL0     H22576  10.023   0.616   7.391 -0.4110 -1.3117 -1.9319
  164MOL0     H22577   9.918   0.803   7.549 -1.3536  0.5750  0.3730
  164MOL0     H22578   9.922   0.639   7.611  2.2617  3.6970  1.2286
  164MOL0     H22579   9.679   0.733   7.463  0.6059  1.8900  0.7185
  164MOL0     H22580   9.711   0.585   7.558  0.1086 -0.6366 -3.5756
  164MOL0     H22581   9.688   0.600   7.813  2.4238  0.6794  0.6545
  164MOL0     H22582   9.597   0.878   8.064  4.1788 -0.2384 -0.1245
  164MOL0     H22583   9.675   0.729   8.061 -0.6980 -0.7924  1.4924
  164MOL0     H22584   9.453   0.615   7.969  1.1612  0.5825 -1.9206
  164MOL0     H22585   9.444   0.676   8.127 -0.8307  2.4977  0.4296
  164MOL0     H22586   9.250   0.734   8.031 -0.2777  0.8847 -0.2734
  164MOL0     H22587   9.330   0.888   8.057 -0.1817 -0.8829  1.6973
  164MOL0     H22588   9.212   0.898   7.855 -0.3996  0.9925  1.7961
  164MOL0     H22589   9.380   0.870   7.808 -0.5282 -1.3277 -0.0673
  164MOL0     H22590   9.397   0.482   7.713 -1.4190  0.2529  0.8264
  164MOL0     H22591   9.557   0.386   7.599  0.7222 -3.5781 -0.2199
  164MOL0     H22592   9.597   0.432   7.433  0.3682 -1.8104  1.1649
  164MOL0     H22593   9.451   0.339   7.461 -1.0389  1.4446 -1.5519
  164MOL0     H22594   9.561   0.566   7.012  0.2305  0.1121 -0.4643
  164MOL0     H22595   9.598   0.597   6.786 -2.5297  1.2362 -3.8912
  164MOL0     H22596   9.706   0.755   6.579 -0.2265 -1.5896 -0.0238
  164MOL0     H22597   9.574   0.643   6.590  1.1236 -0.0251  0.3500
  164MOL0     H22598   9.461   0.737   6.402 -0.3631 -3.1999  3.7871
  164MOL0     H22599   9.552   0.882   6.404  2.7985  1.3985  0.7365
  164MOL0     H22600   9.750   0.771   6.327  0.1913 -0.1541 -1.2544
  164MOL0     H22601   9.618   0.777   6.211 -3.8317  0.6069  1.0501
  164MOL0     H22602   9.556   0.543   6.249  0.1500 -2.0289  0.7390
  164MOL0     H22603   9.667   0.518   6.385 -1.2645 -0.4433  0.4119
  164MOL0     H22604   9.763   0.580   6.100  2.7284 -0.5951 -1.0222
  164MOL0     H22605   9.868   0.563   6.239  2.5660 -1.4087 -3.5679
  164MOL0     H22606   9.656   0.354   6.144  0.3765 -2.3441 -0.1483
  164MOL0     H22607   9.785   0.338   6.265  2.1496  0.9818 -1.6023
  164MOL0     H22608   9.964   0.363   6.099  1.0942  1.4541 -2.3478
  164MOL0     H22609   9.849   0.404   5.975 -1.5173  1.7617  0.3249
  164MOL0     H22610   9.895   0.130   6.078  2.7006  0.9769  0.1316
  164MOL0     H22611   9.908   0.201   5.915  1.1526  0.4914  0.7096
  164MOL0     H22612   9.447   1.013   6.827 -0.7552 -0.2199  0.1633
  164MOL0     H22613   9.433   0.973   7.071 -1.3488 -0.3810  0.3665
  164MOL0     H22614   9.340   0.833   7.373  1.2793 -0.2345 -0.2490
  164MOL0     H22615   9.225   0.859   7.604 -1.2735 -0.4432  1.5668
  164MOL0     H22616  10.015   0.915   6.531  1.4951  0.8682  3.5855
  164MOL0     H22617  10.025   1.145   6.395  3.0310  1.2205  1.8338
  164MOL0     H22618   9.788   1.668   6.582  2.4638  0.6258  2.1581
  164MOL0     H22619   9.810   1.906   6.483  1.1543  2.4756 -1.5578
  164MOL0     H22620  10.102   1.942   6.244  1.1260  1.4954 -0.2144
  164MOL0     H22621  10.024   2.034   6.117  1.8401  2.9866  1.7937
  164MOL0     H22622  10.049   2.084   6.416  0.1885  0.9212  0.5757
  164MOL0     H22623   9.931   2.160   6.320  0.9920  2.6871  0.3805
  164MOL0     H22624  10.127   2.246   6.177  1.9425  1.0950 -0.1012
  164MOL0     H22625  10.115   2.304   6.340 -4.4392 -0.2171 -1.9929
  164MOL0     H22626  10.279   2.062   6.269 -0.1681 -0.3304  2.5333
  164MOL0     H22627  10.281   2.140   6.426 -0.0149 -1.6175  0.5384
  164MOL0     H22628  10.549   2.387   6.186  0.4233 -1.0886 -1.4401
  164MOL0     H22629  10.002   1.730   6.149 -1.2665 -1.7971 -0.8324
  164MOL0     H22630  10.106   1.538   6.157  2.2967  2.3752  1.1086
  164MOL0     H22631  10.119   1.445   6.309  0.4897 -1.4063 -1.8448
  164MOL0     H22632   9.982   1.422   6.197  1.2415  1.0121 -2.9635
  165MOL0     O22633  11.048   1.149   0.476  0.1386  0.1364 -0.0811
  165MOL0     C22634  10.969   1.222   0.527 -0.3322  0.3680 -0.0647
  165MOL0     O22635  10.967   1.257   0.660  0.0484 -0.7766  1.1250
  165MOL0     C22636  11.057   1.211   0.752 -0.6614  0.5362  0.5931
  165MOL0     C22637  11.078   1.084   0.780  0.2484  0.1282  0.9075
  165MOL0     C22638  11.153   1.041   0.889  0.3065  0.5964 -0.5154
  165MOL0     C22639  11.208   1.132   0.974  0.2840 -0.7427 -0.2475
  165MOL0     O22640  11.293   1.100   1.075 -0.2339  0.5141 -0.1518
  165MOL0     C22641  11.296   1.180   1.196 -0.6284  0.9246  0.4814
  165MOL0     C22642  11.398   1.114   1.302  0.3151  0.9333  0.3548
  165MOL0     C22643  11.364   0.971   1.326  0.9665 -0.4050 -1.1293
  165MOL0     C22644  11.393   0.929   1.476 -0.2454  0.6799  0.6497
  165MOL0     C22645  11.351   0.788   1.508  0.5195 -0.5726 -0.5922
  165MOL0     C22646  11.197   0.775   1.523 -0.5690 -0.2196 -1.0032
  165MOL0     C22647  11.155   0.802   1.662  0.1505 -0.9634 -0.6468
  165MOL0     C22648  11.002   0.771   1.671  0.8407 -0.4042  0.4440
  165MOL0     N22649  10.946   0.870   1.770 -0.1724 -0.5435  0.2453
  165MOL0     C22650  10.912   0.996   1.732  0.3748 -0.5430 -0.0859
  165MOL0     C22651  10.903   1.063   1.851  0.0538  0.5634  0.0064
  165MOL0     C22652  10.898   1.207   1.866  0.3765 -1.0645 -0.7837
  165MOL0     C22653  10.778   1.278   1.795 -0.6490  0.7255 -0.1716
  165MOL0     C22654  10.634   1.229   1.830  0.8344  0.1724  0.0025
  165MOL0     C22655  10.585   1.267   1.977  0.5098 -0.1680  1.0487
  165MOL0     O22656  10.550   1.405   1.977  0.2213 -0.2067 -0.6562
  165MOL0     C22657  10.416   1.430   1.974 -0.9848  0.3300  0.5895
  165MOL0     C22658  10.356   1.488   1.861  0.1260 -0.3677  0.1238
  165MOL0     C22659  10.216   1.505   1.851 -0.3903  0.5991 -0.2939
  165MOL0     C22660  10.177   1.558   1.718  0.3472  0.3214 -0.5503
  165MOL0     C22661  10.130   1.460   1.951 -0.8091  0.7858  0.1480
  165MOL0     C22662   9.987   1.449   1.930  0.0350  0.4733  0.5921
  165MOL0     O22663   9.943   1.447   1.807 -0.3089 -0.1045 -0.1897
  165MOL0     C22664   9.808   1.437   1.785 -0.4859  0.4615 -0.8469
  165MOL0     C22665   9.730   1.557   1.749  0.6981  0.2043  0.1964
  165MOL0     C22666   9.596   1.547   1.723  0.3697 -0.4389 -0.6786
  165MOL0     C22667   9.526   1.420   1.721  0.2540 -0.3628 -0.1767
  165MOL0     O22668   9.385   1.415   1.706 -0.0875 -0.3796  0.2499
  165MOL0     C22669   9.309   1.316   1.779 -0.4267  0.0241  0.2587
  165MOL0     C22670   9.169   1.291   1.717  0.5218 -0.2261 -0.2254
  165MOL0     C22671   9.167   1.212   1.584 -0.0318  0.0092 -0.6799
  165MOL0     C22672   9.179   1.315   1.471 -0.5029  0.8210  0.8980
  165MOL0     C22673   9.199   1.238   1.329 -0.8497 -0.0186  0.1399
  165MOL0     C22674   9.336   1.163   1.301 -0.2048 -0.4556 -0.8066
  165MOL0     C22675   9.332   1.101   1.155 -0.0756  0.4044 -0.5748
  165MOL0     C22676   9.369   1.206   1.044 -0.8923 -0.3511  0.0720
  165MOL0    Cl22677   9.337   1.136   0.888 -0.2095  0.2718 -0.2228
  165MOL0     C22678   9.604   1.313   1.754  0.3237 -0.5594  0.0704
  165MOL0     C22679   9.740   1.315   1.786  0.0640  0.3764 -0.1980
  165MOL0     O22680   9.919   1.436   2.028  0.4117  0.1841 -0.4657
  165MOL0     C22681  10.195   1.395   2.067  0.7070 -0.3613  0.3936
  165MOL0     C22682  10.339   1.385   2.076  0.5568  0.3728 -0.4983
  165MOL0     N22683  10.904   0.965   1.950  1.1264 -0.2674 -0.4619
  165MOL0     N22684  10.923   0.848   1.900 -1.1308  0.0722  0.1686
  165MOL0     C22685  11.189   1.269   0.944  0.6254  0.1769  0.0695
  165MOL0     C22686  11.110   1.311   0.832 -0.2967  0.0682 -0.0115
  165MOL0     C22687  10.876   1.292   0.442 -0.3192 -0.7399 -0.1533
  165MOL0     C22688  10.802   1.398   0.499  0.3724 -0.5211 -0.3448
  165MOL0     C22689  10.711   1.474   0.419 -0.6876  0.6517 -1.2265
  165MOL0     C22690  10.688   1.454   0.288  0.3850  0.3157  0.1588
  165MOL0     O22691  10.598   1.535   0.219 -0.2359  0.5411 -0.0308
  165MOL0     C22692  10.556   1.492   0.083  0.6389 -0.3139 -0.2186
  165MOL0     C22693  10.439   1.572   0.034 -0.1217  0.6343 -0.3062
  165MOL0     C22694  10.360   1.485  -0.065 -0.5074  0.2149 -0.5731
  165MOL0     C22695  10.452   1.432  -0.175  0.1460 -0.4054  1.0001
  165MOL0     C22696  10.520   1.538  -0.259 -1.1684  0.5993 -1.4233
  165MOL0     C22697  10.590   1.614  -0.326  0.4059 -0.4304  0.0326
  165MOL0     C22698  10.767   1.351   0.228  0.2408 -0.6008 -0.0457
  165MOL0     C22699  10.852   1.269   0.302 -0.1083  0.5613 -0.4054
  165MOL0     C22700  10.897   1.145   0.238 -0.2464 -0.2510  0.8467
  165MOL0     H22701  11.032   1.009   0.716  0.5119 -0.0128  0.8805
  165MOL0     H22702  11.161   0.934   0.907  2.1386  0.9676  1.3382
  165MOL0     H22703  11.202   1.198   1.249  1.1971  0.5276  4.1943
  165MOL0     H22704  11.333   1.281   1.177 -3.4279  1.2783 -5.0582
  165MOL0     H22705  11.494   1.118   1.250  1.6466 -1.3677  2.4023
  165MOL0     H22706  11.379   1.172   1.394 -2.1249  3.2909 -1.4675
  165MOL0     H22707  11.259   0.952   1.302  0.4449  1.7711 -0.7185
  165MOL0     H22708  11.418   0.908   1.254  1.1628  2.0372 -3.2514
  165MOL0     H22709  11.501   0.934   1.495  0.0679 -1.0902 -0.4078
  165MOL0     H22710  11.331   0.992   1.540 -2.7271 -0.9093 -0.0234
  165MOL0     H22711  11.392   0.743   1.599 -2.2787 -0.2079  0.9602
  165MOL0     H22712  11.389   0.716   1.435  0.3527 -1.4432  0.1588
  165MOL0     H22713  11.145   0.837   1.449 -0.8398  0.0453 -0.5973
  165MOL0     H22714  11.176   0.670   1.502  3.6452 -0.7785 -3.6001
  165MOL0     H22715  11.168   0.908   1.687  1.4009 -1.4437  0.8767
  165MOL0     H22716  11.207   0.741   1.736  0.1409  1.4736  1.4994
  165MOL0     H22717  10.956   0.790   1.573 -0.7581 -0.8930  1.0722
  165MOL0     H22718  10.978   0.668   1.698  2.9491 -1.3216 -0.9006
  165MOL0     H22719  10.930   1.037   1.634  0.0771 -2.9072 -1.2039
  165MOL0     H22720  10.995   1.240   1.830  1.2100 -0.6563  1.6343
  165MOL0     H22721  10.896   1.213   1.976 -2.3633 -4.4332 -0.4615
  165MOL0     H22722  10.786   1.382   1.828  1.5450  1.2632 -2.1415
  165MOL0     H22723  10.795   1.270   1.687  0.2916 -1.3634  0.0922
  165MOL0     H22724  10.559   1.252   1.754 -0.8133  1.7309  1.9928
  165MOL0     H22725  10.641   1.121   1.814 -2.3247 -0.4710  1.9622
  165MOL0     H22726  10.499   1.204   2.003 -0.2997  0.6402  0.3842
  165MOL0     H22727  10.658   1.244   2.055 -0.7137 -3.5872  1.3851
  165MOL0     H22728  10.425   1.517   1.781  0.6707 -0.0385  0.7053
  165MOL0     H22729  10.248   1.637   1.694 -1.3631  3.6441  3.8902
  165MOL0     H22730  10.083   1.614   1.723  0.5741  0.6319  1.1565
  165MOL0     H22731  10.169   1.482   1.640 -0.6631  1.3714 -1.5125
  165MOL0     H22732   9.789   1.646   1.728  0.7347  0.2363  0.4285
  165MOL0     H22733   9.540   1.638   1.702  2.2609  0.6554 -1.2064
  165MOL0     H22734   9.355   1.216   1.783  0.6880  0.4714 -0.7827
  165MOL0     H22735   9.300   1.362   1.877  1.4723  0.7111  0.1588
  165MOL0     H22736   9.130   1.225   1.795  2.5896 -0.5819  0.5927
  165MOL0     H22737   9.118   1.387   1.706  0.5764 -0.3289 -1.5001
  165MOL0     H22738   9.082   1.144   1.573  0.1752 -0.5550  0.9248
  165MOL0     H22739   9.249   1.140   1.584 -0.8504 -0.9865  0.9285
  165MOL0     H22740   9.265   1.382   1.474 -0.2343  0.5647 -0.4823
  165MOL0     H22741   9.088   1.375   1.462 -2.4035 -1.6872  2.0368
  165MOL0     H22742   9.122   1.163   1.307  0.3268 -1.0987 -0.4457
  165MOL0     H22743   9.190   1.315   1.252  1.5864 -0.0399 -0.2405
  165MOL0     H22744   9.344   1.071   1.361 -0.8487  0.2052  0.3363
  165MOL0     H22745   9.415   1.233   1.329 -2.9882  1.6967  2.6322
  165MOL0     H22746   9.237   1.054   1.130  0.6446  0.0335 -2.8912
  165MOL0     H22747   9.402   1.017   1.151 -0.6161 -0.2771  2.4787
  165MOL0     H22748   9.476   1.225   1.049 -1.2652  1.8295  0.6715
  165MOL0     H22749   9.319   1.302   1.061  0.0272  0.2612 -0.6475
  165MOL0     H22750   9.561   1.213   1.745  2.4463 -1.9170  3.2555
  165MOL0     H22751   9.774   1.216   1.815 -2.2524 -0.5570 -0.4968
  165MOL0     H22752  10.137   1.357   2.151  0.2093 -2.4135 -0.8049
  165MOL0     H22753  10.388   1.352   2.167 -0.0404  2.1685  0.5396
  165MOL0     H22754  11.218   1.351   1.009 -1.2692  0.3113  0.8142
  165MOL0     H22755  11.076   1.413   0.816  0.6020  0.2829 -0.6559
  165MOL0     H22756  10.813   1.407   0.607 -0.0071 -1.0950 -0.2555
  165MOL0     H22757  10.650   1.556   0.454 -0.6606 -0.0830  0.6442
  165MOL0     H22758  10.628   1.516   0.004 -0.4329  0.7227 -0.9090
  165MOL0     H22759  10.522   1.389   0.088  0.6612 -0.2877  0.8643
  165MOL0     H22760  10.473   1.662  -0.019  3.2059  1.0279  2.1714
  165MOL0     H22761  10.382   1.610   0.119 -1.7080 -3.3712  0.6410
  165MOL0     H22762  10.316   1.402  -0.008  2.7427 -2.4553 -1.6485
  165MOL0     H22763  10.281   1.545  -0.111  0.1981  0.6677 -1.2257
  165MOL0     H22764  10.393   1.364  -0.237  2.4772 -0.5210 -1.2692
  165MOL0     H22765  10.527   1.364  -0.134  1.2369  0.0469 -0.1646
  165MOL0     H22766  10.650   1.697  -0.359 -0.0933  2.0851  4.5843
  165MOL0     H22767  10.751   1.334   0.122  2.4810 -2.4196 -0.1603
  165MOL0     H22768  10.862   1.058   0.295  0.6826 -0.6030  0.8921
  165MOL0     H22769  10.868   1.141   0.132 -1.2202  2.2075  0.9466
  165MOL0     H22770  11.006   1.142   0.238 -0.2308  0.1650  0.0676
  166MOL0     O22771   3.530  10.895  10.476  0.2681  0.2578 -0.4363
  166MOL0     C22772   3.610  10.803  10.478 -0.7655 -0.0033 -0.3140
  166MOL0     O22773   3.588  10.683  10.541  0.2488  0.1118 -1.1891
  166MOL0     C22774   3.474  10.661  10.613  1.0788  1.2024  0.3338
  166MOL0     C22775   3.496  10.637  10.751  0.5957 -0.0696  0.1961
  166MOL0     C22776   3.383  10.612  10.832  0.6195  0.5381  0.1337
  166MOL0     C22777   3.250  10.617  10.793 -1.0059  0.0103  0.8947
  166MOL0     O22778   3.151  10.605  10.873 -0.9394 -0.9132  0.5665
  166MOL0     C22779   3.035  10.524  10.836  0.4068 -0.1297 -0.1011
  166MOL0     C22780   2.965  10.469  10.964 -0.1660  0.3048  0.0395
  166MOL0     C22781   3.051  10.440  11.088  0.1531  0.9574  0.6514
  166MOL0     C22782   2.966  10.399  11.214  0.9215 -0.8992 -0.1293
  166MOL0     C22783   3.066  10.361  11.324 -0.1058  0.9036 -0.6822
  166MOL0     C22784   3.178  10.471  11.349 -0.6672  0.9216 -0.7352
  166MOL0     C22785   3.225  10.477  11.496 -0.0068 -0.1897  0.1176
  166MOL0     C22786   3.315  10.355  11.537 -0.3199 -0.4422  0.7150
  166MOL0     N22787   3.359  10.376  11.675  0.2098 -0.1824  0.1374
  166MOL0     C22788   3.405  10.502  11.723  1.0422 -0.2652 -0.5863
  166MOL0     C22789   3.483  10.463  11.826  0.9425  0.2846 -0.7254
  166MOL0     C22790   3.559  10.549  11.923 -0.5858  1.3172  0.0880
  166MOL0     C22791   3.470  10.659  11.977 -0.4941 -0.0790  0.7234
  166MOL0     C22792   3.538  10.725  12.102  0.0570 -0.1142 -0.3680
  166MOL0     C22793   3.490  10.867  12.136  0.0853  1.0713  0.0399
  166MOL0     O22794   3.525  10.946  12.017 -0.8694 -0.5915 -0.3260
  166MOL0     C22795   3.464  11.074  12.017  0.4299  0.1338  0.3481
  166MOL0     C22796   3.341  11.112  12.070 -0.6694 -0.2577 -0.4446
  166MOL0     C22797   3.295  11.242  12.056  0.3809 -0.0202 -0.9609
  166MOL0     C22798   3.161  11.255  12.114  0.2380 -0.1942  0.5276
  166MOL0     C22799   3.387  11.343  12.029  0.2291  0.9825 -0.3549
  166MOL0     C22800   3.367  11.488  12.052  0.6439  0.2048  0.3999
  166MOL0     O22801   3.427  11.566  11.961  0.2626  0.6027 -0.9412
  166MOL0     C22802   3.416  11.699  11.974 -0.2539 -0.3743  0.3989
  166MOL0     C22803   3.293  11.768  12.004  1.0539 -0.1667 -0.9880
  166MOL0     C22804   3.298  11.913  12.016 -0.1120 -0.2252 -0.7763
  166MOL0     C22805   3.422  11.985  12.016  0.1034 -0.7705 -0.5031
  166MOL0     O22806   3.416  12.122  12.035 -0.5868  0.4499 -0.5791
  166MOL0     C22807   3.353  12.155  12.160 -0.8152  0.1721  0.8602
  166MOL0     C22808   3.456  12.225  12.264  0.4082  0.0938  0.0741
  166MOL0     C22809   3.392  12.340  12.336  0.2041  0.5504 -0.2418
  166MOL0     C22810   3.481  12.386  12.449  0.2592  0.1455 -0.0877
  166MOL0     C22811   3.410  12.484  12.549  0.5868  0.0521 -0.0254
  166MOL0     C22812   3.511  12.578  12.617  0.0434 -0.2766  0.2741
  166MOL0     C22813   3.548  12.540  12.756 -0.0359 -0.5313 -0.0555
  166MOL0     C22814   3.663  12.624  12.798 -0.6171 -0.6522 -0.7715
  166MOL0    Cl22815   3.717  12.606  12.973 -0.4842  0.0635  0.0163
  166MOL0     C22816   3.542  11.912  11.990 -0.0530 -0.6695 -0.5349
  166MOL0     C22817   3.539  11.775  11.964  0.0091  0.5283  0.0925
  166MOL0     O22818   3.314  11.530  12.154  0.2398 -0.0198 -0.1155
  166MOL0     C22819   3.510  11.295  11.975  0.4270 -0.0506  0.9663
  166MOL0     C22820   3.544  11.169  11.955 -0.1673 -0.2667 -0.2737
  166MOL0     N22821   3.486  10.322  11.850  0.0095 -0.4090  0.7216
  166MOL0     N22822   3.419  10.276  11.753 -0.4508 -0.1250  0.0698
  166MOL0     C22823   3.226  10.636  10.655  0.5980 -0.2504  0.3433
  166MOL0     C22824   3.338  10.665  10.575  0.1569  0.8649  0.0933
  166MOL0     C22825   3.748  10.811  10.418  0.5970 -0.6428  0.5314
  166MOL0     C22826   3.835  10.705  10.411  0.2961  0.0526  0.1294
  166MOL0     C22827   3.963  10.722  10.351  0.3568  0.3079  1.2873
  166MOL0     C22828   3.998  10.834  10.287 -0.0901 -0.0206  0.4126
  166MOL0     O22829   4.125  10.837  10.239  1.0112 -0.6776  0.6595
  166MOL0     C22830   4.103  10.816  10.096  1.0065 -0.4059  0.3444
  166MOL0     C22831   4.224  10.740  10.049 -0.5136 -0.5539  0.3497
  166MOL0     C22832   4.349  10.832  10.023  0.0415 -0.7887  1.0465
  166MOL0     C22833   4.395  10.895  10.154 -0.1655 -0.2528 -1.0852
  166MOL0     C22834   4.511  10.990  10.124 -0.8772 -0.7365 -0.0315
  166MOL0     C22835   4.605  11.064  10.098  0.0596  0.3968 -0.8287
  166MOL0     C22836   3.906  10.938  10.275  0.4529 -0.0033 -0.6578
  166MOL0     C22837   3.789  10.931  10.348  0.0121  0.0221 -1.0114
  166MOL0     C22838   3.711  11.063  10.359  0.5747 -0.9977  0.7426
  166MOL0     H22839   3.593  10.655  10.797 -1.1744  0.8760  3.9866
  166MOL0     H22840   3.404  10.594  10.937  1.4112  0.4099 -0.0430
  166MOL0     H22841   3.067  10.447  10.766 -0.1704  0.3735 -0.9513
  166MOL0     H22842   2.968  10.595  10.787 -1.4732 -0.3701  1.9449
  166MOL0     H22843   2.899  10.547  11.002  0.2065 -0.6573  2.8414
  166MOL0     H22844   2.902  10.389  10.923 -0.4577  0.3449  0.3997
  166MOL0     H22845   3.126  10.366  11.059 -2.3948 -1.2045 -0.8367
  166MOL0     H22846   3.107  10.531  11.112  0.7592  0.4964  0.9931
  166MOL0     H22847   2.914  10.489  11.249  1.5010 -0.2115 -0.9859
  166MOL0     H22848   2.899  10.316  11.193  0.0290  0.2846 -2.2520
  166MOL0     H22849   3.104  10.261  11.300 -0.6611  0.7053 -0.7508
  166MOL0     H22850   3.005  10.355  11.415 -1.1113  2.4435 -1.2106
  166MOL0     H22851   3.266  10.456  11.286 -0.6592  1.3006 -0.8144
  166MOL0     H22852   3.148  10.575  11.333  0.7705  1.1064 -2.4531
  166MOL0     H22853   3.134  10.472  11.557 -0.1904  2.7255  0.2585
  166MOL0     H22854   3.275  10.572  11.518 -2.0311  0.7897  0.8096
  166MOL0     H22855   3.259  10.262  11.527 -0.9256 -0.4121  3.1534
  166MOL0     H22856   3.404  10.355  11.474  0.9897 -1.7842  2.4693
  166MOL0     H22857   3.382  10.597  11.677 -3.3823  0.0368  1.6926
  166MOL0     H22858   3.647  10.591  11.873  0.4595  0.1876  0.9298
  166MOL0     H22859   3.592  10.481  12.002  0.6765  1.3627 -0.3729
  166MOL0     H22860   3.461  10.737  11.901 -1.6068 -2.4261 -1.7427
  166MOL0     H22861   3.366  10.627  11.992 -1.5931  2.9227  0.2174
  166MOL0     H22862   3.516  10.655  12.184 -0.7533 -0.2383 -0.6799
  166MOL0     H22863   3.645  10.722  12.079  0.2708 -2.3473  0.5958
  166MOL0     H22864   3.381  10.859  12.140 -0.1061  2.8346 -0.7782
  166MOL0     H22865   3.538  10.910  12.224  1.8105  0.3358 -0.5012
  166MOL0     H22866   3.268  11.046  12.114 -3.2054  2.9664  0.6027
  166MOL0     H22867   3.098  11.195  12.049 -1.2991  1.6452  0.2438
  166MOL0     H22868   3.123  11.357  12.105 -1.8663 -1.1379 -3.8236
  166MOL0     H22869   3.155  11.209  12.213  1.2096  1.6920  1.5350
  166MOL0     H22870   3.201  11.712  12.011  1.2394 -0.2903  2.7407
  166MOL0     H22871   3.211  11.977  12.015  0.7872  1.0535  0.0797
  166MOL0     H22872   3.277  12.225  12.126  0.3506  0.7696 -0.6467
  166MOL0     H22873   3.306  12.074  12.216 -3.7294 -0.3061 -2.0175
  166MOL0     H22874   3.487  12.150  12.338  0.1759  0.4358  0.5193
  166MOL0     H22875   3.552  12.257  12.222  0.1768  0.1751 -0.3976
  166MOL0     H22876   3.301  12.310  12.388 -1.0325  1.0011 -2.0260
  166MOL0     H22877   3.381  12.415  12.257 -2.4314 -1.4890 -2.0309
  166MOL0     H22878   3.571  12.428  12.401  0.5706  1.5548  1.6351
  166MOL0     H22879   3.525  12.306  12.509  1.5960  2.1221  1.6985
  166MOL0     H22880   3.326  12.541  12.509 -0.6292 -2.2491 -0.8975
  166MOL0     H22881   3.347  12.430  12.620 -3.7769  0.8802 -2.9345
  166MOL0     H22882   3.481  12.683  12.610  2.3681  0.4777  0.5349
  166MOL0     H22883   3.593  12.579  12.544 -1.6214  1.7154 -1.7340
  166MOL0     H22884   3.579  12.436  12.765  0.4508 -0.6236 -2.2108
  166MOL0     H22885   3.467  12.556  12.828 -0.2657 -1.4764 -0.1027
  166MOL0     H22886   3.644  12.731  12.795  1.6099 -0.1117  1.2375
  166MOL0     H22887   3.753  12.605  12.737  1.2388  1.3081  1.1833
  166MOL0     H22888   3.630  11.976  11.985 -1.9167  2.4187  2.0312
  166MOL0     H22889   3.635  11.730  11.940 -0.3303  1.0244 -2.5265
  166MOL0     H22890   3.586  11.369  11.954  1.9161 -2.5274 -3.5373
  166MOL0     H22891   3.650  11.155  11.933 -0.0220  2.1079 -1.3694
  166MOL0     H22892   3.122  10.654  10.632  0.3647  3.1782  3.1496
  166MOL0     H22893   3.300  10.670  10.473 -1.7446 -0.7853  0.6520
  166MOL0     H22894   3.819  10.616  10.472  2.2433  0.9667  2.1227
  166MOL0     H22895   4.037  10.646  10.374  2.5685  2.3585  1.3235
  166MOL0     H22896   4.014  10.761  10.064  3.5375 -2.2843 -4.4707
  166MOL0     H22897   4.105  10.911  10.041  2.1783 -0.0029  1.0473
  166MOL0     H22898   4.202  10.688   9.955 -4.1606 -0.1255  0.8313
  166MOL0     H22899   4.243  10.659  10.120  1.6114 -1.1048 -0.7599
  166MOL0     H22900   4.430  10.765   9.993  2.3869  0.8775  3.2118
  166MOL0     H22901   4.327  10.902   9.943 -2.3378 -1.0062  1.4214
  166MOL0     H22902   4.432  10.821  10.226  1.4061  2.1653  0.7944
  166MOL0     H22903   4.319  10.947  10.213  1.5532 -1.9110  3.0031
  166MOL0     H22904   4.689  11.130  10.099  2.0898 -2.0245  1.1720
  166MOL0     H22905   3.942  11.016  10.209 -0.1293  2.3928  1.7195
  166MOL0     H22906   3.622  11.058  10.294  0.7967  0.6887  0.2783
  166MOL0     H22907   3.689  11.084  10.464  2.6274 -2.3999  1.5186
  166MOL0     H22908   3.772  11.147  10.328  0.3721 -1.6671 -1.7262
  167MOL0     O22909   0.267   4.681  10.646 -0.1109  0.2680  0.9940
  167MOL0     C22910   0.291   4.801  10.671  0.2992  0.1847  0.6466
  167MOL0     O22911   0.413   4.839  10.711 -1.0317 -0.4121 -0.2418
  167MOL0     C22912   0.531   4.764  10.694 -0.7488 -0.7537  0.2386
  167MOL0     C22913   0.582   4.718  10.570 -0.0499 -0.0814  0.3287
  167MOL0     C22914   0.713   4.660  10.561  0.5764  0.4011  0.2358
  167MOL0     C22915   0.789   4.641  10.679  0.5182 -0.6765  0.1831
  167MOL0     O22916   0.916   4.585  10.673 -0.5871 -0.9272  0.1113
  167MOL0     C22917   1.011   4.647  10.576  1.2146  0.1254  0.4548
  167MOL0     C22918   1.083   4.537  10.489  1.2046 -0.6990  1.1119
  167MOL0     C22919   0.999   4.486  10.363  0.9421  1.3305  0.0535
  167MOL0     C22920   1.080   4.429  10.245  0.8143 -0.1841 -0.3585
  167MOL0     C22921   1.168   4.309  10.283 -0.9227 -0.2489 -0.6704
  167MOL0     C22922   1.094   4.207  10.371  0.4407  0.4060 -0.4257
  167MOL0     C22923   1.174   4.080  10.398 -0.4212  0.4709  0.0416
  167MOL0     C22924   1.144   4.009  10.536  0.0462 -0.2048  0.0400
  167MOL0     N22925   1.023   3.917  10.536 -0.4356 -0.0781  0.1875
  167MOL0     C22926   0.893   3.950  10.491  1.0054  0.2188  0.7432
  167MOL0     C22927   0.829   3.829  10.496  0.1803 -0.1907  0.1582
  167MOL0     C22928   0.678   3.805  10.480 -0.9243  0.7663  0.5812
  167MOL0     C22929   0.649   3.687  10.380 -0.8271 -0.7528  0.3452
  167MOL0     C22930   0.672   3.550  10.435 -0.2424 -0.3969  1.0680
  167MOL0     C22931   0.602   3.516  10.565  0.1992  0.6065 -0.5244
  167MOL0     O22932   0.632   3.377  10.577  0.0887 -0.1600  0.7179
  167MOL0     C22933   0.587   3.327  10.689 -0.3480 -0.2547 -0.6801
  167MOL0     C22934   0.491   3.223  10.675  0.0049 -0.7174 -0.1720
  167MOL0     C22935   0.435   3.162  10.797 -0.4148 -1.4456  0.5293
  167MOL0     C22936   0.326   3.059  10.789 -0.0388 -0.4227  0.0433
  167MOL0     C22937   0.483   3.202  10.926  0.6602  0.8815  0.1621
  167MOL0     C22938   0.418   3.142  11.052  0.2485 -0.2547 -0.3163
  167MOL0     O22939   0.281   3.138  11.048  0.9140 -0.7251  0.5995
  167MOL0     C22940   0.195   3.110  11.145  0.3559 -0.0253 -0.5216
  167MOL0     C22941   0.145   3.200  11.235 -0.4224  0.2023 -0.0777
  167MOL0     C22942   0.057   3.165  11.335  1.6391  0.3853  0.5261
  167MOL0     C22943   0.002   3.032  11.334 -0.2948 -0.2696  0.3818
  167MOL0     O22944  -0.093   3.008  11.431 -0.1885  0.0941 -0.0209
  167MOL0     C22945  -0.135   2.877  11.448 -0.3718 -0.0982 -0.4788
  167MOL0     C22946  -0.246   2.879  11.549 -1.0290  0.3325 -0.7926
  167MOL0     C22947  -0.217   2.893  11.697  0.5001  0.0806  0.4131
  167MOL0     C22948  -0.351   2.914  11.780 -0.0426  0.1851  0.3476
  167MOL0     C22949  -0.338   3.024  11.885 -0.1309 -0.2101 -0.2361
  167MOL0     C22950  -0.214   3.001  11.978 -0.1566 -0.1691  0.3310
  167MOL0     C22951  -0.189   3.125  12.069  0.6194  0.8421  0.5854
  167MOL0     C22952  -0.087   3.082  12.178 -0.3898 -0.1669  0.7950
  167MOL0    Cl22953   0.042   2.977  12.117 -0.0437 -0.5269  0.0085
  167MOL0     C22954   0.040   2.939  11.229 -0.9413 -0.0175  0.1816
  167MOL0     C22955   0.139   2.978  11.134 -0.2716  0.5338 -0.0593
  167MOL0     O22956   0.491   3.126  11.152 -0.6803  0.4248  0.2626
  167MOL0     C22957   0.577   3.304  10.933  0.2460 -0.2372 -0.6487
  167MOL0     C22958   0.617   3.371  10.824  0.2231  0.2732  0.9952
  167MOL0     N22959   0.914   3.728  10.557  0.4204  0.8831 -0.5406
  167MOL0     N22960   1.029   3.777  10.570  0.4786 -1.2838 -0.0677
  167MOL0     C22961   0.735   4.677  10.803  1.2945  0.2876 -0.6073
  167MOL0     C22962   0.607   4.741  10.804 -0.4391  0.0552  0.0340
  167MOL0     C22963   0.179   4.911  10.666 -0.6304  0.4360  0.6874
  167MOL0     C22964   0.191   5.014  10.766  0.2416 -0.0661  0.8880
  167MOL0     C22965   0.094   5.113  10.762  0.3802  0.0144 -0.6510
  167MOL0     C22966  -0.004   5.120  10.663  0.4360 -0.3002 -0.3873
  167MOL0     O22967  -0.106   5.215  10.672 -0.5078 -0.8540 -0.0192
  167MOL0     C22968  -0.170   5.265  10.553  1.0051 -0.5545  0.6084
  167MOL0     C22969  -0.080   5.344  10.462  0.3989 -0.5346  0.2242
  167MOL0     C22970  -0.112   5.489  10.469 -0.1358 -0.9015  0.0802
  167MOL0     C22971  -0.041   5.584  10.372  0.2404  0.0533  0.0438
  167MOL0     C22972   0.099   5.582  10.405 -0.1098 -1.5925 -0.0193
  167MOL0     C22973   0.220   5.571  10.422 -0.3101  1.1725  0.6479
  167MOL0     C22974  -0.004   5.016  10.568  0.5979 -1.0973  0.2510
  167MOL0     C22975   0.080   4.909  10.566 -0.1057 -0.2762 -0.2417
  167MOL0     C22976   0.071   4.800  10.473  0.2543  0.8112  0.5157
  167MOL0     H22977   0.521   4.724  10.480  2.1421 -3.6041 -1.6358
  167MOL0     H22978   0.746   4.633  10.462  0.4705  0.7060  0.1149
  167MOL0     H22979   1.077   4.712  10.634 -0.2397  1.7788  0.3084
  167MOL0     H22980   0.950   4.700  10.503  0.2273 -1.6133 -0.0589
  167MOL0     H22981   1.174   4.582  10.449  0.5424 -0.8880 -0.6855
  167MOL0     H22982   1.106   4.450  10.552  0.3319 -1.6462  0.1694
  167MOL0     H22983   0.928   4.406  10.384 -0.2444  1.9818 -1.3171
  167MOL0     H22984   0.943   4.560  10.306  0.2978 -1.2453 -2.9783
  167MOL0     H22985   1.014   4.391  10.166  2.5251 -0.2831 -1.8117
  167MOL0     H22986   1.144   4.506  10.200  2.9534 -1.3104  0.5781
  167MOL0     H22987   1.253   4.350  10.338 -2.1591  2.8539 -0.8692
  167MOL0     H22988   1.207   4.266  10.190 -4.2567  0.8491 -2.7433
  167MOL0     H22989   1.069   4.261  10.463  1.3750  1.3239 -0.6904
  167MOL0     H22990   0.999   4.179  10.325  0.9942 -5.3625  1.1323
  167MOL0     H22991   1.280   4.101  10.407  0.1415 -1.4412 -1.3368
  167MOL0     H22992   1.168   4.009  10.315 -0.5240  0.8365 -0.2646
  167MOL0     H22993   1.237   3.956  10.559  0.6469  1.1832  0.9240
  167MOL0     H22994   1.131   4.077  10.621  3.5832 -0.2918  0.8066
  167MOL0     H22995   0.852   4.049  10.480 -2.9252 -1.2483  0.6875
  167MOL0     H22996   0.621   3.892  10.446  0.4409  1.4236 -0.1303
  167MOL0     H22997   0.632   3.784  10.577 -2.7756  1.4065 -0.1121
  167MOL0     H22998   0.544   3.699  10.350 -0.8508  0.1829  0.7721
  167MOL0     H22999   0.708   3.697  10.289 -2.1288  2.5314 -0.2940
  167MOL0     H23000   0.643   3.469  10.368  1.7848 -1.4494  1.3699
  167MOL0     H23001   0.779   3.538  10.453 -0.1923  2.2464  3.2413
  167MOL0     H23002   0.630   3.574  10.654 -0.4367 -1.6195  1.2425
  167MOL0     H23003   0.494   3.529  10.572 -0.3334 -2.6588 -1.0005
  167MOL0     H23004   0.464   3.211  10.570  0.4614 -1.7220 -0.1923
  167MOL0     H23005   0.230   3.097  10.826 -0.8531 -1.1769 -1.2613
  167MOL0     H23006   0.353   2.976  10.854  0.9968 -2.2779 -2.5862
  167MOL0     H23007   0.328   3.014  10.690  3.6890 -1.3315  0.3718
  167MOL0     H23008   0.177   3.303  11.226  0.8251 -0.0758  0.9725
  167MOL0     H23009   0.004   3.237  11.396 -2.7261 -0.3029 -2.0373
  167MOL0     H23010  -0.170   2.834  11.354 -0.2522 -1.6159  0.1378
  167MOL0     H23011  -0.051   2.813  11.476  0.6855  1.6016  0.4105
  167MOL0     H23012  -0.321   2.952  11.515 -0.5926 -0.1543 -2.9721
  167MOL0     H23013  -0.300   2.785  11.535 -2.5863  0.5863  2.5498
  167MOL0     H23014  -0.139   2.966  11.717  1.0394 -0.2574 -0.3779
  167MOL0     H23015  -0.177   2.798  11.734  2.7725  1.6130  2.1316
  167MOL0     H23016  -0.374   2.817  11.825 -1.0538  0.7880  1.1795
  167MOL0     H23017  -0.433   2.945  11.714  0.6837 -0.7470 -1.0324
  167MOL0     H23018  -0.311   3.113  11.827  0.2115  1.0139  1.6929
  167MOL0     H23019  -0.429   3.052  11.938  1.2967  3.6780  0.5423
  167MOL0     H23020  -0.120   2.985  11.924 -0.4907 -1.7884  0.2028
  167MOL0     H23021  -0.230   2.908  12.033  0.9942 -0.4628  0.1926
  167MOL0     H23022  -0.280   3.169  12.111  0.6391  1.1505  0.3076
  167MOL0     H23023  -0.148   3.204  12.005 -0.4413 -0.6986 -2.1457
  167MOL0     H23024  -0.142   3.030  12.257 -3.8124 -2.3274 -2.6239
  167MOL0     H23025  -0.039   3.171  12.219 -0.2286 -0.8340  2.1182
  167MOL0     H23026   0.013   2.834  11.230 -1.5096 -0.1214 -4.2560
  167MOL0     H23027   0.187   2.915  11.060  0.9909  1.9519 -0.5027
  167MOL0     H23028   0.618   3.324  11.032  1.1882 -1.3681 -0.7913
  167MOL0     H23029   0.683   3.457  10.831  0.6882  0.0390 -0.2212
  167MOL0     H23030   0.807   4.674  10.884  0.5728  1.3183  0.0993
  167MOL0     H23031   0.559   4.758  10.900 -1.7746 -2.9463 -0.0222
  167MOL0     H23032   0.277   5.027  10.832  0.3317 -0.7684  0.9131
  167MOL0     H23033   0.093   5.206  10.818 -1.9290 -0.3775  0.0946
  167MOL0     H23034  -0.209   5.183  10.491  1.1608 -0.4643  0.3886
  167MOL0     H23035  -0.250   5.330  10.589 -1.5921 -1.6961 -2.5576
  167MOL0     H23036  -0.081   5.309  10.358  1.0876 -0.5506  0.2234
  167MOL0     H23037   0.026   5.336  10.488 -0.3024 -0.9430  3.4630
  167MOL0     H23038  -0.217   5.494  10.436  0.0384  1.0361 -0.2707
  167MOL0     H23039  -0.105   5.528  10.571  0.1195 -0.4381 -0.1140
  167MOL0     H23040  -0.077   5.686  10.387  0.4117 -0.1541  2.1081
  167MOL0     H23041  -0.055   5.556  10.267  1.7264 -0.8288  0.0519
  167MOL0     H23042   0.321   5.542  10.442 -1.4517 -4.2186  0.1389
  167MOL0     H23043  -0.084   5.004  10.495 -1.0890  1.2063  1.5997
  167MOL0     H23044   0.054   4.700  10.513  1.1153  0.5129  0.1341
  167MOL0     H23045  -0.018   4.812  10.410 -0.4078 -3.2368  0.4091
  167MOL0     H23046   0.162   4.804  10.413 -1.5337  1.4040 -2.3651
  168MOL0     O23047   5.698   4.032  10.323 -1.2066  0.1032  0.7067
  168MOL0     C23048   5.690   3.950  10.239  0.5597 -0.2209  0.4464
  168MOL0     O23049   5.691   3.813  10.263  0.0122 -0.7777  0.7439
  168MOL0     C23050   5.731   3.768  10.385  0.8933  0.1403  0.1835
  168MOL0     C23051   5.841   3.816  10.459  0.6354  0.1101  1.2957
  168MOL0     C23052   5.888   3.757  10.579  0.1064 -0.9433  0.8521
  168MOL0     C23053   5.849   3.633  10.620  0.9687 -0.0338 -0.5197
  168MOL0     O23054   5.912   3.578  10.730 -0.3639  0.7233 -0.5286
  168MOL0     C23055   5.946   3.435  10.719 -0.8431 -0.1956 -0.2307
  168MOL0     C23056   5.928   3.358  10.858  0.1528 -0.5865  0.8432
  168MOL0     C23057   6.007   3.225  10.863  0.4986  0.0753 -0.5290
  168MOL0     C23058   6.132   3.258  10.944  0.7488  0.4459 -0.1008
  168MOL0     C23059   6.254   3.157  10.944 -0.4551 -0.2917 -0.1856
  168MOL0     C23060   6.230   3.027  11.022  0.0168  0.2767 -0.2823
  168MOL0     C23061   6.225   3.048  11.172 -0.3026 -0.2862  0.8683
  168MOL0     C23062   6.085   3.019  11.221 -0.3191 -0.5495 -0.3597
  168MOL0     N23063   6.089   2.982  11.364  0.2785 -0.6322  0.5856
  168MOL0     C23064   6.077   2.858  11.420 -0.4460  0.0793 -0.1096
  168MOL0     C23065   6.044   2.875  11.552 -0.4056 -0.1477 -0.0697
  168MOL0     C23066   6.024   2.761  11.638  0.3498 -0.2550 -0.2813
  168MOL0     C23067   6.130   2.723  11.737  0.2215 -0.2491  0.3987
  168MOL0     C23068   6.104   2.582  11.798  0.3561 -1.3170 -0.2581
  168MOL0     C23069   6.206   2.538  11.904 -0.2023 -0.3299  0.1836
  168MOL0     O23070   6.346   2.555  11.865 -0.2501 -0.3418 -0.8203
  168MOL0     C23071   6.432   2.574  11.967  0.2753  0.4347  0.7784
  168MOL0     C23072   6.422   2.523  12.094  0.0513  0.0449 -0.5065
  168MOL0     C23073   6.505   2.551  12.198 -0.3317  0.0338 -0.3890
  168MOL0     C23074   6.454   2.505  12.336  0.1605 -0.1261  0.0115
  168MOL0     C23075   6.615   2.642  12.175  0.6462  0.2982 -0.1228
  168MOL0     C23076   6.736   2.657  12.255  0.9744 -0.4818  0.0468
  168MOL0     O23077   6.840   2.726  12.196  0.1737  0.0738  0.1619
  168MOL0     C23078   6.957   2.753  12.274  0.0742  0.0923 -0.1567
  168MOL0     C23079   6.962   2.820  12.397 -0.6917  0.3308  0.2240
  168MOL0     C23080   7.086   2.828  12.466 -2.0002 -0.2141 -0.4969
  168MOL0     C23081   7.201   2.766  12.412 -0.1208 -0.4107 -1.4656
  168MOL0     O23082   7.324   2.760  12.480  0.1365  0.6578  0.0408
  168MOL0     C23083   7.368   2.863  12.574 -0.2815 -0.8641 -0.0700
  168MOL0     C23084   7.402   2.997  12.494 -0.3808 -0.2651 -0.1165
  168MOL0     C23085   7.448   3.115  12.592 -0.0615 -0.0436 -0.1373
  168MOL0     C23086   7.333   3.184  12.670  0.3557  0.0497 -0.7131
  168MOL0     C23087   7.389   3.278  12.774 -0.0765  0.7840  0.5849
  168MOL0     C23088   7.275   3.357  12.846 -0.1454 -0.2578  0.4386
  168MOL0     C23089   7.358   3.441  12.950  0.0892  0.1765  0.0713
  168MOL0     C23090   7.303   3.581  12.961  0.7585 -0.5586  0.3122
  168MOL0    Cl23091   7.157   3.586  13.067  0.1945  0.5640 -0.3383
  168MOL0     C23092   7.192   2.712  12.287  0.4246 -0.9455 -0.1120
  168MOL0     C23093   7.070   2.708  12.221  0.2611 -0.4950  0.0015
  168MOL0     O23094   6.738   2.620  12.372 -0.1300 -0.1066 -0.7910
  168MOL0     C23095   6.624   2.686  12.043  0.4771 -0.0775 -0.1226
  168MOL0     C23096   6.544   2.653  11.939 -0.3158  0.1907 -0.8655
  168MOL0     N23097   6.029   3.012  11.575 -0.2745 -0.6048  0.4734
  168MOL0     N23098   6.062   3.073  11.461  0.1350  0.1734 -0.1906
  168MOL0     C23099   5.737   3.585  10.547  0.1858 -0.0273  0.4978
  168MOL0     C23100   5.674   3.646  10.436 -0.9217  0.5149  0.2075
  168MOL0     C23101   5.701   4.003  10.104  0.1077 -0.0505 -0.3236
  168MOL0     C23102   5.792   3.943  10.015  0.2803 -0.4893 -0.3876
  168MOL0     C23103   5.786   3.986   9.874  0.0834 -0.7196  0.6355
  168MOL0     C23104   5.699   4.080   9.821  0.6513 -0.6791  0.9310
  168MOL0     O23105   5.711   4.106   9.691  0.1365  0.5489  0.9128
  168MOL0     C23106   5.624   4.203   9.615  0.5956 -0.2735  0.9003
  168MOL0     C23107   5.609   4.175   9.467  0.0364 -1.1810  0.1395
  168MOL0     C23108   5.503   4.066   9.428 -0.5228  0.6010 -0.1877
  168MOL0     C23109   5.497   4.058   9.278 -0.7676 -0.3939 -0.3704
  168MOL0     C23110   5.589   3.953   9.232 -0.2029 -0.1611 -0.7563
  168MOL0     C23111   5.684   3.883   9.205 -0.0699  0.8482  1.0521
  168MOL0     C23112   5.611   4.135   9.909  0.5174 -0.2703  0.2625
  168MOL0     C23113   5.612   4.111  10.049 -0.5086 -0.5982  0.7129
  168MOL0     C23114   5.521   4.168  10.151  1.4916  0.1043 -0.7965
  168MOL0     H23115   5.898   3.902  10.423 -1.1906  0.7738 -0.2341
  168MOL0     H23116   5.968   3.820  10.618 -1.3978  1.9492 -0.4147
  168MOL0     H23117   6.052   3.426  10.691 -0.9180 -1.5276 -0.1355
  168MOL0     H23118   5.876   3.376  10.659  1.0624 -4.3073  1.2715
  168MOL0     H23119   5.970   3.422  10.936  1.2016  1.3518 -1.1986
  168MOL0     H23120   5.821   3.337  10.874 -0.1673 -0.1507 -0.6143
  168MOL0     H23121   5.949   3.154  10.922  0.0122  1.0986  0.2529
  168MOL0     H23122   6.023   3.186  10.762  2.5488 -0.0015 -0.2153
  168MOL0     H23123   6.181   3.343  10.894  2.4974 -1.9390 -2.7272
  168MOL0     H23124   6.114   3.281  11.050 -2.4190 -1.4157 -0.1278
  168MOL0     H23125   6.344   3.201  10.988  1.0747 -0.7457 -2.6919
  168MOL0     H23126   6.281   3.128  10.842 -0.1076  0.3586 -0.2814
  168MOL0     H23127   6.143   2.977  10.978  1.3925  0.5842 -3.6747
  168MOL0     H23128   6.309   2.960  10.987 -3.3968 -1.7272 -5.3964
  168MOL0     H23129   6.265   3.147  11.197  1.0700 -0.6583  0.1864
  168MOL0     H23130   6.298   2.978  11.211 -0.7528 -0.2350  1.8384
  168MOL0     H23131   6.018   3.105  11.210 -0.2365 -0.2429  1.3365
  168MOL0     H23132   6.041   2.940  11.160 -0.0196  1.3535 -3.2403
  168MOL0     H23133   6.088   2.765  11.365 -0.5605 -0.5897  0.9839
  168MOL0     H23134   6.005   2.676  11.572  0.3724  1.4066 -2.5379
  168MOL0     H23135   5.932   2.776  11.696 -0.8371 -2.5670 -1.4327
  168MOL0     H23136   6.231   2.716  11.695  1.2718  2.0210  2.3224
  168MOL0     H23137   6.151   2.800  11.812  0.1229  0.3235 -0.1466
  168MOL0     H23138   6.005   2.574  11.843  1.7162 -0.4681  3.2006
  168MOL0     H23139   6.110   2.509  11.717 -1.6804 -2.9704  0.9780
  168MOL0     H23140   6.195   2.611  11.984  0.9028  2.2670 -1.8762
  168MOL0     H23141   6.183   2.441  11.950  1.7305  0.1482  2.3664
  168MOL0     H23142   6.339   2.454  12.105  1.0431 -0.9809  0.9015
  168MOL0     H23143   6.535   2.455  12.390  1.8881 -0.8183 -3.0045
  168MOL0     H23144   6.381   2.423  12.326  1.3679 -1.0157 -2.1112
  168MOL0     H23145   6.416   2.593  12.388  0.2077  0.4555 -0.9260
  168MOL0     H23146   6.875   2.855  12.450  0.5493  3.9415  0.1456
  168MOL0     H23147   7.087   2.870  12.566  0.5606 -1.8728  0.2732
  168MOL0     H23148   7.300   2.891  12.655  1.5545  3.1600  0.3520
  168MOL0     H23149   7.456   2.818  12.620  1.1191 -1.0006 -2.6410
  168MOL0     H23150   7.477   2.977  12.416  3.2821  0.9398  2.8085
  168MOL0     H23151   7.310   3.032  12.446  0.7389  0.5253 -1.8250
  168MOL0     H23152   7.504   3.186  12.530 -4.2377  1.2305 -2.8128
  168MOL0     H23153   7.516   3.066  12.663 -0.2450  2.6463  2.0371
  168MOL0     H23154   7.265   3.115  12.720  1.6448 -0.0897  0.9031
  168MOL0     H23155   7.278   3.250  12.602  1.5437  1.3388 -0.4747
  168MOL0     H23156   7.453   3.228  12.847  1.1469  0.6430 -0.5480
  168MOL0     H23157   7.441   3.358  12.720 -2.6925  1.9010 -0.4334
  168MOL0     H23158   7.208   3.283  12.891  0.7803 -1.2598  0.2178
  168MOL0     H23159   7.210   3.424  12.789 -0.3126 -0.6194  0.1995
  168MOL0     H23160   7.455   3.474  12.913  0.6165  1.9671  2.7847
  168MOL0     H23161   7.367   3.393  13.048 -0.3211  1.1652  0.6019
  168MOL0     H23162   7.262   3.629  12.871 -0.2265  1.1926  1.6518
  168MOL0     H23163   7.383   3.651  12.987 -0.7429  1.0389  0.7230
  168MOL0     H23164   7.284   2.681  12.237 -0.8393 -1.0038 -2.5769
  168MOL0     H23165   7.069   2.673  12.119  0.4813 -0.6967  0.0704
  168MOL0     H23166   6.706   2.744  12.002 -1.4797  1.6401 -1.8097
  168MOL0     H23167   6.555   2.699  11.841  0.1354  0.8965 -0.4982
  168MOL0     H23168   5.692   3.497  10.590 -2.2234  0.6962 -0.4061
  168MOL0     H23169   5.582   3.603  10.397 -1.6878 -0.0314  2.4573
  168MOL0     H23170   5.862   3.865  10.039 -0.3339 -0.2772  2.3894
  168MOL0     H23171   5.847   3.933   9.801  3.8155  4.7083 -0.8728
  168MOL0     H23172   5.520   4.189   9.648  0.0820  0.0203 -0.5521
  168MOL0     H23173   5.668   4.301   9.633 -1.3876  0.4017  2.5224
  168MOL0     H23174   5.706   4.143   9.428  0.2754 -0.4646  0.1345
  168MOL0     H23175   5.581   4.263   9.409  0.8056  0.6210  2.3692
  168MOL0     H23176   5.532   3.969   9.470 -1.1226 -1.7751 -4.5699
  168MOL0     H23177   5.408   4.104   9.467 -0.2450 -1.3823  2.7781
  168MOL0     H23178   5.521   4.152   9.228  1.9937 -0.2984  0.9450
  168MOL0     H23179   5.396   4.037   9.240 -1.0234  1.4616 -0.8216
  168MOL0     H23180   5.774   3.827   9.192 -1.0053 -0.1111 -2.1506
  168MOL0     H23181   5.543   4.211   9.871  0.1370 -0.3824  0.7110
  168MOL0     H23182   5.467   4.094  10.209 -1.5324  2.8139  0.1507
  168MOL0     H23183   5.578   4.229  10.222 -0.8156  1.1997  0.2076
  168MOL0     H23184   5.437   4.226  10.114 -0.2087 -0.7846  1.4599
  169MOL0     O23185   2.708  11.117   8.430  0.2916 -0.4539  0.2622
  169MOL0     C23186   2.759  11.218   8.389 -1.1094 -0.1801 -0.2633
  169MOL0     O23187   2.702  11.340   8.401 -0.4238 -0.6217  1.3283
  169MOL0     C23188   2.577  11.359   8.452 -0.3789 -0.0693 -0.5614
  169MOL0     C23189   2.475  11.267   8.451  0.8913 -1.3164  0.0323
  169MOL0     C23190   2.339  11.311   8.477 -1.3340 -0.4913  0.3235
  169MOL0     C23191   2.311  11.442   8.508 -0.3030 -0.0166 -0.0794
  169MOL0     O23192   2.188  11.489   8.532  0.1790 -0.1265 -0.6805
  169MOL0     C23193   2.068  11.410   8.486  0.4131  0.6344 -0.3147
  169MOL0     C23194   1.997  11.331   8.600 -0.0127  1.2993 -1.2784
  169MOL0     C23195   1.854  11.293   8.559 -0.2767 -0.0679  0.4844
  169MOL0     C23196   1.755  11.406   8.563  0.8754 -1.0168  0.8235
  169MOL0     C23197   1.653  11.377   8.675  0.2997  0.1758  0.4181
  169MOL0     C23198   1.550  11.263   8.659  0.3630 -0.9401 -0.7333
  169MOL0     C23199   1.484  11.208   8.786  0.2167 -0.0240  0.1905
  169MOL0     C23200   1.575  11.100   8.843 -1.5486  0.3926  0.0631
  169MOL0     N23201   1.667  11.147   8.948  0.2906  0.5542 -0.4011
  169MOL0     C23202   1.639  11.162   9.078  0.4822 -0.4843  0.6477
  169MOL0     C23203   1.753  11.195   9.134 -0.2139  0.1685  0.3923
  169MOL0     C23204   1.770  11.218   9.286  0.3600 -0.1679 -0.6041
  169MOL0     C23205   1.869  11.114   9.342 -1.4127  0.5656 -1.1244
  169MOL0     C23206   1.925  11.139   9.481 -0.3958 -0.1153 -0.7519
  169MOL0     C23207   2.003  11.026   9.541  0.2981  0.5659 -0.0388
  169MOL0     O23208   2.117  11.076   9.624  0.8401 -0.0112  0.8439
  169MOL0     C23209   2.241  11.066   9.568  0.2960 -0.7550 -0.8886
  169MOL0     C23210   2.343  11.057   9.664 -0.5058 -0.8234  0.4824
  169MOL0     C23211   2.485  11.064   9.622 -0.2769 -0.1490  0.2578
  169MOL0     C23212   2.590  11.048   9.724  0.6991  0.1614  0.1047
  169MOL0     C23213   2.513  11.079   9.482 -0.9199 -0.4804  0.2072
  169MOL0     C23214   2.649  11.078   9.428  0.2935 -0.4024  0.3011
  169MOL0     O23215   2.691  11.196   9.369  0.1308  0.6763  0.4242
  169MOL0     C23216   2.829  11.205   9.349 -0.7912 -0.5502 -0.3770
  169MOL0     C23217   2.904  11.127   9.265  0.7499  0.6691 -0.3591
  169MOL0     C23218   3.040  11.147   9.251 -0.8306 -0.6566  0.6142
  169MOL0     C23219   3.109  11.256   9.310  0.2628  0.9327  0.3706
  169MOL0     O23220   3.246  11.278   9.290  0.3948  0.2386  0.1244
  169MOL0     C23221   3.314  11.378   9.359 -0.2011  0.5338 -0.9990
  169MOL0     C23222   3.468  11.359   9.331 -0.1028 -0.3389 -0.8111
  169MOL0     C23223   3.539  11.430   9.457  0.2594 -0.1116 -0.6747
  169MOL0     C23224   3.690  11.430   9.445  0.4211  0.2836 -0.7200
  169MOL0     C23225   3.769  11.462   9.571  0.2820 -0.6220 -0.2222
  169MOL0     C23226   3.740  11.601   9.621  0.7103  0.2924  0.4243
  169MOL0     C23227   3.841  11.648   9.727  0.0108  0.4457  0.1815
  169MOL0     C23228   3.807  11.787   9.774  1.0511 -0.0114  0.2083
  169MOL0    Cl23229   3.782  11.914   9.643  0.1397  0.2954 -0.3524
  169MOL0     C23230   3.031  11.331   9.403  0.3738 -0.1395  0.6988
  169MOL0     C23231   2.894  11.298   9.426 -0.5600  0.8984 -0.6841
  169MOL0     O23232   2.720  10.979   9.450 -0.2811  0.5121 -0.5504
  169MOL0     C23233   2.410  11.081   9.389 -0.7608  0.1725  0.1687
  169MOL0     C23234   2.272  11.074   9.433  0.7837  0.7634 -0.4635
  169MOL0     N23235   1.852  11.203   9.038  0.0745 -0.1104  0.9828
  169MOL0     N23236   1.796  11.176   8.931 -0.7883  0.7180  0.1606
  169MOL0     C23237   2.414  11.539   8.495  0.1561  0.7829 -0.0907
  169MOL0     C23238   2.542  11.492   8.479 -0.3023 -0.1777  0.6505
  169MOL0     C23239   2.894  11.201   8.319 -0.2415 -0.3879  0.1839
  169MOL0     C23240   2.965  11.318   8.294 -0.2028  0.3858  0.8733
  169MOL0     C23241   3.105  11.308   8.249  0.3227 -0.5923 -0.2191
  169MOL0     C23242   3.162  11.190   8.215  0.7964 -1.0923  0.1907
  169MOL0     O23243   3.290  11.177   8.158  0.1078  0.1522  0.2207
  169MOL0     C23244   3.313  11.251   8.037 -0.2060  0.3774 -0.0972
  169MOL0     C23245   3.223  11.183   7.933  0.9688 -0.2353 -0.6548
  169MOL0     C23246   3.233  11.255   7.807  0.1073 -0.4164  0.4600
  169MOL0     C23247   3.131  11.218   7.701 -0.4872  0.1208  0.6354
  169MOL0     C23248   3.180  11.086   7.654  0.0733  0.0878  0.4086
  169MOL0     C23249   3.225  11.000   7.583 -0.1376  0.3882  0.7301
  169MOL0     C23250   3.079  11.076   8.214  0.8655 -0.9596 -0.4879
  169MOL0     C23251   2.945  11.080   8.267  0.8825  0.6403 -0.3810
  169MOL0     C23252   2.874  10.943   8.283  0.5128  0.2704 -0.5438
  169MOL0     H23253   2.487  11.163   8.422 -1.5699 -1.7233  0.2568
  169MOL0     H23254   2.264  11.236   8.456  0.3793 -1.9023 -1.0159
  169MOL0     H23255   2.077  11.349   8.396 -2.7567 -1.9732  0.9034
  169MOL0     H23256   1.996  11.487   8.457 -1.4667 -0.6803  0.6141
  169MOL0     H23257   2.052  11.240   8.624  1.0934  2.5516  1.2332
  169MOL0     H23258   1.990  11.393   8.690 -3.6234 -0.7179  0.0539
  169MOL0     H23259   1.856  11.258   8.455 -2.5278  0.0624  0.3610
  169MOL0     H23260   1.815  11.211   8.620  0.8374 -0.4746  0.6822
  169MOL0     H23261   1.801  11.503   8.581 -2.5963  0.7753  0.8385
  169MOL0     H23262   1.704  11.411   8.467  0.9765  4.1209  0.7731
  169MOL0     H23263   1.595  11.470   8.685 -2.0717 -1.4045  2.6993
  169MOL0     H23264   1.702  11.357   8.770  0.7691 -1.5817 -0.1708
  169MOL0     H23265   1.464  11.306   8.607 -1.4960 -1.4206  1.7706
  169MOL0     H23266   1.601  11.184   8.603  0.5627 -2.1818  1.1269
  169MOL0     H23267   1.392  11.159   8.755  1.9119 -1.2664 -3.3487
  169MOL0     H23268   1.467  11.284   8.863 -4.4796 -1.7309  1.1773
  169MOL0     H23269   1.514  11.019   8.885  0.1730 -0.8241  0.3570
  169MOL0     H23270   1.621  11.041   8.763  1.1143  0.6368  1.3108
  169MOL0     H23271   1.549  11.140   9.135 -1.1456  3.3552 -0.1661
  169MOL0     H23272   1.670  11.212   9.332  0.6416  0.6215  0.1452
  169MOL0     H23273   1.806  11.316   9.317  0.0633 -0.8533  2.1929
  169MOL0     H23274   1.811  11.021   9.343 -2.0417  0.8847  1.6260
  169MOL0     H23275   1.960  11.118   9.282  0.8731  1.6247  2.1385
  169MOL0     H23276   1.992  11.223   9.460 -3.4705  2.8255  0.1912
  169MOL0     H23277   1.844  11.181   9.542 -2.7100 -0.8336 -3.1082
  169MOL0     H23278   1.948  10.971   9.618  0.6186  1.3707  0.7920
  169MOL0     H23279   2.028  10.966   9.453  0.0061 -3.5607  2.4059
  169MOL0     H23280   2.325  11.047   9.771 -1.1979  1.2765  0.5998
  169MOL0     H23281   2.626  11.145   9.759  2.8064 -0.6015  0.1545
  169MOL0     H23282   2.686  11.007   9.690  1.4195  0.8275  1.2826
  169MOL0     H23283   2.543  10.993   9.806  0.1074 -1.1079 -1.0384
  169MOL0     H23284   2.874  11.038   9.211  3.3616  0.7617 -2.1343
  169MOL0     H23285   3.095  11.072   9.194 -0.8187 -0.6707  0.6436
  169MOL0     H23286   3.278  11.477   9.328 -1.7901  0.0953 -0.6460
  169MOL0     H23287   3.295  11.371   9.467  0.1450 -0.3682 -0.9920
  169MOL0     H23288   3.489  11.254   9.306 -4.2828 -0.9067 -2.8419
  169MOL0     H23289   3.494  11.413   9.240 -0.3035 -3.0700 -2.6032
  169MOL0     H23290   3.518  11.377   9.550 -1.0538  1.9721  0.2887
  169MOL0     H23291   3.504  11.533   9.451  0.7376  0.0952 -0.0317
  169MOL0     H23292   3.711  11.499   9.362 -4.0931  2.1036 -0.5981
  169MOL0     H23293   3.713  11.327   9.415 -2.4774 -0.1539 -1.7633
  169MOL0     H23294   3.739  11.392   9.649 -0.5077 -0.1023 -0.0473
  169MOL0     H23295   3.876  11.466   9.549  0.2235 -0.8034 -0.5499
  169MOL0     H23296   3.637  11.611   9.654  1.1702 -0.7391  2.3390
  169MOL0     H23297   3.747  11.664   9.532  2.1777  1.6008  1.4036
  169MOL0     H23298   3.949  11.639   9.710 -0.0905  2.8599 -2.3531
  169MOL0     H23299   3.827  11.579   9.811 -2.9756 -1.3552 -1.6051
  169MOL0     H23300   3.878  11.818   9.851  1.0342 -0.4570  0.4019
  169MOL0     H23301   3.706  11.785   9.817  0.8058 -0.9070 -0.3955
  169MOL0     H23302   3.068  11.411   9.466 -1.0992  0.9023  0.2895
  169MOL0     H23303   2.835  11.334   9.509 -1.3192 -0.0407 -0.7948
  169MOL0     H23304   2.432  11.092   9.283 -2.0740 -0.8312 -0.2480
  169MOL0     H23305   2.199  11.091   9.355  1.5492 -0.9840 -1.6393
  169MOL0     H23306   2.390  11.643   8.510 -1.6030  0.3034  0.7268
  169MOL0     H23307   2.624  11.561   8.460 -0.0970 -0.8655 -1.1715
  169MOL0     H23308   2.940  11.418   8.331  0.6520 -0.0651  2.8143
  169MOL0     H23309   3.169  11.396   8.246 -0.5180  0.0508  0.2079
  169MOL0     H23310   3.286  11.357   8.036 -3.0467 -0.2284 -1.9080
  169MOL0     H23311   3.416  11.241   8.004 -0.7127 -1.4228 -1.2686
  169MOL0     H23312   3.118  11.176   7.963  0.5482 -1.3734 -2.2381
  169MOL0     H23313   3.260  11.081   7.933  3.4091  0.5782  0.7168
  169MOL0     H23314   3.224  11.360   7.835  1.6339 -0.1761  0.1278
  169MOL0     H23315   3.337  11.253   7.775  1.5461 -0.0596  4.5311
  169MOL0     H23316   3.125  11.293   7.622 -0.6364 -1.9428 -1.4019
  169MOL0     H23317   3.026  11.205   7.727 -0.9522  1.8612 -0.1740
  169MOL0     H23318   3.242  10.921   7.512  0.7723  1.4276 -0.2580
  169MOL0     H23319   3.111  10.978   8.179 -1.1956 -1.0444 -2.3738
  169MOL0     H23320   2.936  10.868   8.233 -2.6005 -3.5982  0.8643
  169MOL0     H23321   2.886  10.899   8.382 -3.1923  0.8688  0.3103
  169MOL0     H23322   2.772  10.948   8.242  0.6913 -0.1270 -1.0588
  170MOL0     O23323   0.013   6.409  10.549 -0.0319 -0.4705  0.5542
  170MOL0     C23324  -0.016   6.297  10.507  0.2763 -0.4319  0.0402
  170MOL0     O23325  -0.133   6.259  10.464  0.5744 -0.7293 -0.2759
  170MOL0     C23326  -0.221   6.366  10.429 -0.0629 -0.7610 -0.8308
  170MOL0     C23327  -0.212   6.428  10.297  0.1325  0.5473  0.4261
  170MOL0     C23328  -0.287   6.541  10.270 -0.2302  0.2071 -1.0977
  170MOL0     C23329  -0.378   6.599  10.365 -0.2805  0.0288 -0.2690
  170MOL0     O23330  -0.471   6.693  10.341  0.6354  0.4302 -0.0392
  170MOL0     C23331  -0.491   6.755  10.211  0.0282  0.2669  0.1856
  170MOL0     C23332  -0.594   6.873  10.201 -0.1654  0.6108  0.3801
  170MOL0     C23333  -0.566   6.973  10.310  0.0941 -1.1955  0.2251
  170MOL0     C23334  -0.573   7.116  10.270  0.4804 -1.3356  1.1749
  170MOL0     C23335  -0.712   7.179  10.281  0.2256  0.6970 -0.6248
  170MOL0     C23336  -0.697   7.331  10.246  0.0448  0.7173  0.1060
  170MOL0     C23337  -0.839   7.388  10.242  0.0241  0.2609  0.3323
  170MOL0     C23338  -0.850   7.537  10.249  0.1967  0.7890  0.4465
  170MOL0     N23339  -0.782   7.584  10.370 -1.1982 -0.4624  0.9327
  170MOL0     C23340  -0.819   7.529  10.490  1.2019 -0.1474 -0.6180
  170MOL0     C23341  -0.721   7.581  10.580 -0.9883 -0.8157  0.2451
  170MOL0     C23342  -0.704   7.551  10.724 -0.1798 -0.0866 -0.4160
  170MOL0     C23343  -0.800   7.647  10.803  0.6830  0.2252 -0.3213
  170MOL0     C23344  -0.775   7.622  10.956 -0.3315  0.4875 -0.1507
  170MOL0     C23345  -0.821   7.740  11.035 -0.0042  0.3993  0.0791
  170MOL0     O23346  -0.945   7.790  10.981 -0.7256  0.0714  0.5376
  170MOL0     C23347  -0.964   7.923  10.994  0.1710 -0.1490 -0.2323
  170MOL0     C23348  -1.081   7.957  11.053  0.6489  0.3048  0.2450
  170MOL0     C23349  -1.132   8.092  11.071 -0.8970 -1.0477 -0.4227
  170MOL0     C23350  -1.259   8.101  11.148  0.7475 -0.1173  0.2962
  170MOL0     C23351  -1.056   8.193  11.013 -0.7150  0.2703 -0.6247
  170MOL0     C23352  -1.113   8.320  10.991 -0.2063 -0.0108 -0.2959
  170MOL0     O23353  -1.028   8.419  11.009 -0.2805  0.1634  0.7972
  170MOL0     C23354  -1.071   8.550  11.001  0.7692  0.3145 -0.5418
  170MOL0     C23355  -1.037   8.629  10.891 -0.5857  0.6575  0.9067
  170MOL0     C23356  -1.062   8.768  10.893 -0.3396  1.2607  0.4011
  170MOL0     C23357  -1.116   8.817  11.009  0.2692  0.2845  0.5642
  170MOL0     O23358  -1.127   8.957  11.006  0.2746 -0.4183 -0.7894
  170MOL0     C23359  -1.209   9.028  11.102  0.2291 -0.8829  0.4520
  170MOL0     C23360  -1.229   9.168  11.061 -0.5004 -0.0989  0.3469
  170MOL0     C23361  -1.115   9.263  11.098  0.9096  0.7564  0.2231
  170MOL0     C23362  -1.136   9.321  11.238 -0.0787  0.2685 -0.5871
  170MOL0     C23363  -1.040   9.428  11.283  0.1368 -0.5798  0.3328
  170MOL0     C23364  -0.893   9.384  11.310  1.2350 -0.2439 -0.7459
  170MOL0     C23365  -0.805   9.498  11.356 -0.1335  0.5941  0.2448
  170MOL0     C23366  -0.663   9.473  11.295 -0.1287  0.1223  0.5130
  170MOL0    Cl23367  -0.593   9.321  11.346  0.1241  0.3350  0.0345
  170MOL0     C23368  -1.162   8.743  11.119  0.7986 -0.7494 -0.1652
  170MOL0     C23369  -1.130   8.608  11.115 -0.0358  0.2998  0.0354
  170MOL0     O23370  -1.224   8.336  10.949  0.3028 -0.0094  0.2125
  170MOL0     C23371  -0.937   8.160  10.941  0.2098  0.8141  0.5146
  170MOL0     C23372  -0.880   8.027  10.945  0.3387 -0.0130  0.1834
  170MOL0     N23373  -0.641   7.683  10.515  0.7964  0.6852  0.2530
  170MOL0     N23374  -0.681   7.677  10.391  0.6493  0.0114  0.5794
  170MOL0     C23375  -0.375   6.548  10.499 -0.8246  0.8115 -0.4959
  170MOL0     C23376  -0.299   6.435  10.532 -1.1262  0.6566  0.3811
  170MOL0     C23377   0.093   6.190  10.503  0.1620 -0.0603  0.9577
  170MOL0     C23378   0.053   6.046  10.508  0.3877 -0.4594 -0.1183
  170MOL0     C23379   0.150   5.952  10.505 -0.5850 -0.3467 -0.3823
  170MOL0     C23380   0.281   5.968  10.484 -0.5128  0.4273  0.0893
  170MOL0     O23381   0.365   5.857  10.477  0.1661 -0.5846 -0.0558
  170MOL0     C23382   0.509   5.870  10.472  0.5379  0.6829 -0.1964
  170MOL0     C23383   0.555   5.901  10.611 -0.8313 -0.0116 -0.0362
  170MOL0     C23384   0.490   5.816  10.724  0.3560  0.5108  0.4047
  170MOL0     C23385   0.587   5.753  10.818 -0.1269 -0.8082 -0.9570
  170MOL0     C23386   0.662   5.664  10.749 -0.5045  0.4049  0.1852
  170MOL0     C23387   0.726   5.583  10.685  0.8263 -0.5188 -0.2187
  170MOL0     C23388   0.327   6.098  10.480  0.7202  0.4507 -0.7309
  170MOL0     C23389   0.235   6.201  10.498 -0.2142 -0.2793  0.3624
  170MOL0     C23390   0.302   6.334  10.476 -0.5794 -0.2270  0.2621
  170MOL0     H23391  -0.128   6.403  10.233 -0.4128  0.7124 -0.3721
  170MOL0     H23392  -0.272   6.596  10.178 -2.5310  4.4007  0.7601
  170MOL0     H23393  -0.510   6.681  10.132 -2.2520  2.0912 -1.0910
  170MOL0     H23394  -0.399   6.813  10.194 -0.9247  3.3093  4.0855
  170MOL0     H23395  -0.572   6.929  10.110 -0.3492 -0.5575 -0.4027
  170MOL0     H23396  -0.700   6.846  10.207 -0.7111  2.2886 -0.8781
  170MOL0     H23397  -0.637   6.960  10.393  1.5066  3.4421  2.4822
  170MOL0     H23398  -0.472   6.946  10.358  0.5971  2.0235  1.2493
  170MOL0     H23399  -0.508   7.190  10.316 -1.0346  0.0938  1.1341
  170MOL0     H23400  -0.556   7.124  10.162 -2.2222 -1.4757  0.6586
  170MOL0     H23401  -0.761   7.156  10.376 -0.2656  0.9374 -0.8167
  170MOL0     H23402  -0.767   7.123  10.205 -0.0393  2.0107 -1.4290
  170MOL0     H23403  -0.639   7.374  10.329  3.2695 -2.7103 -0.0895
  170MOL0     H23404  -0.654   7.348  10.147 -1.6046 -2.0969 -1.2185
  170MOL0     H23405  -0.910   7.340  10.309 -1.8321  0.9590 -1.0503
  170MOL0     H23406  -0.879   7.365  10.143 -1.1872 -1.5937  1.1845
  170MOL0     H23407  -0.810   7.575  10.154 -0.6361 -0.0234 -0.2553
  170MOL0     H23408  -0.959   7.548  10.254  0.3147  2.3805 -0.1522
  170MOL0     H23409  -0.907   7.474  10.520  0.4834  2.1356  1.9324
  170MOL0     H23410  -0.598   7.571  10.743 -0.1448 -1.8612  1.7329
  170MOL0     H23411  -0.708   7.445  10.749  1.5716 -0.0521  0.1768
  170MOL0     H23412  -0.794   7.752  10.773  1.0894 -0.3060 -2.2499
  170MOL0     H23413  -0.896   7.607  10.770  1.2080 -2.0165  0.6409
  170MOL0     H23414  -0.837   7.539  10.989 -0.0119  0.9437  1.7266
  170MOL0     H23415  -0.671   7.601  10.981 -1.2952 -2.0754  2.1765
  170MOL0     H23416  -0.860   7.710  11.133 -0.6150 -2.3105 -0.8871
  170MOL0     H23417  -0.742   7.814  11.043  3.9827 -3.5825  1.7455
  170MOL0     H23418  -1.137   7.872  11.089 -1.6286  2.5275  2.3871
  170MOL0     H23419  -1.237   8.054  11.244 -0.6355 -0.2519  0.5596
  170MOL0     H23420  -1.341   8.057  11.092 -0.6680  2.2833  0.3310
  170MOL0     H23421  -1.293   8.205  11.159  1.7217  0.1757  0.6568
  170MOL0     H23422  -0.980   8.575  10.816 -0.0106 -0.1665  1.9099
  170MOL0     H23423  -1.032   8.819  10.802 -1.3035  2.0317  0.5054
  170MOL0     H23424  -1.311   8.988  11.103 -0.6281  0.8410 -3.0970
  170MOL0     H23425  -1.157   9.031  11.198  1.1558  2.0763 -0.0399
  170MOL0     H23426  -1.242   9.158  10.952  2.8456 -2.2351 -0.0228
  170MOL0     H23427  -1.319   9.201  11.113 -0.9645 -0.7979 -0.0042
  170MOL0     H23428  -1.108   9.338  11.019  1.5859  0.3557 -0.0991
  170MOL0     H23429  -1.023   9.204  11.096 -1.1381 -2.6142 -0.3698
  170MOL0     H23430  -1.140   9.246  11.317 -1.2386  0.4958 -0.4071
  170MOL0     H23431  -1.237   9.355  11.216 -0.3456 -1.7008 -2.7659
  170MOL0     H23432  -1.045   9.511  11.211 -1.4918 -0.9876 -0.0687
  170MOL0     H23433  -1.080   9.462  11.379  0.1131 -5.2133  2.2205
  170MOL0     H23434  -0.853   9.351  11.213  3.6871  0.4153 -0.0345
  170MOL0     H23435  -0.889   9.321  11.399  2.4449  1.6159  0.5901
  170MOL0     H23436  -0.789   9.498  11.464  2.3234  0.8981 -0.0706
  170MOL0     H23437  -0.841   9.594  11.318 -0.7950  0.0657 -0.5047
  170MOL0     H23438  -0.595   9.552  11.328  0.5224  0.9106 -2.3510
  170MOL0     H23439  -0.675   9.469  11.186 -1.1611  0.0588  0.6218
  170MOL0     H23440  -1.209   8.800  11.198  1.0176  2.4839 -2.1874
  170MOL0     H23441  -1.152   8.540  11.197  1.6007 -1.6062 -1.0294
  170MOL0     H23442  -0.892   8.226  10.868  1.8864 -2.1932 -1.3693
  170MOL0     H23443  -0.784   8.003  10.902 -0.1496 -0.1365 -0.8729
  170MOL0     H23444  -0.443   6.601  10.566 -1.5467 -1.4175  0.6210
  170MOL0     H23445  -0.320   6.397  10.631 -1.1380 -1.2234 -0.3055
  170MOL0     H23446  -0.052   6.018  10.511 -0.1634  1.5004  2.3320
  170MOL0     H23447   0.125   5.847  10.514  0.5710 -0.6531 -0.5957
  170MOL0     H23448   0.559   5.774  10.453 -0.8776 -0.3278  0.9513
  170MOL0     H23449   0.534   5.945  10.396 -0.5724  0.1808 -1.0993
  170MOL0     H23450   0.528   6.006  10.624  1.9317  0.6738  0.6828
  170MOL0     H23451   0.664   5.892  10.616 -0.8060  0.6661  3.3136
  170MOL0     H23452   0.420   5.882  10.776 -0.0923  0.5457 -0.2353
  170MOL0     H23453   0.429   5.733  10.691 -1.2070  0.8916  2.1855
  170MOL0     H23454   0.546   5.700  10.904  1.4437 -1.1515 -0.3970
  170MOL0     H23455   0.653   5.824  10.868 -2.4514 -0.1824  1.4537
  170MOL0     H23456   0.770   5.507  10.624  2.5004  0.4920 -0.3546
  170MOL0     H23457   0.427   6.138  10.471  0.2251  1.9262 -0.0452
  170MOL0     H23458   0.235   6.417  10.454  1.6857  1.7743  0.5129
  170MOL0     H23459   0.359   6.360  10.566  0.0853  1.7398 -0.6578
  170MOL0     H23460   0.372   6.325  10.392 -1.7402 -0.1684 -0.7341
  171MOL0     O23461   6.928   3.373   6.847  0.3375 -0.0162 -0.0660
  171MOL0     C23462   7.033   3.435   6.858  0.1881 -0.6732  0.0007
  171MOL0     O23463   7.125   3.415   6.961  0.0305 -0.0828 -0.7428
  171MOL0     C23464   7.108   3.300   7.042 -0.1977  0.3121  0.1986
  171MOL0     C23465   7.108   3.162   6.999 -0.0431  0.0102 -0.6108
  171MOL0     C23466   7.099   3.052   7.094 -0.3172  0.2252  1.3080
  171MOL0     C23467   7.113   3.070   7.231  0.1555  0.1369 -0.1955
  171MOL0     O23468   7.118   2.965   7.318  0.2874  0.6907 -0.1088
  171MOL0     C23469   7.183   2.990   7.448 -1.2578  0.1976  0.6006
  171MOL0     C23470   7.201   2.844   7.510 -0.4179 -1.0626  0.7100
  171MOL0     C23471   7.265   2.739   7.429  0.3310  0.7248  0.3343
  171MOL0     C23472   7.417   2.759   7.409  0.0586  0.9681  0.4566
  171MOL0     C23473   7.497   2.686   7.522 -0.3557  0.2900 -0.1402
  171MOL0     C23474   7.641   2.738   7.510 -0.8396 -1.9552 -0.4959
  171MOL0     C23475   7.752   2.661   7.582 -0.1448 -0.6294 -0.2131
  171MOL0     C23476   7.736   2.578   7.711 -0.6227 -1.0214 -0.3472
  171MOL0     N23477   7.860   2.520   7.770  0.9603 -1.0012  0.6838
  171MOL0     C23478   7.949   2.590   7.842  0.2165 -0.1540  0.0114
  171MOL0     C23479   8.023   2.502   7.905  0.9815 -0.4296 -0.6399
  171MOL0     C23480   8.153   2.544   7.984  0.2987  0.6868  0.8404
  171MOL0     C23481   8.213   2.678   7.936  0.2226  0.1808  1.3626
  171MOL0     C23482   8.149   2.798   8.009  0.5057  0.2289 -0.1413
  171MOL0     C23483   8.128   2.925   7.930 -0.0270 -0.1042 -0.3019
  171MOL0     O23484   8.008   2.922   7.857  0.4640  0.4840  0.2361
  171MOL0     C23485   7.962   3.040   7.793  0.5324  0.4800 -0.5573
  171MOL0     C23486   7.827   3.038   7.756 -0.3040  1.3231  0.1180
  171MOL0     C23487   7.758   3.157   7.700 -0.7223 -0.4074 -0.3864
  171MOL0     C23488   7.618   3.143   7.659  0.5286 -0.7584  0.1200
  171MOL0     C23489   7.840   3.272   7.686  0.3044  1.2699  0.0607
  171MOL0     C23490   7.789   3.390   7.629 -0.1536  0.1283  0.6173
  171MOL0     O23491   7.818   3.500   7.693 -0.2880  0.6074 -0.0238
  171MOL0     C23492   7.778   3.630   7.647  0.3912  1.0879  0.0063
  171MOL0     C23493   7.852   3.745   7.650  0.0883 -0.5659 -0.3652
  171MOL0     C23494   7.805   3.868   7.596  0.0654 -0.0575  0.1778
  171MOL0     C23495   7.681   3.874   7.531  0.7794  0.0528 -0.2286
  171MOL0     O23496   7.634   3.983   7.473  0.3200  0.5196 -0.1220
  171MOL0     C23497   7.706   4.105   7.457 -0.0852  0.0038 -0.2675
  171MOL0     C23498   7.650   4.192   7.344 -0.1903 -0.0507 -0.2341
  171MOL0     C23499   7.687   4.151   7.202 -0.5415  0.1450 -0.4587
  171MOL0     C23500   7.642   4.259   7.106  0.3624  0.1671  0.3743
  171MOL0     C23501   7.497   4.263   7.091 -0.3867  0.3329 -0.0135
  171MOL0     C23502   7.450   4.382   6.995 -0.7547 -0.3415 -0.3533
  171MOL0     C23503   7.303   4.378   6.949 -0.5061  0.5873 -0.1176
  171MOL0     C23504   7.210   4.446   7.056  0.3801  0.7786  0.3319
  171MOL0    Cl23505   7.187   4.316   7.180  0.6252  0.1648  0.5007
  171MOL0     C23506   7.597   3.759   7.535  0.0397 -0.3697 -1.2842
  171MOL0     C23507   7.647   3.641   7.595 -0.1474  0.2553 -0.6669
  171MOL0     O23508   7.740   3.380   7.522 -1.1550  0.0517 -0.5785
  171MOL0     C23509   7.983   3.259   7.712 -0.0914  0.6784  0.4512
  171MOL0     C23510   8.031   3.149   7.768  0.2048  0.5560  0.6111
  171MOL0     N23511   7.971   2.376   7.883 -0.6627  0.8214  0.1046
  171MOL0     N23512   7.876   2.388   7.794  0.5445  1.5842  0.0335
  171MOL0     C23513   7.122   3.200   7.272  0.5831 -0.2292  1.3201
  171MOL0     C23514   7.118   3.316   7.180 -0.8344 -0.8918 -0.4293
  171MOL0     C23515   7.065   3.540   6.756 -0.7908 -0.8694  0.1363
  171MOL0     C23516   7.203   3.598   6.760  0.2472  0.5833 -1.5117
  171MOL0     C23517   7.251   3.674   6.660  1.3814  0.1035 -0.4570
  171MOL0     C23518   7.168   3.715   6.552 -0.0020 -0.5712  0.2489
  171MOL0     O23519   7.225   3.809   6.468  0.0749  1.0057 -0.1725
  171MOL0     C23520   7.165   3.844   6.346  0.5725 -0.5285  0.2030
  171MOL0     C23521   7.260   3.903   6.237 -0.2189  0.4512  0.9820
  171MOL0     C23522   7.371   3.804   6.215 -0.4447 -0.0136 -0.4388
  171MOL0     C23523   7.477   3.853   6.119  0.5926  0.4526  1.0619
  171MOL0     C23524   7.556   3.958   6.172 -0.0506 -0.3935 -0.3795
  171MOL0     C23525   7.616   4.049   6.215  0.5430 -0.3247  0.6351
  171MOL0     C23526   7.030   3.670   6.550 -0.3709  0.9639  0.1094
  171MOL0     C23527   6.986   3.583   6.652  0.4066 -0.6921 -0.6442
  171MOL0     C23528   6.841   3.541   6.639  0.0049 -0.5240  0.0535
  171MOL0     H23529   7.097   3.142   6.893 -0.8947  0.2314 -0.5706
  171MOL0     H23530   7.103   2.953   7.049  1.1438  1.3641 -1.2749
  171MOL0     H23531   7.123   3.050   7.517 -0.7408  1.8848 -0.3633
  171MOL0     H23532   7.282   3.032   7.429 -1.3040  0.0528  0.0284
  171MOL0     H23533   7.260   2.843   7.602 -0.6806 -1.3392  0.8775
  171MOL0     H23534   7.098   2.806   7.514  0.1068 -2.6326  0.2177
  171MOL0     H23535   7.236   2.640   7.467 -1.0246  1.8274  2.3774
  171MOL0     H23536   7.226   2.740   7.327  0.1602 -0.6705  0.3645
  171MOL0     H23537   7.443   2.723   7.309 -2.4809  3.4742 -1.2700
  171MOL0     H23538   7.430   2.868   7.411 -1.0519  1.0919  2.0026
  171MOL0     H23539   7.501   2.577   7.510  1.0575  0.3957 -0.8948
  171MOL0     H23540   7.462   2.705   7.624  3.1539  0.6706  1.1118
  171MOL0     H23541   7.666   2.741   7.404 -1.7669 -3.5011 -0.7864
  171MOL0     H23542   7.644   2.842   7.545  1.6206 -1.6764 -1.3475
  171MOL0     H23543   7.827   2.734   7.614 -0.5660 -0.6282  0.8192
  171MOL0     H23544   7.793   2.594   7.506  2.1087  2.0377 -1.4961
  171MOL0     H23545   7.681   2.638   7.784 -2.2478 -1.2413 -1.3440
  171MOL0     H23546   7.668   2.503   7.669  0.5523 -0.8188 -2.7872
  171MOL0     H23547   7.957   2.698   7.843 -0.3895 -0.1082  1.5699
  171MOL0     H23548   8.220   2.460   7.965 -0.4347 -0.1113  1.7047
  171MOL0     H23549   8.146   2.543   8.093  0.7666 -2.1191  0.9148
  171MOL0     H23550   8.317   2.672   7.971  1.3276 -3.2794 -1.7946
  171MOL0     H23551   8.244   2.673   7.831  3.8673 -2.0116  2.3473
  171MOL0     H23552   8.051   2.769   8.047  0.5468 -1.8827 -1.4645
  171MOL0     H23553   8.206   2.813   8.101 -1.4351 -1.2821  1.3841
  171MOL0     H23554   8.120   2.994   8.014  0.1704 -0.6271  0.1504
  171MOL0     H23555   8.214   2.959   7.873  1.0503  0.5950  1.6446
  171MOL0     H23556   7.771   2.948   7.782  1.0186  1.3205  3.4491
  171MOL0     H23557   7.572   3.047   7.684 -2.1409 -0.5797 -3.3211
  171MOL0     H23558   7.599   3.157   7.552 -1.8002 -2.4114  0.2356
  171MOL0     H23559   7.554   3.227   7.687 -1.2935 -2.3091  0.8424
  171MOL0     H23560   7.948   3.738   7.702 -0.7937  1.1509  1.6586
  171MOL0     H23561   7.871   3.954   7.596 -1.1121  0.8868 -0.0732
  171MOL0     H23562   7.693   4.170   7.545  0.9570 -1.5019  1.0500
  171MOL0     H23563   7.812   4.078   7.457 -0.1338 -0.2021 -0.8747
  171MOL0     H23564   7.542   4.199   7.357 -0.2314 -1.1745  0.1421
  171MOL0     H23565   7.698   4.289   7.359  1.9436 -1.3343  1.7701
  171MOL0     H23566   7.636   4.055   7.187  1.7961 -0.6776 -4.6128
  171MOL0     H23567   7.793   4.126   7.206 -1.0743 -2.3790 -0.4400
  171MOL0     H23568   7.687   4.237   7.008  1.9813 -0.5791  1.2368
  171MOL0     H23569   7.677   4.356   7.144 -5.2827  2.2654  1.1076
  171MOL0     H23570   7.474   4.170   7.038 -2.4228  1.1946 -0.7499
  171MOL0     H23571   7.447   4.277   7.187  1.5882  2.4501  0.7869
  171MOL0     H23572   7.503   4.378   6.900 -2.8640 -0.1070 -1.6120
  171MOL0     H23573   7.474   4.474   7.050  1.2155 -2.4212  2.5903
  171MOL0     H23574   7.274   4.274   6.931  4.0302 -0.4859 -2.9575
  171MOL0     H23575   7.289   4.436   6.857 -1.2752  0.1441 -0.2915
  171MOL0     H23576   7.121   4.485   7.006 -1.4455 -4.7507 -1.4758
  171MOL0     H23577   7.251   4.535   7.105 -0.1479  0.7011  0.9359
  171MOL0     H23578   7.493   3.760   7.503 -0.4162  1.1328  0.0899
  171MOL0     H23579   7.578   3.557   7.606 -1.5543  1.2524 -1.5535
  171MOL0     H23580   8.056   3.337   7.693 -0.4010  1.1251  1.0613
  171MOL0     H23581   8.136   3.147   7.793  1.4490  3.8631 -3.2000
  171MOL0     H23582   7.146   3.231   7.373 -0.7469  2.3182  0.9366
  171MOL0     H23583   7.140   3.416   7.214 -2.8488  0.0831 -1.7770
  171MOL0     H23584   7.278   3.587   6.837  0.5649  1.3273 -1.6989
  171MOL0     H23585   7.347   3.724   6.654  0.0334  2.7085 -2.7953
  171MOL0     H23586   7.101   3.764   6.306  0.6979  0.1642 -1.4328
  171MOL0     H23587   7.094   3.925   6.364  1.2088 -0.5027  3.0949
  171MOL0     H23588   7.289   4.003   6.273 -1.8185  2.5520 -2.9412
  171MOL0     H23589   7.210   3.911   6.140  2.6018 -2.0349 -0.8318
  171MOL0     H23590   7.422   3.769   6.306 -2.2475  0.6502  0.8784
  171MOL0     H23591   7.322   3.714   6.177 -1.6097 -0.2711  1.5358
  171MOL0     H23592   7.422   3.883   6.029 -0.7564  1.6431  2.2318
  171MOL0     H23593   7.543   3.772   6.088 -0.1987  0.7729 -1.7395
  171MOL0     H23594   7.663   4.138   6.251  0.5029  0.3167 -0.8325
  171MOL0     H23595   6.965   3.709   6.472  1.3808  1.3325 -1.2382
  171MOL0     H23596   6.782   3.614   6.583  3.3269  3.2357  1.0131
  171MOL0     H23597   6.843   3.440   6.597  0.6782 -0.6121  0.2915
  171MOL0     H23598   6.783   3.517   6.728  2.6586  0.5939  2.2180
  172MOL0     O23599   7.900  11.347   1.203 -0.2700  0.4878  0.0055
  172MOL0     C23600   7.845  11.435   1.267 -0.2994 -0.2007 -0.2039
  172MOL0     O23601   7.703  11.444   1.285  0.7076 -0.0999  0.4048
  172MOL0     C23602   7.621  11.378   1.200  1.1750  0.1109  0.1792
  172MOL0     C23603   7.491  11.400   1.238  0.7700 -0.2810  1.2005
  172MOL0     C23604   7.385  11.351   1.158 -0.3685 -0.6121  0.3469
  172MOL0     C23605   7.412  11.276   1.047  0.1067  0.5923 -0.0100
  172MOL0     O23606   7.302  11.218   0.977 -0.0062  0.2299  0.4454
  172MOL0     C23607   7.334  11.145   0.859  0.3228  0.4625  0.3172
  172MOL0     C23608   7.209  11.082   0.796 -0.1452 -0.9752  0.5248
  172MOL0     C23609   7.253  11.024   0.657 -0.7789  0.4826 -1.0665
  172MOL0     C23610   7.188  11.082   0.540 -0.1324  0.1683 -0.2098
  172MOL0     C23611   7.247  11.019   0.400 -0.9865 -0.2402 -0.0686
  172MOL0     C23612   7.208  11.085   0.260 -0.3347  0.0959 -0.4241
  172MOL0     C23613   7.314  11.200   0.232  0.4096  1.1848  0.8386
  172MOL0     C23614   7.301  11.258   0.088 -0.6791 -0.2751 -0.2820
  172MOL0     N23615   7.418  11.350   0.070 -0.1160 -0.1154  0.3086
  172MOL0     C23616   7.436  11.476   0.112 -0.0510  0.3825  0.0872
  172MOL0     C23617   7.565  11.521   0.076 -0.2187 -0.5079  0.2309
  172MOL0     C23618   7.627  11.660   0.077 -0.2908 -0.4501 -0.5575
  172MOL0     C23619   7.638  11.716  -0.063  0.1677 -0.5675 -0.7689
  172MOL0     C23620   7.678  11.860  -0.070  1.0288 -0.6693  0.5658
  172MOL0     C23621   7.816  11.895  -0.010  0.7290 -0.4530 -0.0619
  172MOL0     O23622   7.922  11.817  -0.067 -0.1327  0.3283  0.0922
  172MOL0     C23623   8.051  11.806  -0.000  0.8921 -0.0486 -0.5802
  172MOL0     C23624   8.093  11.890   0.107 -0.0447 -0.9543 -0.1210
  172MOL0     C23625   8.224  11.862   0.171 -0.0583 -0.3859 -1.0685
  172MOL0     C23626   8.284  11.960   0.273 -1.1443 -0.3290  0.4776
  172MOL0     C23627   8.290  11.742   0.140  0.4110 -0.1149 -0.3624
  172MOL0     C23628   8.418  11.695   0.203  0.2329  0.6021  0.1127
  172MOL0     O23629   8.425  11.556   0.211 -0.2060 -0.1125 -0.2901
  172MOL0     C23630   8.545  11.501   0.256  0.1330  0.0474  0.3228
  172MOL0     C23631   8.548  11.428   0.371 -0.0771 -0.4630 -0.5658
  172MOL0     C23632   8.663  11.371   0.423 -0.7558  0.0070 -0.1036
  172MOL0     C23633   8.784  11.361   0.343 -0.2951 -0.5011 -0.1720
  172MOL0     O23634   8.905  11.308   0.385 -0.1712  1.1492 -0.7083
  172MOL0     C23635   9.014  11.398   0.402 -1.2148  0.3903  0.4652
  172MOL0     C23636   9.156  11.347   0.373 -0.2797 -0.6592 -0.2481
  172MOL0     C23637   9.202  11.244   0.476 -0.3707  0.3967 -0.0050
  172MOL0     C23638   9.262  11.297   0.599 -0.0603  0.6489  0.1789
  172MOL0     C23639   9.336  11.196   0.687 -0.6777  0.7147 -0.0016
  172MOL0     C23640   9.479  11.157   0.648 -0.6519 -0.5673 -0.0543
  172MOL0     C23641   9.533  11.050   0.742 -0.1088 -0.5722  0.2091
  172MOL0     C23642   9.667  11.014   0.688 -0.9466 -0.0527 -0.0764
  172MOL0    Cl23643   9.759  10.941   0.810 -0.0543  0.2304  0.5639
  172MOL0     C23644   8.778  11.429   0.218  0.5571  0.4555 -0.0545
  172MOL0     C23645   8.663  11.505   0.174  0.5233  0.0925 -0.0501
  172MOL0     O23646   8.499  11.762   0.252 -0.2436 -0.0363 -0.6716
  172MOL0     C23647   8.238  11.659   0.035 -0.5553  0.6981  0.1078
  172MOL0     C23648   8.127  11.698  -0.032 -0.5315 -0.1178  0.9985
  172MOL0     N23649   7.622  11.413   0.003  0.3119  0.6849  0.1759
  172MOL0     N23650   7.535  11.314   0.007 -0.2490 -0.7558  0.9267
  172MOL0     C23651   7.544  11.258   1.012  0.9624 -0.8644  1.5574
  172MOL0     C23652   7.650  11.327   1.073 -1.2710  0.0378 -0.2572
  172MOL0     C23653   7.925  11.535   1.330  0.3945 -0.5897  0.1534
  172MOL0     C23654   7.857  11.652   1.363 -0.9895  0.1580  0.9880
  172MOL0     C23655   7.925  11.767   1.427  0.0262 -1.2235  0.3095
  172MOL0     C23656   8.059  11.767   1.455  0.8604  0.5612 -1.2689
  172MOL0     O23657   8.132  11.863   1.519  0.6711 -0.1204  0.7632
  172MOL0     C23658   8.059  11.984   1.537  0.7289 -0.0000  0.3251
  172MOL0     C23659   8.143  12.077   1.625  0.7598 -0.3189  0.1047
  172MOL0     C23660   8.069  12.206   1.640 -0.2684 -0.7105  0.0486
  172MOL0     C23661   8.154  12.288   1.747  0.0775  0.4490 -0.3741
  172MOL0     C23662   8.095  12.415   1.793  0.0201 -0.1443 -0.5303
  172MOL0     C23663   8.055  12.526   1.820 -0.3379 -0.3432  0.4322
  172MOL0     C23664   8.127  11.647   1.414  0.8741  0.2483  0.0902
  172MOL0     C23665   8.066  11.541   1.351  0.0905 -0.1916  0.2496
  172MOL0     C23666   8.166  11.424   1.314 -0.6433  0.3297 -0.2381
  172MOL0     H23667   7.467  11.454   1.329 -1.1660 -0.2426  0.7102
  172MOL0     H23668   7.285  11.382   1.189 -0.4761  1.8573 -2.1318
  172MOL0     H23669   7.398  11.063   0.894 -3.0611 -0.7245  4.6905
  172MOL0     H23670   7.383  11.206   0.782 -2.3214  0.4778 -1.4687
  172MOL0     H23671   7.167  11.002   0.858  0.2617 -0.5528  1.3670
  172MOL0     H23672   7.136  11.161   0.780  2.5086  1.5632 -0.0341
  172MOL0     H23673   7.360  11.015   0.638 -0.4585  0.9116  0.4280
  172MOL0     H23674   7.226  10.918   0.666  0.0191  0.4283  1.6456
  172MOL0     H23675   7.079  11.081   0.550 -0.2535  1.3406 -1.0500
  172MOL0     H23676   7.213  11.189   0.540 -1.7156  0.5805 -0.9234
  172MOL0     H23677   7.216  10.915   0.409 -1.2409 -0.1626 -0.0293
  172MOL0     H23678   7.356  11.017   0.402 -0.8598  2.4263 -0.3461
  172MOL0     H23679   7.231  11.025   0.172  1.6526  1.1017 -0.6382
  172MOL0     H23680   7.103  11.116   0.264 -0.4319 -0.3216  0.9249
  172MOL0     H23681   7.416  11.168   0.252  0.4354  1.8118  1.7782
  172MOL0     H23682   7.289  11.289   0.290 -0.4771  0.1778  2.0552
  172MOL0     H23683   7.322  11.179   0.016 -3.8426 -2.5506  1.0493
  172MOL0     H23684   7.206  11.305   0.059  0.0706  1.5596  0.1114
  172MOL0     H23685   7.354  11.534   0.151 -0.8264  0.9218 -2.2216
  172MOL0     H23686   7.725  11.652   0.124 -0.5400 -1.8185 -0.2229
  172MOL0     H23687   7.566  11.730   0.136 -1.4138 -1.2848 -0.6903
  172MOL0     H23688   7.703  11.665  -0.135  0.6628 -0.6471 -0.2723
  172MOL0     H23689   7.541  11.694  -0.107  0.0707  0.3825 -1.0659
  172MOL0     H23690   7.666  11.882  -0.177 -1.2834  0.5384  1.0052
  172MOL0     H23691   7.594  11.918  -0.033  1.2591  1.1344 -1.5105
  172MOL0     H23692   7.839  12.001  -0.017 -0.4765 -0.2248 -0.8766
  172MOL0     H23693   7.819  11.862   0.095  3.1511  0.4051  0.1850
  172MOL0     H23694   8.034  11.975   0.140  2.2729 -0.5266  3.5774
  172MOL0     H23695   8.260  11.928   0.375  0.1005  1.1412  1.2810
  172MOL0     H23696   8.231  12.054   0.255  1.1990  1.5294  2.4654
  172MOL0     H23697   8.390  11.981   0.259 -0.9720 -1.8548 -0.6460
  172MOL0     H23698   8.451  11.407   0.414 -0.0021 -1.2793 -0.7822
  172MOL0     H23699   8.667  11.334   0.525 -3.0223 -0.4548 -0.1190
  172MOL0     H23700   8.999  11.484   0.336  2.3217 -1.0802 -2.5862
  172MOL0     H23701   9.026  11.428   0.507  4.0791  3.0193 -0.5730
  172MOL0     H23702   9.169  11.303   0.273  1.4547 -2.8778  0.8826
  172MOL0     H23703   9.222  11.434   0.374 -0.3893 -0.5636  1.8468
  172MOL0     H23704   9.285  11.190   0.431 -1.3746 -0.3694 -0.9953
  172MOL0     H23705   9.117  11.180   0.501 -1.6211  1.6934 -0.7414
  172MOL0     H23706   9.176  11.328   0.660  0.0506 -1.4274  1.4797
  172MOL0     H23707   9.327  11.380   0.570  1.1390 -0.5002 -0.5129
  172MOL0     H23708   9.335  11.231   0.791 -1.4245 -0.0949  0.2705
  172MOL0     H23709   9.277  11.104   0.677  3.5197 -2.0927 -1.3392
  172MOL0     H23710   9.540  11.247   0.662  1.1890 -1.4726 -1.7830
  172MOL0     H23711   9.478  11.116   0.547 -0.5801 -2.3475  0.6332
  172MOL0     H23712   9.465  10.965   0.740  1.3234 -1.7392 -0.5337
  172MOL0     H23713   9.540  11.093   0.842 -3.0782  2.2230 -0.6122
  172MOL0     H23714   9.711  11.107   0.650 -2.0044 -0.6333 -2.9594
  172MOL0     H23715   9.658  10.941   0.607 -2.1525  0.7976 -0.7196
  172MOL0     H23716   8.864  11.412   0.154 -0.4526 -1.2341 -1.0254
  172MOL0     H23717   8.658  11.540   0.072  0.1434 -2.6273 -1.0429
  172MOL0     H23718   8.282  11.564   0.006 -2.2238  0.0460 -0.3824
  172MOL0     H23719   8.096  11.641  -0.119  0.1033 -2.8010  2.3868
  172MOL0     H23720   7.558  11.212   0.915 -2.9816  1.7887 -0.5734
  172MOL0     H23721   7.747  11.338   1.028 -0.7973 -2.2592  0.0693
  172MOL0     H23722   7.755  11.658   1.326  0.0272  0.9140 -2.0017
  172MOL0     H23723   7.856  11.847   1.452  1.2172 -0.0964  0.1188
  172MOL0     H23724   8.029  12.026   1.441  1.1272 -1.9843 -0.7018
  172MOL0     H23725   7.974  11.958   1.600 -0.0200 -1.2452 -1.1591
  172MOL0     H23726   8.245  12.102   1.597 -0.0596  0.5097 -2.3230
  172MOL0     H23727   8.152  12.019   1.718  0.1962 -1.2036 -0.3774
  172MOL0     H23728   8.072  12.265   1.548  1.9091  1.2690  1.2718
  172MOL0     H23729   7.964  12.194   1.666 -0.8759  1.1989 -1.3722
  172MOL0     H23730   8.252  12.309   1.704  0.2122  1.7210  0.4937
  172MOL0     H23731   8.160  12.227   1.838  0.3765  2.5866  1.1107
  172MOL0     H23732   8.012  12.623   1.836  1.8802  0.4309  2.2355
  172MOL0     H23733   8.231  11.628   1.440  2.3201  3.8241 -2.3597
  172MOL0     H23734   8.135  11.331   1.361 -1.0990  1.5157  1.9079
  172MOL0     H23735   8.184  11.400   1.209 -1.2652  1.8723 -0.7394
  172MOL0     H23736   8.267  11.442   1.350 -0.3092  1.6616 -1.6977
  173MOL0     O23737  10.757  11.420   9.467 -0.5802  0.3122 -0.4588
  173MOL0     C23738  10.878  11.411   9.478  1.4683 -0.1088  0.4231
  173MOL0     O23739  10.973  11.499   9.427  0.2340 -0.0514 -0.1580
  173MOL0     C23740  10.952  11.569   9.310  0.7408 -0.1200  0.1498
  173MOL0     C23741  10.871  11.522   9.205  0.8630  0.0137 -0.7130
  173MOL0     C23742  10.854  11.599   9.091 -0.2095 -0.2935 -0.0068
  173MOL0     C23743  10.910  11.725   9.085 -0.3437  0.5998 -0.6954
  173MOL0     O23744  10.908  11.813   8.973 -0.0414  0.0598  0.3730
  173MOL0     C23745  10.778  11.826   8.906  0.2817 -0.0322  0.3074
  173MOL0     C23746  10.695  11.931   8.978  0.6738  0.1907  0.2140
  173MOL0     C23747  10.546  11.945   8.920  0.1906  0.5297 -0.0326
  173MOL0     C23748  10.550  11.990   8.770  1.0344 -0.6107  0.3583
  173MOL0     C23749  10.421  11.996   8.694  0.8870 -0.0061  0.2539
  173MOL0     C23750  10.298  12.063   8.770 -0.7415  0.1854  0.3238
  173MOL0     C23751  10.168  12.049   8.687  0.3933  0.4005  0.2199
  173MOL0     C23752  10.043  12.112   8.758 -0.4000  0.3351 -0.7208
  173MOL0     N23753   9.984  12.039   8.872 -1.0293  0.3774  0.5610
  173MOL0     C23754   9.956  12.089   8.990  0.8397  0.0110 -0.2400
  173MOL0     C23755   9.903  11.990   9.065  0.7665 -0.2263 -0.6202
  173MOL0     C23756   9.869  11.996   9.202  0.4196 -0.2424 -0.1487
  173MOL0     C23757   9.729  12.055   9.206  0.4268  0.1402  0.1034
  173MOL0     C23758   9.726  12.209   9.197  0.1534 -0.0885 -0.0625
  173MOL0     C23759   9.579  12.263   9.220  0.1740 -0.2945  0.4227
  173MOL0     O23760   9.536  12.273   9.354 -0.0863 -1.3678  0.4301
  173MOL0     C23761   9.608  12.361   9.429 -0.7596 -0.2178  0.2483
  173MOL0     C23762   9.617  12.336   9.567 -0.6638  0.2033  0.4753
  173MOL0     C23763   9.692  12.423   9.647  0.4161  0.7899 -0.3874
  173MOL0     C23764   9.705  12.389   9.792  0.8735 -0.7248  0.6484
  173MOL0     C23765   9.764  12.527   9.594 -0.7856 -0.2047  0.2824
  173MOL0     C23766   9.854  12.622   9.671 -0.4361  0.4455 -0.1032
  173MOL0     O23767   9.830  12.629   9.805  0.3993 -0.4081  0.5067
  173MOL0     C23768   9.899  12.709   9.886  0.6764 -0.9493 -0.0793
  173MOL0     C23769   9.873  12.842   9.893 -0.1095 -0.1649  0.7087
  173MOL0     C23770   9.943  12.921   9.985 -0.7527 -0.3667  0.9618
  173MOL0     C23771  10.028  12.861  10.082  0.2550 -0.2272 -0.3350
  173MOL0     O23772  10.080  12.931  10.197 -0.3736 -0.1606  0.0297
  173MOL0     C23773   9.988  13.019  10.262 -0.0621  0.3584  0.2376
  173MOL0     C23774  10.024  13.058  10.400  0.2093  0.2835  0.2607
  173MOL0     C23775  10.141  13.166  10.396  0.6306  0.0344  0.2293
  173MOL0     C23776  10.214  13.171  10.531 -0.7027 -0.3937  0.0955
  173MOL0     C23777  10.351  13.240  10.525 -0.1253  0.6502  0.1844
  173MOL0     C23778  10.397  13.271  10.667  0.2990 -0.9282  0.3957
  173MOL0     C23779  10.551  13.282  10.687 -0.2221 -0.0787  0.1780
  173MOL0     C23780  10.614  13.173  10.792  0.3047 -1.2239  0.3481
  173MOL0    Cl23781  10.561  13.188  10.956 -0.0081 -0.4704  0.2870
  173MOL0     C23782  10.049  12.722  10.082 -0.3157  0.5296  0.6020
  173MOL0     C23783   9.985  12.645   9.979 -0.4724 -0.8346 -0.7403
  173MOL0     O23784   9.945  12.673   9.606 -0.3521 -0.1168 -0.2595
  173MOL0     C23785   9.758  12.544   9.456  0.5227 -0.8880 -0.2748
  173MOL0     C23786   9.686  12.461   9.380 -0.8133  0.0408  0.7749
  173MOL0     N23787   9.883  11.881   8.988  0.7517 -1.1974  0.3271
  173MOL0     N23788   9.938  11.908   8.876  0.3430  0.2431  0.5984
  173MOL0     C23789  10.992  11.767   9.192 -0.2489  0.2416  0.7957
  173MOL0     C23790  11.019  11.691   9.300 -0.0744 -0.1908 -0.5558
  173MOL0     C23791  10.936  11.298   9.554  0.2470  0.0461 -0.2486
  173MOL0     C23792  11.034  11.330   9.643  0.4229  1.6646 -0.5209
  173MOL0     C23793  11.110  11.230   9.708  0.6023  1.5712 -0.7515
  173MOL0     C23794  11.085  11.091   9.688  0.1022  0.3389 -0.0760
  173MOL0     O23795  11.172  10.998   9.746 -0.2914 -0.2001  0.4079
  173MOL0     C23796  11.156  10.855   9.723  0.0940  0.5147  0.6041
  173MOL0     C23797  11.223  10.808   9.586  0.1322 -0.2513 -0.3092
  173MOL0     C23798  11.213  10.661   9.563 -0.3783 -0.4224 -0.0049
  173MOL0     C23799  11.062  10.617   9.516 -0.9206  0.6239 -0.0041
  173MOL0     C23800  11.006  10.690   9.401  0.1461 -0.9123 -0.1415
  173MOL0     C23801  10.970  10.749   9.298 -0.2717  0.1119 -0.9509
  173MOL0     C23802  10.979  11.062   9.597 -0.5442  0.8643  0.3059
  173MOL0     C23803  10.906  11.165   9.535 -0.3888  0.1190  0.5252
  173MOL0     C23804  10.800  11.126   9.428 -0.6480 -0.9104  0.6035
  173MOL0     H23805  10.815  11.429   9.214  2.0767 -0.6063  0.8062
  173MOL0     H23806  10.800  11.567   9.003 -1.6938 -0.3065  0.8712
  173MOL0     H23807  10.721  11.733   8.914  0.6990 -0.2886  0.3207
  173MOL0     H23808  10.797  11.857   8.803 -1.2755  2.0457  0.5803
  173MOL0     H23809  10.681  11.897   9.081 -0.9545  1.2285  0.3644
  173MOL0     H23810  10.750  12.026   8.982 -0.1187  0.8227 -2.1746
  173MOL0     H23811  10.512  11.841   8.922 -2.7528  1.4094  0.3872
  173MOL0     H23812  10.491  12.000   8.997  0.6967 -1.0444  1.5199
  173MOL0     H23813  10.588  12.093   8.769 -0.0235 -0.1765  1.8803
  173MOL0     H23814  10.619  11.933   8.707  0.9735 -2.7929  2.1739
  173MOL0     H23815  10.397  11.890   8.682 -0.4746 -0.2586  3.9395
  173MOL0     H23816  10.422  12.051   8.599 -5.1220  0.1085 -0.1327
  173MOL0     H23817  10.273  12.018   8.867 -1.8882  0.3791  0.1262
  173MOL0     H23818  10.323  12.167   8.792  0.0566  0.2802 -0.9436
  173MOL0     H23819  10.145  11.943   8.675 -3.4299  1.0829  0.3763
  173MOL0     H23820  10.176  12.106   8.594 -1.4988  0.5854  0.1287
  173MOL0     H23821  10.072  12.217   8.770  2.2363 -0.1808 -1.9037
  173MOL0     H23822   9.967  12.115   8.679  1.5584  1.1376 -2.6727
  173MOL0     H23823   9.985  12.185   9.030 -0.3295 -0.9339  3.2925
  173MOL0     H23824   9.942  12.049   9.265 -0.6654  1.5349 -0.3356
  173MOL0     H23825   9.874  11.892   9.235 -2.0775 -0.7972 -1.2775
  173MOL0     H23826   9.667  12.023   9.123  1.4520 -0.5018 -0.4315
  173MOL0     H23827   9.680  12.013   9.295  2.0492 -1.2410  0.4002
  173MOL0     H23828   9.790  12.240   9.280  0.1529 -3.2585  1.2777
  173MOL0     H23829   9.768  12.246   9.104  2.0858  0.3750  0.9498
  173MOL0     H23830   9.568  12.354   9.161  2.5890 -0.8490 -1.0363
  173MOL0     H23831   9.510  12.199   9.165 -1.6276  2.4872 -0.7663
  173MOL0     H23832   9.580  12.244   9.610  1.8127 -0.0831  2.2606
  173MOL0     H23833   9.651  12.298   9.817  1.5427 -1.2914  0.1027
  173MOL0     H23834   9.667  12.477   9.845  1.6294  0.4121 -0.6318
  173MOL0     H23835   9.806  12.364   9.826 -0.6005 -2.7354  4.1277
  173MOL0     H23836   9.800  12.881   9.823 -0.0997  0.5854  1.0998
  173MOL0     H23837   9.938  13.029   9.990  2.3932 -0.0518 -0.6739
  173MOL0     H23838   9.984  13.113  10.208  3.5669  0.0495 -0.8495
  173MOL0     H23839   9.895  12.961  10.264  0.9313 -1.3368 -0.0561
  173MOL0     H23840   9.941  13.125  10.427  1.3574  3.3935 -3.0495
  173MOL0     H23841  10.037  12.978  10.474 -2.1229  1.2254  1.8294
  173MOL0     H23842  10.115  13.272  10.387 -0.1093 -0.1432  0.2759
  173MOL0     H23843  10.206  13.134  10.314 -2.3890  0.7820 -2.6788
  173MOL0     H23844  10.243  13.074  10.572  2.3473 -0.5898 -2.1442
  173MOL0     H23845  10.151  13.231  10.597 -1.0074  2.7451 -2.7463
  173MOL0     H23846  10.427  13.201  10.457 -2.1868  2.9273 -3.9019
  173MOL0     H23847  10.353  13.343  10.488  0.6003  1.1125  1.4589
  173MOL0     H23848  10.342  13.202  10.732 -3.6645  1.5227 -0.0686
  173MOL0     H23849  10.343  13.360  10.700 -0.4627 -1.4912  0.6924
  173MOL0     H23850  10.576  13.380  10.727  4.0833 -1.7717  2.2720
  173MOL0     H23851  10.601  13.268  10.591 -1.4800 -2.9135 -0.1941
  173MOL0     H23852  10.721  13.191  10.803  0.3895 -1.6448  0.2352
  173MOL0     H23853  10.598  13.070  10.760  1.2724 -1.4250  0.4803
  173MOL0     H23854  10.123  12.682  10.150  2.0031  1.1335 -1.4540
  173MOL0     H23855   9.999  12.538   9.990  0.1239 -0.6855  0.0486
  173MOL0     H23856   9.807  12.625   9.403  2.1697 -2.2730 -0.9497
  173MOL0     H23857   9.679  12.495   9.277  2.1435  1.4184  0.9117
  173MOL0     H23858  11.050  11.857   9.176  2.4261 -1.3786  0.8284
  173MOL0     H23859  11.072  11.737   9.382 -2.6426  1.3228  0.3957
  173MOL0     H23860  11.059  11.432   9.669  2.3512  1.0043  0.4439
  173MOL0     H23861  11.192  11.260   9.774  2.1755 -2.1086 -0.8196
  173MOL0     H23862  11.195  10.793   9.804  2.1995  2.3636  1.1158
  173MOL0     H23863  11.047  10.848   9.726  0.1068 -1.3893 -1.2104
  173MOL0     H23864  11.327  10.844   9.592  0.2341 -0.7202  1.2448
  173MOL0     H23865  11.167  10.851   9.503 -0.5259  0.5308  0.5180
  173MOL0     H23866  11.278  10.618   9.487 -1.8504 -2.1731 -0.3618
  173MOL0     H23867  11.240  10.604   9.652 -0.7199 -3.1683 -1.5301
  173MOL0     H23868  10.999  10.611   9.605 -1.6339  1.6209 -0.4217
  173MOL0     H23869  11.079  10.514   9.481 -1.2458  0.6522 -0.2584
  173MOL0     H23870  10.946  10.793   9.203 -0.0369 -0.9876 -1.5399
  173MOL0     H23871  10.969  10.959   9.564  2.6026  0.8029 -0.8716
  173MOL0     H23872  10.827  11.160   9.327 -0.6790 -0.0065  0.8844
  173MOL0     H23873  10.794  11.017   9.423 -0.8748 -0.8438 -2.4799
  173MOL0     H23874  10.703  11.161   9.465 -0.7647  0.3232 -0.7621
  174MOL0     O23875   6.211   5.431   3.855 -0.9194 -0.5317 -0.1045
  174MOL0     C23876   6.114   5.372   3.904  0.7337  0.0859  0.1328
  174MOL0     O23877   6.026   5.432   3.992  0.2241 -0.1765  0.7195
  174MOL0     C23878   6.043   5.554   4.037 -0.7191 -0.8336 -0.0247
  174MOL0     C23879   6.163   5.608   4.092 -0.4608 -0.3886 -1.3992
  174MOL0     C23880   6.163   5.739   4.135 -0.4090  0.6026 -1.5216
  174MOL0     C23881   6.052   5.826   4.137 -0.1882  0.3623 -0.7375
  174MOL0     O23882   6.056   5.956   4.190 -0.1594  0.2710  0.0603
  174MOL0     C23883   5.957   5.989   4.283 -0.1147  0.7722 -0.3066
  174MOL0     C23884   5.965   6.133   4.335 -0.2917 -0.9616  0.2381
  174MOL0     C23885   6.094   6.180   4.389 -0.4734 -0.3008  0.3901
  174MOL0     C23886   6.092   6.165   4.544 -0.5958  0.2049 -0.7385
  174MOL0     C23887   6.236   6.183   4.598 -0.5012  1.0777 -0.2759
  174MOL0     C23888   6.295   6.042   4.581  0.4170 -0.1844  0.5727
  174MOL0     C23889   6.441   6.045   4.605  0.2667 -0.8825 -0.1533
  174MOL0     C23890   6.527   6.075   4.485 -0.0884 -0.4722  1.0432
  174MOL0     N23891   6.568   5.960   4.406  1.0509 -0.7280 -0.7046
  174MOL0     C23892   6.636   5.853   4.462 -0.7716 -0.8008  0.5006
  174MOL0     C23893   6.630   5.761   4.359 -0.2599  0.0922 -1.3808
  174MOL0     C23894   6.691   5.622   4.367 -0.1825  0.5599 -0.0658
  174MOL0     C23895   6.831   5.634   4.310 -0.3506  0.1170  0.5037
  174MOL0     C23896   6.823   5.645   4.158 -0.1023 -0.2148  0.3367
  174MOL0     C23897   6.946   5.573   4.091 -0.3938  0.2190  0.3737
  174MOL0     O23898   6.933   5.427   4.103 -0.4130 -0.4795  0.3572
  174MOL0     C23899   7.044   5.354   4.085 -0.6991  0.7115  0.4309
  174MOL0     C23900   7.025   5.218   4.116 -0.4532 -0.7280 -1.0007
  174MOL0     C23901   7.125   5.124   4.116 -0.3764 -0.7126  0.0795
  174MOL0     C23902   7.092   4.974   4.143  0.6642 -0.6742  1.3296
  174MOL0     C23903   7.257   5.164   4.072 -1.2413 -0.3146 -0.3824
  174MOL0     C23904   7.370   5.074   4.053  0.2211 -0.5103 -0.5224
  174MOL0     O23905   7.487   5.143   4.049  1.0475  0.4012  0.4352
  174MOL0     C23906   7.613   5.078   4.042 -0.8118  0.5819  0.1502
  174MOL0     C23907   7.653   4.989   3.943  0.0564 -0.2997 -0.2467
  174MOL0     C23908   7.785   4.936   3.949 -0.5936  0.0327 -0.3149
  174MOL0     C23909   7.880   4.976   4.036  1.2393 -0.5093  0.1296
  174MOL0     O23910   8.005   4.929   4.030  0.2800  0.4175 -0.0632
  174MOL0     C23911   8.114   5.013   3.995 -0.5421  0.1944 -0.4249
  174MOL0     C23912   8.229   4.991   4.098 -0.5261 -0.1060 -0.1109
  174MOL0     C23913   8.365   5.061   4.054  0.2755 -0.2671 -0.2951
  174MOL0     C23914   8.352   5.189   3.967 -0.9109  0.8304 -0.4736
  174MOL0     C23915   8.495   5.227   3.939 -0.4485  0.1310 -0.5542
  174MOL0     C23916   8.504   5.362   3.863  0.3642 -0.2306  0.7065
  174MOL0     C23917   8.643   5.422   3.861 -0.1171 -0.6731  1.0442
  174MOL0     C23918   8.746   5.330   3.787 -0.6625 -0.1546  0.0428
  174MOL0    Cl23919   8.699   5.344   3.613  0.0809 -0.2308 -0.2614
  174MOL0     C23920   7.835   5.060   4.132  0.4806  0.5643  0.1525
  174MOL0     C23921   7.704   5.113   4.135  0.1099  0.9706  0.4190
  174MOL0     O23922   7.351   4.951   4.036 -0.9851  0.4501  0.4953
  174MOL0     C23923   7.269   5.300   4.030 -0.3493  0.4575 -0.0190
  174MOL0     C23924   7.165   5.394   4.035  0.2806  0.9919 -0.7540
  174MOL0     N23925   6.572   5.818   4.251 -0.7808 -0.5851 -0.6056
  174MOL0     N23926   6.530   5.933   4.283  0.4076 -0.7138  0.7163
  174MOL0     C23927   5.934   5.769   4.087 -0.2623  0.4194  0.6623
  174MOL0     C23928   5.931   5.635   4.033 -0.4986 -0.5093  0.1598
  174MOL0     C23929   6.073   5.228   3.856 -0.5469 -0.5510 -0.6815
  174MOL0     C23930   5.956   5.176   3.905  0.3983  0.2216 -0.0237
  174MOL0     C23931   5.918   5.038   3.893  1.0168  0.7831  0.2342
  174MOL0     C23932   6.006   4.945   3.836  0.2097 -0.2432 -0.5325
  174MOL0     O23933   6.005   4.811   3.860  0.1534  0.1881 -0.5568
  174MOL0     C23934   5.878   4.757   3.902 -1.1615 -0.7472  0.3774
  174MOL0     C23935   5.887   4.605   3.883  0.0529 -1.3877 -0.0943
  174MOL0     C23936   5.756   4.529   3.929 -0.5959 -0.4151  0.5859
  174MOL0     C23937   5.761   4.382   3.931  0.2116  0.1306 -0.0887
  174MOL0     C23938   5.639   4.320   3.983  0.8742 -0.5458 -0.0389
  174MOL0     C23939   5.543   4.271   4.041 -0.5353  0.8237 -0.1978
  174MOL0     C23940   6.120   5.001   3.774 -0.3340 -0.7230  0.9603
  174MOL0     C23941   6.158   5.133   3.790 -1.0062  0.8791 -0.2833
  174MOL0     C23942   6.286   5.174   3.741 -1.3616 -0.6233 -0.0591
  174MOL0     H23943   6.252   5.546   4.098  0.0662 -0.0372 -4.1376
  174MOL0     H23944   6.264   5.764   4.167  0.5912 -2.2750 -2.1333
  174MOL0     H23945   5.960   5.921   4.368 -2.1130  0.5910 -0.3287
  174MOL0     H23946   5.860   5.972   4.234 -0.4635  1.7204  0.0323
  174MOL0     H23947   5.932   6.198   4.254 -1.6791  0.5506  1.9252
  174MOL0     H23948   5.883   6.155   4.404  1.3889  0.7826  1.8126
  174MOL0     H23949   6.174   6.130   4.334  0.3139  2.1536 -0.8602
  174MOL0     H23950   6.116   6.284   4.362 -1.2801 -0.0078  0.8250
  174MOL0     H23951   6.039   6.254   4.580  0.6438  1.2806 -1.4513
  174MOL0     H23952   6.045   6.072   4.577 -1.5772  1.1538  0.6927
  174MOL0     H23953   6.241   6.223   4.700  0.7581  2.1816 -0.7527
  174MOL0     H23954   6.294   6.256   4.542  3.4212 -1.9838 -0.6173
  174MOL0     H23955   6.243   5.968   4.643 -4.3092  1.5161 -0.9131
  174MOL0     H23956   6.265   6.014   4.480  0.8700  2.1248 -0.2611
  174MOL0     H23957   6.475   5.956   4.658  2.0131  1.5797  3.2177
  174MOL0     H23958   6.465   6.131   4.668  0.6754  2.4342 -4.3211
  174MOL0     H23959   6.474   6.134   4.409  0.4956 -4.3001 -2.7284
  174MOL0     H23960   6.613   6.136   4.513 -1.3306  1.2174  1.3906
  174MOL0     H23961   6.698   5.836   4.549 -0.2820  1.2166  0.5848
  174MOL0     H23962   6.638   5.551   4.303 -4.4548  2.3415  1.1413
  174MOL0     H23963   6.697   5.575   4.466  1.4988 -2.9115 -1.6383
  174MOL0     H23964   6.890   5.710   4.362  0.8825 -1.5106  1.5952
  174MOL0     H23965   6.873   5.536   4.335 -2.5969 -1.4918 -1.5056
  174MOL0     H23966   6.746   5.590   4.103 -1.5117 -0.1197  2.1253
  174MOL0     H23967   6.802   5.743   4.113 -1.0682 -0.5251  0.0672
  174MOL0     H23968   6.980   5.618   3.997 -1.1294  0.6482  0.3074
  174MOL0     H23969   7.029   5.611   4.151 -0.1493  1.3337 -0.6227
  174MOL0     H23970   6.932   5.180   4.158 -1.5151  1.9798 -0.6965
  174MOL0     H23971   6.989   4.971   4.180 -1.0814  1.0373 -2.7819
  174MOL0     H23972   7.164   4.932   4.215 -0.6958 -0.1382  3.0739
  174MOL0     H23973   7.100   4.919   4.049 -2.1818  2.9197 -1.2761
  174MOL0     H23974   7.581   4.949   3.874 -1.5403  2.1033 -0.1004
  174MOL0     H23975   7.815   4.870   3.869  1.0086 -0.9467  1.0131
  174MOL0     H23976   8.154   4.989   3.895 -2.0730 -1.9261 -0.6220
  174MOL0     H23977   8.090   5.119   4.002  0.2423  0.3775 -0.4514
  174MOL0     H23978   8.198   5.029   4.196  1.7322 -0.4209  0.7810
  174MOL0     H23979   8.258   4.887   4.111 -1.6402 -0.2495  1.4345
  174MOL0     H23980   8.418   4.986   3.994 -0.2811 -1.8168  1.1136
  174MOL0     H23981   8.419   5.077   4.148  1.5516 -0.3963 -0.9823
  174MOL0     H23982   8.307   5.280   4.009  0.1826  0.2499  2.1071
  174MOL0     H23983   8.302   5.167   3.872  0.8242  2.7355 -1.9183
  174MOL0     H23984   8.553   5.240   4.031 -1.3543 -2.2130  0.4448
  174MOL0     H23985   8.548   5.141   3.895 -2.5002 -1.5719  0.0955
  174MOL0     H23986   8.431   5.433   3.903 -1.8693  1.1557 -4.8427
  174MOL0     H23987   8.457   5.352   3.765 -1.5865  2.8311  1.1836
  174MOL0     H23988   8.690   5.428   3.960  1.4008 -2.6964  0.5286
  174MOL0     H23989   8.649   5.522   3.817 -2.3818 -0.2775  1.4986
  174MOL0     H23990   8.760   5.228   3.822  0.3051  0.2729  0.9502
  174MOL0     H23991   8.851   5.360   3.785  0.7756 -4.3973  1.3461
  174MOL0     H23992   7.905   5.090   4.210 -0.4658  1.8420  0.5459
  174MOL0     H23993   7.671   5.186   4.208 -5.6589  2.1084 -2.7154
  174MOL0     H23994   7.361   5.330   3.981  0.7186 -3.5222 -0.7591
  174MOL0     H23995   7.172   5.498   4.006  0.7116  1.0826 -0.3461
  174MOL0     H23996   5.851   5.839   4.085 -0.0718  0.7253 -2.5665
  174MOL0     H23997   5.831   5.600   4.007 -2.0907  2.4192  1.7856
  174MOL0     H23998   5.893   5.238   3.968 -0.3202 -0.2308 -0.2863
  174MOL0     H23999   5.827   5.015   3.947  1.4564  0.3674  0.8258
  174MOL0     H24000   5.853   4.777   4.006 -0.8306  1.7644  0.0562
  174MOL0     H24001   5.796   4.800   3.844  0.9236 -0.1608 -2.3802
  174MOL0     H24002   5.959   4.559   3.951 -2.0257  0.4914  3.7207
  174MOL0     H24003   5.910   4.591   3.777  2.1380  2.3377 -0.3224
  174MOL0     H24004   5.720   4.565   4.026  2.3628  0.9008  1.3388
  174MOL0     H24005   5.673   4.551   3.862 -0.1690  4.0779  1.1934
  174MOL0     H24006   5.846   4.337   3.983 -1.7424 -2.4396  1.1469
  174MOL0     H24007   5.769   4.357   3.825  0.8891  0.8226 -0.2092
  174MOL0     H24008   5.468   4.210   4.086 -1.5618  2.6700  0.6836
  174MOL0     H24009   6.182   4.926   3.727  1.7490  0.8956  0.9704
  174MOL0     H24010   6.272   5.257   3.670  3.3375  1.5509  1.1640
  174MOL0     H24011   6.343   5.212   3.826 -0.2058 -2.3022 -0.0476
  174MOL0     H24012   6.358   5.107   3.693  3.0206  1.9195  2.3055
  175MOL0     O24013   5.279   7.508   7.428 -0.0530  0.3577  0.4089
  175MOL0     C24014   5.207   7.413   7.469 -0.8948  0.1948  0.8829
  175MOL0     O24015   5.251   7.284   7.478 -0.3026 -0.2982  0.1786
  175MOL0     C24016   5.371   7.252   7.408  0.2307 -0.4036  0.3017
  175MOL0     C24017   5.458   7.165   7.473 -0.1594 -0.7343 -0.6011
  175MOL0     C24018   5.581   7.133   7.409  1.0191  0.2654 -0.1857
  175MOL0     C24019   5.615   7.169   7.280 -1.1155  0.0620 -0.0172
  175MOL0     O24020   5.730   7.144   7.224  0.0148  0.0867  0.5902
  175MOL0     C24021   5.832   7.051   7.273  0.2019  0.1339 -0.4623
  175MOL0     C24022   5.915   7.035   7.148 -0.0219 -0.5843  0.5436
  175MOL0     C24023   5.973   7.165   7.089 -0.0710  0.0013 -0.7896
  175MOL0     C24024   6.106   7.199   7.157  0.2672  0.3480  0.5074
  175MOL0     C24025   6.157   7.317   7.064 -0.3893 -1.1211  0.2015
  175MOL0     C24026   6.299   7.336   7.107 -0.2231 -0.5122 -0.0111
  175MOL0     C24027   6.372   7.439   7.017  0.2435  0.4739  0.4139
  175MOL0     C24028   6.367   7.575   7.074 -0.1239  0.0738 -0.5508
  175MOL0     N24029   6.419   7.664   6.967 -0.9651 -0.7439  0.1724
  175MOL0     C24030   6.339   7.736   6.873 -0.6854  0.6493  0.0899
  175MOL0     C24031   6.434   7.825   6.824  0.5396  0.3776  0.0070
  175MOL0     C24032   6.426   7.932   6.715  0.0614  0.3363 -0.1701
  175MOL0     C24033   6.316   7.886   6.612 -0.3153  0.7668  0.5371
  175MOL0     C24034   6.364   7.755   6.543  0.1745 -0.3252  1.1067
  175MOL0     C24035   6.503   7.753   6.475  0.4349  0.1976  1.1924
  175MOL0     O24036   6.521   7.627   6.392 -0.1434  0.4852  0.0362
  175MOL0     C24037   6.528   7.504   6.444  0.0029  0.3989 -0.1668
  175MOL0     C24038   6.560   7.477   6.574  0.1018  0.5699 -0.3514
  175MOL0     C24039   6.571   7.349   6.627 -0.0795 -0.1225  0.3713
  175MOL0     C24040   6.604   7.333   6.779 -0.3651 -0.2087  0.7065
  175MOL0     C24041   6.558   7.240   6.541 -0.9910 -0.0049 -0.2818
  175MOL0     C24042   6.614   7.098   6.566 -0.1075  0.0318 -0.0109
  175MOL0     O24043   6.660   7.034   6.457 -0.5465 -0.6206 -0.1451
  175MOL0     C24044   6.713   6.902   6.460  0.4742  0.0484 -0.8285
  175MOL0     C24045   6.760   6.850   6.342  0.0007  0.3752 -0.1198
  175MOL0     C24046   6.806   6.724   6.322  0.4450  0.5312  0.0320
  175MOL0     C24047   6.827   6.637   6.432  1.0678  1.0006  0.3873
  175MOL0     O24048   6.874   6.507   6.417  0.4558  0.4645  0.0266
  175MOL0     C24049   6.848   6.412   6.529  0.2117  0.7500  0.0289
  175MOL0     C24050   6.871   6.268   6.468 -0.2334  0.2135  0.2864
  175MOL0     C24051   6.785   6.234   6.344 -0.6682 -0.0558 -0.0952
  175MOL0     C24052   6.645   6.193   6.399 -0.1466 -0.9325  0.4613
  175MOL0     C24053   6.545   6.165   6.294  0.1114  0.4083 -0.1505
  175MOL0     C24054   6.399   6.142   6.343 -0.3145  0.5395 -0.1848
  175MOL0     C24055   6.382   6.041   6.459 -0.5838  0.7129 -0.7219
  175MOL0     C24056   6.404   5.890   6.414  0.5456  0.7772 -0.0738
  175MOL0    Cl24057   6.281   5.872   6.270 -0.1684 -0.0096 -0.1845
  175MOL0     C24058   6.773   6.684   6.556 -0.3808 -0.0290  0.4687
  175MOL0     C24059   6.719   6.814   6.568 -0.4783 -0.6515 -0.3826
  175MOL0     O24060   6.609   7.058   6.683 -0.6450  0.3277 -0.1072
  175MOL0     C24061   6.527   7.268   6.409  1.4189  0.6019  0.6767
  175MOL0     C24062   6.511   7.396   6.362  0.4091 -0.8741 -0.4570
  175MOL0     N24063   6.563   7.795   6.870 -0.2057 -0.7501 -0.8674
  175MOL0     N24064   6.551   7.694   6.948 -0.4088 -0.1472 -0.6315
  175MOL0     C24065   5.523   7.246   7.217  0.6049 -0.3154  1.1293
  175MOL0     C24066   5.400   7.284   7.276 -1.3046 -0.7668  0.7762
  175MOL0     C24067   5.058   7.438   7.475  0.0567  0.1585  1.0314
  175MOL0     C24068   4.971   7.334   7.467  0.4584 -0.4375  0.1408
  175MOL0     C24069   4.835   7.347   7.454 -0.9219 -0.1527  1.0955
  175MOL0     C24070   4.783   7.476   7.457  0.1688 -0.4334  0.4928
  175MOL0     O24071   4.651   7.501   7.431  0.9609  0.1162 -0.2643
  175MOL0     C24072   4.543   7.419   7.473 -0.3031 -0.4590 -0.9583
  175MOL0     C24073   4.477   7.363   7.352  0.5243  0.2366  0.3404
  175MOL0     C24074   4.410   7.470   7.261 -0.5187  0.2241 -0.2394
  175MOL0     C24075   4.328   7.400   7.149 -0.8571  0.1528  0.4194
  175MOL0     C24076   4.272   7.508   7.063  0.0488  0.8251 -1.1425
  175MOL0     C24077   4.200   7.608   7.027 -0.0448  0.8945 -0.4722
  175MOL0     C24078   4.872   7.581   7.461 -0.6331 -0.3778  0.2784
  175MOL0     C24079   5.004   7.570   7.463 -0.1938  1.2811  0.0993
  175MOL0     C24080   5.078   7.696   7.469 -0.3866 -0.2509  1.2770
  175MOL0     H24081   5.452   7.138   7.578 -1.2072 -0.9535 -0.7140
  175MOL0     H24082   5.634   7.061   7.472  0.3837 -0.3423 -0.3293
  175MOL0     H24083   5.793   6.955   7.309 -1.1526  1.2791  1.3699
  175MOL0     H24084   5.879   7.112   7.351 -2.2627  1.0977  0.3853
  175MOL0     H24085   5.989   6.958   7.170  0.8690  0.6004  1.8864
  175MOL0     H24086   5.850   6.990   7.072  0.0781 -2.4525  1.5041
  175MOL0     H24087   5.988   7.132   6.986  0.1500 -0.8732 -0.4822
  175MOL0     H24088   5.901   7.246   7.106 -0.1709 -0.5708  2.1042
  175MOL0     H24089   6.090   7.230   7.260  0.4592  0.7335  0.4243
  175MOL0     H24090   6.166   7.108   7.148 -2.2054 -1.1758 -3.6327
  175MOL0     H24091   6.096   7.408   7.063 -2.6531 -2.5022 -2.3098
  175MOL0     H24092   6.138   7.302   6.957 -2.3391  2.1774 -0.0524
  175MOL0     H24093   6.297   7.355   7.215 -1.2468 -2.2169  0.3129
  175MOL0     H24094   6.358   7.246   7.086 -0.0511  0.4446 -4.8993
  175MOL0     H24095   6.319   7.445   6.922 -2.1091  2.4843  1.7600
  175MOL0     H24096   6.479   7.414   7.007 -0.0770 -1.5099  1.3541
  175MOL0     H24097   6.262   7.604   7.083 -0.2244 -0.2680 -0.6303
  175MOL0     H24098   6.419   7.590   7.169 -2.4766  3.6470  0.3947
  175MOL0     H24099   6.233   7.727   6.851 -1.1268  1.1356  1.8631
  175MOL0     H24100   6.527   7.934   6.674 -0.4706  2.2174 -1.5220
  175MOL0     H24101   6.399   8.027   6.762  0.6186  0.8714 -0.9132
  175MOL0     H24102   6.217   7.865   6.655 -0.3735 -0.6801 -0.2324
  175MOL0     H24103   6.307   7.972   6.545  0.9251  0.1573 -0.4432
  175MOL0     H24104   6.363   7.680   6.623  3.8320 -1.0347  0.6830
  175MOL0     H24105   6.300   7.724   6.460  1.8315  0.1432 -0.4260
  175MOL0     H24106   6.523   7.837   6.407  2.9812 -1.0851  0.2283
  175MOL0     H24107   6.588   7.750   6.544  0.3059  0.5732  1.3738
  175MOL0     H24108   6.570   7.559   6.645  0.3015  0.9745 -0.8397
  175MOL0     H24109   6.525   7.286   6.838  0.8889 -2.2185  0.8920
  175MOL0     H24110   6.626   7.426   6.832 -1.2616  0.1645  0.4378
  175MOL0     H24111   6.687   7.264   6.796 -1.0929 -0.9578  1.3206
  175MOL0     H24112   6.762   6.914   6.255  2.5427  2.5221  1.3450
  175MOL0     H24113   6.834   6.674   6.230 -0.0380 -1.8563  1.0734
  175MOL0     H24114   6.908   6.422   6.620  0.3288 -1.1370  0.1968
  175MOL0     H24115   6.741   6.419   6.554 -0.6028  4.0254 -3.5255
  175MOL0     H24116   6.972   6.274   6.427 -0.7654  0.0921 -1.1098
  175MOL0     H24117   6.867   6.189   6.543 -0.3855 -0.4526 -0.4123
  175MOL0     H24118   6.842   6.159   6.290  3.0053  2.7439 -0.4842
  175MOL0     H24119   6.776   6.319   6.275 -3.7825 -1.1210 -1.1765
  175MOL0     H24120   6.590   6.274   6.449 -2.9950 -0.4662 -3.0266
  175MOL0     H24121   6.651   6.106   6.464  0.2379  0.5255  2.4745
  175MOL0     H24122   6.537   6.248   6.224 -1.4908 -0.0163 -0.5141
  175MOL0     H24123   6.587   6.077   6.245  0.8423 -0.6096  2.1618
  175MOL0     H24124   6.336   6.126   6.255  2.0752 -1.1410 -1.7083
  175MOL0     H24125   6.364   6.238   6.382  0.2713  2.0268 -3.0367
  175MOL0     H24126   6.280   6.034   6.497  0.3151 -2.6583  1.6149
  175MOL0     H24127   6.452   6.062   6.541  1.5483 -0.6237 -2.0859
  175MOL0     H24128   6.388   5.821   6.497  1.1818  1.7572  0.8937
  175MOL0     H24129   6.505   5.863   6.380 -0.2530 -1.5264 -0.8198
  175MOL0     H24130   6.754   6.626   6.645 -1.6045  0.8005  0.7718
  175MOL0     H24131   6.678   6.832   6.667  0.4126 -0.2857 -0.0730
  175MOL0     H24132   6.519   7.185   6.340 -1.2697  3.9037 -3.5293
  175MOL0     H24133   6.478   7.397   6.258  2.5350 -1.1028 -1.1840
  175MOL0     H24134   5.549   7.268   7.114  0.1617 -1.4321  0.7670
  175MOL0     H24135   5.324   7.334   7.217  0.0735 -1.5744 -1.8250
  175MOL0     H24136   5.004   7.231   7.473 -1.3975 -1.0538  0.5405
  175MOL0     H24137   4.777   7.257   7.435 -0.5637  0.0939 -1.4612
  175MOL0     H24138   4.583   7.336   7.533  1.9269  0.6865 -0.7353
  175MOL0     H24139   4.474   7.477   7.534 -0.4109 -0.0917 -1.4218
  175MOL0     H24140   4.410   7.283   7.388  0.3229  0.1132 -0.2986
  175MOL0     H24141   4.547   7.307   7.290  0.5575  0.6879 -0.0343
  175MOL0     H24142   4.349   7.529   7.330 -4.2264 -2.9200 -0.4687
  175MOL0     H24143   4.486   7.536   7.218  0.4949  0.4638  1.8124
  175MOL0     H24144   4.264   7.322   7.192 -3.1609  2.0429  0.6160
  175MOL0     H24145   4.405   7.345   7.093 -0.5692 -0.2465  1.1957
  175MOL0     H24146   4.149   7.693   6.987  1.4864  0.9027 -2.5678
  175MOL0     H24147   4.829   7.680   7.451 -0.3846 -0.3591 -0.6813
  175MOL0     H24148   5.146   7.706   7.385 -2.6020  1.3855 -0.4571
  175MOL0     H24149   5.011   7.783   7.468  2.1054  1.8746  3.0922
  175MOL0     H24150   5.148   7.702   7.553  0.3030  3.3562  0.5996
  176MOL0     O24151  11.608   4.317  10.112  0.4283 -0.0949 -0.2556
  176MOL0     C24152  11.595   4.432  10.148  0.0257 -1.3381  0.4617
  176MOL0     O24153  11.616   4.476  10.281  0.1506  0.4668  0.4439
  176MOL0     C24154  11.654   4.390  10.379 -0.5259 -0.1131 -0.5615
  176MOL0     C24155  11.758   4.417  10.465  0.3862 -0.0721  0.0396
  176MOL0     C24156  11.763   4.350  10.589 -0.0631 -0.3273  0.5026
  176MOL0     C24157  11.664   4.248  10.623 -0.2821 -0.1068 -0.0005
  176MOL0     O24158  11.666   4.182  10.742  0.3587 -0.5145  0.2532
  176MOL0     C24159  11.714   4.245  10.868 -0.0012  0.3359 -0.6948
  176MOL0     C24160  11.806   4.143  10.941 -0.4889 -0.3737 -0.4576
  176MOL0     C24161  11.902   4.203  11.044 -0.5051 -0.6701 -0.7155
  176MOL0     C24162  11.947   4.098  11.158  0.5180  0.7651  0.5115
  176MOL0     C24163  12.057   4.153  11.245  0.1198 -0.2587  0.5328
  176MOL0     C24164  12.071   4.085  11.378  0.6494 -0.6992  0.4239
  176MOL0     C24165  12.088   3.933  11.375  0.2152 -0.0045 -0.0822
  176MOL0     C24166  12.064   3.882  11.523 -0.7246  0.3150 -0.1527
  176MOL0     N24167  12.060   3.733  11.531  0.1224 -0.5700  0.4498
  176MOL0     C24168  11.989   3.646  11.468 -0.7826 -0.2393 -0.2089
  176MOL0     C24169  12.048   3.521  11.493  0.1497  0.5158 -0.3255
  176MOL0     C24170  12.003   3.380  11.461 -0.2606 -0.1301 -0.7028
  176MOL0     C24171  11.902   3.331  11.573 -0.8548 -0.2555 -0.0640
  176MOL0     C24172  11.965   3.275  11.702  0.4125  0.3617  0.8641
  176MOL0     C24173  11.870   3.214  11.800 -0.4810 -0.5543 -0.2496
  176MOL0     O24174  11.803   3.317  11.869  0.2497 -0.7485  0.7467
  176MOL0     C24175  11.684   3.358  11.824 -0.3012 -0.9569  0.1252
  176MOL0     C24176  11.660   3.498  11.830 -0.4501 -1.1646 -1.3032
  176MOL0     C24177  11.543   3.564  11.796 -0.4033 -0.0118  0.6827
  176MOL0     C24178  11.533   3.715  11.838  0.7939  0.1699 -0.3822
  176MOL0     C24179  11.446   3.487  11.725 -0.1168  0.6420 -0.5377
  176MOL0     C24180  11.315   3.541  11.670 -0.1583 -0.4151 -0.5466
  176MOL0     O24181  11.238   3.460  11.590 -0.3459 -0.6762  0.6519
  176MOL0     C24182  11.113   3.503  11.544 -1.1702  0.6476 -1.4678
  176MOL0     C24183  11.083   3.636  11.519  1.3019 -0.8891  0.3471
  176MOL0     C24184  10.946   3.669  11.491 -0.5459  0.4847  0.2824
  176MOL0     C24185  10.853   3.566  11.469 -0.1512  0.4742 -0.8871
  176MOL0     O24186  10.727   3.595  11.431 -0.7127  0.4320  0.7046
  176MOL0     C24187  10.709   3.700  11.328 -1.5062 -1.5607  0.3648
  176MOL0     C24188  10.672   3.850  11.377 -0.7355  0.6186  0.6467
  176MOL0     C24189  10.530   3.864  11.437  0.4173  0.1465  0.1574
  176MOL0     C24190  10.492   4.007  11.480  0.9398  1.4914 -0.3649
  176MOL0     C24191  10.341   4.019  11.492  0.4329 -0.6344 -1.0310
  176MOL0     C24192  10.275   4.000  11.347 -0.6978 -0.0380  0.6179
  176MOL0     C24193  10.119   4.033  11.352 -0.1402 -0.0934  0.2173
  176MOL0     C24194  10.054   4.089  11.217 -0.4828  0.7781 -0.1212
  176MOL0    Cl24195  10.092   3.979  11.081 -0.1088  0.1073  0.0078
  176MOL0     C24196  10.893   3.435  11.486  0.5406  1.2642 -0.0321
  176MOL0     C24197  11.026   3.406  11.516 -0.0490  0.6991 -0.9302
  176MOL0     O24198  11.286   3.655  11.704 -0.2546  0.2935 -0.0852
  176MOL0     C24199  11.474   3.346  11.711  0.5002  0.0458 -0.0912
  176MOL0     C24200  11.579   3.277  11.765  0.6301 -0.1216 -0.2157
  176MOL0     N24201  12.145   3.540  11.583 -0.2166 -0.5240  0.3373
  176MOL0     N24202  12.148   3.667  11.611  0.4250 -0.6242 -0.6310
  176MOL0     C24203  11.581   4.213  10.524  0.8542  0.5878  0.1985
  176MOL0     C24204  11.568   4.278  10.405 -0.2627 -0.5385 -0.9571
  176MOL0     C24205  11.584   4.539  10.036 -0.6800 -0.0074  0.2370
  176MOL0     C24206  11.558   4.673  10.074  0.5661 -0.0186 -0.0865
  176MOL0     C24207  11.544   4.782   9.989 -0.3769  0.3011  0.5833
  176MOL0     C24208  11.560   4.764   9.854 -0.0735  0.1983 -0.2258
  176MOL0     O24209  11.540   4.875   9.763  0.6989  0.0468 -0.1060
  176MOL0     C24210  11.618   4.904   9.647 -0.0922  0.8842 -1.0233
  176MOL0     C24211  11.536   4.998   9.559  0.2817 -1.1466  0.1042
  176MOL0     C24212  11.607   5.027   9.424  0.4769 -0.0369 -0.8524
  176MOL0     C24213  11.535   5.142   9.357 -0.2664 -0.7767 -0.5091
  176MOL0     C24214  11.561   5.160   9.219 -0.4288 -0.7056  0.8457
  176MOL0     C24215  11.583   5.200   9.103  0.1625  0.2781 -0.5602
  176MOL0     C24216  11.589   4.633   9.807  0.5000  0.8832  0.1667
  176MOL0     C24217  11.590   4.519   9.896 -0.1965 -0.2484  0.1951
  176MOL0     C24218  11.621   4.385   9.833  0.2201  0.5268 -1.1364
  176MOL0     H24219  11.806   4.514  10.450 -1.0199  0.7245  0.5365
  176MOL0     H24220  11.851   4.383  10.643  1.0340 -0.3274 -1.2388
  176MOL0     H24221  11.623   4.278  10.918  1.4381  3.4478  0.1196
  176MOL0     H24222  11.785   4.327  10.850  1.9930 -1.3415 -0.9492
  176MOL0     H24223  11.737   4.066  10.976  0.3172 -1.7265 -1.7423
  176MOL0     H24224  11.870   4.083  10.876 -0.4261 -1.7247  0.7800
  176MOL0     H24225  11.984   4.241  10.981 -0.1068 -4.4911 -2.8051
  176MOL0     H24226  11.859   4.291  11.094  2.7273  1.1538 -0.8818
  176MOL0     H24227  11.865   4.056  11.218  2.3070 -2.1525  1.1505
  176MOL0     H24228  11.999   4.008  11.123 -1.9516  0.0070 -1.5430
  176MOL0     H24229  12.033   4.260  11.245 -1.2888 -0.3769 -3.6097
  176MOL0     H24230  12.156   4.141  11.201  0.1084  3.4105 -0.8236
  176MOL0     H24231  12.157   4.122  11.434  0.6371 -0.4472  0.2781
  176MOL0     H24232  11.982   4.100  11.439  0.0793 -0.9718 -0.3161
  176MOL0     H24233  12.195   3.921  11.356  0.4213  2.6300 -0.9287
  176MOL0     H24234  12.023   3.884  11.302 -1.0672  2.0838 -0.4320
  176MOL0     H24235  12.152   3.911  11.582 -1.4880  0.8032  0.7752
  176MOL0     H24236  11.967   3.916  11.561 -0.4680  1.3537 -0.4203
  176MOL0     H24237  11.899   3.671  11.412 -0.3928  1.3874 -0.1479
  176MOL0     H24238  12.093   3.320  11.442 -0.6258 -1.4093  1.2712
  176MOL0     H24239  11.938   3.388  11.373 -2.5101 -0.4531  0.8541
  176MOL0     H24240  11.834   3.416  11.586  0.2900  1.3709 -3.5049
  176MOL0     H24241  11.840   3.252  11.531 -1.4301 -0.0719  0.4269
  176MOL0     H24242  12.037   3.197  11.677  2.1595  2.2441 -0.2452
  176MOL0     H24243  12.021   3.352  11.756  0.2950 -0.3211  1.9849
  176MOL0     H24244  11.802   3.152  11.740  0.6239  1.3209 -3.7266
  176MOL0     H24245  11.930   3.149  11.863 -0.3438 -0.3933 -0.2121
  176MOL0     H24246  11.734   3.569  11.864  0.7697 -2.5463 -0.9882
  176MOL0     H24247  11.617   3.755  11.895 -0.3599  0.3106  1.2947
  176MOL0     H24248  11.458   3.738  11.914  1.6391  3.8792 -0.5097
  176MOL0     H24249  11.514   3.768  11.744 -1.0146 -0.0156 -0.1632
  176MOL0     H24250  11.148   3.723  11.524 -2.9356  2.6154  0.0376
  176MOL0     H24251  10.905   3.769  11.479 -2.8796 -0.1443  2.0415
  176MOL0     H24252  10.803   3.708  11.274 -1.6663 -1.9921  0.0172
  176MOL0     H24253  10.626   3.677  11.260 -0.2014  2.4664 -2.9643
  176MOL0     H24254  10.746   3.892  11.446 -1.7290  2.4350  0.6675
  176MOL0     H24255  10.682   3.914  11.289 -4.5176 -0.9380 -1.1175
  176MOL0     H24256  10.527   3.798  11.524 -0.5074 -0.0616 -0.0196
  176MOL0     H24257  10.457   3.821  11.368 -0.2302  0.9832  0.3056
  176MOL0     H24258  10.532   4.075  11.404  1.0407 -1.8401 -3.5528
  176MOL0     H24259  10.535   4.039  11.575 -1.7081 -0.7659  1.7557
  176MOL0     H24260  10.280   3.978  11.573  0.4464  3.5462  1.4473
  176MOL0     H24261  10.324   4.124  11.519  0.4172 -1.3421  2.1672
  176MOL0     H24262  10.281   3.896  11.314 -4.7867  0.3067 -1.8967
  176MOL0     H24263  10.324   4.063  11.272  1.3060  0.6461  2.4163
  176MOL0     H24264  10.100   4.108  11.429 -1.4065 -2.3810  2.2964
  176MOL0     H24265  10.077   3.941  11.394  3.1443 -1.7002  0.3912
  176MOL0     H24266  10.092   4.187  11.184 -0.3527  0.6779 -0.2693
  176MOL0     H24267   9.946   4.100  11.230 -0.1959  2.3968  1.4249
  176MOL0     H24268  10.824   3.352  11.475  0.5987  0.7033  2.9730
  176MOL0     H24269  11.064   3.305  11.528  0.1162  1.0386  2.0190
  176MOL0     H24270  11.398   3.287  11.660  1.4677  0.3591 -1.9647
  176MOL0     H24271  11.600   3.172  11.749  3.3658  0.0310  1.7003
  176MOL0     H24272  11.518   4.126  10.535 -0.0167  1.1836  0.0148
  176MOL0     H24273  11.489   4.250  10.337 -2.3893  1.2905  0.6310
  176MOL0     H24274  11.556   4.698  10.180 -4.9896 -2.2902  0.7174
  176MOL0     H24275  11.517   4.880  10.027 -0.4897  0.0743  1.1011
  176MOL0     H24276  11.712   4.951   9.678  0.5021 -0.2885 -0.9713
  176MOL0     H24277  11.654   4.814   9.596  1.0479  1.4274 -1.2177
  176MOL0     H24278  11.511   5.089   9.615  0.1357 -0.6260 -0.8017
  176MOL0     H24279  11.437   4.956   9.540 -0.5743 -0.5438  2.7108
  176MOL0     H24280  11.713   5.053   9.430  0.2083  0.9451 -0.1313
  176MOL0     H24281  11.597   4.932   9.372 -0.2991 -2.5015  3.3568
  176MOL0     H24282  11.556   5.237   9.407  1.6672 -1.6651  0.4622
  176MOL0     H24283  11.428   5.120   9.362 -0.2219 -0.7317  1.1871
  176MOL0     H24284  11.612   5.250   9.013 -0.5917 -0.2339 -1.0955
  176MOL0     H24285  11.584   4.620   9.699 -1.8039 -3.3442  0.5710
  176MOL0     H24286  11.703   4.330   9.881 -3.0383 -2.9995  0.8830
  176MOL0     H24287  11.531   4.325   9.820  0.0518  0.9047 -1.7782
  176MOL0     H24288  11.653   4.414   9.732 -0.7030 -2.7035 -2.4980
  177MOL0     O24289   7.047   6.790   1.151  0.5627 -0.5034  0.3015
  177MOL0     C24290   7.060   6.683   1.208 -0.1045 -0.3092 -0.7919
  177MOL0     O24291   7.176   6.611   1.221  0.3017 -0.2927 -0.1666
  177MOL0     C24292   7.295   6.680   1.231  0.2413  0.8898  0.6833
  177MOL0     C24293   7.359   6.734   1.123 -0.0331 -0.0027  1.0400
  177MOL0     C24294   7.486   6.793   1.136  0.7840 -0.6954  0.4030
  177MOL0     C24295   7.553   6.797   1.258  0.2957  0.1058 -1.2435
  177MOL0     O24296   7.679   6.853   1.262  0.9061  0.2584 -0.4634
  177MOL0     C24297   7.747   6.888   1.381  0.0903  0.3772 -0.1086
  177MOL0     C24298   7.870   6.979   1.358  0.3662 -0.1341 -0.0990
  177MOL0     C24299   7.996   6.898   1.313 -1.1433 -1.5298 -0.2028
  177MOL0     C24300   8.097   6.879   1.427  0.3390 -0.3981  0.4577
  177MOL0     C24301   8.217   6.801   1.362 -0.8853 -0.2570 -0.1844
  177MOL0     C24302   8.289   6.733   1.465  0.1312 -0.0594  0.0175
  177MOL0     C24303   8.420   6.669   1.433  0.2736  0.0674  0.0214
  177MOL0     C24304   8.524   6.772   1.372  0.1910  0.0663  0.1102
  177MOL0     N24305   8.659   6.710   1.382  0.4333 -0.2977  0.3970
  177MOL0     C24306   8.719   6.660   1.491  0.2627  0.5156  0.0288
  177MOL0     C24307   8.833   6.611   1.456 -0.1669  1.3251  0.0602
  177MOL0     C24308   8.934   6.545   1.540 -0.5201 -0.6958 -0.1174
  177MOL0     C24309   8.904   6.407   1.595 -0.4673 -0.0506 -0.7079
  177MOL0     C24310   9.037   6.320   1.608  0.2306  0.3664 -1.1616
  177MOL0     C24311   9.142   6.383   1.694  0.3565  0.7325  0.2152
  177MOL0     O24312   9.257   6.301   1.690  0.4399  0.0996 -0.0980
  177MOL0     C24313   9.256   6.162   1.715 -0.0065 -0.0839  0.1009
  177MOL0     C24314   9.159   6.103   1.803  0.4656 -0.3781 -0.0091
  177MOL0     C24315   9.167   5.962   1.838  0.0713 -0.1083 -0.2712
  177MOL0     C24316   9.074   5.911   1.951 -0.6521  0.2730 -0.1644
  177MOL0     C24317   9.258   5.870   1.766 -0.5786 -0.8428 -0.7189
  177MOL0     C24318   9.277   5.723   1.771 -0.0733  0.0264  0.3697
  177MOL0     O24319   9.350   5.662   1.674  0.2351 -0.3635 -0.3888
  177MOL0     C24320   9.389   5.529   1.692 -0.8108 -1.1168 -0.1949
  177MOL0     C24321   9.319   5.427   1.633  0.5621  0.5085 -0.6588
  177MOL0     C24322   9.349   5.298   1.659  0.2121 -0.9600 -1.8365
  177MOL0     C24323   9.455   5.270   1.748 -0.0793  0.7209  0.6698
  177MOL0     O24324   9.482   5.136   1.770 -0.1108  0.7754 -0.2837
  177MOL0     C24325   9.610   5.103   1.711  0.1398 -0.7101 -0.3508
  177MOL0     C24326   9.580   4.977   1.627 -0.4624 -0.8394  0.2723
  177MOL0     C24327   9.574   4.850   1.707  0.0212 -0.5293  0.4229
  177MOL0     C24328   9.533   4.722   1.637  1.1297  1.0148  0.5779
  177MOL0     C24329   9.490   4.618   1.745 -0.1659 -0.8613 -0.3249
  177MOL0     C24330   9.506   4.477   1.687  0.2005 -0.6734  0.6896
  177MOL0     C24331   9.504   4.360   1.788 -0.3031  0.2697  0.5540
  177MOL0     C24332   9.502   4.221   1.719 -0.1988  0.0683  0.5884
  177MOL0    Cl24333   9.343   4.193   1.643  0.6059 -0.1344 -0.0622
  177MOL0     C24334   9.511   5.364   1.825 -0.0522 -0.2310 -0.1072
  177MOL0     C24335   9.484   5.504   1.798  0.5828  0.7046 -0.2488
  177MOL0     O24336   9.203   5.661   1.845 -0.0912  0.5280 -0.5829
  177MOL0     C24337   9.345   5.930   1.670 -0.1907 -0.5851 -0.8580
  177MOL0     C24338   9.342   6.072   1.647 -0.1762  1.1575 -0.5913
  177MOL0     N24339   8.844   6.644   1.319 -0.1885 -0.2016  0.0495
  177MOL0     N24340   8.737   6.687   1.274 -0.3865 -0.2620  0.7558
  177MOL0     C24341   7.483   6.745   1.374 -0.4780 -0.1819  0.1055
  177MOL0     C24342   7.354   6.685   1.354 -0.6607  0.1612  0.1792
  177MOL0     C24343   6.934   6.615   1.238 -0.4215 -0.8021 -0.1880
  177MOL0     C24344   6.826   6.644   1.161 -0.4104 -0.1673  0.0335
  177MOL0     C24345   6.704   6.570   1.169  0.1612 -0.4076 -0.1853
  177MOL0     C24346   6.686   6.464   1.254  0.1880 -0.1626  0.4901
  177MOL0     O24347   6.565   6.403   1.276 -0.4234 -0.1905  0.3915
  177MOL0     C24348   6.443   6.482   1.266 -0.0323  0.6240  1.1018
  177MOL0     C24349   6.330   6.436   1.349  0.7277  0.0360 -0.8233
  177MOL0     C24350   6.320   6.270   1.357  0.7585  0.0233  0.0569
  177MOL0     C24351   6.195   6.223   1.430  1.2103  0.3112  0.7122
  177MOL0     C24352   6.210   6.259   1.571  0.2988  0.8161 -0.3102
  177MOL0     C24353   6.216   6.292   1.688 -0.1183 -0.1126  1.0062
  177MOL0     C24354   6.802   6.429   1.327 -0.1123  0.0210 -0.2045
  177MOL0     C24355   6.928   6.505   1.324 -0.0072  0.0488 -0.2427
  177MOL0     C24356   7.042   6.434   1.407  0.6692 -0.5802  0.7701
  177MOL0     H24357   7.314   6.722   1.025 -2.0324 -1.5414  2.0877
  177MOL0     H24358   7.533   6.825   1.043 -4.2546  2.8041 -1.3920
  177MOL0     H24359   7.780   6.799   1.436  1.5121 -1.6735 -3.9091
  177MOL0     H24360   7.687   6.954   1.444 -0.1966 -0.2562  0.2921
  177MOL0     H24361   7.842   7.053   1.283 -1.6038  1.6099  2.2089
  177MOL0     H24362   7.878   7.038   1.450 -1.2878  1.9689 -1.2484
  177MOL0     H24363   7.966   6.797   1.283  0.3913 -1.2881 -2.8990
  177MOL0     H24364   8.048   6.935   1.223 -1.3940 -1.3953 -0.2929
  177MOL0     H24365   8.135   6.974   1.464 -1.3510 -0.2341  1.9141
  177MOL0     H24366   8.059   6.830   1.517  1.3129 -1.5864  0.2523
  177MOL0     H24367   8.271   6.877   1.305 -0.8026 -0.4123 -0.3135
  177MOL0     H24368   8.185   6.718   1.299  1.0831 -0.6535 -0.7260
  177MOL0     H24369   8.303   6.812   1.540  2.9806 -0.3425 -0.1368
  177MOL0     H24370   8.227   6.656   1.512 -0.7394  1.5417  1.6411
  177MOL0     H24371   8.410   6.587   1.360  0.7901 -0.7068  0.7993
  177MOL0     H24372   8.448   6.631   1.531 -1.1891  1.6712  1.1086
  177MOL0     H24373   8.488   6.795   1.272 -2.1190 -5.2230 -0.5669
  177MOL0     H24374   8.534   6.869   1.424  0.2756 -0.4442  1.0770
  177MOL0     H24375   8.680   6.654   1.592 -1.8026 -0.0917 -0.7497
  177MOL0     H24376   8.969   6.611   1.620  2.0878 -0.9942 -0.9094
  177MOL0     H24377   9.020   6.540   1.473 -1.0769  3.5308 -1.4198
  177MOL0     H24378   8.854   6.399   1.692  0.5574  0.7623 -0.0937
  177MOL0     H24379   8.834   6.353   1.530 -1.2788 -0.1836  0.2399
  177MOL0     H24380   9.000   6.227   1.651 -5.1436  1.8830 -1.8662
  177MOL0     H24381   9.077   6.306   1.507  3.9219  2.1660 -0.1396
  177MOL0     H24382   9.166   6.477   1.644 -1.7553  0.9923 -0.4010
  177MOL0     H24383   9.112   6.414   1.795  1.7458  0.1745  0.8323
  177MOL0     H24384   9.086   6.162   1.857  0.4717 -2.7388  2.8782
  177MOL0     H24385   8.981   5.968   1.963 -0.6175  0.1001  1.0435
  177MOL0     H24386   9.121   5.917   2.050  0.2701  0.8675 -0.6243
  177MOL0     H24387   9.056   5.805   1.929 -0.2974  0.8152 -3.5237
  177MOL0     H24388   9.248   5.470   1.563  0.8206  2.7859  0.3887
  177MOL0     H24389   9.295   5.216   1.613 -0.7251 -1.4523  0.0369
  177MOL0     H24390   9.662   5.190   1.670 -2.6772  1.6309  0.7282
  177MOL0     H24391   9.676   5.073   1.792 -2.3307 -1.7083  1.4069
  177MOL0     H24392   9.487   4.997   1.572 -0.2909 -0.5472  0.0860
  177MOL0     H24393   9.654   4.965   1.548 -1.8078 -0.7546 -1.0491
  177MOL0     H24394   9.499   4.866   1.785 -1.9474  0.5341 -1.5949
  177MOL0     H24395   9.677   4.839   1.744 -0.5753 -0.7368  2.1025
  177MOL0     H24396   9.619   4.692   1.576  1.1053  0.1748  0.9324
  177MOL0     H24397   9.450   4.747   1.571  0.6639  1.0040  1.1478
  177MOL0     H24398   9.551   4.630   1.834 -2.2339 -1.6694  1.3002
  177MOL0     H24399   9.385   4.638   1.771  0.1431  1.6106 -0.7817
  177MOL0     H24400   9.601   4.482   1.633 -0.6289  0.0589 -0.7561
  177MOL0     H24401   9.426   4.466   1.613  0.4944  2.5882 -0.2441
  177MOL0     H24402   9.431   4.365   1.870 -1.2689 -1.3849 -0.1650
  177MOL0     H24403   9.597   4.363   1.846 -0.7740 -2.8678  1.6688
  177MOL0     H24404   9.523   4.143   1.793 -0.4759  1.0508  1.7213
  177MOL0     H24405   9.577   4.215   1.640  0.6114 -1.0857  1.4059
  177MOL0     H24406   9.576   5.338   1.908 -0.5503 -1.7978 -0.1793
  177MOL0     H24407   9.527   5.575   1.868  0.4441 -0.9042  1.5561
  177MOL0     H24408   9.425   5.881   1.617 -0.1912 -1.2806 -0.2343
  177MOL0     H24409   9.398   6.113   1.563  1.8512 -2.8601 -1.4499
  177MOL0     H24410   7.545   6.757   1.462 -0.2934 -1.3181  0.1453
  177MOL0     H24411   7.301   6.648   1.441  1.7620 -1.2045  1.1681
  177MOL0     H24412   6.826   6.727   1.091 -0.0898 -0.9211 -0.8899
  177MOL0     H24413   6.622   6.606   1.107  0.9479  2.2481  0.1665
  177MOL0     H24414   6.465   6.588   1.275  3.1029  0.2288 -0.4876
  177MOL0     H24415   6.410   6.470   1.163 -2.0620 -0.7294  1.8526
  177MOL0     H24416   6.240   6.484   1.310  2.6281  3.1955 -1.7537
  177MOL0     H24417   6.356   6.477   1.447 -1.0130 -1.4512  0.3234
  177MOL0     H24418   6.305   6.232   1.255  4.9855 -3.1973  0.3491
  177MOL0     H24419   6.405   6.216   1.401  0.2792 -0.9751 -0.2136
  177MOL0     H24420   6.177   6.115   1.425  1.6046  0.0941  3.0707
  177MOL0     H24421   6.109   6.273   1.385  0.8575 -0.9374 -0.0534
  177MOL0     H24422   6.214   6.319   1.792  1.1490  0.5610  0.8762
  177MOL0     H24423   6.782   6.339   1.384 -3.7173 -0.7122 -2.3006
  177MOL0     H24424   6.999   6.351   1.463 -0.3494  1.0686  2.5731
  177MOL0     H24425   7.128   6.389   1.355 -1.1862 -3.1085 -0.3107
  177MOL0     H24426   7.075   6.501   1.487  2.2121 -0.2751 -0.0744
  178MOL0     O24427   4.002   6.647   3.279 -0.4499 -0.9881  0.4042
  178MOL0     C24428   4.051   6.607   3.382  0.5992  0.1730 -0.3596
  178MOL0     O24429   4.141   6.676   3.466  0.6673  0.3226  0.4189
  178MOL0     C24430   4.163   6.803   3.416 -0.7893 -0.2552 -0.6278
  178MOL0     C24431   4.111   6.915   3.473  0.0041 -0.0070 -0.2059
  178MOL0     C24432   4.156   7.040   3.432  0.2553  0.2781  0.4144
  178MOL0     C24433   4.239   7.064   3.325  0.1537  0.3377 -0.2927
  178MOL0     O24434   4.264   7.185   3.285 -0.4907 -0.0870 -0.1610
  178MOL0     C24435   4.400   7.188   3.229 -1.3134  0.0795  0.0943
  178MOL0     C24436   4.442   7.338   3.233  0.2161 -1.0206 -0.1447
  178MOL0     C24437   4.351   7.436   3.145  0.4616 -1.2395 -0.6801
  178MOL0     C24438   4.409   7.453   3.007 -0.9573  0.1565  1.0943
  178MOL0     C24439   4.292   7.486   2.917  0.8156  0.3116  0.4701
  178MOL0     C24440   4.336   7.487   2.767 -0.2167  0.5964 -0.4079
  178MOL0     C24441   4.207   7.470   2.680 -0.3902 -0.0268  0.7580
  178MOL0     C24442   4.225   7.539   2.548  0.2485 -0.5168  0.0628
  178MOL0     N24443   4.339   7.487   2.470  0.5275 -0.1318 -0.2306
  178MOL0     C24444   4.437   7.400   2.498 -0.1655  0.9408 -0.0853
  178MOL0     C24445   4.516   7.410   2.389  0.0346 -0.1871 -0.0157
  178MOL0     C24446   4.647   7.340   2.384 -0.0414 -0.5169 -0.6654
  178MOL0     C24447   4.756   7.428   2.431 -0.0241 -0.1445 -0.2470
  178MOL0     C24448   4.771   7.564   2.364  0.6799  0.8741 -0.1791
  178MOL0     C24449   4.899   7.636   2.426 -0.3357  0.8019  0.7614
  178MOL0     O24450   4.945   7.758   2.361 -0.2936  0.1241  0.1588
  178MOL0     C24451   4.876   7.874   2.372  0.1672 -0.0118 -0.1429
  178MOL0     C24452   4.932   7.984   2.318 -0.1995 -0.1692  0.9242
  178MOL0     C24453   4.864   8.111   2.330  0.1602  0.2185  0.1173
  178MOL0     C24454   4.945   8.230   2.290  0.8810  0.1753 -0.7856
  178MOL0     C24455   4.739   8.123   2.400  0.5687  0.1922 -0.6311
  178MOL0     C24456   4.656   8.238   2.404  0.1529  0.0203 -0.6147
  178MOL0     O24457   4.548   8.236   2.497 -0.7766  0.3843 -0.7079
  178MOL0     C24458   4.456   8.339   2.510 -0.2105 -0.0862  1.2663
  178MOL0     C24459   4.483   8.478   2.511 -0.7779 -0.7988 -0.1568
  178MOL0     C24460   4.400   8.573   2.549  0.1865 -0.1810 -0.0547
  178MOL0     C24461   4.267   8.533   2.575  0.8191 -0.2396  0.4266
  178MOL0     O24462   4.159   8.610   2.566  0.1635  0.0284 -0.6048
  178MOL0     C24463   4.167   8.757   2.587 -0.3291 -0.2713 -0.0083
  178MOL0     C24464   4.034   8.814   2.596  1.4415  0.2051  0.1402
  178MOL0     C24465   3.977   8.868   2.468 -0.3823 -0.0522  0.9793
  178MOL0     C24466   4.063   8.984   2.408  1.3648 -0.2680  0.5767
  178MOL0     C24467   4.001   9.047   2.285 -0.1417 -0.5719  0.2243
  178MOL0     C24468   3.877   9.139   2.316 -0.5582  0.4211  0.6276
  178MOL0     C24469   3.838   9.211   2.187  0.2152 -0.4045 -0.3430
  178MOL0     C24470   3.806   9.114   2.070 -0.6571 -0.9500  0.5441
  178MOL0    Cl24471   3.682   9.194   1.973 -0.1080 -0.3954  0.3282
  178MOL0     C24472   4.234   8.398   2.581 -0.5751 -0.5480 -0.2375
  178MOL0     C24473   4.329   8.303   2.554  0.7179  1.1072 -0.4688
  178MOL0     O24474   4.685   8.331   2.335 -0.1147  0.3494 -0.3541
  178MOL0     C24475   4.693   8.007   2.460 -0.6874  0.5243 -0.2930
  178MOL0     C24476   4.761   7.889   2.441  0.3624  0.4647 -0.5369
  178MOL0     N24477   4.469   7.490   2.289  0.2523 -0.3500 -0.5952
  178MOL0     N24478   4.369   7.545   2.351  0.0964  0.0759  0.8906
  178MOL0     C24479   4.284   6.944   3.264 -0.4840 -0.1663 -0.5789
  178MOL0     C24480   4.255   6.814   3.313  0.7186  0.5553 -0.3680
  178MOL0     C24481   4.029   6.456   3.419 -0.3777  0.3090  1.0157
  178MOL0     C24482   4.071   6.407   3.547 -0.0281  0.6212 -0.0476
  178MOL0     C24483   4.053   6.276   3.591 -0.3751  0.6352 -0.5668
  178MOL0     C24484   3.998   6.184   3.503 -0.9332  0.2127 -0.7017
  178MOL0     O24485   3.963   6.059   3.538 -0.6811 -0.1214  0.0652
  178MOL0     C24486   4.077   5.992   3.592  0.1751 -0.3977 -0.1595
  178MOL0     C24487   4.059   5.840   3.588  0.0722  0.3424 -0.2978
  178MOL0     C24488   4.016   5.781   3.446  0.1135 -1.4005 -1.4580
  178MOL0     C24489   4.021   5.636   3.473  0.3219  0.3986  0.0143
  178MOL0     C24490   3.981   5.563   3.355 -0.3830 -0.8311  0.3268
  178MOL0     C24491   3.962   5.486   3.270  0.2357  0.8930  0.2691
  178MOL0     C24492   3.959   6.219   3.374  0.4421  0.1323  0.0065
  178MOL0     C24493   3.981   6.357   3.323  0.8023 -0.2991  0.2624
  178MOL0     C24494   3.937   6.379   3.174 -0.5313  0.6984 -0.1460
  178MOL0     H24495   4.054   6.899   3.564  0.0924  0.7671 -0.0131
  178MOL0     H24496   4.106   7.125   3.478 -0.0413  0.4446 -0.2092
  178MOL0     H24497   4.415   7.141   3.131  3.3104  0.7566  0.2355
  178MOL0     H24498   4.480   7.148   3.292 -0.7976  1.7675  0.5572
  178MOL0     H24499   4.462   7.373   3.334 -1.5046  0.8094 -0.3529
  178MOL0     H24500   4.541   7.338   3.186  0.8115  0.5070  1.0356
  178MOL0     H24501   4.249   7.400   3.135  0.3617 -0.5120 -2.8330
  178MOL0     H24502   4.347   7.536   3.189  1.7061 -1.2560 -0.4817
  178MOL0     H24503   4.487   7.529   3.009 -0.5979 -0.1118 -0.5354
  178MOL0     H24504   4.467   7.364   2.979 -0.9440  0.9969 -1.9606
  178MOL0     H24505   4.251   7.582   2.950 -0.2045 -0.3024  1.0283
  178MOL0     H24506   4.216   7.408   2.927  2.3816 -1.3506 -0.0057
  178MOL0     H24507   4.379   7.587   2.753 -0.2723  0.5876 -0.6553
  178MOL0     H24508   4.412   7.411   2.747 -2.9374 -1.9911 -1.6859
  178MOL0     H24509   4.111   7.504   2.721 -0.9622 -3.0279  2.2463
  178MOL0     H24510   4.191   7.362   2.669 -3.2097  0.4283 -0.3300
  178MOL0     H24511   4.128   7.529   2.498  0.9096 -3.1347 -0.8535
  178MOL0     H24512   4.245   7.646   2.563  1.4027 -0.5208 -1.2444
  178MOL0     H24513   4.443   7.327   2.579 -3.8093  1.1987  0.6053
  178MOL0     H24514   4.672   7.322   2.279  1.0447 -0.2373 -0.4680
  178MOL0     H24515   4.653   7.247   2.441  0.9216 -0.1357 -0.1119
  178MOL0     H24516   4.747   7.452   2.538 -1.8447  0.9253 -0.5959
  178MOL0     H24517   4.844   7.367   2.410 -0.5302 -0.4935 -1.4294
  178MOL0     H24518   4.803   7.546   2.261  0.2053 -2.1230  0.1112
  178MOL0     H24519   4.683   7.628   2.372 -0.4129 -0.4425 -1.3691
  178MOL0     H24520   4.893   7.653   2.534 -0.0470 -2.2316  1.3593
  178MOL0     H24521   4.976   7.558   2.416 -0.5357  0.4718  1.6650
  178MOL0     H24522   5.031   7.972   2.275 -0.7984 -2.9194  0.1563
  178MOL0     H24523   5.050   8.201   2.283  1.2472  1.7881 -4.0597
  178MOL0     H24524   4.936   8.319   2.353 -3.7860  2.5482 -4.2338
  178MOL0     H24525   4.906   8.279   2.200  0.6767  0.7399 -0.3975
  178MOL0     H24526   4.582   8.508   2.480 -1.2011  0.9208  0.0579
  178MOL0     H24527   4.429   8.677   2.554 -0.7588  0.2229 -1.9139
  178MOL0     H24528   4.228   8.788   2.672 -2.6175  2.2447  0.8546
  178MOL0     H24529   4.220   8.795   2.500 -1.7759  0.8130 -0.4579
  178MOL0     H24530   3.969   8.732   2.625  3.2168 -1.7961 -1.1937
  178MOL0     H24531   4.032   8.898   2.666  0.4339 -0.0995  0.4970
  178MOL0     H24532   3.874   8.907   2.467 -0.2955  0.2061 -0.9337
  178MOL0     H24533   3.970   8.784   2.399 -1.9855  1.4609 -0.8241
  178MOL0     H24534   4.167   8.968   2.377  0.8098  1.0810 -2.3463
  178MOL0     H24535   4.060   9.069   2.476  0.2929  0.8474 -0.8101
  178MOL0     H24536   4.077   9.110   2.237 -1.0351  1.2768  1.1322
  178MOL0     H24537   3.964   8.966   2.222 -2.6024 -2.8335  4.1606
  178MOL0     H24538   3.895   9.211   2.396 -2.0952 -0.7232  2.0780
  178MOL0     H24539   3.788   9.089   2.356 -1.3647  0.3693 -1.1235
  178MOL0     H24540   3.913   9.283   2.154  0.8046 -1.8446 -2.3139
  178MOL0     H24541   3.746   9.268   2.206  1.3329  1.2877  0.1804
  178MOL0     H24542   3.760   9.017   2.094  0.8047 -1.6676  0.5320
  178MOL0     H24543   3.894   9.100   2.007 -0.5967  0.1383  0.3623
  178MOL0     H24544   4.130   8.370   2.596 -0.8223  0.8703  0.9170
  178MOL0     H24545   4.315   8.196   2.562  3.0973  0.7657  6.7741
  178MOL0     H24546   4.593   8.012   2.502 -0.7171  1.7727 -0.4900
  178MOL0     H24547   4.712   7.805   2.488  1.9876  0.4454  1.2464
  178MOL0     H24548   4.352   6.958   3.180  1.4118 -3.6122  0.1634
  178MOL0     H24549   4.292   6.720   3.272 -1.5640 -1.3425  1.6166
  178MOL0     H24550   4.118   6.471   3.622  2.2359  2.1128 -2.5903
  178MOL0     H24551   4.072   6.248   3.695 -2.7041 -1.1525 -0.5270
  178MOL0     H24552   4.164   6.031   3.539 -0.1782  1.3034  0.4312
  178MOL0     H24553   4.080   6.027   3.696 -3.8498  1.0734 -0.3735
  178MOL0     H24554   3.977   5.813   3.656  1.2722  1.9604  1.9586
  178MOL0     H24555   4.151   5.794   3.624 -1.5219 -1.1123  2.2292
  178MOL0     H24556   3.914   5.819   3.437  0.2048  1.1804  4.0266
  178MOL0     H24557   4.084   5.815   3.367  0.0739 -2.5844 -2.0205
  178MOL0     H24558   3.957   5.602   3.555 -1.6936 -0.4804 -1.8230
  178MOL0     H24559   4.127   5.610   3.482  0.4702 -0.0844 -2.4799
  178MOL0     H24560   3.948   5.403   3.204  4.0277 -2.6575  3.3111
  178MOL0     H24561   3.929   6.142   3.304  0.0491  1.7696 -1.7344
  178MOL0     H24562   4.029   6.419   3.129  0.5745 -3.4218 -1.9898
  178MOL0     H24563   3.938   6.283   3.122 -2.3452  1.7910 -2.3626
  178MOL0     H24564   3.861   6.455   3.153  0.9096  2.8841  1.9459
  179MOL0     O24565   9.832   1.008   0.448 -0.0325 -0.3326 -0.3704
  179MOL0     C24566   9.874   0.972   0.338 -0.0596  0.3698  0.3467
  179MOL0     O24567  10.001   0.936   0.320 -0.2967  0.1454  0.1693
  179MOL0     C24568  10.075   0.891   0.429 -0.2999  0.7253  0.4016
  179MOL0     C24569  10.177   0.971   0.469  0.7429  0.3974 -0.0712
  179MOL0     C24570  10.243   0.944   0.595 -0.0821 -0.0093  0.2969
  179MOL0     C24571  10.227   0.820   0.653 -1.0462  0.2929 -0.7593
  179MOL0     O24572  10.312   0.786   0.765 -0.2348  0.0681  0.2577
  179MOL0     C24573  10.334   0.637   0.778  0.4755 -0.4604  0.4712
  179MOL0     C24574  10.458   0.605   0.853 -0.1875  0.2107 -0.0108
  179MOL0     C24575  10.472   0.459   0.885 -0.1765  0.0116 -0.4031
  179MOL0     C24576  10.547   0.421   1.016 -0.7894  0.1737 -0.5890
  179MOL0     C24577  10.695   0.466   1.008  1.0555 -0.7467  0.2510
  179MOL0     C24578  10.753   0.432   0.879 -0.0357  0.8029  0.3641
  179MOL0     C24579  10.764   0.284   0.848  0.6289 -0.9984  0.0513
  179MOL0     C24580  10.821   0.268   0.710 -0.2533 -0.4392  0.5446
  179MOL0     N24581  10.961   0.298   0.706  0.6649 -0.5937  0.6293
  179MOL0     C24582  11.053   0.216   0.658 -0.5347 -0.2000 -0.9611
  179MOL0     C24583  11.170   0.275   0.640  0.6440 -0.2632  0.1006
  179MOL0     C24584  11.305   0.206   0.610  1.2391  0.1064 -1.2016
  179MOL0     C24585  11.409   0.289   0.553  0.0824  0.0856  0.0239
  179MOL0     C24586  11.385   0.337   0.407  0.6503 -0.0525  0.3687
  179MOL0     C24587  11.371   0.221   0.308 -0.7047  0.3791  0.0027
  179MOL0     O24588  11.418   0.252   0.174 -0.2379  0.1225  0.4482
  179MOL0     C24589  11.377   0.174   0.068 -0.5283  0.5700  0.2497
  179MOL0     C24590  11.313   0.056   0.076  1.0100 -0.7070 -0.2520
  179MOL0     C24591  11.233  -0.002  -0.025 -0.1106 -0.2628 -0.2392
  179MOL0     C24592  11.163  -0.129   0.008 -0.7486  0.4281 -0.6822
  179MOL0     C24593  11.229   0.053  -0.151 -0.4266 -1.2039 -0.4018
  179MOL0     C24594  11.135   0.010  -0.270  0.1738 -0.4335  0.0259
  179MOL0     O24595  11.156   0.045  -0.395 -0.2764  0.3642 -0.2728
  179MOL0     C24596  11.276   0.011  -0.445 -0.3807 -0.1943  0.3885
  179MOL0     C24597  11.347  -0.107  -0.411  0.7608  0.8296 -0.6681
  179MOL0     C24598  11.452  -0.149  -0.490  0.5008 -0.2784  0.3653
  179MOL0     C24599  11.495  -0.074  -0.598 -0.2985  0.3504 -0.2064
  179MOL0     O24600  11.604  -0.122  -0.668  0.0982 -0.5856  0.1039
  179MOL0     C24601  11.589  -0.109  -0.814  1.1048  0.3837 -0.6736
  179MOL0     C24602  11.673  -0.227  -0.883  0.9565  0.4384  0.2551
  179MOL0     C24603  11.628  -0.242  -1.032 -0.2801  0.1437  1.1907
  179MOL0     C24604  11.682  -0.373  -1.096 -0.1370  0.0192  0.4115
  179MOL0     C24605  11.625  -0.391  -1.242 -0.2071  0.1471  0.5030
  179MOL0     C24606  11.631  -0.544  -1.281 -0.9802 -0.6807  0.4672
  179MOL0     C24607  11.781  -0.596  -1.286  0.0808 -0.6438 -0.1537
  179MOL0     C24608  11.788  -0.704  -1.393  0.4360 -0.4770 -0.6735
  179MOL0    Cl24609  11.951  -0.784  -1.390 -0.2636 -0.1325  0.3679
  179MOL0     C24610  11.431   0.044  -0.635 -0.0016 -0.5981 -0.2052
  179MOL0     C24611  11.318   0.082  -0.561  0.3857  0.1523 -0.0156
  179MOL0     O24612  11.034  -0.053  -0.233 -0.0007 -0.5133 -0.2005
  179MOL0     C24613  11.313   0.163  -0.173 -0.2699  0.4847  0.1489
  179MOL0     C24614  11.390   0.226  -0.062  0.3361 -1.2945  0.7562
  179MOL0     N24615  11.147   0.411   0.669  0.5097 -0.4503 -0.1214
  179MOL0     N24616  11.019   0.420   0.700 -0.5244  0.1253  0.0872
  179MOL0     C24617  10.135   0.730   0.596  0.2810  0.2075  0.8384
  179MOL0     C24618  10.056   0.767   0.485 -1.1696 -0.1011 -0.5320
  179MOL0     C24619   9.781   0.957   0.233  0.3218 -0.0831 -0.0167
  179MOL0     C24620   9.636   0.949   0.268 -0.6558  0.2621 -0.4686
  179MOL0     C24621   9.535   0.930   0.170 -1.0122  0.3765  0.1445
  179MOL0     C24622   9.570   0.930   0.032  0.5451  0.2279  0.5692
  179MOL0     O24623   9.461   0.921  -0.058 -0.0327 -0.1265  0.8782
  179MOL0     C24624   9.475   0.876  -0.193  0.1282  0.7218  0.9029
  179MOL0     C24625   9.346   0.811  -0.255 -0.3174  0.0011  0.9683
  179MOL0     C24626   9.372   0.755  -0.402  0.0877  1.2585  1.0306
  179MOL0     C24627   9.241   0.692  -0.479  0.5354 -0.1071 -0.2733
  179MOL0     C24628   9.176   0.592  -0.394  0.2156 -0.1985  0.2767
  179MOL0     C24629   9.110   0.525  -0.313 -0.2011 -0.4009  0.2221
  179MOL0     C24630   9.710   0.952   0.001  0.3132  1.2265 -0.8860
  179MOL0     C24631   9.818   0.960   0.097  0.3335  0.2905 -0.1930
  179MOL0     C24632   9.952   1.000   0.041 -0.3485  1.2405 -0.3988
  179MOL0     H24633  10.188   1.074   0.436 -1.8789 -0.1851 -3.2143
  179MOL0     H24634  10.311   1.022   0.630  0.6897  0.0620 -1.2594
  179MOL0     H24635  10.338   0.599   0.675 -2.1698 -0.4140  0.2803
  179MOL0     H24636  10.241   0.598   0.820 -1.7462  0.2211 -3.3412
  179MOL0     H24637  10.538   0.633   0.784  0.4812  3.5018  1.9215
  179MOL0     H24638  10.449   0.665   0.944  3.9994 -1.1352  1.5305
  179MOL0     H24639  10.374   0.418   0.912  1.2064 -2.3240  1.3980
  179MOL0     H24640  10.508   0.412   0.793  0.5224  4.6652 -2.8149
  179MOL0     H24641  10.506   0.454   1.112 -1.0187  0.3500 -0.7480
  179MOL0     H24642  10.556   0.312   1.023 -1.8974  0.1142  0.1942
  179MOL0     H24643  10.753   0.414   1.085  1.2670 -1.4486 -0.3649
  179MOL0     H24644  10.706   0.572   1.031  1.2695 -1.2266  2.6335
  179MOL0     H24645  10.711   0.485   0.793  0.8769 -1.8537 -1.8605
  179MOL0     H24646  10.854   0.473   0.882  0.0112  0.6412  1.4922
  179MOL0     H24647  10.666   0.234   0.853 -0.1605  0.5604  2.4795
  179MOL0     H24648  10.815   0.223   0.924 -0.0388 -0.4267  0.9837
  179MOL0     H24649  10.806   0.167   0.670  1.8284 -0.1137 -1.2096
  179MOL0     H24650  10.768   0.332   0.640  0.6642 -0.4747 -0.2004
  179MOL0     H24651  11.027   0.111   0.651 -1.2147 -0.0026 -1.4985
  179MOL0     H24652  11.278   0.115   0.555  1.1919 -1.2253  0.8762
  179MOL0     H24653  11.337   0.160   0.704  0.6549 -2.0410 -1.9831
  179MOL0     H24654  11.416   0.371   0.624 -0.5475 -0.5271  0.8072
  179MOL0     H24655  11.507   0.243   0.567 -0.5469 -0.9694  1.1457
  179MOL0     H24656  11.286   0.383   0.404 -0.0255 -1.4001  1.2137
  179MOL0     H24657  11.454   0.417   0.378  0.5300  0.1270  0.5796
  179MOL0     H24658  11.423   0.137   0.354  0.3999  0.8767 -0.3012
  179MOL0     H24659  11.271   0.177   0.310  0.9766 -4.0267 -1.0041
  179MOL0     H24660  11.299   0.009   0.174 -2.3095  0.5763  0.0102
  179MOL0     H24661  11.208  -0.184   0.092 -3.3475 -2.1420 -0.7858
  179MOL0     H24662  11.185  -0.198  -0.074  0.2673  0.7007 -0.6494
  179MOL0     H24663  11.060  -0.117   0.042  0.0147  0.6910  1.7448
  179MOL0     H24664  11.315  -0.168  -0.327  1.7935 -0.2726 -1.0470
  179MOL0     H24665  11.510  -0.240  -0.480 -0.6580 -0.8367  2.5389
  179MOL0     H24666  11.483  -0.118  -0.840  0.2508 -1.6059  2.7894
  179MOL0     H24667  11.628  -0.013  -0.850 -0.8333  0.8057 -1.7859
  179MOL0     H24668  11.780  -0.210  -0.871  0.9051  0.9303  0.0660
  179MOL0     H24669  11.654  -0.317  -0.823 -0.3087 -0.5368 -1.5367
  179MOL0     H24670  11.652  -0.152  -1.090  1.1882 -0.2628  1.1286
  179MOL0     H24671  11.519  -0.252  -1.030 -0.3185  0.2858  0.2416
  179MOL0     H24672  11.650  -0.460  -1.038  3.7228 -2.5114 -0.8788
  179MOL0     H24673  11.791  -0.367  -1.093 -0.1825  5.3422  1.2251
  179MOL0     H24674  11.522  -0.357  -1.249  0.7381  2.9657 -3.4921
  179MOL0     H24675  11.678  -0.339  -1.323  1.8620  0.5678  2.0249
  179MOL0     H24676  11.579  -0.542  -1.377  0.5755 -0.1961 -0.4069
  179MOL0     H24677  11.570  -0.612  -1.220 -0.2903 -2.3663 -0.6450
  179MOL0     H24678  11.803  -0.646  -1.192 -3.3727 -0.3542  0.9359
  179MOL0     H24679  11.851  -0.517  -1.316 -0.8002  0.2262  0.0377
  179MOL0     H24680  11.768  -0.652  -1.487 -1.5858  1.3022  0.6347
  179MOL0     H24681  11.710  -0.779  -1.373 -1.4422  1.6020  0.2324
  179MOL0     H24682  11.447   0.109  -0.720  1.3632  2.1221  2.0026
  179MOL0     H24683  11.257   0.166  -0.593 -1.8878 -0.9132  1.2384
  179MOL0     H24684  11.313   0.200  -0.275 -0.2179 -0.6957 -0.2952
  179MOL0     H24685  11.453   0.310  -0.093  0.3960 -1.6323 -0.0803
  179MOL0     H24686  10.127   0.638   0.653 -0.2518 -0.3466 -0.0980
  179MOL0     H24687   9.974   0.708   0.445 -1.9885 -0.0973  1.0302
  179MOL0     H24688   9.615   0.959   0.374 -1.8158  2.8132 -0.8833
  179MOL0     H24689   9.431   0.901   0.183 -1.0780  1.3141  2.0256
  179MOL0     H24690   9.509   0.961  -0.252 -0.0864  0.1957  0.0135
  179MOL0     H24691   9.554   0.799  -0.195  0.5351  1.0983  1.7417
  179MOL0     H24692   9.265   0.884  -0.264  2.3129  2.8868 -1.3666
  179MOL0     H24693   9.304   0.725  -0.202  1.4272 -2.6666 -1.6599
  179MOL0     H24694   9.416   0.829  -0.469 -1.0241  1.1614  0.1500
  179MOL0     H24695   9.440   0.670  -0.390  0.2591  1.4271  1.2430
  179MOL0     H24696   9.267   0.654  -0.578 -0.1336  1.1634 -0.9661
  179MOL0     H24697   9.176   0.778  -0.496  2.5651  1.1910 -2.0472
  179MOL0     H24698   9.072   0.474  -0.227  2.2319 -1.3973  0.7977
  179MOL0     H24699   9.737   0.964  -0.103 -0.2988  0.2083 -1.1755
  179MOL0     H24700  10.015   0.911   0.039 -0.0567  1.4205  0.3146
  179MOL0     H24701   9.942   1.029  -0.064 -0.1997  1.2096 -0.4215
  179MOL0     H24702  10.007   1.084   0.083  1.0885  2.1370 -3.7750
  180MOL0     O24703   5.636   2.212   1.428  0.1075 -0.5510  0.4924
  180MOL0     C24704   5.631   2.088   1.428  0.1081  0.1155 -1.0600
  180MOL0     O24705   5.726   2.015   1.369 -0.5605 -0.5179  0.7838
  180MOL0     C24706   5.838   2.071   1.328 -0.8642 -0.2237  1.0983
  180MOL0     C24707   5.849   2.151   1.214  0.8709  1.2385  0.3256
  180MOL0     C24708   5.968   2.209   1.177 -0.9161 -0.1817  0.4244
  180MOL0     C24709   6.085   2.193   1.257 -0.9251 -0.3251  0.2212
  180MOL0     O24710   6.199   2.256   1.219 -1.1983  0.3142 -0.1808
  180MOL0     C24711   6.300   2.297   1.320  0.0142  0.2903  0.1038
  180MOL0     C24712   6.410   2.371   1.240 -0.2330 -0.2993  0.2943
  180MOL0     C24713   6.499   2.281   1.153 -0.1904 -0.4347 -1.0373
  180MOL0     C24714   6.592   2.359   1.054 -0.5845  0.0756 -0.3421
  180MOL0     C24715   6.710   2.267   1.007 -0.5104 -0.8203 -0.4808
  180MOL0     C24716   6.798   2.205   1.121  0.4640  0.1280  0.6029
  180MOL0     C24717   6.906   2.116   1.057 -1.3234 -0.1226 -0.0465
  180MOL0     C24718   6.971   2.031   1.169  0.1711  0.1847 -0.6358
  180MOL0     N24719   7.070   1.928   1.120 -0.2591  0.0777  0.8255
  180MOL0     C24720   7.166   1.871   1.208  0.0814  0.3931 -0.5860
  180MOL0     C24721   7.233   1.790   1.122 -0.1521 -0.3218 -0.8645
  180MOL0     C24722   7.350   1.694   1.152  0.9767 -0.2276  0.7548
  180MOL0     C24723   7.307   1.559   1.089 -0.2665  0.0237 -0.4183
  180MOL0     C24724   7.418   1.454   1.135  0.7182 -0.2432  0.1784
  180MOL0     C24725   7.548   1.472   1.047 -0.0739 -0.7619  0.2926
  180MOL0     O24726   7.609   1.352   1.057  0.0330 -0.0962  0.6446
  180MOL0     C24727   7.671   1.289   0.952  1.0565 -0.4056  1.2415
  180MOL0     C24728   7.708   1.156   0.966 -0.4399  0.1187 -0.5209
  180MOL0     C24729   7.766   1.082   0.861 -0.6348  0.0241  0.6119
  180MOL0     C24730   7.835   0.945   0.895 -0.7694 -0.6422 -0.3831
  180MOL0     C24731   7.781   1.144   0.732  0.8696  1.7176  0.5606
  180MOL0     C24732   7.835   1.078   0.609 -0.0205  0.4298  0.3479
  180MOL0     O24733   7.824   0.946   0.591  0.9906  0.0314 -0.0189
  180MOL0     C24734   7.849   0.874   0.479  0.2939 -0.0188 -0.0521
  180MOL0     C24735   7.820   0.911   0.344 -0.0620  0.6321 -0.0774
  180MOL0     C24736   7.865   0.829   0.238  0.1990 -0.7046 -0.0490
  180MOL0     C24737   7.930   0.709   0.270  0.6241  0.2419  0.4214
  180MOL0     O24738   8.010   0.634   0.181  0.3719 -1.0193  0.4713
  180MOL0     C24739   8.039   0.702   0.051  0.4724 -0.6601 -0.2763
  180MOL0     C24740   8.157   0.623  -0.009 -0.0581  1.0900 -0.1764
  180MOL0     C24741   8.292   0.654   0.067 -0.3881  0.0973 -0.7771
  180MOL0     C24742   8.412   0.584   0.009  0.5932  0.0240 -0.5085
  180MOL0     C24743   8.539   0.619   0.088 -0.0898  0.3285 -0.1557
  180MOL0     C24744   8.614   0.745   0.038  0.6258  0.8577  0.2598
  180MOL0     C24745   8.701   0.708  -0.093  0.2942 -0.2937 -0.4829
  180MOL0     C24746   8.803   0.810  -0.126 -0.3924  0.0083  0.8561
  180MOL0    Cl24747   8.890   0.770  -0.272  0.1773  0.3353  0.1940
  180MOL0     C24748   7.924   0.664   0.401  0.1301 -0.1003  0.0385
  180MOL0     C24749   7.893   0.747   0.507 -0.2831  0.0995  0.3259
  180MOL0     O24750   7.879   1.154   0.528  0.5680  0.3908  0.2446
  180MOL0     C24751   7.736   1.278   0.708  0.5903 -0.1040  0.7071
  180MOL0     C24752   7.688   1.353   0.819 -0.4715  0.5354 -0.7411
  180MOL0     N24753   7.185   1.806   0.997  0.5621  0.0507  0.2885
  180MOL0     N24754   7.082   1.875   0.985 -0.0134  0.2823 -0.2030
  180MOL0     C24755   6.082   2.113   1.372  0.1658 -0.6061 -0.3046
  180MOL0     C24756   5.956   2.044   1.404  0.7527 -0.0035  0.0728
  180MOL0     C24757   5.539   2.032   1.527 -0.1994  0.0140 -0.7749
  180MOL0     C24758   5.556   1.907   1.580 -0.1655 -0.0068  0.8712
  180MOL0     C24759   5.465   1.845   1.668 -0.7991 -0.0063 -0.9997
  180MOL0     C24760   5.336   1.897   1.691  0.4079 -0.0430  0.2484
  180MOL0     O24761   5.237   1.837   1.760 -0.1984  0.7512 -0.0408
  180MOL0     C24762   5.234   1.705   1.820  0.3358 -0.2099 -0.1741
  180MOL0     C24763   5.330   1.702   1.937  0.5385  0.1391  0.4403
  180MOL0     C24764   5.294   1.809   2.055 -0.0126  0.7472  0.4337
  180MOL0     C24765   5.157   1.791   2.125  1.0407  0.3736 -0.6894
  180MOL0     C24766   5.129   1.876   2.240  0.6735 -0.9165  0.0159
  180MOL0     C24767   5.112   1.952   2.332  0.3351  0.6405 -0.3165
  180MOL0     C24768   5.319   2.025   1.647 -0.7643 -0.3137  0.6377
  180MOL0     C24769   5.414   2.095   1.565 -0.7823 -0.4360  0.2803
  180MOL0     C24770   5.369   2.237   1.516 -0.1839  0.1502 -0.5241
  180MOL0     H24771   5.765   2.161   1.146  2.0441 -1.1978 -1.6165
  180MOL0     H24772   5.982   2.252   1.078 -0.6157  0.3049  0.6708
  180MOL0     H24773   6.343   2.214   1.377 -1.2156 -2.2326 -2.4202
  180MOL0     H24774   6.258   2.364   1.396  0.8154  0.0301  0.8010
  180MOL0     H24775   6.367   2.446   1.173  0.8960 -2.4440 -3.1290
  180MOL0     H24776   6.476   2.413   1.316  2.0161  0.2746 -1.8501
  180MOL0     H24777   6.540   2.206   1.221 -0.7674 -1.0496 -1.3673
  180MOL0     H24778   6.430   2.222   1.093 -1.1189  0.8514 -1.2755
  180MOL0     H24779   6.547   2.414   0.971 -1.8191  1.2352  1.0522
  180MOL0     H24780   6.641   2.437   1.112  0.9954  1.0686 -2.8183
  180MOL0     H24781   6.778   2.330   0.948 -0.0751  0.7859  1.6038
  180MOL0     H24782   6.670   2.179   0.956 -0.2547 -2.1789  1.5659
  180MOL0     H24783   6.830   2.283   1.190 -1.8286  0.6021  1.2067
  180MOL0     H24784   6.740   2.137   1.185  1.2713 -0.0310  1.1911
  180MOL0     H24785   6.978   2.169   0.995 -0.4816 -1.0818  0.0940
  180MOL0     H24786   6.864   2.046   0.984  1.5245 -3.0083  0.8557
  180MOL0     H24787   7.019   2.096   1.242  0.3011  0.6146 -1.0922
  180MOL0     H24788   6.887   1.987   1.223  0.3276  2.3759  1.5695
  180MOL0     H24789   7.176   1.880   1.315 -1.7164 -1.9289 -0.1568
  180MOL0     H24790   7.382   1.690   1.256  2.5907 -0.6618  0.2758
  180MOL0     H24791   7.437   1.740   1.104 -0.7065  0.4849 -1.8602
  180MOL0     H24792   7.205   1.540   1.121 -0.3693  1.8600  0.5010
  180MOL0     H24793   7.309   1.579   0.982  1.6925 -1.9688 -0.8315
  180MOL0     H24794   7.418   1.462   1.244  0.6458 -3.5340  0.5152
  180MOL0     H24795   7.376   1.355   1.115  2.3665 -0.1949 -5.1626
  180MOL0     H24796   7.534   1.514   0.947 -2.2472 -0.9747  0.4586
  180MOL0     H24797   7.607   1.548   1.100 -1.3938 -1.0821  2.3666
  180MOL0     H24798   7.679   1.101   1.056  0.5378  0.8119  0.2429
  180MOL0     H24799   7.778   0.858   0.862  0.9685 -2.9074  2.2151
  180MOL0     H24800   7.853   0.927   1.001 -2.5010 -2.5165 -0.3530
  180MOL0     H24801   7.934   0.942   0.849  0.4391 -0.1321  1.9952
  180MOL0     H24802   7.781   1.012   0.333 -1.5865  0.1303  0.4469
  180MOL0     H24803   7.852   0.856   0.133 -0.9296  0.6641  0.4065
  180MOL0     H24804   7.950   0.692  -0.012  0.0147  1.5374 -0.0398
  180MOL0     H24805   8.053   0.810   0.061  0.5233 -0.5349 -1.4985
  180MOL0     H24806   8.135   0.516  -0.005  1.2150  0.8427  2.2093
  180MOL0     H24807   8.171   0.650  -0.114  2.3355  0.0923 -0.1764
  180MOL0     H24808   8.276   0.631   0.173  1.7903 -3.3267 -1.0558
  180MOL0     H24809   8.309   0.762   0.072  2.0421 -0.2807  1.9786
  180MOL0     H24810   8.417   0.622  -0.094 -0.9153  1.2227 -0.1829
  180MOL0     H24811   8.388   0.478  -0.002  0.9423 -0.7669  4.2510
  180MOL0     H24812   8.516   0.649   0.191  4.5856 -4.4938  2.8098
  180MOL0     H24813   8.604   0.532   0.102 -0.6835 -0.4264 -1.8208
  180MOL0     H24814   8.682   0.775   0.118  2.0083 -1.1205 -0.1024
  180MOL0     H24815   8.556   0.835   0.016  3.6342  2.4885 -1.6490
  180MOL0     H24816   8.644   0.697  -0.186 -0.1117  0.3942 -0.3212
  180MOL0     H24817   8.739   0.607  -0.074 -2.5260 -1.4705 -0.6277
  180MOL0     H24818   8.874   0.822  -0.044  0.9827 -2.6432  0.1865
  180MOL0     H24819   8.754   0.903  -0.156 -2.7175 -2.1357 -2.7882
  180MOL0     H24820   7.955   0.564   0.429  0.2308  0.2088  1.0430
  180MOL0     H24821   7.910   0.718   0.610  0.3936  2.2653  0.8781
  180MOL0     H24822   7.742   1.323   0.609 -0.9419  3.0624  1.9314
  180MOL0     H24823   7.649   1.452   0.801 -2.0192  1.0171  3.9421
  180MOL0     H24824   6.162   2.107   1.446 -0.9098  1.9038  1.1738
  180MOL0     H24825   5.944   1.974   1.487 -2.4992 -1.3594 -1.3757
  180MOL0     H24826   5.648   1.858   1.547 -1.6961 -2.7935  0.4547
  180MOL0     H24827   5.489   1.744   1.701  2.2692 -0.3385 -3.7421
  180MOL0     H24828   5.133   1.682   1.856  0.0693  2.0905  0.7352
  180MOL0     H24829   5.253   1.625   1.748  1.6101 -1.3926  1.3892
  180MOL0     H24830   5.436   1.699   1.908  0.2659 -1.6819 -0.4884
  180MOL0     H24831   5.325   1.606   1.990  1.6076  1.3023  2.8109
  180MOL0     H24832   5.374   1.796   2.128  0.3054  1.3065  0.1898
  180MOL0     H24833   5.301   1.913   2.022 -1.3236  1.4509  2.1667
  180MOL0     H24834   5.142   1.690   2.164 -0.7775  0.6298 -0.6587
  180MOL0     H24835   5.087   1.818   2.046 -1.2111 -0.4055  0.9258
  180MOL0     H24836   5.111   2.013   2.419 -0.9491  0.2546 -0.0322
  180MOL0     H24837   5.216   2.057   1.663 -1.6686 -0.9038 -2.9711
  180MOL0     H24838   5.382   2.239   1.407  2.3424  1.2835 -0.2825
  180MOL0     H24839   5.268   2.258   1.550  0.8777  1.3665  2.1293
  180MOL0     H24840   5.438   2.313   1.555  1.9957 -1.3817 -1.1836
  181MOL0     O24841   7.386  10.492   9.621 -0.2105 -0.0565 -0.2827
  181MOL0     C24842   7.442  10.598   9.645  0.6150  0.8470 -0.6911
  181MOL0     O24843   7.557  10.650   9.590  0.5603  0.1766 -0.2408
  181MOL0     C24844   7.635  10.566   9.519 -0.4161  0.0543  0.1820
  181MOL0     C24845   7.699  10.449   9.563 -0.0104  0.5126  0.2246
  181MOL0     C24846   7.787  10.377   9.479 -0.0334 -0.4103  0.0519
  181MOL0     C24847   7.811  10.426   9.351  0.8590  0.3328  2.0084
  181MOL0     O24848   7.909  10.382   9.268  0.1742 -0.7296 -0.6052
  181MOL0     C24849   7.919  10.246   9.251 -0.3107  0.8954  0.6290
  181MOL0     C24850   8.009  10.234   9.131 -1.0402  0.4008 -0.2274
  181MOL0     C24851   8.148  10.301   9.144  0.0127 -0.0423  0.5044
  181MOL0     C24852   8.223  10.234   9.260 -0.0042 -0.3685 -0.4146
  181MOL0     C24853   8.379  10.232   9.250  0.2159 -0.3756 -0.3928
  181MOL0     C24854   8.438  10.377   9.254 -0.6933 -0.2416  0.7070
  181MOL0     C24855   8.586  10.389   9.285  0.1384 -0.1979 -0.4519
  181MOL0     C24856   8.670  10.351   9.159 -1.1282  0.3216 -0.0036
  181MOL0     N24857   8.815  10.337   9.180  0.0253  0.7866  0.5400
  181MOL0     C24858   8.919  10.405   9.123  0.4162  0.3573  0.3539
  181MOL0     C24859   9.035  10.368   9.183  0.3311  0.2920  0.7987
  181MOL0     C24860   9.169  10.441   9.168 -0.4198 -0.5142 -0.1148
  181MOL0     C24861   9.215  10.474   9.026 -0.6085  0.4382 -0.6506
  181MOL0     C24862   9.342  10.558   9.007  0.3784 -0.6709 -0.5186
  181MOL0     C24863   9.426  10.513   8.893 -0.3012 -0.4306 -0.5110
  181MOL0     O24864   9.365  10.566   8.774  0.9314  0.0758 -0.5913
  181MOL0     C24865   9.407  10.687   8.713 -0.6357 -0.6100 -0.3092
  181MOL0     C24866   9.310  10.747   8.639 -0.1597 -0.2511  0.3377
  181MOL0     C24867   9.323  10.857   8.559 -0.1998  0.5342  0.3885
  181MOL0     C24868   9.213  10.892   8.468  0.4578 -0.0458 -0.8354
  181MOL0     C24869   9.454  10.922   8.548  0.1015 -0.7556  0.6300
  181MOL0     C24870   9.490  11.034   8.461 -0.5190 -0.4559  0.9901
  181MOL0     O24871   9.618  11.069   8.459 -0.3248 -0.2725  0.8606
  181MOL0     C24872   9.662  11.144   8.347 -1.3199  0.3894  0.0458
  181MOL0     C24873   9.696  11.082   8.229 -0.3285  0.5652 -0.0250
  181MOL0     C24874   9.765  11.146   8.122 -0.0771 -0.3629  0.9917
  181MOL0     C24875   9.806  11.282   8.136 -0.2342  0.3814  0.4032
  181MOL0     O24876   9.887  11.339   8.040  0.7354  0.7785 -0.4291
  181MOL0     C24877   9.843  11.458   7.970  0.4683  0.1833  0.6879
  181MOL0     C24878   9.954  11.551   7.924 -0.6872 -0.5306  0.2718
  181MOL0     C24879  10.039  11.501   7.813  0.0504  0.3813 -0.6029
  181MOL0     C24880  10.173  11.576   7.809 -1.2121 -0.2430  0.3447
  181MOL0     C24881  10.266  11.530   7.700  0.2101  0.5074  0.9445
  181MOL0     C24882  10.216  11.569   7.562  0.1041  0.2429  0.0436
  181MOL0     C24883  10.294  11.515   7.441  0.2591  0.1136  0.1240
  181MOL0     C24884  10.238  11.585   7.317  0.4931  0.7436 -0.3177
  181MOL0    Cl24885  10.350  11.565   7.176  0.0103  0.3400 -0.0993
  181MOL0     C24886   9.780  11.338   8.252  0.7708  0.1650  0.2094
  181MOL0     C24887   9.712  11.276   8.356 -0.4326  0.9025  0.0736
  181MOL0     O24888   9.397  11.086   8.395  0.2601  0.2393  0.2517
  181MOL0     C24889   9.561  10.858   8.623  0.8528  0.3164  1.0209
  181MOL0     C24890   9.533  10.745   8.705 -0.3561  0.2603  0.6484
  181MOL0     N24891   9.011  10.275   9.276 -0.1777  0.4552 -0.0181
  181MOL0     N24892   8.876  10.255   9.271 -0.2215 -0.8400 -0.9204
  181MOL0     C24893   7.738  10.541   9.304  0.0780  0.4034 -0.3812
  181MOL0     C24894   7.653  10.608   9.392 -0.2145  0.8491  1.1661
  181MOL0     C24895   7.369  10.697   9.725  0.4149  1.0018  0.2687
  181MOL0     C24896   7.439  10.805   9.779  0.0061 -0.4768 -0.2563
  181MOL0     C24897   7.369  10.915   9.838 -0.1460 -0.1523  0.2267
  181MOL0     C24898   7.230  10.918   9.860  0.3615 -0.2598 -1.2010
  181MOL0     O24899   7.164  11.017   9.924  0.2290  0.4909  0.6690
  181MOL0     C24900   7.237  11.142   9.946 -0.0661 -0.3481  0.2628
  181MOL0     C24901   7.159  11.244  10.035  0.0081  0.9082  0.4686
  181MOL0     C24902   7.133  11.189  10.171  0.0203  0.1122  0.1979
  181MOL0     C24903   7.106  11.307  10.264  0.1579  0.5764  0.1320
  181MOL0     C24904   7.088  11.270  10.408 -0.3729 -1.0481  0.0884
  181MOL0     C24905   7.069  11.221  10.517  0.2930 -0.2374 -0.0644
  181MOL0     C24906   7.162  10.800   9.819 -0.4610 -0.5840 -0.2181
  181MOL0     C24907   7.225  10.690   9.755 -1.1617  0.6457 -0.1016
  181MOL0     C24908   7.127  10.586   9.707  0.8235  0.1244 -0.9932
  181MOL0     H24909   7.685  10.419   9.667  3.7496  1.0087  1.0193
  181MOL0     H24910   7.834  10.283   9.507  0.4711  0.3572  1.8602
  181MOL0     H24911   7.825  10.203   9.217  0.1697  1.3306 -1.3770
  181MOL0     H24912   7.959  10.190   9.337 -1.4190 -0.6075  0.2099
  181MOL0     H24913   8.033  10.130   9.107 -2.6357 -0.3512  1.2452
  181MOL0     H24914   7.964  10.287   9.046  1.7009  2.5944 -0.4701
  181MOL0     H24915   8.200  10.295   9.049 -1.3579  2.8067 -0.5583
  181MOL0     H24916   8.141  10.409   9.159  2.9296 -0.0258  2.6689
  181MOL0     H24917   8.189  10.279   9.354 -1.2502 -1.9057 -0.0835
  181MOL0     H24918   8.188  10.131   9.269 -0.4058 -0.2783 -0.8986
  181MOL0     H24919   8.407  10.176   9.160  1.0402 -4.3127  2.0538
  181MOL0     H24920   8.407  10.174   9.339 -1.4072 -3.3392 -1.6591
  181MOL0     H24921   8.411  10.438   9.167 -1.5885  2.4380  2.7226
  181MOL0     H24922   8.392  10.430   9.337 -2.7827 -1.4512  0.3846
  181MOL0     H24923   8.599  10.334   9.378  2.2495 -0.7759 -1.0315
  181MOL0     H24924   8.609  10.492   9.310  3.1145 -0.8307 -0.2844
  181MOL0     H24925   8.637  10.261   9.107 -0.7200 -0.0615  0.3894
  181MOL0     H24926   8.665  10.424   9.078  0.9043 -1.4605 -1.8604
  181MOL0     H24927   8.919  10.470   9.036 -1.0425 -3.2394 -2.6443
  181MOL0     H24928   9.245  10.386   9.224  1.6348  2.4210  0.2438
  181MOL0     H24929   9.163  10.540   9.216 -1.8329 -0.6011 -0.0689
  181MOL0     H24930   9.218  10.384   8.965 -0.7457  2.2114 -3.4258
  181MOL0     H24931   9.131  10.523   8.976  0.1454  2.9189  0.3517
  181MOL0     H24932   9.318  10.664   9.005 -0.0637 -0.6169  2.4795
  181MOL0     H24933   9.404  10.550   9.097 -0.2410  0.6419  0.0459
  181MOL0     H24934   9.529  10.545   8.912 -1.2721  1.8191  1.3422
  181MOL0     H24935   9.432  10.405   8.874 -2.3598 -0.4745 -1.2108
  181MOL0     H24936   9.209  10.707   8.642 -0.0564 -0.4688  2.2279
  181MOL0     H24937   9.247  10.897   8.365 -1.5603  0.4200 -1.5231
  181MOL0     H24938   9.166  10.980   8.514  1.1883 -0.9766  1.9328
  181MOL0     H24939   9.143  10.808   8.477  2.5217 -1.6430  4.9529
  181MOL0     H24940   9.675  10.977   8.212  0.4990  0.1682  1.1868
  181MOL0     H24941   9.777  11.090   8.030 -1.5165  1.6843 -0.5590
  181MOL0     H24942   9.777  11.436   7.885 -2.1320 -1.2634  2.9387
  181MOL0     H24943   9.788  11.530   8.031  2.1109  4.3299 -2.2624
  181MOL0     H24944   9.902  11.641   7.888  1.0761  0.3031 -0.2970
  181MOL0     H24945  10.010  11.577   8.014 -2.7003  1.4201  1.0635
  181MOL0     H24946   9.991  11.498   7.714  1.2691  1.6948 -1.2904
  181MOL0     H24947  10.060  11.397   7.838 -0.3792  0.9295  2.3386
  181MOL0     H24948  10.226  11.571   7.905  0.2000 -1.1981 -0.4492
  181MOL0     H24949  10.154  11.683   7.796  0.1824 -0.1267 -1.0493
  181MOL0     H24950  10.372  11.558   7.711 -0.0470  1.9076  0.0702
  181MOL0     H24951  10.258  11.421   7.701  0.8343  0.4491  2.3121
  181MOL0     H24952  10.227  11.677   7.564  2.4088  0.0789 -0.1832
  181MOL0     H24953  10.113  11.533   7.555  0.7826 -1.6700 -0.8781
  181MOL0     H24954  10.301  11.406   7.450  1.5769  0.3308  2.9186
  181MOL0     H24955  10.397  11.552   7.441  0.3440 -0.1058  0.8941
  181MOL0     H24956  10.227  11.694   7.325 -2.6592  0.7785 -2.7708
  181MOL0     H24957  10.137  11.548   7.295  1.2509 -2.5840  1.1889
  181MOL0     H24958   9.823  11.437   8.258  2.1482 -0.3390 -0.8337
  181MOL0     H24959   9.699  11.331   8.448  0.4044  2.0030 -0.4384
  181MOL0     H24960   9.665  10.890   8.613  0.5739  1.1192  0.5856
  181MOL0     H24961   9.620  10.707   8.758 -0.8106 -0.9678  0.5472
  181MOL0     H24962   7.731  10.579   9.203 -2.3750  2.2452  0.3753
  181MOL0     H24963   7.590  10.689   9.354 -2.5634 -1.3884 -0.0213
  181MOL0     H24964   7.544  10.828   9.762  0.0375  1.9432  2.4072
  181MOL0     H24965   7.437  10.996   9.860  0.5862  0.5758 -3.8785
  181MOL0     H24966   7.333  11.131   9.996 -0.7648 -4.2206  1.0037
  181MOL0     H24967   7.255  11.185   9.847 -1.8106  0.2299  0.1622
  181MOL0     H24968   7.071  11.281   9.982  0.8427  1.1652 -0.7622
  181MOL0     H24969   7.230  11.328  10.039  1.9715 -0.6200 -0.5607
  181MOL0     H24970   7.051  11.118  10.182  0.1161 -0.1135 -0.4947
  181MOL0     H24971   7.221  11.142  10.215 -2.0054 -2.3073  1.9360
  181MOL0     H24972   7.013  11.353  10.229 -0.2332 -0.2511  0.0572
  181MOL0     H24973   7.195  11.371  10.258  2.5172 -2.2465  1.9250
  181MOL0     H24974   7.066  11.177  10.615  0.4396  2.5079  1.2864
  181MOL0     H24975   7.054  10.804   9.814 -0.4788  2.5251  0.5366
  181MOL0     H24976   7.162  10.484   9.688  2.6255  0.5123  0.0889
  181MOL0     H24977   7.034  10.578   9.764  1.4602 -0.7788 -0.0409
  181MOL0     H24978   7.088  10.616   9.610 -0.6079  0.7582 -0.2521
  182MOL0     O24979   1.459   3.314   6.256  0.4300  1.0309  0.4024
  182MOL0     C24980   1.494   3.235   6.163  0.4495  0.3135  0.0626
  182MOL0     O24981   1.416   3.154   6.087 -0.1094 -0.4519  0.0279
  182MOL0     C24982   1.274   3.147   6.109  0.0790  0.0260 -0.1749
  182MOL0     C24983   1.206   3.169   6.232  0.6515 -0.4951 -0.1470
  182MOL0     C24984   1.067   3.139   6.242 -0.1095  0.8013  0.5107
  182MOL0     C24985   0.999   3.095   6.128  0.5519 -0.2989  0.1746
  182MOL0     O24986   0.860   3.058   6.133 -0.6858  0.3461  0.2423
  182MOL0     C24987   0.764   3.146   6.176  0.8653  0.1848 -0.6379
  182MOL0     C24988   0.626   3.072   6.186 -0.1394 -1.0525 -0.1067
  182MOL0     C24989   0.522   3.183   6.214 -0.1259 -0.2811  0.0716
  182MOL0     C24990   0.391   3.132   6.289 -1.3025 -0.0410  0.5119
  182MOL0     C24991   0.276   3.237   6.318  0.2140  0.6191 -0.0440
  182MOL0     C24992   0.215   3.267   6.183 -0.7097  0.4809 -0.4369
  182MOL0     C24993   0.095   3.351   6.210  0.2994  0.0649 -0.2031
  182MOL0     C24994  -0.036   3.275   6.212  0.9461  0.7969 -0.2845
  182MOL0     N24995  -0.073   3.178   6.315 -0.4386  0.0059 -0.5708
  182MOL0     C24996  -0.022   3.047   6.319 -0.1728  0.9273 -0.4949
  182MOL0     C24997  -0.096   2.986   6.421  0.6384 -0.1675  0.4120
  182MOL0     C24998  -0.092   2.839   6.457  0.3537 -0.6284 -0.0161
  182MOL0     C24999   0.056   2.783   6.469  0.3275  0.4130 -0.9481
  182MOL0     C25000   0.052   2.643   6.539  0.2216 -0.6802  0.6413
  182MOL0     C25001  -0.011   2.524   6.454 -0.5414 -0.2745  0.0444
  182MOL0     O25002  -0.030   2.406   6.537  0.4959 -0.3975  0.1353
  182MOL0     C25003   0.072   2.329   6.586  0.5081 -0.1985  1.0421
  182MOL0     C25004   0.210   2.338   6.556 -0.8190 -0.6025 -0.5090
  182MOL0     C25005   0.308   2.244   6.593 -0.2550  0.1565 -0.1616
  182MOL0     C25006   0.449   2.274   6.552  0.6885  0.2636  0.3477
  182MOL0     C25007   0.265   2.135   6.675 -0.5007 -0.0240 -0.0211
  182MOL0     C25008   0.358   2.023   6.709  0.6946  0.1078 -0.8900
  182MOL0     O25009   0.330   1.956   6.833  0.0920 -0.4669 -0.1860
  182MOL0     C25010   0.383   1.827   6.860  0.2677  0.2068  0.5012
  182MOL0     C25011   0.494   1.800   6.943  0.0834 -0.8243 -0.5162
  182MOL0     C25012   0.537   1.669   6.973  0.7403 -0.0954  0.1249
  182MOL0     C25013   0.466   1.555   6.926 -0.0896 -1.1947  0.3583
  182MOL0     O25014   0.519   1.427   6.917  0.3226  0.2626  0.0314
  182MOL0     C25015   0.614   1.388   7.023  0.8982 -0.0182 -0.5333
  182MOL0     C25016   0.588   1.237   7.053  0.0154 -0.4029  0.2878
  182MOL0     C25017   0.716   1.182   7.103 -0.5995 -0.0573 -0.4892
  182MOL0     C25018   0.695   1.040   7.147 -0.4820  0.2836 -0.5953
  182MOL0     C25019   0.824   0.957   7.140  0.0264  0.4339  0.4342
  182MOL0     C25020   0.945   1.013   7.215 -0.8326  0.1063 -0.0637
  182MOL0     C25021   1.045   0.901   7.245  0.3427 -0.0888  0.0119
  182MOL0     C25022   1.165   0.960   7.323 -0.6544 -0.3514  0.0351
  182MOL0    Cl25023   1.261   1.074   7.209 -0.0932  0.1614 -0.1482
  182MOL0     C25024   0.346   1.581   6.862 -0.8006 -0.1521  0.9771
  182MOL0     C25025   0.305   1.714   6.815  0.3036  0.4946  0.0673
  182MOL0     O25026   0.444   1.994   6.634 -0.3961 -0.8070  0.1560
  182MOL0     C25027   0.127   2.126   6.704  0.1195 -0.3857  0.2946
  182MOL0     C25028   0.030   2.220   6.665 -0.7298  0.0563  0.2907
  182MOL0     N25029  -0.169   3.081   6.478  0.3429  0.2534  0.5339
  182MOL0     N25030  -0.168   3.190   6.416  0.8840  0.6491  0.8626
  182MOL0     C25031   1.068   3.060   6.012 -0.9369 -0.8870 -0.2148
  182MOL0     C25032   1.205   3.082   6.002 -0.3088 -0.0658 -0.0021
  182MOL0     C25033   1.636   3.235   6.131  0.0614 -0.5252 -0.0274
  182MOL0     C25034   1.721   3.278   6.237 -0.8953 -0.2883 -0.1530
  182MOL0     C25035   1.862   3.267   6.219 -0.6177  0.2150 -1.0257
  182MOL0     C25036   1.918   3.221   6.095  0.2029 -0.7473 -0.9206
  182MOL0     O25037   2.051   3.222   6.054 -0.2102 -0.0698  0.3654
  182MOL0     C25038   2.148   3.186   6.151 -0.3587 -0.6245 -0.5064
  182MOL0     C25039   2.288   3.166   6.083 -0.5197  0.1864 -0.2868
  182MOL0     C25040   2.270   3.116   5.942  0.7348  0.6529 -0.0179
  182MOL0     C25041   2.399   3.090   5.874 -0.0742  0.5646  0.6985
  182MOL0     C25042   2.361   3.022   5.751  0.7600 -0.1331 -0.6235
  182MOL0     C25043   2.324   2.952   5.660 -0.8862  0.3456  0.6974
  182MOL0     C25044   1.831   3.187   6.001 -0.0726  0.4331 -0.2503
  182MOL0     C25045   1.691   3.198   6.004  0.0799 -0.1412 -0.5434
  182MOL0     C25046   1.612   3.150   5.884 -0.0204  0.1488 -1.0773
  182MOL0     H25047   1.254   3.204   6.323  1.1437 -0.6221 -0.3554
  182MOL0     H25048   1.019   3.155   6.338 -1.0973  1.1055 -0.0206
  182MOL0     H25049   0.760   3.221   6.096 -0.3945 -0.1837 -0.9286
  182MOL0     H25050   0.794   3.196   6.269  0.3047  0.3344 -0.5366
  182MOL0     H25051   0.595   3.017   6.097 -1.1995  1.7532 -1.6226
  182MOL0     H25052   0.625   3.017   6.280 -0.8597  0.8107  1.0364
  182MOL0     H25053   0.554   3.268   6.274 -1.9806  1.8995 -1.8005
  182MOL0     H25054   0.504   3.240   6.122 -1.3857  0.7536  0.9089
  182MOL0     H25055   0.356   3.036   6.248 -1.7062  0.7597 -1.1068
  182MOL0     H25056   0.434   3.108   6.387  0.2607  0.0541 -0.1303
  182MOL0     H25057   0.325   3.324   6.363  1.7546  0.9165 -2.1590
  182MOL0     H25058   0.202   3.204   6.392  0.8279 -1.4665 -0.2851
  182MOL0     H25059   0.287   3.325   6.124  0.2412 -0.1922  0.0228
  182MOL0     H25060   0.193   3.167   6.146 -1.8881  0.8756 -0.8551
  182MOL0     H25061   0.090   3.423   6.128  2.5345 -0.5002 -0.9013
  182MOL0     H25062   0.107   3.419   6.295 -1.4043  0.4356 -0.2102
  182MOL0     H25063  -0.119   3.346   6.219 -1.4435 -1.9352  1.1144
  182MOL0     H25064  -0.034   3.232   6.112  3.7714  3.6602 -1.6594
  182MOL0     H25065   0.053   3.003   6.255 -0.8764  1.7530 -1.9522
  182MOL0     H25066  -0.135   2.791   6.369 -1.5253  0.6089  0.1661
  182MOL0     H25067  -0.145   2.828   6.553  0.8452  3.7009  0.9414
  182MOL0     H25068   0.101   2.771   6.370  3.1132 -2.2436  0.4937
  182MOL0     H25069   0.123   2.844   6.529  2.3422 -1.9616 -0.6520
  182MOL0     H25070   0.156   2.616   6.560  1.2882  1.9241 -0.8480
  182MOL0     H25071  -0.010   2.653   6.629 -4.5612 -0.2891 -2.3811
  182MOL0     H25072  -0.111   2.543   6.415 -0.2749  0.1466 -0.4480
  182MOL0     H25073   0.046   2.500   6.363 -2.9207 -0.7805 -1.4103
  182MOL0     H25074   0.242   2.425   6.499 -4.9376  1.3212 -0.2349
  182MOL0     H25075   0.528   2.235   6.618  0.2238 -0.2392  0.6205
  182MOL0     H25076   0.460   2.380   6.530  0.1219  0.2039 -0.2469
  182MOL0     H25077   0.463   2.225   6.455  1.9980  2.4902 -0.6689
  182MOL0     H25078   0.547   1.885   6.985  0.5390 -1.2485 -0.2185
  182MOL0     H25079   0.621   1.654   7.039 -0.9862 -0.1513  2.4347
  182MOL0     H25080   0.712   1.413   6.983  1.3794 -0.6727  0.2045
  182MOL0     H25081   0.594   1.447   7.113  0.1960  1.0734 -1.3696
  182MOL0     H25082   0.511   1.225   7.130 -0.9522 -1.0715 -0.7515
  182MOL0     H25083   0.551   1.193   6.960 -0.0908  0.4625 -0.0900
  182MOL0     H25084   0.753   1.236   7.191  2.2774  0.4122 -1.8551
  182MOL0     H25085   0.800   1.193   7.033  0.5322  2.5358  1.1045
  182MOL0     H25086   0.617   0.996   7.084 -0.6168 -0.1698 -0.1136
  182MOL0     H25087   0.661   1.046   7.251  1.0655 -2.1276  0.1139
  182MOL0     H25088   0.787   0.867   7.190 -3.8384  1.4578 -0.3087
  182MOL0     H25089   0.854   0.931   7.039 -0.6672  1.7639 -0.1389
  182MOL0     H25090   0.914   1.066   7.306 -2.8042  3.3597 -2.4023
  182MOL0     H25091   0.987   1.086   7.145 -1.0242 -1.0380 -1.4282
  182MOL0     H25092   1.090   0.857   7.155  1.7215  2.1304 -0.4564
  182MOL0     H25093   0.996   0.823   7.304 -1.6992  1.1272  0.0158
  182MOL0     H25094   1.238   0.891   7.366 -0.1411  1.9442  3.1855
  182MOL0     H25095   1.136   1.005   7.418 -0.7686 -0.3226 -0.0131
  182MOL0     H25096   0.298   1.486   6.838  2.4310 -1.1549 -2.4159
  182MOL0     H25097   0.219   1.723   6.750  0.4862 -1.3791 -0.4875
  182MOL0     H25098   0.109   2.050   6.779  1.8377 -1.1475 -0.0023
  182MOL0     H25099  -0.070   2.194   6.698 -1.6914  2.2346 -0.7477
  182MOL0     H25100   1.016   3.010   5.930 -0.0801  0.1556 -1.4430
  182MOL0     H25101   1.256   3.045   5.914  2.2939 -0.3217  1.5109
  182MOL0     H25102   1.683   3.317   6.331  0.3127  0.9941 -0.1714
  182MOL0     H25103   1.928   3.309   6.295 -1.2807  0.0371 -0.3416
  182MOL0     H25104   2.158   3.268   6.223  2.7702 -0.4798 -0.9899
  182MOL0     H25105   2.120   3.098   6.209 -4.2310  2.1840  2.4588
  182MOL0     H25106   2.348   3.096   6.143  4.0379  2.3440 -1.8754
  182MOL0     H25107   2.345   3.259   6.091 -1.1983  0.5050  1.0972
  182MOL0     H25108   2.203   3.031   5.954  0.9173  0.6775  1.3439
  182MOL0     H25109   2.218   3.185   5.875 -0.1721  1.4766  1.4988
  182MOL0     H25110   2.453   3.020   5.939  1.2380  2.1393  1.3737
  182MOL0     H25111   2.447   3.185   5.850  2.0400 -0.8040 -0.7970
  182MOL0     H25112   2.298   2.889   5.577  0.4503 -0.5271  0.9007
  182MOL0     H25113   1.878   3.154   5.908  2.2574 -0.5372  1.1959
  182MOL0     H25114   1.591   3.046   5.911  0.4061  0.4408  0.5001
  182MOL0     H25115   1.520   3.204   5.860 -0.9223 -0.7847  0.1485
  182MOL0     H25116   1.674   3.158   5.794  2.8778  2.1400  0.9068
  183MOL0     O25117   9.859   7.004   4.630  0.5324  0.0297 -0.0821
  183MOL0     C25118   9.917   7.101   4.581  0.5872 -0.4521 -0.6667
  183MOL0     O25119   9.954   7.206   4.642  0.1034 -0.7826 -0.8224
  183MOL0     C25120   9.890   7.250   4.759 -1.3722 -0.5253  0.3722
  183MOL0     C25121   9.755   7.247   4.784  0.0341 -0.4038  1.0515
  183MOL0     C25122   9.703   7.314   4.897  0.6838  1.4519  0.5769
  183MOL0     C25123   9.782   7.367   4.994 -0.6502  0.6419 -0.7235
  183MOL0     O25124   9.719   7.421   5.103  0.3722  0.1050 -0.5906
  183MOL0     C25125   9.797   7.460   5.216 -0.0627 -0.8769  0.6353
  183MOL0     C25126   9.695   7.496   5.337 -0.0583  0.0995 -0.0618
  183MOL0     C25127   9.631   7.371   5.394  0.6330  0.4916  0.2758
  183MOL0     C25128   9.523   7.387   5.494  0.7645 -0.4274  0.3651
  183MOL0     C25129   9.568   7.402   5.639  0.2310  1.0351 -0.3356
  183MOL0     C25130   9.614   7.271   5.689  0.2652 -0.2254 -1.0611
  183MOL0     C25131   9.615   7.278   5.837 -0.2905 -0.1387  0.5200
  183MOL0     C25132   9.632   7.143   5.917 -0.3497  0.2679  0.2011
  183MOL0     N25133   9.503   7.084   5.946  0.9790 -0.3096 -0.3044
  183MOL0     C25134   9.427   7.118   6.055  0.0748  0.4120  0.0021
  183MOL0     C25135   9.317   7.038   6.041 -0.1021  0.6926  0.9456
  183MOL0     C25136   9.190   7.052   6.115 -0.1607  0.3440  0.6895
  183MOL0     C25137   9.114   7.174   6.055  0.0605 -0.5417  0.3371
  183MOL0     C25138   9.040   7.142   5.917  1.1662 -0.9983 -0.3200
  183MOL0     C25139   8.972   7.275   5.865  0.3135  0.8783 -0.1441
  183MOL0     O25140   9.066   7.368   5.811  0.5830  0.5333 -0.5131
  183MOL0     C25141   9.018   7.443   5.704 -0.5889  0.7465 -0.5652
  183MOL0     C25142   8.884   7.499   5.702  0.5826 -0.1578 -0.4592
  183MOL0     C25143   8.843   7.576   5.594 -1.5043  0.7196  0.4457
  183MOL0     C25144   8.691   7.611   5.592 -0.4549  0.1476 -0.6261
  183MOL0     C25145   8.943   7.621   5.497  1.2885  0.4490  0.7744
  183MOL0     C25146   8.913   7.716   5.393 -0.0204  0.2430 -0.0500
  183MOL0     O25147   8.976   7.708   5.266 -0.1331  0.0723  0.6700
  183MOL0     C25148   8.955   7.817   5.186  0.0837 -0.2495  0.0314
  183MOL0     C25149   9.071   7.891   5.153 -0.2032  0.0019 -0.0030
  183MOL0     C25150   9.064   8.001   5.063  0.2565  0.3740 -0.7687
  183MOL0     C25151   8.945   8.040   5.004  1.3087 -0.2789  0.3996
  183MOL0     O25152   8.955   8.138   4.914 -0.5794 -0.4877  0.1825
  183MOL0     C25153   8.875   8.139   4.799 -0.4874  0.8280 -1.3164
  183MOL0     C25154   8.906   8.267   4.726 -1.1280 -0.4666  0.4674
  183MOL0     C25155   8.882   8.276   4.572  1.0692 -0.5222  1.1124
  183MOL0     C25156   8.974   8.195   4.485 -0.1765 -0.3936  0.9407
  183MOL0     C25157   8.917   8.196   4.338 -0.8929  0.2722  1.0823
  183MOL0     C25158   8.816   8.080   4.325 -0.2619  0.3791  0.3722
  183MOL0     C25159   8.799   8.035   4.173  0.7026  1.1757 -0.1044
  183MOL0     C25160   8.752   7.894   4.157 -1.0952  0.2218  0.3254
  183MOL0    Cl25161   8.618   7.829   4.249 -0.1165  0.5735  0.0674
  183MOL0     C25162   8.829   7.965   5.031  0.6850  0.4934  0.1228
  183MOL0     C25163   8.830   7.862   5.132 -0.3074 -0.0359 -0.0239
  183MOL0     O25164   8.819   7.794   5.419 -0.0387 -0.3765 -0.1828
  183MOL0     C25165   9.076   7.572   5.496 -0.0860 -0.2767 -0.8923
  183MOL0     C25166   9.112   7.478   5.605 -0.2162  0.1839  0.6310
  183MOL0     N25167   9.327   6.956   5.927  0.2442  0.4748 -0.8203
  183MOL0     N25168   9.446   6.984   5.874  1.3694 -0.3809 -0.6559
  183MOL0     C25169   9.918   7.363   4.973  0.0488  0.3372  0.1435
  183MOL0     C25170   9.973   7.320   4.848  0.1886  0.2574  0.9118
  183MOL0     C25171   9.989   7.077   4.453 -0.9193 -0.7363  0.0117
  183MOL0     C25172  10.129   7.057   4.443 -0.8413  1.4836  0.5971
  183MOL0     C25173  10.188   7.005   4.327 -0.8057 -0.4113 -0.5797
  183MOL0     C25174  10.111   6.993   4.209  0.7309  0.5564  0.1889
  183MOL0     O25175  10.143   6.930   4.099 -0.0828  0.4318  1.2044
  183MOL0     C25176  10.276   6.927   4.046  1.0441  0.3503  0.5113
  183MOL0     C25177  10.307   7.058   3.971  0.2586  0.2434  1.2207
  183MOL0     C25178  10.427   7.035   3.884 -0.1630 -0.9927  0.6531
  183MOL0     C25179  10.470   7.178   3.832 -0.4366 -0.2691  0.8055
  183MOL0     C25180  10.382   7.230   3.731  0.1116  0.3484  0.2882
  183MOL0     C25181  10.305   7.286   3.652 -0.5021 -0.4212 -0.5624
  183MOL0     C25182   9.972   7.010   4.222  0.3100  0.2117  0.0382
  183MOL0     C25183   9.920   7.050   4.345 -0.0677 -0.3450 -0.4355
  183MOL0     C25184   9.766   7.074   4.342  0.3074 -0.2479  0.0256
  183MOL0     H25185   9.685   7.192   4.722  0.5219 -0.5801  0.6533
  183MOL0     H25186   9.595   7.320   4.910  0.3063 -1.4359 -0.5940
  183MOL0     H25187   9.843   7.557   5.197 -1.2348 -0.7951 -2.3443
  183MOL0     H25188   9.854   7.371   5.247  2.6689  0.8969  1.0498
  183MOL0     H25189   9.751   7.536   5.421 -1.0013 -0.4771  0.8723
  183MOL0     H25190   9.611   7.552   5.295  0.0177 -0.0699 -0.4419
  183MOL0     H25191   9.586   7.321   5.308 -1.0351 -1.2248  2.0305
  183MOL0     H25192   9.710   7.312   5.441  0.1774  0.9971  1.7498
  183MOL0     H25193   9.459   7.474   5.476 -1.8127 -2.2025  0.5142
  183MOL0     H25194   9.457   7.300   5.488 -1.1440  0.9635  0.2813
  183MOL0     H25195   9.475   7.424   5.692 -1.6163 -2.5196 -1.8195
  183MOL0     H25196   9.642   7.480   5.662  2.1809 -1.3360  2.0766
  183MOL0     H25197   9.538   7.201   5.652  1.4846 -0.6945 -2.8569
  183MOL0     H25198   9.716   7.246   5.656  1.3355  1.5934  0.6659
  183MOL0     H25199   9.530   7.333   5.877  0.9535  1.7182  0.7635
  183MOL0     H25200   9.708   7.331   5.859 -1.7197  1.6239  2.7252
  183MOL0     H25201   9.689   7.072   5.856 -0.2035  0.7314 -0.2093
  183MOL0     H25202   9.679   7.161   6.014  0.5334  0.2179 -0.2138
  183MOL0     H25203   9.445   7.200   6.124 -2.6113  2.7404 -1.8215
  183MOL0     H25204   9.196   7.058   6.224 -0.9708 -0.7609  0.8104
  183MOL0     H25205   9.129   6.963   6.096 -2.3323  1.9378 -0.1381
  183MOL0     H25206   9.044   7.208   6.132  4.4532  4.0568  2.9349
  183MOL0     H25207   9.186   7.257   6.044 -0.7238  0.0529 -0.4840
  183MOL0     H25208   9.109   7.093   5.848 -1.3443 -4.5557 -0.5789
  183MOL0     H25209   8.954   7.075   5.929 -1.0989  1.3954 -2.1346
  183MOL0     H25210   8.901   7.253   5.784 -0.1671  1.3971  0.1299
  183MOL0     H25211   8.913   7.314   5.948 -3.0097  0.7501 -2.2608
  183MOL0     H25212   8.817   7.492   5.787  1.9088 -0.2689  0.6278
  183MOL0     H25213   8.659   7.614   5.487  0.2220 -0.0017 -0.8397
  183MOL0     H25214   8.654   7.701   5.642 -1.5503 -1.4520  1.6004
  183MOL0     H25215   8.632   7.537   5.647  1.4429  1.2623  3.2804
  183MOL0     H25216   9.168   7.864   5.192  0.3027  2.4170  0.6124
  183MOL0     H25217   9.156   8.053   5.039  1.3560 -0.5844  1.1959
  183MOL0     H25218   8.903   8.052   4.738 -0.1371 -0.7080  0.8966
  183MOL0     H25219   8.768   8.138   4.822 -0.7051  0.8981 -2.3014
  183MOL0     H25220   8.852   8.345   4.781  1.3113  1.6792  0.0480
  183MOL0     H25221   9.010   8.298   4.739 -0.8362 -1.4448  0.5485
  183MOL0     H25222   8.887   8.376   4.529 -0.1618 -1.0396 -0.3646
  183MOL0     H25223   8.779   8.246   4.550 -0.2196  2.1670  2.9359
  183MOL0     H25224   8.994   8.094   4.521 -0.1488 -0.4952  0.6430
  183MOL0     H25225   9.071   8.246   4.489 -0.6444  0.8739 -1.7342
  183MOL0     H25226   8.869   8.288   4.304 -1.1604 -0.6953 -1.4005
  183MOL0     H25227   8.997   8.185   4.265 -2.8084  1.9776 -1.4280
  183MOL0     H25228   8.721   8.121   4.362 -0.5729  0.1323 -0.1503
  183MOL0     H25229   8.824   7.989   4.386 -3.9612 -0.7962 -0.6660
  183MOL0     H25230   8.895   8.042   4.122  1.4247 -1.1425  0.8019
  183MOL0     H25231   8.719   8.091   4.124 -0.3998 -0.0129  0.2509
  183MOL0     H25232   8.833   7.832   4.197 -2.7996 -1.4391  1.3562
  183MOL0     H25233   8.736   7.869   4.052  1.6009  4.3272 -1.3415
  183MOL0     H25234   8.735   7.992   4.984 -0.0908  2.4488  2.5549
  183MOL0     H25235   8.739   7.804   5.143 -1.3221  1.6210  0.6593
  183MOL0     H25236   9.152   7.622   5.437  1.4473 -1.2439  0.1878
  183MOL0     H25237   9.210   7.432   5.613  1.9426  3.5360 -2.9315
  183MOL0     H25238   9.982   7.422   5.039  0.7488 -1.8916  1.5736
  183MOL0     H25239  10.076   7.348   4.828  0.1833 -0.3294 -0.0157
  183MOL0     H25240  10.189   7.051   4.533 -1.1361 -0.5306  0.6878
  183MOL0     H25241  10.289   6.967   4.321 -1.6231 -2.8744 -0.0253
  183MOL0     H25242  10.352   6.886   4.114  0.1069 -0.1715  1.2674
  183MOL0     H25243  10.279   6.848   3.971  1.2043 -0.3515  1.2340
  183MOL0     H25244  10.327   7.145   4.035 -0.5598  1.3014  0.0955
  183MOL0     H25245  10.218   7.076   3.910  0.3177  1.6077  1.5022
  183MOL0     H25246  10.502   6.997   3.954 -0.0320  1.1507  1.7613
  183MOL0     H25247  10.404   6.967   3.801 -0.4465 -0.2835  0.1474
  183MOL0     H25248  10.566   7.156   3.786 -0.8924  0.8457 -0.7969
  183MOL0     H25249  10.500   7.253   3.905  0.0335 -0.8872  1.2596
  183MOL0     H25250  10.248   7.332   3.574  1.5957 -2.2058 -3.3219
  183MOL0     H25251   9.916   6.985   4.132  0.8210 -1.7949  0.2335
  183MOL0     H25252   9.712   6.981   4.359 -1.1645  0.2451 -1.5944
  183MOL0     H25253   9.731   7.146   4.417  1.4718 -2.9312  3.3438
  183MOL0     H25254   9.723   7.117   4.250 -3.0694  2.4631  2.5885
  184MOL0     O25255   9.427   0.307   8.029  0.5627 -0.0066 -0.0507
  184MOL0     C25256   9.360   0.317   8.132 -0.3768 -0.5418  0.3400
  184MOL0     O25257   9.231   0.271   8.158 -0.2177 -0.1691 -0.0052
  184MOL0     C25258   9.154   0.219   8.060 -0.5879  0.7254  0.8371
  184MOL0     C25259   9.113   0.298   7.953 -0.1467  0.2966 -1.0416
  184MOL0     C25260   9.016   0.253   7.863  0.1533  0.0450 -0.2698
  184MOL0     C25261   8.968   0.124   7.876 -0.3304 -0.0243  0.1419
  184MOL0     O25262   8.884   0.094   7.776  0.5025  0.9090  0.2550
  184MOL0     C25263   8.927  -0.020   7.702 -0.2189 -0.0173  0.0791
  184MOL0     C25264   8.918   0.016   7.556 -2.0049 -0.6360  0.2688
  184MOL0     C25265   8.771   0.002   7.507  0.0650 -0.4172 -0.5453
  184MOL0     C25266   8.755   0.018   7.358 -0.9193 -0.1817 -0.6606
  184MOL0     C25267   8.612   0.026   7.302  0.6321  0.4220 -0.2745
  184MOL0     C25268   8.517  -0.095   7.313  0.0861  0.5560 -0.6149
  184MOL0     C25269   8.433  -0.127   7.187  0.4527 -0.2524  1.3544
  184MOL0     C25270   8.330  -0.015   7.153 -0.1118 -0.8609  0.2774
  184MOL0     N25271   8.205  -0.004   7.227  0.7479  0.4532  0.7603
  184MOL0     C25272   8.142   0.111   7.260  0.4867 -0.6676  0.7004
  184MOL0     C25273   8.033   0.080   7.340 -0.3305  0.2783 -0.8350
  184MOL0     C25274   7.945   0.179   7.420  0.0447  0.4371  0.8657
  184MOL0     C25275   7.790   0.150   7.425 -1.0323  0.0667  0.1634
  184MOL0     C25276   7.708   0.263   7.482  0.4853 -0.7351  0.0922
  184MOL0     C25277   7.558   0.227   7.501 -0.5353  1.0909 -0.3509
  184MOL0     O25278   7.548   0.090   7.559 -0.4713 -1.2554 -0.4064
  184MOL0     C25279   7.420   0.040   7.544  0.7140 -0.0868 -0.0919
  184MOL0     C25280   7.318   0.062   7.638 -0.2916 -0.4172  0.3350
  184MOL0     C25281   7.192   0.014   7.624 -0.2886  0.1380 -0.3140
  184MOL0     C25282   7.095   0.053   7.735 -0.3279  0.7462  0.1464
  184MOL0     C25283   7.159  -0.087   7.533 -0.5397 -0.8518 -0.0083
  184MOL0     C25284   7.027  -0.156   7.514 -0.7968  0.8111  0.4043
  184MOL0     O25285   7.024  -0.241   7.398  0.2191 -0.4960 -0.3239
  184MOL0     C25286   6.908  -0.297   7.387  0.3075  0.0285  0.0652
  184MOL0     C25287   6.805  -0.225   7.338  0.0182 -1.3070 -0.3806
  184MOL0     C25288   6.683  -0.285   7.308  0.4780 -0.2762 -0.2664
  184MOL0     C25289   6.672  -0.421   7.338  0.3223  0.3125  0.3463
  184MOL0     O25290   6.547  -0.469   7.316  0.5398  0.4121 -0.4403
  184MOL0     C25291   6.522  -0.610   7.331 -0.1210  0.1804  0.3495
  184MOL0     C25292   6.514  -0.636   7.478  0.3334 -0.1910  0.0504
  184MOL0     C25293   6.371  -0.597   7.523 -0.6222 -0.4453  0.1562
  184MOL0     C25294   6.351  -0.635   7.667  0.3854  0.4765 -0.0489
  184MOL0     C25295   6.230  -0.570   7.738 -0.6875 -0.2377  0.1163
  184MOL0     C25296   6.252  -0.614   7.883  0.3099  0.3773  0.8096
  184MOL0     C25297   6.131  -0.559   7.961  0.0811 -0.2956 -0.5473
  184MOL0     C25298   6.025  -0.670   7.965  0.8275  0.3559 -0.6523
  184MOL0    Cl25299   5.869  -0.597   8.026 -0.4223 -0.3871 -0.0388
  184MOL0     C25300   6.776  -0.491   7.390  1.0979  0.6733 -0.5374
  184MOL0     C25301   6.888  -0.427   7.429 -0.7345 -0.5288 -0.4279
  184MOL0     O25302   6.935  -0.132   7.592 -0.4644  0.2114  0.1481
  184MOL0     C25303   7.261  -0.118   7.442 -0.2730 -0.2909 -0.2232
  184MOL0     C25304   7.389  -0.059   7.454  0.0497 -0.0368  0.2972
  184MOL0     N25305   8.033  -0.054   7.341 -0.2813 -0.9156  0.1605
  184MOL0     N25306   8.134  -0.104   7.287 -0.8705  0.6307 -0.1661
  184MOL0     C25307   9.000   0.036   7.978  0.3154  0.1272 -0.2351
  184MOL0     C25308   9.091   0.088   8.074 -0.1015 -0.4418 -0.2342
  184MOL0     C25309   9.436   0.398   8.239 -0.3485 -0.1367 -0.3617
  184MOL0     C25310   9.363   0.454   8.340 -0.3913 -0.2893 -1.0848
  184MOL0     C25311   9.421   0.523   8.450 -0.0398  0.0316 -0.1263
  184MOL0     C25312   9.559   0.550   8.454  1.2443  1.1973 -0.1270
  184MOL0     O25313   9.623   0.635   8.539  0.1338  0.5548 -0.0103
  184MOL0     C25314   9.571   0.662   8.665  0.3696  0.3083  0.5003
  184MOL0     C25315   9.677   0.675   8.776 -0.3449  0.1648  0.5842
  184MOL0     C25316   9.782   0.785   8.760 -0.0276 -0.8840  0.2679
  184MOL0     C25317   9.834   0.817   8.893 -1.2334 -0.6716 -1.0219
  184MOL0     C25318   9.951   0.908   8.883  0.7491 -0.2932  0.0265
  184MOL0     C25319  10.043   0.989   8.878  0.6574 -0.1801 -1.0101
  184MOL0     C25320   9.634   0.496   8.348 -0.6346 -1.0844  0.9711
  184MOL0     C25321   9.581   0.425   8.238 -0.0392 -0.2714 -0.4829
  184MOL0     C25322   9.683   0.372   8.136 -0.0833 -0.2051  0.1133
  184MOL0     H25323   9.124   0.406   7.956 -0.4769  0.3096  0.8141
  184MOL0     H25324   8.981   0.319   7.784 -1.2580  1.2812  1.3183
  184MOL0     H25325   8.868  -0.109   7.722 -0.0833 -0.7435 -2.4477
  184MOL0     H25326   9.033  -0.036   7.724 -0.5538 -4.9761 -0.8342
  184MOL0     H25327   8.961   0.115   7.534 -4.0576 -0.4521 -3.6880
  184MOL0     H25328   8.991  -0.040   7.497  1.4322  3.4931  0.0584
  184MOL0     H25329   8.718  -0.091   7.529 -2.3381  1.1045  0.5170
  184MOL0     H25330   8.729   0.080   7.571  0.9285 -2.7544  3.2338
  184MOL0     H25331   8.804   0.107   7.319  0.3547  0.1433  1.4913
  184MOL0     H25332   8.797  -0.071   7.310 -1.2639  0.1374 -1.5755
  184MOL0     H25333   8.624   0.032   7.194  2.2336  2.4617 -0.0448
  184MOL0     H25334   8.572   0.125   7.328 -1.9697 -0.3472 -1.0404
  184MOL0     H25335   8.575  -0.188   7.321 -2.4838 -1.1569 -0.7643
  184MOL0     H25336   8.448  -0.077   7.396 -1.5454 -1.1470 -1.5416
  184MOL0     H25337   8.388  -0.221   7.220 -1.1651 -0.4048 -1.0038
  184MOL0     H25338   8.506  -0.137   7.105  2.0192  3.0809  2.1934
  184MOL0     H25339   8.379   0.083   7.144  0.5305 -1.1366  0.6466
  184MOL0     H25340   8.308  -0.034   7.048  0.9704  2.3422 -0.6652
  184MOL0     H25341   8.168   0.214   7.236  2.3291 -1.0130  1.0366
  184MOL0     H25342   7.965   0.280   7.383 -0.3376  0.4864  0.7846
  184MOL0     H25343   7.979   0.181   7.524 -0.7255  3.9079  1.2096
  184MOL0     H25344   7.746   0.127   7.328 -0.3628  2.1831 -0.6931
  184MOL0     H25345   7.785   0.057   7.483  2.7353  0.4667  1.3900
  184MOL0     H25346   7.751   0.306   7.573 -2.1397 -1.7776  1.9386
  184MOL0     H25347   7.707   0.347   7.412 -0.7757  1.2552  2.3386
  184MOL0     H25348   7.522   0.304   7.570  0.2977  0.1313  1.2183
  184MOL0     H25349   7.495   0.225   7.411 -1.9266 -3.5655  0.4685
  184MOL0     H25350   7.338   0.140   7.710  0.8067 -0.8032  0.4733
  184MOL0     H25351   7.052  -0.036   7.782  1.1712  0.1106  0.3606
  184MOL0     H25352   7.007   0.106   7.698  0.0018  1.8594  0.8991
  184MOL0     H25353   7.145   0.114   7.810 -3.3294 -1.5563  4.4751
  184MOL0     H25354   6.833  -0.126   7.302 -3.1504 -0.5352 -1.0103
  184MOL0     H25355   6.615  -0.233   7.241 -0.6300 -2.1707 -0.6718
  184MOL0     H25356   6.428  -0.636   7.281 -1.3612 -1.5914  3.3261
  184MOL0     H25357   6.604  -0.658   7.278 -1.8606  0.4228 -2.8124
  184MOL0     H25358   6.529  -0.739   7.512 -0.9635 -1.1579 -2.0950
  184MOL0     H25359   6.590  -0.582   7.536  0.3410 -2.5102  2.3692
  184MOL0     H25360   6.287  -0.652   7.478 -0.4322 -2.1901  1.8399
  184MOL0     H25361   6.357  -0.489   7.511 -1.7869 -0.4716  1.0954
  184MOL0     H25362   6.442  -0.604   7.720 -0.2264 -0.5211  1.6865
  184MOL0     H25363   6.344  -0.743   7.681  1.3273  0.3481 -0.5030
  184MOL0     H25364   6.226  -0.462   7.720 -2.7949 -0.1760  0.6217
  184MOL0     H25365   6.139  -0.619   7.702 -2.8424  1.4465  2.8450
  184MOL0     H25366   6.344  -0.569   7.920  2.3452 -1.7054 -1.3530
  184MOL0     H25367   6.262  -0.722   7.895 -0.2796  0.0291 -1.4276
  184MOL0     H25368   6.087  -0.467   7.922 -3.2095 -1.9809 -1.1498
  184MOL0     H25369   6.153  -0.542   8.067 -0.4711  1.1486 -0.6410
  184MOL0     H25370   6.063  -0.745   8.034  0.3433 -0.2429 -1.0229
  184MOL0     H25371   6.017  -0.713   7.864  0.6089  0.7279 -0.7953
  184MOL0     H25372   6.791  -0.597   7.409 -1.7012  0.5965  1.8263
  184MOL0     H25373   6.977  -0.476   7.468  0.9841  3.3930  1.2088
  184MOL0     H25374   7.245  -0.189   7.361 -0.0930 -0.0294 -0.4870
  184MOL0     H25375   7.462  -0.104   7.388 -0.0856 -0.5450  0.4915
  184MOL0     H25376   8.948  -0.059   7.977  0.4272 -0.0376 -4.1157
  184MOL0     H25377   9.098   0.040   8.171  1.8044 -0.9971 -0.6008
  184MOL0     H25378   9.256   0.446   8.324 -0.2788  0.8344 -2.5988
  184MOL0     H25379   9.359   0.560   8.531 -0.5837 -3.0322  0.9580
  184MOL0     H25380   9.498   0.743   8.667 -1.4842 -1.2736  0.5971
  184MOL0     H25381   9.520   0.568   8.689 -1.0924  1.1027  0.6031
  184MOL0     H25382   9.732   0.580   8.771  0.9233  0.9478 -2.5123
  184MOL0     H25383   9.636   0.687   8.877 -0.2325  1.1072  0.5208
  184MOL0     H25384   9.850   0.765   8.676  0.9793 -0.6707  1.0211
  184MOL0     H25385   9.729   0.877   8.733  2.3145  0.4197 -0.1747
  184MOL0     H25386   9.884   0.731   8.938  3.0515  1.4230 -1.2835
  184MOL0     H25387   9.755   0.861   8.953  0.0060  0.4330 -0.1357
  184MOL0     H25388  10.123   1.060   8.883 -0.7610  1.3657  1.2118
  184MOL0     H25389   9.739   0.521   8.351 -0.2200 -2.0223 -2.1635
  184MOL0     H25390   9.662   0.270   8.102  1.3844 -0.2889 -0.6381
  184MOL0     H25391   9.700   0.448   8.059  3.5900 -1.0491 -0.1101
  184MOL0     H25392   9.777   0.367   8.192  1.3574  0.7043 -2.0710
  185MOL0     O25393   7.442  10.218   2.372  0.3282  0.3944 -0.2324
  185MOL0     C25394   7.465  10.151   2.279 -0.8583  1.3584 -0.2890
  185MOL0     O25395   7.369  10.116   2.188  0.3686  0.2748 -0.1411
  185MOL0     C25396   7.252  10.183   2.177 -0.4516  0.0632 -0.0619
  185MOL0     C25397   7.152  10.109   2.114 -0.3333  0.5662 -1.4185
  185MOL0     C25398   7.020  10.151   2.091  0.1983  0.1774 -0.4109
  185MOL0     C25399   6.996  10.283   2.122  0.1901 -0.1824  0.5717
  185MOL0     O25400   6.873  10.328   2.092 -0.2086  0.4595  0.5346
  185MOL0     C25401   6.792  10.341   2.212  1.1772  0.6155 -0.0859
  185MOL0     C25402   6.642  10.354   2.187  0.1745  0.4682 -0.9326
  185MOL0     C25403   6.565  10.366   2.329 -0.7601  0.3679  0.4675
  185MOL0     C25404   6.411  10.384   2.310 -0.5664 -0.0537 -0.3306
  185MOL0     C25405   6.354  10.383   2.444 -0.3038 -0.0040  0.0780
  185MOL0     C25406   6.206  10.444   2.429 -0.4506 -1.0129  0.0782
  185MOL0     C25407   6.203  10.597   2.412  0.3958  0.6783 -0.5922
  185MOL0     C25408   6.229  10.679   2.538 -0.4148  0.3787 -0.1343
  185MOL0     N25409   6.252  10.819   2.519  0.5103 -0.4519 -0.1555
  185MOL0     C25410   6.152  10.918   2.531  0.2032 -0.1215 -0.0930
  185MOL0     C25411   6.234  11.031   2.531 -0.1143 -0.9779  0.4631
  185MOL0     C25412   6.198  11.176   2.546 -0.5143  0.3251 -0.6413
  185MOL0     C25413   6.319  11.263   2.584  0.0015 -0.3150  0.8742
  185MOL0     C25414   6.287  11.411   2.578 -0.5713 -0.5935 -0.1050
  185MOL0     C25415   6.420  11.489   2.543  0.0939  0.4595  0.1733
  185MOL0     O25416   6.380  11.600   2.462  0.0222 -0.2350 -0.2715
  185MOL0     C25417   6.343  11.589   2.332  0.0817  0.8730 -0.5819
  185MOL0     C25418   6.284  11.697   2.271 -0.2560 -1.1543 -0.2037
  185MOL0     C25419   6.263  11.700   2.137  0.0017  0.6631  0.1631
  185MOL0     C25420   6.225  11.834   2.064  0.6479  0.4611  0.2400
  185MOL0     C25421   6.299  11.591   2.059 -0.6667  0.3387 -0.6479
  185MOL0     C25422   6.290  11.597   1.918  0.7794  0.2970  0.3564
  185MOL0     O25423   6.168  11.616   1.866  0.6269  0.2471 -0.7388
  185MOL0     C25424   6.162  11.613   1.735  0.4196 -0.7013  0.2279
  185MOL0     C25425   6.152  11.495   1.669 -0.2953  0.1215  0.7005
  185MOL0     C25426   6.137  11.505   1.525  0.4891  0.3310 -0.4673
  185MOL0     C25427   6.120  11.634   1.453  0.5392  0.0434  0.3300
  185MOL0     O25428   6.112  11.631   1.313  0.6766 -0.3476  0.0256
  185MOL0     C25429   5.991  11.683   1.249  0.1853  0.4863 -0.8376
  185MOL0     C25430   5.865  11.593   1.258  0.1051  1.4922  0.8033
  185MOL0     C25431   5.751  11.640   1.172  1.1159  0.0191 -0.6381
  185MOL0     C25432   5.652  11.526   1.159  0.6794  0.2812 -0.9929
  185MOL0     C25433   5.542  11.506   1.271 -0.1386 -0.2622 -0.6741
  185MOL0     C25434   5.439  11.403   1.225 -0.2955  0.5912  0.5352
  185MOL0     C25435   5.376  11.330   1.350  0.2242  0.2113 -0.0404
  185MOL0     C25436   5.357  11.182   1.319 -0.9420 -0.3610  0.3733
  185MOL0    Cl25437   5.247  11.104   1.440  0.4790 -0.4396  0.1790
  185MOL0     C25438   6.127  11.749   1.535  0.6455 -0.0116  0.3517
  185MOL0     C25439   6.147  11.736   1.671  0.5137 -0.2310 -0.3086
  185MOL0     O25440   6.397  11.557   1.860  0.1995 -0.4481  0.4252
  185MOL0     C25441   6.348  11.473   2.121 -0.0598 -0.6350  0.5522
  185MOL0     C25442   6.367  11.472   2.259 -0.4395  0.5258 -0.2623
  185MOL0     N25443   6.363  10.989   2.501 -0.1398  0.1721 -0.3206
  185MOL0     N25444   6.374  10.868   2.493  0.3568 -0.2264  0.3494
  185MOL0     C25445   7.093  10.372   2.171 -0.4281  1.0915 -0.3524
  185MOL0     C25446   7.225  10.322   2.196  1.1856 -0.0679 -0.6462
  185MOL0     C25447   7.606  10.084   2.275  0.7464 -0.3782 -0.0279
  185MOL0     C25448   7.629   9.957   2.221 -0.7751  0.0830  0.6935
  185MOL0     C25449   7.747   9.884   2.237 -0.5768 -0.0580 -1.2333
  185MOL0     C25450   7.859   9.953   2.289 -0.3955  0.3776  1.0771
  185MOL0     O25451   7.985   9.911   2.292 -0.0835 -1.3022  0.3340
  185MOL0     C25452   7.993   9.777   2.304 -0.5134  0.4983  0.6141
  185MOL0     C25453   8.126   9.738   2.379 -0.2394  0.6779 -0.0364
  185MOL0     C25454   8.132   9.586   2.375 -0.3995  0.5652  0.2908
  185MOL0     C25455   8.250   9.537   2.458  0.1411  0.1005 -0.0441
  185MOL0     C25456   8.222   9.559   2.605  0.5721 -0.2981  0.0483
  185MOL0     C25457   8.186   9.577   2.718  0.1456 -0.2833 -0.1167
  185MOL0     C25458   7.848  10.088   2.316 -0.7071 -0.3247 -0.5372
  185MOL0     C25459   7.723  10.154   2.309  0.0581  0.0914  0.0068
  185MOL0     C25460   7.723  10.301   2.343  0.3324 -0.2789  0.0235
  185MOL0     H25461   7.180  10.004   2.118 -1.0055  0.4082 -0.5643
  185MOL0     H25462   6.941  10.090   2.048  2.1052 -0.5896 -3.1058
  185MOL0     H25463   6.837  10.428   2.260 -0.7112  1.6156 -0.0305
  185MOL0     H25464   6.808  10.260   2.284 -0.9803  3.6633  4.2896
  185MOL0     H25465   6.613  10.433   2.117 -0.0258 -0.9268 -2.4800
  185MOL0     H25466   6.614  10.260   2.140  1.0347  0.5089 -1.5405
  185MOL0     H25467   6.572  10.280   2.397  3.0629  0.2754  0.1609
  185MOL0     H25468   6.607  10.455   2.375 -1.5566  1.7355 -1.3309
  185MOL0     H25469   6.398  10.476   2.252  1.0201 -0.3493 -1.1982
  185MOL0     H25470   6.366  10.303   2.251 -0.6669  2.0639 -3.4262
  185MOL0     H25471   6.414  10.443   2.512 -2.8601  2.5381  0.3047
  185MOL0     H25472   6.354  10.282   2.487 -0.2205 -0.0972 -0.1392
  185MOL0     H25473   6.160  10.400   2.340  3.4440 -1.4032 -1.9207
  185MOL0     H25474   6.130  10.432   2.507 -0.1920  2.3919  1.0177
  185MOL0     H25475   6.102  10.614   2.374  0.7142  1.8869 -0.9460
  185MOL0     H25476   6.265  10.629   2.328  1.7146 -2.4270 -0.9331
  185MOL0     H25477   6.142  10.661   2.602  0.2050  2.8271  1.4984
  185MOL0     H25478   6.319  10.641   2.587 -0.2324  1.1402  0.1379
  185MOL0     H25479   6.044  10.920   2.546  0.0238  4.4367 -0.5233
  185MOL0     H25480   6.127  11.179   2.630 -2.7069 -0.0089 -2.3712
  185MOL0     H25481   6.155  11.220   2.456  4.3438  0.3563 -3.2387
  185MOL0     H25482   6.356  11.228   2.681 -0.0464 -0.6847  0.7629
  185MOL0     H25483   6.384  11.238   2.499 -5.2892 -0.7593 -3.6163
  185MOL0     H25484   6.205  11.440   2.512  0.3548 -0.1715 -1.0913
  185MOL0     H25485   6.243  11.440   2.674 -2.3332 -0.4641 -0.8997
  185MOL0     H25486   6.463  11.532   2.634  2.0639  0.3107 -0.6422
  185MOL0     H25487   6.495  11.428   2.491 -1.6729 -0.4907 -1.3589
  185MOL0     H25488   6.268  11.787   2.329 -1.9385 -2.0507  0.7888
  185MOL0     H25489   6.176  11.828   1.966 -2.5012 -1.8219  1.7940
  185MOL0     H25490   6.315  11.896   2.069  0.6067  0.4316  1.7298
  185MOL0     H25491   6.152  11.887   2.126  1.7720  0.4469  1.6304
  185MOL0     H25492   6.162  11.404   1.726 -0.5952  0.0338  0.6140
  185MOL0     H25493   6.112  11.415   1.468 -1.5054 -0.9581  2.2195
  185MOL0     H25494   5.968  11.781   1.294 -1.4694 -0.5867  0.7855
  185MOL0     H25495   6.017  11.704   1.145  1.0076  3.7767 -0.1036
  185MOL0     H25496   5.910  11.505   1.210 -1.1752 -0.0490  2.2931
  185MOL0     H25497   5.846  11.547   1.356 -0.5818  0.2082  0.1000
  185MOL0     H25498   5.767  11.673   1.069 -1.7573  0.2977 -1.0676
  185MOL0     H25499   5.696  11.720   1.221 -1.0924 -0.8839 -1.5246
  185MOL0     H25500   5.702  11.432   1.138 -0.2961 -0.2992 -0.7850
  185MOL0     H25501   5.594  11.539   1.067  2.0418 -1.1251 -2.1039
  185MOL0     H25502   5.595  11.475   1.362  0.9014  0.2981 -1.0746
  185MOL0     H25503   5.484  11.595   1.296  0.0206 -0.2255 -0.4261
  185MOL0     H25504   5.504  11.328   1.179  0.4943  1.5407  0.0631
  185MOL0     H25505   5.369  11.437   1.148  0.1100  1.2295  0.4427
  185MOL0     H25506   5.276  11.374   1.364  1.2074  2.9417 -0.8302
  185MOL0     H25507   5.429  11.351   1.444 -0.2059  1.2978 -0.0245
  185MOL0     H25508   5.453  11.130   1.321 -0.1536  0.3536 -4.5546
  185MOL0     H25509   5.323  11.172   1.215 -3.6032 -3.2918  1.3991
  185MOL0     H25510   6.117  11.844   1.484  0.0526 -0.8072 -1.0791
  185MOL0     H25511   6.172  11.828   1.724 -0.8964  0.4440 -0.7629
  185MOL0     H25512   6.384  11.386   2.068  2.2345 -1.8510  3.7622
  185MOL0     H25513   6.409  11.383   2.305  0.0686  0.6662 -0.4368
  185MOL0     H25514   7.075  10.475   2.199 -1.1866  0.6504  0.8454
  185MOL0     H25515   7.301  10.381   2.246  1.3877  0.1289 -1.1758
  185MOL0     H25516   7.542   9.910   2.175  1.9134  0.2703 -5.7073
  185MOL0     H25517   7.754   9.780   2.207  1.1438  0.4338 -2.6605
  185MOL0     H25518   7.912   9.743   2.369 -0.7847 -0.8558 -0.3874
  185MOL0     H25519   7.993   9.736   2.202 -1.7436  1.7966  0.0526
  185MOL0     H25520   8.123   9.777   2.481 -0.7303  1.8722 -0.4966
  185MOL0     H25521   8.206   9.781   2.319  0.2072  0.1848  0.1920
  185MOL0     H25522   8.037   9.537   2.397  0.2401 -0.8272  0.0674
  185MOL0     H25523   8.152   9.557   2.271 -1.1906  1.4415 -0.1262
  185MOL0     H25524   8.339   9.583   2.415  0.3304  1.3046  1.5669
  185MOL0     H25525   8.253   9.428   2.445  3.1082 -0.0981  1.3663
  185MOL0     H25526   8.166   9.593   2.822  2.2135  0.4588  0.2304
  185MOL0     H25527   7.938  10.139   2.347  0.5929 -3.9440  2.5120
  185MOL0     H25528   7.797  10.354   2.284  0.8161 -3.4168 -2.4953
  185MOL0     H25529   7.631  10.359   2.339  1.9547  2.9104  3.1163
  185MOL0     H25530   7.755  10.302   2.448 -0.9459  0.9738  0.4261
  186MOL0     O25531   9.795   4.334   5.458  0.1633 -0.1952 -0.2287
  186MOL0     C25532   9.868   4.364   5.557 -0.3042 -0.3815  0.6141
  186MOL0     O25533   9.925   4.275   5.643  0.3050 -0.0893 -0.1278
  186MOL0     C25534   9.896   4.139   5.639  0.5266 -0.0157 -0.3661
  186MOL0     C25535   9.828   4.090   5.756 -0.2712  0.7479 -0.2742
  186MOL0     C25536   9.781   3.961   5.747  0.9219  0.4363 -0.1393
  186MOL0     C25537   9.802   3.882   5.632 -1.0703 -0.0459 -0.1982
  186MOL0     O25538   9.744   3.763   5.620  0.9706 -0.5189  0.8438
  186MOL0     C25539   9.607   3.771   5.642 -0.7190  0.6740  1.4198
  186MOL0     C25540   9.537   3.642   5.606 -0.1436 -0.9565 -0.9010
  186MOL0     C25541   9.586   3.567   5.479  0.0660 -0.6037 -0.0729
  186MOL0     C25542   9.556   3.651   5.345 -0.0107  0.5373  0.0070
  186MOL0     C25543   9.587   3.565   5.216 -0.7371  0.1963  0.1658
  186MOL0     C25544   9.737   3.571   5.181 -0.0601 -0.2806 -0.2113
  186MOL0     C25545   9.767   3.494   5.056 -1.0800  1.2071  0.1967
  186MOL0     C25546   9.675   3.527   4.945  0.1076 -0.8352 -0.5624
  186MOL0     N25547   9.728   3.458   4.827  0.0259 -0.0762  0.4317
  186MOL0     C25548   9.770   3.330   4.817  0.1390  0.6002  0.8048
  186MOL0     C25549   9.817   3.316   4.687  0.0613  0.5616  0.3158
  186MOL0     C25550   9.872   3.187   4.619  0.0139 -0.6686  0.3354
  186MOL0     C25551   9.819   3.126   4.496  1.3917  0.2797 -0.7000
  186MOL0     C25552   9.691   3.048   4.533 -1.0787 -1.1945  0.8513
  186MOL0     C25553   9.637   2.975   4.404 -0.6902  0.2771 -0.4895
  186MOL0     O25554   9.590   3.071   4.313 -0.3308 -1.3925 -0.3308
  186MOL0     C25555   9.510   3.003   4.216 -0.0722 -0.7707  0.6331
  186MOL0     C25556   9.572   2.937   4.111  0.2762 -0.3486  0.5368
  186MOL0     C25557   9.495   2.861   4.019  0.6877  1.0367 -0.2889
  186MOL0     C25558   9.558   2.784   3.911 -0.4603 -0.8213  0.7763
  186MOL0     C25559   9.349   2.859   4.039  0.2629  0.1528 -0.0317
  186MOL0     C25560   9.258   2.803   3.930 -0.4496  0.4666 -0.6041
  186MOL0     O25561   9.122   2.825   3.949 -0.1475 -0.1577 -0.2790
  186MOL0     C25562   9.021   2.763   3.886 -0.9846 -0.4522  0.1758
  186MOL0     C25563   8.895   2.826   3.887  0.3677  0.1943  1.2035
  186MOL0     C25564   8.778   2.762   3.842 -0.0627  1.1098  0.4608
  186MOL0     C25565   8.796   2.646   3.765  0.6584  0.1669  0.5423
  186MOL0     O25566   8.691   2.582   3.688 -0.3844 -0.2175 -1.0154
  186MOL0     C25567   8.582   2.657   3.659 -0.1449  0.0918 -0.5182
  186MOL0     C25568   8.496   2.589   3.555  0.2732 -0.1333 -0.0766
  186MOL0     C25569   8.460   2.441   3.589  1.3938 -0.6845  0.7077
  186MOL0     C25570   8.355   2.383   3.494  0.5999  0.2928 -0.6838
  186MOL0     C25571   8.330   2.238   3.544  0.4304  0.5288 -0.0934
  186MOL0     C25572   8.244   2.154   3.443  0.3175  0.3953  0.3252
  186MOL0     C25573   8.241   2.007   3.472 -1.3621  0.3316 -0.1830
  186MOL0     C25574   8.130   1.927   3.404 -0.6502  0.4401 -0.4549
  186MOL0    Cl25575   8.107   1.758   3.474  0.3678 -0.3846  0.4327
  186MOL0     C25576   8.918   2.583   3.753  0.0617  0.0851  0.2504
  186MOL0     C25577   9.036   2.645   3.804  0.2687  0.0542  0.0834
  186MOL0     O25578   9.309   2.753   3.831  0.1194 -0.8385  0.2425
  186MOL0     C25579   9.291   2.928   4.150  0.2714  1.0446  0.1845
  186MOL0     C25580   9.372   3.001   4.235  0.4763 -0.1578 -0.4224
  186MOL0     N25581   9.792   3.428   4.615  0.2385 -0.1562 -0.4992
  186MOL0     N25582   9.734   3.513   4.702  0.3168  0.5827  0.6031
  186MOL0     C25583   9.884   3.925   5.534 -0.6702 -0.3154 -0.0234
  186MOL0     C25584   9.922   4.058   5.535 -0.5439 -0.6386  0.3323
  186MOL0     C25585   9.904   4.504   5.570 -0.3185 -0.7944  0.4638
  186MOL0     C25586  10.036   4.532   5.558 -0.4693  0.0661 -0.0351
  186MOL0     C25587  10.077   4.673   5.563 -0.3124  1.3471 -0.8383
  186MOL0     C25588   9.978   4.776   5.581 -0.9354  0.2774 -0.3261
  186MOL0     O25589  10.010   4.908   5.591  0.3700  0.0666  0.1895
  186MOL0     C25590  10.143   4.947   5.639  0.7824  0.8513  0.1812
  186MOL0     C25591  10.146   5.097   5.663 -0.2668 -0.0889 -0.2217
  186MOL0     C25592  10.292   5.134   5.659  0.3905  1.6218 -0.4522
  186MOL0     C25593  10.321   5.278   5.699 -0.5351  0.6642 -0.3814
  186MOL0     C25594  10.468   5.315   5.707  0.2212  0.1688 -0.3535
  186MOL0     C25595  10.580   5.352   5.704  0.4356 -0.4283  0.3860
  186MOL0     C25596   9.841   4.737   5.579 -0.1200  0.3849  1.6124
  186MOL0     C25597   9.803   4.604   5.587 -0.7635 -0.6588  0.1027
  186MOL0     C25598   9.651   4.571   5.612 -0.2748  0.1578 -0.5308
  186MOL0     H25599   9.841   4.143   5.850  0.5363 -1.7293  1.0984
  186MOL0     H25600   9.733   3.930   5.839  2.6012  1.6155  1.1949
  186MOL0     H25601   9.555   3.849   5.587 -0.5265  0.6543  1.2068
  186MOL0     H25602   9.586   3.781   5.749 -1.1958  0.3023  1.3682
  186MOL0     H25603   9.558   3.579   5.693 -1.8927  1.2482  1.2654
  186MOL0     H25604   9.428   3.650   5.613  0.1146  1.3377  2.3757
  186MOL0     H25605   9.691   3.539   5.486  0.4636  1.2634  2.3343
  186MOL0     H25606   9.531   3.472   5.475  0.2375 -0.7018 -0.0990
  186MOL0     H25607   9.449   3.668   5.361  0.2575 -0.7843  4.3269
  186MOL0     H25608   9.612   3.744   5.338 -0.0619  0.4967 -1.1275
  186MOL0     H25609   9.520   3.599   5.137  0.3215 -1.2208 -1.3985
  186MOL0     H25610   9.575   3.459   5.241  1.4694 -0.7972 -2.5074
  186MOL0     H25611   9.770   3.672   5.157  1.8106 -0.5785  0.9862
  186MOL0     H25612   9.787   3.530   5.269 -0.5248  0.3922  0.3758
  186MOL0     H25613   9.760   3.386   5.074  0.5859  0.6927 -1.7221
  186MOL0     H25614   9.869   3.508   5.018 -0.8894 -1.7256 -0.6500
  186MOL0     H25615   9.581   3.472   4.956  0.8885 -1.9546  0.9329
  186MOL0     H25616   9.681   3.636   4.942  1.0980 -0.6862  2.7197
  186MOL0     H25617   9.765   3.242   4.881  0.6191 -1.2133 -1.4979
  186MOL0     H25618   9.892   3.105   4.689  0.0560 -0.6392  0.3582
  186MOL0     H25619   9.972   3.215   4.586 -0.9712  0.4139 -1.9043
  186MOL0     H25620   9.803   3.200   4.417 -0.2304 -0.0161 -0.6787
  186MOL0     H25621   9.887   3.046   4.466  0.6200  0.4564 -3.1137
  186MOL0     H25622   9.714   2.975   4.611  0.2791 -1.4228  0.2556
  186MOL0     H25623   9.614   3.109   4.581  1.2976  1.7608  1.2213
  186MOL0     H25624   9.722   2.923   4.360  0.7615  1.3089  0.9611
  186MOL0     H25625   9.563   2.904   4.441  0.1456 -0.4483 -0.1605
  186MOL0     H25626   9.680   2.936   4.099  0.2126  0.8651 -0.2840
  186MOL0     H25627   9.537   2.832   3.815  1.3934 -0.7947  0.3360
  186MOL0     H25628   9.527   2.679   3.911  0.3660 -1.1186  2.9322
  186MOL0     H25629   9.666   2.784   3.928 -0.7557  0.1164  3.0311
  186MOL0     H25630   8.898   2.913   3.952 -1.1990  0.9538  0.3109
  186MOL0     H25631   8.685   2.817   3.827 -1.0943 -0.4891  0.7428
  186MOL0     H25632   8.517   2.659   3.748 -1.6516 -2.1709 -1.4728
  186MOL0     H25633   8.607   2.761   3.635  0.0230  0.0508 -0.5194
  186MOL0     H25634   8.416   2.662   3.540  2.4638  2.1845 -1.3389
  186MOL0     H25635   8.549   2.595   3.459 -1.0054  2.6303 -0.6937
  186MOL0     H25636   8.417   2.433   3.689  0.4698  1.2038  0.4936
  186MOL0     H25637   8.552   2.386   3.566 -0.4004 -3.1308 -1.1243
  186MOL0     H25638   8.386   2.392   3.389  1.8826  1.1677 -0.2529
  186MOL0     H25639   8.260   2.435   3.508  0.7341  0.4922 -0.5131
  186MOL0     H25640   8.426   2.187   3.564  1.1172  1.9568  0.3661
  186MOL0     H25641   8.271   2.218   3.634 -1.9375 -1.3193 -1.9302
  186MOL0     H25642   8.295   2.164   3.346 -1.4791 -0.7102 -0.7846
  186MOL0     H25643   8.144   2.194   3.425 -0.3714 -2.4214 -3.2724
  186MOL0     H25644   8.237   1.988   3.580 -1.1735 -0.6476 -0.3368
  186MOL0     H25645   8.337   1.973   3.431 -1.1356  3.9922 -3.1998
  186MOL0     H25646   8.151   1.922   3.297  0.3040 -5.5934 -0.3278
  186MOL0     H25647   8.039   1.989   3.411  0.8359  3.1651 -2.8293
  186MOL0     H25648   8.920   2.490   3.696 -1.1560  0.5745 -0.6365
  186MOL0     H25649   9.133   2.596   3.798  0.5906  0.4575  1.5914
  186MOL0     H25650   9.183   2.927   4.160  0.2612  1.7694  0.2216
  186MOL0     H25651   9.327   3.061   4.314  3.4835  3.4150 -1.1014
  186MOL0     H25652   9.901   3.866   5.444 -2.6358 -0.4392 -0.3696
  186MOL0     H25653   9.957   4.106   5.445 -2.9516 -0.4902 -0.5926
  186MOL0     H25654  10.113   4.456   5.554  0.1153  0.4952  1.9631
  186MOL0     H25655  10.182   4.702   5.555  0.7355 -0.8223  2.6217
  186MOL0     H25656  10.166   4.887   5.728  0.0457  1.2039  0.6093
  186MOL0     H25657  10.213   4.927   5.558 -1.7555 -0.1022 -1.9068
  186MOL0     H25658  10.101   5.114   5.761  0.2461 -0.8155  0.1482
  186MOL0     H25659  10.098   5.152   5.581  4.3387 -0.2981 -3.4711
  186MOL0     H25660  10.339   5.076   5.739 -0.7127  0.7615 -0.4072
  186MOL0     H25661  10.328   5.117   5.557 -1.3459  1.1207 -1.0054
  186MOL0     H25662  10.286   5.305   5.799  0.5886  1.5519 -0.2039
  186MOL0     H25663  10.275   5.344   5.625  2.0044  0.7401 -2.0325
  186MOL0     H25664  10.678   5.394   5.697  0.5607 -0.7319  0.2990
  186MOL0     H25665   9.774   4.820   5.594  0.3225  0.6705  2.0666
  186MOL0     H25666   9.636   4.484   5.677  1.5958 -1.8669 -2.6342
  186MOL0     H25667   9.597   4.644   5.674 -2.4704 -2.8761  1.3979
  186MOL0     H25668   9.607   4.546   5.515 -0.1357 -1.3715 -0.2148
  187MOL0     O25669  11.059   3.779   9.032  0.3145 -0.6865 -0.8874
  187MOL0     C25670  11.070   3.688   8.957  1.1716  0.5865  0.3926
  187MOL0     O25671  10.996   3.674   8.843  0.4846  0.0689 -0.2144
  187MOL0     C25672  10.875   3.747   8.833 -0.1190 -0.0211 -0.4399
  187MOL0     C25673  10.886   3.871   8.755  0.2436 -0.4724  0.0002
  187MOL0     C25674  10.762   3.937   8.720  0.4241 -0.7266  1.0828
  187MOL0     C25675  10.635   3.891   8.764  0.1663 -0.2178  0.8309
  187MOL0     O25676  10.514   3.955   8.745 -0.2308 -0.0120  0.4825
  187MOL0     C25677  10.501   4.081   8.666  0.2545 -0.6474 -0.0583
  187MOL0     C25678  10.357   4.088   8.602 -0.0255 -0.6370  0.6594
  187MOL0     C25679  10.317   4.208   8.500  0.2295 -0.5287  0.1499
  187MOL0     C25680  10.304   4.355   8.551 -1.0157 -0.1866 -0.6860
  187MOL0     C25681  10.417   4.412   8.635 -0.8780 -0.2406  0.6030
  187MOL0     C25682  10.374   4.552   8.685  0.3070  0.5186  0.0399
  187MOL0     C25683  10.489   4.577   8.780  0.5790  0.0475  0.9204
  187MOL0     C25684  10.470   4.719   8.839 -0.5767  0.3244  0.7742
  187MOL0     N25685  10.561   4.747   8.950  0.3522 -0.4858  0.0831
  187MOL0     C25686  10.622   4.661   9.043  0.4135 -0.2323 -0.4266
  187MOL0     C25687  10.710   4.740   9.118  0.4038  0.4744 -0.0334
  187MOL0     C25688  10.799   4.679   9.221  0.9221  0.1072 -0.1924
  187MOL0     C25689  10.936   4.752   9.228  0.2014 -0.1822 -1.0520
  187MOL0     C25690  10.939   4.908   9.263  0.6428 -0.7435  0.5068
  187MOL0     C25691  11.067   4.973   9.317  0.0835 -0.3045 -0.9888
  187MOL0     O25692  11.177   4.964   9.236 -0.4526  0.1212  0.6542
  187MOL0     C25693  11.276   4.866   9.248  0.5549  0.1493  0.6984
  187MOL0     C25694  11.393   4.884   9.170 -0.6750 -0.0976 -0.3982
  187MOL0     C25695  11.503   4.794   9.164 -0.5027 -0.5129 -0.3506
  187MOL0     C25696  11.619   4.818   9.078 -0.7046 -0.5639  0.1882
  187MOL0     C25697  11.486   4.675   9.235 -0.0580  0.0948 -0.4434
  187MOL0     C25698  11.592   4.565   9.242 -0.2564 -0.7000 -0.9282
  187MOL0     O25699  11.532   4.442   9.250  0.4250  0.0046  0.1794
  187MOL0     C25700  11.597   4.342   9.190 -0.4902 -0.2872  0.0986
  187MOL0     C25701  11.696   4.260   9.260 -0.0027  0.6128 -0.1124
  187MOL0     C25702  11.773   4.169   9.186 -0.3888  0.3080  0.2131
  187MOL0     C25703  11.753   4.156   9.050  0.2475 -0.5932  0.3561
  187MOL0     O25704  11.842   4.087   8.965  0.7797  0.6084 -0.8141
  187MOL0     C25705  11.872   3.951   9.001  0.5309 -0.3821  0.0952
  187MOL0     C25706  11.992   3.914   8.923  0.0760 -0.2930 -0.4852
  187MOL0     C25707  12.039   3.772   8.955  0.0213 -0.4174  0.1273
  187MOL0     C25708  12.179   3.754   8.888  0.1643  0.4250  0.5390
  187MOL0     C25709  12.245   3.622   8.933  0.1404  0.2039 -0.5192
  187MOL0     C25710  12.378   3.603   8.853  0.5162 -0.2971 -0.7933
  187MOL0     C25711  12.452   3.468   8.863  1.1322  1.2675 -0.0963
  187MOL0     C25712  12.554   3.426   8.763  0.8015 -0.4251  0.5229
  187MOL0    Cl25713  12.681   3.559   8.755  0.3618  0.4014 -0.4044
  187MOL0     C25714  11.649   4.225   8.985  0.8039 -0.3776 -0.0542
  187MOL0     C25715  11.574   4.314   9.059 -0.9516 -0.4751  0.4182
  187MOL0     O25716  11.714   4.587   9.243 -0.1099  0.1302  0.0332
  187MOL0     C25717  11.370   4.651   9.311  0.6537 -0.5761 -0.4158
  187MOL0     C25718  11.273   4.749   9.321 -0.3854  1.5227 -0.3682
  187MOL0     N25719  10.701   4.861   9.065 -0.1938  0.3559  0.1725
  187MOL0     N25720  10.623   4.868   8.962 -0.7580 -0.5579 -0.1550
  187MOL0     C25721  10.630   3.769   8.848  0.4974 -0.4589  1.3624
  187MOL0     C25722  10.754   3.710   8.886 -0.6068  0.1180  0.0460
  187MOL0     C25723  11.177   3.589   8.993  0.9799  0.5971 -0.7600
  187MOL0     C25724  11.200   3.565   9.134 -0.3472  0.2141  0.8048
  187MOL0     C25725  11.279   3.459   9.177  0.2750  0.5402 -0.4704
  187MOL0     C25726  11.350   3.388   9.083  0.3140 -0.2554 -0.4989
  187MOL0     O25727  11.439   3.272   9.109  0.2017 -0.0150  1.1142
  187MOL0     C25728  11.473   3.225   9.234  0.3522 -0.0747 -0.1129
  187MOL0     C25729  11.566   3.323   9.292 -0.7216 -0.1758  0.9421
  187MOL0     C25730  11.702   3.302   9.221 -0.0018  0.3226 -0.4154
  187MOL0     C25731  11.792   3.408   9.271 -0.5125 -0.3621 -0.6413
  187MOL0     C25732  11.928   3.412   9.205  0.0257 -0.2212  0.6351
  187MOL0     C25733  12.032   3.412   9.140  0.1243 -0.4307 -1.1533
  187MOL0     C25734  11.324   3.412   8.949 -0.3707 -0.4782  0.7497
  187MOL0     C25735  11.240   3.507   8.899 -0.7651  0.1307 -0.6781
  187MOL0     C25736  11.211   3.523   8.755  0.3756 -0.2849  0.6250
  187MOL0     H25737  10.974   3.896   8.697 -1.0776  0.7446 -1.5854
  187MOL0     H25738  10.773   4.022   8.653  0.5236 -1.6709 -0.1465
  187MOL0     H25739  10.592   4.093   8.605 -0.1068  0.4654 -0.4165
  187MOL0     H25740  10.503   4.162   8.740 -2.3008 -0.2631 -0.3159
  187MOL0     H25741  10.332   3.997   8.545 -1.6223  0.1033  0.1253
  187MOL0     H25742  10.284   4.090   8.683 -0.3678 -2.4673  0.4473
  187MOL0     H25743  10.385   4.205   8.414 -1.6484  1.8412 -1.5822
  187MOL0     H25744  10.220   4.171   8.467 -0.6328 -0.7098  2.7197
  187MOL0     H25745  10.316   4.421   8.465  0.3456 -0.9128 -1.0984
  187MOL0     H25746  10.209   4.364   8.604  0.3513 -1.6403  2.2316
  187MOL0     H25747  10.510   4.411   8.579 -0.8927 -2.8335  0.5089
  187MOL0     H25748  10.434   4.350   8.723  3.2042 -0.2083  0.0241
  187MOL0     H25749  10.381   4.630   8.608  0.5539  1.6449  1.1619
  187MOL0     H25750  10.277   4.547   8.736  1.1488 -2.1208  1.5457
  187MOL0     H25751  10.575   4.583   8.713  0.3702  2.6217  0.7767
  187MOL0     H25752  10.486   4.507   8.864 -1.3582 -1.3022 -0.1828
  187MOL0     H25753  10.485   4.795   8.762  0.3268  0.6999  1.2927
  187MOL0     H25754  10.366   4.732   8.870 -1.8319 -0.0519 -2.8563
  187MOL0     H25755  10.625   4.553   9.050  3.0151 -0.3892 -2.4801
  187MOL0     H25756  10.818   4.572   9.205 -1.7187 -0.1318 -2.5695
  187MOL0     H25757  10.749   4.683   9.318 -3.7120 -2.6007 -2.1003
  187MOL0     H25758  10.982   4.691   9.307 -0.9627  1.2945  0.8628
  187MOL0     H25759  10.994   4.733   9.138  2.5607 -0.8457  0.5087
  187MOL0     H25760  10.912   4.964   9.174  2.5826 -0.6309 -0.0635
  187MOL0     H25761  10.868   4.926   9.344 -1.2800 -0.5922 -1.1469
  187MOL0     H25762  11.049   5.080   9.335 -0.9959  0.2392 -4.5196
  187MOL0     H25763  11.087   4.932   9.417 -2.6890 -1.3510 -0.7748
  187MOL0     H25764  11.396   4.963   9.096 -1.9541  1.3675  1.0633
  187MOL0     H25765  11.648   4.727   9.025  1.4209 -0.7777  1.5543
  187MOL0     H25766  11.701   4.849   9.143 -0.4856 -0.6253 -0.0584
  187MOL0     H25767  11.610   4.902   9.009  4.1133 -0.2995 -0.4654
  187MOL0     H25768  11.707   4.271   9.367  4.9958  0.0062 -0.3261
  187MOL0     H25769  11.859   4.124   9.235 -0.0351  1.0341  0.2838
  187MOL0     H25770  11.902   3.941   9.106  1.5149  1.5017  0.0458
  187MOL0     H25771  11.779   3.896   8.987 -2.1534  3.4925  0.8472
  187MOL0     H25772  11.986   3.912   8.814  2.1273 -4.9308 -0.7586
  187MOL0     H25773  12.080   3.975   8.948  1.3781 -2.4123  0.3690
  187MOL0     H25774  11.971   3.693   8.923 -1.1790  0.2066  1.0478
  187MOL0     H25775  12.052   3.762   9.064  3.6511  0.8245 -0.0569
  187MOL0     H25776  12.251   3.831   8.918 -1.7975  1.2933  3.4333
  187MOL0     H25777  12.170   3.767   8.779  1.7316  1.1519  0.4574
  187MOL0     H25778  12.268   3.626   9.040  1.4499  1.5742 -0.8180
  187MOL0     H25779  12.179   3.537   8.917  0.5840 -0.2956  0.2382
  187MOL0     H25780  12.450   3.679   8.883 -2.8135  3.2040 -0.9068
  187MOL0     H25781  12.353   3.620   8.748 -0.6240  0.3560 -0.4370
  187MOL0     H25782  12.383   3.383   8.869  1.9794  0.5706  0.0462
  187MOL0     H25783  12.493   3.471   8.964  0.7407  1.5978  0.0576
  187MOL0     H25784  12.508   3.402   8.667 -0.3588  1.6963  0.4770
  187MOL0     H25785  12.591   3.326   8.788 -1.1350 -1.7659 -1.5548
  187MOL0     H25786  11.639   4.203   8.880 -0.8348  1.7648 -0.4229
  187MOL0     H25787  11.503   4.376   9.005  0.1574  1.5868  1.2156
  187MOL0     H25788  11.335   4.554   9.345 -1.3536  0.3343  0.2521
  187MOL0     H25789  11.192   4.713   9.385  0.7890 -1.2831 -0.2852
  187MOL0     H25790  10.540   3.731   8.896  0.1384 -0.9055  0.3545
  187MOL0     H25791  10.754   3.622   8.949  0.6381  0.2766  0.3029
  187MOL0     H25792  11.157   3.630   9.209  1.2189  3.5909 -0.9537
  187MOL0     H25793  11.299   3.444   9.283 -0.2393 -3.9075 -0.8072
  187MOL0     H25794  11.391   3.224   9.307 -1.3577 -2.4351 -1.8718
  187MOL0     H25795  11.522   3.128   9.243 -0.8353 -0.4945  4.0347
  187MOL0     H25796  11.577   3.300   9.399  0.2460  1.2828  1.1934
  187MOL0     H25797  11.526   3.424   9.281 -1.9707 -0.6150  1.3037
  187MOL0     H25798  11.747   3.205   9.244  2.5536  1.9105  2.0648
  187MOL0     H25799  11.698   3.294   9.112 -2.2202 -2.7323 -0.2470
  187MOL0     H25800  11.817   3.397   9.377  2.0604  0.0944 -1.1570
  187MOL0     H25801  11.742   3.502   9.249  1.0963 -0.0104 -3.0779
  187MOL0     H25802  12.130   3.415   9.097  1.1976 -0.6132  1.1589
  187MOL0     H25803  11.386   3.359   8.878  1.0030 -0.1669  1.6836
  187MOL0     H25804  11.199   3.631   8.738 -1.1959 -0.2589  1.6654
  187MOL0     H25805  11.288   3.469   8.699 -1.1264 -0.3836 -1.4618
  187MOL0     H25806  11.110   3.481   8.748  0.9010 -1.9735  2.4730
  188MOL0     O25807   5.197   0.106  10.377  0.3234  1.1160  0.0471
  188MOL0     C25808   5.144   0.123  10.266  0.1077  0.6208  0.4087
  188MOL0     O25809   5.046   0.211  10.234  0.1646 -1.3141  0.4826
  188MOL0     C25810   4.974   0.275  10.329  0.4674 -1.6454 -0.1540
  188MOL0     C25811   5.021   0.338  10.448 -0.0574  0.4045  0.1087
  188MOL0     C25812   4.940   0.420  10.530 -0.0977 -0.1161 -0.3647
  188MOL0     C25813   4.801   0.445  10.496 -0.9949  0.2782  0.8874
  188MOL0     O25814   4.717   0.542  10.559  0.0687  0.1161 -0.0793
  188MOL0     C25815   4.781   0.665  10.615 -0.6204  0.3902 -0.4885
  188MOL0     C25816   4.818   0.763  10.499  0.0326 -1.5891  0.2664
  188MOL0     C25817   4.682   0.822  10.450  0.5814  0.2863 -1.0031
  188MOL0     C25818   4.624   0.763  10.322  0.7226 -0.2265 -0.1072
  188MOL0     C25819   4.475   0.798  10.290 -0.5761  0.6507 -0.3417
  188MOL0     C25820   4.374   0.773  10.397  0.0017  0.1884  1.1827
  188MOL0     C25821   4.226   0.787  10.349 -0.9386  0.6511  0.1962
  188MOL0     C25822   4.129   0.783  10.474 -0.2118 -0.3795  0.2979
  188MOL0     N25823   3.984   0.813  10.458 -0.9928  0.2762  0.6268
  188MOL0     C25824   3.905   0.744  10.375  0.5526  0.9000 -0.2285
  188MOL0     C25825   3.784   0.788  10.412 -0.3355 -1.1846  0.9868
  188MOL0     C25826   3.671   0.790  10.320  0.0505 -0.7446  1.4108
  188MOL0     C25827   3.621   0.650  10.264  0.9256 -0.7792  0.1066
  188MOL0     C25828   3.483   0.643  10.239  0.1589  0.0967 -0.3455
  188MOL0     C25829   3.440   0.493  10.229  0.0444 -0.6814  0.1943
  188MOL0     O25830   3.300   0.496  10.207 -0.7467 -0.7469  0.1034
  188MOL0     C25831   3.211   0.393  10.237  1.4185  0.7755  0.8991
  188MOL0     C25832   3.079   0.420  10.209 -0.3796  0.1336 -0.1428
  188MOL0     C25833   2.974   0.328  10.241 -0.3042 -0.4847  0.0532
  188MOL0     C25834   2.843   0.369  10.206  0.5656  0.2265 -0.0950
  188MOL0     C25835   2.997   0.208  10.314  0.1554 -0.4230  0.5505
  188MOL0     C25836   2.882   0.117  10.371 -0.4398  0.2095  0.1382
  188MOL0     O25837   2.910   0.049  10.486 -0.0837 -0.0041 -1.2041
  188MOL0     C25838   2.873  -0.086  10.493  0.0963  0.0438 -0.1441
  188MOL0     C25839   2.969  -0.183  10.530  0.1475  0.0170 -0.1806
  188MOL0     C25840   2.930  -0.311  10.566 -1.1848  0.7256  0.0977
  188MOL0     C25841   2.800  -0.355  10.549 -0.0893 -0.5237 -0.2739
  188MOL0     O25842   2.766  -0.481  10.582  0.1056 -0.5751  1.1159
  188MOL0     C25843   2.617  -0.505  10.592 -0.3293  0.3440 -0.4820
  188MOL0     C25844   2.555  -0.437  10.721  0.1441  0.3024 -0.3223
  188MOL0     C25845   2.401  -0.414  10.698 -0.1258  0.0973 -0.1738
  188MOL0     C25846   2.323  -0.540  10.667 -0.2384 -0.1360 -0.2477
  188MOL0     C25847   2.176  -0.488  10.664 -0.2094 -0.7920 -0.7636
  188MOL0     C25848   2.075  -0.607  10.648 -0.6931  0.0075  0.3186
  188MOL0     C25849   1.925  -0.581  10.673 -0.3465  0.2252 -0.4374
  188MOL0     C25850   1.853  -0.696  10.598 -0.2590 -0.3124  0.0833
  188MOL0    Cl25851   1.825  -0.656  10.425  0.0692 -0.0454  0.0060
  188MOL0     C25852   2.704  -0.244  10.518 -0.5689  0.9146 -1.0433
  188MOL0     C25853   2.742  -0.118  10.494  0.1939 -0.2038  0.2844
  188MOL0     O25854   2.783   0.104  10.305  0.1152  0.7898 -0.2544
  188MOL0     C25855   3.133   0.182  10.352  0.0567 -0.9410  0.0846
  188MOL0     C25856   3.232   0.287  10.321 -0.9794  0.2806  0.5567
  188MOL0     N25857   3.793   0.872  10.518  0.3632  0.1931 -0.4243
  188MOL0     N25858   3.909   0.891  10.546 -0.5720  0.9840 -0.0572
  188MOL0     C25859   4.760   0.381  10.380 -0.9354  0.3425 -0.5331
  188MOL0     C25860   4.834   0.293  10.302  0.3036 -0.0254 -0.4738
  188MOL0     C25861   5.201   0.054  10.144  0.3622 -0.0880 -0.0321
  188MOL0     C25862   5.141   0.085  10.018  0.4007  0.5374  0.8832
  188MOL0     C25863   5.174   0.005   9.904 -0.2666 -0.5175 -0.3370
  188MOL0     C25864   5.274  -0.087   9.909  0.0523 -0.2605 -0.0174
  188MOL0     O25865   5.324  -0.146   9.796 -0.0984  0.1175 -0.8142
  188MOL0     C25866   5.268  -0.110   9.668 -0.5674  0.3431  0.2591
  188MOL0     C25867   5.330   0.027   9.631  0.4315  0.3782  0.1818
  188MOL0     C25868   5.296   0.069   9.488  0.9888  0.2261  0.3622
  188MOL0     C25869   5.159   0.120   9.466 -0.9643  0.1802 -0.3052
  188MOL0     C25870   5.137   0.268   9.503 -1.1299 -0.0200 -0.0102
  188MOL0     C25871   5.113   0.386   9.523 -0.5268 -0.3154 -1.5461
  188MOL0     C25872   5.339  -0.114  10.027  0.3034 -0.0529 -0.4265
  188MOL0     C25873   5.306  -0.039  10.146 -0.0572  0.2338 -0.3264
  188MOL0     C25874   5.378  -0.082  10.271 -0.1962 -0.6804  0.4471
  188MOL0     H25875   5.126   0.318  10.470  0.3301 -1.2551 -2.6421
  188MOL0     H25876   5.002   0.453  10.613  0.7169 -0.2705 -0.9060
  188MOL0     H25877   4.874   0.641  10.668 -2.4348 -1.3911  2.1683
  188MOL0     H25878   4.705   0.713  10.678 -0.5397  1.1690 -0.9689
  188MOL0     H25879   4.889   0.840  10.529  1.0699 -0.7078 -3.7763
  188MOL0     H25880   4.880   0.720  10.419  1.1263  0.3407  0.0277
  188MOL0     H25881   4.610   0.810  10.531  2.5547  0.3216  0.8325
  188MOL0     H25882   4.692   0.929  10.428  3.6372  0.7006  1.7494
  188MOL0     H25883   4.696   0.784  10.242  0.0436  0.5481 -0.5226
  188MOL0     H25884   4.624   0.658  10.352  0.2957 -0.2068 -0.0306
  188MOL0     H25885   4.448   0.749  10.196  1.8536 -3.3388  0.8153
  188MOL0     H25886   4.461   0.906  10.280 -2.7562  0.4973  0.3788
  188MOL0     H25887   4.384   0.677  10.448  1.1121  0.3481  1.2937
  188MOL0     H25888   4.391   0.840  10.481  0.5148 -1.8108  2.7592
  188MOL0     H25889   4.212   0.705  10.278  1.2981 -1.3402  1.9011
  188MOL0     H25890   4.221   0.885  10.300 -0.7995  0.5046 -0.1170
  188MOL0     H25891   4.125   0.683  10.518  0.5121 -1.4967 -2.0244
  188MOL0     H25892   4.172   0.855  10.544 -1.4047  3.1328 -2.3119
  188MOL0     H25893   3.926   0.678  10.291 -0.1071  1.8916 -1.1874
  188MOL0     H25894   3.695   0.858  10.239 -3.1773 -0.8757  0.1918
  188MOL0     H25895   3.589   0.839  10.374  1.5369  0.9434  2.2306
  188MOL0     H25896   3.680   0.649  10.172 -0.1155  2.4292 -0.7467
  188MOL0     H25897   3.658   0.576  10.335  1.2872 -2.5000 -1.8031
  188MOL0     H25898   3.427   0.690  10.320 -1.6130 -2.6131  0.1172
  188MOL0     H25899   3.466   0.701  10.147  5.0090  1.9460 -0.3492
  188MOL0     H25900   3.497   0.450  10.146  0.8221  2.4622 -1.0285
  188MOL0     H25901   3.462   0.443  10.324  1.6923  0.6696  0.5743
  188MOL0     H25902   3.055   0.507  10.149  3.0063  1.3142  0.0205
  188MOL0     H25903   2.799   0.300  10.134  0.8446  0.9079 -0.9478
  188MOL0     H25904   2.852   0.471  10.167  0.3616  0.8659  1.4895
  188MOL0     H25905   2.781   0.379  10.295  4.1946  1.5979  2.5483
  188MOL0     H25906   3.075  -0.162  10.540  0.8413 -1.0727 -3.6946
  188MOL0     H25907   3.008  -0.385  10.578 -1.0643 -0.0468 -3.8818
  188MOL0     H25908   2.572  -0.467  10.499 -1.3016  3.3950  1.1097
  188MOL0     H25909   2.602  -0.613  10.594  2.1440 -0.0471 -0.1238
  188MOL0     H25910   2.560  -0.509  10.803  0.5249  2.8562  2.0647
  188MOL0     H25911   2.609  -0.345  10.747 -0.4569  1.2328 -2.2104
  188MOL0     H25912   2.384  -0.346  10.614  2.3872  0.6243 -0.3451
  188MOL0     H25913   2.359  -0.366  10.787  0.0485 -2.0021  1.1040
  188MOL0     H25914   2.360  -0.615  10.738 -0.2357 -0.1881 -0.3042
  188MOL0     H25915   2.341  -0.577  10.566 -0.6070  2.0109 -1.1523
  188MOL0     H25916   2.160  -0.442  10.762  2.9435 -0.3478 -0.3492
  188MOL0     H25917   2.167  -0.407  10.591  3.2521  1.6461  1.1774
  188MOL0     H25918   2.108  -0.687  10.714  0.2514  1.4803  1.6966
  188MOL0     H25919   2.098  -0.642  10.547  0.1090  0.3520  0.3729
  188MOL0     H25920   1.894  -0.479  10.648 -1.9165 -0.1399 -0.1319
  188MOL0     H25921   1.915  -0.590  10.782  0.2752  2.7970 -0.1232
  188MOL0     H25922   1.754  -0.719  10.638 -0.9565  1.3064 -0.6095
  188MOL0     H25923   1.908  -0.789  10.610 -2.3872 -1.8688 -1.5728
  188MOL0     H25924   2.596  -0.254  10.523 -0.6232  1.5883 -0.5769
  188MOL0     H25925   2.662  -0.053  10.458  1.0695 -0.9475 -3.5012
  188MOL0     H25926   3.163   0.103  10.421  2.6197 -1.0584 -1.0647
  188MOL0     H25927   3.329   0.284  10.370 -0.8130  1.4709  0.3424
  188MOL0     H25928   4.657   0.400  10.352 -1.0749 -0.2349 -0.4287
  188MOL0     H25929   4.781   0.240  10.224 -0.8956 -2.6810  1.9535
  188MOL0     H25930   5.062   0.158  10.003  0.5884  0.6091  0.2020
  188MOL0     H25931   5.129   0.032   9.809  1.2772 -0.2360 -1.0103
  188MOL0     H25932   5.302  -0.189   9.600  2.7983  1.8604 -0.0274
  188MOL0     H25933   5.159  -0.106   9.668 -0.5907  0.0522  1.7297
  188MOL0     H25934   5.438   0.013   9.631  0.4148 -0.0199 -1.9162
  188MOL0     H25935   5.296   0.108   9.697  1.9230  2.3501 -1.3598
  188MOL0     H25936   5.364   0.153   9.471 -0.1759  0.8234 -1.6225
  188MOL0     H25937   5.325  -0.017   9.428 -2.5555 -1.7545  1.1845
  188MOL0     H25938   5.088   0.070   9.532  1.0048 -1.5195  0.6525
  188MOL0     H25939   5.125   0.096   9.365 -0.5216 -3.0678  0.2280
  188MOL0     H25940   5.076   0.486   9.535  0.8875  0.0134  0.5971
  188MOL0     H25941   5.410  -0.192  10.050  0.5388  0.8723  2.4044
  188MOL0     H25942   5.423   0.009  10.313  0.8465 -0.0978 -1.7628
  188MOL0     H25943   5.305  -0.135  10.333 -1.7993 -1.0962 -1.7154
  188MOL0     H25944   5.456  -0.146  10.230 -1.2563  0.0382 -2.9642
  189MOL0     O25945   9.241  11.380   3.486  0.5853  0.0138 -0.0485
  189MOL0     C25946   9.129  11.329   3.470 -0.6205 -0.1013  0.2932
  189MOL0     O25947   9.103  11.217   3.407  0.1327  0.4527 -0.0405
  189MOL0     C25948   9.203  11.152   3.348  1.1931  0.6379  0.2097
  189MOL0     C25949   9.307  11.094   3.415 -0.5045 -0.2464  0.2028
  189MOL0     C25950   9.405  11.026   3.348 -0.6160  0.3364  0.9942
  189MOL0     C25951   9.390  11.006   3.211 -0.6982  0.2389  1.3881
  189MOL0     O25952   9.478  10.943   3.116  0.4641 -0.0207 -0.2046
  189MOL0     C25953   9.575  10.856   3.184  0.4634  0.3394 -0.0328
  189MOL0     C25954   9.591  10.731   3.097  0.2766 -0.0490 -0.4079
  189MOL0     C25955   9.639  10.751   2.950  0.0038 -0.4105  0.0423
  189MOL0     C25956   9.655  10.607   2.896  0.0292 -0.5994 -0.2191
  189MOL0     C25957   9.677  10.604   2.744  0.0046  0.7674 -0.4681
  189MOL0     C25958   9.720  10.468   2.692  0.2136 -0.3566 -0.7824
  189MOL0     C25959   9.756  10.482   2.550 -0.3773  0.3565  0.1617
  189MOL0     C25960   9.831  10.352   2.518  0.0248 -0.3557 -0.0885
  189MOL0     N25961   9.867  10.319   2.382 -0.4589  1.2215 -0.1749
  189MOL0     C25962   9.931  10.394   2.284  0.2127 -0.2051  0.3003
  189MOL0     C25963   9.947  10.296   2.186  0.0006  0.5998  0.0205
  189MOL0     C25964  10.003  10.327   2.052  0.3022 -0.4124  0.9729
  189MOL0     C25965   9.900  10.402   1.968  0.5886 -0.5440  0.1863
  189MOL0     C25966   9.960  10.464   1.843 -0.6973 -0.3539  1.0535
  189MOL0     C25967   9.867  10.511   1.747  0.2179  0.0658 -0.0282
  189MOL0     O25968   9.772  10.603   1.810 -0.3173  0.0103 -0.0167
  189MOL0     C25969   9.647  10.593   1.757  0.7018 -0.7107 -0.7774
  189MOL0     C25970   9.536  10.539   1.830  0.5852 -1.4075  0.4215
  189MOL0     C25971   9.406  10.542   1.788  0.2582 -0.6047 -0.3504
  189MOL0     C25972   9.300  10.479   1.869 -0.0215  0.5914 -0.1072
  189MOL0     C25973   9.382  10.589   1.654 -0.9652 -1.5130  0.4777
  189MOL0     C25974   9.249  10.627   1.603  0.1290 -0.4401  0.9051
  189MOL0     O25975   9.240  10.745   1.517 -0.3383 -0.2698  0.4345
  189MOL0     C25976   9.121  10.747   1.450 -0.3790  0.2244  0.0390
  189MOL0     C25977   9.010  10.820   1.502  0.3309  0.6711 -0.1600
  189MOL0     C25978   8.886  10.828   1.427  0.0884 -1.0077  0.3673
  189MOL0     C25979   8.882  10.770   1.294  0.2472  0.1949 -0.2787
  189MOL0     O25980   8.760  10.773   1.220 -0.5537 -0.8276  0.7062
  189MOL0     C25981   8.702  10.904   1.211  0.2321 -0.4227  0.6241
  189MOL0     C25982   8.603  10.925   1.095 -1.1640  0.3241  0.0088
  189MOL0     C25983   8.459  10.957   1.140 -0.4649  0.6611  0.1888
  189MOL0     C25984   8.346  10.934   1.040  0.4551  0.2174 -0.4066
  189MOL0     C25985   8.208  10.889   1.097 -0.5362  0.2249  0.4350
  189MOL0     C25986   8.153  11.008   1.186  1.0880 -0.4734  0.5205
  189MOL0     C25987   8.000  10.994   1.225  0.1896  0.2333  0.6536
  189MOL0     C25988   7.885  11.020   1.124 -0.5292  0.3554  0.3416
  189MOL0    Cl25989   7.881  10.877   1.025  0.2697  0.1613  0.1012
  189MOL0     C25990   8.994  10.705   1.245 -0.0682 -0.4993  0.5240
  189MOL0     C25991   9.115  10.702   1.316 -0.4114 -0.1893 -0.1812
  189MOL0     O25992   9.165  10.546   1.619 -0.1005 -0.0567 -0.1490
  189MOL0     C25993   9.489  10.622   1.581  1.0169  0.3697  0.7077
  189MOL0     C25994   9.622  10.629   1.627  0.5403  0.6196 -0.1105
  189MOL0     N25995   9.889  10.178   2.221  0.4254 -0.5951  0.9201
  189MOL0     N25996   9.838  10.199   2.335 -0.1447  0.3217  0.8844
  189MOL0     C25997   9.280  11.060   3.146  0.4455  0.0629 -0.2167
  189MOL0     C25998   9.186  11.133   3.213 -0.4165  0.2987  0.3119
  189MOL0     C25999   9.011  11.396   3.534 -0.3501  0.6369  0.2441
  189MOL0     C26000   8.886  11.354   3.491 -0.3020 -0.0755 -0.0006
  189MOL0     C26001   8.766  11.399   3.548 -0.7136  1.1579 -0.1680
  189MOL0     C26002   8.763  11.504   3.647 -0.3213  0.9306 -0.0047
  189MOL0     O26003   8.648  11.551   3.705  0.2063 -0.4378 -0.3869
  189MOL0     C26004   8.633  11.695   3.738 -0.1196 -0.1695 -1.2455
  189MOL0     C26005   8.488  11.727   3.785 -0.4043  0.4192  0.2357
  189MOL0     C26006   8.401  11.740   3.664 -0.3810 -0.1818  0.0719
  189MOL0     C26007   8.258  11.734   3.705  0.1237 -0.8665 -0.2754
  189MOL0     C26008   8.211  11.595   3.735  0.4251 -1.1397 -0.6373
  189MOL0     C26009   8.172  11.483   3.772  0.9884 -0.3318  0.1500
  189MOL0     C26010   8.886  11.561   3.678 -0.2521  0.7095  0.9626
  189MOL0     C26011   9.014  11.502   3.630  0.5851 -1.3723 -0.1037
  189MOL0     C26012   9.143  11.577   3.677  0.3538  0.3772  0.4856
  189MOL0     H26013   9.326  11.109   3.521  0.1743 -1.2982  0.2413
  189MOL0     H26014   9.493  10.989   3.399  0.8484  2.9791  0.5418
  189MOL0     H26015   9.532  10.822   3.278 -1.6838  2.7954  0.0142
  189MOL0     H26016   9.660  10.921   3.207 -0.2259  0.6103  1.9428
  189MOL0     H26017   9.652  10.653   3.143 -1.4817 -1.1219  0.2132
  189MOL0     H26018   9.494  10.682   3.087 -0.9435  0.6650  4.9337
  189MOL0     H26019   9.553  10.798   2.902  0.8802  0.4200 -0.7530
  189MOL0     H26020   9.715  10.829   2.938 -0.6720  0.5517  1.6115
  189MOL0     H26021   9.739  10.562   2.950  0.9897 -0.2779 -1.4029
  189MOL0     H26022   9.567  10.552   2.930 -1.5534  2.0308  0.2342
  189MOL0     H26023   9.755  10.677   2.722  1.4189 -0.1388  1.3072
  189MOL0     H26024   9.588  10.639   2.691 -0.8656  0.5074  0.7908
  189MOL0     H26025   9.806  10.435   2.752 -2.2971  0.0243  3.4125
  189MOL0     H26026   9.638  10.398   2.710  1.6921 -1.4836  2.4959
  189MOL0     H26027   9.818  10.569   2.525 -0.3121 -0.1382 -1.5771
  189MOL0     H26028   9.669  10.490   2.483  0.7883  3.7642 -1.1464
  189MOL0     H26029   9.917  10.358   2.585  0.0141 -1.5130  0.0363
  189MOL0     H26030   9.771  10.264   2.543 -2.4486  0.1021 -3.5829
  189MOL0     H26031   9.957  10.495   2.257 -0.2527 -0.1513  0.0287
  189MOL0     H26032  10.030  10.234   2.002 -1.7017 -0.5718  0.1018
  189MOL0     H26033  10.091  10.391   2.049 -0.4274  0.6297 -2.1592
  189MOL0     H26034   9.820  10.332   1.939  1.4572  0.2361 -5.1773
  189MOL0     H26035   9.857  10.484   2.025 -3.5248 -0.7486 -2.1913
  189MOL0     H26036  10.016  10.552   1.876 -0.3720 -1.0949  2.5558
  189MOL0     H26037  10.022  10.395   1.785 -2.1789 -1.1109  0.3126
  189MOL0     H26038   9.913  10.572   1.668  0.7486  0.6750  0.7305
  189MOL0     H26039   9.823  10.426   1.695  1.5284 -0.0480 -1.0340
  189MOL0     H26040   9.564  10.511   1.931  1.0391  0.4118  0.8375
  189MOL0     H26041   9.212  10.545   1.863 -2.5108 -2.5427 -1.1960
  189MOL0     H26042   9.338  10.467   1.970  2.6825 -0.0922 -1.1282
  189MOL0     H26043   9.268  10.386   1.820  0.0347  1.7720 -2.5293
  189MOL0     H26044   9.025  10.859   1.602  2.1289 -1.7093  0.5792
  189MOL0     H26045   8.800  10.876   1.473 -1.2183 -5.3407  2.9705
  189MOL0     H26046   8.644  10.930   1.300 -0.2271  1.7543 -0.2430
  189MOL0     H26047   8.778  10.982   1.209  2.8976 -2.8439  1.6089
  189MOL0     H26048   8.630  11.004   1.025 -0.9948 -0.3759 -0.7297
  189MOL0     H26049   8.613  10.830   1.041  0.3315  0.7214 -0.4495
  189MOL0     H26050   8.452  11.062   1.171 -5.3505  0.0988  1.8534
  189MOL0     H26051   8.429  10.880   1.212 -1.6388  1.3908  0.5161
  189MOL0     H26052   8.373  10.854   0.971  0.9665  0.1458 -0.1278
  189MOL0     H26053   8.332  11.022   0.977 -1.9903  0.2552  0.1029
  189MOL0     H26054   8.143  10.865   1.013 -0.3807 -1.2010  0.6945
  189MOL0     H26055   8.226  10.796   1.152  2.7878 -0.5245 -1.6001
  189MOL0     H26056   8.179  11.101   1.134  2.1267 -0.3832  1.1834
  189MOL0     H26057   8.205  11.015   1.282 -1.3603  2.0688  1.8334
  189MOL0     H26058   7.992  11.068   1.305  3.6181  2.5028 -0.8590
  189MOL0     H26059   7.992  10.895   1.270 -0.4574 -0.9474 -1.8927
  189MOL0     H26060   7.918  11.106   1.066 -0.1665  0.8788  1.3014
  189MOL0     H26061   7.795  11.041   1.183 -1.0891 -1.2316  0.1065
  189MOL0     H26062   8.967  10.650   1.155 -3.2823  0.0848  1.0267
  189MOL0     H26063   9.200  10.646   1.279  0.5228 -0.5500  2.3090
  189MOL0     H26064   9.469  10.650   1.478 -3.5625  0.3055  1.3483
  189MOL0     H26065   9.695  10.671   1.559  2.1499 -3.8669 -1.4668
  189MOL0     H26066   9.256  11.054   3.040 -4.2951  2.1985  0.4780
  189MOL0     H26067   9.099  11.178   3.166 -0.4105 -0.1712 -0.1584
  189MOL0     H26068   8.878  11.298   3.398 -1.4465  0.3637 -0.1840
  189MOL0     H26069   8.671  11.356   3.518  0.6545 -4.6535  2.4745
  189MOL0     H26070   8.697  11.692   3.826 -0.7403 -0.3220 -0.7960
  189MOL0     H26071   8.673  11.772   3.671  2.0603 -1.4646 -1.5200
  189MOL0     H26072   8.485  11.822   3.840 -5.7642  1.5673 -1.4418
  189MOL0     H26073   8.457  11.639   3.842  2.0071 -0.6770 -0.0587
  189MOL0     H26074   8.422  11.832   3.609 -0.0002 -0.2222  0.1521
  189MOL0     H26075   8.419  11.659   3.592 -0.6324  1.4685 -1.9290
  189MOL0     H26076   8.194  11.787   3.634 -0.3583  1.6033  1.8318
  189MOL0     H26077   8.244  11.795   3.795  0.4683 -1.0545 -0.0942
  189MOL0     H26078   8.124  11.389   3.793  0.8916 -0.7513 -1.8132
  189MOL0     H26079   8.895  11.647   3.743  0.3223  1.6540 -0.3381
  189MOL0     H26080   9.180  11.599   3.576 -2.7901  0.1841 -0.8472
  189MOL0     H26081   9.129  11.674   3.725 -1.6451  1.2482 -1.6747
  189MOL0     H26082   9.202  11.504   3.732  2.6644  1.6830 -0.1337
  190MOL0     O26083  11.476   3.091   4.777  0.7836  0.3911  0.3312
  190MOL0     C26084  11.412   3.193   4.750 -0.4707 -0.6441 -0.8710
  190MOL0     O26085  11.343   3.220   4.641 -0.1879  0.1262 -0.3887
  190MOL0     C26086  11.317   3.119   4.559  0.0328  0.5781 -0.1240
  190MOL0     C26087  11.180   3.070   4.552  0.4752 -0.2888  0.9004
  190MOL0     C26088  11.144   2.949   4.476  0.0726  0.0274 -0.0534
  190MOL0     C26089  11.241   2.882   4.400  0.3784 -0.3492  0.2766
  190MOL0     O26090  11.192   2.775   4.330  0.6803  0.0032  0.4587
  190MOL0     C26091  11.290   2.696   4.262 -0.3264 -0.5022  1.3309
  190MOL0     C26092  11.358   2.586   4.342  0.0227 -0.3908  0.6430
  190MOL0     C26093  11.255   2.531   4.439  0.1886  0.0051 -0.2464
  190MOL0     C26094  11.147   2.450   4.362  0.6542  0.1139 -0.9775
  190MOL0     C26095  11.202   2.336   4.273 -0.9031  0.3275  1.1301
  190MOL0     C26096  11.108   2.217   4.287 -0.2799  0.0562  0.6057
  190MOL0     C26097  11.140   2.088   4.201  0.6319  0.0752  0.2879
  190MOL0     C26098  11.053   1.970   4.254 -0.5978 -0.0315  1.3351
  190MOL0     N26099  11.082   1.939   4.393  0.1144  1.0862  0.3051
  190MOL0     C26100  10.989   1.951   4.487  0.5722  0.4681 -1.1691
  190MOL0     C26101  11.033   1.879   4.593 -0.6265 -0.0451 -0.0943
  190MOL0     C26102  10.980   1.881   4.732  0.2862 -1.4148  1.1301
  190MOL0     C26103  10.855   1.953   4.757  0.6279  0.1809  0.9857
  190MOL0     C26104  10.874   2.109   4.778 -0.9240 -0.0676  1.5309
  190MOL0     C26105  10.742   2.183   4.820 -0.5380  0.7083  0.3386
  190MOL0     O26106  10.632   2.141   4.750  0.3866 -0.3998 -0.2735
  190MOL0     C26107  10.513   2.188   4.799  0.4641 -0.2938 -1.4105
  190MOL0     C26108  10.495   2.291   4.898  1.2372  0.3434 -0.0269
  190MOL0     C26109  10.373   2.342   4.922  0.1216 -0.0809  0.7158
  190MOL0     C26110  10.366   2.463   5.000  0.5789 -0.1427 -0.7173
  190MOL0     C26111  10.254   2.274   4.868  0.1367 -0.2755  0.8473
  190MOL0     C26112  10.119   2.325   4.882 -0.9044  0.1213 -0.2097
  190MOL0     O26113  10.025   2.240   4.875  0.2295  0.2454 -0.0774
  190MOL0     C26114   9.893   2.278   4.861 -0.4508 -0.1230  0.1467
  190MOL0     C26115   9.849   2.330   4.736 -0.0467  0.7449 -0.2200
  190MOL0     C26116   9.714   2.350   4.711 -0.2783  0.2202 -0.0524
  190MOL0     C26117   9.624   2.310   4.807  0.1257 -0.0179  0.2897
  190MOL0     O26118   9.489   2.313   4.789  0.2023 -0.7605 -0.0866
  190MOL0     C26119   9.446   2.343   4.654  0.7849  0.0462  0.7051
  190MOL0     C26120   9.286   2.322   4.655  0.0393 -0.3390  0.7361
  190MOL0     C26121   9.218   2.420   4.755 -0.7191 -0.4243  1.1904
  190MOL0     C26122   9.069   2.443   4.721 -0.5364 -0.7128  0.0783
  190MOL0     C26123   9.027   2.576   4.792  0.9759 -0.1071  0.5519
  190MOL0     C26124   8.973   2.577   4.934 -0.1875  0.7919 -0.0621
  190MOL0     C26125   8.924   2.710   4.987  0.5977  0.4199 -0.7857
  190MOL0     C26126   8.837   2.709   5.119 -0.1079  0.0926  0.3166
  190MOL0    Cl26127   8.810   2.877   5.175  0.5084  0.4392  0.0182
  190MOL0     C26128   9.663   2.265   4.934 -1.4364  0.5768 -0.2336
  190MOL0     C26129   9.798   2.249   4.960  0.0062  0.0375  1.2148
  190MOL0     O26130  10.105   2.443   4.862 -0.4895  0.1036  0.4522
  190MOL0     C26131  10.274   2.169   4.779  0.1645  0.3034 -0.4372
  190MOL0     C26132  10.407   2.127   4.737  0.0914 -0.4763 -0.8646
  190MOL0     N26133  11.145   1.809   4.556  0.1384  0.9320  0.3032
  190MOL0     N26134  11.171   1.842   4.434  0.2972  0.2474 -0.2206
  190MOL0     C26135  11.375   2.934   4.401  0.7602 -0.6726 -0.8407
  190MOL0     C26136  11.411   3.047   4.479 -0.2818  0.0024  0.3491
  190MOL0     C26137  11.401   3.301   4.859 -0.2236  0.2894  0.8025
  190MOL0     C26138  11.274   3.359   4.874  0.3847  0.6081  0.0761
  190MOL0     C26139  11.249   3.455   4.975  0.2426  0.6443 -0.0850
  190MOL0     C26140  11.349   3.497   5.067 -0.0012 -0.3936  0.6285
  190MOL0     O26141  11.326   3.578   5.165  0.1286 -0.3147 -0.7121
  190MOL0     C26142  11.200   3.644   5.192  0.7585 -1.1170  0.1482
  190MOL0     C26143  11.170   3.752   5.085  0.4359  0.7190 -0.3920
  190MOL0     C26144  11.262   3.875   5.108  0.1185 -0.9499  1.2275
  190MOL0     C26145  11.281   3.967   4.985 -0.8633  0.7076  0.6301
  190MOL0     C26146  11.180   4.074   4.964 -0.9264  0.0402  0.1958
  190MOL0     C26147  11.100   4.162   4.940 -0.3410 -0.6700 -0.4877
  190MOL0     C26148  11.477   3.441   5.040 -1.4861  0.3402 -0.8661
  190MOL0     C26149  11.504   3.344   4.947  0.1911  0.0523 -0.0860
  190MOL0     C26150  11.643   3.282   4.949 -0.3011 -0.6905  0.6185
  190MOL0     H26151  11.097   3.117   4.603  1.5136  1.9221  0.6385
  190MOL0     H26152  11.043   2.908   4.474 -0.2423  0.7682  0.3515
  190MOL0     H26153  11.361   2.760   4.209 -0.8938 -0.1191  1.0240
  190MOL0     H26154  11.233   2.646   4.184 -0.0463  0.3037  0.5900
  190MOL0     H26155  11.395   2.506   4.278  2.0131  1.1705 -0.2821
  190MOL0     H26156  11.442   2.634   4.393 -1.1645  1.7996  0.6905
  190MOL0     H26157  11.291   2.461   4.515 -2.5180  1.4788  2.6296
  190MOL0     H26158  11.221   2.615   4.500 -0.3411 -1.4432  1.5454
  190MOL0     H26159  11.082   2.421   4.445 -1.3736  5.0305 -0.5171
  190MOL0     H26160  11.091   2.519   4.297  1.8757  0.3877 -1.7723
  190MOL0     H26161  11.303   2.309   4.304 -0.9695 -1.6340 -0.1484
  190MOL0     H26162  11.207   2.371   4.169 -0.2253 -0.2865  0.9487
  190MOL0     H26163  11.114   2.181   4.390  0.6318  1.2756  1.0065
  190MOL0     H26164  11.005   2.248   4.272 -0.6288 -0.7946  1.1371
  190MOL0     H26165  11.247   2.068   4.191  0.6680  0.6994 -0.6616
  190MOL0     H26166  11.118   2.110   4.096  3.3374 -0.2253 -0.4124
  190MOL0     H26167  10.945   1.983   4.247 -0.8189 -1.6590  1.4342
  190MOL0     H26168  11.068   1.887   4.185  0.8843 -1.1066  2.8492
  190MOL0     H26169  10.907   2.020   4.501 -0.3784 -0.6509 -1.0391
  190MOL0     H26170  11.063   1.923   4.789  1.2591 -0.5451 -0.8436
  190MOL0     H26171  10.975   1.775   4.759  1.6559 -2.5049 -2.4036
  190MOL0     H26172  10.788   1.950   4.671  2.5409  1.7393 -0.6568
  190MOL0     H26173  10.801   1.901   4.837 -2.2903  0.6090 -0.5465
  190MOL0     H26174  10.948   2.125   4.857  0.1680  3.0443  0.0213
  190MOL0     H26175  10.915   2.152   4.687 -0.8467 -0.6017  1.3063
  190MOL0     H26176  10.735   2.170   4.929  0.6326  0.8552  0.4546
  190MOL0     H26177  10.757   2.291   4.807 -3.7178  1.4005  1.4661
  190MOL0     H26178  10.578   2.339   4.948  1.5080  0.2260 -0.3633
  190MOL0     H26179  10.471   2.495   5.008  0.8651 -1.4513  2.8831
  190MOL0     H26180  10.332   2.424   5.097  0.5638  0.6190 -0.4072
  190MOL0     H26181  10.295   2.533   4.958 -0.3116 -0.3085  0.4553
  190MOL0     H26182   9.918   2.377   4.666 -1.6363  1.8195 -1.1356
  190MOL0     H26183   9.681   2.376   4.611 -2.0862 -3.1930 -0.5173
  190MOL0     H26184   9.476   2.443   4.620 -0.8392  0.1272 -0.5873
  190MOL0     H26185   9.481   2.276   4.575  0.1706  2.0248 -1.3539
  190MOL0     H26186   9.248   2.333   4.554  1.5870 -3.8405 -0.3965
  190MOL0     H26187   9.271   2.220   4.693 -2.7194  0.3594  1.7339
  190MOL0     H26188   9.270   2.516   4.752  3.1301 -1.9934  5.5328
  190MOL0     H26189   9.237   2.392   4.859 -1.6498  1.9635  2.0764
  190MOL0     H26190   9.003   2.358   4.741 -0.6421 -1.0580 -1.6239
  190MOL0     H26191   9.074   2.455   4.613  1.8282 -0.0555  0.2145
  190MOL0     H26192   9.114   2.642   4.786  0.5807  0.2929 -1.4317
  190MOL0     H26193   8.960   2.629   4.724 -0.6966 -2.8323 -0.0641
  190MOL0     H26194   9.051   2.539   5.000  1.3854  3.4698 -0.2224
  190MOL0     H26195   8.897   2.498   4.933 -0.1793  0.7354  1.4966
  190MOL0     H26196   8.857   2.759   4.916  1.6386  2.5896 -0.3404
  190MOL0     H26197   9.009   2.777   4.997  0.8111 -0.1384  1.7343
  190MOL0     H26198   8.896   2.648   5.188  0.2459 -0.8240 -0.7537
  190MOL0     H26199   8.744   2.651   5.117 -0.9657  1.4348  0.3365
  190MOL0     H26200   9.587   2.235   5.005 -2.6317  0.5578 -1.4734
  190MOL0     H26201   9.841   2.211   5.052  3.2359 -1.6863 -0.8183
  190MOL0     H26202  10.189   2.122   4.732 -0.9740  2.2032 -0.3399
  190MOL0     H26203  10.425   2.042   4.672 -4.0125 -0.7691 -1.8909
  190MOL0     H26204  11.448   2.872   4.349  0.0945 -4.4257  2.2244
  190MOL0     H26205  11.512   3.083   4.468 -0.0347 -0.2285  1.7717
  190MOL0     H26206  11.196   3.330   4.804 -2.3488  0.7751  2.8368
  190MOL0     H26207  11.149   3.493   4.991 -1.1237 -2.6593  0.1293
  190MOL0     H26208  11.122   3.569   5.176 -0.4915  0.6069 -2.7895
  190MOL0     H26209  11.196   3.687   5.293  0.5622  0.9700 -0.6861
  190MOL0     H26210  11.064   3.781   5.085 -1.2320 -4.1562 -3.2514
  190MOL0     H26211  11.188   3.724   4.981  0.1921  0.1635 -0.2875
  190MOL0     H26212  11.230   3.929   5.198 -0.9560  1.7222 -0.6080
  190MOL0     H26213  11.358   3.830   5.135  0.7209 -0.8017 -0.5079
  190MOL0     H26214  11.285   3.905   4.896  2.7077  0.1834  1.0048
  190MOL0     H26215  11.372   4.028   4.990  0.0843 -0.2604 -2.7612
  190MOL0     H26216  11.033   4.244   4.922 -0.5399 -0.6857  0.1340
  190MOL0     H26217  11.555   3.462   5.113  3.2484  2.8908 -5.9093
  190MOL0     H26218  11.728   3.337   4.906  0.7859 -2.6218  0.1656
  190MOL0     H26219  11.670   3.276   5.054  0.2590 -0.9361  0.4650
  190MOL0     H26220  11.650   3.182   4.905 -3.2763 -0.5185 -0.4902
  191MOL0     O26221   0.912   5.018   3.981 -0.7685  0.9735  0.3145
  191MOL0     C26222   1.029   4.985   4.000 -0.0299 -1.0109  0.6706
  191MOL0     O26223   1.064   4.870   4.066 -0.5728 -0.5630 -0.4997
  191MOL0     C26224   0.974   4.777   4.105 -0.7551  0.7931  0.4441
  191MOL0     C26225   0.873   4.736   4.012 -0.5947 -0.0762 -0.6815
  191MOL0     C26226   0.751   4.668   4.051  0.3969  0.4491 -0.2314
  191MOL0     C26227   0.732   4.638   4.189 -0.0332  0.2377 -0.6949
  191MOL0     O26228   0.622   4.579   4.243 -0.2873 -0.8916 -0.0859
  191MOL0     C26229   0.642   4.446   4.277 -0.8244 -0.6676 -0.3945
  191MOL0     C26230   0.569   4.368   4.174 -1.2758 -0.2413 -0.1190
  191MOL0     C26231   0.547   4.230   4.217 -0.3068 -0.1143  0.2350
  191MOL0     C26232   0.546   4.139   4.097  0.9274  0.0648 -0.9051
  191MOL0     C26233   0.485   4.006   4.131 -0.1657 -0.6269 -0.5074
  191MOL0     C26234   0.545   3.929   4.250  0.6571  0.5995  0.2717
  191MOL0     C26235   0.481   3.793   4.246 -0.5454 -0.2131 -0.2760
  191MOL0     C26236   0.552   3.695   4.148  0.6053  0.4230  0.3599
  191MOL0     N26237   0.499   3.563   4.152  0.3383  0.3155 -0.2888
  191MOL0     C26238   0.566   3.447   4.130  0.0657  0.0417  0.1450
  191MOL0     C26239   0.495   3.348   4.181 -0.2323 -1.0696 -0.3941
  191MOL0     C26240   0.515   3.206   4.163  0.2221 -0.2251 -0.2247
  191MOL0     C26241   0.571   3.147   4.297 -0.4372  0.0448  0.0916
  191MOL0     C26242   0.542   2.995   4.305  0.1378  0.0053 -0.1376
  191MOL0     C26243   0.598   2.924   4.423 -0.1927  0.3931  0.5999
  191MOL0     O26244   0.746   2.932   4.449 -0.3362  0.7275  0.7569
  191MOL0     C26245   0.822   2.823   4.428  0.2765 -0.1118 -0.1646
  191MOL0     C26246   0.901   2.775   4.533 -0.4859  0.3363 -0.5046
  191MOL0     C26247   0.979   2.659   4.532 -0.2397 -1.4749 -0.2780
  191MOL0     C26248   1.052   2.627   4.661  0.4205 -0.3573  0.5820
  191MOL0     C26249   0.975   2.596   4.408  0.2128  0.6852 -0.7378
  191MOL0     C26250   1.052   2.480   4.384  0.1210  0.3056  0.0555
  191MOL0     O26251   1.188   2.487   4.395 -0.1601  0.2168  0.0681
  191MOL0     C26252   1.272   2.376   4.389 -0.0894 -0.0483  0.2236
  191MOL0     C26253   1.410   2.384   4.437  0.3839  0.7362 -0.1245
  191MOL0     C26254   1.496   2.274   4.435  0.5129 -1.1102 -0.5477
  191MOL0     C26255   1.454   2.151   4.388 -1.6724 -1.0968  0.6541
  191MOL0     O26256   1.550   2.050   4.387  0.2934 -0.6226  0.1728
  191MOL0     C26257   1.525   1.929   4.317  0.7975 -0.0574  0.2386
  191MOL0     C26258   1.673   1.881   4.302  0.0829 -0.2110  0.0289
  191MOL0     C26259   1.666   1.724   4.302 -0.8209 -0.3591  0.9607
  191MOL0     C26260   1.791   1.653   4.261  0.4173 -0.6252 -0.5419
  191MOL0     C26261   1.759   1.507   4.218  0.1400  1.1481  0.3488
  191MOL0     C26262   1.880   1.421   4.211 -0.5909 -0.0022 -0.5594
  191MOL0     C26263   1.836   1.276   4.213 -0.1475 -0.4979  0.0382
  191MOL0     C26264   1.951   1.199   4.152 -0.1659  0.2545 -0.2026
  191MOL0    Cl26265   2.097   1.197   4.251  0.4830  0.6645  0.2841
  191MOL0     C26266   1.325   2.144   4.339  0.7423 -0.1400 -0.0233
  191MOL0     C26267   1.236   2.250   4.335 -1.2127 -0.7569 -0.0758
  191MOL0     O26268   0.978   2.380   4.357 -0.9344 -0.5782  0.0236
  191MOL0     C26269   0.906   2.645   4.294 -0.4172  0.0244 -0.6243
  191MOL0     C26270   0.838   2.764   4.306  0.3916  0.5368  0.1266
  191MOL0     N26271   0.380   3.406   4.227  0.2760  0.1713 -0.4104
  191MOL0     N26272   0.382   3.536   4.205 -0.8811  0.3841 -0.0532
  191MOL0     C26273   0.830   4.686   4.282  0.3810 -0.3499 -0.0804
  191MOL0     C26274   0.942   4.753   4.239  0.3735 -0.0767  0.9596
  191MOL0     C26275   1.142   5.084   3.955 -1.2866  0.2057 -0.7800
  191MOL0     C26276   1.266   5.028   3.952 -0.6305  0.4075  0.5157
  191MOL0     C26277   1.379   5.103   3.923 -0.6085  0.4639 -0.2453
  191MOL0     C26278   1.357   5.234   3.890  0.7777 -0.6734 -0.4773
  191MOL0     O26279   1.471   5.308   3.866  0.0747 -0.2192 -0.1812
  191MOL0     C26280   1.469   5.446   3.900  0.7729 -0.0031 -0.8808
  191MOL0     C26281   1.485   5.515   3.767  0.4153  0.8105  0.2003
  191MOL0     C26282   1.474   5.661   3.785 -0.8242  1.2057  0.2432
  191MOL0     C26283   1.488   5.716   3.642 -0.7258 -0.2295  0.4951
  191MOL0     C26284   1.585   5.828   3.641  0.5337  0.2718  0.4023
  191MOL0     C26285   1.662   5.920   3.654 -0.6205  1.0255  0.2684
  191MOL0     C26286   1.226   5.293   3.882 -0.3635 -0.5675  0.3336
  191MOL0     C26287   1.119   5.214   3.919  0.9875 -0.4956  0.1870
  191MOL0     C26288   0.982   5.289   3.930  1.1024 -0.6719  0.4660
  191MOL0     H26289   0.880   4.769   3.909 -0.2599  2.0656 -0.0206
  191MOL0     H26290   0.688   4.643   3.966  1.9237 -0.5267 -1.1289
  191MOL0     H26291   0.604   4.437   4.379 -1.8639 -0.7845 -0.7749
  191MOL0     H26292   0.749   4.424   4.269 -0.3962  1.0048  0.3227
  191MOL0     H26293   0.472   4.409   4.144  0.9676  3.0088 -3.9300
  191MOL0     H26294   0.634   4.363   4.086  0.5546 -0.9633  1.2293
  191MOL0     H26295   0.613   4.199   4.298 -0.9778 -0.9136  0.4893
  191MOL0     H26296   0.444   4.221   4.251 -0.0906 -4.6472  0.3456
  191MOL0     H26297   0.482   4.181   4.019  1.8381  0.3087 -1.5398
  191MOL0     H26298   0.643   4.114   4.052  0.7919 -0.2839 -1.0144
  191MOL0     H26299   0.501   3.943   4.043  1.2786 -0.4533 -0.3854
  191MOL0     H26300   0.379   4.016   4.155 -0.7435 -0.3916 -2.8836
  191MOL0     H26301   0.655   3.927   4.250  0.6904 -2.4548  1.0351
  191MOL0     H26302   0.494   3.976   4.335 -2.0968  0.1061 -1.0079
  191MOL0     H26303   0.375   3.801   4.224  0.0175  1.7920 -2.7076
  191MOL0     H26304   0.493   3.747   4.344  1.0626  1.4169  0.3551
  191MOL0     H26305   0.539   3.729   4.045  0.9699 -2.2121 -0.6326
  191MOL0     H26306   0.658   3.688   4.174  0.9856 -0.4805 -1.3184
  191MOL0     H26307   0.655   3.437   4.069  0.3555  1.1038  0.3749
  191MOL0     H26308   0.576   3.187   4.074 -0.6870 -2.0092 -0.5104
  191MOL0     H26309   0.411   3.180   4.139 -1.2989  4.3346  0.3409
  191MOL0     H26310   0.678   3.173   4.295 -0.8068  1.6111 -1.3194
  191MOL0     H26311   0.527   3.207   4.377 -2.0553  0.8595 -1.3452
  191MOL0     H26312   0.435   2.973   4.312  0.8227 -3.6300  0.6380
  191MOL0     H26313   0.586   2.949   4.216  0.8928  1.9255 -0.7986
  191MOL0     H26314   0.548   2.930   4.520 -0.3371 -3.9689  1.0146
  191MOL0     H26315   0.573   2.818   4.414  2.2660 -0.1541 -0.3793
  191MOL0     H26316   0.893   2.815   4.633 -1.6060 -1.4960  0.1846
  191MOL0     H26317   1.120   2.710   4.681  0.3154 -0.4915  1.5647
  191MOL0     H26318   1.113   2.536   4.653  3.3222  1.3384  1.6428
  191MOL0     H26319   0.997   2.621   4.755 -0.0900  0.1117  0.3173
  191MOL0     H26320   1.453   2.479   4.466 -0.5731  0.9278  0.6798
  191MOL0     H26321   1.595   2.276   4.480 -0.0206 -0.5708  0.6550
  191MOL0     H26322   1.462   1.857   4.370 -3.2311  0.6087 -3.1200
  191MOL0     H26323   1.481   1.943   4.218  1.5333  2.8392  0.2380
  191MOL0     H26324   1.716   1.932   4.215  0.0102 -3.0804 -1.8127
  191MOL0     H26325   1.735   1.904   4.389  2.8441 -1.2816 -1.5185
  191MOL0     H26326   1.592   1.699   4.224  1.2662 -2.1488 -0.5719
  191MOL0     H26327   1.627   1.691   4.398 -3.7989  2.3840  0.8697
  191MOL0     H26328   1.866   1.658   4.340  0.6874  0.6063 -0.8509
  191MOL0     H26329   1.831   1.702   4.171 -2.3940 -0.4466 -1.8127
  191MOL0     H26330   1.699   1.464   4.300  0.7899 -0.2338  0.1301
  191MOL0     H26331   1.705   1.494   4.124  2.3739  2.8670 -1.2679
  191MOL0     H26332   1.939   1.458   4.296 -3.7493  0.8551  1.4196
  191MOL0     H26333   1.942   1.437   4.122  0.5291 -1.8987 -0.1750
  191MOL0     H26334   1.742   1.278   4.157 -1.0697 -1.9634  1.4467
  191MOL0     H26335   1.824   1.251   4.318 -1.5100  0.7627  0.2146
  191MOL0     H26336   1.986   1.231   4.054 -2.2105  1.1082 -0.7049
  191MOL0     H26337   1.905   1.101   4.138 -1.2762  0.3422  2.2532
  191MOL0     H26338   1.296   2.049   4.296  0.2661  0.0154 -0.0462
  191MOL0     H26339   1.141   2.234   4.286 -2.3313  3.3276  0.4605
  191MOL0     H26340   0.897   2.595   4.197 -2.2013  0.6297 -0.8083
  191MOL0     H26341   0.791   2.803   4.216  4.0852 -0.5355 -2.5233
  191MOL0     H26342   0.820   4.659   4.387  0.7230  1.4962  0.4689
  191MOL0     H26343   1.020   4.785   4.308  1.1217  1.7221 -0.6121
  191MOL0     H26344   1.278   4.924   3.980 -1.3920  0.0956 -0.2516
  191MOL0     H26345   1.479   5.062   3.934 -1.6241 -1.5147  3.4052
  191MOL0     H26346   1.381   5.475   3.959  0.5226  2.0932 -2.1696
  191MOL0     H26347   1.549   5.481   3.966 -1.1018 -0.3022  1.6921
  191MOL0     H26348   1.400   5.481   3.707 -1.1867  0.8460  2.3020
  191MOL0     H26349   1.571   5.470   3.716 -1.5048 -3.3110  0.1993
  191MOL0     H26350   1.378   5.689   3.830  0.3154  1.9635  2.3181
  191MOL0     H26351   1.541   5.698   3.863 -0.6720  0.0060  0.7058
  191MOL0     H26352   1.387   5.751   3.620 -1.0332 -0.8012  0.9695
  191MOL0     H26353   1.517   5.633   3.577 -0.5778  0.2073 -0.0065
  191MOL0     H26354   1.739   5.994   3.662  0.2669  0.0722  0.7461
  191MOL0     H26355   1.203   5.387   3.834  0.5153 -1.6569 -2.3848
  191MOL0     H26356   0.959   5.304   4.035 -2.1298 -2.0689  0.0835
  191MOL0     H26357   0.990   5.381   3.872  2.6826 -1.8134 -1.2645
  191MOL0     H26358   0.901   5.228   3.887  1.4508  0.7671 -2.4569
  192MOL0     O26359  11.448   3.247  10.152 -0.7797  0.3819  0.0987
  192MOL0     C26360  11.427   3.342  10.070 -0.0297  0.2096 -0.3940
  192MOL0     O26361  11.447   3.326   9.933 -0.7330  0.2273 -0.3913
  192MOL0     C26362  11.448   3.204   9.871 -0.8907 -0.2105  0.5198
  192MOL0     C26363  11.518   3.208   9.745  0.5604 -0.0752 -0.2222
  192MOL0     C26364  11.531   3.094   9.664 -0.8775 -0.9361  0.4239
  192MOL0     C26365  11.473   2.970   9.712  0.0105  0.4381 -0.0090
  192MOL0     O26366  11.463   2.857   9.628  0.6339 -0.3825  0.3904
  192MOL0     C26367  11.514   2.870   9.490 -0.4767  0.6170 -0.6020
  192MOL0     C26368  11.430   2.769   9.396 -0.0479  0.1974  0.5369
  192MOL0     C26369  11.479   2.621   9.417  0.4107 -0.1099 -0.1118
  192MOL0     C26370  11.425   2.540   9.528 -0.1865  0.3757 -0.8928
  192MOL0     C26371  11.402   2.388   9.493 -0.1201  0.1652  0.1334
  192MOL0     C26372  11.282   2.360   9.412  0.0246 -0.0375  0.5389
  192MOL0     C26373  11.244   2.213   9.401  0.2582 -0.3514  1.0103
  192MOL0     C26374  11.352   2.131   9.335 -0.0641 -0.0319  0.9583
  192MOL0     N26375  11.404   2.196   9.206  0.4669 -0.2912 -0.2987
  192MOL0     C26376  11.524   2.264   9.181  0.1466 -0.2966  0.5807
  192MOL0     C26377  11.519   2.329   9.064 -0.0192  0.2307 -0.3299
  192MOL0     C26378  11.620   2.409   9.000 -0.0503  0.1748 -0.1240
  192MOL0     C26379  11.587   2.557   8.994  0.7521 -0.0827  0.4445
  192MOL0     C26380  11.617   2.625   8.864 -0.5524 -1.0124 -0.1717
  192MOL0     C26381  11.748   2.597   8.794  0.0211 -0.9652  0.2356
  192MOL0     O26382  11.763   2.673   8.677  0.4128  0.2935  0.4877
  192MOL0     C26383  11.753   2.812   8.692 -0.4858  0.4483 -0.7562
  192MOL0     C26384  11.842   2.873   8.772  0.1170 -0.3056  0.1048
  192MOL0     C26385  11.863   3.012   8.775 -0.2472  0.4834  0.2685
  192MOL0     C26386  11.957   3.066   8.874  0.1278 -0.1339 -0.6835
  192MOL0     C26387  11.773   3.096   8.691 -0.6878  0.0144 -0.4549
  192MOL0     C26388  11.774   3.243   8.708  0.0480 -0.0839  0.3589
  192MOL0     O26389  11.647   3.291   8.731  0.3122 -0.3446  0.0228
  192MOL0     C26390  11.626   3.426   8.750  0.4811  0.3575  0.0728
  192MOL0     C26391  11.550   3.505   8.658  0.4152  0.3737 -0.0039
  192MOL0     C26392  11.547   3.649   8.662 -0.3577  0.9759  0.4283
  192MOL0     C26393  11.608   3.713   8.770  0.0632  0.7823  0.1259
  192MOL0     O26394  11.590   3.851   8.780 -0.3026 -0.6848  0.0723
  192MOL0     C26395  11.458   3.911   8.782  0.2043 -0.4388  0.1303
  192MOL0     C26396  11.429   3.959   8.924 -0.0432 -0.6310  0.7439
  192MOL0     C26397  11.310   4.065   8.924  0.1462  0.4942  1.1886
  192MOL0     C26398  11.279   4.107   9.061 -0.6590 -0.5883 -1.0842
  192MOL0     C26399  11.156   4.182   9.078  0.6437 -1.6174  0.1233
  192MOL0     C26400  11.133   4.224   9.220 -0.0645 -1.0339  0.9930
  192MOL0     C26401  10.997   4.289   9.240  1.2997  0.1774  1.0561
  192MOL0     C26402  10.994   4.336   9.393  0.6880 -0.0445  1.3751
  192MOL0    Cl26403  11.009   4.197   9.500 -0.4966 -0.3381  0.5225
  192MOL0     C26404  11.679   3.638   8.874  0.3551  0.1172  0.2009
  192MOL0     C26405  11.669   3.494   8.854 -0.8104 -0.0595  0.4228
  192MOL0     O26406  11.874   3.313   8.702 -0.2665 -0.5485  0.3432
  192MOL0     C26407  11.678   3.028   8.622 -0.1337 -0.1650 -0.0082
  192MOL0     C26408  11.679   2.890   8.607  0.4064  0.1754 -0.7284
  192MOL0     N26409  11.391   2.313   9.018  0.2199  0.4355 -0.3591
  192MOL0     N26410  11.336   2.219   9.093  1.1471 -0.7209  0.4660
  192MOL0     C26411  11.408   2.962   9.840 -0.8724 -0.1615  0.1394
  192MOL0     C26412  11.399   3.077   9.920  0.0496  0.7248 -0.6015
  192MOL0     C26413  11.387   3.475  10.117 -0.3331 -0.2393  0.1858
  192MOL0     C26414  11.414   3.576  10.033  0.8158 -0.1141  0.5276
  192MOL0     C26415  11.375   3.703  10.073 -0.3020 -0.5537 -0.1678
  192MOL0     C26416  11.308   3.732  10.193  0.2841  1.0859  0.4120
  192MOL0     O26417  11.282   3.859  10.219  0.8884  0.1186  0.0298
  192MOL0     C26418  11.155   3.903  10.279  0.9353  0.0104 -0.3578
  192MOL0     C26419  11.155   3.931  10.424  0.8981 -1.0920  0.5690
  192MOL0     C26420  11.048   4.025  10.473  0.6980 -0.9923 -0.3133
  192MOL0     C26421  11.033   4.012  10.620  0.3015  0.2228  0.5379
  192MOL0     C26422  11.125   4.087  10.702  0.3947 -0.4328  0.0934
  192MOL0     C26423  11.218   4.114  10.773 -0.2112  0.9305  0.1183
  192MOL0     C26424  11.270   3.622  10.274 -0.3859 -0.4500  0.6345
  192MOL0     C26425  11.319   3.490  10.239 -0.2876 -0.9450 -0.2185
  192MOL0     C26426  11.290   3.370  10.334  0.1794 -0.7341 -0.3415
  192MOL0     H26427  11.559   3.301   9.705 -3.5771  2.1407  0.1040
  192MOL0     H26428  11.585   3.105   9.570  1.1727 -3.5605  1.1623
  192MOL0     H26429  11.617   2.835   9.491 -2.1010 -5.2154  1.0060
  192MOL0     H26430  11.505   2.964   9.436 -3.1084 -0.1736 -1.7024
  192MOL0     H26431  11.321   2.767   9.405 -0.0206  0.9732  1.1826
  192MOL0     H26432  11.440   2.787   9.289 -0.1494 -1.0269  0.3057
  192MOL0     H26433  11.440   2.573   9.326  1.2213 -1.1145  0.0479
  192MOL0     H26434  11.589   2.626   9.417  0.3596  2.0686 -0.8335
  192MOL0     H26435  11.485   2.547   9.619 -0.2561 -1.2576 -0.6854
  192MOL0     H26436  11.328   2.582   9.556 -0.0606  0.4322 -0.5285
  192MOL0     H26437  11.389   2.328   9.583  0.9707  1.2901  1.0703
  192MOL0     H26438  11.489   2.343   9.445 -0.1415 -2.9434  2.7085
  192MOL0     H26439  11.208   2.402   9.480  3.0893  0.3066  3.9639
  192MOL0     H26440  11.286   2.412   9.316 -0.1594 -2.6090 -0.9545
  192MOL0     H26441  11.154   2.187   9.345  0.1898 -2.1451  1.8736
  192MOL0     H26442  11.216   2.181   9.502 -2.9070 -2.7676 -0.4519
  192MOL0     H26443  11.444   2.131   9.394 -0.4519 -2.4375  1.6697
  192MOL0     H26444  11.313   2.032   9.309  0.5499 -0.9080  3.1258
  192MOL0     H26445  11.620   2.273   9.232  2.4160  3.1196 -3.5794
  192MOL0     H26446  11.638   2.369   8.900  0.1856 -0.5169  0.1871
  192MOL0     H26447  11.711   2.398   9.060 -1.7162  2.2000  3.0232
  192MOL0     H26448  11.491   2.598   9.027  1.3607  2.2489 -0.4625
  192MOL0     H26449  11.648   2.597   9.075 -0.9418  1.0608  1.2303
  192MOL0     H26450  11.553   2.596   8.781  3.6337 -4.5545 -2.5564
  192MOL0     H26451  11.606   2.732   8.886  2.1904 -0.5941 -0.5736
  192MOL0     H26452  11.826   2.620   8.868  1.4327  1.2023 -1.7921
  192MOL0     H26453  11.750   2.491   8.767 -3.3364 -1.7954  2.5896
  192MOL0     H26454  11.915   2.811   8.822 -0.7741 -1.1499  0.3871
  192MOL0     H26455  11.899   3.127   8.944 -0.7766 -0.3368 -1.2313
  192MOL0     H26456  12.035   3.132   8.836 -0.9844  2.1297  0.7703
  192MOL0     H26457  12.019   2.992   8.924 -2.4875 -2.2611 -0.3255
  192MOL0     H26458  11.491   3.459   8.579 -3.0135 -0.3508  2.7458
  192MOL0     H26459  11.502   3.710   8.584 -1.4398  2.0067  1.8079
  192MOL0     H26460  11.460   3.997   8.714  2.5402 -1.8216 -1.6927
  192MOL0     H26461  11.375   3.843   8.760  1.5655 -2.4346  0.9180
  192MOL0     H26462  11.389   3.882   8.990  1.2538  0.2605  2.6686
  192MOL0     H26463  11.523   3.997   8.966  0.8853 -1.8730 -0.1566
  192MOL0     H26464  11.225   4.017   8.875 -0.4942 -0.0105  2.7403
  192MOL0     H26465  11.342   4.154   8.870 -1.0932 -1.6280 -3.5824
  192MOL0     H26466  11.368   4.168   9.077 -0.3815 -1.2611  0.0682
  192MOL0     H26467  11.280   4.021   9.129 -0.2136  0.5066  0.3328
  192MOL0     H26468  11.171   4.264   9.007  3.1594 -0.7533  1.5502
  192MOL0     H26469  11.071   4.118   9.052 -0.0202 -0.9381  0.5712
  192MOL0     H26470  11.214   4.294   9.243 -1.7683  2.3119 -2.2491
  192MOL0     H26471  11.146   4.136   9.285  0.5830 -2.6314 -1.1649
  192MOL0     H26472  10.914   4.221   9.217  2.6742 -0.8521 -1.2259
  192MOL0     H26473  10.990   4.378   9.177 -0.1834  0.3763  1.4593
  192MOL0     H26474  10.899   4.385   9.417  0.9412  1.0761  0.2420
  192MOL0     H26475  11.078   4.403   9.415  2.3252 -2.1272  1.7541
  192MOL0     H26476  11.727   3.678   8.963 -0.7057  5.5226 -1.3317
  192MOL0     H26477  11.728   3.445   8.931  2.5182  0.3730 -1.6648
  192MOL0     H26478  11.610   3.080   8.555  0.3433 -0.5963 -0.8366
  192MOL0     H26479  11.604   2.845   8.543  0.1258 -2.9430  1.5979
  192MOL0     H26480  11.359   2.870   9.872  2.1692 -1.2314  2.3371
  192MOL0     H26481  11.348   3.068  10.016 -1.9167  0.5931 -1.6039
  192MOL0     H26482  11.471   3.566   9.941 -0.0626  3.0974 -0.4989
  192MOL0     H26483  11.402   3.791  10.015  1.4125  0.1354  1.5758
  192MOL0     H26484  11.141   3.995  10.222  0.7580  0.4311  0.3576
  192MOL0     H26485  11.079   3.830  10.250  1.2417 -0.2540 -0.5038
  192MOL0     H26486  11.252   3.982  10.426  1.4100 -2.0698  1.1765
  192MOL0     H26487  11.161   3.835  10.476  0.8697 -1.8214 -0.7111
  192MOL0     H26488  11.072   4.128  10.446  2.8410 -1.3293  0.1001
  192MOL0     H26489  10.949   3.995  10.437 -0.1796 -0.2121  1.3759
  192MOL0     H26490  11.027   3.907  10.648  2.8260 -0.0865  0.1903
  192MOL0     H26491  10.942   4.068  10.644 -0.5753 -0.6684 -0.5831
  192MOL0     H26492  11.300   4.136  10.839  0.8215 -1.3832 -0.2944
  192MOL0     H26493  11.208   3.635  10.362 -2.0879 -1.1234 -0.4120
  192MOL0     H26494  11.386   3.349  10.382 -0.0618 -1.7436 -0.2861
  192MOL0     H26495  11.217   3.411  10.404 -2.9598 -2.2658 -2.5161
  192MOL0     H26496  11.242   3.280  10.294 -1.6108  0.4789 -1.0643
  193MOL0     O26497   9.788   0.387   7.786  0.5569  0.3771  0.0270
  193MOL0     C26498   9.886   0.315   7.767  0.3775 -0.0443  0.3550
  193MOL0     O26499   9.987   0.288   7.853 -0.2355  0.2694 -0.5818
  193MOL0     C26500   9.997   0.358   7.965  1.1325 -0.5183  0.1712
  193MOL0     C26501  10.000   0.498   7.981  0.1205 -0.0347 -0.9574
  193MOL0     C26502  10.005   0.562   8.110 -0.3858  0.2571  0.1902
  193MOL0     C26503  10.023   0.482   8.227 -0.6798  0.2083 -0.4770
  193MOL0     O26504  10.030   0.511   8.362 -0.0476 -0.3802 -0.5063
  193MOL0     C26505   9.993   0.643   8.395  0.0378  0.6734 -1.1548
  193MOL0     C26506  10.103   0.749   8.392 -0.6462  0.4045  0.6744
  193MOL0     C26507  10.063   0.869   8.482 -0.3684  0.6885 -0.2075
  193MOL0     C26508   9.935   0.932   8.435 -0.0470 -0.7766 -0.0978
  193MOL0     C26509   9.895   1.050   8.529 -0.7854  0.6675  0.4502
  193MOL0     C26510   9.750   1.094   8.520  0.2739 -0.4268 -0.7723
  193MOL0     C26511   9.729   1.150   8.376 -0.7115 -0.1120  0.3446
  193MOL0     C26512   9.767   1.299   8.350 -0.5731 -0.2507  0.8165
  193MOL0     N26513   9.777   1.385   8.469 -0.0659 -0.2870 -0.3391
  193MOL0     C26514   9.897   1.420   8.523 -0.8525  0.0940  1.0071
  193MOL0     C26515   9.876   1.483   8.639  0.3799 -0.3553  0.4010
  193MOL0     C26516   9.983   1.522   8.735  0.0760 -0.2122 -0.7073
  193MOL0     C26517   9.953   1.628   8.840 -0.2119  0.1797  0.0728
  193MOL0     C26518  10.078   1.662   8.923  0.7867  0.5264  0.8276
  193MOL0     C26519  10.056   1.764   9.026  0.9246 -0.1326  0.2015
  193MOL0     O26520  10.170   1.754   9.107 -1.0708  0.0280  0.0884
  193MOL0     C26521  10.188   1.828   9.221  0.0883 -1.0105  0.4003
  193MOL0     C26522  10.076   1.873   9.300  0.0569 -0.1863 -0.2318
  193MOL0     C26523  10.098   1.950   9.428 -0.7651 -0.3791 -0.2003
  193MOL0     C26524   9.973   1.985   9.516  0.7784 -0.5738 -0.2009
  193MOL0     C26525  10.231   1.987   9.461 -0.1478 -0.7810  0.7050
  193MOL0     C26526  10.263   2.075   9.578  0.0801  0.5257  0.5477
  193MOL0     O26527  10.382   2.039   9.636 -0.2386 -0.3429  0.4631
  193MOL0     C26528  10.444   2.110   9.730  0.6753  0.3621  0.8157
  193MOL0     C26529  10.375   2.177   9.832  0.2924  0.2019  0.2912
  193MOL0     C26530  10.446   2.235   9.937  0.5116 -0.1469  0.1483
  193MOL0     C26531  10.588   2.249   9.926 -1.1727 -0.0604 -0.2741
  193MOL0     O26532  10.661   2.311  10.020 -0.1969  0.4656 -0.3275
  193MOL0     C26533  10.675   2.229  10.136 -0.0370  0.1413  0.3533
  193MOL0     C26534  10.793   2.284  10.224  0.2136  0.2168 -0.4892
  193MOL0     C26535  10.747   2.386  10.327  0.3714  0.0346 -0.2936
  193MOL0     C26536  10.868   2.418  10.417  0.7134 -1.2570 -0.8892
  193MOL0     C26537  10.819   2.534  10.521 -0.5380  0.7459  0.8437
  193MOL0     C26538  10.921   2.556  10.631 -0.8690  0.5743  0.0091
  193MOL0     C26539  10.887   2.677  10.717 -0.8945  0.7618  0.8978
  193MOL0     C26540  10.742   2.687  10.746  0.0486 -0.5229  0.2101
  193MOL0    Cl26541  10.663   2.767  10.612  0.0477  0.2092 -0.1544
  193MOL0     C26542  10.652   2.173   9.821 -0.1144 -0.5050  0.5182
  193MOL0     C26543  10.580   2.104   9.735  0.3345 -0.6383 -0.0747
  193MOL0     O26544  10.193   2.169   9.604  0.2752  0.2844  0.3189
  193MOL0     C26545  10.343   1.945   9.378  0.0452 -0.0950 -0.6368
  193MOL0     C26546  10.319   1.870   9.268  0.1576  0.2816  1.0584
  193MOL0     N26547   9.740   1.493   8.661  0.5840 -0.4212 -0.7397
  193MOL0     N26548   9.685   1.438   8.557  0.0277 -0.3625  0.4982
  193MOL0     C26549  10.043   0.341   8.208  0.4420 -0.1913 -0.9111
  193MOL0     C26550  10.033   0.285   8.081  0.1446 -0.2441 -0.2922
  193MOL0     C26551   9.900   0.273   7.629  0.0323  0.1017 -1.1815
  193MOL0     C26552   9.996   0.322   7.546 -0.7840 -0.8056  0.8018
  193MOL0     C26553  10.020   0.284   7.420 -1.2254 -0.8505 -0.3455
  193MOL0     C26554   9.949   0.176   7.366  0.1995 -0.3888 -0.4006
  193MOL0     O26555   9.978   0.161   7.241  0.8336  0.3717  0.0764
  193MOL0     C26556   9.903   0.075   7.152 -0.2715 -0.3955 -0.5902
  193MOL0     C26557   9.761   0.112   7.108 -0.6196  0.0917 -0.3439
  193MOL0     C26558   9.771   0.178   6.970 -0.5635 -0.4773 -0.0691
  193MOL0     C26559   9.796   0.323   6.970 -0.4786 -0.3800  0.4701
  193MOL0     C26560   9.837   0.380   6.838  0.8952  0.6740 -0.4031
  193MOL0     C26561   9.858   0.402   6.722 -0.4700  0.9192  0.6158
  193MOL0     C26562   9.847   0.120   7.446 -0.2825 -0.4320  0.4592
  193MOL0     C26563   9.825   0.166   7.574 -0.2155 -0.7467  0.2204
  193MOL0     C26564   9.703   0.100   7.639 -0.6164  0.9551  0.1233
  193MOL0     H26565   9.994   0.564   7.895 -0.0081 -0.7712 -1.5360
  193MOL0     H26566  10.001   0.670   8.112 -0.1747  0.5105 -3.9163
  193MOL0     H26567   9.945   0.641   8.493 -0.1562  2.2197 -1.2020
  193MOL0     H26568   9.907   0.662   8.331 -1.6396 -2.3339  0.0130
  193MOL0     H26569  10.202   0.710   8.418  0.6424  1.1385 -2.6213
  193MOL0     H26570  10.108   0.778   8.286  0.3752 -2.5229 -0.1785
  193MOL0     H26571  10.053   0.827   8.582  0.2870 -0.4913 -0.6142
  193MOL0     H26572  10.144   0.942   8.496 -0.5082  0.5073  1.6954
  193MOL0     H26573   9.948   0.944   8.327  0.2329 -2.6878 -0.3098
  193MOL0     H26574   9.850   0.864   8.438 -0.9373  0.2954 -0.2811
  193MOL0     H26575   9.959   1.134   8.501  1.2499 -1.3418 -1.3418
  193MOL0     H26576   9.899   1.013   8.632 -2.6730 -0.7815  0.0512
  193MOL0     H26577   9.692   1.002   8.530 -0.5953 -0.1395 -2.7857
  193MOL0     H26578   9.704   1.156   8.597  1.0744  3.3118 -3.0156
  193MOL0     H26579   9.621   1.136   8.362 -0.5473  0.3424 -1.6746
  193MOL0     H26580   9.752   1.087   8.290  0.0668  0.1925  0.3284
  193MOL0     H26581   9.857   1.313   8.289 -0.5085  0.4428  1.0632
  193MOL0     H26582   9.690   1.341   8.283  0.3112 -1.8542 -1.3251
  193MOL0     H26583   9.999   1.410   8.488  1.4279  0.3971  6.5280
  193MOL0     H26584  10.074   1.554   8.683  1.4441  3.1326  3.1122
  193MOL0     H26585  10.006   1.421   8.772 -1.4028 -0.6428 -0.9355
  193MOL0     H26586   9.923   1.725   8.800  2.2918  2.0315  2.2978
  193MOL0     H26587   9.875   1.594   8.910  2.3359 -0.5779  2.7369
  193MOL0     H26588  10.104   1.580   8.990  2.5214 -0.2116 -0.6831
  193MOL0     H26589  10.163   1.695   8.862  1.5615 -1.8671  0.5384
  193MOL0     H26590  10.057   1.862   8.978 -1.1341  0.1511  0.6418
  193MOL0     H26591   9.967   1.744   9.087  1.0928  2.4682  1.4281
  193MOL0     H26592   9.973   1.858   9.269 -0.4571 -0.9444  1.7161
  193MOL0     H26593   9.903   2.035   9.448  3.6990  0.9094 -2.3567
  193MOL0     H26594   9.992   2.054   9.599  0.7063  0.5889 -1.1184
  193MOL0     H26595   9.928   1.891   9.549 -0.5926 -0.2069 -0.9206
  193MOL0     H26596  10.271   2.205   9.818  0.3743 -0.7455 -3.0918
  193MOL0     H26597  10.395   2.286  10.018  1.5095 -0.0361  0.7216
  193MOL0     H26598  10.579   2.245  10.188 -0.6183  1.8893 -1.1210
  193MOL0     H26599  10.695   2.122  10.134 -0.3577  0.0653  0.9486
  193MOL0     H26600  10.831   2.196  10.277  0.8932  2.0215  2.2035
  193MOL0     H26601  10.877   2.337  10.178  0.9304  0.5577  1.1272
  193MOL0     H26602  10.670   2.343  10.391  0.6521  1.6036  1.1704
  193MOL0     H26603  10.708   2.476  10.279  1.1220  0.3273 -0.3689
  193MOL0     H26604  10.950   2.465  10.363  1.0871  0.9983  1.4517
  193MOL0     H26605  10.897   2.321  10.460  0.0253 -1.1759 -0.2097
  193MOL0     H26606  10.796   2.629  10.473 -1.7198 -0.1187 -0.3345
  193MOL0     H26607  10.724   2.503  10.565 -0.0848 -2.2799 -0.0446
  193MOL0     H26608  11.026   2.557  10.599  0.0693  4.6982  2.5201
  193MOL0     H26609  10.916   2.479  10.709  3.2452  0.1625  0.0941
  193MOL0     H26610  10.937   2.767  10.681 -0.7908  0.6733  0.8177
  193MOL0     H26611  10.935   2.661  10.815  1.2982 -1.8669 -0.4538
  193MOL0     H26612  10.714   2.735  10.840  0.6764 -0.8418  0.5629
  193MOL0     H26613  10.699   2.587  10.749 -1.2052 -0.0897 -1.5500
  193MOL0     H26614  10.758   2.188   9.809 -0.4620  4.0084  1.3663
  193MOL0     H26615  10.648   2.062   9.662  1.1352  1.5183 -0.6670
  193MOL0     H26616  10.442   1.984   9.397 -0.8902  1.2826  1.9868
  193MOL0     H26617  10.398   1.849   9.197 -0.5887 -1.9470  0.7999
  193MOL0     H26618  10.065   0.275   8.291  0.0957 -1.3893 -1.7406
  193MOL0     H26619  10.049   0.178   8.070  1.1039 -0.1508  0.0423
  193MOL0     H26620  10.056   0.399   7.593  1.6965 -1.9628 -0.2994
  193MOL0     H26621  10.099   0.325   7.358 -2.3688 -1.3837 -2.2549
  193MOL0     H26622   9.953   0.064   7.056 -1.0147  1.2511 -1.2040
  193MOL0     H26623   9.904  -0.021   7.204  6.8695 -0.4462  0.1184
  193MOL0     H26624   9.714   0.179   7.180  2.8347  2.7241 -0.2460
  193MOL0     H26625   9.704   0.019   7.097 -2.0846  1.0271 -0.9434
  193MOL0     H26626   9.848   0.132   6.907  2.5897  1.7274  1.8458
  193MOL0     H26627   9.676   0.170   6.917 -0.4783  1.2301 -0.5455
  193MOL0     H26628   9.867   0.349   7.049  0.4532 -4.2626  1.1273
  193MOL0     H26629   9.704   0.378   6.994 -0.0607  0.4135  0.2988
  193MOL0     H26630   9.876   0.421   6.618 -1.8820  0.7735  0.3211
  193MOL0     H26631   9.786   0.036   7.414  4.0201 -3.5582 -0.4101
  193MOL0     H26632   9.683   0.113   7.745 -0.9179  0.7842  0.0865
  193MOL0     H26633   9.624   0.149   7.581  0.3490  0.8065 -1.3913
  193MOL0     H26634   9.698  -0.007   7.621 -3.3226  0.9068  0.8581
  194MOL0     O26635   6.162   9.075   2.273 -0.3751 -0.3753  0.6358
  194MOL0     C26636   6.162   9.194   2.286 -0.6229 -0.9910  0.0811
  194MOL0     O26637   6.094   9.266   2.381 -0.1743 -0.7452  0.7833
  194MOL0     C26638   6.054   9.191   2.494 -0.1535 -0.0887 -0.6722
  194MOL0     C26639   6.117   9.082   2.562  0.6270  0.7021 -0.0013
  194MOL0     C26640   6.049   9.012   2.658  0.3588  0.0449  0.3138
  194MOL0     C26641   5.918   9.046   2.696 -0.7517  0.0203  0.1239
  194MOL0     O26642   5.851   8.964   2.785  0.6189  0.0277 -0.2211
  194MOL0     C26643   5.723   8.997   2.847 -0.1780  0.3782  0.3214
  194MOL0     C26644   5.702   8.896   2.962  0.8759  0.4969  0.3419
  194MOL0     C26645   5.570   8.899   3.029 -0.6062  0.5773 -1.3180
  194MOL0     C26646   5.578   8.840   3.174  0.1974 -0.2368  0.7930
  194MOL0     C26647   5.444   8.856   3.241 -0.5241  0.6200  0.7501
  194MOL0     C26648   5.405   8.999   3.290  0.6238 -0.0797  0.1145
  194MOL0     C26649   5.308   9.005   3.408  0.1093  0.8409  0.6065
  194MOL0     C26650   5.255   9.145   3.462 -0.1311  0.8271  0.1846
  194MOL0     N26651   5.151   9.206   3.377 -0.4124 -0.3786  0.1669
  194MOL0     C26652   5.032   9.266   3.414 -0.6513  0.1958  0.0549
  194MOL0     C26653   4.986   9.333   3.301 -1.0327 -0.0325  0.4600
  194MOL0     C26654   4.851   9.393   3.279 -0.0353 -0.2652  0.0993
  194MOL0     C26655   4.744   9.283   3.268  0.2569 -0.3760  0.1857
  194MOL0     C26656   4.801   9.172   3.174 -0.2810  1.2410  0.0711
  194MOL0     C26657   4.693   9.081   3.126  0.4577  0.9410  1.0708
  194MOL0     O26658   4.645   9.013   3.239 -0.8350 -0.0587  1.0728
  194MOL0     C26659   4.716   8.904   3.289 -0.0691 -0.2947  1.0015
  194MOL0     C26660   4.753   8.789   3.202 -1.2068 -0.3546 -0.9692
  194MOL0     C26661   4.861   8.700   3.250 -0.4934 -0.5126  0.5981
  194MOL0     C26662   4.887   8.588   3.152  1.2461  0.1917 -0.3888
  194MOL0     C26663   4.913   8.724   3.378 -0.7479 -0.1593 -0.3194
  194MOL0     C26664   5.022   8.637   3.434 -0.3500  0.2301  0.6201
  194MOL0     O26665   5.068   8.670   3.558 -0.2814  0.0398 -0.4014
  194MOL0     C26666   5.172   8.596   3.599  0.1596 -0.4192  0.5993
  194MOL0     C26667   5.159   8.478   3.671  0.0530 -0.0922 -0.1638
  194MOL0     C26668   5.271   8.407   3.720  0.3799  0.1219  0.5652
  194MOL0     C26669   5.403   8.450   3.686  0.2258 -0.1644 -0.0822
  194MOL0     O26670   5.503   8.372   3.737  0.6864 -0.0870 -0.0813
  194MOL0     C26671   5.596   8.319   3.646 -0.2661  0.2648  0.6590
  194MOL0     C26672   5.662   8.183   3.693 -0.5118 -0.4873 -0.4780
  194MOL0     C26673   5.551   8.094   3.739 -0.9084  0.3905 -0.5088
  194MOL0     C26674   5.451   8.041   3.633 -0.4429  0.0379  0.1214
  194MOL0     C26675   5.367   7.912   3.677 -0.2459 -0.0235  0.0857
  194MOL0     C26676   5.323   7.919   3.828  0.0858  0.6375 -0.4790
  194MOL0     C26677   5.224   8.039   3.857 -0.0500  0.1396 -0.5071
  194MOL0     C26678   5.115   8.007   3.972  0.6971  0.1153  0.3100
  194MOL0    Cl26679   5.014   8.153   3.993 -0.0655 -0.3058 -0.4784
  194MOL0     C26680   5.416   8.563   3.601  0.4661  1.1740  1.0413
  194MOL0     C26681   5.305   8.641   3.565  0.6773  0.3470  1.6242
  194MOL0     O26682   5.080   8.551   3.359  0.5022 -0.1671 -1.1045
  194MOL0     C26683   4.862   8.824   3.463 -0.0586  0.2993  0.2744
  194MOL0     C26684   4.759   8.908   3.423 -0.2185 -0.0054 -0.4484
  194MOL0     N26685   5.077   9.310   3.202  0.3371 -0.3387 -0.5819
  194MOL0     N26686   5.167   9.228   3.247 -0.4193  0.1869 -0.6843
  194MOL0     C26687   5.855   9.149   2.632  0.5205 -0.8397  0.3461
  194MOL0     C26688   5.923   9.222   2.541 -0.7145 -0.1947 -1.8549
  194MOL0     C26689   6.212   9.266   2.161  0.2675  0.6286  0.2535
  194MOL0     C26690   6.188   9.401   2.143 -0.1308 -0.0659  0.2085
  194MOL0     C26691   6.208   9.469   2.024 -0.7789 -0.4967 -0.1730
  194MOL0     C26692   6.254   9.401   1.913  0.6491  0.6477  0.8125
  194MOL0     O26693   6.265   9.467   1.794  1.0114 -0.9751  0.0323
  194MOL0     C26694   6.389   9.516   1.786 -0.6010  0.9272  0.4373
  194MOL0     C26695   6.419   9.559   1.645  0.1433  0.4608 -0.1700
  194MOL0     C26696   6.535   9.660   1.641 -0.2896 -0.4061  0.1507
  194MOL0     C26697   6.571   9.687   1.483  0.6082 -0.2163  0.7448
  194MOL0     C26698   6.666   9.796   1.476  0.4031  0.8741 -0.1443
  194MOL0     C26699   6.744   9.882   1.442 -0.8235 -0.0090  0.3037
  194MOL0     C26700   6.308   9.272   1.934  0.8373  0.7727 -0.5832
  194MOL0     C26701   6.276   9.196   2.054  0.0003 -0.1571  0.6882
  194MOL0     C26702   6.313   9.045   2.051  0.0322 -0.5776  0.2672
  194MOL0     H26703   6.219   9.053   2.543  0.5015  0.1716  0.1204
  194MOL0     H26704   6.094   8.923   2.701  0.0808 -0.4735 -0.4468
  194MOL0     H26705   5.656   8.970   2.764  2.9548 -2.1616 -1.6091
  194MOL0     H26706   5.709   9.099   2.884  2.1251  0.5980  0.6886
  194MOL0     H26707   5.714   8.794   2.925 -2.7961 -0.9567  2.5628
  194MOL0     H26708   5.786   8.907   3.031  1.4268  0.4560 -0.3132
  194MOL0     H26709   5.541   9.004   3.043  0.3337  0.8933 -1.6628
  194MOL0     H26710   5.502   8.855   2.956  0.3903 -0.5861 -1.5688
  194MOL0     H26711   5.602   8.737   3.147 -0.2988  0.2789 -1.8817
  194MOL0     H26712   5.666   8.883   3.223  1.1200 -0.0530 -0.9436
  194MOL0     H26713   5.447   8.785   3.324  1.9325  0.2360  0.3920
  194MOL0     H26714   5.367   8.823   3.171  0.9007 -0.0489 -0.5437
  194MOL0     H26715   5.490   9.049   3.337 -2.1481  0.0573  6.0115
  194MOL0     H26716   5.375   9.048   3.197  2.0805  0.0308 -0.3239
  194MOL0     H26717   5.355   8.959   3.495 -2.9970  0.6099  2.2731
  194MOL0     H26718   5.227   8.937   3.382  0.0557  1.9571 -2.7322
  194MOL0     H26719   5.220   9.128   3.565  2.6343  2.2060  1.4523
  194MOL0     H26720   5.342   9.210   3.474 -0.3620  0.6915  3.4274
  194MOL0     H26721   4.968   9.253   3.500  1.3250 -1.4766  1.3531
  194MOL0     H26722   4.858   9.445   3.183  0.6399  2.6075  1.6057
  194MOL0     H26723   4.834   9.464   3.361  2.9553  2.0592 -1.0730
  194MOL0     H26724   4.730   9.243   3.369 -1.1713 -1.1780 -0.3026
  194MOL0     H26725   4.646   9.317   3.235 -1.0547 -0.1751  3.7973
  194MOL0     H26726   4.842   9.224   3.087  0.4068 -1.4687 -1.3354
  194MOL0     H26727   4.883   9.112   3.213  1.6604  1.2293 -3.6330
  194MOL0     H26728   4.611   9.137   3.078  2.6240  2.2232 -1.3728
  194MOL0     H26729   4.730   9.011   3.052 -0.8923  1.8785 -0.5852
  194MOL0     H26730   4.702   8.780   3.106 -1.2841  3.1151 -1.3657
  194MOL0     H26731   4.833   8.499   3.184 -0.9016  0.0483 -3.8976
  194MOL0     H26732   4.987   8.544   3.144  0.3655 -1.8127 -1.0341
  194MOL0     H26733   4.849   8.617   3.054 -2.3276 -0.4196  0.6844
  194MOL0     H26734   5.057   8.448   3.697  0.4876 -1.2817  0.2210
  194MOL0     H26735   5.247   8.320   3.781  1.2172  0.1963  1.0173
  194MOL0     H26736   5.543   8.303   3.552  0.7796  0.1091  0.0887
  194MOL0     H26737   5.677   8.391   3.639 -2.8462  3.2401 -2.1455
  194MOL0     H26738   5.714   8.126   3.616  1.6465 -1.6203  1.6601
  194MOL0     H26739   5.737   8.206   3.770  0.0570  1.2251 -1.4762
  194MOL0     H26740   5.499   8.154   3.814  1.1847  1.5123  0.1305
  194MOL0     H26741   5.605   8.011   3.785 -2.0820 -0.0294  0.1512
  194MOL0     H26742   5.497   8.004   3.541  2.0454  0.8732  0.9594
  194MOL0     H26743   5.372   8.112   3.608 -1.0177 -0.9342 -0.9272
  194MOL0     H26744   5.270   7.919   3.628 -1.6639  0.2905  2.7617
  194MOL0     H26745   5.423   7.822   3.647  0.4961 -0.0809  1.5462
  194MOL0     H26746   5.406   7.930   3.897  0.3745  0.2429 -0.7592
  194MOL0     H26747   5.281   7.823   3.860  1.8230 -0.5532 -1.5986
  194MOL0     H26748   5.169   8.061   3.765 -3.3694 -0.4634  1.1489
  194MOL0     H26749   5.286   8.125   3.883  1.2276  0.4429 -4.0272
  194MOL0     H26750   5.166   7.981   4.066  0.3167  0.6282  0.6657
  194MOL0     H26751   5.047   7.925   3.951  0.3222  0.5171 -0.0668
  194MOL0     H26752   5.515   8.586   3.563 -0.6727  4.4399 -0.3620
  194MOL0     H26753   5.304   8.711   3.482  1.1533 -0.7016  0.7064
  194MOL0     H26754   4.890   8.840   3.567 -0.1853  0.0178  0.3515
  194MOL0     H26755   4.739   8.999   3.478  2.5268  2.8419 -3.6372
  194MOL0     H26756   5.760   9.177   2.675  1.5894  1.3140  1.4569
  194MOL0     H26757   5.882   9.315   2.504  1.7676  1.5948 -0.4094
  194MOL0     H26758   6.157   9.450   2.234  0.2911  0.1436  0.2411
  194MOL0     H26759   6.204   9.577   2.028  1.2678 -0.4229  1.6919
  194MOL0     H26760   6.388   9.600   1.856 -1.4659  2.5330 -1.4216
  194MOL0     H26761   6.465   9.446   1.823  0.0940 -0.3319 -2.9417
  194MOL0     H26762   6.338   9.580   1.574  0.4177  3.4654  0.2543
  194MOL0     H26763   6.458   9.463   1.611 -0.1889  0.3949 -0.3732
  194MOL0     H26764   6.523   9.757   1.691  1.0447  0.9347 -1.9669
  194MOL0     H26765   6.622   9.614   1.689 -0.2432 -1.0519 -0.5434
  194MOL0     H26766   6.474   9.705   1.436 -0.8406 -2.0873  2.7790
  194MOL0     H26767   6.615   9.598   1.438 -3.7008 -3.4381  2.2036
  194MOL0     H26768   6.795   9.968   1.405 -2.4606  1.7190  1.8407
  194MOL0     H26769   6.337   9.212   1.849  2.7643  0.3408  0.3217
  194MOL0     H26770   6.363   9.021   1.956  1.4390  2.2670  0.2027
  194MOL0     H26771   6.381   9.022   2.133  1.3164  0.8293 -0.3473
  194MOL0     H26772   6.233   8.970   2.053 -0.1833 -0.4296 -1.2048
  195MOL0     O26773   1.664   0.651   3.910  0.3444  0.7981  0.2689
  195MOL0     C26774   1.714   0.545   3.941  0.8280 -0.2823  0.1814
  195MOL0     O26775   1.702   0.435   3.853  0.0051  0.2839  0.2328
  195MOL0     C26776   1.726   0.448   3.714 -0.0189  0.0312 -0.5984
  195MOL0     C26777   1.828   0.379   3.654 -0.6104  0.3056 -0.1013
  195MOL0     C26778   1.839   0.374   3.519 -0.9082 -0.4912 -0.4060
  195MOL0     C26779   1.758   0.445   3.436 -0.9297 -0.2663 -0.1481
  195MOL0     O26780   1.767   0.445   3.296 -0.4438 -0.5159 -0.1277
  195MOL0     C26781   1.866   0.363   3.222 -0.0040 -0.1447  0.2738
  195MOL0     C26782   1.864   0.396   3.068 -0.3263 -0.0080 -0.5715
  195MOL0     C26783   1.954   0.315   2.984  0.2032  0.1403  0.1974
  195MOL0     C26784   1.885   0.188   2.934 -0.4056  0.4856 -0.0193
  195MOL0     C26785   1.945   0.159   2.794  0.0589  0.4727 -0.6174
  195MOL0     C26786   1.890   0.034   2.739 -0.7907 -0.3255  0.8153
  195MOL0     C26787   1.745   0.056   2.681  0.6792 -0.3340 -0.3058
  195MOL0     C26788   1.701  -0.065   2.604 -0.4974  0.5878 -0.1635
  195MOL0     N26789   1.679  -0.175   2.705  0.1781 -0.4424  0.4097
  195MOL0     C26790   1.766  -0.283   2.730  0.8459  0.2680 -0.0672
  195MOL0     C26791   1.692  -0.370   2.808  0.0626  0.1968  0.4189
  195MOL0     C26792   1.731  -0.513   2.850 -0.1474 -0.3288  0.2955
  195MOL0     C26793   1.637  -0.621   2.800  0.5231 -0.0786  0.2065
  195MOL0     C26794   1.637  -0.638   2.647 -0.1092 -0.4925 -1.3491
  195MOL0     C26795   1.499  -0.696   2.583  0.0323  0.3734  1.3732
  195MOL0     O26796   1.508  -0.677   2.440 -0.3063 -0.0483  0.2786
  195MOL0     C26797   1.389  -0.692   2.375  0.3355  0.2300  0.4723
  195MOL0     C26798   1.395  -0.670   2.239 -0.4865 -0.6355  1.1822
  195MOL0     C26799   1.288  -0.684   2.147 -0.3620  0.4245  0.2320
  195MOL0     C26800   1.318  -0.665   1.997 -0.4929 -0.2839  0.4812
  195MOL0     C26801   1.159  -0.705   2.195 -0.1506 -0.7457 -0.3772
  195MOL0     C26802   1.036  -0.731   2.121  0.0668  0.5686  0.6115
  195MOL0     O26803   0.922  -0.746   2.198 -0.1160 -0.1540  0.4467
  195MOL0     C26804   0.803  -0.757   2.123 -0.3904 -0.7057 -0.1010
  195MOL0     C26805   0.696  -0.666   2.136  0.6041 -0.4802 -0.9348
  195MOL0     C26806   0.582  -0.675   2.063 -0.7748  0.1182  0.1531
  195MOL0     C26807   0.565  -0.779   1.984  0.9736  0.6072 -1.0077
  195MOL0     O26808   0.443  -0.799   1.926  0.2716 -0.0033  0.4082
  195MOL0     C26809   0.433  -0.742   1.791 -0.3383  0.0396 -0.1101
  195MOL0     C26810   0.332  -0.629   1.792 -0.1630 -0.1983 -0.0764
  195MOL0     C26811   0.195  -0.682   1.864  0.6317  1.0468 -0.1020
  195MOL0     C26812   0.074  -0.641   1.792  0.0425  0.6844 -0.0370
  195MOL0     C26813  -0.041  -0.639   1.891  0.1455 -0.0979  0.1031
  195MOL0     C26814  -0.169  -0.662   1.810 -0.4183 -0.6288  1.2139
  195MOL0     C26815  -0.282  -0.611   1.900  0.0343 -0.4958  0.4054
  195MOL0     C26816  -0.413  -0.628   1.822 -0.5956  0.9895  0.3467
  195MOL0    Cl26817  -0.436  -0.802   1.799 -0.3306 -0.2589  0.4754
  195MOL0     C26818   0.673  -0.868   1.962 -0.0039 -0.8655 -0.0084
  195MOL0     C26819   0.785  -0.863   2.035 -0.6877 -0.4931  0.9192
  195MOL0     O26820   1.039  -0.721   1.997 -0.1961  0.2074 -0.3138
  195MOL0     C26821   1.153  -0.733   2.338  0.1812 -0.6139  0.4619
  195MOL0     C26822   1.258  -0.727   2.427 -1.2884 -0.0017 -0.6330
  195MOL0     N26823   1.577  -0.302   2.841 -0.4246 -0.3106 -0.6423
  195MOL0     N26824   1.570  -0.182   2.779 -0.2461 -0.0144  0.6365
  195MOL0     C26825   1.655   0.521   3.484  0.0958  0.7017 -0.7140
  195MOL0     C26826   1.647   0.526   3.624  0.1234  0.4824  0.0579
  195MOL0     C26827   1.746   0.521   4.078  0.4062  1.3976  0.7728
  195MOL0     C26828   1.729   0.390   4.128 -0.1246  0.1636  0.4610
  195MOL0     C26829   1.788   0.353   4.252 -0.3930  0.3679  0.5709
  195MOL0     C26830   1.847   0.448   4.338 -0.0272 -0.7804  0.8339
  195MOL0     O26831   1.911   0.430   4.462  0.3550 -0.2900  0.4975
  195MOL0     C26832   1.884   0.299   4.524  0.6605 -0.7964  0.1366
  195MOL0     C26833   1.924   0.308   4.672 -1.2662 -0.1791  0.4606
  195MOL0     C26834   2.079   0.292   4.672 -0.0836  0.1233 -0.5499
  195MOL0     C26835   2.115   0.141   4.680  0.0122  0.7303  0.5976
  195MOL0     C26836   2.237   0.102   4.611 -0.3599  0.8217 -0.4463
  195MOL0     C26837   2.342   0.068   4.555  0.1394  0.4568 -0.8184
  195MOL0     C26838   1.852   0.581   4.288 -0.4179  0.1563  0.6249
  195MOL0     C26839   1.795   0.622   4.165 -0.1836  0.0808  0.0613
  195MOL0     C26840   1.817   0.770   4.127  0.2011  0.9444  0.6682
  195MOL0     H26841   1.866   0.303   3.722 -0.4801 -0.4631 -1.0117
  195MOL0     H26842   1.916   0.314   3.470  0.1816  2.0652 -2.0795
  195MOL0     H26843   1.829   0.261   3.235  3.5525 -1.7644 -1.0674
  195MOL0     H26844   1.965   0.377   3.267 -0.1055  1.3335  0.1143
  195MOL0     H26845   1.758   0.389   3.039 -0.8211 -0.8234  1.2850
  195MOL0     H26846   1.897   0.499   3.052  1.5994 -0.2772  1.2984
  195MOL0     H26847   1.980   0.362   2.889 -1.2187 -2.3768 -1.5720
  195MOL0     H26848   2.042   0.289   3.044 -1.2134 -0.3755  2.1702
  195MOL0     H26849   1.898   0.116   3.015 -2.9332  1.3346  1.2455
  195MOL0     H26850   1.778   0.205   2.918 -0.5198 -0.6027 -0.5210
  195MOL0     H26851   2.054   0.147   2.805 -0.1487  0.3591  2.0859
  195MOL0     H26852   1.924   0.242   2.726  2.0246  0.6289 -1.1085
  195MOL0     H26853   1.958  -0.002   2.661  0.3796  1.0006  1.1689
  195MOL0     H26854   1.886  -0.047   2.812 -2.8865 -0.2882  0.8069
  195MOL0     H26855   1.741   0.145   2.618  0.1896 -0.8666 -1.0481
  195MOL0     H26856   1.683   0.078   2.768  3.1871  0.8461  1.2948
  195MOL0     H26857   1.612  -0.064   2.541 -1.2109 -0.7819  0.7713
  195MOL0     H26858   1.773  -0.095   2.527  1.6629 -0.5579  2.1638
  195MOL0     H26859   1.866  -0.307   2.696  0.3736 -0.8563 -0.7071
  195MOL0     H26860   1.747  -0.520   2.959  1.5231  2.6779  0.3624
  195MOL0     H26861   1.829  -0.539   2.810  0.2705  0.4251  0.8146
  195MOL0     H26862   1.665  -0.717   2.845  4.5357 -1.2112 -3.8829
  195MOL0     H26863   1.539  -0.590   2.837  1.8849  3.9714  0.9276
  195MOL0     H26864   1.634  -0.538   2.601  1.5481 -0.1967 -0.8752
  195MOL0     H26865   1.716  -0.702   2.607 -0.6436 -2.8155  1.0549
  195MOL0     H26866   1.491  -0.804   2.594  0.5437  0.2293  0.4257
  195MOL0     H26867   1.416  -0.646   2.634  1.2825  0.4875  3.4066
  195MOL0     H26868   1.493  -0.641   2.202  0.5345 -2.0196  2.6560
  195MOL0     H26869   1.259  -0.581   1.959  0.9116 -0.2140 -1.7184
  195MOL0     H26870   1.289  -0.750   1.934 -2.0387 -0.1165  0.9269
  195MOL0     H26871   1.424  -0.648   1.979 -0.2351 -1.5248  0.7049
  195MOL0     H26872   0.685  -0.586   2.209  0.2072 -1.5319  0.1916
  195MOL0     H26873   0.498  -0.612   2.090 -2.9324 -2.9772  1.1989
  195MOL0     H26874   0.533  -0.711   1.760 -1.2822  3.2393 -0.3045
  195MOL0     H26875   0.394  -0.820   1.724  3.0202  0.4337 -2.8136
  195MOL0     H26876   0.377  -0.542   1.840 -0.7136  0.5031 -0.7978
  195MOL0     H26877   0.325  -0.606   1.685  2.4504 -1.6802 -0.6486
  195MOL0     H26878   0.194  -0.636   1.963  2.4343 -2.1594  1.5785
  195MOL0     H26879   0.197  -0.791   1.865  0.9078  1.0001 -1.8430
  195MOL0     H26880   0.057  -0.701   1.703  1.6023  2.0689 -1.3248
  195MOL0     H26881   0.095  -0.542   1.751  2.2619 -0.4125 -1.7112
  195MOL0     H26882  -0.026  -0.713   1.970 -1.4958 -1.7065 -1.0187
  195MOL0     H26883  -0.047  -0.537   1.930 -2.2857  0.2833 -1.0655
  195MOL0     H26884  -0.180  -0.769   1.794  0.1046 -0.5489  0.2371
  195MOL0     H26885  -0.166  -0.610   1.713  0.0456  2.8456  2.9343
  195MOL0     H26886  -0.270  -0.506   1.929 -1.4626  0.0244 -0.7165
  195MOL0     H26887  -0.284  -0.671   1.992 -0.6798 -2.8300 -1.0733
  195MOL0     H26888  -0.415  -0.596   1.717 -0.7897 -1.3751 -0.4275
  195MOL0     H26889  -0.507  -0.588   1.862 -0.9718 -0.0031  0.4625
  195MOL0     H26890   0.657  -0.960   1.906 -0.1193 -0.0562 -1.3408
  195MOL0     H26891   0.858  -0.939   2.010  1.7045  1.4904  1.4344
  195MOL0     H26892   1.064  -0.761   2.393 -0.7657 -0.0435 -0.7373
  195MOL0     H26893   1.243  -0.732   2.534  1.5620 -0.5786 -0.2022
  195MOL0     H26894   1.591   0.570   3.412  0.8704 -0.3339 -2.1390
  195MOL0     H26895   1.563   0.574   3.673 -0.2272 -1.7853  1.8485
  195MOL0     H26896   1.681   0.320   4.060  1.2600  0.7338 -1.1626
  195MOL0     H26897   1.772   0.249   4.277 -2.1844  0.1372 -1.2449
  195MOL0     H26898   1.775   0.286   4.522  0.4126  0.9448  0.5370
  195MOL0     H26899   1.932   0.217   4.471  5.2833  1.1985  0.7536
  195MOL0     H26900   1.883   0.235   4.742  1.8186 -3.1979 -0.6075
  195MOL0     H26901   1.888   0.409   4.694  1.6445  0.8824  0.7212
  195MOL0     H26902   2.132   0.346   4.594  2.3273  3.4853  3.0714
  195MOL0     H26903   2.120   0.342   4.760  4.1632 -1.8465 -1.1513
  195MOL0     H26904   2.033   0.090   4.629 -0.3056  0.6511  1.1841
  195MOL0     H26905   2.108   0.106   4.783 -7.1745 -1.2856 -0.0503
  195MOL0     H26906   2.432   0.037   4.506  0.1727  1.7457 -1.5992
  195MOL0     H26907   1.905   0.655   4.348  0.0276  0.3297  0.0202
  195MOL0     H26908   1.891   0.777   4.047  0.7035  2.3901  1.2380
  195MOL0     H26909   1.729   0.816   4.080  1.0387  3.0598  1.0961
  195MOL0     H26910   1.850   0.835   4.208 -2.3403  2.5463  0.5255
  196MOL0     O26911   3.229   1.011   5.404  0.0152  0.4116  0.0875
  196MOL0     C26912   3.110   1.037   5.423  1.0725  0.0247  0.4183
  196MOL0     O26913   3.028   1.128   5.343  0.0762  0.7003 -0.0121
  196MOL0     C26914   3.102   1.201   5.249 -0.4242  0.4005 -0.1812
  196MOL0     C26915   3.096   1.153   5.116  0.0515 -0.8498  0.1239
  196MOL0     C26916   3.169   1.219   5.014  0.8493  0.1542  0.0664
  196MOL0     C26917   3.245   1.330   5.041  0.1149  0.1515  0.2710
  196MOL0     O26918   3.290   1.396   4.931  0.4460 -0.3255  0.1418
  196MOL0     C26919   3.190   1.465   4.857 -1.0221  0.6877  1.1325
  196MOL0     C26920   3.247   1.523   4.730  0.3262  0.4984  0.1552
  196MOL0     C26921   3.139   1.570   4.635 -0.8254  0.2743 -0.7498
  196MOL0     C26922   3.049   1.464   4.572 -0.3191  0.2077 -0.0263
  196MOL0     C26923   2.973   1.516   4.449  0.2177  0.3899  1.4641
  196MOL0     C26924   3.075   1.573   4.343  0.7222  0.1290 -0.7720
  196MOL0     C26925   3.013   1.584   4.207 -0.4500  0.8493  0.2540
  196MOL0     C26926   3.108   1.630   4.105  0.8438 -0.8761 -0.5724
  196MOL0     N26927   3.052   1.647   3.971 -0.4417  0.0385 -0.3092
  196MOL0     C26928   2.952   1.561   3.909 -0.2931 -0.8005 -0.7078
  196MOL0     C26929   2.943   1.622   3.788  0.2757  0.0562  0.8973
  196MOL0     C26930   2.851   1.570   3.674  1.1128  0.9959 -0.0024
  196MOL0     C26931   2.878   1.632   3.534  0.6163  0.3141  0.0103
  196MOL0     C26932   2.802   1.552   3.418  0.1459  0.6683  0.3436
  196MOL0     C26933   2.749   1.637   3.304 -0.2703  0.6949 -0.0230
  196MOL0     O26934   2.832   1.630   3.192 -0.6525 -0.4927  0.4615
  196MOL0     C26935   2.810   1.535   3.102 -0.4629 -0.0712  0.5025
  196MOL0     C26936   2.740   1.416   3.116 -1.1417  0.0749 -0.2951
  196MOL0     C26937   2.730   1.325   3.006 -0.1651  0.0259  0.1568
  196MOL0     C26938   2.664   1.188   3.034 -0.3128 -0.3823 -0.0785
  196MOL0     C26939   2.778   1.357   2.879 -0.5542  0.0963 -0.7582
  196MOL0     C26940   2.799   1.254   2.765  0.7349 -0.5248 -0.2085
  196MOL0     O26941   2.873   1.299   2.656  0.4923 -0.3671 -0.1879
  196MOL0     C26942   2.958   1.209   2.599 -0.4993  0.1006 -0.6613
  196MOL0     C26943   2.915   1.091   2.547 -0.0238 -0.1638  0.5298
  196MOL0     C26944   3.007   1.004   2.485 -0.5676  0.0235 -0.3054
  196MOL0     C26945   3.143   1.038   2.490 -0.1120  0.9841  0.2898
  196MOL0     O26946   3.225   0.953   2.428 -0.4048 -0.5694  0.4601
  196MOL0     C26947   3.314   1.004   2.329  0.4875  1.0330 -0.6061
  196MOL0     C26948   3.239   1.047   2.203  0.4370  0.2845  0.1979
  196MOL0     C26949   3.139   0.950   2.137 -0.6698  1.0246 -0.5275
  196MOL0     C26950   3.174   0.801   2.152  0.0277  0.7957 -0.1283
  196MOL0     C26951   3.299   0.779   2.061  0.0530  0.7976 -0.5103
  196MOL0     C26952   3.353   0.642   2.071  0.6872 -0.7612  0.2510
  196MOL0     C26953   3.250   0.529   2.037 -0.1184  0.2494 -0.4925
  196MOL0     C26954   3.313   0.390   2.047  0.1541 -0.1988 -0.3611
  196MOL0    Cl26955   3.357   0.354   2.228 -0.1090 -0.0577  0.0149
  196MOL0     C26956   3.187   1.148   2.558  0.9342 -0.0356 -0.2739
  196MOL0     C26957   3.092   1.245   2.602 -0.2563  0.4944  0.3420
  196MOL0     O26958   2.756   1.142   2.774  0.5757  0.6309  0.6218
  196MOL0     C26959   2.842   1.479   2.871  0.5559  0.3165  0.4930
  196MOL0     C26960   2.851   1.566   2.971 -0.1349  0.4471 -0.5327
  196MOL0     N26961   3.011   1.736   3.778 -0.2444  0.2196 -0.3581
  196MOL0     N26962   3.084   1.745   3.887  0.0933 -0.2538  0.1314
  196MOL0     C26963   3.240   1.387   5.163  0.3006  0.9320  0.0507
  196MOL0     C26964   3.169   1.327   5.272  0.8265  0.0527  0.0062
  196MOL0     C26965   3.036   0.949   5.528  0.1809 -0.4090  0.9676
  196MOL0     C26966   3.118   0.889   5.625  1.1324  0.5603 -0.3023
  196MOL0     C26967   3.055   0.824   5.734  0.1685  0.2022 -0.4060
  196MOL0     C26968   2.915   0.819   5.754  0.1393 -0.1359 -0.6958
  196MOL0     O26969   2.843   0.770   5.863 -0.4013 -0.1304 -0.0882
  196MOL0     C26970   2.934   0.713   5.963  0.1756  0.3111 -0.1849
  196MOL0     C26971   2.857   0.664   6.084 -0.2339 -0.0139 -0.8283
  196MOL0     C26972   2.874   0.509   6.116  0.0867 -0.2299  1.2588
  196MOL0     C26973   2.840   0.398   6.003  0.1091 -0.6784 -0.5791
  196MOL0     C26974   2.940   0.381   5.909 -0.8529 -0.3546 -0.0071
  196MOL0     C26975   3.022   0.340   5.830  0.0176  0.3587  0.1859
  196MOL0     C26976   2.844   0.870   5.652 -0.3901 -0.1330  0.4347
  196MOL0     C26977   2.900   0.936   5.545  0.0096  0.1010  0.4145
  196MOL0     C26978   2.795   0.991   5.441 -0.3432  0.4303  0.2458
  196MOL0     H26979   3.021   1.076   5.100 -2.8906  0.2623  5.8575
  196MOL0     H26980   3.164   1.182   4.913 -1.9603 -2.2838  0.9515
  196MOL0     H26981   3.144   1.540   4.921 -3.7306 -0.5518  0.7808
  196MOL0     H26982   3.104   1.406   4.822  0.4916 -0.4988 -0.8772
  196MOL0     H26983   3.298   1.613   4.768 -3.2930  2.1139  1.6629
  196MOL0     H26984   3.311   1.459   4.669 -0.5850  0.4760 -0.7920
  196MOL0     H26985   3.081   1.657   4.668 -2.2890 -1.3822  1.3412
  196MOL0     H26986   3.209   1.612   4.562 -0.5305 -1.0419 -1.2492
  196MOL0     H26987   3.115   1.385   4.533  2.4382  2.6460 -0.6872
  196MOL0     H26988   2.977   1.427   4.645 -0.0317 -0.8936 -0.2819
  196MOL0     H26989   2.896   1.588   4.478 -2.0431 -1.2076 -0.2094
  196MOL0     H26990   2.922   1.429   4.407  1.1590 -0.4765  2.0721
  196MOL0     H26991   3.095   1.675   4.377 -0.6451  1.4597 -3.6331
  196MOL0     H26992   3.168   1.517   4.328  0.8651  0.0565  0.2868
  196MOL0     H26993   2.927   1.651   4.218 -0.8241 -0.0339  4.5765
  196MOL0     H26994   2.978   1.486   4.174  1.3297  0.5063 -0.7592
  196MOL0     H26995   3.157   1.723   4.134  0.3914 -0.9938  0.6068
  196MOL0     H26996   3.192   1.560   4.098  2.2581  0.1397  3.4423
  196MOL0     H26997   2.895   1.481   3.954  0.3737 -1.0437 -0.2821
  196MOL0     H26998   2.750   1.606   3.697  1.4941  0.1018  3.6461
  196MOL0     H26999   2.861   1.462   3.661  0.4307  0.7025  1.6936
  196MOL0     H27000   2.833   1.732   3.532 -0.1521  0.0162  0.9889
  196MOL0     H27001   2.984   1.645   3.511  0.7584  1.5909  1.2486
  196MOL0     H27002   2.871   1.477   3.378  0.2436  1.3536 -0.7941
  196MOL0     H27003   2.716   1.499   3.461 -0.8836  3.2714  1.7575
  196MOL0     H27004   2.643   1.622   3.280 -0.1000  3.0228 -2.8306
  196MOL0     H27005   2.759   1.740   3.338 -0.8813  1.0586 -0.9049
  196MOL0     H27006   2.697   1.388   3.212 -2.1683  0.2200 -0.6985
  196MOL0     H27007   2.747   1.117   3.032  0.2481  0.0953 -4.1153
  196MOL0     H27008   2.586   1.155   2.965  1.3150 -1.5621 -1.4400
  196MOL0     H27009   2.621   1.191   3.134  1.1725 -4.5080  0.8625
  196MOL0     H27010   2.807   1.077   2.542 -0.2635  1.4325  0.8149
  196MOL0     H27011   2.976   0.913   2.434  1.4241 -0.0835 -1.4062
  196MOL0     H27012   3.365   1.084   2.382  0.5798 -0.3244  1.4983
  196MOL0     H27013   3.393   0.932   2.306  1.7564  2.2146 -0.0048
  196MOL0     H27014   3.166   1.126   2.224  0.0446  0.4397 -1.5603
  196MOL0     H27015   3.310   1.087   2.130  2.6433 -1.3143  1.3690
  196MOL0     H27016   3.140   0.969   2.029 -3.3844 -3.1303 -1.5131
  196MOL0     H27017   3.037   0.974   2.168  0.1621  0.3365  3.1501
  196MOL0     H27018   3.089   0.740   2.119 -0.0353  1.1170 -0.5672
  196MOL0     H27019   3.197   0.772   2.255 -0.1239  1.6661  0.1564
  196MOL0     H27020   3.284   0.809   1.957  0.0410  0.2939 -0.6531
  196MOL0     H27021   3.384   0.838   2.098  0.8218  0.3794 -1.5539
  196MOL0     H27022   3.397   0.643   2.171  0.4949 -1.2502  0.3454
  196MOL0     H27023   3.438   0.640   2.002  2.5182 -1.1471  2.4102
  196MOL0     H27024   3.211   0.540   1.935 -2.0230  3.4806  0.4404
  196MOL0     H27025   3.169   0.525   2.111 -0.2109  0.1348 -0.5984
  196MOL0     H27026   3.394   0.361   1.980  1.3304  2.3639 -0.1952
  196MOL0     H27027   3.231   0.319   2.036  2.4600 -3.7026  2.6385
  196MOL0     H27028   3.294   1.166   2.551  0.3701  3.2378 -2.7363
  196MOL0     H27029   3.117   1.344   2.639  1.4213 -1.1129  4.0526
  196MOL0     H27030   2.872   1.516   2.774 -4.2701  0.1640 -1.3634
  196MOL0     H27031   2.911   1.657   2.961  1.3272 -0.3451  0.6304
  196MOL0     H27032   3.290   1.482   5.176 -1.1528  1.5066  1.9461
  196MOL0     H27033   3.174   1.371   5.371 -0.4929 -0.4846  0.3209
  196MOL0     H27034   3.226   0.889   5.619  1.3008  0.9889  1.8345
  196MOL0     H27035   3.125   0.779   5.804  0.3849 -0.9569 -1.3276
  196MOL0     H27036   2.982   0.628   5.914  0.4118  1.9053 -2.9471
  196MOL0     H27037   2.995   0.797   5.998  0.7990 -1.9380  4.9415
  196MOL0     H27038   2.751   0.685   6.073 -0.8514 -3.2398 -2.1932
  196MOL0     H27039   2.891   0.722   6.170 -3.6272 -0.8286  1.2280
  196MOL0     H27040   2.978   0.493   6.145  1.2708  1.0659 -1.8122
  196MOL0     H27041   2.810   0.489   6.203  1.1786 -1.8692  1.7215
  196MOL0     H27042   2.743   0.412   5.955 -0.4529  0.0501  0.7401
  196MOL0     H27043   2.834   0.299   6.051 -0.6198 -0.0382  0.7043
  196MOL0     H27044   3.091   0.303   5.756 -1.5766 -1.4623 -0.4932
  196MOL0     H27045   2.739   0.852   5.633  0.6223 -2.0075 -5.5813
  196MOL0     H27046   2.823   0.949   5.344 -2.1761 -1.3264  0.4043
  196MOL0     H27047   2.691   0.966   5.462 -0.9440  1.8771 -0.8270
  196MOL0     H27048   2.803   1.099   5.424  1.5305  0.0132 -1.9509
  197MOL0     O27049   4.955  11.606   7.700 -0.1568  0.7040  0.5862
  197MOL0     C27050   4.850  11.614   7.762 -0.8059  1.0170  0.0691
  197MOL0     O27051   4.838  11.667   7.884  0.2777 -0.3367 -1.1819
  197MOL0     C27052   4.962  11.689   7.940  1.3909 -0.5796 -0.7895
  197MOL0     C27053   5.042  11.592   7.985  0.0208 -0.1128 -0.9189
  197MOL0     C27054   5.166  11.622   8.047  0.2648 -0.7430 -0.2814
  197MOL0     C27055   5.203  11.753   8.065  0.3193  0.3050  0.3509
  197MOL0     O27056   5.323  11.768   8.135 -1.2196  0.2637 -0.9365
  197MOL0     C27057   5.397  11.891   8.126 -0.4903  0.6933 -0.3134
  197MOL0     C27058   5.511  11.902   8.230  0.7786 -0.8787 -0.4297
  197MOL0     C27059   5.453  11.875   8.370  0.0839  0.0290  0.2317
  197MOL0     C27060   5.512  11.965   8.477  0.0531 -0.3846  0.3621
  197MOL0     C27061   5.474  11.915   8.620 -0.1492 -0.0721  0.4282
  197MOL0     C27062   5.550  11.997   8.722 -0.3384 -0.1295 -0.6351
  197MOL0     C27063   5.693  11.945   8.763  1.6613 -0.7350 -0.2208
  197MOL0     C27064   5.738  12.023   8.883 -0.1260 -0.9115 -0.1655
  197MOL0     N27065   5.692  11.981   9.008 -0.8059 -0.1395 -0.1177
  197MOL0     C27066   5.663  11.850   9.039  0.3539  0.6559  0.1765
  197MOL0     C27067   5.593  11.862   9.160 -0.9264 -0.1674  1.2389
  197MOL0     C27068   5.552  11.741   9.248  0.6491  0.3325  0.8254
  197MOL0     C27069   5.632  11.750   9.377 -0.8610  0.7319  1.0982
  197MOL0     C27070   5.774  11.686   9.374 -0.4214  0.7615  0.9341
  197MOL0     C27071   5.770  11.532   9.355 -0.8296 -1.1140  0.6032
  197MOL0     O27072   5.717  11.473   9.472  0.1566 -0.8114  0.4372
  197MOL0     C27073   5.680  11.343   9.471  0.4721 -0.0855 -1.2796
  197MOL0     C27074   5.699  11.247   9.368  0.5590 -0.3699  0.1194
  197MOL0     C27075   5.669  11.112   9.390 -0.9353  0.2743  0.2718
  197MOL0     C27076   5.696  11.025   9.267 -0.4356  0.2329  0.6402
  197MOL0     C27077   5.623  11.060   9.504 -0.7322  0.8620 -0.7903
  197MOL0     C27078   5.600  10.914   9.533  0.0329 -0.3314  0.1251
  197MOL0     O27079   5.555  10.894   9.657  0.1768 -0.2668  0.2006
  197MOL0     C27080   5.529  10.764   9.686 -1.4945  0.4855 -0.4432
  197MOL0     C27081   5.631  10.678   9.722 -0.3486 -0.7491 -0.6227
  197MOL0     C27082   5.595  10.548   9.757 -0.3060  0.0601 -0.5198
  197MOL0     C27083   5.464  10.502   9.763  0.1672 -0.5176 -0.1121
  197MOL0     O27084   5.415  10.376   9.786 -0.8407  0.3910 -0.4116
  197MOL0     C27085   5.479  10.282   9.705  0.5875  0.4497 -0.4855
  197MOL0     C27086   5.416  10.158   9.758 -0.4886 -0.0541 -0.2158
  197MOL0     C27087   5.451  10.129   9.903 -0.5136 -0.2379  0.5223
  197MOL0     C27088   5.326  10.115   9.999  0.4016  1.4436  0.2960
  197MOL0     C27089   5.353  10.021  10.115 -0.3843 -1.3363  0.2800
  197MOL0     C27090   5.247  10.002  10.219 -0.0125  0.2412 -0.5545
  197MOL0     C27091   5.100  10.004  10.181 -0.5477  1.2444 -1.1464
  197MOL0     C27092   5.047   9.910  10.076  0.7736  0.2401 -0.4254
  197MOL0    Cl27093   5.088   9.748  10.115  0.0041  0.5066 -0.1235
  197MOL0     C27094   5.367  10.596   9.739  0.5162  0.4286  0.4427
  197MOL0     C27095   5.400  10.722   9.702  0.0632 -0.6384  0.5176
  197MOL0     O27096   5.601  10.832   9.440 -0.0227  0.1929 -0.5775
  197MOL0     C27097   5.599  11.153   9.611 -0.9148 -0.3812 -0.9779
  197MOL0     C27098   5.632  11.286   9.594  0.5424  0.2727  0.4327
  197MOL0     N27099   5.589  11.996   9.193  0.0347 -0.1578 -0.3139
  197MOL0     N27100   5.641  12.066   9.105 -0.0289  0.1899  0.0305
  197MOL0     C27101   5.123  11.851   8.001 -0.2096 -0.2558 -0.2188
  197MOL0     C27102   4.997  11.825   7.949  0.1167  0.2084  0.0205
  197MOL0     C27103   4.734  11.569   7.681  0.3169  0.2089  0.3683
  197MOL0     C27104   4.739  11.444   7.622  0.0828  0.4331 -0.6627
  197MOL0     C27105   4.632  11.406   7.542  1.2724  0.0259  0.5680
  197MOL0     C27106   4.520  11.480   7.520 -0.1300 -0.5198 -0.0665
  197MOL0     O27107   4.406  11.445   7.461  0.2632 -0.0627 -0.2392
  197MOL0     C27108   4.384  11.302   7.422 -1.1927 -0.2388  0.0143
  197MOL0     C27109   4.235  11.270   7.411 -1.1611  0.9571  0.3286
  197MOL0     C27110   4.176  11.207   7.537 -0.1091 -1.1681  0.3471
  197MOL0     C27111   4.035  11.183   7.520 -0.3515 -0.8112  0.0932
  197MOL0     C27112   4.012  11.069   7.435  0.4375  0.1021  0.6351
  197MOL0     C27113   3.972  10.988   7.349  0.2056 -0.6014 -0.1819
  197MOL0     C27114   4.521  11.612   7.572 -0.1225  1.1379 -0.8740
  197MOL0     C27115   4.629  11.658   7.653  0.4768  1.0861  0.8459
  197MOL0     C27116   4.614  11.797   7.705  0.2331 -1.0098  0.3007
  197MOL0     H27117   5.010  11.488   7.982  0.9624 -0.6501  2.5596
  197MOL0     H27118   5.241  11.547   8.067 -1.1762 -2.5045 -1.1425
  197MOL0     H27119   5.333  11.977   8.146 -0.3056  0.5043  1.1640
  197MOL0     H27120   5.438  11.902   8.025 -1.3208 -1.6905 -0.9696
  197MOL0     H27121   5.590  11.830   8.207  0.6100 -1.6201  1.1901
  197MOL0     H27122   5.543  12.006   8.227 -0.0548 -0.6279 -1.4494
  197MOL0     H27123   5.345  11.886   8.363  0.1672  0.1090 -1.1635
  197MOL0     H27124   5.478  11.773   8.401  3.6131  0.4912 -0.6247
  197MOL0     H27125   5.621  11.975   8.467 -0.2288  2.0463 -1.1503
  197MOL0     H27126   5.470  12.065   8.463  2.6827  0.5737 -1.5973
  197MOL0     H27127   5.487  11.807   8.634 -1.5147 -0.5579 -1.5964
  197MOL0     H27128   5.367  11.934   8.624 -0.7217 -2.2071 -2.0054
  197MOL0     H27129   5.562  12.098   8.681  0.3829 -0.0787 -0.3144
  197MOL0     H27130   5.491  12.007   8.813 -3.3579 -1.1162 -2.3439
  197MOL0     H27131   5.758  11.975   8.680 -0.3076 -0.5095 -1.7556
  197MOL0     H27132   5.699  11.839   8.786 -3.1298 -0.8696  1.5281
  197MOL0     H27133   5.846  12.006   8.880  0.2304 -0.1233  3.5857
  197MOL0     H27134   5.707  12.126   8.861  1.1906 -0.1806  1.2263
  197MOL0     H27135   5.680  11.759   8.983 -1.1118 -0.7827  1.9555
  197MOL0     H27136   5.549  11.642   9.200 -3.6980  1.1194 -1.0240
  197MOL0     H27137   5.451  11.766   9.283  1.1934  1.0739  1.9188
  197MOL0     H27138   5.639  11.855   9.409 -1.1049  2.0059 -2.5582
  197MOL0     H27139   5.570  11.697   9.449 -0.8284  0.7881  1.1670
  197MOL0     H27140   5.815  11.749   9.295 -1.1186  0.9365  0.7026
  197MOL0     H27141   5.819  11.712   9.470 -1.6027 -0.1566  1.7622
  197MOL0     H27142   5.713  11.510   9.265  0.5995  1.6303 -1.1024
  197MOL0     H27143   5.871  11.500   9.327  1.2755  3.4186  2.1517
  197MOL0     H27144   5.740  11.273   9.271 -0.4237  0.2729 -0.1441
  197MOL0     H27145   5.763  11.077   9.198 -1.7303  0.6166 -0.3948
  197MOL0     H27146   5.606  11.004   9.208  0.0753 -2.0460  0.5776
  197MOL0     H27147   5.756  10.937   9.292  0.5270  0.0582 -1.9533
  197MOL0     H27148   5.731  10.719   9.729 -0.6580  0.1109 -1.1615
  197MOL0     H27149   5.664  10.477   9.802 -1.8838 -1.0972  0.1675
  197MOL0     H27150   5.455  10.310   9.602 -3.7470  3.2575  1.0217
  197MOL0     H27151   5.586  10.283   9.728 -0.1712 -0.4998  4.2645
  197MOL0     H27152   5.309  10.177   9.753 -0.4380  1.3499  2.2114
  197MOL0     H27153   5.448  10.074   9.696 -0.8971 -1.2389  1.1179
  197MOL0     H27154   5.519  10.206   9.943  1.6418 -1.6842 -0.1724
  197MOL0     H27155   5.509  10.037   9.905  1.3688  0.7913 -1.6933
  197MOL0     H27156   5.231  10.094   9.949  1.2214  0.7638 -1.0468
  197MOL0     H27157   5.301  10.213  10.040 -2.3872  0.1536  1.9723
  197MOL0     H27158   5.365   9.919  10.077 -0.2705 -1.5114  0.7751
  197MOL0     H27159   5.443  10.055  10.167 -0.4448 -0.8015  0.0387
  197MOL0     H27160   5.271  10.079  10.293 -0.5069 -1.4979  1.5056
  197MOL0     H27161   5.263   9.903  10.263  1.6725  0.3533 -0.8477
  197MOL0     H27162   5.086  10.107  10.147  2.2354  1.9296 -0.4870
  197MOL0     H27163   5.035   9.984  10.266  2.8103  2.0068  1.8698
  197MOL0     H27164   5.077   9.918   9.971 -0.4979 -1.5257 -0.9645
  197MOL0     H27165   4.939   9.926  10.073  0.5945 -0.9743 -1.4004
  197MOL0     H27166   5.263  10.564   9.732  0.2090  1.3118  0.8274
  197MOL0     H27167   5.324  10.788   9.662  1.3373  0.4101 -0.2413
  197MOL0     H27168   5.562  11.121   9.707  0.0066  0.9413 -0.1542
  197MOL0     H27169   5.617  11.353   9.678 -1.3095 -0.9014  1.0898
  197MOL0     H27170   5.156  11.955   8.009  3.1200 -0.7889 -3.7983
  197MOL0     H27171   4.921  11.891   7.910 -0.6415 -2.1440 -2.8285
  197MOL0     H27172   4.824  11.383   7.651 -1.9640 -0.8155  3.3051
  197MOL0     H27173   4.623  11.310   7.492 -1.4176  0.2128  0.5493
  197MOL0     H27174   4.450  11.292   7.335  1.0144 -2.7358  1.7897
  197MOL0     H27175   4.435  11.235   7.492 -1.2640 -3.1490 -2.4791
  197MOL0     H27176   4.201  11.209   7.326 -1.8211  1.3586  0.2973
  197MOL0     H27177   4.196  11.367   7.378 -2.2570  0.5126  0.2583
  197MOL0     H27178   4.232  11.114   7.550  2.5536  0.1053 -1.2156
  197MOL0     H27179   4.204  11.278   7.615 -2.4296  0.3787 -0.1172
  197MOL0     H27180   3.993  11.283   7.500  1.0187 -0.4832 -1.3624
  197MOL0     H27181   3.993  11.155   7.617  0.5219  2.5840  1.6202
  197MOL0     H27182   3.936  10.921   7.274 -2.0588 -1.2664  1.4061
  197MOL0     H27183   4.440  11.678   7.546  2.4733  3.5860 -3.5003
  197MOL0     H27184   4.508  11.807   7.729 -0.9477  0.9880 -4.5575
  197MOL0     H27185   4.666  11.803   7.801  0.0500 -2.6378  0.5341
  197MOL0     H27186   4.648  11.879   7.640 -2.7598 -1.2003 -1.6989
  198MOL0     O27187   0.366   7.661   8.030 -0.6642 -0.6054 -0.4969
  198MOL0     C27188   0.276   7.590   7.997 -0.4602  1.2401  0.2118
  198MOL0     O27189   0.290   7.478   7.929  0.2089 -0.0586  0.0279
  198MOL0     C27190   0.414   7.443   7.882 -1.0949  0.3235  0.3969
  198MOL0     C27191   0.434   7.457   7.749  0.7910 -0.3057  1.1051
  198MOL0     C27192   0.560   7.457   7.695  0.0427  1.1219 -0.6978
  198MOL0     C27193   0.669   7.412   7.783  0.0837 -0.1557  1.2582
  198MOL0     O27194   0.791   7.398   7.735  0.5438  0.3634  1.2332
  198MOL0     C27195   0.812   7.401   7.588 -0.2581 -0.0978 -0.3609
  198MOL0     C27196   0.956   7.361   7.547  0.8648  0.3181 -0.4576
  198MOL0     C27197   0.972   7.418   7.405  0.4564 -1.0703 -0.2487
  198MOL0     C27198   1.105   7.388   7.341 -0.0840 -0.1782  0.2916
  198MOL0     C27199   1.234   7.429   7.419 -0.2039  0.6433  0.3360
  198MOL0     C27200   1.365   7.380   7.345 -0.1031  0.3662 -0.2432
  198MOL0     C27201   1.499   7.422   7.406  0.6923 -0.6494  0.1140
  198MOL0     C27202   1.569   7.332   7.496  0.3844 -0.0333 -0.4135
  198MOL0     N27203   1.524   7.344   7.643  0.6371  0.5760  1.1684
  198MOL0     C27204   1.520   7.458   7.722  0.0808 -0.1927 -0.2389
  198MOL0     C27205   1.491   7.411   7.846  0.2353 -0.0387  0.4232
  198MOL0     C27206   1.481   7.502   7.958  0.1995 -0.3198  0.4832
  198MOL0     C27207   1.615   7.535   8.028  0.7202  0.4122  0.1552
  198MOL0     C27208   1.613   7.639   8.135  0.6218  0.3281  0.0624
  198MOL0     C27209   1.587   7.788   8.086  0.0642  0.6666 -0.4122
  198MOL0     O27210   1.699   7.825   8.016  0.3374 -0.2135  0.2683
  198MOL0     C27211   1.717   7.959   8.002 -0.4586 -0.0034 -0.4778
  198MOL0     C27212   1.622   8.056   7.986  0.1527 -0.0174 -0.4037
  198MOL0     C27213   1.642   8.187   7.966  1.0162  0.3240  0.5436
  198MOL0     C27214   1.522   8.275   7.927  1.0780 -1.0028  0.8778
  198MOL0     C27215   1.779   8.234   7.971  0.2297 -1.1386 -0.4391
  198MOL0     C27216   1.819   8.376   7.940  0.6374 -0.7413 -0.3630
  198MOL0     O27217   1.955   8.401   7.924  0.9777 -0.5524 -0.4740
  198MOL0     C27218   1.981   8.535   7.901 -0.9026  0.9559  1.2257
  198MOL0     C27219   1.958   8.637   7.982  0.4031  0.1017  0.9241
  198MOL0     C27220   1.997   8.765   7.948 -0.9887  0.3743  0.0008
  198MOL0     C27221   2.058   8.803   7.826 -0.2098  1.0320 -0.7813
  198MOL0     O27222   2.081   8.936   7.815 -0.3033 -0.1126  0.3111
  198MOL0     C27223   2.112   8.980   7.678  0.3853 -0.7926  0.6791
  198MOL0     C27224   2.107   9.139   7.661  0.4256 -0.2453  0.4288
  198MOL0     C27225   1.979   9.193   7.737  0.4028 -0.4162  1.1386
  198MOL0     C27226   1.980   9.344   7.776 -0.2661 -1.1376 -0.7664
  198MOL0     C27227   1.896   9.422   7.660  0.0405  0.4731  0.5902
  198MOL0     C27228   1.886   9.567   7.681  0.2325 -0.7891 -0.0729
  198MOL0     C27229   1.982   9.657   7.597 -0.0972 -0.0813  0.6742
  198MOL0     C27230   1.962   9.809   7.619 -0.9539  0.6305 -0.2238
  198MOL0    Cl27231   2.001   9.873   7.792  0.3688 -0.2676 -0.0990
  198MOL0     C27232   2.090   8.699   7.740 -0.5202  0.0104 -0.1438
  198MOL0     C27233   2.058   8.570   7.779 -0.3417  0.5086  0.7806
  198MOL0     O27234   1.728   8.458   7.929 -0.1359 -0.4509  0.5080
  198MOL0     C27235   1.877   8.144   7.994 -0.8866  0.4465  0.8934
  198MOL0     C27236   1.854   8.009   8.005  1.1190  1.7239  0.3628
  198MOL0     N27237   1.460   7.280   7.843 -0.1028  0.1996 -0.5724
  198MOL0     N27238   1.475   7.243   7.721  0.1797  0.0011  0.0749
  198MOL0     C27239   0.649   7.396   7.910  0.7296 -0.7054 -0.8321
  198MOL0     C27240   0.523   7.411   7.971 -0.1379  0.7824  1.0650
  198MOL0     C27241   0.142   7.616   8.058  0.1155 -0.3245 -0.2778
  198MOL0     C27242   0.044   7.512   8.039  0.5581 -1.1123  0.2332
  198MOL0     C27243  -0.095   7.539   8.071  0.3361 -0.2275  1.0560
  198MOL0     C27244  -0.131   7.662   8.137 -0.3311  0.6496 -0.2014
  198MOL0     O27245  -0.257   7.665   8.178 -0.0213  0.1380 -0.7420
  198MOL0     C27246  -0.280   7.737   8.306 -0.0194  0.7225  0.1159
  198MOL0     C27247  -0.369   7.632   8.386 -0.3950 -0.4486  0.1383
  198MOL0     C27248  -0.300   7.508   8.436  0.7873  0.4022 -0.7601
  198MOL0     C27249  -0.262   7.516   8.584  1.1087 -0.2470 -0.5458
  198MOL0     C27250  -0.171   7.629   8.616 -0.5156 -0.0747 -0.2438
  198MOL0     C27251  -0.109   7.725   8.646 -0.3761 -0.3419 -0.5244
  198MOL0     C27252  -0.028   7.753   8.173 -1.1753 -0.5413  0.9650
  198MOL0     C27253   0.105   7.741   8.126 -0.1693 -0.8408 -0.8242
  198MOL0     C27254   0.209   7.856   8.159  0.5003 -0.1166  0.2496
  198MOL0     H27255   0.349   7.480   7.685  2.0636  0.7082 -0.2603
  198MOL0     H27256   0.590   7.472   7.591 -0.2431  1.1269 -0.7821
  198MOL0     H27257   0.806   7.506   7.558 -0.6128 -0.1270 -0.3919
  198MOL0     H27258   0.748   7.336   7.528  2.6953 -2.5957 -1.0906
  198MOL0     H27259   1.032   7.403   7.613 -0.9399  1.6699  0.8572
  198MOL0     H27260   0.963   7.252   7.535  0.7843  0.3938 -1.2656
  198MOL0     H27261   0.892   7.374   7.345 -0.8298 -0.0064  0.6057
  198MOL0     H27262   0.972   7.527   7.413 -1.7115 -1.1305  4.0873
  198MOL0     H27263   1.114   7.281   7.321  4.5803  0.1530 -0.4391
  198MOL0     H27264   1.101   7.431   7.241 -2.1097  0.0601  0.4394
  198MOL0     H27265   1.236   7.386   7.519  0.4150 -1.7316 -0.6473
  198MOL0     H27266   1.253   7.537   7.417 -2.2080  1.0353  0.4219
  198MOL0     H27267   1.370   7.272   7.334  0.6447  0.2017  1.3904
  198MOL0     H27268   1.377   7.417   7.243 -0.6862  0.2895 -0.3399
  198MOL0     H27269   1.494   7.520   7.456  2.2810 -0.6389  0.3180
  198MOL0     H27270   1.578   7.437   7.332  0.0798 -2.0165 -0.8615
  198MOL0     H27271   1.555   7.234   7.450  1.7988  0.2769 -1.5572
  198MOL0     H27272   1.676   7.350   7.501  0.5357 -1.2441  1.6642
  198MOL0     H27273   1.538   7.564   7.706 -0.0930  0.2603  2.1830
  198MOL0     H27274   1.405   7.467   8.029 -2.1452  3.3669  0.0844
  198MOL0     H27275   1.436   7.596   7.925  0.4121  0.0444  1.1955
  198MOL0     H27276   1.660   7.448   8.077  4.1252  1.0202 -1.5710
  198MOL0     H27277   1.696   7.569   7.962  1.2805 -1.0469  0.0539
  198MOL0     H27278   1.531   7.619   8.205  1.4831 -0.9206  0.7478
  198MOL0     H27279   1.697   7.633   8.205  0.7153  0.3875 -0.0442
  198MOL0     H27280   1.499   7.790   8.023  0.0658 -3.7429 -0.9063
  198MOL0     H27281   1.576   7.837   8.183  2.4891 -0.9630  0.8047
  198MOL0     H27282   1.518   8.028   7.996  0.3697 -1.5446 -2.0209
  198MOL0     H27283   1.433   8.215   7.906  0.6817 -0.1498  0.0277
  198MOL0     H27284   1.558   8.327   7.838  2.1098 -0.7573  1.4170
  198MOL0     H27285   1.505   8.349   8.007  0.1988 -0.4146  0.1693
  198MOL0     H27286   1.886   8.629   8.063 -0.0324  2.7746  0.8853
  198MOL0     H27287   1.982   8.849   8.016 -2.0692 -0.2911  0.6095
  198MOL0     H27288   2.213   8.944   7.655  0.9677  1.5723 -0.7401
  198MOL0     H27289   2.046   8.927   7.608  0.1514  1.3194 -0.7796
  198MOL0     H27290   2.201   9.176   7.701  1.6568 -0.3309 -2.1785
  198MOL0     H27291   2.094   9.160   7.555  0.5590 -0.4290  0.3749
  198MOL0     H27292   1.964   9.138   7.831  1.2550  0.5293  1.8543
  198MOL0     H27293   1.889   9.183   7.677  2.2748  1.8534 -2.3785
  198MOL0     H27294   2.076   9.395   7.786 -1.1138  0.4369 -0.3141
  198MOL0     H27295   1.932   9.351   7.873 -2.1028 -1.8440 -1.5812
  198MOL0     H27296   1.934   9.399   7.560  1.6902 -2.1978  1.7348
  198MOL0     H27297   1.794   9.383   7.655  0.9902 -2.0207 -2.9836
  198MOL0     H27298   1.916   9.575   7.786  1.7671 -3.4968 -0.2141
  198MOL0     H27299   1.782   9.596   7.664 -1.1789 -3.5960  2.6641
  198MOL0     H27300   1.953   9.645   7.492  0.3501 -3.0611  0.8157
  198MOL0     H27301   2.085   9.622   7.610  0.4485  1.6579  1.2696
  198MOL0     H27302   1.857   9.831   7.596 -1.4425 -2.9516 -2.0137
  198MOL0     H27303   2.031   9.858   7.550  2.8779 -3.3174  0.4137
  198MOL0     H27304   2.146   8.715   7.649 -1.0199  1.5458 -0.1951
  198MOL0     H27305   2.085   8.480   7.725  2.5624  1.6168  0.1926
  198MOL0     H27306   1.983   8.167   7.994 -0.6667 -0.4651 -0.8231
  198MOL0     H27307   1.928   7.933   8.029 -0.2826  0.5386  1.1077
  198MOL0     H27308   0.731   7.370   7.976 -0.4921 -3.3902 -0.2308
  198MOL0     H27309   0.514   7.427   8.078 -0.3434  1.0309  1.0100
  198MOL0     H27310   0.075   7.416   7.999  0.2040 -0.6452 -1.1911
  198MOL0     H27311  -0.173   7.470   8.041 -0.5550  1.5520 -0.9871
  198MOL0     H27312  -0.189   7.773   8.355  0.8824 -1.3554  0.0584
  198MOL0     H27313  -0.345   7.823   8.287  0.2063  1.8174  3.6181
  198MOL0     H27314  -0.450   7.615   8.315  2.6161  0.6298 -3.9392
  198MOL0     H27315  -0.403   7.694   8.470 -1.8858 -1.4740  0.3364
  198MOL0     H27316  -0.368   7.425   8.420  3.0893 -1.6984 -0.3092
  198MOL0     H27317  -0.207   7.493   8.381  3.5059  0.8902  3.2335
  198MOL0     H27318  -0.204   7.430   8.616  0.7159 -0.4461 -0.3638
  198MOL0     H27319  -0.348   7.522   8.651  0.1213 -1.7974 -1.6113
  198MOL0     H27320  -0.064   7.817   8.679 -0.5580 -1.3791  3.0128
  198MOL0     H27321  -0.060   7.847   8.218 -0.5570 -0.5694  1.4673
  198MOL0     H27322   0.268   7.888   8.073 -1.8332  0.8890 -1.0679
  198MOL0     H27323   0.166   7.947   8.202 -1.0310  0.2808 -1.9353
  198MOL0     H27324   0.279   7.821   8.235 -0.9612 -2.3077  0.6762
  199MOL0     O27325   3.581   3.830  11.539 -0.6072  0.4716  0.1843
  199MOL0     C27326   3.517   3.930  11.572  0.4194  0.5294  0.0323
  199MOL0     O27327   3.495   4.038  11.492  0.0724 -0.2097  0.1267
  199MOL0     C27328   3.521   4.033  11.357 -0.2797  1.0422 -0.6312
  199MOL0     C27329   3.417   3.995  11.265  0.4480  0.2681  0.4729
  199MOL0     C27330   3.434   3.994  11.123  0.5104 -0.1192 -0.4201
  199MOL0     C27331   3.550   4.033  11.064 -0.8167 -0.0458 -0.2090
  199MOL0     O27332   3.562   4.022  10.928  0.6952  0.6264  0.8084
  199MOL0     C27333   3.675   4.077  10.864  0.5948 -0.1269  0.2068
  199MOL0     C27334   3.660   4.108  10.722  0.0270 -0.4809  0.1957
  199MOL0     C27335   3.784   4.163  10.663 -0.3100  0.7912 -0.6283
  199MOL0     C27336   3.779   4.140  10.517 -0.2721  0.6733 -0.1476
  199MOL0     C27337   3.898   4.206  10.445 -0.7571 -1.1989  0.9432
  199MOL0     C27338   3.888   4.362  10.454  0.2088 -0.1341 -0.5085
  199MOL0     C27339   3.988   4.433  10.366  0.4536  0.3676  0.4643
  199MOL0     C27340   3.977   4.584  10.354 -0.7785  1.6878  0.2423
  199MOL0     N27341   4.111   4.636  10.338 -0.6466 -0.2732  0.3933
  199MOL0     C27342   4.188   4.615  10.221  0.0057  1.0819  0.3868
  199MOL0     C27343   4.312   4.674  10.241  0.3302  0.4854 -0.3893
  199MOL0     C27344   4.421   4.700  10.136 -0.9426 -0.0128 -1.1164
  199MOL0     C27345   4.434   4.851  10.108  0.3355 -0.3088 -0.9717
  199MOL0     C27346   4.550   4.879  10.010 -0.5561  0.5098 -0.0908
  199MOL0     C27347   4.538   5.019   9.937  0.8896 -0.7045 -0.0165
  199MOL0     O27348   4.504   5.123  10.031 -0.0582 -0.4223 -0.2889
  199MOL0     C27349   4.493   5.253   9.988 -0.7457 -0.3925  0.4012
  199MOL0     C27350   4.484   5.360  10.087  0.2999  0.1031 -0.1852
  199MOL0     C27351   4.461   5.496  10.046 -0.9948  0.3101 -0.2712
  199MOL0     C27352   4.475   5.589  10.166  0.0060  1.5697 -0.1057
  199MOL0     C27353   4.427   5.527   9.916  0.8555  0.3808 -0.5766
  199MOL0     C27354   4.384   5.652   9.859  0.3286  0.1214 -0.1167
  199MOL0     O27355   4.340   5.660   9.726  0.5456 -0.7695 -0.7037
  199MOL0     C27356   4.301   5.790   9.694  0.3942  0.1920  0.0564
  199MOL0     C27357   4.393   5.892   9.687 -0.1512  0.3020 -0.2444
  199MOL0     C27358   4.348   6.028   9.671 -0.2980 -0.5330  1.9144
  199MOL0     C27359   4.214   6.056   9.638 -0.3840 -0.1077 -0.5716
  199MOL0     O27360   4.178   6.180   9.605  0.5639  0.0160  0.2397
  199MOL0     C27361   4.237   6.219   9.480  0.4305 -0.7525  0.5197
  199MOL0     C27362   4.168   6.345   9.423  0.3202  0.3642  0.6409
  199MOL0     C27363   4.058   6.321   9.328  0.1949  0.7404  0.9564
  199MOL0     C27364   3.975   6.443   9.307  0.0808 -0.7152  0.5584
  199MOL0     C27365   4.063   6.538   9.227  0.1016  0.4067  0.4468
  199MOL0     C27366   3.991   6.665   9.162 -0.0671  0.0225  0.0250
  199MOL0     C27367   3.915   6.735   9.266  0.1146 -0.1686 -0.4211
  199MOL0     C27368   3.871   6.872   9.209 -0.0927 -0.4933  0.3890
  199MOL0    Cl27369   3.841   6.982   9.346  0.1952 -0.1264  0.1915
  199MOL0     C27370   4.125   5.949   9.621 -0.0035  0.8728 -0.2003
  199MOL0     C27371   4.167   5.822   9.673  0.0441  0.6654  0.2277
  199MOL0     O27372   4.380   5.744   9.940 -0.0324 -0.0094 -0.7569
  199MOL0     C27373   4.425   5.418   9.828  0.0496 -0.8505 -0.5627
  199MOL0     C27374   4.459   5.286   9.861 -1.5239 -0.2986 -0.5443
  199MOL0     N27375   4.303   4.725  10.367 -0.1850 -0.1684 -0.3086
  199MOL0     N27376   4.182   4.710  10.423 -0.4363 -0.0225 -0.7281
  199MOL0     C27377   3.664   4.036  11.148  0.0414 -0.1125 -0.1355
  199MOL0     C27378   3.652   4.046  11.293 -0.6332  0.1606  0.3721
  199MOL0     C27379   3.501   3.938  11.712  0.1201  0.1931 -0.7388
  199MOL0     C27380   3.391   4.005  11.754 -0.3644  1.1429 -0.1822
  199MOL0     C27381   3.365   4.022  11.892  0.0155  0.2321  0.1542
  199MOL0     C27382   3.442   3.955  11.988 -0.2522  0.7191 -0.4191
  199MOL0     O27383   3.424   3.962  12.122  0.9385 -0.4890 -0.1623
  199MOL0     C27384   3.298   4.012  12.171 -0.7542  0.4155 -0.3525
  199MOL0     C27385   3.259   3.958  12.321  0.9303 -0.5901 -0.0694
  199MOL0     C27386   3.278   3.803  12.329  1.0911  0.1502  0.0907
  199MOL0     C27387   3.257   3.742  12.473  0.0241  0.0472  0.7282
  199MOL0     C27388   3.215   3.602  12.467 -0.7294 -0.1630  0.6626
  199MOL0     C27389   3.171   3.489  12.454  0.2428  0.4988  0.6205
  199MOL0     C27390   3.559   3.887  11.944 -0.4746  0.3916 -0.5600
  199MOL0     C27391   3.592   3.886  11.808  0.4817  0.1584 -0.0636
  199MOL0     C27392   3.726   3.832  11.766 -0.2280 -0.3914 -0.5183
  199MOL0     H27393   3.320   3.967  11.304  0.5806 -2.6470 -0.9995
  199MOL0     H27394   3.356   3.965  11.053 -0.2122 -0.9495  0.6825
  199MOL0     H27395   3.767   4.020  10.882  1.0697  0.9357  1.3430
  199MOL0     H27396   3.699   4.173  10.910  0.2025  0.7776 -1.4118
  199MOL0     H27397   3.642   4.014  10.668 -1.5868 -1.4628  2.3013
  199MOL0     H27398   3.566   4.162  10.709 -1.2078 -2.7303 -1.0958
  199MOL0     H27399   3.784   4.269  10.689 -0.9946  0.0670  2.7376
  199MOL0     H27400   3.865   4.106  10.708 -2.2370  1.0636  3.6578
  199MOL0     H27401   3.791   4.033  10.500 -1.7733  0.4265  0.2608
  199MOL0     H27402   3.687   4.176  10.471 -1.3364 -2.1076 -0.3704
  199MOL0     H27403   3.893   4.172  10.341 -0.1370  2.3037 -0.3514
  199MOL0     H27404   3.989   4.172  10.495 -1.5969 -0.9280  2.7619
  199MOL0     H27405   3.785   4.371  10.416 -0.3822 -6.1121 -1.3065
  199MOL0     H27406   3.908   4.402  10.554  2.4228 -1.1611 -0.4890
  199MOL0     H27407   3.987   4.385  10.267 -0.0614 -1.5680  1.3610
  199MOL0     H27408   4.089   4.412  10.403  0.7645 -2.9193 -1.7940
  199MOL0     H27409   3.921   4.607  10.263  1.1245  0.1668 -1.4260
  199MOL0     H27410   3.947   4.629  10.449  1.8134  0.6726  1.6319
  199MOL0     H27411   4.152   4.562  10.134 -0.6321  1.6161  0.3170
  199MOL0     H27412   4.412   4.646  10.041  1.6356  0.6521 -1.8296
  199MOL0     H27413   4.518   4.673  10.180 -1.0420  1.9776  0.4634
  199MOL0     H27414   4.346   4.893  10.060  0.1145  2.2061  1.3434
  199MOL0     H27415   4.457   4.900  10.203  1.6676 -0.7418 -1.0476
  199MOL0     H27416   4.641   4.877  10.071 -0.5590  0.4731 -0.0884
  199MOL0     H27417   4.560   4.807   9.928  0.8909 -0.5930  0.9977
  199MOL0     H27418   4.614   5.040   9.861 -0.6818  0.4732 -1.3312
  199MOL0     H27419   4.447   5.026   9.876 -2.0281 -0.7790  3.9391
  199MOL0     H27420   4.499   5.333  10.191  0.9685  1.4944  0.1162
  199MOL0     H27421   4.374   5.624  10.190 -0.9523 -0.5477 -0.7852
  199MOL0     H27422   4.540   5.672  10.137  2.2927  1.0258  2.9856
  199MOL0     H27423   4.515   5.535  10.252 -0.9070  0.5175 -0.3203
  199MOL0     H27424   4.496   5.869   9.712  0.1106 -0.5289 -1.9493
  199MOL0     H27425   4.413   6.114   9.681 -2.1874  1.0729  1.0324
  199MOL0     H27426   4.339   6.248   9.508 -0.4196 -1.3544  5.1437
  199MOL0     H27427   4.242   6.149   9.396 -2.7398 -0.0019 -0.4344
  199MOL0     H27428   4.135   6.410   9.505 -2.2517 -0.1913  0.1172
  199MOL0     H27429   4.251   6.396   9.373  0.3555 -1.5104 -1.3476
  199MOL0     H27430   4.001   6.233   9.359  2.8765 -0.6697  2.2572
  199MOL0     H27431   4.097   6.276   9.236  2.1715 -3.1854  3.4278
  199MOL0     H27432   3.936   6.478   9.403 -1.5631 -2.1935  0.4850
  199MOL0     H27433   3.891   6.409   9.246  0.4398  0.1452 -0.4463
  199MOL0     H27434   4.135   6.581   9.296  0.9238  0.3567 -0.3574
  199MOL0     H27435   4.118   6.487   9.147  0.4440  0.9658  0.3234
  199MOL0     H27436   3.926   6.641   9.077  0.2991  1.6874 -0.7757
  199MOL0     H27437   4.073   6.729   9.127 -0.9524  1.2735  0.1833
  199MOL0     H27438   3.985   6.757   9.347  0.1349  1.5917 -0.8723
  199MOL0     H27439   3.821   6.682   9.287 -0.9960  0.5756 -3.1513
  199MOL0     H27440   3.784   6.846   9.149 -0.2447  2.0602 -0.6365
  199MOL0     H27441   3.951   6.915   9.148 -0.4768  0.4734  0.5516
  199MOL0     H27442   4.020   5.962   9.596  0.3128  1.3361 -1.3334
  199MOL0     H27443   4.099   5.737   9.678 -0.5152  1.1043  0.1628
  199MOL0     H27444   4.405   5.432   9.722  0.3714  3.3119 -0.2549
  199MOL0     H27445   4.456   5.210   9.784 -0.1342 -0.7284 -0.1924
  199MOL0     H27446   3.761   4.028  11.100  1.1206 -1.0164  2.0416
  199MOL0     H27447   3.735   4.075  11.356  1.2233 -1.4213 -1.2046
  199MOL0     H27448   3.324   4.061  11.689 -1.4520  0.9391  0.7179
  199MOL0     H27449   3.291   4.095  11.923  0.0152 -0.3728  1.6497
  199MOL0     H27450   3.303   4.121  12.170  1.2444  0.3433 -0.8977
  199MOL0     H27451   3.217   3.988  12.101  1.2771 -1.0093 -2.3487
  199MOL0     H27452   3.156   3.990  12.340  1.6102  0.7081  1.6276
  199MOL0     H27453   3.316   4.005  12.402  0.3131 -2.8527  1.8022
  199MOL0     H27454   3.211   3.744  12.265  1.7095 -2.4343  1.6603
  199MOL0     H27455   3.376   3.780  12.287 -0.4630 -2.6671 -2.4768
  199MOL0     H27456   3.183   3.804  12.526  0.8034  1.4603  0.2020
  199MOL0     H27457   3.349   3.737  12.531 -1.7916  1.7571  4.0397
  199MOL0     H27458   3.139   3.387  12.456  0.2214  0.5147  1.4833
  199MOL0     H27459   3.618   3.827  12.012  3.4053  0.7304 -3.3049
  199MOL0     H27460   3.788   3.835  11.856 -0.8448  3.0879 -0.0405
  199MOL0     H27461   3.726   3.729  11.730  1.5361 -0.2379 -1.0680
  199MOL0     H27462   3.759   3.905  11.691 -2.7909 -0.5512 -1.9301
  200MOL0     O27463   2.992  10.953   4.487  0.4727  0.4340 -0.0382
  200MOL0     C27464   3.009  11.055   4.421 -1.1961 -0.7388  0.1066
  200MOL0     O27465   2.952  11.179   4.440 -0.5740 -0.2751 -0.4650
  200MOL0     C27466   2.860  11.173   4.549 -0.9488 -0.8796 -0.1186
  200MOL0     C27467   2.907  11.195   4.679  0.1235 -0.8541 -1.1492
  200MOL0     C27468   2.820  11.205   4.789  0.2840 -0.1521 -0.0906
  200MOL0     C27469   2.682  11.203   4.776  0.4342  0.1463  0.0807
  200MOL0     O27470   2.604  11.197   4.886  0.0905 -0.8423  0.8823
  200MOL0     C27471   2.521  11.323   4.892  0.9201  0.8261 -0.0363
  200MOL0     C27472   2.506  11.362   5.046  0.2456 -1.0719  0.0176
  200MOL0     C27473   2.397  11.467   5.065 -0.0135  0.1889  0.1392
  200MOL0     C27474   2.366  11.496   5.212 -0.5777  0.9201  0.9650
  200MOL0     C27475   2.274  11.616   5.223 -0.6152 -0.1892 -0.3613
  200MOL0     C27476   2.233  11.634   5.365 -0.5865 -0.5125 -0.3020
  200MOL0     C27477   2.139  11.760   5.390  0.8738 -0.0498 -0.6788
  200MOL0     C27478   2.124  11.781   5.540  0.2677 -0.4072 -0.3807
  200MOL0     N27479   2.016  11.714   5.602 -0.2373 -0.3250  0.4874
  200MOL0     C27480   2.034  11.654   5.724  0.1143 -0.2293  0.6668
  200MOL0     C27481   1.902  11.632   5.762 -1.0996  0.6909  0.9519
  200MOL0     C27482   1.863  11.545   5.888 -0.0555  0.2637 -0.1900
  200MOL0     C27483   1.816  11.649   5.989  0.1908  0.6095 -0.4145
  200MOL0     C27484   1.791  11.605   6.136  0.5689  0.1506 -0.7241
  200MOL0     C27485   1.704  11.716   6.197 -0.2486 -0.9879  0.5542
  200MOL0     O27486   1.724  11.724   6.344  0.5503  0.3437  0.3674
  200MOL0     C27487   1.815  11.808   6.406  0.7934 -0.4341  0.5677
  200MOL0     C27488   1.911  11.881   6.347  0.4075  0.9018 -0.1360
  200MOL0     C27489   2.001  11.955   6.430 -0.3292  0.8149 -0.3634
  200MOL0     C27490   2.127  12.014   6.365  1.5666  0.4298 -0.1551
  200MOL0     C27491   1.975  11.975   6.573 -0.0328  0.0875 -0.0744
  200MOL0     C27492   2.048  12.069   6.660 -0.6968 -0.1087 -0.5669
  200MOL0     O27493   1.985  12.098   6.770  0.8155 -0.0326  0.1382
  200MOL0     C27494   2.047  12.153   6.878 -0.3503 -0.0079  0.4696
  200MOL0     C27495   2.162  12.091   6.921 -0.0300  0.0234 -1.0070
  200MOL0     C27496   2.238  12.155   7.026  0.8030  0.6550  0.2840
  200MOL0     C27497   2.207  12.281   7.079  0.5210 -0.6623  1.0644
  200MOL0     O27498   2.275  12.355   7.171 -0.9544 -0.1303  0.1595
  200MOL0     C27499   2.388  12.287   7.237  0.8822  0.4755 -0.2112
  200MOL0     C27500   2.419  12.358   7.376  1.0009  0.5478  0.2037
  200MOL0     C27501   2.476  12.497   7.356  0.3901  0.2565  0.8743
  200MOL0     C27502   2.514  12.570   7.486 -0.5916  0.5131 -0.3726
  200MOL0     C27503   2.551  12.720   7.455  0.7913 -0.1020  0.5211
  200MOL0     C27504   2.581  12.800   7.585  0.9364 -0.8632  0.2912
  200MOL0     C27505   2.604  12.945   7.531 -0.2301 -0.0125 -1.0416
  200MOL0     C27506   2.637  13.048   7.636 -0.1311  0.6556 -0.1979
  200MOL0    Cl27507   2.807  13.036   7.709  0.2353  0.0098 -0.0950
  200MOL0     C27508   2.080  12.327   7.040 -0.2076 -0.0253  0.0756
  200MOL0     C27509   2.001  12.270   6.942  0.9904 -0.1818 -0.1826
  200MOL0     O27510   2.154  12.124   6.627  0.1353 -0.2116  0.5191
  200MOL0     C27511   1.869  11.891   6.626 -1.1022 -0.6039  0.0561
  200MOL0     C27512   1.798  11.814   6.544 -0.5798  0.4912  0.0792
  200MOL0     N27513   1.814  11.679   5.665  0.3462 -0.7281  1.3814
  200MOL0     N27514   1.885  11.740   5.577 -0.3448 -0.0415 -0.1819
  200MOL0     C27515   2.638  11.177   4.640 -0.2594 -0.8255  0.2004
  200MOL0     C27516   2.724  11.168   4.533  0.5876 -0.1819  0.9945
  200MOL0     C27517   3.097  11.052   4.294 -0.6338  0.0848 -0.1847
  200MOL0     C27518   3.048  11.113   4.178 -0.7153  0.5648 -0.5769
  200MOL0     C27519   3.124  11.118   4.067 -1.1093 -0.9526 -0.0201
  200MOL0     C27520   3.259  11.074   4.061 -0.3627  0.3845 -0.2224
  200MOL0     O27521   3.335  11.077   3.943  0.5203  0.6487  0.4747
  200MOL0     C27522   3.476  11.105   3.956  0.8877 -0.2702  0.3987
  200MOL0     C27523   3.505  11.240   4.023  0.3273  0.4756 -0.2987
  200MOL0     C27524   3.490  11.364   3.930  0.4713 -1.4130 -0.5968
  200MOL0     C27525   3.575  11.489   3.967 -0.1053  0.1941  0.4557
  200MOL0     C27526   3.713  11.456   3.985  0.3372  0.7723  1.3427
  200MOL0     C27527   3.833  11.440   3.990 -0.5040 -0.5979 -0.2273
  200MOL0     C27528   3.314  11.018   4.184  0.7087  0.0628 -0.1819
  200MOL0     C27529   3.230  11.008   4.299 -0.6103 -0.0735 -0.4338
  200MOL0     C27530   3.287  10.944   4.419 -0.0204 -0.6390 -0.2207
  200MOL0     H27531   3.010  11.205   4.710  0.4032 -1.9643 -1.6572
  200MOL0     H27532   2.859  11.220   4.889 -2.7450  1.8838  0.9252
  200MOL0     H27533   2.424  11.306   4.845  0.9995  1.4317 -0.4373
  200MOL0     H27534   2.568  11.403   4.833  0.6199  0.6962 -0.4598
  200MOL0     H27535   2.485  11.270   5.101  2.1767 -1.9278 -0.5982
  200MOL0     H27536   2.602  11.406   5.074  1.2031 -3.2052  0.2355
  200MOL0     H27537   2.419  11.562   5.014 -2.0694  1.0823  0.7905
  200MOL0     H27538   2.302  11.425   5.032 -1.4395  3.1309  0.0977
  200MOL0     H27539   2.318  11.405   5.249  0.3318  0.3580  0.7846
  200MOL0     H27540   2.456  11.518   5.270 -0.4202 -2.1504  2.0462
  200MOL0     H27541   2.188  11.600   5.158 -2.6949 -2.0915  2.6207
  200MOL0     H27542   2.319  11.714   5.199 -1.9378  0.7119  0.7210
  200MOL0     H27543   2.177  11.546   5.399  1.6535 -3.1529 -2.8842
  200MOL0     H27544   2.321  11.657   5.426 -1.6775  2.1971  0.4033
  200MOL0     H27545   2.042  11.753   5.339  0.2543  1.9922  0.1185
  200MOL0     H27546   2.191  11.852   5.361  2.4675  0.2897  2.8030
  200MOL0     H27547   2.211  11.760   5.602  1.7148 -0.7599 -2.3999
  200MOL0     H27548   2.110  11.889   5.551  3.3629  0.2027 -1.2139
  200MOL0     H27549   2.126  11.620   5.771  0.5181  0.3748  0.3434
  200MOL0     H27550   1.948  11.487   5.926 -1.9699 -3.5757 -1.3404
  200MOL0     H27551   1.786  11.471   5.866 -0.5950 -0.9611  4.6145
  200MOL0     H27552   1.894  11.725   5.999  3.3547 -2.4115 -0.2673
  200MOL0     H27553   1.723  11.693   5.952 -0.9269 -0.6820  0.7426
  200MOL0     H27554   1.737  11.510   6.147  0.4264  0.4980  2.6154
  200MOL0     H27555   1.894  11.590   6.171 -0.5971 -3.8577  1.5626
  200MOL0     H27556   1.715  11.815   6.152 -2.4219 -1.8931 -2.2817
  200MOL0     H27557   1.599  11.693   6.177 -0.3695  0.9511 -1.4818
  200MOL0     H27558   1.916  11.871   6.239 -1.8686 -0.2583 -0.1958
  200MOL0     H27559   2.201  11.936   6.384  0.0130 -0.9433  0.4477
  200MOL0     H27560   2.155  12.117   6.389  2.2320 -0.2701  2.3852
  200MOL0     H27561   2.117  12.022   6.256  2.3764  0.0990 -0.2565
  200MOL0     H27562   2.180  11.988   6.891  2.8208 -0.0169  0.4736
  200MOL0     H27563   2.324  12.098   7.059  2.0037  2.0065 -0.3821
  200MOL0     H27564   2.373  12.182   7.261 -0.5134  0.3300 -1.5383
  200MOL0     H27565   2.473  12.279   7.169  1.1381 -0.9281  0.2512
  200MOL0     H27566   2.328  12.362   7.437  2.0840 -3.5149  2.4568
  200MOL0     H27567   2.498  12.304   7.429 -0.3587  1.4255  3.3759
  200MOL0     H27568   2.398  12.552   7.303  0.8492  2.3197  2.2262
  200MOL0     H27569   2.556  12.495   7.282  0.6896  1.5010  1.1411
  200MOL0     H27570   2.600  12.518   7.530 -0.7205 -0.2567 -1.0175
  200MOL0     H27571   2.441  12.577   7.567  2.4472  1.0895  2.5491
  200MOL0     H27572   2.635  12.710   7.386  2.4725  0.5925  2.3813
  200MOL0     H27573   2.466  12.775   7.413  1.1224 -2.0280 -3.0522
  200MOL0     H27574   2.653  12.762   7.658  0.5771  0.5215  1.4068
  200MOL0     H27575   2.488  12.813   7.641  0.7806  0.0598 -0.1574
  200MOL0     H27576   2.506  12.965   7.487 -1.4759 -1.4810  0.8917
  200MOL0     H27577   2.677  12.943   7.449 -0.1436  1.0199 -0.9951
  200MOL0     H27578   2.564  13.045   7.718  0.3267 -0.7078  0.2020
  200MOL0     H27579   2.628  13.153   7.609 -3.4057  0.8959  1.2822
  200MOL0     H27580   2.043  12.416   7.090  2.1912  1.3818 -0.5305
  200MOL0     H27581   1.906  12.314   6.913 -0.1476 -2.6555 -0.4549
  200MOL0     H27582   1.841  11.883   6.730 -1.8362 -1.5482 -0.2024
  200MOL0     H27583   1.715  11.761   6.589  0.6103  0.2068  2.0357
  200MOL0     H27584   2.537  11.159   4.605  0.3421 -0.5564 -1.8068
  200MOL0     H27585   2.687  11.140   4.435  2.2802 -0.7645  0.4834
  200MOL0     H27586   2.944  11.144   4.178 -0.6666  0.7337 -0.3660
  200MOL0     H27587   3.096  11.155   3.969 -0.1789 -3.7043 -1.4109
  200MOL0     H27588   3.513  11.019   4.013 -1.7988 -2.8198 -1.4370
  200MOL0     H27589   3.528  11.086   3.862  0.1269  0.2766 -0.1425
  200MOL0     H27590   3.605  11.226   4.065  1.7178 -0.8459 -3.6540
  200MOL0     H27591   3.436  11.252   4.106  0.5325  0.4275 -0.1207
  200MOL0     H27592   3.526  11.332   3.832  2.6343 -2.2942  0.4114
  200MOL0     H27593   3.387  11.398   3.940  1.4463  1.7087  0.1417
  200MOL0     H27594   3.541  11.533   4.061 -2.8221  1.9098 -1.1970
  200MOL0     H27595   3.559  11.562   3.888 -0.5633 -0.1979  0.1819
  200MOL0     H27596   3.939  11.427   3.989 -0.2191  0.4960  3.0422
  200MOL0     H27597   3.405  10.960   4.194 -0.4030 -1.7367 -0.1559
  200MOL0     H27598   3.384  10.904   4.387  0.6158 -1.7097  2.6871
  200MOL0     H27599   3.298  11.017   4.499 -1.4386 -0.2319 -0.3688
  200MOL0     H27600   3.223  10.858   4.442  0.0564 -0.3723  1.0871
  201MOL0     O27601  10.241  11.403   0.824 -0.5759  0.1673 -0.1224
  201MOL0     C27602  10.352  11.371   0.780 -0.7625 -0.1290 -1.9984
  201MOL0     O27603  10.437  11.455   0.722 -0.9016 -0.3904 -0.1570
  201MOL0     C27604  10.380  11.562   0.664  0.3870 -0.4926  0.1248
  201MOL0     C27605  10.307  11.537   0.558 -0.4871 -0.3207 -0.0219
  201MOL0     C27606  10.216  11.625   0.505 -0.5448 -0.5678 -0.2344
  201MOL0     C27607  10.212  11.751   0.575 -0.4324  0.6405 -0.0952
  201MOL0     O27608  10.124  11.859   0.546  0.3162 -0.3683 -0.2470
  201MOL0     C27609  10.034  11.835   0.442 -0.3132 -0.3071 -0.8443
  201MOL0     C27610   9.939  11.956   0.459  0.4044  0.1272  0.3333
  201MOL0     C27611   9.816  11.947   0.361 -0.0683  0.2046 -0.0551
  201MOL0     C27612   9.747  12.081   0.354  0.1990 -0.1971  0.2397
  201MOL0     C27613   9.614  12.067   0.271  0.0923 -0.5530  0.3608
  201MOL0     C27614   9.540  12.196   0.291 -0.4819  1.0499 -0.6417
  201MOL0     C27615   9.387  12.194   0.262  0.5768 -0.8357 -0.1572
  201MOL0     C27616   9.366  12.156   0.117  0.4537  0.2277 -0.1699
  201MOL0     N27617   9.236  12.131   0.082  1.2117 -0.3094 -0.3220
  201MOL0     C27618   9.157  12.037   0.141 -0.2453 -0.3699  0.0133
  201MOL0     C27619   9.037  12.064   0.082  0.3262  0.5679 -0.7396
  201MOL0     C27620   8.916  11.992   0.125 -0.5005 -0.6763  0.2087
  201MOL0     C27621   8.927  11.844   0.089 -0.6292 -0.1099 -0.4505
  201MOL0     C27622   8.964  11.819  -0.058 -1.2232  0.7742  0.0920
  201MOL0     C27623   8.901  11.702  -0.132  0.5339 -0.0800  0.7845
  201MOL0     O27624   8.969  11.691  -0.259  0.8354 -0.0760  0.1048
  201MOL0     C27625   8.982  11.570  -0.308 -0.0473 -1.0105  0.4561
  201MOL0     C27626   9.108  11.526  -0.344 -0.1936  0.8248 -0.6874
  201MOL0     C27627   9.142  11.381  -0.356 -0.2320 -0.6416  0.9114
  201MOL0     C27628   9.288  11.361  -0.397  0.1125 -0.2475 -0.2690
  201MOL0     C27629   9.032  11.291  -0.353 -0.4472 -0.1933 -1.5515
  201MOL0     C27630   9.055  11.139  -0.344  0.1052  0.7239 -0.0978
  201MOL0     O27631   9.170  11.086  -0.390  0.2809  0.6432 -1.0625
  201MOL0     C27632   9.187  10.949  -0.384  0.0709  0.3815 -0.9015
  201MOL0     C27633   9.221  10.895  -0.257  0.1835 -0.0651 -0.0885
  201MOL0     C27634   9.229  10.756  -0.256  0.5857  0.3013  0.1921
  201MOL0     C27635   9.199  10.671  -0.363 -0.7039  0.4283  0.0207
  201MOL0     O27636   9.221  10.538  -0.346  0.0415 -0.6353  0.7952
  201MOL0     C27637   9.244  10.458  -0.460 -0.0563  0.3805  0.5187
  201MOL0     C27638   9.305  10.326  -0.419  0.3711  0.1874  0.0711
  201MOL0     C27639   9.312  10.249  -0.561  0.1809  0.1497 -0.6274
  201MOL0     C27640   9.409  10.127  -0.549  0.7984  0.4946  0.3044
  201MOL0     C27641   9.407  10.068  -0.692 -0.4262  0.4651  0.1759
  201MOL0     C27642   9.471   9.925  -0.689  0.5332  0.0580 -0.2051
  201MOL0     C27643   9.480   9.849  -0.830  0.3262  1.3555  0.0132
  201MOL0     C27644   9.562   9.918  -0.941 -0.4544  0.5657  0.5707
  201MOL0    Cl27645   9.545   9.816  -1.085  0.3425 -0.0023 -0.2670
  201MOL0     C27646   9.169  10.731  -0.488 -0.1530  0.1765 -0.0533
  201MOL0     C27647   9.160  10.871  -0.499  0.9578 -0.3148  0.4525
  201MOL0     O27648   8.965  11.068  -0.298 -0.3136 -0.0844  0.6088
  201MOL0     C27649   8.906  11.349  -0.338 -0.0600  0.5918 -0.4360
  201MOL0     C27650   8.877  11.480  -0.310 -0.7448 -0.1168  0.1609
  201MOL0     N27651   9.043  12.180   0.007  0.0409 -0.4230  0.0103
  201MOL0     N27652   9.167  12.214  -0.003 -0.1156 -1.1026 -0.3515
  201MOL0     C27653  10.293  11.782   0.678  0.0526 -0.7445 -0.1251
  201MOL0     C27654  10.380  11.689   0.723  0.8462 -1.2204 -0.7079
  201MOL0     C27655  10.396  11.236   0.799  1.1022 -0.5487 -0.3334
  201MOL0     C27656  10.524  11.204   0.834 -0.5962 -0.1205 -0.7515
  201MOL0     C27657  10.581  11.082   0.839  0.2996  0.3398  0.0712
  201MOL0     C27658  10.506  10.971   0.836  0.8918  0.3649 -0.0106
  201MOL0     O27659  10.559  10.845   0.853  0.1984  0.4281  0.2273
  201MOL0     C27660  10.489  10.749   0.936 -0.2212 -0.7560  0.9090
  201MOL0     C27661  10.421  10.665   0.846 -0.3757  0.7430  0.9669
  201MOL0     C27662  10.406  10.515   0.889 -0.0413  0.4332 -0.3983
  201MOL0     C27663  10.282  10.502   1.000  0.6846  0.7693 -0.2802
  201MOL0     C27664  10.151  10.556   0.956 -1.3773 -0.6479  0.6826
  201MOL0     C27665  10.039  10.599   0.929 -0.1960 -0.7054  0.4173
  201MOL0     C27666  10.370  10.991   0.798  1.4027  0.6162 -0.2717
  201MOL0     C27667  10.315  11.118   0.766 -0.1213  0.5325 -0.7041
  201MOL0     C27668  10.172  11.132   0.722 -0.0345 -0.1780 -1.6986
  201MOL0     H27669  10.316  11.434   0.523  4.4061 -1.6648  3.9331
  201MOL0     H27670  10.166  11.606   0.410 -0.3953  3.0458 -1.1748
  201MOL0     H27671   9.991  11.735   0.453  2.8022 -1.5605  1.7099
  201MOL0     H27672  10.083  11.833   0.344 -0.3721  3.6229 -1.1234
  201MOL0     H27673   9.909  11.965   0.564 -0.5524  4.2762 -0.0809
  201MOL0     H27674   9.996  12.044   0.427  0.9527 -0.8608 -1.5457
  201MOL0     H27675   9.834  11.912   0.259  0.5295  1.0509 -0.2507
  201MOL0     H27676   9.749  11.871   0.402  2.5497 -3.2687 -1.7473
  201MOL0     H27677   9.729  12.126   0.452 -0.0808 -1.4321  0.7706
  201MOL0     H27678   9.823  12.152   0.319 -0.5178  1.5139  1.9905
  201MOL0     H27679   9.552  11.985   0.309 -1.8533  0.3947 -0.6207
  201MOL0     H27680   9.646  12.054   0.167  0.6573  0.5532  0.3842
  201MOL0     H27681   9.550  12.237   0.392  0.9696 -2.5283  0.8148
  201MOL0     H27682   9.595  12.268   0.229  1.3967  0.3242  0.0904
  201MOL0     H27683   9.336  12.287   0.286 -0.4918 -1.4088 -0.1515
  201MOL0     H27684   9.355  12.127   0.343  0.6673 -0.8821 -0.1591
  201MOL0     H27685   9.419  12.217   0.044  2.7431 -2.6035 -1.0529
  201MOL0     H27686   9.418  12.061   0.105 -1.0849 -0.5176 -1.1963
  201MOL0     H27687   9.188  11.973   0.222 -0.8625  1.2009  1.5675
  201MOL0     H27688   8.824  12.033   0.083  0.9502  3.3578  0.5661
  201MOL0     H27689   8.904  11.987   0.234  0.4607  1.3720  0.4421
  201MOL0     H27690   8.991  11.787   0.157 -0.1243 -0.8473 -1.5093
  201MOL0     H27691   8.827  11.800   0.097 -1.0566  0.2942 -2.6823
  201MOL0     H27692   8.950  11.912  -0.115  5.5220  1.6519 -0.9569
  201MOL0     H27693   9.071  11.801  -0.048 -1.7560 -2.5570  0.9963
  201MOL0     H27694   8.926  11.612  -0.076  4.2280  0.2010 -0.1415
  201MOL0     H27695   8.793  11.715  -0.146  0.8583 -0.0127 -2.6417
  201MOL0     H27696   9.194  11.592  -0.353 -1.0968  1.9425 -1.3191
  201MOL0     H27697   9.348  11.338  -0.309 -0.1847 -0.0777 -0.0204
  201MOL0     H27698   9.332  11.452  -0.440 -0.0021 -0.0854 -0.0474
  201MOL0     H27699   9.298  11.286  -0.476 -1.9375  1.5200 -2.3737
  201MOL0     H27700   9.233  10.963  -0.175 -2.4077 -0.8995  1.1077
  201MOL0     H27701   9.253  10.714  -0.159 -2.8385 -0.7209  0.7366
  201MOL0     H27702   9.153  10.438  -0.517  1.8296 -0.0369 -2.6001
  201MOL0     H27703   9.316  10.508  -0.526 -0.4539 -0.2484 -0.4219
  201MOL0     H27704   9.398  10.341  -0.363 -0.3028 -0.5004  1.4419
  201MOL0     H27705   9.257  10.263  -0.343  3.1364  2.9702  4.6500
  201MOL0     H27706   9.367  10.313  -0.631  1.4113 -0.8591 -0.6256
  201MOL0     H27707   9.214  10.211  -0.590  1.6778 -2.6481 -2.5083
  201MOL0     H27708   9.372  10.053  -0.478 -0.5786 -2.0942 -2.8797
  201MOL0     H27709   9.507  10.167  -0.522  1.6674  0.0415 -1.9643
  201MOL0     H27710   9.303  10.070  -0.726  0.2765  0.1452 -2.1785
  201MOL0     H27711   9.456  10.135  -0.764 -1.1067  0.5314 -0.2393
  201MOL0     H27712   9.420   9.862  -0.616 -3.8394  0.4109 -2.6035
  201MOL0     H27713   9.571   9.948  -0.651  1.3649  0.3772 -2.4201
  201MOL0     H27714   9.380   9.823  -0.864  1.3165 -1.7205 -0.9162
  201MOL0     H27715   9.532   9.754  -0.812  2.0760  2.8182  3.9028
  201MOL0     H27716   9.669   9.921  -0.916 -0.8306  1.6786  2.2064
  201MOL0     H27717   9.524  10.019  -0.959  1.7039  0.9811 -2.4152
  201MOL0     H27718   9.150  10.671  -0.576  5.2818  1.0283 -2.1503
  201MOL0     H27719   9.153  10.920  -0.595  0.6089  1.5151  1.3786
  201MOL0     H27720   8.824  11.278  -0.349  0.9198 -0.7970  0.8970
  201MOL0     H27721   8.776  11.516  -0.294 -0.0164  1.5854  1.3041
  201MOL0     H27722  10.284  11.886   0.705  1.5815 -0.2604 -1.3597
  201MOL0     H27723  10.418  11.696   0.824 -4.2921  1.2248  1.4673
  201MOL0     H27724  10.598  11.282   0.847 -3.1545  1.9179  4.5327
  201MOL0     H27725  10.686  11.070   0.866  0.6632 -2.2610 -2.0524
  201MOL0     H27726  10.561  10.682   0.983  3.2771 -1.2146 -4.3365
  201MOL0     H27727  10.415  10.799   1.000  0.7738  2.3817 -0.1959
  201MOL0     H27728  10.471  10.650   0.750 -2.6434 -1.7723  0.0325
  201MOL0     H27729  10.322  10.703   0.817 -0.2943 -0.2465 -0.7819
  201MOL0     H27730  10.395  10.461   0.795  1.2526  2.1559 -1.5862
  201MOL0     H27731  10.497  10.481   0.939  0.6454  3.6550  0.7680
  201MOL0     H27732  10.297  10.561   1.090 -1.7950  1.7011 -0.3849
  201MOL0     H27733  10.265  10.396   1.022 -0.7701  0.1866 -3.5042
  201MOL0     H27734   9.937  10.632   0.920 -0.0495 -0.1268  0.8004
  201MOL0     H27735  10.309  10.901   0.794  2.3140 -0.1023  0.9709
  201MOL0     H27736  10.174  11.221   0.658  0.8512  3.8242  3.2352
  201MOL0     H27737  10.158  11.040   0.665  0.6787 -1.4391  0.0944
  201MOL0     H27738  10.100  11.156   0.800 -2.1146 -0.7204 -3.3617
  202MOL0     O27739   8.071   4.104  11.237  0.1508  0.2409 -0.1852
  202MOL0     C27740   8.153   4.179  11.290  0.1081 -0.3497  0.8107
  202MOL0     O27741   8.297   4.151  11.299  0.0059  0.1105 -0.0576
  202MOL0     C27742   8.335   4.020  11.267  0.7684 -0.4451 -0.2274
  202MOL0     C27743   8.303   3.976  11.135  0.9851 -0.5792  0.8159
  202MOL0     C27744   8.355   3.847  11.090 -0.2470  0.4324 -0.4358
  202MOL0     C27745   8.445   3.775  11.177  0.1172 -0.4702 -0.7785
  202MOL0     O27746   8.499   3.664  11.130  0.5183 -0.3128  0.2756
  202MOL0     C27747   8.516   3.540  11.202 -0.6069  0.2198  0.1153
  202MOL0     C27748   8.578   3.430  11.118 -0.8135 -0.3473  0.4651
  202MOL0     C27749   8.720   3.470  11.064  0.0058  0.8929 -0.8689
  202MOL0     C27750   8.779   3.350  10.982  0.3233  0.0947 -0.4145
  202MOL0     C27751   8.707   3.333  10.846  1.3228 -0.6686 -0.6916
  202MOL0     C27752   8.759   3.220  10.756 -0.6852 -0.6439  0.2152
  202MOL0     C27753   8.679   3.214  10.620  0.5193 -0.1123 -0.2841
  202MOL0     C27754   8.763   3.123  10.529 -0.6161  0.5598  0.4010
  202MOL0     N27755   8.901   3.175  10.491  0.9534 -0.2736 -0.6689
  202MOL0     C27756   8.932   3.298  10.429  0.0701  0.0646 -0.7417
  202MOL0     C27757   9.069   3.284  10.414  0.3395  0.0897  0.2337
  202MOL0     C27758   9.157   3.401  10.372  0.8101  0.3946 -0.8142
  202MOL0     C27759   9.156   3.413  10.223 -0.4895 -0.5395  0.1508
  202MOL0     C27760   9.246   3.535  10.191  1.0431  0.5376  0.2897
  202MOL0     C27761   9.213   3.600  10.050 -0.1178  0.2477  0.5983
  202MOL0     O27762   9.240   3.511   9.947  0.6369  0.0015 -0.0184
  202MOL0     C27763   9.209   3.536   9.817 -0.8943  0.4687 -0.1280
  202MOL0     C27764   9.313   3.575   9.725 -0.4237  0.4212 -0.7067
  202MOL0     C27765   9.276   3.577   9.586  0.0656 -0.2319  0.3105
  202MOL0     C27766   9.388   3.622   9.496  0.0939 -1.0089  0.2971
  202MOL0     C27767   9.140   3.562   9.544  0.0732 -0.4232 -0.0351
  202MOL0     C27768   9.098   3.548   9.398  0.2730  0.1928 -1.0889
  202MOL0     O27769   8.966   3.546   9.389 -0.2873  0.5858 -0.1758
  202MOL0     C27770   8.900   3.488   9.281 -0.2818  0.0326 -0.5219
  202MOL0     C27771   8.944   3.509   9.151 -0.1586  0.7866  0.6243
  202MOL0     C27772   8.883   3.436   9.050  0.9044 -0.1799  1.0105
  202MOL0     C27773   8.790   3.330   9.076 -0.8157 -0.2175  0.1617
  202MOL0     O27774   8.727   3.250   8.983 -0.1946 -0.3239  0.0566
  202MOL0     C27775   8.738   3.290   8.848  0.1402 -0.7271 -0.0623
  202MOL0     C27776   8.706   3.186   8.750 -1.4407 -0.4495 -0.3346
  202MOL0     C27777   8.587   3.107   8.799  0.8029  0.0845 -0.1653
  202MOL0     C27778   8.535   3.007   8.692 -0.2799 -0.4001 -0.6270
  202MOL0     C27779   8.392   2.953   8.722  0.5205  0.0204 -1.3466
  202MOL0     C27780   8.348   2.858   8.609 -0.3367 -0.7977 -0.3612
  202MOL0     C27781   8.206   2.801   8.628 -0.6551  0.0670 -0.5940
  202MOL0     C27782   8.179   2.672   8.535 -0.7129 -0.3810 -0.3096
  202MOL0    Cl27783   8.142   2.704   8.361 -0.1604  0.4980  0.0032
  202MOL0     C27784   8.751   3.309   9.218  1.6018  0.3237 -0.2339
  202MOL0     C27785   8.802   3.392   9.318  0.1947  0.0221  0.1186
  202MOL0     O27786   9.181   3.519   9.312  0.3677  0.2651 -0.4373
  202MOL0     C27787   9.051   3.538   9.644 -0.1744  0.5107 -0.1371
  202MOL0     C27788   9.083   3.520   9.777  0.0058  0.2049 -0.9644
  202MOL0     N27789   9.118   3.158  10.450 -0.6924 -0.3990 -0.0102
  202MOL0     N27790   9.017   3.095  10.494  0.3675 -0.0534  0.2352
  202MOL0     C27791   8.468   3.828  11.306 -0.2745 -0.0140 -0.3504
  202MOL0     C27792   8.404   3.946  11.351  0.9909  1.1095 -0.3839
  202MOL0     C27793   8.109   4.309  11.354  1.0536  0.0498  0.0524
  202MOL0     C27794   8.212   4.395  11.399 -0.8322 -0.1160 -0.5001
  202MOL0     C27795   8.194   4.494  11.485  0.2356 -0.2825  0.5139
  202MOL0     C27796   8.066   4.547  11.505  0.0161  0.1561  1.0583
  202MOL0     O27797   8.039   4.651  11.585  0.4812  0.6659 -0.5423
  202MOL0     C27798   8.047   4.778  11.504  0.6858  0.1942 -1.0697
  202MOL0     C27799   7.908   4.845  11.511  0.7182  0.2878  0.7308
  202MOL0     C27800   7.897   4.984  11.451 -0.6900  0.3803  0.1520
  202MOL0     C27801   7.758   5.021  11.404 -0.0887  0.0681  0.1491
  202MOL0     C27802   7.713   4.956  11.275  0.0066 -0.5568 -0.1699
  202MOL0     C27803   7.675   4.911  11.168 -0.1678  0.7284  0.0205
  202MOL0     C27804   7.958   4.485  11.437 -0.0332  0.0251 -0.7656
  202MOL0     C27805   7.977   4.369  11.359 -0.3533  0.0942  0.3397
  202MOL0     C27806   7.859   4.323  11.292  0.2736  0.5496  1.0578
  202MOL0     H27807   8.242   4.034  11.067  0.0629  1.1086  2.9615
  202MOL0     H27808   8.321   3.805  10.996  3.4732  0.1983 -1.8332
  202MOL0     H27809   8.414   3.511  11.229 -1.3672  2.0059 -0.6599
  202MOL0     H27810   8.572   3.560  11.293 -1.4756  1.7119  0.3526
  202MOL0     H27811   8.579   3.335  11.173 -4.2270  0.0271  1.3885
  202MOL0     H27812   8.514   3.415  11.031  0.0532  2.0230 -0.6359
  202MOL0     H27813   8.716   3.561  11.003  0.6974  2.3699  1.1764
  202MOL0     H27814   8.786   3.503  11.145 -0.1419 -0.8168  0.0020
  202MOL0     H27815   8.885   3.370  10.968  0.3034  0.8833  0.4144
  202MOL0     H27816   8.765   3.260  11.042  3.3188  0.1183  0.4901
  202MOL0     H27817   8.713   3.427  10.791  2.4959 -1.4931 -2.0600
  202MOL0     H27818   8.602   3.309  10.865  0.4806  1.7827 -1.8467
  202MOL0     H27819   8.865   3.246  10.751 -0.8178  0.2084  1.3154
  202MOL0     H27820   8.741   3.124  10.806  0.7006 -0.5850  0.8694
  202MOL0     H27821   8.663   3.310  10.570 -0.3875 -0.0634  0.0966
  202MOL0     H27822   8.583   3.165  10.636  0.6384 -0.7415 -1.4359
  202MOL0     H27823   8.773   3.022  10.571 -0.0833 -0.1538 -1.3382
  202MOL0     H27824   8.702   3.115  10.438 -1.4287  0.6513  0.9348
  202MOL0     H27825   8.871   3.383  10.401 -0.2316 -1.0927 -3.9558
  202MOL0     H27826   9.259   3.386  10.411  0.5111  1.6733  0.6030
  202MOL0     H27827   9.108   3.491  10.410 -0.5135  0.2040 -2.0093
  202MOL0     H27828   9.181   3.321  10.171 -0.7933  0.6842 -2.2902
  202MOL0     H27829   9.054   3.442  10.195 -1.3645 -1.2882  2.3078
  202MOL0     H27830   9.217   3.621  10.252 -1.3152  1.0335 -1.4056
  202MOL0     H27831   9.352   3.514  10.209  0.0167 -4.1677  2.3535
  202MOL0     H27832   9.116   3.652  10.051  0.7356  1.8930  1.1490
  202MOL0     H27833   9.287   3.680  10.043  0.5860 -0.3317  1.2374
  202MOL0     H27834   9.415   3.581   9.761  0.5255 -1.5376 -2.8148
  202MOL0     H27835   9.472   3.648   9.562 -1.4543 -1.2921  2.4517
  202MOL0     H27836   9.355   3.718   9.456  1.6757  1.0171  3.4349
  202MOL0     H27837   9.415   3.567   9.405 -0.9284  1.8808 -1.8852
  202MOL0     H27838   9.009   3.591   9.123 -2.3106  2.8106  1.1933
  202MOL0     H27839   8.904   3.475   8.951  0.6218  1.1061  1.4454
  202MOL0     H27840   8.664   3.364   8.816 -1.0105 -1.4154  0.8954
  202MOL0     H27841   8.844   3.311   8.837  0.2777  0.0242  2.3035
  202MOL0     H27842   8.696   3.235   8.653  5.5940  1.1379 -0.7988
  202MOL0     H27843   8.799   3.127   8.748 -0.0933  1.4728  1.1809
  202MOL0     H27844   8.512   3.181   8.829 -1.0298 -1.2687 -1.2606
  202MOL0     H27845   8.613   3.059   8.894 -0.7240  1.9979  1.3303
  202MOL0     H27846   8.614   2.932   8.681  0.9501  0.8743 -0.7756
  202MOL0     H27847   8.517   3.075   8.608 -2.1332  1.8336  1.4459
  202MOL0     H27848   8.401   2.902   8.818 -0.2040 -3.7075 -3.0690
  202MOL0     H27849   8.332   3.043   8.733  1.8434  0.6274  5.6668
  202MOL0     H27850   8.415   2.771   8.613 -0.0974 -0.5989  0.0530
  202MOL0     H27851   8.339   2.917   8.518 -2.5579 -1.5836 -0.7265
  202MOL0     H27852   8.140   2.887   8.612 -4.1762 -1.4952  3.4627
  202MOL0     H27853   8.183   2.773   8.731  0.2133  1.7686  0.1008
  202MOL0     H27854   8.091   2.619   8.573 -2.0090  1.9290  0.0350
  202MOL0     H27855   8.262   2.601   8.539  0.0329  0.5191  0.6834
  202MOL0     H27856   8.678   3.231   9.238  0.6231  1.1011 -0.6948
  202MOL0     H27857   8.774   3.391   9.423  1.5023 -0.7075  0.4824
  202MOL0     H27858   8.945   3.529   9.621  0.3008  0.3164 -2.4361
  202MOL0     H27859   9.006   3.498   9.851 -1.4276 -1.5694 -2.8376
  202MOL0     H27860   8.548   3.792  11.370  0.7836  4.6996  1.3356
  202MOL0     H27861   8.438   3.994  11.443 -0.2072  0.5322  0.3870
  202MOL0     H27862   8.316   4.368  11.382 -0.5333  0.6847 -0.0077
  202MOL0     H27863   8.276   4.547  11.532  1.2801 -1.4615  0.0847
  202MOL0     H27864   8.117   4.845  11.554 -1.6927  1.2868  1.0459
  202MOL0     H27865   8.063   4.767  11.396  0.0410  1.8453 -1.3706
  202MOL0     H27866   7.876   4.853  11.616 -0.2585 -0.8529  0.5475
  202MOL0     H27867   7.835   4.774  11.470  2.0948 -2.1638  2.2504
  202MOL0     H27868   7.913   5.052  11.535 -2.8924 -1.1058  1.8781
  202MOL0     H27869   7.966   5.007  11.368 -0.5451  1.7627  0.6297
  202MOL0     H27870   7.765   5.123  11.366  0.8234 -0.7056 -1.9314
  202MOL0     H27871   7.686   5.012  11.486 -0.9268  0.5163 -0.5098
  202MOL0     H27872   7.661   4.868  11.071 -0.0759  0.9285 -0.0816
  202MOL0     H27873   7.856   4.522  11.442  0.8331  2.4324  2.0217
  202MOL0     H27874   7.849   4.367  11.192  1.5096 -0.0432  0.6444
  202MOL0     H27875   7.870   4.217  11.266 -1.4597  1.0805 -2.5076
  202MOL0     H27876   7.764   4.336  11.344 -1.2927  1.2164 -1.7782
  203MOL0     O27877   0.926   5.255   1.786 -0.2169  0.0394 -0.3941
  203MOL0     C27878   1.047   5.250   1.792 -0.6193 -0.3823 -0.2597
  203MOL0     O27879   1.130   5.349   1.761 -0.2844 -0.2466  0.1098
  203MOL0     C27880   1.082   5.459   1.688 -0.1688  0.4251  0.5682
  203MOL0     C27881   1.035   5.571   1.751 -0.1074 -0.2058  0.0509
  203MOL0     C27882   0.982   5.685   1.675  0.1980  0.6513  0.5751
  203MOL0     C27883   0.996   5.685   1.531 -0.0331 -0.3609  0.4828
  203MOL0     O27884   0.981   5.793   1.452 -0.2204 -0.0116  0.1456
  203MOL0     C27885   0.844   5.826   1.434 -0.3773  0.5098  0.6607
  203MOL0     C27886   0.798   5.773   1.297  0.5681 -1.0604 -0.4282
  203MOL0     C27887   0.867   5.846   1.183  0.3360  0.8003 -0.0896
  203MOL0     C27888   0.786   5.824   1.059  0.2150 -0.2000  0.3466
  203MOL0     C27889   0.854   5.854   0.933  0.9163 -0.4920  0.6027
  203MOL0     C27890   0.769   5.820   0.800  0.8175  0.0243 -0.0467
  203MOL0     C27891   0.845   5.885   0.692  0.1911 -0.1400 -0.6322
  203MOL0     C27892   0.982   5.839   0.664 -0.1889  0.1820  0.2724
  203MOL0     N27893   1.023   5.869   0.525  0.0400  0.1856 -0.5356
  203MOL0     C27894   1.072   5.997   0.490 -0.8073  0.5226 -0.2054
  203MOL0     C27895   1.085   5.991   0.358  0.3107  0.0514  0.1533
  203MOL0     C27896   1.138   6.104   0.267  0.5064  0.3204 -0.2791
  203MOL0     C27897   1.108   6.088   0.115  0.5173 -0.7952 -0.3812
  203MOL0     C27898   1.150   6.222   0.043 -0.5545  0.8609  0.2800
  203MOL0     C27899   1.176   6.185  -0.108 -0.1158 -0.6325 -0.2938
  203MOL0     O27900   1.273   6.076  -0.132  0.7489  0.4068  0.2819
  203MOL0     C27901   1.304   6.051  -0.266  1.0576  0.0313 -0.4927
  203MOL0     C27902   1.249   6.126  -0.371 -0.6634  0.3735 -1.0835
  203MOL0     C27903   1.297   6.106  -0.506 -0.3255  0.2128 -0.6703
  203MOL0     C27904   1.248   6.204  -0.603  0.2613  0.3881 -0.1192
  203MOL0     C27905   1.393   6.007  -0.542 -0.9455 -0.5122  0.4220
  203MOL0     C27906   1.432   5.959  -0.683  0.6551 -0.0455  0.1289
  203MOL0     O27907   1.530   5.866  -0.703 -0.2109 -0.3223 -0.4324
  203MOL0     C27908   1.548   5.792  -0.818  1.0082  0.8358  0.3285
  203MOL0     C27909   1.448   5.764  -0.915  0.2931 -1.0956 -0.2669
  203MOL0     C27910   1.471   5.685  -1.023 -0.9010 -0.5096  0.0223
  203MOL0     C27911   1.593   5.629  -1.043  0.6640  0.2515  0.6432
  203MOL0     O27912   1.607   5.534  -1.147 -0.4087  0.6442  0.2317
  203MOL0     C27913   1.482   5.467  -1.206 -0.4237  0.0491  1.0309
  203MOL0     C27914   1.416   5.541  -1.331 -0.0839  1.3989  0.0741
  203MOL0     C27915   1.365   5.440  -1.436 -0.3544  0.0949 -0.0090
  203MOL0     C27916   1.469   5.409  -1.540 -0.4729 -0.3779  0.3476
  203MOL0     C27917   1.422   5.299  -1.638  0.4206  0.2116 -0.1703
  203MOL0     C27918   1.478   5.311  -1.784 -0.4649 -0.0103 -0.1299
  203MOL0     C27919   1.396   5.209  -1.876 -0.3041 -0.4602 -0.6686
  203MOL0     C27920   1.472   5.075  -1.881  0.1522  0.7110  0.2883
  203MOL0    Cl27921   1.369   4.950  -1.973  0.2864  0.1619 -0.7004
  203MOL0     C27922   1.700   5.669  -0.955 -0.7956  0.0725 -0.6128
  203MOL0     C27923   1.673   5.742  -0.838  0.4322 -0.5781 -0.4137
  203MOL0     O27924   1.358   6.000  -0.771  0.2406 -0.2085 -0.3795
  203MOL0     C27925   1.439   5.932  -0.440 -0.7768  0.2167  0.9301
  203MOL0     C27926   1.387   5.950  -0.305  0.5206  0.4770 -0.5136
  203MOL0     N27927   1.069   5.860   0.328 -0.2222 -0.8082 -0.1634
  203MOL0     N27928   1.047   5.783   0.430 -0.6352 -0.2234 -0.3022
  203MOL0     C27929   1.051   5.565   1.472  0.6138 -0.4019  1.1383
  203MOL0     C27930   1.096   5.446   1.549  0.0307  0.1354  0.7746
  203MOL0     C27931   1.119   5.126   1.817  0.1529  0.5761 -0.7659
  203MOL0     C27932   1.248   5.117   1.763 -0.0360  0.3936 -0.6429
  203MOL0     C27933   1.320   5.002   1.775  0.7625 -0.0889  0.1672
  203MOL0     C27934   1.261   4.894   1.849  0.7688 -0.2020  0.6127
  203MOL0     O27935   1.328   4.783   1.869  0.6866  0.0157 -0.2505
  203MOL0     C27936   1.334   4.693   1.759 -0.7768  0.6245  0.1328
  203MOL0     C27937   1.194   4.652   1.704  0.1272 -0.2965 -0.1909
  203MOL0     C27938   1.106   4.564   1.799  0.5806  0.2010 -0.6324
  203MOL0     C27939   0.963   4.522   1.737  0.4471  0.2571  0.3620
  203MOL0     C27940   0.879   4.637   1.738 -0.3981 -0.1151 -0.2401
  203MOL0     C27941   0.822   4.744   1.702  0.7101  0.6710 -1.0562
  203MOL0     C27942   1.128   4.886   1.898 -1.0871 -0.6790 -0.9293
  203MOL0     C27943   1.054   5.006   1.887  0.2401  0.1217  0.4652
  203MOL0     C27944   0.921   5.015   1.949  0.2184  0.2229 -0.5977
  203MOL0     H27945   1.018   5.572   1.858 -1.9389 -0.2652 -0.2068
  203MOL0     H27946   0.926   5.754   1.736 -0.8123 -0.0626  0.4799
  203MOL0     H27947   0.851   5.935   1.428 -0.1961  0.4101 -2.8068
  203MOL0     H27948   0.794   5.797   1.526  1.3440  0.0090  1.4891
  203MOL0     H27949   0.820   5.666   1.291  2.3454 -0.6817 -1.3300
  203MOL0     H27950   0.690   5.789   1.292  0.7319  1.1960  1.2202
  203MOL0     H27951   0.875   5.954   1.201 -2.7724  1.3125 -1.2762
  203MOL0     H27952   0.967   5.802   1.175  0.6509  1.3255  0.7518
  203MOL0     H27953   0.744   5.723   1.062 -0.0942 -0.0856 -0.0176
  203MOL0     H27954   0.693   5.881   1.067 -0.1132 -0.7494  0.5387
  203MOL0     H27955   0.957   5.818   0.928  0.8176 -0.7200  0.1981
  203MOL0     H27956   0.857   5.963   0.937 -0.8666 -0.3171 -1.3345
  203MOL0     H27957   0.748   5.713   0.793  0.4538  0.1261 -0.7114
  203MOL0     H27958   0.669   5.865   0.812  0.3391 -1.2535  0.9816
  203MOL0     H27959   0.851   5.989   0.725  2.4495 -0.9047  1.7047
  203MOL0     H27960   0.788   5.871   0.599  1.4318 -0.6981 -1.3500
  203MOL0     H27961   1.060   5.879   0.730  1.4711  2.0790 -2.5910
  203MOL0     H27962   0.993   5.731   0.662  2.3019  0.3677  0.4778
  203MOL0     H27963   1.091   6.080   0.558  0.0287 -0.7098  1.1189
  203MOL0     H27964   1.245   6.097   0.287 -0.0510 -0.8201  2.7565
  203MOL0     H27965   1.100   6.202   0.294  1.2981  0.3905  0.6226
  203MOL0     H27966   1.156   5.998   0.074  1.9641  0.0050 -0.4766
  203MOL0     H27967   1.001   6.079   0.094 -0.0039  0.1612  1.6117
  203MOL0     H27968   1.084   6.309   0.054 -1.3587  0.2799  0.1232
  203MOL0     H27969   1.244   6.255   0.089 -1.0653  1.0793  1.1832
  203MOL0     H27970   1.080   6.160  -0.154  0.2654 -3.3905  0.2349
  203MOL0     H27971   1.204   6.282  -0.150 -2.1726  0.7292  1.3129
  203MOL0     H27972   1.177   6.205  -0.353 -2.2087 -1.6757  3.0386
  203MOL0     H27973   1.171   6.161  -0.668  0.8412  2.5939 -2.4339
  203MOL0     H27974   1.325   6.240  -0.672 -1.4776  2.0493 -1.3006
  203MOL0     H27975   1.213   6.294  -0.553  0.1811 -0.7897  2.0443
  203MOL0     H27976   1.343   5.787  -0.902 -1.2149 -6.6315 -0.0718
  203MOL0     H27977   1.386   5.679  -1.089 -2.4819  1.5939  1.6949
  203MOL0     H27978   1.536   5.381  -1.248  2.6090  1.0034  2.7351
  203MOL0     H27979   1.422   5.418  -1.129  0.0184 -1.6906  0.3279
  203MOL0     H27980   1.333   5.594  -1.285  0.7125  1.3298  1.6590
  203MOL0     H27981   1.491   5.609  -1.373  0.9378  0.0144 -0.4412
  203MOL0     H27982   1.272   5.481  -1.476 -0.5772  1.2325  1.5946
  203MOL0     H27983   1.332   5.350  -1.384  0.8375  0.1758  0.9252
  203MOL0     H27984   1.567   5.401  -1.492 -1.2849 -2.4161  1.8159
  203MOL0     H27985   1.486   5.498  -1.602  0.7120 -0.8773 -0.0914
  203MOL0     H27986   1.428   5.209  -1.577 -2.6847  2.0921  3.3256
  203MOL0     H27987   1.316   5.316  -1.659  0.6187 -0.7940 -2.2363
  203MOL0     H27988   1.584   5.285  -1.780 -1.0370 -2.6641 -0.1501
  203MOL0     H27989   1.471   5.414  -1.820  1.3005 -0.3652 -1.6652
  203MOL0     H27990   1.403   5.254  -1.975 -1.2456  1.5686  0.1333
  203MOL0     H27991   1.294   5.190  -1.842  0.3762 -2.8215  0.2332
  203MOL0     H27992   1.467   5.032  -1.781 -0.7884  3.0404  1.3065
  203MOL0     H27993   1.576   5.078  -1.916  1.2113 -2.5608  2.6961
  203MOL0     H27994   1.800   5.628  -0.969 -1.3647 -2.1864  1.1762
  203MOL0     H27995   1.756   5.765  -0.772 -0.9615  1.1969  0.7999
  203MOL0     H27996   1.511   5.852  -0.455 -2.7502 -1.9506  2.4623
  203MOL0     H27997   1.423   5.894  -0.220  0.5323  0.4317 -0.5484
  203MOL0     H27998   1.045   5.562   1.364  0.7316 -0.4527  1.1324
  203MOL0     H27999   1.130   5.351   1.508 -2.1212  0.4822 -2.0721
  203MOL0     H28000   1.296   5.203   1.718 -0.9855  0.2694 -1.9424
  203MOL0     H28001   1.423   5.017   1.745  0.9741  0.3902  1.0990
  203MOL0     H28002   1.381   4.755   1.682 -2.0730  0.2831 -0.9570
  203MOL0     H28003   1.386   4.603   1.791 -2.6039 -0.5386 -0.0446
  203MOL0     H28004   1.213   4.599   1.610  1.6244 -1.7245  0.8691
  203MOL0     H28005   1.138   4.741   1.672  0.1956 -0.7010 -1.4869
  203MOL0     H28006   1.172   4.477   1.808  0.0181 -0.2008 -0.3154
  203MOL0     H28007   1.090   4.608   1.898 -0.4303  0.4725 -0.9092
  203MOL0     H28008   0.919   4.453   1.809 -1.1785  0.1101 -0.7314
  203MOL0     H28009   0.962   4.473   1.640  2.6212 -0.6271  0.7368
  203MOL0     H28010   0.778   4.837   1.672  1.3450  2.2029  2.2850
  203MOL0     H28011   1.086   4.801   1.950  0.2673 -0.7628  0.0672
  203MOL0     H28012   0.924   4.946   2.034 -0.2086  0.8228 -0.0816
  203MOL0     H28013   0.881   5.113   1.978  2.3336  0.7610  0.7608
  203MOL0     H28014   0.850   4.975   1.877 -0.7047  0.3290  0.2315
  204MOL0     O28015   4.765   4.365   4.436  0.3349  0.0520 -0.7844
  204MOL0     C28016   4.876   4.314   4.439 -0.1255 -0.2995  0.4873
  204MOL0     O28017   4.984   4.389   4.426  0.1478  0.7964  0.8502
  204MOL0     C28018   4.992   4.524   4.457  0.2338  0.4458 -0.5064
  204MOL0     C28019   5.073   4.612   4.391 -0.2488 -0.1983  0.0065
  204MOL0     C28020   5.073   4.753   4.416 -0.0689  0.3124  0.3376
  204MOL0     C28021   4.995   4.811   4.513  0.5626 -0.4012 -0.2383
  204MOL0     O28022   4.999   4.949   4.539 -0.0839  0.4571 -0.3639
  204MOL0     C28023   4.970   4.991   4.676  0.1675  0.1140  0.3808
  204MOL0     C28024   5.051   5.115   4.719  0.3735 -0.1101 -0.8089
  204MOL0     C28025   4.997   5.245   4.671  0.2987 -0.2000  0.8502
  204MOL0     C28026   5.084   5.359   4.731 -0.7006  0.0769 -0.4722
  204MOL0     C28027   5.023   5.497   4.692  0.5329  1.8405 -1.5822
  204MOL0     C28028   4.892   5.540   4.760 -0.6072  0.1798 -0.7068
  204MOL0     C28029   4.883   5.691   4.763  0.6325  0.6501  0.2990
  204MOL0     C28030   4.769   5.734   4.843 -0.3140  0.3067  0.0525
  204MOL0     N28031   4.772   5.873   4.882 -0.4195 -0.2438  0.1538
  204MOL0     C28032   4.681   5.942   4.955  0.4345 -0.1634 -0.0928
  204MOL0     C28033   4.713   6.077   4.948  0.4715  0.3030  0.7761
  204MOL0     C28034   4.620   6.182   5.012  0.6836 -0.1806 -0.4677
  204MOL0     C28035   4.582   6.276   4.896  0.2049 -1.2173 -0.0337
  204MOL0     C28036   4.699   6.370   4.831  0.4581 -0.5483 -1.2144
  204MOL0     C28037   4.825   6.424   4.903  1.0204  0.4029  0.3351
  204MOL0     O28038   4.792   6.537   4.988 -0.0610  0.2869 -0.7868
  204MOL0     C28039   4.850   6.653   4.966  0.8582 -0.0319  1.1200
  204MOL0     C28040   4.945   6.692   5.047 -0.3468 -0.7141  0.4740
  204MOL0     C28041   5.010   6.823   5.018  0.3051 -0.1473 -0.7553
  204MOL0     C28042   5.135   6.859   5.088  0.5928 -0.4474 -0.5499
  204MOL0     C28043   4.971   6.900   4.901  0.7835 -0.0666 -0.5987
  204MOL0     C28044   5.022   7.022   4.867 -0.7027  0.3144  0.1916
  204MOL0     O28045   4.996   7.132   4.953 -0.0301  0.2796 -0.8629
  204MOL0     C28046   5.039   7.263   4.933  0.1415  0.1878  0.7754
  204MOL0     C28047   4.945   7.362   4.954 -0.0743 -1.4296  0.4860
  204MOL0     C28048   4.997   7.494   4.951  0.2250 -0.2898  0.3710
  204MOL0     C28049   5.129   7.532   4.921 -1.1375  1.1189  0.2868
  204MOL0     O28050   5.178   7.666   4.916 -1.0376  0.0952  0.5856
  204MOL0     C28051   5.107   7.767   4.985 -0.6542  0.4928  0.4580
  204MOL0     C28052   5.163   7.905   4.955  0.2678  0.4080  0.0262
  204MOL0     C28053   5.281   7.941   5.038 -0.3625  0.4373 -0.6220
  204MOL0     C28054   5.334   8.089   5.048  0.9292  0.3790  0.5706
  204MOL0     C28055   5.222   8.177   5.122  0.2308 -0.5739  0.6267
  204MOL0     C28056   5.271   8.326   5.133 -0.5984 -0.0320  0.3674
  204MOL0     C28057   5.174   8.413   5.211 -0.1829 -0.4029  0.5742
  204MOL0     C28058   5.217   8.557   5.211 -0.2127 -0.4438 -0.1223
  204MOL0    Cl28059   5.070   8.633   5.290 -0.4803 -0.0628 -0.1670
  204MOL0     C28060   5.222   7.425   4.905  0.5057  0.2141  0.5001
  204MOL0     C28061   5.170   7.296   4.905  0.3510  0.3048  0.1093
  204MOL0     O28062   5.085   7.032   4.762 -0.3856  0.6021 -0.6568
  204MOL0     C28063   4.870   6.851   4.819  1.2854  0.4927 -0.2981
  204MOL0     C28064   4.805   6.732   4.861 -0.1906  0.2632  0.6015
  204MOL0     N28065   4.821   6.084   4.862 -0.6375  0.6153 -0.1318
  204MOL0     N28066   4.856   5.965   4.826  0.4616  0.0230 -0.1433
  204MOL0     C28067   4.911   4.720   4.588 -0.2545 -0.1341 -0.4893
  204MOL0     C28068   4.920   4.584   4.569 -0.4574 -0.1517 -0.1956
  204MOL0     C28069   4.895   4.165   4.410  0.5031 -0.4751  0.2723
  204MOL0     C28070   5.003   4.119   4.331  0.8404 -0.8459  0.7073
  204MOL0     C28071   5.029   3.987   4.328 -0.2212 -0.5373  0.4463
  204MOL0     C28072   4.953   3.888   4.397 -0.2779 -0.3103  1.3754
  204MOL0     O28073   4.971   3.759   4.378 -0.3598  0.3352  0.3554
  204MOL0     C28074   5.105   3.705   4.398  0.2240  0.2553 -0.2001
  204MOL0     C28075   5.111   3.559   4.454  0.3649  0.4117  0.0074
  204MOL0     C28076   5.068   3.556   4.602 -0.2159  0.5953  0.0101
  204MOL0     C28077   5.161   3.638   4.693  0.2076  1.8641 -0.0047
  204MOL0     C28078   5.118   3.782   4.702  0.3539  0.4803 -0.2153
  204MOL0     C28079   5.090   3.905   4.724 -0.5109  0.0370  1.0756
  204MOL0     C28080   4.850   3.934   4.482 -0.1531 -0.2697  0.8437
  204MOL0     C28081   4.824   4.070   4.492 -0.7090  0.0770 -1.6494
  204MOL0     C28082   4.733   4.112   4.603  0.9185  0.8291  0.5517
  204MOL0     H28083   5.145   4.588   4.314  4.0341  2.7441  2.7168
  204MOL0     H28084   5.136   4.812   4.351 -0.0538  0.2897  0.3316
  204MOL0     H28085   5.003   4.910   4.742 -0.8762 -0.3583  0.3488
  204MOL0     H28086   4.863   5.011   4.689  0.3654  1.0965  0.5453
  204MOL0     H28087   5.062   5.120   4.828 -0.6376 -1.4269 -0.6292
  204MOL0     H28088   5.147   5.103   4.666 -1.2289  0.6635 -4.1806
  204MOL0     H28089   5.010   5.243   4.562  1.6000 -0.7510  0.9959
  204MOL0     H28090   4.892   5.250   4.702  0.7974  0.4137  2.5654
  204MOL0     H28091   5.101   5.358   4.839 -0.0956 -1.2597 -0.5612
  204MOL0     H28092   5.186   5.353   4.692 -0.5765 -2.2049  0.0775
  204MOL0     H28093   5.022   5.509   4.583  1.0271 -1.2122 -2.0111
  204MOL0     H28094   5.095   5.571   4.730 -0.8351  1.2159  2.7984
  204MOL0     H28095   4.815   5.495   4.696 -0.5311 -4.2890  1.9149
  204MOL0     H28096   4.880   5.491   4.857  1.4980 -0.2383 -0.6209
  204MOL0     H28097   4.850   5.731   4.667 -2.4716 -1.2066  0.4583
  204MOL0     H28098   4.979   5.730   4.799  0.8626  2.3081 -1.9181
  204MOL0     H28099   4.676   5.722   4.788 -0.6760  1.1779  0.4508
  204MOL0     H28100   4.773   5.681   4.939  1.9474  2.5438  1.3200
  204MOL0     H28101   4.586   5.898   4.985  1.1564 -1.6861  0.0342
  204MOL0     H28102   4.680   6.237   5.085 -0.7553  2.0524 -0.8929
  204MOL0     H28103   4.533   6.139   5.063  0.6873 -2.1786 -2.0251
  204MOL0     H28104   4.556   6.208   4.814 -1.0641 -0.5768 -0.1737
  204MOL0     H28105   4.508   6.350   4.926 -0.5422 -3.0739  3.1507
  204MOL0     H28106   4.726   6.320   4.737  1.4168 -1.7294 -0.3495
  204MOL0     H28107   4.649   6.459   4.794  0.4655  1.8879  3.8352
  204MOL0     H28108   4.868   6.348   4.969  1.7236  0.5887  0.0960
  204MOL0     H28109   4.892   6.460   4.825 -0.4572  4.1284  0.5877
  204MOL0     H28110   4.989   6.629   5.124  0.2618  1.2634  1.8500
  204MOL0     H28111   5.206   6.910   5.022  0.6211  1.3513  0.8160
  204MOL0     H28112   5.175   6.768   5.133 -1.4028 -2.1179 -1.9566
  204MOL0     H28113   5.116   6.931   5.168 -0.5270  0.4847 -1.6054
  204MOL0     H28114   4.844   7.344   4.992 -0.2246  0.4806  1.1001
  204MOL0     H28115   4.925   7.573   4.970 -1.8777 -1.5458 -1.7594
  204MOL0     H28116   5.001   7.755   4.958  0.2883 -4.1323 -2.4282
  204MOL0     H28117   5.108   7.752   5.093 -3.1454  3.3767  1.0247
  204MOL0     H28118   5.195   7.920   4.851  1.5559  1.2568  0.5149
  204MOL0     H28119   5.092   7.984   4.981  1.6926  1.1045  2.0349
  204MOL0     H28120   5.364   7.878   5.003  1.1476  0.8024  2.0002
  204MOL0     H28121   5.260   7.899   5.137 -2.7018 -2.5487 -2.2267
  204MOL0     H28122   5.355   8.131   4.949  0.8087 -1.4555 -0.2691
  204MOL0     H28123   5.426   8.089   5.108  1.2046  0.6028  0.1530
  204MOL0     H28124   5.141   8.173   5.049  0.1070 -0.3587  0.7525
  204MOL0     H28125   5.197   8.142   5.223 -0.3953  0.2884  0.7774
  204MOL0     H28126   5.283   8.364   5.031 -2.6705  0.3199  0.2120
  204MOL0     H28127   5.372   8.336   5.176 -0.3114  1.8716 -0.5933
  204MOL0     H28128   5.169   8.372   5.312  0.3167  0.0640  0.7969
  204MOL0     H28129   5.071   8.414   5.175 -0.3023 -1.0153  0.8997
  204MOL0     H28130   5.218   8.605   5.113 -0.1600 -0.4775 -0.1378
  204MOL0     H28131   5.309   8.584   5.263 -0.6335 -2.6419  1.9949
  204MOL0     H28132   5.326   7.444   4.882  0.8325 -1.4285  0.5198
  204MOL0     H28133   5.253   7.226   4.895  0.8136  0.0983  4.0868
  204MOL0     H28134   4.849   6.913   4.732  0.9462  0.3269 -0.3342
  204MOL0     H28135   4.741   6.691   4.784 -1.5968  1.0766  1.3066
  204MOL0     H28136   4.866   4.765   4.676  1.8426  2.4294 -0.6091
  204MOL0     H28137   4.859   4.516   4.628  1.2119 -1.0154  0.5919
  204MOL0     H28138   5.056   4.197   4.278 -1.8338 -0.1766 -1.2197
  204MOL0     H28139   5.113   3.957   4.267 -0.7354 -1.8753  0.3544
  204MOL0     H28140   5.166   3.697   4.308  0.3332 -5.2268  0.0321
  204MOL0     H28141   5.153   3.779   4.462 -0.8095  0.6374  0.1596
  204MOL0     H28142   5.210   3.519   4.427 -0.7072 -2.0426 -0.5421
  204MOL0     H28143   5.044   3.496   4.394 -0.2988  0.5258  0.6218
  204MOL0     H28144   4.961   3.577   4.609 -0.0605  1.2062  0.7168
  204MOL0     H28145   5.084   3.451   4.628  2.4068  0.3658 -2.0940
  204MOL0     H28146   5.264   3.630   4.655  0.1702 -1.3011  0.2235
  204MOL0     H28147   5.168   3.590   4.792  2.8823  0.0524 -0.9423
  204MOL0     H28148   5.085   4.009   4.749  0.8634  0.0425  1.3720
  204MOL0     H28149   4.799   3.856   4.539 -1.6342 -0.7681 -1.0709
  204MOL0     H28150   4.641   4.152   4.561  0.5682 -1.4374 -1.0577
  204MOL0     H28151   4.702   4.021   4.657  0.1197 -1.6565 -3.6434
  204MOL0     H28152   4.779   4.188   4.665  0.1295 -0.3229  2.6681
  205MOL0     O28153   6.938  10.034   6.842  0.1600 -0.1084 -0.3416
  205MOL0     C28154   6.896   9.968   6.746 -0.1180 -0.7907 -0.5655
  205MOL0     O28155   6.966   9.882   6.664  0.6729 -0.6377  0.3426
  205MOL0     C28156   7.101   9.877   6.683  1.1030  0.1556 -0.1524
  205MOL0     C28157   7.184   9.972   6.621  0.7794 -0.0620  0.6097
  205MOL0     C28158   7.327   9.969   6.650  0.3312 -0.0924  0.0502
  205MOL0     C28159   7.393   9.869   6.720 -0.5078  0.2376 -0.7197
  205MOL0     O28160   7.526   9.869   6.750  0.1835  0.9053  0.1875
  205MOL0     C28161   7.601   9.971   6.688  0.1852  0.2650 -0.0643
  205MOL0     C28162   7.757   9.964   6.703 -0.0193 -0.4320  0.8277
  205MOL0     C28163   7.808   9.826   6.647 -0.2232  0.7486  0.4486
  205MOL0     C28164   7.827   9.825   6.498  0.0979 -0.2866 -1.0754
  205MOL0     C28165   7.827   9.688   6.439 -0.9277 -0.5238 -0.4107
  205MOL0     C28166   7.943   9.607   6.489 -0.0003 -1.1771  0.6800
  205MOL0     C28167   7.935   9.463   6.450 -0.6394  0.5704 -0.3459
  205MOL0     C28168   8.064   9.396   6.475 -0.4759  0.2606 -0.5928
  205MOL0     N28169   8.104   9.405   6.616  0.0384  0.1626 -0.4499
  205MOL0     C28170   8.070   9.303   6.713  0.3391  0.1134  0.3125
  205MOL0     C28171   8.102   9.343   6.836  1.0988  0.2896 -0.8187
  205MOL0     C28172   8.109   9.277   6.972 -1.0948  0.3175  0.2456
  205MOL0     C28173   7.968   9.249   7.024 -0.1647 -0.2852 -0.1825
  205MOL0     C28174   7.954   9.163   7.161  0.0818 -0.1529 -0.0043
  205MOL0     C28175   7.976   9.018   7.121 -0.6087  0.0000 -1.4897
  205MOL0     O28176   7.869   8.952   7.049  0.5356  0.1491  0.0289
  205MOL0     C28177   7.889   8.818   7.031  0.3940 -0.6783  0.0368
  205MOL0     C28178   7.970   8.772   6.924  0.1075 -0.2462 -0.3843
  205MOL0     C28179   7.978   8.637   6.913  0.3900  0.2918 -0.7581
  205MOL0     C28180   8.075   8.599   6.799 -0.3096 -0.0427 -0.3794
  205MOL0     C28181   7.905   8.546   6.993  0.0177  0.9160  0.0043
  205MOL0     C28182   7.888   8.396   6.960  0.1316  1.3234  0.3284
  205MOL0     O28183   8.005   8.332   6.913 -0.2867 -0.0246  0.5225
  205MOL0     C28184   8.016   8.200   6.881  0.4874 -0.9017 -0.3197
  205MOL0     C28185   7.928   8.143   6.790  0.0158  0.6929  0.5007
  205MOL0     C28186   7.920   8.003   6.772  0.5673 -0.1806 -0.9257
  205MOL0     C28187   7.994   7.915   6.855 -0.2900 -0.1429  0.5081
  205MOL0     O28188   7.978   7.781   6.858 -0.4494  0.5983  0.7684
  205MOL0     C28189   8.004   7.701   6.741 -0.3449  0.1626 -0.4767
  205MOL0     C28190   7.987   7.564   6.785 -0.7588  0.5503 -0.4965
  205MOL0     C28191   7.843   7.529   6.837  0.3196 -0.4806  0.2394
  205MOL0     C28192   7.824   7.384   6.887  0.8820  0.1347  0.0331
  205MOL0     C28193   7.670   7.322   6.901 -0.6254 -0.4586 -0.1030
  205MOL0     C28194   7.572   7.414   6.972 -0.5867 -0.5885  0.0558
  205MOL0     C28195   7.626   7.479   7.107  0.4339 -0.3085 -0.3625
  205MOL0     C28196   7.692   7.373   7.199  0.7088  0.0293 -0.1927
  205MOL0    Cl28197   7.568   7.251   7.229  0.0860  0.1746  0.1705
  205MOL0     C28198   8.101   7.973   6.927  0.2904  0.2946  0.2295
  205MOL0     C28199   8.105   8.119   6.948  0.2118  0.4934  0.4986
  205MOL0     O28200   7.778   8.340   6.970 -0.2317 -0.0427 -0.8366
  205MOL0     C28201   7.817   8.597   7.090 -0.0979  0.0556 -0.4816
  205MOL0     C28202   7.820   8.735   7.118 -0.5362 -0.9002  0.0548
  205MOL0     N28203   8.159   9.462   6.821 -0.2112 -0.1706 -0.2586
  205MOL0     N28204   8.165   9.500   6.693  1.1688 -0.1567 -0.0058
  205MOL0     C28205   7.299   9.766   6.768  0.1239  0.6667 -0.7581
  205MOL0     C28206   7.166   9.776   6.755  0.0389 -0.4935 -0.0455
  205MOL0     C28207   6.755   9.994   6.700  0.0177  0.1575 -0.6283
  205MOL0     C28208   6.667   9.895   6.700  0.3433 -0.1093  1.7088
  205MOL0     C28209   6.536   9.917   6.646 -0.5789  0.4387  0.6386
  205MOL0     C28210   6.504  10.040   6.597 -0.0179 -0.1281  0.1982
  205MOL0     O28211   6.375  10.053   6.557 -0.0759 -0.5029  0.2902
  205MOL0     C28212   6.300  10.181   6.594  0.7032  0.3159 -0.1205
  205MOL0     C28213   6.239  10.258   6.492  0.2539 -0.0478  0.7748
  205MOL0     C28214   6.140  10.166   6.410 -1.0000  0.0747 -0.4684
  205MOL0     C28215   6.049  10.254   6.327  0.1048  0.2731  0.5594
  205MOL0     C28216   5.939  10.175   6.270  0.1393 -0.4483 -0.0076
  205MOL0     C28217   5.825  10.137   6.222  0.1415 -1.2589  0.2324
  205MOL0     C28218   6.593  10.151   6.598  0.6284  0.8169 -0.2471
  205MOL0     C28219   6.720  10.122   6.651  0.2587 -0.5582 -0.7350
  205MOL0     C28220   6.814  10.241   6.659  0.2033  0.0936  0.3326
  205MOL0     H28221   7.139  10.054   6.565  1.7778  0.8883  1.1650
  205MOL0     H28222   7.381  10.045   6.594  0.8292 -0.9450 -0.6484
  205MOL0     H28223   7.569  10.066   6.732  2.4954 -0.0621  2.6187
  205MOL0     H28224   7.594   9.958   6.580  0.6877 -3.4913  0.1980
  205MOL0     H28225   7.795  10.056   6.659 -1.2491 -0.8058 -1.1239
  205MOL0     H28226   7.782   9.978   6.809 -0.0535  0.1762  0.7554
  205MOL0     H28227   7.896   9.791   6.701 -0.1562  0.2547  0.0322
  205MOL0     H28228   7.729   9.755   6.676  0.4591  0.7732  2.5243
  205MOL0     H28229   7.756   9.884   6.439 -0.5651 -1.0123 -1.0180
  205MOL0     H28230   7.928   9.865   6.481  0.4329 -0.3938  0.4839
  205MOL0     H28231   7.822   9.686   6.329  2.7561 -1.5405 -0.6954
  205MOL0     H28232   7.734   9.638   6.466 -0.4995  0.7677  4.3942
  205MOL0     H28233   8.029   9.649   6.435 -0.2501 -0.1284  1.0725
  205MOL0     H28234   7.943   9.614   6.598 -2.8563  0.0300  0.6771
  205MOL0     H28235   7.919   9.444   6.343 -2.3217 -1.7611  0.2359
  205MOL0     H28236   7.856   9.415   6.508 -0.8351 -0.3328 -1.3339
  205MOL0     H28237   8.065   9.290   6.448 -0.7652 -0.4354  1.8631
  205MOL0     H28238   8.148   9.438   6.419  2.6620  1.1511  4.1586
  205MOL0     H28239   8.026   9.207   6.689  0.5618  0.5049 -1.8873
  205MOL0     H28240   8.157   9.346   7.042  1.5626  0.6697 -1.7594
  205MOL0     H28241   8.173   9.188   6.968  2.9674  2.9836  0.6335
  205MOL0     H28242   7.913   9.343   7.027  1.0862  0.5972 -2.3619
  205MOL0     H28243   7.920   9.196   6.942 -0.6566  0.0943 -0.1450
  205MOL0     H28244   8.016   9.207   7.239 -0.6828  2.7590 -0.8948
  205MOL0     H28245   7.850   9.163   7.196 -1.5318 -1.4116 -4.1094
  205MOL0     H28246   8.077   8.999   7.084  1.2646 -0.8468  3.3635
  205MOL0     H28247   7.967   8.959   7.213  0.6745 -0.6922 -1.7922
  205MOL0     H28248   8.026   8.848   6.871 -1.5673  1.2788 -0.0872
  205MOL0     H28249   8.144   8.677   6.764 -2.4971  1.5190 -1.4297
  205MOL0     H28250   8.028   8.546   6.715 -0.6403 -2.2613  1.1238
  205MOL0     H28251   8.141   8.528   6.850 -0.7913  0.9421  1.7047
  205MOL0     H28252   7.866   8.205   6.727 -3.4622 -2.1121  0.8759
  205MOL0     H28253   7.846   7.966   6.702 -0.7902  0.4618  0.1229
  205MOL0     H28254   7.925   7.736   6.674  1.2696  2.2813 -1.3959
  205MOL0     H28255   8.108   7.715   6.709  0.3880  2.0086  2.3358
  205MOL0     H28256   8.011   7.488   6.711 -2.3313 -0.5321  0.0684
  205MOL0     H28257   8.056   7.545   6.868  2.5500  3.2082 -2.3857
  205MOL0     H28258   7.776   7.551   6.754 -0.1648  0.5612  0.8716
  205MOL0     H28259   7.818   7.607   6.910  0.2668 -1.5404  1.3905
  205MOL0     H28260   7.883   7.364   6.976 -1.3175 -1.7298  1.1987
  205MOL0     H28261   7.868   7.324   6.807 -0.5577 -0.5380 -0.2966
  205MOL0     H28262   7.636   7.317   6.798  2.2428 -0.5179 -1.1408
  205MOL0     H28263   7.664   7.220   6.940 -4.3146  0.0577  1.1217
  205MOL0     H28264   7.489   7.353   7.007 -0.7408 -1.9489 -2.4703
  205MOL0     H28265   7.547   7.498   6.906 -1.3465  0.1504  1.2578
  205MOL0     H28266   7.547   7.535   7.158  0.6596  0.6629 -1.0421
  205MOL0     H28267   7.693   7.560   7.076 -1.4365  0.2853 -3.2376
  205MOL0     H28268   7.738   7.399   7.295  3.9066 -0.0465 -1.5656
  205MOL0     H28269   7.775   7.320   7.150 -0.1550 -0.2742 -1.3677
  205MOL0     H28270   8.174   7.911   6.978  2.2633  0.9181 -1.6978
  205MOL0     H28271   8.180   8.147   7.021  0.2021 -0.5818  0.9313
  205MOL0     H28272   7.761   8.526   7.150 -1.8661  1.0702 -0.8901
  205MOL0     H28273   7.759   8.772   7.199 -1.4680  3.0374 -2.2091
  205MOL0     H28274   7.337   9.676   6.815 -2.7316 -0.4233 -0.3739
  205MOL0     H28275   7.106   9.700   6.804 -0.4414  1.3347  2.3729
  205MOL0     H28276   6.694   9.795   6.734  1.7226  0.0057  1.0193
  205MOL0     H28277   6.470   9.831   6.639 -0.0732 -0.3640  3.9669
  205MOL0     H28278   6.221  10.148   6.663 -0.2434  1.6505 -0.5182
  205MOL0     H28279   6.367  10.236   6.660  0.5269 -1.3891  1.5643
  205MOL0     H28280   6.315  10.296   6.423 -1.5948 -0.7601 -1.7884
  205MOL0     H28281   6.179  10.346   6.519  1.2887  2.7765 -4.6862
  205MOL0     H28282   6.202  10.092   6.358  4.1492  3.4523  0.1315
  205MOL0     H28283   6.082  10.111   6.485  1.4872 -0.0639  1.5097
  205MOL0     H28284   6.105  10.307   6.251 -0.6006  0.6956  0.3274
  205MOL0     H28285   5.999  10.327   6.391 -2.6847 -1.2899  0.3032
  205MOL0     H28286   5.720  10.128   6.201 -0.0245  1.4685 -0.5181
  205MOL0     H28287   6.557  10.249   6.566 -3.4253 -0.4021  0.0894
  205MOL0     H28288   6.818  10.271   6.764 -1.6517 -3.6270  1.6397
  205MOL0     H28289   6.909  10.231   6.606 -0.1186  0.6987 -0.3892
  205MOL0     H28290   6.766  10.322   6.603 -3.4107 -1.2251  1.2388
  206MOL0     O28291   7.869  11.330   6.033  0.4763 -0.5305 -0.3544
  206MOL0     C28292   7.854  11.238   6.113 -0.3407 -0.3829 -0.6239
  206MOL0     O28293   7.770  11.137   6.102  0.0428  0.1578 -0.3391
  206MOL0     C28294   7.679  11.131   5.996 -0.7528 -0.1278  1.0052
  206MOL0     C28295   7.717  11.064   5.886  0.0044 -0.6208 -0.2214
  206MOL0     C28296   7.645  11.052   5.763 -0.3569 -0.0351  0.5459
  206MOL0     C28297   7.538  11.143   5.744  0.9646  0.0144 -0.8577
  206MOL0     O28298   7.452  11.139   5.632 -0.2000 -0.1154 -0.3172
  206MOL0     C28299   7.510  11.086   5.516 -0.4986  0.4280  0.0090
  206MOL0     C28300   7.425  11.136   5.396 -0.2965  0.9156 -0.4629
  206MOL0     C28301   7.506  11.087   5.283  0.1749  0.5802  0.2603
  206MOL0     C28302   7.635  11.160   5.244 -0.1234 -1.2825  0.9699
  206MOL0     C28303   7.713  11.073   5.134  0.0355 -0.1458 -0.8311
  206MOL0     C28304   7.775  10.940   5.184  0.1305  0.8022  0.4312
  206MOL0     C28305   7.853  10.968   5.319 -0.2407 -0.3356  0.8432
  206MOL0     C28306   7.921  10.836   5.367 -0.4992  0.8198  0.3427
  206MOL0     N28307   7.998  10.851   5.487  0.2054  1.1052 -0.3562
  206MOL0     C28308   8.006  10.970   5.567 -0.6647  1.0163  0.2470
  206MOL0     C28309   8.083  10.937   5.674  0.2065 -0.5609 -0.2869
  206MOL0     C28310   8.110  11.024   5.795  0.2134 -0.0914  0.1676
  206MOL0     C28311   8.239  11.013   5.885 -0.3563  0.9256 -0.1923
  206MOL0     C28312   8.238  11.110   5.989  0.3523 -0.2656  0.3049
  206MOL0     C28313   8.384  11.146   6.044  0.1148 -0.1476  0.4026
  206MOL0     O28314   8.434  11.035   6.110 -0.5686 -0.3136 -0.1233
  206MOL0     C28315   8.513  10.946   6.036  0.2696 -0.1997  0.6942
  206MOL0     C28316   8.578  10.969   5.915 -0.7821  0.8091 -0.6139
  206MOL0     C28317   8.649  10.868   5.844 -0.5966 -0.0600  0.3175
  206MOL0     C28318   8.700  10.915   5.709  0.2705 -0.1611 -0.0028
  206MOL0     C28319   8.661  10.741   5.901 -0.0521  0.5889 -0.5708
  206MOL0     C28320   8.729  10.627   5.840 -0.9019 -0.8629  0.4497
  206MOL0     O28321   8.735  10.513   5.914  0.6512 -0.5416  0.4358
  206MOL0     C28322   8.781  10.397   5.854  0.1923  0.2414 -0.8207
  206MOL0     C28323   8.922  10.389   5.837  0.1294  0.5782  0.0608
  206MOL0     C28324   8.982  10.280   5.772  0.2647  0.0974 -0.4331
  206MOL0     C28325   8.907  10.168   5.746  0.8620  0.4387 -0.2642
  206MOL0     O28326   8.981  10.063   5.699 -0.6311 -1.0016  0.3317
  206MOL0     C28327   8.938   9.937   5.759  0.0281  0.7564  0.5926
  206MOL0     C28328   9.055   9.842   5.752 -0.1526  0.7601  0.5910
  206MOL0     C28329   9.012   9.717   5.675  0.7068 -0.2811 -0.3484
  206MOL0     C28330   9.016   9.733   5.521  0.2301  0.4464  0.7189
  206MOL0     C28331   8.894   9.646   5.468 -0.5518  0.4884 -0.1993
  206MOL0     C28332   8.924   9.611   5.319  0.6709 -0.1763  0.7195
  206MOL0     C28333   8.795   9.580   5.237  0.4327  0.6231 -0.8584
  206MOL0     C28334   8.813   9.582   5.085 -0.2108 -0.9096 -0.6312
  206MOL0    Cl28335   8.927   9.453   5.060 -0.0064 -0.4661 -0.1400
  206MOL0     C28336   8.767  10.172   5.762  1.0280  0.3953 -0.3173
  206MOL0     C28337   8.701  10.295   5.814  0.7376  0.2222  0.4545
  206MOL0     O28338   8.785  10.643   5.729  0.0491  0.4639 -0.7578
  206MOL0     C28339   8.598  10.720   6.021  0.0155  0.2617 -0.3176
  206MOL0     C28340   8.522  10.815   6.091  0.4311  0.4022 -0.0029
  206MOL0     N28341   8.113  10.808   5.665 -0.7166  0.4903 -0.2109
  206MOL0     N28342   8.083  10.759   5.546 -0.2536 -0.0991  0.2190
  206MOL0     C28343   7.506  11.219   5.858 -0.0140  0.4961  0.3728
  206MOL0     C28344   7.568  11.203   5.986 -0.3378 -0.0261 -0.7012
  206MOL0     C28345   7.942  11.232   6.236  1.1044  0.3478 -0.1605
  206MOL0     C28346   7.941  11.108   6.307  0.6718  0.1281 -0.3730
  206MOL0     C28347   8.044  11.087   6.395  0.3729 -0.7358 -0.0658
  206MOL0     C28348   8.138  11.181   6.436  0.3218 -0.1750 -0.6610
  206MOL0     O28349   8.238  11.175   6.531  0.0398  0.3839  0.6898
  206MOL0     C28350   8.272  11.045   6.587  0.3277  0.2185 -1.3820
  206MOL0     C28351   8.364  10.990   6.488 -0.3757 -0.5702  0.4312
  206MOL0     C28352   8.360  10.842   6.477  0.6857 -0.4248 -0.2472
  206MOL0     C28353   8.383  10.755   6.603 -0.2256 -0.5294  1.3517
  206MOL0     C28354   8.517  10.737   6.640  0.0069  0.1839 -0.3535
  206MOL0     C28355   8.634  10.742   6.676 -1.2254  0.1622 -0.3051
  206MOL0     C28356   8.123  11.304   6.385  0.0178 -0.4038 -0.2186
  206MOL0     C28357   8.041  11.325   6.280 -0.2379 -0.4229  0.6671
  206MOL0     C28358   8.044  11.462   6.208 -0.5809 -0.9440  1.0346
  206MOL0     H28359   7.810  11.010   5.899 -0.7789 -1.8809  0.2851
  206MOL0     H28360   7.685  10.988   5.685  0.6057 -1.7750  2.3816
  206MOL0     H28361   7.525  10.978   5.514  1.8226  0.6681 -3.1151
  206MOL0     H28362   7.600  11.147   5.503 -0.4547  0.0133 -1.8230
  206MOL0     H28363   7.323  11.096   5.402  0.8090 -2.1515  0.0386
  206MOL0     H28364   7.414  11.243   5.380 -0.4544  0.9343 -0.2434
  206MOL0     H28365   7.515  10.979   5.290 -1.9892  0.1233 -2.0351
  206MOL0     H28366   7.440  11.113   5.199 -1.9465 -1.4957  1.1565
  206MOL0     H28367   7.614  11.255   5.194  0.7506  0.1972  3.2290
  206MOL0     H28368   7.699  11.183   5.330  0.1553 -0.1271  0.4781
  206MOL0     H28369   7.795  11.132   5.090  1.3282 -1.2807 -0.0204
  206MOL0     H28370   7.645  11.051   5.052 -0.4432  1.2987 -0.8545
  206MOL0     H28371   7.693  10.869   5.199  2.0967 -2.6234 -3.1311
  206MOL0     H28372   7.841  10.892   5.111 -2.1769 -2.0585  0.0503
  206MOL0     H28373   7.778  10.986   5.397 -2.0856 -1.6111 -0.5302
  206MOL0     H28374   7.925  11.049   5.305 -0.9374  0.4414  1.6121
  206MOL0     H28375   7.855  10.752   5.390  1.6291 -0.7141  1.2052
  206MOL0     H28376   7.989  10.802   5.288 -0.3203 -1.9600  1.5745
  206MOL0     H28377   7.961  11.067   5.546 -3.6638  0.0647  1.6476
  206MOL0     H28378   8.018  11.027   5.855  1.1865  0.7026  1.6978
  206MOL0     H28379   8.129  11.122   5.749  1.7339 -0.7885 -0.7661
  206MOL0     H28380   8.259  10.910   5.917 -0.6064  1.2851  1.1574
  206MOL0     H28381   8.326  11.036   5.823  2.6220 -2.8406  2.1208
  206MOL0     H28382   8.202  11.200   5.938  2.2075  0.3567 -0.0106
  206MOL0     H28383   8.179  11.077   6.075 -0.3349 -2.5697 -0.9831
  206MOL0     H28384   8.444  11.185   5.961 -2.8483  1.1002 -1.3262
  206MOL0     H28385   8.370  11.229   6.115 -1.3898 -0.3465  0.3738
  206MOL0     H28386   8.561  11.064   5.865 -0.7715  0.9848 -0.2903
  206MOL0     H28387   8.794  10.872   5.672  1.3726  2.8987 -1.0377
  206MOL0     H28388   8.724  11.021   5.723 -0.1126 -0.1692  0.7989
  206MOL0     H28389   8.628  10.903   5.627  0.6336 -0.6242 -0.2552
  206MOL0     H28390   8.983  10.474   5.865  1.7651 -1.2680  2.4748
  206MOL0     H28391   9.089  10.287   5.753 -0.2013  1.7396 -2.7926
  206MOL0     H28392   8.900   9.939   5.862 -1.8600  3.2883 -0.0555
  206MOL0     H28393   8.848   9.910   5.703  0.6054 -0.1174  0.0580
  206MOL0     H28394   9.143   9.881   5.700 -0.3999  0.9273  0.2959
  206MOL0     H28395   9.097   9.815   5.849  0.4353 -1.1710 -0.1502
  206MOL0     H28396   8.913   9.692   5.715  0.2184  0.1322 -1.2791
  206MOL0     H28397   9.088   9.640   5.693  0.8613  0.2718  1.6405
  206MOL0     H28398   9.110   9.689   5.486  1.0210  0.2816  2.8876
  206MOL0     H28399   9.005   9.836   5.486 -0.8255 -0.1726 -0.8746
  206MOL0     H28400   8.886   9.557   5.530 -2.9361  0.1276 -0.9298
  206MOL0     H28401   8.798   9.696   5.487 -0.5605 -0.0637  1.2683
  206MOL0     H28402   9.010   9.544   5.309  0.7185 -0.1397  0.8807
  206MOL0     H28403   8.955   9.703   5.270 -0.0368 -1.3312 -2.0757
  206MOL0     H28404   8.717   9.653   5.261 -1.2774 -1.6376  0.8282
  206MOL0     H28405   8.751   9.484   5.266 -0.4474  1.6469  1.4979
  206MOL0     H28406   8.852   9.681   5.059 -1.2336  1.2278  4.7386
  206MOL0     H28407   8.719   9.569   5.031 -0.6240  1.0255 -0.4400
  206MOL0     H28408   8.714  10.081   5.737  1.8814 -0.4576  0.8235
  206MOL0     H28409   8.594  10.308   5.828  0.9545  0.0827  2.5323
  206MOL0     H28410   8.595  10.620   6.063 -1.2335 -1.1357 -3.4031
  206MOL0     H28411   8.463  10.786   6.177 -0.6355  0.1857 -0.7837
  206MOL0     H28412   7.424  11.289   5.872 -0.3750 -0.1913  1.9867
  206MOL0     H28413   7.540  11.269   6.068 -0.9663 -0.4052 -0.6060
  206MOL0     H28414   7.866  11.033   6.286 -0.4223  1.1364 -0.1163
  206MOL0     H28415   8.056  10.989   6.441 -0.1997 -1.1896 -0.8571
  206MOL0     H28416   8.298  11.059   6.693 -2.7216 -0.1610 -0.4905
  206MOL0     H28417   8.174  10.997   6.595  0.9078 -0.7864  0.0851
  206MOL0     H28418   8.467  11.006   6.521 -0.0903  0.8459 -1.0670
  206MOL0     H28419   8.363  11.033   6.388  2.7582 -1.1277  0.0632
  206MOL0     H28420   8.264  10.805   6.442  1.6358 -1.5120 -1.8403
  206MOL0     H28421   8.429  10.809   6.398 -1.3588 -3.1517 -1.0509
  206MOL0     H28422   8.347  10.653   6.588  0.5721 -0.5873 -0.4078
  206MOL0     H28423   8.330  10.802   6.686 -2.5506 -3.1898  1.5469
  206MOL0     H28424   8.734  10.731   6.713 -1.0855  0.3593 -0.6183
  206MOL0     H28425   8.201  11.371   6.418 -0.0408 -0.1708 -0.5446
  206MOL0     H28426   8.108  11.534   6.260 -3.6595  2.3232  0.6977
  206MOL0     H28427   8.071  11.450   6.102 -1.5920 -1.4335  0.8214
  206MOL0     H28428   7.948  11.514   6.216 -0.2671 -0.5023  2.1031
  207MOL0     O28429   8.818   2.977   4.809  0.3261  0.3928  1.1329
  207MOL0     C28430   8.716   3.034   4.833 -0.4054  0.0591 -0.5077
  207MOL0     O28431   8.591   2.991   4.803 -0.6751 -0.4720 -0.1790
  207MOL0     C28432   8.581   2.856   4.767  0.4646 -0.5035 -0.1663
  207MOL0     C28433   8.632   2.797   4.651 -0.6889 -0.3984  0.7318
  207MOL0     C28434   8.616   2.653   4.629 -0.7022  0.2204  0.0051
  207MOL0     C28435   8.549   2.580   4.725 -0.3295  0.3687  0.4694
  207MOL0     O28436   8.518   2.447   4.709 -0.1891 -0.3857 -0.3395
  207MOL0     C28437   8.628   2.375   4.668 -0.1005  0.6708 -0.2794
  207MOL0     C28438   8.598   2.223   4.690 -0.4440 -1.1152 -0.9090
  207MOL0     C28439   8.725   2.142   4.651  0.1529 -0.2664 -0.1167
  207MOL0     C28440   8.809   2.113   4.771 -0.0660 -0.7134 -0.7271
  207MOL0     C28441   8.925   2.015   4.746  0.7219  0.2229 -0.1352
  207MOL0     C28442   9.010   1.976   4.868  0.8030 -0.9145  0.3651
  207MOL0     C28443   9.129   1.882   4.838 -0.6651  0.3292  0.3715
  207MOL0     C28444   9.263   1.941   4.894 -0.9587  0.6108 -0.0472
  207MOL0     N28445   9.375   1.849   4.876 -0.2127 -0.4069  0.6916
  207MOL0     C28446   9.495   1.849   4.943 -0.6046 -0.3745  0.0316
  207MOL0     C28447   9.577   1.765   4.873 -0.9066 -0.5900 -0.3233
  207MOL0     C28448   9.727   1.737   4.902 -1.1250  0.2984 -0.5133
  207MOL0     C28449   9.811   1.862   4.906 -0.8773 -0.0804  0.3428
  207MOL0     C28450   9.966   1.854   4.923 -0.4093 -0.8063 -0.1302
  207MOL0     C28451  10.028   1.729   4.974  0.6020  0.6693  0.8431
  207MOL0     O28452   9.993   1.717   5.113 -0.3078  0.1378  0.0979
  207MOL0     C28453  10.088   1.646   5.189 -0.2142  0.0024  0.0838
  207MOL0     C28454  10.115   1.517   5.157  0.2207 -0.8085  0.0179
  207MOL0     C28455  10.194   1.434   5.234  0.3629  0.8495 -0.3807
  207MOL0     C28456  10.204   1.286   5.190 -0.1993 -0.3693 -0.0806
  207MOL0     C28457  10.257   1.485   5.358  0.0456  0.5138  0.4140
  207MOL0     C28458  10.342   1.403   5.449 -0.8493  0.1038  0.6855
  207MOL0     O28459  10.375   1.277   5.409 -0.6585  0.3606 -0.2171
  207MOL0     C28460  10.433   1.198   5.502 -0.5489 -0.4237  0.0990
  207MOL0     C28461  10.362   1.099   5.567 -0.8219  0.0152 -0.4950
  207MOL0     C28462  10.413   1.041   5.680 -0.3383  0.5684  0.3860
  207MOL0     C28463  10.541   1.067   5.726 -0.0384 -0.7721  0.3668
  207MOL0     O28464  10.582   1.012   5.839 -0.7441  0.0720  0.0512
  207MOL0     C28465  10.716   1.045   5.889 -0.7202 -0.2433 -0.0077
  207MOL0     C28466  10.750   1.013   6.035  0.3998 -0.0537 -0.6961
  207MOL0     C28467  10.898   1.020   6.059 -0.6516 -0.4117  0.5058
  207MOL0     C28468  10.953   1.011   6.201 -0.3382  0.7162 -0.0736
  207MOL0     C28469  10.924   0.879   6.272 -0.1836 -0.1255  0.5431
  207MOL0     C28470  10.917   0.919   6.418 -0.0272  0.2935 -0.8377
  207MOL0     C28471  10.885   0.800   6.504 -0.5155 -0.4853  0.1460
  207MOL0     C28472  10.853   0.853   6.648  0.1465  0.6048  0.6217
  207MOL0    Cl28473  10.819   0.731   6.765 -0.4726  0.0075 -0.2195
  207MOL0     C28474  10.633   1.128   5.632  0.1890 -1.0593 -0.2499
  207MOL0     C28475  10.583   1.201   5.522  0.2543 -0.2701 -0.6733
  207MOL0     O28476  10.389   1.459   5.554 -0.1533 -0.9144  0.6087
  207MOL0     C28477  10.227   1.621   5.386 -0.1493 -0.3395  0.0630
  207MOL0     C28478  10.142   1.700   5.309  1.4038  0.0236 -0.4993
  207MOL0     N28479   9.505   1.699   4.783 -0.6166  0.2773 -0.3694
  207MOL0     N28480   9.384   1.745   4.794 -0.1133 -0.3405 -0.1211
  207MOL0     C28481   8.510   2.648   4.833 -0.0877 -0.0136  0.0085
  207MOL0     C28482   8.505   2.785   4.853  0.3024  0.6383  0.8665
  207MOL0     C28483   8.733   3.180   4.891  0.0760 -0.2902 -0.8058
  207MOL0     C28484   8.615   3.256   4.913  0.3594 -1.2471 -0.1246
  207MOL0     C28485   8.640   3.390   4.951  0.5919 -0.5636  0.1179
  207MOL0     C28486   8.759   3.445   4.985 -0.4292  0.3914  1.1146
  207MOL0     O28487   8.754   3.567   5.018 -0.1283 -0.3306  0.0664
  207MOL0     C28488   8.874   3.643   4.988 -1.0374 -0.0416  0.6277
  207MOL0     C28489   8.827   3.788   4.995 -0.9511 -0.0207 -0.0089
  207MOL0     C28490   8.959   3.875   4.969 -0.3328  0.4010  0.5968
  207MOL0     C28491   8.922   4.024   4.934 -0.4327 -0.7304 -0.2956
  207MOL0     C28492   9.048   4.095   4.902  0.8398  1.1726 -0.0039
  207MOL0     C28493   9.135   4.162   4.860  0.1737 -0.0097 -0.1424
  207MOL0     C28494   8.863   3.359   4.988 -1.1512  0.8697  0.0611
  207MOL0     C28495   8.859   3.230   4.941 -0.1791 -0.6340 -1.1274
  207MOL0     C28496   8.986   3.142   4.959  0.6037 -0.0240  0.1844
  207MOL0     H28497   8.694   2.853   4.581  0.7406 -1.6465  0.9573
  207MOL0     H28498   8.646   2.605   4.536 -2.7571 -2.1005  0.4474
  207MOL0     H28499   8.708   2.408   4.735 -1.7409  1.9518  1.1391
  207MOL0     H28500   8.650   2.382   4.561 -0.5264  1.0759 -0.3448
  207MOL0     H28501   8.570   2.202   4.794 -1.9388  2.3642 -0.4749
  207MOL0     H28502   8.515   2.193   4.626 -0.6127 -0.1347 -1.1571
  207MOL0     H28503   8.709   2.045   4.603 -0.7868  0.5421 -1.5044
  207MOL0     H28504   8.781   2.206   4.583  0.2308  0.0554  0.2490
  207MOL0     H28505   8.842   2.202   4.824  0.4043 -0.6256 -1.1606
  207MOL0     H28506   8.735   2.068   4.838 -0.1435  2.2081  1.2953
  207MOL0     H28507   8.992   2.051   4.667  3.2151 -4.3739 -0.5197
  207MOL0     H28508   8.878   1.931   4.693 -3.3580  3.4160 -2.2058
  207MOL0     H28509   9.045   2.068   4.914 -2.9914  0.5544  0.6711
  207MOL0     H28510   8.938   1.934   4.939  0.0373  0.4982  0.4575
  207MOL0     H28511   9.137   1.852   4.734  4.6805  1.3185  0.2571
  207MOL0     H28512   9.116   1.788   4.893 -0.5328  0.1536  0.0997
  207MOL0     H28513   9.290   2.045   4.876  1.4558  0.4730  2.1875
  207MOL0     H28514   9.264   1.925   5.002 -2.4276  1.8593  0.1746
  207MOL0     H28515   9.526   1.902   5.032 -0.5789 -0.1051 -0.1382
  207MOL0     H28516   9.761   1.663   4.829  0.5617 -0.1402  0.6659
  207MOL0     H28517   9.748   1.680   4.993 -2.4396  0.7538  0.1024
  207MOL0     H28518   9.783   1.922   4.820 -1.5254 -1.2146 -0.2625
  207MOL0     H28519   9.784   1.926   4.991  1.4954 -1.0214  1.9452
  207MOL0     H28520  10.011   1.872   4.825  1.5482 -1.3480  0.6399
  207MOL0     H28521  10.004   1.938   4.981  1.3072 -0.6798 -1.3740
  207MOL0     H28522  10.005   1.636   4.921  1.1655  1.3487 -0.6684
  207MOL0     H28523  10.136   1.743   4.960  0.4320 -0.4934 -2.5351
  207MOL0     H28524  10.061   1.471   5.075 -0.7869  3.9471 -2.2838
  207MOL0     H28525  10.210   1.221   5.277 -2.5831 -0.3607  0.1545
  207MOL0     H28526  10.283   1.270   5.115  0.8073  1.1656  0.6110
  207MOL0     H28527  10.110   1.264   5.138 -1.4635 -0.1955  2.0388
  207MOL0     H28528  10.259   1.071   5.549 -1.3334  1.7023 -0.3675
  207MOL0     H28529  10.347   0.975   5.735 -0.6071  0.6116  0.1167
  207MOL0     H28530  10.797   0.992   5.839  4.1063  3.7685  2.6742
  207MOL0     H28531  10.717   1.154   5.888 -2.0698 -0.2064 -0.4582
  207MOL0     H28532  10.710   1.091   6.101  3.3505  1.0517 -0.0238
  207MOL0     H28533  10.703   0.917   6.057 -1.9268  1.0780 -0.3834
  207MOL0     H28534  10.939   1.113   6.019  0.1781 -0.7606  0.5243
  207MOL0     H28535  10.935   0.939   5.995 -0.0655  0.7546 -0.6946
  207MOL0     H28536  10.913   1.102   6.248  2.6334  1.9096  0.3720
  207MOL0     H28537  11.062   1.023   6.199 -0.4181  1.5136 -2.7427
  207MOL0     H28538  10.839   0.832   6.222  0.7817 -0.1731 -1.1297
  207MOL0     H28539  11.013   0.823   6.242  1.2388  0.8983  2.5788
  207MOL0     H28540  10.827   0.978   6.439  0.7474  0.4810  2.5682
  207MOL0     H28541  11.008   0.974   6.442 -1.8371  2.5823  1.3467
  207MOL0     H28542  10.977   0.741   6.508  1.7963  2.6883 -2.0798
  207MOL0     H28543  10.804   0.737   6.465 -0.5923 -0.7658  0.7377
  207MOL0     H28544  10.776   0.930   6.638 -1.4770 -1.2263 -3.1893
  207MOL0     H28545  10.946   0.892   6.690  0.0100  1.7157 -0.0590
  207MOL0     H28546  10.737   1.132   5.663  0.1243  4.3747  0.2389
  207MOL0     H28547  10.644   1.263   5.457  2.3364  0.7456  2.0800
  207MOL0     H28548  10.279   1.675   5.464  1.7642  0.7769 -1.8618
  207MOL0     H28549  10.116   1.796   5.352  1.5618 -1.1438  2.4079
  207MOL0     H28550   8.467   2.584   4.910  3.2455 -1.7069  0.6397
  207MOL0     H28551   8.457   2.837   4.935  0.6360  0.1712  1.3654
  207MOL0     H28552   8.511   3.224   4.902 -0.2701 -0.7932  3.2988
  207MOL0     H28553   8.561   3.464   4.960  1.8698  0.8904 -0.2050
  207MOL0     H28554   8.957   3.623   5.056 -1.2303  1.6053  1.3995
  207MOL0     H28555   8.907   3.631   4.884 -1.1262  3.5773  0.0188
  207MOL0     H28556   8.787   3.804   5.096  1.0039  0.3450  0.7523
  207MOL0     H28557   8.749   3.810   4.922  0.4642  0.8723 -1.3092
  207MOL0     H28558   9.016   3.878   5.063 -4.0082  2.3412  2.9946
  207MOL0     H28559   9.027   3.838   4.891 -0.2642  2.2702 -0.2858
  207MOL0     H28560   8.884   4.074   5.023 -1.6055 -3.9959  1.1874
  207MOL0     H28561   8.853   4.028   4.849 -1.8232 -5.4846  0.2991
  207MOL0     H28562   9.210   4.220   4.810 -0.8867  2.7102  1.2366
  207MOL0     H28563   8.963   3.391   5.017 -0.9512 -2.2199  3.5704
  207MOL0     H28564   9.072   3.197   4.999  0.3847  0.2865  0.2330
  207MOL0     H28565   8.953   3.059   5.022  1.0499  0.7322  1.4457
  207MOL0     H28566   9.024   3.117   4.859  0.4658  1.6445 -0.3115
  208MOL0     O28567   4.346  11.111   5.456 -0.5374 -0.9473  0.7869
  208MOL0     C28568   4.444  11.054   5.507 -0.1109 -0.2247 -0.9179
  208MOL0     O28569   4.499  11.081   5.632 -0.0136 -0.7631 -1.1096
  208MOL0     C28570   4.445  11.179   5.702  0.8163  0.1247 -0.1727
  208MOL0     C28571   4.358  11.134   5.810 -0.8909 -0.5251  0.2203
  208MOL0     C28572   4.291  11.227   5.898 -0.1274 -0.4695  0.1379
  208MOL0     C28573   4.306  11.371   5.877 -0.8125  0.5892  0.2575
  208MOL0     O28574   4.262  11.463   5.959  0.2694 -0.9703 -0.6640
  208MOL0     C28575   4.141  11.447   6.042 -0.8066 -0.8299  0.0590
  208MOL0     C28576   4.019  11.450   5.946 -0.7730  0.6197 -0.1911
  208MOL0     C28577   4.025  11.562   5.843  0.3254  0.7281  0.0033
  208MOL0     C28578   4.008  11.695   5.913  0.6154 -0.2153 -0.1072
  208MOL0     C28579   3.995  11.807   5.812  0.7030  0.0955 -0.6069
  208MOL0     C28580   3.983  11.941   5.875  0.7995 -0.4654  0.4060
  208MOL0     C28581   4.024  12.063   5.786  0.2304 -0.1671  0.9833
  208MOL0     C28582   4.000  12.195   5.858  0.6087  0.1068  0.2900
  208MOL0     N28583   4.028  12.317   5.782  1.1957  0.4670 -0.2455
  208MOL0     C28584   3.997  12.331   5.651 -0.6874  0.3483  0.1401
  208MOL0     C28585   4.029  12.467   5.635 -0.6747  0.9576  0.0219
  208MOL0     C28586   4.013  12.549   5.506  0.9580  0.2781  0.0291
  208MOL0     C28587   4.125  12.522   5.404 -0.1701 -1.3445 -0.6065
  208MOL0     C28588   4.093  12.615   5.289  0.7644  0.1633 -0.5494
  208MOL0     C28589   4.172  12.592   5.163  0.5193  0.6261  0.2839
  208MOL0     O28590   4.159  12.460   5.114  0.6279  0.4659 -0.4823
  208MOL0     C28591   4.069  12.429   5.022  0.4870 -0.1415 -0.7092
  208MOL0     C28592   4.077  12.299   4.969  1.0083 -0.7518  0.5739
  208MOL0     C28593   4.002  12.260   4.850  0.0424 -0.7117  0.0034
  208MOL0     C28594   4.025  12.127   4.780  0.1793 -0.1278 -0.5139
  208MOL0     C28595   3.899  12.347   4.800 -0.7850 -0.3865 -0.1880
  208MOL0     C28596   3.808  12.321   4.681 -0.2614  0.0146  0.9927
  208MOL0     O28597   3.673  12.363   4.686 -0.0165 -0.3414 -0.7282
  208MOL0     C28598   3.596  12.349   4.576 -0.4072  0.8250  0.8388
  208MOL0     C28599   3.633  12.402   4.450 -0.0953  1.2450 -0.1646
  208MOL0     C28600   3.548  12.380   4.344 -0.6571 -0.3216  0.5962
  208MOL0     C28601   3.420  12.318   4.358  0.8840  0.3662 -0.6472
  208MOL0     O28602   3.336  12.301   4.258 -0.8793 -0.4431  0.3072
  208MOL0     C28603   3.391  12.328   4.121  0.5496 -0.2982 -0.0328
  208MOL0     C28604   3.295  12.275   4.023  0.1951  0.4303  0.1183
  208MOL0     C28605   3.178  12.371   3.988  0.9860 -0.6762 -0.0764
  208MOL0     C28606   3.124  12.310   3.862 -0.0997 -0.9200 -0.8069
  208MOL0     C28607   2.998  12.377   3.793 -0.2540  0.3745 -0.8600
  208MOL0     C28608   3.025  12.508   3.719  0.3506  0.2995  0.6665
  208MOL0     C28609   2.908  12.559   3.640 -0.9957  0.3957  0.6396
  208MOL0     C28610   2.956  12.671   3.541 -0.4950 -0.5694 -0.9122
  208MOL0    Cl28611   2.806  12.771   3.516  0.3613  0.2499  0.4046
  208MOL0     C28612   3.377  12.271   4.487  0.3546 -0.2213  0.8632
  208MOL0     C28613   3.474  12.285   4.590  0.1934  0.5680 -0.5171
  208MOL0     O28614   3.856  12.266   4.579  0.4987 -0.5364  0.2975
  208MOL0     C28615   3.871  12.460   4.875  0.5743 -0.6914 -0.0385
  208MOL0     C28616   3.954  12.506   4.977 -0.1922 -0.6922 -0.3382
  208MOL0     N28617   4.076  12.530   5.748  0.3559 -0.3096 -0.3920
  208MOL0     N28618   4.071  12.434   5.837  0.0027  0.3123  0.1876
  208MOL0     C28619   4.396  11.407   5.773  0.3116 -0.2512  0.3235
  208MOL0     C28620   4.462  11.314   5.688 -0.2184 -0.7674  0.6182
  208MOL0     C28621   4.514  10.950   5.436  0.1673 -0.0832  0.4125
  208MOL0     C28622   4.650  10.927   5.465 -0.9049  1.1215 -0.5922
  208MOL0     C28623   4.732  10.848   5.394 -0.0249 -0.5975  0.3476
  208MOL0     C28624   4.676  10.788   5.286 -0.5649 -0.4348 -0.2809
  208MOL0     O28625   4.757  10.702   5.217 -0.7107  0.2978  0.1644
  208MOL0     C28626   4.759  10.710   5.070 -0.5462  0.7530 -0.0380
  208MOL0     C28627   4.901  10.658   5.033  1.1123 -0.4052  0.6300
  208MOL0     C28628   5.010  10.751   5.089 -0.7606  0.0717 -0.2717
  208MOL0     C28629   5.151  10.691   5.072 -0.1636  0.3403 -0.7393
  208MOL0     C28630   5.214  10.688   4.937 -0.5031 -0.3780  0.4105
  208MOL0     C28631   5.280  10.695   4.831  0.3569  0.3339  0.1911
  208MOL0     C28632   4.538  10.794   5.264  0.2538 -0.5235 -0.4058
  208MOL0     C28633   4.455  10.881   5.324  0.2740 -0.7617  0.0486
  208MOL0     C28634   4.310  10.871   5.289 -0.4155  0.0922  0.3247
  208MOL0     H28635   4.354  11.026   5.821 -0.5985 -0.7885 -1.8959
  208MOL0     H28636   4.221  11.188   5.971  0.8898 -0.0918  1.3532
  208MOL0     H28637   4.142  11.535   6.107 -2.6284 -0.6409 -0.0986
  208MOL0     H28638   4.140  11.359   6.107 -0.2202 -2.9995 -2.6740
  208MOL0     H28639   4.028  11.355   5.893 -1.3716 -1.5895  3.3434
  208MOL0     H28640   3.926  11.458   6.003 -0.4264 -1.3072  0.7436
  208MOL0     H28641   4.107  11.571   5.771 -0.0076  1.2691 -0.3199
  208MOL0     H28642   3.938  11.538   5.782  0.5614  0.5605 -0.2752
  208MOL0     H28643   3.915  11.682   5.969 -1.6735  1.3353 -3.1955
  208MOL0     H28644   4.096  11.725   5.969  1.2413 -2.2511  0.0927
  208MOL0     H28645   3.909  11.812   5.746 -0.0156  2.1951  0.3964
  208MOL0     H28646   4.088  11.811   5.754  0.6973  1.2567 -0.5722
  208MOL0     H28647   3.883  11.956   5.918  0.0912 -4.4350  0.5553
  208MOL0     H28648   4.058  11.951   5.954 -1.1035  0.1767  2.2228
  208MOL0     H28649   3.968  12.047   5.693  2.5385 -0.9446 -0.3394
  208MOL0     H28650   4.128  12.059   5.754  0.2709  3.9358 -0.0189
  208MOL0     H28651   3.897  12.200   5.895  0.8098  2.2974  0.7188
  208MOL0     H28652   4.051  12.195   5.954 -0.2133 -0.1735  0.7351
  208MOL0     H28653   3.954  12.263   5.578  1.4273  0.1891 -1.0292
  208MOL0     H28654   4.012  12.655   5.532 -1.8161 -0.1366  2.0719
  208MOL0     H28655   3.916  12.523   5.462  0.9490 -1.8730  1.1715
  208MOL0     H28656   4.228  12.542   5.436 -0.5711  0.0825 -0.1823
  208MOL0     H28657   4.128  12.416   5.374 -2.8064 -2.4633  2.5565
  208MOL0     H28658   3.986  12.605   5.265  1.3862 -3.2712 -2.6188
  208MOL0     H28659   4.109  12.715   5.328  0.9100  0.3976 -1.2009
  208MOL0     H28660   4.156  12.668   5.085 -1.3596 -0.8359 -0.8555
  208MOL0     H28661   4.278  12.599   5.190 -0.1263 -2.8993  4.7470
  208MOL0     H28662   4.157  12.228   4.986  2.6528  0.2913 -2.1804
  208MOL0     H28663   3.938  12.062   4.793 -0.4489  0.0866 -3.0203
  208MOL0     H28664   4.114  12.084   4.826 -1.4057 -2.2655  0.7395
  208MOL0     H28665   4.055  12.149   4.677 -0.1010 -0.8454 -0.7564
  208MOL0     H28666   3.731  12.443   4.429  0.7544 -0.9139 -0.6211
  208MOL0     H28667   3.577  12.423   4.248  4.9142 -1.5248  1.4258
  208MOL0     H28668   3.410  12.434   4.103 -3.3104 -0.0068 -4.0419
  208MOL0     H28669   3.482  12.268   4.111  0.4463 -0.8138  1.7474
  208MOL0     H28670   3.349  12.257   3.930 -2.4615  1.6171 -1.7662
  208MOL0     H28671   3.262  12.180   4.067  1.0082  1.3543  2.9424
  208MOL0     H28672   3.208  12.473   3.962  2.2575 -1.1305 -0.4932
  208MOL0     H28673   3.109  12.375   4.073  0.4296 -1.3136 -0.4834
  208MOL0     H28674   3.097  12.205   3.878 -0.6149 -0.2176  5.4092
  208MOL0     H28675   3.201  12.327   3.786 -0.3370  1.9596 -0.5264
  208MOL0     H28676   2.957  12.308   3.718 -1.0327  1.5232 -1.5332
  208MOL0     H28677   2.916  12.395   3.863  0.4468 -1.7898  0.6189
  208MOL0     H28678   3.107  12.497   3.648 -1.6053  2.3318 -2.1501
  208MOL0     H28679   3.065  12.580   3.791  0.6951  1.1865 -0.3943
  208MOL0     H28680   2.837  12.598   3.713 -2.3203  0.9629 -0.8926
  208MOL0     H28681   2.847  12.485   3.587 -0.2659 -0.0310  0.3716
  208MOL0     H28682   2.989  12.629   3.446 -0.0089  1.3539 -1.6207
  208MOL0     H28683   3.034  12.724   3.596 -2.7028  1.1201  0.7831
  208MOL0     H28684   3.279  12.224   4.494  0.0186  0.3256 -0.0160
  208MOL0     H28685   3.443  12.252   4.689 -1.2768  0.8400 -0.8615
  208MOL0     H28686   3.790  12.523   4.839  1.2417  0.7258  0.8595
  208MOL0     H28687   3.929  12.601   5.024 -2.2006 -1.5733  0.4838
  208MOL0     H28688   4.410  11.511   5.744  0.3386 -1.0152 -2.6309
  208MOL0     H28689   4.530  11.358   5.615  0.9035 -1.4699  1.2201
  208MOL0     H28690   4.705  10.976   5.545 -0.2496 -2.0087  1.0293
  208MOL0     H28691   4.837  10.845   5.419  0.8320 -2.2938 -2.9944
  208MOL0     H28692   4.681  10.639   5.038 -1.4075  1.0933  1.2534
  208MOL0     H28693   4.751  10.808   5.022  2.3507  0.0647 -2.2336
  208MOL0     H28694   4.898  10.661   4.924 -0.8372  2.3543  0.6388
  208MOL0     H28695   4.905  10.556   5.073 -0.2437  0.4505  3.1564
  208MOL0     H28696   5.003  10.853   5.049 -0.6114  1.0456  2.0518
  208MOL0     H28697   4.981  10.765   5.193 -3.4526 -2.9191 -0.4588
  208MOL0     H28698   5.150  10.594   5.122 -0.4545 -0.6282 -2.5188
  208MOL0     H28699   5.220  10.753   5.129  0.4006  0.4186 -1.4814
  208MOL0     H28700   5.335  10.713   4.741  0.0756  1.0707  0.1624
  208MOL0     H28701   4.492  10.738   5.183 -5.0466  4.6826 -1.7221
  208MOL0     H28702   4.291  10.768   5.257 -2.6809 -0.0562  1.8934
  208MOL0     H28703   4.239  10.894   5.369  1.6182  0.9430  1.9972
  208MOL0     H28704   4.294  10.944   5.210  2.9108  0.9430  0.2774
  209MOL0     O28705   4.720   5.059   3.656 -0.1192  0.2971 -0.5017
  209MOL0     C28706   4.670   4.953   3.697  0.0081 -0.3690  0.2305
  209MOL0     O28707   4.717   4.878   3.791 -0.4352  1.1829 -0.5209
  209MOL0     C28708   4.823   4.922   3.858 -0.1820  0.1486 -0.8170
  209MOL0     C28709   4.954   4.917   3.814 -0.6928 -0.8386  0.5520
  209MOL0     C28710   5.064   4.968   3.881 -0.7683 -0.4402  0.6330
  209MOL0     C28711   5.050   5.017   4.005 -0.5713 -0.5100 -0.2623
  209MOL0     O28712   5.169   5.064   4.069 -0.2636  0.2139  0.0595
  209MOL0     C28713   5.164   5.112   4.208  0.2660 -0.2077 -0.7214
  209MOL0     C28714   5.144   5.261   4.217 -0.5787 -0.7957 -0.8509
  209MOL0     C28715   5.265   5.339   4.167 -0.4309  0.3618 -0.5983
  209MOL0     C28716   5.245   5.488   4.183  0.0543  0.3281 -0.3314
  209MOL0     C28717   5.355   5.567   4.125  0.0525  0.0790  0.0537
  209MOL0     C28718   5.367   5.593   3.976  0.7210  0.7877 -0.3304
  209MOL0     C28719   5.490   5.691   3.941  1.1743  0.6691 -0.0308
  209MOL0     C28720   5.510   5.680   3.794 -0.5540 -0.6153 -0.2164
  209MOL0     N28721   5.662   5.701   3.763 -0.5203  0.0174  1.3791
  209MOL0     C28722   5.721   5.817   3.727 -0.6369 -0.7529 -0.5076
  209MOL0     C28723   5.852   5.786   3.715 -0.4137 -0.4442  0.5540
  209MOL0     C28724   5.958   5.873   3.677  0.3875 -0.3164  0.8904
  209MOL0     C28725   6.068   5.886   3.793 -0.3165  0.2537 -0.1110
  209MOL0     C28726   6.161   5.990   3.741 -0.0516  0.1819  0.0027
  209MOL0     C28727   6.284   6.015   3.836 -0.2776  0.8113 -0.1780
  209MOL0     O28728   6.331   6.146   3.798  0.4310 -0.7224 -0.3680
  209MOL0     C28729   6.429   6.200   3.879 -0.0113 -0.5569  0.2956
  209MOL0     C28730   6.442   6.341   3.884 -0.1765  0.5369 -0.0962
  209MOL0     C28731   6.541   6.399   3.961  0.7104 -0.7604 -0.7156
  209MOL0     C28732   6.540   6.554   3.998  0.1430  1.1292  0.1118
  209MOL0     C28733   6.641   6.317   4.025 -0.2096 -0.4219 -0.5332
  209MOL0     C28734   6.762   6.373   4.106  0.0722  0.7801  0.4607
  209MOL0     O28735   6.827   6.285   4.191  0.0610  0.4307  0.7226
  209MOL0     C28736   6.936   6.317   4.261 -0.3956 -0.6851 -0.2223
  209MOL0     C28737   7.019   6.210   4.302 -0.2487  0.2434 -0.2349
  209MOL0     C28738   7.149   6.237   4.359  1.1890  0.0813 -0.2588
  209MOL0     C28739   7.191   6.367   4.392 -1.2910  0.0330 -0.1128
  209MOL0     O28740   7.301   6.404   4.459 -0.2223  0.0070 -0.2236
  209MOL0     C28741   7.383   6.308   4.530 -0.2253  0.1361 -0.7297
  209MOL0     C28742   7.318   6.273   4.667 -1.0907  0.5018  0.0392
  209MOL0     C28743   7.409   6.196   4.774 -0.0400  0.6352 -1.0340
  209MOL0     C28744   7.547   6.255   4.802  0.2359 -0.4857  0.3951
  209MOL0     C28745   7.542   6.398   4.845 -0.1287 -0.0406  0.1841
  209MOL0     C28746   7.680   6.458   4.878 -0.0631 -0.0185  0.0232
  209MOL0     C28747   7.649   6.595   4.928  0.1871 -0.5187  0.0765
  209MOL0     C28748   7.776   6.651   4.997 -0.6362 -0.1326 -0.9303
  209MOL0    Cl28749   7.913   6.656   4.889 -0.3041 -0.3575  0.0215
  209MOL0     C28750   7.107   6.469   4.341 -0.5820  0.6423 -0.7796
  209MOL0     C28751   6.979   6.448   4.286  0.5044  1.0687 -0.3248
  209MOL0     O28752   6.810   6.480   4.079  0.2979 -0.5809  0.0318
  209MOL0     C28753   6.621   6.183   4.032  0.4200 -0.4766  0.5466
  209MOL0     C28754   6.530   6.127   3.948  0.5528  0.3738  1.3149
  209MOL0     N28755   5.873   5.655   3.742 -0.6860  0.6650  0.2245
  209MOL0     N28756   5.759   5.601   3.765  0.4961 -0.2593  0.2774
  209MOL0     C28757   4.920   5.009   4.062  0.0416  0.2344 -0.3211
  209MOL0     C28758   4.809   4.963   3.989  0.8404 -0.5916 -0.5016
  209MOL0     C28759   4.543   4.912   3.632 -0.4562  0.7957 -0.2121
  209MOL0     C28760   4.520   4.773   3.625 -0.2725  0.8782 -0.9165
  209MOL0     C28761   4.403   4.725   3.580 -0.2588 -0.3076  1.1125
  209MOL0     C28762   4.298   4.809   3.543 -0.3317  0.0943 -0.9231
  209MOL0     O28763   4.176   4.764   3.502 -0.2465 -0.3764 -0.7063
  209MOL0     C28764   4.095   4.705   3.604 -0.2460 -0.3172  0.0960
  209MOL0     C28765   3.993   4.812   3.637 -0.1059 -0.4078  0.3193
  209MOL0     C28766   3.871   4.744   3.695 -0.5818 -0.3315  0.7256
  209MOL0     C28767   3.759   4.842   3.743 -0.2514 -0.8424  0.3974
  209MOL0     C28768   3.746   4.841   3.889 -0.3817 -0.3119  0.2275
  209MOL0     C28769   3.717   4.825   4.007 -0.1606 -0.4333 -0.1276
  209MOL0     C28770   4.318   4.947   3.557 -0.1917  0.7518 -0.3355
  209MOL0     C28771   4.437   5.003   3.597 -0.0355  0.2595 -0.5182
  209MOL0     C28772   4.450   5.157   3.602  0.3259  0.3517  0.2612
  209MOL0     H28773   4.984   4.875   3.719  1.1673  0.6286  0.4428
  209MOL0     H28774   5.156   4.988   3.827 -0.2926 -2.5552  0.5540
  209MOL0     H28775   5.258   5.084   4.256 -0.5878  0.0638  1.1955
  209MOL0     H28776   5.096   5.046   4.262  1.2303  0.4308  1.3678
  209MOL0     H28777   5.055   5.287   4.160 -1.1686 -1.5854 -0.3066
  209MOL0     H28778   5.114   5.292   4.317 -0.8306  1.5156 -1.5904
  209MOL0     H28779   5.356   5.305   4.218  1.7774 -2.0941 -5.5494
  209MOL0     H28780   5.282   5.335   4.059 -1.2837  5.8793 -1.2391
  209MOL0     H28781   5.140   5.512   4.163 -0.7597 -1.4542  1.4384
  209MOL0     H28782   5.262   5.511   4.289 -0.4573 -0.3255 -0.0989
  209MOL0     H28783   5.451   5.520   4.150  0.0404 -0.1235 -0.2798
  209MOL0     H28784   5.340   5.666   4.171 -0.0153 -0.1416  0.5121
  209MOL0     H28785   5.385   5.495   3.932  0.5437 -0.2540  1.7889
  209MOL0     H28786   5.271   5.624   3.933 -0.5914 -2.0184  0.3477
  209MOL0     H28787   5.576   5.654   3.997 -1.8603 -2.0885  3.2604
  209MOL0     H28788   5.463   5.791   3.976 -0.6751  0.7550 -1.4987
  209MOL0     H28789   5.489   5.581   3.753 -1.6511 -1.1242  1.4603
  209MOL0     H28790   5.452   5.751   3.734  0.5656  0.8815  0.4029
  209MOL0     H28791   5.665   5.908   3.710  0.7325  0.8348  2.6683
  209MOL0     H28792   5.921   5.976   3.668 -0.7481 -0.7000  1.0851
  209MOL0     H28793   6.004   5.842   3.583  0.0949  6.9058 -2.3426
  209MOL0     H28794   6.013   5.931   3.876  2.2808  2.3297  0.6325
  209MOL0     H28795   6.112   5.792   3.828  2.4043  1.8324  1.0979
  209MOL0     H28796   6.210   5.961   3.647 -1.8393  2.7029 -1.8302
  209MOL0     H28797   6.104   6.081   3.723 -0.1852  0.0036 -0.5117
  209MOL0     H28798   6.262   6.002   3.942 -0.6214  0.4750 -0.2869
  209MOL0     H28799   6.367   5.955   3.798 -0.1092  2.0047 -1.8450
  209MOL0     H28800   6.368   6.396   3.827 -1.4680 -1.8118 -0.7938
  209MOL0     H28801   6.559   6.577   4.103 -2.3405  1.3826  0.5770
  209MOL0     H28802   6.438   6.589   3.979 -0.0997  0.7389  0.6919
  209MOL0     H28803   6.607   6.607   3.930 -0.2022  0.7130 -0.5625
  209MOL0     H28804   6.974   6.112   4.288  2.3003 -0.7954 -1.7998
  209MOL0     H28805   7.201   6.144   4.377  1.7036  0.4839  0.3762
  209MOL0     H28806   7.404   6.217   4.472  1.9906 -1.7621  2.7022
  209MOL0     H28807   7.478   6.362   4.542 -0.9758  1.8870 -2.1171
  209MOL0     H28808   7.284   6.361   4.723 -1.6875  0.6542 -0.5531
  209MOL0     H28809   7.233   6.208   4.646  1.5782 -3.7493  1.1712
  209MOL0     H28810   7.425   6.096   4.732 -0.2790  1.4119 -3.1146
  209MOL0     H28811   7.357   6.172   4.867 -2.4099 -0.5789 -2.5735
  209MOL0     H28812   7.601   6.245   4.708 -2.2817 -1.0636 -1.0861
  209MOL0     H28813   7.597   6.187   4.872  0.8201 -1.5088 -0.9710
  209MOL0     H28814   7.508   6.451   4.756  3.4174  0.7675 -0.8382
  209MOL0     H28815   7.478   6.404   4.934 -0.0681 -2.1678  0.4434
  209MOL0     H28816   7.747   6.458   4.791 -3.4862 -0.7164 -2.8369
  209MOL0     H28817   7.723   6.387   4.950  2.0088  1.8533  0.7426
  209MOL0     H28818   7.570   6.588   5.003 -1.5754  2.8464 -1.2947
  209MOL0     H28819   7.613   6.649   4.840 -1.5428  0.0141  1.0853
  209MOL0     H28820   7.798   6.581   5.078 -2.9654  0.1217 -0.0091
  209MOL0     H28821   7.766   6.749   5.044  3.6635 -0.3364  0.8436
  209MOL0     H28822   7.128   6.572   4.364 -0.9452  0.1667  1.9872
  209MOL0     H28823   6.924   6.541   4.279 -1.5209  0.6004  4.9685
  209MOL0     H28824   6.683   6.120   4.094  1.3091 -0.6540 -0.5061
  209MOL0     H28825   6.540   6.020   3.935  0.9139  0.1955  2.8886
  209MOL0     H28826   4.911   5.046   4.163  2.4051 -0.4939  0.2185
  209MOL0     H28827   4.709   4.963   4.032  1.5080  1.2062  1.2413
  209MOL0     H28828   4.605   4.714   3.661 -0.6769  0.5965 -0.4108
  209MOL0     H28829   4.396   4.617   3.568  1.1240 -0.3623  0.6368
  209MOL0     H28830   4.038   4.630   3.550  2.1051 -2.9473  0.9996
  209MOL0     H28831   4.155   4.676   3.691  1.6207  2.0383 -0.2775
  209MOL0     H28832   3.965   4.875   3.551  1.9366  1.3635  0.8740
  209MOL0     H28833   4.030   4.871   3.722  1.5541 -0.5460 -0.2655
  209MOL0     H28834   3.818   4.672   3.632 -2.4573  1.7640 -0.2369
  209MOL0     H28835   3.902   4.680   3.778 -2.5470  1.3601  2.8890
  209MOL0     H28836   3.671   4.799   3.695  1.4862 -2.2177 -1.7804
  209MOL0     H28837   3.771   4.940   3.695 -3.7709 -1.3439 -1.8651
  209MOL0     H28838   3.686   4.819   4.109 -0.2408 -0.8611 -0.1748
  209MOL0     H28839   4.230   5.009   3.543 -1.1427 -0.9922 -2.9757
  209MOL0     H28840   4.529   5.192   3.535  0.5784 -0.5397  0.0878
  209MOL0     H28841   4.370   5.221   3.564  1.6626  1.6304 -0.4888
  209MOL0     H28842   4.466   5.196   3.703  2.2687  0.8696 -0.1929
  210MOL0     O28843   0.818  10.611   7.769  0.2497 -0.3403 -0.0212
  210MOL0     C28844   0.724  10.590   7.692  0.9484  0.6270 -2.1947
  210MOL0     O28845   0.718  10.645   7.572 -0.3926 -0.9645  0.9644
  210MOL0     C28846   0.845  10.683   7.520  0.7842 -0.4539  0.5339
  210MOL0     C28847   0.850  10.800   7.428  0.4260 -0.5060 -0.5111
  210MOL0     C28848   0.970  10.858   7.391  1.0652 -0.6994  0.7697
  210MOL0     C28849   1.094  10.795   7.422 -0.3784 -1.7743 -0.5643
  210MOL0     O28850   1.211  10.844   7.392 -0.5492  0.5916  0.5253
  210MOL0     C28851   1.233  10.952   7.297  0.1828 -0.4834 -0.2794
  210MOL0     C28852   1.382  10.997   7.289 -0.9527  0.4994  0.4674
  210MOL0     C28853   1.429  11.069   7.417 -0.5519 -0.4120 -1.1872
  210MOL0     C28854   1.579  11.135   7.415  0.4157  0.2705  0.0161
  210MOL0     C28855   1.580  11.252   7.309  0.6923  1.1025 -0.3112
  210MOL0     C28856   1.708  11.325   7.298  0.8172  0.4768  0.2415
  210MOL0     C28857   1.754  11.399   7.412  0.0980  0.3291 -0.4745
  210MOL0     C28858   1.894  11.451   7.402  0.0976  0.3284 -0.0968
  210MOL0     N28859   1.940  11.482   7.271  0.9353  0.2210  0.8730
  210MOL0     C28860   2.000  11.395   7.183 -0.7480 -0.8767 -0.2486
  210MOL0     C28861   2.039  11.465   7.073 -0.3961 -0.2339 -0.3120
  210MOL0     C28862   2.128  11.403   6.971 -0.6051  0.3562  0.6276
  210MOL0     C28863   2.156  11.477   6.845  0.8570 -0.6518  0.4917
  210MOL0     C28864   2.033  11.498   6.749 -0.5948  0.7045  0.2914
  210MOL0     C28865   2.066  11.566   6.618  0.1747 -0.4965 -0.3098
  210MOL0     O28866   2.137  11.476   6.541 -0.0815  0.0940  0.5109
  210MOL0     C28867   2.184  11.514   6.413 -0.3463 -0.3605 -0.5305
  210MOL0     C28868   2.304  11.458   6.381  0.1971 -0.4294  0.6592
  210MOL0     C28869   2.364  11.474   6.255  0.5085 -0.0941  0.6694
  210MOL0     C28870   2.474  11.392   6.225 -0.3665 -0.0429  0.4798
  210MOL0     C28871   2.304  11.566   6.163 -0.2326 -0.2908 -0.0938
  210MOL0     C28872   2.384  11.621   6.040 -0.7326  0.2700  0.0191
  210MOL0     O28873   2.522  11.605   6.026 -0.2969  0.9099 -0.5080
  210MOL0     C28874   2.581  11.584   5.902  0.1293 -0.0757  0.1969
  210MOL0     C28875   2.709  11.647   5.879  2.1165  0.1941 -0.8672
  210MOL0     C28876   2.781  11.631   5.763 -0.6514  0.2943 -0.1920
  210MOL0     C28877   2.739  11.536   5.665 -0.5110  0.5533 -0.5050
  210MOL0     O28878   2.805  11.513   5.547  0.0661  0.5583  0.1240
  210MOL0     C28879   2.897  11.615   5.497  0.1667 -0.3953  0.9308
  210MOL0     C28880   3.011  11.548   5.431 -0.6382  0.9357 -0.6549
  210MOL0     C28881   3.113  11.655   5.407 -0.6526 -0.9475 -0.2392
  210MOL0     C28882   3.218  11.631   5.292  0.3338  0.0781  0.1715
  210MOL0     C28883   3.299  11.759   5.271  0.4979 -0.4704  0.4389
  210MOL0     C28884   3.398  11.736   5.152 -1.1275  0.1104  0.5345
  210MOL0     C28885   3.483  11.868   5.129 -0.4847  0.2231  0.1741
  210MOL0     C28886   3.443  11.942   5.002  0.3280 -0.5384 -0.7349
  210MOL0    Cl28887   3.577  12.020   4.914  0.1900  0.1834 -0.4253
  210MOL0     C28888   2.612  11.472   5.690 -0.4811  0.0172 -0.0522
  210MOL0     C28889   2.530  11.501   5.803 -1.0228  0.0182 -0.3182
  210MOL0     O28890   2.316  11.673   5.954  0.3640  0.2913 -0.0944
  210MOL0     C28891   2.183  11.622   6.202  0.7817 -0.6574 -0.1911
  210MOL0     C28892   2.121  11.597   6.321  0.3137 -0.2406 -1.2145
  210MOL0     N28893   2.009  11.595   7.091 -0.0509 -0.0986 -0.7925
  210MOL0     N28894   1.940  11.610   7.213 -0.2450  0.6758  0.4809
  210MOL0     C28895   1.094  10.684   7.496 -0.4203 -0.6234 -0.4633
  210MOL0     C28896   0.971  10.618   7.537  0.5223 -0.4266  0.2599
  210MOL0     C28897   0.620  10.496   7.740 -0.3478  0.5443 -0.7451
  210MOL0     C28898   0.489  10.517   7.710 -0.6405  0.9236 -0.2011
  210MOL0     C28899   0.389  10.421   7.744  0.2963 -0.0455 -0.2745
  210MOL0     C28900   0.421  10.311   7.823 -0.5085  0.6183  0.3443
  210MOL0     O28901   0.312  10.236   7.854 -0.2526  0.0543 -0.1964
  210MOL0     C28902   0.340  10.099   7.872 -0.1693  0.3733  0.5596
  210MOL0     C28903   0.224  10.026   7.928 -0.1072 -0.6307 -0.0383
  210MOL0     C28904   0.098  10.032   7.852  0.1678  0.0642  0.3617
  210MOL0     C28905  -0.014   9.955   7.922 -1.1975  0.0461 -0.2072
  210MOL0     C28906   0.010   9.820   7.889 -0.1810  0.5520 -0.5193
  210MOL0     C28907   0.036   9.702   7.860 -1.5351 -1.6496  0.7568
  210MOL0     C28908   0.559  10.284   7.848 -0.7815  0.3001  0.9818
  210MOL0     C28909   0.659  10.379   7.816  0.2570  0.5980  0.7908
  210MOL0     C28910   0.795  10.342   7.861 -0.3935 -0.2461  0.7579
  210MOL0     H28911   0.760  10.848   7.390 -1.1750 -1.8191  1.4240
  210MOL0     H28912   0.978  10.938   7.318  0.4206 -1.4954 -0.2157
  210MOL0     H28913   1.170  11.040   7.314  2.7636  1.4272  0.0385
  210MOL0     H28914   1.188  10.917   7.204 -1.4163 -1.8144  0.9233
  210MOL0     H28915   1.444  10.907   7.278 -1.4413 -0.3200  3.6083
  210MOL0     H28916   1.401  11.061   7.202  1.5482  0.6750  1.0615
  210MOL0     H28917   1.357  11.142   7.454 -2.4838 -2.3199 -0.9303
  210MOL0     H28918   1.446  10.988   7.489  4.2827 -0.0089 -1.5270
  210MOL0     H28919   1.595  11.176   7.515  1.1567  0.4238 -0.1613
  210MOL0     H28920   1.648  11.051   7.400  0.1796 -0.2454  1.6225
  210MOL0     H28921   1.499  11.323   7.331 -0.4419  0.1703 -1.3154
  210MOL0     H28922   1.554  11.200   7.216 -0.2124  0.8383  0.0750
  210MOL0     H28923   1.780  11.243   7.295 -0.9549 -1.1383 -0.5771
  210MOL0     H28924   1.697  11.395   7.215 -0.2118  0.9722  0.7788
  210MOL0     H28925   1.757  11.326   7.494 -2.4805 -2.4584 -2.6371
  210MOL0     H28926   1.687  11.483   7.434  3.1610  2.3581  1.8537
  210MOL0     H28927   1.917  11.540   7.462  1.4613 -0.3797  0.4980
  210MOL0     H28928   1.961  11.373   7.440 -0.4786 -0.4534 -0.6698
  210MOL0     H28929   1.997  11.288   7.199 -4.3787 -1.5160 -3.7145
  210MOL0     H28930   2.101  11.301   6.944 -0.7997  1.0224 -1.9659
  210MOL0     H28931   2.233  11.396   7.001  0.5555  1.0017 -2.8439
  210MOL0     H28932   2.199  11.577   6.859  1.0476 -0.7808  0.8417
  210MOL0     H28933   2.226  11.412   6.792 -0.3903  0.3127 -2.5549
  210MOL0     H28934   1.994  11.398   6.728  2.2558 -0.0748 -1.9132
  210MOL0     H28935   1.959  11.555   6.807  2.2752  2.4149  2.5563
  210MOL0     H28936   1.975  11.600   6.568 -0.6485  0.9104  1.9727
  210MOL0     H28937   2.122  11.657   6.643  1.3044 -0.5060 -2.5495
  210MOL0     H28938   2.347  11.386   6.449 -2.1129 -2.1301  0.4247
  210MOL0     H28939   2.484  11.361   6.121  3.0881 -0.7567  0.8865
  210MOL0     H28940   2.490  11.305   6.290  2.4920  0.1096  0.0915
  210MOL0     H28941   2.562  11.455   6.240 -1.0558  1.3409 -0.9942
  210MOL0     H28942   2.733  11.723   5.953 -1.6749  0.0123  0.7996
  210MOL0     H28943   2.870  11.693   5.755  1.2903 -2.3663 -0.3800
  210MOL0     H28944   2.852  11.693   5.434  2.2354  2.1576  2.3777
  210MOL0     H28945   2.944  11.666   5.582 -0.0589 -1.1703  1.5266
  210MOL0     H28946   3.065  11.475   5.493  2.0748  1.6912 -1.9901
  210MOL0     H28947   2.982  11.497   5.339 -1.4827 -1.1361  0.6802
  210MOL0     H28948   3.165  11.658   5.503 -0.5317 -1.7889 -0.2707
  210MOL0     H28949   3.075  11.757   5.402 -0.5534 -0.8431  0.9122
  210MOL0     H28950   3.180  11.602   5.194  3.7234 -2.2024 -0.6439
  210MOL0     H28951   3.297  11.562   5.325 -1.8633 -2.8093 -0.2616
  210MOL0     H28952   3.239  11.850   5.263  0.6568 -0.3787  0.2670
  210MOL0     H28953   3.362  11.779   5.359  0.9406  4.5675 -0.7112
  210MOL0     H28954   3.349  11.700   5.061  0.2127 -1.9449  0.5715
  210MOL0     H28955   3.475  11.662   5.175 -0.2084 -0.0863 -2.6234
  210MOL0     H28956   3.589  11.844   5.127  0.1314  2.3850  2.1172
  210MOL0     H28957   3.474  11.945   5.206  0.4383  2.7222 -2.0703
  210MOL0     H28958   3.368  12.019   5.025 -0.5377 -1.1223 -1.4871
  210MOL0     H28959   3.399  11.873   4.929  1.2360 -1.5824 -0.3145
  210MOL0     H28960   2.585  11.387   5.629  2.0451 -2.1317  1.5906
  210MOL0     H28961   2.438  11.449   5.829 -1.0007  1.1745  2.5276
  210MOL0     H28962   2.117  11.690   6.149  1.2645  0.3935  0.5100
  210MOL0     H28963   2.027  11.647   6.344  0.8591 -0.1018  0.8534
  210MOL0     H28964   1.189  10.646   7.532 -1.5693 -3.3538 -0.0643
  210MOL0     H28965   0.976  10.524   7.590 -0.9069 -1.5621 -1.4988
  210MOL0     H28966   0.462  10.600   7.646 -1.1114 -0.4891 -1.8898
  210MOL0     H28967   0.287  10.441   7.713 -0.7632 -0.7887  2.4088
  210MOL0     H28968   0.370  10.047   7.780 -3.4233 -1.3751  0.3416
  210MOL0     H28969   0.424  10.087   7.942  0.5544 -0.9737 -0.4811
  210MOL0     H28970   0.195  10.060   8.029 -1.4812 -3.1636  0.4816
  210MOL0     H28971   0.252   9.922   7.946 -0.5464 -0.2989  3.1553
  210MOL0     H28972   0.067  10.137   7.849 -1.1631 -0.2859  0.8405
  210MOL0     H28973   0.119   9.983   7.756 -2.7143 -2.3191  0.7592
  210MOL0     H28974  -0.119   9.974   7.899 -1.0127  0.7311 -0.4963
  210MOL0     H28975  -0.014   9.978   8.029 -0.1858  1.5145 -0.4866
  210MOL0     H28976   0.068   9.600   7.851 -0.8814 -1.2832 -1.7310
  210MOL0     H28977   0.597  10.188   7.880  1.0459  0.3795 -0.7242
  210MOL0     H28978   0.813  10.403   7.950 -2.1140  0.4137  0.6854
  210MOL0     H28979   0.805  10.245   7.912 -2.8816 -0.4845  0.9191
  210MOL0     H28980   0.876  10.356   7.789  0.6454  1.7996  2.2086
  211MOL0     O28981   0.733   9.075   7.490 -0.4801 -0.1267  0.6973
  211MOL0     C28982   0.764   9.193   7.508  0.5501  0.0816 -0.8608
  211MOL0     O28983   0.712   9.272   7.615 -0.4100  0.0387 -0.6811
  211MOL0     C28984   0.601   9.253   7.689  0.0302 -0.4709 -0.4971
  211MOL0     C28985   0.486   9.164   7.655 -0.6458 -0.4937 -0.6917
  211MOL0     C28986   0.371   9.173   7.727  1.0280 -0.0131 -0.8964
  211MOL0     C28987   0.352   9.254   7.837  0.1575 -0.6314 -0.2487
  211MOL0     O28988   0.232   9.284   7.887  0.0448  0.0374  1.0538
  211MOL0     C28989   0.202   9.361   8.010  0.7189  0.7395  0.6513
  211MOL0     C28990   0.221   9.282   8.131 -1.0414 -0.2102 -0.5168
  211MOL0     C28991   0.144   9.144   8.133 -0.5905 -0.3855  0.0000
  211MOL0     C28992   0.244   9.037   8.108  0.0797  0.2268 -0.2230
  211MOL0     C28993   0.165   8.905   8.119 -0.3061  0.1506  1.0259
  211MOL0     C28994   0.229   8.760   8.078  0.7735 -0.4276 -0.5155
  211MOL0     C28995   0.145   8.639   8.108 -0.0576  0.4582  0.2294
  211MOL0     C28996   0.002   8.641   8.037  0.1286 -0.8897  0.6005
  211MOL0     N28997  -0.044   8.502   8.018  0.8767 -0.2989  0.2287
  211MOL0     C28998  -0.136   8.441   8.094 -0.3324 -0.8303 -0.2423
  211MOL0     C28999  -0.187   8.341   8.018 -0.4108  0.1244 -0.2371
  211MOL0     C29000  -0.293   8.239   8.054  0.0349  0.3235  0.3905
  211MOL0     C29001  -0.416   8.296   8.136 -0.1490  0.8406 -0.0759
  211MOL0     C29002  -0.525   8.190   8.176 -0.1093 -0.8746 -0.2783
  211MOL0     C29003  -0.474   8.071   8.261 -0.0204 -1.1244  0.0469
  211MOL0     O29004  -0.456   8.123   8.403 -0.6301 -0.6862  0.4709
  211MOL0     C29005  -0.469   8.027   8.503 -1.5034  0.1733 -0.7174
  211MOL0     C29006  -0.564   7.925   8.505  0.9295  0.8938 -0.1339
  211MOL0     C29007  -0.572   7.838   8.611  0.7166 -0.6379  0.5351
  211MOL0     C29008  -0.682   7.732   8.595 -0.3417 -0.1142  0.1429
  211MOL0     C29009  -0.490   7.859   8.721  0.5622 -0.4256 -0.3579
  211MOL0     C29010  -0.493   7.779   8.846 -0.2068 -0.3976  0.1431
  211MOL0     O29011  -0.479   7.845   8.958 -0.0768 -0.0541  0.2496
  211MOL0     C29012  -0.507   7.793   9.087  0.2269  0.3686  0.0584
  211MOL0     C29013  -0.564   7.875   9.184 -0.2374 -0.6348  0.3547
  211MOL0     C29014  -0.587   7.840   9.314 -0.2188 -0.1054  0.3061
  211MOL0     C29015  -0.564   7.704   9.355  0.3854 -0.5528 -0.0955
  211MOL0     O29016  -0.564   7.670   9.483  0.0260  0.2342  0.3582
  211MOL0     C29017  -0.663   7.729   9.573 -0.4035  0.2453  0.2928
  211MOL0     C29018  -0.721   7.636   9.684 -0.6556  0.3104  0.0850
  211MOL0     C29019  -0.610   7.568   9.765 -0.4248  0.2379 -0.6497
  211MOL0     C29020  -0.546   7.663   9.870 -0.1186  0.3525  0.4296
  211MOL0     C29021  -0.463   7.583   9.964 -0.2469  0.3825  0.0489
  211MOL0     C29022  -0.394   7.663  10.085  0.0159 -0.6333  0.6054
  211MOL0     C29023  -0.294   7.583  10.161  0.7012  0.0400  0.0004
  211MOL0     C29024  -0.360   7.465  10.235  0.7099  0.1787 -0.8816
  211MOL0    Cl29025  -0.240   7.408  10.347 -0.0826 -0.1190  0.1965
  211MOL0     C29026  -0.525   7.613   9.247  0.8599  0.8915  0.3489
  211MOL0     C29027  -0.494   7.655   9.119  0.0369 -0.6721  0.5300
  211MOL0     O29028  -0.510   7.654   8.829  1.1602  0.0962 -0.6335
  211MOL0     C29029  -0.405   7.972   8.728 -0.0394  0.4349 -0.3236
  211MOL0     C29030  -0.388   8.044   8.615  0.5042  0.6287 -0.3165
  211MOL0     N29031  -0.119   8.341   7.896 -0.8934 -0.2088  0.1815
  211MOL0     N29032  -0.049   8.451   7.893  0.1720 -0.1204  0.9098
  211MOL0     C29033   0.462   9.332   7.874 -0.2482 -0.3801 -0.1270
  211MOL0     C29034   0.580   9.338   7.793  0.0294 -0.3176 -0.1896
  211MOL0     C29035   0.856   9.259   7.413 -0.0313 -0.6287  0.5103
  211MOL0     C29036   0.880   9.401   7.438 -0.5708  0.4939  0.7432
  211MOL0     C29037   0.978   9.468   7.366  0.0041 -0.2696  0.2450
  211MOL0     C29038   1.065   9.405   7.266  0.5819  1.2940  0.4722
  211MOL0     O29039   1.170   9.459   7.193  0.6208  0.1422 -0.0250
  211MOL0     C29040   1.189   9.599   7.181 -0.3582  0.2646  0.0016
  211MOL0     C29041   1.261   9.638   7.048 -0.3300 -0.0481 -0.7700
  211MOL0     C29042   1.309   9.779   7.066 -0.5861  0.0128 -1.4164
  211MOL0     C29043   1.369   9.840   6.943  0.2499 -0.0238  0.0621
  211MOL0     C29044   1.273   9.868   6.835 -0.1758  0.1101  0.4380
  211MOL0     C29045   1.190   9.898   6.755  0.4610  0.3639 -0.3621
  211MOL0     C29046   1.038   9.263   7.242  0.2695 -0.2048  0.3330
  211MOL0     C29047   0.932   9.196   7.307  1.5819 -0.3399  0.3381
  211MOL0     C29048   0.895   9.063   7.261 -0.5325  0.4826  0.2220
  211MOL0     H29049   0.481   9.094   7.573 -3.6313 -1.1569 -0.0617
  211MOL0     H29050   0.284   9.114   7.701  1.7298 -0.9132 -1.2665
  211MOL0     H29051   0.095   9.381   8.003  0.7067  0.1456 -1.5115
  211MOL0     H29052   0.263   9.451   8.012  1.0589  0.5234  2.3575
  211MOL0     H29053   0.329   9.268   8.134 -1.2258 -1.8778  2.0783
  211MOL0     H29054   0.184   9.346   8.211 -4.5059 -0.6351 -1.6108
  211MOL0     H29055   0.103   9.136   8.233  0.0910  1.6702  0.5044
  211MOL0     H29056   0.064   9.144   8.058  1.1265 -2.2367 -1.9907
  211MOL0     H29057   0.282   9.049   8.006  1.1686  0.4804  0.2019
  211MOL0     H29058   0.332   9.046   8.172  0.6748  1.4113 -1.1633
  211MOL0     H29059   0.070   8.908   8.064  1.8990  1.2242 -3.2223
  211MOL0     H29060   0.138   8.898   8.224  0.1635  1.2435  1.2454
  211MOL0     H29061   0.256   8.745   7.974  4.6693 -0.4533  0.3725
  211MOL0     H29062   0.321   8.747   8.135  0.1259 -0.6697  0.5078
  211MOL0     H29063   0.118   8.644   8.213 -1.1431  1.2072 -0.0690
  211MOL0     H29064   0.192   8.542   8.089 -0.1378  0.1197  1.7112
  211MOL0     H29065  -0.072   8.700   8.091 -1.7741 -2.3307 -0.3233
  211MOL0     H29066   0.010   8.687   7.938 -2.7354 -2.5794 -0.5317
  211MOL0     H29067  -0.156   8.465   8.198 -0.9598  2.9803 -1.0993
  211MOL0     H29068  -0.244   8.148   8.090  1.8439  1.7020  1.5657
  211MOL0     H29069  -0.349   8.206   7.966 -1.3512  0.0775  1.3221
  211MOL0     H29070  -0.381   8.351   8.224  1.1548  0.5818 -0.4181
  211MOL0     H29071  -0.461   8.372   8.071 -2.4332 -0.7311 -0.4612
  211MOL0     H29072  -0.614   8.231   8.225  1.2466  0.0614  1.4838
  211MOL0     H29073  -0.561   8.139   8.086  1.7999 -1.4322 -0.7739
  211MOL0     H29074  -0.547   7.993   8.239  2.3271 -3.4656  0.0446
  211MOL0     H29075  -0.384   8.019   8.228 -0.3645 -0.9423 -1.2263
  211MOL0     H29076  -0.634   7.898   8.427  0.9955 -2.3264  0.8116
  211MOL0     H29077  -0.767   7.759   8.531 -1.8658 -0.6370  1.8616
  211MOL0     H29078  -0.731   7.722   8.693  0.8362  1.3443  0.9203
  211MOL0     H29079  -0.652   7.635   8.554 -0.0905  1.0175 -2.5837
  211MOL0     H29080  -0.600   7.975   9.158  0.9497 -0.2186  0.2382
  211MOL0     H29081  -0.633   7.907   9.386  1.2604  3.2417 -1.6413
  211MOL0     H29082  -0.601   7.806   9.619  2.4165 -0.5919 -1.8598
  211MOL0     H29083  -0.745   7.763   9.508  0.3681 -2.3030 -2.2219
  211MOL0     H29084  -0.774   7.697   9.758  0.6755  1.3631  0.2158
  211MOL0     H29085  -0.783   7.561   9.634 -1.2883  2.1098 -1.9654
  211MOL0     H29086  -0.522   7.559   9.701  0.6277  0.1080  0.7583
  211MOL0     H29087  -0.645   7.474   9.807  0.2215  0.7436  1.1442
  211MOL0     H29088  -0.625   7.706   9.932 -1.1523 -1.9298  0.8237
  211MOL0     H29089  -0.477   7.739   9.834  1.0952  1.3577  4.4788
  211MOL0     H29090  -0.533   7.513  10.012 -1.1369  0.5205 -1.0217
  211MOL0     H29091  -0.388   7.531   9.904  0.9254  1.6738  0.3470
  211MOL0     H29092  -0.473   7.702  10.150 -0.2947 -1.1389  0.5434
  211MOL0     H29093  -0.340   7.748  10.042 -1.6105  0.2457  0.2020
  211MOL0     H29094  -0.237   7.655  10.221  2.1323 -1.0392 -0.0175
  211MOL0     H29095  -0.222   7.536  10.093 -1.1044  2.0220 -3.5386
  211MOL0     H29096  -0.388   7.380  10.173  3.2714  0.5814 -2.7359
  211MOL0     H29097  -0.444   7.511  10.289  0.7594 -1.4836  0.6965
  211MOL0     H29098  -0.509   7.508   9.272 -1.1151  0.0790 -1.4433
  211MOL0     H29099  -0.465   7.585   9.042  0.2836  0.9432 -0.9216
  211MOL0     H29100  -0.329   7.985   8.803  1.0562 -0.2096 -1.2929
  211MOL0     H29101  -0.306   8.115   8.609  0.9916  0.2094  1.1276
  211MOL0     H29102   0.480   9.383   7.968 -3.1492 -1.5634  1.1974
  211MOL0     H29103   0.667   9.387   7.836  1.8024  0.6697 -4.3868
  211MOL0     H29104   0.819   9.451   7.513  3.0209  2.6594  2.5067
  211MOL0     H29105   1.002   9.569   7.395 -0.9554 -0.1926  0.8337
  211MOL0     H29106   1.096   9.657   7.177 -0.9287 -0.6525 -0.5870
  211MOL0     H29107   1.248   9.631   7.267  1.7116 -3.0441 -0.0156
  211MOL0     H29108   1.188   9.634   6.967 -0.9185  0.9739 -0.3093
  211MOL0     H29109   1.352   9.579   7.034  0.3654  0.7717  0.1143
  211MOL0     H29110   1.223   9.837   7.102  0.8262  1.5593 -0.3658
  211MOL0     H29111   1.386   9.782   7.143 -0.6317  0.1806 -1.3757
  211MOL0     H29112   1.443   9.775   6.895  2.2482  1.5399  0.8799
  211MOL0     H29113   1.429   9.928   6.965 -1.6857  1.9136 -1.8694
  211MOL0     H29114   1.108   9.938   6.698 -1.5282  1.4906  3.0220
  211MOL0     H29115   1.075   9.214   7.152 -2.3959 -1.7469 -0.0216
  211MOL0     H29116   0.912   8.985   7.337  1.2619  0.7552  0.1554
  211MOL0     H29117   0.788   9.062   7.240 -0.1131  0.5075 -2.1280
  211MOL0     H29118   0.948   9.027   7.172 -2.3139 -3.5828  0.6105
  212MOL0     O29119   5.793   8.836   4.319  0.7365  0.8395  0.3189
  212MOL0     C29120   5.728   8.791   4.225 -0.5454 -0.5246  0.6792
  212MOL0     O29121   5.595   8.828   4.196 -1.0428 -0.1780 -0.0700
  212MOL0     C29122   5.536   8.900   4.293  0.4621 -1.0253 -0.3296
  212MOL0     C29123   5.477   9.025   4.259  0.5492 -0.0852  0.4638
  212MOL0     C29124   5.423   9.113   4.352 -0.3810  0.3040  0.1126
  212MOL0     C29125   5.421   9.088   4.493  0.0569  0.3275  0.8802
  212MOL0     O29126   5.368   9.170   4.589  0.2865  0.3933 -0.0639
  212MOL0     C29127   5.232   9.217   4.572  0.6010  0.2808 -0.0875
  212MOL0     C29128   5.142   9.092   4.577 -0.0322 -0.7384  0.3408
  212MOL0     C29129   5.138   9.027   4.713  0.0661 -0.0715 -0.8876
  212MOL0     C29130   5.034   8.916   4.730 -0.5843 -0.4130  0.0841
  212MOL0     C29131   5.106   8.791   4.786  0.0416  0.0009  0.9135
  212MOL0     C29132   5.217   8.727   4.703 -1.3950  0.3772 -0.1126
  212MOL0     C29133   5.264   8.597   4.783  1.2685  0.1880  0.0016
  212MOL0     C29134   5.415   8.581   4.766  0.5941  0.4328  0.0269
  212MOL0     N29135   5.504   8.673   4.834 -0.6099  0.5591  0.8958
  212MOL0     C29136   5.464   8.777   4.922  0.4594  1.0387 -0.2365
  212MOL0     C29137   5.581   8.807   4.983 -0.5303  0.1926 -0.4582
  212MOL0     C29138   5.606   8.907   5.093  0.0260 -0.7235  0.5073
  212MOL0     C29139   5.513   9.035   5.075 -0.2416 -0.1873 -0.1864
  212MOL0     C29140   5.545   9.153   5.164 -0.3843  0.3889 -0.5207
  212MOL0     C29141   5.657   9.252   5.116  0.3525  0.1825 -0.4667
  212MOL0     O29142   5.682   9.356   5.217  1.0084  0.0716 -0.5846
  212MOL0     C29143   5.742   9.334   5.342  0.4104 -0.9416  0.8046
  212MOL0     C29144   5.730   9.436   5.434  0.5287 -0.0575 -0.0642
  212MOL0     C29145   5.795   9.435   5.554  0.3741  0.1557 -0.9851
  212MOL0     C29146   5.756   9.550   5.649 -0.0920  0.2964  0.5640
  212MOL0     C29147   5.885   9.332   5.588  0.4408 -0.4902 -0.1566
  212MOL0     C29148   5.961   9.323   5.710 -0.7182  0.4468 -0.5097
  212MOL0     O29149   6.032   9.211   5.722 -0.1168  0.0623 -0.2141
  212MOL0     C29150   6.084   9.181   5.842 -1.1533 -0.7157 -0.1149
  212MOL0     C29151   6.166   9.266   5.918 -0.0679 -0.0140 -0.7555
  212MOL0     C29152   6.222   9.227   6.040  0.4471  0.6528 -0.7321
  212MOL0     C29153   6.204   9.089   6.080 -0.3034 -0.4964 -0.2780
  212MOL0     O29154   6.262   9.053   6.204 -0.3876 -0.6999 -0.8061
  212MOL0     C29155   6.212   8.934   6.264  0.8100 -0.1450 -0.4900
  212MOL0     C29156   6.264   8.883   6.402 -0.0152 -0.1958  0.2164
  212MOL0     C29157   6.152   8.822   6.490 -0.0631 -0.3143 -0.2902
  212MOL0     C29158   6.100   8.908   6.604 -0.4116  0.4267  0.0276
  212MOL0     C29159   6.038   9.039   6.534 -0.7349  1.6006  0.2702
  212MOL0     C29160   6.002   9.139   6.647  0.4722 -0.2954 -0.5255
  212MOL0     C29161   5.971   9.278   6.583  0.6700  0.8649 -0.2884
  212MOL0     C29162   5.878   9.364   6.675  0.2487  0.5194  0.2363
  212MOL0    Cl29163   5.970   9.424   6.838  0.4912 -0.3921  0.2031
  212MOL0     C29164   6.136   9.001   5.994  0.9059  0.3495  0.5869
  212MOL0     C29165   6.075   9.049   5.881 -0.2794  0.7324  0.1987
  212MOL0     O29166   5.947   9.403   5.803  0.1102 -0.0201 -0.1413
  212MOL0     C29167   5.902   9.234   5.487 -0.0894 -0.2146  0.2170
  212MOL0     C29168   5.835   9.242   5.361  0.8127  0.5265  0.2149
  212MOL0     N29169   5.690   8.737   4.928  1.3262 -0.3887 -0.4733
  212MOL0     N29170   5.636   8.646   4.852 -0.5218  0.3540 -0.0954
  212MOL0     C29171   5.484   8.963   4.529 -0.0572  0.5930 -0.5315
  212MOL0     C29172   5.530   8.872   4.429  0.0694  0.2849  1.0249
  212MOL0     C29173   5.805   8.701   4.130  0.0695  1.0952  0.1801
  212MOL0     C29174   5.721   8.627   4.043 -0.9105  0.5864  0.3824
  212MOL0     C29175   5.772   8.548   3.951 -1.0235  0.3296  0.1820
  212MOL0     C29176   5.907   8.529   3.934 -0.0521 -0.8063 -0.4117
  212MOL0     O29177   5.958   8.443   3.839 -0.6235 -0.6887  0.0222
  212MOL0     C29178   6.099   8.441   3.808 -0.1897  0.1636 -0.2673
  212MOL0     C29179   6.128   8.345   3.686 -0.2698 -0.4346  0.3994
  212MOL0     C29180   6.273   8.308   3.644  0.5907 -0.2241 -0.7460
  212MOL0     C29181   6.343   8.435   3.589 -0.7581 -0.8597 -0.5577
  212MOL0     C29182   6.442   8.485   3.682  0.3247  0.7927 -0.2264
  212MOL0     C29183   6.533   8.522   3.750 -0.9018 -0.5960 -1.0265
  212MOL0     C29184   5.992   8.593   4.027 -0.3010 -0.2472  0.3079
  212MOL0     C29185   5.949   8.678   4.128  0.6986 -0.7694 -0.1914
  212MOL0     C29186   6.047   8.754   4.221 -0.1003 -0.9305  0.7210
  212MOL0     H29187   5.481   9.052   4.154 -3.8033 -0.4106  0.0310
  212MOL0     H29188   5.378   9.202   4.310 -4.1154 -2.5775 -2.8120
  212MOL0     H29189   5.220   9.267   4.476  1.0434  2.5054  0.9622
  212MOL0     H29190   5.203   9.288   4.650 -2.6683  0.3818 -1.2368
  212MOL0     H29191   5.040   9.125   4.553  0.1519 -0.9814 -0.8103
  212MOL0     H29192   5.168   9.018   4.501  0.4797 -0.8858  0.6556
  212MOL0     H29193   5.242   8.997   4.721  0.8204  2.3195 -1.0135
  212MOL0     H29194   5.119   9.103   4.790 -2.3898 -1.4926  0.0593
  212MOL0     H29195   4.964   8.959   4.801 -3.2201 -0.7959 -2.1367
  212MOL0     H29196   4.989   8.883   4.636  1.2886  0.8680 -1.3616
  212MOL0     H29197   5.029   8.716   4.806  1.6105 -2.1032 -0.4972
  212MOL0     H29198   5.151   8.827   4.879 -2.2421 -1.2172  2.5638
  212MOL0     H29199   5.187   8.700   4.601 -1.4147  0.1704 -0.0515
  212MOL0     H29200   5.295   8.800   4.677 -1.9813  0.0090 -3.3224
  212MOL0     H29201   5.207   8.510   4.750 -1.4636  0.5717  3.1608
  212MOL0     H29202   5.248   8.606   4.891  5.5868 -2.9167  1.1528
  212MOL0     H29203   5.443   8.480   4.796 -2.1044 -0.8847 -1.5542
  212MOL0     H29204   5.452   8.581   4.663  1.1650 -2.2605  0.1712
  212MOL0     H29205   5.364   8.813   4.943 -0.2583  1.1065 -3.3344
  212MOL0     H29206   5.709   8.944   5.091  0.8180 -2.8197  0.4414
  212MOL0     H29207   5.583   8.861   5.189 -0.7536 -1.2662  0.0721
  212MOL0     H29208   5.512   9.057   4.968 -1.4315 -1.3784 -0.4444
  212MOL0     H29209   5.409   9.009   5.096 -1.1067  2.9206 -0.1048
  212MOL0     H29210   5.457   9.217   5.177 -0.5169  0.6354 -2.2695
  212MOL0     H29211   5.581   9.119   5.261  3.8958 -1.8964 -2.6054
  212MOL0     H29212   5.752   9.198   5.109 -0.3808 -1.4558  1.1230
  212MOL0     H29213   5.626   9.295   5.021 -3.1426  0.9107  0.8700
  212MOL0     H29214   5.668   9.523   5.412  1.5963  1.0427  1.0727
  212MOL0     H29215   5.711   9.521   5.744 -0.3055 -2.0814 -0.2007
  212MOL0     H29216   5.690   9.627   5.608 -2.2585 -1.3751  0.7257
  212MOL0     H29217   5.851   9.596   5.676 -0.5659  1.5775  0.1423
  212MOL0     H29218   6.180   9.366   5.879 -3.7606  1.2859  0.8083
  212MOL0     H29219   6.277   9.286   6.113  0.0675  0.3873 -0.2238
  212MOL0     H29220   6.104   8.947   6.268  1.1861  3.7695  0.2353
  212MOL0     H29221   6.241   8.848   6.202  3.6626 -0.6101  1.2736
  212MOL0     H29222   6.349   8.814   6.392  0.5420  0.4606  0.3456
  212MOL0     H29223   6.298   8.969   6.459 -1.6024 -0.6968  2.0200
  212MOL0     H29224   6.183   8.732   6.544 -0.2355 -0.3508 -0.2526
  212MOL0     H29225   6.071   8.797   6.420 -0.3297 -3.0977  0.8620
  212MOL0     H29226   6.186   8.938   6.665  0.0618 -0.1510 -0.3427
  212MOL0     H29227   6.025   8.860   6.666 -3.0879  3.5194 -0.5148
  212MOL0     H29228   6.096   9.091   6.457 -0.0966  4.0632  2.2761
  212MOL0     H29229   5.945   9.008   6.486 -1.6041 -0.0312  2.8121
  212MOL0     H29230   6.083   9.164   6.717 -2.6361  1.2244  2.8415
  212MOL0     H29231   5.914   9.104   6.701 -0.7996  2.5136 -0.5880
  212MOL0     H29232   5.925   9.265   6.485  1.0298 -1.5247 -0.1926
  212MOL0     H29233   6.066   9.332   6.575 -0.2577  2.8074  0.9675
  212MOL0     H29234   5.791   9.305   6.707 -1.6687  3.4029  0.6659
  212MOL0     H29235   5.829   9.443   6.618  0.7839  1.1512  0.6482
  212MOL0     H29236   6.126   8.895   6.016 -1.2680  0.4040  0.0150
  212MOL0     H29237   6.019   8.984   5.815  0.0151  0.4202  0.2542
  212MOL0     H29238   5.971   9.152   5.503  3.1363  2.3597  0.4953
  212MOL0     H29239   5.857   9.159   5.294  0.7744 -0.7451  1.7114
  212MOL0     H29240   5.509   8.940   4.632  2.8687 -0.9913 -1.4782
  212MOL0     H29241   5.578   8.783   4.468 -0.0764 -1.1124 -1.7389
  212MOL0     H29242   5.613   8.638   4.055 -1.6217 -1.0746 -3.2627
  212MOL0     H29243   5.703   8.499   3.882  2.6728 -0.8680 -3.0396
  212MOL0     H29244   6.130   8.542   3.782 -2.8845  2.3358  3.9395
  212MOL0     H29245   6.156   8.417   3.898  1.5039  0.1807 -1.2853
  212MOL0     H29246   6.078   8.389   3.600  1.1144 -0.0044 -0.2149
  212MOL0     H29247   6.088   8.246   3.711  1.4719 -0.6843  2.5759
  212MOL0     H29248   6.335   8.283   3.731  0.7404  0.7227 -0.5710
  212MOL0     H29249   6.275   8.219   3.580  0.9199 -0.2065 -0.7624
  212MOL0     H29250   6.266   8.511   3.570 -1.0659 -0.2897  2.5396
  212MOL0     H29251   6.394   8.418   3.493  1.9068  1.6796  0.2718
  212MOL0     H29252   6.626   8.546   3.797 -0.2566 -0.9343 -2.0874
  212MOL0     H29253   6.098   8.570   4.029 -0.4632 -1.0345  0.1464
  212MOL0     H29254   6.047   8.690   4.309  1.7478 -1.6674  0.2313
  212MOL0     H29255   6.148   8.759   4.179 -0.9659  0.6588 -1.3729
  212MOL0     H29256   6.019   8.858   4.241  2.6465  0.0807 -0.2033
  213MOL0     O29257   5.860   6.398   6.912 -0.5362 -0.6652  0.1703
  213MOL0     C29258   5.919   6.497   6.871 -0.0777  0.4714  0.0802
  213MOL0     O29259   5.855   6.618   6.858 -0.4921  0.4128  0.0983
  213MOL0     C29260   5.750   6.647   6.939  1.0359 -0.3023  0.3303
  213MOL0     C29261   5.697   6.776   6.932  0.2700 -0.0258  1.1824
  213MOL0     C29262   5.595   6.827   7.012  0.5785 -0.8837  1.3418
  213MOL0     C29263   5.535   6.746   7.101 -0.5702 -0.1497 -0.2099
  213MOL0     O29264   5.424   6.766   7.168 -0.2494  0.4506 -0.3521
  213MOL0     C29265   5.405   6.887   7.229  0.2061  0.4604  0.1662
  213MOL0     C29266   5.260   6.900   7.287 -0.7261  0.3555 -0.5226
  213MOL0     C29267   5.166   6.941   7.178  0.3360 -0.5254  0.0730
  213MOL0     C29268   5.022   6.975   7.212  0.2551  0.5380 -0.8675
  213MOL0     C29269   4.928   6.976   7.086 -0.3421 -0.5488 -0.1931
  213MOL0     C29270   4.783   6.996   7.129  0.4417  0.2878  0.7725
  213MOL0     C29271   4.674   7.014   7.022  0.8486 -0.3363 -0.2780
  213MOL0     C29272   4.542   7.077   7.082  0.3839  0.7106  0.7422
  213MOL0     N29273   4.477   7.000   7.191 -0.0439  0.2294  0.8041
  213MOL0     C29274   4.405   6.883   7.163 -0.3555 -0.2149  0.4544
  213MOL0     C29275   4.380   6.838   7.290 -1.0523 -0.1102  0.1478
  213MOL0     C29276   4.296   6.715   7.313 -0.6663 -0.8265  0.1814
  213MOL0     C29277   4.170   6.753   7.374 -0.1713  0.5392 -0.3301
  213MOL0     C29278   4.095   6.622   7.411  0.6731 -0.2839 -0.2361
  213MOL0     C29279   4.146   6.527   7.531 -0.7680 -0.5369  0.8139
  213MOL0     O29280   4.220   6.414   7.485 -0.5638  0.2525  1.1198
  213MOL0     C29281   4.221   6.304   7.564  0.0903 -0.3764  0.2081
  213MOL0     C29282   4.251   6.180   7.510  0.7307  0.2651  0.4890
  213MOL0     C29283   4.242   6.065   7.584  0.3592  1.3184 -0.0791
  213MOL0     C29284   4.279   5.932   7.512  0.0799 -0.5936  0.2585
  213MOL0     C29285   4.244   6.068   7.722  1.3349 -0.3328 -0.5977
  213MOL0     C29286   4.266   5.952   7.819  0.2021  0.5327  0.7933
  213MOL0     O29287   4.381   5.947   7.892  0.7637 -1.7390  0.0059
  213MOL0     C29288   4.415   5.827   7.950 -0.1532  0.1936 -0.1335
  213MOL0     C29289   4.475   5.824   8.073  0.0158 -0.2495  0.3311
  213MOL0     C29290   4.501   5.709   8.148  0.2736  0.6750  0.8572
  213MOL0     C29291   4.494   5.582   8.080  0.2302 -0.9252  0.7270
  213MOL0     O29292   4.515   5.470   8.153 -0.4221  0.0102  1.0151
  213MOL0     C29293   4.427   5.362   8.115 -0.2084 -0.4508  0.7016
  213MOL0     C29294   4.426   5.265   8.227 -0.1400  0.0151  0.3195
  213MOL0     C29295   4.344   5.140   8.193 -0.6189  0.2577 -0.8355
  213MOL0     C29296   4.346   5.036   8.307 -0.4288 -1.4167  0.6662
  213MOL0     C29297   4.251   4.916   8.279  0.3114 -1.1934 -0.3745
  213MOL0     C29298   4.240   4.840   8.413 -0.4001  1.2570 -0.3994
  213MOL0     C29299   4.183   4.702   8.402  0.4635  0.1111 -0.9696
  213MOL0     C29300   4.276   4.600   8.354 -0.0799 -0.6982  0.2146
  213MOL0    Cl29301   4.436   4.602   8.428  0.0372  0.5090  0.0379
  213MOL0     C29302   4.445   5.584   7.950 -0.4185  1.1506  0.0626
  213MOL0     C29303   4.404   5.699   7.884  0.0236  0.9007  0.5179
  213MOL0     O29304   4.174   5.870   7.816  0.0446  0.1863 -0.1966
  213MOL0     C29305   4.217   6.188   7.780  0.1724 -0.2187  0.0911
  213MOL0     C29306   4.207   6.306   7.702 -0.1907 -0.1192 -0.1027
  213MOL0     N29307   4.440   6.923   7.381  0.2339  0.5026  0.1224
  213MOL0     N29308   4.501   7.021   7.323 -0.4026  0.9184  0.4933
  213MOL0     C29309   5.592   6.624   7.122  0.3353 -0.5940 -0.1073
  213MOL0     C29310   5.697   6.573   7.042  0.7678 -1.4264  0.0080
  213MOL0     C29311   6.043   6.483   6.791  0.7905  0.8887  0.1600
  213MOL0     C29312   6.081   6.571   6.694 -1.0981 -0.8471 -0.2030
  213MOL0     C29313   6.200   6.568   6.628 -0.5589 -0.1016  0.9161
  213MOL0     C29314   6.280   6.464   6.645  0.1878  0.4184 -0.8138
  213MOL0     O29315   6.399   6.425   6.584  0.6476  0.3099 -0.2037
  213MOL0     C29316   6.446   6.517   6.488 -0.0895  0.4659  0.0102
  213MOL0     C29317   6.362   6.521   6.356 -0.9910  0.1917 -0.1754
  213MOL0     C29318   6.423   6.634   6.264 -0.9508  0.2820  0.0369
  213MOL0     C29319   6.392   6.783   6.306  0.9370  0.2464 -0.3028
  213MOL0     C29320   6.453   6.877   6.206  0.0805 -0.1983  0.8046
  213MOL0     C29321   6.510   6.925   6.109 -0.2584  0.5623 -0.0820
  213MOL0     C29322   6.244   6.374   6.741 -0.2086  0.6968 -0.5458
  213MOL0     C29323   6.134   6.376   6.815  0.4523 -1.1880  1.0830
  213MOL0     C29324   6.114   6.269   6.917  0.6385  0.0752 -0.2094
  213MOL0     H29325   5.741   6.852   6.867  4.5815 -3.4415 -0.3868
  213MOL0     H29326   5.570   6.932   6.996 -0.9561 -1.5147 -0.9569
  213MOL0     H29327   5.426   6.973   7.165 -3.7652  1.9388  0.5683
  213MOL0     H29328   5.466   6.882   7.320 -0.4839 -1.0576  0.5880
  213MOL0     H29329   5.229   6.814   7.346 -1.9740  2.5822  2.2848
  213MOL0     H29330   5.279   6.982   7.357  4.5268 -0.9725  0.0420
  213MOL0     H29331   5.205   7.011   7.104 -2.3072 -1.2831 -2.2106
  213MOL0     H29332   5.162   6.851   7.116  1.3323  0.3353 -1.3028
  213MOL0     H29333   4.988   6.884   7.263  2.1919 -0.8035 -1.8450
  213MOL0     H29334   5.024   7.067   7.270 -0.5536  1.2138 -1.8832
  213MOL0     H29335   4.927   6.879   7.034 -1.0691 -0.8680  0.3967
  213MOL0     H29336   4.959   7.056   7.019 -0.4561 -0.3227  0.0257
  213MOL0     H29337   4.754   6.901   7.176  0.2050 -1.1420 -2.0268
  213MOL0     H29338   4.782   7.077   7.203  3.5200 -1.1853  2.6533
  213MOL0     H29339   4.653   6.921   6.967  1.8549  0.3891 -1.9809
  213MOL0     H29340   4.716   7.078   6.944 -0.9220 -0.5733 -1.4721
  213MOL0     H29341   4.561   7.171   7.135  2.3336  0.1449  1.1214
  213MOL0     H29342   4.476   7.086   6.995 -0.5958  0.4546  1.4384
  213MOL0     H29343   4.382   6.843   7.066  2.1408  1.0578 -0.7733
  213MOL0     H29344   4.346   6.642   7.378 -1.6599 -0.5648  1.2895
  213MOL0     H29345   4.283   6.672   7.213  0.6638 -0.6923 -0.0683
  213MOL0     H29346   4.182   6.816   7.463 -0.9259 -0.3044  0.3849
  213MOL0     H29347   4.121   6.810   7.295  3.5567 -0.6143 -3.8003
  213MOL0     H29348   3.997   6.647   7.452  0.2092  1.1451 -2.0744
  213MOL0     H29349   4.092   6.559   7.322  0.2233  0.4359 -0.7344
  213MOL0     H29350   4.190   6.574   7.619  2.0320 -3.0833  0.9564
  213MOL0     H29351   4.056   6.482   7.576 -0.3679  1.0100  3.3454
  213MOL0     H29352   4.266   6.177   7.402  0.2577 -2.5381  0.4397
  213MOL0     H29353   4.387   5.913   7.506 -0.0477 -1.1853 -0.1979
  213MOL0     H29354   4.239   5.920   7.411  2.4310  0.4500 -0.8672
  213MOL0     H29355   4.246   5.845   7.569  3.5089 -3.0130 -1.1469
  213MOL0     H29356   4.488   5.926   8.108 -1.5433  0.4392 -0.9689
  213MOL0     H29357   4.543   5.719   8.248 -0.6011 -3.9062  1.8826
  213MOL0     H29358   4.320   5.381   8.106 -0.4291 -2.2145 -0.9888
  213MOL0     H29359   4.470   5.319   8.024 -1.8892 -1.5422  0.3933
  213MOL0     H29360   4.532   5.236   8.234 -0.2464 -1.1476 -1.8355
  213MOL0     H29361   4.387   5.302   8.322  0.8777 -2.3119  1.7284
  213MOL0     H29362   4.381   5.098   8.099  1.2790 -2.4952  0.9819
  213MOL0     H29363   4.243   5.180   8.184 -1.3913 -1.6223 -0.9198
  213MOL0     H29364   4.317   5.096   8.394  1.3116 -1.4512  1.3249
  213MOL0     H29365   4.446   4.997   8.328 -0.2416 -0.4831  1.6360
  213MOL0     H29366   4.149   4.944   8.250  0.6526 -0.1262 -0.6052
  213MOL0     H29367   4.296   4.866   8.193 -1.8435 -0.1013 -2.2539
  213MOL0     H29368   4.174   4.898   8.479 -0.0962  1.3795 -0.1982
  213MOL0     H29369   4.343   4.838   8.450 -0.5008  0.8540 -0.1234
  213MOL0     H29370   4.094   4.710   8.339  2.2025 -0.0766 -3.6047
  213MOL0     H29371   4.159   4.668   8.503  0.3713 -2.2707 -1.7457
  213MOL0     H29372   4.294   4.616   8.247  0.8901 -2.9887 -0.0181
  213MOL0     H29373   4.229   4.503   8.368  0.1518 -1.0976 -1.5200
  213MOL0     H29374   4.445   5.492   7.892 -0.8284  2.0358 -1.3937
  213MOL0     H29375   4.352   5.692   7.789 -0.1690  1.2258  0.5982
  213MOL0     H29376   4.202   6.204   7.887 -0.3205  1.1911 -0.1730
  213MOL0     H29377   4.197   6.397   7.761  1.7079 -0.1614  0.3558
  213MOL0     H29378   5.551   6.576   7.211  3.3380 -0.9413  1.2018
  213MOL0     H29379   5.739   6.477   7.071  1.1671 -1.5540 -0.9456
  213MOL0     H29380   6.021   6.656   6.664  1.4361  2.6075  3.4669
  213MOL0     H29381   6.234   6.655   6.572  1.7895 -2.1731 -1.0707
  213MOL0     H29382   6.457   6.616   6.533 -2.4708  0.0088  1.7825
  213MOL0     H29383   6.547   6.488   6.457  0.5048  3.8418 -1.7431
  213MOL0     H29384   6.254   6.536   6.367 -1.1335  1.2722 -2.5880
  213MOL0     H29385   6.364   6.425   6.304  2.4856 -2.2207  3.7810
  213MOL0     H29386   6.529   6.610   6.270 -1.3534 -2.5614 -2.3974
  213MOL0     H29387   6.396   6.618   6.159 -0.5109  1.3481 -0.2526
  213MOL0     H29388   6.431   6.799   6.406 -0.1901  0.6811  0.0856
  213MOL0     H29389   6.285   6.788   6.328  1.1516  1.0788  0.6058
  213MOL0     H29390   6.545   6.964   6.015 -0.5044  1.1054  0.0487
  213MOL0     H29391   6.307   6.285   6.743  0.3930  1.1284  1.1476
  213MOL0     H29392   6.105   6.309   7.018  0.9322  3.1185 -1.2802
  213MOL0     H29393   6.024   6.211   6.890  1.8971 -0.9769 -2.4735
  213MOL0     H29394   6.192   6.196   6.895  1.2403  1.6830 -4.1547
  214MOL0     O29395   0.116   6.241   9.590 -0.0150  0.0454  0.3970
  214MOL0     C29396   0.164   6.238   9.475  0.3615 -0.1755 -1.0491
  214MOL0     O29397   0.194   6.124   9.397 -0.1640  0.0847  0.1678
  214MOL0     C29398   0.190   6.004   9.474 -0.1419 -0.0613  0.5312
  214MOL0     C29399   0.308   5.931   9.502  0.2440  0.3696 -1.0026
  214MOL0     C29400   0.302   5.821   9.600  0.7512  0.1316 -0.0985
  214MOL0     C29401   0.176   5.777   9.647  0.0810  1.2911  0.5933
  214MOL0     O29402   0.172   5.670   9.733 -0.2434 -0.7938 -0.4655
  214MOL0     C29403   0.083   5.561   9.709  0.6894 -0.3838 -0.3861
  214MOL0     C29404   0.137   5.436   9.656  0.1054  0.5856  0.8818
  214MOL0     C29405   0.216   5.360   9.760 -0.4592  0.6265 -0.1531
  214MOL0     C29406   0.263   5.226   9.704  0.4151  0.6030  0.2846
  214MOL0     C29407   0.316   5.129   9.809  0.1944  0.2228 -1.0791
  214MOL0     C29408   0.217   5.085   9.927  0.2654 -0.6723 -0.9227
  214MOL0     C29409   0.272   4.968  10.016  0.1927  0.0815 -1.0021
  214MOL0     C29410   0.384   5.008  10.111 -0.3747  1.6590 -0.3429
  214MOL0     N29411   0.507   4.916  10.104  0.2150  0.4433  0.4155
  214MOL0     C29412   0.626   4.939  10.038  0.2420  0.9244 -0.7511
  214MOL0     C29413   0.706   4.827  10.063 -0.3279 -0.0502  0.1315
  214MOL0     C29414   0.854   4.810  10.039 -0.4393  0.6042 -0.9241
  214MOL0     C29415   0.892   4.787   9.889 -0.0208  0.4112  0.2262
  214MOL0     C29416   1.042   4.809   9.853 -0.1803  0.3293  0.6852
  214MOL0     C29417   1.147   4.756   9.940 -0.0992  0.1378  0.4959
  214MOL0     O29418   1.267   4.756   9.878 -0.4385 -0.3516  0.1096
  214MOL0     C29419   1.308   4.643   9.828 -0.1420  0.2717  0.8301
  214MOL0     C29420   1.327   4.628   9.693  0.1518  0.1584 -0.1273
  214MOL0     C29421   1.380   4.519   9.622 -0.7973 -0.3291  0.0810
  214MOL0     C29422   1.405   4.525   9.470  0.0341 -0.2865 -0.7894
  214MOL0     C29423   1.414   4.413   9.709 -0.6392 -0.1179  0.3175
  214MOL0     C29424   1.500   4.299   9.661 -0.2491 -0.5027 -0.3213
  214MOL0     O29425   1.476   4.256   9.527  0.4170  0.1337  0.8938
  214MOL0     C29426   1.521   4.131   9.482  0.4675  0.8955  0.0358
  214MOL0     C29427   1.438   4.037   9.424  0.5323  0.4930 -0.1712
  214MOL0     C29428   1.490   3.917   9.378  0.1857 -0.3027 -0.1650
  214MOL0     C29429   1.624   3.879   9.411 -0.7228 -0.8792  1.2603
  214MOL0     O29430   1.658   3.756   9.375  0.2721  0.0433  0.2591
  214MOL0     C29431   1.781   3.703   9.431 -0.3193  0.0225 -0.6858
  214MOL0     C29432   1.785   3.551   9.407  0.3700  0.0471 -0.6173
  214MOL0     C29433   1.829   3.470   9.526  0.2338  0.2308 -0.7302
  214MOL0     C29434   1.807   3.317   9.500 -0.2517  0.3093 -0.1561
  214MOL0     C29435   1.798   3.230   9.626 -0.1375 -0.9607 -0.0022
  214MOL0     C29436   1.743   3.093   9.581 -0.0451  0.4736  0.2282
  214MOL0     C29437   1.743   2.984   9.693 -0.4580 -0.6297  0.2079
  214MOL0     C29438   1.687   2.852   9.641  0.1056  0.3072  0.2014
  214MOL0    Cl29439   1.770   2.783   9.491  0.4861  0.3483 -0.0569
  214MOL0     C29440   1.714   3.974   9.471  0.0410 -0.2996  0.2521
  214MOL0     C29441   1.655   4.094   9.503 -0.0651 -0.6591 -0.2158
  214MOL0     O29442   1.583   4.251   9.749 -0.3070  0.7387  0.0707
  214MOL0     C29443   1.404   4.430   9.850 -0.5504  0.5116  0.0667
  214MOL0     C29444   1.343   4.538   9.910  0.0472  0.5165  0.2401
  214MOL0     N29445   0.632   4.744  10.147  0.3159  0.1960 -0.8970
  214MOL0     N29446   0.523   4.797  10.170 -0.8851 -0.0056  0.7165
  214MOL0     C29447   0.064   5.844   9.607 -0.3244 -0.2492 -0.6786
  214MOL0     C29448   0.068   5.948   9.524 -0.0970 -0.2476 -0.0552
  214MOL0     C29449   0.210   6.365   9.417  0.0728 -1.5880  0.0991
  214MOL0     C29450   0.236   6.367   9.277 -0.9484  0.3751  0.5669
  214MOL0     C29451   0.269   6.487   9.209  0.6211  0.1057  0.2551
  214MOL0     C29452   0.285   6.607   9.274 -0.9484  0.2930 -0.6800
  214MOL0     O29453   0.316   6.712   9.198 -0.4047  0.5491  0.5857
  214MOL0     C29454   0.450   6.758   9.208  0.2123  0.5587  1.6270
  214MOL0     C29455   0.461   6.843   9.332 -0.2799  0.2642  0.7631
  214MOL0     C29456   0.592   6.934   9.334 -0.1593 -0.0163 -0.0063
  214MOL0     C29457   0.590   7.052   9.432  0.1486  0.1771  0.5266
  214MOL0     C29458   0.732   7.094   9.464  0.7130 -0.6174  0.5235
  214MOL0     C29459   0.845   7.114   9.488 -0.7288  0.6567 -0.5984
  214MOL0     C29460   0.245   6.614   9.407 -0.3947  0.1405  0.7695
  214MOL0     C29461   0.204   6.497   9.475  0.4868  0.1010 -0.0246
  214MOL0     C29462   0.146   6.529   9.615 -0.2296 -1.3065 -0.0428
  214MOL0     H29463   0.398   5.982   9.468 -0.2420  1.9404 -0.0306
  214MOL0     H29464   0.399   5.774   9.616 -0.3389 -2.2143  0.0620
  214MOL0     H29465   0.005   5.600   9.642 -1.7001  1.1681  2.9909
  214MOL0     H29466   0.020   5.544   9.797  2.3578  2.2708  1.4761
  214MOL0     H29467   0.060   5.368   9.619  1.7480 -1.3116  0.7340
  214MOL0     H29468   0.193   5.469   9.568 -1.3995 -1.8698 -1.1601
  214MOL0     H29469   0.301   5.418   9.797  0.0751  1.1200 -2.0058
  214MOL0     H29470   0.153   5.333   9.845  1.9883 -3.0537  0.7512
  214MOL0     H29471   0.169   5.181   9.670 -0.0744  2.6333 -1.2634
  214MOL0     H29472   0.328   5.240   9.617 -0.6440 -3.0740 -1.2978
  214MOL0     H29473   0.404   5.175   9.856 -1.6043  2.3466  0.4585
  214MOL0     H29474   0.354   5.044   9.752 -2.8405  0.3368 -3.5029
  214MOL0     H29475   0.197   5.162  10.002  1.3942 -1.1156 -0.1393
  214MOL0     H29476   0.118   5.053   9.894 -1.1384 -0.1823  2.4076
  214MOL0     H29477   0.292   4.883   9.948 -1.0902  0.2139 -1.5690
  214MOL0     H29478   0.186   4.927  10.070  2.0371 -0.9390  1.3464
  214MOL0     H29479   0.423   5.111  10.108  2.8592  0.5330 -2.0996
  214MOL0     H29480   0.355   5.005  10.217  2.8404 -0.6887  0.6274
  214MOL0     H29481   0.654   5.029   9.983  3.4600 -0.5234 -1.7583
  214MOL0     H29482   0.894   4.724  10.093 -1.6189  0.3944 -0.3488
  214MOL0     H29483   0.905   4.903  10.067 -3.5746  1.7024  1.7873
  214MOL0     H29484   0.866   4.685   9.862  1.4683  0.0719  0.0103
  214MOL0     H29485   0.829   4.855   9.831 -0.4793 -0.3844 -0.2229
  214MOL0     H29486   1.053   4.777   9.749  1.2925  1.8564  0.3183
  214MOL0     H29487   1.063   4.916   9.844 -0.5607  0.3176 -0.5628
  214MOL0     H29488   1.154   4.830  10.020  4.3797 -1.3350  1.7595
  214MOL0     H29489   1.116   4.665   9.991 -3.2727  1.2206  0.7574
  214MOL0     H29490   1.308   4.713   9.628 -0.2059  0.5533  0.4827
  214MOL0     H29491   1.320   4.487   9.413 -0.7558  0.0646  0.1256
  214MOL0     H29492   1.497   4.469   9.452  1.3848  1.3698  0.5653
  214MOL0     H29493   1.415   4.627   9.431 -1.4093  0.1547 -0.0911
  214MOL0     H29494   1.338   4.075   9.406 -0.7998 -1.0571  3.0830
  214MOL0     H29495   1.428   3.836   9.341  1.7587 -2.6021  1.8935
  214MOL0     H29496   1.868   3.753   9.387  1.7199 -0.4681  2.4569
  214MOL0     H29497   1.785   3.736   9.535 -1.9974  0.5507 -0.7649
  214MOL0     H29498   1.690   3.519   9.363 -1.4680  1.3078  2.1306
  214MOL0     H29499   1.864   3.531   9.334  1.4128  1.8823 -0.0396
  214MOL0     H29500   1.792   3.511   9.620  0.3778  1.2086 -1.0895
  214MOL0     H29501   1.938   3.478   9.531  0.2076 -0.0099  0.6316
  214MOL0     H29502   1.871   3.263   9.429 -3.0504 -2.7899 -0.5524
  214MOL0     H29503   1.708   3.317   9.453  0.8698  0.0658 -2.7443
  214MOL0     H29504   1.896   3.219   9.671 -1.0769  2.6500  3.5226
  214MOL0     H29505   1.740   3.283   9.702  1.7863  2.0803 -0.4857
  214MOL0     H29506   1.809   3.066   9.498 -0.6359 -1.0102  0.2139
  214MOL0     H29507   1.640   3.102   9.546  0.0330  2.0607  0.3576
  214MOL0     H29508   1.683   3.010   9.781 -4.9939 -0.4725 -2.6370
  214MOL0     H29509   1.848   2.980   9.724  0.0592  0.1429 -1.3343
  214MOL0     H29510   1.580   2.872   9.625 -0.0236 -0.7453 -0.3617
  214MOL0     H29511   1.697   2.771   9.714  1.8951  1.4595  1.2917
  214MOL0     H29512   1.819   3.949   9.483  0.4641  0.9918 -0.5750
  214MOL0     H29513   1.722   4.175   9.530  3.4517 -2.8765 -1.4941
  214MOL0     H29514   1.443   4.350   9.912  3.9725 -1.0742 -4.1877
  214MOL0     H29515   1.341   4.553  10.018  1.5619  2.6540  0.0514
  214MOL0     H29516  -0.031   5.814   9.649  0.7998 -0.4658  1.9063
  214MOL0     H29517  -0.033   5.984   9.511 -1.0600 -1.6507  2.9053
  214MOL0     H29518   0.243   6.278   9.217  1.6010 -0.3504  1.7797
  214MOL0     H29519   0.275   6.481   9.100  0.1262 -3.0985  0.3099
  214MOL0     H29520   0.520   6.674   9.200 -0.9468 -0.2776 -1.6976
  214MOL0     H29521   0.481   6.807   9.115  0.0501 -0.9035  0.7660
  214MOL0     H29522   0.471   6.763   9.405 -1.8593 -2.7612 -2.0810
  214MOL0     H29523   0.364   6.891   9.346 -0.3799  0.9361 -1.6480
  214MOL0     H29524   0.674   6.868   9.365 -1.0635 -0.3993  1.6803
  214MOL0     H29525   0.608   6.970   9.231  2.4960 -0.3270  0.2170
  214MOL0     H29526   0.532   7.034   9.523  0.4511 -4.2603  0.0490
  214MOL0     H29527   0.538   7.132   9.378  1.6422  1.1014  0.4040
  214MOL0     H29528   0.951   7.124   9.497 -0.5613 -0.6069 -1.0218
  214MOL0     H29529   0.242   6.714   9.448 -1.0531 -0.7025  2.8938
  214MOL0     H29530   0.037   6.543   9.611 -0.0665  2.3646  2.8095
  214MOL0     H29531   0.174   6.451   9.687 -0.6380 -0.6448  0.8489
  214MOL0     H29532   0.181   6.628   9.645 -1.0298 -0.3678 -2.0048
  215MOL0     O29533   0.034   4.968   2.171  0.0091 -0.6833 -1.0927
  215MOL0     C29534   0.052   4.855   2.216 -0.3221  0.6124 -0.0370
  215MOL0     O29535   0.031   4.825   2.346  0.2690 -0.1079  0.5154
  215MOL0     C29536   0.018   4.920   2.439 -0.2747  0.1306 -0.2927
  215MOL0     C29537   0.096   4.915   2.554 -0.1904 -0.5596  0.0556
  215MOL0     C29538   0.071   4.993   2.668 -0.3270  0.1243 -0.2579
  215MOL0     C29539  -0.028   5.082   2.663 -0.7982 -0.1787 -0.6227
  215MOL0     O29540  -0.065   5.174   2.768 -0.3850  0.3016  0.4894
  215MOL0     C29541  -0.159   5.114   2.849  1.0480  0.0126 -0.2359
  215MOL0     C29542  -0.224   5.232   2.926  0.3528  0.4969 -0.2332
  215MOL0     C29543  -0.315   5.308   2.842 -0.3402  0.2451  0.3972
  215MOL0     C29544  -0.368   5.431   2.911  0.3890  0.6654 -0.5159
  215MOL0     C29545  -0.440   5.522   2.811  0.2167 -0.2835 -0.1570
  215MOL0     C29546  -0.592   5.547   2.843  0.2497  0.1338  0.0803
  215MOL0     C29547  -0.657   5.642   2.741  0.6103 -0.5525  0.1417
  215MOL0     C29548  -0.632   5.798   2.759  0.0432 -0.2672 -0.3493
  215MOL0     N29549  -0.713   5.860   2.658  0.0012 -0.4086  0.2104
  215MOL0     C29550  -0.739   5.995   2.664  0.3258 -0.5638  0.0041
  215MOL0     C29551  -0.813   6.017   2.550 -0.5928 -0.5484 -0.3894
  215MOL0     C29552  -0.868   6.151   2.504 -0.7858  0.1145 -0.2503
  215MOL0     C29553  -1.018   6.147   2.472 -0.5106  0.5334 -0.4729
  215MOL0     C29554  -1.079   6.280   2.429 -0.6711  0.3577  0.2229
  215MOL0     C29555  -1.199   6.323   2.510  0.4005  0.5581  0.3208
  215MOL0     O29556  -1.223   6.464   2.504 -0.1521 -0.2953  0.4850
  215MOL0     C29557  -1.291   6.514   2.395  0.4159  0.3703 -0.3375
  215MOL0     C29558  -1.335   6.650   2.413 -0.4389 -0.1051 -0.4843
  215MOL0     C29559  -1.412   6.722   2.327 -0.6604  0.4091  0.1953
  215MOL0     C29560  -1.455   6.864   2.367  0.0263  0.2511 -0.3666
  215MOL0     C29561  -1.458   6.650   2.211 -0.0341  0.4315 -0.5821
  215MOL0     C29562  -1.559   6.692   2.115  0.2562 -1.0186 -0.2674
  215MOL0     O29563  -1.553   6.818   2.060 -0.5819 -0.8184 -0.4839
  215MOL0     C29564  -1.596   6.815   1.929 -0.2250  0.7332 -0.1599
  215MOL0     C29565  -1.718   6.861   1.904 -0.6045 -0.5010 -0.3711
  215MOL0     C29566  -1.777   6.852   1.777  0.3067 -0.5349 -0.2603
  215MOL0     C29567  -1.709   6.787   1.675  0.3018 -0.5371  0.1660
  215MOL0     O29568  -1.765   6.763   1.555  0.1311 -0.3665  0.8230
  215MOL0     C29569  -1.899   6.791   1.520  0.2720 -0.5359  0.4672
  215MOL0     C29570  -1.922   6.805   1.375  0.1858 -0.7281 -0.2271
  215MOL0     C29571  -1.806   6.880   1.302 -0.2486  0.2948 -0.5607
  215MOL0     C29572  -1.856   6.923   1.171  1.4896  0.2708  0.6909
  215MOL0     C29573  -1.767   6.988   1.080  0.0702  0.3508 -0.1544
  215MOL0     C29574  -1.827   7.010   0.942  0.3697 -0.2716 -0.0849
  215MOL0     C29575  -1.713   7.049   0.851 -0.1016 -0.8849  0.0424
  215MOL0     C29576  -1.753   7.068   0.700  0.9507  0.0295 -0.7550
  215MOL0    Cl29577  -1.660   7.192   0.618 -0.3183  0.4599 -0.3622
  215MOL0     C29578  -1.579   6.725   1.703  0.1897  0.4644  0.0309
  215MOL0     C29579  -1.518   6.746   1.830 -0.1590 -1.0276  0.3326
  215MOL0     O29580  -1.641   6.606   2.082  0.4206  0.0709  0.1851
  215MOL0     C29581  -1.413   6.517   2.187 -0.1598  0.4768 -1.4633
  215MOL0     C29582  -1.328   6.452   2.277  0.1370 -0.6926 -0.2326
  215MOL0     N29583  -0.825   5.899   2.484  1.1277 -0.3710  0.5896
  215MOL0     N29584  -0.766   5.801   2.549  0.4754  0.6364 -0.4032
  215MOL0     C29585  -0.099   5.094   2.545  0.7503 -0.1013  0.0581
  215MOL0     C29586  -0.082   5.011   2.436 -0.5465 -0.0563 -1.0973
  215MOL0     C29587   0.113   4.742   2.135  0.4254 -0.1987 -0.1653
  215MOL0     C29588   0.202   4.649   2.197 -0.3952 -0.0442  0.6081
  215MOL0     C29589   0.285   4.563   2.119  0.2307  0.6761  0.0014
  215MOL0     C29590   0.271   4.555   1.977  0.8995 -1.2195 -0.2030
  215MOL0     O29591   0.370   4.486   1.904 -0.6462 -0.4860 -0.2886
  215MOL0     C29592   0.425   4.579   1.797 -0.4280  1.0724  0.2079
  215MOL0     C29593   0.467   4.722   1.846  0.2732  0.9949 -0.3779
  215MOL0     C29594   0.564   4.699   1.962  0.0896 -0.2545  0.9971
  215MOL0     C29595   0.571   4.842   2.017 -1.2345 -0.4420  0.3624
  215MOL0     C29596   0.471   4.871   2.124  0.4695  0.2557  0.4488
  215MOL0     C29597   0.398   4.914   2.210  0.1819 -0.7342 -0.4812
  215MOL0     C29598   0.164   4.631   1.919 -0.7100  0.8326 -0.5573
  215MOL0     C29599   0.092   4.730   1.996 -0.4076 -0.0772  0.2577
  215MOL0     C29600  -0.008   4.800   1.919 -0.3179 -0.1712  0.0884
  215MOL0     H29601   0.171   4.836   2.553  1.8599  1.2645 -1.6536
  215MOL0     H29602   0.141   4.985   2.751  1.1931 -1.9765 -1.6366
  215MOL0     H29603  -0.110   5.044   2.918 -1.4659 -2.5851 -0.8834
  215MOL0     H29604  -0.233   5.054   2.795  0.2325  0.4949  0.3227
  215MOL0     H29605  -0.276   5.209   3.019  0.1982 -0.7367 -0.6075
  215MOL0     H29606  -0.140   5.291   2.966 -0.5867 -0.8982  4.3092
  215MOL0     H29607  -0.274   5.325   2.742 -1.7288 -3.3298 -0.9443
  215MOL0     H29608  -0.407   5.252   2.822 -0.2944  0.9523 -2.1357
  215MOL0     H29609  -0.435   5.396   2.989 -0.1449  0.7397 -0.9358
  215MOL0     H29610  -0.289   5.481   2.968 -1.7175  1.8959  1.5234
  215MOL0     H29611  -0.431   5.481   2.710 -0.0079 -0.7067 -0.0092
  215MOL0     H29612  -0.398   5.623   2.815 -0.5874  0.0264  0.9639
  215MOL0     H29613  -0.655   5.458   2.841  1.4539 -0.7275 -1.6409
  215MOL0     H29614  -0.598   5.588   2.944  1.3196  1.4797 -0.3628
  215MOL0     H29615  -0.766   5.629   2.747  0.7657 -1.3593  2.1603
  215MOL0     H29616  -0.619   5.616   2.641 -0.4516 -3.2609  0.3375
  215MOL0     H29617  -0.647   5.833   2.862 -1.2272 -3.9594  0.8936
  215MOL0     H29618  -0.529   5.829   2.741 -0.0916  0.1444 -0.4168
  215MOL0     H29619  -0.721   6.079   2.730 -3.4998  1.6523 -1.4400
  215MOL0     H29620  -0.804   6.183   2.421 -1.5178  2.0109 -0.1265
  215MOL0     H29621  -0.863   6.221   2.588 -0.8605 -0.1384 -0.0340
  215MOL0     H29622  -1.022   6.082   2.384  2.6865  1.8242 -1.7654
  215MOL0     H29623  -1.079   6.102   2.550 -0.8204  1.3140 -0.2551
  215MOL0     H29624  -1.002   6.357   2.442 -1.0117  0.5671  1.0449
  215MOL0     H29625  -1.107   6.280   2.324 -1.8295  0.6143  0.5209
  215MOL0     H29626  -1.283   6.263   2.474 -0.2112  2.0178 -0.7661
  215MOL0     H29627  -1.170   6.302   2.613  2.9939  1.0179 -0.2375
  215MOL0     H29628  -1.310   6.704   2.504  1.4974  0.4174 -1.2685
  215MOL0     H29629  -1.463   6.885   2.474  1.2671 -1.5130  0.1081
  215MOL0     H29630  -1.559   6.876   2.335 -0.4760 -3.1909 -0.3709
  215MOL0     H29631  -1.387   6.935   2.319  3.2406  0.5096  3.8837
  215MOL0     H29632  -1.769   6.907   1.988  1.1053  0.6314  0.1005
  215MOL0     H29633  -1.880   6.882   1.764  0.4151  0.4878  1.0906
  215MOL0     H29634  -1.953   6.697   1.536 -2.0887  0.6247 -0.2024
  215MOL0     H29635  -1.940   6.881   1.567 -0.3389  0.6728 -2.1798
  215MOL0     H29636  -1.916   6.705   1.331 -1.8167 -0.0142 -2.2911
  215MOL0     H29637  -2.019   6.849   1.350  1.7106  1.1550 -3.3127
  215MOL0     H29638  -1.726   6.806   1.294  1.4513  1.5091  2.8596
  215MOL0     H29639  -1.762   6.964   1.357  0.7322  1.8039 -3.4636
  215MOL0     H29640  -1.942   6.989   1.181  0.4823 -0.2018 -3.0914
  215MOL0     H29641  -1.885   6.831   1.118  2.4493  0.7442 -0.7225
  215MOL0     H29642  -1.739   7.089   1.110  0.7593  1.2868 -3.5255
  215MOL0     H29643  -1.675   6.930   1.068 -0.3847 -0.6378  0.9443
  215MOL0     H29644  -1.904   7.087   0.938 -0.2058 -0.9096 -2.3854
  215MOL0     H29645  -1.872   6.914   0.914 -0.1886 -0.0321 -0.0163
  215MOL0     H29646  -1.636   6.973   0.868  0.7123  0.1012  0.8792
  215MOL0     H29647  -1.679   7.146   0.885  0.5195 -1.0124 -0.2090
  215MOL0     H29648  -1.858   7.097   0.703 -0.5161 -4.5338 -1.3317
  215MOL0     H29649  -1.749   6.970   0.653  0.8684 -1.0952  1.4254
  215MOL0     H29650  -1.535   6.673   1.618 -1.9820 -1.4259 -0.0270
  215MOL0     H29651  -1.424   6.698   1.856  2.4003  1.8850 -2.5830
  215MOL0     H29652  -1.449   6.455   2.106 -3.0670  2.2001 -1.6304
  215MOL0     H29653  -1.309   6.347   2.260 -2.0267 -1.5808  2.2305
  215MOL0     H29654  -0.186   5.158   2.546 -2.3188 -3.8636  0.8496
  215MOL0     H29655  -0.150   5.019   2.352 -1.6376 -0.9440 -0.3123
  215MOL0     H29656   0.200   4.647   2.306 -3.5410 -2.2982  0.6217
  215MOL0     H29657   0.364   4.507   2.168 -0.5276  0.4782  1.0463
  215MOL0     H29658   0.507   4.531   1.743 -0.8432 -1.1869  1.4838
  215MOL0     H29659   0.340   4.596   1.730  0.4254  4.0132 -0.2704
  215MOL0     H29660   0.383   4.787   1.873 -1.0110 -0.0718 -1.6929
  215MOL0     H29661   0.519   4.773   1.765  3.0219  1.8942  1.8081
  215MOL0     H29662   0.522   4.632   2.038 -1.9936 -2.3537 -1.7610
  215MOL0     H29663   0.657   4.662   1.919  2.0584  5.3121 -0.4340
  215MOL0     H29664   0.595   4.920   1.944 -1.4192  0.2031  0.9835
  215MOL0     H29665   0.661   4.833   2.078 -1.2012 -2.5617  0.0649
  215MOL0     H29666   0.340   4.951   2.292  1.4524 -1.5646  0.8360
  215MOL0     H29667   0.143   4.620   1.813 -1.9914  2.4017 -0.4985
  215MOL0     H29668  -0.099   4.820   1.977 -1.7052 -0.3027 -1.9490
  215MOL0     H29669   0.040   4.890   1.880  1.6168 -1.7259 -1.3500
  215MOL0     H29670  -0.037   4.738   1.834 -2.4544 -0.7303  1.1638
  216MOL0     O29671   6.789   1.270  11.197  0.5588  0.3001  1.1429
  216MOL0     C29672   6.734   1.376  11.160  0.8670 -0.3821  0.1033
  216MOL0     O29673   6.653   1.444  11.238 -0.4290  0.0300  0.6413
  216MOL0     C29674   6.587   1.391  11.348  1.1800 -0.0132 -0.4234
  216MOL0     C29675   6.654   1.331  11.454 -0.1752 -0.9883 -0.6431
  216MOL0     C29676   6.581   1.283  11.558  0.6506  0.2750  0.0496
  216MOL0     C29677   6.436   1.293  11.570 -1.2456 -0.5818  0.2037
  216MOL0     O29678   6.358   1.262  11.671 -0.2123  0.2078 -0.1875
  216MOL0     C29679   6.407   1.158  11.765 -0.0411  0.4043 -0.8790
  216MOL0     C29680   6.336   1.164  11.904 -0.1455 -0.7672 -0.8263
  216MOL0     C29681   6.365   1.034  11.972 -0.6757 -0.5290 -0.9459
  216MOL0     C29682   6.316   1.042  12.122 -0.1621 -0.7004  0.3677
  216MOL0     C29683   6.344   0.911  12.203  0.0300  0.1345 -0.6623
  216MOL0     C29684   6.328   0.956  12.350  0.7040  0.7851 -0.1849
  216MOL0     C29685   6.394   0.858  12.447 -0.1339  0.3008 -0.2018
  216MOL0     C29686   6.367   0.880  12.590 -0.0064 -0.3038 -1.0118
  216MOL0     N29687   6.456   0.987  12.627 -0.3892 -0.0468 -0.8243
  216MOL0     C29688   6.436   1.121  12.608 -0.1916  1.1833 -0.6550
  216MOL0     C29689   6.537   1.179  12.674 -0.0938 -0.5193  0.6546
  216MOL0     C29690   6.573   1.332  12.695  0.1583  0.0887  0.2941
  216MOL0     C29691   6.549   1.366  12.840  0.7774  0.3534 -0.9055
  216MOL0     C29692   6.402   1.358  12.906 -0.3475  0.7645  0.2726
  216MOL0     C29693   6.307   1.473  12.859  0.3923 -0.0440  0.2050
  216MOL0     O29694   6.164   1.453  12.894 -0.5679 -0.1500 -0.2485
  216MOL0     C29695   6.121   1.507  13.018 -0.2581  0.2667 -0.1565
  216MOL0     C29696   6.186   1.522  13.144  0.3758 -0.6930 -0.0827
  216MOL0     C29697   6.115   1.583  13.254 -1.0708 -1.5240 -0.1947
  216MOL0     C29698   6.188   1.619  13.382  0.1887 -0.9008 -0.1680
  216MOL0     C29699   5.981   1.623  13.246  0.4111 -0.3496  0.3591
  216MOL0     C29700   5.904   1.682  13.360 -0.4094  0.3880  0.0101
  216MOL0     O29701   5.946   1.684  13.491 -0.4241  0.1066 -0.2504
  216MOL0     C29702   5.850   1.696  13.592 -0.0086  0.6050  0.8460
  216MOL0     C29703   5.868   1.795  13.685  1.6490  0.2130  0.2453
  216MOL0     C29704   5.780   1.823  13.783  0.5417  0.3458 -0.8304
  216MOL0     C29705   5.665   1.749  13.800  0.4399 -0.2599  0.9322
  216MOL0     O29706   5.563   1.770  13.893 -0.2701 -0.1255  0.8762
  216MOL0     C29707   5.596   1.856  14.009  0.1192 -0.0738  0.6704
  216MOL0     C29708   5.471   1.914  14.056 -0.3143 -0.7826  0.7291
  216MOL0     C29709   5.504   2.013  14.169 -0.0044 -0.2239  1.6575
  216MOL0     C29710   5.382   2.095  14.204 -0.7730  1.2150  0.2097
  216MOL0     C29711   5.408   2.220  14.280 -0.7238 -0.4364  0.3608
  216MOL0     C29712   5.279   2.279  14.341  0.1338  0.0222  0.4809
  216MOL0     C29713   5.286   2.419  14.383  0.1778 -0.9935  0.3322
  216MOL0     C29714   5.164   2.470  14.455 -0.0450  0.5322 -0.0324
  216MOL0    Cl29715   5.129   2.370  14.600 -0.2114  0.2754  0.2169
  216MOL0     C29716   5.644   1.645  13.713  0.1512 -0.5431  0.3786
  216MOL0     C29717   5.733   1.614  13.608 -0.3418 -0.2727  0.2540
  216MOL0     O29718   5.800   1.731  13.317 -0.0493  0.1908 -0.2024
  216MOL0     C29719   5.917   1.588  13.126  0.5482 -0.0984  0.4576
  216MOL0     C29720   5.989   1.530  13.021  0.5757  0.0743 -0.6259
  216MOL0     N29721   6.618   1.083  12.729 -0.3284  1.0796 -0.8944
  216MOL0     N29722   6.567   0.969  12.708  0.3560 -0.1425 -0.3192
  216MOL0     C29723   6.379   1.373  11.475  0.1937 -0.4517 -0.0942
  216MOL0     C29724   6.448   1.427  11.366  0.4911  0.5945  0.1291
  216MOL0     C29725   6.760   1.415  11.025 -1.0229  1.3372  0.0012
  216MOL0     C29726   6.894   1.423  10.977  0.1222  0.2877 -0.5274
  216MOL0     C29727   6.921   1.489  10.857  0.3478  0.0679 -0.8769
  216MOL0     C29728   6.822   1.510  10.762  0.2610  1.0024 -0.4085
  216MOL0     O29729   6.853   1.553  10.637  0.0272  0.6183  0.7328
  216MOL0     C29730   6.921   1.674  10.637 -0.2839 -0.1751  0.5329
  216MOL0     C29731   6.854   1.787  10.561  0.2340  0.9295 -0.5374
  216MOL0     C29732   6.797   1.741  10.426  0.5714  0.0256  0.1632
  216MOL0     C29733   6.900   1.726  10.322  0.8013  0.5296 -0.6957
  216MOL0     C29734   6.841   1.694  10.192 -0.0080  0.2443 -0.3599
  216MOL0     C29735   6.759   1.683  10.097  0.0181  0.5318 -0.2090
  216MOL0     C29736   6.690   1.483  10.797 -0.6690 -0.6415 -0.0467
  216MOL0     C29737   6.659   1.438  10.923  0.2855 -0.2223 -0.2248
  216MOL0     C29738   6.513   1.432  10.959 -0.1808 -0.1915 -0.6138
  216MOL0     H29739   6.762   1.319  11.454 -0.2467 -3.0768  2.9499
  216MOL0     H29740   6.647   1.241  11.633  0.7331  2.6409  1.4185
  216MOL0     H29741   6.516   1.165  11.769 -0.1380  2.3757 -0.5443
  216MOL0     H29742   6.382   1.058  11.729  0.0979 -1.2611  3.0782
  216MOL0     H29743   6.372   1.250  11.961 -1.7603 -0.7842  0.3001
  216MOL0     H29744   6.227   1.172  11.899 -0.1085 -0.5134 -1.3496
  216MOL0     H29745   6.315   0.955  11.916 -0.4960 -2.9285  1.9771
  216MOL0     H29746   6.474   1.022  11.975 -0.6393 -0.1514 -0.7558
  216MOL0     H29747   6.360   1.130  12.170 -0.2635 -1.9628  2.9221
  216MOL0     H29748   6.208   1.056  12.110  0.1988  0.2144 -2.6955
  216MOL0     H29749   6.443   0.866  12.192  0.5626  1.1250 -0.0755
  216MOL0     H29750   6.277   0.829  12.176 -0.1705 -0.2390  0.8483
  216MOL0     H29751   6.355   1.062  12.359  0.6697  0.6807  1.6250
  216MOL0     H29752   6.223   0.946  12.377  0.5648 -2.7067 -1.5381
  216MOL0     H29753   6.497   0.844  12.414 -0.5085 -0.2194 -1.2089
  216MOL0     H29754   6.339   0.765  12.429 -0.2577  0.5045 -0.9219
  216MOL0     H29755   6.264   0.898  12.622  0.9686  0.8076  1.8016
  216MOL0     H29756   6.409   0.795  12.645 -1.6053 -0.6791 -0.3072
  216MOL0     H29757   6.353   1.160  12.549 -1.9939 -1.9530 -0.3786
  216MOL0     H29758   6.523   1.395  12.621  0.3676 -1.1221 -0.9252
  216MOL0     H29759   6.676   1.359  12.667  0.7610 -2.0966  0.1795
  216MOL0     H29760   6.614   1.301  12.900 -2.8333 -1.9239  0.9407
  216MOL0     H29761   6.586   1.468  12.853  1.8264 -0.2426  1.3211
  216MOL0     H29762   6.351   1.265  12.879 -0.9023  0.3128  2.6422
  216MOL0     H29763   6.411   1.356  13.015 -0.0711 -2.5980  0.2808
  216MOL0     H29764   6.337   1.562  12.914  0.7175  1.2198 -1.9214
  216MOL0     H29765   6.322   1.488  12.752  0.6494 -0.1715  0.2231
  216MOL0     H29766   6.289   1.495  13.165 -0.1002 -3.7195 -1.1698
  216MOL0     H29767   6.184   1.542  13.460 -2.4729 -0.6350  0.0451
  216MOL0     H29768   6.157   1.717  13.419  0.9799 -0.8166  0.2891
  216MOL0     H29769   6.293   1.634  13.355 -0.1384 -1.5494 -1.9702
  216MOL0     H29770   5.958   1.855  13.673  1.7768  0.1381  0.8117
  216MOL0     H29771   5.814   1.893  13.858  5.3619 -2.0225 -0.4139
  216MOL0     H29772   5.641   1.798  14.090 -0.3191 -0.4447  0.6472
  216MOL0     H29773   5.671   1.934  13.991 -1.2969  1.0521 -0.5905
  216MOL0     H29774   5.420   1.968  13.976  0.5523 -1.0111  0.0105
  216MOL0     H29775   5.408   1.829  14.085 -1.4240 -0.8769 -1.7458
  216MOL0     H29776   5.582   2.081  14.135 -1.6417 -0.2176 -2.7058
  216MOL0     H29777   5.554   1.966  14.254  2.8583  0.8845  0.7252
  216MOL0     H29778   5.317   2.029  14.262 -3.1844  0.9525 -2.5433
  216MOL0     H29779   5.329   2.111  14.110  1.7720 -3.9011 -2.5494
  216MOL0     H29780   5.483   2.212  14.358 -0.8235  2.2556  0.8244
  216MOL0     H29781   5.449   2.285  14.202 -3.1063  2.7166  1.5127
  216MOL0     H29782   5.243   2.211  14.420 -1.4820 -1.0159 -1.0636
  216MOL0     H29783   5.191   2.272  14.276  1.4753 -0.8141 -1.3181
  216MOL0     H29784   5.304   2.477  14.292 -0.0395 -1.0584  0.2486
  216MOL0     H29785   5.370   2.431  14.452  0.3167 -0.3864  0.0654
  216MOL0     H29786   5.071   2.469  14.398 -1.5399 -4.3203  1.9315
  216MOL0     H29787   5.191   2.566  14.499 -1.5480  1.9405 -2.0461
  216MOL0     H29788   5.573   1.569  13.745  0.8727 -2.0460 -1.3839
  216MOL0     H29789   5.696   1.536  13.541  1.3078  1.6793 -3.2284
  216MOL0     H29790   5.812   1.594  13.101  1.3632 -1.6691 -4.3871
  216MOL0     H29791   5.935   1.499  12.932 -1.4351  1.8614 -0.1436
  216MOL0     H29792   6.273   1.380  11.494 -0.0649 -2.5985 -0.5009
  216MOL0     H29793   6.415   1.495  11.287 -2.3036 -0.2268  0.4905
  216MOL0     H29794   6.985   1.396  11.030  0.8017 -0.6434 -2.0738
  216MOL0     H29795   7.025   1.510  10.835  0.8393 -2.9992 -1.9054
  216MOL0     H29796   6.953   1.724  10.729 -1.0684 -0.1945  0.8229
  216MOL0     H29797   7.022   1.659  10.597 -1.7472 -2.1351 -2.8501
  216MOL0     H29798   6.918   1.875  10.554 -3.0481  3.6042  0.4327
  216MOL0     H29799   6.778   1.825  10.629 -0.6162  0.5787 -1.2703
  216MOL0     H29800   6.747   1.645  10.447  1.2197 -1.4894 -4.1559
  216MOL0     H29801   6.725   1.812  10.385  3.6257  3.6473  0.5914
  216MOL0     H29802   6.963   1.646  10.362 -1.2726  0.0834  2.0268
  216MOL0     H29803   6.960   1.817  10.318  1.2938  0.1962 -1.0492
  216MOL0     H29804   6.714   1.665  10.001 -1.2067 -1.2120  0.6631
  216MOL0     H29805   6.608   1.494  10.726  0.0942 -0.8018 -0.9721
  216MOL0     H29806   6.487   1.508  11.032 -1.3205 -4.0762  3.4889
  216MOL0     H29807   6.452   1.436  10.868  1.3253  2.0442 -1.6171
  216MOL0     H29808   6.497   1.333  11.003  0.2763  0.2124  0.4851
  217MOL0     O29809   0.255   3.871   9.363 -0.2528  0.3703 -0.1456
  217MOL0     C29810   0.223   3.769   9.424  0.4986 -0.4590  0.4359
  217MOL0     O29811   0.303   3.680   9.481  0.0740 -0.4218  0.0249
  217MOL0     C29812   0.435   3.701   9.469  0.1397  0.0867  0.8618
  217MOL0     C29813   0.507   3.692   9.347  0.5000  0.7402 -0.5135
  217MOL0     C29814   0.645   3.722   9.342  0.6218  0.1166  0.1876
  217MOL0     C29815   0.722   3.748   9.456 -0.9151 -0.1274  0.2635
  217MOL0     O29816   0.855   3.773   9.429 -0.2296 -0.3092 -0.4412
  217MOL0     C29817   0.931   3.813   9.544  0.0360 -0.2099  0.3207
  217MOL0     C29818   0.909   3.956   9.579 -0.7349  0.0072 -0.6722
  217MOL0     C29819   0.937   4.053   9.462 -0.8358  0.3424 -0.0708
  217MOL0     C29820   0.989   4.196   9.510 -0.2237 -0.8670 -0.1038
  217MOL0     C29821   0.899   4.260   9.607 -0.3556 -0.2778 -0.5913
  217MOL0     C29822   0.946   4.407   9.642 -0.8562 -0.0844 -1.0883
  217MOL0     C29823   0.933   4.512   9.525  0.4173 -0.0694 -0.0571
  217MOL0     C29824   0.800   4.532   9.465 -0.7475 -0.1269 -0.6129
  217MOL0     N29825   0.687   4.563   9.552 -0.8690 -0.5492  0.5534
  217MOL0     C29826   0.624   4.473   9.630 -0.1012 -0.6118 -0.1935
  217MOL0     C29827   0.517   4.539   9.688 -0.6509  1.1609  0.6703
  217MOL0     C29828   0.402   4.487   9.774  0.0727 -0.1356 -0.0877
  217MOL0     C29829   0.435   4.462   9.920 -0.0626 -0.9441  0.4129
  217MOL0     C29830   0.332   4.502  10.019 -0.3207  0.7602 -0.2062
  217MOL0     C29831   0.416   4.491  10.152 -0.1224  1.3154  0.1320
  217MOL0     O29832   0.382   4.358  10.202  0.0841  0.4216  0.4457
  217MOL0     C29833   0.458   4.314  10.314 -0.4520 -0.1122 -0.3779
  217MOL0     C29834   0.399   4.213  10.391 -0.9103  0.0238  0.7060
  217MOL0     C29835   0.461   4.161  10.495  1.2239 -0.3343  0.4313
  217MOL0     C29836   0.379   4.041  10.558 -0.2253 -0.5331 -0.3211
  217MOL0     C29837   0.574   4.217  10.551  0.7159  0.8823 -0.2307
  217MOL0     C29838   0.654   4.161  10.671 -0.0661 -0.4662 -0.1387
  217MOL0     O29839   0.757   4.245  10.718  0.2964 -0.0945  0.0302
  217MOL0     C29840   0.781   4.234  10.846  1.1000  0.0173 -0.2265
  217MOL0     C29841   0.709   4.318  10.943 -0.2914  0.4804  0.2602
  217MOL0     C29842   0.747   4.337  11.075 -0.8575  0.0956  0.1770
  217MOL0     C29843   0.861   4.263  11.118  1.1729  0.0345 -0.2160
  217MOL0     O29844   0.916   4.288  11.236  0.5965 -0.2131 -0.5829
  217MOL0     C29845   0.856   4.227  11.351  0.9295  0.3274  0.2051
  217MOL0     C29846   0.870   4.300  11.488 -0.6633  0.7530  0.5285
  217MOL0     C29847   1.015   4.290  11.536  0.2000 -0.7774 -0.0191
  217MOL0     C29848   1.097   4.418  11.496 -1.3732  0.7158 -0.5729
  217MOL0     C29849   1.256   4.405  11.525  0.5607  0.1308  0.3172
  217MOL0     C29850   1.295   4.372  11.673  0.9646  0.7864  0.4473
  217MOL0     C29851   1.223   4.453  11.786  0.6370 -0.1574 -0.2938
  217MOL0     C29852   1.305   4.480  11.906  0.4111 -0.4876 -0.5815
  217MOL0    Cl29853   1.331   4.333  11.991 -0.1117  0.7473 -0.0847
  217MOL0     C29854   0.920   4.171  11.032 -0.3872 -0.0558 -0.8507
  217MOL0     C29855   0.884   4.164  10.895 -0.0553 -0.1493  0.0499
  217MOL0     O29856   0.611   4.066  10.730  0.7133  0.2090  0.3284
  217MOL0     C29857   0.630   4.330  10.488 -0.8506 -0.2022  0.3486
  217MOL0     C29858   0.567   4.382  10.370  0.2484  0.3977 -0.1921
  217MOL0     N29859   0.514   4.669   9.634  1.0425 -0.0690  0.7610
  217MOL0     N29860   0.616   4.679   9.548  1.1276 -0.2282 -0.3921
  217MOL0     C29861   0.650   3.749   9.574  0.3307  0.7143 -0.2065
  217MOL0     C29862   0.507   3.727   9.578 -0.8105 -1.0316 -0.6285
  217MOL0     C29863   0.080   3.731   9.444 -0.1802 -0.9654  0.5619
  217MOL0     C29864   0.048   3.648   9.552  0.2169 -0.7370 -0.1886
  217MOL0     C29865  -0.082   3.607   9.575  0.0094 -0.3366 -0.4836
  217MOL0     C29866  -0.186   3.645   9.492 -0.8563  0.5026 -0.5656
  217MOL0     O29867  -0.317   3.588   9.501 -0.1427  0.3418 -0.6096
  217MOL0     C29868  -0.349   3.476   9.593 -0.1075 -0.3854  0.1761
  217MOL0     C29869  -0.365   3.485   9.743  1.4201  0.8566  0.2991
  217MOL0     C29870  -0.459   3.601   9.804  0.4977  1.1021 -0.3685
  217MOL0     C29871  -0.561   3.671   9.713  0.4180 -0.0053  1.3439
  217MOL0     C29872  -0.642   3.756   9.803 -0.0491  0.0188 -0.0249
  217MOL0     C29873  -0.698   3.822   9.884 -0.3657 -0.7170 -0.9190
  217MOL0     C29874  -0.157   3.744   9.391 -0.0428  0.9939 -0.1772
  217MOL0     C29875  -0.029   3.788   9.364  0.0500 -0.4452 -0.3168
  217MOL0     C29876  -0.011   3.874   9.247  0.6108 -0.7873  0.1378
  217MOL0     H29877   0.460   3.660   9.255 -0.7591 -2.8849  1.2049
  217MOL0     H29878   0.696   3.698   9.249 -1.7614 -0.8126 -0.9609
  217MOL0     H29879   1.039   3.806   9.534  0.1693  0.0838  1.4380
  217MOL0     H29880   0.911   3.758   9.636  1.1278 -1.3253 -0.0817
  217MOL0     H29881   0.811   3.973   9.623  0.4399 -0.3216  2.2815
  217MOL0     H29882   0.980   3.972   9.660 -1.2110  3.3366 -0.7969
  217MOL0     H29883   1.020   4.024   9.398 -1.1334  1.0026 -0.7820
  217MOL0     H29884   0.847   4.056   9.399 -3.0257 -2.6446  2.5535
  217MOL0     H29885   1.082   4.189   9.568  0.1066 -1.2385 -0.6760
  217MOL0     H29886   1.010   4.258   9.423  0.9573  0.6234  1.1817
  217MOL0     H29887   0.886   4.208   9.702  1.3307  0.0717 -0.1279
  217MOL0     H29888   0.795   4.252   9.575 -0.7342  2.8016 -0.5062
  217MOL0     H29889   0.883   4.456   9.717  0.0168 -1.9564  0.9857
  217MOL0     H29890   1.047   4.403   9.683 -0.6002 -2.3984 -1.7896
  217MOL0     H29891   0.994   4.476   9.442 -0.6186 -4.5029  0.8534
  217MOL0     H29892   0.979   4.607   9.555  4.3739 -1.5755 -0.6385
  217MOL0     H29893   0.804   4.619   9.398 -0.6103  1.5868  1.5244
  217MOL0     H29894   0.763   4.441   9.418 -0.5504 -1.5781  1.8910
  217MOL0     H29895   0.639   4.365   9.634 -0.5726 -0.7688 -1.9157
  217MOL0     H29896   0.356   4.397   9.732 -2.7624  0.2464  1.8786
  217MOL0     H29897   0.320   4.559   9.784  0.0848 -0.2936  1.5555
  217MOL0     H29898   0.457   4.355   9.931 -2.6600 -1.5221  0.6849
  217MOL0     H29899   0.511   4.539   9.931 -1.6233  0.8726 -0.7802
  217MOL0     H29900   0.296   4.603  10.002  1.1509  1.5750  1.2164
  217MOL0     H29901   0.256   4.423  10.021  0.5950 -0.1426  0.7572
  217MOL0     H29902   0.524   4.490  10.136 -0.5561 -0.6294 -4.2720
  217MOL0     H29903   0.392   4.563  10.231  2.6219  1.7566  0.6711
  217MOL0     H29904   0.303   4.169  10.365  0.5150 -2.8280 -0.1493
  217MOL0     H29905   0.439   3.950  10.551 -1.7525 -1.4360 -4.2188
  217MOL0     H29906   0.285   4.024  10.506 -2.2852  0.9123  2.6401
  217MOL0     H29907   0.356   4.055  10.664 -1.0808 -1.5376 -0.3648
  217MOL0     H29908   0.626   4.383  10.917 -1.4051 -1.0927 -0.2580
  217MOL0     H29909   0.692   4.396  11.147 -0.8704  0.0302  0.2217
  217MOL0     H29910   0.748   4.224  11.334  0.7906  1.9643  0.6478
  217MOL0     H29911   0.909   4.131  11.357  2.7537  1.3856  2.8225
  217MOL0     H29912   0.829   4.401  11.483  0.1695  1.0530 -1.7488
  217MOL0     H29913   0.800   4.247  11.553 -0.2897 -2.7187 -1.6044
  217MOL0     H29914   1.074   4.201  11.513  2.8878  0.6993  0.7417
  217MOL0     H29915   0.999   4.298  11.644  0.1614  3.6857 -0.2004
  217MOL0     H29916   1.061   4.499  11.560 -3.3758  0.8047 -1.7076
  217MOL0     H29917   1.078   4.450  11.393 -0.7344  0.3062 -0.8244
  217MOL0     H29918   1.301   4.331  11.458  0.6062  2.1756 -2.0212
  217MOL0     H29919   1.304   4.499  11.497 -1.0147  1.3672  1.5724
  217MOL0     H29920   1.403   4.382  11.686  1.1006 -2.8636  4.0370
  217MOL0     H29921   1.277   4.265  11.686  0.3966  1.0496  2.1221
  217MOL0     H29922   1.128   4.405  11.811 -1.0503  2.9514 -0.2468
  217MOL0     H29923   1.188   4.545  11.740 -2.2266 -0.8680  0.2615
  217MOL0     H29924   1.250   4.549  11.971  5.0306  0.6710  2.5994
  217MOL0     H29925   1.397   4.536  11.889  0.1887  0.3065  0.6596
  217MOL0     H29926   1.013   4.121  11.056  0.4729  0.7203 -2.4062
  217MOL0     H29927   0.940   4.096  10.833  0.7653 -0.6561  1.3014
  217MOL0     H29928   0.721   4.377  10.523 -1.8559  1.5259  0.7286
  217MOL0     H29929   0.604   4.474  10.324 -1.1163  1.0445 -0.0653
  217MOL0     H29930   0.702   3.781   9.664 -0.7853  1.2777  0.2578
  217MOL0     H29931   0.452   3.737   9.671  3.3621 -2.5486  2.2849
  217MOL0     H29932   0.121   3.630   9.630 -0.4651 -0.8051  0.4392
  217MOL0     H29933  -0.097   3.560   9.672 -0.5402 -0.1774 -0.4898
  217MOL0     H29934  -0.451   3.444   9.570 -0.0334 -1.0801  0.7792
  217MOL0     H29935  -0.288   3.391   9.561  0.7662  0.5205 -0.6387
  217MOL0     H29936  -0.265   3.484   9.787  0.8906  1.5358  1.5847
  217MOL0     H29937  -0.411   3.391   9.775 -2.4005  1.4535 -2.7683
  217MOL0     H29938  -0.504   3.560   9.895  1.5171  1.2013  0.1871
  217MOL0     H29939  -0.390   3.679   9.838 -0.1863  1.6534 -0.2230
  217MOL0     H29940  -0.619   3.589   9.669 -0.1768  0.7416  0.7106
  217MOL0     H29941  -0.514   3.732   9.636 -1.2737  2.3845  2.1076
  217MOL0     H29942  -0.749   3.890   9.950  2.9613  3.3585 -2.0681
  217MOL0     H29943  -0.243   3.758   9.327 -1.7896 -0.1964  1.7764
  217MOL0     H29944   0.039   3.970   9.264 -0.8889  0.0802 -0.2221
  217MOL0     H29945   0.044   3.815   9.173  0.4684  0.0064 -0.6181
  217MOL0     H29946  -0.104   3.906   9.200  1.8605 -0.6249 -2.4189
  218MOL0     O29947   7.628   1.572   6.311  0.3417  0.3856  0.1857
  218MOL0     C29948   7.639   1.527   6.199 -0.2849 -0.2277  0.1781
  218MOL0     O29949   7.570   1.422   6.148 -0.4632  0.4269 -0.3456
  218MOL0     C29950   7.491   1.333   6.221 -0.3598 -0.2182 -0.5787
  218MOL0     C29951   7.514   1.192   6.201 -0.7151 -0.6784 -0.7617
  218MOL0     C29952   7.424   1.099   6.260  0.5373  0.1041 -0.7130
  218MOL0     C29953   7.311   1.150   6.329 -0.0900 -0.3051 -0.9304
  218MOL0     O29954   7.224   1.069   6.404  0.6581  0.1043  0.4700
  218MOL0     C29955   7.213   0.931   6.389  0.9426 -0.5870 -0.3613
  218MOL0     C29956   7.307   0.865   6.489 -0.7472 -0.1247 -0.1220
  218MOL0     C29957   7.323   0.721   6.446 -1.3647  0.2775 -0.0908
  218MOL0     C29958   7.434   0.637   6.527 -0.3469  0.3391  0.0308
  218MOL0     C29959   7.478   0.513   6.451  0.1901  0.0207 -0.2960
  218MOL0     C29960   7.362   0.413   6.430 -0.3981  0.2721 -0.4259
  218MOL0     C29961   7.401   0.265   6.408 -0.1736  0.6289  0.3962
  218MOL0     C29962   7.269   0.188   6.383 -0.2071 -0.3946  0.1536
  218MOL0     N29963   7.273   0.048   6.360 -0.7899  0.3204 -0.2262
  218MOL0     C29964   7.328  -0.046   6.451  0.4211 -0.0263  0.1016
  218MOL0     C29965   7.319  -0.176   6.396 -0.1039  1.2203 -0.4688
  218MOL0     C29966   7.365  -0.305   6.458  0.3390 -0.4180  0.0069
  218MOL0     C29967   7.510  -0.320   6.487  0.6006  0.5759  0.0489
  218MOL0     C29968   7.606  -0.309   6.367  0.0238 -0.5068 -0.2146
  218MOL0     C29969   7.615  -0.175   6.299  0.5767 -0.8203 -0.3659
  218MOL0     O29970   7.642  -0.073   6.396  0.1593  0.0624  0.0600
  218MOL0     C29971   7.688   0.046   6.360  0.7424 -0.4526 -0.3394
  218MOL0     C29972   7.763   0.121   6.447 -0.0078  1.0400 -0.1467
  218MOL0     C29973   7.811   0.249   6.414 -0.6160  0.6395  0.0931
  218MOL0     C29974   7.909   0.308   6.520  0.6133  0.9924  0.3967
  218MOL0     C29975   7.779   0.307   6.294  0.5461  0.6269  0.4104
  218MOL0     C29976   7.816   0.448   6.249 -0.8121 -0.1145 -0.6254
  218MOL0     O29977   7.800   0.480   6.116  0.0348 -1.0865 -0.0277
  218MOL0     C29978   7.797   0.618   6.093  0.3536  0.1498  0.3781
  218MOL0     C29979   7.916   0.674   6.059 -0.1317 -0.7398 -0.7024
  218MOL0     C29980   7.922   0.816   6.050  0.2108  0.2944 -0.7243
  218MOL0     C29981   7.799   0.893   6.059 -0.4641  0.7427 -0.1840
  218MOL0     O29982   7.804   1.025   6.032 -0.3942  0.6031 -0.1847
  218MOL0     C29983   7.853   1.108   6.148 -0.0959 -0.1856  0.2976
  218MOL0     C29984   7.936   1.217   6.101  0.7836 -0.4626 -0.8628
  218MOL0     C29985   8.010   1.283   6.210  0.2924 -0.2337  0.7449
  218MOL0     C29986   8.108   1.398   6.147  0.3702 -0.3252 -1.3875
  218MOL0     C29987   8.197   1.461   6.264 -0.8478 -0.1402 -0.5010
  218MOL0     C29988   8.314   1.552   6.228  0.4365  0.0033  0.6393
  218MOL0     C29989   8.404   1.496   6.117 -0.9002  0.2805 -0.1183
  218MOL0     C29990   8.462   1.359   6.171 -0.2548  0.0566  0.9243
  218MOL0    Cl29991   8.585   1.282   6.057 -0.2155  0.0442 -0.0002
  218MOL0     C29992   7.681   0.828   6.097  0.6032  0.0199  0.2716
  218MOL0     C29993   7.675   0.693   6.114 -0.1482  0.4363  0.0245
  218MOL0     O29994   7.848   0.531   6.328  0.2338 -0.0488 -0.7499
  218MOL0     C29995   7.702   0.236   6.207  0.4851  0.3991  0.2761
  218MOL0     C29996   7.652   0.112   6.239 -0.8583  0.1432  0.5322
  218MOL0     N29997   7.245  -0.161   6.277  0.4979 -0.0313  0.1878
  218MOL0     N29998   7.232  -0.029   6.255  0.3702 -0.3928 -0.1490
  218MOL0     C29999   7.301   1.290   6.351 -0.1655  0.0909 -0.3593
  218MOL0     C30000   7.395   1.381   6.305 -0.4558 -0.7275  0.2287
  218MOL0     C30001   7.709   1.613   6.098 -1.0762  1.1841 -0.3166
  218MOL0     C30002   7.661   1.628   5.971 -1.1826  1.3948  0.0502
  218MOL0     C30003   7.725   1.716   5.880  0.4372  0.4991 -0.2323
  218MOL0     C30004   7.842   1.781   5.917 -0.8422 -0.0097  0.1487
  218MOL0     O30005   7.919   1.854   5.825  0.2583 -0.3171  0.5056
  218MOL0     C30006   7.879   1.868   5.683  0.6185 -0.3344 -0.6023
  218MOL0     C30007   7.984   1.959   5.625 -0.4104  0.0028  0.4945
  218MOL0     C30008   7.971   2.096   5.707  0.1587 -0.2308  0.1021
  218MOL0     C30009   7.996   2.211   5.622 -0.0528  0.0681 -0.3840
  218MOL0     C30010   7.995   2.330   5.711 -0.7063  0.3224  0.3761
  218MOL0     C30011   7.994   2.419   5.791 -0.0865 -0.9597  0.7241
  218MOL0     C30012   7.894   1.760   6.042  0.5188 -0.4459  1.0348
  218MOL0     C30013   7.829   1.680   6.137 -0.1990  0.6517  1.3437
  218MOL0     C30014   7.886   1.676   6.269  0.4766  0.8912  0.8118
  218MOL0     H30015   7.582   1.149   6.128  3.0133  1.3389  1.2167
  218MOL0     H30016   7.433   0.992   6.244 -3.2340 -0.0986 -2.5738
  218MOL0     H30017   7.218   0.895   6.285 -0.8470 -0.2339 -0.5993
  218MOL0     H30018   7.111   0.905   6.419  1.1552 -0.0133  0.9084
  218MOL0     H30019   7.406   0.911   6.482  0.9259 -3.6377 -2.1829
  218MOL0     H30020   7.266   0.864   6.590  0.1178 -2.1829  0.2695
  218MOL0     H30021   7.232   0.664   6.470  1.3202 -3.2189  3.0635
  218MOL0     H30022   7.349   0.714   6.341 -1.7422  0.4586 -0.1994
  218MOL0     H30023   7.520   0.704   6.532  0.2713  0.0029 -3.5045
  218MOL0     H30024   7.392   0.622   6.627 -0.9758 -0.9811 -0.3988
  218MOL0     H30025   7.552   0.463   6.515 -2.7247  0.4210  3.7868
  218MOL0     H30026   7.524   0.545   6.357  0.7472 -0.8793 -0.3398
  218MOL0     H30027   7.303   0.430   6.521  0.5042  1.5016 -0.0356
  218MOL0     H30028   7.301   0.453   6.349 -1.7004  0.5930  0.6730
  218MOL0     H30029   7.449   0.222   6.496 -1.3153 -0.3529  0.5749
  218MOL0     H30030   7.464   0.254   6.319 -3.2196 -1.5087 -1.7199
  218MOL0     H30031   7.215   0.209   6.476 -0.7506 -0.3265 -0.1687
  218MOL0     H30032   7.223   0.225   6.290  0.5718 -0.2690 -0.1940
  218MOL0     H30033   7.385  -0.036   6.543  0.7986  0.3352 -0.1699
  218MOL0     H30034   7.335  -0.382   6.387 -1.3230 -0.3427  0.5829
  218MOL0     H30035   7.312  -0.320   6.553 -0.2166  1.1898 -0.0158
  218MOL0     H30036   7.545  -0.251   6.564 -1.6871 -0.2660  1.9657
  218MOL0     H30037   7.515  -0.420   6.532 -2.2802  0.3249  0.0125
  218MOL0     H30038   7.706  -0.334   6.405 -1.7248 -1.7660  4.2235
  218MOL0     H30039   7.579  -0.372   6.282  1.1750  2.6180 -3.0819
  218MOL0     H30040   7.699  -0.174   6.229  1.9628 -0.8939  1.2257
  218MOL0     H30041   7.517  -0.163   6.253 -0.0079 -1.3010  0.7187
  218MOL0     H30042   7.792   0.072   6.540 -0.1167 -3.0058 -2.0310
  218MOL0     H30043   7.853   0.357   6.599  1.2698  1.4308  0.6033
  218MOL0     H30044   7.977   0.378   6.469  4.2080 -2.1995  0.3902
  218MOL0     H30045   7.969   0.235   6.576  0.6101  0.0035 -0.8484
  218MOL0     H30046   8.001   0.606   6.052 -2.1520 -3.2825 -2.1853
  218MOL0     H30047   8.017   0.865   6.036  0.6610 -0.8244 -1.7901
  218MOL0     H30048   7.758   1.136   6.193 -2.1289 -3.2436 -1.6896
  218MOL0     H30049   7.904   1.046   6.223 -1.4453 -0.3547  1.1077
  218MOL0     H30050   8.007   1.180   6.026  0.5484 -1.7415 -0.4919
  218MOL0     H30051   7.862   1.286   6.059  1.2053 -0.8738 -2.3703
  218MOL0     H30052   8.068   1.209   6.266  1.8892  0.5466  0.1620
  218MOL0     H30053   7.931   1.323   6.275  1.0838  1.2806  0.8123
  218MOL0     H30054   8.040   1.474   6.108 -1.3797 -1.2081 -0.1863
  218MOL0     H30055   8.177   1.352   6.076  1.7699 -0.8858  0.2491
  218MOL0     H30056   8.123   1.511   6.326  1.0277 -0.2522  1.9899
  218MOL0     H30057   8.241   1.379   6.322  1.0763  0.4141 -1.0723
  218MOL0     H30058   8.376   1.553   6.318 -1.1222 -0.2239  1.7342
  218MOL0     H30059   8.288   1.656   6.206  2.8130  0.2993 -1.3392
  218MOL0     H30060   8.488   1.565   6.108  0.6440 -1.5919 -0.4624
  218MOL0     H30061   8.344   1.485   6.026 -0.7388 -0.5031 -0.1334
  218MOL0     H30062   8.376   1.292   6.166  2.1371 -3.2395 -0.2238
  218MOL0     H30063   8.499   1.380   6.272  0.8817  0.2620  0.4886
  218MOL0     H30064   7.593   0.889   6.117  1.3234  0.7446  1.3503
  218MOL0     H30065   7.585   0.639   6.140 -1.6286  1.3131 -2.9314
  218MOL0     H30066   7.686   0.287   6.112  2.1867  0.0095 -0.2649
  218MOL0     H30067   7.571   0.058   6.191 -2.3922 -1.4680  4.4581
  218MOL0     H30068   7.214   1.326   6.405  0.4262 -1.1285  1.5036
  218MOL0     H30069   7.390   1.487   6.327 -0.2262 -0.7859  0.5698
  218MOL0     H30070   7.576   1.569   5.937  3.3064 -2.9208 -5.9017
  218MOL0     H30071   7.691   1.718   5.777  1.7810 -0.9292 -0.7627
  218MOL0     H30072   7.880   1.771   5.632  2.2301 -0.0603 -1.1446
  218MOL0     H30073   7.777   1.906   5.671  0.2055 -1.0803  0.3768
  218MOL0     H30074   7.967   1.977   5.518  0.4003  2.1083  0.6658
  218MOL0     H30075   8.080   1.910   5.638 -0.0689  0.0955 -1.3931
  218MOL0     H30076   7.870   2.116   5.743  0.3260  0.2035  0.3442
  218MOL0     H30077   8.036   2.100   5.795  1.0652 -1.3181 -0.5011
  218MOL0     H30078   7.926   2.221   5.539 -1.4210 -1.6596  0.4962
  218MOL0     H30079   8.094   2.202   5.574 -0.2993  1.7644 -1.2734
  218MOL0     H30080   7.994   2.496   5.866  0.8468 -2.2097  2.0535
  218MOL0     H30081   7.991   1.803   6.065 -0.0461  2.2097 -1.0105
  218MOL0     H30082   7.991   1.707   6.266  0.8241 -0.2493  0.7464
  218MOL0     H30083   7.828   1.739   6.338  0.5292  2.0282 -0.1346
  218MOL0     H30084   7.888   1.580   6.322  1.9869  0.0526 -0.6907
  219MOL0     O30085   1.726   2.894   0.123  0.3834 -0.0440  0.3929
  219MOL0     C30086   1.843   2.900   0.153  0.6313 -0.6354 -0.6935
  219MOL0     O30087   1.898   2.858   0.271 -0.4169  1.3260  0.0469
  219MOL0     C30088   1.823   2.768   0.341  0.1319  0.2167 -0.1453
  219MOL0     C30089   1.725   2.819   0.425  0.2709  0.5529  0.4079
  219MOL0     C30090   1.650   2.738   0.513 -0.8188  0.1614 -0.0426
  219MOL0     C30091   1.668   2.594   0.506  0.1346 -0.7892 -1.3816
  219MOL0     O30092   1.591   2.519   0.593 -0.0143 -0.1361  0.7017
  219MOL0     C30093   1.541   2.382   0.569 -0.0546  0.1877 -0.0163
  219MOL0     C30094   1.423   2.378   0.472  0.3326 -1.0148 -0.1265
  219MOL0     C30095   1.313   2.462   0.527 -0.4671 -0.2242 -0.4689
  219MOL0     C30096   1.185   2.434   0.445 -0.5600  0.4778 -0.4522
  219MOL0     C30097   1.179   2.520   0.323  0.2883 -0.1082  0.0541
  219MOL0     C30098   1.073   2.457   0.222 -1.3567 -0.0595  0.8354
  219MOL0     C30099   1.109   2.512   0.087 -1.2708  0.7268  0.3877
  219MOL0     C30100   1.025   2.452  -0.023 -0.8575  0.5069  0.6350
  219MOL0     N30101   1.059   2.309  -0.048  0.6112 -0.2599 -0.7705
  219MOL0     C30102   1.185   2.266  -0.092 -0.5457 -0.6345  0.0129
  219MOL0     C30103   1.171   2.129  -0.126  0.1673 -0.8415  0.0204
  219MOL0     C30104   1.264   2.044  -0.213  0.2319  0.6181  0.1832
  219MOL0     C30105   1.303   2.089  -0.350  0.3413  0.1410  0.9620
  219MOL0     C30106   1.400   1.994  -0.415 -0.1405  0.2178 -0.9253
  219MOL0     C30107   1.433   2.014  -0.559  0.4851  0.0953 -0.5774
  219MOL0     O30108   1.552   2.104  -0.570 -0.0799 -0.4136 -0.0426
  219MOL0     C30109   1.676   2.059  -0.574  0.2309  0.7289  0.1654
  219MOL0     C30110   1.720   1.937  -0.526  0.3948  0.1868  0.3779
  219MOL0     C30111   1.852   1.890  -0.540  0.1104 -0.5847 -0.8396
  219MOL0     C30112   1.891   1.754  -0.476 -0.4237 -0.8177 -0.6237
  219MOL0     C30113   1.943   1.977  -0.609 -0.3786 -0.8691  0.3802
  219MOL0     C30114   2.084   1.944  -0.644  0.5770  0.0713  0.0965
  219MOL0     O30115   2.122   1.817  -0.643  0.2487  0.0918 -0.2555
  219MOL0     C30116   2.254   1.770  -0.645 -0.1493 -1.0131 -0.5723
  219MOL0     C30117   2.371   1.853  -0.609  0.3033 -0.6228  0.8929
  219MOL0     C30118   2.492   1.798  -0.600  0.1430  0.3077 -0.2078
  219MOL0     C30119   2.519   1.661  -0.605  0.6453  0.1183 -0.0977
  219MOL0     O30120   2.642   1.616  -0.577 -0.3027  0.8048  0.8435
  219MOL0     C30121   2.689   1.496  -0.637  0.6412 -0.0656  0.6095
  219MOL0     C30122   2.840   1.487  -0.643 -0.5571 -0.3702  0.6664
  219MOL0     C30123   2.905   1.610  -0.713 -0.3823 -0.1068  1.2102
  219MOL0     C30124   3.047   1.588  -0.759  0.1086  0.5469 -0.3951
  219MOL0     C30125   3.073   1.701  -0.871  0.1168 -0.1177  0.5183
  219MOL0     C30126   3.050   1.847  -0.824 -0.6656  0.2745 -0.7071
  219MOL0     C30127   3.104   1.891  -0.684  0.1672  0.6770  0.7529
  219MOL0     C30128   3.019   2.012  -0.630  0.1425 -0.9319  0.4082
  219MOL0    Cl30129   2.847   1.977  -0.601  0.3808 -0.1208  0.1524
  219MOL0     C30130   2.400   1.574  -0.636  0.9267  0.3896 -1.0031
  219MOL0     C30131   2.274   1.631  -0.662  0.3905  0.3393  0.5517
  219MOL0     O30132   2.166   2.034  -0.661 -0.3985 -0.2008  0.0650
  219MOL0     C30133   1.894   2.100  -0.657 -0.3169  0.9180 -0.4898
  219MOL0     C30134   1.765   2.139  -0.642  0.2129  0.5652  0.6726
  219MOL0     N30135   1.043   2.087  -0.091  0.2992 -0.7341 -0.5347
  219MOL0     N30136   0.976   2.193  -0.043 -0.1219 -0.7923 -0.2172
  219MOL0     C30137   1.759   2.543   0.412  0.4198  0.1072 -0.3827
  219MOL0     C30138   1.843   2.630   0.334  0.4455  0.5704  0.2026
  219MOL0     C30139   1.939   2.981   0.067 -0.0919  0.3658 -0.0971
  219MOL0     C30140   2.055   2.916   0.016  0.9671  0.0253 -0.6247
  219MOL0     C30141   2.142   2.980  -0.069 -0.6768 -0.2998  0.2383
  219MOL0     C30142   2.120   3.111  -0.110  0.6173 -0.1109  0.6910
  219MOL0     O30143   2.220   3.184  -0.178 -0.8930 -0.2509 -0.9113
  219MOL0     C30144   2.362   3.162  -0.150  0.2094 -0.1781  1.1150
  219MOL0     C30145   2.414   3.271  -0.055  0.5831  0.9825 -0.1440
  219MOL0     C30146   2.340   3.278   0.075 -0.4841  0.1019 -1.1805
  219MOL0     C30147   2.399   3.366   0.191 -0.4507 -0.1006  0.6067
  219MOL0     C30148   2.532   3.337   0.238  0.3378 -0.8854  0.1928
  219MOL0     C30149   2.634   3.298   0.290  0.3182  1.1194  1.0284
  219MOL0     C30150   2.003   3.179  -0.068 -0.0417  0.1169  0.2753
  219MOL0     C30151   1.907   3.115   0.020  0.6867 -0.2116 -0.6075
  219MOL0     C30152   1.784   3.183   0.064  0.7183 -0.3563 -0.6460
  219MOL0     H30153   1.706   2.925   0.438 -0.7336  0.6798 -1.7381
  219MOL0     H30154   1.571   2.785   0.570  0.0477  2.3606 -0.5171
  219MOL0     H30155   1.505   2.348   0.667 -0.2914 -1.7340 -0.7296
  219MOL0     H30156   1.619   2.315   0.533  1.3952  1.0140  1.4651
  219MOL0     H30157   1.461   2.423   0.379 -0.0724  1.7348  0.9316
  219MOL0     H30158   1.380   2.281   0.445 -2.5173 -0.0458  0.5748
  219MOL0     H30159   1.301   2.455   0.636  1.6282  0.4847 -0.1473
  219MOL0     H30160   1.350   2.565   0.530  1.0955 -0.7893  1.2828
  219MOL0     H30161   1.188   2.332   0.406  0.5780  1.0582 -2.0144
  219MOL0     H30162   1.085   2.436   0.489 -0.9726  2.7121 -1.3587
  219MOL0     H30163   1.282   2.529   0.288  1.7749  0.2533  4.0823
  219MOL0     H30164   1.147   2.624   0.333 -0.7618 -0.4938  0.9066
  219MOL0     H30165   1.049   2.350   0.227 -3.5436  0.4278  2.3195
  219MOL0     H30166   0.982   2.503   0.264 -2.1158 -0.7323 -0.0229
  219MOL0     H30167   1.214   2.488   0.069 -0.3992  2.1587  2.9702
  219MOL0     H30168   1.105   2.620   0.101  2.3594  0.9202  0.8647
  219MOL0     H30169   0.918   2.455   0.000 -1.5679  2.6698 -2.2591
  219MOL0     H30170   1.040   2.511  -0.114 -0.3822 -1.2655 -0.4744
  219MOL0     H30171   1.269   2.329  -0.118  0.2864 -2.5256 -2.2818
  219MOL0     H30172   1.224   1.942  -0.220 -2.0732  1.4563  0.2013
  219MOL0     H30173   1.362   2.030  -0.167  1.0914 -0.0090 -1.7335
  219MOL0     H30174   1.218   2.104  -0.417  0.8105 -0.6782  0.1781
  219MOL0     H30175   1.359   2.184  -0.351  1.0224 -0.2588  0.7089
  219MOL0     H30176   1.490   2.007  -0.354 -0.6430  0.8505 -0.2935
  219MOL0     H30177   1.351   1.896  -0.414  1.4729 -0.6942  2.3601
  219MOL0     H30178   1.452   1.917  -0.606 -1.0316  0.0402 -1.1290
  219MOL0     H30179   1.351   2.067  -0.609  0.8057 -0.3527 -1.6011
  219MOL0     H30180   1.647   1.870  -0.483 -0.2437  0.7153  0.1362
  219MOL0     H30181   1.974   1.780  -0.410 -2.2748 -1.9690  2.3465
  219MOL0     H30182   1.913   1.676  -0.549 -0.3481  0.4078 -1.9706
  219MOL0     H30183   1.815   1.713  -0.409 -1.5316 -0.4549 -1.6236
  219MOL0     H30184   2.369   1.960  -0.592 -1.3565 -0.2697 -1.1822
  219MOL0     H30185   2.568   1.875  -0.592  0.6158 -0.1721 -0.0838
  219MOL0     H30186   2.654   1.407  -0.583  2.7332 -0.5076  1.3398
  219MOL0     H30187   2.642   1.495  -0.735 -0.0489 -3.4331  0.8603
  219MOL0     H30188   2.889   1.486  -0.545  1.1198 -0.2295 -0.1331
  219MOL0     H30189   2.864   1.393  -0.694  1.9158 -0.2078  1.4224
  219MOL0     H30190   2.897   1.703  -0.656  0.1126  1.5771 -1.3193
  219MOL0     H30191   2.854   1.619  -0.809  0.6012  1.9860  0.8151
  219MOL0     H30192   3.068   1.494  -0.812 -0.2269  1.6058 -2.5157
  219MOL0     H30193   3.115   1.606  -0.675  1.3373 -0.1898 -1.2042
  219MOL0     H30194   3.179   1.697  -0.899  0.5302 -1.0678  2.0860
  219MOL0     H30195   3.005   1.665  -0.949 -0.4435 -1.6110  1.6350
  219MOL0     H30196   2.945   1.872  -0.846 -0.9546 -1.6730 -1.7355
  219MOL0     H30197   3.103   1.900  -0.903  2.0415 -1.1637  0.0436
  219MOL0     H30198   3.207   1.924  -0.702  0.7178 -1.4331 -0.3037
  219MOL0     H30199   3.090   1.815  -0.607  1.7357 -0.0680  0.3414
  219MOL0     H30200   3.026   2.099  -0.695  2.5139  1.0229  3.0032
  219MOL0     H30201   3.069   2.041  -0.537  2.6981 -0.2634 -1.0856
  219MOL0     H30202   2.407   1.467  -0.626 -0.3379  0.4636  1.1636
  219MOL0     H30203   2.198   1.564  -0.700  2.0734 -0.9194 -0.7256
  219MOL0     H30204   1.965   2.170  -0.700  1.3469 -0.1678  0.3638
  219MOL0     H30205   1.724   2.233  -0.678 -0.7503  0.4847  1.5342
  219MOL0     H30206   1.781   2.439   0.390  0.7257  0.8422 -4.3074
  219MOL0     H30207   1.913   2.598   0.258  0.2966  2.9404 -1.0429
  219MOL0     H30208   2.075   2.810   0.034 -0.7768 -0.7489 -2.7135
  219MOL0     H30209   2.226   2.927  -0.112 -1.6950 -1.6569 -0.1256
  219MOL0     H30210   2.380   3.068  -0.098  1.9669  0.0399  0.9550
  219MOL0     H30211   2.422   3.158  -0.241  2.3028 -3.3092  2.4898
  219MOL0     H30212   2.416   3.369  -0.104  2.0139  0.7241 -0.6391
  219MOL0     H30213   2.518   3.243  -0.038 -0.9767 -4.4299  3.2718
  219MOL0     H30214   2.241   3.310   0.042 -1.1289 -3.4083 -3.0802
  219MOL0     H30215   2.333   3.177   0.118  1.4417  1.3343  2.4992
  219MOL0     H30216   2.339   3.352   0.281 -1.3749  0.2273  0.0565
  219MOL0     H30217   2.377   3.468   0.159 -0.2971  0.3760  1.9787
  219MOL0     H30218   2.724   3.272   0.342  1.7524 -0.5141 -2.0186
  219MOL0     H30219   1.993   3.283  -0.099  1.3792  1.0203  2.6073
  219MOL0     H30220   1.754   3.154   0.166 -1.0537 -3.9072 -1.9924
  219MOL0     H30221   1.807   3.289   0.071 -1.0381 -0.0120  0.9814
  219MOL0     H30222   1.699   3.170  -0.003 -0.1266  1.3708  0.0348
  220MOL0     O30223   6.311   6.872   1.674  0.2257  0.0894 -0.0941
  220MOL0     C30224   6.297   6.791   1.585  0.3496 -0.9086 -0.2027
  220MOL0     O30225   6.392   6.759   1.496 -0.1244 -0.1300  0.3055
  220MOL0     C30226   6.520   6.813   1.511 -0.4421  0.2612 -1.0990
  220MOL0     C30227   6.542   6.951   1.540 -0.2896 -0.7374 -0.2553
  220MOL0     C30228   6.668   7.002   1.549  0.3340 -0.4589  0.3316
  220MOL0     C30229   6.781   6.923   1.549  0.2071  0.8810  0.3001
  220MOL0     O30230   6.908   6.975   1.565 -0.6440  0.3164 -0.9174
  220MOL0     C30231   7.029   6.887   1.567 -0.1215 -0.4768 -0.4825
  220MOL0     C30232   7.147   6.973   1.545 -0.2428 -0.5900  0.1979
  220MOL0     C30233   7.162   7.096   1.635 -0.9167  0.3586  0.2333
  220MOL0     C30234   7.293   7.171   1.609 -0.0203  0.4696  0.1015
  220MOL0     C30235   7.322   7.284   1.716 -0.6449  0.0813  0.2910
  220MOL0     C30236   7.335   7.217   1.854 -0.6054 -0.1257 -0.2149
  220MOL0     C30237   7.442   7.294   1.935  0.0832 -0.8711  0.3677
  220MOL0     C30238   7.483   7.217   2.064  1.0082 -0.4864  0.6852
  220MOL0     N30239   7.547   7.283   2.176 -0.2107 -0.9216 -0.1457
  220MOL0     C30240   7.686   7.294   2.184  0.5449  0.3783  0.2374
  220MOL0     C30241   7.707   7.380   2.287 -0.0227 -0.0643  0.5234
  220MOL0     C30242   7.836   7.409   2.351 -0.1317 -0.2300  0.1428
  220MOL0     C30243   7.880   7.310   2.452  0.2010 -0.3521  0.1046
  220MOL0     C30244   8.001   7.340   2.540 -0.4727 -0.2660 -0.2878
  220MOL0     C30245   8.125   7.380   2.452  1.0079  0.4085  0.0422
  220MOL0     O30246   8.163   7.274   2.372  0.0480  0.3750  0.2400
  220MOL0     C30247   8.291   7.261   2.331  0.7389 -0.1253 -0.0542
  220MOL0     C30248   8.341   7.133   2.297 -0.0130  0.4919  1.2077
  220MOL0     C30249   8.464   7.123   2.232 -0.2678 -0.2090  0.7768
  220MOL0     C30250   8.527   6.991   2.191  0.0874  0.0520  0.4728
  220MOL0     C30251   8.548   7.238   2.217 -0.7666 -1.2424 -0.8728
  220MOL0     C30252   8.686   7.239   2.157 -0.6016 -0.2944 -0.6488
  220MOL0     O30253   8.713   7.355   2.091  0.2483  0.4576  0.0657
  220MOL0     C30254   8.818   7.372   2.004 -0.3812 -0.2143  0.4653
  220MOL0     C30255   8.949   7.397   2.041 -0.4586  0.1055 -0.5572
  220MOL0     C30256   9.046   7.405   1.949 -0.2029  0.0082 -0.8460
  220MOL0     C30257   9.035   7.383   1.808  0.5087  0.5680 -0.4077
  220MOL0     O30258   9.135   7.390   1.716 -0.2880  0.3799  0.6350
  220MOL0     C30259   9.268   7.440   1.741  0.2161 -0.0748  0.2482
  220MOL0     C30260   9.364   7.330   1.786  0.5254 -0.0979 -0.0897
  220MOL0     C30261   9.508   7.374   1.784 -0.2525 -0.4625  0.1479
  220MOL0     C30262   9.602   7.247   1.807 -1.1139 -0.2272  0.1211
  220MOL0     C30263   9.740   7.262   1.740 -0.3960  0.6063  0.6914
  220MOL0     C30264   9.727   7.218   1.590 -0.3925 -0.5166 -0.6344
  220MOL0     C30265   9.866   7.237   1.523 -0.3379 -0.0006  0.4691
  220MOL0     C30266   9.850   7.280   1.375 -0.6858  0.6353 -0.6182
  220MOL0    Cl30267  10.009   7.262   1.298  0.3636 -0.3836  0.1566
  220MOL0     C30268   8.908   7.355   1.770 -0.9656 -0.6826 -0.0909
  220MOL0     C30269   8.800   7.343   1.867  0.1579 -0.2779 -0.3624
  220MOL0     O30270   8.772   7.153   2.188  1.4709  0.2585 -0.0872
  220MOL0     C30271   8.484   7.362   2.242  0.3057  0.0802  0.5464
  220MOL0     C30272   8.358   7.378   2.296 -0.0416 -0.4834  0.8984
  220MOL0     N30273   7.586   7.437   2.333 -0.0368  1.2858 -0.5959
  220MOL0     N30274   7.498   7.369   2.266  0.2190 -0.1466  0.0147
  220MOL0     C30275   6.757   6.794   1.514  0.7264  0.2290  0.9160
  220MOL0     C30276   6.630   6.731   1.491 -0.2976 -0.8871  1.0781
  220MOL0     C30277   6.164   6.751   1.543 -1.0190  0.4830 -0.4775
  220MOL0     C30278   6.109   6.632   1.588  0.6825  0.7242  0.2974
  220MOL0     C30279   5.992   6.572   1.530  0.5565 -0.4924  1.4398
  220MOL0     C30280   5.941   6.634   1.418  0.7840  0.4458  0.2763
  220MOL0     O30281   5.847   6.585   1.336 -0.2955 -0.2048 -0.0072
  220MOL0     C30282   5.788   6.454   1.361  0.1733  0.0856  0.5150
  220MOL0     C30283   5.746   6.394   1.232 -0.2425 -0.3159 -0.4895
  220MOL0     C30284   5.639   6.463   1.148 -0.5291 -0.8252  0.5762
  220MOL0     C30285   5.523   6.539   1.227  0.2797 -0.1609  0.3385
  220MOL0     C30286   5.446   6.439   1.298 -0.3507 -0.0386  0.3501
  220MOL0     C30287   5.384   6.359   1.370 -0.5543 -0.6992 -0.1363
  220MOL0     C30288   5.987   6.757   1.374 -0.3654  0.1943 -1.1504
  220MOL0     C30289   6.102   6.821   1.437 -0.0126 -0.0757 -0.1596
  220MOL0     C30290   6.148   6.952   1.369 -0.0552  1.0512  0.3866
  220MOL0     H30291   6.454   7.012   1.556  0.3408  0.8016 -2.2369
  220MOL0     H30292   6.691   7.106   1.572 -1.3997  0.4770 -1.8737
  220MOL0     H30293   7.025   6.815   1.484 -0.7398 -1.0286  0.0091
  220MOL0     H30294   7.032   6.829   1.660 -2.5485  2.2180  1.4506
  220MOL0     H30295   7.234   6.909   1.560  0.6708  1.1031  2.7201
  220MOL0     H30296   7.149   6.997   1.438  0.6918  0.0116  0.3408
  220MOL0     H30297   7.077   7.164   1.626 -0.3770  0.7504 -3.3211
  220MOL0     H30298   7.166   7.057   1.738 -0.7921  3.4885  1.5108
  220MOL0     H30299   7.368   7.091   1.605 -1.1002 -0.6447  1.2023
  220MOL0     H30300   7.288   7.211   1.507 -1.2755 -1.4222 -0.6388
  220MOL0     H30301   7.249   7.366   1.718  1.4058  2.0555 -0.4986
  220MOL0     H30302   7.409   7.332   1.670 -1.3763  1.8442  0.6369
  220MOL0     H30303   7.238   7.199   1.902 -0.7980 -0.3620 -0.6787
  220MOL0     H30304   7.372   7.117   1.828 -0.6785  0.4208 -2.6549
  220MOL0     H30305   7.381   7.377   1.972  0.9748  0.8439 -1.7684
  220MOL0     H30306   7.528   7.334   1.881  0.7149  0.4199  2.2540
  220MOL0     H30307   7.394   7.165   2.100  1.0589 -2.4577 -1.7473
  220MOL0     H30308   7.549   7.139   2.024  2.7708  2.2127 -2.0976
  220MOL0     H30309   7.756   7.247   2.116 -0.6295  0.7232 -1.2667
  220MOL0     H30310   7.839   7.512   2.388  2.2117 -0.4861  0.8296
  220MOL0     H30311   7.909   7.417   2.269 -1.0227 -1.6547 -0.8409
  220MOL0     H30312   7.802   7.300   2.528  2.8441 -2.6099  2.7803
  220MOL0     H30313   7.904   7.215   2.403  0.1947  0.4706 -1.5677
  220MOL0     H30314   7.997   7.412   2.623 -0.2140 -0.8045  0.2020
  220MOL0     H30315   8.006   7.249   2.601 -0.1634 -0.0045  0.0786
  220MOL0     H30316   8.107   7.476   2.402  1.0429  1.2786  1.6307
  220MOL0     H30317   8.202   7.402   2.527 -0.2647 -0.3589  1.6374
  220MOL0     H30318   8.299   7.040   2.333 -1.9167  1.7910  2.5585
  220MOL0     H30319   8.542   6.991   2.082 -1.5061 -0.3876  0.2249
  220MOL0     H30320   8.461   6.905   2.206 -0.0737  0.7356  4.7779
  220MOL0     H30321   8.615   6.974   2.253 -0.3849  0.1324  1.1789
  220MOL0     H30322   8.960   7.419   2.146  0.2906 -1.0105 -0.3868
  220MOL0     H30323   9.142   7.432   1.991  0.4426 -3.2308 -0.0381
  220MOL0     H30324   9.299   7.486   1.646 -1.0541 -0.0037 -0.1575
  220MOL0     H30325   9.259   7.513   1.822  0.9184 -0.6106  0.8269
  220MOL0     H30326   9.336   7.305   1.889  0.1807  0.5297 -0.0285
  220MOL0     H30327   9.354   7.242   1.722  1.3531  0.6004 -1.2138
  220MOL0     H30328   9.516   7.455   1.857 -2.1240  1.5188 -1.7036
  220MOL0     H30329   9.544   7.404   1.685  2.0881 -1.4803  0.6016
  220MOL0     H30330   9.556   7.151   1.785  0.4769 -1.2176  0.9689
  220MOL0     H30331   9.615   7.238   1.916  0.8628  0.7680  0.0092
  220MOL0     H30332   9.775   7.363   1.762  1.2306  0.2324 -0.0449
  220MOL0     H30333   9.803   7.185   1.786 -0.3282  0.6826  0.7257
  220MOL0     H30334   9.645   7.272   1.540 -0.4317  0.5943  0.5803
  220MOL0     H30335   9.697   7.113   1.582  1.0641 -0.9537 -0.7713
  220MOL0     H30336   9.914   7.140   1.540 -0.4273  0.1955  1.9959
  220MOL0     H30337   9.910   7.324   1.573  1.2031  0.8618 -2.1888
  220MOL0     H30338   9.820   7.385   1.364 -1.4735  0.3962 -0.7603
  220MOL0     H30339   9.783   7.213   1.320  0.9083 -2.5374  1.0267
  220MOL0     H30340   8.896   7.345   1.663 -0.0949  3.0397 -0.6560
  220MOL0     H30341   8.703   7.315   1.828  1.2267  0.1691 -3.5856
  220MOL0     H30342   8.537   7.456   2.232 -3.4195  2.5639  1.9364
  220MOL0     H30343   8.300   7.470   2.298 -2.1526 -1.7068 -0.0311
  220MOL0     H30344   6.841   6.726   1.500 -0.9213 -1.1771 -4.3196
  220MOL0     H30345   6.630   6.626   1.463 -2.3183 -0.4176 -0.9916
  220MOL0     H30346   6.158   6.577   1.668  1.1543  0.4673 -0.1647
  220MOL0     H30347   5.961   6.479   1.577 -4.9428  1.9286  3.4584
  220MOL0     H30348   5.859   6.381   1.401 -1.0579 -0.4152  1.8829
  220MOL0     H30349   5.701   6.452   1.427 -1.7277 -1.9707 -1.8651
  220MOL0     H30350   5.691   6.301   1.248 -1.4505  0.4607  0.0588
  220MOL0     H30351   5.830   6.373   1.166 -1.2606 -1.4749 -1.4558
  220MOL0     H30352   5.687   6.527   1.073  2.9383  0.5979  3.6656
  220MOL0     H30353   5.596   6.382   1.088  0.4337  0.0836 -1.4282
  220MOL0     H30354   5.454   6.591   1.159  0.5271  0.4250  0.5258
  220MOL0     H30355   5.555   6.613   1.301  0.8525  0.3865 -0.4459
  220MOL0     H30356   5.329   6.304   1.444 -1.1807 -1.2768 -1.0229
  220MOL0     H30357   5.946   6.809   1.288  2.9370 -0.1411 -3.0915
  220MOL0     H30358   6.081   7.037   1.381  0.7982  1.9608 -1.1080
  220MOL0     H30359   6.243   6.987   1.409  0.1224  0.6723  0.2997
  220MOL0     H30360   6.164   6.941   1.262  2.9717  1.9429  0.6610
  221MOL0     O30361   8.818   1.211   6.854 -0.2983  0.0847  0.4930
  221MOL0     C30362   8.933   1.203   6.896 -0.0660 -0.0404  0.3437
  221MOL0     O30363   9.024   1.295   6.911  0.4907 -0.4298  0.2118
  221MOL0     C30364   8.986   1.418   6.880  0.5981 -0.2484  0.1741
  221MOL0     C30365   8.966   1.451   6.736  0.5124 -0.0117 -1.5016
  221MOL0     C30366   8.926   1.574   6.684 -0.3450 -0.2843 -0.2264
  221MOL0     C30367   8.908   1.674   6.773 -0.6324 -0.3494 -0.1754
  221MOL0     O30368   8.881   1.806   6.741 -1.0602 -0.8199  0.9812
  221MOL0     C30369   8.925   1.840   6.609  0.2001  0.1482  0.7768
  221MOL0     C30370   8.919   1.991   6.570  0.2372 -0.8077 -0.5252
  221MOL0     C30371   8.772   2.041   6.587 -0.4257  0.1754  0.2339
  221MOL0     C30372   8.783   2.198   6.581 -0.7629  0.2431  0.0560
  221MOL0     C30373   8.647   2.265   6.590 -0.2754 -0.5716  0.7967
  221MOL0     C30374   8.569   2.233   6.714 -0.0510 -0.3630  0.0375
  221MOL0     C30375   8.436   2.289   6.706 -0.8236 -0.0164  0.4833
  221MOL0     C30376   8.352   2.230   6.813  0.5306  0.1117 -0.5612
  221MOL0     N30377   8.230   2.307   6.798  0.4837 -1.5846  0.0103
  221MOL0     C30378   8.207   2.443   6.837 -0.3701  0.8340  0.2068
  221MOL0     C30379   8.079   2.469   6.801 -0.2928 -0.7730  0.0114
  221MOL0     C30380   8.007   2.602   6.783 -0.6024  0.2810  0.2000
  221MOL0     C30381   8.048   2.690   6.898 -0.2116 -0.6565  0.3339
  221MOL0     C30382   8.167   2.778   6.847 -0.3279 -0.3834  0.2716
  221MOL0     C30383   8.230   2.859   6.956 -0.8416  0.4495 -0.4721
  221MOL0     O30384   8.318   2.954   6.897  0.5900  0.0747 -0.0221
  221MOL0     C30385   8.449   2.915   6.854 -0.3015  0.4834 -0.3404
  221MOL0     C30386   8.507   2.786   6.877 -1.0823  0.9518  0.0940
  221MOL0     C30387   8.614   2.746   6.803 -0.4446  0.2438 -0.0860
  221MOL0     C30388   8.660   2.599   6.811 -0.1253 -0.4747 -0.3104
  221MOL0     C30389   8.664   2.830   6.708  1.0381 -0.3697 -0.2669
  221MOL0     C30390   8.763   2.791   6.607 -0.6719 -0.5801 -0.6945
  221MOL0     O30391   8.711   2.700   6.527  0.4306  0.4553 -0.8633
  221MOL0     C30392   8.780   2.623   6.446  0.1115 -0.4967 -0.4292
  221MOL0     C30393   8.750   2.608   6.310 -0.6145  0.2846  0.3896
  221MOL0     C30394   8.825   2.510   6.241 -0.5143  0.5208 -0.8097
  221MOL0     C30395   8.927   2.444   6.291 -0.2872  0.1579  0.0892
  221MOL0     O30396   9.010   2.371   6.208 -0.3609  0.2892  0.0397
  221MOL0     C30397   9.103   2.274   6.259 -0.2003  0.0300 -0.4257
  221MOL0     C30398   9.181   2.215   6.152 -0.6615 -0.0772  1.4996
  221MOL0     C30399   9.111   2.101   6.081 -1.0710 -0.6241  0.2081
  221MOL0     C30400   9.112   1.978   6.178  1.0615  0.1132 -0.4375
  221MOL0     C30401   9.028   1.876   6.101 -0.1066 -0.1407 -0.2611
  221MOL0     C30402   8.953   1.764   6.188 -0.0215  0.3782  0.8408
  221MOL0     C30403   8.922   1.641   6.099  0.1644 -0.6204  0.5741
  221MOL0     C30404   8.825   1.544   6.161 -0.0834 -0.9683 -0.0049
  221MOL0    Cl30405   8.889   1.472   6.314  0.2463  0.1035 -0.0808
  221MOL0     C30406   8.965   2.473   6.425  0.8651  0.3472 -0.0794
  221MOL0     C30407   8.897   2.565   6.493 -0.1475 -0.5726 -0.3261
  221MOL0     O30408   8.873   2.851   6.589  0.2285 -0.0175 -0.9664
  221MOL0     C30409   8.607   2.958   6.691 -0.2101 -0.6322 -0.5155
  221MOL0     C30410   8.509   3.003   6.775 -0.6397  0.0654  0.2133
  221MOL0     N30411   8.019   2.358   6.749  0.3904 -0.4332 -0.5615
  221MOL0     N30412   8.111   2.260   6.757  0.2726 -0.0823  0.6472
  221MOL0     C30413   8.925   1.648   6.913 -0.4631  0.6702  0.5990
  221MOL0     C30414   8.967   1.526   6.970  0.1112  0.0919 -0.8220
  221MOL0     C30415   8.981   1.074   6.942  0.5426  0.1063 -0.1907
  221MOL0     C30416   9.054   1.062   7.061  0.4313  1.4608  0.9517
  221MOL0     C30417   9.101   0.940   7.098 -0.1142  0.5482  0.7806
  221MOL0     C30418   9.057   0.816   7.048 -0.5011 -0.5317 -1.1267
  221MOL0     O30419   9.091   0.701   7.112  0.3096 -0.7794 -0.2048
  221MOL0     C30420   9.105   0.586   7.037  0.7482  1.0758  0.2396
  221MOL0     C30421   9.033   0.468   7.108 -0.4230  0.0126 -0.2840
  221MOL0     C30422   9.105   0.433   7.237 -0.1989  0.1738  0.0954
  221MOL0     C30423   9.018   0.365   7.340  1.0032 -0.1305  0.5085
  221MOL0     C30424   9.095   0.344   7.463  0.4388  0.8570  0.2500
  221MOL0     C30425   9.163   0.326   7.559 -0.3208  0.1854  0.0429
  221MOL0     C30426   8.976   0.818   6.939  0.9987  0.1847  0.9569
  221MOL0     C30427   8.943   0.947   6.882 -0.3580  0.1745  0.4270
  221MOL0     C30428   8.866   0.937   6.759 -0.5170 -0.3091  0.0039
  221MOL0     H30429   8.999   1.373   6.668  3.2957 -0.2748 -0.0387
  221MOL0     H30430   8.939   1.591   6.577  1.3592  2.2865  0.3149
  221MOL0     H30431   8.880   1.787   6.524  3.1998  0.6198 -1.2931
  221MOL0     H30432   9.028   1.806   6.597  0.5726  1.2786  0.5931
  221MOL0     H30433   8.980   2.048   6.641  1.0458 -0.1119 -1.7385
  221MOL0     H30434   8.966   2.007   6.473  0.1731 -0.9302 -0.5770
  221MOL0     H30435   8.696   2.007   6.517 -1.7693  1.5660  0.9699
  221MOL0     H30436   8.734   2.014   6.686 -2.8610 -2.1536 -1.2058
  221MOL0     H30437   8.848   2.245   6.655  0.7952 -2.0946  0.3075
  221MOL0     H30438   8.829   2.220   6.484  1.9565 -0.4258  1.1035
  221MOL0     H30439   8.592   2.242   6.498  2.4913 -2.5324 -0.5401
  221MOL0     H30440   8.660   2.373   6.578  2.9972 -0.6155  2.6402
  221MOL0     H30441   8.557   2.124   6.719 -0.9423 -0.2363  0.8888
  221MOL0     H30442   8.636   2.256   6.797 -0.8943 -0.4177  0.7434
  221MOL0     H30443   8.401   2.270   6.604 -0.5208  0.1256  0.3529
  221MOL0     H30444   8.440   2.398   6.714  1.5200 -0.0833  0.9967
  221MOL0     H30445   8.339   2.123   6.793 -0.1296  0.4101 -1.7912
  221MOL0     H30446   8.395   2.242   6.913 -0.8395 -0.6862  0.1561
  221MOL0     H30447   8.281   2.517   6.865  0.9105 -0.0762 -0.6954
  221MOL0     H30448   7.898   2.596   6.785 -0.6263  0.5944 -0.0734
  221MOL0     H30449   8.017   2.641   6.681 -3.2972  1.7307  0.4064
  221MOL0     H30450   7.971   2.765   6.914 -0.0916 -0.2443 -0.9730
  221MOL0     H30451   8.065   2.630   6.989 -0.5104  0.1608  0.9406
  221MOL0     H30452   8.246   2.717   6.803  2.4764  2.3754  1.1383
  221MOL0     H30453   8.146   2.842   6.761  2.9048  1.9460  1.0544
  221MOL0     H30454   8.151   2.903   7.018 -3.3646  0.1380 -3.2342
  221MOL0     H30455   8.291   2.790   7.014  0.6842  2.8255  0.9567
  221MOL0     H30456   8.469   2.711   6.945  0.8802 -3.3511 -3.0831
  221MOL0     H30457   8.612   2.546   6.728  1.3239  1.6041 -2.6451
  221MOL0     H30458   8.626   2.566   6.909 -0.7667  0.3265 -0.2514
  221MOL0     H30459   8.768   2.589   6.797  1.0392  3.3481  3.7996
  221MOL0     H30460   8.668   2.662   6.263  1.1044  2.6670 -0.0962
  221MOL0     H30461   8.783   2.511   6.141 -0.0839 -0.6585 -1.0134
  221MOL0     H30462   9.181   2.324   6.318  0.0943 -1.1974  0.2544
  221MOL0     H30463   9.058   2.205   6.331  1.4713 -1.1918 -0.4845
  221MOL0     H30464   9.199   2.291   6.075  1.7284 -1.2457  0.8136
  221MOL0     H30465   9.278   2.179   6.185  0.3495 -1.4597 -2.4612
  221MOL0     H30466   9.189   2.069   6.012  1.8591  2.8917  1.5783
  221MOL0     H30467   9.015   2.137   6.043 -1.4969 -0.3094  1.5177
  221MOL0     H30468   9.059   2.005   6.270  1.0967  0.7219 -0.5959
  221MOL0     H30469   9.210   1.946   6.215  1.0869  0.8156  0.1129
  221MOL0     H30470   8.953   1.925   6.037 -0.2895 -3.5566 -2.9858
  221MOL0     H30471   9.099   1.824   6.036  1.2366 -1.2059  1.9680
  221MOL0     H30472   8.854   1.792   6.223 -0.3111 -2.1606  2.3060
  221MOL0     H30473   9.024   1.742   6.268 -0.0812  1.7288  1.2898
  221MOL0     H30474   9.016   1.591   6.076  0.0681 -1.3367  1.6797
  221MOL0     H30475   8.885   1.670   6.000  0.7522 -0.9234  0.2592
  221MOL0     H30476   8.807   1.471   6.082  2.7683  1.0750 -2.8331
  221MOL0     H30477   8.730   1.595   6.178 -0.1320 -1.1941  0.4385
  221MOL0     H30478   9.051   2.422   6.468  1.4286 -1.5529 -3.1648
  221MOL0     H30479   8.944   2.603   6.584  2.0197 -1.0178 -1.1882
  221MOL0     H30480   8.631   3.036   6.619 -3.7592  1.7383  0.6028
  221MOL0     H30481   8.466   3.101   6.755  1.5058  1.0634  0.2276
  221MOL0     H30482   8.902   1.733   6.976 -1.1865  2.8234 -2.3739
  221MOL0     H30483   8.969   1.512   7.077  0.8949  0.2503 -0.8075
  221MOL0     H30484   9.081   1.154   7.112  1.6401  2.5988 -1.5361
  221MOL0     H30485   9.177   0.946   7.174  0.4484  0.1159  0.2583
  221MOL0     H30486   9.067   0.591   6.934  3.3460 -3.2112 -1.1870
  221MOL0     H30487   9.210   0.559   7.028 -0.2164 -3.5496  0.3929
  221MOL0     H30488   9.035   0.380   7.043 -0.2492 -1.5416  1.7395
  221MOL0     H30489   8.928   0.497   7.123  0.4046  2.0993  2.0232
  221MOL0     H30490   9.191   0.365   7.227 -1.2992 -1.4519  1.1217
  221MOL0     H30491   9.134   0.530   7.277  2.2340  1.0119 -3.2508
  221MOL0     H30492   8.974   0.276   7.296  1.0542 -0.5691  1.3248
  221MOL0     H30493   8.933   0.431   7.360 -0.4859  0.3005 -5.5045
  221MOL0     H30494   9.234   0.314   7.638 -0.4459  1.6211  0.4069
  221MOL0     H30495   8.918   0.737   6.897 -1.5840  2.8452 -1.0510
  221MOL0     H30496   8.763   0.972   6.774 -0.6352  0.2257 -1.7921
  221MOL0     H30497   8.915   0.999   6.683 -0.9467 -3.2884 -2.9101
  221MOL0     H30498   8.865   0.834   6.721  2.2769  0.1519 -1.6015
  222MOL0     O30499   4.678   9.739   1.800 -0.1956  0.3217  0.4269
  222MOL0     C30500   4.672   9.822   1.885  0.1419  0.2517 -0.0465
  222MOL0     O30501   4.554   9.906   1.908 -0.0668  0.3363  0.2530
  222MOL0     C30502   4.438   9.887   1.828 -0.7947  0.8400  0.1259
  222MOL0     C30503   4.406   9.980   1.735  0.1655  0.4125 -0.0777
  222MOL0     C30504   4.314   9.959   1.635  0.2837  0.8811 -0.4935
  222MOL0     C30505   4.244   9.840   1.632  0.5115  0.3712 -0.6450
  222MOL0     O30506   4.157   9.787   1.542  0.0483  0.4064  1.5335
  222MOL0     C30507   4.136   9.874   1.424  0.0380 -0.1970  0.0817
  222MOL0     C30508   4.000   9.946   1.426 -0.1275 -0.1206 -0.0262
  222MOL0     C30509   3.875   9.860   1.470 -0.5055  0.5138 -0.0668
  222MOL0     C30510   3.866   9.806   1.614 -0.3368  0.9289  0.4865
  222MOL0     C30511   3.864   9.926   1.704 -0.6720  0.0521 -0.4414
  222MOL0     C30512   3.743  10.014   1.691  0.4969 -0.0406 -0.4450
  222MOL0     C30513   3.724  10.115   1.805  0.6873  0.0561  0.7177
  222MOL0     C30514   3.817  10.232   1.788 -0.1982 -1.0164 -0.8632
  222MOL0     N30515   3.910  10.239   1.913 -1.4541 -0.0619 -0.1022
  222MOL0     C30516   4.010  10.149   1.955 -0.0958  0.4517  0.0135
  222MOL0     C30517   4.100  10.224   2.032 -0.5939  0.5020  0.0220
  222MOL0     C30518   4.242  10.168   2.083  1.5255  0.2631 -0.3682
  222MOL0     C30519   4.225  10.068   2.200  0.3858 -0.3904 -0.4307
  222MOL0     C30520   4.182  10.148   2.323 -0.2117  0.5946 -0.2980
  222MOL0     C30521   4.294  10.219   2.399 -0.7902 -0.6116  0.2924
  222MOL0     O30522   4.258  10.245   2.536  0.1245  1.1456 -0.3127
  222MOL0     C30523   4.329  10.316   2.631 -0.5108 -0.6199 -1.2426
  222MOL0     C30524   4.458  10.366   2.606  0.7648 -0.1612  0.0282
  222MOL0     C30525   4.530  10.444   2.704 -0.3683  0.6479  0.2534
  222MOL0     C30526   4.674  10.456   2.674  0.8572  0.1746 -1.0653
  222MOL0     C30527   4.468  10.466   2.825 -0.1971  0.2439  0.9718
  222MOL0     C30528   4.528  10.543   2.930  0.1575  0.5806 -0.1165
  222MOL0     O30529   4.552  10.677   2.914 -0.3974  0.1012 -0.0036
  222MOL0     C30530   4.647  10.734   2.988  0.6325 -0.3722 -0.3385
  222MOL0     C30531   4.603  10.832   3.085  0.7380  0.1128  0.4627
  222MOL0     C30532   4.688  10.901   3.170 -0.2261  0.4112 -0.1006
  222MOL0     C30533   4.823  10.877   3.162  0.1812 -0.5371  0.1071
  222MOL0     O30534   4.923  10.932   3.231 -0.1532  0.4899 -0.2257
  222MOL0     C30535   4.895  11.052   3.296 -0.1619  0.2125  0.9189
  222MOL0     C30536   5.028  11.101   3.355  0.4234  0.9809  0.5998
  222MOL0     C30537   5.059  11.041   3.498  0.4583  0.5195  0.7766
  222MOL0     C30538   5.177  11.097   3.573 -0.9260 -0.3024 -0.0677
  222MOL0     C30539   5.172  11.249   3.608 -0.0023 -0.9131  0.3465
  222MOL0     C30540   5.257  11.271   3.729  0.1310  0.3576 -0.8881
  222MOL0     C30541   5.233  11.408   3.790 -0.3800 -0.1882 -0.7720
  222MOL0     C30542   5.247  11.530   3.700  0.3161  0.4126 -0.3058
  222MOL0    Cl30543   5.144  11.652   3.787  0.5502  0.0323  0.0869
  222MOL0     C30544   4.866  10.781   3.070 -0.1632 -0.0627  0.0936
  222MOL0     C30545   4.783  10.718   2.980 -0.4262  0.2791 -0.0264
  222MOL0     O30546   4.559  10.483   3.030 -0.4918 -0.1160  0.5317
  222MOL0     C30547   4.327  10.431   2.841 -0.9560 -1.4259 -0.4554
  222MOL0     C30548   4.260  10.352   2.747  0.3602 -0.2631  1.1163
  222MOL0     N30549   4.048  10.347   2.051  0.5009  0.4019  0.4647
  222MOL0     N30550   3.924  10.349   1.992  0.3194 -0.3738  0.1163
  222MOL0     C30551   4.266   9.747   1.732 -0.3922  0.0148 -0.1806
  222MOL0     C30552   4.365   9.768   1.837  0.4551  1.2359  0.0764
  222MOL0     C30553   4.787   9.844   1.971 -0.2370 -0.6656 -0.2911
  222MOL0     C30554   4.893   9.753   1.958 -0.0435  0.2721 -0.7391
  222MOL0     C30555   4.994   9.740   2.052  0.4801 -0.2889 -0.0433
  222MOL0     C30556   4.991   9.813   2.169 -0.4666 -0.0458  0.7627
  222MOL0     O30557   5.097   9.795   2.251  0.0496  0.5468 -0.3810
  222MOL0     C30558   5.111   9.876   2.374 -0.3095 -0.9191 -0.2934
  222MOL0     C30559   5.203   9.994   2.337 -0.6565 -0.0139  0.2417
  222MOL0     C30560   5.258  10.067   2.468  0.1116 -0.6396 -0.7949
  222MOL0     C30561   5.367  10.168   2.445  0.2025  0.2746  0.6280
  222MOL0     C30562   5.354  10.250   2.324  0.6361 -0.5188  0.1482
  222MOL0     C30563   5.361  10.304   2.216  0.3589  0.0901 -0.2659
  222MOL0     C30564   4.879   9.899   2.185  0.2356  0.3555 -0.8270
  222MOL0     C30565   4.779   9.922   2.094 -0.4325 -0.4060 -0.1435
  222MOL0     C30566   4.663  10.010   2.146  0.2394 -0.6401  0.2479
  222MOL0     H30567   4.471  10.066   1.723 -1.9987  1.7896 -3.5304
  222MOL0     H30568   4.300  10.032   1.555 -0.2051  0.6059 -0.6617
  222MOL0     H30569   4.128   9.793   1.351  1.3014 -0.2446 -0.0189
  222MOL0     H30570   4.221   9.936   1.395 -0.0596 -0.4952 -0.8987
  222MOL0     H30571   3.995  10.044   1.474 -4.4950 -0.1246 -0.0443
  222MOL0     H30572   3.977   9.958   1.319  0.5545  0.5500 -0.1082
  222MOL0     H30573   3.793   9.928   1.447  1.3712  3.0607  0.3323
  222MOL0     H30574   3.873   9.777   1.399 -3.9067  0.6157 -0.2549
  222MOL0     H30575   3.770   9.754   1.609 -0.0140  0.4598 -1.8208
  222MOL0     H30576   3.954   9.750   1.643 -0.2651  1.9741  2.4713
  222MOL0     H30577   3.949   9.995   1.713 -3.0232  2.8820  3.1797
  222MOL0     H30578   3.858   9.888   1.807  1.7562  0.8456  0.0547
  222MOL0     H30579   3.744  10.059   1.591 -1.5605  0.9764 -0.0646
  222MOL0     H30580   3.652   9.954   1.687  0.2682  0.3587 -1.9941
  222MOL0     H30581   3.728  10.065   1.902  0.8051 -0.3130  0.5219
  222MOL0     H30582   3.625  10.162   1.793  0.7170  1.2311  3.9796
  222MOL0     H30583   3.874  10.226   1.695  1.2245 -4.2673  0.0981
  222MOL0     H30584   3.754  10.322   1.783  0.9381 -0.1280  0.1809
  222MOL0     H30585   4.039  10.048   1.925 -3.1302 -0.8559  1.1219
  222MOL0     H30586   4.313  10.247   2.107  1.6821 -0.8813  3.6960
  222MOL0     H30587   4.268  10.116   1.991 -1.1316 -0.2919 -0.8983
  222MOL0     H30588   4.146   9.997   2.174  1.3563 -1.6172 -0.1216
  222MOL0     H30589   4.325  10.025   2.212  1.4033  1.8060 -0.4562
  222MOL0     H30590   4.099  10.216   2.301  0.0046  0.8786 -0.2442
  222MOL0     H30591   4.144  10.072   2.392  2.2598  2.4242  3.3896
  222MOL0     H30592   4.385  10.159   2.408  0.1155  0.9705  2.3475
  222MOL0     H30593   4.318  10.307   2.339  3.4961 -1.0377  1.0617
  222MOL0     H30594   4.510  10.344   2.513 -0.8140 -1.7040 -0.5455
  222MOL0     H30595   4.729  10.445   2.768 -1.7082  4.4143  1.2036
  222MOL0     H30596   4.700  10.558   2.645 -1.4164  0.8484 -0.9099
  222MOL0     H30597   4.710  10.380   2.603  3.0767 -1.1204  1.2624
  222MOL0     H30598   4.497  10.858   3.089  1.3500  3.0188  0.5923
  222MOL0     H30599   4.641  10.975   3.234 -4.4785 -0.0517 -2.2656
  222MOL0     H30600   4.853  11.118   3.219 -0.1075 -0.8177 -0.0251
  222MOL0     H30601   4.817  11.049   3.373  0.3982  0.3004  1.4990
  222MOL0     H30602   5.116  11.077   3.296 -0.2880  3.2530 -1.5799
  222MOL0     H30603   5.026  11.211   3.356  1.5236  1.0841 -1.9130
  222MOL0     H30604   5.074  10.936   3.471 -0.9389  0.8668 -1.5935
  222MOL0     H30605   4.973  11.057   3.564 -2.3454 -3.7492 -1.4112
  222MOL0     H30606   5.265  11.093   3.508  0.0403  3.6814  0.7176
  222MOL0     H30607   5.213  11.037   3.657  2.7563  2.3340  0.4396
  222MOL0     H30608   5.182  11.317   3.523 -0.6073  2.9973  3.1620
  222MOL0     H30609   5.072  11.276   3.642  0.0728  0.5004 -0.4646
  222MOL0     H30610   5.360  11.273   3.692  1.3286 -0.4372  2.0688
  222MOL0     H30611   5.247  11.196   3.808  0.6502  0.5762 -0.6079
  222MOL0     H30612   5.289  11.417   3.884 -0.4975 -3.0564 -0.3149
  222MOL0     H30613   5.135  11.397   3.838  0.8706  1.0788  2.3194
  222MOL0     H30614   5.197  11.509   3.605  0.2192  2.7336 -0.8391
  222MOL0     H30615   5.353  11.553   3.690  0.4290  0.4032  0.7021
  222MOL0     H30616   4.973  10.766   3.058 -0.2875 -2.0176  1.0219
  222MOL0     H30617   4.817  10.649   2.903 -2.4745 -4.0577  2.5530
  222MOL0     H30618   4.270  10.455   2.929  0.5729  0.6494  0.0577
  222MOL0     H30619   4.160  10.312   2.752  1.0042 -1.8882  1.7188
  222MOL0     H30620   4.214   9.652   1.728  0.1225 -0.2170 -2.2201
  222MOL0     H30621   4.384   9.697   1.917 -0.0667 -0.5855 -1.3618
  222MOL0     H30622   4.898   9.677   1.880 -4.7312 -1.8614  0.6659
  222MOL0     H30623   5.074   9.668   2.042 -0.0930 -0.7805 -1.2912
  222MOL0     H30624   5.012   9.913   2.403 -0.7440 -0.6633 -1.9694
  222MOL0     H30625   5.151   9.822   2.459 -3.0333  0.5049  2.0892
  222MOL0     H30626   5.166  10.052   2.253 -2.1605 -2.0975 -0.6270
  222MOL0     H30627   5.298   9.950   2.304 -0.7745  0.8265 -1.3304
  222MOL0     H30628   5.181  10.126   2.519 -0.3618  1.3167 -3.5257
  222MOL0     H30629   5.286   9.986   2.536  0.2835 -0.4294 -0.6161
  222MOL0     H30630   5.464  10.116   2.445 -0.3563 -0.8054  0.4095
  222MOL0     H30631   5.361  10.231   2.534  0.1557 -3.5311  3.5868
  222MOL0     H30632   5.352  10.365   2.128 -0.5021  1.2991  0.6324
  222MOL0     H30633   4.869   9.947   2.282  3.4352 -0.8174  0.2270
  222MOL0     H30634   4.637  10.086   2.071  1.2744 -1.1982 -0.7013
  222MOL0     H30635   4.575   9.946   2.150  1.2894 -2.2568 -1.3256
  222MOL0     H30636   4.677  10.067   2.238 -4.5146  1.8518 -0.2344
  223MOL0     O30637   0.178   5.719   1.264  0.6378 -0.2904  0.1717
  223MOL0     C30638   0.251   5.734   1.165 -0.1419 -0.0950 -0.3860
  223MOL0     O30639   0.381   5.777   1.169  0.1285  0.3100 -0.0724
  223MOL0     C30640   0.429   5.763   1.295 -0.4343 -0.3889 -0.0412
  223MOL0     C30641   0.494   5.656   1.339 -0.1598  0.4709  0.3305
  223MOL0     C30642   0.541   5.646   1.473 -0.0821  0.9523 -0.4956
  223MOL0     C30643   0.531   5.751   1.567 -0.3528 -0.8679 -0.3480
  223MOL0     O30644   0.574   5.748   1.704 -0.6706 -0.1387  0.5950
  223MOL0     C30645   0.556   5.617   1.755  0.7350  0.1876 -0.4692
  223MOL0     C30646   0.533   5.644   1.908 -1.2682  0.9519  0.4294
  223MOL0     C30647   0.541   5.516   1.997  0.7649 -0.2709  0.5813
  223MOL0     C30648   0.659   5.435   1.964  0.0839 -0.9203 -0.2638
  223MOL0     C30649   0.708   5.363   2.092  0.1041 -0.1857 -1.2117
  223MOL0     C30650   0.624   5.239   2.112  0.2865 -0.4396  0.2510
  223MOL0     C30651   0.661   5.146   2.222 -0.6887 -0.1580  0.2581
  223MOL0     C30652   0.605   5.190   2.356 -0.5471  0.7535  0.1928
  223MOL0     N30653   0.639   5.092   2.462 -0.1996 -0.2086  0.1092
  223MOL0     C30654   0.544   5.006   2.515  0.9866  0.0913  0.7073
  223MOL0     C30655   0.606   4.906   2.576 -0.0758  0.4530 -0.4312
  223MOL0     C30656   0.552   4.787   2.650  0.5084 -0.5518  0.9718
  223MOL0     C30657   0.477   4.689   2.558  0.3891  0.5965 -0.1503
  223MOL0     C30658   0.558   4.643   2.434 -0.8073  0.3478 -0.6906
  223MOL0     C30659   0.690   4.557   2.467 -0.0595 -1.0969 -0.5133
  223MOL0     O30660   0.682   4.450   2.567  0.3910  0.1659  0.3251
  223MOL0     C30661   0.589   4.353   2.542 -0.7805 -1.1912 -0.0784
  223MOL0     C30662   0.542   4.310   2.414 -0.7244  0.8863 -0.7717
  223MOL0     C30663   0.453   4.205   2.393  1.0750 -0.4641  0.1614
  223MOL0     C30664   0.408   4.171   2.256 -1.0546 -0.3750  0.2394
  223MOL0     C30665   0.409   4.140   2.507  0.2713 -0.1961 -0.1317
  223MOL0     C30666   0.309   4.035   2.508  0.0066  1.3180 -0.3910
  223MOL0     O30667   0.298   3.958   2.399  0.5765  0.0940 -0.2170
  223MOL0     C30668   0.207   3.849   2.399 -0.3342  0.2661  0.1314
  223MOL0     C30669   0.227   3.744   2.490  0.9834  0.2521 -0.2835
  223MOL0     C30670   0.165   3.623   2.457  1.0506 -0.0722  1.1228
  223MOL0     C30671   0.073   3.601   2.351 -0.6289 -0.1589  0.3013
  223MOL0     O30672   0.038   3.474   2.332  0.1571  0.0589  0.9781
  223MOL0     C30673  -0.029   3.446   2.217  0.2800  1.0769 -0.6179
  223MOL0     C30674  -0.054   3.302   2.228  1.4602 -0.6669 -0.1849
  223MOL0     C30675  -0.100   3.245   2.096 -0.0135  0.6953  0.3612
  223MOL0     C30676  -0.120   3.097   2.119  1.0148  0.8226  1.0360
  223MOL0     C30677  -0.150   3.038   1.971 -0.6635 -0.4485 -0.4699
  223MOL0     C30678  -0.235   2.910   1.973  0.0826  0.1733 -0.4484
  223MOL0     C30679  -0.264   2.855   1.836  0.0851 -0.5625  0.6676
  223MOL0     C30680  -0.337   2.727   1.837  0.1817 -0.0361 -0.7224
  223MOL0    Cl30681  -0.240   2.583   1.876  0.1110  0.0065  0.2008
  223MOL0     C30682   0.067   3.705   2.251  0.5869 -0.5446 -0.1942
  223MOL0     C30683   0.126   3.831   2.284 -0.3554  0.3055  0.2701
  223MOL0     O30684   0.245   4.014   2.617 -0.4417  0.1350 -0.4014
  223MOL0     C30685   0.447   4.191   2.636  0.2207 -0.1305 -0.3489
  223MOL0     C30686   0.537   4.298   2.653  0.8312 -0.0441 -0.0974
  223MOL0     N30687   0.741   4.920   2.550 -0.1126 -0.6159 -0.0204
  223MOL0     N30688   0.755   5.034   2.492  0.0589  0.3389  0.3359
  223MOL0     C30689   0.455   5.861   1.519 -0.4515  0.3751 -0.3203
  223MOL0     C30690   0.405   5.865   1.386  0.8304 -1.0522 -0.5100
  223MOL0     C30691   0.193   5.698   1.033 -0.2607 -0.3922 -1.4700
  223MOL0     C30692   0.051   5.689   1.024  0.2596  0.5029  0.0215
  223MOL0     C30693  -0.019   5.678   0.902 -0.7543 -0.5944  0.1709
  223MOL0     C30694   0.050   5.659   0.785 -0.1841 -0.4735 -0.0281
  223MOL0     O30695  -0.031   5.634   0.676  0.1899 -0.2743 -0.7433
  223MOL0     C30696   0.031   5.586   0.552 -0.9075  0.1596 -0.0613
  223MOL0     C30697   0.063   5.437   0.565  0.4932 -0.3019 -0.2128
  223MOL0     C30698  -0.070   5.370   0.611 -0.3813 -0.3165 -0.4972
  223MOL0     C30699  -0.069   5.223   0.570 -0.4859 -0.2556  0.6180
  223MOL0     C30700  -0.196   5.156   0.585 -0.4384 -0.5299 -0.0669
  223MOL0     C30701  -0.305   5.098   0.594  0.0341  0.4952 -0.3547
  223MOL0     C30702   0.192   5.654   0.791  0.6905  0.6974  0.2875
  223MOL0     C30703   0.264   5.676   0.911 -0.0218  0.0089 -0.7819
  223MOL0     C30704   0.412   5.692   0.904  0.2596 -0.3410  0.5038
  223MOL0     H30705   0.496   5.571   1.271 -3.5889  0.5793 -0.0508
  223MOL0     H30706   0.598   5.558   1.499  2.0926  2.4120 -0.0829
  223MOL0     H30707   0.630   5.547   1.715 -1.8056 -2.0940 -1.4841
  223MOL0     H30708   0.458   5.584   1.719 -0.1994  0.2603  1.8354
  223MOL0     H30709   0.610   5.714   1.941  3.1096 -2.0305 -2.2852
  223MOL0     H30710   0.433   5.684   1.926 -1.5477  0.6335 -0.3874
  223MOL0     H30711   0.535   5.543   2.103  1.5130  1.6192  0.1851
  223MOL0     H30712   0.451   5.459   1.973 -0.0007  1.4943 -0.9562
  223MOL0     H30713   0.650   5.364   1.882  0.7056 -4.0671  2.1981
  223MOL0     H30714   0.747   5.496   1.941 -0.8392  2.1805  3.3311
  223MOL0     H30715   0.701   5.430   2.178  2.4185 -0.4959 -0.7269
  223MOL0     H30716   0.814   5.349   2.071  0.3987 -0.3507  0.2818
  223MOL0     H30717   0.517   5.263   2.120  0.0201 -1.0599 -1.1791
  223MOL0     H30718   0.630   5.183   2.019 -0.8532  0.3814 -0.3531
  223MOL0     H30719   0.770   5.142   2.233 -0.3849  0.3687 -1.9639
  223MOL0     H30720   0.641   5.043   2.190  1.8439 -0.7067  0.1663
  223MOL0     H30721   0.652   5.285   2.383  0.5292 -0.1476  1.6939
  223MOL0     H30722   0.497   5.210   2.351 -0.8574 -0.2877  1.7686
  223MOL0     H30723   0.436   5.021   2.521  1.0836  0.3066  3.8810
  223MOL0     H30724   0.481   4.832   2.720 -0.8907  0.4333 -1.0017
  223MOL0     H30725   0.634   4.730   2.694 -0.2178 -3.7074 -1.4273
  223MOL0     H30726   0.452   4.603   2.621  3.2459 -0.2270 -0.0229
  223MOL0     H30727   0.384   4.737   2.526 -0.0034 -1.2452 -1.9732
  223MOL0     H30728   0.492   4.573   2.381 -5.0476  0.9068  3.2325
  223MOL0     H30729   0.591   4.732   2.381 -1.0341  1.0830  0.3697
  223MOL0     H30730   0.732   4.511   2.377  0.9737 -1.4590  0.1354
  223MOL0     H30731   0.766   4.624   2.508  0.1759 -0.8485 -1.3343
  223MOL0     H30732   0.585   4.363   2.330  0.3539  2.4212  0.6683
  223MOL0     H30733   0.443   4.068   2.245 -0.4716 -0.3788  1.8730
  223MOL0     H30734   0.459   4.239   2.186 -0.2322  0.0616  1.2414
  223MOL0     H30735   0.300   4.176   2.243 -1.1497 -0.5910  0.9159
  223MOL0     H30736   0.303   3.766   2.564 -0.6819  2.3681  0.9218
  223MOL0     H30737   0.175   3.539   2.525  0.5110 -1.4787 -0.4813
  223MOL0     H30738  -0.124   3.500   2.217  0.4009  1.3067  0.5302
  223MOL0     H30739   0.026   3.474   2.127 -0.1219  1.6947 -0.6787
  223MOL0     H30740   0.035   3.251   2.267  1.8989 -0.1609 -0.5057
  223MOL0     H30741  -0.133   3.282   2.301  1.7667  1.2591  0.7553
  223MOL0     H30742  -0.024   3.259   2.019 -2.7335  0.2986 -2.5863
  223MOL0     H30743  -0.187   3.295   2.054 -1.7295 -0.9916  1.7331
  223MOL0     H30744  -0.217   3.094   2.170 -0.3166 -0.6192 -1.3594
  223MOL0     H30745  -0.036   3.054   2.173  2.0310  1.2984 -0.1132
  223MOL0     H30746  -0.204   3.104   1.904  0.0201 -0.7022 -1.2890
  223MOL0     H30747  -0.050   3.017   1.931  0.9345  2.8521  1.3925
  223MOL0     H30748  -0.327   2.926   2.029  0.9031 -0.1300  1.0284
  223MOL0     H30749  -0.174   2.833   2.021 -1.9443  0.8305  3.6118
  223MOL0     H30750  -0.175   2.859   1.772 -0.9927  0.0926 -0.8455
  223MOL0     H30751  -0.328   2.926   1.783  0.4249 -2.2473 -2.2019
  223MOL0     H30752  -0.378   2.724   1.736 -0.3876 -0.9704 -0.4725
  223MOL0     H30753  -0.412   2.707   1.914  2.0319 -2.1491  0.6850
  223MOL0     H30754   0.024   3.679   2.155 -1.2699 -2.9565  1.1780
  223MOL0     H30755   0.115   3.910   2.210  1.7167  0.8143  0.4602
  223MOL0     H30756   0.415   4.144   2.728  1.3681  2.1114  1.2815
  223MOL0     H30757   0.571   4.335   2.749 -2.2899  3.6608 -0.1777
  223MOL0     H30758   0.431   5.945   1.583 -1.3353 -1.3932  1.7850
  223MOL0     H30759   0.344   5.947   1.351  0.0568 -2.2365 -2.0478
  223MOL0     H30760  -0.013   5.700   1.111  0.1749 -0.3117  0.0686
  223MOL0     H30761  -0.126   5.694   0.909 -0.4644  0.8238  1.9602
  223MOL0     H30762  -0.047   5.604   0.478 -1.4601  4.7537  1.3003
  223MOL0     H30763   0.116   5.651   0.528 -0.4695 -0.0955  0.7436
  223MOL0     H30764   0.139   5.430   0.644  0.6641 -0.0084 -0.3469
  223MOL0     H30765   0.102   5.396   0.471  2.1385 -0.2431  0.4134
  223MOL0     H30766  -0.100   5.382   0.716  1.0212  0.4031 -0.1564
  223MOL0     H30767  -0.151   5.424   0.562 -0.0493  0.8418  0.2009
  223MOL0     H30768   0.008   5.166   0.622  0.6461  0.5538 -0.1075
  223MOL0     H30769  -0.052   5.225   0.462 -0.8807 -0.7913  0.5402
  223MOL0     H30770  -0.381   5.023   0.593  1.7647 -1.4394  2.2849
  223MOL0     H30771   0.236   5.648   0.692 -0.2520  1.1504 -0.1730
  223MOL0     H30772   0.457   5.613   0.965 -0.9098 -2.0461 -0.7270
  223MOL0     H30773   0.450   5.679   0.802 -2.3203 -3.2571 -0.2459
  223MOL0     H30774   0.439   5.793   0.936  1.4952 -0.8731  1.2172
  224MOL0     O30775   8.373  10.773   2.686  0.6314 -0.4980 -0.0883
  224MOL0     C30776   8.407  10.874   2.627  0.2855 -0.7158  0.2691
  224MOL0     O30777   8.359  11.001   2.642  0.3089 -0.8052  0.4819
  224MOL0     C30778   8.278  11.035   2.747  0.1075 -0.0513  0.6325
  224MOL0     C30779   8.319  11.136   2.845 -0.8985 -0.6595  0.6978
  224MOL0     C30780   8.241  11.166   2.956  0.6200  0.1719 -0.9780
  224MOL0     C30781   8.128  11.084   2.988 -0.5432 -0.4303  1.0364
  224MOL0     O30782   8.064  11.106   3.106 -0.1075  1.3084  0.1252
  224MOL0     C30783   7.933  11.057   3.134  0.2999 -1.0719  0.5673
  224MOL0     C30784   7.945  10.924   3.209 -0.2339 -1.1250  0.5001
  224MOL0     C30785   7.803  10.884   3.263 -0.5787  0.0811  0.0103
  224MOL0     C30786   7.814  10.741   3.297 -0.6639  0.7403  0.0600
  224MOL0     C30787   7.688  10.690   3.351 -0.0957 -0.6106 -1.0814
  224MOL0     C30788   7.686  10.569   3.434 -0.0570 -0.3636  0.2997
  224MOL0     C30789   7.789  10.458   3.396 -0.3140 -0.1567 -0.1156
  224MOL0     C30790   7.903  10.418   3.494 -0.4865  0.6163  0.4340
  224MOL0     N30791   7.876  10.374   3.629 -0.0803  0.5276 -0.4211
  224MOL0     C30792   7.831  10.253   3.673  0.5373 -0.7874 -0.7056
  224MOL0     C30793   7.827  10.258   3.807  0.2078 -0.2393 -0.0067
  224MOL0     C30794   7.775  10.152   3.900 -0.6683  0.1236  0.1997
  224MOL0     C30795   7.843  10.160   4.040 -0.0273 -0.4695 -0.2208
  224MOL0     C30796   7.942  10.040   4.048 -1.3076 -0.0543  0.3275
  224MOL0     C30797   7.876   9.904   4.080 -0.0632 -1.0429  0.1680
  224MOL0     O30798   7.780   9.911   4.184 -0.4954  0.3995  0.5060
  224MOL0     C30799   7.725   9.791   4.234  0.6382 -0.4504 -0.8188
  224MOL0     C30800   7.618   9.816   4.325  0.4781  0.1185  0.7737
  224MOL0     C30801   7.553   9.713   4.389 -0.2095  0.2221 -0.2455
  224MOL0     C30802   7.453   9.756   4.489 -0.7978  0.5270  0.1989
  224MOL0     C30803   7.588   9.575   4.355  1.2253  0.9531  0.2675
  224MOL0     C30804   7.522   9.456   4.428  0.8378 -0.1026 -0.1744
  224MOL0     O30805   7.386   9.460   4.452  0.4493  0.7349 -0.3409
  224MOL0     C30806   7.331   9.352   4.505 -1.0545  0.6684 -0.0925
  224MOL0     C30807   7.264   9.370   4.631 -0.9698  0.6911 -0.4497
  224MOL0     C30808   7.190   9.264   4.692  0.0114  0.1396  0.3044
  224MOL0     C30809   7.173   9.144   4.630 -0.0171 -0.6271 -0.5298
  224MOL0     O30810   7.114   9.034   4.676 -0.6657  0.3303 -0.5697
  224MOL0     C30811   7.049   9.023   4.802 -0.2656 -0.0672 -0.0047
  224MOL0     C30812   6.904   9.066   4.794 -0.4486 -0.5790 -0.0368
  224MOL0     C30813   6.837   9.030   4.669 -0.5632  0.0673  0.2259
  224MOL0     C30814   6.876   9.117   4.541 -0.7046  1.0973 -0.5021
  224MOL0     C30815   6.762   9.112   4.441  0.0776  1.0852  0.5165
  224MOL0     C30816   6.732   8.970   4.376  0.8726 -1.3893 -0.0903
  224MOL0     C30817   6.636   8.872   4.451  0.1745  0.1550  0.9834
  224MOL0     C30818   6.569   8.777   4.350  0.0648 -0.4190 -0.3828
  224MOL0    Cl30819   6.490   8.647   4.440  0.0975  0.1716 -0.3578
  224MOL0     C30820   7.242   9.123   4.510  0.5751  0.2138  0.1789
  224MOL0     C30821   7.307   9.224   4.446 -0.0846  1.1087 -0.1567
  224MOL0     O30822   7.593   9.353   4.449  0.6468 -1.0229  1.0848
  224MOL0     C30823   7.698   9.553   4.269  0.3107  0.8462 -0.6964
  224MOL0     C30824   7.764   9.656   4.204 -0.4080  0.1406  0.8842
  224MOL0     N30825   7.849  10.391   3.844  0.0542 -0.1745 -0.3680
  224MOL0     N30826   7.863  10.466   3.737  0.0535  1.0279  0.4914
  224MOL0     C30827   8.083  10.991   2.889 -0.4116 -0.2184 -0.0997
  224MOL0     C30828   8.157  10.972   2.773  0.9001 -0.9696  0.1764
  224MOL0     C30829   8.508  10.854   2.520  0.4118 -0.7351 -0.1943
  224MOL0     C30830   8.485  10.747   2.439  0.1410 -0.3898  0.7205
  224MOL0     C30831   8.564  10.710   2.336 -0.0638 -0.7012  0.5845
  224MOL0     C30832   8.681  10.785   2.311  0.1995 -0.0373  0.7336
  224MOL0     O30833   8.758  10.762   2.193  0.0449  0.5849 -0.0582
  224MOL0     C30834   8.721  10.653   2.109  0.2669 -0.7214  0.2751
  224MOL0     C30835   8.819  10.635   1.998  0.4893 -0.3642  0.2394
  224MOL0     C30836   8.777  10.743   1.884  0.1092  0.4680 -0.5010
  224MOL0     C30837   8.779  10.896   1.927 -0.5561  0.5643  0.3895
  224MOL0     C30838   8.771  10.977   1.802 -0.2244 -0.3836 -0.5745
  224MOL0     C30839   8.773  11.042   1.700 -0.6565 -0.5508  0.6364
  224MOL0     C30840   8.705  10.895   2.391 -1.0987 -1.6300  0.0335
  224MOL0     C30841   8.618  10.938   2.493 -0.6150 -0.4929 -0.9355
  224MOL0     C30842   8.650  11.065   2.570  0.8370  0.8379  0.8466
  224MOL0     H30843   8.419  11.178   2.833 -0.1110 -2.6934 -0.5722
  224MOL0     H30844   8.259  11.256   3.013 -3.1061  1.1198 -1.0303
  224MOL0     H30845   7.868  11.059   3.045 -0.4702  1.7223  1.1115
  224MOL0     H30846   7.882  11.124   3.204  0.8099 -1.8553  1.7110
  224MOL0     H30847   7.971  10.859   3.125 -0.3734  4.0676 -4.0483
  224MOL0     H30848   8.017  10.934   3.292  1.3317  3.0070 -1.1267
  224MOL0     H30849   7.769  10.939   3.350  0.5882 -1.7775  1.7362
  224MOL0     H30850   7.732  10.887   3.180 -1.6461  0.0926  0.9178
  224MOL0     H30851   7.837  10.685   3.205  2.3248 -0.4451  1.3844
  224MOL0     H30852   7.898  10.727   3.366 -2.7055  2.1573  3.0149
  224MOL0     H30853   7.627  10.667   3.263 -2.4266 -0.8570  0.5071
  224MOL0     H30854   7.634  10.765   3.409  0.8960 -0.7483  0.0606
  224MOL0     H30855   7.708  10.601   3.536  0.6903  1.4903 -0.4038
  224MOL0     H30856   7.586  10.525   3.426 -0.8802  1.6801 -1.8145
  224MOL0     H30857   7.842  10.483   3.304 -2.9022  0.0772 -1.6334
  224MOL0     H30858   7.728  10.370   3.371 -3.0353  1.9465 -1.4902
  224MOL0     H30859   7.974  10.348   3.450 -3.1441 -1.2953 -1.0816
  224MOL0     H30860   7.965  10.508   3.497  3.2048 -1.7333  0.9574
  224MOL0     H30861   7.823  10.162   3.613  0.0747 -0.0117 -1.8459
  224MOL0     H30862   7.788  10.054   3.853 -1.9162  1.3781 -3.0442
  224MOL0     H30863   7.668  10.170   3.909 -0.9517  0.9097 -3.4597
  224MOL0     H30864   7.895  10.256   4.051  0.3313 -0.5312 -1.2866
  224MOL0     H30865   7.760  10.145   4.110 -1.2640 -1.5540 -1.8566
  224MOL0     H30866   7.998  10.029   3.955 -1.7274  2.6989 -0.3417
  224MOL0     H30867   8.010  10.055   4.133 -2.1264 -5.9934  2.4966
  224MOL0     H30868   7.835   9.839   4.002  0.9292 -3.8634  1.8569
  224MOL0     H30869   7.960   9.847   4.121  0.5448  0.1801  0.6907
  224MOL0     H30870   7.593   9.919   4.350  0.0078 -0.2672  1.9676
  224MOL0     H30871   7.490   9.834   4.555 -2.4458  1.5315  0.0138
  224MOL0     H30872   7.430   9.675   4.559 -1.1515 -0.8069 -1.4057
  224MOL0     H30873   7.362   9.788   4.437  0.0339  0.6527 -1.2332
  224MOL0     H30874   7.275   9.466   4.682 -0.7966 -0.9706  2.9181
  224MOL0     H30875   7.145   9.282   4.789 -3.3260 -3.5180 -0.3325
  224MOL0     H30876   7.039   8.916   4.819  2.4249 -0.3727  0.0197
  224MOL0     H30877   7.099   9.081   4.879  0.2626  1.9443 -1.7494
  224MOL0     H30878   6.851   9.043   4.886  0.0565  0.9655  0.6726
  224MOL0     H30879   6.902   9.175   4.804  2.5864 -0.3819 -0.4914
  224MOL0     H30880   6.728   9.038   4.681 -0.6906 -1.6308  0.3685
  224MOL0     H30881   6.861   8.926   4.646  0.7004  0.2744  0.5306
  224MOL0     H30882   6.958   9.064   4.491  1.7808  2.3279  2.0283
  224MOL0     H30883   6.916   9.216   4.563  3.2611 -0.2215 -0.8137
  224MOL0     H30884   6.669   9.152   4.483  0.8426  0.5342  2.8679
  224MOL0     H30885   6.794   9.170   4.354 -4.4171  0.7023 -1.7268
  224MOL0     H30886   6.822   8.908   4.369  2.4749  0.9031 -1.4086
  224MOL0     H30887   6.693   9.002   4.280  0.7503  0.6117  0.5762
  224MOL0     H30888   6.561   8.941   4.491 -0.6478  2.1672 -3.5048
  224MOL0     H30889   6.696   8.830   4.532  2.3691  1.6042  0.2098
  224MOL0     H30890   6.647   8.723   4.294 -1.1941 -1.6404 -1.0282
  224MOL0     H30891   6.510   8.832   4.276  0.4004  2.6950  1.4718
  224MOL0     H30892   7.238   9.023   4.467  1.4325 -1.4342  3.5728
  224MOL0     H30893   7.329   9.204   4.342 -1.4857 -2.8650  0.1266
  224MOL0     H30894   7.729   9.451   4.248  1.2711  1.2473 -1.3481
  224MOL0     H30895   7.840   9.625   4.133 -0.3888 -0.9336  1.3575
  224MOL0     H30896   7.997  10.934   2.921 -0.5678 -0.4471 -0.9137
  224MOL0     H30897   8.135  10.897   2.698  4.7643  0.2074 -2.4611
  224MOL0     H30898   8.392  10.692   2.454 -1.1772  0.7446 -2.5514
  224MOL0     H30899   8.553  10.612   2.291  0.0708  0.2703 -1.7408
  224MOL0     H30900   8.730  10.567   2.177  0.4633 -0.9597 -0.0514
  224MOL0     H30901   8.624  10.678   2.065  2.1351  2.5873 -2.4324
  224MOL0     H30902   8.806  10.532   1.964  3.8014 -1.6611  2.3922
  224MOL0     H30903   8.924  10.657   2.018 -0.1569  1.4751  1.9389
  224MOL0     H30904   8.840  10.720   1.798  0.6877 -1.8199  0.4643
  224MOL0     H30905   8.677  10.731   1.842 -0.9671  1.4415  1.6311
  224MOL0     H30906   8.878  10.910   1.970 -0.1900 -1.5222  0.3363
  224MOL0     H30907   8.704  10.918   2.003 -0.5367 -2.0295  1.2475
  224MOL0     H30908   8.790  11.102   1.613  1.8244 -0.2039  1.2959
  224MOL0     H30909   8.804  10.933   2.372 -1.4380 -1.1426 -0.8484
  224MOL0     H30910   8.595  11.145   2.519 -0.0835 -1.9445 -2.8918
  224MOL0     H30911   8.618  11.060   2.674  2.2002  2.5929  1.4067
  224MOL0     H30912   8.756  11.093   2.565  0.2625  3.3745 -4.7551
  225MOL0     O30913   8.102   0.461   7.277  0.1166 -0.5463  1.0910
  225MOL0     C30914   8.158   0.479   7.383 -0.0344 -0.2518  0.5291
  225MOL0     O30915   8.287   0.504   7.395 -0.1044  0.3320 -0.0904
  225MOL0     C30916   8.366   0.501   7.277 -1.0929 -0.6959 -0.2037
  225MOL0     C30917   8.498   0.473   7.296 -0.6916  0.8739 -0.5554
  225MOL0     C30918   8.594   0.463   7.195 -0.2910 -0.2007 -0.2856
  225MOL0     C30919   8.547   0.463   7.060  0.6998  0.3921  0.3759
  225MOL0     O30920   8.627   0.442   6.953  0.4690 -0.7760 -0.2655
  225MOL0     C30921   8.645   0.300   6.921 -0.2488 -0.3179  0.1937
  225MOL0     C30922   8.735   0.298   6.794  0.1232  0.1390  0.6159
  225MOL0     C30923   8.791   0.153   6.775 -0.2664 -0.6207  0.3766
  225MOL0     C30924   8.886   0.162   6.651  0.2870  0.5809  0.2081
  225MOL0     C30925   8.865   0.036   6.566  0.7255 -0.0535  0.2492
  225MOL0     C30926   8.947   0.030   6.433 -0.7252 -0.7125 -0.3069
  225MOL0     C30927   8.904  -0.081   6.342  0.1607 -0.3582 -0.0486
  225MOL0     C30928   8.988  -0.068   6.210  0.2407  0.4203  0.6160
  225MOL0     N30929   8.920  -0.137   6.098  0.2073  0.1445 -0.6622
  225MOL0     C30930   8.852  -0.079   5.989  0.1567  0.3819  1.0750
  225MOL0     C30931   8.833  -0.185   5.906 -0.2715 -0.3993 -0.9699
  225MOL0     C30932   8.780  -0.176   5.771 -0.0656  0.5729  1.0113
  225MOL0     C30933   8.663  -0.276   5.746 -0.2782  0.1768  0.8579
  225MOL0     C30934   8.659  -0.326   5.606 -0.1963  0.0121 -0.7772
  225MOL0     C30935   8.615  -0.236   5.498  0.4916 -0.5036  0.4541
  225MOL0     O30936   8.728  -0.150   5.460  0.2845 -0.5280 -0.0335
  225MOL0     C30937   8.696  -0.055   5.366 -1.1733  0.0120 -0.2699
  225MOL0     C30938   8.573  -0.053   5.304 -0.4636 -0.3691  0.3125
  225MOL0     C30939   8.532   0.059   5.224  0.9711  1.1766 -0.4873
  225MOL0     C30940   8.391   0.051   5.176 -0.2981 -0.1303 -0.2842
  225MOL0     C30941   8.621   0.169   5.203  0.3415 -0.0947 -0.4148
  225MOL0     C30942   8.605   0.280   5.103 -0.0298  0.3557  0.5226
  225MOL0     O30943   8.663   0.397   5.138  0.9417 -0.0760 -0.1998
  225MOL0     C30944   8.641   0.512   5.067 -0.3826  0.3027  0.8456
  225MOL0     C30945   8.515   0.554   5.044 -0.0827  0.7050 -0.5089
  225MOL0     C30946   8.485   0.656   4.962  0.7685 -1.0746  0.8070
  225MOL0     C30947   8.593   0.735   4.908 -0.0322  0.8239  0.9602
  225MOL0     O30948   8.571   0.837   4.825 -0.6596  0.2183  0.7531
  225MOL0     C30949   8.640   0.966   4.839 -0.1944  0.8253 -0.0521
  225MOL0     C30950   8.568   1.063   4.751  0.5655 -1.0603 -0.7004
  225MOL0     C30951   8.436   1.100   4.824  1.1612  0.6052 -0.1700
  225MOL0     C30952   8.415   1.259   4.848 -0.2896  0.0485 -1.0599
  225MOL0     C30953   8.435   1.357   4.733  0.1849  1.1086  0.0376
  225MOL0     C30954   8.356   1.316   4.604  0.5457  0.8590  0.4109
  225MOL0     C30955   8.196   1.334   4.623 -0.5552  0.3337 -0.8061
  225MOL0     C30956   8.113   1.234   4.540 -0.3399 -0.9003  0.5852
  225MOL0    Cl30957   7.947   1.281   4.573  0.1428 -0.0166  0.0468
  225MOL0     C30958   8.725   0.696   4.944  0.4100  0.0257 -0.0520
  225MOL0     C30959   8.751   0.579   5.012  0.3242  0.2919  0.9131
  225MOL0     O30960   8.536   0.258   5.000 -0.4141  0.7551 -0.0567
  225MOL0     C30961   8.749   0.160   5.270  0.7454  0.5695  0.5526
  225MOL0     C30962   8.789   0.051   5.350  0.6791  0.2548  0.5382
  225MOL0     N30963   8.888  -0.297   5.963  0.2903  0.4732  0.9112
  225MOL0     N30964   8.936  -0.271   6.077 -0.0230 -0.4479  0.1922
  225MOL0     C30965   8.419   0.517   7.039 -0.9350  0.3541 -0.3277
  225MOL0     C30966   8.338   0.542   7.151  0.4875  0.3494  0.2028
  225MOL0     C30967   8.078   0.498   7.504  0.1539  1.1236  0.5531
  225MOL0     C30968   7.963   0.577   7.507  0.1498 -0.0783 -0.4318
  225MOL0     C30969   7.879   0.579   7.617 -0.1795 -0.5001 -0.2611
  225MOL0     C30970   7.904   0.506   7.729 -0.1451  0.5622  0.3277
  225MOL0     O30971   7.818   0.504   7.833  0.0460 -0.0765 -0.1510
  225MOL0     C30972   7.719   0.405   7.822  0.2592  0.6227 -0.3721
  225MOL0     C30973   7.768   0.257   7.848 -0.6079 -0.0791  0.8623
  225MOL0     C30974   7.818   0.235   7.995  0.6486 -0.3192  0.5670
  225MOL0     C30975   7.873   0.354   8.092  0.4085  0.7568 -0.3310
  225MOL0     C30976   7.893   0.291   8.221  0.8174 -0.1342  0.6078
  225MOL0     C30977   7.889   0.250   8.336  0.5138  1.0410 -0.8600
  225MOL0     C30978   8.022   0.445   7.738 -0.7311  1.1495  0.1455
  225MOL0     C30979   8.107   0.434   7.627  0.1984 -0.4270 -0.2484
  225MOL0     C30980   8.232   0.351   7.627  0.3492 -0.8724 -1.8310
  225MOL0     H30981   8.534   0.459   7.398 -1.1087 -0.3920 -0.5711
  225MOL0     H30982   8.699   0.442   7.213 -0.3802  0.6622  1.5175
  225MOL0     H30983   8.545   0.266   6.892  0.1445 -1.9787  0.6851
  225MOL0     H30984   8.683   0.236   7.001 -0.3026  1.6768  1.8994
  225MOL0     H30985   8.675   0.319   6.705  0.1139 -0.1266  0.5589
  225MOL0     H30986   8.807   0.380   6.800  0.3639 -0.0803  0.7196
  225MOL0     H30987   8.851   0.137   6.865  2.3130  0.0849 -1.1136
  225MOL0     H30988   8.709   0.083   6.759 -1.6849  0.8547  0.7926
  225MOL0     H30989   8.841   0.235   6.584  1.2582 -1.3790 -2.7786
  225MOL0     H30990   8.989   0.194   6.672  0.3123  1.0391 -0.5741
  225MOL0     H30991   8.760   0.039   6.536  0.1019  1.2033  2.3497
  225MOL0     H30992   8.882  -0.055   6.624 -3.2587 -0.2605  1.3367
  225MOL0     H30993   8.919   0.122   6.382 -0.8951 -0.4749  0.2037
  225MOL0     H30994   9.054   0.033   6.455 -1.2720  2.1223  2.8772
  225MOL0     H30995   8.797  -0.062   6.329  0.4499  3.2255  1.6530
  225MOL0     H30996   8.919  -0.175   6.395  3.3694  0.8573  1.4967
  225MOL0     H30997   9.028   0.033   6.194  2.0527  0.1931  3.1284
  225MOL0     H30998   9.074  -0.133   6.230 -0.1128  0.5768  2.9533
  225MOL0     H30999   8.818   0.023   5.980 -0.0526  0.4009  1.9930
  225MOL0     H31000   8.857  -0.199   5.696 -0.8585 -2.6888  1.0370
  225MOL0     H31001   8.747  -0.073   5.757  0.1034  0.6230  0.9844
  225MOL0     H31002   8.684  -0.363   5.809  0.1627 -0.0168  0.4495
  225MOL0     H31003   8.562  -0.243   5.770 -2.0184 -1.4797 -3.3686
  225MOL0     H31004   8.748  -0.377   5.568 -2.2147 -1.7171 -3.5772
  225MOL0     H31005   8.601  -0.419   5.618  1.0663 -0.5035  2.2796
  225MOL0     H31006   8.576  -0.300   5.418 -1.0388  0.8569  0.0596
  225MOL0     H31007   8.533  -0.171   5.532 -0.0383 -0.6665 -0.4847
  225MOL0     H31008   8.506  -0.136   5.325  0.7849 -1.2240  1.0416
  225MOL0     H31009   8.327  -0.002   5.246  0.8349 -2.1093 -0.6456
  225MOL0     H31010   8.408  -0.017   5.092 -0.4280 -3.2238  2.0081
  225MOL0     H31011   8.349   0.146   5.144 -2.9470 -1.8911 -2.4659
  225MOL0     H31012   8.429   0.502   5.084 -0.1972 -0.0098 -1.6382
  225MOL0     H31013   8.384   0.674   4.925  0.0925 -0.4250  2.8118
  225MOL0     H31014   8.633   1.005   4.941 -2.6678 -1.8383  0.9591
  225MOL0     H31015   8.743   0.965   4.802 -1.5826 -2.0062 -4.6609
  225MOL0     H31016   8.626   1.156   4.752 -1.6018  0.3711  0.4510
  225MOL0     H31017   8.564   1.021   4.650  5.0445 -1.4731 -0.8835
  225MOL0     H31018   8.422   1.053   4.921 -6.6468  1.4854 -0.1974
  225MOL0     H31019   8.353   1.057   4.765  1.3428 -2.0359  1.3398
  225MOL0     H31020   8.486   1.283   4.928 -1.9331 -1.2024  0.8951
  225MOL0     H31021   8.317   1.280   4.893 -0.5198 -3.8221  0.7093
  225MOL0     H31022   8.395   1.447   4.781  1.3380  2.0802 -0.7533
  225MOL0     H31023   8.542   1.368   4.711  0.8663 -1.6834  1.4964
  225MOL0     H31024   8.383   1.217   4.565 -0.5225  0.0107  1.7690
  225MOL0     H31025   8.384   1.386   4.524 -0.3587  0.4753 -0.2564
  225MOL0     H31026   8.176   1.438   4.599  3.3302  0.7595 -2.9902
  225MOL0     H31027   8.160   1.321   4.726  0.5576 -0.6652 -0.5207
  225MOL0     H31028   8.137   1.131   4.570  3.5081  0.2161  1.9810
  225MOL0     H31029   8.139   1.237   4.434  0.0433 -3.1174  0.5498
  225MOL0     H31030   8.815   0.742   4.904 -1.1042  3.5285  0.1385
  225MOL0     H31031   8.849   0.531   5.010 -1.2645 -3.2662 -1.6007
  225MOL0     H31032   8.822   0.238   5.250 -0.8894  1.8221 -0.8989
  225MOL0     H31033   8.892   0.054   5.383  1.7293 -0.1622 -2.3891
  225MOL0     H31034   8.403   0.538   6.934 -0.2063  2.7654 -0.0127
  225MOL0     H31035   8.242   0.582   7.122 -1.0996 -1.6045  2.4208
  225MOL0     H31036   7.945   0.637   7.418 -0.5427  0.7988  0.2808
  225MOL0     H31037   7.797   0.650   7.617 -1.6545 -2.1125  0.9525
  225MOL0     H31038   7.637   0.422   7.892 -1.2719 -1.8873 -1.4462
  225MOL0     H31039   7.665   0.417   7.727  1.1531  0.3620 -0.9248
  225MOL0     H31040   7.846   0.234   7.774 -1.3516 -0.0336  0.0436
  225MOL0     H31041   7.682   0.193   7.827  0.7324 -1.4987 -0.5658
  225MOL0     H31042   7.740   0.185   8.052 -1.0836  2.1017  0.4882
  225MOL0     H31043   7.906   0.171   7.983 -1.1639 -2.7413 -0.5783
  225MOL0     H31044   7.793   0.421   8.124 -2.1368 -2.3123  0.2176
  225MOL0     H31045   7.963   0.405   8.056  1.5119 -2.2612 -2.2386
  225MOL0     H31046   7.876   0.213   8.436  0.4050 -4.0448 -2.4702
  225MOL0     H31047   8.035   0.393   7.832 -1.4204 -0.1243 -0.4329
  225MOL0     H31048   8.264   0.290   7.542  0.2761 -1.6658 -1.3102
  225MOL0     H31049   8.308   0.429   7.640 -0.1673 -0.2019 -2.7549
  225MOL0     H31050   8.233   0.270   7.701  1.0975 -1.6696 -2.6828
  226MOL0     O31051   9.966  11.420   8.915  0.0745 -0.3969 -0.7777
  226MOL0     C31052   9.910  11.321   8.883  0.4380 -0.7473  0.7491
  226MOL0     O31053   9.972  11.204   8.845 -0.1345  1.0184  0.7505
  226MOL0     C31054  10.107  11.163   8.863 -0.3515 -0.0234 -0.3018
  226MOL0     C31055  10.152  11.040   8.820 -0.2540 -0.8790 -0.9429
  226MOL0     C31056  10.274  10.985   8.862  0.4089 -0.8824 -0.7417
  226MOL0     C31057  10.370  11.066   8.944  0.4979 -0.0293 -0.2836
  226MOL0     O31058  10.489  11.017   8.995 -0.2291  0.2593 -0.3944
  226MOL0     C31059  10.557  10.908   8.921  0.2743 -0.0020 -0.1937
  226MOL0     C31060  10.703  10.952   8.930  0.1463  1.5105  0.4974
  226MOL0     C31061  10.792  10.833   8.871  0.3855  0.0921  0.8686
  226MOL0     C31062  10.929  10.884   8.821 -0.1344  1.0835  1.2242
  226MOL0     C31063  10.900  10.956   8.682  0.4765  0.4273  0.3552
  226MOL0     C31064  10.993  10.890   8.577 -0.1829  0.7039  0.3366
  226MOL0     C31065  10.942  10.953   8.435 -0.6520 -0.3910 -0.1614
  226MOL0     C31066  10.996  10.889   8.308 -0.0471  0.0139 -0.4907
  226MOL0     N31067  10.928  10.937   8.194  0.4591  0.6152 -0.4700
  226MOL0     C31068  10.865  10.865   8.091 -0.3121  0.2962 -1.0768
  226MOL0     C31069  10.819  10.951   8.004  0.3268  0.8638  0.6277
  226MOL0     C31070  10.756  10.915   7.870  1.5611 -0.3176 -0.2979
  226MOL0     C31071  10.609  10.960   7.867  0.6230  0.7165 -0.6206
  226MOL0     C31072  10.507  10.853   7.922 -0.2002 -0.3397 -0.5973
  226MOL0     C31073  10.498  10.829   8.077 -0.4277  0.1810 -0.4370
  226MOL0     O31074  10.383  10.756   8.115 -0.5379  0.1962 -1.1791
  226MOL0     C31075  10.369  10.722   8.249  0.1115 -0.1817  0.2609
  226MOL0     C31076  10.449  10.766   8.354  0.4397 -1.1110  0.8075
  226MOL0     C31077  10.437  10.715   8.483 -0.9632 -0.0059 -0.6882
  226MOL0     C31078  10.539  10.773   8.577 -0.8673  0.4103 -0.3413
  226MOL0     C31079  10.337  10.620   8.511  0.1707 -0.0519  0.2109
  226MOL0     C31080  10.321  10.578   8.653 -0.0537 -0.9253 -0.4235
  226MOL0     O31081  10.269  10.461   8.662  0.6313 -0.3832 -0.8299
  226MOL0     C31082  10.291  10.388   8.773 -0.0743 -0.2368 -0.4525
  226MOL0     C31083  10.388  10.285   8.755  0.0876  0.3803  1.0198
  226MOL0     C31084  10.412  10.200   8.862 -0.0066 -0.2355  0.4538
  226MOL0     C31085  10.348  10.213   8.990 -0.1743  0.2980  0.9505
  226MOL0     O31086  10.378  10.113   9.086 -0.4065 -0.0018 -0.1739
  226MOL0     C31087  10.270  10.044   9.150  0.0205  0.2127  0.0298
  226MOL0     C31088  10.305  10.047   9.295  0.8281 -0.0364  0.8956
  226MOL0     C31089  10.203   9.981   9.384  0.0669 -0.3087  0.2465
  226MOL0     C31090  10.183   9.835   9.357  0.0279  0.1317  0.2739
  226MOL0     C31091  10.091   9.782   9.462 -0.2662  0.4721  1.1279
  226MOL0     C31092  10.072   9.624   9.436  0.0058 -0.1919  0.5147
  226MOL0     C31093   9.966   9.564   9.525  1.0180  0.2203  0.0264
  226MOL0     C31094   9.958   9.406   9.535 -0.9583 -0.1905  0.6194
  226MOL0    Cl31095  10.112   9.328   9.618 -0.2171 -0.1128  0.3064
  226MOL0     C31096  10.256  10.319   9.012 -0.8132 -1.1310  0.0619
  226MOL0     C31097  10.233  10.410   8.901  0.9250  1.2329  0.4986
  226MOL0     O31098  10.336  10.657   8.750 -0.2243  0.6978 -0.0510
  226MOL0     C31099  10.269  10.555   8.408 -0.3281 -0.2894  1.2306
  226MOL0     C31100  10.277  10.622   8.274 -0.3802 -0.0708 -0.5191
  226MOL0     N31101  10.846  11.079   8.047 -0.2750  0.1161 -0.0449
  226MOL0     N31102  10.900  11.064   8.165 -0.2282 -0.3909  0.1423
  226MOL0     C31103  10.315  11.185   8.990  0.8114 -0.6249  0.1971
  226MOL0     C31104  10.194  11.237   8.936  0.7758 -0.7803 -0.3535
  226MOL0     C31105   9.765  11.324   8.858 -0.1705  1.0196 -0.3894
  226MOL0     C31106   9.707  11.214   8.791 -0.2141 -0.5702  0.6010
  226MOL0     C31107   9.577  11.215   8.754 -0.0218  0.2019 -0.1900
  226MOL0     C31108   9.490  11.307   8.809 -0.2133  0.7742  0.4415
  226MOL0     O31109   9.357  11.308   8.798 -0.0997 -0.1553 -0.3629
  226MOL0     C31110   9.290  11.213   8.705  0.3041  0.5916  0.2493
  226MOL0     C31111   9.242  11.286   8.574  0.6370  1.0778 -0.0598
  226MOL0     C31112   9.159  11.406   8.589 -0.4210 -0.6913  0.5479
  226MOL0     C31113   9.198  11.520   8.688 -0.7973 -0.0283  0.3292
  226MOL0     C31114   9.160  11.651   8.631  0.5835 -0.6226  0.4984
  226MOL0     C31115   9.140  11.750   8.570  0.1791  0.3450 -0.0097
  226MOL0     C31116   9.543  11.419   8.866 -0.3082 -0.1713 -1.2820
  226MOL0     C31117   9.681  11.439   8.883 -1.1876  0.1529  1.2489
  226MOL0     C31118   9.732  11.577   8.920 -0.8826  0.4009 -0.0346
  226MOL0     H31119  10.079  10.983   8.762 -1.7142  0.6123 -0.6502
  226MOL0     H31120  10.298  10.885   8.829  1.7843 -2.1513  3.4522
  226MOL0     H31121  10.510  10.903   8.823 -2.6765  0.7546  1.0739
  226MOL0     H31122  10.550  10.814   8.978  0.7969 -0.1074 -0.2991
  226MOL0     H31123  10.707  11.033   8.858  3.6607  1.8939  0.9960
  226MOL0     H31124  10.736  10.982   9.030  0.5343 -2.1700  1.6358
  226MOL0     H31125  10.807  10.755   8.946  0.0492  0.8688  1.7718
  226MOL0     H31126  10.746  10.797   8.778 -2.0826  0.9528  1.6717
  226MOL0     H31127  10.986  10.939   8.897  1.9924  2.2615 -1.0780
  226MOL0     H31128  10.978  10.787   8.803 -2.4328  0.4619 -2.8970
  226MOL0     H31129  10.937  11.058   8.698  2.6274 -0.4585  1.4345
  226MOL0     H31130  10.794  10.955   8.658 -0.0408  0.4097  2.4629
  226MOL0     H31131  11.100  10.908   8.589  0.5508 -2.2718 -0.6751
  226MOL0     H31132  10.979  10.781   8.583 -1.9977  0.9994  2.9422
  226MOL0     H31133  10.953  11.061   8.443 -2.3654 -0.2820  1.6039
  226MOL0     H31134  10.835  10.933   8.439 -0.3541 -3.3782 -2.7697
  226MOL0     H31135  11.098  10.930   8.303 -0.3229  0.6417 -1.2946
  226MOL0     H31136  11.002  10.781   8.322 -3.3268 -0.3472 -1.1162
  226MOL0     H31137  10.850  10.758   8.085  4.4144 -0.7483  1.4419
  226MOL0     H31138  10.759  10.806   7.860 -2.8224 -0.6868  0.4323
  226MOL0     H31139  10.812  10.967   7.792 -0.0074 -0.5508 -1.6321
  226MOL0     H31140  10.594  11.056   7.918  0.3427 -0.2917  1.2745
  226MOL0     H31141  10.587  10.965   7.760 -0.8929 -1.1378 -0.4506
  226MOL0     H31142  10.403  10.872   7.891 -0.6254 -0.4047  0.7427
  226MOL0     H31143  10.525  10.755   7.876  1.8171  0.9685 -2.8412
  226MOL0     H31144  10.589  10.779   8.112 -1.8610 -2.0552  0.2966
  226MOL0     H31145  10.483  10.919   8.138  1.6506  0.0908  0.2929
  226MOL0     H31146  10.526  10.842   8.343 -0.4924 -0.0786  1.1668
  226MOL0     H31147  10.644  10.761   8.549  0.1885  1.7818  2.6225
  226MOL0     H31148  10.535  10.728   8.677 -0.4194  1.4333  0.1502
  226MOL0     H31149  10.527  10.881   8.590  0.0842  0.3842  0.8934
  226MOL0     H31150  10.438  10.263   8.661  2.0427 -0.0079  2.1160
  226MOL0     H31151  10.468  10.109   8.843  0.6466 -0.0940  1.6030
  226MOL0     H31152  10.181  10.100   9.120  0.8620  0.8988 -1.2846
  226MOL0     H31153  10.259   9.941   9.114  1.7225  0.0893 -0.2147
  226MOL0     H31154  10.401   9.997   9.307  0.4801 -0.7697  0.7185
  226MOL0     H31155  10.310  10.150   9.330 -1.0411  1.6486 -3.0818
  226MOL0     H31156  10.109  10.037   9.375 -0.3168 -0.9922 -0.1073
  226MOL0     H31157  10.238   9.982   9.488  3.9458  0.2768 -0.9263
  226MOL0     H31158  10.282   9.791   9.369  0.3078  0.9371  0.9748
  226MOL0     H31159  10.148   9.812   9.256  0.3561  0.2153  0.1386
  226MOL0     H31160  10.134   9.808   9.559  2.1497  1.2271 -0.0676
  226MOL0     H31161  10.001   9.843   9.445 -0.8292 -0.8293 -0.9089
  226MOL0     H31162  10.169   9.575   9.452  1.3652 -0.1427 -5.3539
  226MOL0     H31163  10.052   9.602   9.331  0.5343 -0.3641  0.4464
  226MOL0     H31164   9.869   9.593   9.484  1.8275  3.0584 -0.0867
  226MOL0     H31165   9.994   9.603   9.623 -0.5071 -1.6774  1.3042
  226MOL0     H31166   9.958   9.360   9.436  1.6615 -1.3446  1.0693
  226MOL0     H31167   9.871   9.387   9.599  0.4999  0.7684  3.0358
  226MOL0     H31168  10.215  10.340   9.110 -0.9781 -0.0864 -0.2228
  226MOL0     H31169  10.158  10.487   8.916 -1.1855  0.2061 -3.3673
  226MOL0     H31170  10.208  10.467   8.420  0.5501 -1.3072 -1.2198
  226MOL0     H31171  10.213  10.582   8.197  1.5633  0.7063 -2.6420
  226MOL0     H31172  10.373  11.250   9.053 -0.6479 -0.5490  1.5295
  226MOL0     H31173  10.165  11.339   8.957 -1.0387 -1.2615 -0.3401
  226MOL0     H31174   9.766  11.124   8.775 -0.7554 -0.6253 -1.2846
  226MOL0     H31175   9.543  11.138   8.686 -1.6679  1.9476 -1.4400
  226MOL0     H31176   9.353  11.125   8.691  0.9943  0.1853  4.5521
  226MOL0     H31177   9.203  11.173   8.758  0.8200 -3.8420 -1.8532
  226MOL0     H31178   9.181  11.208   8.528 -1.0568  0.2744  3.2312
  226MOL0     H31179   9.334  11.307   8.519  2.8044 -2.9511  1.5549
  226MOL0     H31180   9.132  11.452   8.494  0.9415  1.3882  1.1066
  226MOL0     H31181   9.061  11.375   8.628 -0.4795 -1.8833 -0.4841
  226MOL0     H31182   9.306  11.535   8.683 -0.6347  0.2150  3.0334
  226MOL0     H31183   9.157  11.505   8.788  3.2392 -1.0586  2.0284
  226MOL0     H31184   9.107  11.827   8.503 -2.5488 -0.7255 -0.0456
  226MOL0     H31185   9.476  11.486   8.919  3.8486  3.1906  0.2920
  226MOL0     H31186   9.649  11.644   8.945  0.3521  1.7914  0.5057
  226MOL0     H31187   9.786  11.571   9.015 -3.5556  1.4107  1.6816
  226MOL0     H31188   9.811  11.609   8.852 -0.4603  0.2430  0.3789
  227MOL0     O31189   1.356   8.148   5.841 -0.1235  0.6506 -0.1467
  227MOL0     C31190   1.462   8.130   5.780  0.8589  0.6196 -0.5108
  227MOL0     O31191   1.591   8.164   5.826  1.1730  0.2617  0.5350
  227MOL0     C31192   1.606   8.236   5.946 -0.9550  0.5001 -0.6674
  227MOL0     C31193   1.535   8.350   5.981  1.3018  0.4475 -0.6798
  227MOL0     C31194   1.559   8.411   6.107 -0.2614 -0.8685  0.3667
  227MOL0     C31195   1.650   8.354   6.206  0.2842  0.0097 -0.4258
  227MOL0     O31196   1.668   8.410   6.323  0.1071  0.3654 -0.9380
  227MOL0     C31197   1.544   8.435   6.396 -1.6256 -0.1824  0.2444
  227MOL0     C31198   1.541   8.592   6.425 -0.6904 -0.3220 -0.7413
  227MOL0     C31199   1.422   8.655   6.489 -0.1313 -0.1089 -0.8768
  227MOL0     C31200   1.438   8.623   6.641 -0.2649 -0.6489 -0.2784
  227MOL0     C31201   1.318   8.682   6.716  0.0020 -0.4824 -0.6508
  227MOL0     C31202   1.172   8.626   6.677  0.5965  0.2174 -0.7260
  227MOL0     C31203   1.163   8.476   6.666 -0.1609 -1.1530 -0.0468
  227MOL0     C31204   1.020   8.442   6.621  0.0022 -1.1720  0.1287
  227MOL0     N31205   0.992   8.497   6.489 -0.6591 -0.7088 -0.5920
  227MOL0     C31206   1.056   8.449   6.376  1.1203  0.5912  0.1302
  227MOL0     C31207   1.000   8.527   6.276 -0.6528  1.0085 -0.8671
  227MOL0     C31208   1.030   8.519   6.127 -1.2856 -0.8794  0.1627
  227MOL0     C31209   1.173   8.546   6.069  0.4795 -0.4485 -0.8624
  227MOL0     C31210   1.164   8.599   5.924  0.6341 -0.9008 -0.0130
  227MOL0     C31211   1.145   8.746   5.910 -1.0666  0.4367 -0.3463
  227MOL0     O31212   1.245   8.815   5.842 -0.1327 -0.0191  1.1121
  227MOL0     C31213   1.375   8.800   5.879 -0.7409  0.2363  0.2152
  227MOL0     C31214   1.477   8.742   5.800 -0.2472 -0.2863 -0.1618
  227MOL0     C31215   1.603   8.703   5.848 -0.2951  0.7733 -0.8994
  227MOL0     C31216   1.699   8.618   5.753  0.0101 -0.4063 -0.8610
  227MOL0     C31217   1.632   8.742   5.983 -0.4061  0.7446  0.7203
  227MOL0     C31218   1.764   8.717   6.054  0.2291  0.3522  0.5413
  227MOL0     O31219   1.804   8.804   6.155 -0.0415  0.0641 -1.4094
  227MOL0     C31220   1.923   8.775   6.219 -0.7771  0.1756 -0.2797
  227MOL0     C31221   2.038   8.837   6.159 -0.0858  0.4303 -0.2381
  227MOL0     C31222   2.162   8.810   6.214 -0.1755 -0.4652 -0.7300
  227MOL0     C31223   2.181   8.720   6.325  0.6185 -1.0876  0.3566
  227MOL0     O31224   2.314   8.706   6.373  0.4097 -0.3437  1.2653
  227MOL0     C31225   2.361   8.569   6.388 -0.1030 -0.2602 -0.4120
  227MOL0     C31226   2.506   8.575   6.449  0.1310  0.0912 -0.3558
  227MOL0     C31227   2.595   8.665   6.364 -0.4414  0.5272 -1.1250
  227MOL0     C31228   2.748   8.675   6.406  0.0109  0.1124 -0.0164
  227MOL0     C31229   2.813   8.816   6.414 -0.5566  0.2508 -0.1947
  227MOL0     C31230   2.961   8.817   6.449 -0.3033 -0.1385  0.2457
  227MOL0     C31231   3.035   8.958   6.454  0.8290  0.8493 -1.0394
  227MOL0     C31232   3.125   8.984   6.589 -0.4540  0.0444 -0.2690
  227MOL0    Cl31233   3.060   8.902   6.747  0.1539 -0.4005 -0.2845
  227MOL0     C31234   2.062   8.663   6.390 -0.8893  0.4884 -0.1256
  227MOL0     C31235   1.933   8.701   6.333  0.3011  0.4652  0.2415
  227MOL0     O31236   1.831   8.630   6.001 -0.2729  0.6862 -0.0155
  227MOL0     C31237   1.540   8.802   6.063 -0.1810 -0.2552  0.4632
  227MOL0     C31238   1.414   8.834   6.009  0.3441 -0.1987  0.2088
  227MOL0     N31239   0.913   8.609   6.334  0.5686  0.5067 -0.1142
  227MOL0     N31240   0.896   8.594   6.455  0.5499  1.0941 -0.3024
  227MOL0     C31241   1.723   8.251   6.166 -0.1595  0.3976 -0.6379
  227MOL0     C31242   1.700   8.186   6.042 -0.7918 -0.0432  0.7165
  227MOL0     C31243   1.452   8.058   5.651  0.7821  0.9078  0.5149
  227MOL0     C31244   1.563   7.974   5.626 -0.1040 -0.6027 -0.2412
  227MOL0     C31245   1.572   7.899   5.506  0.1143 -0.1328 -0.6294
  227MOL0     C31246   1.473   7.912   5.405 -0.5082  0.0211 -0.5063
  227MOL0     O31247   1.459   7.853   5.284 -0.1357 -0.2109 -0.0873
  227MOL0     C31248   1.588   7.808   5.225 -0.4919 -0.4696  0.3566
  227MOL0     C31249   1.635   7.661   5.254 -0.0963 -0.5609 -0.3983
  227MOL0     C31250   1.782   7.650   5.217 -0.6283 -0.1483  0.7018
  227MOL0     C31251   1.777   7.628   5.061  0.0486 -0.6443  0.0822
  227MOL0     C31252   1.806   7.747   4.975 -0.5610  0.6457 -0.3238
  227MOL0     C31253   1.820   7.842   4.898  0.2733  0.6063  0.2866
  227MOL0     C31254   1.367   7.999   5.426  0.5204 -0.5498 -0.2665
  227MOL0     C31255   1.355   8.069   5.546 -0.2584  0.6302 -1.4361
  227MOL0     C31256   1.226   8.144   5.576  0.3917 -0.3897  0.3914
  227MOL0     H31257   1.460   8.391   5.914  0.1853  0.6340  0.6236
  227MOL0     H31258   1.510   8.506   6.128  0.8493 -0.5289  1.5274
  227MOL0     H31259   1.566   8.393   6.495 -0.9950  0.3932  0.3565
  227MOL0     H31260   1.457   8.391   6.346 -0.1997 -1.4846 -1.2230
  227MOL0     H31261   1.627   8.616   6.488  0.8674  0.5497 -3.0388
  227MOL0     H31262   1.553   8.641   6.328 -0.5620 -2.6699 -1.9999
  227MOL0     H31263   1.411   8.763   6.476 -1.7841 -0.4476 -2.9027
  227MOL0     H31264   1.332   8.611   6.445 -0.8688  1.9440 -1.5616
  227MOL0     H31265   1.438   8.515   6.652 -2.5902 -0.9243 -2.0086
  227MOL0     H31266   1.525   8.669   6.689 -1.3861  1.1634  0.1331
  227MOL0     H31267   1.325   8.791   6.708  1.0396 -0.0494  3.6962
  227MOL0     H31268   1.339   8.660   6.821 -1.6456  0.3585 -0.1203
  227MOL0     H31269   1.097   8.669   6.744  2.6602 -0.4090  2.1880
  227MOL0     H31270   1.151   8.676   6.582  1.7563  0.1638 -1.0289
  227MOL0     H31271   1.188   8.431   6.763 -1.2108 -0.1718  0.7148
  227MOL0     H31272   1.241   8.439   6.600 -2.4269 -1.8318 -2.4902
  227MOL0     H31273   1.010   8.333   6.627 -2.0439 -0.9821  0.9023
  227MOL0     H31274   0.945   8.491   6.684 -0.8594 -0.5162 -1.3391
  227MOL0     H31275   1.135   8.376   6.362 -0.5393 -0.9380 -2.0695
  227MOL0     H31276   0.965   8.599   6.090 -1.4885  0.4724  3.1655
  227MOL0     H31277   1.005   8.426   6.075  0.0353 -0.8436 -0.5958
  227MOL0     H31278   1.220   8.627   6.126  0.7108 -0.0387 -1.6138
  227MOL0     H31279   1.234   8.456   6.071  1.8062  0.4159  1.3196
  227MOL0     H31280   1.259   8.571   5.877  0.5950  1.2719 -1.5433
  227MOL0     H31281   1.092   8.554   5.855 -0.7551  3.6936 -1.9546
  227MOL0     H31282   1.056   8.768   5.851 -0.7400  3.9915  0.2565
  227MOL0     H31283   1.133   8.797   6.007 -1.0633  0.6088 -0.4363
  227MOL0     H31284   1.458   8.727   5.694  0.6190  1.5116 -0.6021
  227MOL0     H31285   1.645   8.594   5.661 -3.3666  1.6778  0.3985
  227MOL0     H31286   1.726   8.528   5.810  0.0098  0.4535  0.5513
  227MOL0     H31287   1.788   8.677   5.730  1.3599 -0.9288  2.4630
  227MOL0     H31288   2.031   8.889   6.064 -0.9929  1.2043  0.2361
  227MOL0     H31289   2.253   8.848   6.169  1.3137 -1.3276  1.3467
  227MOL0     H31290   2.293   8.525   6.461  1.9475 -1.9760  0.5787
  227MOL0     H31291   2.342   8.511   6.297  0.4721 -0.3030 -0.5049
  227MOL0     H31292   2.519   8.607   6.553 -0.5378  0.1865 -0.2960
  227MOL0     H31293   2.531   8.469   6.454 -0.3696  0.0077  0.5867
  227MOL0     H31294   2.553   8.765   6.376  0.8099  0.8874  0.7403
  227MOL0     H31295   2.571   8.644   6.260 -6.1511 -0.7977  0.1423
  227MOL0     H31296   2.810   8.627   6.330  1.6482  3.1582 -0.7321
  227MOL0     H31297   2.761   8.631   6.505 -0.9221  0.2497  0.1731
  227MOL0     H31298   2.795   8.877   6.324 -3.9770  4.3563  2.8346
  227MOL0     H31299   2.771   8.879   6.492  1.2255  2.5239 -0.9375
  227MOL0     H31300   3.022   8.759   6.379 -0.4670 -2.1294  1.6798
  227MOL0     H31301   2.975   8.764   6.544 -2.4858 -0.1894  0.5723
  227MOL0     H31302   2.955   9.033   6.459 -0.0910 -0.1680 -0.0747
  227MOL0     H31303   3.091   8.985   6.364 -0.2423  3.0314 -1.1130
  227MOL0     H31304   3.131   9.089   6.618  0.2843  0.1553 -0.7887
  227MOL0     H31305   3.225   8.944   6.571  0.9641  1.4876  3.4059
  227MOL0     H31306   2.064   8.595   6.475 -0.0352  0.7306  0.0590
  227MOL0     H31307   1.842   8.668   6.382 -1.0141  5.0687  1.3572
  227MOL0     H31308   1.562   8.832   6.165 -1.5060  7.3627 -0.8377
  227MOL0     H31309   1.340   8.885   6.069 -0.6171 -0.8256 -0.4200
  227MOL0     H31310   1.796   8.229   6.244  1.7574  1.5444 -2.0317
  227MOL0     H31311   1.744   8.088   6.025  0.8965  0.8825 -0.5802
  227MOL0     H31312   1.641   7.972   5.702  0.6182  2.3765 -0.7607
  227MOL0     H31313   1.657   7.832   5.505  0.1772 -0.1688  1.5857
  227MOL0     H31314   1.581   7.838   5.120 -4.4454 -0.0538  0.5818
  227MOL0     H31315   1.667   7.873   5.262 -0.0197 -0.9483  0.2083
  227MOL0     H31316   1.573   7.594   5.195  1.4481 -1.9985 -0.4396
  227MOL0     H31317   1.629   7.663   5.364  1.6580  3.7671 -0.1575
  227MOL0     H31318   1.835   7.737   5.258 -3.6828  1.2752  1.9732
  227MOL0     H31319   1.820   7.557   5.261  1.8939 -1.7169 -4.0937
  227MOL0     H31320   1.683   7.584   5.026 -1.4293  0.3611  2.5245
  227MOL0     H31321   1.851   7.551   5.038 -1.4737 -1.1136 -3.9911
  227MOL0     H31322   1.836   7.930   4.839  3.0626 -0.0138 -0.0119
  227MOL0     H31323   1.294   7.990   5.346  1.2997 -4.1722 -0.7488
  227MOL0     H31324   1.252   8.241   5.619  2.3380 -0.4615 -0.5139
  227MOL0     H31325   1.171   8.173   5.486  0.2017 -0.0830  0.6038
  227MOL0     H31326   1.159   8.087   5.641 -0.1128 -0.8553 -0.5087
  228MOL0     O31327   5.334   4.934   3.001  1.0412  1.2739 -0.2761
  228MOL0     C31328   5.218   4.910   2.971 -0.7381 -0.9529 -0.4912
  228MOL0     O31329   5.165   4.807   2.909  0.0853  0.4100  0.6133
  228MOL0     C31330   5.245   4.696   2.884  0.4152 -0.0601  0.6157
  228MOL0     C31331   5.291   4.658   2.757 -0.9775 -0.1541 -0.6710
  228MOL0     C31332   5.378   4.552   2.735 -0.6099 -0.1190  0.6432
  228MOL0     C31333   5.395   4.457   2.827  0.1665  1.2074  0.0557
  228MOL0     O31334   5.442   4.329   2.795 -0.4694  0.2087 -0.5752
  228MOL0     C31335   5.436   4.280   2.668  0.4982  0.2225  0.0205
  228MOL0     C31336   5.487   4.137   2.662  0.2607 -0.5359 -0.0246
  228MOL0     C31337   5.399   4.050   2.748  0.0678  0.5216 -0.2241
  228MOL0     C31338   5.453   3.906   2.723  0.4525 -0.1030  0.4205
  228MOL0     C31339   5.415   3.801   2.836  0.2452  0.2608 -0.3472
  228MOL0     C31340   5.266   3.824   2.868 -0.2186 -0.2904 -0.4528
  228MOL0     C31341   5.227   3.724   2.984  0.1193 -0.2171  0.7081
  228MOL0     C31342   5.074   3.720   2.994  0.2399  0.6466  0.4549
  228MOL0     N31343   5.003   3.632   2.896 -1.0789  0.2486 -1.0384
  228MOL0     C31344   5.034   3.502   2.838 -0.2698  0.1962  1.3722
  228MOL0     C31345   4.925   3.460   2.769 -0.4218  0.1709  0.0953
  228MOL0     C31346   4.897   3.319   2.721 -1.0685 -0.0863 -0.1509
  228MOL0     C31347   4.745   3.298   2.676 -0.2266  0.4265  0.1384
  228MOL0     C31348   4.705   3.147   2.679  0.2490 -0.3355 -0.5758
  228MOL0     C31349   4.665   3.099   2.825  0.0033  0.8913  0.0956
  228MOL0     O31350   4.707   2.967   2.851  0.1147  0.0440 -0.7275
  228MOL0     C31351   4.639   2.890   2.945  1.3674  0.2888  0.3639
  228MOL0     C31352   4.592   2.942   3.067 -0.0533 -1.3397 -0.8046
  228MOL0     C31353   4.525   2.856   3.154  0.2994  0.9534  0.9231
  228MOL0     C31354   4.448   2.918   3.274 -1.0190  0.3500 -0.7088
  228MOL0     C31355   4.506   2.719   3.118 -0.0296 -0.0208  0.0874
  228MOL0     C31356   4.423   2.616   3.184 -0.2088 -0.0404 -0.4318
  228MOL0     O31357   4.466   2.493   3.182 -0.0941 -0.3914  0.5643
  228MOL0     C31358   4.399   2.404   3.269 -0.2226 -0.3696  0.2897
  228MOL0     C31359   4.303   2.322   3.219 -1.0268  0.2667 -0.1852
  228MOL0     C31360   4.244   2.230   3.305 -0.1384 -0.6056 -0.3732
  228MOL0     C31361   4.280   2.220   3.439  0.0586  0.8040 -0.2765
  228MOL0     O31362   4.212   2.130   3.512  0.5105  1.0757  0.0231
  228MOL0     C31363   4.275   2.064   3.622  0.6626  0.1915  0.7445
  228MOL0     C31364   4.192   1.944   3.659 -0.6683 -0.0829  0.4205
  228MOL0     C31365   4.059   1.973   3.720 -0.2966 -0.5407  0.0082
  228MOL0     C31366   4.071   2.014   3.873  0.5920 -0.9430  0.2064
  228MOL0     C31367   4.126   1.910   3.974  0.1955  0.9278 -0.4486
  228MOL0     C31368   4.028   1.798   3.994  0.9919  0.1161  0.0102
  228MOL0     C31369   4.054   1.693   4.098 -0.0172 -0.6216  0.6221
  228MOL0     C31370   4.160   1.587   4.076  0.5666 -0.0035 -0.3469
  228MOL0    Cl31371   4.168   1.491   4.225 -0.2186  0.1530 -0.1993
  228MOL0     C31372   4.381   2.311   3.484  0.9034 -0.1600 -0.2298
  228MOL0     C31373   4.441   2.409   3.405 -0.0417 -0.0015  0.9074
  228MOL0     O31374   4.331   2.655   3.249  0.8727 -0.1884 -0.4257
  228MOL0     C31375   4.549   2.678   2.994  0.5906 -0.6360 -0.0569
  228MOL0     C31376   4.614   2.762   2.909 -0.2982 -0.1098  0.5251
  228MOL0     N31377   4.825   3.561   2.780  0.0175 -0.3695 -0.2493
  228MOL0     N31378   4.868   3.649   2.868 -0.3207  0.1092 -0.1328
  228MOL0     C31379   5.345   4.483   2.958 -0.4745 -0.6604 -0.4838
  228MOL0     C31380   5.269   4.605   2.988  0.1246  0.3051 -0.2452
  228MOL0     C31381   5.126   5.007   3.042 -0.7355 -0.1169  0.2398
  228MOL0     C31382   5.176   5.138   3.073  0.1172  0.3191  0.0130
  228MOL0     C31383   5.088   5.237   3.121 -0.2043  0.5146  0.4936
  228MOL0     C31384   4.954   5.215   3.137  0.3018  0.2932 -1.1169
  228MOL0     O31385   4.888   5.315   3.197 -0.1579  0.1790  0.1244
  228MOL0     C31386   4.785   5.296   3.281  0.1141 -0.0040  0.3662
  228MOL0     C31387   4.746   5.431   3.338 -0.2169  0.0864 -0.0872
  228MOL0     C31388   4.694   5.522   3.224  0.4055 -0.7002 -0.6606
  228MOL0     C31389   4.577   5.470   3.143 -0.6779 -0.3063  0.9637
  228MOL0     C31390   4.540   5.583   3.058 -0.1179  0.3500 -0.7087
  228MOL0     C31391   4.491   5.677   2.997  0.1963  0.5100 -0.4844
  228MOL0     C31392   4.915   5.081   3.123  0.3567  0.5747 -0.5801
  228MOL0     C31393   4.992   4.975   3.075  0.4366  0.2512  0.4555
  228MOL0     C31394   4.930   4.836   3.098 -0.5687 -0.6236 -0.4350
  228MOL0     H31395   5.284   4.738   2.684 -0.3293  0.7848  0.2672
  228MOL0     H31396   5.422   4.542   2.636  0.6986  1.8787  0.9776
  228MOL0     H31397   5.503   4.337   2.603 -0.4453 -0.8521 -1.9884
  228MOL0     H31398   5.339   4.293   2.619  1.5496  3.3190 -1.5334
  228MOL0     H31399   5.463   4.115   2.557 -1.5272  1.9433 -0.2387
  228MOL0     H31400   5.593   4.126   2.687  1.1089  2.6810 -1.5821
  228MOL0     H31401   5.394   4.064   2.857  0.4694  2.0762 -0.3825
  228MOL0     H31402   5.292   4.063   2.731 -0.9322 -1.8967  3.0025
  228MOL0     H31403   5.413   3.866   2.629 -2.0050  1.4919  0.7224
  228MOL0     H31404   5.562   3.908   2.709  0.0461  1.4928 -3.8580
  228MOL0     H31405   5.472   3.834   2.924  1.8397  0.6246 -1.4800
  228MOL0     H31406   5.439   3.698   2.807  0.8149  0.8930 -2.2264
  228MOL0     H31407   5.247   3.921   2.915  0.8334 -0.3792  0.1910
  228MOL0     H31408   5.195   3.816   2.785  0.7180  1.4055 -1.4579
  228MOL0     H31409   5.272   3.749   3.080  3.9142  0.5872 -1.1036
  228MOL0     H31410   5.262   3.624   2.959 -0.5565 -0.4609  0.7134
  228MOL0     H31411   5.034   3.675   3.085  1.8191 -0.0091  0.8625
  228MOL0     H31412   5.048   3.826   2.989 -0.2995  0.5317 -4.4462
  228MOL0     H31413   5.126   3.449   2.860 -0.1627  0.4932  1.6451
  228MOL0     H31414   4.910   3.257   2.810 -1.2364 -0.4586 -0.3798
  228MOL0     H31415   4.964   3.282   2.643  1.7807  1.5541  1.3874
  228MOL0     H31416   4.676   3.364   2.729 -0.5651 -0.2101  0.4985
  228MOL0     H31417   4.743   3.338   2.575 -2.1260 -0.6390 -0.2968
  228MOL0     H31418   4.608   3.127   2.634 -1.2878 -1.1053  2.7641
  228MOL0     H31419   4.793   3.092   2.642  3.1908  2.2210  2.0131
  228MOL0     H31420   4.712   3.165   2.899  2.0197 -1.0590  0.6635
  228MOL0     H31421   4.559   3.118   2.842  0.3268  0.7272  2.5837
  228MOL0     H31422   4.603   3.045   3.100 -1.6444 -1.3343 -0.2000
  228MOL0     H31423   4.452   2.843   3.353 -4.1542  1.8306  1.0395
  228MOL0     H31424   4.343   2.943   3.253 -1.1682 -1.0404 -1.7945
  228MOL0     H31425   4.498   3.010   3.305 -0.3627  0.4084 -1.8722
  228MOL0     H31426   4.286   2.318   3.112  0.3438  1.6616 -0.4863
  228MOL0     H31427   4.168   2.162   3.268 -0.9000 -1.9136  3.2169
  228MOL0     H31428   4.370   2.025   3.586 -0.2072 -1.5635  0.2831
  228MOL0     H31429   4.287   2.120   3.716 -2.6576 -0.5077  1.7142
  228MOL0     H31430   4.174   1.895   3.563 -1.8196  1.7889 -0.3573
  228MOL0     H31431   4.252   1.866   3.708  0.5821 -0.3207 -1.3831
  228MOL0     H31432   3.993   1.888   3.702  3.2215 -3.1567 -1.7997
  228MOL0     H31433   4.021   2.059   3.664  4.3840  0.4554 -2.0977
  228MOL0     H31434   3.974   2.059   3.896 -1.0536 -0.4316 -5.8417
  228MOL0     H31435   4.152   2.087   3.872  1.6217 -2.0489  0.7390
  228MOL0     H31436   4.226   1.878   3.941  0.0428  1.9320 -2.0309
  228MOL0     H31437   4.150   1.946   4.074  1.8206 -0.2582 -0.3793
  228MOL0     H31438   4.016   1.738   3.904  1.0896 -0.2112  0.2147
  228MOL0     H31439   3.932   1.842   4.025  1.2499  1.1480 -0.5887
  228MOL0     H31440   3.960   1.638   4.112  1.9757 -4.3203  0.7410
  228MOL0     H31441   4.076   1.736   4.196  0.7904 -1.4907  0.8412
  228MOL0     H31442   4.256   1.636   4.060  0.9990 -0.9426 -0.6856
  228MOL0     H31443   4.153   1.529   3.983  1.8425 -1.8614  0.6445
  228MOL0     H31444   4.412   2.307   3.588  2.1844  4.9142 -0.1825
  228MOL0     H31445   4.519   2.470   3.447 -1.0005  1.3527  0.8032
  228MOL0     H31446   4.525   2.578   2.960  2.0578 -0.7095 -0.9705
  228MOL0     H31447   4.638   2.732   2.807  2.3370  0.8346  0.7989
  228MOL0     H31448   5.366   4.412   3.038 -0.9417  1.1335  1.3165
  228MOL0     H31449   5.244   4.608   3.094  3.5981  1.6190  0.7022
  228MOL0     H31450   5.278   5.174   3.060 -0.4600  1.9882 -0.1284
  228MOL0     H31451   5.127   5.337   3.131  0.5481  0.1630  1.1698
  228MOL0     H31452   4.708   5.244   3.223  2.5588 -2.7745 -0.6991
  228MOL0     H31453   4.819   5.237   3.366  1.3122  0.8733  0.5173
  228MOL0     H31454   4.833   5.466   3.393  1.5093 -2.4724 -1.0262
  228MOL0     H31455   4.674   5.419   3.420  1.0131 -1.7673  0.7934
  228MOL0     H31456   4.648   5.602   3.283 -1.8299 -1.8693 -0.6920
  228MOL0     H31457   4.771   5.561   3.156  1.8467  0.7461  1.6667
  228MOL0     H31458   4.491   5.426   3.194 -1.6805  2.1240  1.5287
  228MOL0     H31459   4.618   5.398   3.071 -2.7253  0.5335 -1.1799
  228MOL0     H31460   4.448   5.762   2.946 -1.2748  0.7657  1.0773
  228MOL0     H31461   4.814   5.051   3.146  0.7657 -1.8764 -1.6625
  228MOL0     H31462   4.951   4.800   3.199  2.0455 -0.1439 -0.7277
  228MOL0     H31463   4.823   4.853   3.079 -1.0845 -0.3391  2.2904
  228MOL0     H31464   4.964   4.756   3.033 -0.4562 -2.0626  1.3192
  229MOL0     O31465   6.911   1.151  11.577 -0.3848  0.0717  0.6276
  229MOL0     C31466   6.963   1.040  11.550 -0.3733  0.1228  0.1098
  229MOL0     O31467   7.070   0.983  11.609  0.2144  0.2719 -0.0975
  229MOL0     C31468   7.154   1.063  11.674 -0.1859  0.0658  0.3218
  229MOL0     C31469   7.134   1.103  11.807 -0.1815  0.9083 -0.2193
  229MOL0     C31470   7.227   1.169  11.885 -0.3286 -0.1336 -0.7970
  229MOL0     C31471   7.350   1.193  11.824  0.5535 -0.5261 -1.1545
  229MOL0     O31472   7.447   1.251  11.897 -0.5458 -0.4844 -0.4132
  229MOL0     C31473   7.444   1.398  11.917  0.0172  0.4879 -0.0235
  229MOL0     C31474   7.560   1.433  12.014 -0.0760 -0.4171  0.3574
  229MOL0     C31475   7.598   1.583  12.018  0.0379  0.2234 -0.2901
  229MOL0     C31476   7.664   1.634  11.891 -0.4331  1.0753 -0.2768
  229MOL0     C31477   7.738   1.771  11.913  0.4508 -0.0177  0.3196
  229MOL0     C31478   7.645   1.869  11.850  1.0748 -0.7669 -0.0220
  229MOL0     C31479   7.715   2.009  11.859  0.0282 -0.4656 -0.6300
  229MOL0     C31480   7.828   2.024  11.746  0.4723  0.7972  0.2236
  229MOL0     N31481   7.955   2.046  11.815 -0.2815 -0.7657 -0.1660
  229MOL0     C31482   8.059   1.949  11.820  0.6649  0.8343 -0.6696
  229MOL0     C31483   8.162   2.029  11.870  0.1742 -0.0395  0.8628
  229MOL0     C31484   8.300   1.982  11.909 -0.0655  0.3768 -0.5927
  229MOL0     C31485   8.312   1.988  12.063  0.7786 -0.2020  0.8700
  229MOL0     C31486   8.448   1.950  12.115 -0.8345 -0.1207  0.3125
  229MOL0     C31487   8.452   1.953  12.263  0.7727 -0.0033 -0.1250
  229MOL0     O31488   8.590   1.968  12.303  0.0870  1.3634  0.0638
  229MOL0     C31489   8.604   1.950  12.440 -1.0627 -0.0019 -0.1708
  229MOL0     C31490   8.511   1.957  12.544  0.1843 -0.4457 -0.9658
  229MOL0     C31491   8.536   1.965  12.680  0.4090  0.0262 -0.9417
  229MOL0     C31492   8.422   1.961  12.772  0.2195  0.5984  0.3774
  229MOL0     C31493   8.668   1.985  12.728  0.6981 -0.1482 -0.1590
  229MOL0     C31494   8.711   2.014  12.871  0.0479  0.0149 -0.7232
  229MOL0     O31495   8.843   2.037  12.897  0.6210  0.3079 -0.3479
  229MOL0     C31496   8.890   2.076  13.022 -0.5312 -1.3529 -1.5314
  229MOL0     C31497   9.002   2.163  13.019  0.1152 -0.4352  0.6657
  229MOL0     C31498   9.056   2.223  13.131  0.6861  0.7326 -0.0342
  229MOL0     C31499   8.981   2.210  13.254 -0.1842 -0.6196  0.5138
  229MOL0     O31500   9.037   2.287  13.363 -0.2071 -0.8283  0.8774
  229MOL0     C31501   9.002   2.233  13.490  0.4419  0.6858 -0.0369
  229MOL0     C31502   9.108   2.262  13.587 -0.4854  0.5034 -0.1436
  229MOL0     C31503   9.218   2.148  13.618 -0.0206 -0.1580 -0.2509
  229MOL0     C31504   9.298   2.147  13.478  0.7949  0.5786  0.1779
  229MOL0     C31505   9.416   2.050  13.477 -0.4199  0.1561  0.9065
  229MOL0     C31506   9.496   2.057  13.339 -0.8135  1.2491 -0.0945
  229MOL0     C31507   9.507   2.200  13.278  0.8109 -0.1659  1.1609
  229MOL0     C31508   9.594   2.218  13.155  0.1748  0.3442  0.1737
  229MOL0    Cl31509   9.575   2.378  13.085  0.1190 -0.1278  0.1421
  229MOL0     C31510   8.862   2.131  13.261  0.2874  0.0571  0.5393
  229MOL0     C31511   8.822   2.064  13.146 -0.2193  0.3663 -0.2998
  229MOL0     O31512   8.622   2.055  12.940  0.2395  0.3397  0.4763
  229MOL0     C31513   8.766   1.986  12.624 -0.1131  0.6694  0.8084
  229MOL0     C31514   8.742   1.972  12.483 -0.0061 -0.1033 -0.1134
  229MOL0     N31515   8.118   2.159  11.896 -1.1805 -0.1454  0.1968
  229MOL0     N31516   7.994   2.167  11.866  0.0907 -0.2729  0.4102
  229MOL0     C31517   7.380   1.161  11.691 -0.1758 -0.4543 -0.0142
  229MOL0     C31518   7.279   1.101  11.618  0.3991  0.0558 -0.1544
  229MOL0     C31519   6.899   0.964  11.431  0.2672  1.1542 -0.0848
  229MOL0     C31520   6.777   1.000  11.374 -1.0919 -0.5550  0.6150
  229MOL0     C31521   6.725   0.935  11.266  0.0877  0.8227  0.8291
  229MOL0     C31522   6.782   0.827  11.198 -0.2496 -0.6856 -0.3989
  229MOL0     O31523   6.710   0.760  11.103 -0.9993 -0.1154  0.1967
  229MOL0     C31524   6.776   0.698  10.986 -1.1037  0.1654 -0.0876
  229MOL0     C31525   6.682   0.619  10.897  0.2743 -0.4878  0.1231
  229MOL0     C31526   6.571   0.712  10.847  0.1382  0.5689 -1.2294
  229MOL0     C31527   6.475   0.643  10.752  0.4264 -0.8516 -0.1922
  229MOL0     C31528   6.393   0.740  10.687 -0.0763 -0.6803  0.3025
  229MOL0     C31529   6.317   0.810  10.624  0.3838  0.7115  0.2368
  229MOL0     C31530   6.902   0.786  11.256 -0.6935 -0.0040  1.5524
  229MOL0     C31531   6.969   0.857  11.358  0.2957  0.2585 -0.4303
  229MOL0     C31532   7.111   0.812  11.389 -0.8987 -0.1882 -0.1756
  229MOL0     H31533   7.033   1.084  11.841  0.1206 -1.6615 -0.5927
  229MOL0     H31534   7.201   1.214  11.981 -1.4745 -1.8899 -0.2340
  229MOL0     H31535   7.343   1.429  11.944 -0.5127 -3.2723  3.1816
  229MOL0     H31536   7.466   1.446  11.821  0.5568 -1.6661 -1.0591
  229MOL0     H31537   7.533   1.410  12.118  2.1673  0.9980  1.3320
  229MOL0     H31538   7.649   1.379  11.981  0.2883 -0.6448  1.6569
  229MOL0     H31539   7.509   1.643  12.037  0.3606 -0.0299  2.2762
  229MOL0     H31540   7.679   1.607  12.088 -0.2981  2.9607 -0.7411
  229MOL0     H31541   7.735   1.561  11.850 -1.6628 -0.5258  0.3213
  229MOL0     H31542   7.585   1.641  11.815 -0.7218  1.3020  0.0433
  229MOL0     H31543   7.839   1.771  11.869  1.2178  0.0068  1.9975
  229MOL0     H31544   7.747   1.798  12.018  0.3099  0.3052  0.2493
  229MOL0     H31545   7.627   1.847  11.745  0.2849  1.3506 -0.3808
  229MOL0     H31546   7.554   1.887  11.909  0.6347  1.6652 -1.3225
  229MOL0     H31547   7.760   2.028  11.956  0.3849  0.1824 -0.9142
  229MOL0     H31548   7.642   2.089  11.848  1.9592  1.1601 -2.6773
  229MOL0     H31549   7.829   1.936  11.682  0.5955 -0.2591  1.6330
  229MOL0     H31550   7.812   2.108  11.679 -0.3734 -1.1666 -2.1765
  229MOL0     H31551   8.052   1.842  11.808 -2.9871  0.6792  1.4511
  229MOL0     H31552   8.375   2.045  11.859  0.8721 -0.4849 -0.2969
  229MOL0     H31553   8.312   1.876  11.887 -3.2572 -0.9308  2.9835
  229MOL0     H31554   8.298   2.095  12.081  2.7908  0.2637 -0.0526
  229MOL0     H31555   8.233   1.924  12.102  0.3272 -1.2422 -1.5556
  229MOL0     H31556   8.470   1.846  12.092 -1.3876 -0.0952 -0.3736
  229MOL0     H31557   8.521   2.012  12.063 -3.5727 -0.0488 -3.8937
  229MOL0     H31558   8.382   2.029  12.298  1.9410  0.7853  0.5541
  229MOL0     H31559   8.403   1.862  12.299 -1.3677  1.3523  0.5898
  229MOL0     H31560   8.404   1.953  12.525 -0.3183 -1.4286  1.6202
  229MOL0     H31561   8.396   2.057  12.818  1.3438  0.3970  1.4836
  229MOL0     H31562   8.449   1.894  12.854 -2.4973  1.6978  2.3481
  229MOL0     H31563   8.328   1.918  12.735 -2.1460  4.5731  1.1396
  229MOL0     H31564   9.051   2.182  12.924  0.3664  1.4255  1.1331
  229MOL0     H31565   9.141   2.287  13.111 -0.5243  1.5944 -2.8971
  229MOL0     H31566   8.905   2.259  13.534  0.8108  2.9018 -0.4297
  229MOL0     H31567   9.003   2.125  13.476  0.7885  0.4838  1.3971
  229MOL0     H31568   9.165   2.353  13.567  0.5965  0.1586  1.1978
  229MOL0     H31569   9.059   2.290  13.681  0.7769 -1.2061  1.0939
  229MOL0     H31570   9.169   2.051  13.628 -0.3798  0.0936  0.5589
  229MOL0     H31571   9.273   2.169  13.710 -1.8410  0.0460  0.8427
  229MOL0     H31572   9.349   2.244  13.475  0.9120  0.6869  2.9201
  229MOL0     H31573   9.234   2.132  13.390 -0.6251 -0.0313  1.2733
  229MOL0     H31574   9.481   2.074  13.562  2.1806 -2.5347 -0.1411
  229MOL0     H31575   9.383   1.950  13.504  1.3037 -0.3611  1.2617
  229MOL0     H31576   9.440   1.993  13.270  1.1002 -1.0706  0.4009
  229MOL0     H31577   9.597   2.019  13.356 -0.4951  1.5135 -1.2641
  229MOL0     H31578   9.526   2.268  13.361  0.1826 -2.0298  2.9097
  229MOL0     H31579   9.410   2.230  13.238  2.3994  2.8615 -0.8268
  229MOL0     H31580   9.570   2.145  13.078 -0.6666  1.2243 -0.4276
  229MOL0     H31581   9.695   2.196  13.190 -0.0754 -0.2699  0.5250
  229MOL0     H31582   8.794   2.125  13.346  2.0755 -0.3824  2.0015
  229MOL0     H31583   8.735   1.998  13.139  1.4904 -1.8745 -2.2385
  229MOL0     H31584   8.868   1.999  12.659  1.4757 -4.8477 -0.7409
  229MOL0     H31585   8.835   1.975  12.427  1.5433 -1.1831  2.2240
  229MOL0     H31586   7.473   1.182  11.639 -0.3710 -2.3245 -1.1943
  229MOL0     H31587   7.306   1.055  11.523  3.1475  2.8948 -0.9284
  229MOL0     H31588   6.735   1.094  11.406 -0.8358 -0.5003  0.7930
  229MOL0     H31589   6.637   0.974  11.218  0.2384  1.7102  1.2465
  229MOL0     H31590   6.836   0.770  10.929  2.5376 -3.8302 -1.8626
  229MOL0     H31591   6.843   0.620  11.023 -2.5531  0.0541  2.4789
  229MOL0     H31592   6.631   0.533  10.942 -0.0185 -0.9700 -1.0925
  229MOL0     H31593   6.735   0.594  10.805  1.4873  0.2352  0.6154
  229MOL0     H31594   6.510   0.752  10.928  1.4307  0.8543 -0.3729
  229MOL0     H31595   6.620   0.791  10.790  1.0412  0.7184 -0.2564
  229MOL0     H31596   6.412   0.569  10.803 -2.6041  2.6273  1.5740
  229MOL0     H31597   6.520   0.592  10.666  0.4824 -1.6187  0.2846
  229MOL0     H31598   6.255   0.879  10.571  0.8758  1.8785  1.1586
  229MOL0     H31599   6.962   0.705  11.216  1.6211  2.3952 -0.1137
  229MOL0     H31600   7.168   0.906  11.384 -1.0586 -0.1624 -2.0914
  229MOL0     H31601   7.116   0.772  11.491 -0.5140  0.9863  0.2885
  229MOL0     H31602   7.154   0.739  11.320  0.4598  0.7264 -0.3410
  230MOL0     O31603   5.023  10.497   6.210 -0.2449 -0.3822 -0.7418
  230MOL0     C31604   4.981  10.391   6.177  0.3225 -0.0916  0.4180
  230MOL0     O31605   4.989  10.277   6.243 -0.0425 -0.5643 -1.0841
  230MOL0     C31606   5.024  10.280   6.378 -1.0628  0.2667 -0.4076
  230MOL0     C31607   4.965  10.376   6.464 -0.1227  0.4694 -0.5116
  230MOL0     C31608   4.968  10.350   6.608 -0.1002 -0.0210 -0.2011
  230MOL0     C31609   5.062  10.250   6.655  0.1825 -0.7693 -0.4622
  230MOL0     O31610   5.102  10.242   6.788 -0.2564  0.0244 -0.1024
  230MOL0     C31611   5.241  10.256   6.805  0.2271 -0.4783 -0.2564
  230MOL0     C31612   5.276  10.403   6.844 -0.8907  0.2865  0.4191
  230MOL0     C31613   5.390  10.437   6.951 -0.5189  0.0397 -0.8545
  230MOL0     C31614   5.368  10.382   7.093  0.6715  0.1215 -0.2412
  230MOL0     C31615   5.454  10.458   7.196 -0.3801  0.4620  0.1514
  230MOL0     C31616   5.438  10.383   7.330  0.0608 -0.0847 -0.5968
  230MOL0     C31617   5.481  10.467   7.453  0.1965  0.0825  1.4198
  230MOL0     C31618   5.490  10.384   7.588 -0.1378 -0.2075 -0.5561
  230MOL0     N31619   5.534  10.458   7.706  0.8938  0.2250  0.1839
  230MOL0     C31620   5.655  10.520   7.706 -0.1506 -0.8245 -0.0567
  230MOL0     C31621   5.683  10.550   7.840 -0.2614  0.4194  0.2973
  230MOL0     C31622   5.803  10.621   7.890  0.3084  0.1029 -0.5237
  230MOL0     C31623   5.840  10.594   8.035 -0.4843  0.5637  0.9471
  230MOL0     C31624   5.865  10.441   8.061 -0.3032 -1.0220 -0.6490
  230MOL0     C31625   5.969  10.405   8.174  0.0330 -0.2822 -0.5406
  230MOL0     O31626   5.918  10.474   8.295  0.2727 -0.3561  0.8084
  230MOL0     C31627   5.989  10.429   8.406  0.5733  0.7825 -0.3481
  230MOL0     C31628   6.104  10.357   8.404  0.2841 -0.0932  0.6077
  230MOL0     C31629   6.174  10.318   8.520 -0.6876  0.0818 -0.2591
  230MOL0     C31630   6.304  10.245   8.518 -0.3194 -0.5316 -0.9257
  230MOL0     C31631   6.119  10.345   8.646 -0.6691 -0.4900  0.0667
  230MOL0     C31632   6.184  10.313   8.777 -0.4046 -0.7343 -1.5161
  230MOL0     O31633   6.105  10.270   8.879  0.3979 -0.0913 -0.0398
  230MOL0     C31634   6.160  10.205   8.990 -0.3734 -0.2344 -0.0632
  230MOL0     C31635   6.298  10.164   8.997  0.1552 -0.0660  0.6082
  230MOL0     C31636   6.342  10.071   9.090 -0.2917 -0.6482  0.4580
  230MOL0     C31637   6.257  10.033   9.195  0.3628 -1.2038 -0.4847
  230MOL0     O31638   6.316   9.970   9.300 -0.5402  0.4198  0.0205
  230MOL0     C31639   6.276  10.001   9.442 -0.8257  0.7666 -0.7483
  230MOL0     C31640   6.353   9.893   9.530  0.1850 -0.4772 -0.7226
  230MOL0     C31641   6.505   9.928   9.542  0.2347  0.2601 -0.0201
  230MOL0     C31642   6.592   9.814   9.600 -0.1246 -0.2065 -0.9795
  230MOL0     C31643   6.709   9.854   9.689  0.0103  0.2395 -0.1942
  230MOL0     C31644   6.802   9.936   9.603  0.4578  0.0178  0.0466
  230MOL0     C31645   6.932   9.935   9.679  0.1583 -0.4682 -0.2241
  230MOL0     C31646   7.030  10.022   9.595  0.2607 -0.8081 -0.1781
  230MOL0    Cl31647   6.985  10.189   9.573  0.0103  0.4401  0.1933
  230MOL0     C31648   6.123  10.076   9.193  0.0662  0.3486  0.0019
  230MOL0     C31649   6.076  10.148   9.084 -0.3315 -1.3293  0.4441
  230MOL0     O31650   6.305  10.350   8.793 -0.0714  0.9965  0.0259
  230MOL0     C31651   5.998  10.413   8.653 -0.8541  0.3519  0.3581
  230MOL0     C31652   5.939  10.462   8.535 -0.1567  1.3506 -0.8462
  230MOL0     N31653   5.573  10.512   7.909  0.2303 -0.3868  0.5014
  230MOL0     N31654   5.484  10.459   7.829 -0.8270  1.3602 -0.4957
  230MOL0     C31655   5.120  10.171   6.568 -0.4610 -0.3848  0.3680
  230MOL0     C31656   5.102  10.183   6.428 -0.2329  0.4313 -0.2419
  230MOL0     C31657   4.927  10.370   6.036 -0.4605 -0.3902  0.0744
  230MOL0     C31658   4.990  10.438   5.939  0.8641  0.3618 -0.6826
  230MOL0     C31659   4.962  10.431   5.797 -0.0067 -0.3835  0.7727
  230MOL0     C31660   4.868  10.338   5.751  0.7361 -0.8108  0.1845
  230MOL0     O31661   4.855  10.346   5.617 -0.1457 -0.0377  0.2177
  230MOL0     C31662   4.759  10.270   5.538  1.0256 -1.0108 -0.0477
  230MOL0     C31663   4.821  10.133   5.512 -0.4349 -0.2913  0.2032
  230MOL0     C31664   4.956  10.138   5.435  0.8322 -0.5240  0.0799
  230MOL0     C31665   5.055  10.021   5.431  0.5303 -0.6058 -0.4324
  230MOL0     C31666   4.998   9.897   5.421  0.8727  0.8963  0.4837
  230MOL0     C31667   4.938   9.788   5.433  0.1288 -0.2606 -0.0931
  230MOL0     C31668   4.801  10.263   5.852 -0.6383  0.1528  0.5461
  230MOL0     C31669   4.836  10.269   5.988  1.0612 -0.1990 -0.5026
  230MOL0     C31670   4.746  10.184   6.079 -0.4765  0.8909 -0.4106
  230MOL0     H31671   4.901  10.458   6.431 -1.2257 -0.4647 -0.7729
  230MOL0     H31672   4.904  10.417   6.664  2.4768  2.5693 -0.1337
  230MOL0     H31673   5.301  10.221   6.720  2.0834  2.2773 -0.2045
  230MOL0     H31674   5.281  10.188   6.881  1.4953  0.5165  0.0034
  230MOL0     H31675   5.304  10.456   6.753  0.6357 -0.5409  0.3788
  230MOL0     H31676   5.180  10.453   6.864 -0.0136  1.0935  3.0993
  230MOL0     H31677   5.486  10.392   6.924 -0.6639  0.1241 -1.5488
  230MOL0     H31678   5.391  10.546   6.964 -0.0957 -0.0921  0.2811
  230MOL0     H31679   5.265  10.411   7.115  1.9055  2.7720  2.9810
  230MOL0     H31680   5.382  10.273   7.101 -0.1071  0.1418  2.6320
  230MOL0     H31681   5.427  10.564   7.206  1.5920  1.0412 -0.1840
  230MOL0     H31682   5.559  10.460   7.167 -0.0910  1.4434  1.1804
  230MOL0     H31683   5.331  10.363   7.342 -0.1724  0.2744 -1.9357
  230MOL0     H31684   5.488  10.286   7.337 -0.2967 -0.1673  1.5277
  230MOL0     H31685   5.407  10.546   7.470  0.6405  2.0276 -3.8474
  230MOL0     H31686   5.577  10.512   7.429  2.1918 -3.8174  1.3428
  230MOL0     H31687   5.395  10.334   7.611 -0.4961 -0.1664 -1.8425
  230MOL0     H31688   5.562  10.302   7.575 -0.0057 -0.5384  1.8066
  230MOL0     H31689   5.722  10.523   7.621  3.3612  3.1015  2.4794
  230MOL0     H31690   5.800  10.730   7.881  0.2069  0.4811  2.9180
  230MOL0     H31691   5.893  10.586   7.837  0.4025 -1.7037  0.7114
  230MOL0     H31692   5.934  10.645   8.060 -1.6801  2.3672  2.0806
  230MOL0     H31693   5.760  10.637   8.096 -1.8596 -1.0434  0.3233
  230MOL0     H31694   5.764  10.403   8.079 -0.9532  0.0911 -1.7024
  230MOL0     H31695   5.905  10.395   7.970 -1.9537 -2.9008 -0.4933
  230MOL0     H31696   5.959  10.298   8.190 -1.1923 -0.1354 -0.1680
  230MOL0     H31697   6.069  10.437   8.143 -0.8852  0.8319 -2.6181
  230MOL0     H31698   6.169  10.335   8.320  2.7839  0.2204  2.3187
  230MOL0     H31699   6.390  10.313   8.521 -0.9893  0.2999  0.1810
  230MOL0     H31700   6.303  10.180   8.430 -2.4279 -3.2908  0.9542
  230MOL0     H31701   6.312  10.170   8.597  0.1993 -1.4707 -1.8372
  230MOL0     H31702   6.378  10.190   8.930 -1.7647 -0.7883 -2.1486
  230MOL0     H31703   6.442  10.029   9.086  0.4151  0.7977  1.6668
  230MOL0     H31704   6.315  10.099   9.470  0.4251 -0.0596  0.5713
  230MOL0     H31705   6.168   9.989   9.455 -0.5663  0.4859  1.5475
  230MOL0     H31706   6.323   9.865   9.631 -1.6055 -1.0541 -1.3765
  230MOL0     H31707   6.350   9.797   9.478 -2.6487 -0.8479 -0.0383
  230MOL0     H31708   6.512  10.012   9.611 -1.2207 -1.2060  2.0335
  230MOL0     H31709   6.546   9.959   9.445  4.4801  1.0712  1.8564
  230MOL0     H31710   6.616   9.752   9.514  1.6713 -2.5631  1.0911
  230MOL0     H31711   6.528   9.752   9.663  2.2486 -0.0446  1.8197
  230MOL0     H31712   6.685   9.918   9.775  2.5361  1.3461 -0.2457
  230MOL0     H31713   6.751   9.759   9.723 -1.2627 -0.0079  0.7572
  230MOL0     H31714   6.771  10.041   9.597  0.3626  0.2893  3.3585
  230MOL0     H31715   6.828   9.908   9.500  3.3216 -0.4214  0.8056
  230MOL0     H31716   6.972   9.834   9.673  5.1958  1.3323 -3.3455
  230MOL0     H31717   6.924   9.985   9.776 -1.0861  2.9614 -1.8974
  230MOL0     H31718   7.047   9.987   9.493 -1.1074  0.1873 -0.7895
  230MOL0     H31719   7.131  10.025   9.636  0.5239  2.0122 -0.8278
  230MOL0     H31720   6.064  10.041   9.276  0.1359  1.8924  0.7468
  230MOL0     H31721   5.974  10.183   9.074  0.6950  1.3716 -2.2371
  230MOL0     H31722   5.964  10.444   8.752 -0.4245  0.4973  0.4644
  230MOL0     H31723   5.855  10.529   8.552  0.0105  0.6408  4.3562
  230MOL0     H31724   5.183  10.088   6.598  0.0145 -1.2833 -2.7345
  230MOL0     H31725   5.153  10.113   6.362  3.8864  2.8107  0.0415
  230MOL0     H31726   5.065  10.514   5.959  0.2348  0.2191  2.7381
  230MOL0     H31727   5.014  10.495   5.726  1.3519 -0.8273  1.3370
  230MOL0     H31728   4.665  10.262   5.593  0.8511  1.4265  0.1083
  230MOL0     H31729   4.735  10.328   5.449  1.3049 -0.9183 -0.0629
  230MOL0     H31730   4.757  10.070   5.450 -1.8158  0.1185  1.1749
  230MOL0     H31731   4.846  10.097   5.612  2.9215  5.0924  1.7703
  230MOL0     H31732   4.938  10.164   5.330  1.6875 -0.9220 -0.1712
  230MOL0     H31733   5.013  10.219   5.482 -0.5855 -0.4869  1.8746
  230MOL0     H31734   5.122  10.002   5.515 -0.5900 -1.2601  0.3370
  230MOL0     H31735   5.121  10.036   5.345 -0.1615  2.0209 -0.6079
  230MOL0     H31736   4.883   9.696   5.438  0.3921 -0.3694  1.1332
  230MOL0     H31737   4.715  10.202   5.825 -1.8016  1.1570  1.8159
  230MOL0     H31738   4.803  10.125   6.150 -2.1504 -2.2264 -1.4566
  230MOL0     H31739   4.686  10.255   6.137  0.9305  0.4870  1.6512
  230MOL0     H31740   4.684  10.120   6.015  0.0961  0.4214 -0.4946
  231MOL0     O31741   6.692   0.619   9.803  0.7021  0.2745  0.1963
  231MOL0     C31742   6.763   0.576   9.896  0.6840 -0.2042 -0.0780
  231MOL0     O31743   6.702   0.524  10.008 -0.7643  0.8713  1.4247
  231MOL0     C31744   6.569   0.530  10.023 -0.1766  0.5514  0.4471
  231MOL0     C31745   6.473   0.498   9.925  0.2282  0.0669 -0.6539
  231MOL0     C31746   6.340   0.501   9.953 -0.1658  0.0990 -0.4193
  231MOL0     C31747   6.288   0.524  10.077 -0.0192  0.9612 -0.1517
  231MOL0     O31748   6.159   0.527  10.104 -0.1390 -0.8884  0.1792
  231MOL0     C31749   6.052   0.498  10.012 -0.7511  0.4175 -1.0431
  231MOL0     C31750   5.923   0.555  10.064 -0.5249 -0.3713  0.0368
  231MOL0     C31751   5.960   0.697  10.112 -0.1921  0.1786 -0.0024
  231MOL0     C31752   5.842   0.786  10.138  0.3786  0.7840 -0.3604
  231MOL0     C31753   5.873   0.932  10.184 -0.5777 -0.8312  0.0013
  231MOL0     C31754   5.746   1.006  10.212  0.0154 -0.0693 -0.1733
  231MOL0     C31755   5.789   1.153  10.228 -0.1758 -0.2881 -0.6136
  231MOL0     C31756   5.669   1.249  10.255  0.7686  1.3003 -0.1684
  231MOL0     N31757   5.579   1.277  10.134  1.2154 -0.4552  0.3268
  231MOL0     C31758   5.533   1.407  10.107  0.5363 -0.0214  0.1557
  231MOL0     C31759   5.490   1.407   9.981  0.5787  0.1592  0.2621
  231MOL0     C31760   5.415   1.516   9.906 -0.0252  0.9895 -0.0324
  231MOL0     C31761   5.288   1.572   9.983  0.8093 -0.0089 -0.1362
  231MOL0     C31762   5.242   1.705   9.925 -0.2021 -0.1824 -0.1123
  231MOL0     C31763   5.110   1.764   9.976 -0.3369  0.9175 -0.0652
  231MOL0     O31764   5.006   1.667   9.958 -0.3150  0.8609 -0.6398
  231MOL0     C31765   4.875   1.707   9.982 -0.0959  0.0496  0.5276
  231MOL0     C31766   4.776   1.611   9.948  0.1217 -0.0459 -0.1170
  231MOL0     C31767   4.645   1.627   9.990  0.5274  0.1222 -0.4812
  231MOL0     C31768   4.543   1.517   9.949 -1.2132 -0.1814  0.9160
  231MOL0     C31769   4.603   1.749  10.060 -0.7687  0.5835  0.7142
  231MOL0     C31770   4.477   1.779  10.108  0.0911  0.3011  0.7754
  231MOL0     O31771   4.374   1.705  10.063 -0.1539  0.1163 -0.2518
  231MOL0     C31772   4.246   1.711  10.117 -0.4978  0.1181  0.1380
  231MOL0     C31773   4.143   1.641  10.046 -0.2550 -0.1918 -0.0213
  231MOL0     C31774   4.017   1.627  10.096  0.9780 -0.3703  1.0326
  231MOL0     C31775   3.991   1.678  10.220 -0.4607  0.5012 -0.4344
  231MOL0     O31776   3.866   1.646  10.285 -0.0766 -0.4992  0.6008
  231MOL0     C31777   3.831   1.730  10.405  0.6881  0.4146  0.2913
  231MOL0     C31778   3.702   1.683  10.463  0.8035 -0.6562  0.2558
  231MOL0     C31779   3.584   1.691  10.364 -0.0759 -0.8346 -0.6308
  231MOL0     C31780   3.451   1.654  10.438  0.9498 -0.7053  0.1295
  231MOL0     C31781   3.323   1.691  10.355  0.3090 -1.0708 -0.3409
  231MOL0     C31782   3.242   1.566  10.313 -0.1801  1.2886  0.6598
  231MOL0     C31783   3.099   1.590  10.265 -0.1480  0.2014 -0.3888
  231MOL0     C31784   2.996   1.478  10.262 -0.7959  0.1755  1.0861
  231MOL0    Cl31785   2.997   1.354  10.396  0.0215 -0.5726  0.5742
  231MOL0     C31786   4.096   1.745  10.289  0.4996  0.5014  0.0840
  231MOL0     C31787   4.221   1.759  10.240 -0.0036 -0.8485  0.4113
  231MOL0     O31788   4.473   1.874  10.193  0.0056 -0.0598 -0.1908
  231MOL0     C31789   4.705   1.854  10.070 -0.8528  0.4387 -0.9978
  231MOL0     C31790   4.839   1.836  10.038 -0.2086  0.2118  0.2171
  231MOL0     N31791   5.531   1.286   9.924 -0.4437 -0.8075  0.4219
  231MOL0     N31792   5.570   1.207  10.014 -0.2100 -0.1822  0.5841
  231MOL0     C31793   6.388   0.565  10.178  0.2590 -0.4666 -0.3247
  231MOL0     C31794   6.521   0.560  10.149  0.1751  0.6667  0.1354
  231MOL0     C31795   6.905   0.577   9.880  0.5280  0.2559 -1.0102
  231MOL0     C31796   6.957   0.658   9.781 -0.3121 -0.1351  0.1573
  231MOL0     C31797   7.097   0.659   9.761 -0.3098  0.4445  0.5541
  231MOL0     C31798   7.187   0.589   9.832 -0.4693  0.6832  0.9689
  231MOL0     O31799   7.315   0.599   9.793 -0.3498 -0.8900 -0.4955
  231MOL0     C31800   7.411   0.581   9.891  0.5859  0.9512 -0.9301
  231MOL0     C31801   7.546   0.625   9.838 -0.0574  0.8056 -0.1906
  231MOL0     C31802   7.664   0.621   9.937 -0.3422 -0.0121  0.1600
  231MOL0     C31803   7.796   0.568   9.879  0.2614  0.0829  0.3065
  231MOL0     C31804   7.783   0.431   9.845 -0.2761 -1.3379  0.3533
  231MOL0     C31805   7.797   0.318   9.811  0.1857 -0.1210  0.3814
  231MOL0     C31806   7.139   0.501   9.926 -0.1784 -0.3794 -0.8403
  231MOL0     C31807   7.001   0.494   9.955 -0.3027 -0.4600  0.0705
  231MOL0     C31808   6.972   0.395  10.075 -0.2242 -1.3095  0.4081
  231MOL0     H31809   6.494   0.455   9.828 -1.9348  0.0222 -1.1419
  231MOL0     H31810   6.278   0.481   9.866 -4.1248 -2.4304  2.6237
  231MOL0     H31811   6.042   0.389  10.013  0.9003  0.2239 -1.2887
  231MOL0     H31812   6.081   0.524   9.909 -0.0806 -1.1437 -1.2897
  231MOL0     H31813   5.849   0.553   9.984  1.0084  2.2353 -1.5767
  231MOL0     H31814   5.898   0.494  10.152  4.2562  2.5170  3.9427
  231MOL0     H31815   6.020   0.685  10.202  1.6475  2.2985 -0.8372
  231MOL0     H31816   6.022   0.737  10.031  0.8624 -2.1399 -0.4132
  231MOL0     H31817   5.787   0.798  10.045  2.8135  1.8697 -1.7656
  231MOL0     H31818   5.780   0.740  10.216  0.6418 -1.3680 -1.3262
  231MOL0     H31819   5.935   0.984  10.110 -2.2586  1.9097  0.3835
  231MOL0     H31820   5.931   0.939  10.276  0.0250 -1.3797 -0.3218
  231MOL0     H31821   5.692   0.993  10.118  1.5935  1.5909 -1.3919
  231MOL0     H31822   5.677   0.964  10.286 -2.1566 -0.2834 -2.2057
  231MOL0     H31823   5.858   1.182  10.149  1.7482  1.3764  1.5566
  231MOL0     H31824   5.846   1.155  10.321  2.7156  1.1525 -2.2909
  231MOL0     H31825   5.600   1.206  10.328 -0.3320  0.3615 -1.6845
  231MOL0     H31826   5.708   1.341  10.298  0.8003  0.6928  1.1543
  231MOL0     H31827   5.503   1.487  10.173 -1.1498  0.2116 -0.8314
  231MOL0     H31828   5.380   1.474   9.811  0.3065  0.6682 -0.0116
  231MOL0     H31829   5.478   1.600   9.876  1.3611 -0.1237 -0.2873
  231MOL0     H31830   5.209   1.496   9.984  0.7785 -0.0657 -2.1801
  231MOL0     H31831   5.319   1.584  10.087 -0.2250  3.7264 -0.1342
  231MOL0     H31832   5.312   1.789   9.935  1.1240 -1.3541  0.9171
  231MOL0     H31833   5.218   1.696   9.819  1.2512  2.6247 -0.7734
  231MOL0     H31834   5.131   1.780  10.082 -2.8319  1.0934  0.4543
  231MOL0     H31835   5.080   1.847   9.911 -0.8448  2.5666  2.1570
  231MOL0     H31836   4.791   1.521   9.890  2.3052 -0.4351  0.9585
  231MOL0     H31837   4.515   1.461  10.039  1.7113 -0.7366  1.5810
  231MOL0     H31838   4.597   1.452   9.880 -1.5890  2.2523 -1.8848
  231MOL0     H31839   4.457   1.543   9.886  0.9342 -2.5467 -3.4530
  231MOL0     H31840   4.162   1.601   9.947 -0.6071  0.7367 -0.4822
  231MOL0     H31841   3.930   1.583  10.048  0.1237  1.4740  0.7916
  231MOL0     H31842   3.904   1.726  10.486 -0.0764 -0.9933  0.9419
  231MOL0     H31843   3.814   1.832  10.370 -2.8091 -0.1079  0.1418
  231MOL0     H31844   3.707   1.578  10.495 -0.8246 -0.5757  0.8924
  231MOL0     H31845   3.682   1.732  10.559 -0.9494  0.6155 -0.7015
  231MOL0     H31846   3.600   1.622  10.281  0.7223  0.0010 -1.1869
  231MOL0     H31847   3.567   1.789  10.321  0.2854 -0.9195 -0.9694
  231MOL0     H31848   3.443   1.693  10.540 -0.8236 -0.0002 -0.2594
  231MOL0     H31849   3.448   1.545  10.449  0.7278 -0.8775 -1.4171
  231MOL0     H31850   3.256   1.754  10.415  0.5554 -2.0108  0.9607
  231MOL0     H31851   3.345   1.757  10.271 -0.1433 -0.2776  0.1411
  231MOL0     H31852   3.242   1.509  10.406  2.3952  0.5126  0.2532
  231MOL0     H31853   3.289   1.496  10.243 -0.6976  0.8838  0.7099
  231MOL0     H31854   3.100   1.634  10.165 -1.2602  1.7842  0.2529
  231MOL0     H31855   3.071   1.676  10.326  1.4767  2.3485 -2.4758
  231MOL0     H31856   3.014   1.416  10.174  0.1630 -2.0128  2.7094
  231MOL0     H31857   2.895   1.514  10.243 -0.9700  0.0323  1.7293
  231MOL0     H31858   4.070   1.790  10.384 -1.3730  2.3195 -1.2081
  231MOL0     H31859   4.284   1.823  10.302  0.1037  0.5471 -1.0490
  231MOL0     H31860   4.693   1.941  10.133 -1.3983 -0.3768  0.0577
  231MOL0     H31861   4.916   1.902  10.077 -2.3881  2.2644  1.3173
  231MOL0     H31862   6.349   0.573  10.278  2.3588 -0.5112  0.5428
  231MOL0     H31863   6.588   0.590  10.229 -1.9691  1.8098  1.6153
  231MOL0     H31864   6.900   0.725   9.718 -1.3013 -1.5490 -0.5099
  231MOL0     H31865   7.142   0.724   9.686  2.0765 -1.9790 -0.2554
  231MOL0     H31866   7.383   0.650   9.971 -1.8247  0.0110 -0.8764
  231MOL0     H31867   7.417   0.475   9.916 -0.1154  1.0938 -0.1097
  231MOL0     H31868   7.540   0.728   9.802  2.0231  0.6461 -1.1404
  231MOL0     H31869   7.576   0.558   9.756 -2.8018  0.3256 -0.8745
  231MOL0     H31870   7.678   0.723   9.975  0.0192 -0.0224  0.0570
  231MOL0     H31871   7.634   0.567  10.028 -1.7384 -0.4511 -0.5302
  231MOL0     H31872   7.870   0.568   9.959  0.4336 -0.7180  0.1581
  231MOL0     H31873   7.833   0.630   9.796 -0.0931  0.8308  0.6995
  231MOL0     H31874   7.808   0.216   9.782 -1.4944 -1.2522  3.3051
  231MOL0     H31875   7.217   0.446   9.976 -1.4624 -1.4587  0.0283
  231MOL0     H31876   7.042   0.312  10.063  1.2842 -0.4644  2.7397
  231MOL0     H31877   6.992   0.444  10.170  2.1111 -2.6820  0.7099
  231MOL0     H31878   6.873   0.348  10.070 -0.7386 -0.1687 -1.0159
  232MOL0     O31879   7.474   6.109   3.624  0.1364  0.4140 -0.0132
  232MOL0     C31880   7.405   6.068   3.529  0.4182 -0.9966  0.0611
  232MOL0     O31881   7.423   5.948   3.466  0.1454  0.6162 -0.4623
  232MOL0     C31882   7.553   5.896   3.453 -0.4482 -0.1309 -1.2518
  232MOL0     C31883   7.577   5.755   3.470  0.1092 -0.4496  0.0795
  232MOL0     C31884   7.706   5.711   3.445  0.8938  0.0470 -0.0125
  232MOL0     C31885   7.813   5.796   3.410  0.1349  0.3235  0.4685
  232MOL0     O31886   7.941   5.742   3.406 -0.1041  0.1351  0.0320
  232MOL0     C31887   8.053   5.806   3.361  0.0523  0.4392 -1.2718
  232MOL0     C31888   8.045   5.831   3.209 -0.7179  0.8774 -0.4895
  232MOL0     C31889   8.017   5.698   3.131 -0.1479 -0.9457  0.1930
  232MOL0     C31890   8.021   5.712   2.977 -0.3267 -0.4685 -0.0226
  232MOL0     C31891   7.975   5.588   2.897  0.1272  0.6584  0.5027
  232MOL0     C31892   8.092   5.505   2.840  0.3251 -0.4418  0.2018
  232MOL0     C31893   8.028   5.371   2.796  0.0622  1.3704  0.1287
  232MOL0     C31894   7.952   5.374   2.661 -0.3387  0.0406 -0.0790
  232MOL0     N31895   7.924   5.247   2.597 -1.0318  0.5939 -1.1769
  232MOL0     C31896   7.822   5.155   2.620  0.5154  0.5507  0.5486
  232MOL0     C31897   7.855   5.038   2.570 -1.2793  0.2583 -0.0843
  232MOL0     C31898   7.785   4.903   2.579  1.3192 -0.3833 -0.0824
  232MOL0     C31899   7.783   4.842   2.724 -0.5291  0.2308  1.1536
  232MOL0     C31900   7.720   4.706   2.741  0.7065  0.8368  0.0257
  232MOL0     C31901   7.743   4.652   2.884  0.4172 -0.8910  0.3771
  232MOL0     O31902   7.704   4.737   2.995 -0.2218 -0.3417  0.3261
  232MOL0     C31903   7.579   4.736   3.058 -0.9161  0.8076 -0.4339
  232MOL0     C31904   7.570   4.795   3.192 -0.5033  0.0721 -0.2436
  232MOL0     C31905   7.448   4.799   3.258 -0.5799  0.3614 -0.1735
  232MOL0     C31906   7.444   4.894   3.378 -0.2323  0.1811 -0.3197
  232MOL0     C31907   7.334   4.750   3.189  0.4902 -0.2385 -0.3464
  232MOL0     C31908   7.192   4.755   3.251  0.0212  0.1848 -0.6357
  232MOL0     O31909   7.088   4.714   3.177  0.2072  0.0476 -0.4066
  232MOL0     C31910   6.953   4.720   3.215  0.3550  0.0399  0.0299
  232MOL0     C31911   6.876   4.605   3.184 -0.9447 -0.4322  0.2953
  232MOL0     C31912   6.735   4.593   3.223 -0.5078 -0.5777  0.2734
  232MOL0     C31913   6.681   4.695   3.306 -0.0602 -0.7856  0.7315
  232MOL0     O31914   6.546   4.686   3.327 -0.0941 -0.7067 -0.3551
  232MOL0     C31915   6.501   4.742   3.452 -0.1812  0.4214 -0.8207
  232MOL0     C31916   6.382   4.840   3.412  0.2924  0.7519 -0.8021
  232MOL0     C31917   6.253   4.773   3.381 -1.0382 -0.5777  0.5458
  232MOL0     C31918   6.190   4.704   3.501 -0.1180  0.6246 -0.5269
  232MOL0     C31919   6.064   4.619   3.469  0.6028  0.1525  0.8166
  232MOL0     C31920   6.114   4.489   3.389 -0.2300  0.5315  0.1059
  232MOL0     C31921   6.004   4.414   3.303  0.0024  1.0931 -0.6072
  232MOL0     C31922   5.898   4.341   3.387  0.7611  0.0025  0.0359
  232MOL0    Cl31923   5.754   4.284   3.286 -0.5659 -0.2932 -0.0405
  232MOL0     C31924   6.760   4.810   3.335 -0.6346  0.1922  0.5219
  232MOL0     C31925   6.890   4.824   3.276  0.9656 -0.6030  0.0438
  232MOL0     O31926   7.176   4.794   3.361  0.9289  0.1861 -0.6934
  232MOL0     C31927   7.348   4.679   3.061  0.3809  0.1840  0.4061
  232MOL0     C31928   7.473   4.671   2.998  0.0963 -0.4353  0.5696
  232MOL0     N31929   7.981   5.054   2.511  0.2215 -0.3601 -0.5643
  232MOL0     N31930   8.013   5.180   2.518 -1.0369  0.5652 -0.4953
  232MOL0     C31931   7.795   5.932   3.397  0.1772  0.6952 -0.5721
  232MOL0     C31932   7.667   5.980   3.422  0.1460 -0.1646 -0.2418
  232MOL0     C31933   7.287   6.148   3.475 -0.9545 -0.6018  0.1001
  232MOL0     C31934   7.209   6.079   3.374  0.2764  0.2390 -0.4691
  232MOL0     C31935   7.106   6.145   3.319 -0.6229  0.4046 -0.7639
  232MOL0     C31936   7.077   6.278   3.327  0.2804 -0.5321 -0.0877
  232MOL0     O31937   6.973   6.346   3.266 -0.0927 -0.0253 -0.0336
  232MOL0     C31938   6.917   6.299   3.147 -0.6938 -0.0421  0.3013
  232MOL0     C31939   6.982   6.371   3.022 -0.0826 -0.1019 -0.4834
  232MOL0     C31940   7.121   6.313   2.991 -0.7241  0.4798 -0.3506
  232MOL0     C31941   7.184   6.353   2.856  0.8024  0.2453 -0.1859
  232MOL0     C31942   7.234   6.486   2.857 -0.7730 -0.6431  0.6157
  232MOL0     C31943   7.256   6.603   2.856  0.0798 -0.1436 -0.4557
  232MOL0     C31944   7.154   6.345   3.424  0.1238 -0.2586 -0.8108
  232MOL0     C31945   7.251   6.281   3.501 -0.1641 -0.2667 -0.0243
  232MOL0     C31946   7.338   6.372   3.586  0.5294  0.5989  0.4331
  232MOL0     H31947   7.489   5.691   3.470  0.6452 -1.1897  0.1809
  232MOL0     H31948   7.734   5.608   3.467  2.4116  1.1672  4.2370
  232MOL0     H31949   8.131   5.736   3.390 -0.5163  1.4883  3.6117
  232MOL0     H31950   8.077   5.896   3.418  0.4233 -1.2514  1.3936
  232MOL0     H31951   7.975   5.913   3.189 -0.2536  1.4561  0.2073
  232MOL0     H31952   8.140   5.870   3.173  0.3305 -2.5295 -1.8096
  232MOL0     H31953   8.101   5.630   3.153  2.7222  2.2030 -0.2755
  232MOL0     H31954   7.919   5.658   3.161 -0.5189 -0.2794 -0.1119
  232MOL0     H31955   7.960   5.801   2.961 -0.7683 -0.4474  1.5958
  232MOL0     H31956   8.117   5.751   2.942 -0.5511  1.1583  1.0652
  232MOL0     H31957   7.909   5.615   2.815 -2.2780 -1.4599  1.6044
  232MOL0     H31958   7.911   5.527   2.961 -0.2014 -0.0785 -0.5051
  232MOL0     H31959   8.141   5.550   2.754 -0.7236  0.6834  0.1714
  232MOL0     H31960   8.154   5.484   2.928 -3.3700  2.9303  4.0582
  232MOL0     H31961   7.958   5.333   2.870 -1.0399  2.6065 -0.2380
  232MOL0     H31962   8.115   5.306   2.778  0.2218  0.6090  3.1425
  232MOL0     H31963   7.868   5.438   2.689 -0.2683 -0.5010  1.4623
  232MOL0     H31964   8.024   5.432   2.603 -0.2380  3.6769  3.2440
  232MOL0     H31965   7.738   5.192   2.677 -0.5811  1.6153 -1.6413
  232MOL0     H31966   7.834   4.850   2.497  0.4927  1.2280 -1.6743
  232MOL0     H31967   7.680   4.915   2.549  0.8658  0.5334  1.7218
  232MOL0     H31968   7.884   4.823   2.759 -0.3099 -3.9417 -1.0265
  232MOL0     H31969   7.732   4.904   2.798 -0.2859  1.1701  0.5470
  232MOL0     H31970   7.613   4.715   2.719  0.7509  0.7767 -0.2237
  232MOL0     H31971   7.777   4.638   2.677 -0.6679  0.8022 -1.2215
  232MOL0     H31972   7.698   4.553   2.894  2.2357 -1.8258 -0.1528
  232MOL0     H31973   7.851   4.647   2.901  0.2747  1.0377  2.4467
  232MOL0     H31974   7.661   4.842   3.226  0.2534 -0.8259 -0.9718
  232MOL0     H31975   7.412   4.995   3.350 -0.7127 -0.2531 -1.3944
  232MOL0     H31976   7.547   4.896   3.413  0.5537 -1.4787 -2.2905
  232MOL0     H31977   7.390   4.859   3.467 -3.6230  3.5756 -0.7813
  232MOL0     H31978   6.927   4.531   3.124 -1.9385  0.2664 -1.5000
  232MOL0     H31979   6.674   4.513   3.182  2.3975 -1.7688 -2.1452
  232MOL0     H31980   6.477   4.660   3.521  2.0187  0.1969 -0.2239
  232MOL0     H31981   6.577   4.807   3.498 -2.1873  1.7960  0.7433
  232MOL0     H31982   6.373   4.900   3.503 -2.5512 -1.6896  0.6888
  232MOL0     H31983   6.410   4.913   3.335 -1.2316  0.8297 -1.3027
  232MOL0     H31984   6.256   4.704   3.297  0.0505 -1.6890  1.4629
  232MOL0     H31985   6.194   4.862   3.358  2.1808  1.5076 -0.3653
  232MOL0     H31986   6.177   4.769   3.588  0.5582  0.4910 -0.3198
  232MOL0     H31987   6.268   4.632   3.528 -0.6390  0.8391  1.8034
  232MOL0     H31988   6.024   4.579   3.563  2.7965 -2.9524  0.6173
  232MOL0     H31989   5.993   4.683   3.416 -1.3320 -1.2444  1.6083
  232MOL0     H31990   6.159   4.424   3.465  1.1694  2.5571  1.0884
  232MOL0     H31991   6.195   4.518   3.321 -1.1742  3.1075 -0.0461
  232MOL0     H31992   6.051   4.336   3.243  0.6208 -0.1411  1.3628
  232MOL0     H31993   5.961   4.489   3.237  0.2724  2.1473  0.3836
  232MOL0     H31994   5.855   4.408   3.462 -0.6504  0.8283 -1.4534
  232MOL0     H31995   5.932   4.254   3.443  0.8309  1.3906  2.3008
  232MOL0     H31996   6.720   4.899   3.384  0.0559  1.2777 -0.8136
  232MOL0     H31997   6.947   4.909   3.312  1.4506 -0.0501 -1.8823
  232MOL0     H31998   7.261   4.620   3.035  0.6525 -0.5521  1.1513
  232MOL0     H31999   7.476   4.624   2.900  1.4451  0.3737  0.1963
  232MOL0     H32000   7.876   6.001   3.372  0.0996  0.7251 -0.7442
  232MOL0     H32001   7.640   6.085   3.408 -2.2978 -0.4471  1.6605
  232MOL0     H32002   7.214   5.978   3.337 -1.7850 -0.5618  1.2403
  232MOL0     H32003   7.040   6.081   3.261 -0.3074 -0.5014 -0.1442
  232MOL0     H32004   6.917   6.190   3.137  3.3995 -0.6101  3.7508
  232MOL0     H32005   6.816   6.341   3.150 -0.5682  0.2218  2.3553
  232MOL0     H32006   7.003   6.474   3.052  3.9373 -1.3167  1.5952
  232MOL0     H32007   6.918   6.378   2.933  0.5580  0.2792 -0.9225
  232MOL0     H32008   7.193   6.345   3.067 -0.5510 -3.0273  1.1322
  232MOL0     H32009   7.121   6.206   3.010 -1.7824  0.6020  0.3818
  232MOL0     H32010   7.108   6.334   2.779 -1.0512 -2.6950  2.1475
  232MOL0     H32011   7.270   6.293   2.829  0.5085  1.1688 -3.6725
  232MOL0     H32012   7.266   6.710   2.851 -0.7837 -0.0655 -0.7125
  232MOL0     H32013   7.156   6.452   3.446  0.3093 -0.3121 -0.5659
  232MOL0     H32014   7.377   6.324   3.676  4.0719  0.3544 -1.0878
  232MOL0     H32015   7.426   6.406   3.532  0.8779 -0.2348  0.4615
  232MOL0     H32016   7.278   6.457   3.620 -1.2447 -1.6883  3.5832
  233MOL0     O32017  11.315   4.506   2.241 -0.0056 -0.0467 -0.0232
  233MOL0     C32018  11.285   4.551   2.139  0.2993  0.6042 -0.3907
  233MOL0     O32019  11.191   4.641   2.115 -0.1760  0.1438 -0.8288
  233MOL0     C32020  11.148   4.734   2.214  0.1173  0.9821  1.7263
  233MOL0     C32021  11.103   4.690   2.338  0.1064  0.1615 -0.3555
  233MOL0     C32022  11.091   4.789   2.440 -0.5275 -0.1410 -0.3599
  233MOL0     C32023  11.110   4.927   2.402 -0.2884  0.5147  0.6507
  233MOL0     O32024  11.085   5.038   2.479  0.5185 -0.2978 -0.0046
  233MOL0     C32025  11.040   5.010   2.616 -0.5907 -0.3628  0.3984
  233MOL0     C32026  10.963   5.130   2.673 -0.5224 -0.9734 -0.1472
  233MOL0     C32027  10.887   5.093   2.798  0.1655 -0.6747  0.5332
  233MOL0     C32028  10.972   5.053   2.919 -0.1512 -0.1815  0.6266
  233MOL0     C32029  10.890   5.031   3.045  0.6917 -0.1075  0.2724
  233MOL0     C32030  10.990   4.999   3.157  0.8060 -0.3742 -0.4638
  233MOL0     C32031  10.926   4.956   3.290 -0.4798  0.0466 -0.1028
  233MOL0     C32032  10.951   4.804   3.302  0.4451 -0.1658  0.4166
  233MOL0     N32033  10.869   4.762   3.417 -0.3263  0.3311  0.3147
  233MOL0     C32034  10.885   4.628   3.458  0.1598  0.2494  0.1852
  233MOL0     C32035  10.783   4.607   3.537  0.2556  0.3085  0.3797
  233MOL0     C32036  10.780   4.472   3.606 -0.0946  0.1620  1.3756
  233MOL0     C32037  10.750   4.355   3.511  0.9603  0.2084 -0.7815
  233MOL0     C32038  10.859   4.264   3.497 -0.6588 -0.0496  0.6647
  233MOL0     C32039  10.830   4.148   3.396  0.4869 -0.3891  0.4252
  233MOL0     O32040  10.720   4.071   3.435  0.3334 -0.1836 -0.4028
  233MOL0     C32041  10.735   3.948   3.493 -0.0051 -0.7721  0.2164
  233MOL0     C32042  10.852   3.896   3.555  0.5140  0.7510  0.3553
  233MOL0     C32043  10.853   3.764   3.604 -0.2002  0.2706 -0.1888
  233MOL0     C32044  10.990   3.719   3.645  0.2431  0.0551  0.3914
  233MOL0     C32045  10.729   3.693   3.619  0.5714  0.1286 -0.7248
  233MOL0     C32046  10.705   3.558   3.675 -0.4190 -1.5281 -0.4940
  233MOL0     O32047  10.573   3.516   3.670 -0.4412  0.3403 -0.5969
  233MOL0     C32048  10.547   3.395   3.730  0.2271  0.2658 -0.2321
  233MOL0     C32049  10.518   3.381   3.860 -1.2724  0.1567 -0.2666
  233MOL0     C32050  10.493   3.249   3.904  0.6118  0.1806  0.2757
  233MOL0     C32051  10.525   3.135   3.827  0.7860  0.0379 -0.5088
  233MOL0     O32052  10.550   3.015   3.892  0.0440  0.0814 -0.9307
  233MOL0     C32053  10.630   3.015   4.006  1.1846 -0.5020  0.1246
  233MOL0     C32054  10.552   2.972   4.135  0.3503 -0.1209  0.1700
  233MOL0     C32055  10.654   2.961   4.254 -1.8389  0.3687 -0.8857
  233MOL0     C32056  10.618   3.063   4.361  0.2169 -0.2216 -0.0016
  233MOL0     C32057  10.737   3.085   4.456  0.2164  0.6217  0.5396
  233MOL0     C32058  10.737   3.215   4.539  0.8618  0.3592 -0.1528
  233MOL0     C32059  10.794   3.332   4.455 -0.5754  0.6470 -0.4668
  233MOL0     C32060  10.815   3.466   4.538 -0.1561  0.0590 -0.8887
  233MOL0    Cl32061  10.965   3.427   4.631 -0.2753  0.2536 -0.0469
  233MOL0     C32062  10.551   3.153   3.687 -0.6781  0.1805 -0.2697
  233MOL0     C32063  10.555   3.279   3.639 -0.2502 -0.5321  0.0852
  233MOL0     O32064  10.796   3.500   3.728 -1.0617  0.2306  0.1592
  233MOL0     C32065  10.612   3.753   3.569  0.2579 -0.2640 -0.5923
  233MOL0     C32066  10.610   3.877   3.507 -0.4211 -0.1295  0.4184
  233MOL0     N32067  10.711   4.728   3.562 -0.0569  0.3033 -0.5703
  233MOL0     N32068  10.763   4.816   3.485 -0.2191 -0.2081 -0.4784
  233MOL0     C32069  11.169   4.959   2.281  0.2628  0.6424  0.4712
  233MOL0     C32070  11.184   4.863   2.187  1.2957  0.3345  0.1018
  233MOL0     C32071  11.358   4.488   2.024 -0.9529  0.3361  0.5114
  233MOL0     C32072  11.475   4.413   2.052  0.0792 -0.8323  0.4258
  233MOL0     C32073  11.565   4.380   1.947  0.5100  0.2331 -0.3539
  233MOL0     C32074  11.535   4.389   1.813  0.5563 -0.5370  0.7215
  233MOL0     O32075  11.617   4.352   1.701  0.3900  0.5000 -0.1514
  233MOL0     C32076  11.746   4.295   1.736 -0.1156  0.1576 -0.2157
  233MOL0     C32077  11.855   4.304   1.626 -0.1358  0.4838 -0.1331
  233MOL0     C32078  11.798   4.256   1.497 -0.4459  0.9611  0.2238
  233MOL0     C32079  11.735   4.114   1.495 -0.1994  0.9548  0.5837
  233MOL0     C32080  11.694   4.093   1.353 -0.4040  0.0972 -0.0824
  233MOL0     C32081  11.658   4.105   1.240 -1.2173 -0.5593  0.6972
  233MOL0     C32082  11.417   4.461   1.790 -0.0538 -0.3669  0.1226
  233MOL0     C32083  11.322   4.506   1.889 -0.4177 -0.3958  0.8400
  233MOL0     C32084  11.211   4.589   1.835 -0.0021 -0.1259 -0.1104
  233MOL0     H32085  11.079   4.585   2.354 -2.2566  0.5973 -0.5727
  233MOL0     H32086  11.048   4.757   2.535 -1.7812  1.0755 -0.4865
  233MOL0     H32087  11.127   4.978   2.673  0.8738  0.9970 -0.9603
  233MOL0     H32088  10.970   4.928   2.629  0.2982 -0.9590  1.6014
  233MOL0     H32089  11.035   5.210   2.695  1.5601 -2.1842 -2.1150
  233MOL0     H32090  10.885   5.171   2.609 -2.6487 -1.0677  2.2326
  233MOL0     H32091  10.821   5.171   2.837  0.3279 -1.9682  3.6755
  233MOL0     H32092  10.817   5.013   2.770  1.5901 -1.5945 -0.5507
  233MOL0     H32093  11.023   4.964   2.882 -1.3001 -0.6774  0.1775
  233MOL0     H32094  11.053   5.125   2.937  0.2200 -0.0957 -1.1781
  233MOL0     H32095  10.821   4.947   3.040 -1.9484  1.4782  4.6414
  233MOL0     H32096  10.817   5.108   3.072  0.1795 -1.4365  3.0102
  233MOL0     H32097  11.067   4.930   3.121 -0.0706 -1.1384 -0.9003
  233MOL0     H32098  11.045   5.086   3.194  1.2689 -0.3703 -1.1307
  233MOL0     H32099  10.823   4.993   3.284  0.9209  4.4055 -0.6394
  233MOL0     H32100  10.973   5.005   3.376 -0.0001  1.0570 -0.9235
  233MOL0     H32101  10.925   4.745   3.214 -1.4711  1.2475 -0.0357
  233MOL0     H32102  11.055   4.776   3.323  0.2100 -1.5575 -0.1723
  233MOL0     H32103  10.966   4.557   3.445 -1.1794 -1.5124  0.9314
  233MOL0     H32104  10.699   4.477   3.679  0.3449  2.0101  1.7978
  233MOL0     H32105  10.880   4.443   3.641  0.7031  2.5030  1.2426
  233MOL0     H32106  10.668   4.301   3.558  0.7698  0.9677 -0.2068
  233MOL0     H32107  10.723   4.393   3.412  1.1013  0.6262 -0.6616
  233MOL0     H32108  10.949   4.321   3.472 -2.1609  2.0489 -0.2713
  233MOL0     H32109  10.871   4.208   3.590 -1.2220  1.0042  1.3912
  233MOL0     H32110  10.811   4.196   3.299 -0.0772 -1.3279  0.0593
  233MOL0     H32111  10.921   4.090   3.377  2.6170  2.9332 -0.3155
  233MOL0     H32112  10.943   3.955   3.559  0.9808 -0.0292  1.7647
  233MOL0     H32113  10.991   3.623   3.593  0.7198 -0.4339  1.2712
  233MOL0     H32114  10.993   3.693   3.751  1.1397 -2.1657 -0.1263
  233MOL0     H32115  11.069   3.790   3.617  0.6738 -0.0137  1.4048
  233MOL0     H32116  10.519   3.463   3.932  1.1925  1.1175 -1.2763
  233MOL0     H32117  10.471   3.220   4.006  1.2214 -0.0256  0.3532
  233MOL0     H32118  10.708   2.943   3.982 -0.2572 -1.2589 -2.8810
  233MOL0     H32119  10.664   3.116   4.031 -0.1126  0.0278 -0.1548
  233MOL0     H32120  10.465   3.034   4.158  0.8510  0.5389  0.3027
  233MOL0     H32121  10.522   2.871   4.105  1.7781 -0.7747  0.8020
  233MOL0     H32122  10.760   2.984   4.237 -1.9765  4.1165  1.9726
  233MOL0     H32123  10.634   2.862   4.296  0.9867  0.4805  1.0065
  233MOL0     H32124  10.531   3.019   4.410  0.4445 -0.1795  0.4411
  233MOL0     H32125  10.581   3.160   4.328  1.4990  0.7338  1.2562
  233MOL0     H32126  10.758   3.010   4.533  1.7359  0.9451  0.4803
  233MOL0     H32127  10.822   3.095   4.388 -1.1805  1.0771 -1.1860
  233MOL0     H32128  10.798   3.205   4.629 -0.9057 -1.3260  0.9238
  233MOL0     H32129  10.633   3.226   4.569 -0.2234  3.0257 -4.0259
  233MOL0     H32130  10.724   3.364   4.377 -2.0128 -0.7002  0.2119
  233MOL0     H32131  10.879   3.286   4.405 -0.8452  0.4868 -0.7804
  233MOL0     H32132  10.735   3.492   4.608  0.2682 -0.5219 -0.1680
  233MOL0     H32133  10.852   3.548   4.475  4.5649 -0.3138  0.9428
  233MOL0     H32134  10.571   3.064   3.629 -1.5008  0.0651 -0.3875
  233MOL0     H32135  10.581   3.295   3.535 -2.0285  0.0027 -0.3172
  233MOL0     H32136  10.513   3.710   3.556 -0.3483  1.5447 -2.7037
  233MOL0     H32137  10.522   3.927   3.470 -0.5536  0.7100  1.7886
  233MOL0     H32138  11.184   5.061   2.247 -1.1004 -0.0176 -2.3647
  233MOL0     H32139  11.224   4.878   2.087 -0.6750 -3.3497 -1.4246
  233MOL0     H32140  11.513   4.399   2.153  0.8476  1.6806  0.5702
  233MOL0     H32141  11.652   4.339   1.997 -0.7637 -2.0789  0.0991
  233MOL0     H32142  11.788   4.353   1.818 -0.5206  1.3825 -0.8562
  233MOL0     H32143  11.727   4.189   1.759  2.2685 -0.8549 -2.4914
  233MOL0     H32144  11.933   4.246   1.677 -1.8052  0.3957  2.5585
  233MOL0     H32145  11.903   4.401   1.609  2.1109 -0.6611 -0.6188
  233MOL0     H32146  11.717   4.323   1.467 -0.2429  0.8239 -0.6615
  233MOL0     H32147  11.876   4.258   1.421  1.3276 -2.0040  1.8014
  233MOL0     H32148  11.643   4.096   1.551  1.5403 -0.6793  3.1354
  233MOL0     H32149  11.805   4.035   1.524 -1.3250 -0.2706  0.0527
  233MOL0     H32150  11.617   4.121   1.142 -3.1395  2.9292  1.9116
  233MOL0     H32151  11.386   4.494   1.692  0.8686  1.2079  0.3197
  233MOL0     H32152  11.206   4.568   1.728  2.1043  3.2252 -1.0203
  233MOL0     H32153  11.113   4.564   1.877  0.9344 -1.8393  1.1579
  233MOL0     H32154  11.229   4.696   1.849  0.5447 -0.2354  0.0670
  234MOL0     O32155   3.193   0.979   8.438 -0.8660 -0.2106 -0.4374
  234MOL0     C32156   3.276   1.039   8.364  0.4112 -0.0290  0.2334
  234MOL0     O32157   3.355   1.146   8.399 -0.6125  0.6011  0.1469
  234MOL0     C32158   3.379   1.161   8.530 -0.2782 -1.1999 -1.3061
  234MOL0     C32159   3.285   1.217   8.625  0.5928  0.6330  0.5542
  234MOL0     C32160   3.310   1.240   8.762  0.8928  0.7686  0.2269
  234MOL0     C32161   3.435   1.201   8.819  0.7599 -0.1711 -0.9461
  234MOL0     O32162   3.483   1.220   8.950  0.0679 -0.0497 -0.3176
  234MOL0     C32163   3.400   1.312   9.041 -0.2501 -0.5499  0.6910
  234MOL0     C32164   3.400   1.455   8.996  1.1322  0.0142 -0.8911
  234MOL0     C32165   3.541   1.508   9.020  0.4546 -0.7595  0.5814
  234MOL0     C32166   3.538   1.647   8.969 -0.6541 -0.7051  0.5860
  234MOL0     C32167   3.671   1.715   8.948 -0.0600  0.6631 -0.2869
  234MOL0     C32168   3.734   1.763   9.087  1.7265  0.9224  0.8759
  234MOL0     C32169   3.874   1.804   9.065 -0.4122  0.0757 -0.2533
  234MOL0     C32170   3.980   1.692   9.078  0.6280  0.5872  0.2828
  234MOL0     N32171   4.113   1.749   9.051  0.4482  0.1195  0.5040
  234MOL0     C32172   4.212   1.704   9.124  0.0410  0.1644 -0.3902
  234MOL0     C32173   4.311   1.798   9.110  0.5321  0.0314  0.3235
  234MOL0     C32174   4.447   1.802   9.160 -0.0330 -0.2579 -0.3254
  234MOL0     C32175   4.472   1.943   9.218  0.0632  0.0657 -0.3405
  234MOL0     C32176   4.610   1.966   9.261  0.2613 -0.2775  0.0967
  234MOL0     C32177   4.724   1.964   9.157 -0.1882 -0.1872 -0.0925
  234MOL0     O32178   4.790   1.832   9.184 -0.3764 -0.4179 -0.1730
  234MOL0     C32179   4.909   1.817   9.108  0.0736 -0.4700 -0.4662
  234MOL0     C32180   4.919   1.813   8.973  0.2553 -0.1497 -0.5220
  234MOL0     C32181   5.031   1.791   8.893  0.2467  0.1693 -0.2312
  234MOL0     C32182   5.023   1.797   8.738  0.2364  0.0569 -0.6513
  234MOL0     C32183   5.156   1.768   8.970  0.8442 -0.1120  0.3858
  234MOL0     C32184   5.287   1.739   8.901  0.4330 -0.4583 -0.0497
  234MOL0     O32185   5.385   1.683   8.981  0.1108 -0.1624 -0.3093
  234MOL0     C32186   5.514   1.666   8.945  0.8430 -0.3761 -0.0057
  234MOL0     C32187   5.616   1.693   9.032  0.8720  1.0063 -0.7559
  234MOL0     C32188   5.745   1.676   9.002  0.7556  0.4094  0.0908
  234MOL0     C32189   5.779   1.648   8.869 -0.1170  0.7553  0.3103
  234MOL0     O32190   5.908   1.647   8.833  0.1356  1.5931  0.3084
  234MOL0     C32191   6.011   1.606   8.927 -0.3818  0.2286 -0.1695
  234MOL0     C32192   6.083   1.737   8.952  0.1937  0.3832  0.5828
  234MOL0     C32193   6.218   1.699   9.017  0.1489  0.5071  0.0017
  234MOL0     C32194   6.200   1.646   9.169 -1.0373 -1.4323 -0.4089
  234MOL0     C32195   6.328   1.596   9.239 -0.3051 -0.2734  0.0964
  234MOL0     C32196   6.305   1.572   9.385 -0.3015  0.4566 -0.4721
  234MOL0     C32197   6.441   1.554   9.460  0.7173 -0.5255 -0.3963
  234MOL0     C32198   6.446   1.433   9.540  0.1068  0.8306  0.6815
  234MOL0    Cl32199   6.327   1.422   9.667 -0.0913 -0.3539 -0.8180
  234MOL0     C32200   5.681   1.632   8.770  0.7614 -0.9654  0.0973
  234MOL0     C32201   5.553   1.632   8.815 -0.2765  0.0549 -0.4501
  234MOL0     O32202   5.302   1.767   8.787  0.4176  1.0909 -0.2536
  234MOL0     C32203   5.148   1.779   9.111  0.4306  0.7179  0.8710
  234MOL0     C32204   5.031   1.797   9.182  0.0533 -0.2396  0.5076
  234MOL0     N32205   4.261   1.893   9.017  0.1526  0.7743 -0.6310
  234MOL0     N32206   4.136   1.867   8.994 -0.8370  0.5648 -0.2296
  234MOL0     C32207   3.530   1.151   8.724 -0.5031  0.4873 -0.0348
  234MOL0     C32208   3.507   1.121   8.588  0.7394  0.2420 -0.4026
  234MOL0     C32209   3.304   0.984   8.231 -0.1379  0.0870 -0.6430
  234MOL0     C32210   3.206   0.899   8.171  0.1079  0.2585 -0.5070
  234MOL0     C32211   3.220   0.850   8.035  0.6824  0.2173 -0.0188
  234MOL0     C32212   3.323   0.901   7.951  0.7641 -0.1756 -0.4221
  234MOL0     O32213   3.333   0.874   7.815 -0.0011  0.7172 -0.4033
  234MOL0     C32214   3.268   0.755   7.759  1.0582 -0.5835 -0.1837
  234MOL0     C32215   3.377   0.683   7.688  0.3931  0.5147  0.2478
  234MOL0     C32216   3.341   0.523   7.689  0.3267  0.1057  0.9505
  234MOL0     C32217   3.441   0.444   7.594  0.1768 -0.5141 -0.2565
  234MOL0     C32218   3.426   0.501   7.456  0.3893 -0.1158  0.8180
  234MOL0     C32219   3.421   0.530   7.336  0.2127 -0.1534  0.2962
  234MOL0     C32220   3.416   0.997   8.009  0.9330  1.1755 -0.2983
  234MOL0     C32221   3.414   1.032   8.145  1.2568 -0.3208 -1.2570
  234MOL0     C32222   3.527   1.128   8.180  0.3171  0.3546 -0.7772
  234MOL0     H32223   3.199   1.254   8.570 -0.3639 -0.7282  1.0411
  234MOL0     H32224   3.225   1.282   8.815  1.4507 -0.4498  2.1964
  234MOL0     H32225   3.441   1.297   9.142 -1.3336  0.2378  1.2683
  234MOL0     H32226   3.297   1.276   9.051 -0.4457 -0.0479  0.5028
  234MOL0     H32227   3.365   1.461   8.892 -2.8456  1.1465  0.3225
  234MOL0     H32228   3.338   1.528   9.049  0.9259  0.3942 -1.6405
  234MOL0     H32229   3.554   1.501   9.128 -1.9761 -1.2300  0.8963
  234MOL0     H32230   3.613   1.450   8.961 -1.5198 -0.2234 -2.6225
  234MOL0     H32231   3.493   1.636   8.870 -0.1749 -0.0141  0.2861
  234MOL0     H32232   3.469   1.718   9.017 -1.3721  1.5829 -3.3746
  234MOL0     H32233   3.655   1.799   8.879  2.2973 -0.0972 -1.8835
  234MOL0     H32234   3.735   1.640   8.900  2.3036  1.0581  2.0006
  234MOL0     H32235   3.677   1.850   9.123 -1.1191 -1.2628  2.0574
  234MOL0     H32236   3.727   1.688   9.166  0.7705 -0.1822 -0.2214
  234MOL0     H32237   3.895   1.888   9.132  0.5366  0.0488 -0.5056
  234MOL0     H32238   3.879   1.841   8.962  1.6474 -1.0975 -0.6275
  234MOL0     H32239   3.975   1.650   9.179 -3.2105  0.8066  0.3271
  234MOL0     H32240   3.955   1.603   9.018 -0.5604  0.3153  1.1568
  234MOL0     H32241   4.216   1.618   9.190  0.1568  0.6713  0.2725
  234MOL0     H32242   4.517   1.777   9.080 -0.4566  0.5654 -0.9590
  234MOL0     H32243   4.450   1.727   9.240 -0.0351  0.4432  0.3450
  234MOL0     H32244   4.461   2.015   9.136  4.0200  2.1259  0.6289
  234MOL0     H32245   4.406   1.960   9.303 -1.2920 -0.6877 -1.2214
  234MOL0     H32246   4.609   2.069   9.296  1.8833 -0.3918  0.5785
  234MOL0     H32247   4.641   1.898   9.341  1.6530 -2.5897 -2.2412
  234MOL0     H32248   4.688   1.969   9.054 -0.4170  0.0899 -0.0018
  234MOL0     H32249   4.792   2.049   9.164 -2.0097  1.5190 -1.7918
  234MOL0     H32250   4.830   1.852   8.924 -0.5071  2.9586  2.8900
  234MOL0     H32251   5.087   1.727   8.684 -0.0721 -0.1534 -0.7454
  234MOL0     H32252   5.044   1.901   8.710  1.5131  0.7341  2.4404
  234MOL0     H32253   4.920   1.771   8.712 -0.1206  0.0203  0.6985
  234MOL0     H32254   5.589   1.731   9.130 -2.8825 -0.1159 -1.2026
  234MOL0     H32255   5.821   1.705   9.075  0.2236  1.0168  0.4136
  234MOL0     H32256   5.979   1.557   9.019 -0.0189  0.8011  0.2662
  234MOL0     H32257   6.082   1.539   8.877 -3.0418 -1.8280 -1.4842
  234MOL0     H32258   6.104   1.794   8.861  0.9300 -1.0810 -0.2046
  234MOL0     H32259   6.027   1.807   9.015 -0.4096  0.4096  0.0303
  234MOL0     H32260   6.281   1.789   9.016 -0.6047  1.0770 -2.2393
  234MOL0     H32261   6.266   1.618   8.961 -1.8744 -0.3447 -0.5962
  234MOL0     H32262   6.123   1.569   9.170 -1.7499 -0.8818 -3.3082
  234MOL0     H32263   6.179   1.726   9.241  0.4495 -3.6017  2.6517
  234MOL0     H32264   6.361   1.509   9.181  1.2348 -0.5254  1.2693
  234MOL0     H32265   6.409   1.667   9.221 -1.1249  0.5889 -0.2476
  234MOL0     H32266   6.248   1.478   9.389  2.2801 -1.2088 -0.7165
  234MOL0     H32267   6.245   1.646   9.439  1.0353  2.2942 -1.3974
  234MOL0     H32268   6.467   1.640   9.521 -1.9010  1.4882 -1.9122
  234MOL0     H32269   6.526   1.546   9.391  2.9125 -3.1109  2.2920
  234MOL0     H32270   6.546   1.442   9.585 -0.9042  3.2201  2.7323
  234MOL0     H32271   6.435   1.347   9.474 -0.3040  1.3024  0.1247
  234MOL0     H32272   5.709   1.613   8.667  2.6382  0.2058  0.3362
  234MOL0     H32273   5.479   1.612   8.738  1.7032  0.7068 -2.6535
  234MOL0     H32274   5.236   1.770   9.175  1.0429  0.0082 -0.0370
  234MOL0     H32275   5.027   1.804   9.290  0.3561 -2.4572  0.6961
  234MOL0     H32276   3.627   1.120   8.763 -1.7679 -1.0172  2.1249
  234MOL0     H32277   3.592   1.086   8.530  0.1031  1.4800 -2.1768
  234MOL0     H32278   3.123   0.856   8.227  2.3796  0.0489  2.9997
  234MOL0     H32279   3.144   0.784   7.996  0.1633  0.4195  0.6193
  234MOL0     H32280   3.223   0.691   7.835  3.4008  0.0966  1.9324
  234MOL0     H32281   3.185   0.777   7.692  1.5909 -1.1426 -1.0403
  234MOL0     H32282   3.478   0.700   7.725  0.1978  0.4154  0.8268
  234MOL0     H32283   3.384   0.727   7.587  1.9933 -3.0101 -1.3304
  234MOL0     H32284   3.354   0.477   7.787  0.5548 -3.6151 -0.6243
  234MOL0     H32285   3.242   0.506   7.647  1.7421  0.2568 -2.8660
  234MOL0     H32286   3.428   0.336   7.586  2.5131 -1.0789  2.2347
  234MOL0     H32287   3.543   0.460   7.631  0.4945 -1.0750 -0.8684
  234MOL0     H32288   3.432   0.552   7.232  1.2395 -2.3085 -0.1091
  234MOL0     H32289   3.480   1.045   7.935  1.3167  1.3599  0.1474
  234MOL0     H32290   3.609   1.117   8.108 -0.1829 -2.6886 -1.0274
  234MOL0     H32291   3.484   1.228   8.172 -1.1170 -0.2634 -1.0607
  234MOL0     H32292   3.560   1.113   8.283  0.0463 -1.6537 -0.9513
  235MOL0     O32293   1.519  11.416   0.389  0.2286  0.2763 -0.1373
  235MOL0     C32294   1.442  11.511   0.409 -1.1294  0.1475 -0.5326
  235MOL0     O32295   1.437  11.626   0.345  0.4441  0.6431 -0.2209
  235MOL0     C32296   1.520  11.666   0.238  0.5951 -0.1469  0.6171
  235MOL0     C32297   1.575  11.573   0.152  1.0396  0.8427  0.3243
  235MOL0     C32298   1.662  11.616   0.059 -1.0542  0.1241  0.0008
  235MOL0     C32299   1.662  11.756   0.031 -0.5301  0.2797  0.8950
  235MOL0     O32300   1.744  11.804  -0.073  0.6281 -0.8977 -0.1726
  235MOL0     C32301   1.756  11.730  -0.193 -0.4382  0.2937 -1.0262
  235MOL0     C32302   1.864  11.811  -0.276 -0.2657 -0.0420  0.1351
  235MOL0     C32303   1.870  11.745  -0.411  0.2502 -0.9206 -0.1433
  235MOL0     C32304   1.995  11.795  -0.476 -1.2611  0.5110 -0.1308
  235MOL0     C32305   1.992  11.757  -0.620 -0.1404 -0.4817  0.3427
  235MOL0     C32306   1.865  11.813  -0.700  0.3851 -0.1020  0.7022
  235MOL0     C32307   1.906  11.847  -0.838 -0.3243 -0.7159 -0.1235
  235MOL0     C32308   1.785  11.890  -0.906 -1.1565  0.5386 -0.3933
  235MOL0     N32309   1.830  11.911  -1.047  0.4782 -0.3014  0.0078
  235MOL0     C32310   1.907  12.016  -1.100  0.1345 -1.0132  0.1772
  235MOL0     C32311   1.928  11.985  -1.234  0.1126  0.1053 -0.1939
  235MOL0     C32312   2.013  12.071  -1.326 -0.1694 -0.4796 -0.0391
  235MOL0     C32313   1.983  12.052  -1.479  0.1155 -0.2244 -0.1101
  235MOL0     C32314   2.062  12.151  -1.563  0.3897 -0.0698  0.7775
  235MOL0     C32315   2.028  12.120  -1.710 -0.1792 -0.4744 -0.5408
  235MOL0     O32316   2.142  12.061  -1.765  0.4292  0.0200 -0.4425
  235MOL0     C32317   2.138  12.016  -1.898  0.6502  0.4872  0.1834
  235MOL0     C32318   2.030  12.025  -1.990 -0.3454 -1.6890 -0.0170
  235MOL0     C32319   2.047  11.999  -2.124  0.8870  0.6488 -0.1270
  235MOL0     C32320   1.920  12.017  -2.196  0.3511 -0.5940  0.7267
  235MOL0     C32321   2.169  11.950  -2.180  0.1121 -0.7568 -0.4054
  235MOL0     C32322   2.184  11.894  -2.316 -0.6414 -0.3948 -0.5632
  235MOL0     O32323   2.088  11.917  -2.405  0.6507 -0.7867 -0.5289
  235MOL0     C32324   2.117  11.922  -2.537  1.0123 -0.6131  0.0259
  235MOL0     C32325   2.239  11.947  -2.600 -0.6429  0.0707  0.4902
  235MOL0     C32326   2.254  11.954  -2.742  0.4198  0.0789 -0.8652
  235MOL0     C32327   2.136  11.936  -2.824 -0.3622 -0.0197 -0.2932
  235MOL0     O32328   2.139  11.957  -2.961 -0.8513 -0.0267  0.5234
  235MOL0     C32329   2.173  11.840  -3.032  0.6863  0.1005  0.3989
  235MOL0     C32330   2.080  11.823  -3.154  0.6741  0.2277  0.2720
  235MOL0     C32331   2.058  11.958  -3.228  0.1768 -0.0733 -0.4558
  235MOL0     C32332   1.968  11.949  -3.352 -0.4371 -0.0600  0.0824
  235MOL0     C32333   1.954  12.085  -3.426 -0.8215 -0.3892  0.2395
  235MOL0     C32334   1.881  12.064  -3.564  0.5514  0.6586 -0.4444
  235MOL0     C32335   1.733  12.044  -3.565  0.6051  0.5800 -0.2806
  235MOL0     C32336   1.673  12.078  -3.691 -0.6045 -0.0797  0.0680
  235MOL0    Cl32337   1.663  12.255  -3.727 -0.0176 -0.2913  0.4599
  235MOL0     C32338   2.011  11.900  -2.760  0.1127 -0.4559 -0.1028
  235MOL0     C32339   1.997  11.899  -2.624  0.3944  0.2436 -1.0191
  235MOL0     O32340   2.286  11.826  -2.340  0.5875 -0.4047 -0.0571
  235MOL0     C32341   2.272  11.915  -2.085 -0.8179  0.0392  0.3244
  235MOL0     C32342   2.254  11.949  -1.945  0.1039 -0.1120  0.0486
  235MOL0     N32343   1.862  11.863  -1.256  0.1539  0.2627  0.0658
  235MOL0     N32344   1.796  11.829  -1.148 -0.8354  0.0978  0.9575
  235MOL0     C32345   1.589  11.842   0.102 -0.6513  0.0947 -0.5447
  235MOL0     C32346   1.521  11.808   0.215 -0.0811  0.7898 -0.6466
  235MOL0     C32347   1.358  11.482   0.533 -0.4106  0.1892 -1.4737
  235MOL0     C32348   1.336  11.600   0.614 -0.0591 -0.5056  1.1055
  235MOL0     C32349   1.240  11.584   0.726 -0.8467  0.6763 -0.4075
  235MOL0     C32350   1.194  11.462   0.768  0.7916  0.3046 -0.3516
  235MOL0     O32351   1.102  11.459   0.880 -0.7383  0.5846 -0.1999
  235MOL0     C32352   1.097  11.330   0.960  0.2580 -0.2266 -0.2256
  235MOL0     C32353   1.000  11.352   1.091  1.3300 -0.0286 -0.4229
  235MOL0     C32354   0.864  11.418   1.061 -0.0772  0.9176  0.3423
  235MOL0     C32355   0.789  11.425   1.195  0.1123 -0.3660  0.0748
  235MOL0     C32356   0.858  11.470   1.327  0.0177  0.0961  0.2532
  235MOL0     C32357   0.902  11.515   1.427 -0.6364  0.4921 -0.0037
  235MOL0     C32358   1.227  11.349   0.684 -0.6058 -0.9153 -0.9328
  235MOL0     C32359   1.316  11.352   0.580  0.8280 -0.2705  0.0053
  235MOL0     C32360   1.354  11.222   0.506  1.2763  0.5720  0.0966
  235MOL0     H32361   1.562  11.465   0.158  1.3394  0.6844 -1.3727
  235MOL0     H32362   1.731  11.548   0.011  1.7561  1.8986  1.2717
  235MOL0     H32363   1.660  11.726  -0.245 -0.5547 -0.5515 -0.7559
  235MOL0     H32364   1.794  11.628  -0.186 -2.6187 -0.4586  2.1452
  235MOL0     H32365   1.827  11.911  -0.301  3.3564  1.0719 -1.3907
  235MOL0     H32366   1.959  11.806  -0.221 -0.5195  0.7956  0.6669
  235MOL0     H32367   1.876  11.637  -0.396  1.6243 -1.1013 -1.6452
  235MOL0     H32368   1.776  11.766  -0.462 -1.3115 -0.7537  2.6596
  235MOL0     H32369   2.006  11.904  -0.483  0.5379  0.3084 -0.9028
  235MOL0     H32370   2.080  11.750  -0.424 -2.0131  0.0139  0.6949
  235MOL0     H32371   1.984  11.648  -0.628  1.3803 -0.4938 -2.2903
  235MOL0     H32372   2.088  11.777  -0.667  0.9507  0.8050  2.9366
  235MOL0     H32373   1.791  11.733  -0.692 -1.7359  1.0437 -3.8828
  235MOL0     H32374   1.820  11.902  -0.654 -0.2401  0.9661 -1.7804
  235MOL0     H32375   1.940  11.755  -0.888 -3.2598 -1.1979 -1.4283
  235MOL0     H32376   1.988  11.918  -0.844 -1.6467  0.7726 -1.3674
  235MOL0     H32377   1.707  11.814  -0.893 -1.1380  0.6853  0.7227
  235MOL0     H32378   1.745  11.981  -0.861 -1.3287 -0.2275  1.0956
  235MOL0     H32379   1.908  12.116  -1.058  1.0916 -1.4854  1.3552
  235MOL0     H32380   2.112  12.024  -1.320  0.4219  0.9165  2.8091
  235MOL0     H32381   2.004  12.178  -1.304 -3.8911 -0.7710  0.4612
  235MOL0     H32382   2.003  11.949  -1.510 -1.9863 -1.8626  3.3716
  235MOL0     H32383   1.874  12.060  -1.483 -0.0056 -1.0085  1.1277
  235MOL0     H32384   2.028  12.251  -1.536  0.0249  0.6272 -1.9710
  235MOL0     H32385   2.168  12.151  -1.536  0.7455  0.0684 -0.5476
  235MOL0     H32386   1.930  12.072  -1.718 -1.2202  1.1735  1.2380
  235MOL0     H32387   2.015  12.217  -1.760 -0.9130  0.6145  1.6023
  235MOL0     H32388   1.936  12.059  -1.949  0.4319  1.3638 -0.4722
  235MOL0     H32389   1.838  12.016  -2.123  1.3735  1.8612  2.0156
  235MOL0     H32390   1.917  11.923  -2.252  0.8629  0.5344 -1.2886
  235MOL0     H32391   1.931  12.105  -2.260  4.8240  0.3433  2.4442
  235MOL0     H32392   2.328  11.956  -2.539 -0.3685 -0.3118  0.1538
  235MOL0     H32393   2.346  11.979  -2.794  1.6312 -3.7220 -0.8227
  235MOL0     H32394   2.275  11.848  -3.071  1.6095  2.4346  2.9170
  235MOL0     H32395   2.169  11.749  -2.972  3.1665 -1.8184 -2.0932
  235MOL0     H32396   2.119  11.750  -3.227  1.8544 -1.3031  2.3285
  235MOL0     H32397   1.985  11.781  -3.120 -1.1814  0.7750 -3.6960
  235MOL0     H32398   2.155  11.999  -3.257  0.3747 -2.8416 -4.3756
  235MOL0     H32399   2.000  12.026  -3.164 -0.1051 -2.6115  2.2398
  235MOL0     H32400   1.871  11.912  -3.318  0.8859 -2.4938  1.4553
  235MOL0     H32401   2.023  11.883  -3.420  0.0185  1.3867 -1.0203
  235MOL0     H32402   1.902  12.165  -3.372  1.2510  2.3061 -1.4802
  235MOL0     H32403   2.058  12.104  -3.453 -0.1765 -0.9483  2.1659
  235MOL0     H32404   1.930  11.980  -3.613 -1.6432 -1.3009  0.4981
  235MOL0     H32405   1.905  12.146  -3.632  0.7836  1.0431  0.0930
  235MOL0     H32406   1.690  12.107  -3.487 -0.6337 -2.3601  1.5763
  235MOL0     H32407   1.701  11.941  -3.547 -0.7843  0.6386 -2.1050
  235MOL0     H32408   1.568  12.051  -3.676 -0.4750 -1.6211 -1.4679
  235MOL0     H32409   1.714  12.010  -3.766 -3.0582 -0.5444 -0.9352
  235MOL0     H32410   1.929  11.883  -2.828  1.1553  2.3685 -2.2734
  235MOL0     H32411   1.901  11.904  -2.573  1.1263 -1.2821  0.6235
  235MOL0     H32412   2.371  11.876  -2.105 -0.7415 -1.0540  2.4957
  235MOL0     H32413   2.341  11.930  -1.882 -0.8271  1.2287  1.8092
  235MOL0     H32414   1.586  11.946   0.070 -1.5416  0.5765  0.9822
  235MOL0     H32415   1.458  11.870   0.277 -0.8987 -2.1573  1.7218
  235MOL0     H32416   1.373  11.701   0.600  2.2704 -1.2783  1.2589
  235MOL0     H32417   1.211  11.664   0.793  2.9279  0.0085  2.3475
  235MOL0     H32418   1.058  11.241   0.909  1.5723 -1.6310  1.1400
  235MOL0     H32419   1.198  11.302   0.991  0.1728  0.5841  0.8222
  235MOL0     H32420   1.056  11.420   1.156  0.7161  0.8248 -0.7730
  235MOL0     H32421   0.985  11.255   1.141  0.7811 -0.5279 -1.5222
  235MOL0     H32422   0.862  11.516   1.012  1.1615  1.3269  1.0734
  235MOL0     H32423   0.810  11.356   0.989 -0.3476 -0.5421  1.7210
  235MOL0     H32424   0.760  11.323   1.222  0.9887 -1.0120 -1.2984
  235MOL0     H32425   0.699  11.484   1.174  1.3561  2.1854  1.4689
  235MOL0     H32426   0.942  11.555   1.518 -0.1592 -0.8994  0.4243
  235MOL0     H32427   1.187  11.253   0.716 -1.7851 -0.5641 -1.2955
  235MOL0     H32428   1.457  11.188   0.519  1.2236  1.0501  1.9879
  235MOL0     H32429   1.294  11.134   0.532  1.2252  0.6070  0.0980
  235MOL0     H32430   1.348  11.237   0.397  2.7394  0.0275 -0.0760
  236MOL0     O32431   2.285   0.914   0.865 -0.8206  0.0166  0.5646
  236MOL0     C32432   2.391   0.954   0.816 -0.4795 -1.1891 -0.6885
  236MOL0     O32433   2.404   1.028   0.695  0.4872  1.3800 -0.1778
  236MOL0     C32434   2.291   1.080   0.640 -0.4366 -0.1871 -0.1677
  236MOL0     C32435   2.192   1.143   0.704 -0.7087  0.5079 -0.5449
  236MOL0     C32436   2.078   1.196   0.643  0.0707 -0.2943 -0.1259
  236MOL0     C32437   2.067   1.197   0.501 -0.7081  0.2330 -0.5331
  236MOL0     O32438   1.970   1.245   0.421 -0.3907 -1.2471 -0.4184
  236MOL0     C32439   1.859   1.328   0.460  0.1113  0.3631 -0.7319
  236MOL0     C32440   1.761   1.304   0.347  0.5379  0.0968  0.2639
  236MOL0     C32441   1.626   1.370   0.377  0.0627 -0.2061 -0.2294
  236MOL0     C32442   1.519   1.342   0.263  0.1476  0.5863 -0.3613
  236MOL0     C32443   1.499   1.190   0.236  0.2162  0.2560  0.0226
  236MOL0     C32444   1.361   1.159   0.162  0.6195 -0.5519 -0.8128
  236MOL0     C32445   1.359   0.999   0.129 -0.4994 -0.3484 -0.1908
  236MOL0     C32446   1.347   0.915   0.250 -0.5630  0.2715  1.4468
  236MOL0     N32447   1.475   0.873   0.303  0.8174  0.2221  0.1350
  236MOL0     C32448   1.584   0.830   0.231 -0.0567 -0.5467 -0.0182
  236MOL0     C32449   1.692   0.847   0.315  0.2548 -0.0711 -0.2517
  236MOL0     C32450   1.834   0.818   0.294 -0.8063 -0.4774 -0.0874
  236MOL0     C32451   1.898   0.939   0.239 -0.1617  0.0170 -0.3403
  236MOL0     C32452   2.043   0.915   0.185  1.4590 -0.3831  0.7013
  236MOL0     C32453   2.126   0.851   0.295  0.2739 -0.3156 -0.2649
  236MOL0     O32454   2.270   0.872   0.255 -0.2725 -0.6573 -0.1635
  236MOL0     C32455   2.375   0.806   0.331 -0.0463 -0.4558 -0.3097
  236MOL0     C32456   2.506   0.825   0.286 -0.8702  0.3063 -0.1186
  236MOL0     C32457   2.620   0.758   0.343 -1.0210 -0.3994  0.1796
  236MOL0     C32458   2.753   0.800   0.277 -0.6600 -0.3175 -0.5783
  236MOL0     C32459   2.605   0.670   0.455  0.0022  0.3753 -0.1721
  236MOL0     C32460   2.707   0.587   0.514 -0.1300  1.1423 -0.2570
  236MOL0     O32461   2.837   0.632   0.537  0.0893 -0.6924 -0.0642
  236MOL0     C32462   2.922   0.542   0.595 -0.3775 -0.9024  0.1964
  236MOL0     C32463   2.962   0.573   0.723 -0.6169  0.5737 -0.4888
  236MOL0     C32464   3.037   0.489   0.805  0.7810 -0.3834 -0.3311
  236MOL0     C32465   3.072   0.360   0.759 -1.4140  0.0648 -0.4161
  236MOL0     O32466   3.120   0.273   0.850 -0.8709  0.3517  1.0138
  236MOL0     C32467   3.142   0.144   0.799 -0.6871 -0.5403  0.1158
  236MOL0     C32468   3.209   0.073   0.908 -0.0995  0.0014  0.0911
  236MOL0     C32469   3.332   0.154   0.960 -0.1823  0.3710  0.4607
  236MOL0     C32470   3.437   0.183   0.854  0.6040 -0.4629 -0.3228
  236MOL0     C32471   3.560   0.256   0.912 -0.8616  0.1191 -0.3704
  236MOL0     C32472   3.664   0.301   0.811  0.5194 -0.1038 -0.3071
  236MOL0     C32473   3.734   0.188   0.730  0.1922  0.0937  0.4098
  236MOL0     C32474   3.871   0.227   0.689 -0.4086 -0.2988 -1.5631
  236MOL0    Cl32475   3.969   0.235   0.840  0.3740 -0.3709  0.1668
  236MOL0     C32476   3.048   0.337   0.625 -0.7923  1.0862  0.4136
  236MOL0     C32477   2.979   0.422   0.531  0.1536 -1.2262 -0.9250
  236MOL0     O32478   2.660   0.485   0.566 -0.1800 -1.1222  0.1685
  236MOL0     C32479   2.466   0.643   0.491  1.1272  0.3066 -0.0835
  236MOL0     C32480   2.359   0.714   0.435  0.4825 -0.1039  0.7578
  236MOL0     N32481   1.638   0.900   0.436  0.1073  0.1587 -0.1541
  236MOL0     N32482   1.510   0.904   0.425  0.6136  0.3176  0.6035
  236MOL0     C32483   2.171   1.130   0.432 -0.7218 -1.0609 -0.1622
  236MOL0     C32484   2.281   1.082   0.499  0.0287 -0.8886 -0.2641
  236MOL0     C32485   2.509   0.943   0.901  0.8936 -0.2178 -0.3392
  236MOL0     C32486   2.562   1.065   0.941 -0.3570 -0.7386  0.4594
  236MOL0     C32487   2.677   1.067   1.019 -0.6632 -0.4502  0.4891
  236MOL0     C32488   2.746   0.952   1.052 -0.7707 -0.2472 -0.3353
  236MOL0     O32489   2.868   0.958   1.121  0.1666 -0.0602 -0.6815
  236MOL0     C32490   2.988   0.997   1.050 -0.5890  0.2024  0.4428
  236MOL0     C32491   3.081   1.101   1.122  0.1722 -0.4599  0.1526
  236MOL0     C32492   3.148   1.049   1.247  0.0768  0.4159  0.4540
  236MOL0     C32493   3.253   1.153   1.294 -0.0785 -0.0373  1.0170
  236MOL0     C32494   3.199   1.284   1.338 -0.2241 -0.5434  0.8424
  236MOL0     C32495   3.138   1.388   1.374  0.3151  0.6474 -0.6452
  236MOL0     C32496   2.683   0.837   1.020  0.1954 -0.1212 -0.0022
  236MOL0     C32497   2.565   0.822   0.955  0.1022 -0.5523 -0.8772
  236MOL0     C32498   2.521   0.687   0.933 -0.9173  0.2975  0.3928
  236MOL0     H32499   2.206   1.144   0.812  1.8366 -0.0307 -0.7989
  236MOL0     H32500   2.012   1.256   0.705  1.0408  3.3931 -2.3130
  236MOL0     H32501   1.892   1.431   0.471  2.1886 -0.4131  0.8219
  236MOL0     H32502   1.818   1.289   0.553  1.6018  0.7020  0.1013
  236MOL0     H32503   1.806   1.357   0.263  0.4369  0.4517  0.4337
  236MOL0     H32504   1.748   1.198   0.323  1.7260  0.2131 -0.9937
  236MOL0     H32505   1.589   1.326   0.471 -0.0248 -0.7066 -0.4935
  236MOL0     H32506   1.631   1.478   0.388  0.7870  0.1055 -3.0229
  236MOL0     H32507   1.429   1.396   0.294 -1.1003 -0.6341 -1.6669
  236MOL0     H32508   1.556   1.378   0.166 -2.0709  0.7057 -1.2238
  236MOL0     H32509   1.484   1.141   0.332 -0.9178  3.2302  1.4749
  236MOL0     H32510   1.580   1.145   0.178 -1.1854 -0.2060 -1.6736
  236MOL0     H32511   1.276   1.192   0.222  0.6751 -0.6072 -0.7024
  236MOL0     H32512   1.371   1.214   0.068 -0.6645 -1.2843 -1.4050
  236MOL0     H32513   1.451   0.979   0.073  1.3725  0.0604  2.5435
  236MOL0     H32514   1.275   0.986   0.059  2.2619  1.0391 -4.0990
  236MOL0     H32515   1.279   0.958   0.323 -2.8625 -0.7064  0.0096
  236MOL0     H32516   1.301   0.823   0.212  0.6360  0.8544 -1.7270
  236MOL0     H32517   1.584   0.789   0.131 -2.0546 -3.1079  0.9239
  236MOL0     H32518   1.841   0.730   0.229 -3.0944 -0.7960  0.0159
  236MOL0     H32519   1.871   0.801   0.396 -2.0906  0.4523  0.5633
  236MOL0     H32520   1.838   0.985   0.160  0.5862  1.0250 -0.3354
  236MOL0     H32521   1.907   1.013   0.319  1.6040  2.1403 -2.3909
  236MOL0     H32522   2.027   0.857   0.094 -1.0080 -1.5005  1.7736
  236MOL0     H32523   2.086   1.011   0.153  0.6019  0.3493  1.6610
  236MOL0     H32524   2.095   0.903   0.386 -0.0479 -0.2873 -0.3912
  236MOL0     H32525   2.098   0.746   0.302 -0.7903 -0.0508 -0.3293
  236MOL0     H32526   2.519   0.893   0.203  0.3119  0.3764  0.1130
  236MOL0     H32527   2.823   0.840   0.351 -4.0278 -0.9791  3.3500
  236MOL0     H32528   2.738   0.879   0.203  0.0707 -0.6890 -1.1229
  236MOL0     H32529   2.790   0.706   0.236 -3.8113 -2.3730  0.9092
  236MOL0     H32530   2.931   0.669   0.764  0.5239  2.1532 -3.0636
  236MOL0     H32531   3.067   0.512   0.906 -3.5126 -1.4023  1.4281
  236MOL0     H32532   3.045   0.100   0.777 -0.6546 -0.9061  0.6976
  236MOL0     H32533   3.205   0.142   0.709  1.0828  1.2328  1.2258
  236MOL0     H32534   3.140   0.064   0.992  0.8851  3.8115  1.5199
  236MOL0     H32535   3.251  -0.026   0.888  0.2774  0.0941  0.4163
  236MOL0     H32536   3.381   0.108   1.047  1.5597  0.9552 -0.1608
  236MOL0     H32537   3.296   0.248   1.002 -1.5482  0.8927 -1.7460
  236MOL0     H32538   3.398   0.255   0.782 -1.6903  0.6774  1.9089
  236MOL0     H32539   3.457   0.089   0.801  1.7343 -0.8520  0.7381
  236MOL0     H32540   3.534   0.351   0.960 -4.4155 -0.2514 -1.3231
  236MOL0     H32541   3.598   0.179   0.980 -1.2718  1.4407  1.4383
  236MOL0     H32542   3.739   0.364   0.859  0.5691  0.4952 -1.1539
  236MOL0     H32543   3.606   0.360   0.740 -0.5541 -0.0042  0.6323
  236MOL0     H32544   3.676   0.153   0.644 -1.5554  0.5420  1.3379
  236MOL0     H32545   3.745   0.099   0.793  2.4844 -0.8632 -1.2144
  236MOL0     H32546   3.861   0.325   0.641 -2.7073 -0.7094 -2.0424
  236MOL0     H32547   3.917   0.156   0.620 -1.3251 -0.5783 -1.8924
  236MOL0     H32548   3.080   0.246   0.576  3.2374  3.6806 -2.4753
  236MOL0     H32549   2.957   0.404   0.427  0.3140 -0.9308 -1.0128
  236MOL0     H32550   2.425   0.579   0.568 -1.0453  2.8213  0.9984
  236MOL0     H32551   2.259   0.683   0.465 -0.2597  2.4525  1.1045
  236MOL0     H32552   2.169   1.134   0.324 -0.7776 -1.5466 -0.1845
  236MOL0     H32553   2.362   1.032   0.447 -0.2827  0.0499 -1.6947
  236MOL0     H32554   2.509   1.156   0.913 -0.1983 -0.7665  0.0609
  236MOL0     H32555   2.720   1.162   1.050 -0.5160  0.3302 -1.8593
  236MOL0     H32556   3.044   0.908   1.020  0.5169  0.3415  1.9592
  236MOL0     H32557   2.955   1.047   0.958 -5.8748  0.7231  2.2398
  236MOL0     H32558   3.023   1.188   1.151  1.3300  0.9303 -1.4732
  236MOL0     H32559   3.163   1.130   1.056  1.6189 -2.9800  0.6952
  236MOL0     H32560   3.085   1.028   1.333  0.4437  2.7495  1.3518
  236MOL0     H32561   3.189   0.950   1.226 -0.9337  0.1790 -0.5054
  236MOL0     H32562   3.326   1.159   1.213 -2.3017  4.1290 -1.0450
  236MOL0     H32563   3.323   1.104   1.362  0.9631  2.8021  2.1568
  236MOL0     H32564   3.084   1.477   1.398  0.0643  0.4792 -0.5815
  236MOL0     H32565   2.737   0.749   1.054  2.6935  1.0725 -0.6778
  236MOL0     H32566   2.424   0.683   0.884 -1.1235 -1.8173  0.8597
  236MOL0     H32567   2.603   0.639   0.879  1.2713  2.9310  1.1738
  236MOL0     H32568   2.520   0.629   1.026  2.8388 -2.5310 -1.0500
  237MOL0     O32569   2.440   3.631   4.371  0.2819  0.8209  0.0995
  237MOL0     C32570   2.442   3.750   4.341 -0.4731 -0.6672 -0.3365
  237MOL0     O32571   2.338   3.840   4.347  0.0830  0.1856 -0.0572
  237MOL0     C32572   2.214   3.782   4.327  0.0998 -0.4870  0.0595
  237MOL0     C32573   2.139   3.817   4.216 -0.5520 -0.4078 -0.3279
  237MOL0     C32574   2.004   3.783   4.196 -0.9480 -0.3236 -0.7750
  237MOL0     C32575   1.944   3.702   4.292  0.5410 -0.1049  0.9343
  237MOL0     O32576   1.810   3.675   4.291  0.1681 -0.1325  0.0607
  237MOL0     C32577   1.715   3.735   4.195  0.2096  0.4431  0.8039
  237MOL0     C32578   1.598   3.647   4.190  1.8383 -0.5096 -0.4179
  237MOL0     C32579   1.502   3.657   4.313 -0.1135  1.5119  0.5437
  237MOL0     C32580   1.386   3.754   4.287  0.1746  0.5573 -0.4893
  237MOL0     C32581   1.299   3.748   4.418  1.0018 -0.7254  0.3095
  237MOL0     C32582   1.175   3.828   4.380  0.6532 -0.6227 -0.3677
  237MOL0     C32583   1.051   3.809   4.470  0.4786  0.4378 -0.2537
  237MOL0     C32584   0.912   3.853   4.399 -0.2210 -0.6124 -0.0171
  237MOL0     N32585   0.914   3.992   4.351  0.5229 -0.7468  0.4863
  237MOL0     C32586   0.934   4.025   4.217  1.3341 -0.7666 -0.3345
  237MOL0     C32587   0.914   4.161   4.202 -0.1010 -0.0583  0.5178
  237MOL0     C32588   0.958   4.229   4.083  0.7407 -1.4466  0.0308
  237MOL0     C32589   1.097   4.282   4.086  0.0792 -0.3745 -0.0174
  237MOL0     C32590   1.096   4.422   4.143  0.3142 -0.8623  0.7170
  237MOL0     C32591   1.229   4.502   4.138 -0.0186 -0.5848  0.3715
  237MOL0     O32592   1.264   4.531   3.999  0.5198 -0.5193 -0.2640
  237MOL0     C32593   1.368   4.622   3.983  0.4686 -0.2087 -0.5398
  237MOL0     C32594   1.397   4.637   3.851 -0.3481  0.3984 -0.0553
  237MOL0     C32595   1.511   4.706   3.817  0.5629  0.2562 -0.1048
  237MOL0     C32596   1.546   4.687   3.668  1.1309 -0.9295  0.8673
  237MOL0     C32597   1.578   4.788   3.910 -0.6402 -0.2679 -0.0256
  237MOL0     C32598   1.697   4.872   3.877 -0.3317  0.8696  0.6413
  237MOL0     O32599   1.752   4.943   3.971  0.4941 -0.4553  0.4416
  237MOL0     C32600   1.798   5.072   3.957 -0.2868  0.2518 -0.6456
  237MOL0     C32601   1.739   5.157   3.866 -0.4353  0.1920 -0.1351
  237MOL0     C32602   1.764   5.289   3.855 -0.5492  0.1861 -0.2684
  237MOL0     C32603   1.872   5.347   3.933  0.1450  0.3674 -0.3153
  237MOL0     O32604   1.930   5.472   3.917 -0.4125  0.3026  0.0839
  237MOL0     C32605   1.876   5.549   3.813  0.9525 -0.4404  0.2303
  237MOL0     C32606   1.968   5.664   3.789 -0.3288 -0.0489 -0.1765
  237MOL0     C32607   1.968   5.768   3.913  0.5600 -0.1605 -0.6918
  237MOL0     C32608   1.851   5.871   3.908  0.3830 -0.0839  0.0071
  237MOL0     C32609   1.843   5.951   4.039 -0.2657  0.4531 -0.0845
  237MOL0     C32610   1.717   6.022   4.074  0.7011  0.5738 -0.3103
  237MOL0     C32611   1.685   6.053   4.219 -0.6418  0.6240  0.7408
  237MOL0     C32612   1.565   6.141   4.229 -0.4345  0.2078 -0.1535
  237MOL0    Cl32613   1.593   6.298   4.145 -0.3215  0.3818 -0.2251
  237MOL0     C32614   1.936   5.270   4.023 -0.7496  1.0160 -0.6754
  237MOL0     C32615   1.888   5.139   4.045  0.0322 -0.2162 -0.6304
  237MOL0     O32616   1.732   4.869   3.759  0.5365  0.4770 -0.5207
  237MOL0     C32617   1.546   4.778   4.049 -0.1272  0.2209 -0.5681
  237MOL0     C32618   1.443   4.690   4.081 -0.7339 -0.2687  1.0540
  237MOL0     N32619   0.902   4.205   4.334  0.7468  0.3191 -0.2019
  237MOL0     N32620   0.892   4.107   4.418  0.6878 -0.8743 -0.7996
  237MOL0     C32621   2.018   3.657   4.397  0.1714  0.5587  0.3792
  237MOL0     C32622   2.152   3.698   4.421  0.3072  0.7351  1.1144
  237MOL0     C32623   2.571   3.814   4.306 -0.3653  0.1461 -0.1722
  237MOL0     C32624   2.626   3.903   4.388 -0.3294 -0.0693 -0.1398
  237MOL0     C32625   2.751   3.957   4.367 -0.4233  0.0474  1.0022
  237MOL0     C32626   2.827   3.902   4.262 -0.2650  0.1443 -0.0409
  237MOL0     O32627   2.954   3.940   4.257  0.9557 -0.4024  0.7839
  237MOL0     C32628   3.038   3.878   4.343  0.1430 -0.2115 -0.0203
  237MOL0     C32629   3.081   3.737   4.303  0.3664 -0.2963  0.0938
  237MOL0     C32630   3.173   3.661   4.400  0.1347 -0.1754  0.2076
  237MOL0     C32631   3.162   3.502   4.367 -0.2829 -0.8701 -0.2816
  237MOL0     C32632   3.253   3.427   4.460 -0.2062 -0.2876  0.6492
  237MOL0     C32633   3.334   3.383   4.538  0.0793  0.2950 -0.4031
  237MOL0     C32634   2.771   3.809   4.171 -0.7428 -0.4898 -0.0544
  237MOL0     C32635   2.639   3.764   4.196 -0.5607 -0.7211  0.1060
  237MOL0     C32636   2.563   3.664   4.103 -0.2703 -0.9505  0.5051
  237MOL0     H32637   2.194   3.886   4.153 -0.1574  1.4103  1.8789
  237MOL0     H32638   1.949   3.812   4.107 -2.1314 -1.3629 -0.4214
  237MOL0     H32639   1.764   3.724   4.098 -0.7838 -0.4914  0.3754
  237MOL0     H32640   1.685   3.840   4.207 -3.3063  0.3649 -4.1190
  237MOL0     H32641   1.537   3.681   4.105 -1.1793 -0.4842  1.5903
  237MOL0     H32642   1.639   3.545   4.183 -0.0340 -1.5896  2.3313
  237MOL0     H32643   1.462   3.556   4.326 -2.2589  2.0332 -1.3713
  237MOL0     H32644   1.556   3.688   4.403  0.2999  0.3010  0.7334
  237MOL0     H32645   1.415   3.858   4.270  3.1870 -0.6107 -3.5097
  237MOL0     H32646   1.328   3.722   4.200 -0.5385  2.1968 -0.6480
  237MOL0     H32647   1.353   3.786   4.505  0.2332 -0.8772  0.8598
  237MOL0     H32648   1.268   3.648   4.450  0.3097  0.4021  3.5459
  237MOL0     H32649   1.203   3.932   4.394  1.5539 -1.1379  2.3388
  237MOL0     H32650   1.147   3.818   4.275  1.5211  0.2761 -0.6948
  237MOL0     H32651   1.069   3.867   4.562  0.8062  1.8392 -1.1688
  237MOL0     H32652   1.051   3.705   4.503  1.4258  1.3142  2.8952
  237MOL0     H32653   0.888   3.799   4.307  2.4108  4.0722 -3.9090
  237MOL0     H32654   0.836   3.849   4.478  0.4288 -0.6356  0.6120
  237MOL0     H32655   0.967   3.955   4.142  0.6050 -0.3570 -1.0522
  237MOL0     H32656   0.875   4.296   4.058  1.2955 -0.1527  1.5403
  237MOL0     H32657   0.954   4.154   4.004  1.9483 -2.0266  0.5063
  237MOL0     H32658   1.156   4.212   4.146 -1.5070 -0.1147  1.9685
  237MOL0     H32659   1.158   4.281   3.995 -1.5201 -0.4024 -1.1171
  237MOL0     H32660   1.024   4.488   4.093  1.2628 -0.5672 -0.2916
  237MOL0     H32661   1.074   4.408   4.249  0.1949 -2.4986  0.4989
  237MOL0     H32662   1.213   4.600   4.184 -2.1575  0.4150 -2.2555
  237MOL0     H32663   1.322   4.466   4.183  2.7883  2.1317 -2.7227
  237MOL0     H32664   1.344   4.563   3.791 -2.6850  0.9863  1.1816
  237MOL0     H32665   1.652   4.661   3.662  1.4012  0.0314  1.2450
  237MOL0     H32666   1.543   4.780   3.610  3.9416 -1.7400 -0.7721
  237MOL0     H32667   1.482   4.607   3.629  0.1839  0.1243  0.1730
  237MOL0     H32668   1.678   5.116   3.785  2.1192 -1.8756 -1.1537
  237MOL0     H32669   1.702   5.338   3.780 -0.1891 -2.1059 -2.1972
  237MOL0     H32670   1.864   5.496   3.718  0.7463  0.5419 -0.3014
  237MOL0     H32671   1.776   5.580   3.844 -0.3513 -2.7732 -1.3489
  237MOL0     H32672   2.072   5.636   3.770 -0.3609 -2.3142  2.3747
  237MOL0     H32673   1.936   5.716   3.698  0.1935  2.8449  1.1926
  237MOL0     H32674   2.060   5.827   3.916 -0.9223  2.3336  2.3140
  237MOL0     H32675   1.956   5.708   4.004 -3.2054  1.9534  0.4606
  237MOL0     H32676   1.753   5.824   3.901 -0.3113  1.2782  0.1397
  237MOL0     H32677   1.865   5.932   3.818 -1.0276  0.7403  0.3092
  237MOL0     H32678   1.849   5.874   4.116  0.0611  1.3352  0.7972
  237MOL0     H32679   1.937   6.004   4.057 -1.5091  1.8612  3.0653
  237MOL0     H32680   1.636   5.951   4.058  2.1802 -1.1665 -0.3707
  237MOL0     H32681   1.706   6.101   3.999  2.6971 -0.7997 -2.1631
  237MOL0     H32682   1.774   6.103   4.258 -0.8431  0.1118  1.8971
  237MOL0     H32683   1.664   5.959   4.270  1.8311 -0.3982  0.0269
  237MOL0     H32684   1.538   6.161   4.333  1.1393 -0.9834  0.5177
  237MOL0     H32685   1.472   6.108   4.182 -0.6745  2.7758 -1.6874
  237MOL0     H32686   2.017   5.317   4.078 -0.6735 -0.6933  0.7211
  237MOL0     H32687   1.958   5.085   4.109  0.6097 -0.8461 -1.7560
  237MOL0     H32688   1.604   4.826   4.127  3.5145 -1.0079 -2.2910
  237MOL0     H32689   1.419   4.685   4.187 -2.0854  1.8113  0.8982
  237MOL0     H32690   1.972   3.594   4.472  2.9468 -1.6314  0.4036
  237MOL0     H32691   2.191   3.689   4.522 -1.8840  0.9754  2.0260
  237MOL0     H32692   2.571   3.942   4.473 -0.4488  0.0248 -0.2588
  237MOL0     H32693   2.788   4.029   4.438 -2.9300  1.6787  0.7963
  237MOL0     H32694   3.119   3.952   4.345 -0.9820  1.0359  0.7847
  237MOL0     H32695   3.008   3.884   4.448  1.3267  1.0177  0.2914
  237MOL0     H32696   3.115   3.735   4.199  1.5192 -1.4655  0.4706
  237MOL0     H32697   2.984   3.687   4.300 -2.0787  4.0040 -1.5490
  237MOL0     H32698   3.278   3.689   4.385  0.4769 -1.3174  0.3752
  237MOL0     H32699   3.142   3.675   4.504  1.4815 -3.8785  1.2781
  237MOL0     H32700   3.184   3.479   4.262 -1.7140 -0.1482 -0.7743
  237MOL0     H32701   3.060   3.464   4.378 -0.3821 -0.7220 -0.6589
  237MOL0     H32702   3.403   3.344   4.610 -1.6655 -1.0403  0.6068
  237MOL0     H32703   2.816   3.766   4.081 -1.4031 -1.4916  0.0795
  237MOL0     H32704   2.625   3.639   4.016 -0.2556 -0.5816  0.4079
  237MOL0     H32705   2.532   3.575   4.158  3.1966 -2.2475  0.6101
  237MOL0     H32706   2.474   3.714   4.063  0.4914  0.1846  0.1767
  238MOL0     O32707   2.844   7.320   2.978 -0.0917 -0.2880 -0.0034
  238MOL0     C32708   2.869   7.430   2.930 -0.8195  0.6848 -0.1384
  238MOL0     O32709   2.976   7.470   2.869 -0.8975 -0.0156  0.0516
  238MOL0     C32710   3.084   7.379   2.847  0.1448 -0.4326  0.0053
  238MOL0     C32711   3.074   7.283   2.747 -0.7444 -0.3193 -0.8819
  238MOL0     C32712   3.170   7.189   2.721  0.5616  0.7344 -0.1706
  238MOL0     C32713   3.283   7.175   2.809  0.6741  0.2253  0.4017
  238MOL0     O32714   3.370   7.065   2.807  0.3966 -0.3830  0.3777
  238MOL0     C32715   3.327   6.950   2.725  0.1891 -0.5559 -0.3038
  238MOL0     C32716   3.419   6.835   2.774  0.7921 -0.7147 -0.6283
  238MOL0     C32717   3.427   6.707   2.693 -0.0479  0.0045  0.3259
  238MOL0     C32718   3.570   6.667   2.664  0.1721  0.3461  0.0483
  238MOL0     C32719   3.578   6.537   2.581  0.0158  0.0432  0.4472
  238MOL0     C32720   3.729   6.488   2.582 -0.1861 -0.6445  0.6887
  238MOL0     C32721   3.755   6.353   2.518 -1.0708 -0.3074 -0.4926
  238MOL0     C32722   3.750   6.238   2.615  0.2571 -0.2601  0.0827
  238MOL0     N32723   3.616   6.216   2.670  1.1600  0.4037  0.1127
  238MOL0     C32724   3.590   6.229   2.806  0.4766  0.5034  0.5257
  238MOL0     C32725   3.465   6.185   2.818 -0.1685 -0.1836  0.5344
  238MOL0     C32726   3.395   6.203   2.947 -0.4809  0.3085 -0.7893
  238MOL0     C32727   3.328   6.333   2.974  0.2462 -0.8161 -0.0235
  238MOL0     C32728   3.212   6.357   2.880  1.0241  0.8748 -0.4614
  238MOL0     C32729   3.105   6.236   2.848  0.1558 -0.7286 -0.7626
  238MOL0     O32730   3.018   6.225   2.961 -0.9242 -0.0609 -0.1808
  238MOL0     C32731   2.922   6.124   2.965  0.7106  0.2565  0.6556
  238MOL0     C32732   2.869   6.094   3.093 -0.5944 -0.1478  0.6571
  238MOL0     C32733   2.784   5.987   3.107  0.2487 -0.0437  0.5978
  238MOL0     C32734   2.747   5.955   3.247  0.3352  0.4600  0.1445
  238MOL0     C32735   2.741   5.908   2.994 -0.1513  0.2592  0.5653
  238MOL0     C32736   2.662   5.780   2.986  0.5456 -0.3570  0.8410
  238MOL0     O32737   2.724   5.669   3.035 -0.0516  0.3719  0.4343
  238MOL0     C32738   2.678   5.553   2.983  0.2178 -0.3275 -0.6299
  238MOL0     C32739   2.668   5.519   2.849  0.0043 -0.5981 -0.0875
  238MOL0     C32740   2.613   5.406   2.799  0.0135  0.3041  0.1202
  238MOL0     C32741   2.563   5.305   2.886  0.5822 -0.7261  0.1102
  238MOL0     O32742   2.488   5.202   2.844  0.1400  0.5693 -0.2772
  238MOL0     C32743   2.450   5.167   2.706  0.2413  0.5262  0.6871
  238MOL0     C32744   2.332   5.070   2.717  0.1484 -0.1167 -0.0717
  238MOL0     C32745   2.202   5.130   2.762 -0.8889 -0.5149  0.0419
  238MOL0     C32746   2.151   5.256   2.680 -0.4980  0.7645 -0.7203
  238MOL0     C32747   2.009   5.297   2.703 -0.6856  0.8439  0.1504
  238MOL0     C32748   1.981   5.320   2.854 -0.4987 -0.7715 -0.6582
  238MOL0     C32749   1.845   5.374   2.881  0.0946  0.0062  0.7187
  238MOL0     C32750   1.720   5.313   2.809  0.1842 -0.0816  0.9791
  238MOL0    Cl32751   1.711   5.142   2.809 -0.2091  0.4678 -0.2161
  238MOL0     C32752   2.576   5.327   3.022  0.1930 -0.1271 -0.6121
  238MOL0     C32753   2.641   5.447   3.070 -0.5049 -0.0781 -0.2684
  238MOL0     O32754   2.558   5.789   2.924  0.7913  1.0643 -0.5904
  238MOL0     C32755   2.790   5.951   2.867 -0.3974 -0.4646 -0.2416
  238MOL0     C32756   2.875   6.063   2.856 -0.8825 -0.2323 -0.3697
  238MOL0     N32757   3.413   6.140   2.696 -0.5357  0.5701 -0.6623
  238MOL0     N32758   3.508   6.163   2.608 -0.3652  0.7436 -0.0880
  238MOL0     C32759   3.288   7.256   2.922  0.0016 -0.8263 -0.4334
  238MOL0     C32760   3.195   7.366   2.934  0.5633 -0.5078  0.7585
  238MOL0     C32761   2.751   7.530   2.932 -0.5285 -0.2254 -0.3986
  238MOL0     C32762   2.739   7.610   2.818  0.6723  0.6407 -0.2616
  238MOL0     C32763   2.628   7.694   2.792  0.1378  0.2314  0.5228
  238MOL0     C32764   2.524   7.707   2.889  1.6622  0.1629  0.5372
  238MOL0     O32765   2.413   7.792   2.853  0.3268  0.9504  0.7804
  238MOL0     C32766   2.303   7.794   2.949  0.2337 -0.4443  0.2449
  238MOL0     C32767   2.195   7.881   2.896 -0.3465  0.4209 -0.6637
  238MOL0     C32768   2.046   7.840   2.941 -0.1074  0.3467 -0.6078
  238MOL0     C32769   2.014   7.856   3.089 -0.3136 -0.0690  1.3527
  238MOL0     C32770   1.870   7.876   3.108 -0.3859 -0.6321 -0.0522
  238MOL0     C32771   1.756   7.900   3.127  0.6486  0.4426 -0.2573
  238MOL0     C32772   2.537   7.627   3.008 -0.3425  1.0557  0.5608
  238MOL0     C32773   2.650   7.538   3.032  0.3572 -0.1081 -0.2554
  238MOL0     C32774   2.646   7.469   3.166 -0.7027  0.9672  0.8047
  238MOL0     H32775   3.002   7.311   2.670 -2.7067  1.4375  1.4409
  238MOL0     H32776   3.144   7.106   2.656  1.4694  1.4208 -1.4294
  238MOL0     H32777   3.334   6.963   2.617  1.5743 -1.0187 -0.2925
  238MOL0     H32778   3.220   6.927   2.738  0.2250 -3.1880 -3.5503
  238MOL0     H32779   3.520   6.874   2.793  0.2007  0.2223  0.7912
  238MOL0     H32780   3.381   6.810   2.874  1.3374  0.6070 -0.0580
  238MOL0     H32781   3.384   6.623   2.748  0.8085  1.4496  3.4278
  238MOL0     H32782   3.368   6.721   2.602 -0.8580 -1.0604  0.6631
  238MOL0     H32783   3.631   6.748   2.622 -0.6078  0.0004 -1.8485
  238MOL0     H32784   3.611   6.654   2.765  2.3807  1.8296 -0.5838
  238MOL0     H32785   3.537   6.556   2.481 -0.6072 -1.1781  0.4500
  238MOL0     H32786   3.514   6.462   2.627  1.2577 -2.0000 -0.9822
  238MOL0     H32787   3.793   6.563   2.533 -0.6495 -0.0130  1.0334
  238MOL0     H32788   3.777   6.501   2.680  1.1701 -1.8777  0.2280
  238MOL0     H32789   3.863   6.351   2.501 -0.6957 -1.3516  1.7272
  238MOL0     H32790   3.692   6.329   2.432 -1.0469 -1.0673 -0.3004
  238MOL0     H32791   3.782   6.154   2.552  4.2300  2.1677 -1.5432
  238MOL0     H32792   3.819   6.247   2.699  0.9338  0.0841 -0.4996
  238MOL0     H32793   3.649   6.250   2.895  1.1166 -1.2251  0.5599
  238MOL0     H32794   3.467   6.187   3.028 -1.9868 -2.9095  0.1056
  238MOL0     H32795   3.319   6.124   2.958  0.8229 -1.1544 -1.8031
  238MOL0     H32796   3.296   6.322   3.078  1.3912 -0.0112  0.4367
  238MOL0     H32797   3.394   6.420   2.972 -1.0701  0.2142 -0.3093
  238MOL0     H32798   3.156   6.434   2.932  0.4006 -1.5812  2.8447
  238MOL0     H32799   3.251   6.387   2.782 -0.2691 -0.7556 -1.5396
  238MOL0     H32800   3.053   6.266   2.756 -1.1595  2.3117  0.8480
  238MOL0     H32801   3.160   6.141   2.844  2.6112  0.4847  1.4749
  238MOL0     H32802   2.899   6.142   3.186  3.3093  0.1445 -0.5946
  238MOL0     H32803   2.723   6.045   3.305 -2.0765 -1.0668  1.6505
  238MOL0     H32804   2.829   5.926   3.314 -0.4871  0.5038  1.2054
  238MOL0     H32805   2.667   5.882   3.258  1.5876 -0.5696  3.9213
  238MOL0     H32806   2.701   5.592   2.776  0.3449 -2.7752 -2.2683
  238MOL0     H32807   2.587   5.396   2.694 -0.4523  2.9719 -0.0971
  238MOL0     H32808   2.415   5.256   2.651  0.2853 -0.9581 -1.8877
  238MOL0     H32809   2.528   5.122   2.644  1.1949 -0.6027  2.6203
  238MOL0     H32810   2.304   5.020   2.624  1.1065 -0.8605  0.0237
  238MOL0     H32811   2.364   4.990   2.785  0.8965 -2.6443 -3.1460
  238MOL0     H32812   2.243   5.163   2.857  0.7644 -2.1026 -0.0761
  238MOL0     H32813   2.123   5.058   2.783  2.3102 -3.3011  3.9438
  238MOL0     H32814   2.171   5.240   2.574 -0.8478  1.7266 -0.9348
  238MOL0     H32815   2.202   5.347   2.713  0.0156  0.1941  0.1033
  238MOL0     H32816   1.991   5.388   2.645  2.7977  0.5076 -1.6689
  238MOL0     H32817   1.946   5.216   2.664  0.5131 -0.4285  0.7480
  238MOL0     H32818   2.050   5.401   2.880 -2.5760  1.0718 -0.4690
  238MOL0     H32819   1.993   5.232   2.918 -0.2876 -0.8738 -0.8383
  238MOL0     H32820   1.849   5.478   2.847  0.2526  0.2634  1.5048
  238MOL0     H32821   1.823   5.368   2.988 -0.0884  3.3953  0.9769
  238MOL0     H32822   1.723   5.339   2.703 -2.8577  1.1400  1.0861
  238MOL0     H32823   1.625   5.354   2.843  0.0186 -1.2098  1.9382
  238MOL0     H32824   2.528   5.254   3.087 -3.4828  2.4038 -0.2019
  238MOL0     H32825   2.656   5.483   3.171 -2.2930  1.3477 -0.4714
  238MOL0     H32826   2.748   5.916   2.774  0.2507 -1.0079 -0.3348
  238MOL0     H32827   2.910   6.088   2.756 -1.1111  1.6649 -0.0027
  238MOL0     H32828   3.371   7.256   2.991 -0.2403 -2.3183 -0.1068
  238MOL0     H32829   3.209   7.446   3.007 -0.2161  1.4517 -1.1195
  238MOL0     H32830   2.819   7.601   2.746  2.2676 -1.3707  1.6019
  238MOL0     H32831   2.616   7.762   2.709 -1.2822  3.1594  2.9317
  238MOL0     H32832   2.264   7.693   2.960 -1.6785 -0.0685 -2.2498
  238MOL0     H32833   2.342   7.838   3.041  2.9018 -0.6982 -0.6803
  238MOL0     H32834   2.187   7.894   2.788 -1.0488  1.8660 -0.4638
  238MOL0     H32835   2.230   7.979   2.929  2.9096 -0.2204 -1.8389
  238MOL0     H32836   1.969   7.896   2.887 -1.1754  0.7504  1.2704
  238MOL0     H32837   2.039   7.733   2.916 -1.8648  0.0879  0.8380
  238MOL0     H32838   2.072   7.943   3.123 -0.2253  0.9708 -1.2440
  238MOL0     H32839   2.052   7.767   3.140  4.6654  0.7013 -0.3711
  238MOL0     H32840   1.655   7.933   3.111 -1.0895 -4.4316 -1.0677
  238MOL0     H32841   2.463   7.629   3.087  0.4405  3.5365  1.3399
  238MOL0     H32842   2.552   7.464   3.220 -0.4956 -0.0330  1.0910
  238MOL0     H32843   2.683   7.368   3.148  0.0770  1.2272  0.8748
  238MOL0     H32844   2.719   7.518   3.231  0.2381 -0.5949  0.9857
  239MOL0     O32845   9.161   9.143   0.101 -0.1339 -0.3201  0.9810
  239MOL0     C32846   9.247   9.143   0.182 -1.0845  0.0620 -0.7466
  239MOL0     O32847   9.385   9.144   0.156 -0.0232  0.4940  0.5989
  239MOL0     C32848   9.433   9.114   0.028  0.4791  0.7270  0.1822
  239MOL0     C32849   9.534   9.202  -0.022  1.4555  0.8932 -0.1262
  239MOL0     C32850   9.597   9.177  -0.136  0.4419 -0.7988 -0.0908
  239MOL0     C32851   9.563   9.060  -0.214  0.1793 -0.2195  0.1421
  239MOL0     O32852   9.623   9.039  -0.338  0.0157  0.0043  0.0087
  239MOL0     C32853   9.748   8.959  -0.330 -0.4754 -0.9816 -0.0699
  239MOL0     C32854   9.806   8.938  -0.466 -0.3589 -0.2770  0.9970
  239MOL0     C32855   9.904   9.043  -0.518  0.1716  0.0881  0.7995
  239MOL0     C32856  10.029   8.980  -0.591  0.1910  0.0607  0.3444
  239MOL0     C32857   9.996   8.914  -0.726 -0.8811 -0.5930 -0.6188
  239MOL0     C32858  10.112   8.889  -0.815 -0.7161 -0.0403 -0.3037
  239MOL0     C32859  10.212   8.774  -0.790  0.0589  0.1603 -0.1662
  239MOL0     C32860  10.139   8.635  -0.803  0.1998 -0.2985 -0.0133
  239MOL0     N32861  10.078   8.606  -0.926 -0.7914  0.3890  0.0748
  239MOL0     C32862  10.146   8.596  -1.053  0.7302  1.2553 -0.8219
  239MOL0     C32863  10.041   8.558  -1.132  0.8764 -0.7747  0.7146
  239MOL0     C32864  10.024   8.574  -1.283  0.9188 -0.0092 -0.3394
  239MOL0     C32865  10.018   8.439  -1.340 -0.3962 -0.2037 -0.3267
  239MOL0     C32866   9.981   8.430  -1.486 -0.1644 -0.0249  0.8292
  239MOL0     C32867   9.838   8.455  -1.514  0.1572 -0.3343 -1.1434
  239MOL0     O32868   9.764   8.355  -1.452 -0.7349  0.1783  0.0772
  239MOL0     C32869   9.639   8.389  -1.405  0.3054 -0.9491  1.1260
  239MOL0     C32870   9.621   8.480  -1.302 -0.7182 -0.5704  0.5610
  239MOL0     C32871   9.502   8.517  -1.267  0.2407  0.3101 -0.2020
  239MOL0     C32872   9.494   8.616  -1.156  0.2853  0.9253 -0.0835
  239MOL0     C32873   9.381   8.453  -1.326  0.1135 -0.9989  0.3169
  239MOL0     C32874   9.239   8.487  -1.288 -0.3043  0.0514 -0.0565
  239MOL0     O32875   9.147   8.385  -1.304  0.2032 -0.0148  0.4306
  239MOL0     C32876   9.023   8.401  -1.251  1.0704  1.2624 -1.2857
  239MOL0     C32877   8.988   8.331  -1.131  0.2612  0.5344 -0.0627
  239MOL0     C32878   8.869   8.357  -1.065  0.9281  0.0810 -0.9593
  239MOL0     C32879   8.780   8.455  -1.113  0.9004 -0.1613  0.1867
  239MOL0     O32880   8.666   8.484  -1.035 -0.5182 -0.1378  0.3379
  239MOL0     C32881   8.658   8.620  -0.988  0.2435  0.2315 -0.0044
  239MOL0     C32882   8.505   8.631  -0.957  0.2599 -0.0738 -0.7533
  239MOL0     C32883   8.442   8.730  -1.057  0.2849 -0.2755  0.1663
  239MOL0     C32884   8.438   8.875  -1.029 -0.5006  0.1759 -1.0402
  239MOL0     C32885   8.392   8.966  -1.152 -0.5916 -0.9753 -0.5976
  239MOL0     C32886   8.368   9.114  -1.093 -0.3601  0.1058 -0.5505
  239MOL0     C32887   8.325   9.203  -1.206 -0.8875 -0.7386 -0.5880
  239MOL0     C32888   8.320   9.354  -1.181  1.1261  0.7747 -0.5666
  239MOL0    Cl32889   8.195   9.376  -1.057  0.0800 -0.6312 -0.2845
  239MOL0     C32890   8.807   8.517  -1.235 -0.6487  0.9334  0.2193
  239MOL0     C32891   8.928   8.487  -1.306  0.2951  0.6690  0.4834
  239MOL0     O32892   9.212   8.599  -1.248 -0.0821  0.0870 -0.6232
  239MOL0     C32893   9.401   8.343  -1.414 -0.1250 -0.3135  0.7901
  239MOL0     C32894   9.531   8.316  -1.448  0.3779 -0.4759  0.7481
  239MOL0     N32895   9.918   8.546  -1.064 -0.0687 -0.7619 -0.6539
  239MOL0     N32896   9.946   8.584  -0.941  0.4935 -0.2317  0.6432
  239MOL0     C32897   9.468   8.974  -0.159  0.1975  1.5118  0.4073
  239MOL0     C32898   9.406   8.997  -0.040 -0.0136 -0.2892  0.0084
  239MOL0     C32899   9.210   9.136   0.331  0.3062 -0.3439  0.3145
  239MOL0     C32900   9.299   9.178   0.436  0.5094  1.0633  0.6193
  239MOL0     C32901   9.269   9.163   0.569  0.4928 -0.2037 -0.7162
  239MOL0     C32902   9.145   9.130   0.613  0.6611 -0.9605  0.1521
  239MOL0     O32903   9.119   9.149   0.749  0.4393 -0.2533  0.1209
  239MOL0     C32904   9.005   9.084   0.812  0.4384 -0.0231  0.2762
  239MOL0     C32905   9.028   9.087   0.960  0.9320 -0.8138 -0.4054
  239MOL0     C32906   9.144   9.006   1.019 -0.0353 -0.5642  0.0673
  239MOL0     C32907   9.157   9.027   1.172  0.0912 -0.2640 -0.1740
  239MOL0     C32908   9.054   8.934   1.218  0.6454  0.7223 -0.3936
  239MOL0     C32909   8.952   8.876   1.242  0.4252 -0.5219 -0.2405
  239MOL0     C32910   9.051   9.096   0.512  0.2836 -0.2596 -0.6483
  239MOL0     C32911   9.079   9.095   0.376 -0.1037 -0.6373  0.1772
  239MOL0     C32912   8.969   9.052   0.279 -1.0609  0.0527  0.6336
  239MOL0     H32913   9.551   9.293   0.035 -0.3032  1.5751 -0.6026
  239MOL0     H32914   9.664   9.240  -0.194 -2.6889  1.6329 -1.4083
  239MOL0     H32915   9.739   8.859  -0.286 -1.6179  0.3882  3.1232
  239MOL0     H32916   9.826   9.007  -0.269  0.6624  0.0672 -2.2473
  239MOL0     H32917   9.850   8.838  -0.469 -0.9623 -0.7643 -5.5895
  239MOL0     H32918   9.732   8.922  -0.544  2.4614 -2.5570 -1.4879
  239MOL0     H32919   9.856   9.110  -0.591  2.3624 -0.6017 -1.4231
  239MOL0     H32920   9.948   9.107  -0.441  1.1450  1.9192 -1.1790
  239MOL0     H32921  10.107   9.052  -0.617  4.0916 -4.8980 -3.8774
  239MOL0     H32922  10.076   8.897  -0.536  0.4566 -2.0611 -2.8206
  239MOL0     H32923   9.930   8.988  -0.773 -1.7970 -1.6388 -1.0084
  239MOL0     H32924   9.944   8.822  -0.697 -5.1384  1.2826 -1.4895
  239MOL0     H32925  10.074   8.863  -0.914  1.0302 -2.3274 -0.4571
  239MOL0     H32926  10.170   8.981  -0.827  1.0393 -1.4824 -5.8829
  239MOL0     H32927  10.269   8.787  -0.698  0.8708  0.0478 -0.6437
  239MOL0     H32928  10.284   8.773  -0.872 -1.4765 -1.1469 -1.5805
  239MOL0     H32929  10.218   8.561  -0.793  3.1210  1.8731 -4.1406
  239MOL0     H32930  10.057   8.618  -0.732 -1.2459 -2.4199 -2.0465
  239MOL0     H32931  10.247   8.619  -1.088  1.9015 -1.5974  0.4418
  239MOL0     H32932  10.114   8.623  -1.323  0.6320  0.1669 -0.7796
  239MOL0     H32933   9.927   8.625  -1.287  0.2369 -1.3303 -1.1183
  239MOL0     H32934  10.123   8.409  -1.328 -0.7075 -1.2366 -0.1019
  239MOL0     H32935   9.953   8.373  -1.282 -0.6759 -1.7418 -2.2927
  239MOL0     H32936  10.043   8.497  -1.547 -3.1735  0.9966 -1.3412
  239MOL0     H32937  10.000   8.328  -1.521 -0.7327  0.4391 -0.9088
  239MOL0     H32938   9.811   8.556  -1.481 -3.5363 -1.1975 -1.1261
  239MOL0     H32939   9.829   8.459  -1.623 -0.4084 -1.9245 -1.1808
  239MOL0     H32940   9.708   8.524  -1.254  1.0838 -0.7490 -2.2851
  239MOL0     H32941   9.470   8.555  -1.069  0.2138  1.7748  0.5055
  239MOL0     H32942   9.428   8.702  -1.173 -2.0951 -1.1584 -2.3967
  239MOL0     H32943   9.585   8.672  -1.135 -1.2156  2.6203  2.3417
  239MOL0     H32944   9.067   8.274  -1.082 -1.6839 -1.4727  0.8985
  239MOL0     H32945   8.848   8.305  -0.972 -2.2377 -1.8963 -2.5792
  239MOL0     H32946   8.716   8.610  -0.896  0.5361 -2.0409 -0.3951
  239MOL0     H32947   8.708   8.696  -1.048  0.8787 -0.6134 -0.5646
  239MOL0     H32948   8.452   8.535  -0.957 -0.0897  0.0766  1.1648
  239MOL0     H32949   8.488   8.672  -0.857 -1.0598  0.5587 -1.2140
  239MOL0     H32950   8.341   8.700  -1.084  0.3906  0.3460 -0.9525
  239MOL0     H32951   8.508   8.725  -1.144  0.8918  0.5634  0.5666
  239MOL0     H32952   8.539   8.910  -1.005  0.1262 -0.7625 -2.1882
  239MOL0     H32953   8.371   8.884  -0.943  0.1176 -2.4102 -0.1772
  239MOL0     H32954   8.456   8.957  -1.240 -0.6729  1.4250 -0.9902
  239MOL0     H32955   8.296   8.934  -1.194 -0.8708 -0.1435 -0.6233
  239MOL0     H32956   8.457   9.157  -1.047  3.4301 -1.9902 -5.1120
  239MOL0     H32957   8.293   9.113  -1.013  0.0738  1.7816 -0.0756
  239MOL0     H32958   8.230   9.179  -1.256  0.5928 -0.4524 -3.7843
  239MOL0     H32959   8.398   9.183  -1.284  1.6501 -1.4016  1.8197
  239MOL0     H32960   8.278   9.408  -1.267 -0.6927  0.7458  0.2442
  239MOL0     H32961   8.415   9.393  -1.143  2.2417 -1.1642 -1.2190
  239MOL0     H32962   8.728   8.573  -1.284 -0.0388  2.2976  0.7163
  239MOL0     H32963   8.952   8.542  -1.396 -2.7011  0.4643 -0.5488
  239MOL0     H32964   9.323   8.294  -1.472  0.4826 -3.5194  2.4188
  239MOL0     H32965   9.557   8.243  -1.524 -0.8850  2.8305 -3.2392
  239MOL0     H32966   9.451   8.876  -0.203  0.7934 -0.0034  3.3110
  239MOL0     H32967   9.339   8.926   0.006  0.5789  0.2045  1.6921
  239MOL0     H32968   9.391   9.221   0.400  1.4540 -0.8204  0.6657
  239MOL0     H32969   9.354   9.183   0.634  0.4662  0.7791 -0.9538
  239MOL0     H32970   8.907   9.124   0.786 -0.6473 -2.6459 -0.0520
  239MOL0     H32971   8.998   8.977   0.789  0.3487 -0.1135  0.7192
  239MOL0     H32972   8.943   9.029   0.999  0.4016 -2.9786 -4.2708
  239MOL0     H32973   9.032   9.191   0.992  0.6339 -1.0231  0.3591
  239MOL0     H32974   9.137   8.900   0.993  2.3368 -1.3032  2.1219
  239MOL0     H32975   9.235   9.042   0.970 -2.3993 -0.1494 -4.5792
  239MOL0     H32976   9.137   9.127   1.211  0.9922 -0.2166  0.1943
  239MOL0     H32977   9.254   8.992   1.209 -1.5246 -1.9683  2.8400
  239MOL0     H32978   8.860   8.832   1.275  1.5301 -0.7529  2.8642
  239MOL0     H32979   8.955   9.064   0.551 -0.1706 -0.1732 -1.6780
  239MOL0     H32980   8.917   9.142   0.244 -0.0477  0.7842  0.9787
  239MOL0     H32981   9.015   8.999   0.194  0.0731 -0.7774  1.7342
  239MOL0     H32982   8.897   8.989   0.332  1.4602  0.5872  5.1769
  240MOL0     O32983   0.993   7.995   9.271  0.0300 -0.2406 -0.2188
  240MOL0     C32984   0.921   7.915   9.329  0.1009 -0.4540 -0.0406
  240MOL0     O32985   0.914   7.910   9.464  0.8001 -0.2722  0.5469
  240MOL0     C32986   0.984   8.005   9.534 -0.2400  0.2592 -0.4352
  240MOL0     C32987   0.912   8.104   9.602 -0.0452  0.0609  0.2852
  240MOL0     C32988   0.987   8.197   9.676  0.3831 -0.3653  0.5545
  240MOL0     C32989   1.128   8.204   9.675  0.5834 -0.1165 -0.6404
  240MOL0     O32990   1.192   8.298   9.756 -1.0214  0.0349 -1.0081
  240MOL0     C32991   1.342   8.334   9.741 -0.2871 -0.3306 -0.9300
  240MOL0     C32992   1.394   8.402   9.866  0.4092  0.2825  0.3068
  240MOL0     C32993   1.403   8.301   9.985 -0.3173 -0.0559  0.1370
  240MOL0     C32994   1.292   8.330  10.095 -0.7551  0.3769 -0.7371
  240MOL0     C32995   1.271   8.221  10.197  0.1357  0.9096 -0.5968
  240MOL0     C32996   1.190   8.109  10.128 -0.1180 -0.2720 -0.1494
  240MOL0     C32997   1.043   8.136  10.155 -0.1335 -0.5468  0.3440
  240MOL0     C32998   0.976   8.105  10.015 -0.3732 -0.3433  0.2245
  240MOL0     N32999   0.828   8.108  10.023 -0.3025 -0.7087 -0.4895
  240MOL0     C33000   0.766   8.158  10.132 -0.6172  0.6271  0.7289
  240MOL0     C33001   0.634   8.151  10.096 -0.2647  0.4098 -0.9183
  240MOL0     C33002   0.520   8.185  10.194 -0.4117  0.8032  0.4825
  240MOL0     C33003   0.466   8.069  10.272  0.0955  0.3103 -0.2115
  240MOL0     C33004   0.539   8.045  10.407 -0.2085 -0.3363  0.1491
  240MOL0     C33005   0.524   8.159  10.505  0.5475 -0.0419  0.5942
  240MOL0     O33006   0.550   8.120  10.638 -0.0454 -0.3757  0.3771
  240MOL0     C33007   0.514   8.218  10.725  0.5398  0.2477 -0.1326
  240MOL0     C33008   0.592   8.327  10.751  0.0569  0.0712  0.5401
  240MOL0     C33009   0.546   8.439  10.828 -0.9008  0.0537 -0.4120
  240MOL0     C33010   0.667   8.547  10.854 -0.4218 -0.5572  0.0030
  240MOL0     C33011   0.415   8.453  10.872  0.4302  0.2890  0.3157
  240MOL0     C33012   0.360   8.578  10.936 -0.7174  0.2761  0.2649
  240MOL0     O33013   0.229   8.559  10.982 -0.7167 -0.0863  0.7184
  240MOL0     C33014   0.183   8.658  11.069  1.2256 -0.1264 -0.5989
  240MOL0     C33015   0.078   8.754  11.039 -0.3257 -0.8834 -0.2603
  240MOL0     C33016   0.041   8.851  11.138 -0.9158 -0.0456 -0.0059
  240MOL0     C33017   0.121   8.874  11.253  0.6652 -0.2889  0.4382
  240MOL0     O33018   0.079   8.964  11.344  0.5479  0.0617 -0.6559
  240MOL0     C33019   0.172   9.065  11.395  0.5814  0.8956  0.2179
  240MOL0     C33020   0.116   9.173  11.480  0.3797 -0.5640  0.2416
  240MOL0     C33021   0.000   9.267  11.428  0.3721 -0.8959 -0.5942
  240MOL0     C33022  -0.118   9.196  11.360 -0.1402  0.1604 -0.7511
  240MOL0     C33023  -0.223   9.292  11.303 -0.3151 -0.7755  0.8967
  240MOL0     C33024  -0.166   9.370  11.184  0.7163 -0.4519  0.1840
  240MOL0     C33025  -0.280   9.451  11.107  0.1737  0.2397 -0.2354
  240MOL0     C33026  -0.388   9.363  11.036  0.1038 -0.5685  0.3325
  240MOL0    Cl33027  -0.315   9.218  10.953  0.2356  0.0839  0.3128
  240MOL0     C33028   0.215   8.779  11.275  0.1955 -1.3362 -0.3235
  240MOL0     C33029   0.237   8.668  11.199  0.1431  0.1710 -0.1919
  240MOL0     O33030   0.421   8.687  10.945 -0.2657  0.0845  0.2418
  240MOL0     C33031   0.338   8.341  10.830  0.4015  0.2258  0.6975
  240MOL0     C33032   0.384   8.226  10.773 -0.2050  0.0003  0.2817
  240MOL0     N33033   0.630   8.100   9.967  0.7993  0.1651 -0.3481
  240MOL0     N33034   0.749   8.067   9.922  0.3427  0.1100 -0.1171
  240MOL0     C33035   1.199   8.108   9.609 -0.5328  0.0307 -0.2000
  240MOL0     C33036   1.127   8.011   9.544  0.1876 -1.3469 -1.0238
  240MOL0     C33037   0.840   7.829   9.243 -0.2558 -0.4301 -0.4169
  240MOL0     C33038   0.741   7.758   9.313  0.6154 -0.0401  0.3372
  240MOL0     C33039   0.638   7.685   9.242  0.2102 -0.1005  0.4163
  240MOL0     C33040   0.643   7.663   9.102 -0.1273 -0.3425  0.1956
  240MOL0     O33041   0.548   7.570   9.044 -0.9245  0.6162 -0.5448
  240MOL0     C33042   0.525   7.561   8.902  0.9190 -0.4406  0.2973
  240MOL0     C33043   0.620   7.459   8.851 -0.9469  0.6787 -0.0776
  240MOL0     C33044   0.629   7.468   8.707 -0.0190  0.5905  0.3012
  240MOL0     C33045   0.753   7.548   8.668 -0.8079  0.0488  0.4435
  240MOL0     C33046   0.749   7.559   8.522 -0.5580 -0.1591 -0.0404
  240MOL0     C33047   0.751   7.557   8.404 -0.2263 -1.3004  0.5935
  240MOL0     C33048   0.745   7.734   9.035  0.3771  0.4361 -0.3769
  240MOL0     C33049   0.843   7.811   9.097  0.3414  0.3552 -0.8273
  240MOL0     C33050   0.946   7.868   9.006  0.1851 -0.4191  0.1568
  240MOL0     H33051   0.803   8.105   9.605 -0.0827  2.6159 -0.3042
  240MOL0     H33052   0.938   8.281   9.725  0.5298 -0.0733  0.2019
  240MOL0     H33053   1.345   8.409   9.662 -3.9578 -1.0207 -1.9406
  240MOL0     H33054   1.408   8.251   9.713 -0.1924 -1.2997  1.8747
  240MOL0     H33055   1.494   8.446   9.860  3.0504 -5.0805 -0.4805
  240MOL0     H33056   1.326   8.483   9.894 -0.8852 -1.0398  1.1374
  240MOL0     H33057   1.376   8.203   9.945  0.8117  0.3544 -1.7527
  240MOL0     H33058   1.502   8.291  10.030 -0.1189  1.8890  0.2312
  240MOL0     H33059   1.339   8.416  10.145  0.3138 -0.8629  0.4669
  240MOL0     H33060   1.201   8.366  10.047  0.0796 -0.5003 -3.1322
  240MOL0     H33061   1.215   8.245  10.287 -0.0692 -3.2983  0.5792
  240MOL0     H33062   1.369   8.187  10.232 -1.2696 -2.2296  0.5691
  240MOL0     H33063   1.210   8.100  10.021 -0.4548 -0.4515 -0.1995
  240MOL0     H33064   1.208   8.017  10.184 -0.3709 -0.8169 -0.9546
  240MOL0     H33065   1.031   8.239  10.191 -0.8801 -1.2540  2.2726
  240MOL0     H33066   1.008   8.066  10.232  0.3080 -1.4805 -0.2808
  240MOL0     H33067   1.007   8.178   9.940 -1.0110 -0.1900  0.1076
  240MOL0     H33068   1.011   8.004   9.992 -0.6969 -1.7382  4.7342
  240MOL0     H33069   0.814   8.177  10.228  1.3176 -6.0987  1.6719
  240MOL0     H33070   0.439   8.236  10.140 -1.3120 -0.5767  0.4707
  240MOL0     H33071   0.548   8.257  10.271 -1.3980 -0.8842  2.5209
  240MOL0     H33072   0.358   8.074  10.288  0.3654  1.5999  1.4634
  240MOL0     H33073   0.469   7.981  10.207 -2.3434 -0.6150  0.8418
  240MOL0     H33074   0.488   7.958  10.451  0.8799 -0.3514  1.4252
  240MOL0     H33075   0.644   8.016  10.404 -0.0869  0.1429 -0.2318
  240MOL0     H33076   0.596   8.238  10.482 -1.2015  1.5390  0.2873
  240MOL0     H33077   0.428   8.209  10.489  0.1655  0.3091  3.4852
  240MOL0     H33078   0.690   8.332  10.705 -1.4234  2.2384 -2.7400
  240MOL0     H33079   0.645   8.626  10.781 -0.1813 -0.1811  0.3313
  240MOL0     H33080   0.766   8.505  10.833  0.1127  0.6913 -0.0478
  240MOL0     H33081   0.665   8.590  10.954 -0.8283 -0.1401 -0.1777
  240MOL0     H33082   0.040   8.761  10.938  0.9648 -1.6909 -0.8290
  240MOL0     H33083  -0.043   8.914  11.112 -1.4476 -0.6148  0.3010
  240MOL0     H33084   0.241   9.001  11.451 -0.0343 -0.1199 -0.1417
  240MOL0     H33085   0.225   9.111  11.311 -0.0208  1.2554  0.0296
  240MOL0     H33086   0.063   9.123  11.561  3.5540 -1.4940  1.9244
  240MOL0     H33087   0.198   9.228  11.528  1.7298 -2.6830  0.5173
  240MOL0     H33088   0.052   9.338  11.364  1.9913 -0.2180  1.3622
  240MOL0     H33089  -0.046   9.321  11.511  1.8142  0.3960 -0.6010
  240MOL0     H33090  -0.171   9.136  11.434 -1.3805  1.1422 -0.8118
  240MOL0     H33091  -0.091   9.138  11.271 -2.5701  2.5499 -3.2786
  240MOL0     H33092  -0.304   9.231  11.263 -0.3752 -1.3728  1.8875
  240MOL0     H33093  -0.255   9.361  11.382  0.9831  2.0245 -0.8651
  240MOL0     H33094  -0.121   9.297  11.117  2.3252  1.1628 -0.5676
  240MOL0     H33095  -0.081   9.433  11.211  2.7313 -2.9000 -0.1418
  240MOL0     H33096  -0.237   9.517  11.032 -0.0252  0.6964  0.0519
  240MOL0     H33097  -0.336   9.519  11.172  3.8902  0.9436  2.5362
  240MOL0     H33098  -0.446   9.415  10.959  1.0790 -0.8844 -0.6447
  240MOL0     H33099  -0.447   9.316  11.115 -0.1458  0.5291  0.8155
  240MOL0     H33100   0.252   8.785  11.377 -1.1281 -2.8096  0.2849
  240MOL0     H33101   0.307   8.595  11.241 -2.1220 -2.0619 -0.0069
  240MOL0     H33102   0.236   8.344  10.869  1.0446  0.6878  2.4442
  240MOL0     H33103   0.329   8.134  10.754  0.3391  0.1090 -2.0556
  240MOL0     H33104   1.305   8.085   9.621 -0.0657  1.3686 -1.4360
  240MOL0     H33105   1.185   7.941   9.484  1.2343 -2.5692  1.2995
  240MOL0     H33106   0.729   7.763   9.420 -2.6003 -0.0721  0.0700
  240MOL0     H33107   0.559   7.626   9.287 -0.4372 -0.2493 -0.8648
  240MOL0     H33108   0.420   7.548   8.874  1.2647  0.0115 -1.2622
  240MOL0     H33109   0.553   7.655   8.854 -4.7425  1.3264 -0.2964
  240MOL0     H33110   0.596   7.355   8.876  5.7822 -1.4005 -0.3646
  240MOL0     H33111   0.718   7.471   8.897  0.1541 -3.0753 -1.0422
  240MOL0     H33112   0.629   7.375   8.649 -1.5019  1.9532 -2.0437
  240MOL0     H33113   0.534   7.510   8.673  0.1133  0.5532 -0.1172
  240MOL0     H33114   0.844   7.501   8.706 -0.2643  1.5903  1.1276
  240MOL0     H33115   0.756   7.649   8.710 -0.1854 -0.7687  2.4826
  240MOL0     H33116   0.760   7.556   8.297 -0.7264  4.1743  0.2527
  240MOL0     H33117   0.758   7.703   8.932 -0.5070 -5.2356  0.9014
  240MOL0     H33118   1.043   7.880   9.056  0.8049 -2.3161 -0.4912
  240MOL0     H33119   0.970   7.798   8.926 -1.3487  0.8610 -1.4904
  240MOL0     H33120   0.911   7.962   8.963 -1.4956 -0.5023  1.2493
  241MOL0     O33121   3.829   2.231   1.742  0.1052 -0.0650  0.1427
  241MOL0     C33122   3.718   2.224   1.711  0.8276  0.0442  0.1462
  241MOL0     O33123   3.657   2.119   1.663  0.0118  0.1914 -0.0309
  241MOL0     C33124   3.727   2.001   1.643 -0.4192  0.4114 -0.9071
  241MOL0     C33125   3.685   1.874   1.684 -0.2274  0.0658 -0.2385
  241MOL0     C33126   3.753   1.757   1.651  0.5959  0.6753 -0.2401
  241MOL0     C33127   3.865   1.767   1.575 -1.1229  0.5502 -0.2845
  241MOL0     O33128   3.932   1.651   1.551  0.9459  0.2216 -0.3694
  241MOL0     C33129   4.031   1.632   1.451 -0.0570 -0.1537 -0.1875
  241MOL0     C33130   4.058   1.479   1.435  0.8492  0.5859  0.1087
  241MOL0     C33131   4.151   1.435   1.314  0.5140  0.0691 -0.2018
  241MOL0     C33132   4.113   1.284   1.280 -0.6669 -0.0622  0.1707
  241MOL0     C33133   4.178   1.244   1.154 -0.0257  0.7897 -0.3258
  241MOL0     C33134   4.339   1.225   1.162  0.5367  0.3482 -0.6838
  241MOL0     C33135   4.387   1.139   1.050 -0.0109  1.0297  0.5982
  241MOL0     C33136   4.536   1.148   1.052  0.6144 -0.3479 -0.0210
  241MOL0     N33137   4.590   1.055   0.956 -1.0005 -0.2937  0.6718
  241MOL0     C33138   4.676   1.101   0.848 -0.3560 -0.1362  0.5670
  241MOL0     C33139   4.693   0.985   0.780  0.8224 -0.0575 -0.3386
  241MOL0     C33140   4.776   0.968   0.655  0.5404 -0.9307 -0.1208
  241MOL0     C33141   4.926   0.934   0.669 -0.6071 -1.2780 -0.2138
  241MOL0     C33142   5.007   0.914   0.541  0.5449 -0.4454  0.9051
  241MOL0     C33143   5.151   0.904   0.575 -0.2361  0.1664  0.3240
  241MOL0     O33144   5.197   1.036   0.593 -0.0466 -0.3416 -0.0960
  241MOL0     C33145   5.322   1.066   0.630 -0.0192 -0.7814  1.0822
  241MOL0     C33146   5.353   1.202   0.644 -0.4889 -0.2669  1.0732
  241MOL0     C33147   5.479   1.239   0.688  0.1304 -0.3769 -0.1539
  241MOL0     C33148   5.498   1.387   0.716  0.8696 -0.4050 -0.8983
  241MOL0     C33149   5.573   1.146   0.743 -0.3364  0.2516 -0.6802
  241MOL0     C33150   5.703   1.171   0.801 -0.3780  0.7139 -0.3355
  241MOL0     O33151   5.751   1.296   0.810 -0.0843 -0.6212 -0.7375
  241MOL0     C33152   5.889   1.320   0.814  0.2071 -0.0472 -0.0198
  241MOL0     C33153   5.951   1.388   0.916  1.1273 -0.1059  0.0472
  241MOL0     C33154   6.083   1.425   0.908  0.3166  1.0532 -0.2077
  241MOL0     C33155   6.169   1.368   0.805 -0.0211 -0.1035  0.0167
  241MOL0     O33156   6.307   1.391   0.812  0.4224  0.4693  0.7340
  241MOL0     C33157   6.364   1.443   0.689 -0.2524  0.3738  0.5971
  241MOL0     C33158   6.521   1.465   0.718 -0.0427 -0.7642  0.3012
  241MOL0     C33159   6.532   1.608   0.769 -0.0413  0.2951  0.0842
  241MOL0     C33160   6.665   1.644   0.843 -0.1462 -0.5083 -0.3230
  241MOL0     C33161   6.649   1.785   0.893  0.5475 -0.8391 -0.3737
  241MOL0     C33162   6.572   1.795   1.020  0.3546 -0.3203 -1.2911
  241MOL0     C33163   6.471   1.910   0.993 -0.1670 -0.5869 -0.2247
  241MOL0     C33164   6.390   1.924   1.122  0.4162  0.2064 -0.5862
  241MOL0    Cl33165   6.293   1.779   1.175  0.1199 -0.6804  0.0221
  241MOL0     C33166   6.106   1.297   0.706  0.5279 -0.4004  0.0675
  241MOL0     C33167   5.971   1.285   0.699  0.2629 -0.2835 -0.8104
  241MOL0     O33168   5.760   1.064   0.856 -0.2272 -0.0810 -0.2998
  241MOL0     C33169   5.535   1.002   0.723  0.8971 -0.4200 -0.2859
  241MOL0     C33170   5.411   0.968   0.670 -0.2531 -1.1505  0.0710
  241MOL0     N33171   4.626   0.882   0.839 -1.2822 -0.1096 -0.1236
  241MOL0     N33172   4.569   0.923   0.947  0.1658  0.6118  0.7767
  241MOL0     C33173   3.918   1.892   1.534  0.9270 -0.9680  0.6332
  241MOL0     C33174   3.838   2.005   1.560 -0.4399  0.2361 -0.2364
  241MOL0     C33175   3.646   2.350   1.735 -0.2196  0.5994  0.1898
  241MOL0     C33176   3.540   2.362   1.646 -0.4134  0.0452 -0.6262
  241MOL0     C33177   3.449   2.467   1.659 -0.2541  0.7118  0.9789
  241MOL0     C33178   3.457   2.561   1.764 -0.0309 -0.0035 -0.5741
  241MOL0     O33179   3.375   2.667   1.790 -0.3822 -0.3252 -0.2159
  241MOL0     C33180   3.244   2.665   1.721 -0.2336  0.0521  0.0716
  241MOL0     C33181   3.143   2.746   1.799 -0.5336  0.5043 -0.5710
  241MOL0     C33182   3.196   2.873   1.852 -0.2549  0.2401 -0.1195
  241MOL0     C33183   3.077   2.967   1.920  0.3086  0.8473 -0.3601
  241MOL0     C33184   3.116   3.029   2.047  0.0651  0.4940 -0.6169
  241MOL0     C33185   3.124   3.063   2.166 -0.1907  0.0322  0.5122
  241MOL0     C33186   3.564   2.548   1.851 -0.6328  0.3281  0.0918
  241MOL0     C33187   3.656   2.444   1.838 -0.4441 -0.6919 -0.2545
  241MOL0     C33188   3.754   2.424   1.951 -0.7327 -0.3257  0.7771
  241MOL0     H33189   3.582   1.855   1.714  0.4385 -0.7270  1.6950
  241MOL0     H33190   3.717   1.660   1.685  1.6651  0.0129 -0.9424
  241MOL0     H33191   4.122   1.684   1.482  0.6805 -1.4705 -0.0797
  241MOL0     H33192   4.007   1.676   1.354  2.4561 -2.1708 -1.8598
  241MOL0     H33193   4.114   1.452   1.525  0.1530  0.8153  0.6191
  241MOL0     H33194   3.968   1.416   1.432  0.6588  0.8352  0.4536
  241MOL0     H33195   4.145   1.489   1.219 -1.7607 -1.8322 -1.2472
  241MOL0     H33196   4.253   1.446   1.353  0.1883  0.2446  0.6224
  241MOL0     H33197   4.151   1.217   1.358 -2.3112 -0.7699  0.4243
  241MOL0     H33198   4.006   1.258   1.273 -0.2229 -1.6840 -1.6641
  241MOL0     H33199   4.135   1.296   1.068  0.9082  0.5288 -0.9575
  241MOL0     H33200   4.144   1.140   1.143  2.3989  0.1218 -2.5040
  241MOL0     H33201   4.386   1.323   1.152  0.8494  0.5270  1.8642
  241MOL0     H33202   4.380   1.187   1.256  1.4979  1.7161 -0.5226
  241MOL0     H33203   4.351   1.184   0.957  2.8599  1.4450 -0.4353
  241MOL0     H33204   4.361   1.034   1.067 -0.1869  1.2095  1.4879
  241MOL0     H33205   4.564   1.252   1.030  0.9240 -0.3334  0.4398
  241MOL0     H33206   4.577   1.112   1.146  2.3362 -1.3339 -1.1070
  241MOL0     H33207   4.726   1.191   0.814  1.8252 -1.8881 -1.2064
  241MOL0     H33208   4.776   1.065   0.605  1.8836 -2.1448 -2.6982
  241MOL0     H33209   4.727   0.904   0.581  0.3315  1.0823 -1.8179
  241MOL0     H33210   4.959   1.024   0.721 -0.0178 -0.7090 -1.5100
  241MOL0     H33211   4.941   0.847   0.733  1.7251 -0.2193  0.8022
  241MOL0     H33212   4.978   0.821   0.491 -3.2135  0.4649  1.0855
  241MOL0     H33213   4.992   0.995   0.470  0.6967 -0.3753  0.9528
  241MOL0     H33214   5.167   0.863   0.675 -0.7127  1.1457  0.8233
  241MOL0     H33215   5.204   0.853   0.493 -1.9116 -1.9330  0.4889
  241MOL0     H33216   5.279   1.275   0.613  1.6500  0.9546 -1.5833
  241MOL0     H33217   5.524   1.408   0.820  1.2051 -0.7437 -0.9155
  241MOL0     H33218   5.407   1.437   0.680  0.6390 -1.3006 -1.5820
  241MOL0     H33219   5.585   1.415   0.656  0.5817  0.5889 -0.8837
  241MOL0     H33220   5.890   1.420   1.000  1.8866 -1.5695  1.1901
  241MOL0     H33221   6.125   1.477   0.993 -1.8532 -0.5815  2.0000
  241MOL0     H33222   6.368   1.368   0.609 -0.9844 -1.0360  1.8104
  241MOL0     H33223   6.308   1.529   0.652  0.8875  1.6201  1.6625
  241MOL0     H33224   6.548   1.384   0.786 -0.0426 -1.5419 -0.6092
  241MOL0     H33225   6.587   1.464   0.631  0.5730 -0.8012  0.7684
  241MOL0     H33226   6.449   1.621   0.838 -0.8386  1.4341 -1.0369
  241MOL0     H33227   6.528   1.672   0.680  0.8107  1.6578  0.9761
  241MOL0     H33228   6.754   1.633   0.781  2.5880 -1.7269  3.4240
  241MOL0     H33229   6.676   1.578   0.930 -0.7098 -0.0077  0.1407
  241MOL0     H33230   6.753   1.811   0.918  0.3234 -2.3942  2.6808
  241MOL0     H33231   6.627   1.854   0.812  4.9595  0.9792 -0.2886
  241MOL0     H33232   6.645   1.829   1.094 -0.6974 -2.8217  1.0573
  241MOL0     H33233   6.528   1.701   1.056  3.5769 -1.2304  0.7731
  241MOL0     H33234   6.403   1.902   0.908 -0.4189  0.2247 -0.1007
  241MOL0     H33235   6.519   2.006   0.975 -4.9472  1.7678 -1.8971
  241MOL0     H33236   6.314   1.998   1.095 -1.4870 -1.8322 -1.1526
  241MOL0     H33237   6.442   1.959   1.212  2.0235 -2.2875 -0.4607
  241MOL0     H33238   6.165   1.255   0.626 -1.6321  0.4394 -2.0812
  241MOL0     H33239   5.927   1.235   0.613  0.5741 -3.3297  0.6497
  241MOL0     H33240   5.616   0.932   0.744  2.0882 -0.0101 -3.0342
  241MOL0     H33241   5.383   0.867   0.644  1.8442 -1.3362 -1.7610
  241MOL0     H33242   4.020   1.900   1.499  1.1612 -0.6532  1.3749
  241MOL0     H33243   3.878   2.099   1.522 -0.5070  0.3911  0.0725
  241MOL0     H33244   3.522   2.296   1.563 -0.5424 -4.1363  2.4267
  241MOL0     H33245   3.374   2.466   1.581  2.2781 -0.1492 -1.6542
  241MOL0     H33246   3.258   2.705   1.620  0.6206  1.1334  0.6044
  241MOL0     H33247   3.204   2.563   1.720 -1.9267  0.6870 -1.2135
  241MOL0     H33248   3.108   2.681   1.880  1.6923  2.2660  1.9678
  241MOL0     H33249   3.052   2.764   1.740  0.1070 -0.2798 -1.8273
  241MOL0     H33250   3.275   2.865   1.928 -1.5382 -0.3575  1.1839
  241MOL0     H33251   3.242   2.934   1.773 -0.1535  1.8711  1.1340
  241MOL0     H33252   2.992   2.900   1.933 -0.1531  1.9040  3.3017
  241MOL0     H33253   3.050   3.050   1.856  1.6443  1.6181  0.0231
  241MOL0     H33254   3.128   3.067   2.273  1.3862  1.6521  0.4316
  241MOL0     H33255   3.565   2.600   1.946 -0.9111 -0.8856  0.7799
  241MOL0     H33256   3.764   2.499   2.030  0.5078 -0.4200  0.7330
  241MOL0     H33257   3.727   2.333   2.007 -0.2069 -0.7346  0.3734
  241MOL0     H33258   3.851   2.428   1.901 -0.8377 -0.5130  0.5549
  242MOL0     O33259   1.807  10.069   8.342  0.4360  0.6990 -0.2731
  242MOL0     C33260   1.786  10.016   8.231  0.2988  0.3598  0.7004
  242MOL0     O33261   1.808   9.883   8.201  0.8751 -0.0289 -0.2471
  242MOL0     C33262   1.840   9.789   8.297 -0.7142  0.2251  0.2274
  242MOL0     C33263   1.920   9.808   8.410 -0.3424 -1.1872 -0.0278
  242MOL0     C33264   1.957   9.697   8.485  0.3133  0.5597 -0.4788
  242MOL0     C33265   1.932   9.559   8.447 -0.1728 -0.4569 -0.4495
  242MOL0     O33266   1.967   9.459   8.533  0.0867  0.2333 -0.7439
  242MOL0     C33267   1.980   9.334   8.473 -0.3718  0.0153 -0.7468
  242MOL0     C33268   2.054   9.246   8.581 -0.5294  0.7661  0.6270
  242MOL0     C33269   1.995   9.228   8.716 -0.5308  0.0910  1.2005
  242MOL0     C33270   2.029   9.093   8.786  0.7318 -0.2397 -0.1970
  242MOL0     C33271   1.995   9.095   8.936 -0.3452 -0.8549 -0.4683
  242MOL0     C33272   1.844   9.090   8.980 -0.0591 -0.1819 -0.1415
  242MOL0     C33273   1.833   9.062   9.131  1.7032 -0.3331 -1.0849
  242MOL0     C33274   1.901   8.931   9.181 -0.5944 -0.6391  0.9299
  242MOL0     N33275   1.837   8.816   9.117  0.2099 -0.0812  0.6631
  242MOL0     C33276   1.875   8.775   8.995  0.2346  0.5119  0.6116
  242MOL0     C33277   1.782   8.680   8.969  0.3355 -0.3294 -0.4230
  242MOL0     C33278   1.753   8.627   8.833 -0.6791 -0.0677 -0.0701
  242MOL0     C33279   1.826   8.492   8.804 -0.6471  0.2567 -0.1650
  242MOL0     C33280   1.832   8.398   8.931 -0.2233  0.3750 -0.5979
  242MOL0     C33281   1.903   8.267   8.899  0.1290 -0.5241 -0.7779
  242MOL0     O33282   2.041   8.286   8.862 -0.5685 -1.1910  0.0724
  242MOL0     C33283   2.113   8.176   8.826 -0.5490 -0.1899 -1.3345
  242MOL0     C33284   2.060   8.049   8.798 -0.4416 -0.3107  0.0401
  242MOL0     C33285   2.149   7.948   8.774 -0.5998  0.2397  0.7152
  242MOL0     C33286   2.089   7.820   8.742 -0.3064 -0.1517 -0.0771
  242MOL0     C33287   2.292   7.959   8.775  0.2940 -1.0417 -0.3445
  242MOL0     C33288   2.387   7.847   8.752 -0.5609 -0.0237 -0.2319
  242MOL0     O33289   2.339   7.722   8.755  0.4427  0.1001  0.3757
  242MOL0     C33290   2.433   7.615   8.735  0.0467  0.5584  0.0570
  242MOL0     C33291   2.401   7.504   8.664  0.1989  0.0534  0.0850
  242MOL0     C33292   2.481   7.389   8.672 -0.5944 -1.3572  0.3911
  242MOL0     C33293   2.600   7.382   8.749  0.2148 -0.7036  0.3849
  242MOL0     O33294   2.662   7.258   8.733 -0.9335 -0.1617  0.6578
  242MOL0     C33295   2.775   7.236   8.810  0.1808 -0.1653 -0.2344
  242MOL0     C33296   2.734   7.199   8.960  0.4978 -0.8072 -0.6131
  242MOL0     C33297   2.845   7.179   9.058  0.6112  0.5193  1.2746
  242MOL0     C33298   2.798   7.119   9.188 -0.4877 -0.7450 -0.3776
  242MOL0     C33299   2.913   7.116   9.301 -0.3271 -0.0153  0.1776
  242MOL0     C33300   2.898   7.246   9.386 -1.0765 -0.0213  0.1159
  242MOL0     C33301   3.002   7.274   9.492 -0.0603  0.7955 -0.5231
  242MOL0     C33302   3.015   7.179   9.611 -0.0860 -0.0939  0.2176
  242MOL0    Cl33303   2.866   7.084   9.654  0.6593 -0.1099  0.0617
  242MOL0     C33304   2.643   7.498   8.814  0.1977 -0.1907 -0.9567
  242MOL0     C33305   2.555   7.609   8.809 -0.5625 -0.2392  0.9879
  242MOL0     O33306   2.510   7.874   8.746 -0.2243 -0.1285  0.2944
  242MOL0     C33307   2.337   8.089   8.788 -0.1294  0.0411  0.4216
  242MOL0     C33308   2.245   8.196   8.804 -0.3767 -0.0002 -1.2018
  242MOL0     N33309   1.697   8.662   9.078  0.1215  0.1980  0.3284
  242MOL0     N33310   1.744   8.737   9.170  0.0737  0.0673  0.2995
  242MOL0     C33311   1.843   9.541   8.340  0.5162  0.2812 -0.2852
  242MOL0     C33312   1.804   9.655   8.271  0.3400 -1.0081 -0.6275
  242MOL0     C33313   1.770  10.096   8.110 -0.3393 -0.1781  0.2549
  242MOL0     C33314   1.818  10.046   7.988  0.1486 -0.1233  0.2834
  242MOL0     C33315   1.799  10.112   7.866  0.0723 -0.5088  0.4217
  242MOL0     C33316   1.746  10.244   7.861  0.8021 -0.3444  0.3338
  242MOL0     O33317   1.743  10.328   7.751 -0.4023 -0.0317  0.8870
  242MOL0     C33318   1.829  10.293   7.631 -0.2596  1.4547  0.7513
  242MOL0     C33319   1.973  10.323   7.667 -0.5163  0.3396 -0.2664
  242MOL0     C33320   2.063  10.274   7.561 -0.4160 -0.0751 -0.6849
  242MOL0     C33321   2.204  10.257   7.602 -0.1666 -0.4397  0.0893
  242MOL0     C33322   2.266  10.142   7.535 -0.1270  0.7863 -0.0475
  242MOL0     C33323   2.308  10.029   7.505 -0.5048 -0.3948  0.0727
  242MOL0     C33324   1.699  10.292   7.981 -0.1317 -0.4988  0.7323
  242MOL0     C33325   1.709  10.221   8.102  0.2915 -0.1730  0.0708
  242MOL0     C33326   1.625  10.293   8.209  0.4970 -0.5403 -0.3709
  242MOL0     H33327   1.945   9.898   8.463 -2.6602 -1.9973  2.7188
  242MOL0     H33328   2.027   9.718   8.565 -0.1989 -2.7489  0.9653
  242MOL0     H33329   2.051   9.350   8.391  0.9325  0.1572  0.3681
  242MOL0     H33330   1.888   9.286   8.438  0.5211 -0.7995 -2.0879
  242MOL0     H33331   2.083   9.149   8.539  1.8536  0.7829  2.0859
  242MOL0     H33332   2.148   9.292   8.611  1.6002 -3.8774  1.9604
  242MOL0     H33333   2.022   9.310   8.782  1.5536 -2.3974  3.6978
  242MOL0     H33334   1.886   9.234   8.717 -0.6222 -0.3255 -1.0713
  242MOL0     H33335   1.967   9.016   8.739  0.8317 -0.5051  0.1032
  242MOL0     H33336   2.132   9.061   8.765  0.4276 -0.9369 -0.6755
  242MOL0     H33337   2.052   9.183   8.966  0.4827 -1.3040 -0.6870
  242MOL0     H33338   2.052   9.016   8.987  0.4893 -0.6840 -1.1216
  242MOL0     H33339   1.801   9.188   8.961 -1.2874 -0.8632 -0.9878
  242MOL0     H33340   1.788   9.016   8.921  1.2564 -1.0989 -0.2842
  242MOL0     H33341   1.729   9.046   9.159  2.1878 -1.5863  0.1145
  242MOL0     H33342   1.870   9.142   9.195 -1.6761  1.6010 -1.3404
  242MOL0     H33343   2.009   8.947   9.167 -1.0856  0.8626 -2.0590
  242MOL0     H33344   1.895   8.916   9.289 -0.0595 -0.5822  0.9738
  242MOL0     H33345   1.954   8.819   8.935  2.1642  1.7747  3.8202
  242MOL0     H33346   1.788   8.692   8.752  0.8113 -0.8501 -0.0929
  242MOL0     H33347   1.645   8.609   8.834 -0.6947 -0.2724 -1.8455
  242MOL0     H33348   1.768   8.447   8.723 -2.4868 -1.0187  1.7711
  242MOL0     H33349   1.925   8.515   8.762  1.1085 -0.2198  3.3347
  242MOL0     H33350   1.875   8.454   9.015  0.5437  1.4695 -1.6888
  242MOL0     H33351   1.730   8.379   8.966 -0.8394  1.3213 -1.7824
  242MOL0     H33352   1.896   8.213   8.993 -0.8231  1.3441  0.2906
  242MOL0     H33353   1.856   8.220   8.812  1.0600 -0.3457 -1.3958
  242MOL0     H33354   1.952   8.035   8.799 -0.2088 -2.6865  1.9083
  242MOL0     H33355   2.137   7.771   8.656 -0.3171  1.0106 -0.7716
  242MOL0     H33356   1.986   7.830   8.708 -0.6529 -1.7000  0.4412
  242MOL0     H33357   2.088   7.753   8.828 -1.8477  0.9699  0.8297
  242MOL0     H33358   2.315   7.510   8.598 -0.1654  1.6285  0.6631
  242MOL0     H33359   2.465   7.299   8.614  2.0309 -1.0284 -1.0053
  242MOL0     H33360   2.821   7.151   8.759  2.7392  1.6437 -1.1662
  242MOL0     H33361   2.859   7.305   8.805 -1.3315  1.8394  0.6407
  242MOL0     H33362   2.669   7.279   8.997  0.1288 -1.5279  0.3509
  242MOL0     H33363   2.664   7.115   8.953 -3.0281  1.9537 -1.2343
  242MOL0     H33364   2.875   7.281   9.084 -2.1760  2.0118 -0.7950
  242MOL0     H33365   2.922   7.116   9.013 -1.0832  2.1019 -4.7686
  242MOL0     H33366   2.755   7.019   9.177 -1.9779 -0.2107  0.3091
  242MOL0     H33367   2.709   7.161   9.235 -1.8270 -3.8141  0.0725
  242MOL0     H33368   2.903   7.024   9.360 -0.9131 -0.9879 -1.3748
  242MOL0     H33369   3.013   7.117   9.256 -0.5865  2.5175 -0.4856
  242MOL0     H33370   2.798   7.267   9.426 -0.6796  3.4236 -0.4325
  242MOL0     H33371   2.919   7.320   9.309 -2.2639 -1.1632 -1.3807
  242MOL0     H33372   2.994   7.377   9.530 -0.1500  0.8092 -0.5798
  242MOL0     H33373   3.107   7.267   9.459  0.3999  1.1020  0.8100
  242MOL0     H33374   3.036   7.239   9.700  1.2285 -0.0970 -0.0717
  242MOL0     H33375   3.100   7.113   9.589 -0.1393 -0.2289  0.4122
  242MOL0     H33376   2.728   7.497   8.882  0.3933  0.3113 -1.1944
  242MOL0     H33377   2.586   7.687   8.878  0.0596 -1.2422  1.8622
  242MOL0     H33378   2.445   8.104   8.785 -0.1980  0.9929  1.8110
  242MOL0     H33379   2.276   8.297   8.828 -0.3188 -0.1949 -0.4381
  242MOL0     H33380   1.795   9.454   8.297 -0.2382  0.7007 -0.3114
  242MOL0     H33381   1.757   9.638   8.175 -2.2493  0.4037  0.3047
  242MOL0     H33382   1.875   9.953   7.986  0.1193 -0.1414  0.2700
  242MOL0     H33383   1.832  10.058   7.778 -1.7385  0.5751 -0.9839
  242MOL0     H33384   1.818  10.187   7.608 -3.2270  1.8052  0.1713
  242MOL0     H33385   1.809  10.361   7.548  3.4986  2.2497  0.2992
  242MOL0     H33386   2.005  10.269   7.757  3.2750  1.7401 -0.6101
  242MOL0     H33387   1.992  10.430   7.677  5.2795 -0.5980  4.4478
  242MOL0     H33388   2.025  10.180   7.518  1.3861 -2.2306  2.1128
  242MOL0     H33389   2.074  10.341   7.476  0.6433 -2.7620 -2.8222
  242MOL0     H33390   2.214  10.259   7.711  0.7100  0.9866  0.0161
  242MOL0     H33391   2.260  10.345   7.567  0.6319 -1.1506 -0.4637
  242MOL0     H33392   2.325   9.927   7.477 -1.1391 -0.4421 -0.1599
  242MOL0     H33393   1.663  10.394   7.988  0.9487  0.1456 -1.7658
  242MOL0     H33394   1.590  10.224   8.285 -1.7149  2.1844  1.2671
  242MOL0     H33395   1.686  10.366   8.263 -0.8064 -0.1434  0.6084
  242MOL0     H33396   1.543  10.345   8.159 -0.1072  0.9588  2.0195
  243MOL0     O33397   9.384  10.480   3.217 -0.2506  0.4132  0.4279
  243MOL0     C33398   9.300  10.566   3.209  0.2770 -0.5656 -0.3520
  243MOL0     O33399   9.245  10.607   3.096 -0.3081  0.7214 -0.5147
  243MOL0     C33400   9.263  10.542   2.978 -0.2190 -0.9692  0.2791
  243MOL0     C33401   9.276  10.403   2.957 -0.2963  0.5921 -0.1495
  243MOL0     C33402   9.289  10.348   2.824  1.4086 -0.3119  0.2763
  243MOL0     C33403   9.283  10.436   2.709  0.5179  0.0036  0.7138
  243MOL0     O33404   9.270  10.397   2.576  0.5016 -0.0180 -0.7632
  243MOL0     C33405   9.393  10.424   2.506 -0.5689  0.0087 -1.3797
  243MOL0     C33406   9.369  10.371   2.365 -0.5531 -0.0719  0.9748
  243MOL0     C33407   9.380  10.216   2.337 -0.6781 -0.0787 -0.1209
  243MOL0     C33408   9.476  10.188   2.211  0.1849  0.5015 -0.5635
  243MOL0     C33409   9.506  10.038   2.204 -0.3092 -0.5858 -0.0435
  243MOL0     C33410   9.579   9.998   2.079 -0.8614  0.3877 -0.0714
  243MOL0     C33411   9.631   9.857   2.079 -0.4964  1.6880  0.8994
  243MOL0     C33412   9.734   9.834   2.177  0.5386 -0.5445 -0.7558
  243MOL0     N33413   9.681   9.792   2.305  0.7669 -0.2488 -0.8860
  243MOL0     C33414   9.701   9.860   2.433  0.4569 -0.3592  0.6962
  243MOL0     C33415   9.656   9.772   2.526  0.1582 -0.1891 -0.0872
  243MOL0     C33416   9.665   9.797   2.676 -0.4303 -0.0630  0.3609
  243MOL0     C33417   9.752   9.692   2.744  0.7434 -0.8556 -0.6192
  243MOL0     C33418   9.900   9.689   2.680 -0.2867  0.5940 -0.5690
  243MOL0     C33419   9.982   9.561   2.708 -0.8902  0.1041  0.7835
  243MOL0     O33420  10.012   9.544   2.845 -0.3912  0.0748  0.1126
  243MOL0     C33421  10.139   9.587   2.873  1.0168 -0.5919  0.2708
  243MOL0     C33422  10.253   9.510   2.849 -0.1166 -0.8493  0.4080
  243MOL0     C33423  10.386   9.560   2.854 -0.4593  0.7761 -0.3006
  243MOL0     C33424  10.503   9.464   2.809  0.2093 -0.7518 -0.2033
  243MOL0     C33425  10.400   9.686   2.912  0.3659 -0.7404 -0.0585
  243MOL0     C33426  10.534   9.747   2.936 -0.2313 -0.6480 -1.4981
  243MOL0     O33427  10.571   9.849   2.854 -0.5281  0.4975 -0.3252
  243MOL0     C33428  10.697   9.910   2.872  0.3643 -0.4607 -0.7172
  243MOL0     C33429  10.816   9.861   2.808 -0.0070 -0.0909  0.4366
  243MOL0     C33430  10.943   9.930   2.824  0.0943  0.3963 -0.5138
  243MOL0     C33431  10.948  10.044   2.900  0.3036  0.3407  0.2889
  243MOL0     O33432  11.068  10.112   2.918  0.4402  0.1912  0.9104
  243MOL0     C33433  11.072  10.234   2.992 -0.7507  0.1653 -0.2652
  243MOL0     C33434  11.220  10.288   2.996 -0.1025  0.2749  1.2615
  243MOL0     C33435  11.275  10.284   2.858  0.8399  0.1732 -0.3152
  243MOL0     C33436  11.415  10.342   2.848 -0.5145 -0.0643  0.6114
  243MOL0     C33437  11.498  10.303   2.717  0.0999 -0.7184  0.6783
  243MOL0     C33438  11.636  10.375   2.716  0.7728  0.8195  0.2804
  243MOL0     C33439  11.720  10.320   2.833 -0.9280 -0.5014 -0.7946
  243MOL0     C33440  11.867  10.360   2.827  0.1454 -1.0210  0.0711
  243MOL0    Cl33441  11.974  10.295   2.958 -0.0402 -0.5241 -0.2643
  243MOL0     C33442  10.827  10.089   2.960  0.2979 -0.4052 -0.6415
  243MOL0     C33443  10.705  10.021   2.939 -0.5241  0.2157 -0.5077
  243MOL0     O33444  10.619   9.692   3.010  0.2914  0.2733  0.0410
  243MOL0     C33445  10.284   9.769   2.933  0.1991  0.4169  0.7625
  243MOL0     C33446  10.159   9.710   2.930  0.6525 -0.5989  0.1171
  243MOL0     N33447   9.619   9.656   2.455  0.0531 -0.3795 -0.1834
  243MOL0     N33448   9.617   9.671   2.331 -0.2175  0.8197  0.4619
  243MOL0     C33449   9.274  10.578   2.736  0.7638  0.1568  0.4943
  243MOL0     C33450   9.266  10.622   2.867  0.0224 -0.8293 -0.0984
  243MOL0     C33451   9.230  10.626   3.331 -0.2329 -0.5230  0.1891
  243MOL0     C33452   9.170  10.746   3.319 -0.8518 -0.2076  0.5941
  243MOL0     C33453   9.114  10.812   3.430 -0.5573  0.3197  0.8563
  243MOL0     C33454   9.108  10.739   3.554  0.0921 -0.5392  0.0017
  243MOL0     O33455   9.061  10.770   3.677  0.0048 -0.9763  0.2356
  243MOL0     C33456   9.023  10.903   3.698 -0.3052 -0.0106  0.4443
  243MOL0     C33457   9.142  10.978   3.757  0.4995 -0.0883 -0.0289
  243MOL0     C33458   9.094  11.091   3.853 -0.2350 -0.7922  0.0607
  243MOL0     C33459   9.219  11.154   3.919  1.1470 -0.2936  0.5191
  243MOL0     C33460   9.327  11.193   3.831 -0.0703  0.5857 -0.2092
  243MOL0     C33461   9.413  11.221   3.753 -0.0927 -0.0339 -0.0517
  243MOL0     C33462   9.137  10.599   3.550  0.2330 -0.2213 -0.5275
  243MOL0     C33463   9.201  10.542   3.440  0.9777 -1.1608 -0.4558
  243MOL0     C33464   9.231  10.399   3.471  0.5491 -0.2884  1.3050
  243MOL0     H33465   9.269  10.344   3.047  1.1390 -2.2769 -1.7606
  243MOL0     H33466   9.291  10.239   2.822  1.5231 -0.3067  0.0151
  243MOL0     H33467   9.473  10.370   2.558 -1.9211 -0.1249  0.6887
  243MOL0     H33468   9.414  10.531   2.508 -0.2940 -0.0423  0.8978
  243MOL0     H33469   9.274  10.409   2.326  0.9553  1.8609 -1.0262
  243MOL0     H33470   9.430  10.439   2.305 -2.9315 -0.0460 -1.6024
  243MOL0     H33471   9.425  10.173   2.427  0.3308  3.3526  1.1748
  243MOL0     H33472   9.283  10.166   2.332 -1.4124  1.1530  1.1474
  243MOL0     H33473   9.416  10.204   2.120 -2.5726  0.6040  1.1579
  243MOL0     H33474   9.569  10.244   2.197  1.0177 -0.9128 -0.8342
  243MOL0     H33475   9.416   9.976   2.214 -1.3645  0.7648 -0.8257
  243MOL0     H33476   9.574  10.024   2.289 -0.5950 -1.1214  0.1004
  243MOL0     H33477   9.512  10.017   1.995 -0.4799  0.4455 -0.3640
  243MOL0     H33478   9.660  10.071   2.065 -1.7261  2.2561  3.4429
  243MOL0     H33479   9.678   9.822   1.987 -0.8599  0.7139  1.0693
  243MOL0     H33480   9.553   9.781   2.093 -0.1649  0.9560 -0.9732
  243MOL0     H33481   9.811   9.765   2.142  1.4609  1.3391 -2.6884
  243MOL0     H33482   9.806   9.917   2.176  2.6304 -2.1667  1.6101
  243MOL0     H33483   9.749   9.957   2.442  0.4892 -0.1089 -1.4582
  243MOL0     H33484   9.567   9.790   2.724 -2.2127 -2.4470 -3.1047
  243MOL0     H33485   9.709   9.892   2.705  1.2427 -0.3585 -0.9614
  243MOL0     H33486   9.741   9.716   2.850  1.8784 -0.4073 -0.5915
  243MOL0     H33487   9.699   9.598   2.727  0.7829 -1.0299  0.2115
  243MOL0     H33488   9.877   9.679   2.573 -0.3658  1.3290 -0.6245
  243MOL0     H33489   9.959   9.777   2.707 -0.0293  0.6993 -1.4289
  243MOL0     H33490   9.937   9.470   2.668  2.5841 -1.5316  0.2249
  243MOL0     H33491  10.075   9.565   2.650  0.2156  1.4833  2.5137
  243MOL0     H33492  10.234   9.408   2.818 -1.9882  0.1276 -2.0303
  243MOL0     H33493  10.595   9.500   2.856 -1.2523 -0.5340  2.7479
  243MOL0     H33494  10.504   9.446   2.701 -0.3335 -0.9462 -0.1806
  243MOL0     H33495  10.487   9.373   2.868  0.6789 -0.4095  0.4688
  243MOL0     H33496  10.819   9.775   2.742 -0.9571 -0.5685  1.0043
  243MOL0     H33497  11.040   9.899   2.784 -0.2002 -0.9856 -0.2011
  243MOL0     H33498  10.997  10.301   2.947 -1.6460 -1.3835 -1.1631
  243MOL0     H33499  11.045  10.216   3.097 -1.3357 -3.0057 -0.8652
  243MOL0     H33500  11.218  10.384   3.049 -0.4647 -0.7190  3.1025
  243MOL0     H33501  11.287  10.226   3.056  3.2975  0.3251 -2.1065
  243MOL0     H33502  11.210  10.337   2.788  1.5416 -1.5607 -2.3795
  243MOL0     H33503  11.284  10.184   2.815  4.1441 -0.4795  1.5339
  243MOL0     H33504  11.470  10.302   2.934 -0.0990  0.0202  0.3917
  243MOL0     H33505  11.402  10.451   2.856 -2.1869 -0.3089  1.5275
  243MOL0     H33506  11.516  10.195   2.714 -3.0855 -1.4100  1.6700
  243MOL0     H33507  11.444  10.323   2.624  0.6283  0.8672  0.6811
  243MOL0     H33508  11.641  10.485   2.718  3.4312  0.7423  0.9557
  243MOL0     H33509  11.679  10.339   2.622 -0.5648  0.6946 -0.3169
  243MOL0     H33510  11.711  10.211   2.826 -0.2087 -0.6089 -0.1622
  243MOL0     H33511  11.680  10.340   2.932  3.9366 -2.0525  1.7868
  243MOL0     H33512  11.879  10.468   2.844  2.5397 -0.8888 -1.7729
  243MOL0     H33513  11.913  10.340   2.730  0.0224 -1.4631  0.1024
  243MOL0     H33514  10.819  10.160   3.041  1.7584 -1.8009  0.8189
  243MOL0     H33515  10.609  10.048   2.982 -0.8812 -2.0436  0.2614
  243MOL0     H33516  10.283   9.867   2.981  1.6805 -1.1630  4.3678
  243MOL0     H33517  10.085   9.782   2.964  0.4126  0.0961 -1.7304
  243MOL0     H33518   9.257  10.651   2.658 -2.5962 -0.0407  0.9007
  243MOL0     H33519   9.279  10.729   2.879 -0.9006 -0.5423 -1.4553
  243MOL0     H33520   9.178  10.799   3.225 -2.3068 -2.7316 -1.0669
  243MOL0     H33521   9.089  10.917   3.419 -0.2023  0.2649 -0.7354
  243MOL0     H33522   8.991  10.945   3.602  0.7247 -2.7989 -1.2516
  243MOL0     H33523   8.937  10.895   3.766 -1.2564  2.1354 -0.4231
  243MOL0     H33524   9.213  11.013   3.681 -2.2810 -0.3106 -2.9605
  243MOL0     H33525   9.199  10.909   3.820 -1.9676 -0.3175  2.1267
  243MOL0     H33526   9.043  11.166   3.792  3.2616  1.3885 -0.4358
  243MOL0     H33527   9.031  11.049   3.932  0.4052  0.3104  1.1820
  243MOL0     H33528   9.259  11.094   4.001  1.9188 -3.4791 -1.9927
  243MOL0     H33529   9.189  11.254   3.953  3.3156  0.9517 -0.9849
  243MOL0     H33530   9.475  11.254   3.673 -2.0070  1.4979 -1.0082
  243MOL0     H33531   9.115  10.533   3.633 -2.0024  0.9999 -0.0675
  243MOL0     H33532   9.136  10.350   3.449  1.3058 -2.1471  1.9772
  243MOL0     H33533   9.311  10.358   3.408  0.6026  1.8192 -0.0771
  243MOL0     H33534   9.264  10.379   3.573  1.9553  0.6250  1.0608
  244MOL0     O33535   6.731   6.063  10.390  0.7859 -0.5753 -0.2720
  244MOL0     C33536   6.753   6.061  10.274 -0.3630 -0.0763  0.0561
  244MOL0     O33537   6.813   6.159  10.197 -0.1542 -0.0961  0.3344
  244MOL0     C33538   6.817   6.288  10.244 -0.1592 -1.2153 -0.0029
  244MOL0     C33539   6.706   6.361  10.293 -0.5352 -0.4767  0.0045
  244MOL0     C33540   6.716   6.490  10.335 -0.0127 -0.8353 -0.3634
  244MOL0     C33541   6.834   6.558  10.329  0.4149 -0.8009 -0.5176
  244MOL0     O33542   6.836   6.680  10.390 -0.5782  0.1762 -0.4540
  244MOL0     C33543   6.936   6.778  10.364  0.5799 -0.3884 -0.0494
  244MOL0     C33544   6.899   6.916  10.402  0.0187 -1.6971 -0.5539
  244MOL0     C33545   6.783   6.958  10.302 -0.2667 -0.5615  0.5198
  244MOL0     C33546   6.724   7.096  10.334  0.1645 -1.1995  0.2679
  244MOL0     C33547   6.665   7.143  10.198  0.5703 -0.7970 -0.7224
  244MOL0     C33548   6.548   7.240  10.233  0.0171  0.5137 -0.7575
  244MOL0     C33549   6.463   7.286  10.116 -0.2206  0.2472  1.1391
  244MOL0     C33550   6.335   7.190  10.106  0.3887 -0.2021  0.3554
  244MOL0     N33551   6.251   7.236   9.997 -0.2809  0.2394  0.2900
  244MOL0     C33552   6.141   7.324  10.003 -0.9228  0.7723 -0.1240
  244MOL0     C33553   6.108   7.342   9.873 -0.4029 -1.1109  0.3664
  244MOL0     C33554   6.008   7.436   9.827  0.6803  0.1031 -0.2885
  244MOL0     C33555   5.872   7.423   9.909 -0.2420  0.3852 -0.3536
  244MOL0     C33556   5.761   7.524   9.873 -0.6510  0.8010  0.0332
  244MOL0     C33557   5.704   7.510   9.731  0.8134  0.0139 -0.8847
  244MOL0     O33558   5.643   7.377   9.710 -0.1222 -0.1614  0.0294
  244MOL0     C33559   5.603   7.376   9.581 -0.5916  0.9666  0.4854
  244MOL0     C33560   5.688   7.310   9.491 -0.4555 -0.6524  0.6715
  244MOL0     C33561   5.654   7.281   9.360 -0.1009 -0.2319  0.9083
  244MOL0     C33562   5.758   7.208   9.276 -0.9014  0.4655  0.2558
  244MOL0     C33563   5.517   7.313   9.316  0.4811 -0.6852 -0.8381
  244MOL0     C33564   5.468   7.267   9.185  1.0686 -0.2811  0.2965
  244MOL0     O33565   5.502   7.141   9.141  0.2818 -0.2994  0.7189
  244MOL0     C33566   5.512   7.033   9.223 -0.0850  0.1736  0.2247
  244MOL0     C33567   5.605   6.940   9.172  0.5312 -0.1459 -0.2225
  244MOL0     C33568   5.608   6.808   9.226 -0.3441 -0.2896  0.6597
  244MOL0     C33569   5.550   6.787   9.354 -0.3034  0.0513 -1.1580
  244MOL0     O33570   5.561   6.674   9.433 -0.2213 -0.0662  0.1525
  244MOL0     C33571   5.580   6.549   9.364 -0.9590 -0.0829 -0.0389
  244MOL0     C33572   5.464   6.503   9.273  0.1332  0.2030  0.4424
  244MOL0     C33573   5.325   6.516   9.338  0.9737  0.3428 -0.8165
  244MOL0     C33574   5.304   6.465   9.483 -0.3248 -0.8469  0.1933
  244MOL0     C33575   5.167   6.463   9.522  0.2550  0.2846  0.7322
  244MOL0     C33576   5.151   6.390   9.661 -0.2776  0.1827  0.1681
  244MOL0     C33577   5.009   6.401   9.711  0.2864 -0.0557  0.1386
  244MOL0     C33578   4.991   6.318   9.842 -0.1943  0.1180  0.1316
  244MOL0    Cl33579   5.000   6.144   9.817 -0.1711  0.1829 -0.3554
  244MOL0     C33580   5.475   6.884   9.407  0.2532 -0.6272  0.6648
  244MOL0     C33581   5.442   7.009   9.344  0.6014  1.3322  0.4378
  244MOL0     O33582   5.403   7.354   9.116  0.2397  0.1515  0.2400
  244MOL0     C33583   5.440   7.392   9.409  0.0545 -0.4602 -1.4897
  244MOL0     C33584   5.476   7.421   9.536 -1.3701  0.8164 -0.4304
  244MOL0     N33585   6.194   7.271   9.799 -0.2676  0.1545  0.8566
  244MOL0     N33586   6.273   7.200   9.867 -1.2274 -1.5507 -0.0604
  244MOL0     C33587   6.949   6.494  10.279 -0.3852  0.3982  0.2208
  244MOL0     C33588   6.937   6.358  10.224 -0.4786 -0.6452 -0.1925
  244MOL0     C33589   6.736   5.930  10.202 -0.2466 -0.3103 -0.4888
  244MOL0     C33590   6.854   5.866  10.149  0.6879 -0.1840  0.1630
  244MOL0     C33591   6.847   5.730  10.109  0.5842 -0.6680  0.1086
  244MOL0     C33592   6.731   5.655  10.111  1.0340 -0.2339 -0.4371
  244MOL0     O33593   6.734   5.530  10.064 -0.2114  0.3088 -0.1800
  244MOL0     C33594   6.647   5.439  10.126  0.1653 -0.4577  1.1291
  244MOL0     C33595   6.714   5.300  10.133 -0.0364  0.1629  0.6836
  244MOL0     C33596   6.629   5.209  10.223 -0.5290  0.4746 -0.8103
  244MOL0     C33597   6.668   5.064  10.225  0.2119 -1.0212  1.6192
  244MOL0     C33598   6.791   5.044  10.295 -0.5050 -0.6233 -0.1735
  244MOL0     C33599   6.899   5.037  10.354  0.6377  1.0752 -0.2930
  244MOL0     C33600   6.614   5.728  10.151 -0.0456  0.5886 -0.3150
  244MOL0     C33601   6.618   5.857  10.199  0.0555  0.4270  0.0462
  244MOL0     C33602   6.500   5.917  10.261  0.4822  0.0043  0.0452
  244MOL0     H33603   6.612   6.309  10.311 -0.6854  0.0205  0.6780
  244MOL0     H33604   6.633   6.532  10.390  1.0435 -0.6676  1.1821
  244MOL0     H33605   6.957   6.782  10.256 -1.4828 -0.8721 -0.5302
  244MOL0     H33606   7.026   6.757  10.422  1.0604  1.6990  0.0340
  244MOL0     H33607   6.850   6.914  10.500 -1.6333  0.9929 -1.2130
  244MOL0     H33608   6.981   6.989  10.404 -1.4239 -0.0429  1.4554
  244MOL0     H33609   6.820   6.960  10.199 -0.3916 -0.4607  0.4764
  244MOL0     H33610   6.697   6.891  10.310  0.4012 -1.4200  0.6235
  244MOL0     H33611   6.644   7.089  10.408  0.0204  0.2951  0.2722
  244MOL0     H33612   6.805   7.152  10.382 -1.0993 -1.4266  2.7931
  244MOL0     H33613   6.632   7.058  10.137  0.7453 -1.1280 -0.3568
  244MOL0     H33614   6.743   7.200  10.146  3.2628 -0.9507  2.8101
  244MOL0     H33615   6.478   7.195  10.304  2.0144 -0.5160  0.6704
  244MOL0     H33616   6.587   7.331  10.280  0.0998 -0.6011  1.4682
  244MOL0     H33617   6.511   7.273  10.018  0.0378 -2.5809  1.5341
  244MOL0     H33618   6.434   7.391  10.119  1.1508  0.6703  0.6649
  244MOL0     H33619   6.367   7.088  10.084  1.2273  0.2999 -0.8503
  244MOL0     H33620   6.282   7.194  10.202 -1.9280 -4.7181 -0.4537
  244MOL0     H33621   6.098   7.365  10.093 -1.1628 -2.0844  1.1784
  244MOL0     H33622   5.988   7.415   9.721  5.3879 -0.3061 -1.2944
  244MOL0     H33623   6.045   7.539   9.824 -1.3367  0.8712 -0.9600
  244MOL0     H33624   5.834   7.321   9.900 -0.8412  0.6307 -0.6141
  244MOL0     H33625   5.902   7.447  10.012 -1.0806  1.4012 -0.3391
  244MOL0     H33626   5.681   7.525   9.948 -0.4309 -1.3095  0.3682
  244MOL0     H33627   5.809   7.622   9.872  2.6877 -0.6601  1.8608
  244MOL0     H33628   5.633   7.587   9.697 -1.7826 -2.8483 -2.3878
  244MOL0     H33629   5.784   7.527   9.657  0.6055 -0.4614 -1.2185
  244MOL0     H33630   5.783   7.284   9.536  0.1238  2.1042  1.1753
  244MOL0     H33631   5.760   7.108   9.321  1.1802 -0.5131 -1.8327
  244MOL0     H33632   5.857   7.253   9.293 -0.3865 -0.2204 -0.8252
  244MOL0     H33633   5.735   7.211   9.170  1.6755 -3.3538 -0.6451
  244MOL0     H33634   5.664   6.963   9.084 -0.0771  3.0598  0.0994
  244MOL0     H33635   5.666   6.736   9.170 -2.4392 -0.8133 -0.9750
  244MOL0     H33636   5.671   6.548   9.303 -0.0548 -2.8236  1.2072
  244MOL0     H33637   5.584   6.480   9.448 -0.6799  0.4780  0.4110
  244MOL0     H33638   5.473   6.569   9.187 -0.4451  1.8824  1.6274
  244MOL0     H33639   5.473   6.400   9.237 -1.5218  0.7554 -1.8115
  244MOL0     H33640   5.249   6.459   9.284 -0.6387  0.2748  1.3543
  244MOL0     H33641   5.297   6.622   9.337 -0.5127  0.0187  0.8232
  244MOL0     H33642   5.361   6.534   9.547  0.1246 -3.8602  3.4102
  244MOL0     H33643   5.362   6.379   9.519  0.6350  0.4570  1.9667
  244MOL0     H33644   5.149   6.570   9.537  1.2734  0.8060 -1.4218
  244MOL0     H33645   5.099   6.435   9.442  0.3525  2.6349 -0.2661
  244MOL0     H33646   5.213   6.439   9.738 -1.8102 -0.1483  1.6650
  244MOL0     H33647   5.175   6.285   9.644 -1.6719  0.1775 -2.0726
  244MOL0     H33648   4.934   6.368   9.638  0.5039  0.7321 -0.4492
  244MOL0     H33649   4.988   6.507   9.734 -0.4103  0.1740 -1.4226
  244MOL0     H33650   4.892   6.345   9.880 -0.5905 -1.5379  0.3498
  244MOL0     H33651   5.067   6.341   9.918 -0.8620  0.1058  0.8175
  244MOL0     H33652   5.431   6.871   9.505 -0.9272 -0.7755  0.1335
  244MOL0     H33653   5.366   7.067   9.395  0.0971  0.1265  1.1179
  244MOL0     H33654   5.343   7.428   9.376 -0.1829  1.7657  1.2967
  244MOL0     H33655   5.406   7.465   9.607  0.8089  0.4305  2.1405
  244MOL0     H33656   7.051   6.533  10.284  0.2141 -1.2331  1.5924
  244MOL0     H33657   7.027   6.304  10.198  1.3650  0.4381  3.2745
  244MOL0     H33658   6.950   5.917  10.158  1.7180 -1.9344 -0.3938
  244MOL0     H33659   6.932   5.672  10.074  0.3678 -0.9052 -0.0351
  244MOL0     H33660   6.612   5.476  10.223 -0.0175  0.0514  0.8763
  244MOL0     H33661   6.554   5.447  10.069  2.0050  2.3002 -1.8306
  244MOL0     H33662   6.809   5.315  10.185  0.5675 -1.8678  0.2607
  244MOL0     H33663   6.725   5.271  10.028  3.0808  5.4461 -0.8575
  244MOL0     H33664   6.625   5.246  10.326  3.3089 -1.7840  0.3668
  244MOL0     H33665   6.528   5.221  10.183 -1.0087  0.0191  0.2391
  244MOL0     H33666   6.689   5.028  10.124  3.4562 -2.9624  2.8007
  244MOL0     H33667   6.581   5.010  10.263  0.8228 -2.4312  1.0934
  244MOL0     H33668   6.995   5.024  10.399  0.7547 -3.3225 -1.4076
  244MOL0     H33669   6.521   5.684  10.116  0.0032  0.3478 -0.1450
  244MOL0     H33670   6.485   6.019  10.223 -1.9098 -0.3439 -0.1082
  244MOL0     H33671   6.407   5.861  10.246  1.9605 -3.3745  2.2425
  244MOL0     H33672   6.527   5.936  10.365  1.0609  3.6601 -0.5989
  245MOL0     O33673   7.348   5.992   2.740  0.5969  0.6167  0.7197
  245MOL0     C33674   7.336   5.905   2.650  0.2305 -0.3771 -1.4041
  245MOL0     O33675   7.439   5.846   2.590 -0.9584 -0.9975 -0.2885
  245MOL0     C33676   7.576   5.887   2.595 -0.1438 -1.3792 -0.2979
  245MOL0     C33677   7.674   5.790   2.570 -0.5583  0.6916  1.0341
  245MOL0     C33678   7.804   5.826   2.568 -0.4943 -0.3999 -0.8958
  245MOL0     C33679   7.842   5.958   2.603 -0.3113 -0.0843  0.3954
  245MOL0     O33680   7.974   5.992   2.610 -0.0732  0.2400  0.0497
  245MOL0     C33681   8.074   5.894   2.650 -0.1722  0.3146  1.0176
  245MOL0     C33682   8.179   5.966   2.726  0.9878 -0.7942 -0.7228
  245MOL0     C33683   8.121   6.049   2.845 -0.3909 -0.8335  1.2097
  245MOL0     C33684   8.210   6.159   2.891 -0.6709  0.5392  0.0256
  245MOL0     C33685   8.146   6.236   3.007  0.3837  0.0888  0.1691
  245MOL0     C33686   8.233   6.354   3.047 -0.4261  0.3749 -0.2846
  245MOL0     C33687   8.154   6.438   3.152 -0.3549  0.1270 -0.5800
  245MOL0     C33688   8.212   6.579   3.156  0.2995 -0.2845  0.3379
  245MOL0     N33689   8.349   6.581   3.202 -0.1046 -0.9370 -0.0134
  245MOL0     C33690   8.392   6.527   3.315  0.4062 -0.1995  0.2697
  245MOL0     C33691   8.525   6.572   3.320  0.0073  0.9122  0.3116
  245MOL0     C33692   8.626   6.525   3.425  0.6571  0.2831  0.6199
  245MOL0     C33693   8.750   6.456   3.360 -0.5394  0.3968  0.3731
  245MOL0     C33694   8.852   6.456   3.478 -0.3932  0.2651  1.3566
  245MOL0     C33695   9.005   6.456   3.441  1.0126 -0.4483  0.0928
  245MOL0     O33696   9.085   6.477   3.549  0.7694  0.1401  0.0950
  245MOL0     C33697   9.101   6.372   3.635 -0.2249  0.0781  0.5509
  245MOL0     C33698   9.079   6.397   3.772  0.2420 -0.5073 -0.0138
  245MOL0     C33699   9.079   6.288   3.861 -0.0242  0.6484 -0.2685
  245MOL0     C33700   9.058   6.332   4.003 -0.2601  0.5836 -1.1526
  245MOL0     C33701   9.099   6.152   3.813 -0.8349 -0.4154 -0.4418
  245MOL0     C33702   9.128   6.038   3.907 -0.6189 -0.0543 -0.2655
  245MOL0     O33703   9.138   5.919   3.844 -0.4582 -0.0591 -0.1636
  245MOL0     C33704   9.138   5.792   3.899  0.4610  1.1433  0.0534
  245MOL0     C33705   9.190   5.694   3.828  0.8705  0.1377  0.7886
  245MOL0     C33706   9.192   5.555   3.872  0.2942 -0.9881  0.4073
  245MOL0     C33707   9.139   5.513   3.993 -0.8042  0.3884  0.4464
  245MOL0     O33708   9.133   5.375   4.008  0.5810  0.2204 -0.3967
  245MOL0     C33709   9.089   5.330   4.142 -0.1516 -0.0510  0.4072
  245MOL0     C33710   9.128   5.188   4.157  0.7314 -0.2519 -0.9884
  245MOL0     C33711   9.062   5.094   4.052  0.8671  0.4200 -0.2645
  245MOL0     C33712   8.907   5.078   4.062 -0.4345 -0.0619 -0.4112
  245MOL0     C33713   8.854   4.994   4.179  1.1079 -0.4110  0.4758
  245MOL0     C33714   8.699   4.983   4.178  0.3151 -0.3201 -0.0029
  245MOL0     C33715   8.643   4.841   4.165  0.1781  1.0869 -0.2411
  245MOL0     C33716   8.523   4.809   4.255  0.1898  0.1988 -0.2642
  245MOL0    Cl33717   8.570   4.790   4.430 -0.0836 -0.2336 -0.0585
  245MOL0     C33718   9.077   5.614   4.074 -1.2726 -0.4134  0.4915
  245MOL0     C33719   9.086   5.756   4.024  0.6705  0.7808 -0.0262
  245MOL0     O33720   9.143   6.056   4.030  0.2551 -1.2763  0.2983
  245MOL0     C33721   9.128   6.131   3.678 -0.0499 -0.1312  0.6439
  245MOL0     C33722   9.124   6.245   3.592 -0.6220 -0.9912  0.0959
  245MOL0     N33723   8.543   6.654   3.213  0.0651 -0.4470  0.1367
  245MOL0     N33724   8.439   6.657   3.140  0.4095 -0.1538  0.4090
  245MOL0     C33725   7.747   6.055   2.628  0.1101 -0.9652 -0.3542
  245MOL0     C33726   7.608   6.020   2.623 -0.3573 -0.8118 -0.7994
  245MOL0     C33727   7.202   5.845   2.612 -0.2122 -0.6623  0.5455
  245MOL0     C33728   7.199   5.728   2.531 -0.3226 -0.2524 -0.3213
  245MOL0     C33729   7.079   5.675   2.481  0.0330  0.2322 -0.0913
  245MOL0     C33730   6.957   5.728   2.520 -0.2168  0.2196  0.9112
  245MOL0     O33731   6.829   5.678   2.503 -0.3481 -0.7907  0.6996
  245MOL0     C33732   6.816   5.583   2.396  1.2789  0.1555  0.2020
  245MOL0     C33733   6.671   5.538   2.396 -0.2474 -0.6342  0.0313
  245MOL0     C33734   6.648   5.431   2.288 -0.2411 -0.8073  0.0081
  245MOL0     C33735   6.505   5.379   2.295 -0.2494 -0.2659  0.3713
  245MOL0     C33736   6.482   5.254   2.228 -0.6491  0.3330  0.5875
  245MOL0     C33737   6.464   5.151   2.158 -0.3476 -0.5097 -0.0436
  245MOL0     C33738   6.956   5.839   2.603  0.3824 -0.1386 -0.0763
  245MOL0     C33739   7.073   5.911   2.649  0.1469  0.8961  0.4777
  245MOL0     C33740   7.050   6.026   2.733  0.1893  0.0426 -0.4387
  245MOL0     H33741   7.640   5.688   2.556  1.1188 -0.1387  2.6367
  245MOL0     H33742   7.881   5.754   2.543 -1.1483 -1.5358  0.1834
  245MOL0     H33743   8.111   5.842   2.562 -1.4799 -0.1959  0.7362
  245MOL0     H33744   8.027   5.812   2.707 -0.5205 -0.7517 -0.7251
  245MOL0     H33745   8.248   5.889   2.762 -0.5839 -2.7873 -1.7426
  245MOL0     H33746   8.219   6.033   2.649 -0.3543 -1.8815 -2.4493
  245MOL0     H33747   8.026   6.102   2.833  0.3361  1.2829  3.8757
  245MOL0     H33748   8.111   5.975   2.925 -1.0889 -2.4000 -0.2671
  245MOL0     H33749   8.303   6.109   2.919  1.0641  2.2941 -2.1815
  245MOL0     H33750   8.230   6.227   2.808 -0.3070 -0.6169 -0.8572
  245MOL0     H33751   8.132   6.169   3.092  0.0187 -0.3837 -0.2558
  245MOL0     H33752   8.048   6.275   2.977  0.8823  0.3842 -1.1387
  245MOL0     H33753   8.333   6.328   3.080 -1.4124 -1.7704  1.1841
  245MOL0     H33754   8.249   6.415   2.957 -2.0856 -0.8039 -1.4370
  245MOL0     H33755   8.164   6.392   3.250  1.9155 -0.1917 -0.9035
  245MOL0     H33756   8.050   6.453   3.123 -1.3490 -0.5761  2.2829
  245MOL0     H33757   8.219   6.625   3.058  3.3367  2.5963  1.7104
  245MOL0     H33758   8.143   6.638   3.218  0.4199  0.7125 -0.4582
  245MOL0     H33759   8.333   6.465   3.383 -2.0465  3.8704  2.2407
  245MOL0     H33760   8.583   6.461   3.503  2.5323  0.3533  1.7840
  245MOL0     H33761   8.648   6.623   3.470 -4.7655  1.6103  1.0643
  245MOL0     H33762   8.737   6.352   3.328 -0.1326  0.1568  0.9696
  245MOL0     H33763   8.788   6.510   3.272 -0.8007 -0.1236 -0.0699
  245MOL0     H33764   8.848   6.553   3.528 -0.7553 -0.2757  2.3872
  245MOL0     H33765   8.836   6.364   3.535  2.7700 -1.3508 -0.1206
  245MOL0     H33766   9.030   6.364   3.387 -1.0330  0.7329 -3.1065
  245MOL0     H33767   9.015   6.537   3.368 -0.5277 -1.1352 -0.9297
  245MOL0     H33768   9.050   6.498   3.798  0.9065  0.7810 -3.7140
  245MOL0     H33769   9.154   6.317   4.054 -1.5817  0.2766  1.3513
  245MOL0     H33770   8.979   6.272   4.049  1.0971  0.5976  1.3809
  245MOL0     H33771   9.028   6.436   4.015 -3.7426 -0.5938  2.2107
  245MOL0     H33772   9.238   5.711   3.732 -1.0072 -0.6109 -0.3256
  245MOL0     H33773   9.230   5.479   3.805 -2.5720  0.1729 -2.7666
  245MOL0     H33774   9.148   5.385   4.217 -1.1219  3.2420 -1.0381
  245MOL0     H33775   8.982   5.339   4.165 -0.6687 -0.0511 -1.8030
  245MOL0     H33776   9.235   5.170   4.146  0.9060 -0.5915  0.8395
  245MOL0     H33777   9.097   5.156   4.257 -0.2204 -0.2245 -1.2695
  245MOL0     H33778   9.119   5.001   4.046 -2.7441 -1.9815 -0.6655
  245MOL0     H33779   9.073   5.139   3.953  1.1168 -1.3379 -1.0777
  245MOL0     H33780   8.877   5.026   3.970 -0.0143 -1.9477  0.4611
  245MOL0     H33781   8.862   5.177   4.074  0.4015  0.1390  1.2638
  245MOL0     H33782   8.905   4.897   4.188 -0.2044 -1.1495  0.1833
  245MOL0     H33783   8.883   5.058   4.263  0.5509 -0.3214  0.6040
  245MOL0     H33784   8.665   5.050   4.098 -0.1287  0.6875  0.9954
  245MOL0     H33785   8.657   5.017   4.273  0.7820 -0.5350  0.2838
  245MOL0     H33786   8.725   4.770   4.180 -2.3718 -1.7221  1.7776
  245MOL0     H33787   8.619   4.834   4.059  4.6033 -3.1086 -1.3074
  245MOL0     H33788   8.467   4.722   4.218 -1.1815  1.5424 -1.4944
  245MOL0     H33789   8.453   4.892   4.245 -1.7329 -1.4043 -0.7863
  245MOL0     H33790   9.024   5.599   4.168 -2.9524  0.8001 -0.2057
  245MOL0     H33791   9.033   5.840   4.070  2.2007  3.1141 -2.2671
  245MOL0     H33792   9.159   6.045   3.620  0.8109  1.7649 -1.9192
  245MOL0     H33793   9.126   6.216   3.488 -0.8551  0.0376 -0.2022
  245MOL0     H33794   7.793   6.150   2.652 -2.7402  0.4248  0.0466
  245MOL0     H33795   7.538   6.103   2.634 -0.8598 -1.2728 -0.5015
  245MOL0     H33796   7.297   5.694   2.500 -1.2241 -1.5644 -1.8708
  245MOL0     H33797   7.081   5.582   2.424 -1.7543 -0.0747  0.3046
  245MOL0     H33798   6.839   5.626   2.299  3.6708 -0.0725  0.6083
  245MOL0     H33799   6.880   5.495   2.411 -0.3474 -0.9651  0.8984
  245MOL0     H33800   6.605   5.621   2.368  0.7437  0.4560  0.8102
  245MOL0     H33801   6.634   5.489   2.487  0.8984  0.5758  1.2142
  245MOL0     H33802   6.660   5.476   2.189  1.2072  0.1939  0.5992
  245MOL0     H33803   6.727   5.356   2.299  1.7361  0.8276 -1.9704
  245MOL0     H33804   6.436   5.447   2.244 -0.2690 -1.1586 -0.8371
  245MOL0     H33805   6.476   5.362   2.399  2.7083  3.1963  1.9848
  245MOL0     H33806   6.402   5.095   2.091 -4.2936  2.1761  0.9641
  245MOL0     H33807   6.865   5.891   2.632  0.7344  0.2203  0.4200
  245MOL0     H33808   7.055   6.110   2.663 -1.7202 -2.6115 -4.0639
  245MOL0     H33809   6.953   6.015   2.782 -0.6999 -3.5068 -2.6302
  245MOL0     H33810   7.116   6.027   2.821  0.8776 -1.9280 -0.8905
  246MOL0     O33811   6.188  11.092  10.865 -0.0513 -1.5066  0.0044
  246MOL0     C33812   6.302  11.064  10.835 -0.6198 -0.4945  0.5584
  246MOL0     O33813   6.357  10.934  10.848  1.4128  1.0228 -0.4849
  246MOL0     C33814   6.295  10.840  10.930  1.0844 -0.2994  0.3477
  246MOL0     C33815   6.255  10.862  11.063 -0.4434  0.8803  0.5381
  246MOL0     C33816   6.177  10.761  11.131 -0.6728  0.3887 -0.4081
  246MOL0     C33817   6.126  10.654  11.068 -0.8050  0.5350  0.2880
  246MOL0     O33818   6.037  10.573  11.135 -0.4195 -0.2644  0.7231
  246MOL0     C33819   5.987  10.466  11.061  0.2275 -0.0225 -0.4986
  246MOL0     C33820   5.895  10.379  11.161  0.4070 -0.9352  0.4427
  246MOL0     C33821   5.936  10.381  11.307  1.0371  0.3576 -0.0539
  246MOL0     C33822   6.073  10.329  11.334  0.0107 -0.1832 -0.2146
  246MOL0     C33823   6.100  10.319  11.489  0.0538 -0.0880 -1.0842
  246MOL0     C33824   6.252  10.282  11.520  0.3420  0.6897  1.0270
  246MOL0     C33825   6.324  10.386  11.605 -0.3198  1.0740  0.2828
  246MOL0     C33826   6.267  10.431  11.735 -0.4773 -0.0596 -1.4446
  246MOL0     N33827   6.235  10.327  11.836  0.6464 -0.5095 -0.4606
  246MOL0     C33828   6.100  10.318  11.887 -1.0136 -0.2098 -0.7291
  246MOL0     C33829   6.098  10.241  11.997 -0.3896 -0.1924  0.3515
  246MOL0     C33830   5.986  10.202  12.085  0.0432 -0.1537  0.2428
  246MOL0     C33831   5.969  10.050  12.074  0.4720 -1.0762  0.4034
  246MOL0     C33832   5.866   9.977  12.153  1.6842 -0.6778 -0.1829
  246MOL0     C33833   5.792   9.861  12.081  0.2209  1.2295  0.4817
  246MOL0     O33834   5.718   9.909  11.968 -1.3730  0.1497  0.2217
  246MOL0     C33835   5.594   9.967  11.980 -0.6111 -0.2754  0.0511
  246MOL0     C33836   5.536  10.000  12.102  0.2236 -0.1738 -0.3127
  246MOL0     C33837   5.410  10.064  12.105 -0.6886  0.1373 -0.7638
  246MOL0     C33838   5.338  10.101  12.237 -0.2714  1.0044 -0.6326
  246MOL0     C33839   5.340  10.091  11.983 -0.9275 -0.1553 -1.1261
  246MOL0     C33840   5.219  10.175  11.974  0.7865  0.9427 -0.6688
  246MOL0     O33841   5.133  10.119  11.887  0.0793 -0.2919 -0.0626
  246MOL0     C33842   5.022  10.182  11.833  0.3227 -1.0158  1.5475
  246MOL0     C33843   4.911  10.103  11.792  0.1905  0.8798  0.1785
  246MOL0     C33844   4.804  10.153  11.720  0.5783 -0.3757 -0.0831
  246MOL0     C33845   4.799  10.288  11.705  0.2486  0.3164  0.4635
  246MOL0     O33846   4.686  10.350  11.657  0.9464 -0.6142 -0.2795
  246MOL0     C33847   4.569  10.338  11.747 -0.2590  0.8388 -0.1062
  246MOL0     C33848   4.459  10.433  11.701  0.0238 -0.1799  0.0173
  246MOL0     C33849   4.429  10.528  11.823  0.6823 -0.1828 -0.4348
  246MOL0     C33850   4.315  10.627  11.779  0.5379  0.2251  0.5847
  246MOL0     C33851   4.259  10.733  11.869  0.1140  0.2889 -2.0142
  246MOL0     C33852   4.207  10.863  11.808 -0.4332  0.5547 -0.6030
  246MOL0     C33853   4.111  10.931  11.910  0.7628 -0.1633 -0.0575
  246MOL0     C33854   4.037  11.059  11.862  0.2988  0.0191 -0.2128
  246MOL0    Cl33855   4.160  11.188  11.818  0.0856 -0.1153  0.0020
  246MOL0     C33856   4.890  10.365  11.754 -0.3747 -0.0721  0.0934
  246MOL0     C33857   5.014  10.317  11.808  0.6737  0.9890 -0.3294
  246MOL0     O33858   5.188  10.257  12.058  0.7107  0.2152 -1.3878
  246MOL0     C33859   5.392  10.057  11.863  0.0945 -0.3411 -0.4514
  246MOL0     C33860   5.517   9.993  11.864  0.6279 -0.3858  0.6290
  246MOL0     N33861   6.230  10.208  12.022  0.0480 -0.7651 -0.7096
  246MOL0     N33862   6.309  10.251  11.919 -0.0540  0.2601  0.5822
  246MOL0     C33863   6.170  10.634  10.934 -0.9490 -0.7166 -0.1993
  246MOL0     C33864   6.263  10.715  10.876  0.1150 -0.2522 -0.6503
  246MOL0     C33865   6.388  11.163  10.758 -0.3301  0.3414  0.4478
  246MOL0     C33866   6.517  11.120  10.715  0.7162 -0.3396  0.9285
  246MOL0     C33867   6.589  11.210  10.633 -1.1812  0.2913 -0.2857
  246MOL0     C33868   6.542  11.331  10.590  0.6566 -0.3715 -0.2557
  246MOL0     O33869   6.629  11.419  10.524  0.7589  0.7701  0.9060
  246MOL0     C33870   6.725  11.472  10.620 -0.0831  0.1006  0.0399
  246MOL0     C33871   6.783  11.616  10.566 -0.4052 -0.4859 -0.5779
  246MOL0     C33872   6.852  11.604  10.429  0.3075  0.6852 -0.1099
  246MOL0     C33873   6.957  11.712  10.395 -0.4828 -0.7345  0.1723
  246MOL0     C33874   6.901  11.850  10.408 -1.1532  0.0421  0.0317
  246MOL0     C33875   6.831  11.955  10.392  0.6310  1.0775  0.2691
  246MOL0     C33876   6.423  11.370  10.647 -0.7449  0.0771 -0.4535
  246MOL0     C33877   6.342  11.291  10.730  1.5392  0.6061  0.0440
  246MOL0     C33878   6.203  11.347  10.775  0.0812  0.5514  0.2153
  246MOL0     H33879   6.277  10.956  11.111  1.3739  1.3736 -1.1488
  246MOL0     H33880   6.153  10.777  11.236 -1.7744  1.2525 -0.7620
  246MOL0     H33881   6.071  10.402  11.032  0.5362  0.7001 -1.2474
  246MOL0     H33882   5.926  10.516  10.985  0.5498  4.9708  2.0825
  246MOL0     H33883   5.792  10.416  11.149  0.3846 -1.3331 -0.7804
  246MOL0     H33884   5.891  10.284  11.107  0.2284  0.7256 -2.7771
  246MOL0     H33885   5.921  10.484  11.341  5.7361  1.1045  0.4290
  246MOL0     H33886   5.869  10.321  11.368 -0.0201  2.6808  1.2232
  246MOL0     H33887   6.079  10.228  11.292 -1.3703 -1.8977  3.2812
  246MOL0     H33888   6.141  10.401  11.287 -1.7706  0.8065 -1.4150
  246MOL0     H33889   6.023  10.258  11.538  0.5542  0.5671  0.5934
  246MOL0     H33890   6.082  10.419  11.528 -0.6299 -0.7754  0.4508
  246MOL0     H33891   6.255  10.177  11.551  1.8556  0.6091  0.6839
  246MOL0     H33892   6.321  10.278  11.436 -0.5448  0.6328  0.2853
  246MOL0     H33893   6.348  10.479  11.554  1.5357  0.8358  0.6672
  246MOL0     H33894   6.418  10.336  11.627 -1.6030 -0.3414  3.1428
  246MOL0     H33895   6.344  10.497  11.775 -3.3257  2.2358  0.6260
  246MOL0     H33896   6.168  10.479  11.732 -1.6962 -2.1587  1.1452
  246MOL0     H33897   6.009  10.362  11.848  0.1444  3.5017  0.2776
  246MOL0     H33898   5.899  10.243  12.032  2.9200  1.7809 -3.4567
  246MOL0     H33899   5.988  10.233  12.190 -0.3384 -1.0991  0.5343
  246MOL0     H33900   5.937  10.043  11.970  1.7714  0.2387 -0.1144
  246MOL0     H33901   6.063   9.994  12.085 -0.1330 -2.0627  0.6821
  246MOL0     H33902   5.913   9.942  12.245 -0.6625 -3.1542  0.2274
  246MOL0     H33903   5.797  10.054  12.188  3.0988  0.5286  0.0278
  246MOL0     H33904   5.872   9.795  12.046  0.7151  2.4123 -0.7133
  246MOL0     H33905   5.732   9.802  12.150  1.6575 -0.8050  0.0927
  246MOL0     H33906   5.578   9.989  12.201  0.3764  2.5932  0.0104
  246MOL0     H33907   5.401  10.055  12.314 -0.0484 -0.3421 -1.5702
  246MOL0     H33908   5.237  10.062  12.219  0.2853 -1.5664  1.2224
  246MOL0     H33909   5.347  10.206  12.264  2.1050  0.5174  0.7755
  246MOL0     H33910   4.926   9.997  11.807  0.0970  0.6955 -0.9706
  246MOL0     H33911   4.727  10.088  11.679 -0.5924 -0.8004  2.6024
  246MOL0     H33912   4.511  10.245  11.736 -0.7985  1.1783 -0.1396
  246MOL0     H33913   4.590  10.359  11.852  1.4202  2.1241 -0.6457
  246MOL0     H33914   4.494  10.499  11.622  1.6313  1.9474  2.3652
  246MOL0     H33915   4.361  10.388  11.680  0.5561 -1.3892  0.0648
  246MOL0     H33916   4.517  10.580  11.863  0.6443 -0.8365  0.5215
  246MOL0     H33917   4.385  10.464  11.900 -0.0085 -0.9279 -1.4254
  246MOL0     H33918   4.226  10.574  11.744 -1.6805  1.4245  3.9492
  246MOL0     H33919   4.350  10.699  11.704  0.6778  1.7739  2.0726
  246MOL0     H33920   4.181  10.681  11.925  1.6003 -1.6675 -1.6555
  246MOL0     H33921   4.335  10.766  11.940 -2.1077  0.1948  0.5780
  246MOL0     H33922   4.162  10.825  11.716 -0.3585  1.4852 -1.0333
  246MOL0     H33923   4.290  10.929  11.781 -0.1261  0.4204  0.0077
  246MOL0     H33924   4.163  10.967  11.999 -1.5269 -0.2573  1.3729
  246MOL0     H33925   4.027  10.864  11.928  0.2338 -0.7953 -3.9721
  246MOL0     H33926   3.960  11.083  11.936 -0.3591 -0.7795 -0.6203
  246MOL0     H33927   3.971  11.035  11.778 -0.7991 -0.4040  0.7474
  246MOL0     H33928   4.881  10.473  11.750  2.7112  0.4040  2.2569
  246MOL0     H33929   5.095  10.388  11.824  2.8263 -2.0146  4.6151
  246MOL0     H33930   5.354  10.082  11.764  0.0459  0.8746 -0.1420
  246MOL0     H33931   5.565   9.962  11.771  0.2602 -1.7496  0.8610
  246MOL0     H33932   6.130  10.557  10.869 -0.0895  0.2924 -1.9973
  246MOL0     H33933   6.296  10.702  10.773  0.7287  1.1163 -0.6605
  246MOL0     H33934   6.547  11.019  10.742 -0.1991 -0.8224  0.1971
  246MOL0     H33935   6.691  11.184  10.608 -0.9226  0.5729  0.4766
  246MOL0     H33936   6.668  11.497  10.710 -0.3590 -0.8824  0.1504
  246MOL0     H33937   6.801  11.400  10.653  0.2954  0.7283  0.5508
  246MOL0     H33938   6.856  11.644  10.642 -1.6603  0.7044  0.2323
  246MOL0     H33939   6.705  11.692  10.573  0.3379  0.1145  1.9736
  246MOL0     H33940   6.909  11.510  10.430  1.9769  1.6466  0.4223
  246MOL0     H33941   6.779  11.603  10.348 -0.1259  0.5698  0.2747
  246MOL0     H33942   7.000  11.705  10.294 -0.0146  1.5556  0.1516
  246MOL0     H33943   7.033  11.711  10.474  0.2264  1.6121 -0.4118
  246MOL0     H33944   6.786  12.053  10.390 -2.9143 -0.3554  1.7354
  246MOL0     H33945   6.393  11.474  10.640  0.9441  0.6717  0.4600
  246MOL0     H33946   6.184  11.341  10.882  0.4880  1.0936  0.3209
  246MOL0     H33947   6.194  11.452  10.746 -1.8643  0.0504 -1.1754
  246MOL0     H33948   6.127  11.286  10.726  0.4671 -0.5102  0.9060
  247MOL0     O33949   3.885   6.823   7.938 -0.1104 -0.9137 -0.0445
  247MOL0     C33950   3.991   6.765   7.911 -0.2818  0.2679  1.1853
  247MOL0     O33951   4.011   6.629   7.911 -0.1159  0.0266  0.4643
  247MOL0     C33952   3.899   6.547   7.943  0.1980 -0.0048 -0.0016
  247MOL0     C33953   3.784   6.535   7.858  0.6162 -0.3382  0.7777
  247MOL0     C33954   3.670   6.461   7.905  0.5370  0.0787 -0.5469
  247MOL0     C33955   3.684   6.380   8.022 -0.1824  1.0584 -0.0384
  247MOL0     O33956   3.597   6.280   8.048  0.3117  0.5288 -0.6374
  247MOL0     C33957   3.532   6.202   7.934 -0.2553 -0.4338  0.9350
  247MOL0     C33958   3.636   6.117   7.845 -0.5271 -0.2160  0.8035
  247MOL0     C33959   3.752   6.052   7.927  0.4797  0.0650  0.7267
  247MOL0     C33960   3.858   5.990   7.838 -0.4318  0.1674 -0.4051
  247MOL0     C33961   3.824   5.850   7.789 -0.3083  0.7761 -0.6548
  247MOL0     C33962   3.769   5.846   7.651 -0.1278 -0.4304 -0.2951
  247MOL0     C33963   3.791   5.707   7.604  1.8639 -0.3287 -0.0091
  247MOL0     C33964   3.924   5.676   7.542  0.2396  0.0177 -0.2805
  247MOL0     N33965   3.903   5.568   7.448 -0.1164 -0.9245  0.3949
  247MOL0     C33966   3.929   5.441   7.486  0.3559 -0.3100 -0.6934
  247MOL0     C33967   3.941   5.383   7.365 -0.6052  0.2915 -0.3940
  247MOL0     C33968   3.957   5.226   7.340  0.4700  0.2340  0.3899
  247MOL0     C33969   3.835   5.155   7.411 -0.9000  0.9090 -0.0286
  247MOL0     C33970   3.699   5.176   7.346 -0.6174  0.1603  0.4684
  247MOL0     C33971   3.680   5.127   7.195 -0.6656  0.2747  0.1754
  247MOL0     O33972   3.683   4.987   7.183  0.3280  0.5373  0.7103
  247MOL0     C33973   3.761   4.936   7.083 -0.5298  0.0656  0.3501
  247MOL0     C33974   3.848   4.829   7.109 -0.7060  0.3083 -0.2805
  247MOL0     C33975   3.920   4.764   7.004  0.5781 -0.1451 -0.0714
  247MOL0     C33976   4.006   4.655   7.048  0.0106  0.3965  0.5227
  247MOL0     C33977   3.881   4.791   6.869 -0.9183 -0.1232  0.6416
  247MOL0     C33978   3.952   4.710   6.756 -0.2527  0.9067 -0.9269
  247MOL0     O33979   4.006   4.786   6.663 -0.6102 -0.3206  1.0310
  247MOL0     C33980   4.067   4.712   6.566  0.3427 -0.1493 -0.1661
  247MOL0     C33981   4.205   4.675   6.590 -0.8201 -0.7079 -0.2243
  247MOL0     C33982   4.277   4.602   6.490  0.3439 -0.2660 -0.4165
  247MOL0     C33983   4.214   4.577   6.367  0.3923  1.2744 -0.4984
  247MOL0     O33984   4.273   4.497   6.278  0.3299  0.1511 -0.0489
  247MOL0     C33985   4.197   4.396   6.206  0.4448  0.2650  0.2042
  247MOL0     C33986   4.277   4.298   6.138 -0.0783  0.3782 -1.5507
  247MOL0     C33987   4.320   4.175   6.235 -0.9587 -0.1217  0.3669
  247MOL0     C33988   4.412   4.080   6.165 -0.2872  0.0680 -0.0787
  247MOL0     C33989   4.474   3.986   6.276  0.3469  0.5827  0.0831
  247MOL0     C33990   4.527   3.857   6.213 -0.5685  0.4220 -0.7341
  247MOL0     C33991   4.590   3.774   6.324  0.6215 -0.3939 -0.7626
  247MOL0     C33992   4.616   3.635   6.282 -0.3437 -0.2335  0.4368
  247MOL0    Cl33993   4.669   3.525   6.416  0.1347  0.2512  0.0508
  247MOL0     C33994   4.084   4.623   6.345  0.9998 -0.1343  0.1151
  247MOL0     C33995   4.012   4.690   6.438  0.1703  0.1771  0.3617
  247MOL0     O33996   3.959   4.585   6.763 -0.5807 -0.0060  0.0926
  247MOL0     C33997   3.797   4.894   6.845 -0.2910 -0.0232 -0.2811
  247MOL0     C33998   3.733   4.965   6.950  0.6690  0.2059 -0.3771
  247MOL0     N33999   3.906   5.470   7.268  0.6068  0.1268 -0.0240
  247MOL0     N34000   3.870   5.585   7.317  0.6385  0.2157 -0.3983
  247MOL0     C34001   3.804   6.387   8.093  0.7806  1.0612 -0.6290
  247MOL0     C34002   3.909   6.473   8.058  0.0362 -0.3570  0.7232
  247MOL0     C34003   4.106   6.851   7.884 -0.2352 -0.1979  0.0749
  247MOL0     C34004   4.214   6.847   7.979  0.9600 -0.0586  0.4999
  247MOL0     C34005   4.328   6.925   7.956 -1.3156  0.4651 -0.4048
  247MOL0     C34006   4.340   6.985   7.826 -0.8119  0.4408  0.5845
  247MOL0     O34007   4.454   7.054   7.793  0.2189  0.0166 -0.2846
  247MOL0     C34008   4.590   7.000   7.805 -0.8404  1.0219 -0.1514
  247MOL0     C34009   4.645   6.987   7.667  0.4073 -0.5575 -0.1185
  247MOL0     C34010   4.789   6.932   7.669  0.3217  0.3648 -0.7583
  247MOL0     C34011   4.839   6.873   7.533 -0.0919  0.3092  0.0150
  247MOL0     C34012   4.974   6.813   7.558 -0.3409 -0.6087  0.6612
  247MOL0     C34013   5.082   6.772   7.595 -0.3047 -0.7571  0.9203
  247MOL0     C34014   4.234   6.992   7.729 -0.7282 -0.9317  0.0064
  247MOL0     C34015   4.113   6.926   7.766 -1.1746  0.6323  1.2964
  247MOL0     C34016   4.002   6.944   7.666 -0.1454 -0.6460 -0.9769
  247MOL0     H34017   3.797   6.598   7.770  1.0729 -1.1569  0.2431
  247MOL0     H34018   3.583   6.452   7.841  0.6850 -2.4293 -0.4931
  247MOL0     H34019   3.485   6.270   7.863 -1.6212 -0.6711  1.5822
  247MOL0     H34020   3.445   6.152   7.979 -0.7564  2.9284  4.2151
  247MOL0     H34021   3.584   6.030   7.803 -0.1243 -0.8554  1.5878
  247MOL0     H34022   3.693   6.185   7.782 -3.2030  1.3322 -0.1074
  247MOL0     H34023   3.800   6.135   7.982 -1.4807 -1.1840  4.7261
  247MOL0     H34024   3.719   5.989   8.010  0.5598 -1.9957 -0.7497
  247MOL0     H34025   3.900   6.051   7.758  1.5982 -0.1927  0.3381
  247MOL0     H34026   3.944   5.974   7.903 -0.8067 -0.6253 -0.0822
  247MOL0     H34027   3.741   5.809   7.849 -2.2772  1.0932 -3.0150
  247MOL0     H34028   3.907   5.782   7.810 -1.6772 -0.7938 -0.0529
  247MOL0     H34029   3.660   5.861   7.653 -0.1558 -0.7294  0.9456
  247MOL0     H34030   3.819   5.912   7.580 -1.2610 -1.3727 -2.0501
  247MOL0     H34031   3.713   5.698   7.528  0.9421  1.9193  0.5805
  247MOL0     H34032   3.767   5.637   7.685  2.1072 -0.1107  0.2551
  247MOL0     H34033   3.958   5.765   7.488 -0.3960  1.3979  1.5058
  247MOL0     H34034   4.000   5.651   7.617  0.4991  3.8495  0.9680
  247MOL0     H34035   3.957   5.397   7.581  0.5533 -0.2092 -0.7041
  247MOL0     H34036   4.054   5.192   7.377 -0.5358 -4.3402 -0.5097
  247MOL0     H34037   3.959   5.209   7.232  1.0107  0.5234  0.3512
  247MOL0     H34038   3.860   5.049   7.401 -0.5113  0.8175  1.5367
  247MOL0     H34039   3.825   5.173   7.519  0.6631  1.1539  0.1025
  247MOL0     H34040   3.624   5.135   7.414  0.1742  0.2485  1.4127
  247MOL0     H34041   3.669   5.281   7.347 -0.9532  0.0737 -0.0588
  247MOL0     H34042   3.586   5.174   7.164 -0.8181  0.2752  0.6166
  247MOL0     H34043   3.755   5.182   7.138 -2.6799  1.4270 -1.4910
  247MOL0     H34044   3.867   4.804   7.213  1.8983 -1.0533 -1.0209
  247MOL0     H34045   4.052   4.670   7.146  0.8892  2.8159 -0.1782
  247MOL0     H34046   4.092   4.656   6.981 -1.9058  2.8982 -2.1294
  247MOL0     H34047   3.956   4.557   7.049  2.5200 -0.9824  1.5778
  247MOL0     H34048   4.248   4.712   6.683 -2.0290  1.2521 -0.3828
  247MOL0     H34049   4.378   4.563   6.500 -0.6318 -2.9575 -0.1112
  247MOL0     H34050   4.127   4.366   6.285 -1.3379 -1.4249 -1.8760
  247MOL0     H34051   4.144   4.439   6.121  1.1659 -0.5112 -0.6445
  247MOL0     H34052   4.223   4.255   6.053 -2.4645  0.9190 -0.3965
  247MOL0     H34053   4.369   4.346   6.103 -1.4631  3.2937 -1.5349
  247MOL0     H34054   4.234   4.116   6.267 -0.2872 -2.1070 -1.2609
  247MOL0     H34055   4.375   4.216   6.320  2.6289  2.2062 -2.7331
  247MOL0     H34056   4.497   4.123   6.112 -0.3190 -0.8786 -0.9263
  247MOL0     H34057   4.350   4.028   6.091 -1.4751 -0.0571  0.9585
  247MOL0     H34058   4.560   4.023   6.331  0.1630 -0.2965  1.0090
  247MOL0     H34059   4.404   3.963   6.357 -0.0074  0.2187 -0.3174
  247MOL0     H34060   4.596   3.896   6.138 -0.6506  0.1207 -0.9660
  247MOL0     H34061   4.448   3.801   6.162 -0.6175 -1.0717  0.9047
  247MOL0     H34062   4.537   3.759   6.418 -1.1105  0.1139 -1.6065
  247MOL0     H34063   4.682   3.826   6.351  2.0392 -2.5984 -1.1008
  247MOL0     H34064   4.691   3.634   6.202 -0.6056  5.2109 -0.3248
  247MOL0     H34065   4.529   3.591   6.231  0.7185 -1.4994 -0.3468
  247MOL0     H34066   4.022   4.604   6.258 -0.3124 -0.2316  1.0573
  247MOL0     H34067   3.910   4.711   6.406 -1.0232 -1.9718  2.3959
  247MOL0     H34068   3.768   4.919   6.744 -0.7959  2.6724  0.4504
  247MOL0     H34069   3.656   5.038   6.928 -0.6811 -0.4308  1.8792
  247MOL0     H34070   3.807   6.336   8.189  2.0572  1.2941 -0.5284
  247MOL0     H34071   4.002   6.471   8.114  1.4311 -0.4640 -1.4546
  247MOL0     H34072   4.199   6.801   8.076 -2.3185  2.1872  1.2167
  247MOL0     H34073   4.418   6.932   8.016  0.5984  1.3788 -3.1815
  247MOL0     H34074   4.654   7.064   7.867 -0.0771  0.5236 -0.4140
  247MOL0     H34075   4.593   6.911   7.869  2.2075  3.3441  3.3726
  247MOL0     H34076   4.646   7.083   7.614  1.6361  1.5122  3.2893
  247MOL0     H34077   4.584   6.912   7.616 -1.1752 -0.6959  1.8280
  247MOL0     H34078   4.847   7.017   7.704  1.3482  0.3238 -2.3000
  247MOL0     H34079   4.785   6.847   7.739  0.1725  0.2622 -0.8907
  247MOL0     H34080   4.847   6.945   7.451 -2.5037 -0.5917 -1.1113
  247MOL0     H34081   4.763   6.799   7.505  0.8876  0.8305 -4.9295
  247MOL0     H34082   5.186   6.753   7.608  0.5772  2.4586 -0.6024
  247MOL0     H34083   4.239   7.050   7.638  2.7470 -1.5113 -0.3066
  247MOL0     H34084   3.947   6.851   7.649 -0.2113 -0.4042 -2.2225
  247MOL0     H34085   3.936   7.024   7.700  0.0218 -0.6425 -0.6601
  247MOL0     H34086   4.051   6.972   7.572  0.6006 -2.0274 -1.0182
  248MOL0     O34087   4.359   0.123   4.598 -0.5319  0.0449  0.4021
  248MOL0     C34088   4.481   0.126   4.555  0.1954  0.2897  0.1369
  248MOL0     O34089   4.527   0.201   4.450 -0.3617  0.1164 -0.0200
  248MOL0     C34090   4.442   0.302   4.410 -0.8596 -0.2375  0.8192
  248MOL0     C34091   4.380   0.298   4.287 -1.0190  0.0507 -0.0191
  248MOL0     C34092   4.301   0.406   4.245 -0.1378 -0.0560 -0.1144
  248MOL0     C34093   4.297   0.523   4.322  0.4614  0.2329 -1.1151
  248MOL0     O34094   4.227   0.623   4.269 -0.1955 -0.1761  1.1815
  248MOL0     C34095   4.322   0.738   4.253  0.7376  0.3188 -0.3676
  248MOL0     C34096   4.443   0.729   4.165  0.4944 -0.0523  0.2001
  248MOL0     C34097   4.403   0.730   4.010  0.1328  0.5908 -0.2627
  248MOL0     C34098   4.370   0.863   3.948  0.0901  0.9193  0.2230
  248MOL0     C34099   4.403   0.855   3.794  0.4797  0.3922  0.5654
  248MOL0     C34100   4.400   0.987   3.725  0.3913  0.3652  0.2696
  248MOL0     C34101   4.422   0.964   3.580  0.4614  0.0193 -0.0507
  248MOL0     C34102   4.563   0.932   3.541 -0.1913 -1.0607 -0.3195
  248MOL0     N34103   4.587   0.888   3.406 -0.2136 -0.1602 -0.0011
  248MOL0     C34104   4.548   0.935   3.283  0.4671  0.9936 -0.4028
  248MOL0     C34105   4.610   0.864   3.187  0.2256  0.1900  0.1324
  248MOL0     C34106   4.589   0.894   3.042 -0.5094  0.1435  1.0971
  248MOL0     C34107   4.534   0.772   2.949 -0.5006  0.1461 -0.5694
  248MOL0     C34108   4.635   0.655   2.938  0.8580  0.5525 -0.1224
  248MOL0     C34109   4.576   0.543   2.847  0.4961 -0.0589 -0.0300
  248MOL0     O34110   4.464   0.484   2.922  0.0939 -0.1566 -0.1764
  248MOL0     C34111   4.405   0.373   2.868 -0.4613 -0.1490 -0.3772
  248MOL0     C34112   4.443   0.310   2.743 -0.2912  0.6231  0.1281
  248MOL0     C34113   4.370   0.210   2.685  0.5785 -0.5212  1.0050
  248MOL0     C34114   4.393   0.178   2.541 -0.7851  0.8125  0.0467
  248MOL0     C34115   4.269   0.151   2.770 -0.2289 -0.2750 -0.3555
  248MOL0     C34116   4.186   0.032   2.729  0.6719  0.8799 -0.3166
  248MOL0     O34117   4.157  -0.062   2.822  0.0927  0.3992 -0.2805
  248MOL0     C34118   4.062  -0.154   2.793 -0.6006  0.0733  0.6010
  248MOL0     C34119   3.931  -0.128   2.759  0.7789 -0.5573  0.0833
  248MOL0     C34120   3.844  -0.233   2.729  0.5511 -0.6346 -0.2867
  248MOL0     C34121   3.878  -0.368   2.755  0.7905 -0.4597  0.1901
  248MOL0     O34122   3.775  -0.461   2.728 -0.3765 -0.1353  0.0471
  248MOL0     C34123   3.796  -0.601   2.737  0.0641 -0.1245 -0.9793
  248MOL0     C34124   3.659  -0.681   2.716 -0.3598  0.4938 -0.3465
  248MOL0     C34125   3.602  -0.660   2.574  0.0035  0.1915 -0.5727
  248MOL0     C34126   3.684  -0.713   2.467 -0.6976  0.1620  0.0224
  248MOL0     C34127   3.635  -0.695   2.322 -0.4756  0.0700  0.6504
  248MOL0     C34128   3.528  -0.788   2.276 -0.2540 -0.2600  0.0133
  248MOL0     C34129   3.588  -0.927   2.224 -0.0695 -0.2070  1.0458
  248MOL0     C34130   3.482  -1.020   2.186 -0.6260  0.0477  0.3443
  248MOL0    Cl34131   3.573  -1.158   2.130  0.1083  0.1118  0.5054
  248MOL0     C34132   4.004  -0.394   2.801 -0.5124  0.1151  0.8625
  248MOL0     C34133   4.096  -0.288   2.821 -0.5445 -0.0103 -0.5775
  248MOL0     O34134   4.139   0.040   2.613 -0.9434 -0.5083  0.0444
  248MOL0     C34135   4.242   0.196   2.902  0.0132 -0.5697  0.3994
  248MOL0     C34136   4.308   0.314   2.946 -0.1554 -0.5148  0.2991
  248MOL0     N34137   4.684   0.769   3.254  0.2221 -0.0858 -1.1336
  248MOL0     N34138   4.676   0.787   3.381 -0.1426 -0.0184  0.1299
  248MOL0     C34139   4.360   0.527   4.447  0.5061 -0.7132 -0.3130
  248MOL0     C34140   4.440   0.421   4.489  0.1559  0.1395  0.1757
  248MOL0     C34141   4.575   0.031   4.593 -0.2644  1.1104  0.1433
  248MOL0     C34142   4.701   0.024   4.521  0.5413 -0.3484  0.0879
  248MOL0     C34143   4.802  -0.067   4.566  0.0924  0.3760  1.2605
  248MOL0     C34144   4.789  -0.150   4.666  0.7921  0.0249 -0.4539
  248MOL0     O34145   4.881  -0.239   4.714  0.2477 -0.4576  0.7348
  248MOL0     C34146   4.986  -0.275   4.632 -0.0975  0.0476  1.1306
  248MOL0     C34147   5.022  -0.421   4.649 -0.4635  0.3870  0.0004
  248MOL0     C34148   5.165  -0.428   4.707  0.6727  0.2003  0.1837
  248MOL0     C34149   5.225  -0.561   4.712  0.3123  0.9444 -0.5090
  248MOL0     C34150   5.366  -0.552   4.746 -0.0274  0.3498  0.3969
  248MOL0     C34151   5.482  -0.545   4.768  0.4828 -0.6687  0.7715
  248MOL0     C34152   4.661  -0.149   4.732 -0.0143 -0.2867 -0.0140
  248MOL0     C34153   4.556  -0.063   4.695 -0.8792  0.3111  0.0599
  248MOL0     C34154   4.430  -0.089   4.773  0.3219 -0.0316 -1.3744
  248MOL0     H34155   4.390   0.206   4.229 -0.9690  0.0890 -0.0718
  248MOL0     H34156   4.252   0.408   4.148 -1.2412 -0.0591  0.4323
  248MOL0     H34157   4.359   0.747   4.355 -4.1872 -1.6695  1.9091
  248MOL0     H34158   4.268   0.829   4.226 -3.4907 -1.9727 -0.4109
  248MOL0     H34159   4.519   0.806   4.176  2.2289 -1.8427  1.3817
  248MOL0     H34160   4.518   0.651   4.185 -0.0622 -0.2903  1.4973
  248MOL0     H34161   4.488   0.689   3.955  0.0259  1.0295 -0.7645
  248MOL0     H34162   4.322   0.657   3.997  2.6631 -1.9621 -3.5130
  248MOL0     H34163   4.265   0.883   3.972 -0.7069 -2.9407  0.4988
  248MOL0     H34164   4.434   0.942   3.989  1.5073 -0.5294  0.8865
  248MOL0     H34165   4.331   0.793   3.740  2.5911  0.9353 -3.1940
  248MOL0     H34166   4.502   0.810   3.780  0.8142  0.6947  1.7958
  248MOL0     H34167   4.298   1.025   3.740  0.6155 -0.1967  4.2438
  248MOL0     H34168   4.467   1.063   3.765  0.6041 -0.8376  2.3141
  248MOL0     H34169   4.390   1.049   3.519 -1.5197 -0.9639 -0.4765
  248MOL0     H34170   4.379   0.871   3.541  3.2207 -1.7058  0.7428
  248MOL0     H34171   4.617   1.027   3.543 -0.6459 -0.8103  0.0213
  248MOL0     H34172   4.614   0.866   3.612 -0.3163  2.8509  3.7730
  248MOL0     H34173   4.480   1.020   3.275 -0.7771 -0.0587 -1.4839
  248MOL0     H34174   4.685   0.922   2.997 -1.2970 -1.3642 -1.8137
  248MOL0     H34175   4.532   0.986   3.028 -0.9005 -0.2776 -0.3353
  248MOL0     H34176   4.434   0.754   2.990  0.7444  2.4388  4.0366
  248MOL0     H34177   4.530   0.816   2.849  0.4908  6.1714  1.6473
  248MOL0     H34178   4.734   0.681   2.901  2.7026 -3.3487  1.5071
  248MOL0     H34179   4.644   0.626   3.043 -0.0392  1.6857  0.2919
  248MOL0     H34180   4.553   0.581   2.747 -0.2196  3.7999  1.4411
  248MOL0     H34181   4.657   0.471   2.832  0.0399 -0.1583 -2.4186
  248MOL0     H34182   4.521   0.355   2.681  1.9470 -1.4671  1.2575
  248MOL0     H34183   4.497   0.196   2.511 -0.3466 -0.0606  0.9473
  248MOL0     H34184   4.324   0.229   2.473 -0.7865  1.3918  0.4714
  248MOL0     H34185   4.387   0.069   2.536 -0.9918  0.7711  0.9826
  248MOL0     H34186   3.906  -0.022   2.754  1.8220 -0.3471 -1.0799
  248MOL0     H34187   3.744  -0.219   2.690  1.6197 -1.6976 -3.7737
  248MOL0     H34188   3.881  -0.631   2.676  1.4682  1.5764  0.0745
  248MOL0     H34189   3.836  -0.621   2.836  1.4891  0.3491 -1.4370
  248MOL0     H34190   3.670  -0.788   2.739 -3.4444  0.4203  1.3623
  248MOL0     H34191   3.582  -0.645   2.784 -0.5361  4.6909 -2.4395
  248MOL0     H34192   3.595  -0.551   2.567  2.3745  0.4929  0.7791
  248MOL0     H34193   3.501  -0.703   2.567  0.4144 -1.1891  1.1848
  248MOL0     H34194   3.695  -0.821   2.481  2.6914  0.1033 -1.9147
  248MOL0     H34195   3.785  -0.671   2.469 -1.6742  2.8548 -1.1666
  248MOL0     H34196   3.614  -0.589   2.302  0.8868 -0.2148 -2.8683
  248MOL0     H34197   3.718  -0.717   2.254 -0.9091 -1.0375  0.4614
  248MOL0     H34198   3.465  -0.745   2.197 -1.3725 -1.7593  0.0376
  248MOL0     H34199   3.455  -0.817   2.352  1.5467 -1.7595  1.2640
  248MOL0     H34200   3.643  -0.976   2.305  1.4953  0.7562  0.6003
  248MOL0     H34201   3.652  -0.899   2.140 -0.2763  2.4272  1.6879
  248MOL0     H34202   3.407  -0.988   2.112 -0.2993 -0.6880 -0.3232
  248MOL0     H34203   3.425  -1.034   2.279  0.5355 -0.1230  1.0499
  248MOL0     H34204   4.038  -0.496   2.814 -0.0532 -0.0929 -1.5063
  248MOL0     H34205   4.196  -0.319   2.848 -1.3358 -2.9234 -0.7055
  248MOL0     H34206   4.158   0.155   2.956  1.1191 -2.8338  0.5153
  248MOL0     H34207   4.283   0.355   3.043 -2.9711 -1.5341  0.0975
  248MOL0     H34208   4.355   0.621   4.502  0.6500  0.1367 -1.7185
  248MOL0     H34209   4.506   0.439   4.573 -0.0161  1.5712  0.0245
  248MOL0     H34210   4.738   0.095   4.447  0.4601 -2.0244 -1.6266
  248MOL0     H34211   4.898  -0.051   4.518 -1.5064  0.7767 -2.0692
  248MOL0     H34212   4.959  -0.268   4.526 -1.4147 -0.3975  1.4162
  248MOL0     H34213   5.073  -0.210   4.640  2.1574 -2.9322  2.9108
  248MOL0     H34214   5.021  -0.477   4.555 -2.0009  1.9330 -0.9692
  248MOL0     H34215   4.958  -0.483   4.712  1.7058 -0.8524  1.0897
  248MOL0     H34216   5.229  -0.360   4.650  1.0867 -0.7558 -0.5084
  248MOL0     H34217   5.159  -0.389   4.809  0.9644  1.8794 -0.4167
  248MOL0     H34218   5.213  -0.611   4.615  0.9500  0.5585 -0.3935
  248MOL0     H34219   5.184  -0.614   4.798 -2.0264  0.8958 -1.5879
  248MOL0     H34220   5.587  -0.542   4.792  0.7223  5.2831  0.4627
  248MOL0     H34221   4.636  -0.227   4.804 -0.9148 -0.3415 -0.3731
  248MOL0     H34222   4.334  -0.073   4.723 -0.7598 -2.8345 -0.3822
  248MOL0     H34223   4.428  -0.195   4.801 -0.6394 -1.1265 -5.0705
  248MOL0     H34224   4.442  -0.012   4.850 -1.1815  1.2086 -2.3204
  249MOL0     O34225  11.004   2.945  11.459  0.7138  0.9711  0.6538
  249MOL0     C34226  10.899   2.937  11.405 -0.6250  0.5949  0.6099
  249MOL0     O34227  10.883   2.848  11.298  0.5585  0.3539 -0.1777
  249MOL0     C34228  10.994   2.804  11.236  0.0622  0.6498  0.4914
  249MOL0     C34229  11.084   2.708  11.298 -0.2424  0.0615  0.5691
  249MOL0     C34230  11.180   2.650  11.223 -0.0057  1.8656  0.2115
  249MOL0     C34231  11.187   2.665  11.088 -0.1162 -0.4567  0.1701
  249MOL0     O34232  11.270   2.585  11.016 -0.5529 -0.0017 -0.3345
  249MOL0     C34233  11.265   2.573  10.871 -0.7201  1.1364  0.0952
  249MOL0     C34234  11.352   2.472  10.806  0.0367 -0.2132  0.1660
  249MOL0     C34235  11.501   2.509  10.809 -0.7912  0.0011 -0.6593
  249MOL0     C34236  11.568   2.437  10.694  0.2228  0.2464  0.5790
  249MOL0     C34237  11.527   2.512  10.562  0.4870  0.5338  0.3780
  249MOL0     C34238  11.615   2.453  10.448  1.1528 -0.4145 -0.2461
  249MOL0     C34239  11.544   2.480  10.312  0.2191 -0.3007  0.0619
  249MOL0     C34240  11.448   2.367  10.266 -0.3211 -0.4434 -0.1506
  249MOL0     N34241  11.355   2.323  10.373 -1.0514  0.5083  0.7107
  249MOL0     C34242  11.371   2.227  10.472 -0.3412 -0.4448  0.3089
  249MOL0     C34243  11.255   2.226  10.542 -0.1898 -0.1905  0.0577
  249MOL0     C34244  11.217   2.122  10.642 -0.2943 -0.3876 -0.1648
  249MOL0     C34245  11.081   2.151  10.705  0.0824  0.0687  0.7251
  249MOL0     C34246  11.023   2.012  10.741  0.2022 -0.4058 -1.0378
  249MOL0     C34247  10.893   1.998  10.820 -0.2722 -0.5249  0.4176
  249MOL0     O34248  10.920   1.993  10.957 -0.1601 -1.4205  0.3385
  249MOL0     C34249  10.922   1.877  11.027 -1.0297 -0.1432 -0.5834
  249MOL0     C34250  10.942   1.752  10.960 -0.2030  0.0361 -0.6925
  249MOL0     C34251  10.958   1.630  11.019 -0.1044 -0.6754 -0.3446
  249MOL0     C34252  10.984   1.505  10.934  0.3647  0.1837  0.2225
  249MOL0     C34253  10.946   1.628  11.162 -0.0758 -0.2316  0.6637
  249MOL0     C34254  10.971   1.520  11.251 -0.6667  0.5910  0.3317
  249MOL0     O34255  10.938   1.532  11.381 -0.4517 -0.9986  0.0248
  249MOL0     C34256  11.026   1.461  11.458 -1.4847  0.1915 -0.3245
  249MOL0     C34257  11.006   1.336  11.499  0.2046  0.7300 -0.3827
  249MOL0     C34258  11.106   1.268  11.571  1.7602  0.7226  1.3444
  249MOL0     C34259  11.233   1.323  11.596 -0.8230 -0.3017  0.6243
  249MOL0     O34260  11.336   1.262  11.654 -1.2411  0.2518 -0.4535
  249MOL0     C34261  11.336   1.228  11.797  0.0512 -0.9587  0.5865
  249MOL0     C34262  11.450   1.132  11.813  0.3059 -0.4721  0.3928
  249MOL0     C34263  11.473   1.109  11.962 -0.3320 -0.4158  0.2150
  249MOL0     C34264  11.582   1.207  12.028  0.0209 -0.6100  0.5850
  249MOL0     C34265  11.593   1.181  12.183 -0.6703 -0.1542 -0.3147
  249MOL0     C34266  11.470   1.217  12.263 -1.1304  0.4335 -0.0954
  249MOL0     C34267  11.496   1.207  12.413 -0.1213  0.8008 -0.3168
  249MOL0     C34268  11.554   1.346  12.454  0.0461  0.8711 -0.3676
  249MOL0    Cl34269  11.579   1.372  12.632  0.5807  0.1299  0.1049
  249MOL0     C34270  11.258   1.453  11.553 -0.4109 -0.1280  0.2838
  249MOL0     C34271  11.153   1.521  11.487  0.2746  0.2210  0.3182
  249MOL0     O34272  11.008   1.414  11.201  0.7015 -0.6300 -0.1735
  249MOL0     C34273  10.909   1.747  11.226  0.4994  0.4264 -0.2943
  249MOL0     C34274  10.902   1.870  11.163  0.1545  0.2438 -0.4195
  249MOL0     N34275  11.175   2.329  10.491 -0.6128 -0.4987  0.5433
  249MOL0     N34276  11.235   2.376  10.389  0.9358 -0.4611 -0.1352
  249MOL0     C34277  11.103   2.754  11.026 -0.1225 -0.4665 -0.0448
  249MOL0     C34278  11.011   2.833  11.099  0.1043  0.3826 -0.0095
  249MOL0     C34279  10.782   3.007  11.451  0.1912  0.1264 -0.6360
  249MOL0     C34280  10.689   3.043  11.357 -1.0148  0.2135  0.2911
  249MOL0     C34281  10.571   3.101  11.394 -0.0430 -0.6127  0.0997
  249MOL0     C34282  10.545   3.139  11.529  0.1818  0.6041  0.3267
  249MOL0     O34283  10.442   3.222  11.586  0.2463 -0.7678  0.6494
  249MOL0     C34284  10.361   3.284  11.481 -0.6797  0.4428 -0.3231
  249MOL0     C34285  10.239   3.365  11.535  0.4582 -0.4567 -0.7689
  249MOL0     C34286  10.297   3.499  11.584  0.6817  0.2126 -0.4007
  249MOL0     C34287  10.173   3.586  11.624 -0.9324  0.0559 -0.0935
  249MOL0     C34288  10.094   3.638  11.511  0.1730 -0.4300  0.9776
  249MOL0     C34289  10.036   3.681  11.412  0.4266 -0.8603 -0.3040
  249MOL0     C34290  10.640   3.103  11.626  0.2241  0.9481  0.0731
  249MOL0     C34291  10.758   3.028  11.591 -0.4513 -0.3067  1.1500
  249MOL0     C34292  10.854   2.988  11.700  0.0755  0.2666 -0.0650
  249MOL0     H34293  11.076   2.675  11.401  4.0852  1.0529  1.4312
  249MOL0     H34294  11.242   2.571  11.263 -0.8227 -0.4647 -2.7756
  249MOL0     H34295  11.288   2.666  10.818  0.8450  3.3931  4.3048
  249MOL0     H34296  11.165   2.537  10.846  0.5753 -2.1976 -0.8832
  249MOL0     H34297  11.318   2.380  10.854 -2.6229  1.2716  1.4006
  249MOL0     H34298  11.313   2.463  10.704 -1.0779 -2.6301  0.7315
  249MOL0     H34299  11.514   2.618  10.809  0.5430 -0.1352 -1.2636
  249MOL0     H34300  11.543   2.472  10.903  3.4632 -2.4409 -3.2334
  249MOL0     H34301  11.675   2.453  10.709 -0.2850  3.5030  1.4635
  249MOL0     H34302  11.534   2.334  10.686 -0.7277  0.5975 -0.0412
  249MOL0     H34303  11.540   2.620  10.563 -2.9014  1.1808 -2.9350
  249MOL0     H34304  11.426   2.492  10.526  1.5177 -0.5139 -2.1850
  249MOL0     H34305  11.714   2.498  10.456  2.2683 -2.3407 -2.0922
  249MOL0     H34306  11.632   2.344  10.449 -2.4313 -1.1293 -2.2226
  249MOL0     H34307  11.624   2.498  10.240  0.8519 -1.7904  0.3568
  249MOL0     H34308  11.478   2.567  10.305  0.0730 -0.3147  1.0461
  249MOL0     H34309  11.390   2.384  10.175  2.7804 -2.0223 -2.6337
  249MOL0     H34310  11.505   2.279  10.235  2.2540  0.4730  1.6612
  249MOL0     H34311  11.452   2.156  10.482  2.6273  2.8512  1.4289
  249MOL0     H34312  11.286   2.121  10.727  1.3232 -2.6772 -1.3842
  249MOL0     H34313  11.229   2.023  10.596  0.1400 -0.8757  0.9614
  249MOL0     H34314  11.087   2.216  10.793  0.8762  0.9911  0.0039
  249MOL0     H34315  11.015   2.214  10.644  1.4813  2.7731  1.8338
  249MOL0     H34316  10.992   1.955  10.654  2.7304 -0.8959 -1.7023
  249MOL0     H34317  11.099   1.953  10.794 -2.2833 -1.1041  2.0559
  249MOL0     H34318  10.827   2.082  10.793  1.6256  0.6149 -0.8860
  249MOL0     H34319  10.830   1.911  10.801  1.6633 -2.1909  1.3168
  249MOL0     H34320  10.956   1.749  10.852 -1.6120 -2.4720 -0.8693
  249MOL0     H34321  11.088   1.472  10.942  0.3083 -0.4257 -1.1898
  249MOL0     H34322  10.937   1.523  10.837  1.5694 -1.6097 -0.7472
  249MOL0     H34323  10.920   1.428  10.977 -0.6779  1.0036  0.1640
  249MOL0     H34324  10.912   1.285  11.480 -1.0213  1.3013  3.2587
  249MOL0     H34325  11.098   1.164  11.601 -1.6836  0.1555 -0.9548
  249MOL0     H34326  11.333   1.318  11.860 -1.5864 -1.1287  0.7985
  249MOL0     H34327  11.251   1.162  11.817 -1.6550  1.4398  1.7345
  249MOL0     H34328  11.433   1.040  11.755  1.4386  1.4506 -3.3238
  249MOL0     H34329  11.543   1.168  11.770  2.4879 -4.4855  1.2094
  249MOL0     H34330  11.497   1.004  11.980 -0.6527 -0.3758  0.8922
  249MOL0     H34331  11.380   1.125  12.016 -1.5439 -0.7871 -1.6609
  249MOL0     H34332  11.552   1.309  12.006  2.3719  0.3394  1.4712
  249MOL0     H34333  11.677   1.189  11.978  0.6725  1.3679  1.0361
  249MOL0     H34334  11.632   1.079  12.191  3.5459  1.2913  0.6989
  249MOL0     H34335  11.674   1.248  12.215 -0.9013 -1.3048  3.0383
  249MOL0     H34336  11.381   1.157  12.241 -2.9473  3.2328 -0.8931
  249MOL0     H34337  11.432   1.316  12.235 -3.6769 -1.2751 -3.4493
  249MOL0     H34338  11.562   1.122  12.432  1.6913  1.7791 -1.8996
  249MOL0     H34339  11.404   1.187  12.470 -0.9610 -0.3450 -1.9709
  249MOL0     H34340  11.487   1.418  12.408 -1.6583 -2.3617 -3.3999
  249MOL0     H34341  11.655   1.358  12.412 -0.0997  1.4223 -0.5631
  249MOL0     H34342  11.345   1.506  11.589 -1.0602  2.1089 -1.2802
  249MOL0     H34343  11.161   1.625  11.459 -0.7950 -0.0950 -1.2998
  249MOL0     H34344  10.890   1.742  11.333 -1.1051  2.6902 -0.3976
  249MOL0     H34345  10.891   1.959  11.224 -0.9868  0.7238 -1.3116
  249MOL0     H34346  11.106   2.768  10.919  1.2437  0.4763  0.1053
  249MOL0     H34347  10.934   2.884  11.042 -2.2794 -1.6107  1.2241
  249MOL0     H34348  10.716   3.026  11.253 -1.0138  0.8270  0.1906
  249MOL0     H34349  10.502   3.113  11.311 -1.3505  0.1098  1.2474
  249MOL0     H34350  10.425   3.343  11.414  0.9843  0.9723  1.6268
  249MOL0     H34351  10.323   3.203  11.418  1.9149 -1.1027 -0.0629
  249MOL0     H34352  10.188   3.312  11.616 -1.2969  2.6872  0.3783
  249MOL0     H34353  10.162   3.374  11.457 -2.2152 -3.0395  1.3389
  249MOL0     H34354  10.356   3.476  11.673  0.8223 -1.5386 -0.9010
  249MOL0     H34355  10.357   3.551  11.509 -0.8069 -1.7894 -3.1870
  249MOL0     H34356  10.224   3.670  11.671  1.4478 -0.7649 -1.0659
  249MOL0     H34357  10.112   3.536  11.699 -2.4792 -1.9366 -2.4957
  249MOL0     H34358   9.989   3.714  11.322 -0.6266 -0.9995  0.1787
  249MOL0     H34359  10.611   3.121  11.729  0.4637 -0.1783  0.3444
  249MOL0     H34360  10.953   3.032  11.687  0.3997 -0.3304  0.2990
  249MOL0     H34361  10.815   3.020  11.797 -0.3095  0.6386 -0.3355
  249MOL0     H34362  10.862   2.879  11.695 -0.4108  0.0852  2.0918
  250MOL0     O34363   0.297  10.249   5.585 -0.3541  0.6516  0.4020
  250MOL0     C34364   0.327  10.150   5.653  0.3553  0.8101  0.1704
  250MOL0     O34365   0.343  10.026   5.609  0.3455  0.3845  0.0521
  250MOL0     C34366   0.329   9.996   5.476 -0.2429 -0.3459 -0.4618
  250MOL0     C34367   0.208   9.983   5.413  0.3962 -0.5562 -0.3769
  250MOL0     C34368   0.197   9.961   5.274 -0.0371 -0.8984  0.0836
  250MOL0     C34369   0.314   9.964   5.191  0.4685  0.2690 -0.5817
  250MOL0     O34370   0.300   9.950   5.055 -0.9932 -0.0751  0.1000
  250MOL0     C34371   0.396  10.004   4.969  0.2101  1.1422  0.0204
  250MOL0     C34372   0.374   9.939   4.833 -0.0538 -0.0485 -0.1380
  250MOL0     C34373   0.263   9.994   4.751  0.0524  0.2868  0.5249
  250MOL0     C34374   0.120  10.013   4.803 -0.3200 -0.6194 -0.8805
  250MOL0     C34375   0.034  10.044   4.680 -1.0392 -0.5600 -0.4053
  250MOL0     C34376  -0.109  10.015   4.701  0.8809  0.2226  0.0258
  250MOL0     C34377  -0.183  10.134   4.777  0.3777  0.0315  0.1114
  250MOL0     C34378  -0.321  10.091   4.817 -0.6574  0.5055  0.0971
  250MOL0     N34379  -0.333   9.976   4.904 -0.8089  0.0670 -0.4440
  250MOL0     C34380  -0.283   9.951   5.033  0.4646  0.1513 -0.4368
  250MOL0     C34381  -0.330   9.826   5.067  0.4187  0.0522  0.6209
  250MOL0     C34382  -0.330   9.774   5.212 -0.3310  1.0423  0.3312
  250MOL0     C34383  -0.236   9.657   5.258 -0.6023 -0.7390 -0.3850
  250MOL0     C34384  -0.089   9.709   5.278  0.4275  0.4538 -0.5147
  250MOL0     C34385   0.004   9.719   5.151  0.7948 -0.2487 -0.3458
  250MOL0     O34386  -0.028   9.616   5.059  0.4595  0.7833 -0.6277
  250MOL0     C34387   0.015   9.630   4.925 -0.1061  0.1471 -1.0022
  250MOL0     C34388  -0.082   9.645   4.832  0.6293  0.2569  0.2541
  250MOL0     C34389  -0.046   9.662   4.691  0.1591  0.0898  0.0390
  250MOL0     C34390  -0.162   9.689   4.603  0.0666 -0.1255 -0.2697
  250MOL0     C34391   0.086   9.647   4.649 -1.0921  0.4340 -0.3782
  250MOL0     C34392   0.128   9.629   4.505 -1.5194 -0.6099  0.1783
  250MOL0     O34393   0.264   9.657   4.476 -0.7576 -0.2668 -0.6060
  250MOL0     C34394   0.316   9.640   4.348  0.2355  0.6648 -0.1197
  250MOL0     C34395   0.275   9.713   4.242  0.6033  0.6343  0.7583
  250MOL0     C34396   0.341   9.697   4.114 -0.8365 -0.9250 -0.9516
  250MOL0     C34397   0.445   9.609   4.092  0.4120  0.1787 -0.9939
  250MOL0     O34398   0.514   9.595   3.976 -0.6276 -0.6154  0.7664
  250MOL0     C34399   0.473   9.653   3.852 -0.8082 -1.0411 -0.0106
  250MOL0     C34400   0.558   9.603   3.746 -0.2257  0.7756  0.0781
  250MOL0     C34401   0.537   9.676   3.608 -0.8751 -1.2087 -0.5685
  250MOL0     C34402   0.608   9.597   3.505 -0.3831 -0.4425 -0.4173
  250MOL0     C34403   0.565   9.642   3.363 -0.5917 -0.7658 -0.5014
  250MOL0     C34404   0.442   9.550   3.319 -0.2301 -0.3017  0.2539
  250MOL0     C34405   0.386   9.591   3.182  0.9608  0.1941  0.2825
  250MOL0     C34406   0.268   9.492   3.138 -0.9596  0.1216  0.2330
  250MOL0    Cl34407   0.133   9.510   3.258 -0.2800 -0.4076 -0.2629
  250MOL0     C34408   0.478   9.536   4.206 -0.2172 -0.0184 -0.5905
  250MOL0     C34409   0.420   9.548   4.332  0.2211 -0.3815 -1.2243
  250MOL0     O34410   0.047   9.610   4.422 -0.4201  0.7397  0.7497
  250MOL0     C34411   0.185   9.631   4.749  0.3022 -0.9257 -0.5787
  250MOL0     C34412   0.144   9.618   4.890 -0.0257 -0.3457  0.0462
  250MOL0     N34413  -0.389   9.768   4.954 -0.3088 -0.4660 -0.5014
  250MOL0     N34414  -0.379   9.859   4.859  0.1860  0.1398  0.1949
  250MOL0     C34415   0.436   9.973   5.252 -0.6618 -1.2974  1.2103
  250MOL0     C34416   0.444  10.001   5.392 -0.9213  0.0932  0.1267
  250MOL0     C34417   0.364  10.169   5.791 -1.0515 -0.4372  0.4957
  250MOL0     C34418   0.498  10.172   5.825 -0.1215  0.3531  0.6389
  250MOL0     C34419   0.540  10.195   5.958 -0.5867  0.0619 -0.8569
  250MOL0     C34420   0.451  10.204   6.063 -0.0930 -0.4389 -0.3763
  250MOL0     O34421   0.477  10.239   6.194  0.6875  0.1750 -0.0609
  250MOL0     C34422   0.613  10.263   6.232 -1.0632 -0.1254  0.2731
  250MOL0     C34423   0.627  10.295   6.384 -0.2738  1.0910  0.2920
  250MOL0     C34424   0.560  10.178   6.465 -0.5016  0.5486  0.3031
  250MOL0     C34425   0.597  10.036   6.417 -0.2308  0.9442 -0.6565
  250MOL0     C34426   0.740  10.008   6.454 -0.6626 -0.5497  0.1188
  250MOL0     C34427   0.853   9.990   6.494  1.1187 -0.0625  0.9618
  250MOL0     C34428   0.317  10.166   6.030 -0.8428  0.2270 -0.7024
  250MOL0     C34429   0.273  10.147   5.899 -0.3244 -0.5284  0.0291
  250MOL0     C34430   0.132  10.100   5.877 -0.4865  0.0808  0.1835
  250MOL0     H34431   0.123   9.978   5.481  3.2700 -0.6998  3.5678
  250MOL0     H34432   0.097   9.952   5.232 -1.1023 -2.9482  2.7832
  250MOL0     H34433   0.499   9.977   4.993  0.4849 -0.5821 -2.6829
  250MOL0     H34434   0.385  10.112   4.956 -2.8346  1.0587  1.0159
  250MOL0     H34435   0.468   9.939   4.777 -0.8329  2.8246 -1.6457
  250MOL0     H34436   0.360   9.832   4.851  0.5075 -0.5974 -2.5905
  250MOL0     H34437   0.287  10.094   4.714 -2.1595  0.2794 -1.0750
  250MOL0     H34438   0.253   9.918   4.673  0.3575 -2.2618  2.7985
  250MOL0     H34439   0.087   9.924   4.857 -0.8507 -0.8006 -1.4873
  250MOL0     H34440   0.128  10.089   4.881  3.7939 -1.8678  0.1434
  250MOL0     H34441   0.074   9.992   4.593 -1.0714 -0.2892 -0.5848
  250MOL0     H34442   0.046  10.150   4.653 -1.1953 -0.1821  0.9133
  250MOL0     H34443  -0.154  10.005   4.602  2.5632 -2.2088 -0.5913
  250MOL0     H34444  -0.123   9.920   4.752 -1.7008  0.1929 -0.6344
  250MOL0     H34445  -0.193  10.222   4.713 -3.1821  0.0775  0.5672
  250MOL0     H34446  -0.128  10.168   4.865 -0.6223  2.8212 -0.2242
  250MOL0     H34447  -0.369  10.176   4.867 -1.0368 -0.3776  1.2876
  250MOL0     H34448  -0.375  10.060   4.727  1.1866 -0.6350 -0.6858
  250MOL0     H34449  -0.247  10.020   5.110  0.6328 -0.1947 -0.1990
  250MOL0     H34450  -0.431   9.762   5.252  0.2583 -0.3704  1.5131
  250MOL0     H34451  -0.288   9.859   5.266 -1.7488  0.0777  3.1711
  250MOL0     H34452  -0.274   9.622   5.354  0.3193 -1.6499 -0.3437
  250MOL0     H34453  -0.233   9.569   5.193 -1.6477 -2.7713  2.1527
  250MOL0     H34454  -0.087   9.803   5.334 -0.4914  0.0809  0.1687
  250MOL0     H34455  -0.036   9.643   5.346 -2.5363 -0.1303  1.4384
  250MOL0     H34456   0.001   9.816   5.100 -1.4781  1.4060  2.6040
  250MOL0     H34457   0.102   9.710   5.198 -0.9655  2.2802  4.5410
  250MOL0     H34458  -0.185   9.659   4.863  0.5133  0.3508 -0.1720
  250MOL0     H34459  -0.217   9.603   4.563 -0.2643  1.3528 -3.3487
  250MOL0     H34460  -0.134   9.753   4.518 -2.1286  0.0035 -0.9590
  250MOL0     H34461  -0.230   9.748   4.665  1.8814  0.3770  1.3268
  250MOL0     H34462   0.195   9.786   4.245  0.8803  1.3313 -3.1143
  250MOL0     H34463   0.315   9.761   4.030  0.4620 -0.7844 -1.2743
  250MOL0     H34464   0.371   9.618   3.833 -0.9080 -0.1212 -1.3198
  250MOL0     H34465   0.482   9.762   3.860 -0.3609 -1.0070 -0.8827
  250MOL0     H34466   0.661   9.599   3.780 -0.4327 -0.5788  0.6099
  250MOL0     H34467   0.530   9.498   3.734  0.0967  0.5736  1.0652
  250MOL0     H34468   0.563   9.782   3.610 -1.0610 -1.1357 -1.7441
  250MOL0     H34469   0.429   9.667   3.599 -1.0662  1.0268 -0.8624
  250MOL0     H34470   0.595   9.490   3.523  0.2721 -0.2982  1.0072
  250MOL0     H34471   0.716   9.618   3.503  0.0127 -2.2460  0.4101
  250MOL0     H34472   0.533   9.746   3.355 -2.8372 -1.5311 -2.5822
  250MOL0     H34473   0.638   9.634   3.282  0.4991 -0.6650  0.4517
  250MOL0     H34474   0.362   9.554   3.394 -1.7222 -4.4865 -0.8512
  250MOL0     H34475   0.493   9.454   3.308  1.0844  0.5217 -1.2230
  250MOL0     H34476   0.462   9.582   3.103  1.9634 -1.8824  1.3904
  250MOL0     H34477   0.355   9.696   3.182  1.2808  0.2936 -0.3357
  250MOL0     H34478   0.306   9.389   3.143  0.0504  0.5454  3.0984
  250MOL0     H34479   0.241   9.512   3.034  1.4793 -1.6440 -0.8378
  250MOL0     H34480   0.564   9.470   4.197  0.5838  0.8387  0.6327
  250MOL0     H34481   0.451   9.478   4.410 -4.2382 -0.4596  0.8169
  250MOL0     H34482   0.293   9.630   4.732  0.9520  1.9674  2.3315
  250MOL0     H34483   0.227   9.608   4.959  2.2129 -1.2529 -2.5895
  250MOL0     H34484   0.529   9.954   5.199 -0.9539  1.1691 -0.3159
  250MOL0     H34485   0.549  10.019   5.414  0.5069 -2.3755 -3.6017
  250MOL0     H34486   0.565  10.173   5.739  2.4085  0.4521  2.5053
  250MOL0     H34487   0.648  10.195   5.967 -0.7015 -2.7085  2.5965
  250MOL0     H34488   0.657  10.165   6.208  2.1495  1.1053  0.6150
  250MOL0     H34489   0.668  10.335   6.172  0.0919 -1.1095  0.1156
  250MOL0     H34490   0.577  10.388   6.414  0.5503  1.6021  0.1163
  250MOL0     H34491   0.733  10.303   6.407  0.2002 -0.6318 -1.0576
  250MOL0     H34492   0.587  10.190   6.570  1.3779 -2.4811  0.2979
  250MOL0     H34493   0.451  10.185   6.458 -0.6956 -0.5833  1.8066
  250MOL0     H34494   0.575  10.014   6.312 -2.7090 -1.5885  0.2615
  250MOL0     H34495   0.537   9.977   6.487  0.7943  1.0920  0.3886
  250MOL0     H34496   0.951   9.988   6.538  1.3455  1.7045  0.6234
  250MOL0     H34497   0.256  10.160   6.120 -0.3279 -1.1271 -0.4271
  250MOL0     H34498   0.128   9.996   5.844  0.5050 -0.8612  2.8149
  250MOL0     H34499   0.078  10.096   5.972  2.5138 -0.7386  1.9732
  250MOL0     H34500   0.087  10.170   5.806  0.9912  2.0458  1.0699
  251MOL0     O34501   9.250   5.160   0.812 -0.3365 -0.6754 -0.7022
  251MOL0     C34502   9.234   5.145   0.688  1.0904  0.4279  0.6665
  251MOL0     O34503   9.176   5.228   0.602  0.6869  0.1291  0.6763
  251MOL0     C34504   9.152   5.356   0.641 -0.6767  0.3897 -0.3065
  251MOL0     C34505   9.041   5.373   0.728 -0.0391 -0.6865 -0.1173
  251MOL0     C34506   9.025   5.492   0.793  0.4128  0.7588 -0.6011
  251MOL0     C34507   9.116   5.604   0.752  1.0528 -0.2937 -0.2733
  251MOL0     O34508   9.088   5.719   0.827 -0.4368  0.1644  0.0674
  251MOL0     C34509   9.149   5.842   0.787 -0.5386  0.4194  0.3158
  251MOL0     C34510   9.096   5.948   0.873 -0.7981  0.6317 -0.6243
  251MOL0     C34511   9.165   5.954   1.009 -0.0801  0.0149  0.5251
  251MOL0     C34512   9.158   6.096   1.067 -0.1536 -0.0247 -0.0466
  251MOL0     C34513   9.265   6.192   1.013  0.7217  0.0525  0.5997
  251MOL0     C34514   9.246   6.341   1.065 -0.3472  0.0598  0.9433
  251MOL0     C34515   9.299   6.361   1.208 -0.0596  0.0388 -1.2735
  251MOL0     C34516   9.242   6.480   1.271  0.3862  0.5452 -0.1145
  251MOL0     N34517   9.278   6.606   1.198 -0.5500  0.1700 -0.0739
  251MOL0     C34518   9.199   6.721   1.213  0.4848  0.3162  0.0387
  251MOL0     C34519   9.246   6.799   1.108 -0.4350 -0.7083  0.3974
  251MOL0     C34520   9.181   6.928   1.057 -0.5855 -0.2133 -0.7059
  251MOL0     C34521   9.204   7.053   1.151 -0.2947 -0.6678  0.1250
  251MOL0     C34522   9.109   7.050   1.280  0.0905 -0.2399  0.7334
  251MOL0     C34523   8.959   7.078   1.254 -1.0268 -0.1931  0.4057
  251MOL0     O34524   8.869   7.004   1.334 -0.4786 -0.4010  0.3111
  251MOL0     C34525   8.738   7.051   1.321  0.2680 -1.2009 -0.5125
  251MOL0     C34526   8.660   7.093   1.427 -0.2961 -0.0835  0.4746
  251MOL0     C34527   8.531   7.135   1.419  0.5312  0.9100  0.1835
  251MOL0     C34528   8.467   7.172   1.554  0.4247  0.2979 -0.1609
  251MOL0     C34529   8.471   7.154   1.290 -0.3411  0.1913 -0.7046
  251MOL0     C34530   8.339   7.213   1.266  0.3920  0.0839 -0.1057
  251MOL0     O34531   8.276   7.276   1.364  0.2464 -0.5083 -1.4910
  251MOL0     C34532   8.177   7.363   1.327 -0.2026 -0.9687 -0.4712
  251MOL0     C34533   8.043   7.331   1.324  0.1191  0.0407  0.2578
  251MOL0     C34534   7.937   7.422   1.281 -0.1056 -0.0062 -0.2254
  251MOL0     C34535   7.979   7.558   1.247  0.0792  0.2955  0.4710
  251MOL0     O34536   7.893   7.654   1.211  0.2661 -0.3859  0.3416
  251MOL0     C34537   7.817   7.626   1.091  0.1432  0.2662 -0.1036
  251MOL0     C34538   7.714   7.735   1.070 -0.2151  0.7754 -0.9655
  251MOL0     C34539   7.771   7.870   1.098  0.3561 -1.0280  0.4931
  251MOL0     C34540   7.680   7.985   1.059 -0.1495  0.8910 -0.0823
  251MOL0     C34541   7.583   8.048   1.156 -0.5938 -0.4016  0.4508
  251MOL0     C34542   7.459   7.967   1.161 -0.9813  0.1289  0.7736
  251MOL0     C34543   7.366   8.054   1.237  0.4482 -0.4395  0.0706
  251MOL0     C34544   7.235   7.966   1.271 -1.2725  0.1519 -0.1956
  251MOL0    Cl34545   7.087   8.054   1.319  0.6917  0.2206 -0.0093
  251MOL0     C34546   8.114   7.591   1.253  0.0843 -0.0042 -0.9500
  251MOL0     C34547   8.214   7.492   1.293  0.5582  0.4633 -0.1017
  251MOL0     O34548   8.295   7.202   1.151  0.8545  0.1331  0.0416
  251MOL0     C34549   8.550   7.123   1.180 -0.7821  0.3512 -0.1582
  251MOL0     C34550   8.683   7.075   1.195  0.5933  0.0374  0.0714
  251MOL0     N34551   9.359   6.738   1.047 -0.0825 -0.4988  0.0103
  251MOL0     N34552   9.378   6.623   1.111  0.3075 -0.3947  0.9424
  251MOL0     C34553   9.217   5.580   0.659  0.1199 -1.0629  0.6153
  251MOL0     C34554   9.238   5.454   0.616  0.0232  0.4845  0.3663
  251MOL0     C34555   9.299   5.023   0.629  0.2910  0.8086 -0.2953
  251MOL0     C34556   9.440   5.005   0.644  0.6137  0.0002  0.4781
  251MOL0     C34557   9.496   4.899   0.594  0.0625  0.4582 -0.0117
  251MOL0     C34558   9.429   4.793   0.530 -0.3835 -0.2753  1.1061
  251MOL0     O34559   9.503   4.698   0.462  1.2755  0.6630  0.0043
  251MOL0     C34560   9.447   4.595   0.369 -0.0185  0.6423  0.2844
  251MOL0     C34561   9.383   4.644   0.241  0.3729 -0.4779  0.3535
  251MOL0     C34562   9.478   4.727   0.149  0.4331 -0.4446 -0.6279
  251MOL0     C34563   9.406   4.749   0.016 -0.7028  1.1045 -0.6063
  251MOL0     C34564   9.298   4.845   0.029  0.3746  0.3821 -1.6329
  251MOL0     C34565   9.194   4.914   0.024 -0.4776 -0.2413  0.0403
  251MOL0     C34566   9.290   4.803   0.530 -0.5133 -1.1391  0.2055
  251MOL0     C34567   9.217   4.926   0.565 -0.6712 -0.3885 -0.0192
  251MOL0     C34568   9.062   4.935   0.561 -0.2287 -1.3460  0.3314
  251MOL0     H34569   8.978   5.288   0.747 -1.8729  0.4990 -0.6173
  251MOL0     H34570   8.941   5.513   0.859  0.7301 -3.6333  1.5348
  251MOL0     H34571   9.123   5.873   0.685 -1.1318  0.2427  0.4080
  251MOL0     H34572   9.258   5.841   0.793 -0.4107  1.6291 -1.1232
  251MOL0     H34573   9.122   6.034   0.810  0.7101  0.7293  0.0744
  251MOL0     H34574   8.988   5.932   0.883 -1.0562  1.9659 -1.1186
  251MOL0     H34575   9.120   5.883   1.079  1.5250  0.2191  1.8112
  251MOL0     H34576   9.272   5.933   1.005 -0.1018  0.0551 -1.1156
  251MOL0     H34577   9.056   6.133   1.054 -0.7102 -1.8243 -1.2433
  251MOL0     H34578   9.167   6.079   1.174 -3.5485  0.8030  0.4949
  251MOL0     H34579   9.244   6.199   0.906 -1.3635  0.2790  0.9794
  251MOL0     H34580   9.368   6.166   1.038  0.0812  0.3135  3.8578
  251MOL0     H34581   9.287   6.402   0.984  3.3746 -1.8382  1.1984
  251MOL0     H34582   9.140   6.367   1.061 -0.4892 -0.4781  1.2243
  251MOL0     H34583   9.408   6.364   1.210 -0.0388 -0.2168  1.1855
  251MOL0     H34584   9.270   6.272   1.265  0.8225 -0.8454 -2.1724
  251MOL0     H34585   9.133   6.467   1.276  0.4421 -0.3316 -0.9134
  251MOL0     H34586   9.281   6.486   1.374  0.4014 -1.3344  0.0236
  251MOL0     H34587   9.109   6.732   1.274  0.7231 -1.8331  0.8710
  251MOL0     H34588   9.077   6.898   1.067 -0.5889  0.5346  3.3495
  251MOL0     H34589   9.200   6.950   0.952  3.2271  2.6465  0.3532
  251MOL0     H34590   9.306   7.059   1.191 -0.4538 -2.5029  0.8835
  251MOL0     H34591   9.178   7.143   1.093  1.7807 -0.8141 -1.1688
  251MOL0     H34592   9.122   6.958   1.337 -1.6452 -2.6099 -2.3253
  251MOL0     H34593   9.152   7.135   1.334  0.1907 -0.5242  1.0988
  251MOL0     H34594   8.933   7.184   1.252 -0.8449 -0.1499  0.4207
  251MOL0     H34595   8.941   7.044   1.151 -0.7971  0.9060 -0.0047
  251MOL0     H34596   8.709   7.064   1.519  0.8616  0.2003 -0.0246
  251MOL0     H34597   8.506   7.120   1.642 -0.5820 -1.1929 -0.5467
  251MOL0     H34598   8.361   7.143   1.552  0.3820  0.2089  1.5051
  251MOL0     H34599   8.467   7.279   1.576  0.5616  0.4281 -0.7979
  251MOL0     H34600   7.994   7.236   1.346 -0.3236  0.3285  0.5356
  251MOL0     H34601   7.831   7.411   1.262 -1.2172  4.4127  1.9615
  251MOL0     H34602   7.885   7.623   1.005  0.0365  1.2081 -0.2239
  251MOL0     H34603   7.764   7.530   1.090 -0.0423  0.3427 -2.3558
  251MOL0     H34604   7.708   7.731   0.961  2.1019 -1.6812 -1.1033
  251MOL0     H34605   7.623   7.708   1.124 -0.2683  0.0315 -1.4177
  251MOL0     H34606   7.866   7.891   1.049 -1.4932  1.7092 -2.3211
  251MOL0     H34607   7.779   7.888   1.205  2.7912  0.2583  0.1721
  251MOL0     H34608   7.638   7.963   0.961  1.8171  2.2793 -1.3190
  251MOL0     H34609   7.750   8.059   1.019  0.1991 -0.7281 -2.6795
  251MOL0     H34610   7.615   8.066   1.259  2.2168 -0.4171 -0.3298
  251MOL0     H34611   7.559   8.143   1.108 -2.9610 -0.3659  1.5581
  251MOL0     H34612   7.475   7.876   1.220 -2.1784 -0.9056 -0.4520
  251MOL0     H34613   7.418   7.939   1.064  2.0626 -0.7427 -0.3991
  251MOL0     H34614   7.350   8.140   1.170  0.9269 -0.1920  0.2708
  251MOL0     H34615   7.405   8.075   1.336 -2.8304  1.8040  1.0767
  251MOL0     H34616   7.263   7.900   1.354 -0.0105  0.5583 -0.2799
  251MOL0     H34617   7.212   7.898   1.189 -0.0251 -0.9151  0.2936
  251MOL0     H34618   8.136   7.693   1.226 -1.3215  0.2944 -1.0635
  251MOL0     H34619   8.317   7.516   1.317 -0.2668  1.9708  2.2970
  251MOL0     H34620   8.518   7.137   1.077 -0.1200  4.8913  0.0347
  251MOL0     H34621   8.741   7.029   1.116 -0.0816  1.6500 -1.4214
  251MOL0     H34622   9.266   5.672   0.626  0.8022 -2.1963 -1.7673
  251MOL0     H34623   9.314   5.431   0.542 -0.0519 -0.7237  0.6447
  251MOL0     H34624   9.485   5.076   0.713  1.5921  0.5981 -0.7331
  251MOL0     H34625   9.602   4.900   0.619  0.2961  1.6541 -0.9858
  251MOL0     H34626   9.526   4.523   0.347 -2.5859 -1.8893 -1.3550
  251MOL0     H34627   9.372   4.529   0.413 -3.9111  2.0496 -3.5751
  251MOL0     H34628   9.303   4.718   0.254  1.2946  0.3370  1.6722
  251MOL0     H34629   9.339   4.555   0.195 -1.2596  0.9842 -1.0177
  251MOL0     H34630   9.518   4.817   0.196 -2.2279 -0.1157  1.2162
  251MOL0     H34631   9.571   4.673   0.125  0.9660  0.0649  0.2678
  251MOL0     H34632   9.365   4.655  -0.021 -1.5353 -0.6154  3.9939
  251MOL0     H34633   9.476   4.783  -0.061 -1.0034  2.2486 -0.3931
  251MOL0     H34634   9.106   4.970  -0.000 -0.0431 -0.1539 -1.4364
  251MOL0     H34635   9.231   4.730   0.476 -1.3746  1.1389 -2.1263
  251MOL0     H34636   9.033   4.951   0.666  1.5257 -1.1145  0.8069
  251MOL0     H34637   9.038   5.022   0.500 -0.9539 -1.7685  0.0026
  251MOL0     H34638   9.006   4.851   0.520 -2.6285  0.5160 -0.4571
  252MOL0     O34639   4.365   1.570   1.620  0.0236 -0.3761  0.5985
  252MOL0     C34640   4.452   1.568   1.709  0.6301 -0.2501 -0.1880
  252MOL0     O34641   4.418   1.584   1.846 -0.2436 -0.0241 -0.3000
  252MOL0     C34642   4.303   1.624   1.902  0.6328  0.8681 -0.2335
  252MOL0     C34643   4.295   1.727   1.987  0.2291 -0.0825 -0.5973
  252MOL0     C34644   4.176   1.772   2.042  0.9492 -0.1711 -0.2027
  252MOL0     C34645   4.053   1.724   1.987 -0.3792 -0.3736 -0.3833
  252MOL0     O34646   3.923   1.764   2.015  0.2349 -0.2367  1.0080
  252MOL0     C34647   3.890   1.896   2.048  0.6981 -0.3070  0.2983
  252MOL0     C34648   3.740   1.918   2.083  0.2091  0.5520  0.3275
  252MOL0     C34649   3.677   2.052   2.051 -1.2048 -0.6664  0.0809
  252MOL0     C34650   3.530   2.059   2.095  0.3850  0.6842  0.1954
  252MOL0     C34651   3.468   2.178   2.034 -0.7417  0.0674 -0.2207
  252MOL0     C34652   3.325   2.196   2.079 -0.4336  1.1583  0.4421
  252MOL0     C34653   3.239   2.293   2.004 -0.1218  0.7539  1.8563
  252MOL0     C34654   3.093   2.306   2.052  0.4602 -0.6536 -0.3141
  252MOL0     N34655   3.026   2.413   1.972 -1.1184  0.3028  0.2914
  252MOL0     C34656   2.937   2.504   2.022 -0.0365 -0.4394  0.0695
  252MOL0     C34657   2.865   2.552   1.920  0.7977  0.3892 -0.1927
  252MOL0     C34658   2.753   2.651   1.923 -0.4566 -1.3621  0.7929
  252MOL0     C34659   2.750   2.729   1.793  0.6568 -0.1191  0.2935
  252MOL0     C34660   2.657   2.856   1.785 -0.0147  0.6838 -0.4550
  252MOL0     C34661   2.517   2.829   1.856 -0.0771 -0.1492 -0.2270
  252MOL0     O34662   2.413   2.916   1.804  0.4850 -0.0920  0.4652
  252MOL0     C34663   2.298   2.924   1.884  0.2921 -0.7305  0.2124
  252MOL0     C34664   2.264   2.837   1.997  0.3815 -0.4600  0.1734
  252MOL0     C34665   2.137   2.846   2.059 -0.2048 -0.8416 -0.3346
  252MOL0     C34666   2.102   2.745   2.158  0.2177  0.1938 -0.5553
  252MOL0     C34667   2.048   2.946   2.021  0.7455  0.5776 -0.0392
  252MOL0     C34668   1.913   2.977   2.091 -0.2931 -1.1466  0.0669
  252MOL0     O34669   1.917   2.961   2.227  0.6903  0.1529 -0.1918
  252MOL0     C34670   1.824   2.999   2.321 -0.2914  0.0138  0.7049
  252MOL0     C34671   1.681   3.004   2.293  0.1067 -0.8926 -0.2968
  252MOL0     C34672   1.587   3.030   2.398 -0.2257 -0.4048 -0.0518
  252MOL0     C34673   1.636   3.043   2.532 -0.3624  0.1149  0.8474
  252MOL0     O34674   1.561   3.061   2.641  0.3309  0.2557  0.2905
  252MOL0     C34675   1.422   3.023   2.646 -0.1702 -1.3398  0.2439
  252MOL0     C34676   1.397   2.871   2.636 -0.6979  1.3468  0.1698
  252MOL0     C34677   1.261   2.848   2.686  0.3672  0.5613 -0.8629
  252MOL0     C34678   1.175   2.718   2.668  0.2124  0.1386 -0.5646
  252MOL0     C34679   1.256   2.590   2.709 -0.0497  0.3600  0.0772
  252MOL0     C34680   1.170   2.470   2.671 -0.0703 -0.4076  1.3469
  252MOL0     C34681   1.239   2.341   2.700 -0.1495 -1.0508 -0.2253
  252MOL0     C34682   1.161   2.216   2.672  0.1512  0.4675  1.0683
  252MOL0    Cl34683   1.095   2.220   2.499  0.6912 -0.2399 -0.4985
  252MOL0     C34684   1.777   3.013   2.554  0.2298  0.0873  0.7420
  252MOL0     C34685   1.871   3.006   2.453 -0.0198 -0.3118 -0.6793
  252MOL0     O34686   1.824   3.026   2.027  0.5400  0.0205  0.4207
  252MOL0     C34687   2.077   3.026   1.909 -0.0601  0.0866  0.5600
  252MOL0     C34688   2.195   3.012   1.831 -0.4375  0.5360 -0.5374
  252MOL0     N34689   2.918   2.490   1.811  0.9080  0.0289  0.9188
  252MOL0     N34690   3.008   2.407   1.838  0.3998 -0.1972 -0.0436
  252MOL0     C34691   4.057   1.613   1.899  0.0056 -0.3947  0.1493
  252MOL0     C34692   4.181   1.568   1.848  0.3652  0.2960 -1.0951
  252MOL0     C34693   4.593   1.560   1.665  0.5227  0.9716 -1.3380
  252MOL0     C34694   4.676   1.552   1.771 -0.5216  0.5098 -0.0762
  252MOL0     C34695   4.815   1.566   1.754 -0.6968  0.6640  0.3141
  252MOL0     C34696   4.876   1.569   1.630 -0.7373 -0.3405  0.0231
  252MOL0     O34697   5.016   1.585   1.620 -0.3953 -0.0155 -0.1907
  252MOL0     C34698   5.080   1.613   1.496 -0.3391  0.9871  0.1923
  252MOL0     C34699   5.066   1.744   1.451  0.2461 -0.3733  1.4803
  252MOL0     C34700   5.157   1.759   1.328  0.1490  0.4746  0.3973
  252MOL0     C34701   5.093   1.872   1.249 -0.2944 -0.2359  0.1420
  252MOL0     C34702   5.191   1.949   1.166 -1.0865  1.6280 -0.2865
  252MOL0     C34703   5.289   1.997   1.102  0.8403 -0.5181 -0.0887
  252MOL0     C34704   4.784   1.556   1.524 -0.1548  0.5838 -0.1011
  252MOL0     C34705   4.641   1.545   1.536 -0.1816  0.8157  0.3253
  252MOL0     C34706   4.557   1.544   1.410 -0.0466 -0.0762 -0.4444
  252MOL0     H34707   4.388   1.770   2.022 -0.4670 -0.2298  1.5656
  252MOL0     H34708   4.178   1.864   2.099  0.5466  0.9931 -1.9677
  252MOL0     H34709   3.910   1.949   1.954 -2.5063 -2.6484 -1.9277
  252MOL0     H34710   3.958   1.934   2.125  0.6053 -0.4807  0.4659
  252MOL0     H34711   3.675   1.840   2.041  0.3639  0.5165  0.1532
  252MOL0     H34712   3.737   1.898   2.190  1.7231 -0.0411  0.2781
  252MOL0     H34713   3.742   2.114   2.114  1.0601 -1.4079 -1.4140
  252MOL0     H34714   3.689   2.079   1.946  0.8373  3.8017  1.2055
  252MOL0     H34715   3.477   1.971   2.059  1.0035 -1.1524  3.3923
  252MOL0     H34716   3.518   2.073   2.203  0.6514  0.5885  0.2374
  252MOL0     H34717   3.475   2.152   1.928  0.8814 -0.9457  0.1090
  252MOL0     H34718   3.522   2.271   2.053 -0.4518 -0.1322 -0.0564
  252MOL0     H34719   3.276   2.099   2.065  0.4897  0.3260  2.5655
  252MOL0     H34720   3.325   2.227   2.184 -1.5688  3.9248 -0.3005
  252MOL0     H34721   3.225   2.251   1.903 -1.0366  0.4814  2.0849
  252MOL0     H34722   3.292   2.388   1.994 -1.1110  1.1473 -0.4176
  252MOL0     H34723   3.061   2.203   2.034 -2.6821  0.2928 -0.7684
  252MOL0     H34724   3.088   2.327   2.159 -3.1293 -0.2143 -0.4612
  252MOL0     H34725   2.926   2.531   2.126 -2.3104 -1.3837  0.1355
  252MOL0     H34726   2.776   2.727   1.999 -0.2530 -2.3210  1.7026
  252MOL0     H34727   2.656   2.605   1.938 -0.5308 -1.8757 -1.0813
  252MOL0     H34728   2.851   2.762   1.766  1.0890 -0.1666  1.8115
  252MOL0     H34729   2.713   2.661   1.715 -0.7675  0.5710  0.3514
  252MOL0     H34730   2.717   2.934   1.832 -0.8723  0.1155  1.7352
  252MOL0     H34731   2.640   2.879   1.680  3.3940  4.4175 -0.4389
  252MOL0     H34732   2.481   2.731   1.822  0.8517 -0.1846 -1.1563
  252MOL0     H34733   2.529   2.831   1.965  0.6432  3.2017 -0.2680
  252MOL0     H34734   2.321   2.753   2.036 -0.8181 -0.1091  2.9651
  252MOL0     H34735   2.013   2.688   2.129 -1.2011  0.6247  2.5403
  252MOL0     H34736   2.074   2.787   2.255 -0.7149  1.6900 -1.4187
  252MOL0     H34737   2.179   2.668   2.168 -1.3868 -2.2842 -4.8480
  252MOL0     H34738   1.653   2.985   2.190  3.0453 -0.0908 -1.3581
  252MOL0     H34739   1.481   3.038   2.376 -0.6419  1.9678  2.3133
  252MOL0     H34740   1.391   3.051   2.748  3.3765 -0.2099  1.1653
  252MOL0     H34741   1.361   3.074   2.572 -0.4452 -1.8193  0.1410
  252MOL0     H34742   1.412   2.833   2.535  0.5063 -0.9123  1.1283
  252MOL0     H34743   1.463   2.817   2.704  0.3164  2.0992 -0.1885
  252MOL0     H34744   1.197   2.926   2.643  0.8010  3.4657  3.2029
  252MOL0     H34745   1.252   2.860   2.794 -0.6945 -1.9872 -0.5956
  252MOL0     H34746   1.142   2.712   2.565 -3.0101 -1.9827  0.4624
  252MOL0     H34747   1.088   2.727   2.733  0.7333  1.3779  0.0010
  252MOL0     H34748   1.357   2.576   2.672 -0.1190 -0.5385  0.2147
  252MOL0     H34749   1.258   2.609   2.817  0.1953  3.1350 -0.3319
  252MOL0     H34750   1.147   2.474   2.565 -2.7515  2.5217  1.9176
  252MOL0     H34751   1.076   2.486   2.724 -1.3610 -2.3788 -0.2177
  252MOL0     H34752   1.281   2.341   2.801  0.7668 -1.7380 -0.5962
  252MOL0     H34753   1.329   2.348   2.639 -0.7132  2.1571 -0.8202
  252MOL0     H34754   1.080   2.211   2.745 -0.4682 -1.7771  0.3174
  252MOL0     H34755   1.223   2.128   2.691 -2.9192 -2.2190 -0.4386
  252MOL0     H34756   1.815   3.018   2.655  1.3534  0.5966  0.3070
  252MOL0     H34757   1.972   2.978   2.480 -0.2666 -2.1448 -1.4915
  252MOL0     H34758   2.001   3.096   1.876  0.1142 -0.9533 -2.3186
  252MOL0     H34759   2.208   3.090   1.757 -2.0229  2.9530  1.5749
  252MOL0     H34760   3.966   1.582   1.849 -0.0914 -1.2129  0.8098
  252MOL0     H34761   4.180   1.480   1.784 -3.0393 -2.9747  2.8797
  252MOL0     H34762   4.639   1.526   1.870 -2.3128  1.0625 -0.5669
  252MOL0     H34763   4.883   1.566   1.838  2.3020 -2.0924 -1.8759
  252MOL0     H34764   5.183   1.578   1.509 -0.0883  0.9760 -1.5810
  252MOL0     H34765   5.040   1.545   1.420  1.4296 -0.6332  0.6335
  252MOL0     H34766   5.099   1.809   1.533  0.9129  1.2847 -0.0590
  252MOL0     H34767   4.963   1.766   1.422  0.8375 -0.3024 -0.7111
  252MOL0     H34768   5.256   1.792   1.360 -1.2903  6.1005  0.2521
  252MOL0     H34769   5.174   1.665   1.275 -2.5138 -1.5468  2.8224
  252MOL0     H34770   5.048   1.941   1.320  0.5374 -1.3724  1.8299
  252MOL0     H34771   5.016   1.831   1.183 -1.0685 -1.4136  1.7031
  252MOL0     H34772   5.367   2.039   1.041  0.3572  2.1341  0.9989
  252MOL0     H34773   4.828   1.545   1.426  1.2295  1.1519  0.4176
  252MOL0     H34774   4.508   1.642   1.415 -1.2804 -0.7269  0.9861
  252MOL0     H34775   4.616   1.553   1.318  0.6747  0.0423  0.0267
  252MOL0     H34776   4.469   1.480   1.398 -1.7598  2.1207 -0.3630
  253MOL0     O34777   5.125   9.067   5.812  0.0856 -0.3140 -0.3844
  253MOL0     C34778   5.014   9.088   5.867  1.3044  0.1260 -0.0362
  253MOL0     O34779   4.997   9.127   5.993  1.1097 -0.0273 -0.2282
  253MOL0     C34780   5.095   9.190   6.057 -0.5705 -1.1008 -0.5835
  253MOL0     C34781   5.206   9.119   6.111 -0.6526  0.2056 -0.2682
  253MOL0     C34782   5.295   9.176   6.199 -0.0604  0.6131  1.0755
  253MOL0     C34783   5.263   9.296   6.252  0.2104 -0.9690 -1.2633
  253MOL0     O34784   5.337   9.352   6.360 -0.5142 -0.7398 -0.1171
  253MOL0     C34785   5.445   9.283   6.421  0.1986  0.5246  0.6208
  253MOL0     C34786   5.381   9.219   6.543  0.3614  0.0121  0.3017
  253MOL0     C34787   5.477   9.156   6.645 -0.4335  0.3453 -0.2212
  253MOL0     C34788   5.419   9.159   6.780  0.7749  0.1953 -0.5822
  253MOL0     C34789   5.469   9.277   6.869 -0.6050 -0.7508  0.2682
  253MOL0     C34790   5.594   9.241   6.954 -0.5604  0.0629  0.0395
  253MOL0     C34791   5.643   9.346   7.056  0.2061 -0.2532  0.2785
  253MOL0     C34792   5.775   9.303   7.112  0.0861 -0.2606  0.1651
  253MOL0     N34793   5.786   9.166   7.166 -0.0461 -0.8559 -0.3739
  253MOL0     C34794   5.875   9.057   7.133 -0.0581 -0.0892  0.1076
  253MOL0     C34795   5.841   8.964   7.221  0.2886  0.5265 -0.5420
  253MOL0     C34796   5.909   8.830   7.229  0.5883  1.0726  0.0512
  253MOL0     C34797   6.057   8.842   7.256  1.0437  0.9928 -1.1720
  253MOL0     C34798   6.090   8.843   7.411  0.3782  0.8684 -0.3815
  253MOL0     C34799   6.058   8.723   7.494  0.2765 -0.5521 -0.1157
  253MOL0     O34800   5.910   8.721   7.518  0.6029 -0.2021  0.7824
  253MOL0     C34801   5.865   8.825   7.601 -0.7001  0.8328 -0.3793
  253MOL0     C34802   5.738   8.863   7.587  0.0773 -0.7715  0.4275
  253MOL0     C34803   5.666   8.956   7.671 -0.4705  0.1838  0.1369
  253MOL0     C34804   5.531   9.010   7.625 -0.8817 -1.3193 -0.0055
  253MOL0     C34805   5.734   9.002   7.790  0.1816  1.2187 -1.1591
  253MOL0     C34806   5.683   9.107   7.881  0.4240  0.7020  0.1274
  253MOL0     O34807   5.773   9.161   7.973  0.0060  0.2946  0.5559
  253MOL0     C34808   5.759   9.291   8.020 -0.3858 -0.2366  1.0743
  253MOL0     C34809   5.865   9.335   8.099  1.2302 -0.3349 -0.9039
  253MOL0     C34810   5.857   9.462   8.151  0.4961  0.6134  0.1378
  253MOL0     C34811   5.762   9.560   8.101  1.0732 -1.1511  0.4420
  253MOL0     O34812   5.750   9.683   8.169 -0.6051  0.5331  0.3219
  253MOL0     C34813   5.776   9.798   8.090  0.5521 -0.5236  0.0418
  253MOL0     C34814   5.872   9.907   8.155  0.1485 -0.0722  0.3848
  253MOL0     C34815   5.881   9.891   8.302  0.2315  0.2861 -0.8480
  253MOL0     C34816   5.942  10.016   8.370  0.3372  0.1861  0.3379
  253MOL0     C34817   5.969  10.018   8.521  0.5972 -0.6341  0.1902
  253MOL0     C34818   5.837   9.988   8.585 -0.1787  0.7370  0.0218
  253MOL0     C34819   5.843  10.009   8.737  0.8482  0.3968 -0.0268
  253MOL0     C34820   5.701  10.006   8.800  0.5378 -0.2242 -0.3681
  253MOL0    Cl34821   5.711  10.058   8.966  0.1355 -0.6948  0.0203
  253MOL0     C34822   5.661   9.521   8.015 -0.1427  0.2323  0.0784
  253MOL0     C34823   5.667   9.391   7.973  1.0874 -0.6722 -0.9352
  253MOL0     O34824   5.565   9.126   7.882 -0.4604 -0.3350 -0.4701
  253MOL0     C34825   5.862   8.944   7.806  0.3651 -0.2078  0.6899
  253MOL0     C34826   5.922   8.861   7.717 -0.0970  0.4393 -0.1596
  253MOL0     N34827   5.733   9.004   7.294  0.8925 -0.0822  0.1369
  253MOL0     N34828   5.706   9.127   7.263 -0.5059  0.1482 -0.3170
  253MOL0     C34829   5.153   9.370   6.198 -0.1684 -0.3854 -0.4798
  253MOL0     C34830   5.075   9.316   6.092 -0.6643  0.0149 -0.3293
  253MOL0     C34831   4.894   9.055   5.781 -0.0095  0.0522  0.2531
  253MOL0     C34832   4.772   9.053   5.844  0.6786 -0.1018  0.4977
  253MOL0     C34833   4.665   9.007   5.768  0.1769  0.1830 -0.3209
  253MOL0     C34834   4.679   8.940   5.642  0.7228 -0.1046 -0.2570
  253MOL0     O34835   4.588   8.867   5.574 -0.0275  0.3618  0.3246
  253MOL0     C34836   4.458   8.827   5.640 -1.0330  0.0198 -0.3277
  253MOL0     C34837   4.410   8.696   5.601 -0.2321 -0.5910 -0.3700
  253MOL0     C34838   4.294   8.666   5.684  0.5235  1.1613  0.4475
  253MOL0     C34839   4.264   8.518   5.651 -0.3434 -0.7416  0.3227
  253MOL0     C34840   4.180   8.467   5.764  0.5901  0.3161 -0.1634
  253MOL0     C34841   4.119   8.429   5.864 -1.0180 -0.2610 -0.8878
  253MOL0     C34842   4.797   8.944   5.581 -0.2325 -1.2853  0.9406
  253MOL0     C34843   4.904   8.999   5.643 -0.1358 -0.6839 -0.4118
  253MOL0     C34844   5.033   8.998   5.562 -0.0254 -0.5598 -0.1268
  253MOL0     H34845   5.219   9.013   6.090  0.1078 -0.0423  1.3466
  253MOL0     H34846   5.372   9.106   6.232  0.3609  0.2189 -0.6510
  253MOL0     H34847   5.528   9.350   6.442 -0.0215  1.0478 -0.1088
  253MOL0     H34848   5.493   9.213   6.351 -0.0969  1.9242 -1.0505
  253MOL0     H34849   5.310   9.281   6.600  0.1184  0.6738 -0.6922
  253MOL0     H34850   5.310   9.149   6.499 -1.8183  2.6470 -0.6951
  253MOL0     H34851   5.485   9.050   6.619  2.2086  0.7201 -1.2545
  253MOL0     H34852   5.580   9.192   6.646 -0.6057  0.8847 -1.2119
  253MOL0     H34853   5.310   9.159   6.770  0.7502 -0.9032 -0.5061
  253MOL0     H34854   5.458   9.067   6.826  3.3505  0.3815 -2.2045
  253MOL0     H34855   5.389   9.298   6.941  0.2193 -2.1434  1.6381
  253MOL0     H34856   5.492   9.359   6.801 -1.7491 -0.5703  0.0734
  253MOL0     H34857   5.591   9.146   7.008  0.5590  0.0538  0.1148
  253MOL0     H34858   5.668   9.226   6.876  0.1272 -0.5419  0.7944
  253MOL0     H34859   5.576   9.370   7.140  1.2566  0.7048  0.8817
  253MOL0     H34860   5.649   9.442   7.003 -2.9358  2.2561  3.8377
  253MOL0     H34861   5.853   9.328   7.040  0.5613  3.3990  1.7532
  253MOL0     H34862   5.803   9.363   7.199 -1.1954 -0.1766  0.5411
  253MOL0     H34863   5.955   9.041   7.061  1.2751 -3.7506  2.1439
  253MOL0     H34864   5.902   8.783   7.131  2.8192 -0.6292  0.6307
  253MOL0     H34865   5.864   8.770   7.309  1.1259  0.9083  0.2393
  253MOL0     H34866   6.102   8.750   7.217  1.3064  0.5632  0.1047
  253MOL0     H34867   6.095   8.933   7.208 -1.3028  1.5983 -2.0182
  253MOL0     H34868   6.198   8.859   7.414  0.3150  1.2304 -0.0339
  253MOL0     H34869   6.051   8.933   7.460  1.5217  0.8256  0.6422
  253MOL0     H34870   6.091   8.636   7.436 -1.0930  0.9518 -3.4338
  253MOL0     H34871   6.130   8.725   7.576  3.1814  0.5271 -2.5084
  253MOL0     H34872   5.675   8.823   7.509 -0.0171  0.3089 -0.0712
  253MOL0     H34873   5.449   8.983   7.693 -0.1468  2.0454  2.4940
  253MOL0     H34874   5.502   8.962   7.531  1.2685 -3.1027  0.1647
  253MOL0     H34875   5.532   9.119   7.620  2.7265 -1.1378  1.5851
  253MOL0     H34876   5.934   9.269   8.150 -0.1417 -2.3346 -1.5292
  253MOL0     H34877   5.921   9.491   8.234 -0.8658 -1.3303  1.9655
  253MOL0     H34878   5.818   9.766   7.995  0.5679  0.5444 -0.3265
  253MOL0     H34879   5.685   9.854   8.067  2.9145  1.7783 -5.4015
  253MOL0     H34880   5.969   9.904   8.104  0.1240  5.7540 -0.7718
  253MOL0     H34881   5.836  10.009   8.137  1.6936  0.7688  1.7567
  253MOL0     H34882   5.953   9.811   8.323  1.6329  1.8491  0.7276
  253MOL0     H34883   5.786   9.867   8.350  0.2295  2.7854  0.6104
  253MOL0     H34884   5.872  10.098   8.354  1.1067  1.6846  3.6589
  253MOL0     H34885   6.033  10.055   8.323 -0.3581  1.2428 -0.1596
  253MOL0     H34886   6.051   9.952   8.552  0.6754  0.1629  1.7920
  253MOL0     H34887   5.994  10.123   8.541  1.0719 -0.4300 -1.3019
  253MOL0     H34888   5.803   9.887   8.561  1.3362  0.4944 -1.2622
  253MOL0     H34889   5.755  10.046   8.541  0.2734 -0.2040 -2.1959
  253MOL0     H34890   5.893  10.103   8.762  2.0005  0.6090 -2.7414
  253MOL0     H34891   5.896   9.925   8.784  2.2442  1.1633 -0.1770
  253MOL0     H34892   5.652   9.908   8.805 -3.2595  1.3336 -2.3485
  253MOL0     H34893   5.635  10.068   8.738  1.3129 -1.6409 -2.7386
  253MOL0     H34894   5.567   9.572   8.001 -0.1568  0.4619  0.9596
  253MOL0     H34895   5.589   9.370   7.899 -0.8388 -0.2862  0.8901
  253MOL0     H34896   5.920   8.966   7.895  1.3706  0.6622 -0.1535
  253MOL0     H34897   6.029   8.848   7.730 -0.0552  1.6154  0.9431
  253MOL0     H34898   5.131   9.472   6.229  1.1688  0.6321 -2.6648
  253MOL0     H34899   4.983   9.367   6.067 -1.8309 -0.4281  2.6576
  253MOL0     H34900   4.763   9.075   5.950 -2.7533  0.4053  0.2319
  253MOL0     H34901   4.577   8.988   5.828  1.2550 -1.9654  0.7199
  253MOL0     H34902   4.463   8.827   5.749  0.3240  1.9585 -0.3405
  253MOL0     H34903   4.376   8.896   5.621 -2.4411 -1.2384  0.9272
  253MOL0     H34904   4.493   8.630   5.630 -0.0885 -0.3112 -0.1359
  253MOL0     H34905   4.392   8.696   5.493 -1.8831  0.6090 -0.1297
  253MOL0     H34906   4.340   8.658   5.783  2.3314  2.6027 -0.2085
  253MOL0     H34907   4.209   8.734   5.682 -1.1809 -0.7964 -2.5015
  253MOL0     H34908   4.347   8.449   5.637 -0.8438 -1.5190  1.0776
  253MOL0     H34909   4.206   8.513   5.558 -0.3399  1.8017  0.1222
  253MOL0     H34910   4.077   8.393   5.955 -0.3016 -0.5828 -0.6753
  253MOL0     H34911   4.804   8.903   5.480 -0.8225  0.1823  0.2723
  253MOL0     H34912   5.110   8.933   5.603 -0.0739 -0.4415  0.1542
  253MOL0     H34913   5.012   8.965   5.460 -1.2944 -3.7132  1.0314
  253MOL0     H34914   5.078   9.098   5.563  0.9968 -0.8235  4.9464
  254MOL0     O34915   9.605  10.360   9.185  0.2777 -0.2209 -0.3294
  254MOL0     C34916   9.638  10.273   9.116 -0.8558  0.3119  0.2849
  254MOL0     O34917   9.768  10.247   9.085 -0.4938 -0.5311 -0.7195
  254MOL0     C34918   9.861  10.329   9.146  0.0101  0.1876 -0.2772
  254MOL0     C34919   9.885  10.459   9.108 -0.4650 -0.8388 -0.2606
  254MOL0     C34920   9.981  10.530   9.176  0.2026 -0.4596  0.7409
  254MOL0     C34921  10.064  10.476   9.275  0.7005  0.0280 -1.1066
  254MOL0     O34922  10.163  10.550   9.339 -0.0922 -0.2900 -0.2442
  254MOL0     C34923  10.215  10.671   9.289 -1.4026 -0.5836  0.6587
  254MOL0     C34924  10.314  10.734   9.390  0.1173 -0.2576  0.4725
  254MOL0     C34925  10.430  10.634   9.424  0.1539 -1.8320 -0.2254
  254MOL0     C34926  10.547  10.714   9.500 -0.2656 -0.0436  0.3095
  254MOL0     C34927  10.515  10.739   9.649 -0.2046 -0.3975  0.3402
  254MOL0     C34928  10.632  10.801   9.725 -0.0802  0.4781 -0.5075
  254MOL0     C34929  10.766  10.733   9.724  0.8392 -0.0653 -0.2666
  254MOL0     C34930  10.747  10.600   9.811  0.3350 -0.0786  0.4483
  254MOL0     N34931  10.872  10.553   9.882 -1.0794  0.6988 -0.6862
  254MOL0     C34932  10.909  10.601  10.003  0.0738 -0.3732 -0.1066
  254MOL0     C34933  11.034  10.567  10.019  0.5472  0.7574  0.2263
  254MOL0     C34934  11.110  10.592  10.145  0.2377  1.0453  0.0373
  254MOL0     C34935  11.070  10.736  10.202  0.2636 -0.2736 -0.6025
  254MOL0     C34936  11.115  10.857  10.110  0.3455 -0.7122 -0.7980
  254MOL0     C34937  11.081  10.995  10.168  0.3830  0.4637  0.0562
  254MOL0     O34938  10.937  11.013  10.175 -0.2190  0.0175  0.6309
  254MOL0     C34939  10.893  11.115  10.101 -0.0320  0.1866  0.3543
  254MOL0     C34940  10.959  11.243  10.103 -0.3237 -0.8542 -0.6896
  254MOL0     C34941  10.921  11.347  10.016  0.8135 -0.0322 -0.3837
  254MOL0     C34942  11.014  11.462  10.019 -0.8547  0.7126  0.1412
  254MOL0     C34943  10.805  11.332   9.933  0.3523 -0.5123  0.0560
  254MOL0     C34944  10.750  11.442   9.848 -1.0314  0.4366 -0.0448
  254MOL0     O34945  10.645  11.399   9.772 -0.1181  0.4873  0.5370
  254MOL0     C34946  10.542  11.494   9.764  0.0337 -0.1507 -0.0760
  254MOL0     C34947  10.508  11.563   9.651 -0.6980  0.1504 -0.4936
  254MOL0     C34948  10.383  11.635   9.649 -0.4166 -0.5738 -0.7928
  254MOL0     C34949  10.303  11.647   9.767  0.1145  0.2442 -0.3250
  254MOL0     O34950  10.195  11.717   9.778 -0.2057 -0.1278 -0.4751
  254MOL0     C34951  10.078  11.663   9.719 -0.2791 -0.3540  0.4152
  254MOL0     C34952   9.951  11.747   9.762  0.1917  0.1004  0.5832
  254MOL0     C34953   9.815  11.691   9.702 -0.6502  0.1461  0.0838
  254MOL0     C34954   9.769  11.744   9.568 -0.9771 -0.6314 -1.2285
  254MOL0     C34955   9.632  11.710   9.517  0.3241  0.2879  0.6952
  254MOL0     C34956   9.584  11.761   9.378  0.1175 -0.6658  0.9402
  254MOL0     C34957   9.474  11.669   9.327  1.0278  0.2232  0.5316
  254MOL0     C34958   9.422  11.707   9.192  0.1145 -0.1385 -0.1713
  254MOL0    Cl34959   9.336  11.869   9.194  0.2349  0.0918  0.2380
  254MOL0     C34960  10.336  11.576   9.884 -0.2567  0.6148  0.2718
  254MOL0     C34961  10.453  11.494   9.870  0.4230 -0.6896  0.0249
  254MOL0     O34962  10.769  11.566   9.872 -0.3356  1.5225 -0.2632
  254MOL0     C34963  10.745  11.204   9.938  0.4033  0.1117 -0.2464
  254MOL0     C34964  10.789  11.097  10.014  0.2518  0.0262  1.2909
  254MOL0     N34965  11.082  10.494   9.912 -0.2368  0.3585  0.0415
  254MOL0     N34966  10.982  10.486   9.832  0.0382 -0.0972  0.0611
  254MOL0     C34967  10.034  10.349   9.312 -0.0615 -0.2221 -0.3544
  254MOL0     C34968   9.933  10.272   9.251 -1.1542  0.5453 -0.2978
  254MOL0     C34969   9.533  10.168   9.091  0.6993 -0.0415 -0.8116
  254MOL0     C34970   9.438  10.149   9.192  0.0014 -0.8202 -0.0660
  254MOL0     C34971   9.332  10.052   9.177  0.3349  0.2088 -0.5056
  254MOL0     C34972   9.326   9.974   9.064  0.1314  0.0223  0.2591
  254MOL0     O34973   9.240   9.869   9.071  0.6198 -0.1618 -0.3841
  254MOL0     C34974   9.132   9.860   8.978  0.7160 -0.2641 -1.0692
  254MOL0     C34975   9.173   9.743   8.886 -0.6954  0.0121 -0.8301
  254MOL0     C34976   9.073   9.655   8.816  0.1780 -0.4574  1.0415
  254MOL0     C34977   8.980   9.721   8.708 -0.2184  0.1304 -0.4985
  254MOL0     C34978   8.911   9.602   8.639 -0.5660  0.1899 -0.4687
  254MOL0     C34979   8.854   9.494   8.611  0.5368 -0.6177 -0.0382
  254MOL0     C34980   9.415   9.995   8.959 -0.8379 -0.5233  0.1713
  254MOL0     C34981   9.512  10.095   8.972 -0.5266  1.0908  0.7739
  254MOL0     C34982   9.602  10.095   8.854 -0.1687  0.1634 -0.5317
  254MOL0     H34983   9.842  10.497   9.016  1.5805  0.1968 -0.8648
  254MOL0     H34984   9.997  10.631   9.140  0.2906 -1.3127 -1.8024
  254MOL0     H34985  10.145  10.745   9.249  0.1823  0.6017 -0.0348
  254MOL0     H34986  10.261  10.660   9.190 -2.1058  1.3920  0.0522
  254MOL0     H34987  10.347  10.826   9.340  0.2979 -0.3000  0.5120
  254MOL0     H34988  10.254  10.756   9.478  0.9814 -2.4940  1.6976
  254MOL0     H34989  10.391  10.554   9.488  2.4949 -1.9227  1.2251
  254MOL0     H34990  10.471  10.571   9.344 -1.6054 -4.1126  0.5353
  254MOL0     H34991  10.640  10.657   9.499  0.8028  1.6556 -0.4107
  254MOL0     H34992  10.573  10.816   9.472 -2.0378  1.4585  3.5195
  254MOL0     H34993  10.494  10.645   9.701  1.7285  0.0238  2.0420
  254MOL0     H34994  10.433  10.810   9.665  1.5815  1.4973  1.6900
  254MOL0     H34995  10.637  10.907   9.699 -1.6960  0.4425 -1.0762
  254MOL0     H34996  10.592  10.810   9.827  1.5639 -1.9581  0.4444
  254MOL0     H34997  10.837  10.793   9.782 -2.1747  2.4038  1.1923
  254MOL0     H34998  10.796  10.713   9.621 -0.0920 -1.4193 -0.2881
  254MOL0     H34999  10.684  10.618   9.898  2.7964  3.6256  1.6874
  254MOL0     H35000  10.713  10.526   9.738  1.2315 -1.5315  1.4568
  254MOL0     H35001  10.839  10.650  10.071  1.4280 -2.7266  3.2588
  254MOL0     H35002  11.216  10.589  10.121 -0.5019 -2.8186 -4.0220
  254MOL0     H35003  11.085  10.513  10.217  2.8539 -2.4937 -2.6229
  254MOL0     H35004  10.963  10.742  10.224  0.0029 -2.4117 -1.0084
  254MOL0     H35005  11.130  10.744  10.293 -1.2848  0.0781  0.4137
  254MOL0     H35006  11.223  10.852  10.095  0.2933  0.8687 -2.0093
  254MOL0     H35007  11.070  10.857  10.010  1.4599  1.0483 -1.3549
  254MOL0     H35008  11.122  11.001  10.269 -2.4294  0.4445  1.2948
  254MOL0     H35009  11.136  11.063  10.101  0.0122 -0.4645 -1.2380
  254MOL0     H35010  11.036  11.259  10.178 -0.5483 -0.7517 -0.4838
  254MOL0     H35011  11.038  11.508   9.923  1.4847 -1.8402 -0.6426
  254MOL0     H35012  11.113  11.433  10.055  0.0364  1.5762 -1.5049
  254MOL0     H35013  10.979  11.545  10.081 -1.7656  0.6468 -0.2731
  254MOL0     H35014  10.575  11.569   9.566  0.3863 -0.1514  0.3228
  254MOL0     H35015  10.362  11.675   9.550  1.0435 -0.6084 -1.1341
  254MOL0     H35016  10.091  11.685   9.613  0.0380  2.4041  0.9406
  254MOL0     H35017  10.062  11.558   9.744  4.3034 -1.4506 -0.2927
  254MOL0     H35018   9.949  11.757   9.871  0.8649 -1.0808  0.7250
  254MOL0     H35019   9.956  11.853   9.735  0.9870  0.1453  0.8760
  254MOL0     H35020   9.749  11.722   9.784 -0.0455 -0.2881  0.7465
  254MOL0     H35021   9.827  11.583   9.707 -2.8529 -0.0772  2.4156
  254MOL0     H35022   9.856  11.723   9.506 -1.2389 -1.5008 -1.3090
  254MOL0     H35023   9.778  11.853   9.570  0.7174 -0.7428 -1.3109
  254MOL0     H35024   9.629  11.601   9.506 -0.7258  0.5976 -4.3604
  254MOL0     H35025   9.561  11.735   9.596 -1.5426  0.9189 -1.0968
  254MOL0     H35026   9.666  11.745   9.307 -1.8347 -1.3150 -1.2954
  254MOL0     H35027   9.564  11.868   9.386  0.2037 -0.5021 -0.6484
  254MOL0     H35028   9.394  11.668   9.402  2.3382  3.3632  2.1850
  254MOL0     H35029   9.518  11.569   9.325 -0.4485 -0.4379  0.0685
  254MOL0     H35030   9.354  11.625   9.167 -0.0390  0.0287 -0.3095
  254MOL0     H35031   9.512  11.717   9.130  1.9052  0.6844  2.3906
  254MOL0     H35032  10.280  11.581   9.977 -3.2561  4.5068 -1.4667
  254MOL0     H35033  10.463  11.433   9.960 -5.1396 -4.4978 -1.4313
  254MOL0     H35034  10.653  11.182   9.885  0.6757  2.1162 -1.6458
  254MOL0     H35035  10.741  11.000  10.007  0.0280  0.2068  0.1691
  254MOL0     H35036  10.083  10.316   9.403 -3.7277 -0.5545  1.6927
  254MOL0     H35037   9.910  10.173   9.287 -1.1771  1.4201  2.2806
  254MOL0     H35038   9.450  10.189   9.293 -1.5650  1.3401 -0.6627
  254MOL0     H35039   9.274  10.026   9.265  2.5521 -1.6820  0.4917
  254MOL0     H35040   9.040   9.841   9.035  2.2889 -2.7444  0.8360
  254MOL0     H35041   9.134   9.947   8.912  6.4242 -0.6448 -1.9337
  254MOL0     H35042   9.238   9.678   8.946 -3.4257  0.0965  2.6234
  254MOL0     H35043   9.230   9.794   8.809  0.3203 -1.2899 -0.9739
  254MOL0     H35044   9.134   9.575   8.773  2.2762  0.9294  1.2521
  254MOL0     H35045   9.011   9.607   8.891 -0.5214  0.0040  0.7691
  254MOL0     H35046   9.039   9.766   8.628 -0.4767 -2.4695 -2.3003
  254MOL0     H35047   8.901   9.789   8.741  0.7263  1.9610 -1.8545
  254MOL0     H35048   8.787   9.417   8.580  1.3177 -1.3166 -0.0345
  254MOL0     H35049   9.415   9.924   8.876  2.2256 -0.0229 -0.3871
  254MOL0     H35050   9.540  10.101   8.764 -1.5451 -1.6462  0.2178
  254MOL0     H35051   9.677  10.173   8.868  0.4018 -0.6326  1.1851
  254MOL0     H35052   9.654  10.000   8.844  1.7135  1.1502 -0.4598
  255MOL0     O35053   5.020   2.057   7.158  0.5666 -0.3543  0.0587
  255MOL0     C35054   5.066   2.090   7.050 -0.3974 -0.0660  0.7992
  255MOL0     O35055   5.039   2.199   6.977  0.3046  0.0361  0.4834
  255MOL0     C35056   4.955   2.295   7.030  0.1151 -0.4157 -0.5250
  255MOL0     C35057   4.818   2.307   6.996  0.0229 -0.6021 -0.3360
  255MOL0     C35058   4.748   2.412   7.052 -0.0743  0.1774 -0.6935
  255MOL0     C35059   4.813   2.508   7.137 -0.0533 -0.1602 -0.0455
  255MOL0     O35060   4.741   2.614   7.193 -0.4197  0.1218  0.2889
  255MOL0     C35061   4.598   2.633   7.174 -0.5361 -0.6438  1.0368
  255MOL0     C35062   4.545   2.759   7.225  0.8836  0.0755  0.4840
  255MOL0     C35063   4.398   2.751   7.226  1.3534  0.2241  0.8733
  255MOL0     C35064   4.345   2.886   7.271 -0.3916  0.3486  0.3964
  255MOL0     C35065   4.193   2.900   7.268  0.5766  0.6677  0.1688
  255MOL0     C35066   4.154   3.032   7.344 -0.1145  0.0905  0.7121
  255MOL0     C35067   4.129   3.020   7.492  0.4195 -0.3755  0.4786
  255MOL0     C35068   4.012   2.918   7.510  0.2752 -0.6318  0.0775
  255MOL0     N35069   3.944   2.936   7.630  0.5508  0.4549 -0.0461
  255MOL0     C35070   3.978   3.011   7.744 -0.2436 -0.4500  0.9397
  255MOL0     C35071   3.902   2.970   7.842  0.7126 -0.8864 -0.0296
  255MOL0     C35072   3.916   3.019   7.980 -0.5312  0.2169 -0.3697
  255MOL0     C35073   3.790   3.080   8.041 -0.3623 -0.3878 -0.9141
  255MOL0     C35074   3.733   3.206   7.976 -0.2449 -0.1791 -0.3088
  255MOL0     C35075   3.603   3.242   8.036 -0.7668 -0.4054 -0.1400
  255MOL0     O35076   3.528   3.325   7.946  0.7466 -0.8840  0.7167
  255MOL0     C35077   3.416   3.396   7.991 -0.2636 -0.1583 -0.8116
  255MOL0     C35078   3.350   3.488   7.909 -0.0706  0.0284 -0.2136
  255MOL0     C35079   3.243   3.575   7.947  0.2469  0.6111  0.6419
  255MOL0     C35080   3.176   3.671   7.853 -0.0653  0.1425 -0.7569
  255MOL0     C35081   3.206   3.572   8.079  0.5218  0.0793  0.1543
  255MOL0     C35082   3.111   3.666   8.139  0.3048 -0.2330 -0.1377
  255MOL0     O35083   3.031   3.616   8.240  0.5258  0.3259 -0.1284
  255MOL0     C35084   2.921   3.691   8.279 -0.6811  0.1887 -0.6181
  255MOL0     C35085   2.825   3.738   8.185 -0.5834 -0.5330 -0.0833
  255MOL0     C35086   2.706   3.791   8.239  0.0724  0.6883 -0.0259
  255MOL0     C35087   2.690   3.820   8.374 -1.0499 -0.0012  1.3801
  255MOL0     O35088   2.588   3.905   8.414 -0.1276  0.0980 -0.1871
  255MOL0     C35089   2.463   3.843   8.452  0.4699  0.2166  0.1503
  255MOL0     C35090   2.390   3.936   8.553 -0.2189  0.3158 -0.1063
  255MOL0     C35091   2.320   4.042   8.467  0.9983 -0.6381 -0.6379
  255MOL0     C35092   2.269   4.158   8.558 -0.1398 -1.1370 -0.5663
  255MOL0     C35093   2.265   4.287   8.474 -0.0086  0.6175  0.2987
  255MOL0     C35094   2.192   4.399   8.545 -0.0693 -0.0608  1.2605
  255MOL0     C35095   2.155   4.506   8.451 -0.5870 -1.4212  0.0969
  255MOL0     C35096   2.088   4.633   8.521  0.0655 -0.1247 -0.4523
  255MOL0    Cl35097   1.950   4.588   8.634 -0.1145 -0.0776  0.0606
  255MOL0     C35098   2.783   3.773   8.469  0.2730  0.6032 -0.9276
  255MOL0     C35099   2.891   3.699   8.422  0.8276  0.5234 -0.4144
  255MOL0     O35100   3.110   3.787   8.097 -0.5516 -0.0931  0.1225
  255MOL0     C35101   3.261   3.468   8.160  0.0785 -0.3293 -0.8100
  255MOL0     C35102   3.360   3.382   8.116 -1.1161 -0.3271 -0.1065
  255MOL0     N35103   3.803   2.883   7.793  0.4260 -0.5189  0.2766
  255MOL0     N35104   3.833   2.869   7.666 -0.2933  0.3556 -0.2148
  255MOL0     C35105   4.938   2.495   7.176 -0.3348  0.2423 -0.4691
  255MOL0     C35106   5.013   2.391   7.124  1.3986  0.7070 -0.5876
  255MOL0     C35107   5.142   1.973   6.984  0.1618 -1.1175  0.5383
  255MOL0     C35108   5.118   1.943   6.840 -0.2002  0.4173 -0.4769
  255MOL0     C35109   5.161   1.826   6.774  0.4972  0.1795 -0.3035
  255MOL0     C35110   5.241   1.731   6.841  0.2455  0.3614 -0.0930
  255MOL0     O35111   5.281   1.623   6.767 -0.5543  0.4413  0.5134
  255MOL0     C35112   5.385   1.663   6.671  0.0487 -0.2230  0.4527
  255MOL0     C35113   5.326   1.647   6.530  0.4508 -0.5890 -0.6892
  255MOL0     C35114   5.211   1.545   6.506 -0.1949 -0.8056 -0.9238
  255MOL0     C35115   5.257   1.397   6.520 -0.1122 -0.7919  0.1358
  255MOL0     C35116   5.164   1.310   6.449 -0.0007  0.4753  0.2042
  255MOL0     C35117   5.100   1.236   6.381 -0.6347  0.4970  0.6866
  255MOL0     C35118   5.269   1.760   6.974 -0.6264 -0.6869 -0.2090
  255MOL0     C35119   5.226   1.878   7.041  0.5713 -0.1029  0.1080
  255MOL0     C35120   5.289   1.908   7.169  0.6369  1.4170 -0.6252
  255MOL0     H35121   4.776   2.231   6.931 -0.5721  0.3099 -1.0675
  255MOL0     H35122   4.645   2.426   7.020 -1.3386  2.0288  3.4680
  255MOL0     H35123   4.560   2.543   7.223  2.3582 -2.6147 -0.0601
  255MOL0     H35124   4.568   2.610   7.071 -1.0319 -0.2930  1.0994
  255MOL0     H35125   4.584   2.770   7.327 -0.8385 -3.0685  1.6147
  255MOL0     H35126   4.578   2.833   7.152  0.0444 -3.1000 -3.4694
  255MOL0     H35127   4.360   2.720   7.128 -0.7832  2.3329  0.9593
  255MOL0     H35128   4.370   2.676   7.301  1.3735  0.9708  1.6373
  255MOL0     H35129   4.369   2.902   7.376  0.2244  2.4931 -0.0215
  255MOL0     H35130   4.407   2.958   7.217  0.4174 -1.9517 -1.9674
  255MOL0     H35131   4.138   2.819   7.318  0.9822  0.0540 -0.3686
  255MOL0     H35132   4.150   2.893   7.168 -2.8837 -1.3836  1.5910
  255MOL0     H35133   4.231   3.108   7.326  3.0304 -2.7373  1.1335
  255MOL0     H35134   4.063   3.059   7.289  2.3379  4.9778 -1.5477
  255MOL0     H35135   4.093   3.110   7.542 -2.4674 -3.4486  4.6472
  255MOL0     H35136   4.217   2.985   7.547  2.3823  0.2211 -2.0839
  255MOL0     H35137   3.941   2.916   7.426  1.4046 -0.7354 -0.8901
  255MOL0     H35138   4.068   2.824   7.510  1.7588  0.2104  1.7803
  255MOL0     H35139   4.065   3.071   7.769  0.6339 -2.1376  2.0570
  255MOL0     H35140   3.999   3.090   7.969 -0.5585 -0.0235 -2.6218
  255MOL0     H35141   3.958   2.939   8.041  1.4079  1.5719  0.1524
  255MOL0     H35142   3.703   3.014   8.041 -3.4643  3.3259  0.0153
  255MOL0     H35143   3.816   3.100   8.145 -0.4058  0.2320 -1.0196
  255MOL0     H35144   3.805   3.286   7.994  0.3778 -1.4387  3.8547
  255MOL0     H35145   3.727   3.181   7.870 -1.1885  0.7903 -0.4978
  255MOL0     H35146   3.547   3.153   8.067 -0.9342 -0.2607 -0.0257
  255MOL0     H35147   3.639   3.290   8.127  0.2088 -0.9506 -0.2283
  255MOL0     H35148   3.384   3.504   7.807 -0.4081 -1.1664 -0.5221
  255MOL0     H35149   3.079   3.710   7.886  1.0130  2.9436 -0.6296
  255MOL0     H35150   3.161   3.631   7.753 -0.6574  0.2582 -0.7179
  255MOL0     H35151   3.239   3.759   7.837  0.9582 -0.8187 -2.2781
  255MOL0     H35152   2.847   3.722   8.080  1.1132 -0.5916  0.2560
  255MOL0     H35153   2.622   3.813   8.175 -2.6714  0.4004  3.2086
  255MOL0     H35154   2.398   3.841   8.364 -1.6105  0.8813  1.5836
  255MOL0     H35155   2.475   3.740   8.485  0.0421  0.3309  0.6933
  255MOL0     H35156   2.326   3.880   8.622  0.3538  0.6154  0.6739
  255MOL0     H35157   2.454   3.981   8.629 -0.7386 -1.4267  1.4432
  255MOL0     H35158   2.240   3.998   8.406 -0.4423 -1.4513  1.6734
  255MOL0     H35159   2.390   4.078   8.392 -0.6103 -3.2874 -3.6369
  255MOL0     H35160   2.333   4.182   8.644 -0.6559  3.0232 -1.1344
  255MOL0     H35161   2.170   4.141   8.601 -0.6316 -0.3257 -1.3518
  255MOL0     H35162   2.367   4.324   8.464  0.8714 -1.3555  1.4256
  255MOL0     H35163   2.218   4.256   8.380  0.0548  1.1211  0.1004
  255MOL0     H35164   2.258   4.437   8.624  2.4498  1.2960 -1.2895
  255MOL0     H35165   2.103   4.350   8.583 -0.8204  0.1919 -0.1022
  255MOL0     H35166   2.082   4.467   8.380 -1.4121 -0.4390  0.3669
  255MOL0     H35167   2.240   4.554   8.402 -1.1725  2.8754  2.6739
  255MOL0     H35168   2.040   4.693   8.443  0.7812  0.5990 -0.3502
  255MOL0     H35169   2.162   4.691   8.576  1.8406 -2.4104 -0.2955
  255MOL0     H35170   2.788   3.794   8.575 -0.9470 -1.4320 -0.4140
  255MOL0     H35171   2.962   3.659   8.493  1.5580  2.4166 -0.0258
  255MOL0     H35172   3.223   3.460   8.262  2.1173  4.3773  0.5876
  255MOL0     H35173   3.402   3.316   8.192  2.4191  1.5952 -0.1212
  255MOL0     H35174   4.977   2.570   7.244 -2.2790  1.1534 -0.2715
  255MOL0     H35175   5.112   2.377   7.166  1.0324 -0.6644 -0.1235
  255MOL0     H35176   5.056   2.012   6.783  2.1867  1.4415 -1.9776
  255MOL0     H35177   5.120   1.814   6.675 -1.0677  1.6749  0.1170
  255MOL0     H35178   5.411   1.767   6.692  3.4318 -1.3456  2.5934
  255MOL0     H35179   5.474   1.600   6.684  1.7186  2.1439  1.0209
  255MOL0     H35180   5.398   1.626   6.450 -0.0646 -0.0480 -1.3099
  255MOL0     H35181   5.289   1.745   6.498 -2.1490 -0.8430  1.2240
  255MOL0     H35182   5.126   1.563   6.572 -1.2890 -2.4338 -1.7992
  255MOL0     H35183   5.178   1.559   6.403 -0.7277 -1.9756 -0.9309
  255MOL0     H35184   5.272   1.379   6.627 -5.2081  0.4359  1.3497
  255MOL0     H35185   5.346   1.378   6.460 -1.6380  0.1989 -2.6583
  255MOL0     H35186   5.037   1.171   6.325  0.6539 -0.2445  0.0747
  255MOL0     H35187   5.334   1.687   7.022 -1.2635 -0.6804  0.7072
  255MOL0     H35188   5.333   1.823   7.221  0.1371  2.2504  1.2688
  255MOL0     H35189   5.367   1.977   7.136 -2.4212  5.2069 -0.6686
  255MOL0     H35190   5.230   1.969   7.239 -0.6003  1.6105 -1.7810
  256MOL0     O35191   9.749   0.459   4.845 -0.5713 -0.5074 -0.0710
  256MOL0     C35192   9.789   0.579   4.830  0.8013 -0.0013 -0.1640
  256MOL0     O35193   9.774   0.679   4.918 -0.4299  0.7644  0.3586
  256MOL0     C35194   9.729   0.631   5.040  0.1744  0.7299 -0.3228
  256MOL0     C35195   9.821   0.595   5.144  0.4491 -0.3621  0.0202
  256MOL0     C35196   9.783   0.545   5.270  0.2396 -0.5820  0.1548
  256MOL0     C35197   9.643   0.530   5.296 -0.2122  0.2829 -0.3417
  256MOL0     O35198   9.600   0.477   5.413  0.3065 -0.1543  0.4658
  256MOL0     C35199   9.695   0.445   5.518 -0.2436 -0.5403  0.7823
  256MOL0     C35200   9.627   0.443   5.647 -0.4053 -0.1062 -1.1710
  256MOL0     C35201   9.571   0.585   5.677 -1.4297 -0.4949  0.6659
  256MOL0     C35202   9.525   0.607   5.823  1.3999 -0.9535 -0.5266
  256MOL0     C35203   9.439   0.736   5.813 -0.0107  1.1313 -0.3478
  256MOL0     C35204   9.381   0.774   5.957 -0.3665 -0.4040  0.9006
  256MOL0     C35205   9.361   0.933   5.950  0.5396  0.1202 -0.1088
  256MOL0     C35206   9.482   1.011   5.942 -0.5316 -0.8953  1.0314
  256MOL0     N35207   9.442   1.149   5.899  0.1175 -1.6289  0.4024
  256MOL0     C35208   9.362   1.242   5.958  1.4158  0.1936  0.7696
  256MOL0     C35209   9.381   1.357   5.894 -0.5780  0.1263  0.6868
  256MOL0     C35210   9.308   1.489   5.923  0.0823  0.6453 -0.0151
  256MOL0     C35211   9.413   1.596   5.970  0.9684  0.5678  0.4634
  256MOL0     C35212   9.461   1.692   5.856 -0.5474 -0.2354  0.5873
  256MOL0     C35213   9.498   1.824   5.923 -0.0592  0.9481  1.2616
  256MOL0     O35214   9.603   1.803   6.019 -0.0319 -0.4341 -0.5622
  256MOL0     C35215   9.730   1.809   5.960  1.1055 -0.0314 -0.5774
  256MOL0     C35216   9.776   1.930   5.922 -0.3701 -0.2558 -0.1521
  256MOL0     C35217   9.891   1.946   5.846 -1.2379  1.2731 -0.4289
  256MOL0     C35218   9.944   2.075   5.825 -0.4772 -0.0668 -0.0707
  256MOL0     C35219   9.976   1.828   5.819 -0.0405 -0.6778 -0.6502
  256MOL0     C35220  10.111   1.828   5.767  1.1174 -0.2783  0.1352
  256MOL0     O35221  10.219   1.832   5.851  0.5240 -0.0736 -0.4034
  256MOL0     C35222  10.345   1.869   5.800  0.4267  0.3353  0.2735
  256MOL0     C35223  10.389   1.990   5.846  0.0465  0.8625 -0.0538
  256MOL0     C35224  10.514   2.031   5.801 -0.2632  0.0191  0.1070
  256MOL0     C35225  10.599   1.954   5.720  0.6450 -0.5297 -0.1326
  256MOL0     O35226  10.716   2.005   5.676 -0.2043  0.8933 -0.1691
  256MOL0     C35227  10.836   1.923   5.700  0.9049  0.6639 -0.4158
  256MOL0     C35228  10.969   2.000   5.672 -0.0828 -0.2331  0.1382
  256MOL0     C35229  10.987   2.111   5.770  0.3452  0.2593 -0.3007
  256MOL0     C35230  11.131   2.161   5.799  0.4736 -0.0207 -0.0331
  256MOL0     C35231  11.173   2.297   5.724  0.0738  0.5150 -0.1849
  256MOL0     C35232  11.301   2.357   5.781  0.3097  0.3767 -0.8465
  256MOL0     C35233  11.308   2.408   5.925 -0.3724  0.8023 -0.9740
  256MOL0     C35234  11.221   2.531   5.959  0.7180 -0.3010 -0.6745
  256MOL0    Cl35235  11.206   2.566   6.143 -0.1319 -0.1636 -0.5085
  256MOL0     C35236  10.560   1.829   5.681 -0.6420  0.2603 -0.5653
  256MOL0     C35237  10.428   1.793   5.714  0.4592  0.4393 -0.5150
  256MOL0     O35238  10.117   1.862   5.648  0.4738  0.2602 -1.2478
  256MOL0     C35239   9.916   1.700   5.854 -0.0626 -0.1185  0.0799
  256MOL0     C35240   9.796   1.696   5.927 -0.3001  0.5531  0.4104
  256MOL0     N35241   9.480   1.328   5.795 -0.6089 -0.2289 -0.8268
  256MOL0     N35242   9.509   1.201   5.796 -0.9940  0.6109  0.2610
  256MOL0     C35243   9.557   0.551   5.199  0.3174 -0.6264  0.4373
  256MOL0     C35244   9.600   0.597   5.070  0.2155 -0.0976 -0.6335
  256MOL0     C35245   9.870   0.623   4.713  1.1603  0.6625  0.2558
  256MOL0     C35246   9.887   0.757   4.676  0.3681  0.2291  0.1028
  256MOL0     C35247   9.963   0.800   4.565  0.4487 -0.1542  0.0905
  256MOL0     C35248  10.046   0.712   4.491  0.2452 -0.3336 -0.5123
  256MOL0     O35249  10.134   0.768   4.399  0.1192  0.0435  0.2204
  256MOL0     C35250  10.190   0.705   4.293 -0.4614 -0.2210  0.3824
  256MOL0     C35251  10.339   0.667   4.314 -0.3985  0.2447 -0.0959
  256MOL0     C35252  10.392   0.590   4.191  0.3462 -0.5506 -0.1474
  256MOL0     C35253  10.543   0.564   4.183 -0.1107  0.1080 -1.0157
  256MOL0     C35254  10.580   0.489   4.302 -0.3812  0.8845 -0.2466
  256MOL0     C35255  10.632   0.430   4.399  0.3373 -0.1613  0.2965
  256MOL0     C35256  10.035   0.577   4.522 -0.6645 -0.9379 -0.4682
  256MOL0     C35257   9.943   0.537   4.622  1.0612 -0.0507 -0.5804
  256MOL0     C35258   9.926   0.389   4.616 -0.5018  0.0917 -0.3108
  256MOL0     H35259   9.927   0.612   5.126 -0.1120  0.5069 -3.0550
  256MOL0     H35260   9.865   0.526   5.338  1.1120  1.1246 -0.3777
  256MOL0     H35261   9.770   0.522   5.538 -1.1288 -0.2629  3.5500
  256MOL0     H35262   9.746   0.349   5.506  0.5093 -0.4349  2.6679
  256MOL0     H35263   9.551   0.365   5.638  1.2094 -2.3195  2.2698
  256MOL0     H35264   9.689   0.402   5.727 -0.3662  1.6743 -0.2358
  256MOL0     H35265   9.653   0.653   5.650 -2.0749 -1.0700 -3.3250
  256MOL0     H35266   9.502   0.615   5.598  2.9772  5.1788 -1.8063
  256MOL0     H35267   9.460   0.521   5.843  3.0211 -1.8305  1.3037
  256MOL0     H35268   9.600   0.618   5.901  1.1613 -0.4687 -0.3597
  256MOL0     H35269   9.355   0.719   5.745 -2.1509  2.9904  1.6902
  256MOL0     H35270   9.510   0.808   5.770  0.2237 -0.1159 -2.1823
  256MOL0     H35271   9.287   0.720   5.976 -0.0171 -1.8838 -1.2489
  256MOL0     H35272   9.438   0.761   6.050 -1.6064  0.6367  1.8456
  256MOL0     H35273   9.303   0.974   6.034 -0.6766 -0.1679 -0.7743
  256MOL0     H35274   9.299   0.975   5.870  0.8000  2.3123  0.7663
  256MOL0     H35275   9.519   1.029   6.043 -1.0028 -0.5830  1.1519
  256MOL0     H35276   9.570   0.975   5.888  0.4061  1.2102  1.0231
  256MOL0     H35277   9.304   1.210   6.044  0.2414 -3.4800 -1.2085
  256MOL0     H35278   9.227   1.484   5.997 -0.5253 -2.6293 -0.7350
  256MOL0     H35279   9.263   1.524   5.830  2.4130  1.8926 -0.7525
  256MOL0     H35280   9.357   1.657   6.042 -1.4942  2.2644 -2.6379
  256MOL0     H35281   9.491   1.548   6.030 -0.3115 -2.6990 -0.2861
  256MOL0     H35282   9.541   1.646   5.797  2.2478 -0.0913  3.9966
  256MOL0     H35283   9.384   1.710   5.780 -0.5757  0.8805  0.8639
  256MOL0     H35284   9.519   1.894   5.841  1.9318 -1.1480 -0.1342
  256MOL0     H35285   9.405   1.863   5.967 -1.2968  1.4540 -1.5637
  256MOL0     H35286   9.725   2.022   5.950 -1.4280 -0.5533 -1.0433
  256MOL0     H35287  10.052   2.072   5.810 -0.2573  3.8030 -0.2695
  256MOL0     H35288   9.919   2.140   5.910 -2.3884  0.3290 -0.8782
  256MOL0     H35289   9.902   2.136   5.744  0.9144  1.0514 -0.0042
  256MOL0     H35290  10.337   2.053   5.917  0.1005  3.1130 -1.8641
  256MOL0     H35291  10.562   2.118   5.844  3.1779 -2.0270  0.7528
  256MOL0     H35292  10.832   1.869   5.795  0.5669  2.1949  0.4833
  256MOL0     H35293  10.824   1.844   5.626  1.8766  2.4383 -2.5706
  256MOL0     H35294  11.056   1.935   5.682 -1.5173 -2.4270 -1.0122
  256MOL0     H35295  10.952   2.046   5.574 -1.2680  1.2015  0.9654
  256MOL0     H35296  10.944   2.062   5.858 -1.5929 -1.2373 -1.9849
  256MOL0     H35297  10.929   2.200   5.746 -5.8995 -2.3684  2.7198
  256MOL0     H35298  11.211   2.087   5.786 -0.4295 -2.1525  4.4305
  256MOL0     H35299  11.137   2.186   5.906 -1.1450  2.8170 -0.5062
  256MOL0     H35300  11.183   2.283   5.616  2.6975 -1.4355  0.2056
  256MOL0     H35301  11.099   2.375   5.744 -1.4753 -1.4620  2.4673
  256MOL0     H35302  11.307   2.454   5.730  0.5742  1.8186  1.7174
  256MOL0     H35303  11.376   2.281   5.757 -0.0882  0.2423 -1.6759
  256MOL0     H35304  11.408   2.438   5.959  0.0559  1.7902 -2.9612
  256MOL0     H35305  11.276   2.324   5.987  0.1579  3.1110  2.7614
  256MOL0     H35306  11.121   2.511   5.921  0.4023 -2.1887  1.0301
  256MOL0     H35307  11.257   2.614   5.897  0.0407 -1.2513 -2.4208
  256MOL0     H35308  10.619   1.769   5.611 -3.2369 -1.1038 -1.7114
  256MOL0     H35309  10.393   1.697   5.676  3.6137 -0.6096 -1.1133
  256MOL0     H35310   9.957   1.601   5.842  0.8603 -0.1432  2.7162
  256MOL0     H35311   9.737   1.608   5.951  2.2556 -0.9252  1.7282
  256MOL0     H35312   9.451   0.534   5.216  0.0376 -1.7844 -1.9861
  256MOL0     H35313   9.525   0.614   4.993 -0.6720 -0.2318  0.1911
  256MOL0     H35314   9.840   0.841   4.727 -0.3511  1.1539 -1.9965
  256MOL0     H35315   9.973   0.906   4.545  0.1563  0.1895  1.6527
  256MOL0     H35316  10.129   0.616   4.272 -4.8451  2.8384 -1.2279
  256MOL0     H35317  10.171   0.772   4.209 -2.1806 -2.1571 -0.8692
  256MOL0     H35318  10.344   0.610   4.408  0.5286 -0.4519 -0.5461
  256MOL0     H35319  10.396   0.757   4.341  0.5576  0.6051 -3.0350
  256MOL0     H35320  10.348   0.492   4.171  1.2223 -0.8005 -0.9117
  256MOL0     H35321  10.371   0.647   4.100  1.1133 -2.8487 -1.8592
  256MOL0     H35322  10.593   0.662   4.181 -0.7762  0.4418 -2.3987
  256MOL0     H35323  10.565   0.496   4.101 -2.1348 -1.7618 -0.1105
  256MOL0     H35324  10.694   0.372   4.464 -1.1517 -1.6250  0.4453
  256MOL0     H35325  10.099   0.507   4.469 -0.9794 -0.8851 -0.9157
  256MOL0     H35326   9.935   0.352   4.514  0.8236 -0.0518 -0.1510
  256MOL0     H35327  10.003   0.346   4.681  0.7742  1.2802 -0.9808
  256MOL0     H35328   9.820   0.379   4.644 -0.2110 -2.3765  0.0930
  257MOL0     O35329   1.264   7.720  11.349  0.4929 -0.2929  0.0958
  257MOL0     C35330   1.254   7.750  11.469 -0.1676 -0.1625  0.7948
  257MOL0     O35331   1.205   7.666  11.569  0.4480 -0.6223 -0.0570
  257MOL0     C35332   1.132   7.554  11.538 -0.2425 -0.1598 -0.3787
  257MOL0     C35333   1.173   7.448  11.450  0.5015 -0.8381  0.3210
  257MOL0     C35334   1.098   7.348  11.418 -0.1917 -0.3048  0.7813
  257MOL0     C35335   0.971   7.330  11.480  0.3014 -0.0568  0.2005
  257MOL0     O35336   0.882   7.229  11.444  0.6566 -0.3569  0.2750
  257MOL0     C35337   0.950   7.107  11.444 -0.5826  0.1015  0.9366
  257MOL0     C35338   0.840   7.001  11.487  0.4942  0.4705  0.5816
  257MOL0     C35339   0.762   6.949  11.373 -0.1434  0.1891  0.4921
  257MOL0     C35340   0.667   6.840  11.425  0.2994  0.5618 -0.2488
  257MOL0     C35341   0.689   6.696  11.364 -0.4814  0.3227 -0.3197
  257MOL0     C35342   0.577   6.629  11.276  0.6493 -0.0288 -0.2967
  257MOL0     C35343   0.635   6.493  11.227 -0.2523 -0.6411  0.5950
  257MOL0     C35344   0.752   6.495  11.123 -0.3062  1.3319  0.4256
  257MOL0     N35345   0.884   6.469  11.185  0.1833 -0.0234 -0.5833
  257MOL0     C35346   0.966   6.582  11.209  0.2764  0.1252  0.5871
  257MOL0     C35347   1.048   6.535  11.307 -1.0133  0.1378 -0.6207
  257MOL0     C35348   1.169   6.602  11.373 -0.2256  0.2230 -0.3721
  257MOL0     C35349   1.114   6.702  11.472 -0.5555  0.4827  0.0053
  257MOL0     C35350   1.064   6.643  11.609  0.2884 -0.8564  0.1841
  257MOL0     C35351   1.062   6.746  11.725  0.3921 -0.6258  0.2230
  257MOL0     O35352   1.199   6.775  11.761 -0.3324  0.6598  0.1918
  257MOL0     C35353   1.233   6.696  11.868 -0.8401  1.3281  1.1286
  257MOL0     C35354   1.314   6.580  11.846 -0.0717 -0.6432  0.0085
  257MOL0     C35355   1.336   6.495  11.953  0.8286 -0.1501 -0.8479
  257MOL0     C35356   1.419   6.380  11.922 -0.0148  0.4227 -0.9610
  257MOL0     C35357   1.267   6.513  12.085 -0.2567  0.0478  0.4984
  257MOL0     C35358   1.270   6.425  12.198 -0.2114  0.1624 -0.8669
  257MOL0     O35359   1.217   6.479  12.314  0.4609  0.9308  0.4011
  257MOL0     C35360   1.195   6.400  12.414 -0.3058 -0.1683  0.0393
  257MOL0     C35361   1.286   6.392  12.518 -0.4272 -0.4337  0.0207
  257MOL0     C35362   1.258   6.300  12.625 -0.9855 -0.0079 -0.6265
  257MOL0     C35363   1.142   6.223  12.633 -0.3494 -0.3511 -0.0416
  257MOL0     O35364   1.107   6.140  12.738  0.0126 -0.3915 -1.3926
  257MOL0     C35365   1.116   6.180  12.872 -0.4092 -0.1556  0.2800
  257MOL0     C35366   1.044   6.314  12.908 -0.4263  0.2931 -0.6176
  257MOL0     C35367   0.894   6.297  12.922 -0.0008 -0.6043  0.7092
  257MOL0     C35368   0.855   6.239  13.060 -0.5761  0.4490  0.1495
  257MOL0     C35369   0.695   6.235  13.063 -0.1325  0.3151 -1.5374
  257MOL0     C35370   0.644   6.372  13.076  0.7437 -0.0800  0.4606
  257MOL0     C35371   0.508   6.364  13.132  1.0567 -0.2059  0.3802
  257MOL0     C35372   0.423   6.479  13.089  0.1653  0.6416 -0.0656
  257MOL0    Cl35373   0.486   6.638  13.128 -0.1392  0.2496  0.5367
  257MOL0     C35374   1.057   6.230  12.520 -0.2343 -1.1507 -0.9496
  257MOL0     C35375   1.079   6.327  12.425  0.4766  0.2274  0.8886
  257MOL0     O35376   1.329   6.316  12.184 -0.1536  1.1386  0.1898
  257MOL0     C35377   1.197   6.630  12.103 -0.4483 -0.8112 -0.0988
  257MOL0     C35378   1.173   6.715  11.997  0.8005 -0.0249  1.2780
  257MOL0     N35379   1.010   6.405  11.344  0.2179 -0.9763  0.4761
  257MOL0     N35380   0.908   6.362  11.274  0.0260 -0.2716  0.0381
  257MOL0     C35381   0.928   7.434  11.566  0.4342  0.1228  0.5301
  257MOL0     C35382   1.012   7.537  11.603  0.4556  0.5543  0.3263
  257MOL0     C35383   1.288   7.886  11.525 -0.3981  0.2113  0.4158
  257MOL0     C35384   1.266   7.905  11.663  0.2510 -0.1752 -0.1654
  257MOL0     C35385   1.291   8.029  11.726  0.1606  0.5882 -0.4377
  257MOL0     C35386   1.321   8.139  11.647  0.5657  0.4222  0.2650
  257MOL0     O35387   1.343   8.267  11.700  0.0145  0.5364 -0.2722
  257MOL0     C35388   1.257   8.312  11.811 -0.3604 -0.2402  0.7585
  257MOL0     C35389   1.119   8.368  11.768  0.7993  0.9271 -0.1534
  257MOL0     C35390   1.137   8.503  11.693 -0.0456  0.2508  0.6557
  257MOL0     C35391   1.019   8.567  11.613 -0.4723  1.0351 -0.4495
  257MOL0     C35392   0.902   8.598  11.695  0.0301 -0.2428 -0.1943
  257MOL0     C35393   0.818   8.623  11.785 -1.1078  0.0068 -0.4440
  257MOL0     C35394   1.333   8.119  11.511  0.3050 -0.4664  0.4678
  257MOL0     C35395   1.337   7.997  11.451  0.2111  0.4652 -0.7171
  257MOL0     C35396   1.372   7.985  11.305  0.4463  0.2047  0.6040
  257MOL0     H35397   1.263   7.474  11.396 -1.1918  1.1289 -1.7846
  257MOL0     H35398   1.136   7.287  11.337 -0.8854  2.0017 -1.4071
  257MOL0     H35399   1.029   7.111  11.520  0.2596 -1.0638  0.1536
  257MOL0     H35400   1.000   7.084  11.349  1.3165 -0.0607  1.9195
  257MOL0     H35401   0.891   6.915  11.531 -1.0553 -0.3483  0.8290
  257MOL0     H35402   0.782   7.043  11.570  1.4688  3.0565  0.0488
  257MOL0     H35403   0.711   7.036  11.331  1.9798 -0.6278 -4.5485
  257MOL0     H35404   0.822   6.913  11.289 -2.5262  2.5889 -2.4525
  257MOL0     H35405   0.666   6.825  11.533  0.9766  0.2922 -0.2729
  257MOL0     H35406   0.569   6.871  11.388  0.7643  0.3981 -1.6742
  257MOL0     H35407   0.714   6.621  11.440 -0.7199  0.7755  0.2066
  257MOL0     H35408   0.778   6.700  11.300  2.1431 -3.6360  2.5793
  257MOL0     H35409   0.490   6.606  11.340  2.5302  0.3218  2.5800
  257MOL0     H35410   0.547   6.696  11.196 -0.6676 -0.9050 -0.5709
  257MOL0     H35411   0.558   6.441  11.171 -0.3020  1.4964 -1.4758
  257MOL0     H35412   0.646   6.429  11.315 -0.3915 -2.1626 -0.4714
  257MOL0     H35413   0.732   6.407  11.061  1.1185  1.3025 -0.0154
  257MOL0     H35414   0.750   6.584  11.060 -3.1773  0.2542 -1.2105
  257MOL0     H35415   0.959   6.681  11.166  1.6291 -0.8755 -2.2380
  257MOL0     H35416   1.229   6.651  11.297 -0.9849  1.5096 -0.1708
  257MOL0     H35417   1.234   6.530  11.424 -1.5979 -0.3362  0.6823
  257MOL0     H35418   1.205   6.757  11.496 -0.7280  0.3610  0.9807
  257MOL0     H35419   1.047   6.771  11.421  1.1427  1.4320 -1.0417
  257MOL0     H35420   0.961   6.630  11.573  0.4931  4.2977 -3.4314
  257MOL0     H35421   1.112   6.548  11.634  0.1521 -0.2113  3.2654
  257MOL0     H35422   1.010   6.833  11.684  1.0771 -2.5558 -5.6792
  257MOL0     H35423   0.996   6.712  11.804 -2.9424 -1.4641 -2.6613
  257MOL0     H35424   1.353   6.550  11.749 -1.3729 -2.5674  0.0059
  257MOL0     H35425   1.457   6.392  11.820 -0.9370 -1.0612 -1.5106
  257MOL0     H35426   1.364   6.285  11.919 -1.2418  1.1225 -2.6711
  257MOL0     H35427   1.498   6.374  11.998  1.3879  1.3774 -2.2929
  257MOL0     H35428   1.382   6.441  12.528 -0.8008  0.3950 -0.2971
  257MOL0     H35429   1.340   6.293  12.695 -1.9302  1.7363  0.7510
  257MOL0     H35430   1.069   6.095  12.921 -0.5248  0.1432  0.6962
  257MOL0     H35431   1.219   6.177  12.911 -1.8020 -0.9397  4.3926
  257MOL0     H35432   1.072   6.340  13.011 -1.5853 -0.5677 -0.0625
  257MOL0     H35433   1.080   6.399  12.850 -1.1266 -0.0378 -1.5655
  257MOL0     H35434   0.856   6.234  12.840  0.4800  0.1105 -0.0834
  257MOL0     H35435   0.857   6.400  12.919  2.4488  0.3456 -2.1971
  257MOL0     H35436   0.891   6.301  13.142 -1.0949  0.0902  0.6552
  257MOL0     H35437   0.884   6.135  13.075 -0.7636  0.4114  0.2627
  257MOL0     H35438   0.645   6.184  12.979 -0.7854 -2.6812  0.4873
  257MOL0     H35439   0.679   6.176  13.154 -1.0128 -2.8930 -3.6027
  257MOL0     H35440   0.638   6.423  12.980 -1.1948 -2.2574 -0.6929
  257MOL0     H35441   0.704   6.428  13.148 -2.4653  0.4651  2.8925
  257MOL0     H35442   0.508   6.371  13.242 -0.2632  0.2489  0.3689
  257MOL0     H35443   0.460   6.275  13.092  1.0160 -1.5876  3.2404
  257MOL0     H35444   0.326   6.463  13.136  0.4104  0.7443  0.4872
  257MOL0     H35445   0.408   6.473  12.981  3.4132  1.4773 -0.6833
  257MOL0     H35446   0.966   6.171  12.525 -0.7928 -0.2393 -0.0899
  257MOL0     H35447   1.004   6.346  12.349  1.6204  0.7987 -0.1484
  257MOL0     H35448   1.154   6.650  12.200  2.8326 -2.7482  1.9527
  257MOL0     H35449   1.109   6.799  12.019  0.4706  0.6860 -1.9733
  257MOL0     H35450   0.835   7.414  11.619  0.5107 -2.2479 -0.1171
  257MOL0     H35451   0.965   7.619  11.654 -1.5320 -2.1928  3.2804
  257MOL0     H35452   1.241   7.819  11.725 -0.0032  0.0948  0.1096
  257MOL0     H35453   1.284   8.050  11.832 -1.9685 -0.4899 -0.3186
  257MOL0     H35454   1.249   8.250  11.900  0.7812 -1.1202  0.2709
  257MOL0     H35455   1.321   8.398  11.833  2.2221 -1.7099 -0.5692
  257MOL0     H35456   1.066   8.380  11.863 -1.1984 -0.6177 -1.0007
  257MOL0     H35457   1.075   8.287  11.709  0.3088 -0.4403  1.9872
  257MOL0     H35458   1.181   8.575  11.762 -0.0287 -0.7457  1.7085
  257MOL0     H35459   1.207   8.467  11.616 -1.4810 -1.2339 -0.0045
  257MOL0     H35460   0.991   8.509  11.525  1.6706 -2.5433  1.0067
  257MOL0     H35461   1.053   8.662  11.570 -1.5342  0.8177 -1.8443
  257MOL0     H35462   0.751   8.632  11.869 -1.2307 -4.8547  0.2701
  257MOL0     H35463   1.341   8.216  11.463  0.1600 -0.3698  0.6398
  257MOL0     H35464   1.297   7.923  11.256  0.1202  2.0985 -1.4589
  257MOL0     H35465   1.366   8.082  11.255 -2.9146  0.9501  2.1670
  257MOL0     H35466   1.474   7.951  11.282  1.0383  1.9501  0.4931
  258MOL0     O35467   6.137   9.905   7.420 -0.4416 -0.3757 -1.6194
  258MOL0     C35468   6.192   9.981   7.506 -2.0842  0.1955  0.2813
  258MOL0     O35469   6.214   9.943   7.636  0.1357 -0.4281  0.2969
  258MOL0     C35470   6.191   9.815   7.673 -0.8233  0.3347 -0.6407
  258MOL0     C35471   6.094   9.787   7.762 -0.0670  0.0453 -0.8303
  258MOL0     C35472   6.065   9.655   7.806 -0.8196  0.0834 -0.9813
  258MOL0     C35473   6.134   9.554   7.732  0.0187  0.6103 -0.4988
  258MOL0     O35474   6.110   9.421   7.764 -0.0610 -0.0619 -0.1066
  258MOL0     C35475   5.972   9.367   7.751 -1.0932 -0.0410  0.9882
  258MOL0     C35476   5.916   9.352   7.606  0.1006 -0.0021  0.0193
  258MOL0     C35477   5.763   9.352   7.617 -0.7202 -0.1832  1.0752
  258MOL0     C35478   5.708   9.493   7.635 -0.8332 -0.5479 -0.7746
  258MOL0     C35479   5.549   9.495   7.626  0.7270  0.3262  0.5032
  258MOL0     C35480   5.499   9.644   7.594  0.4035  0.3864 -0.9329
  258MOL0     C35481   5.351   9.653   7.621 -0.1623  0.0046 -0.3799
  258MOL0     C35482   5.303   9.799   7.609  0.5488 -0.3435 -0.5683
  258MOL0     N35483   5.321   9.860   7.475 -0.0199 -0.1515 -0.2465
  258MOL0     C35484   5.212   9.857   7.386  0.1747  0.8899 -1.2617
  258MOL0     C35485   5.250   9.936   7.285 -0.6982  0.8364  0.2287
  258MOL0     C35486   5.193   9.934   7.142  0.1178 -1.0798 -0.4304
  258MOL0     C35487   5.113  10.072   7.127 -0.5079  0.7634 -0.0730
  258MOL0     C35488   5.012  10.101   7.240 -0.2645  0.9970  0.4147
  258MOL0     C35489   4.944  10.237   7.242  0.4719 -0.1443  0.8562
  258MOL0     O35490   4.900  10.275   7.110  0.1888 -0.3114  0.0000
  258MOL0     C35491   4.825  10.396   7.083 -0.6475  0.3754  0.1291
  258MOL0     C35492   4.737  10.449   7.173  0.3070 -0.2016 -0.4925
  258MOL0     C35493   4.638  10.547   7.135 -0.2847 -0.3494  0.2377
  258MOL0     C35494   4.544  10.575   7.253  0.3549  1.1520 -0.4092
  258MOL0     C35495   4.644  10.603   7.004 -0.9637 -0.1071  0.0025
  258MOL0     C35496   4.542  10.693   6.951 -0.4399 -0.2451  0.4722
  258MOL0     O35497   4.540  10.697   6.815 -1.0151 -0.3398 -0.3439
  258MOL0     C35498   4.441  10.766   6.742  0.3404 -0.6477 -0.1884
  258MOL0     C35499   4.418  10.903   6.737 -0.2043 -0.1953 -0.9506
  258MOL0     C35500   4.323  10.954   6.662  1.4482 -0.2093  0.5234
  258MOL0     C35501   4.246  10.874   6.575 -0.1601  0.9545 -0.0696
  258MOL0     O35502   4.163  10.939   6.489  0.0538  0.8714 -0.3706
  258MOL0     C35503   4.219  10.939   6.353 -0.1128  0.2039 -0.5903
  258MOL0     C35504   4.143  11.034   6.258  0.4796  0.2033 -0.2909
  258MOL0     C35505   3.986  11.026   6.285  0.4630 -0.3513  0.3954
  258MOL0     C35506   3.914  11.138   6.193  0.0417 -1.4595  1.0092
  258MOL0     C35507   3.771  11.160   6.225  0.1665 -0.7800 -0.2446
  258MOL0     C35508   3.707  11.239   6.101  0.2855  1.0280  0.0313
  258MOL0     C35509   3.565  11.283   6.100  0.4587 -0.1140 -0.2701
  258MOL0     C35510   3.474  11.158   6.072 -0.6541 -0.7027  0.5089
  258MOL0    Cl35511   3.303  11.208   6.017  0.2307 -0.1094 -0.1858
  258MOL0     C35512   4.272  10.741   6.569 -0.6122 -0.4018  0.0270
  258MOL0     C35513   4.368  10.684   6.657  0.3818  0.1843 -0.2581
  258MOL0     O35514   4.465  10.754   7.024  0.0219  0.7158 -0.7667
  258MOL0     C35515   4.751  10.555   6.929  0.3064 -0.1748 -0.4131
  258MOL0     C35516   4.826  10.448   6.960 -0.1779 -0.3467  1.0005
  258MOL0     N35517   5.377   9.991   7.318  0.1800 -0.2713  0.5443
  258MOL0     N35518   5.421   9.939   7.432  0.8400 -0.8247 -0.5950
  258MOL0     C35519   6.231   9.589   7.642  0.7407 -0.5245  0.2424
  258MOL0     C35520   6.261   9.716   7.601  1.2310  0.4618 -0.2708
  258MOL0     C35521   6.256  10.105   7.469  0.6409  0.7493  0.1437
  258MOL0     C35522   6.325  10.178   7.569 -0.1544  0.2000 -0.4567
  258MOL0     C35523   6.384  10.295   7.550 -0.5448 -0.6093  0.0032
  258MOL0     C35524   6.376  10.363   7.431  0.9351  0.4315  0.2325
  258MOL0     O35525   6.450  10.481   7.422  0.1380  0.5814 -0.2678
  258MOL0     C35526   6.477  10.538   7.297  0.4392  0.5897  0.5932
  258MOL0     C35527   6.386  10.659   7.268  0.4223 -0.2497  0.5144
  258MOL0     C35528   6.399  10.734   7.131  0.2342 -0.4418 -0.9289
  258MOL0     C35529   6.317  10.675   7.012  0.1803 -0.5267 -0.8899
  258MOL0     C35530   6.357  10.529   6.980 -0.8275 -0.9745 -0.3704
  258MOL0     C35531   6.395  10.421   6.959  0.0487 -0.8541  0.7123
  258MOL0     C35532   6.291  10.306   7.335 -0.4167  0.0824  0.6842
  258MOL0     C35533   6.240  10.176   7.343  0.2903  1.0629 -0.5481
  258MOL0     C35534   6.157  10.109   7.226 -0.2335 -0.7649 -0.3091
  258MOL0     H35535   6.039   9.873   7.799  3.5907  3.6734 -2.9449
  258MOL0     H35536   5.982   9.635   7.872  0.5351 -1.0444  0.4431
  258MOL0     H35537   5.907   9.433   7.809 -2.0955 -1.0759  1.0703
  258MOL0     H35538   5.971   9.268   7.798  0.3654 -0.9563 -0.7877
  258MOL0     H35539   5.949   9.436   7.545 -0.5810 -0.7607 -1.4317
  258MOL0     H35540   5.953   9.258   7.565  0.5426 -1.0488  2.6201
  258MOL0     H35541   5.733   9.320   7.517  1.9665 -0.1849  0.2120
  258MOL0     H35542   5.728   9.283   7.694 -3.8113 -0.1860 -0.1820
  258MOL0     H35543   5.738   9.529   7.734 -1.2510 -0.5255 -0.6526
  258MOL0     H35544   5.744   9.571   7.567 -0.3770 -0.4741 -0.4463
  258MOL0     H35545   5.501   9.446   7.712 -1.9995 -0.3352 -1.2487
  258MOL0     H35546   5.513   9.435   7.542  0.1466 -0.0530  1.0070
  258MOL0     H35547   5.565   9.715   7.645  3.3196 -3.2197  0.8614
  258MOL0     H35548   5.530   9.664   7.491 -1.7401  1.0078 -1.4986
  258MOL0     H35549   5.325   9.619   7.722 -1.5852 -1.6190 -1.2642
  258MOL0     H35550   5.309   9.586   7.547  2.4046 -0.6590 -1.3570
  258MOL0     H35551   5.200   9.785   7.644  0.7968  0.9005  0.7491
  258MOL0     H35552   5.355   9.861   7.682 -0.9231 -0.4367  0.6190
  258MOL0     H35553   5.122   9.798   7.398  0.2867  0.6611 -1.5279
  258MOL0     H35554   5.127   9.847   7.141  0.2268 -1.2482  1.9164
  258MOL0     H35555   5.265   9.919   7.061 -2.4085 -3.2576 -2.4699
  258MOL0     H35556   5.194  10.141   7.102  2.4016 -2.9120 -1.8131
  258MOL0     H35557   5.055  10.056   7.035 -0.3175 -1.5901  0.1535
  258MOL0     H35558   4.931  10.028   7.242  0.6174 -0.0128  0.2913
  258MOL0     H35559   5.074  10.106   7.330 -0.1160  3.5828  0.2453
  258MOL0     H35560   4.856  10.230   7.307 -1.3904 -1.4168 -1.6017
  258MOL0     H35561   5.014  10.315   7.270 -0.9743  2.3963 -2.0692
  258MOL0     H35562   4.728  10.396   7.267  1.2820  0.6970  0.1275
  258MOL0     H35563   4.595  10.538   7.342  0.1349  0.8654 -0.4016
  258MOL0     H35564   4.446  10.527   7.244  1.7013 -2.6921  2.5387
  258MOL0     H35565   4.533  10.683   7.257 -2.3020  0.8963  2.2001
  258MOL0     H35566   4.486  10.967   6.792  0.4472  0.3522 -2.3577
  258MOL0     H35567   4.302  11.060   6.667 -0.9084 -0.6754  1.3985
  258MOL0     H35568   4.326  10.957   6.354 -0.0974  1.0482  3.6711
  258MOL0     H35569   4.207  10.839   6.311  0.7416 -0.6281  1.0734
  258MOL0     H35570   4.182  11.136   6.263 -0.2753  0.4660  3.7713
  258MOL0     H35571   4.177  10.996   6.161 -2.3002 -1.8561 -0.5910
  258MOL0     H35572   3.953  11.062   6.383 -4.0113 -1.3848 -0.5192
  258MOL0     H35573   3.950  10.924   6.271  2.2981 -0.9661 -0.2031
  258MOL0     H35574   3.910  11.101   6.090  0.3484  1.4524 -0.1309
  258MOL0     H35575   3.970  11.231   6.184 -0.1729 -1.5150 -1.7620
  258MOL0     H35576   3.718  11.065   6.234 -0.8098 -0.2368 -0.2332
  258MOL0     H35577   3.771  11.218   6.317  0.6406 -3.8317  1.8500
  258MOL0     H35578   3.721  11.168   6.019  1.8912  0.6803  0.5727
  258MOL0     H35579   3.771  11.326   6.079  0.2009  1.1297  0.1860
  258MOL0     H35580   3.545  11.349   6.015  0.8660  0.5766  0.1612
  258MOL0     H35581   3.550  11.333   6.196  1.5129 -0.8052  0.2686
  258MOL0     H35582   3.470  11.103   6.167  0.8238 -1.7338  0.0120
  258MOL0     H35583   3.511  11.100   5.987 -1.4692 -0.1995 -0.1975
  258MOL0     H35584   4.221  10.689   6.489 -1.7011  1.9790 -0.8792
  258MOL0     H35585   4.382  10.578   6.676 -3.0058  0.2329  3.9469
  258MOL0     H35586   4.759  10.592   6.828  0.5370  2.3551  0.4732
  258MOL0     H35587   4.882  10.400   6.880  0.0002  0.7667  0.4369
  258MOL0     H35588   6.273   9.518   7.571  1.9942  1.2013 -0.8197
  258MOL0     H35589   6.317   9.726   7.509 -0.0994 -4.3175 -1.9121
  258MOL0     H35590   6.325  10.144   7.672 -2.5672 -3.7381 -1.5542
  258MOL0     H35591   6.443  10.324   7.636 -0.2406 -0.1290 -0.3660
  258MOL0     H35592   6.578  10.579   7.293  0.3712  1.2678  3.6336
  258MOL0     H35593   6.452  10.464   7.220 -1.9207  2.4039 -0.5248
  258MOL0     H35594   6.401  10.723   7.356  0.9911  0.4311 -0.0692
  258MOL0     H35595   6.282  10.625   7.268  1.2048 -2.8873 -1.1164
  258MOL0     H35596   6.362  10.830   7.169  3.3474  0.5546 -0.1121
  258MOL0     H35597   6.499  10.748   7.090  1.3663  0.1242  1.7995
  258MOL0     H35598   6.320  10.742   6.926 -1.0405  2.9182  1.5209
  258MOL0     H35599   6.211  10.655   7.030 -0.0899 -0.0516 -1.9011
  258MOL0     H35600   6.420  10.319   6.943  0.3898 -0.6898  0.1785
  258MOL0     H35601   6.276  10.359   7.241  0.9011  1.5481  1.2597
  258MOL0     H35602   6.212  10.025   7.182  1.8130  0.4342 -0.1309
  258MOL0     H35603   6.056  10.082   7.259 -0.5173  0.1374 -0.4164
  258MOL0     H35604   6.160  10.187   7.150  2.8821  0.6162  1.0769
  259MOL0     O35605   3.993   9.313   5.022 -0.1685  0.2554 -0.1291
  259MOL0     C35606   4.056   9.343   4.917  0.6558  0.7892  0.1393
  259MOL0     O35607   4.014   9.289   4.797 -0.5001 -0.4388  0.0666
  259MOL0     C35608   3.908   9.200   4.805  0.7258 -1.2422 -0.7630
  259MOL0     C35609   3.785   9.263   4.799  0.3341 -0.8066  0.8494
  259MOL0     C35610   3.665   9.183   4.798  1.0651 -0.4229 -0.3861
  259MOL0     C35611   3.667   9.051   4.808 -0.2143 -0.4864 -0.1317
  259MOL0     O35612   3.557   8.978   4.825 -0.1542  0.3864 -0.6222
  259MOL0     C35613   3.498   8.986   4.954  0.0341 -1.0422  0.3506
  259MOL0     C35614   3.402   9.105   4.970 -0.0927 -0.6696  0.2821
  259MOL0     C35615   3.298   9.117   4.861 -0.8914  0.2972  0.4981
  259MOL0     C35616   3.211   9.234   4.894 -0.7639  0.5115 -0.3946
  259MOL0     C35617   3.118   9.267   4.773 -0.7319  0.1347  0.6794
  259MOL0     C35618   3.021   9.367   4.816 -1.1023  0.0769  0.8626
  259MOL0     C35619   2.935   9.401   4.686 -0.2200  0.0060  0.0395
  259MOL0     C35620   2.807   9.473   4.730  0.7294  0.5749  0.5660
  259MOL0     N35621   2.817   9.603   4.794 -1.1264  0.1025  0.3058
  259MOL0     C35622   2.711   9.680   4.836  1.0283  0.1841  0.9779
  259MOL0     C35623   2.762   9.784   4.898 -0.2209  0.2324  0.5864
  259MOL0     C35624   2.694   9.888   4.985 -0.3544  1.3071 -0.0092
  259MOL0     C35625   2.658   9.830   5.122 -0.2936  0.7769  0.3335
  259MOL0     C35626   2.780   9.786   5.207 -0.2159 -0.9275 -0.0341
  259MOL0     C35627   2.746   9.759   5.354 -0.5311  0.5217 -1.0365
  259MOL0     O35628   2.664   9.648   5.361 -0.3902  0.1340 -0.7806
  259MOL0     C35629   2.658   9.579   5.473 -0.6187  0.2229 -0.4962
  259MOL0     C35630   2.735   9.609   5.589  0.2628 -0.9123  0.1041
  259MOL0     C35631   2.719   9.543   5.705 -0.5116 -0.6525  0.0664
  259MOL0     C35632   2.793   9.610   5.831  0.9275 -0.1484 -1.1005
  259MOL0     C35633   2.620   9.440   5.708 -0.1950 -0.0278  0.3150
  259MOL0     C35634   2.594   9.360   5.828  0.1936 -0.5852  0.2959
  259MOL0     O35635   2.494   9.273   5.830  0.4529  1.0791 -0.0821
  259MOL0     C35636   2.444   9.237   5.956  0.0305 -1.1146  0.0913
  259MOL0     C35637   2.484   9.124   6.030  0.3575 -0.9808 -0.2011
  259MOL0     C35638   2.428   9.107   6.161  0.2085  1.0127 -1.0089
  259MOL0     C35639   2.324   9.193   6.213 -0.6383  0.2117 -0.5558
  259MOL0     O35640   2.264   9.182   6.339  0.4671 -0.6682 -0.0390
  259MOL0     C35641   2.316   9.079   6.421  0.1797  0.8884  0.3579
  259MOL0     C35642   2.211   9.066   6.528 -0.4633  0.5210  0.5561
  259MOL0     C35643   2.217   9.187   6.616  0.0888 -0.9370 -0.7614
  259MOL0     C35644   2.116   9.153   6.725  0.6865 -0.5732  0.1908
  259MOL0     C35645   2.101   9.279   6.820 -0.5237  0.0404 -0.3184
  259MOL0     C35646   2.191   9.244   6.938 -0.4819 -0.8682  1.0282
  259MOL0     C35647   2.198   9.341   7.059 -0.7800 -0.4914 -0.5113
  259MOL0     C35648   2.067   9.361   7.124  0.3211  0.1237 -0.1146
  259MOL0    Cl35649   2.060   9.495   7.232  0.6083  0.1258 -0.1844
  259MOL0     C35650   2.283   9.295   6.130  0.6344 -0.5944 -0.6999
  259MOL0     C35651   2.341   9.320   6.008  0.6400 -0.2505  0.1488
  259MOL0     O35652   2.655   9.391   5.923  0.4705  0.4312 -0.6155
  259MOL0     C35653   2.554   9.392   5.592  0.7722 -0.4059  0.1447
  259MOL0     C35654   2.574   9.467   5.475 -0.1069  0.1624  0.7020
  259MOL0     N35655   2.899   9.773   4.888 -0.5934  0.0995 -0.2533
  259MOL0     N35656   2.931   9.660   4.825 -0.0475 -0.5603  0.0797
  259MOL0     C35657   3.788   8.988   4.828 -0.5332  0.0937 -0.6628
  259MOL0     C35658   3.908   9.058   4.833  0.0552  0.1915  0.2355
  259MOL0     C35659   4.183   9.424   4.921  0.4404 -0.2481  0.0122
  259MOL0     C35660   4.270   9.410   4.807 -0.3336 -1.2188  0.9024
  259MOL0     C35661   4.382   9.497   4.792 -0.1435 -0.4611 -0.5129
  259MOL0     C35662   4.405   9.594   4.893 -0.8135 -0.1133  0.3870
  259MOL0     O35663   4.508   9.683   4.865  0.1587 -0.5718 -0.0943
  259MOL0     C35664   4.467   9.773   4.767  0.1951 -0.0537  0.4668
  259MOL0     C35665   4.370   9.880   4.832 -0.0023 -0.3455 -0.5439
  259MOL0     C35666   4.346   9.985   4.735  0.2237  0.4486 -0.2803
  259MOL0     C35667   4.241   9.948   4.631 -1.9179  0.7022  0.3714
  259MOL0     C35668   4.133  10.039   4.605  0.0491 -0.7412 -0.3770
  259MOL0     C35669   4.042  10.114   4.583 -0.6396  0.4447 -0.2104
  259MOL0     C35670   4.326   9.600   5.006  0.1432 -1.6077 -0.1434
  259MOL0     C35671   4.219   9.510   5.024  0.1609 -0.6179  0.1155
  259MOL0     C35672   4.133   9.545   5.143 -0.6394 -0.1092  0.3272
  259MOL0     H35673   3.776   9.371   4.791  0.7159 -0.7284  1.4906
  259MOL0     H35674   3.574   9.241   4.784  2.3024  1.2474 -1.9370
  259MOL0     H35675   3.578   9.001   5.028 -1.2984  5.0719  1.0998
  259MOL0     H35676   3.438   8.895   4.962  0.4517 -1.3679 -0.1511
  259MOL0     H35677   3.347   9.088   5.063 -1.4545 -1.7605 -0.6774
  259MOL0     H35678   3.461   9.195   4.990  0.9078 -1.5250  1.3099
  259MOL0     H35679   3.351   9.132   4.767 -2.0828 -1.8879 -0.5809
  259MOL0     H35680   3.245   9.022   4.857  0.2657 -0.3610  0.3528
  259MOL0     H35681   3.156   9.213   4.986  2.9961 -0.6090  1.8105
  259MOL0     H35682   3.272   9.324   4.912  1.3645 -1.0380  0.6090
  259MOL0     H35683   3.064   9.174   4.752  0.4630 -1.1714  3.0132
  259MOL0     H35684   3.171   9.286   4.679 -1.4130  0.7060  0.3983
  259MOL0     H35685   2.952   9.332   4.893 -0.7165  0.4918  1.4017
  259MOL0     H35686   3.077   9.453   4.854 -0.7975  0.8145 -1.1391
  259MOL0     H35687   2.903   9.324   4.614  0.1714 -0.9186  0.8375
  259MOL0     H35688   2.988   9.473   4.624 -0.4102 -0.0439 -0.1860
  259MOL0     H35689   2.743   9.487   4.643  1.5653  0.6334 -0.0535
  259MOL0     H35690   2.757   9.410   4.804 -1.7833 -1.7222 -2.8010
  259MOL0     H35691   2.604   9.663   4.823  1.0392 -0.4300  1.6064
  259MOL0     H35692   2.606   9.921   4.929 -0.8690  0.6665  0.3979
  259MOL0     H35693   2.762   9.971   5.003  0.6244  0.9228 -1.7293
  259MOL0     H35694   2.603   9.908   5.176  0.3140  0.6205  1.2055
  259MOL0     H35695   2.595   9.741   5.123  1.6972 -0.7281 -0.6637
  259MOL0     H35696   2.825   9.696   5.165  3.3109 -0.0241  1.4898
  259MOL0     H35697   2.855   9.866   5.215 -2.1755  0.8771  1.4729
  259MOL0     H35698   2.841   9.739   5.406 -2.2875  1.1142  2.7608
  259MOL0     H35699   2.694   9.846   5.394  0.5286 -0.0494  1.8578
  259MOL0     H35700   2.789   9.702   5.598 -1.2530 -0.0777  0.7625
  259MOL0     H35701   2.860   9.534   5.872 -2.0585 -2.2913  0.1982
  259MOL0     H35702   2.729   9.635   5.916  3.5409  2.5073  0.2379
  259MOL0     H35703   2.844   9.703   5.805 -0.1999  0.5774 -0.8080
  259MOL0     H35704   2.547   9.048   5.983 -0.1260  0.0284 -2.6562
  259MOL0     H35705   2.446   9.017   6.220 -5.7799  0.6766  0.9973
  259MOL0     H35706   2.313   8.982   6.372  1.0809 -0.9511  3.6269
  259MOL0     H35707   2.416   9.093   6.464  0.0542 -1.1388  1.4411
  259MOL0     H35708   2.109   9.050   6.493 -0.1557 -2.4797  0.8007
  259MOL0     H35709   2.238   8.971   6.576  1.1526  0.4382 -0.4148
  259MOL0     H35710   2.183   9.275   6.560  2.0949  1.8893  2.1280
  259MOL0     H35711   2.314   9.204   6.662  0.1538 -0.2424 -1.1286
  259MOL0     H35712   2.151   9.065   6.779  2.2993 -0.7278 -1.0083
  259MOL0     H35713   2.015   9.127   6.695  0.0348  1.7264  0.1996
  259MOL0     H35714   2.136   9.372   6.773 -0.7068 -0.4450 -1.4635
  259MOL0     H35715   2.000   9.283   6.863 -1.7880 -2.2781 -2.7372
  259MOL0     H35716   2.294   9.225   6.907 -1.0599 -5.6512  1.3980
  259MOL0     H35717   2.165   9.144   6.974 -0.2268 -1.6699 -0.9019
  259MOL0     H35718   2.229   9.433   7.009 -1.4183  1.0955  1.8573
  259MOL0     H35719   2.271   9.314   7.136  0.4328  1.5664 -0.8779
  259MOL0     H35720   2.049   9.274   7.188  0.0164 -1.0415 -1.7408
  259MOL0     H35721   1.988   9.366   7.048  1.1012  1.2617 -0.8791
  259MOL0     H35722   2.216   9.367   6.175 -0.6097 -2.5546  0.7398
  259MOL0     H35723   2.308   9.406   5.950  0.9673 -1.1019 -1.3658
  259MOL0     H35724   2.486   9.309   5.589 -0.4730  0.5660  0.5821
  259MOL0     H35725   2.511   9.457   5.387  1.5826  1.6250 -0.7422
  259MOL0     H35726   3.791   8.882   4.854  0.6185 -0.2608 -2.1121
  259MOL0     H35727   3.999   9.014   4.872  1.3830  1.9378 -0.7871
  259MOL0     H35728   4.262   9.345   4.721  0.1548  1.1921 -1.0955
  259MOL0     H35729   4.445   9.499   4.704 -1.3582  3.4535 -1.4780
  259MOL0     H35730   4.556   9.826   4.731 -0.9935  1.4244 -0.4196
  259MOL0     H35731   4.417   9.729   4.680 -1.8219 -1.0455  2.0522
  259MOL0     H35732   4.419   9.928   4.917  2.1283  2.1679 -2.9943
  259MOL0     H35733   4.280   9.831   4.871  1.4238 -1.8131  1.0365
  259MOL0     H35734   4.304  10.066   4.796  5.0185  1.2262  2.5337
  259MOL0     H35735   4.443  10.017   4.696  2.0645 -0.8156  2.8797
  259MOL0     H35736   4.207   9.845   4.644 -2.2565  0.7998  0.2470
  259MOL0     H35737   4.302   9.955   4.540 -2.7982 -1.1523 -0.4192
  259MOL0     H35738   3.961  10.180   4.558 -0.7746  0.7281  0.9056
  259MOL0     H35739   4.349   9.675   5.081 -0.9325 -3.7086  2.4915
  259MOL0     H35740   4.145   9.473   5.225  1.3819 -0.6956 -0.4182
  259MOL0     H35741   4.158   9.642   5.187 -0.7899  0.7541 -1.4141
  259MOL0     H35742   4.028   9.541   5.112 -0.5486 -0.0070  0.0063
  260MOL0     O35743   9.450   9.106   1.065  0.0924  0.6028 -0.2420
  260MOL0     C35744   9.484   9.139   0.952  0.1871 -0.6909  0.8197
  260MOL0     O35745   9.466   9.060   0.848 -0.0804 -0.6240 -0.0939
  260MOL0     C35746   9.455   8.927   0.867 -0.5284  0.0897  0.2104
  260MOL0     C35747   9.535   8.846   0.949 -0.2376  0.0538  0.1705
  260MOL0     C35748   9.526   8.709   0.942 -0.3040 -0.0141  0.3559
  260MOL0     C35749   9.441   8.640   0.858 -0.0583 -0.0191  0.0419
  260MOL0     O35750   9.449   8.501   0.868  0.1684  0.3131  0.3598
  260MOL0     C35751   9.340   8.428   0.808  0.6503  0.3070 -0.0755
  260MOL0     C35752   9.348   8.275   0.827 -0.4224 -0.6031  0.6091
  260MOL0     C35753   9.241   8.201   0.747 -0.4682  0.4258  0.3731
  260MOL0     C35754   9.259   8.050   0.755  0.8664 -0.4756 -0.8631
  260MOL0     C35755   9.365   7.990   0.649  0.5387 -0.0910 -0.4507
  260MOL0     C35756   9.412   7.851   0.693  0.7197  0.4468  0.5603
  260MOL0     C35757   9.511   7.798   0.579  0.1792  0.2746  0.8346
  260MOL0     C35758   9.610   7.685   0.621 -0.4471 -0.6926 -0.5429
  260MOL0     N35759   9.699   7.639   0.520 -0.4206 -1.3775 -0.1067
  260MOL0     C35760   9.820   7.697   0.479 -0.2453 -0.2835  0.3843
  260MOL0     C35761   9.879   7.604   0.403 -0.9935 -0.6889 -0.2660
  260MOL0     C35762  10.015   7.611   0.350 -0.0953 -0.7952 -0.7753
  260MOL0     C35763  10.105   7.508   0.404 -0.0808 -0.2760  0.1921
  260MOL0     C35764  10.134   7.519   0.553  0.0850 -0.1019 -0.5764
  260MOL0     C35765  10.231   7.415   0.612  0.4828  0.1835  0.1662
  260MOL0     O35766  10.366   7.464   0.602  0.4996 -0.2953  0.0664
  260MOL0     C35767  10.423   7.422   0.482  0.9901  0.6617 -0.0130
  260MOL0     C35768  10.461   7.286   0.456  0.2219 -0.8790  0.0457
  260MOL0     C35769  10.528   7.248   0.340 -1.1461  0.2488  0.6098
  260MOL0     C35770  10.572   7.101   0.316 -0.8708 -0.6395 -0.6950
  260MOL0     C35771  10.569   7.341   0.246  0.2960 -0.4924 -0.0370
  260MOL0     C35772  10.626   7.316   0.105  0.4470  0.3575 -0.7306
  260MOL0     O35773  10.672   7.429   0.048  0.5735 -0.2618 -0.0097
  260MOL0     C35774  10.741   7.437  -0.070  0.1782 -0.0703 -0.8957
  260MOL0     C35775  10.698   7.386  -0.190  0.6256  0.6532  0.1202
  260MOL0     C35776  10.783   7.388  -0.297  0.2899  0.3773 -0.3217
  260MOL0     C35777  10.917   7.436  -0.290 -0.4935  0.1327  0.2628
  260MOL0     O35778  11.005   7.419  -0.396 -0.1321  0.5600  0.3199
  260MOL0     C35779  11.043   7.284  -0.422 -0.9394  0.5567  1.2794
  260MOL0     C35780  11.164   7.295  -0.521  0.4537  0.7018  0.0242
  260MOL0     C35781  11.264   7.191  -0.477  0.0172  0.5643  0.5588
  260MOL0     C35782  11.373   7.165  -0.582  1.2414  0.2503  1.3640
  260MOL0     C35783  11.434   7.021  -0.587 -0.1160  0.2378  0.0663
  260MOL0     C35784  11.335   6.911  -0.653 -0.2232  0.1141 -0.0799
  260MOL0     C35785  11.404   6.771  -0.659  0.4565  0.0431  0.5274
  260MOL0     C35786  11.344   6.669  -0.753  0.3301 -0.1827 -0.2012
  260MOL0    Cl35787  11.173   6.616  -0.725 -0.1579 -0.3133  0.3973
  260MOL0     C35788  10.964   7.467  -0.164 -0.7652  0.1219  0.2693
  260MOL0     C35789  10.877   7.472  -0.056 -0.7852  0.2192 -1.1848
  260MOL0     O35790  10.616   7.208   0.043  0.5098 -0.5449 -0.8712
  260MOL0     C35791  10.528   7.476   0.277  0.3506  0.5259  0.1425
  260MOL0     C35792  10.455   7.514   0.389  0.7325 -0.0153  0.8642
  260MOL0     N35793   9.795   7.493   0.400 -0.5619 -0.1135  0.6262
  260MOL0     N35794   9.688   7.519   0.462  0.7817 -0.0022 -0.3807
  260MOL0     C35795   9.357   8.721   0.770 -0.2166 -0.4820  0.5278
  260MOL0     C35796   9.367   8.861   0.776 -0.6428  0.0668 -0.1983
  260MOL0     C35797   9.540   9.276   0.935  0.7149 -0.2241 -0.0809
  260MOL0     C35798   9.597   9.309   0.814 -0.5957 -0.0237  0.6986
  260MOL0     C35799   9.656   9.439   0.798 -0.4975 -0.6911 -0.6472
  260MOL0     C35800   9.667   9.533   0.897  0.4818 -0.5158  0.2582
  260MOL0     O35801   9.727   9.657   0.873 -0.5007  0.2386  0.1338
  260MOL0     C35802   9.751   9.731   0.995 -0.7362 -0.4409  0.8724
  260MOL0     C35803   9.844   9.854   0.985  0.0177  0.3653 -0.0514
  260MOL0     C35804   9.772   9.961   0.895 -0.3192 -0.5404  0.4393
  260MOL0     C35805   9.878  10.061   0.857  0.4650 -0.3196  0.3951
  260MOL0     C35806   9.891  10.171   0.958  0.0481  0.3919  0.2675
  260MOL0     C35807   9.923  10.254   1.047  0.8686  0.4143  0.0220
  260MOL0     C35808   9.583   9.504   1.010  0.1832 -0.7757 -0.1234
  260MOL0     C35809   9.526   9.381   1.032 -0.3886 -0.8212 -0.0503
  260MOL0     C35810   9.438   9.375   1.153 -0.4050 -0.1129  0.7708
  260MOL0     H35811   9.610   8.873   1.023  0.8583 -1.2294 -0.4422
  260MOL0     H35812   9.596   8.651   1.001  0.2460  0.4121  0.1346
  260MOL0     H35813   9.357   8.447   0.702  1.6177  0.8471  0.1622
  260MOL0     H35814   9.244   8.470   0.842  0.5841  1.5857 -1.7054
  260MOL0     H35815   9.452   8.251   0.799  0.1823  2.3575  0.0095
  260MOL0     H35816   9.333   8.269   0.935  0.3821  2.7040  1.0146
  260MOL0     H35817   9.140   8.226   0.779 -0.7975  1.2450 -1.2002
  260MOL0     H35818   9.250   8.250   0.650 -0.5027  3.5620  1.8428
  260MOL0     H35819   9.306   8.031   0.852  1.0120 -1.9240 -1.1961
  260MOL0     H35820   9.161   8.002   0.759 -1.8496  4.4823  1.6648
  260MOL0     H35821   9.448   8.060   0.634  1.1598 -0.5971  0.4908
  260MOL0     H35822   9.319   7.973   0.551 -0.9106  1.4139 -0.0776
  260MOL0     H35823   9.456   7.847   0.793  1.7281 -0.3701  0.1056
  260MOL0     H35824   9.317   7.795   0.689  0.8471  0.2764 -0.3543
  260MOL0     H35825   9.573   7.879   0.538  2.2173 -1.3780  0.4704
  260MOL0     H35826   9.448   7.764   0.496  1.3276 -0.0217  0.0542
  260MOL0     H35827   9.670   7.733   0.698  2.0617 -2.3569 -1.3405
  260MOL0     H35828   9.553   7.601   0.662  0.1799 -1.3660 -1.0225
  260MOL0     H35829   9.871   7.783   0.521 -2.8654  1.4842  0.1864
  260MOL0     H35830  10.053   7.712   0.368 -1.0224 -0.3748 -1.1302
  260MOL0     H35831  10.010   7.602   0.241 -4.8188  0.0334 -0.8267
  260MOL0     H35832  10.067   7.406   0.387  0.3025 -0.5451  0.8877
  260MOL0     H35833  10.198   7.526   0.350 -0.0263 -0.9660  0.0440
  260MOL0     H35834  10.159   7.620   0.588 -4.4061  0.8007  0.6327
  260MOL0     H35835  10.039   7.500   0.603 -1.8433  2.9878 -2.6796
  260MOL0     H35836  10.198   7.394   0.715 -1.6248 -0.9290 -0.6779
  260MOL0     H35837  10.219   7.321   0.558  0.5645  2.3089 -3.8991
  260MOL0     H35838  10.432   7.222   0.539 -0.9938  0.5757  0.7879
  260MOL0     H35839  10.673   7.101   0.274 -0.0959  4.4232  0.4122
  260MOL0     H35840  10.511   7.042   0.247 -0.2434 -1.0911 -0.8636
  260MOL0     H35841  10.568   7.043   0.408 -1.9865  1.8991  0.9699
  260MOL0     H35842  10.599   7.350  -0.215  0.9644  0.6860 -1.3730
  260MOL0     H35843  10.740   7.356  -0.391 -1.9210  2.2815 -0.0480
  260MOL0     H35844  11.072   7.237  -0.328 -3.8470 -0.2779  1.8498
  260MOL0     H35845  10.960   7.236  -0.474  0.0239 -1.3464  1.4279
  260MOL0     H35846  11.117   7.284  -0.619 -0.7169  0.8072  0.5529
  260MOL0     H35847  11.211   7.392  -0.503 -0.3669  0.8411  1.6143
  260MOL0     H35848  11.224   7.092  -0.455  0.6728 -0.1273 -1.1531
  260MOL0     H35849  11.329   7.228  -0.397  2.1733  0.0561 -0.8649
  260MOL0     H35850  11.461   7.226  -0.559  1.2687  1.4505 -1.4215
  260MOL0     H35851  11.338   7.184  -0.684 -0.2126 -1.3571  1.5104
  260MOL0     H35852  11.526   7.022  -0.647 -0.5037 -1.2726 -0.6037
  260MOL0     H35853  11.456   6.996  -0.483 -2.4636 -3.3253 -0.1388
  260MOL0     H35854  11.312   6.953  -0.751  0.9888  0.3668 -0.2632
  260MOL0     H35855  11.238   6.896  -0.604 -1.3567  0.1134 -2.2294
  260MOL0     H35856  11.394   6.740  -0.555  0.8325 -3.6908 -0.4083
  260MOL0     H35857  11.513   6.784  -0.662  0.6036 -0.5849  2.0396
  260MOL0     H35858  11.421   6.592  -0.739  1.3365  0.7373 -0.5064
  260MOL0     H35859  11.366   6.699  -0.856  1.7483 -2.9335 -0.8015
  260MOL0     H35860  11.070   7.489  -0.155  0.4143 -4.2220 -0.4834
  260MOL0     H35861  10.908   7.510   0.040  1.1960 -0.8010 -1.3700
  260MOL0     H35862  10.554   7.548   0.200  0.5653  3.2166  2.5529
  260MOL0     H35863  10.405   7.610   0.393  1.4319  0.3298  4.1022
  260MOL0     H35864   9.291   8.670   0.701  1.5450 -2.4952  0.2359
  260MOL0     H35865   9.301   8.920   0.714  2.0218  2.1245 -1.3257
  260MOL0     H35866   9.605   9.249   0.724  5.2439  0.6340  0.3503
  260MOL0     H35867   9.691   9.466   0.699  0.4801 -1.2519 -0.4739
  260MOL0     H35868   9.650   9.757   1.028 -2.1973 -2.5325 -1.4737
  260MOL0     H35869   9.798   9.666   1.069  3.4391  1.9846  0.6239
  260MOL0     H35870   9.945   9.826   0.956  1.4316  1.2961  3.5083
  260MOL0     H35871   9.867   9.903   1.080 -3.0621  2.8655 -0.3894
  260MOL0     H35872   9.743   9.909   0.803 -4.2894 -1.2919  1.9030
  260MOL0     H35873   9.684  10.006   0.941  2.0871  2.5024  2.4145
  260MOL0     H35874   9.839  10.097   0.761 -1.2175  0.3873  1.2827
  260MOL0     H35875   9.974  10.010   0.853 -1.0112 -3.1733 -1.2461
  260MOL0     H35876   9.939  10.334   1.116 -2.9038  3.4045 -2.1083
  260MOL0     H35877   9.573   9.572   1.094 -2.1997 -0.6412 -0.4429
  260MOL0     H35878   9.478   9.297   1.219  1.9201  0.2806 -0.0667
  260MOL0     H35879   9.414   9.468   1.204  0.5544 -0.3214  1.6256
  260MOL0     H35880   9.337   9.347   1.123 -1.4042  2.2901  1.6560
  261MOL0     O35881   0.640   8.556   8.860 -0.4726  0.3181  0.0629
  261MOL0     C35882   0.684   8.470   8.937  0.8784  0.5328 -0.2947
  261MOL0     O35883   0.801   8.481   9.007 -0.0580  0.0293  0.2077
  261MOL0     C35884   0.870   8.600   8.983  0.0600 -0.7019  0.0227
  261MOL0     C35885   0.844   8.712   9.073 -0.6814  0.7069 -0.8105
  261MOL0     C35886   0.866   8.846   9.034  0.0102  1.1963  0.4631
  261MOL0     C35887   0.944   8.875   8.917  0.1091  0.7828 -0.0908
  261MOL0     O35888   0.997   8.995   8.879 -0.1112 -0.1790 -0.2933
  261MOL0     C35889   0.937   9.128   8.910  0.0180  0.4123  0.5224
  261MOL0     C35890   0.940   9.164   9.057  0.2648 -0.0556  0.2756
  261MOL0     C35891   1.069   9.133   9.129  0.1891 -0.2152 -0.3481
  261MOL0     C35892   1.182   9.242   9.082  0.4246  0.3169  0.3867
  261MOL0     C35893   1.322   9.236   9.143 -0.5990 -0.0619  1.1214
  261MOL0     C35894   1.404   9.355   9.075  0.0115  0.7303  0.0298
  261MOL0     C35895   1.530   9.394   9.138 -0.8569 -0.2328 -1.0909
  261MOL0     C35896   1.506   9.456   9.274  0.9611  0.0725  0.5032
  261MOL0     N35897   1.390   9.539   9.290 -0.6755  0.4839 -0.4731
  261MOL0     C35898   1.362   9.657   9.234 -0.6157 -0.4938  0.3295
  261MOL0     C35899   1.238   9.688   9.274 -0.4212  0.5113  0.4058
  261MOL0     C35900   1.157   9.806   9.237 -0.5164 -0.4209  0.5823
  261MOL0     C35901   1.101   9.889   9.350 -0.1668 -0.2554  0.2280
  261MOL0     C35902   1.201   9.974   9.420  0.4489 -0.5685  0.2266
  261MOL0     C35903   1.237  10.108   9.352 -0.4314 -0.2593 -0.2401
  261MOL0     O35904   1.370  10.153   9.397  0.3224  0.3113 -0.0439
  261MOL0     C35905   1.464  10.118   9.306  0.5654  0.1898  0.3496
  261MOL0     C35906   1.560  10.022   9.340  0.3168 -0.9334  0.8871
  261MOL0     C35907   1.677  10.003   9.272  1.0158 -0.0346 -0.0792
  261MOL0     C35908   1.785   9.906   9.320  0.8670  0.2338 -0.0669
  261MOL0     C35909   1.679  10.062   9.143  0.0028  0.4513 -0.0234
  261MOL0     C35910   1.788  10.021   9.054  0.6921 -0.5820  0.2822
  261MOL0     O35911   1.904  10.092   9.059  0.4634 -0.9979  0.1157
  261MOL0     C35912   2.004  10.073   8.970 -0.1361  0.4044 -0.5928
  261MOL0     C35913   1.997  10.033   8.835  0.3475 -0.4362  0.9688
  261MOL0     C35914   2.114  10.000   8.760  0.7612  0.3922 -0.0223
  261MOL0     C35915   2.241  10.022   8.820  0.6101  0.8251 -0.3424
  261MOL0     O35916   2.360   9.999   8.745  0.9592  0.2434 -0.4111
  261MOL0     C35917   2.444  10.106   8.741 -0.7827  0.1079  0.2866
  261MOL0     C35918   2.590  10.077   8.788 -0.0573 -0.6557 -0.7182
  261MOL0     C35919   2.644   9.967   8.697  0.2692  0.4104  0.3611
  261MOL0     C35920   2.775   9.910   8.748 -0.1176 -0.2931  0.6428
  261MOL0     C35921   2.856   9.837   8.637  0.3458  0.6081  0.8676
  261MOL0     C35922   2.766   9.731   8.554 -0.9306  1.1082 -0.9036
  261MOL0     C35923   2.866   9.622   8.502  0.2895  0.4318  1.0057
  261MOL0     C35924   2.792   9.504   8.447  0.2029 -0.0819  0.6304
  261MOL0    Cl35925   2.715   9.566   8.285 -0.2615  0.3966 -0.2981
  261MOL0     C35926   2.246  10.055   8.954  0.3996 -1.0760  0.1535
  261MOL0     C35927   2.125  10.083   9.031 -0.1884 -0.0918  0.2023
  261MOL0     O35928   1.763   9.930   8.978 -0.5116 -0.5977 -0.2729
  261MOL0     C35929   1.583  10.156   9.099  0.4164 -0.2970  0.8562
  261MOL0     C35930   1.482  10.193   9.183 -0.0298 -0.0151 -0.1578
  261MOL0     N35931   1.191   9.585   9.364 -0.6385 -0.3732  0.3282
  261MOL0     N35932   1.288   9.499   9.378  0.0329 -1.0689 -0.6299
  261MOL0     C35933   0.969   8.762   8.832 -0.6826  0.5776 -0.8981
  261MOL0     C35934   0.933   8.626   8.864  0.3384  0.1392  0.6539
  261MOL0     C35935   0.607   8.345   8.956  0.2020 -0.0027 -0.0473
  261MOL0     C35936   0.476   8.327   8.897 -0.2693 -0.1579 -0.0024
  261MOL0     C35937   0.391   8.209   8.908  0.3787  0.0157  0.1156
  261MOL0     C35938   0.453   8.100   8.962  1.2691 -0.4364  0.0231
  261MOL0     O35939   0.391   7.978   8.969  0.2703  0.2343  0.3908
  261MOL0     C35940   0.271   7.960   8.900  0.5346  0.5889 -0.2974
  261MOL0     C35941   0.225   7.809   8.900 -0.4088  0.4826 -0.5448
  261MOL0     C35942   0.209   7.740   9.032  0.0519  0.1532 -0.0669
  261MOL0     C35943   0.109   7.806   9.129  0.4519 -0.0549 -0.1331
  261MOL0     C35944  -0.020   7.817   9.057 -0.3115 -0.6208 -0.8019
  261MOL0     C35945  -0.126   7.811   9.006 -0.2155  0.5636 -0.6694
  261MOL0     C35946   0.585   8.106   9.019  0.7603  0.0326  0.3681
  261MOL0     C35947   0.661   8.225   9.014  0.2381  0.2636 -0.6745
  261MOL0     C35948   0.795   8.218   9.084  1.0437  0.2699  0.0227
  261MOL0     H35949   0.778   8.678   9.152  2.0078 -2.7627  0.2031
  261MOL0     H35950   0.839   8.927   9.101 -1.3291  0.2351  1.1068
  261MOL0     H35951   0.834   9.124   8.875  0.0439  1.1452  0.3346
  261MOL0     H35952   0.992   9.201   8.849  1.6718 -0.3685  1.0055
  261MOL0     H35953   0.924   9.272   9.065  0.6777 -0.0786  1.5405
  261MOL0     H35954   0.851   9.121   9.104  0.7900 -0.5762  0.7993
  261MOL0     H35955   1.048   9.148   9.236 -2.2214 -0.8912 -0.6674
  261MOL0     H35956   1.110   9.033   9.110  0.9042 -0.2960  1.4257
  261MOL0     H35957   1.191   9.243   8.973  0.3904 -2.1262  0.3160
  261MOL0     H35958   1.152   9.342   9.115  2.5540  1.0379  0.2856
  261MOL0     H35959   1.360   9.136   9.120 -1.8259 -0.3160  0.0423
  261MOL0     H35960   1.320   9.253   9.251 -2.7511  1.2988  0.9336
  261MOL0     H35961   1.422   9.339   8.968  2.1220  2.8486  0.0039
  261MOL0     H35962   1.334   9.438   9.066 -1.1468 -0.2649 -0.4924
  261MOL0     H35963   1.582   9.467   9.075  4.9597 -0.9840  2.0704
  261MOL0     H35964   1.596   9.307   9.144  0.1343  0.2641 -3.3922
  261MOL0     H35965   1.495   9.369   9.339  0.9613 -0.5802 -0.3612
  261MOL0     H35966   1.596   9.507   9.311  1.9041 -1.2698  0.1314
  261MOL0     H35967   1.434   9.725   9.188 -0.4716  0.1133  1.4305
  261MOL0     H35968   1.082   9.769   9.166  0.3381 -0.8473 -0.1128
  261MOL0     H35969   1.217   9.881   9.184 -0.5454 -0.1542  0.9204
  261MOL0     H35970   1.026   9.958   9.311 -2.1767 -2.4878 -0.1471
  261MOL0     H35971   1.055   9.815   9.415 -0.8582  0.5402  0.6580
  261MOL0     H35972   1.182   9.994   9.526 -0.1511  0.5202 -0.0684
  261MOL0     H35973   1.292   9.916   9.440 -0.9765 -3.1552 -0.3701
  261MOL0     H35974   1.237  10.102   9.243  1.4212  0.2087 -0.2978
  261MOL0     H35975   1.162  10.179   9.388  1.2266  1.7048 -0.4532
  261MOL0     H35976   1.543   9.983   9.440 -2.1971  1.4554  1.5127
  261MOL0     H35977   1.850   9.870   9.240 -1.0807 -1.8085 -0.8342
  261MOL0     H35978   1.736   9.821   9.367  0.2560  0.4396 -0.3198
  261MOL0     H35979   1.846   9.948   9.400  1.1573  0.8543 -0.5995
  261MOL0     H35980   1.896  10.026   8.796  0.9483 -0.8080 -0.6163
  261MOL0     H35981   2.114   9.965   8.658 -1.1267 -3.1022  0.9957
  261MOL0     H35982   2.451  10.147   8.640  0.6472 -1.6278 -0.3614
  261MOL0     H35983   2.418  10.188   8.810  1.9045  1.0815  0.2745
  261MOL0     H35984   2.644  10.172   8.787 -0.0460 -0.6016  1.2401
  261MOL0     H35985   2.576  10.050   8.893  1.8134  2.8431  0.5788
  261MOL0     H35986   2.673  10.015   8.603 -0.4339  0.7066  0.2856
  261MOL0     H35987   2.575   9.887   8.665  0.7718  0.7839 -1.7866
  261MOL0     H35988   2.756   9.847   8.835 -0.3422  2.1575  2.4762
  261MOL0     H35989   2.835   9.997   8.778  0.0310  0.0866 -0.6747
  261MOL0     H35990   2.895   9.913   8.568  1.2181 -2.5809 -2.4587
  261MOL0     H35991   2.934   9.786   8.695 -0.9609 -1.1728  1.1391
  261MOL0     H35992   2.716   9.776   8.468 -1.0952  1.1559 -0.7831
  261MOL0     H35993   2.697   9.684   8.624 -0.6493 -0.6157 -1.7284
  261MOL0     H35994   2.921   9.597   8.593 -0.9031 -1.5906  1.2266
  261MOL0     H35995   2.930   9.675   8.431 -3.3416  1.5451 -1.8102
  261MOL0     H35996   2.707   9.477   8.511  0.5490  0.3276  1.2819
  261MOL0     H35997   2.844   9.411   8.421  1.8258  0.2240  2.5241
  261MOL0     H35998   2.331  10.063   9.020 -1.3201  1.2539  2.3078
  261MOL0     H35999   2.146  10.104   9.136 -2.8097 -2.0140  1.2124
  261MOL0     H36000   1.588  10.197   8.998  2.9290 -2.1331  0.1508
  261MOL0     H36001   1.415  10.274   9.156  1.6057  1.7620  0.8687
  261MOL0     H36002   1.014   8.796   8.739  1.8913  2.1111  0.7683
  261MOL0     H36003   0.953   8.557   8.782 -0.3589  2.3528 -1.4998
  261MOL0     H36004   0.439   8.414   8.842 -1.3481  0.3963  1.5381
  261MOL0     H36005   0.302   8.207   8.847  1.0698  0.3543 -0.9288
  261MOL0     H36006   0.189   8.010   8.952 -1.2860 -3.0425  0.6251
  261MOL0     H36007   0.255   7.995   8.798  0.2810  1.4323  0.0267
  261MOL0     H36008   0.294   7.751   8.837  2.7743 -1.1349  3.9339
  261MOL0     H36009   0.129   7.814   8.848  0.3485 -4.0524 -2.9196
  261MOL0     H36010   0.168   7.640   9.011 -3.9373  0.8513  3.0939
  261MOL0     H36011   0.304   7.733   9.086  1.8539  2.2894 -2.6651
  261MOL0     H36012   0.148   7.905   9.152  2.6753 -1.0065  0.5167
  261MOL0     H36013   0.100   7.760   9.228 -3.2234  4.1910  1.8423
  261MOL0     H36014  -0.220   7.822   8.955  0.4192  5.3720 -1.2916
  261MOL0     H36015   0.623   8.020   9.074  2.3777  1.6711  1.9482
  261MOL0     H36016   0.810   8.118   9.125 -0.6741 -0.0847 -0.1320
  261MOL0     H36017   0.885   8.238   9.026  1.9891  2.4765  2.0634
  261MOL0     H36018   0.795   8.299   9.159  1.9644  1.9524 -1.6959
  262MOL0     O36019   0.180   6.182   1.460  0.3877 -0.2704 -0.2531
  262MOL0     C36020   0.122   6.191   1.574  0.7374 -0.1800  0.0985
  262MOL0     O36021   0.041   6.300   1.607 -0.0212  0.4032  0.0100
  262MOL0     C36022   0.000   6.388   1.498 -0.7603 -0.1673 -0.1203
  262MOL0     C36023  -0.058   6.338   1.378  0.6173  0.3335  0.9821
  262MOL0     C36024  -0.097   6.430   1.281 -0.0685  0.0730  0.6812
  262MOL0     C36025  -0.095   6.566   1.311  0.3988  0.4993  0.3582
  262MOL0     O36026  -0.176   6.646   1.227  0.0088  0.5799 -0.0468
  262MOL0     C36027  -0.251   6.741   1.291 -0.1664  0.0896 -1.2468
  262MOL0     C36028  -0.355   6.777   1.198  0.3200 -0.1526 -0.0517
  262MOL0     C36029  -0.469   6.854   1.258 -0.0268 -0.0315 -0.1150
  262MOL0     C36030  -0.429   6.960   1.364 -0.8894 -0.3376  0.3176
  262MOL0     C36031  -0.541   7.064   1.400  0.3244  0.0286  0.0135
  262MOL0     C36032  -0.511   7.149   1.510  0.5441  0.7409 -1.0779
  262MOL0     C36033  -0.645   7.214   1.544  0.1576 -0.4613  1.4055
  262MOL0     C36034  -0.618   7.290   1.681  0.2626  0.5196 -0.1498
  262MOL0     N36035  -0.738   7.339   1.756 -0.1769 -0.6493  1.2585
  262MOL0     C36036  -0.803   7.465   1.752  0.0597 -0.9423 -0.5193
  262MOL0     C36037  -0.909   7.459   1.833 -0.1324 -0.3997  0.4677
  262MOL0     C36038  -0.994   7.581   1.849 -0.3479 -0.2053  1.2495
  262MOL0     C36039  -1.084   7.564   1.967  0.1347 -0.8650 -0.5315
  262MOL0     C36040  -1.177   7.682   1.975 -0.2146 -0.5888 -0.0280
  262MOL0     C36041  -1.098   7.801   2.039  0.6280  0.2877 -0.8033
  262MOL0     O36042  -1.177   7.918   2.063 -0.3293 -0.4396  0.0627
  262MOL0     C36043  -1.148   8.036   2.125  0.5057 -0.7207  0.0470
  262MOL0     C36044  -1.025   8.076   2.170  0.5955 -0.8728  0.1589
  262MOL0     C36045  -1.013   8.196   2.248 -0.3515 -0.4119 -0.0642
  262MOL0     C36046  -0.888   8.241   2.314 -0.6761  0.4028 -0.4564
  262MOL0     C36047  -1.126   8.280   2.267  0.4802  0.0370  0.4063
  262MOL0     C36048  -1.131   8.415   2.336 -0.2777 -0.0493  0.1597
  262MOL0     O36049  -1.228   8.511   2.298 -0.0547 -0.0170 -0.1974
  262MOL0     C36050  -1.267   8.617   2.374 -0.0221 -1.0411 -0.9856
  262MOL0     C36051  -1.292   8.740   2.310  0.3534  0.6780 -0.7139
  262MOL0     C36052  -1.341   8.851   2.388  0.3746  0.2624 -0.0379
  262MOL0     C36053  -1.369   8.823   2.523  0.0718  1.2444  0.8105
  262MOL0     O36054  -1.395   8.924   2.605  1.3558 -0.1290  0.4204
  262MOL0     C36055  -1.509   8.897   2.688 -0.1283 -0.7964 -0.8340
  262MOL0     C36056  -1.521   9.010   2.790  0.4927  0.2397  0.8278
  262MOL0     C36057  -1.387   9.025   2.857  0.9892 -0.2769  0.6189
  262MOL0     C36058  -1.416   9.113   2.970  0.2736 -0.4715 -0.3175
  262MOL0     C36059  -1.286   9.156   3.048  0.2648 -0.1414 -0.2941
  262MOL0     C36060  -1.321   9.261   3.152 -0.3136 -0.1952 -0.1570
  262MOL0     C36061  -1.189   9.282   3.238 -0.4602 -0.6192  0.7774
  262MOL0     C36062  -1.240   9.335   3.375 -0.1886  0.1003 -0.0246
  262MOL0    Cl36063  -1.314   9.501   3.356 -0.1570 -0.2802  0.3370
  262MOL0     C36064  -1.336   8.698   2.589 -0.2146 -0.1211  0.6605
  262MOL0     C36065  -1.288   8.597   2.511  0.1271 -0.0623  0.4048
  262MOL0     O36066  -1.074   8.422   2.444 -0.1685 -0.1019 -0.3417
  262MOL0     C36067  -1.250   8.244   2.199 -0.1661  0.3668 -0.3396
  262MOL0     C36068  -1.265   8.117   2.137  0.1470  0.0313 -0.7014
  262MOL0     N36069  -0.912   7.326   1.874 -0.2582 -0.5374  0.8166
  262MOL0     N36070  -0.812   7.260   1.841 -0.5773 -0.3498  0.5608
  262MOL0     C36071  -0.041   6.609   1.433 -0.4051 -0.0653  0.9853
  262MOL0     C36072   0.017   6.523   1.519 -0.9565 -0.3126 -0.7599
  262MOL0     C36073   0.134   6.082   1.672 -0.3327  0.1934 -1.1301
  262MOL0     C36074   0.152   5.950   1.619 -0.2616  0.3061 -0.5085
  262MOL0     C36075   0.182   5.847   1.698 -0.1590  0.9029 -0.4677
  262MOL0     C36076   0.183   5.862   1.841 -0.0115 -0.8207  1.1179
  262MOL0     O36077   0.208   5.746   1.908  0.5535 -0.4326 -0.1251
  262MOL0     C36078   0.206   5.755   2.053 -0.3486  0.6629 -0.6498
  262MOL0     C36079   0.064   5.746   2.100  0.2523 -0.2515 -0.5257
  262MOL0     C36080   0.051   5.756   2.261 -0.5995 -0.7203  0.6726
  262MOL0     C36081   0.087   5.886   2.334 -0.7898 -0.4476 -0.1946
  262MOL0     C36082  -0.007   5.995   2.304  0.0206  0.4744  0.1776
  262MOL0     C36083  -0.069   6.090   2.272  0.3464 -0.9883  0.1358
  262MOL0     C36084   0.136   5.985   1.891  0.3601  0.3440  0.0685
  262MOL0     C36085   0.109   6.102   1.810  0.3251  0.4223 -0.8819
  262MOL0     C36086   0.080   6.226   1.878 -0.6182  0.7628  0.1664
  262MOL0     H36087  -0.079   6.237   1.345 -0.9019  2.0978 -4.4035
  262MOL0     H36088  -0.150   6.402   1.191 -2.7846  2.1170  1.4849
  262MOL0     H36089  -0.194   6.832   1.309  0.2195 -0.4574  0.5795
  262MOL0     H36090  -0.290   6.703   1.386 -2.0456 -0.4463 -2.1766
  262MOL0     H36091  -0.312   6.827   1.111  0.5664  2.5314  1.5045
  262MOL0     H36092  -0.407   6.682   1.179 -0.8776  0.9165 -2.6029
  262MOL0     H36093  -0.508   6.915   1.175  1.3958  0.4571 -0.4458
  262MOL0     H36094  -0.547   6.803   1.315  0.4738  1.9944  2.5901
  262MOL0     H36095  -0.390   6.908   1.452  1.8547  1.0097 -0.0064
  262MOL0     H36096  -0.341   7.016   1.334 -2.0535  1.0625 -0.6073
  262MOL0     H36097  -0.628   7.003   1.424 -1.4224  1.7090 -1.7570
  262MOL0     H36098  -0.562   7.129   1.315 -1.5544  1.0359  1.1777
  262MOL0     H36099  -0.481   7.094   1.600 -2.2669  1.3084  0.3228
  262MOL0     H36100  -0.427   7.214   1.485  0.7220 -0.1234 -2.8774
  262MOL0     H36101  -0.710   7.127   1.545  2.3516 -2.3122 -1.3090
  262MOL0     H36102  -0.675   7.296   1.478  3.2843  0.7204  1.2529
  262MOL0     H36103  -0.575   7.222   1.755  0.9504  1.0546 -0.0456
  262MOL0     H36104  -0.550   7.376   1.674 -0.8853  1.4951  0.3557
  262MOL0     H36105  -0.777   7.554   1.695  1.7579 -2.0053 -1.5097
  262MOL0     H36106  -1.055   7.605   1.761 -1.4652  2.9503  2.7171
  262MOL0     H36107  -0.913   7.652   1.870  0.4028 -0.4746 -0.4937
  262MOL0     H36108  -1.143   7.474   1.948  2.3971 -2.3275 -0.9488
  262MOL0     H36109  -1.041   7.547   2.066 -2.3987 -0.3031  0.7553
  262MOL0     H36110  -1.236   7.705   1.886 -1.2345 -3.8586 -0.3638
  262MOL0     H36111  -1.261   7.661   2.042 -2.2612  1.1572 -1.8829
  262MOL0     H36112  -1.058   7.750   2.127 -0.0616 -2.7246 -2.0899
  262MOL0     H36113  -1.008   7.820   1.979  2.2253 -0.1749  1.3267
  262MOL0     H36114  -0.939   8.009   2.163  0.8281 -0.4106 -2.5511
  262MOL0     H36115  -0.810   8.165   2.300 -2.7839 -2.1466  0.6624
  262MOL0     H36116  -0.910   8.250   2.420  2.8872 -0.2083  0.4442
  262MOL0     H36117  -0.862   8.338   2.272 -0.1780 -0.1942 -1.5735
  262MOL0     H36118  -1.267   8.751   2.205 -0.5007 -1.0667 -1.1369
  262MOL0     H36119  -1.333   8.952   2.349  3.3397 -0.6314 -2.1054
  262MOL0     H36120  -1.607   8.894   2.640 -1.7832  4.2805  1.5894
  262MOL0     H36121  -1.495   8.812   2.755  3.5030  1.1085  1.1504
  262MOL0     H36122  -1.556   9.105   2.747  0.7606 -0.8205 -1.9575
  262MOL0     H36123  -1.601   8.972   2.854 -2.1843  0.8123 -1.9172
  262MOL0     H36124  -1.323   9.069   2.780 -2.1373  0.2710 -1.8628
  262MOL0     H36125  -1.336   8.934   2.890  1.8067 -0.6567 -1.5731
  262MOL0     H36126  -1.492   9.076   3.039  0.0671  2.0963  0.9558
  262MOL0     H36127  -1.451   9.212   2.941 -0.0101  0.0760  1.7475
  262MOL0     H36128  -1.247   9.070   3.104 -4.1247 -1.4828  1.1637
  262MOL0     H36129  -1.212   9.182   2.972  0.6814 -2.0921 -0.6190
  262MOL0     H36130  -1.402   9.223   3.215 -1.5149  1.8895 -0.3413
  262MOL0     H36131  -1.367   9.353   3.113 -2.8375  0.5211  3.9484
  262MOL0     H36132  -1.127   9.364   3.202 -2.6745  0.8778  0.1614
  262MOL0     H36133  -1.140   9.185   3.250 -3.9987 -2.6623  0.2443
  262MOL0     H36134  -1.156   9.334   3.445  2.1161 -0.7092 -2.6193
  262MOL0     H36135  -1.308   9.264   3.422 -1.3237  0.4072 -1.1417
  262MOL0     H36136  -1.334   8.678   2.696  2.3510 -2.0062  0.3335
  262MOL0     H36137  -1.279   8.497   2.552 -1.0317 -2.5217 -4.4825
  262MOL0     H36138  -1.338   8.307   2.206 -1.1670 -0.8039 -1.7632
  262MOL0     H36139  -1.351   8.075   2.085  0.4740 -0.3650 -0.9329
  262MOL0     H36140  -0.039   6.717   1.444  1.6039  0.3713 -2.2494
  262MOL0     H36141   0.039   6.560   1.619 -0.0916  0.7776 -1.3363
  262MOL0     H36142   0.154   5.931   1.512 -1.1327 -1.8679 -0.1848
  262MOL0     H36143   0.229   5.762   1.650  2.9413  0.4140  3.0218
  262MOL0     H36144   0.260   5.675   2.104 -1.7924  0.8764  1.3420
  262MOL0     H36145   0.246   5.850   2.090  3.3061  0.8621 -4.3608
  262MOL0     H36146   0.026   5.646   2.079  2.6870 -1.3985  0.1604
  262MOL0     H36147   0.004   5.829   2.061  2.0231  1.8400  0.9432
  262MOL0     H36148  -0.051   5.724   2.286 -0.6740 -0.8182  0.2608
  262MOL0     H36149   0.126   5.683   2.293  0.3085 -0.4013 -0.6605
  262MOL0     H36150   0.181   5.930   2.301  1.5418 -3.0707  2.3701
  262MOL0     H36151   0.096   5.872   2.442 -5.1095  0.9409  0.5729
  262MOL0     H36152  -0.132   6.173   2.249  0.2445 -1.2299 -0.4857
  262MOL0     H36153   0.113   5.998   1.997  1.1332 -0.3491  0.3281
  262MOL0     H36154  -0.003   6.275   1.826 -3.5739 -4.0597 -0.2365
  262MOL0     H36155   0.063   6.226   1.986 -0.4860  0.9973  0.1892
  262MOL0     H36156   0.169   6.281   1.846 -0.7843 -0.4752 -2.7606
  263MOL0     O36157   7.383   9.325   7.224  0.2140 -0.0154 -0.1902
  263MOL0     C36158   7.268   9.372   7.183 -0.8628  1.2731 -0.2877
  263MOL0     O36159   7.178   9.298   7.117  0.5064 -0.3566  0.2049
  263MOL0     C36160   7.214   9.183   7.059 -0.3800  0.7478  0.2259
  263MOL0     C36161   7.284   9.079   7.127 -0.3619  0.1081  0.8399
  263MOL0     C36162   7.284   8.946   7.083  0.1359  0.2602  0.5393
  263MOL0     C36163   7.199   8.903   6.970 -0.0522 -1.0579 -1.0921
  263MOL0     O36164   7.195   8.775   6.939  0.5985  0.8859 -0.1634
  263MOL0     C36165   7.068   8.710   6.938  0.2138  0.9863  0.0649
  263MOL0     C36166   7.098   8.576   6.856  1.3645 -0.1013 -1.0147
  263MOL0     C36167   7.156   8.610   6.720 -0.2089  0.5707 -0.0264
  263MOL0     C36168   7.136   8.497   6.627  1.0513  0.3272  0.5961
  263MOL0     C36169   7.159   8.538   6.483  0.2764  0.1961  0.5795
  263MOL0     C36170   7.113   8.416   6.387 -0.5243 -0.2865 -0.6216
  263MOL0     C36171   6.961   8.403   6.383 -0.3920 -0.3330  0.7002
  263MOL0     C36172   6.917   8.294   6.288  0.0460  0.8390 -0.5677
  263MOL0     N36173   6.869   8.191   6.376  0.8595 -0.3662 -1.1668
  263MOL0     C36174   6.930   8.099   6.452  0.2284 -0.1544  0.1176
  263MOL0     C36175   6.838   8.033   6.521 -0.3434  0.8140 -0.1513
  263MOL0     C36176   6.882   7.930   6.626  0.2804 -0.0430 -0.8014
  263MOL0     C36177   6.984   8.002   6.721 -0.3880  0.7602  0.2399
  263MOL0     C36178   7.027   7.915   6.847 -0.3388 -0.0634 -0.2409
  263MOL0     C36179   7.092   7.777   6.805 -0.5621 -1.2004 -0.3913
  263MOL0     O36180   7.138   7.692   6.911 -0.9340  0.4269 -0.7076
  263MOL0     C36181   7.045   7.601   6.968  0.3516 -0.9367 -1.0470
  263MOL0     C36182   7.106   7.499   7.039  0.2592  0.3383  0.3703
  263MOL0     C36183   7.039   7.402   7.108 -0.3315 -0.4135  0.3177
  263MOL0     C36184   7.119   7.305   7.183  0.0924  0.6056  0.8717
  263MOL0     C36185   6.895   7.403   7.112 -0.5435  0.6355  0.7782
  263MOL0     C36186   6.813   7.294   7.180  0.6434  0.4049 -0.3460
  263MOL0     O36187   6.671   7.325   7.196 -0.0103  0.3698 -0.2846
  263MOL0     C36188   6.579   7.245   7.256  0.0319  0.3359 -0.7297
  263MOL0     C36189   6.539   7.115   7.209  0.1157 -0.1811 -0.2698
  263MOL0     C36190   6.436   7.055   7.274  0.9194  0.4770 -0.8695
  263MOL0     C36191   6.371   7.109   7.384  0.5128 -0.2615  0.2120
  263MOL0     O36192   6.258   7.041   7.437 -0.2133 -0.9172 -0.5258
  263MOL0     C36193   6.232   7.049   7.583 -0.2320 -0.7580  0.3072
  263MOL0     C36194   6.089   7.099   7.607 -0.6403 -0.4344  0.2196
  263MOL0     C36195   5.981   7.001   7.572 -0.8971  0.3070  0.5789
  263MOL0     C36196   5.969   6.885   7.688  0.4031  0.1754  0.5161
  263MOL0     C36197   5.849   6.789   7.653 -0.2390 -0.4235 -0.8638
  263MOL0     C36198   5.888   6.674   7.553  0.5151  0.1473 -0.0386
  263MOL0     C36199   5.768   6.596   7.511 -0.0035  0.3064  0.0099
  263MOL0     C36200   5.785   6.530   7.383  0.5517 -0.5776 -0.6069
  263MOL0    Cl36201   5.944   6.431   7.384  0.4584  0.1610  0.2843
  263MOL0     C36202   6.413   7.236   7.439 -0.1768 -0.1113  0.0901
  263MOL0     C36203   6.525   7.295   7.375  0.5881 -1.0298  0.4131
  263MOL0     O36204   6.862   7.197   7.227  0.4696  0.6302 -0.3699
  263MOL0     C36205   6.831   7.497   7.035  0.2169 -0.2621 -0.6493
  263MOL0     C36206   6.906   7.593   6.960  0.0072  0.1663 -0.3212
  263MOL0     N36207   6.710   8.073   6.491  0.8641  0.2971  0.4956
  263MOL0     N36208   6.731   8.175   6.413 -0.5095  0.6345 -0.2989
  263MOL0     C36209   7.120   9.005   6.912 -0.3987 -0.0370  0.1495
  263MOL0     C36210   7.129   9.141   6.953  0.3304 -0.4224 -0.1341
  263MOL0     C36211   7.238   9.519   7.214  0.3042  0.5579  0.5383
  263MOL0     C36212   7.122   9.566   7.145  0.0457  0.0010  0.7472
  263MOL0     C36213   7.079   9.702   7.150 -0.3634  0.6159 -0.0334
  263MOL0     C36214   7.152   9.799   7.225 -0.6532  1.3440 -0.2405
  263MOL0     O36215   7.124   9.934   7.222 -0.5931  0.0020 -0.1057
  263MOL0     C36216   7.047   9.983   7.119  0.0717 -0.0365  0.3590
  263MOL0     C36217   7.070  10.142   7.113 -0.5653 -1.1583 -0.3977
  263MOL0     C36218   7.203  10.205   7.066  0.1742  0.7022  0.5943
  263MOL0     C36219   7.233  10.170   6.916  0.2382  0.7656  0.1247
  263MOL0     C36220   7.353  10.236   6.876  0.1372 -0.9515  0.5748
  263MOL0     C36221   7.468  10.274   6.846  0.2330  0.2130  0.2941
  263MOL0     C36222   7.259   9.748   7.306  0.2204 -1.0217 -0.5289
  263MOL0     C36223   7.310   9.617   7.297  0.7229 -0.0168 -0.1425
  263MOL0     C36224   7.434   9.582   7.374  0.3091 -0.2996 -0.0129
  263MOL0     H36225   7.349   9.096   7.212 -0.1334 -0.4919  0.7916
  263MOL0     H36226   7.351   8.885   7.142 -0.5389  0.5831  1.6736
  263MOL0     H36227   7.003   8.776   6.880 -0.4394  1.2409  1.0615
  263MOL0     H36228   7.026   8.698   7.039 -2.4242  0.3005 -1.0242
  263MOL0     H36229   7.166   8.508   6.909  0.2837 -3.5861 -3.7459
  263MOL0     H36230   7.003   8.525   6.841  0.6486  1.7999 -3.6623
  263MOL0     H36231   7.097   8.690   6.674 -1.3389  1.2658  2.5026
  263MOL0     H36232   7.260   8.642   6.722  1.0379 -2.0185 -5.2056
  263MOL0     H36233   7.215   8.425   6.650 -1.4002 -1.4658  4.5829
  263MOL0     H36234   7.044   8.440   6.646  0.5697  0.5016 -1.0568
  263MOL0     H36235   7.262   8.569   6.463  0.3741  0.4934  1.5085
  263MOL0     H36236   7.089   8.618   6.457 -1.3128 -1.2911  0.1241
  263MOL0     H36237   7.153   8.435   6.287 -0.8773  1.4364 -0.4727
  263MOL0     H36238   7.160   8.325   6.424  0.9324  1.4397  2.1174
  263MOL0     H36239   6.915   8.489   6.332 -0.2849 -0.0775  1.0296
  263MOL0     H36240   6.916   8.406   6.482 -1.8560  3.1362  0.0888
  263MOL0     H36241   6.829   8.325   6.232 -0.1950  2.1036  0.4774
  263MOL0     H36242   6.995   8.257   6.221 -0.0149  0.6539 -0.5369
  263MOL0     H36243   7.037   8.091   6.467  0.2258  1.6844  1.5769
  263MOL0     H36244   6.918   7.840   6.576  0.1199  0.4888 -1.9021
  263MOL0     H36245   6.790   7.899   6.677  0.9512 -1.6593 -0.4947
  263MOL0     H36246   7.081   8.018   6.674 -0.8070  3.5651  0.1611
  263MOL0     H36247   6.947   8.101   6.751  1.0241  0.9859  1.3324
  263MOL0     H36248   7.097   7.960   6.918 -1.1946 -0.6177  0.9893
  263MOL0     H36249   6.938   7.894   6.908 -2.5032  3.0963 -2.0467
  263MOL0     H36250   7.013   7.722   6.752 -1.0559 -1.2124  0.3472
  263MOL0     H36251   7.176   7.795   6.737 -1.2543 -1.8609 -1.4690
  263MOL0     H36252   7.214   7.507   7.037  0.6031 -1.8627 -3.8736
  263MOL0     H36253   7.084   7.202   7.186 -0.8046  0.8027 -1.4624
  263MOL0     H36254   7.110   7.340   7.287 -2.5278  2.4800  0.1129
  263MOL0     H36255   7.221   7.295   7.145 -0.6113 -0.8077 -0.7733
  263MOL0     H36256   6.597   7.064   7.132  1.5594  0.1647  0.5349
  263MOL0     H36257   6.401   6.953   7.260  1.5128  0.1184  0.1709
  263MOL0     H36258   6.246   6.948   7.622  1.0400  0.0988  2.1987
  263MOL0     H36259   6.298   7.123   7.629 -1.6259 -2.0501  4.9164
  263MOL0     H36260   6.092   7.126   7.713  4.4152  3.1202 -0.4432
  263MOL0     H36261   6.079   7.182   7.536  1.7577  0.0501  0.3599
  263MOL0     H36262   5.995   6.944   7.480  0.2229  1.1726  0.1882
  263MOL0     H36263   5.885   7.055   7.572  0.6097  3.2090 -0.0298
  263MOL0     H36264   5.944   6.941   7.779 -0.0436 -0.2024  0.6344
  263MOL0     H36265   6.066   6.836   7.698  0.9900  1.5594  1.9774
  263MOL0     H36266   5.825   6.741   7.748  0.0891 -0.4688 -0.8033
  263MOL0     H36267   5.757   6.843   7.625 -0.3474 -0.2684 -0.2301
  263MOL0     H36268   5.956   6.607   7.606  4.2442  4.1605  0.8021
  263MOL0     H36269   5.933   6.720   7.464 -1.1295  1.9241 -0.0227
  263MOL0     H36270   5.675   6.654   7.505  0.6613  1.7317  2.2096
  263MOL0     H36271   5.745   6.529   7.594  0.1825  0.4172  0.1523
  263MOL0     H36272   5.774   6.604   7.303 -2.9631  0.0059  0.2416
  263MOL0     H36273   5.703   6.459   7.371 -1.6563  2.0893 -2.6023
  263MOL0     H36274   6.367   7.284   7.524  0.4209 -1.5370  1.2447
  263MOL0     H36275   6.594   7.367   7.417  0.0644 -1.8902  2.8716
  263MOL0     H36276   6.724   7.502   7.022  0.2559 -0.1152 -0.9157
  263MOL0     H36277   6.844   7.667   6.910  0.3098  1.4403  1.1343
  263MOL0     H36278   7.075   8.981   6.816 -0.8030 -0.6973  0.4970
  263MOL0     H36279   7.072   9.210   6.893  1.6495  0.5862 -0.2621
  263MOL0     H36280   7.045   9.503   7.102 -1.4885  2.5132 -0.4252
  263MOL0     H36281   6.992   9.721   7.089 -3.2254 -0.3705  3.4553
  263MOL0     H36282   7.078   9.935   7.025  1.9450  3.1208 -0.8060
  263MOL0     H36283   6.942   9.963   7.139  0.0574  1.2785  1.7735
  263MOL0     H36284   7.035  10.184   7.208  0.6432  1.1729 -0.9024
  263MOL0     H36285   6.999  10.182   7.040  0.1797  0.3705 -0.3352
  263MOL0     H36286   7.199  10.314   7.078 -3.3304  0.5376  2.2225
  263MOL0     H36287   7.279  10.179   7.140 -2.4952  1.0898  3.6806
  263MOL0     H36288   7.153  10.198   6.846  1.4836 -0.4599 -1.8991
  263MOL0     H36289   7.246  10.063   6.895 -1.7788  0.7784 -1.5123
  263MOL0     H36290   7.565  10.297   6.806 -1.1883  0.6190 -3.3248
  263MOL0     H36291   7.321   9.815   7.365  1.6448 -2.0636 -0.7810
  263MOL0     H36292   7.519   9.612   7.312 -1.5250  4.3837 -0.6902
  263MOL0     H36293   7.438   9.648   7.461 -0.8029  0.2856 -0.3870
  263MOL0     H36294   7.431   9.479   7.410 -1.4707  0.4423  2.1869
  264MOL0     O36295  11.497  10.870   4.196  0.7654  0.7142 -0.4408
  264MOL0     C36296  11.451  10.839   4.084  0.0982  1.0467  0.2583
  264MOL0     O36297  11.320  10.854   4.045 -0.3972  0.5594  0.1237
  264MOL0     C36298  11.232  10.888   4.144 -0.6537 -0.5331  0.0138
  264MOL0     C36299  11.165  10.788   4.205  0.5722  0.1967 -0.3485
  264MOL0     C36300  11.070  10.815   4.313  0.5377  1.0934  0.9769
  264MOL0     C36301  11.040  10.949   4.344  0.9656 -0.0246  0.1785
  264MOL0     O36302  10.942  10.956   4.438  0.4567  0.2645  0.2936
  264MOL0     C36303  10.926  11.091   4.504  1.4140  1.0703 -0.4472
  264MOL0     C36304  10.796  11.080   4.585 -0.0235 -0.5821 -0.6190
  264MOL0     C36305  10.664  11.078   4.507  0.2291  0.0974  0.1392
  264MOL0     C36306  10.636  11.215   4.442 -0.3511 -0.5643  0.1383
  264MOL0     C36307  10.501  11.267   4.447  1.2395 -0.5150 -0.3572
  264MOL0     C36308  10.425  11.231   4.315 -1.4477 -0.3681  0.2884
  264MOL0     C36309  10.295  11.309   4.314  0.6738 -0.3177  0.3138
  264MOL0     C36310  10.199  11.265   4.418  1.3051  0.0978 -0.4640
  264MOL0     N36311  10.157  11.122   4.395  0.8698 -0.3917 -0.3272
  264MOL0     C36312  10.186  11.039   4.289  0.5903  1.2947  0.0747
  264MOL0     C36313  10.097  10.943   4.315  0.0605 -0.0536 -0.4399
  264MOL0     C36314  10.074  10.824   4.233  0.5426 -0.1816  0.5370
  264MOL0     C36315  10.191  10.727   4.254 -0.0405 -0.0036  0.8326
  264MOL0     C36316  10.225  10.640   4.117  0.0500 -1.2253 -0.9995
  264MOL0     C36317  10.291  10.732   4.017  0.0147  0.0677  0.1952
  264MOL0     O36318  10.399  10.820   4.073 -0.3359 -0.0606 -0.2642
  264MOL0     C36319  10.496  10.851   3.987 -0.7699  0.3410  1.4182
  264MOL0     C36320  10.626  10.843   4.036  1.3697  0.0221  0.1306
  264MOL0     C36321  10.741  10.872   3.959 -0.3221 -0.5359 -0.1154
  264MOL0     C36322  10.874  10.846   4.017 -0.7483 -0.3893 -0.2590
  264MOL0     C36323  10.735  10.912   3.826  0.5322 -0.2001 -0.5495
  264MOL0     C36324  10.848  10.951   3.730  0.5717  0.1078 -0.9404
  264MOL0     O36325  10.976  10.925   3.770  0.7423  0.4209  0.3836
  264MOL0     C36326  11.088  10.926   3.685 -0.2487 -0.1768  0.7908
  264MOL0     C36327  11.205  10.952   3.749  0.3709  0.3134  0.3843
  264MOL0     C36328  11.316  10.955   3.666  0.3027 -0.6016 -0.7066
  264MOL0     C36329  11.309  10.928   3.529  0.4514  0.3310  0.3726
  264MOL0     O36330  11.423  10.940   3.459  0.0104  0.7950  0.2513
  264MOL0     C36331  11.429  10.958   3.316 -0.5217  0.2177  0.8899
  264MOL0     C36332  11.561  11.018   3.261  0.1681  0.4185  0.2587
  264MOL0     C36333  11.559  11.165   3.218 -0.1261 -0.3329  0.2271
  264MOL0     C36334  11.667  11.218   3.117 -1.1591  0.4258 -0.6969
  264MOL0     C36335  11.809  11.266   3.174 -0.3342  0.9577  0.6774
  264MOL0     C36336  11.894  11.321   3.066 -0.5157  0.0465 -0.0478
  264MOL0     C36337  11.843  11.443   3.003 -1.1322 -0.4213  0.2920
  264MOL0     C36338  11.952  11.495   2.899  0.6683  0.1381  0.1278
  264MOL0    Cl36339  12.004  11.361   2.764 -0.0186  0.1888 -0.1160
  264MOL0     C36340  11.188  10.887   3.469 -0.3349  0.1230  0.7201
  264MOL0     C36341  11.077  10.894   3.550 -0.7015  0.0495  0.2378
  264MOL0     O36342  10.813  10.990   3.618 -1.2200 -0.5062  0.8165
  264MOL0     C36343  10.605  10.937   3.774 -0.3748 -0.2691 -0.8985
  264MOL0     C36344  10.489  10.907   3.850  0.9940  0.3967 -0.4938
  264MOL0     N36345  10.027  10.969   4.427 -0.1079 -0.2533  0.9114
  264MOL0     N36346  10.060  11.077   4.477  0.2523  0.2809 -0.0414
  264MOL0     C36347  11.113  11.050   4.273  0.2990 -0.6438 -0.1279
  264MOL0     C36348  11.198  11.025   4.165 -0.6218 -0.2038 -0.6353
  264MOL0     C36349  11.550  10.807   3.977 -0.4765  0.1561 -1.5241
  264MOL0     C36350  11.519  10.698   3.888  0.3660 -0.1819 -0.9461
  264MOL0     C36351  11.599  10.665   3.784 -0.0538 -1.4241  0.1246
  264MOL0     C36352  11.719  10.736   3.760  0.7105  0.2433  0.2775
  264MOL0     O36353  11.800  10.687   3.660  0.2832 -0.4946 -1.0032
  264MOL0     C36354  11.909  10.781   3.622  0.4250  0.0624 -0.2844
  264MOL0     C36355  11.985  10.725   3.506  0.6579 -0.1987 -0.1353
  264MOL0     C36356  12.007  10.831   3.397  0.2148  0.2661  0.5644
  264MOL0     C36357  12.067  10.771   3.268 -0.1883  1.0136  0.1501
  264MOL0     C36358  11.985  10.673   3.192 -0.1268 -0.7458  0.9622
  264MOL0     C36359  11.915  10.593   3.137 -0.3244 -0.5545  0.2775
  264MOL0     C36360  11.750  10.842   3.846  0.3286 -0.2239  0.0953
  264MOL0     C36361  11.674  10.875   3.961 -0.9512 -0.8782 -0.2398
  264MOL0     C36362  11.726  10.996   4.043 -0.7726 -0.5673  0.7397
  264MOL0     H36363  11.186  10.686   4.177  2.9666 -0.1274  2.3022
  264MOL0     H36364  11.014  10.733   4.358  0.4563  1.9060  2.4276
  264MOL0     H36365  10.911  11.173   4.433 -0.5226  0.3172 -0.9692
  264MOL0     H36366  11.008  11.106   4.575  2.3143 -0.1186 -1.1892
  264MOL0     H36367  10.804  10.991   4.649 -0.6329 -0.3973 -0.2822
  264MOL0     H36368  10.793  11.163   4.656  1.2818 -2.1163  1.3372
  264MOL0     H36369  10.685  11.004   4.431  0.7663  0.2411  0.1434
  264MOL0     H36370  10.592  11.040   4.580  1.7085 -1.2848  0.9570
  264MOL0     H36371  10.698  11.280   4.504 -0.2872  1.0651 -1.5316
  264MOL0     H36372  10.673  11.219   4.339 -1.8648 -0.1043 -0.4107
  264MOL0     H36373  10.502  11.376   4.450 -1.7870 -0.3828 -0.4966
  264MOL0     H36374  10.444  11.243   4.538 -0.1371  4.4502  0.4033
  264MOL0     H36375  10.500  11.255   4.240  0.9738 -2.9792  1.6479
  264MOL0     H36376  10.396  11.125   4.317  0.8895 -1.1134 -1.2141
  264MOL0     H36377  10.255  11.304   4.213  0.8396  0.7115  0.1864
  264MOL0     H36378  10.326  11.410   4.340 -2.1010  1.3705 -2.3543
  264MOL0     H36379  10.236  11.284   4.519 -0.9785  0.2433  0.3996
  264MOL0     H36380  10.114  11.326   4.385  1.3779  1.4618  1.6217
  264MOL0     H36381  10.258  11.029   4.209 -1.1776 -1.7176 -1.3312
  264MOL0     H36382  10.061  10.853   4.128  0.0747  0.8789  0.8760
  264MOL0     H36383   9.984  10.772   4.265  0.0521  0.7148  0.6683
  264MOL0     H36384  10.288  10.759   4.294  0.4110 -0.4935  0.1704
  264MOL0     H36385  10.165  10.673   4.345  3.1529  0.9849  2.4915
  264MOL0     H36386  10.300  10.561   4.124  1.2497  0.0180  2.5851
  264MOL0     H36387  10.131  10.596   4.082 -2.0690  2.3933 -0.4131
  264MOL0     H36388  10.332  10.666   3.940  0.2727 -2.1868  2.1561
  264MOL0     H36389  10.221  10.799   3.965  0.3293 -0.0747 -0.4122
  264MOL0     H36390  10.649  10.814   4.138  2.7199  2.6644  0.6882
  264MOL0     H36391  10.869  10.818   4.123 -2.5283  1.3354  0.1686
  264MOL0     H36392  10.942  10.931   4.019 -3.0044  1.5106 -1.0039
  264MOL0     H36393  10.915  10.763   3.959 -1.8592 -2.3243  1.5635
  264MOL0     H36394  11.218  10.982   3.852  1.6381 -1.8951  0.9386
  264MOL0     H36395  11.418  10.972   3.700  0.8497 -1.7126 -1.7339
  264MOL0     H36396  11.404  10.869   3.257  0.6768  0.9471 -0.7975
  264MOL0     H36397  11.356  11.033   3.283  2.1837  2.6642  0.1014
  264MOL0     H36398  11.649  11.001   3.323 -1.9215 -1.5250  2.9043
  264MOL0     H36399  11.583  10.962   3.169  3.9788 -0.6800  1.6602
  264MOL0     H36400  11.564  11.227   3.309 -1.9751  1.2860 -0.7038
  264MOL0     H36401  11.459  11.186   3.181 -1.5381 -1.1116  3.2993
  264MOL0     H36402  11.623  11.308   3.073  0.6142  2.2535  1.0689
  264MOL0     H36403  11.677  11.137   3.044  0.0451 -1.8937  1.8538
  264MOL0     H36404  11.795  11.343   3.251  1.9984  0.5049  1.6408
  264MOL0     H36405  11.866  11.183   3.216 -1.3803 -0.0857  0.0884
  264MOL0     H36406  11.921  11.238   3.000 -1.0501  0.3343 -0.6334
  264MOL0     H36407  11.990  11.346   3.113 -0.1609 -4.4529  2.2104
  264MOL0     H36408  11.831  11.526   3.073  0.6030  2.0688 -2.1011
  264MOL0     H36409  11.757  11.401   2.950  0.0312 -3.8548  0.8344
  264MOL0     H36410  12.030  11.540   2.962 -0.0347 -1.1543  2.0243
  264MOL0     H36411  11.903  11.582   2.855 -1.5636 -0.0355  2.0229
  264MOL0     H36412  11.169  10.859   3.366 -0.5092 -0.3817  0.8877
  264MOL0     H36413  10.985  10.869   3.497  0.1764 -0.8158 -0.9291
  264MOL0     H36414  10.596  10.987   3.679  1.6790  0.6723 -0.6503
  264MOL0     H36415  10.388  10.920   3.812  0.4186 -1.9159  0.0909
  264MOL0     H36416  11.099  11.156   4.294 -0.9901 -1.0646  1.3213
  264MOL0     H36417  11.252  11.100   4.109 -0.5683  0.7467  0.6515
  264MOL0     H36418  11.433  10.641   3.920 -0.9403  2.8448  1.4316
  264MOL0     H36419  11.563  10.578   3.729 -3.1797  1.2549 -2.4920
  264MOL0     H36420  11.854  10.872   3.596  0.7730  0.6153  0.8663
  264MOL0     H36421  11.977  10.809   3.703 -0.0068 -0.6899  0.3567
  264MOL0     H36422  11.927  10.641   3.465 -3.3151  1.9527  0.5762
  264MOL0     H36423  12.082  10.688   3.541  0.2282 -3.8587 -2.2897
  264MOL0     H36424  11.913  10.879   3.367 -1.0017  1.6594  5.6978
  264MOL0     H36425  12.070  10.908   3.441 -1.6768  0.5882  2.9000
  264MOL0     H36426  12.155  10.717   3.303 -1.1333 -0.2801  0.6262
  264MOL0     H36427  12.099  10.851   3.201  0.4865  0.2721 -0.4373
  264MOL0     H36428  11.853  10.528   3.079 -1.6742  1.4557 -0.6244
  264MOL0     H36429  11.846  10.892   3.835 -0.4233  1.3589  0.4456
  264MOL0     H36430  11.660  11.083   4.044  1.8139  1.7219 -2.9342
  264MOL0     H36431  11.759  10.959   4.141  1.5199  0.5227  0.4397
  264MOL0     H36432  11.821  11.023   3.997 -1.7350  3.8209  0.9038
  265MOL0     O36433   1.610   9.129   2.321  0.5384 -0.2677  0.1960
  265MOL0     C36434   1.598   9.103   2.442 -1.1496  0.6804  0.1878
  265MOL0     O36435   1.623   8.975   2.492 -0.5874  0.0975  0.1408
  265MOL0     C36436   1.614   8.870   2.398 -0.3854 -0.0758  0.2316
  265MOL0     C36437   1.523   8.849   2.292  0.1769  0.1759 -0.1862
  265MOL0     C36438   1.563   8.760   2.185  0.5616  0.0806  0.0642
  265MOL0     C36439   1.683   8.701   2.177  0.0964 -1.0687  0.3375
  265MOL0     O36440   1.731   8.633   2.070 -0.0459  0.3369  0.5180
  265MOL0     C36441   1.643   8.649   1.953  0.4878 -0.5053 -0.5677
  265MOL0     C36442   1.697   8.564   1.840  0.5532 -0.4285  0.4819
  265MOL0     C36443   1.832   8.609   1.791  0.3546  0.7196 -0.9536
  265MOL0     C36444   1.895   8.503   1.698  0.0558  0.0456  0.0894
  265MOL0     C36445   1.915   8.552   1.546  0.6043  0.0745 -0.0365
  265MOL0     C36446   2.035   8.473   1.494 -0.3425 -0.4216 -0.2939
  265MOL0     C36447   2.051   8.499   1.344 -0.1844 -0.8209  1.0110
  265MOL0     C36448   2.178   8.433   1.292 -0.4823  0.4561  0.5027
  265MOL0     N36449   2.207   8.457   1.146 -0.0424  0.5442 -0.3324
  265MOL0     C36450   2.203   8.582   1.092  0.7111  0.3184  0.0503
  265MOL0     C36451   2.204   8.562   0.956 -0.5086  0.2149  0.6383
  265MOL0     C36452   2.172   8.673   0.862 -0.8306  0.2426 -0.6135
  265MOL0     C36453   2.023   8.705   0.850 -0.2071  0.0247 -0.2434
  265MOL0     C36454   1.981   8.795   0.966 -0.3181  0.4095  0.2566
  265MOL0     C36455   1.834   8.849   0.945  0.8086  0.3580 -0.3434
  265MOL0     O36456   1.821   8.947   0.835 -0.6993 -0.5981 -0.3165
  265MOL0     C36457   1.696   8.963   0.775 -0.3549  0.5546  0.5655
  265MOL0     C36458   1.572   8.920   0.830 -0.7467  0.0252  0.1065
  265MOL0     C36459   1.451   8.948   0.761  0.4153 -0.0594 -0.4239
  265MOL0     C36460   1.327   8.871   0.809 -1.2461  0.6135  0.3340
  265MOL0     C36461   1.449   9.039   0.650  0.8104 -0.7946 -0.3083
  265MOL0     C36462   1.320   9.095   0.588 -0.0155  0.1146  0.4853
  265MOL0     O36463   1.326   9.144   0.458  0.3006 -1.2884 -0.2672
  265MOL0     C36464   1.227   9.212   0.393 -0.2107  0.1298 -0.1782
  265MOL0     C36465   1.086   9.205   0.410  0.3901 -0.3501  0.1942
  265MOL0     C36466   1.002   9.289   0.341  0.2622 -0.4468 -0.4164
  265MOL0     C36467   1.058   9.371   0.244 -0.2778 -1.3194  0.4703
  265MOL0     O36468   0.980   9.466   0.191  0.1833 -0.7748 -1.2461
  265MOL0     C36469   0.982   9.490   0.055 -0.0221  0.0574  0.4434
  265MOL0     C36470   0.949   9.361  -0.010  0.4440 -0.5186  0.3008
  265MOL0     C36471   0.890   9.400  -0.139 -0.2985  0.0876 -1.4342
  265MOL0     C36472   0.835   9.276  -0.202 -0.1456 -0.2870 -0.0225
  265MOL0     C36473   0.848   9.273  -0.347 -0.0149 -1.2933  0.4210
  265MOL0     C36474   0.775   9.378  -0.423  0.3523  0.4723  0.3004
  265MOL0     C36475   0.877   9.482  -0.494  0.1618 -0.7670 -0.4086
  265MOL0     C36476   0.937   9.418  -0.626  0.5125 -0.9853 -1.3956
  265MOL0    Cl36477   0.812   9.427  -0.756  0.0948 -0.0497 -0.1124
  265MOL0     C36478   1.189   9.380   0.217 -0.0505  0.4017 -0.7302
  265MOL0     C36479   1.275   9.294   0.290 -0.9698  0.8023 -0.4828
  265MOL0     O36480   1.220   9.092   0.654  0.1811  0.3375 -0.2145
  265MOL0     C36481   1.567   9.079   0.591 -1.1023  0.5500 -0.8923
  265MOL0     C36482   1.689   9.051   0.659  0.4653  0.0126 -0.5240
  265MOL0     N36483   2.226   8.429   0.926  0.2589 -0.4066 -0.2758
  265MOL0     N36484   2.221   8.367   1.045  0.2294 -0.3857  0.1486
  265MOL0     C36485   1.765   8.714   2.289 -1.0788 -0.0021  0.1502
  265MOL0     C36486   1.733   8.791   2.397  0.1927  0.4386 -0.8209
  265MOL0     C36487   1.581   9.222   2.532  0.4278  0.3187  0.0107
  265MOL0     C36488   1.562   9.354   2.487  0.1077  0.1193 -0.2093
  265MOL0     C36489   1.545   9.464   2.572  0.2513 -0.0688 -0.4669
  265MOL0     C36490   1.541   9.447   2.711  0.3496 -0.0304  0.0670
  265MOL0     O36491   1.537   9.551   2.800 -0.2711  0.1535  0.3472
  265MOL0     C36492   1.594   9.542   2.930  0.0470  1.3494  0.4185
  265MOL0     C36493   1.606   9.682   2.998 -0.2476 -1.3167 -0.0593
  265MOL0     C36494   1.679   9.660   3.132  0.1312  0.1159 -0.4965
  265MOL0     C36495   1.706   9.784   3.212 -0.2794  0.5082 -0.2369
  265MOL0     C36496   1.580   9.835   3.260  0.1963 -0.2417 -0.2898
  265MOL0     C36497   1.458   9.855   3.282 -0.1621  0.1224 -0.4992
  265MOL0     C36498   1.547   9.316   2.759 -0.5062 -0.0979  0.8613
  265MOL0     C36499   1.559   9.201   2.677 -0.3238 -0.7047  0.1623
  265MOL0     C36500   1.524   9.069   2.749 -0.0042 -0.1077 -0.0017
  265MOL0     H36501   1.432   8.907   2.278 -0.3542 -0.6938 -0.4018
  265MOL0     H36502   1.478   8.741   2.119  0.4348 -0.8194  0.4598
  265MOL0     H36503   1.638   8.753   1.921  0.7702 -0.3899 -0.2431
  265MOL0     H36504   1.542   8.609   1.964 -0.6628  1.4781 -3.0937
  265MOL0     H36505   1.715   8.467   1.886  3.0550 -0.3035 -0.0840
  265MOL0     H36506   1.622   8.554   1.761 -1.2518 -0.1086  2.0793
  265MOL0     H36507   1.823   8.708   1.745  2.7087  1.6377  0.3642
  265MOL0     H36508   1.902   8.620   1.875  0.8444  1.2570 -1.4235
  265MOL0     H36509   1.987   8.470   1.747  0.1155  0.3333  0.1744
  265MOL0     H36510   1.836   8.411   1.697 -0.3809  0.2429  2.2303
  265MOL0     H36511   1.941   8.657   1.531  2.4754 -0.2759  0.5118
  265MOL0     H36512   1.826   8.529   1.485 -1.0699 -1.3702  2.7167
  265MOL0     H36513   2.126   8.499   1.548 -0.2493 -0.3427 -0.4876
  265MOL0     H36514   1.999   8.372   1.513 -1.3000 -0.2139 -0.9278
  265MOL0     H36515   2.058   8.606   1.325  0.1988 -1.0979 -0.5419
  265MOL0     H36516   1.967   8.464   1.284  0.7372  0.0789 -0.8835
  265MOL0     H36517   2.265   8.474   1.345 -1.0829  2.1204  0.2376
  265MOL0     H36518   2.189   8.328   1.322  5.2305 -0.1113 -2.1605
  265MOL0     H36519   2.196   8.671   1.154  4.1945 -0.9680  2.5885
  265MOL0     H36520   2.214   8.650   0.764  3.6914 -3.5704  1.7393
  265MOL0     H36521   2.228   8.759   0.900 -2.5465  0.7124  1.0339
  265MOL0     H36522   2.013   8.769   0.762  3.0478  1.6129  0.4107
  265MOL0     H36523   1.968   8.610   0.844  1.6989 -1.0531 -2.1055
  265MOL0     H36524   1.982   8.750   1.066 -2.5397 -0.5689 -0.0810
  265MOL0     H36525   2.059   8.871   0.964  1.4855 -1.1965  2.6644
  265MOL0     H36526   1.780   8.758   0.914  2.1155 -0.2869 -0.8282
  265MOL0     H36527   1.792   8.891   1.036 -1.1590 -0.6471 -0.7181
  265MOL0     H36528   1.592   8.868   0.922  0.9025  1.8456  0.8487
  265MOL0     H36529   1.255   8.852   0.729  1.5228  1.9785 -2.7146
  265MOL0     H36530   1.266   8.919   0.886  1.9769  0.0893  3.5185
  265MOL0     H36531   1.349   8.770   0.845 -3.1821  1.1343  3.3712
  265MOL0     H36532   1.045   9.131   0.478 -2.8158  2.6533  1.8777
  265MOL0     H36533   0.897   9.294   0.372  0.5114 -0.3396  0.4474
  265MOL0     H36534   0.907   9.569   0.041  1.4256  1.2875 -0.6153
  265MOL0     H36535   1.076   9.527   0.014  0.2984 -1.9378 -0.7969
  265MOL0     H36536   1.036   9.296  -0.022  1.9844  1.1348  1.9047
  265MOL0     H36537   0.874   9.306   0.047  0.5002 -1.0554 -0.1355
  265MOL0     H36538   0.970   9.449  -0.195  0.8526  1.8769  1.4980
  265MOL0     H36539   0.803   9.465  -0.123  0.7198  0.8880  1.8143
  265MOL0     H36540   0.730   9.273  -0.173  0.0024  4.0872  1.7637
  265MOL0     H36541   0.886   9.184  -0.173  0.2558 -0.6600 -1.7622
  265MOL0     H36542   0.952   9.272  -0.383 -0.7991  1.5803 -2.3968
  265MOL0     H36543   0.821   9.173  -0.383  0.5557 -0.2732 -3.2794
  265MOL0     H36544   0.713   9.440  -0.356  0.7853  1.4315 -0.1671
  265MOL0     H36545   0.717   9.333  -0.504 -0.7059  1.6442  0.3628
  265MOL0     H36546   0.954   9.515  -0.422 -2.5928 -0.2754  2.5470
  265MOL0     H36547   0.825   9.573  -0.526 -1.2921 -1.4806 -0.1271
  265MOL0     H36548   0.971   9.314  -0.622  0.2329 -1.1079 -2.0838
  265MOL0     H36549   1.018   9.481  -0.662 -0.6253  0.2674 -1.8650
  265MOL0     H36550   1.233   9.427   0.130  0.3488 -2.7378 -2.4009
  265MOL0     H36551   1.378   9.298   0.256  0.0907 -3.4068  1.6005
  265MOL0     H36552   1.586   9.156   0.517  0.0580  0.3628 -0.8152
  265MOL0     H36553   1.786   9.087   0.629 -0.2395  2.6351  0.1236
  265MOL0     H36554   1.861   8.664   2.278 -2.0474 -2.6395  2.6159
  265MOL0     H36555   1.805   8.798   2.478 -1.1474 -1.5139  0.6199
  265MOL0     H36556   1.577   9.379   2.383  1.8171  0.9129  0.1877
  265MOL0     H36557   1.544   9.563   2.528 -0.8471  1.0409  1.8751
  265MOL0     H36558   1.537   9.475   2.995  0.6422 -0.2602 -0.6581
  265MOL0     H36559   1.690   9.490   2.929 -0.5698 -0.1064  3.6928
  265MOL0     H36560   1.511   9.734   3.009  1.1465  1.1404  1.0831
  265MOL0     H36561   1.680   9.739   2.941 -0.8238 -1.2108 -0.7166
  265MOL0     H36562   1.618   9.590   3.189 -3.3127  0.6662 -3.1517
  265MOL0     H36563   1.773   9.607   3.114 -0.3576 -0.6683 -0.7807
  265MOL0     H36564   1.763   9.856   3.152 -1.6639  0.4890 -1.6303
  265MOL0     H36565   1.778   9.761   3.292 -1.9698  0.0521  1.2094
  265MOL0     H36566   1.354   9.881   3.272 -1.3789 -3.9290 -0.2981
  265MOL0     H36567   1.538   9.302   2.866 -1.9820  1.3508  0.9641
  265MOL0     H36568   1.420   9.047   2.721  0.0277  0.5080 -0.6311
  265MOL0     H36569   1.591   8.987   2.722 -0.0366 -0.7614  1.7597
  265MOL0     H36570   1.535   9.072   2.858  1.0929  2.3313 -0.1111
  266MOL0     O36571   9.426   5.640   3.611 -0.0005  0.0237 -0.0666
  266MOL0     C36572   9.437   5.556   3.526  0.3408 -0.0007 -0.1860
  266MOL0     O36573   9.342   5.520   3.432  0.0630  1.1875  0.1442
  266MOL0     C36574   9.224   5.579   3.425  0.4777 -0.4116 -0.1674
  266MOL0     C36575   9.104   5.508   3.428 -0.1619  1.2840 -0.5357
  266MOL0     C36576   8.982   5.567   3.443  0.0157 -0.2487  0.0005
  266MOL0     C36577   8.967   5.705   3.464  0.6488  0.3503  0.2244
  266MOL0     O36578   8.857   5.765   3.515  0.0623 -0.1138 -0.4243
  266MOL0     C36579   8.815   5.730   3.642  0.1888 -0.4244 -0.2494
  266MOL0     C36580   8.723   5.822   3.712 -0.0496  0.3396  0.4751
  266MOL0     C36581   8.768   5.971   3.739  0.3638  0.2720  1.2726
  266MOL0     C36582   8.810   6.059   3.609  0.0387 -0.4307 -0.1070
  266MOL0     C36583   8.692   6.083   3.513 -0.1737 -0.0231  0.0833
  266MOL0     C36584   8.590   6.190   3.569  0.8792 -0.1024 -0.3431
  266MOL0     C36585   8.458   6.203   3.479  0.0593 -0.6314  1.2727
  266MOL0     C36586   8.367   6.078   3.449 -1.2055  0.2104 -0.2366
  266MOL0     N36587   8.338   5.978   3.555  0.4492  0.4281 -0.3908
  266MOL0     C36588   8.318   5.997   3.688  0.0644 -0.2894 -0.9989
  266MOL0     C36589   8.293   5.873   3.745  0.1756  0.0033 -0.2853
  266MOL0     C36590   8.280   5.845   3.895  0.2956  0.2874  1.1798
  266MOL0     C36591   8.416   5.813   3.945 -1.6463 -0.2296  0.0250
  266MOL0     C36592   8.424   5.835   4.100  0.1441  0.5863 -0.1640
  266MOL0     C36593   8.566   5.841   4.161  0.3557 -0.2981  0.4955
  266MOL0     O36594   8.639   5.952   4.123  0.8973  0.1255  0.3252
  266MOL0     C36595   8.635   6.061   4.198 -0.3464 -0.4003  0.4272
  266MOL0     C36596   8.560   6.092   4.310 -0.6183 -0.7852  0.6439
  266MOL0     C36597   8.578   6.212   4.379 -0.0801 -0.3858  0.8604
  266MOL0     C36598   8.493   6.246   4.496 -0.5481  0.2784 -1.1002
  266MOL0     C36599   8.672   6.308   4.335 -0.2679  0.1284  0.2527
  266MOL0     C36600   8.697   6.442   4.396  0.1447 -0.5558 -0.0828
  266MOL0     O36601   8.745   6.539   4.316 -0.4163 -0.2320 -0.3527
  266MOL0     C36602   8.789   6.661   4.373  0.1590 -0.2412  0.1728
  266MOL0     C36603   8.737   6.782   4.311  0.1140  0.2814  0.2983
  266MOL0     C36604   8.779   6.906   4.361 -0.6077  0.1596 -0.2751
  266MOL0     C36605   8.876   6.919   4.453 -0.2303 -0.3510  0.9372
  266MOL0     O36606   8.930   7.039   4.491  0.3751  0.5152 -0.0907
  266MOL0     C36607   9.074   7.044   4.502  0.0059  0.5761 -0.0008
  266MOL0     C36608   9.123   7.192   4.525 -0.1130 -0.1487  0.6175
  266MOL0     C36609   9.029   7.273   4.621 -0.0034 -0.3206 -0.1541
  266MOL0     C36610   9.062   7.426   4.606 -0.0555  0.1969 -0.4753
  266MOL0     C36611   9.194   7.468   4.669  0.8978  0.5959 -0.9297
  266MOL0     C36612   9.308   7.479   4.565 -1.0055  0.2251 -0.1634
  266MOL0     C36613   9.430   7.542   4.642  0.3855 -0.4688  0.4520
  266MOL0     C36614   9.544   7.562   4.533 -0.4322  0.4776 -0.8342
  266MOL0    Cl36615   9.575   7.417   4.432 -0.7402  0.3699 -0.3140
  266MOL0     C36616   8.918   6.804   4.514 -0.8092  0.3587  0.3557
  266MOL0     C36617   8.882   6.670   4.470 -1.0563 -0.3804  0.2620
  266MOL0     O36618   8.677   6.468   4.514  0.6653  1.0623 -0.0526
  266MOL0     C36619   8.736   6.282   4.214  0.8666  0.4804  0.1397
  266MOL0     C36620   8.720   6.163   4.148  0.4348 -0.8350  0.2400
  266MOL0     N36621   8.302   5.780   3.637  0.8703  0.8107 -0.6361
  266MOL0     N36622   8.318   5.847   3.532 -0.1862  0.2468 -0.2030
  266MOL0     C36623   9.088   5.779   3.456  0.6056 -0.3492  0.0579
  266MOL0     C36624   9.214   5.722   3.436 -0.6455  0.0220  0.2436
  266MOL0     C36625   9.565   5.471   3.537 -0.7254 -0.2711  0.5085
  266MOL0     C36626   9.606   5.400   3.426 -0.4115 -0.9814  0.0435
  266MOL0     C36627   9.714   5.315   3.438  0.0905 -0.5569  1.2966
  266MOL0     C36628   9.796   5.315   3.548  0.0623 -0.4212  0.1044
  266MOL0     O36629   9.908   5.233   3.557  1.3862 -0.6727 -0.8047
  266MOL0     C36630  10.016   5.272   3.467  0.0622  0.6763  0.3532
  266MOL0     C36631  10.067   5.135   3.403  0.5583 -0.1629 -0.4361
  266MOL0     C36632  10.108   5.046   3.513 -0.1926 -0.1651  0.5479
  266MOL0     C36633  10.185   4.933   3.459  0.0902 -0.5975  0.5744
  266MOL0     C36634  10.323   4.981   3.428 -0.8068  0.7827  0.2551
  266MOL0     C36635  10.438   5.014   3.406  0.0783  0.8531  0.5323
  266MOL0     C36636   9.759   5.386   3.661 -0.5547  1.0031  1.0289
  266MOL0     C36637   9.639   5.470   3.660  1.0397  0.3074 -0.4862
  266MOL0     C36638   9.623   5.553   3.786  0.6737 -0.1758  0.1329
  266MOL0     H36639   9.119   5.401   3.427 -1.9725  0.9935 -0.3902
  266MOL0     H36640   8.894   5.505   3.456  0.6489 -1.0388  0.6810
  266MOL0     H36641   8.902   5.708   3.705  0.9895 -1.7294 -1.7138
  266MOL0     H36642   8.765   5.633   3.631 -0.6627  0.1428 -1.7103
  266MOL0     H36643   8.624   5.823   3.665  1.2308  0.0815 -2.4364
  266MOL0     H36644   8.706   5.774   3.809  0.0022 -2.8939 -1.0050
  266MOL0     H36645   8.682   6.022   3.785 -0.3116  0.8194 -0.5125
  266MOL0     H36646   8.863   5.967   3.793  3.1474  0.4257 -3.1168
  266MOL0     H36647   8.837   6.158   3.647 -2.2040  0.2676 -0.1800
  266MOL0     H36648   8.906   6.030   3.567  1.2729 -0.1409  2.3733
  266MOL0     H36649   8.639   5.988   3.504  3.2887 -2.2710  1.3387
  266MOL0     H36650   8.730   6.112   3.415  0.3496 -0.0223  0.2815
  266MOL0     H36651   8.562   6.157   3.670 -1.8645  0.7930 -0.7291
  266MOL0     H36652   8.634   6.289   3.583  0.2692 -0.1736  3.0402
  266MOL0     H36653   8.498   6.247   3.387  0.4405 -2.4987  0.5012
  266MOL0     H36654   8.391   6.276   3.524 -1.1020  0.6587 -2.1648
  266MOL0     H36655   8.279   6.102   3.387 -0.7873 -1.5697 -1.6012
  266MOL0     H36656   8.431   6.030   3.375  0.0836  2.3122 -0.5570
  266MOL0     H36657   8.313   6.084   3.751 -1.8321 -1.5361  0.7168
  266MOL0     H36658   8.211   5.766   3.926  0.4505  0.4626  1.9914
  266MOL0     H36659   8.228   5.930   3.940 -3.8568 -1.3728 -0.0439
  266MOL0     H36660   8.443   5.712   3.913  0.9160  1.2810 -3.1833
  266MOL0     H36661   8.491   5.882   3.907 -0.3346 -1.5262  0.1493
  266MOL0     H36662   8.373   5.929   4.121  0.7222  2.1063 -4.5936
  266MOL0     H36663   8.378   5.751   4.153  1.2751 -2.4951 -3.6363
  266MOL0     H36664   8.560   5.834   4.270 -1.0642 -2.3140  0.3371
  266MOL0     H36665   8.628   5.756   4.130  1.3250  0.4261  0.3901
  266MOL0     H36666   8.472   6.041   4.349 -4.9907  5.1063 -0.1312
  266MOL0     H36667   8.541   6.274   4.591 -0.6599  1.9640 -1.5187
  266MOL0     H36668   8.436   6.156   4.521  3.1295 -1.9669  0.1130
  266MOL0     H36669   8.436   6.337   4.477 -1.0200  1.3257  3.8539
  266MOL0     H36670   8.670   6.781   4.226 -1.4693 -4.1024  1.3148
  266MOL0     H36671   8.738   6.997   4.317 -1.5939  0.7185  1.6703
  266MOL0     H36672   9.119   6.984   4.582 -1.7962 -0.5266  0.2369
  266MOL0     H36673   9.116   7.009   4.407  1.2134 -1.0086  1.0671
  266MOL0     H36674   9.227   7.187   4.559  0.4209  1.0687 -0.7080
  266MOL0     H36675   9.124   7.248   4.430  1.1845  1.7444  1.6726
  266MOL0     H36676   9.043   7.235   4.723  5.5757  0.9585 -0.1275
  266MOL0     H36677   8.928   7.251   4.587  0.6753 -0.2594 -2.4072
  266MOL0     H36678   8.983   7.481   4.658  0.9820  1.7877 -0.5334
  266MOL0     H36679   9.066   7.454   4.500  2.6255 -2.9613 -1.3530
  266MOL0     H36680   9.169   7.566   4.711 -0.1785  0.7087 -1.7923
  266MOL0     H36681   9.217   7.399   4.750 -0.4073  1.4555  0.2158
  266MOL0     H36682   9.275   7.527   4.473  1.4059 -0.3295 -1.4083
  266MOL0     H36683   9.333   7.377   4.533 -0.4674  0.1370  0.5024
  266MOL0     H36684   9.469   7.478   4.721  0.5251 -1.2992 -0.2750
  266MOL0     H36685   9.405   7.640   4.684 -0.7365 -0.4046 -0.3135
  266MOL0     H36686   9.637   7.600   4.577  0.9720 -0.6232 -2.6731
  266MOL0     H36687   9.501   7.647   4.480 -1.3716  3.3474  3.9774
  266MOL0     H36688   8.990   6.804   4.596  0.0791 -1.9174 -0.3658
  266MOL0     H36689   8.921   6.583   4.522  1.2494  0.6792  0.4397
  266MOL0     H36690   8.805   6.349   4.165  0.6904 -2.1939 -4.3456
  266MOL0     H36691   8.785   6.136   4.066  0.1295 -3.4229  0.7690
  266MOL0     H36692   9.060   5.883   3.456 -3.7351 -1.2885 -1.1518
  266MOL0     H36693   9.301   5.786   3.424 -0.3761 -0.0419  1.6340
  266MOL0     H36694   9.544   5.403   3.337 -0.3985  1.4505  0.0721
  266MOL0     H36695   9.741   5.245   3.359 -1.5337 -0.9201  1.0283
  266MOL0     H36696   9.996   5.335   3.380  0.9672  1.7496  0.8965
  266MOL0     H36697  10.108   5.303   3.517  1.6506 -1.5377 -1.0221
  266MOL0     H36698  10.153   5.148   3.337 -0.8889  1.4119 -2.1614
  266MOL0     H36699   9.991   5.092   3.337  0.5267  2.1189 -2.0279
  266MOL0     H36700  10.157   5.099   3.595 -3.1672  2.4736  0.8051
  266MOL0     H36701  10.009   5.030   3.557  0.0157  0.4788  1.2604
  266MOL0     H36702  10.132   4.879   3.380 -1.4827 -2.5184  2.7957
  266MOL0     H36703  10.207   4.860   3.537 -2.9032 -0.3649  1.7766
  266MOL0     H36704  10.540   5.048   3.411 -0.5540  2.9564  5.8579
  266MOL0     H36705   9.818   5.385   3.752  1.9809 -1.3632 -0.4775
  266MOL0     H36706   9.523   5.534   3.826  1.8725 -1.0083  2.9970
  266MOL0     H36707   9.683   5.524   3.873  0.6834 -1.0511 -0.1562
  266MOL0     H36708   9.638   5.658   3.762 -3.5961  1.2954  2.8590
  267MOL0     O36709   2.472  11.038  11.493  0.5072  0.0785 -0.7135
  267MOL0     C36710   2.409  11.007  11.390  0.0466  0.2884  1.1821
  267MOL0     O36711   2.350  10.879  11.372  0.0310  0.4165 -0.2843
  267MOL0     C36712   2.351  10.779  11.458 -0.6157  0.2514 -0.1890
  267MOL0     C36713   2.263  10.682  11.414 -0.3164  0.0051 -0.1239
  267MOL0     C36714   2.254  10.562  11.485 -0.5248 -0.4157  0.5066
  267MOL0     C36715   2.306  10.550  11.611  1.2750  0.4047  0.1338
  267MOL0     O36716   2.283  10.445  11.691  0.2705  0.2007 -1.1583
  267MOL0     C36717   2.141  10.402  11.707 -1.7115 -0.1457  0.5462
  267MOL0     C36718   2.111  10.297  11.822  0.3154  0.1111  0.0938
  267MOL0     C36719   2.192  10.172  11.806  0.0159 -0.3312 -0.1488
  267MOL0     C36720   2.346  10.188  11.831 -0.8510  0.8843  0.7034
  267MOL0     C36721   2.380  10.242  11.973  0.8789  0.0735  0.1275
  267MOL0     C36722   2.525  10.254  12.007  0.4200 -0.6978 -0.2085
  267MOL0     C36723   2.631  10.303  11.891  0.3218 -0.3577 -0.2013
  267MOL0     C36724   2.775  10.333  11.940 -0.5085 -0.4658 -0.1210
  267MOL0     N36725   2.834  10.219  12.020  0.3526 -0.6253 -0.1002
  267MOL0     C36726   2.833  10.083  11.983  0.2587 -0.1009  0.4511
  267MOL0     C36727   2.844  10.011  12.095 -0.1880 -0.4629 -0.8732
  267MOL0     C36728   2.824   9.870  12.123  0.0453  0.5235  0.4101
  267MOL0     C36729   2.824   9.792  11.994 -1.1344 -0.2515  0.4903
  267MOL0     C36730   2.783   9.643  12.010  0.2112  0.0001 -0.3503
  267MOL0     C36731   2.633   9.625  12.024  0.1019 -0.5465 -0.0527
  267MOL0     O36732   2.560   9.687  11.919  0.2531  0.0480  0.0680
  267MOL0     C36733   2.539   9.631  11.801  0.0121 -0.9372 -0.1499
  267MOL0     C36734   2.451   9.712  11.720 -0.7030  0.9299 -1.3610
  267MOL0     C36735   2.416   9.664  11.596 -0.9832  0.3273  0.5208
  267MOL0     C36736   2.348   9.765  11.515 -0.3995  0.1835  0.0869
  267MOL0     C36737   2.476   9.547  11.543 -0.5122 -0.8576  0.3510
  267MOL0     C36738   2.459   9.510  11.396 -1.0878  0.2494 -1.2611
  267MOL0     O36739   2.514   9.397  11.356  0.1885 -0.6962 -0.7452
  267MOL0     C36740   2.470   9.358  11.236  0.5849  0.2919  0.0236
  267MOL0     C36741   2.545   9.387  11.121  0.4854  0.4028 -0.3561
  267MOL0     C36742   2.508   9.353  10.989  0.3141  0.5141  0.8648
  267MOL0     C36743   2.391   9.280  10.965  0.0070 -0.5529 -0.3002
  267MOL0     O36744   2.359   9.249  10.837  0.1295  0.1899  1.5398
  267MOL0     C36745   2.264   9.335  10.773  0.2676  0.3962 -0.0109
  267MOL0     C36746   2.325   9.470  10.727 -0.4502  0.3816 -0.6185
  267MOL0     C36747   2.320   9.591  10.824 -0.0572  0.7746 -0.6329
  267MOL0     C36748   2.181   9.665  10.832 -0.6645 -0.3045  0.0568
  267MOL0     C36749   2.194   9.815  10.878  0.5789  0.5612  1.3455
  267MOL0     C36750   2.059   9.890  10.852  0.1385 -0.4591 -0.3500
  267MOL0     C36751   2.057  10.021  10.929 -0.8636  0.5068  0.1112
  267MOL0     C36752   1.932  10.087  10.905  0.1395  0.3758  0.0299
  267MOL0    Cl36753   1.927  10.220  11.023 -0.1656  0.3520  0.0936
  267MOL0     C36754   2.322   9.239  11.074 -0.3838  0.6786 -0.8372
  267MOL0     C36755   2.358   9.278  11.206  0.5010  0.0113  0.0986
  267MOL0     O36756   2.421   9.595  11.321 -0.1272  0.9208  0.6973
  267MOL0     C36757   2.552   9.471  11.629  0.4832 -0.6455 -0.0306
  267MOL0     C36758   2.579   9.508  11.759  0.2816 -0.8788 -0.3474
  267MOL0     N36759   2.867  10.101  12.197  0.4892  0.8097 -0.7136
  267MOL0     N36760   2.856  10.225  12.152  0.3836 -0.0643  0.4539
  267MOL0     C36761   2.387  10.645  11.660 -0.1504  0.0010 -0.2910
  267MOL0     C36762   2.413  10.766  11.585  0.1010 -0.2687  0.4337
  267MOL0     C36763   2.395  11.115  11.289 -0.0511 -0.5534  0.6120
  267MOL0     C36764   2.427  11.248  11.318 -0.0044  1.1627 -0.0334
  267MOL0     C36765   2.409  11.346  11.225 -0.1804  0.2513 -0.5169
  267MOL0     C36766   2.345  11.323  11.095 -0.6781  0.6371 -0.3020
  267MOL0     O36767   2.331  11.415  10.992  0.7573  0.4207 -0.0854
  267MOL0     C36768   2.353  11.552  11.016  0.4484 -0.1807  0.0841
  267MOL0     C36769   2.339  11.633  10.882  0.0057 -0.2035  0.2135
  267MOL0     C36770   2.445  11.599  10.778  0.7096 -1.1781  0.0059
  267MOL0     C36771   2.437  11.699  10.660 -0.7440 -0.1530 -0.6061
  267MOL0     C36772   2.307  11.709  10.600 -0.3563  1.2547  0.7209
  267MOL0     C36773   2.206  11.728  10.550  0.8824 -0.8248 -0.1329
  267MOL0     C36774   2.306  11.195  11.078  0.6090  0.0351  0.9110
  267MOL0     C36775   2.339  11.089  11.158  0.0532 -0.0307 -1.1986
  267MOL0     C36776   2.293  10.953  11.114  0.7435  0.0499 -0.1652
  267MOL0     H36777   2.209  10.684  11.320  1.7803  2.0332 -1.4164
  267MOL0     H36778   2.185  10.495  11.435 -1.3586  0.8069 -0.0586
  267MOL0     H36779   2.095  10.369  11.613 -5.4192 -0.8103  2.4324
  267MOL0     H36780   2.090  10.498  11.721  0.6082  1.1216  0.7879
  267MOL0     H36781   2.127  10.347  11.918 -1.4017  3.2006 -1.0828
  267MOL0     H36782   2.010  10.257  11.812  0.1390  0.9475 -2.0249
  267MOL0     H36783   2.151  10.107  11.883 -1.1146  1.0886  0.4941
  267MOL0     H36784   2.173  10.130  11.707 -2.2915  0.8194 -0.2560
  267MOL0     H36785   2.395  10.091  11.822  1.2522  1.6930  2.4379
  267MOL0     H36786   2.387  10.248  11.749 -0.2294 -2.0457 -1.2876
  267MOL0     H36787   2.333  10.167  12.037  0.8953 -1.1621 -1.2375
  267MOL0     H36788   2.322  10.333  11.992  0.3978 -0.2048  0.0190
  267MOL0     H36789   2.534  10.317  12.096 -0.2495  0.5479 -0.9956
  267MOL0     H36790   2.560  10.153  12.029 -0.3766 -0.6343  1.4707
  267MOL0     H36791   2.585  10.386  11.838  0.1292 -0.0396  0.4530
  267MOL0     H36792   2.648  10.223  11.819  1.3926  1.3406 -1.9344
  267MOL0     H36793   2.836  10.352  11.851  1.8883 -0.5833  1.4080
  267MOL0     H36794   2.787  10.427  11.995  1.7162 -0.0373 -1.2169
  267MOL0     H36795   2.809  10.050  11.882  1.0119 -2.1382  0.8919
  267MOL0     H36796   2.729   9.829  12.158  0.0776 -0.1627 -0.2629
  267MOL0     H36797   2.904   9.835  12.189  0.0373 -2.0406 -0.8126
  267MOL0     H36798   2.761   9.835  11.915  1.6995  0.9229 -1.3229
  267MOL0     H36799   2.929   9.801  11.962 -1.7147  1.9277 -1.0567
  267MOL0     H36800   2.800   9.590  11.916  1.6033  0.2913 -0.2901
  267MOL0     H36801   2.848   9.598  12.086 -0.8619  0.4087  0.8345
  267MOL0     H36802   2.605   9.520  12.036 -2.7719  0.4077  3.7427
  267MOL0     H36803   2.608   9.679  12.116  2.1855 -1.9404  1.4443
  267MOL0     H36804   2.418   9.810  11.752 -4.2064 -0.3191 -0.7769
  267MOL0     H36805   2.417   9.806  11.441 -1.8600 -0.0098 -1.4430
  267MOL0     H36806   2.310   9.853  11.568  1.2219 -0.0927  1.8195
  267MOL0     H36807   2.267   9.720  11.458 -0.3363 -1.2919  1.1075
  267MOL0     H36808   2.636   9.445  11.133  0.0230  0.6468  3.0855
  267MOL0     H36809   2.554   9.396  10.901  0.1127 -1.4231 -0.2436
  267MOL0     H36810   2.202   9.293  10.693  2.6196 -1.0128 -1.1816
  267MOL0     H36811   2.190   9.364  10.849  0.9552  1.0513  0.4213
  267MOL0     H36812   2.424   9.444  10.689 -0.5754 -0.6265 -0.2895
  267MOL0     H36813   2.262   9.508  10.646 -0.5174  1.4810 -0.0736
  267MOL0     H36814   2.392   9.668  10.793 -2.7452  3.7735  0.1207
  267MOL0     H36815   2.352   9.558  10.923 -1.7316 -3.3797 -1.2607
  267MOL0     H36816   2.124   9.624  10.916 -1.9108 -0.9554 -1.0773
  267MOL0     H36817   2.118   9.660  10.743  0.5138 -0.4811 -0.7768
  267MOL0     H36818   2.234   9.816  10.980 -0.1600  0.6461  1.6356
  267MOL0     H36819   2.259   9.863  10.804 -1.9554 -1.0796 -2.2576
  267MOL0     H36820   1.987   9.821  10.896  1.8163 -0.7908  2.0824
  267MOL0     H36821   2.042   9.888  10.744  1.4316  1.1113 -0.6208
  267MOL0     H36822   2.145  10.082  10.905 -0.6168  1.5515  3.2233
  267MOL0     H36823   2.077   9.984  11.030  1.2878  0.3803 -0.2991
  267MOL0     H36824   1.863  10.010  10.940  2.1629 -2.4380 -1.7874
  267MOL0     H36825   1.928  10.135  10.807  3.2617  1.8982  0.5301
  267MOL0     H36826   2.240   9.169  11.067  2.5307 -3.1638 -0.1401
  267MOL0     H36827   2.296   9.244  11.289  0.1957  0.7790  0.1977
  267MOL0     H36828   2.586   9.375  11.591  1.1820 -1.3136  2.1157
  267MOL0     H36829   2.630   9.435  11.821 -0.2825 -3.8823 -3.0756
  267MOL0     H36830   2.432  10.631  11.758  0.0829  0.4077 -0.3375
  267MOL0     H36831   2.474  10.844  11.631  0.7518 -1.9632  2.6271
  267MOL0     H36832   2.461  11.264  11.419 -1.7410  0.5058  0.6938
  267MOL0     H36833   2.459  11.436  11.260  1.2725  0.2445 -2.3873
  267MOL0     H36834   2.280  11.586  11.090 -0.5484 -3.0172  0.4958
  267MOL0     H36835   2.447  11.571  11.068  0.1843  3.1391 -0.4163
  267MOL0     H36836   2.352  11.738  10.909 -0.9876 -0.3514  1.3646
  267MOL0     H36837   2.236  11.629  10.845 -0.3795  0.2137  1.2125
  267MOL0     H36838   2.545  11.604  10.821  1.2508 -3.6265 -0.7652
  267MOL0     H36839   2.424  11.499  10.738  1.0083 -0.5459 -1.8230
  267MOL0     H36840   2.522  11.681  10.593  2.8662  2.7628  2.7221
  267MOL0     H36841   2.463  11.795  10.704 -1.4178 -0.6333  0.9147
  267MOL0     H36842   2.113  11.750  10.501  0.5717 -1.3431  0.2121
  267MOL0     H36843   2.246  11.177  10.990  0.1563  3.4393  0.3876
  267MOL0     H36844   2.290  10.941  11.006 -3.0702 -3.7276  0.0662
  267MOL0     H36845   2.372  10.880  11.139 -0.4210 -1.0358  0.4467
  267MOL0     H36846   2.204  10.908  11.158 -1.0312  1.1075 -2.5205
  268MOL0     O36847   9.409  11.446   2.090 -0.4716  0.2410  0.0036
  268MOL0     C36848   9.375  11.369   2.003  0.7651  0.0520 -0.1869
  268MOL0     O36849   9.259  11.379   1.934 -0.7567  0.3227  0.9983
  268MOL0     C36850   9.166  11.481   1.944  0.0103 -0.1326 -0.3016
  268MOL0     C36851   9.075  11.480   1.848 -0.7188 -0.4614 -0.5158
  268MOL0     C36852   8.963  11.568   1.847  0.4585  0.6569  0.1164
  268MOL0     C36853   8.946  11.675   1.944 -0.1733  0.6657 -0.0266
  268MOL0     O36854   8.837  11.759   1.938  0.6522  0.0513 -0.4863
  268MOL0     C36855   8.886  11.891   1.929  0.2733 -0.4178 -0.5262
  268MOL0     C36856   8.788  12.010   1.942 -1.2434 -0.1079 -0.4942
  268MOL0     C36857   8.867  12.153   1.944  0.2248 -0.6793  0.5007
  268MOL0     C36858   8.777  12.264   2.002 -0.2240  0.2095 -0.5693
  268MOL0     C36859   8.703  12.231   2.136 -0.4124 -0.7018  0.7462
  268MOL0     C36860   8.611  12.348   2.187  0.4770 -0.0753 -0.1162
  268MOL0     C36861   8.496  12.328   2.300  0.5691 -0.4490  0.1197
  268MOL0     C36862   8.355  12.306   2.240  0.3898 -0.4591  0.0984
  268MOL0     N36863   8.338  12.175   2.176 -0.9831  0.0243  0.7952
  268MOL0     C36864   8.316  12.054   2.242  0.4894 -0.6827 -0.0667
  268MOL0     C36865   8.313  11.963   2.143  0.1710 -0.3119 -0.9164
  268MOL0     C36866   8.294  11.809   2.166  0.2417 -0.2598  0.0145
  268MOL0     C36867   8.132  11.780   2.179 -0.6311 -0.0585  0.3678
  268MOL0     C36868   8.105  11.631   2.186 -0.3842 -0.3798 -0.8636
  268MOL0     C36869   7.972  11.593   2.140  0.3431 -0.2156  0.2390
  268MOL0     O36870   7.875  11.654   2.226 -0.1706 -0.6964 -0.2469
  268MOL0     C36871   7.747  11.626   2.203 -0.9461 -0.5887 -0.2308
  268MOL0     C36872   7.689  11.575   2.084 -0.3302  1.3978 -0.6299
  268MOL0     C36873   7.549  11.566   2.076 -1.1346  0.6673  0.2567
  268MOL0     C36874   7.495  11.486   1.965 -0.0681  0.9148 -0.6632
  268MOL0     C36875   7.460  11.619   2.175 -0.6945  0.2401  0.7807
  268MOL0     C36876   7.309  11.614   2.173 -0.4273  0.1776  0.3410
  268MOL0     O36877   7.234  11.610   2.284  0.2080 -0.4406 -0.0365
  268MOL0     C36878   7.098  11.641   2.267 -0.3704 -0.0564 -0.2300
  268MOL0     C36879   7.004  11.539   2.272 -1.1248  0.4234 -0.1178
  268MOL0     C36880   6.866  11.561   2.270  0.3247  0.5188 -0.2476
  268MOL0     C36881   6.818  11.688   2.281  0.2532 -0.5356  1.1845
  268MOL0     O36882   6.682  11.702   2.298 -0.3164 -0.3133  0.9392
  268MOL0     C36883   6.625  11.818   2.224 -0.0521 -0.2041  0.2340
  268MOL0     C36884   6.567  11.908   2.321  0.8531  0.3188 -0.1562
  268MOL0     C36885   6.496  12.025   2.256  0.7140 -0.2409  0.8982
  268MOL0     C36886   6.511  12.162   2.328  1.3885  0.1398  0.8617
  268MOL0     C36887   6.470  12.290   2.243  1.0599  0.1576  0.4075
  268MOL0     C36888   6.583  12.321   2.128  0.0561  0.0935  0.1164
  268MOL0     C36889   6.585  12.463   2.082 -0.6544  0.2699  0.2702
  268MOL0     C36890   6.721  12.516   2.040  0.4226 -0.4808 -1.0702
  268MOL0    Cl36891   6.815  12.547   2.195 -0.2189 -0.2493 -0.1873
  268MOL0     C36892   6.904  11.799   2.283 -0.1819  0.3633  1.1326
  268MOL0     C36893   7.053  11.775   2.265  0.3941 -0.1076  0.4443
  268MOL0     O36894   7.267  11.627   2.058 -0.6011  0.1428 -0.1984
  268MOL0     C36895   7.522  11.669   2.281 -0.1064 -0.1972 -0.7719
  268MOL0     C36896   7.662  11.673   2.302 -0.8768 -0.3902  0.2653
  268MOL0     N36897   8.322  12.014   2.022  0.3405  0.1829 -0.3093
  268MOL0     N36898   8.349  12.140   2.039 -1.3582 -0.6599  0.2553
  268MOL0     C36899   9.053  11.673   2.044 -1.2695 -0.3023  1.1392
  268MOL0     C36900   9.160  11.584   2.040 -0.2457 -0.2388  0.6013
  268MOL0     C36901   9.483  11.283   1.945  0.1341 -0.2038  0.1957
  268MOL0     C36902   9.499  11.281   1.809 -0.9415  0.9325  0.4418
  268MOL0     C36903   9.593  11.196   1.752 -0.0781 -0.4138 -0.5128
  268MOL0     C36904   9.689  11.120   1.825  0.6852  0.0173  1.1375
  268MOL0     O36905   9.782  11.031   1.772  0.4943 -1.1019  0.1250
  268MOL0     C36906   9.821  11.030   1.632  0.0586 -0.0566  1.0489
  268MOL0     C36907   9.905  10.895   1.613 -0.0806 -0.8529  0.9919
  268MOL0     C36908  10.053  10.906   1.655 -0.4179 -0.3261  0.1373
  268MOL0     C36909  10.119  10.995   1.561  0.4178  0.9114  0.3227
  268MOL0     C36910  10.258  10.974   1.586  0.3598  0.1889 -0.7022
  268MOL0     C36911  10.368  10.960   1.596 -0.8771  0.2171 -0.7040
  268MOL0     C36912   9.675  11.128   1.959 -0.9265 -0.0978 -1.3370
  268MOL0     C36913   9.575  11.208   2.029  0.5017  0.2995  0.3032
  268MOL0     C36914   9.577  11.205   2.178  0.1513 -0.4419 -0.2149
  268MOL0     H36915   9.092  11.410   1.767 -0.0246  0.5271 -1.2612
  268MOL0     H36916   8.889  11.554   1.769  0.9535  0.8190 -0.3853
  268MOL0     H36917   8.941  11.909   1.836  0.9603  4.4511  0.5493
  268MOL0     H36918   8.957  11.906   2.011  0.5663  0.9572 -0.9951
  268MOL0     H36919   8.700  12.011   1.877 -1.0711 -0.2563 -0.7327
  268MOL0     H36920   8.741  11.995   2.040 -2.8504  1.6247 -0.9393
  268MOL0     H36921   8.951  12.140   2.012 -1.4075 -2.7737  2.2753
  268MOL0     H36922   8.893  12.187   1.843 -1.8095 -2.0278 -0.5586
  268MOL0     H36923   8.833  12.357   2.015 -2.6502  1.9332 -1.6159
  268MOL0     H36924   8.707  12.277   1.919  0.7524  0.6676 -1.3384
  268MOL0     H36925   8.777  12.209   2.213  0.5233  2.5620  0.9289
  268MOL0     H36926   8.631  12.149   2.123 -2.3454  1.1634 -1.0434
  268MOL0     H36927   8.675  12.435   2.208 -2.7106  2.6272 -0.8093
  268MOL0     H36928   8.553  12.387   2.103 -0.8243  0.4680  1.0073
  268MOL0     H36929   8.482  12.426   2.347 -0.5183 -0.5365  0.0128
  268MOL0     H36930   8.519  12.250   2.374  1.7632 -5.2077 -4.6036
  268MOL0     H36931   8.280  12.319   2.319 -0.9929 -1.9318 -0.9198
  268MOL0     H36932   8.343  12.381   2.161  1.0101 -0.9380 -0.4555
  268MOL0     H36933   8.297  12.057   2.349 -0.0076  2.3427 -0.1364
  268MOL0     H36934   8.354  11.782   2.253 -0.6635  0.1517  0.7819
  268MOL0     H36935   8.323  11.758   2.073 -3.2405 -3.2622  0.3498
  268MOL0     H36936   8.113  11.835   2.272  3.8101 -1.2045  2.2296
  268MOL0     H36937   8.060  11.823   2.110 -0.9917 -0.8459  0.2443
  268MOL0     H36938   8.181  11.570   2.135 -0.9128  0.0867 -2.2786
  268MOL0     H36939   8.107  11.615   2.294  0.5747 -0.0912 -0.8272
  268MOL0     H36940   7.967  11.619   2.034  4.9250  3.4094  0.5717
  268MOL0     H36941   7.974  11.484   2.132  0.6514 -0.1706 -0.4038
  268MOL0     H36942   7.755  11.542   2.004 -3.8959 -0.8709 -2.9322
  268MOL0     H36943   7.491  11.561   1.885  3.6475  3.7020  1.4653
  268MOL0     H36944   7.402  11.433   1.987  0.8791 -1.1161 -1.2647
  268MOL0     H36945   7.558  11.406   1.924  0.7389  0.7877  0.7591
  268MOL0     H36946   7.039  11.439   2.296 -3.0151 -0.3420 -0.3916
  268MOL0     H36947   6.789  11.485   2.278  0.6521  0.1207 -0.8073
  268MOL0     H36948   6.692  11.886   2.171 -1.2199  1.5054  0.8240
  268MOL0     H36949   6.559  11.789   2.142 -0.0072 -0.9266  0.4498
  268MOL0     H36950   6.495  11.846   2.374  1.5278  0.5867  1.1276
  268MOL0     H36951   6.634  11.940   2.402  0.3056 -1.6942  1.1439
  268MOL0     H36952   6.388  12.008   2.258  0.8873 -1.3723  1.5149
  268MOL0     H36953   6.518  12.034   2.149 -0.4943 -2.6098  0.3657
  268MOL0     H36954   6.617  12.176   2.349  1.2089  3.4918  0.1276
  268MOL0     H36955   6.447  12.155   2.416 -1.9363  0.9218 -1.2986
  268MOL0     H36956   6.370  12.286   2.198  1.4810  2.3488 -0.8379
  268MOL0     H36957   6.465  12.370   2.318  1.1650 -0.5802  1.2195
  268MOL0     H36958   6.573  12.247   2.049  1.2787  0.0171  0.0023
  268MOL0     H36959   6.687  12.302   2.156 -0.0436 -1.5998 -0.5686
  268MOL0     H36960   6.555  12.535   2.158 -3.1838  0.1756 -0.5255
  268MOL0     H36961   6.511  12.467   2.001  0.7395 -0.7216 -1.1134
  268MOL0     H36962   6.722  12.612   1.989 -4.2329 -0.5491 -1.7773
  268MOL0     H36963   6.776  12.439   1.986  4.0611  0.1619  1.3660
  268MOL0     H36964   6.870  11.901   2.299 -0.6717  0.9285 -2.6820
  268MOL0     H36965   7.120  11.860   2.275 -0.8939  1.1929 -1.3611
  268MOL0     H36966   7.452  11.712   2.352  0.8137 -0.7929  0.5421
  268MOL0     H36967   7.710  11.733   2.379 -0.0869 -1.0671  0.3088
  268MOL0     H36968   9.038  11.732   2.134 -2.8510 -0.6385  1.1369
  268MOL0     H36969   9.230  11.596   2.123  3.2574  1.5904 -2.2950
  268MOL0     H36970   9.439  11.340   1.740  1.8931  0.1922 -2.9257
  268MOL0     H36971   9.606  11.207   1.645 -1.1293 -0.9941 -0.7090
  268MOL0     H36972   9.734  11.041   1.567  1.6877  2.8318 -0.8934
  268MOL0     H36973   9.881  11.115   1.599 -0.9749  0.2803 -0.0262
  268MOL0     H36974   9.901  10.854   1.512 -0.2218 -1.0296  1.0695
  268MOL0     H36975   9.862  10.821   1.681 -0.9835 -0.5418  0.7799
  268MOL0     H36976  10.052  10.939   1.760  0.2341  0.7546 -0.1766
  268MOL0     H36977  10.103  10.809   1.655 -1.2970 -0.9015 -3.3444
  268MOL0     H36978  10.098  11.101   1.575  0.4533  0.7491  1.7520
  268MOL0     H36979  10.091  10.959   1.461 -0.2633  2.5875 -0.1224
  268MOL0     H36980  10.471  10.931   1.608  1.1910  5.7223 -2.0065
  268MOL0     H36981   9.730  11.073   2.035  1.2059  2.2500 -1.0363
  268MOL0     H36982   9.589  11.295   2.238 -2.1217 -1.9247  2.7331
  268MOL0     H36983   9.474  11.185   2.210 -0.7420  2.4288 -0.9563
  268MOL0     H36984   9.638  11.126   2.222 -1.3155 -0.6888  1.4731
  269MOL0     O36985   6.404   5.659  10.392  0.5754  0.5227  0.0601
  269MOL0     C36986   6.378   5.546  10.350 -0.2005 -0.7267  0.2146
  269MOL0     O36987   6.322   5.519  10.226  0.0037 -0.0361 -0.5269
  269MOL0     C36988   6.262   5.601  10.137  0.0953 -0.6675  0.5318
  269MOL0     C36989   6.187   5.711  10.175 -0.2258 -0.4247  0.3024
  269MOL0     C36990   6.106   5.780  10.091 -0.5232  1.0221 -0.4820
  269MOL0     C36991   6.096   5.751   9.957  0.1012  0.2998  0.1080
  269MOL0     O36992   6.009   5.821   9.881  0.0980 -1.2249 -0.3037
  269MOL0     C36993   6.057   5.868   9.747  0.3715  0.0768  0.2128
  269MOL0     C36994   6.168   5.986   9.749  0.3255 -0.6488 -0.2229
  269MOL0     C36995   6.116   6.102   9.838 -0.2037 -0.0484 -0.5584
  269MOL0     C36996   6.232   6.207   9.875 -0.5311 -1.3029 -0.2129
  269MOL0     C36997   6.323   6.175   9.997 -1.2545  0.8160  0.1815
  269MOL0     C36998   6.461   6.251   9.989  0.4084  0.8343 -0.0556
  269MOL0     C36999   6.555   6.197   9.890  0.3950  0.0642 -0.8253
  269MOL0     C37000   6.689   6.285   9.895  0.1234 -0.0579  0.2894
  269MOL0     N37001   6.810   6.221   9.846 -0.1311 -0.4213 -0.5319
  269MOL0     C37002   6.895   6.295   9.772 -0.2412 -0.5847  0.6121
  269MOL0     C37003   7.015   6.236   9.789  0.5570  0.7308  0.1906
  269MOL0     C37004   7.138   6.289   9.740 -0.9557  0.0046  0.3315
  269MOL0     C37005   7.226   6.175   9.674 -0.4558 -0.1696  0.2881
  269MOL0     C37006   7.361   6.212   9.607 -0.7989  0.1205 -0.1020
  269MOL0     C37007   7.447   6.318   9.674 -1.1174  0.3927 -0.9911
  269MOL0     O37008   7.434   6.439   9.599 -0.1194  0.6264  0.6158
  269MOL0     C37009   7.456   6.554   9.669 -0.2888 -0.4283  0.0186
  269MOL0     C37010   7.581   6.591   9.725 -0.4472 -0.5382  1.0576
  269MOL0     C37011   7.609   6.715   9.793 -0.1070 -0.6304 -0.4623
  269MOL0     C37012   7.745   6.738   9.852 -1.1172  1.0225  0.0666
  269MOL0     C37013   7.496   6.800   9.816  1.3768 -0.5153  0.5505
  269MOL0     C37014   7.492   6.933   9.882  0.4974  0.0280  0.6510
  269MOL0     O37015   7.397   7.030   9.836 -0.4114 -0.0427 -0.0883
  269MOL0     C37016   7.426   7.157   9.870  0.4599 -0.3909  0.3013
  269MOL0     C37017   7.352   7.219   9.971 -0.3528  0.9172 -0.4557
  269MOL0     C37018   7.391   7.347  10.015  0.0195 -0.2644 -0.0506
  269MOL0     C37019   7.511   7.400   9.968  0.4262  0.5549  0.2234
  269MOL0     O37020   7.568   7.524  10.005 -0.5887 -0.4151  0.2447
  269MOL0     C37021   7.561   7.557  10.151  0.7485  0.3835 -0.3772
  269MOL0     C37022   7.629   7.451  10.235 -0.4705 -0.7075  0.0270
  269MOL0     C37023   7.644   7.480  10.380 -0.6319 -0.2230  0.2155
  269MOL0     C37024   7.505   7.510  10.449 -0.8191 -0.6631  0.2629
  269MOL0     C37025   7.512   7.507  10.596 -0.0823  0.5277  0.2976
  269MOL0     C37026   7.376   7.527  10.661 -0.0773 -0.2975  0.0004
  269MOL0     C37027   7.402   7.516  10.816 -0.1863  0.4133  0.0433
  269MOL0     C37028   7.269   7.540  10.889 -0.8344  0.4596  0.1189
  269MOL0    Cl37029   7.158   7.397  10.871 -0.6710  0.1724  0.3910
  269MOL0     C37030   7.583   7.338   9.865  0.7307 -0.0299  1.0873
  269MOL0     C37031   7.534   7.219   9.809 -0.1934 -0.2815 -1.2303
  269MOL0     O37032   7.565   6.946   9.975  0.1155 -0.8634  0.9652
  269MOL0     C37033   7.376   6.764   9.751 -0.3850 -0.1249  0.2166
  269MOL0     C37034   7.356   6.647   9.675  0.3425  0.5387 -0.0831
  269MOL0     N37035   6.996   6.126   9.875 -0.2329  0.3473 -0.2695
  269MOL0     N37036   6.874   6.123   9.908  0.8823 -0.3077 -0.0164
  269MOL0     C37037   6.167   5.644   9.913 -0.0716  0.8625 -1.0482
  269MOL0     C37038   6.253   5.576   9.999  0.3646 -0.0802  0.0006
  269MOL0     C37039   6.414   5.437  10.439 -0.5185  0.0610  0.1093
  269MOL0     C37040   6.534   5.458  10.518 -0.9626  0.3464  0.5100
  269MOL0     C37041   6.577   5.359  10.619 -0.1956 -0.0840  0.1224
  269MOL0     C37042   6.500   5.241  10.646  1.4617  0.3757 -0.9102
  269MOL0     O37043   6.522   5.162  10.755  0.7658 -0.5012  0.0682
  269MOL0     C37044   6.426   5.180  10.852  0.0444 -0.1536 -0.4339
  269MOL0     C37045   6.455   5.083  10.972  0.1381  0.7987  0.0555
  269MOL0     C37046   6.380   4.942  10.972  0.5584 -0.7838  0.4137
  269MOL0     C37047   6.410   4.857  11.094  1.0953 -1.0107 -0.0329
  269MOL0     C37048   6.344   4.728  11.086 -0.1218  0.2323 -0.2088
  269MOL0     C37049   6.280   4.628  11.092  0.2963 -0.0677  0.4644
  269MOL0     C37050   6.382   5.226  10.560  0.3759 -0.0683  0.4966
  269MOL0     C37051   6.345   5.321  10.454  1.1038 -0.0040  0.0464
  269MOL0     C37052   6.208   5.295  10.379 -0.2487 -0.3248  0.4536
  269MOL0     H37053   6.195   5.737  10.280  1.4016  2.4897 -0.4137
  269MOL0     H37054   6.042   5.854  10.137 -0.0777  0.0221  1.8513
  269MOL0     H37055   5.969   5.910   9.696  0.0069 -0.7878  0.1075
  269MOL0     H37056   6.098   5.790   9.683  0.3771  0.9729 -0.9194
  269MOL0     H37057   6.258   5.937   9.787  1.4344  1.6588  0.3115
  269MOL0     H37058   6.191   6.021   9.648  2.0236  4.9293  1.7692
  269MOL0     H37059   6.030   6.148   9.789 -0.5491 -1.6291 -1.4958
  269MOL0     H37060   6.077   6.062   9.933 -0.8442 -0.9714 -1.1944
  269MOL0     H37061   6.292   6.204   9.784  1.9387 -0.0528  1.2564
  269MOL0     H37062   6.182   6.305   9.876 -0.9477 -1.2441 -5.1179
  269MOL0     H37063   6.356   6.071   9.995  1.1811  1.2318  4.7708
  269MOL0     H37064   6.274   6.212  10.088  0.1892  3.1771  0.0947
  269MOL0     H37065   6.439   6.351   9.951  4.7688  2.8516  2.0271
  269MOL0     H37066   6.514   6.248  10.085  2.1178 -1.9488 -0.9694
  269MOL0     H37067   6.515   6.193   9.788 -2.0423  5.2342 -0.4175
  269MOL0     H37068   6.575   6.095   9.923 -1.2419  0.4905  1.8005
  269MOL0     H37069   6.685   6.388   9.859  1.1671 -0.1433 -0.1023
  269MOL0     H37070   6.702   6.316   9.999 -0.7920  1.1461  0.0750
  269MOL0     H37071   6.869   6.388   9.724 -0.3517 -1.1623 -0.4853
  269MOL0     H37072   7.191   6.347   9.816 -1.3502  1.0696 -0.1766
  269MOL0     H37073   7.114   6.363   9.663  0.1167  4.6372  3.9550
  269MOL0     H37074   7.250   6.095   9.744 -0.9850 -0.0312  0.6397
  269MOL0     H37075   7.153   6.129   9.607 -0.8984  3.9817 -2.4594
  269MOL0     H37076   7.405   6.114   9.586 -5.9885 -1.6229 -5.2978
  269MOL0     H37077   7.344   6.245   9.504 -3.8505 -3.2996 -0.8823
  269MOL0     H37078   7.420   6.336   9.778  1.6451  0.8810 -0.2734
  269MOL0     H37079   7.552   6.288   9.679 -1.1890  0.2834  0.0149
  269MOL0     H37080   7.674   6.538   9.711  1.1491  2.5022 -1.0796
  269MOL0     H37081   7.817   6.679   9.795 -0.2486  1.8043  0.3440
  269MOL0     H37082   7.757   6.712   9.958 -0.8506  1.4589  0.1432
  269MOL0     H37083   7.757   6.846   9.844 -1.0127  0.9969 -0.1288
  269MOL0     H37084   7.264   7.164  10.003 -0.3925  1.1971 -0.0691
  269MOL0     H37085   7.334   7.394  10.095 -0.2205  1.1508 -1.0124
  269MOL0     H37086   7.613   7.650  10.177 -1.5280  1.3593  0.9418
  269MOL0     H37087   7.456   7.578  10.173  1.3603  1.1123  2.2258
  269MOL0     H37088   7.574   7.359  10.215 -0.7417 -0.2994 -1.1986
  269MOL0     H37089   7.729   7.430  10.195 -0.5112 -1.1584  0.1599
  269MOL0     H37090   7.712   7.559  10.416  0.2475 -2.0857  2.8703
  269MOL0     H37091   7.684   7.387  10.421 -1.4478 -1.1005 -0.9354
  269MOL0     H37092   7.435   7.444  10.397 -0.7403  0.4917 -1.3920
  269MOL0     H37093   7.473   7.610  10.420 -0.6937 -0.4849  0.7389
  269MOL0     H37094   7.562   7.418  10.635  1.3458  1.2164  0.1189
  269MOL0     H37095   7.578   7.590  10.624 -1.0244  0.5121  2.8657
  269MOL0     H37096   7.318   7.436  10.642  0.9064 -0.9663  0.1434
  269MOL0     H37097   7.320   7.620  10.649 -4.1809 -2.2898  1.7211
  269MOL0     H37098   7.467   7.601  10.840  1.8823 -0.9368 -0.4264
  269MOL0     H37099   7.452   7.422  10.839 -1.7883 -0.0014  2.0627
  269MOL0     H37100   7.222   7.630  10.848  1.6336  0.4660 -3.0702
  269MOL0     H37101   7.289   7.560  10.994 -1.4124 -2.4235  0.8702
  269MOL0     H37102   7.659   7.390   9.807 -0.0974  0.8564  0.7610
  269MOL0     H37103   7.603   7.173   9.739 -0.9940 -2.4031 -0.6998
  269MOL0     H37104   7.289   6.827   9.762 -2.4216 -2.6688 -0.5217
  269MOL0     H37105   7.259   6.637   9.628 -0.6035 -1.0904  1.9963
  269MOL0     H37106   6.152   5.605   9.812 -1.5066 -0.6865 -0.2892
  269MOL0     H37107   6.303   5.486   9.963  0.9543  0.3469 -0.2654
  269MOL0     H37108   6.609   5.535  10.501 -3.1344  3.3995  3.2363
  269MOL0     H37109   6.671   5.368  10.672  0.6022 -1.7533 -0.9144
  269MOL0     H37110   6.433   5.284  10.884  0.6551 -0.3313  0.0371
  269MOL0     H37111   6.325   5.154  10.819 -1.1177  0.2780  2.4757
  269MOL0     H37112   6.409   5.131  11.059 -1.5782 -1.3642  0.4119
  269MOL0     H37113   6.563   5.072  10.984 -0.0431 -2.3286 -0.3380
  269MOL0     H37114   6.278   4.959  10.936  2.1953 -0.3500 -4.8431
  269MOL0     H37115   6.433   4.897  10.888 -1.1986  1.3422 -1.9741
  269MOL0     H37116   6.370   4.913  11.179 -0.9638  0.4421 -1.8692
  269MOL0     H37117   6.518   4.842  11.109  0.7913 -4.9040 -0.5262
  269MOL0     H37118   6.196   4.562  11.099 -2.8940  3.5101 -0.5506
  269MOL0     H37119   6.327   5.133  10.574  0.9606 -0.4177  0.5188
  269MOL0     H37120   6.152   5.225  10.441 -2.5710  1.0367  0.0221
  269MOL0     H37121   6.145   5.373  10.336  0.4800  0.1520  0.2207
  269MOL0     H37122   6.237   5.237  10.291  1.7925 -1.2236  1.6524
  270MOL0     O37123   1.865   9.566   3.637 -0.2079 -0.3351  0.0792
  270MOL0     C37124   1.771   9.646   3.650 -0.9130  0.1199  0.3672
  270MOL0     O37125   1.785   9.784   3.644  0.5396  0.2357 -0.5154
  270MOL0     C37126   1.899   9.849   3.682  0.3912 -1.1929  0.9085
  270MOL0     C37127   1.960   9.839   3.801  0.8595  0.0760  0.4024
  270MOL0     C37128   2.087   9.896   3.818  0.4113 -0.0148 -0.2325
  270MOL0     C37129   2.145   9.980   3.729 -0.5590 -0.4274  0.5306
  270MOL0     O37130   2.270  10.026   3.759 -0.2496  0.1250 -0.2916
  270MOL0     C37131   2.313  10.145   3.690  0.3261 -0.7191 -0.1986
  270MOL0     C37132   2.395  10.092   3.583 -0.4133 -0.9781 -0.1910
  270MOL0     C37133   2.461  10.200   3.494  0.0737  0.2383  0.2913
  270MOL0     C37134   2.513  10.143   3.356  0.1905  0.3804  0.5292
  270MOL0     C37135   2.645  10.060   3.367  0.6653 -1.0352  0.5253
  270MOL0     C37136   2.695   9.987   3.241  0.2841  0.8761 -0.2567
  270MOL0     C37137   2.807   9.885   3.274  0.1855  0.5845 -1.1037
  270MOL0     C37138   2.811   9.778   3.162 -0.5229  0.9830 -0.1144
  270MOL0     N37139   2.706   9.673   3.164  0.5309 -0.3172  0.2000
  270MOL0     C37140   2.708   9.554   3.240  1.1093  0.9034  0.0307
  270MOL0     C37141   2.580   9.501   3.240 -0.0808  0.0920 -0.1587
  270MOL0     C37142   2.529   9.401   3.333 -0.4799 -0.3559 -0.3436
  270MOL0     C37143   2.509   9.255   3.288  0.0217  0.9405 -0.0806
  270MOL0     C37144   2.373   9.211   3.229  0.0610 -0.2395  1.3624
  270MOL0     C37145   2.336   9.292   3.097 -0.7987 -0.9401 -0.7124
  270MOL0     O37146   2.220   9.239   3.033  0.1010  0.2368  0.1936
  270MOL0     C37147   2.188   9.302   2.927  0.0557  0.6979  0.3135
  270MOL0     C37148   2.263   9.355   2.819  0.0500  0.1859  0.3269
  270MOL0     C37149   2.205   9.418   2.714 -0.7141 -0.5184 -0.1533
  270MOL0     C37150   2.312   9.479   2.625 -0.2032  0.0512 -0.2146
  270MOL0     C37151   2.063   9.427   2.710 -0.0550 -0.3717  0.1640
  270MOL0     C37152   1.991   9.503   2.600 -0.2238 -0.7410  0.2137
  270MOL0     O37153   2.069   9.543   2.495 -0.3807 -0.4151  0.1846
  270MOL0     C37154   2.020   9.554   2.363 -0.3680  0.3765  0.9008
  270MOL0     C37155   2.095   9.625   2.275  0.5710 -0.5918 -0.3600
  270MOL0     C37156   2.060   9.625   2.138 -0.4579 -0.6148 -0.0966
  270MOL0     C37157   1.958   9.557   2.081  0.6116 -0.8333 -0.7612
  270MOL0     O37158   1.940   9.560   1.936  0.1867 -0.0754 -0.5976
  270MOL0     C37159   2.047   9.601   1.862 -0.7497  0.5753 -0.6639
  270MOL0     C37160   2.031   9.579   1.713 -0.2246  0.9280  0.4582
  270MOL0     C37161   2.157   9.620   1.634  0.5859 -1.1101 -0.3703
  270MOL0     C37162   2.154   9.575   1.488  0.4390  1.4335 -0.0335
  270MOL0     C37163   2.290   9.606   1.423  0.3587  0.0427  0.3687
  270MOL0     C37164   2.319   9.755   1.411 -0.1547  0.2446  0.9215
  270MOL0     C37165   2.425   9.769   1.293 -0.6952  0.8042 -0.3114
  270MOL0     C37166   2.481   9.914   1.300  0.2908 -0.6573  1.8401
  270MOL0    Cl37167   2.601   9.929   1.169 -0.2585 -0.3403 -0.4413
  270MOL0     C37168   1.871   9.487   2.170  0.3562  0.5474 -0.4321
  270MOL0     C37169   1.905   9.476   2.308  0.0717 -0.6336 -0.1381
  270MOL0     O37170   1.874   9.530   2.601 -0.5908 -0.7134 -0.6739
  270MOL0     C37171   1.987   9.385   2.820 -0.0142 -0.7495  0.0763
  270MOL0     C37172   2.045   9.318   2.927  0.2615 -0.1611  0.5191
  270MOL0     N37173   2.502   9.578   3.152  0.5999 -0.1998  0.4261
  270MOL0     N37174   2.579   9.679   3.115  0.2904 -0.0515 -0.0208
  270MOL0     C37175   2.079   9.997   3.602 -0.5601  0.2645  0.0591
  270MOL0     C37176   1.957   9.922   3.578  0.2213  0.8649 -0.5624
  270MOL0     C37177   1.629   9.591   3.641  0.0824  0.1793  0.3046
  270MOL0     C37178   1.530   9.672   3.576 -1.2783 -0.2976 -0.7748
  270MOL0     C37179   1.395   9.635   3.576  0.5215  0.2155  0.1497
  270MOL0     C37180   1.356   9.501   3.625 -0.0493 -1.3391 -0.0825
  270MOL0     O37181   1.232   9.446   3.611  0.4976  0.5623  0.0351
  270MOL0     C37182   1.122   9.538   3.605 -0.0008 -0.5998 -0.1503
  270MOL0     C37183   0.977   9.479   3.641  0.0136 -0.1068 -0.1812
  270MOL0     C37184   0.939   9.435   3.785  0.0171  0.7201  0.8345
  270MOL0     C37185   1.020   9.320   3.843 -0.0605  0.2520  0.5616
  270MOL0     C37186   1.145   9.366   3.901 -0.3346  1.4434  0.6636
  270MOL0     C37187   1.227   9.406   3.975  0.3711 -0.8785 -0.1524
  270MOL0     C37188   1.456   9.423   3.680 -0.1395 -0.4940  0.9339
  270MOL0     C37189   1.591   9.470   3.689 -0.4888 -0.2436 -0.7088
  270MOL0     C37190   1.682   9.376   3.759 -0.2406  0.6571  0.2876
  270MOL0     H37191   1.931   9.770   3.879  0.0666 -0.2694 -0.1785
  270MOL0     H37192   2.137   9.896   3.915  1.0381 -2.1933 -0.5116
  270MOL0     H37193   2.366  10.206   3.764 -0.5026 -0.8655  0.5247
  270MOL0     H37194   2.228  10.208   3.661 -0.7278 -1.3592  1.3874
  270MOL0     H37195   2.473  10.032   3.632 -1.4478 -1.6467  0.6669
  270MOL0     H37196   2.330  10.026   3.526 -0.9106 -3.1583  2.7056
  270MOL0     H37197   2.386  10.276   3.473 -0.7788 -0.6160  0.1746
  270MOL0     H37198   2.550  10.248   3.535 -0.3861  0.0695  1.5401
  270MOL0     H37199   2.438  10.070   3.325  0.4343 -0.5942  2.1031
  270MOL0     H37200   2.508  10.227   3.287  1.2175  0.2469  0.2809
  270MOL0     H37201   2.623   9.987   3.445 -2.9061  0.5690  1.1965
  270MOL0     H37202   2.734  10.122   3.382  0.2327  0.4424 -2.3054
  270MOL0     H37203   2.605   9.936   3.206 -0.2210  1.1678  0.5925
  270MOL0     H37204   2.721  10.057   3.161 -2.1370  0.0572 -1.8798
  270MOL0     H37205   2.780   9.841   3.370  0.5763 -0.2681 -1.3755
  270MOL0     H37206   2.906   9.931   3.279  0.0888  1.0063 -2.6941
  270MOL0     H37207   2.817   9.817   3.060  1.1112 -0.3181 -0.5617
  270MOL0     H37208   2.904   9.722   3.173 -0.7000  0.8249  0.6618
  270MOL0     H37209   2.804   9.530   3.284  2.3964  1.8634 -2.0968
  270MOL0     H37210   2.436   9.443   3.375 -1.6523 -1.0031 -2.1810
  270MOL0     H37211   2.598   9.387   3.417 -1.9765  3.0348  1.6767
  270MOL0     H37212   2.583   9.219   3.216 -1.1852 -1.6598 -0.1095
  270MOL0     H37213   2.513   9.189   3.375  2.0323 -0.3679 -1.0862
  270MOL0     H37214   2.376   9.104   3.203  1.1723  0.7036 -3.2860
  270MOL0     H37215   2.296   9.218   3.307 -2.2096 -5.0706 -0.0511
  270MOL0     H37216   2.324   9.395   3.130 -0.5594 -0.7902 -1.0885
  270MOL0     H37217   2.428   9.292   3.037 -1.9610 -1.0508 -2.5848
  270MOL0     H37218   2.371   9.354   2.831  0.0024  0.7239  0.8628
  270MOL0     H37219   2.416   9.452   2.647  0.0727  1.4386  0.2629
  270MOL0     H37220   2.291   9.586   2.633 -2.1966 -0.3752  7.3223
  270MOL0     H37221   2.319   9.433   2.525 -3.7661 -1.0703 -0.0664
  270MOL0     H37222   2.188   9.670   2.307  0.8238 -1.8923  0.8415
  270MOL0     H37223   2.130   9.694   2.090 -1.2805  0.2684 -0.0608
  270MOL0     H37224   2.065   9.704   1.893  2.6964 -0.8226  2.7433
  270MOL0     H37225   2.140   9.549   1.886 -0.1437  2.0517  0.3185
  270MOL0     H37226   2.003   9.475   1.699 -0.7477  1.3649 -2.3867
  270MOL0     H37227   1.942   9.630   1.675 -1.5336 -0.1582  1.9612
  270MOL0     H37228   2.239   9.570   1.687 -0.8273 -2.5964  0.5437
  270MOL0     H37229   2.167   9.728   1.643 -0.8816 -1.0062  0.4851
  270MOL0     H37230   2.075   9.632   1.438  0.4236  1.9643  0.5875
  270MOL0     H37231   2.143   9.467   1.471 -0.8623  1.6155 -0.3971
  270MOL0     H37232   2.379   9.562   1.469  1.5645  0.4733 -1.4520
  270MOL0     H37233   2.302   9.567   1.322  1.3303 -1.1587  0.9172
  270MOL0     H37234   2.352   9.803   1.504  2.7783 -0.4967  0.3798
  270MOL0     H37235   2.225   9.799   1.378  0.7121  0.1824 -1.8538
  270MOL0     H37236   2.377   9.751   1.197 -2.8020  0.0681  0.8275
  270MOL0     H37237   2.505   9.698   1.315 -0.4419  2.0751  3.8830
  270MOL0     H37238   2.536   9.940   1.391  1.4998  0.9913  0.7018
  270MOL0     H37239   2.394   9.974   1.272  1.4977 -0.5379 -2.3610
  270MOL0     H37240   1.792   9.432   2.119  0.5659  1.3418 -1.6436
  270MOL0     H37241   1.838   9.417   2.371 -2.1547 -1.4021 -3.0235
  270MOL0     H37242   1.881   9.407   2.819 -0.5968 -3.1886 -1.5427
  270MOL0     H37243   1.991   9.271   3.009  0.4922 -1.0387  0.1785
  270MOL0     H37244   2.118  10.053   3.518  0.0527 -2.1408 -1.3764
  270MOL0     H37245   1.904   9.918   3.483  1.3250 -0.5390 -1.1636
  270MOL0     H37246   1.569   9.770   3.547  1.3019 -0.4484  1.7129
  270MOL0     H37247   1.317   9.699   3.535 -0.5583 -1.6722 -0.8646
  270MOL0     H37248   1.139   9.623   3.673 -0.4985  0.3397 -1.1629
  270MOL0     H37249   1.120   9.584   3.506  0.9816  0.4156  0.2779
  270MOL0     H37250   0.960   9.399   3.569  0.8452 -0.4391 -0.0130
  270MOL0     H37251   0.911   9.563   3.618  0.4486  0.2524 -0.1254
  270MOL0     H37252   0.940   9.519   3.855  0.9213 -0.0129  1.7157
  270MOL0     H37253   0.840   9.391   3.771  1.5318 -2.8313  0.1463
  270MOL0     H37254   1.025   9.234   3.776  5.3754 -0.1623  1.0956
  270MOL0     H37255   0.959   9.287   3.928  0.0453 -1.3877  0.0332
  270MOL0     H37256   1.295   9.442   4.050 -0.1063 -1.9132  0.8016
  270MOL0     H37257   1.439   9.324   3.723  0.3608 -0.9416  0.1361
  270MOL0     H37258   1.769   9.425   3.803 -0.2295  0.7782  0.1308
  270MOL0     H37259   1.623   9.330   3.839  1.0426 -0.0074  0.8677
  270MOL0     H37260   1.716   9.296   3.692  0.6196  0.9627  0.3476
  271MOL0     O37261   0.157   6.730   5.685  0.7445 -0.3046 -0.2632
  271MOL0     C37262   0.076   6.751   5.600 -1.4082  0.3470  1.0377
  271MOL0     O37263   0.112   6.828   5.486  0.5069 -0.3666 -0.3293
  271MOL0     C37264   0.199   6.938   5.491 -0.1025  0.3669 -0.5782
  271MOL0     C37265   0.215   7.019   5.610  0.3654 -0.0639  0.6211
  271MOL0     C37266   0.285   7.138   5.607 -0.2371 -0.1574 -0.2725
  271MOL0     C37267   0.367   7.179   5.506 -0.0903  0.2396 -0.5263
  271MOL0     O37268   0.424   7.301   5.522 -1.3081  0.2969 -0.0957
  271MOL0     C37269   0.348   7.410   5.568  0.2163  0.4911  0.1115
  271MOL0     C37270   0.372   7.535   5.481  0.2481  0.1128  0.3290
  271MOL0     C37271   0.360   7.508   5.333  0.4992 -0.4817  0.0770
  271MOL0     C37272   0.344   7.635   5.243  0.6559  0.0572 -0.2734
  271MOL0     C37273   0.224   7.721   5.264  0.7676 -0.4105 -0.3098
  271MOL0     C37274   0.100   7.649   5.208 -0.7816  0.0303  0.3464
  271MOL0     C37275  -0.034   7.718   5.240  0.6843  0.0490 -0.6524
  271MOL0     C37276  -0.153   7.644   5.179  0.4546 -0.2833 -0.2699
  271MOL0     N37277  -0.276   7.714   5.204  0.5547 -0.4181 -0.1620
  271MOL0     C37278  -0.344   7.712   5.323  0.0935 -0.1421 -0.2674
  271MOL0     C37279  -0.429   7.816   5.316 -0.1724  0.4167 -0.0918
  271MOL0     C37280  -0.534   7.862   5.416 -0.0365 -0.4978 -0.0106
  271MOL0     C37281  -0.502   7.998   5.486 -0.5801 -0.2776 -0.6733
  271MOL0     C37282  -0.353   8.008   5.542 -0.2070 -0.3964  0.0768
  271MOL0     C37283  -0.236   8.016   5.441  0.9098  0.8856  0.6679
  271MOL0     O37284  -0.118   8.066   5.502 -0.9796  0.6487 -0.1806
  271MOL0     C37285  -0.104   8.200   5.511 -0.3002 -0.3568  0.8595
  271MOL0     C37286  -0.149   8.283   5.403 -0.3679  0.2112  0.2589
  271MOL0     C37287  -0.152   8.424   5.410  0.0140 -0.2987  0.3572
  271MOL0     C37288  -0.192   8.497   5.288 -0.3529  0.3131  0.1435
  271MOL0     C37289  -0.116   8.482   5.536  1.0332  1.2673  0.0128
  271MOL0     C37290  -0.128   8.630   5.558 -0.8767 -0.2408  0.3605
  271MOL0     O37291  -0.145   8.656   5.688  0.4124  0.1921 -0.5889
  271MOL0     C37292  -0.121   8.781   5.748  0.6158  1.0741 -0.0408
  271MOL0     C37293  -0.227   8.844   5.810  0.5195  0.4730  0.1095
  271MOL0     C37294  -0.206   8.968   5.873 -0.1228 -0.2970  0.3501
  271MOL0     C37295  -0.075   9.021   5.895 -0.6563 -0.4235 -0.3892
  271MOL0     O37296  -0.073   9.126   5.980 -0.2927 -0.8280  1.0176
  271MOL0     C37297   0.045   9.221   5.963  0.6006  0.7500 -0.1526
  271MOL0     C37298   0.025   9.352   6.026  0.1209 -0.2476  0.3316
  271MOL0     C37299  -0.026   9.326   6.171  0.0232  0.0758  0.4351
  271MOL0     C37300  -0.111   9.444   6.231  0.5429 -0.0543  0.1581
  271MOL0     C37301  -0.124   9.430   6.379  0.4372  0.7038 -0.3788
  271MOL0     C37302  -0.253   9.507   6.438 -0.0012 -0.5664 -0.7499
  271MOL0     C37303  -0.233   9.570   6.573  1.0237 -1.1750 -0.9168
  271MOL0     C37304  -0.358   9.653   6.632 -0.8069 -0.0461  0.1842
  271MOL0    Cl37305  -0.501   9.638   6.536  0.4907  0.8641  0.1351
  271MOL0     C37306   0.032   8.948   5.847 -0.1317  0.3232  0.1856
  271MOL0     C37307   0.009   8.836   5.763 -0.3333 -1.3519  0.0153
  271MOL0     O37308  -0.127   8.714   5.471  0.2635 -0.7396  0.2161
  271MOL0     C37309  -0.077   8.395   5.640 -0.2527 -0.5241  0.4182
  271MOL0     C37310  -0.064   8.255   5.634  0.1828  0.1681  0.4831
  271MOL0     N37311  -0.417   7.873   5.192  0.1209  0.4462 -0.4547
  271MOL0     N37312  -0.313   7.829   5.137  0.3269 -0.0192 -0.6025
  271MOL0     C37313   0.362   7.101   5.385 -0.6894  0.6327 -0.1720
  271MOL0     C37314   0.286   6.978   5.387  0.4074 -0.5595  0.2223
  271MOL0     C37315  -0.062   6.697   5.601 -0.0097  0.7581  0.3991
  271MOL0     C37316  -0.103   6.583   5.671  0.0082  0.5736 -0.9007
  271MOL0     C37317  -0.233   6.541   5.682  0.6300  0.7532  0.1725
  271MOL0     C37318  -0.334   6.583   5.600 -0.0098 -0.3718 -0.7408
  271MOL0     O37319  -0.463   6.539   5.599 -0.5421  0.1899 -0.0986
  271MOL0     C37320  -0.515   6.442   5.702 -1.1484  0.2155  0.7935
  271MOL0     C37321  -0.571   6.515   5.825  0.3758 -0.4985  0.0700
  271MOL0     C37322  -0.566   6.415   5.929  0.7256  0.9241  0.1016
  271MOL0     C37323  -0.571   6.475   6.066  0.2651  0.0810 -0.0643
  271MOL0     C37324  -0.438   6.518   6.106 -0.3540  0.1412 -0.8503
  271MOL0     C37325  -0.322   6.546   6.130 -0.7989  1.0435  0.2641
  271MOL0     C37326  -0.310   6.700   5.534  1.1667  0.1969  0.0003
  271MOL0     C37327  -0.178   6.765   5.535 -1.3394 -0.0061  0.5727
  271MOL0     C37328  -0.167   6.903   5.484 -0.2464 -0.7167  0.7309
  271MOL0     H37329   0.162   7.001   5.703  1.2055 -0.0429  1.1112
  271MOL0     H37330   0.278   7.205   5.693 -1.8449  0.7080 -1.0425
  271MOL0     H37331   0.370   7.443   5.670  1.5441 -2.3370  0.8486
  271MOL0     H37332   0.244   7.380   5.555  1.0130 -4.5374  2.5687
  271MOL0     H37333   0.312   7.618   5.520  3.0458  2.0286  0.8565
  271MOL0     H37334   0.474   7.563   5.507  0.3892  0.8367 -0.9064
  271MOL0     H37335   0.447   7.451   5.298 -1.2854 -2.2525 -1.7282
  271MOL0     H37336   0.271   7.450   5.310 -0.7786  1.0497  0.9196
  271MOL0     H37337   0.439   7.688   5.251  1.3827 -1.4196  1.6476
  271MOL0     H37338   0.339   7.589   5.143  0.7831 -0.6095  0.0205
  271MOL0     H37339   0.232   7.821   5.221  0.6162  1.0839  2.8585
  271MOL0     H37340   0.215   7.739   5.372 -3.7414 -0.8825 -0.3907
  271MOL0     H37341   0.118   7.647   5.100 -0.6518 -0.6061  0.3740
  271MOL0     H37342   0.101   7.547   5.248  1.1026 -0.9135 -1.8528
  271MOL0     H37343  -0.026   7.814   5.188 -2.3323  1.5538  1.3835
  271MOL0     H37344  -0.041   7.737   5.347 -2.6143  2.5923 -1.1483
  271MOL0     H37345  -0.133   7.629   5.073  3.2910 -3.3221  0.5143
  271MOL0     H37346  -0.163   7.545   5.225 -0.2555 -0.8320 -1.5573
  271MOL0     H37347  -0.336   7.638   5.402 -2.0899  0.2538  0.3910
  271MOL0     H37348  -0.540   7.796   5.503 -1.2312 -0.1742  0.1708
  271MOL0     H37349  -0.630   7.870   5.363 -0.9027 -1.1670  1.3983
  271MOL0     H37350  -0.524   8.082   5.420  3.5663  0.9130 -0.8651
  271MOL0     H37351  -0.575   8.010   5.566 -2.0545  0.0915 -2.0356
  271MOL0     H37352  -0.345   8.099   5.601 -0.3402  0.4984 -1.2533
  271MOL0     H37353  -0.338   7.927   5.614 -0.9348  1.6723  2.6935
  271MOL0     H37354  -0.217   7.914   5.404 -1.5114  0.6654 -0.1117
  271MOL0     H37355  -0.265   8.071   5.351  0.1197 -0.9926 -0.2909
  271MOL0     H37356  -0.172   8.242   5.305  0.0644  0.9217 -0.1489
  271MOL0     H37357  -0.236   8.427   5.217 -0.5547  2.6859 -2.2159
  271MOL0     H37358  -0.109   8.547   5.237  0.4836  0.7640  1.8567
  271MOL0     H37359  -0.271   8.568   5.317 -2.2458 -1.4590 -0.4588
  271MOL0     H37360  -0.329   8.809   5.804  0.6372  0.2905 -0.9237
  271MOL0     H37361  -0.293   9.020   5.912  0.7757  0.3662  1.5209
  271MOL0     H37362   0.131   9.187   6.022  1.3815  4.1180  0.8425
  271MOL0     H37363   0.069   9.246   5.860 -3.5795 -0.1807 -1.5317
  271MOL0     H37364   0.123   9.401   6.033  2.5829 -4.8120  2.0961
  271MOL0     H37365  -0.053   9.414   5.980  0.6466 -0.5814 -1.0509
  271MOL0     H37366   0.062   9.311   6.235  4.4926  1.5949 -4.5678
  271MOL0     H37367  -0.089   9.237   6.184  2.7090 -1.8722  1.0794
  271MOL0     H37368  -0.205   9.448   6.176  2.0413  3.1494 -2.5227
  271MOL0     H37369  -0.073   9.546   6.222 -1.3202  0.5612 -1.3686
  271MOL0     H37370  -0.141   9.327   6.413  3.5438  0.0143 -0.5884
  271MOL0     H37371  -0.039   9.463   6.441 -1.1617  0.3246  2.1814
  271MOL0     H37372  -0.330   9.432   6.457 -1.3374  0.3327 -2.3707
  271MOL0     H37373  -0.279   9.579   6.359  1.4944 -2.1677 -2.8238
  271MOL0     H37374  -0.144   9.633   6.566 -0.3052  0.9479  0.3186
  271MOL0     H37375  -0.197   9.489   6.637  2.7417  1.4553  1.7013
  271MOL0     H37376  -0.329   9.758   6.648  4.0579 -0.9452 -1.2231
  271MOL0     H37377  -0.374   9.606   6.730 -1.0394 -1.5333 -0.5482
  271MOL0     H37378   0.129   8.985   5.877 -0.6329  2.4148 -0.5952
  271MOL0     H37379   0.097   8.788   5.721  0.5350 -1.1017  1.5101
  271MOL0     H37380  -0.066   8.434   5.740 -0.7891  0.2595  0.1860
  271MOL0     H37381  -0.040   8.197   5.723  0.8365  1.9299  1.5140
  271MOL0     H37382   0.421   7.124   5.297 -0.2607 -1.8487 -0.5993
  271MOL0     H37383   0.286   6.926   5.292  4.4413 -0.3087 -0.0604
  271MOL0     H37384  -0.036   6.518   5.726 -0.1397  1.3481  0.2168
  271MOL0     H37385  -0.248   6.445   5.731  1.5773 -0.0900 -1.1304
  271MOL0     H37386  -0.595   6.392   5.649 -0.6602 -0.4698  0.6921
  271MOL0     H37387  -0.447   6.361   5.729 -1.8908 -0.2481  1.2959
  271MOL0     H37388  -0.673   6.551   5.807 -0.5107 -3.4713 -1.4872
  271MOL0     H37389  -0.513   6.604   5.852 -0.8244  0.1846  0.4699
  271MOL0     H37390  -0.647   6.345   5.906  1.6561  0.2990 -1.4393
  271MOL0     H37391  -0.475   6.354   5.931 -1.4824 -2.7506 -1.3791
  271MOL0     H37392  -0.596   6.392   6.131  3.1910 -1.6849 -1.0130
  271MOL0     H37393  -0.635   6.564   6.068  1.1532  0.7226  0.1310
  271MOL0     H37394  -0.216   6.561   6.131 -0.0371 -2.9782 -0.7206
  271MOL0     H37395  -0.397   6.742   5.485 -0.2704 -0.4937  1.8536
  271MOL0     H37396  -0.094   6.907   5.403 -2.5170 -2.7813 -1.5612
  271MOL0     H37397  -0.264   6.937   5.448  1.7169  1.3637 -3.1977
  271MOL0     H37398  -0.133   6.970   5.564  0.6340  1.1598 -1.1128
  272MOL0     O37399   9.075   0.535   4.553  0.3421 -0.3595 -0.4554
  272MOL0     C37400   9.104   0.628   4.482  0.6608  0.1846 -0.0251
  272MOL0     O37401   9.101   0.765   4.526 -0.2531  0.1274 -1.2823
  272MOL0     C37402   9.101   0.790   4.658  0.8302  0.3758  0.6411
  272MOL0     C37403   9.018   0.897   4.704  0.2864 -0.0778 -0.0749
  272MOL0     C37404   9.022   0.936   4.838 -0.6243 -0.3028  0.6173
  272MOL0     C37405   9.091   0.861   4.933 -0.6786 -0.0087  0.2295
  272MOL0     O37406   9.095   0.883   5.065  0.0499 -0.3855  0.1008
  272MOL0     C37407   8.987   0.957   5.124  0.4094 -0.2402 -0.4623
  272MOL0     C37408   9.017   0.995   5.269 -0.3119 -0.2851 -0.5660
  272MOL0     C37409   8.904   1.080   5.341 -0.5783  1.1347  0.3350
  272MOL0     C37410   8.953   1.124   5.479  0.0052  0.4242 -0.3565
  272MOL0     C37411   8.867   1.243   5.522  0.0832  0.1316 -0.1372
  272MOL0     C37412   8.911   1.289   5.660 -0.2897 -0.8627  1.6127
  272MOL0     C37413   8.901   1.194   5.778  0.3269  0.2971  1.6500
  272MOL0     C37414   8.979   1.247   5.890  0.0939  0.4682 -0.6027
  272MOL0     N37415   8.961   1.150   5.998  0.9836  0.1812 -1.0260
  272MOL0     C37416   8.899   1.162   6.116  0.3809 -0.6265 -0.6807
  272MOL0     C37417   8.935   1.056   6.196  0.7709 -0.9439 -0.0507
  272MOL0     C37418   8.914   1.006   6.333  0.0105 -0.2521 -0.1143
  272MOL0     C37419   8.770   1.008   6.387 -0.6671  0.0532  0.7603
  272MOL0     C37420   8.723   1.153   6.417 -0.1715 -0.0008  0.2323
  272MOL0     C37421   8.585   1.136   6.483  0.9812  0.3610  0.3680
  272MOL0     O37422   8.519   1.255   6.502  0.0097 -0.6049  1.0949
  272MOL0     C37423   8.391   1.255   6.542  0.1803 -0.2847  0.0731
  272MOL0     C37424   8.336   1.382   6.565  0.1166  0.3733  0.3925
  272MOL0     C37425   8.207   1.396   6.612  0.1831  0.1625  0.8172
  272MOL0     C37426   8.145   1.534   6.634  0.7470  0.0977  0.4804
  272MOL0     C37427   8.128   1.284   6.643 -0.9029 -0.4845 -0.7143
  272MOL0     C37428   7.988   1.295   6.701 -0.4950  0.0442 -0.0858
  272MOL0     O37429   7.889   1.219   6.640  0.4644  0.0341 -0.7001
  272MOL0     C37430   7.751   1.227   6.666 -0.0608 -0.3451  0.2771
  272MOL0     C37431   7.661   1.296   6.582 -0.5814  0.0962  0.0706
  272MOL0     C37432   7.527   1.303   6.609 -0.0912 -0.2381 -0.4162
  272MOL0     C37433   7.478   1.229   6.722 -0.4722  0.5917  0.5856
  272MOL0     O37434   7.347   1.245   6.752  0.0971 -0.6508 -1.1421
  272MOL0     C37435   7.274   1.125   6.778 -0.6105  0.0616  0.5663
  272MOL0     C37436   7.126   1.145   6.810 -0.1873  0.5625  0.4556
  272MOL0     C37437   7.073   1.009   6.846 -0.2014  0.2150 -0.4585
  272MOL0     C37438   6.922   1.009   6.827  1.1890 -1.8156 -0.5616
  272MOL0     C37439   6.854   0.911   6.908  1.0724 -0.2685  0.2777
  272MOL0     C37440   6.871   0.765   6.851  0.4556  0.3997  0.1548
  272MOL0     C37441   6.811   0.668   6.952 -0.4544  0.4207 -0.3661
  272MOL0     C37442   6.891   0.547   6.991 -0.4516  0.4079  0.8233
  272MOL0    Cl37443   7.039   0.591   7.073  0.0325  0.0510  0.2855
  272MOL0     C37444   7.566   1.165   6.808 -1.1549  0.6341  0.2032
  272MOL0     C37445   7.696   1.159   6.770 -0.4067  0.4256 -1.0024
  272MOL0     O37446   7.980   1.359   6.811 -0.5142  0.5374 -0.3550
  272MOL0     C37447   8.177   1.156   6.610  0.5998 -0.2605 -0.2622
  272MOL0     C37448   8.318   1.144   6.573  0.0373  0.3440  0.1510
  272MOL0     N37449   9.026   0.983   6.122  0.0289 -0.5199 -0.8002
  272MOL0     N37450   9.033   1.032   6.004 -0.7810 -0.6747  0.1279
  272MOL0     C37451   9.171   0.757   4.890  0.1888  0.3257  0.2249
  272MOL0     C37452   9.180   0.721   4.755  0.1702  0.7729 -0.0582
  272MOL0     C37453   9.140   0.603   4.340 -0.6506  0.2972 -0.2149
  272MOL0     C37454   9.159   0.711   4.256 -1.2279 -0.2276 -0.7724
  272MOL0     C37455   9.206   0.691   4.123  0.0674  0.0017 -0.3825
  272MOL0     C37456   9.237   0.568   4.065  0.0330 -0.7440  0.0913
  272MOL0     O37457   9.296   0.542   3.942  0.0274  0.7079 -0.2673
  272MOL0     C37458   9.263   0.616   3.824  0.6511 -0.1634  0.5470
  272MOL0     C37459   9.386   0.679   3.766 -0.2767 -0.1925 -0.6440
  272MOL0     C37460   9.492   0.574   3.723 -0.6509 -0.2175  0.5500
  272MOL0     C37461   9.616   0.630   3.658 -0.2818 -0.2427  0.2417
  272MOL0     C37462   9.590   0.706   3.536  0.2225 -0.6165 -0.2446
  272MOL0     C37463   9.575   0.769   3.432  0.3607  0.2194 -0.2256
  272MOL0     C37464   9.203   0.460   4.149  0.3551 -0.2994 -1.2810
  272MOL0     C37465   9.166   0.475   4.286 -0.0847  0.2061  0.5184
  272MOL0     C37466   9.156   0.340   4.359  0.1022  0.0934 -0.6306
  272MOL0     H37467   8.943   0.935   4.636 -0.0550  2.4736  1.5971
  272MOL0     H37468   8.954   1.015   4.869 -2.5539 -1.5195 -0.3233
  272MOL0     H37469   8.898   0.893   5.123 -0.2934  0.6849  0.6937
  272MOL0     H37470   8.972   1.058   5.086 -0.7243  1.2613  3.4812
  272MOL0     H37471   9.046   0.911   5.333 -2.6228 -0.9687 -0.3193
  272MOL0     H37472   9.102   1.062   5.252 -0.2615 -0.9706 -3.5621
  272MOL0     H37473   8.872   1.169   5.287 -5.7815 -0.4020  0.3054
  272MOL0     H37474   8.811   1.023   5.347 -0.3109  0.6774  0.2205
  272MOL0     H37475   8.949   1.037   5.545  1.0158  1.1753  0.7244
  272MOL0     H37476   9.058   1.153   5.481 -0.1899  1.3766  3.1657
  272MOL0     H37477   8.765   1.204   5.527  0.0607  0.3322  2.6055
  272MOL0     H37478   8.879   1.319   5.444  4.4249 -2.7166 -2.6930
  272MOL0     H37479   9.014   1.326   5.652 -0.4056 -0.9808 -2.6254
  272MOL0     H37480   8.851   1.377   5.684 -1.1349  0.6877 -4.5795
  272MOL0     H37481   8.919   1.088   5.758 -1.8970  0.3952 -1.6291
  272MOL0     H37482   8.793   1.183   5.798 -0.9525 -2.0503 -4.3798
  272MOL0     H37483   9.087   1.245   5.874  0.6839 -1.1900  2.7355
  272MOL0     H37484   8.950   1.349   5.916  0.6411  0.2083  1.1165
  272MOL0     H37485   8.847   1.252   6.145  1.5545  0.1263 -0.8645
  272MOL0     H37486   8.972   1.065   6.405 -0.2287  0.4483 -0.4868
  272MOL0     H37487   8.961   0.907   6.330  0.6655  0.0773 -2.1387
  272MOL0     H37488   8.696   0.976   6.313 -1.4795  1.7224  0.8032
  272MOL0     H37489   8.758   0.954   6.481 -2.3006  2.0968  1.7929
  272MOL0     H37490   8.782   1.210   6.489 -1.4881  4.3251 -1.7335
  272MOL0     H37491   8.708   1.209   6.323 -0.2415 -3.4750 -2.0061
  272MOL0     H37492   8.529   1.081   6.406  0.1520  3.4202 -1.3815
  272MOL0     H37493   8.581   1.075   6.573 -0.0063  1.6233  1.2153
  272MOL0     H37494   8.400   1.467   6.549 -0.7171  0.8461 -0.5175
  272MOL0     H37495   8.195   1.609   6.572  0.5937 -1.0155 -1.0495
  272MOL0     H37496   8.144   1.566   6.738 -0.3621 -3.2431  1.6150
  272MOL0     H37497   8.042   1.535   6.596  1.1615 -2.2236 -0.9286
  272MOL0     H37498   7.696   1.355   6.497 -2.8380 -0.8289 -1.6039
  272MOL0     H37499   7.468   1.373   6.550  0.3374 -0.2411 -0.8505
  272MOL0     H37500   7.277   1.067   6.685 -0.0126 -0.8009  1.1033
  272MOL0     H37501   7.319   1.067   6.859 -0.2318  0.1966  0.4559
  272MOL0     H37502   7.123   1.216   6.893  0.7074 -0.6608  1.5824
  272MOL0     H37503   7.079   1.182   6.718 -1.2132 -1.1741  0.2386
  272MOL0     H37504   7.106   1.007   6.950 -1.6396 -1.5921  0.0112
  272MOL0     H37505   7.121   0.928   6.790  3.9127  1.5008  0.8682
  272MOL0     H37506   6.899   1.006   6.720  1.0247 -0.9059 -0.5609
  272MOL0     H37507   6.883   1.104   6.864 -0.1277 -1.8330 -1.8101
  272MOL0     H37508   6.902   0.915   7.006  1.1013 -0.2166  0.2618
  272MOL0     H37509   6.746   0.930   6.917  1.0133 -0.0289 -0.7845
  272MOL0     H37510   6.977   0.756   6.827  0.1788  1.4420 -1.7040
  272MOL0     H37511   6.829   0.752   6.751  2.7923  1.0851 -0.9793
  272MOL0     H37512   6.718   0.624   6.916 -0.4411  0.0394  0.0640
  272MOL0     H37513   6.791   0.714   7.049 -1.9127 -2.3109  0.7302
  272MOL0     H37514   6.908   0.494   6.898 -1.7038 -0.0643  0.8404
  272MOL0     H37515   6.836   0.479   7.057  1.2450  0.7342  2.6936
  272MOL0     H37516   7.520   1.117   6.894 -0.1570 -3.4944 -1.3310
  272MOL0     H37517   7.766   1.115   6.841  1.7042  3.4449 -1.0219
  272MOL0     H37518   8.105   1.075   6.616 -0.4539  0.5002 -1.9860
  272MOL0     H37519   8.359   1.044   6.562 -2.0437 -0.5798  0.1466
  272MOL0     H37520   9.222   0.709   4.972 -2.2167  1.6415  2.6505
  272MOL0     H37521   9.242   0.639   4.721 -1.2391  0.7736 -2.9263
  272MOL0     H37522   9.152   0.817   4.277  0.6341  0.1278 -1.6753
  272MOL0     H37523   9.212   0.784   4.068  0.1206 -0.8767 -1.9202
  272MOL0     H37524   9.214   0.554   3.748  0.7563 -0.3965  0.6690
  272MOL0     H37525   9.188   0.692   3.850 -0.1088 -1.2332  1.5895
  272MOL0     H37526   9.419   0.749   3.843 -3.4521  0.9149 -0.1728
  272MOL0     H37527   9.364   0.743   3.680 -2.9957  1.2698  0.9916
  272MOL0     H37528   9.525   0.514   3.809 -0.0483 -1.9384 -0.8105
  272MOL0     H37529   9.447   0.505   3.651  0.0009 -2.6645  2.3345
  272MOL0     H37530   9.683   0.553   3.617  0.0052 -0.0205  0.2928
  272MOL0     H37531   9.670   0.691   3.730  2.4102 -0.6379 -1.3090
  272MOL0     H37532   9.564   0.813   3.335  2.5874  1.9428  0.1865
  272MOL0     H37533   9.226   0.357   4.123  2.3319 -0.1184 -0.4140
  272MOL0     H37534   9.049   0.318   4.368  0.6128 -4.0533 -2.4392
  272MOL0     H37535   9.205   0.257   4.307 -2.7399 -0.7229 -2.2128
  272MOL0     H37536   9.200   0.353   4.458  2.1772  1.9278 -1.7161
  273MOL0     O37537   6.098   1.873   2.388 -0.8582  0.2299 -0.0934
  273MOL0     C37538   6.171   1.815   2.470  0.8341  0.3488  0.2941
  273MOL0     O37539   6.299   1.794   2.454  0.2449 -0.1232 -0.4893
  273MOL0     C37540   6.351   1.782   2.328 -0.3028 -0.7068 -1.1156
  273MOL0     C37541   6.478   1.843   2.302  0.7202  0.6544 -0.3775
  273MOL0     C37542   6.539   1.838   2.176 -0.9639 -0.1531  0.5297
  273MOL0     C37543   6.466   1.781   2.075 -1.1049 -1.1151  0.6294
  273MOL0     O37544   6.512   1.777   1.944 -0.2617 -0.1229  0.0940
  273MOL0     C37545   6.624   1.868   1.902 -0.9347 -0.1393 -0.3438
  273MOL0     C37546   6.720   1.791   1.829 -0.6513  0.6659  0.6491
  273MOL0     C37547   6.805   1.699   1.929 -0.2528  0.1499  0.4462
  273MOL0     C37548   6.943   1.777   1.946 -0.0550  0.0837  0.6338
  273MOL0     C37549   7.028   1.744   1.812 -0.0364 -0.4458  0.1080
  273MOL0     C37550   7.181   1.753   1.837  1.2845 -0.5118  0.8213
  273MOL0     C37551   7.248   1.726   1.699 -0.0848  0.7567  0.0306
  273MOL0     C37552   7.401   1.720   1.731 -0.5290 -0.5934 -0.7332
  273MOL0     N37553   7.475   1.661   1.626  0.1807 -0.5056  0.3954
  273MOL0     C37554   7.532   1.539   1.625 -0.0477  0.2991  0.2406
  273MOL0     C37555   7.586   1.522   1.505 -0.3389 -0.1088 -0.8334
  273MOL0     C37556   7.656   1.400   1.450 -0.3773  0.2679 -0.9451
  273MOL0     C37557   7.709   1.312   1.558  0.5336 -0.3531 -0.7516
  273MOL0     C37558   7.811   1.221   1.491  0.2297  0.6679 -0.0993
  273MOL0     C37559   7.874   1.118   1.584  0.5564  0.4429  0.2769
  273MOL0     O37560   7.783   1.037   1.653 -0.2446  0.2514  0.3904
  273MOL0     C37561   7.745   0.918   1.599 -0.0909  1.3559 -0.3697
  273MOL0     C37562   7.786   0.861   1.478  0.0050  0.1656  0.0414
  273MOL0     C37563   7.755   0.735   1.442 -0.5697 -0.2153 -0.4968
  273MOL0     C37564   7.821   0.681   1.320  0.7242  0.1131 -0.1171
  273MOL0     C37565   7.654   0.670   1.518 -1.0420  1.1979 -0.1716
  273MOL0     C37566   7.606   0.537   1.478  0.0030 -0.3676 -1.0385
  273MOL0     O37567   7.481   0.502   1.514 -0.4260  0.7058 -0.2308
  273MOL0     C37568   7.454   0.368   1.510 -0.5349  0.3787  0.7991
  273MOL0     C37569   7.475   0.287   1.625 -0.0434 -0.2167 -0.7782
  273MOL0     C37570   7.454   0.151   1.625 -0.8944 -0.2471 -0.5256
  273MOL0     C37571   7.403   0.093   1.510 -0.0730 -0.0360 -1.0244
  273MOL0     O37572   7.373  -0.042   1.487 -0.0615 -0.1512 -0.7484
  273MOL0     C37573   7.406  -0.135   1.595 -0.1661  0.3194 -0.4732
  273MOL0     C37574   7.345  -0.280   1.570 -1.1964 -0.3075 -0.0238
  273MOL0     C37575   7.202  -0.275   1.518  0.2238  0.3327 -0.6057
  273MOL0     C37576   7.142  -0.419   1.511  0.1191 -0.2842  0.4075
  273MOL0     C37577   7.006  -0.416   1.428  0.3762  0.8885  0.0228
  273MOL0     C37578   6.959  -0.559   1.388  0.1510 -0.9130 -0.4887
  273MOL0     C37579   7.034  -0.597   1.253 -0.3358 -0.1170  0.4193
  273MOL0     C37580   6.978  -0.728   1.202  0.3042  1.6195 -0.2442
  273MOL0    Cl37581   7.104  -0.804   1.084 -0.3027 -0.5276 -0.0221
  273MOL0     C37582   7.372   0.169   1.405 -0.6283 -0.0736  0.7674
  273MOL0     C37583   7.405   0.300   1.401  1.5919 -0.0272 -0.3456
  273MOL0     O37584   7.692   0.464   1.442 -0.1752  0.2448 -0.0929
  273MOL0     C37585   7.611   0.723   1.642  0.6120 -0.8298 -0.4782
  273MOL0     C37586   7.661   0.846   1.685 -0.4484  0.3505 -0.4809
  273MOL0     N37587   7.561   1.636   1.435 -0.8125 -0.8033  0.0466
  273MOL0     N37588   7.496   1.730   1.501  0.9048 -0.2014 -0.0645
  273MOL0     C37589   6.341   1.725   2.103  0.4548 -0.3676 -0.4992
  273MOL0     C37590   6.283   1.719   2.230 -0.0768  0.4105  1.0556
  273MOL0     C37591   6.106   1.802   2.603 -0.2115 -0.2390  0.8348
  273MOL0     C37592   6.170   1.859   2.716  0.6768  0.3808 -0.4320
  273MOL0     C37593   6.094   1.868   2.835 -0.4378 -0.6045 -0.3329
  273MOL0     C37594   5.968   1.818   2.848  0.4146  0.5716 -0.0219
  273MOL0     O37595   5.888   1.829   2.962  0.1886 -0.4581  0.1378
  273MOL0     C37596   5.942   1.861   3.094 -0.1856 -0.2366  1.2173
  273MOL0     C37597   5.888   1.791   3.215  0.1657  0.7786  0.0778
  273MOL0     C37598   5.924   1.635   3.223  0.4541  0.0990  1.0942
  273MOL0     C37599   6.043   1.604   3.310  0.2650  0.0387 -0.8063
  273MOL0     C37600   6.004   1.592   3.453 -0.2524 -0.1327  0.4393
  273MOL0     C37601   5.987   1.584   3.573  0.1620  0.0103 -0.2521
  273MOL0     C37602   5.913   1.755   2.736 -0.7265 -0.2996 -0.7271
  273MOL0     C37603   5.978   1.736   2.618 -0.0664 -0.7846 -0.4526
  273MOL0     C37604   5.894   1.684   2.507 -0.0322  0.3620 -0.4257
  273MOL0     H37605   6.536   1.896   2.377  0.9063 -3.7697  3.0075
  273MOL0     H37606   6.640   1.874   2.160 -0.7915 -2.0220 -4.1770
  273MOL0     H37607   6.682   1.914   1.982  1.6740 -2.0156 -0.9868
  273MOL0     H37608   6.579   1.944   1.839 -2.0946 -1.5726 -1.2994
  273MOL0     H37609   6.663   1.722   1.766 -1.2545  2.1088 -0.4195
  273MOL0     H37610   6.784   1.854   1.766  1.5754 -2.1150 -0.0655
  273MOL0     H37611   6.765   1.666   2.025 -0.1982 -1.0945  0.0569
  273MOL0     H37612   6.820   1.611   1.867 -2.5341  0.1187 -0.1477
  273MOL0     H37613   6.935   1.886   1.950  2.8373  0.3308  2.2352
  273MOL0     H37614   6.992   1.728   2.031  2.7842  2.5400  0.5692
  273MOL0     H37615   7.002   1.817   1.735  1.1928 -0.7204 -0.5859
  273MOL0     H37616   7.010   1.645   1.769  2.3476  0.4646 -3.3423
  273MOL0     H37617   7.204   1.854   1.871 -0.8764  1.4768 -3.0396
  273MOL0     H37618   7.211   1.679   1.913  1.0693  2.3723  3.9309
  273MOL0     H37619   7.213   1.811   1.641  0.4375  1.6851  1.0287
  273MOL0     H37620   7.208   1.637   1.649  1.2390  1.2617 -2.0414
  273MOL0     H37621   7.438   1.821   1.747 -1.4133 -0.5720  1.4322
  273MOL0     H37622   7.422   1.674   1.828 -0.9763 -1.0767 -0.8588
  273MOL0     H37623   7.520   1.463   1.702 -1.4519  1.1217  0.8755
  273MOL0     H37624   7.741   1.434   1.390 -0.5593  1.8222 -0.3486
  273MOL0     H37625   7.590   1.346   1.381 -2.1143  1.0506  0.0407
  273MOL0     H37626   7.753   1.377   1.634  0.7777 -0.2640 -0.9685
  273MOL0     H37627   7.635   1.255   1.615  1.4494  0.6749  1.5979
  273MOL0     H37628   7.771   1.175   1.400  1.6555 -3.4171  1.1090
  273MOL0     H37629   7.892   1.287   1.458 -2.3899  3.1443 -2.0431
  273MOL0     H37630   7.947   1.054   1.532  0.0004  1.0246 -1.2579
  273MOL0     H37631   7.926   1.160   1.671  1.4739 -0.5276  0.2248
  273MOL0     H37632   7.856   0.920   1.421  4.0352 -0.8068  3.4677
  273MOL0     H37633   7.876   0.591   1.349 -1.6003 -0.5318  2.6927
  273MOL0     H37634   7.878   0.756   1.264  1.1510 -0.8978 -1.0584
  273MOL0     H37635   7.749   0.649   1.244  2.3761  0.5131 -1.9425
  273MOL0     H37636   7.516   0.326   1.718  2.1754 -1.5028 -1.1502
  273MOL0     H37637   7.480   0.088   1.710  0.1387 -1.9360 -2.0237
  273MOL0     H37638   7.514  -0.154   1.602  0.1293  2.4882  2.1755
  273MOL0     H37639   7.384  -0.091   1.692 -0.0348  1.4843 -0.9585
  273MOL0     H37640   7.411  -0.334   1.502  1.0230  2.0843  0.0887
  273MOL0     H37641   7.358  -0.339   1.662  2.0541 -4.5109 -2.7950
  273MOL0     H37642   7.208  -0.243   1.414  0.4662 -2.2629 -1.4469
  273MOL0     H37643   7.141  -0.208   1.580  0.0802 -0.1681 -0.1962
  273MOL0     H37644   7.135  -0.455   1.614  0.6347 -1.3358  0.0861
  273MOL0     H37645   7.213  -0.472   1.447 -0.4103  0.3901 -0.7738
  273MOL0     H37646   6.928  -0.377   1.494 -0.2377  0.8166 -0.6472
  273MOL0     H37647   7.007  -0.350   1.342 -2.1144  2.5767  1.1467
  273MOL0     H37648   6.851  -0.570   1.378  0.2843 -1.2848 -1.7662
  273MOL0     H37649   6.981  -0.630   1.468 -3.3478 -2.8653 -1.0384
  273MOL0     H37650   7.137  -0.621   1.282 -0.2873 -1.5973 -0.8270
  273MOL0     H37651   7.025  -0.513   1.184  0.5736 -1.4157 -1.3784
  273MOL0     H37652   6.882  -0.729   1.149 -0.5951 -2.0991  1.1459
  273MOL0     H37653   6.975  -0.802   1.283  2.1278  0.2856 -1.3264
  273MOL0     H37654   7.345   0.118   1.313  2.8742  2.4053 -1.9115
  273MOL0     H37655   7.380   0.347   1.306 -0.5329 -1.1568 -0.3798
  273MOL0     H37656   7.539   0.672   1.706  2.1812 -2.7836 -0.1543
  273MOL0     H37657   7.627   0.892   1.777  0.7604  0.2105  0.0514
  273MOL0     H37658   6.292   1.668   2.024 -0.3671  2.1372 -1.8888
  273MOL0     H37659   6.181   1.682   2.231  0.1235 -0.1572  0.6171
  273MOL0     H37660   6.257   1.921   2.700  0.9968 -0.1641 -0.8577
  273MOL0     H37661   6.148   1.924   2.910  3.4289 -2.1616 -1.7351
  273MOL0     H37662   6.049   1.841   3.085 -0.2178  0.4923 -2.5968
  273MOL0     H37663   5.930   1.970   3.101 -0.2540  0.1571 -2.5170
  273MOL0     H37664   5.779   1.805   3.214  0.2004  1.0730  0.4902
  273MOL0     H37665   5.933   1.846   3.297  1.2016  3.3817 -2.0791
  273MOL0     H37666   5.839   1.579   3.262  1.1774 -0.9116  1.2798
  273MOL0     H37667   5.930   1.588   3.125  2.4731 -0.3712  1.3792
  273MOL0     H37668   6.122   1.679   3.304  0.6254  0.5596  4.8448
  273MOL0     H37669   6.079   1.503   3.286  0.8762  0.1009 -0.2152
  273MOL0     H37670   5.967   1.594   3.678 -4.4646  0.7590 -1.0051
  273MOL0     H37671   5.807   1.731   2.739 -1.6341  3.1911 -0.6934
  273MOL0     H37672   5.801   1.648   2.552  0.4089  1.5026  1.5184
  273MOL0     H37673   5.858   1.760   2.437  1.0993 -0.0982 -1.5477
  273MOL0     H37674   5.940   1.606   2.447 -1.0097 -1.1686  0.7306
  274MOL0     O37675   6.304   5.836   5.412  0.5565 -0.1616 -0.1398
  274MOL0     C37676   6.299   5.723   5.464 -0.5166  0.7689  0.2288
  274MOL0     O37677   6.397   5.626   5.486  0.1362  0.3098 -0.5421
  274MOL0     C37678   6.527   5.667   5.456  0.8980 -1.3233  0.5940
  274MOL0     C37679   6.591   5.619   5.331  0.0576  0.6859  0.2535
  274MOL0     C37680   6.702   5.690   5.291 -0.1640  0.3932  0.1347
  274MOL0     C37681   6.762   5.785   5.368  0.6300 -0.5365 -0.0744
  274MOL0     O37682   6.866   5.860   5.330  0.5866  0.3742  0.2108
  274MOL0     C37683   6.961   5.801   5.232 -0.8025  0.3047 -0.0166
  274MOL0     C37684   7.079   5.886   5.220  0.7568 -0.3859 -1.1345
  274MOL0     C37685   7.177   5.844   5.107 -1.4726  0.1173  0.3848
  274MOL0     C37686   7.275   5.743   5.155 -0.4777  0.4393 -0.1507
  274MOL0     C37687   7.396   5.748   5.062  0.6598 -0.5632 -0.8836
  274MOL0     C37688   7.469   5.614   5.056 -0.4608 -0.0342  0.1521
  274MOL0     C37689   7.581   5.611   4.945  0.4417 -0.3850  0.0749
  274MOL0     C37690   7.666   5.481   4.942 -0.7094  1.2299 -0.0423
  274MOL0     N37691   7.705   5.448   5.090  0.5623  0.1899  0.5466
  274MOL0     C37692   7.833   5.477   5.153  0.6982  0.0501  0.3315
  274MOL0     C37693   7.829   5.384   5.253  0.4806 -0.1559 -0.5849
  274MOL0     C37694   7.928   5.380   5.364  0.1827  0.3990  0.1137
  274MOL0     C37695   8.016   5.251   5.340  0.3733  0.0104  0.8233
  274MOL0     C37696   8.125   5.272   5.229 -0.3986  0.0172 -0.2643
  274MOL0     C37697   8.201   5.138   5.202 -0.5016 -0.2926 -0.1839
  274MOL0     O37698   8.274   5.082   5.310 -0.2478 -0.3905 -0.3075
  274MOL0     C37699   8.265   4.946   5.337  0.3796  0.5544  0.7123
  274MOL0     C37700   8.286   4.851   5.237 -0.3138  0.2753 -0.6868
  274MOL0     C37701   8.295   4.710   5.271 -0.1561 -1.4201 -0.5807
  274MOL0     C37702   8.306   4.623   5.143 -0.3140  0.6814 -0.4668
  274MOL0     C37703   8.325   4.674   5.405  0.0712 -0.4950  0.6806
  274MOL0     C37704   8.382   4.541   5.452  0.6783  0.1481 -0.1918
  274MOL0     O37705   8.379   4.440   5.366 -0.7716 -0.1930  0.0317
  274MOL0     C37706   8.409   4.312   5.402  0.6348 -0.5247  0.0660
  274MOL0     C37707   8.389   4.259   5.536 -0.0076 -0.1560  0.5463
  274MOL0     C37708   8.393   4.118   5.551 -0.3734 -0.5589 -0.9111
  274MOL0     C37709   8.436   4.037   5.445 -0.3375 -0.4387 -0.5162
  274MOL0     O37710   8.448   3.903   5.476  0.0352  0.5070  0.7622
  274MOL0     C37711   8.447   3.805   5.366 -0.3899  0.4714  0.0226
  274MOL0     C37712   8.481   3.671   5.430  1.0175 -0.1737 -0.9756
  274MOL0     C37713   8.391   3.628   5.544  0.3554  0.9485  0.5498
  274MOL0     C37714   8.446   3.494   5.592 -0.0785  0.9231 -1.2086
  274MOL0     C37715   8.569   3.512   5.673  0.0849 -0.8186 -0.3994
  274MOL0     C37716   8.621   3.371   5.728 -0.0545 -0.5831  0.5320
  274MOL0     C37717   8.755   3.397   5.804  0.2132 -0.1714  0.5236
  274MOL0     C37718   8.835   3.268   5.805 -0.4072  0.3125 -0.5995
  274MOL0    Cl37719   9.000   3.311   5.835 -0.5910  0.1401  0.3810
  274MOL0     C37720   8.472   4.093   5.318 -0.3436  0.2499 -0.9399
  274MOL0     C37721   8.451   4.231   5.304 -0.1451 -1.0095 -0.7808
  274MOL0     O37722   8.430   4.538   5.567 -0.2502  0.1147  0.1799
  274MOL0     C37723   8.304   4.773   5.502  0.0479 -0.1604  1.0512
  274MOL0     C37724   8.275   4.905   5.462  0.1627 -0.1369 -1.1098
  274MOL0     N37725   7.721   5.307   5.256  0.9444  0.0109  0.4356
  274MOL0     N37726   7.647   5.340   5.159  0.0893  0.0681  0.1182
  274MOL0     C37727   6.706   5.825   5.484  0.5812  0.5138 -1.1773
  274MOL0     C37728   6.590   5.763   5.532 -0.0850 -0.0435  0.2972
  274MOL0     C37729   6.161   5.673   5.491  0.3882  0.3988 -0.0516
  274MOL0     C37730   6.066   5.768   5.530  1.3244  0.3632  0.2716
  274MOL0     C37731   5.932   5.725   5.565 -0.4415 -0.6548  0.1651
  274MOL0     C37732   5.896   5.590   5.563  0.6234  0.2349  0.0461
  274MOL0     O37733   5.777   5.545   5.605  0.4035  0.3478  0.5552
  274MOL0     C37734   5.671   5.527   5.509 -0.5787  0.7435 -1.1699
  274MOL0     C37735   5.587   5.658   5.512 -0.9128 -0.9584 -0.3717
  274MOL0     C37736   5.476   5.644   5.406 -0.6260 -0.6213 -0.0511
  274MOL0     C37737   5.380   5.528   5.446 -0.1966 -0.3906  0.4865
  274MOL0     C37738   5.352   5.535   5.594 -1.7377  0.0295  1.0907
  274MOL0     C37739   5.345   5.511   5.718 -0.5814 -0.1692 -0.5205
  274MOL0     C37740   5.989   5.504   5.509 -0.1707 -0.0040 -0.1100
  274MOL0     C37741   6.122   5.536   5.480 -0.1495 -0.4860 -0.6705
  274MOL0     C37742   6.212   5.428   5.415 -0.2275 -0.7043  0.2001
  274MOL0     H37743   6.542   5.561   5.254 -3.0273  2.8277  0.3853
  274MOL0     H37744   6.744   5.665   5.194  0.0685  1.0486  0.0594
  274MOL0     H37745   6.903   5.788   5.140  0.2541 -1.8948 -0.4359
  274MOL0     H37746   6.990   5.701   5.267 -0.5691  0.5576  0.5239
  274MOL0     H37747   7.048   5.989   5.203 -0.5154 -0.7016 -0.8738
  274MOL0     H37748   7.130   5.878   5.316  0.6822  1.9609 -0.8380
  274MOL0     H37749   7.124   5.828   5.012  0.8883  0.2098 -1.0123
  274MOL0     H37750   7.235   5.934   5.084 -1.3748  0.0829  0.4965
  274MOL0     H37751   7.311   5.769   5.255  5.0423  0.9845 -1.9713
  274MOL0     H37752   7.230   5.644   5.162  5.0749 -2.3562  2.1778
  274MOL0     H37753   7.451   5.838   5.093 -0.2651 -0.2895  0.0361
  274MOL0     H37754   7.377   5.772   4.957  2.6183 -1.7641 -1.5627
  274MOL0     H37755   7.507   5.601   5.158 -0.4055  0.9278  0.2595
  274MOL0     H37756   7.388   5.543   5.036  0.1351 -1.7471  3.2038
  274MOL0     H37757   7.643   5.693   4.981  0.1816 -0.4445  0.6640
  274MOL0     H37758   7.544   5.640   4.847  1.9338  1.4630  0.0118
  274MOL0     H37759   7.606   5.400   4.900  2.5154 -1.0046 -0.6957
  274MOL0     H37760   7.742   5.511   4.868 -0.5663  2.5861  0.6294
  274MOL0     H37761   7.904   5.558   5.143  0.4565  0.1301 -0.9365
  274MOL0     H37762   7.875   5.380   5.460 -2.3222  2.4616 -1.1628
  274MOL0     H37763   7.990   5.470   5.375 -1.7171  1.4441  4.9336
  274MOL0     H37764   8.074   5.231   5.431  1.6830  1.2809  0.3133
  274MOL0     H37765   7.955   5.161   5.325  0.1135  0.3164 -0.0033
  274MOL0     H37766   8.075   5.307   5.139  0.7207  1.7682 -0.2519
  274MOL0     H37767   8.195   5.352   5.252 -2.8335  2.1649  0.0740
  274MOL0     H37768   8.120   5.071   5.171 -0.7468 -0.4073  0.6646
  274MOL0     H37769   8.270   5.154   5.118  0.1663 -2.4395 -0.1089
  274MOL0     H37770   8.272   4.879   5.133  1.1172  1.2335 -0.6516
  274MOL0     H37771   8.280   4.679   5.053  1.7386 -0.4810 -1.8650
  274MOL0     H37772   8.243   4.535   5.144  2.2166 -1.2587 -0.8188
  274MOL0     H37773   8.403   4.572   5.138 -0.5938 -0.1309  1.4954
  274MOL0     H37774   8.351   4.321   5.617  1.3567 -0.4178  1.4106
  274MOL0     H37775   8.387   4.068   5.647 -0.7162 -1.6250 -1.4708
  274MOL0     H37776   8.348   3.802   5.320  2.0383 -1.2246 -6.0886
  274MOL0     H37777   8.524   3.827   5.292 -0.5012  0.5391 -0.0740
  274MOL0     H37778   8.482   3.589   5.358  0.9767  1.4630 -2.9172
  274MOL0     H37779   8.582   3.674   5.474  0.2242 -1.3031  1.0612
  274MOL0     H37780   8.286   3.620   5.513  0.3413 -1.7618  1.0465
  274MOL0     H37781   8.387   3.705   5.621 -1.9468  1.0649  0.3824
  274MOL0     H37782   8.464   3.418   5.515 -1.5134 -2.2039  1.3117
  274MOL0     H37783   8.377   3.451   5.665  0.3932  2.7279  0.3659
  274MOL0     H37784   8.659   3.549   5.624  1.2383  2.0532  3.3933
  274MOL0     H37785   8.550   3.592   5.745 -2.0067  2.7419 -4.4290
  274MOL0     H37786   8.623   3.298   5.648  0.7056  0.1916 -0.1792
  274MOL0     H37787   8.545   3.329   5.794 -2.8145 -0.4199 -2.3100
  274MOL0     H37788   8.742   3.443   5.903  1.6381  0.2665  0.5324
  274MOL0     H37789   8.813   3.464   5.740  2.5457 -2.0669  0.5137
  274MOL0     H37790   8.831   3.223   5.705  0.8122 -2.0084  0.3251
  274MOL0     H37791   8.798   3.198   5.881 -0.3346  1.7311  0.8090
  274MOL0     H37792   8.507   4.037   5.232 -4.3922 -2.5121 -1.0673
  274MOL0     H37793   8.458   4.268   5.202 -1.7399  1.1071 -0.2141
  274MOL0     H37794   8.324   4.756   5.608  1.1510 -4.1216  0.3635
  274MOL0     H37795   8.271   4.973   5.547  2.5399 -0.7953 -0.3871
  274MOL0     H37796   6.744   5.911   5.539 -2.2280  0.0076  1.8759
  274MOL0     H37797   6.542   5.787   5.627  0.8322 -2.4796  1.4494
  274MOL0     H37798   6.116   5.862   5.553 -0.8232  1.1848  1.8975
  274MOL0     H37799   5.861   5.805   5.586  0.5550  0.2603  0.1507
  274MOL0     H37800   5.718   5.513   5.412  0.4734 -0.3191 -0.5403
  274MOL0     H37801   5.622   5.436   5.545 -0.5033  0.9488 -0.5251
  274MOL0     H37802   5.654   5.735   5.474 -1.2728 -1.0097 -1.1225
  274MOL0     H37803   5.549   5.682   5.612  0.3252  0.1533 -0.1359
  274MOL0     H37804   5.423   5.739   5.416  0.8802  0.1649  0.6852
  274MOL0     H37805   5.523   5.634   5.307  2.4614 -2.5428  1.4609
  274MOL0     H37806   5.409   5.428   5.412 -1.6861 -0.4396 -0.8088
  274MOL0     H37807   5.285   5.549   5.394  1.6001  1.9467 -2.2135
  274MOL0     H37808   5.348   5.471   5.817  0.8833  1.7772  0.2848
  274MOL0     H37809   5.959   5.401   5.496  1.5931 -0.6479  0.5861
  274MOL0     H37810   6.250   5.451   5.316 -3.8293 -0.3946 -1.2545
  274MOL0     H37811   6.292   5.406   5.487  0.5838 -3.2901 -1.3724
  274MOL0     H37812   6.152   5.337   5.403 -2.7903  0.8951  0.1032
  275MOL0     O37813   5.604   3.019   8.674 -0.3698 -0.0984 -0.5193
  275MOL0     C37814   5.626   3.113   8.752  1.0144  0.3225 -0.0374
  275MOL0     O37815   5.555   3.231   8.759  0.7756 -0.3177 -0.8603
  275MOL0     C37816   5.451   3.256   8.670 -0.1813  1.2860  0.6041
  275MOL0     C37817   5.475   3.247   8.540 -0.0741 -0.3908  0.3850
  275MOL0     C37818   5.371   3.262   8.452  0.3079  1.1257 -0.1328
  275MOL0     C37819   5.237   3.276   8.497  0.5085  0.7498  0.6545
  275MOL0     O37820   5.152   3.284   8.399  0.6278  0.3928  0.3041
  275MOL0     C37821   5.017   3.238   8.428 -0.1058  0.5744  0.0775
  275MOL0     C37822   4.930   3.286   8.303  0.1041  0.8852 -0.3636
  275MOL0     C37823   4.859   3.430   8.317 -0.7995  0.3750  0.1522
  275MOL0     C37824   4.798   3.458   8.181 -0.8914 -0.5466  0.4405
  275MOL0     C37825   4.714   3.585   8.181  0.1239 -0.0985  0.2289
  275MOL0     C37826   4.788   3.721   8.193  0.0727 -0.3064 -0.3149
  275MOL0     C37827   4.679   3.841   8.175  0.6587  0.4299 -0.3192
  275MOL0     C37828   4.557   3.836   8.271 -0.0090  0.1036 -0.7252
  275MOL0     N37829   4.502   3.963   8.308  0.8699  0.9067  0.4138
  275MOL0     C37830   4.478   4.019   8.437 -0.1416 -0.4712  0.3684
  275MOL0     C37831   4.454   4.149   8.416 -0.1596 -0.1461 -1.2372
  275MOL0     C37832   4.434   4.251   8.521 -0.2150 -1.1360  0.1373
  275MOL0     C37833   4.291   4.237   8.582 -1.0109 -0.6009  0.4708
  275MOL0     C37834   4.265   4.339   8.694  0.0674 -0.4837 -0.6117
  275MOL0     C37835   4.132   4.322   8.754 -0.2472 -0.5724 -0.2066
  275MOL0     O37836   4.118   4.220   8.855  0.6163  0.6527 -0.0950
  275MOL0     C37837   4.149   4.236   8.984 -0.5505 -0.4527 -0.1170
  275MOL0     C37838   4.249   4.322   9.033  0.1712 -0.5309 -0.1981
  275MOL0     C37839   4.301   4.318   9.162 -0.2045  1.4081  0.2318
  275MOL0     C37840   4.412   4.411   9.212  0.6758  0.1162 -0.4872
  275MOL0     C37841   4.251   4.223   9.249 -0.4721  0.8866 -0.4513
  275MOL0     C37842   4.290   4.195   9.391  0.2483 -0.4671 -0.3394
  275MOL0     O37843   4.299   4.060   9.438  0.9696  0.3196 -0.1299
  275MOL0     C37844   4.345   4.046   9.570 -0.4330 -0.5548  0.1438
  275MOL0     C37845   4.263   4.020   9.677  0.3529  0.7212  0.3612
  275MOL0     C37846   4.306   3.994   9.806 -0.1310 -0.6432  0.5985
  275MOL0     C37847   4.444   3.985   9.836  0.2148 -1.2358  0.6585
  275MOL0     O37848   4.477   3.962   9.966 -0.2786  0.6828  0.8428
  275MOL0     C37849   4.607   3.910   9.995 -0.7073  0.9043 -0.0958
  275MOL0     C37850   4.616   3.861  10.139 -1.0981 -0.4377 -0.4723
  275MOL0     C37851   4.762   3.840  10.175 -0.3640 -0.2109  0.3663
  275MOL0     C37852   4.801   3.788  10.313 -0.4249 -0.5166 -0.1883
  275MOL0     C37853   4.954   3.789  10.324 -0.8615  0.6873 -0.5089
  275MOL0     C37854   4.986   3.720  10.459 -0.5043  0.4681  0.8825
  275MOL0     C37855   5.131   3.742  10.502 -0.4674 -0.4262 -1.4037
  275MOL0     C37856   5.229   3.730  10.392 -0.1809 -0.1390 -0.1407
  275MOL0    Cl37857   5.217   3.575  10.316 -0.5264 -0.5036 -0.0083
  275MOL0     C37858   4.526   4.022   9.725 -0.5314 -0.1955  0.7215
  275MOL0     C37859   4.482   4.055   9.598 -0.2677  0.0342  0.7987
  275MOL0     O37860   4.295   4.297   9.461  0.3497  0.7937 -0.0017
  275MOL0     C37861   4.139   4.139   9.210 -0.2569 -0.6647 -0.0019
  275MOL0     C37862   4.093   4.147   9.080 -0.5643 -0.1083  0.0619
  275MOL0     N37863   4.451   4.166   8.279 -0.3729 -0.0197  0.6911
  275MOL0     N37864   4.496   4.069   8.216 -0.2879 -0.2695 -0.3825
  275MOL0     C37865   5.213   3.268   8.639  0.2806 -0.2729  0.5128
  275MOL0     C37866   5.325   3.268   8.722  0.6044  0.7707  0.2476
  275MOL0     C37867   5.721   3.081   8.864 -0.0735 -0.5082  0.5669
  275MOL0     C37868   5.721   3.167   8.978 -0.4918  0.4055  0.0894
  275MOL0     C37869   5.828   3.156   9.068 -0.2539 -1.2240 -0.0281
  275MOL0     C37870   5.926   3.055   9.063  0.3525  0.7209  0.2171
  275MOL0     O37871   6.018   3.040   9.171  0.0586  0.6639 -0.6846
  275MOL0     C37872   6.153   3.078   9.139 -0.4498  0.2081 -0.8466
  275MOL0     C37873   6.198   3.217   9.186  0.1199 -0.1574 -0.5652
  275MOL0     C37874   6.224   3.214   9.333 -0.5240 -0.9404 -0.0598
  275MOL0     C37875   6.259   3.367   9.365  0.7362  0.0856  0.8186
  275MOL0     C37876   6.319   3.375   9.503  0.2645  0.0688  0.3415
  275MOL0     C37877   6.385   3.374   9.603  0.1786 -0.0557  0.2873
  275MOL0     C37878   5.928   2.971   8.954  0.0088 -0.7632  0.0608
  275MOL0     C37879   5.835   2.991   8.847 -0.7773 -0.3250 -0.3578
  275MOL0     C37880   5.866   2.913   8.724 -0.7892  1.2086  0.1883
  275MOL0     H37881   5.572   3.220   8.500 -0.6228 -0.0146 -1.2753
  275MOL0     H37882   5.396   3.260   8.347  0.3770  0.0086 -0.1068
  275MOL0     H37883   4.978   3.279   8.521  0.0831 -0.7391  0.7673
  275MOL0     H37884   5.028   3.129   8.437  1.2973  0.8960  4.9970
  275MOL0     H37885   5.001   3.291   8.220 -0.3497  1.3160 -0.7284
  275MOL0     H37886   4.850   3.211   8.295  1.2253 -0.6716  1.8584
  275MOL0     H37887   4.789   3.431   8.401  0.2837 -0.0371  1.0737
  275MOL0     H37888   4.927   3.512   8.340 -1.3090  0.5456  1.1236
  275MOL0     H37889   4.869   3.471   8.099 -1.1679 -0.3238  0.2329
  275MOL0     H37890   4.730   3.375   8.160  0.0758 -0.9057 -1.5327
  275MOL0     H37891   4.641   3.582   8.263 -0.7025 -0.9145 -0.5209
  275MOL0     H37892   4.652   3.590   8.091  3.7291 -2.0528 -2.6453
  275MOL0     H37893   4.852   3.740   8.280  0.1673  1.6162 -0.7678
  275MOL0     H37894   4.853   3.736   8.106  1.1618 -0.0580  0.5213
  275MOL0     H37895   4.647   3.841   8.070  3.3515 -1.5950 -1.2674
  275MOL0     H37896   4.724   3.937   8.203  2.2441 -0.2719 -0.3366
  275MOL0     H37897   4.468   3.791   8.225 -1.7326  3.0959 -0.6063
  275MOL0     H37898   4.590   3.768   8.350  0.0827  1.5830  0.5507
  275MOL0     H37899   4.486   3.963   8.529  0.2762 -0.5958  0.2543
  275MOL0     H37900   4.451   4.351   8.482 -1.1785 -1.7418 -1.9764
  275MOL0     H37901   4.519   4.241   8.590  0.5160  0.7736 -0.4402
  275MOL0     H37902   4.225   4.266   8.500 -1.2928  2.2880  1.6170
  275MOL0     H37903   4.280   4.135   8.620 -2.5932 -0.6167  0.0485
  275MOL0     H37904   4.344   4.322   8.768 -0.5472 -2.5290 -0.3507
  275MOL0     H37905   4.259   4.439   8.650 -0.9140  0.8595  2.3606
  275MOL0     H37906   4.110   4.416   8.806  0.2557 -0.7586  0.3640
  275MOL0     H37907   4.054   4.300   8.681 -0.8750 -2.7902  1.0577
  275MOL0     H37908   4.298   4.390   8.964 -1.9404  1.0731 -0.2073
  275MOL0     H37909   4.502   4.367   9.256  1.4124  1.2435 -0.7991
  275MOL0     H37910   4.370   4.487   9.279 -0.5186  0.2022 -1.3018
  275MOL0     H37911   4.444   4.462   9.120 -1.0483  0.7371 -0.7760
  275MOL0     H37912   4.157   4.025   9.658  0.4190 -0.5449 -0.4884
  275MOL0     H37913   4.229   3.978   9.881  2.4154 -2.5582  3.0212
  275MOL0     H37914   4.617   3.823   9.929 -2.6388  0.9063 -0.4672
  275MOL0     H37915   4.684   3.982   9.968 -0.9750  0.7012 -1.4998
  275MOL0     H37916   4.576   3.934  10.210 -0.4611 -0.2973 -0.2540
  275MOL0     H37917   4.562   3.769  10.162 -1.5240 -0.1918 -0.4748
  275MOL0     H37918   4.810   3.937  10.154 -6.0661  3.1195  0.6870
  275MOL0     H37919   4.803   3.770  10.102  0.1919  0.4316  0.0533
  275MOL0     H37920   4.766   3.684  10.320  0.0624 -0.5922  2.2932
  275MOL0     H37921   4.760   3.846  10.396 -2.0809 -1.1525 -0.5409
  275MOL0     H37922   4.990   3.727  10.241 -0.8802  0.5175 -0.3905
  275MOL0     H37923   4.983   3.894  10.327 -0.9474  0.6980  0.2217
  275MOL0     H37924   4.958   3.614  10.450  0.4567  0.3856 -3.3068
  275MOL0     H37925   4.910   3.760  10.527 -2.5546 -0.6427 -0.6110
  275MOL0     H37926   5.146   3.652  10.563 -0.3304 -1.2844 -2.6791
  275MOL0     H37927   5.142   3.814  10.584  0.7880 -2.8032  0.6409
  275MOL0     H37928   5.332   3.734  10.427 -0.1799 -0.4179 -0.1117
  275MOL0     H37929   5.214   3.815  10.325  3.2816 -0.4223 -1.4433
  275MOL0     H37930   4.633   4.028   9.742 -0.8885  1.6681  2.7274
  275MOL0     H37931   4.547   4.092   9.518  3.2110 -1.2989  2.7931
  275MOL0     H37932   4.087   4.062   9.265  0.4435 -1.6481 -0.6694
  275MOL0     H37933   4.005   4.088   9.057 -0.3821  1.6219 -7.6372
  275MOL0     H37934   5.112   3.270   8.678  0.0154 -0.7681 -0.1310
  275MOL0     H37935   5.332   3.275   8.830  2.6766  2.3280  0.0972
  275MOL0     H37936   5.645   3.245   8.983  0.0360  1.0088 -0.9383
  275MOL0     H37937   5.846   3.218   9.156  2.1135 -2.2678  0.3013
  275MOL0     H37938   6.220   3.011   9.193 -2.2430  1.0629  2.7791
  275MOL0     H37939   6.164   3.082   9.030 -1.4185  1.3318 -0.9203
  275MOL0     H37940   6.121   3.293   9.174 -0.1434  0.0648  1.9937
  275MOL0     H37941   6.282   3.249   9.123  1.0616 -0.3111  0.5829
  275MOL0     H37942   6.134   3.188   9.388 -0.2916  0.2584  0.9442
  275MOL0     H37943   6.306   3.153   9.373 -0.1113  0.6036  1.6213
  275MOL0     H37944   6.171   3.432   9.360  0.9747  0.4335  1.1197
  275MOL0     H37945   6.331   3.399   9.290  0.6644 -0.7825  0.3758
  275MOL0     H37946   6.425   3.388   9.701 -1.6336  0.7632  0.9640
  275MOL0     H37947   6.008   2.898   8.946  0.8077 -0.1821  2.2142
  275MOL0     H37948   5.823   2.955   8.633 -0.0368 -1.3219 -1.4750
  275MOL0     H37949   5.974   2.913   8.709 -0.5140  0.7536  1.9278
  275MOL0     H37950   5.838   2.807   8.731 -0.8462  1.2069 -0.0354
  276MOL0     O37951   9.537   3.977   9.621 -0.5160 -0.2601  0.0360
  276MOL0     C37952   9.644   3.939   9.666 -0.0110  0.4754 -0.8835
  276MOL0     O37953   9.765   3.942   9.611  0.6256 -0.1395  0.2256
  276MOL0     C37954   9.776   4.026   9.496  0.3072  0.8354 -0.1120
  276MOL0     C37955   9.832   3.984   9.377 -0.7693  0.3501  0.4028
  276MOL0     C37956   9.842   4.067   9.265 -0.4694  0.5087 -0.6986
  276MOL0     C37957   9.806   4.200   9.270 -0.6075  0.2495  0.3846
  276MOL0     O37958   9.814   4.278   9.154 -0.0829 -0.4742  0.8892
  276MOL0     C37959   9.854   4.221   9.031  0.2430 -0.3030  0.9362
  276MOL0     C37960   9.878   4.321   8.928 -0.1867 -0.1898  0.4154
  276MOL0     C37961   9.907   4.266   8.791  0.3943  0.4508  0.8170
  276MOL0     C37962   9.867   4.346   8.681 -0.0735 -0.5062  0.0292
  276MOL0     C37963   9.874   4.282   8.540  0.1523  0.1617  0.6606
  276MOL0     C37964   9.758   4.187   8.523 -0.2565 -0.6025  0.6550
  276MOL0     C37965   9.748   4.133   8.379 -0.1160  0.6295  0.0059
  276MOL0     C37966   9.709   3.982   8.387 -0.7720 -1.0413  0.2569
  276MOL0     N37967   9.698   3.923   8.259 -0.2619 -0.5460 -1.0274
  276MOL0     C37968   9.796   3.850   8.199  0.1868 -0.6103  1.0561
  276MOL0     C37969   9.753   3.816   8.074  0.9629  0.0994 -0.1089
  276MOL0     C37970   9.833   3.729   7.974  0.0575 -0.5499 -0.0672
  276MOL0     C37971   9.841   3.572   7.998  0.3050  0.3108 -0.2329
  276MOL0     C37972   9.907   3.507   7.875 -1.0824  0.8475 -0.1861
  276MOL0     C37973  10.051   3.555   7.834  0.4706  0.2833  0.5107
  276MOL0     O37974  10.026   3.650   7.737 -0.2812 -0.0895 -0.3950
  276MOL0     C37975  10.125   3.675   7.648 -0.1143 -0.5679 -0.3143
  276MOL0     C37976  10.086   3.746   7.537 -0.2599 -0.8737 -0.5315
  276MOL0     C37977  10.178   3.780   7.428  0.0563 -0.0160  0.0513
  276MOL0     C37978  10.131   3.869   7.318  0.2795 -0.3010 -0.2305
  276MOL0     C37979  10.308   3.734   7.441 -0.8421  0.0606  0.9572
  276MOL0     C37980  10.413   3.733   7.328  0.4349 -0.0437 -0.7904
  276MOL0     O37981  10.523   3.663   7.362  0.1508 -0.7346  0.0052
  276MOL0     C37982  10.633   3.668   7.289 -0.0923  0.0700  0.0609
  276MOL0     C37983  10.687   3.787   7.232  0.9802  0.2879 -0.5084
  276MOL0     C37984  10.805   3.784   7.154 -0.5901 -0.0459  0.2558
  276MOL0     C37985  10.873   3.665   7.127  0.7434  1.0490 -0.3346
  276MOL0     O37986  10.969   3.682   7.030  0.3735  0.4124  0.2290
  276MOL0     C37987  11.038   3.573   6.979  0.3078  0.8808  0.8156
  276MOL0     C37988  11.153   3.625   6.878 -0.4603  1.3852 -0.4972
  276MOL0     C37989  11.224   3.493   6.836 -0.1445  0.2932 -0.0241
  276MOL0     C37990  11.359   3.526   6.778 -0.9139  0.2588  0.2972
  276MOL0     C37991  11.444   3.405   6.740 -0.0719  0.1918  0.4651
  276MOL0     C37992  11.553   3.446   6.632 -0.5555  0.1522  0.6708
  276MOL0     C37993  11.676   3.353   6.640 -0.0667 -0.0899  0.1554
  276MOL0     C37994  11.754   3.381   6.768  0.3791  0.5531 -0.2000
  276MOL0    Cl37995  11.924   3.322   6.765  0.2090  0.4847  0.2801
  276MOL0     C37996  10.827   3.542   7.185 -0.1812  0.4394 -0.4328
  276MOL0     C37997  10.714   3.546   7.268 -0.3662  0.3438 -0.0378
  276MOL0     O37998  10.393   3.799   7.224 -0.2514  0.7693  0.6782
  276MOL0     C37999  10.349   3.652   7.545  0.1545  0.1007 -0.2317
  276MOL0     C38000  10.249   3.610   7.643 -0.6274 -0.4735  0.3280
  276MOL0     N38001   9.626   3.872   8.063  0.2461 -0.7709  0.1892
  276MOL0     N38002   9.594   3.941   8.174 -0.8569  0.1519 -0.3417
  276MOL0     C38003   9.750   4.249   9.393 -0.4733 -0.0455 -0.3789
  276MOL0     C38004   9.734   4.163   9.507  0.1985  0.1955 -0.0569
  276MOL0     C38005   9.649   3.877   9.806 -0.4355  0.9726 -0.3436
  276MOL0     C38006   9.776   3.844   9.864 -0.1014  0.3043 -0.1984
  276MOL0     C38007   9.780   3.791   9.991 -0.1484  1.5285 -0.0272
  276MOL0     C38008   9.669   3.780  10.074  0.6361  0.3450  0.0427
  276MOL0     O38009   9.656   3.722  10.201 -0.7885 -0.0645  0.6702
  276MOL0     C38010   9.771   3.673  10.272  0.1415  0.1601  0.0234
  276MOL0     C38011   9.767   3.731  10.419 -0.8044 -0.4081  0.5784
  276MOL0     C38012   9.671   3.679  10.524  1.2439  0.2750  0.7277
  276MOL0     C38013   9.535   3.628  10.475  0.9347  0.4389  0.3371
  276MOL0     C38014   9.446   3.737  10.428 -0.9771 -0.2420  0.4185
  276MOL0     C38015   9.378   3.834  10.392  0.1193  0.3930  0.6985
  276MOL0     C38016   9.552   3.825  10.021  0.3467 -0.1248 -0.1559
  276MOL0     C38017   9.533   3.855   9.883 -0.3509 -0.4485 -0.4630
  276MOL0     C38018   9.393   3.902   9.849 -1.1053  0.6583 -0.2301
  276MOL0     H38019   9.848   3.878   9.364 -0.1413  0.3696  0.9752
  276MOL0     H38020   9.894   4.010   9.189  0.8590  1.6688 -0.6933
  276MOL0     H38021   9.771   4.156   9.000  0.3537 -0.4818  1.0065
  276MOL0     H38022   9.946   4.162   9.044 -1.4031 -2.6905  2.5709
  276MOL0     H38023   9.786   4.378   8.914  0.9528  1.8901  0.8457
  276MOL0     H38024   9.955   4.393   8.958 -1.9621  1.9253  0.1778
  276MOL0     H38025  10.015   4.267   8.778  0.0588 -0.7945 -3.7335
  276MOL0     H38026   9.881   4.160   8.779  0.6109  0.5744 -1.1317
  276MOL0     H38027   9.770   4.393   8.701  0.2955 -1.2136  4.3513
  276MOL0     H38028   9.948   4.418   8.673  0.8956 -1.7152 -1.9280
  276MOL0     H38029   9.971   4.237   8.521  0.4621  0.9101  0.4285
  276MOL0     H38030   9.849   4.362   8.469  4.4297  0.4112 -0.8479
  276MOL0     H38031   9.763   4.103   8.593  2.6848 -0.0858  1.1780
  276MOL0     H38032   9.670   4.250   8.545  2.4019  3.9071 -0.3499
  276MOL0     H38033   9.848   4.140   8.336  0.7099 -0.4476  1.6617
  276MOL0     H38034   9.674   4.187   8.319 -1.1800 -0.2669  0.4644
  276MOL0     H38035   9.784   3.932   8.448 -0.7558 -1.3896 -0.0462
  276MOL0     H38036   9.613   3.978   8.439 -1.8818 -1.7973 -1.7335
  276MOL0     H38037   9.896   3.830   8.236 -0.5200 -2.6825  1.9954
  276MOL0     H38038   9.932   3.773   7.981  1.4751 -3.5052 -0.0283
  276MOL0     H38039   9.791   3.748   7.875 -0.8930 -1.2330  0.1810
  276MOL0     H38040   9.892   3.541   8.089 -0.2383 -2.8695 -0.8749
  276MOL0     H38041   9.740   3.529   8.000  1.0703 -1.5690  0.5704
  276MOL0     H38042   9.901   3.399   7.894 -1.8471  0.5263 -2.0390
  276MOL0     H38043   9.838   3.520   7.792 -3.1068 -0.6981  1.1626
  276MOL0     H38044  10.099   3.619   7.909  1.0926  1.2987 -0.7085
  276MOL0     H38045  10.099   3.460   7.812  0.8408 -0.2067  3.0782
  276MOL0     H38046   9.987   3.788   7.525 -0.8265 -2.8868 -4.9500
  276MOL0     H38047  10.148   3.826   7.219 -1.9841 -0.9102 -0.4005
  276MOL0     H38048  10.172   3.971   7.321 -1.9713  0.7662 -2.3654
  276MOL0     H38049  10.023   3.881   7.329  0.0791  1.7893 -3.3498
  276MOL0     H38050  10.626   3.868   7.270 -0.0060 -2.1101  3.6607
  276MOL0     H38051  10.840   3.878   7.112 -1.1166 -1.1640 -2.9098
  276MOL0     H38052  11.087   3.515   7.058  1.7923  0.7641 -0.1594
  276MOL0     H38053  10.965   3.503   6.939  1.4781 -0.1406  0.3992
  276MOL0     H38054  11.132   3.675   6.783  0.2979 -3.0923 -3.3159
  276MOL0     H38055  11.216   3.691   6.938  0.1691  0.8293 -0.5389
  276MOL0     H38056  11.163   3.444   6.760 -1.0656 -1.9558  2.0352
  276MOL0     H38057  11.235   3.422   6.918  0.2107 -1.2999 -1.4187
  276MOL0     H38058  11.430   3.591   6.830  2.4847 -1.9494 -1.2322
  276MOL0     H38059  11.332   3.568   6.681 -2.8848 -1.3669  0.0771
  276MOL0     H38060  11.493   3.389   6.837  0.1529 -1.7851  0.0683
  276MOL0     H38061  11.388   3.319   6.705  2.7644 -0.8017 -2.0600
  276MOL0     H38062  11.585   3.550   6.644  1.2333  0.1264 -2.6119
  276MOL0     H38063  11.513   3.453   6.530  0.2433  3.1039  0.4631
  276MOL0     H38064  11.749   3.371   6.561 -1.9556 -4.7091 -3.1330
  276MOL0     H38065  11.651   3.247   6.625  1.7558 -0.0705 -5.0172
  276MOL0     H38066  11.705   3.338   6.856  1.7993  0.0998  0.3927
  276MOL0     H38067  11.775   3.486   6.790  1.7784  0.0130  1.2222
  276MOL0     H38068  10.872   3.443   7.183  1.0924  0.8596  2.2249
  276MOL0     H38069  10.695   3.462   7.334  1.1433  0.9480  1.2332
  276MOL0     H38070  10.446   3.604   7.555  0.3100  0.4306 -0.1568
  276MOL0     H38071  10.270   3.530   7.713  0.0107 -0.4719  0.1395
  276MOL0     H38072   9.707   4.347   9.411  2.3915  1.5646 -1.6605
  276MOL0     H38073   9.692   4.206   9.597 -2.3303  0.4043 -1.2608
  276MOL0     H38074   9.867   3.865   9.809 -0.5214  2.1717 -0.2605
  276MOL0     H38075   9.881   3.777  10.029  0.1825  3.1752 -0.2030
  276MOL0     H38076   9.752   3.565  10.277  1.5553 -0.0790  3.6277
  276MOL0     H38077   9.871   3.695  10.235  0.2538  1.5899  1.0931
  276MOL0     H38078   9.745   3.838  10.409 -0.3569 -0.4324 -0.9948
  276MOL0     H38079   9.869   3.717  10.455 -0.8474 -1.3812  0.3395
  276MOL0     H38080   9.726   3.600  10.576  0.5048 -2.6388 -2.5526
  276MOL0     H38081   9.646   3.765  10.586  1.5727  2.8321 -2.4089
  276MOL0     H38082   9.486   3.562  10.547 -0.1581 -0.4317 -1.1286
  276MOL0     H38083   9.553   3.560  10.391  0.4545  0.2328  0.3951
  276MOL0     H38084   9.298   3.904  10.380 -1.3988 -1.7200 -4.8641
  276MOL0     H38085   9.466   3.823  10.087  1.0632  0.9103  0.8465
  276MOL0     H38086   9.399   4.008   9.821 -0.5249  0.9572  0.9366
  276MOL0     H38087   9.357   3.850   9.760  1.4942 -3.6312  0.9660
  276MOL0     H38088   9.322   3.886   9.931 -0.3662 -1.1821  0.0746
  277MOL0     O38089   3.012   3.218   1.143  0.4855  0.8115 -0.4576
  277MOL0     C38090   2.909   3.170   1.105 -0.2062 -0.0292 -0.3978
  277MOL0     O38091   2.885   3.042   1.065  0.6816  0.3860  0.1320
  277MOL0     C38092   2.978   2.944   1.051 -0.6617 -1.2202  0.1716
  277MOL0     C38093   2.938   2.831   0.978 -0.2969  0.4244  0.2664
  277MOL0     C38094   3.020   2.721   0.972  0.3399 -0.0719 -0.0688
  277MOL0     C38095   3.153   2.719   1.024  1.0390 -0.2666 -0.0311
  277MOL0     O38096   3.225   2.605   0.994  0.1739 -0.5788 -0.1841
  277MOL0     C38097   3.371   2.609   0.993  0.2053  0.0673  0.1131
  277MOL0     C38098   3.434   2.475   1.029  0.1412  0.0928 -0.8040
  277MOL0     C38099   3.353   2.347   0.982  0.1125  0.0385 -0.7429
  277MOL0     C38100   3.443   2.222   0.968 -0.2086 -0.0143  0.2461
  277MOL0     C38101   3.373   2.098   0.927  0.1249 -0.1996  0.2285
  277MOL0     C38102   3.473   1.978   0.920  0.1029  1.6607 -0.9709
  277MOL0     C38103   3.410   1.847   0.869  0.0234  0.4563 -0.8141
  277MOL0     C38104   3.488   1.721   0.931 -0.6250  0.0681  0.1825
  277MOL0     N38105   3.407   1.595   0.935  0.0949 -1.1115 -0.4979
  277MOL0     C38106   3.337   1.550   0.833  0.5795  0.1344 -0.0280
  277MOL0     C38107   3.245   1.466   0.879  0.0157  0.3065 -1.1608
  277MOL0     C38108   3.135   1.403   0.813  0.0454  0.3968 -0.9188
  277MOL0     C38109   3.014   1.392   0.908 -0.6274 -0.0986 -0.6659
  277MOL0     C38110   2.960   1.532   0.944 -0.3053  0.1285 -0.2224
  277MOL0     C38111   2.903   1.540   1.078 -0.1688 -0.6404  0.0690
  277MOL0     O38112   2.815   1.433   1.081  0.1812 -0.4304 -0.2120
  277MOL0     C38113   2.726   1.419   1.192 -0.1566 -0.5853 -0.2565
  277MOL0     C38114   2.634   1.521   1.241 -0.5723  0.6741  0.0738
  277MOL0     C38115   2.569   1.509   1.366  0.5393  0.6368 -0.0679
  277MOL0     C38116   2.463   1.601   1.411  0.4688 -0.3994  0.3948
  277MOL0     C38117   2.595   1.395   1.440  0.0950  0.9033  0.0300
  277MOL0     C38118   2.515   1.352   1.566 -0.5275  0.1200 -0.3969
  277MOL0     O38119   2.480   1.225   1.575  0.0139 -0.7677  0.4668
  277MOL0     C38120   2.393   1.169   1.667 -0.2590  1.1133  0.3853
  277MOL0     C38121   2.439   1.053   1.742  0.5419  0.0588 -0.7971
  277MOL0     C38122   2.365   1.000   1.848 -0.7791 -0.3751 -0.9330
  277MOL0     C38123   2.243   1.058   1.888  0.0832 -0.7163  0.0771
  277MOL0     O38124   2.153   1.019   1.987 -0.0739 -0.0788 -0.2308
  277MOL0     C38125   2.220   0.947   2.097  0.3137  0.5290 -0.3291
  277MOL0     C38126   2.133   0.941   2.219 -0.5561 -0.0027  0.2546
  277MOL0     C38127   2.199   0.873   2.347 -0.4391  0.0221 -0.3389
  277MOL0     C38128   2.216   0.719   2.316  0.5413 -1.0982  0.5471
  277MOL0     C38129   2.285   0.649   2.441  0.2252 -0.4958  0.2114
  277MOL0     C38130   2.195   0.611   2.549  0.6925  0.1122 -1.3966
  277MOL0     C38131   2.234   0.482   2.635 -0.3406 -0.3116 -0.0303
  277MOL0     C38132   2.377   0.485   2.696  0.9674 -0.0879  0.1986
  277MOL0    Cl38133   2.400   0.349   2.817  0.5596 -0.5304  0.4259
  277MOL0     C38134   2.206   1.177   1.815 -1.2192 -0.2181 -0.2637
  277MOL0     C38135   2.278   1.229   1.712  0.7285 -0.9005 -0.2702
  277MOL0     O38136   2.512   1.434   1.657  0.3626 -0.1649  0.9215
  277MOL0     C38137   2.694   1.301   1.393  0.2827  0.6598 -1.5845
  277MOL0     C38138   2.742   1.300   1.270 -0.3511 -1.4900 -1.3444
  277MOL0     N38139   3.278   1.458   1.009 -0.1964 -0.5133  0.6645
  277MOL0     N38140   3.383   1.522   1.043  0.0249 -0.0331 -0.3681
  277MOL0     C38141   3.188   2.822   1.110  0.1966 -0.2324  0.1740
  277MOL0     C38142   3.104   2.940   1.118  0.1288 -1.0205 -1.6849
  277MOL0     C38143   2.785   3.256   1.096  0.8456 -0.2635  0.3992
  277MOL0     C38144   2.670   3.211   1.029  0.1479  0.7238 -0.2206
  277MOL0     C38145   2.556   3.292   1.022  0.4543  0.3086 -0.0139
  277MOL0     C38146   2.538   3.410   1.085  0.4909  0.2116 -1.4524
  277MOL0     O38147   2.436   3.491   1.064  0.0536 -0.1503  0.1088
  277MOL0     C38148   2.463   3.626   1.031 -0.8229  0.3635 -0.3048
  277MOL0     C38149   2.356   3.716   1.010  0.4639 -0.4827  0.4878
  277MOL0     C38150   2.229   3.680   1.094  0.3538  0.4745  0.3076
  277MOL0     C38151   2.118   3.759   1.021 -0.6250  0.3305 -0.5211
  277MOL0     C38152   1.995   3.737   1.098 -0.4524 -0.0683 -0.3596
  277MOL0     C38153   1.893   3.750   1.153  0.8119  0.7049  0.1318
  277MOL0     C38154   2.645   3.452   1.157 -0.5117 -0.4019 -0.4404
  277MOL0     C38155   2.772   3.382   1.168  0.1141  0.7071  0.1296
  277MOL0     C38156   2.868   3.450   1.260  0.0784  0.1592  0.7261
  277MOL0     H38157   2.843   2.823   0.926  0.2315 -1.8773 -0.4551
  277MOL0     H38158   2.982   2.650   0.899 -1.9893 -0.5146  1.4708
  277MOL0     H38159   3.417   2.678   1.064 -0.9708  2.0848 -1.0069
  277MOL0     H38160   3.399   2.624   0.888 -0.6645 -1.9053 -0.4500
  277MOL0     H38161   3.534   2.471   0.984  0.6364  1.2509  0.1316
  277MOL0     H38162   3.445   2.479   1.138 -2.2424 -0.0722 -0.5203
  277MOL0     H38163   3.274   2.320   1.052  2.6942 -0.4090  2.1909
  277MOL0     H38164   3.319   2.366   0.879  1.0428 -0.7138 -1.2059
  277MOL0     H38165   3.531   2.236   0.904 -0.3312 -0.7594 -0.0951
  277MOL0     H38166   3.481   2.193   1.066 -0.8181 -3.2749 -0.3570
  277MOL0     H38167   3.343   2.118   0.824 -0.2404  1.6292  0.6495
  277MOL0     H38168   3.284   2.076   0.986 -0.0335 -1.0891 -0.3309
  277MOL0     H38169   3.561   1.993   0.856  3.5117  0.4427  2.9654
  277MOL0     H38170   3.513   1.967   1.021 -0.5348 -2.4210 -0.9975
  277MOL0     H38171   3.405   1.835   0.760  0.5924 -2.1835 -0.6306
  277MOL0     H38172   3.310   1.846   0.914  1.8306 -0.1111  3.6067
  277MOL0     H38173   3.571   1.697   0.865 -0.3397 -1.0052  0.8944
  277MOL0     H38174   3.523   1.743   1.032  2.4571  0.6153 -0.9214
  277MOL0     H38175   3.340   1.588   0.731  2.2675 -0.9954 -0.4380
  277MOL0     H38176   3.172   1.304   0.787 -0.5526  0.0216 -0.3873
  277MOL0     H38177   3.115   1.455   0.719  0.9988 -0.3573 -1.5528
  277MOL0     H38178   2.936   1.335   0.856 -0.2425  0.1154 -1.4918
  277MOL0     H38179   3.054   1.343   0.997  1.8187  0.4325 -1.4208
  277MOL0     H38180   3.035   1.612   0.944 -4.1027  4.0696 -0.7371
  277MOL0     H38181   2.887   1.565   0.869  0.9348  1.4312 -0.9085
  277MOL0     H38182   2.979   1.518   1.153 -1.3175 -1.1588  1.1066
  277MOL0     H38183   2.846   1.633   1.082 -2.2178 -1.8408  0.3041
  277MOL0     H38184   2.604   1.602   1.175 -1.3532 -0.7722 -1.4025
  277MOL0     H38185   2.451   1.671   1.327 -3.2848 -2.6416 -1.2037
  277MOL0     H38186   2.502   1.659   1.495  0.9341 -2.0902  1.3852
  277MOL0     H38187   2.363   1.564   1.434 -0.0513  0.1192 -0.9312
  277MOL0     H38188   2.526   0.996   1.714  1.5366 -0.1838  2.3884
  277MOL0     H38189   2.403   0.908   1.892  1.5718  0.9648  0.0267
  277MOL0     H38190   2.244   0.848   2.057 -0.0445  0.8057 -1.2609
  277MOL0     H38191   2.314   0.997   2.122 -0.1676  1.9036 -1.1504
  277MOL0     H38192   2.106   1.044   2.243 -3.4301  0.4630 -3.8546
  277MOL0     H38193   2.044   0.879   2.202  0.1392 -1.4036  1.4875
  277MOL0     H38194   2.129   0.879   2.431 -3.5302  1.5889 -2.8275
  277MOL0     H38195   2.292   0.921   2.381 -1.5817  0.8825  1.7620
  277MOL0     H38196   2.271   0.710   2.222  1.2651 -0.8070  0.9364
  277MOL0     H38197   2.126   0.661   2.293  2.0715 -3.8623  1.0903
  277MOL0     H38198   2.344   0.568   2.398  3.0802  1.8027 -0.5000
  277MOL0     H38199   2.356   0.722   2.480  0.5206  0.3199 -1.7533
  277MOL0     H38200   2.097   0.578   2.512  0.1510 -1.0448  0.8796
  277MOL0     H38201   2.187   0.702   2.610  1.2689  0.9099 -2.4872
  277MOL0     H38202   2.229   0.396   2.568 -0.4686  1.9194 -3.1108
  277MOL0     H38203   2.171   0.476   2.724 -1.7008 -3.1426 -1.0790
  277MOL0     H38204   2.383   0.584   2.741 -2.7487 -0.3100  1.5743
  277MOL0     H38205   2.444   0.489   2.610 -0.6342  1.9188 -1.0383
  277MOL0     H38206   2.124   1.230   1.862 -1.7889 -2.9064  2.0432
  277MOL0     H38207   2.249   1.322   1.664 -1.1645  1.7543  5.2340
  277MOL0     H38208   2.722   1.218   1.457  1.2149  0.3284 -2.3850
  277MOL0     H38209   2.796   1.212   1.238  0.7691 -1.1798 -0.3567
  277MOL0     H38210   3.281   2.810   1.164 -0.1237  0.3921  0.8762
  277MOL0     H38211   3.130   3.018   1.189 -0.6548 -2.2649  0.0452
  277MOL0     H38212   2.667   3.120   0.969 -3.5807 -0.5164  1.5116
  277MOL0     H38213   2.475   3.253   0.961  3.2053 -2.7071 -2.1262
  277MOL0     H38214   2.525   3.668   1.111  1.9277 -0.0334 -2.0762
  277MOL0     H38215   2.519   3.628   0.936  1.6399  1.7607  1.0702
  277MOL0     H38216   2.339   3.717   0.902 -0.4199 -1.3972  0.6040
  277MOL0     H38217   2.389   3.814   1.045 -0.6657  0.0277  0.1603
  277MOL0     H38218   2.190   3.578   1.087 -2.1835  1.4415 -0.3732
  277MOL0     H38219   2.235   3.704   1.201  0.2192  0.1380  0.3921
  277MOL0     H38220   2.111   3.725   0.918 -1.6666 -1.6675  0.1588
  277MOL0     H38221   2.140   3.866   1.033  0.2003 -0.0915  3.1047
  277MOL0     H38222   1.795   3.760   1.196  0.8367 -2.9092  1.3643
  277MOL0     H38223   2.639   3.538   1.222  0.2386 -0.3655 -0.4147
  277MOL0     H38224   2.973   3.419   1.258  0.0686  0.0861 -2.0508
  277MOL0     H38225   2.875   3.553   1.222 -0.4585 -1.6302 -5.1969
  277MOL0     H38226   2.829   3.451   1.362 -0.3485 -0.4279  0.5736
  278MOL0     O38227   0.755   8.391   7.350  0.0155  0.0636  0.4155
  278MOL0     C38228   0.777   8.298   7.428  0.7280 -0.8668  0.2083
  278MOL0     O38229   0.752   8.307   7.565 -0.3503 -0.2421 -0.2718
  278MOL0     C38230   0.722   8.427   7.629  1.2618 -0.8265  0.4105
  278MOL0     C38231   0.741   8.551   7.572  1.2495 -1.0330 -0.4141
  278MOL0     C38232   0.696   8.668   7.640  0.8148  0.2416  0.2945
  278MOL0     C38233   0.641   8.653   7.766 -0.0519 -0.7826  0.1575
  278MOL0     O38234   0.609   8.742   7.863  0.2808 -0.5825  0.4954
  278MOL0     C38235   0.630   8.880   7.823 -0.5705 -0.0614 -1.0630
  278MOL0     C38236   0.749   8.929   7.906 -0.2952  0.1492 -0.0454
  278MOL0     C38237   0.719   8.933   8.053  0.5243 -1.3040  0.3347
  278MOL0     C38238   0.737   9.065   8.129 -0.2626  0.8498 -0.2236
  278MOL0     C38239   0.680   9.053   8.280  0.3048  0.8101 -0.6400
  278MOL0     C38240   0.693   9.199   8.343 -0.4162  0.5414 -0.1785
  278MOL0     C38241   0.686   9.182   8.501 -0.3536 -0.7243 -0.4868
  278MOL0     C38242   0.530   9.190   8.542  0.2468 -0.0120 -0.6217
  278MOL0     N38243   0.502   9.172   8.686 -0.0060  0.4577  0.1577
  278MOL0     C38244   0.566   9.070   8.762  0.8411 -0.2965  0.7755
  278MOL0     C38245   0.522   9.093   8.890 -0.1885  0.2630 -0.2431
  278MOL0     C38246   0.551   9.011   9.010 -0.6437 -0.5169  0.3639
  278MOL0     C38247   0.521   8.862   8.999  0.2076  0.8007  0.0876
  278MOL0     C38248   0.384   8.827   8.949 -1.3380  0.0263 -0.2830
  278MOL0     C38249   0.269   8.884   9.038  1.3315  0.2015 -0.1423
  278MOL0     O38250   0.140   8.826   9.007 -0.1073  0.3949  0.4847
  278MOL0     C38251   0.052   8.889   8.920  0.5320 -0.5491  0.6804
  278MOL0     C38252   0.079   9.011   8.864 -0.8592  0.0117  0.3302
  278MOL0     C38253  -0.012   9.083   8.783  0.7006  0.3251  0.7037
  278MOL0     C38254   0.042   9.219   8.735 -0.7568 -0.3897 -0.7340
  278MOL0     C38255  -0.145   9.030   8.753 -0.3200 -0.3661  0.3738
  278MOL0     C38256  -0.260   9.100   8.675 -0.9629  1.5861  0.8366
  278MOL0     O38257  -0.377   9.075   8.729  0.6235  0.3364 -0.1783
  278MOL0     C38258  -0.491   9.095   8.660  0.2819  0.0747  0.5153
  278MOL0     C38259  -0.606   9.086   8.723  1.3226  0.5771  0.4224
  278MOL0     C38260  -0.733   9.098   8.662  0.5713  0.0402  0.2239
  278MOL0     C38261  -0.736   9.137   8.523  1.2111  0.0400  0.5465
  278MOL0     O38262  -0.860   9.172   8.469  0.2182 -0.4254  0.8651
  278MOL0     C38263  -0.876   9.162   8.325 -0.1313 -0.2074  0.4922
  278MOL0     C38264  -1.015   9.218   8.290  0.6298  0.4640  1.0940
  278MOL0     C38265  -1.047   9.165   8.150 -1.2750 -0.3306 -0.2754
  278MOL0     C38266  -1.137   9.261   8.083  0.8401 -0.2047 -0.0399
  278MOL0     C38267  -1.159   9.238   7.924  1.0935  0.2936  0.7839
  278MOL0     C38268  -1.219   9.367   7.862 -0.5182  0.3097  0.1675
  278MOL0     C38269  -1.230   9.344   7.709  0.3047  0.2169  0.3206
  278MOL0     C38270  -1.268   9.473   7.637  0.4508  0.0941 -0.4611
  278MOL0    Cl38271  -1.290   9.453   7.461  0.2745 -0.2282  0.5724
  278MOL0     C38272  -0.618   9.144   8.454 -0.4039 -0.4322 -0.5749
  278MOL0     C38273  -0.504   9.116   8.522  0.7723  0.4408 -0.3088
  278MOL0     O38274  -0.229   9.180   8.585  0.5912  0.5224  0.3476
  278MOL0     C38275  -0.173   8.905   8.822 -0.2770 -0.4211 -0.6783
  278MOL0     C38276  -0.074   8.832   8.890 -0.2339  0.2167  0.2900
  278MOL0     N38277   0.451   9.215   8.894  0.1334  0.9080  0.1663
  278MOL0     N38278   0.437   9.251   8.773  0.1057 -0.8104 -0.3094
  278MOL0     C38279   0.617   8.530   7.812 -0.2624  0.1920 -0.6056
  278MOL0     C38280   0.656   8.413   7.745  1.0079 -0.5617 -0.0941
  278MOL0     C38281   0.826   8.165   7.360 -0.6733 -0.6394  0.8881
  278MOL0     C38282   0.929   8.173   7.263  1.0386  0.1624 -0.3850
  278MOL0     C38283   0.968   8.068   7.185 -0.6037  0.4955  0.8583
  278MOL0     C38284   0.929   7.939   7.214 -0.1087  1.0421 -0.0229
  278MOL0     O38285   0.965   7.827   7.142 -0.2882  0.0631  0.5766
  278MOL0     C38286   1.098   7.815   7.082 -0.8996 -0.4084  0.0153
  278MOL0     C38287   1.083   7.747   6.953 -0.3550  0.2268 -0.3896
  278MOL0     C38288   1.058   7.593   6.968  0.4838  0.4638  0.2160
  278MOL0     C38289   1.181   7.518   6.978  0.2030  0.0748 -0.6997
  278MOL0     C38290   1.256   7.518   6.855  0.0994 -0.4961 -0.3586
  278MOL0     C38291   1.332   7.507   6.766 -0.2999 -1.0207  0.3930
  278MOL0     C38292   0.826   7.929   7.312  0.4529 -0.5504  0.3430
  278MOL0     C38293   0.777   8.038   7.383  0.6411  0.2588  0.6795
  278MOL0     C38294   0.658   8.015   7.476 -0.2997 -0.7642 -1.1101
  278MOL0     H38295   0.792   8.566   7.477 -0.7888 -0.4934 -1.4875
  278MOL0     H38296   0.700   8.756   7.577 -2.0326 -0.2004 -0.6408
  278MOL0     H38297   0.537   8.935   7.842  1.7048  3.9308 -0.4543
  278MOL0     H38298   0.669   8.893   7.722 -1.3040  0.4142 -1.2914
  278MOL0     H38299   0.841   8.873   7.887  0.4866  0.7293  1.7559
  278MOL0     H38300   0.777   9.030   7.874  2.7609 -0.3225  0.7588
  278MOL0     H38301   0.616   8.899   8.066 -0.8972  1.7669 -1.7943
  278MOL0     H38302   0.786   8.855   8.091  0.4862 -2.1742 -1.3089
  278MOL0     H38303   0.844   9.086   8.139  0.0546 -0.6484 -0.3452
  278MOL0     H38304   0.688   9.152   8.084 -2.6086 -0.3837 -0.1801
  278MOL0     H38305   0.744   8.982   8.334 -0.3250  0.8478  0.1830
  278MOL0     H38306   0.580   9.009   8.281  0.0688  1.2443 -2.2080
  278MOL0     H38307   0.790   9.239   8.315  0.1172  0.3628  1.2812
  278MOL0     H38308   0.612   9.256   8.298 -3.1891 -2.7518  0.1847
  278MOL0     H38309   0.748   9.260   8.546  0.9761 -2.9194  1.7460
  278MOL0     H38310   0.730   9.088   8.538 -1.6572 -1.7047 -1.3438
  278MOL0     H38311   0.475   9.279   8.510  0.8942 -0.2428 -2.5214
  278MOL0     H38312   0.473   9.120   8.481 -0.1286  1.7915 -2.4612
  278MOL0     H38313   0.621   8.980   8.736 -1.3991 -2.8644  3.9609
  278MOL0     H38314   0.499   9.036   9.104 -1.7175 -0.3314 -0.2609
  278MOL0     H38315   0.658   9.023   9.027 -0.7563  0.7647  0.2718
  278MOL0     H38316   0.602   8.825   8.936  0.6141 -0.8790  1.5045
  278MOL0     H38317   0.545   8.819   9.097 -0.3585  0.9770  0.3068
  278MOL0     H38318   0.371   8.854   8.844 -0.0041 -0.1400 -0.5154
  278MOL0     H38319   0.376   8.718   8.943  3.2974 -0.4300 -4.5373
  278MOL0     H38320   0.303   8.872   9.141  2.6953  2.4909 -0.2395
  278MOL0     H38321   0.277   8.993   9.032  1.7914  0.3572  2.3252
  278MOL0     H38322   0.176   9.058   8.875 -1.4935  0.9723  2.2139
  278MOL0     H38323  -0.026   9.304   8.731 -1.5726 -0.9842  0.1867
  278MOL0     H38324   0.088   9.194   8.639 -0.3114 -0.6870 -0.4518
  278MOL0     H38325   0.127   9.253   8.796 -0.8069 -3.7400  1.5174
  278MOL0     H38326  -0.616   9.061   8.828 -0.6890  0.3347  0.2229
  278MOL0     H38327  -0.826   9.093   8.717  1.3728 -1.2726  1.5114
  278MOL0     H38328  -0.811   9.212   8.252 -2.6348 -0.9695 -2.4806
  278MOL0     H38329  -0.875   9.055   8.302  3.3552  0.1201 -1.6495
  278MOL0     H38330  -1.093   9.190   8.361 -0.8601 -0.3394 -0.7767
  278MOL0     H38331  -1.005   9.326   8.280  1.8568  0.1617 -2.0523
  278MOL0     H38332  -1.108   9.076   8.168  1.8648 -2.2544  1.9259
  278MOL0     H38333  -0.973   9.143   8.073 -2.8396  1.7215 -2.5205
  278MOL0     H38334  -1.089   9.358   8.093 -0.2478  0.2549  0.9205
  278MOL0     H38335  -1.230   9.263   8.141  0.4733 -1.8585 -0.4885
  278MOL0     H38336  -1.061   9.231   7.877  0.5944 -0.0437 -0.2301
  278MOL0     H38337  -1.224   9.153   7.902 -0.7907  2.3561 -2.4877
  278MOL0     H38338  -1.154   9.452   7.884  0.9219 -0.4655 -0.9365
  278MOL0     H38339  -1.317   9.387   7.907 -0.4095  2.5362 -0.4448
  278MOL0     H38340  -1.307   9.268   7.691  0.3019 -0.4702  2.8901
  278MOL0     H38341  -1.136   9.318   7.659 -0.4111  2.7974 -2.7431
  278MOL0     H38342  -1.194   9.549   7.664  0.8995 -0.1771 -0.9078
  278MOL0     H38343  -1.363   9.508   7.677 -0.3895 -1.7120 -0.7803
  278MOL0     H38344  -0.601   9.167   8.349  3.1858  1.0417  0.1917
  278MOL0     H38345  -0.416   9.109   8.459 -1.4192  3.0777 -4.0641
  278MOL0     H38346  -0.273   8.863   8.819 -0.0538 -1.1187 -5.0990
  278MOL0     H38347  -0.109   8.742   8.940  1.6034 -1.3276 -1.0470
  278MOL0     H38348   0.562   8.513   7.904 -0.0626 -2.5794 -0.8862
  278MOL0     H38349   0.614   8.320   7.782 -0.8239  0.6156  0.9043
  278MOL0     H38350   0.965   8.271   7.232  0.6850  0.3086 -0.3393
  278MOL0     H38351   1.045   8.080   7.109 -1.9630  0.6596 -0.5371
  278MOL0     H38352   1.147   7.912   7.070 -0.1143 -0.3065  3.0913
  278MOL0     H38353   1.161   7.767   7.157 -0.1281  0.2740 -0.1792
  278MOL0     H38354   1.174   7.753   6.893 -1.4094  0.2199 -2.0455
  278MOL0     H38355   1.002   7.790   6.894 -0.9115  0.8390  0.7870
  278MOL0     H38356   0.993   7.573   7.053  0.7799 -0.3720  0.2534
  278MOL0     H38357   1.006   7.559   6.878 -2.5979 -0.9350  2.3420
  278MOL0     H38358   1.146   7.422   7.016  0.6074  0.1079 -0.2256
  278MOL0     H38359   1.239   7.559   7.062  2.2085 -3.5660 -0.1224
  278MOL0     H38360   1.392   7.492   6.679 -3.5477 -0.1158 -2.1852
  278MOL0     H38361   0.779   7.835   7.341 -1.7758  0.5383  0.4869
  278MOL0     H38362   0.564   8.059   7.440  0.9525  1.6336 -1.6216
  278MOL0     H38363   0.651   7.908   7.497 -1.5198 -0.4402  0.2863
  278MOL0     H38364   0.677   8.062   7.572  4.8592 -1.7650 -1.3524
  279MOL0     O38365   5.317  10.406  11.363 -0.1375 -0.2928  0.4207
  279MOL0     C38366   5.233  10.345  11.427  0.1733  0.5854 -0.3393
  279MOL0     O38367   5.104  10.397  11.468  0.5595  0.2950 -0.3525
  279MOL0     C38368   5.073  10.529  11.440  0.9787  0.1973  0.5775
  279MOL0     C38369   5.165  10.639  11.423  0.4742  0.9903  1.2296
  279MOL0     C38370   5.112  10.762  11.384 -0.3189  0.0234 -0.1077
  279MOL0     C38371   4.972  10.782  11.362  0.2453 -0.2018  0.7572
  279MOL0     O38372   4.919  10.905  11.344  0.5113  0.1259  0.1116
  279MOL0     C38373   4.980  10.986  11.252 -0.4385  0.4173 -0.2942
  279MOL0     C38374   4.898  11.110  11.219  0.1563 -0.0881  0.7212
  279MOL0     C38375   4.889  11.203  11.331 -0.5618 -0.0064 -0.1650
  279MOL0     C38376   4.844  11.341  11.274  0.3146  0.9345  0.5249
  279MOL0     C38377   4.688  11.357  11.248 -0.1742 -0.9724 -0.2798
  279MOL0     C38378   4.658  11.507  11.199 -1.4419  0.6208  0.1152
  279MOL0     C38379   4.522  11.559  11.246  1.9289 -0.2734 -0.2288
  279MOL0     C38380   4.408  11.620  11.156 -0.0679 -0.4109  0.2066
  279MOL0     N38381   4.271  11.629  11.213  0.6269  0.6250  0.7180
  279MOL0     C38382   4.172  11.725  11.188  0.2592 -0.0027  0.2802
  279MOL0     C38383   4.059  11.677  11.231  1.4288  0.0301  0.1719
  279MOL0     C38384   3.927  11.751  11.239  0.7177 -0.5632  0.3121
  279MOL0     C38385   3.928  11.899  11.208  0.4441  0.5639 -0.3975
  279MOL0     C38386   3.978  11.992  11.324 -0.6745  0.8097 -0.5345
  279MOL0     C38387   4.114  11.988  11.381 -0.4269 -0.0005  0.4289
  279MOL0     O38388   4.206  12.017  11.269 -0.8492  0.4763 -0.3072
  279MOL0     C38389   4.341  11.978  11.279 -0.5569 -0.2869 -0.5312
  279MOL0     C38390   4.396  11.912  11.383  0.8347 -0.5315 -1.4217
  279MOL0     C38391   4.533  11.901  11.397 -0.2215  0.6785  0.1021
  279MOL0     C38392   4.593  11.832  11.518 -0.3813  0.1696 -0.3000
  279MOL0     C38393   4.613  11.946  11.300 -0.2467 -0.4123  0.4366
  279MOL0     C38394   4.765  11.936  11.307  0.0772  0.4261 -0.2948
  279MOL0     O38395   4.835  12.047  11.319 -0.3627 -0.0722 -0.4611
  279MOL0     C38396   4.972  12.063  11.316 -0.2817  0.0032  0.2310
  279MOL0     C38397   5.025  12.146  11.415  0.3577  0.5718 -0.7571
  279MOL0     C38398   5.159  12.178  11.411 -0.0341 -0.2714 -0.3272
  279MOL0     C38399   5.243  12.120  11.315 -0.5933 -0.1652  0.6298
  279MOL0     O38400   5.381  12.137  11.313  0.4712 -0.4593 -0.4565
  279MOL0     C38401   5.456  12.164  11.430  0.2125  0.7515 -0.2507
  279MOL0     C38402   5.594  12.212  11.390  0.0386 -1.2648  0.0842
  279MOL0     C38403   5.666  12.247  11.519  0.3742 -0.6834 -0.5730
  279MOL0     C38404   5.794  12.323  11.479 -0.7200 -0.3812  0.1241
  279MOL0     C38405   5.873  12.368  11.609 -0.7678 -0.5793 -0.0870
  279MOL0     C38406   6.019  12.451  11.583  0.2386  0.9130  0.4813
  279MOL0     C38407   5.996  12.596  11.543 -0.3914 -0.3031 -1.2953
  279MOL0     C38408   6.030  12.700  11.646  0.3007 -0.1349  0.6368
  279MOL0    Cl38409   5.988  12.866  11.602 -0.2239 -0.2049 -0.3725
  279MOL0     C38410   5.185  12.050  11.207 -0.3811 -0.9911 -0.6007
  279MOL0     C38411   5.049  12.015  11.206 -0.8537  0.0378 -0.2068
  279MOL0     O38412   4.809  11.823  11.291 -0.2019  0.4306  0.2472
  279MOL0     C38413   4.556  12.010  11.186  0.0856 -0.7120  0.2325
  279MOL0     C38414   4.417  12.029  11.184 -0.1155  1.0582 -0.1152
  279MOL0     N38415   4.083  11.552  11.288  0.0926 -0.5045 -0.4749
  279MOL0     N38416   4.206  11.525  11.287  0.2043 -0.6281 -0.3462
  279MOL0     C38417   4.890  10.686  11.388 -0.1077 -0.0450 -0.0736
  279MOL0     C38418   4.931  10.562  11.430 -2.1154 -0.1980  0.6299
  279MOL0     C38419   5.257  10.195  11.443 -0.6803 -0.4096 -0.7321
  279MOL0     C38420   5.144  10.127  11.495 -0.3751 -0.7611  0.6066
  279MOL0     C38421   5.139   9.988  11.509 -0.7090 -0.3838  0.1022
  279MOL0     C38422   5.258   9.917  11.478  0.4870  0.8389 -0.4707
  279MOL0     O38423   5.274   9.779  11.494 -0.3057 -0.7720 -0.5400
  279MOL0     C38424   5.277   9.733  11.626  0.1539 -0.0611 -0.0840
  279MOL0     C38425   5.180   9.620  11.635  0.1014  0.2489  0.3515
  279MOL0     C38426   5.034   9.650  11.608 -0.8339  0.5364 -0.1594
  279MOL0     C38427   4.975   9.725  11.720  0.0941  0.0598  0.3575
  279MOL0     C38428   4.835   9.733  11.690 -0.2389  0.1648 -0.5335
  279MOL0     C38429   4.715   9.765  11.674  0.5977  0.0721 -0.2950
  279MOL0     C38430   5.373   9.983  11.443 -1.0053 -0.3577 -0.4267
  279MOL0     C38431   5.385  10.118  11.424  0.5932 -0.3307  0.3866
  279MOL0     C38432   5.511  10.178  11.367  0.7898 -0.2263 -0.5884
  279MOL0     H38433   5.273  10.633  11.420  0.3902 -1.0073  0.6953
  279MOL0     H38434   5.191  10.836  11.391 -1.0513  1.0674 -2.0766
  279MOL0     H38435   4.999  10.925  11.163  0.5800 -0.1856  0.3096
  279MOL0     H38436   5.075  11.014  11.297 -0.3632 -4.7890  3.8707
  279MOL0     H38437   4.960  11.169  11.152  5.5111 -0.8541  4.3871
  279MOL0     H38438   4.798  11.090  11.180 -0.7722  1.7989  1.9517
  279MOL0     H38439   4.818  11.161  11.403 -0.9028 -1.6965 -1.4160
  279MOL0     H38440   4.983  11.209  11.387 -1.0142  1.4692  0.4700
  279MOL0     H38441   4.889  11.425  11.328  2.1917 -0.0178  0.5398
  279MOL0     H38442   4.895  11.358  11.179 -0.3725  0.4916  0.0665
  279MOL0     H38443   4.633  11.351  11.342 -0.0974  0.1158 -0.1444
  279MOL0     H38444   4.656  11.281  11.177  1.9079 -0.6306 -1.6853
  279MOL0     H38445   4.733  11.579  11.234 -0.2571 -1.3884  1.9516
  279MOL0     H38446   4.661  11.496  11.090 -4.1632  3.0637 -0.3490
  279MOL0     H38447   4.542  11.635  11.322  0.4652  0.7754 -0.8472
  279MOL0     H38448   4.473  11.471  11.287  2.0914  0.2537  1.1377
  279MOL0     H38449   4.446  11.719  11.130 -0.3020  0.0745  1.6053
  279MOL0     H38450   4.414  11.557  11.067 -2.3660 -2.5351  1.4351
  279MOL0     H38451   4.186  11.820  11.139 -2.9229 -0.4490 -1.8190
  279MOL0     H38452   3.883  11.743  11.339  2.2255  0.1201  1.0745
  279MOL0     H38453   3.858  11.705  11.168 -0.4476  0.1934  0.9087
  279MOL0     H38454   3.967  11.915  11.107 -0.4524 -1.3216 -1.0934
  279MOL0     H38455   3.820  11.915  11.197  0.3239  0.4565  0.5505
  279MOL0     H38456   3.960  12.097  11.299  0.4245  2.0230  3.1711
  279MOL0     H38457   3.907  11.978  11.406 -0.3309  0.6752 -0.2583
  279MOL0     H38458   4.122  12.059  11.464 -1.6072  0.5206  0.1298
  279MOL0     H38459   4.131  11.890  11.426 -1.4917 -0.2712  0.2778
  279MOL0     H38460   4.330  11.864  11.455  0.2575 -0.9643 -2.2230
  279MOL0     H38461   4.516  11.784  11.579 -0.0621 -0.6228 -0.5095
  279MOL0     H38462   4.658  11.890  11.584  0.5747  2.3560 -2.9550
  279MOL0     H38463   4.663  11.759  11.476  2.2642  2.6505 -0.4616
  279MOL0     H38464   4.974  12.190  11.500  0.6412  1.3301 -0.9757
  279MOL0     H38465   5.197  12.235  11.495  0.5172 -1.5196  0.3039
  279MOL0     H38466   5.415  12.244  11.493  0.7151 -0.7179  2.0912
  279MOL0     H38467   5.472  12.071  11.486  2.7301  1.8637  1.0820
  279MOL0     H38468   5.662  12.147  11.334  0.3745 -1.7902  1.0610
  279MOL0     H38469   5.586  12.310  11.343  0.4704 -0.4158  1.6950
  279MOL0     H38470   5.660  12.164  11.589  0.7442  0.5755  1.0224
  279MOL0     H38471   5.606  12.322  11.571  1.4511 -1.6808  2.2715
  279MOL0     H38472   5.774  12.417  11.425  0.2747  2.1158  3.7005
  279MOL0     H38473   5.854  12.253  11.422 -0.2230 -2.2213  2.7332
  279MOL0     H38474   5.813  12.423  11.681  1.6530  1.5741  0.4445
  279MOL0     H38475   5.899  12.274  11.658  1.2435 -0.0397 -0.0253
  279MOL0     H38476   6.075  12.385  11.516 -4.0806 -2.0958 -0.5718
  279MOL0     H38477   6.066  12.451  11.682 -1.5704 -0.1466  1.4050
  279MOL0     H38478   5.888  12.610  11.530 -0.3598  4.4760  1.2219
  279MOL0     H38479   6.045  12.624  11.449 -1.0588  0.1149 -1.5266
  279MOL0     H38480   6.138  12.692  11.663  0.7689  3.8563  0.6524
  279MOL0     H38481   5.971  12.683  11.736 -2.1215 -1.2903 -1.0744
  279MOL0     H38482   5.244  12.027  11.119 -2.1528  0.5289 -2.2902
  279MOL0     H38483   5.006  11.965  11.120 -0.7049 -0.5342  0.0449
  279MOL0     H38484   4.618  12.052  11.107  2.7406  0.4232  2.7103
  279MOL0     H38485   4.372  12.075  11.096  6.1065  3.3143 -2.6648
  279MOL0     H38486   4.783  10.702  11.382 -0.4096 -1.3690  1.2139
  279MOL0     H38487   4.868  10.474  11.446  0.6797 -2.6126 -0.6222
  279MOL0     H38488   5.054  10.178  11.527  0.4074 -0.6222  2.7756
  279MOL0     H38489   5.044   9.942  11.533 -0.3011 -0.2868  2.0347
  279MOL0     H38490   5.374   9.695  11.660 -0.7889 -1.5835  1.0749
  279MOL0     H38491   5.256   9.817  11.692  2.0589  1.0084 -0.7670
  279MOL0     H38492   5.198   9.579  11.734  1.3889 -1.2819 -0.4681
  279MOL0     H38493   5.211   9.541  11.565  1.7414  0.0452  1.2574
  279MOL0     H38494   5.024   9.687  11.506  0.7844  0.7073 -0.2759
  279MOL0     H38495   4.987   9.551  11.604 -0.4344  0.3385 -0.0052
  279MOL0     H38496   5.006   9.830  11.723 -0.8649  0.3525  0.1941
  279MOL0     H38497   4.997   9.681  11.818 -0.2418 -1.4576 -0.2231
  279MOL0     H38498   4.614   9.795  11.657  0.4378  0.4586  1.1589
  279MOL0     H38499   5.459   9.917  11.432 -0.2055  0.7421 -0.9354
  279MOL0     H38500   5.566  10.233  11.444  1.3320 -2.0677  0.3956
  279MOL0     H38501   5.573  10.098  11.325  1.3991 -2.0500  3.3385
  279MOL0     H38502   5.480  10.245  11.286  2.9115 -1.4267 -2.5377
  280MOL0     O38503   1.570   6.342   7.009 -0.0175 -0.1943  0.4947
  280MOL0     C38504   1.492   6.282   7.080  0.1179 -0.1530 -0.0187
  280MOL0     O38505   1.356   6.280   7.071  0.2547  0.3080 -0.4030
  280MOL0     C38506   1.299   6.350   6.961 -0.5142  0.3641  0.0633
  280MOL0     C38507   1.319   6.477   6.920  0.4111 -0.3544  0.1985
  280MOL0     C38508   1.246   6.545   6.820  0.4361 -0.2485  0.4021
  280MOL0     C38509   1.144   6.469   6.755  0.2926 -0.0808 -0.8633
  280MOL0     O38510   1.053   6.518   6.660  0.3780 -0.5790 -0.4907
  280MOL0     C38511   1.103   6.593   6.554  0.6936 -0.0457 -0.1093
  280MOL0     C38512   1.002   6.578   6.436  0.5954 -0.5132 -0.4074
  280MOL0     C38513   1.042   6.647   6.301 -0.1166  0.2718  0.9303
  280MOL0     C38514   0.971   6.571   6.188 -0.6076 -0.7278  0.5608
  280MOL0     C38515   0.965   6.660   6.069  0.3374 -0.2029  0.3298
  280MOL0     C38516   1.102   6.667   6.005  0.0428  0.0363 -0.1011
  280MOL0     C38517   1.093   6.689   5.848 -0.0458 -0.0678  1.0391
  280MOL0     C38518   1.015   6.819   5.802 -0.2243 -0.1605 -0.2281
  280MOL0     N38519   1.059   6.947   5.855  0.7184 -0.5308  0.1248
  280MOL0     C38520   1.001   7.019   5.955  0.4227  0.3122 -0.6278
  280MOL0     C38521   1.075   7.134   5.942  0.6100  0.7136 -0.1536
  280MOL0     C38522   1.058   7.254   6.020 -0.9594 -0.5136 -0.4385
  280MOL0     C38523   1.148   7.243   6.137 -0.3015 -0.8536  0.5067
  280MOL0     C38524   1.173   7.375   6.219 -0.1003  0.5258  0.1978
  280MOL0     C38525   1.245   7.349   6.353 -0.0745  0.4424 -0.7843
  280MOL0     O38526   1.373   7.293   6.325  0.0705 -0.5883 -0.7675
  280MOL0     C38527   1.461   7.320   6.426  0.5586 -0.6030 -0.3490
  280MOL0     C38528   1.458   7.231   6.533 -0.0496  0.1100 -0.4006
  280MOL0     C38529   1.573   7.222   6.624  1.2345  0.6305  0.1398
  280MOL0     C38530   1.574   7.133   6.739 -0.5829 -0.6850 -0.6231
  280MOL0     C38531   1.677   7.314   6.606  0.1005  0.7853 -0.2029
  280MOL0     C38532   1.799   7.317   6.694  0.2257  0.0907 -0.2995
  280MOL0     O38533   1.908   7.370   6.625  0.2160 -0.6166  0.0310
  280MOL0     C38534   2.022   7.376   6.707 -0.5269 -0.3281  0.4239
  280MOL0     C38535   2.094   7.264   6.731 -0.2045 -0.1751  0.0687
  280MOL0     C38536   2.211   7.270   6.805 -0.6750  0.2883 -0.3179
  280MOL0     C38537   2.251   7.381   6.877  0.8664 -0.2424 -0.2657
  280MOL0     O38538   2.367   7.382   6.949 -0.6126 -0.3361 -0.0868
  280MOL0     C38539   2.344   7.429   7.078 -0.8948  0.0880 -0.0330
  280MOL0     C38540   2.404   7.314   7.158 -0.1139  0.4463  0.3422
  280MOL0     C38541   2.432   7.351   7.298  0.3478  0.2838 -0.0835
  280MOL0     C38542   2.480   7.222   7.376  0.2831 -1.1812  0.5802
  280MOL0     C38543   2.506   7.276   7.523 -0.4180 -0.6985  1.2339
  280MOL0     C38544   2.558   7.174   7.613  0.5303  1.0041 -0.4939
  280MOL0     C38545   2.689   7.108   7.562 -0.9114 -0.1439 -0.0109
  280MOL0     C38546   2.811   7.191   7.591 -0.3034  0.0931 -0.2491
  280MOL0    Cl38547   2.839   7.265   7.756  0.4490 -0.1014 -0.3911
  280MOL0     C38548   2.176   7.499   6.855  1.0276 -0.0323  0.4930
  280MOL0     C38549   2.062   7.499   6.767 -0.0406 -0.3960  0.1093
  280MOL0     O38550   1.790   7.289   6.818  0.2722 -0.5746 -0.0533
  280MOL0     C38551   1.672   7.402   6.491  0.0672 -0.0973 -0.5347
  280MOL0     C38552   1.568   7.406   6.402  0.1797  0.5243  0.8189
  280MOL0     N38553   1.169   7.132   5.837 -0.1220 -0.8623 -0.0985
  280MOL0     N38554   1.154   7.013   5.785  0.0189 -0.4314 -0.6176
  280MOL0     C38555   1.110   6.339   6.798 -0.1546  0.4145 -0.2019
  280MOL0     C38556   1.185   6.286   6.899  0.1225 -0.0396 -0.3928
  280MOL0     C38557   1.554   6.221   7.207 -0.3863 -0.0672  0.9725
  280MOL0     C38558   1.461   6.158   7.299  0.1596  0.1191 -0.2543
  280MOL0     C38559   1.511   6.098   7.409 -0.8540 -0.1009  0.0235
  280MOL0     C38560   1.644   6.107   7.447 -0.4375 -0.0709  0.1042
  280MOL0     O38561   1.698   6.047   7.557 -0.0904 -0.1354 -0.5358
  280MOL0     C38562   1.631   5.960   7.646  0.0807  0.0509 -0.1333
  280MOL0     C38563   1.732   5.881   7.728 -0.3375  0.5573  0.6231
  280MOL0     C38564   1.838   5.805   7.650  0.3095  0.1176 -0.5881
  280MOL0     C38565   1.921   5.708   7.748  0.1338 -0.1859  0.3770
  280MOL0     C38566   2.033   5.651   7.677  0.3355  0.4859 -0.1690
  280MOL0     C38567   2.117   5.607   7.606  0.6172  0.5808 -0.1885
  280MOL0     C38568   1.735   6.174   7.372 -0.1502  0.2860  1.2117
  280MOL0     C38569   1.699   6.231   7.249  0.4294 -0.4093 -0.1446
  280MOL0     C38570   1.817   6.293   7.168 -0.5715 -0.2713 -0.6263
  280MOL0     H38571   1.404   6.519   6.973 -0.2277 -1.1595  1.9473
  280MOL0     H38572   1.259   6.647   6.784 -1.8159 -0.1404 -0.2459
  280MOL0     H38573   1.199   6.552   6.519  1.3509  1.6699 -0.3950
  280MOL0     H38574   1.116   6.700   6.571  1.1685 -0.4716  2.7199
  280MOL0     H38575   0.989   6.470   6.426  0.3199 -0.9474  3.2645
  280MOL0     H38576   0.908   6.624   6.467  0.6898  0.0088 -0.8663
  280MOL0     H38577   1.010   6.752   6.305  0.7203  0.6664 -1.3485
  280MOL0     H38578   1.152   6.645   6.295 -0.1628 -1.6257  0.0133
  280MOL0     H38579   1.015   6.471   6.175 -3.4977 -1.8991 -1.1495
  280MOL0     H38580   0.866   6.546   6.205 -0.8866 -1.1571 -1.4333
  280MOL0     H38581   0.936   6.761   6.099  0.1164 -0.1768  0.0261
  280MOL0     H38582   0.891   6.627   5.997 -1.2097  1.4667  1.0875
  280MOL0     H38583   1.162   6.751   6.041  2.5041 -1.1432 -1.2184
  280MOL0     H38584   1.165   6.579   6.020  0.7074  0.0138 -2.5672
  280MOL0     H38585   1.050   6.604   5.794 -0.8500 -1.9977  4.4613
  280MOL0     H38586   1.189   6.707   5.797 -1.3416  0.5281 -1.3242
  280MOL0     H38587   1.015   6.831   5.693 -0.3072  1.2668 -0.0908
  280MOL0     H38588   0.908   6.808   5.825 -0.3891  2.6279  0.7551
  280MOL0     H38589   0.929   6.992   6.032  4.0122 -1.5351  2.4796
  280MOL0     H38590   0.958   7.271   6.061 -0.6670 -5.6171  3.3854
  280MOL0     H38591   1.099   7.342   5.970  0.1634  0.2650  1.7348
  280MOL0     H38592   1.110   7.170   6.209 -0.9621  0.5312  1.6220
  280MOL0     H38593   1.251   7.216   6.114  0.6927 -1.8418  5.0773
  280MOL0     H38594   1.234   7.442   6.157 -2.4615  1.7904 -0.8857
  280MOL0     H38595   1.075   7.420   6.233 -1.5393 -1.7893 -1.7892
  280MOL0     H38596   1.266   7.451   6.386  0.4685  0.2265 -0.4559
  280MOL0     H38597   1.190   7.297   6.432  0.0682 -0.0597 -1.0105
  280MOL0     H38598   1.367   7.173   6.543 -0.0733  0.2087 -0.0258
  280MOL0     H38599   1.670   7.101   6.780  0.5234  3.6087  0.6479
  280MOL0     H38600   1.514   7.042   6.738 -0.1393 -1.2151  3.5715
  280MOL0     H38601   1.527   7.187   6.822 -0.4846 -0.4353 -0.7264
  280MOL0     H38602   2.067   7.172   6.679 -0.3973  1.0941 -2.2234
  280MOL0     H38603   2.273   7.181   6.811 -1.8713 -0.5522  0.0762
  280MOL0     H38604   2.397   7.525   7.085  1.7525 -1.0939 -2.1175
  280MOL0     H38605   2.239   7.444   7.107 -0.8913  2.8801 -1.1155
  280MOL0     H38606   2.335   7.229   7.153  1.7584 -1.1331 -3.0513
  280MOL0     H38607   2.499   7.278   7.116 -0.8815 -0.0106 -1.0908
  280MOL0     H38608   2.332   7.376   7.334  0.4703  1.1800 -0.3469
  280MOL0     H38609   2.503   7.433   7.307 -1.1351  1.5263  0.9181
  280MOL0     H38610   2.576   7.194   7.332  0.1427 -1.6934  0.5876
  280MOL0     H38611   2.399   7.148   7.376 -0.0872 -0.8031  2.0057
  280MOL0     H38612   2.560   7.371   7.524 -0.5421 -0.6198  0.5689
  280MOL0     H38613   2.407   7.310   7.555  0.4672  4.3824 -0.5581
  280MOL0     H38614   2.484   7.096   7.636  1.4258  0.1440 -0.4449
  280MOL0     H38615   2.570   7.217   7.713  0.7931  0.4351 -0.2747
  280MOL0     H38616   2.696   7.077   7.458  1.8758 -1.6899  0.5443
  280MOL0     H38617   2.713   7.027   7.632  1.8812  1.5459  1.1213
  280MOL0     H38618   2.801   7.278   7.525  2.0297  0.2776 -0.4348
  280MOL0     H38619   2.890   7.124   7.555 -0.0462  0.7314 -0.8925
  280MOL0     H38620   2.207   7.583   6.917  1.9785 -1.3695  1.9133
  280MOL0     H38621   2.002   7.589   6.759  4.1034  2.4390 -2.1469
  280MOL0     H38622   1.753   7.465   6.456 -0.1092  0.2554 -0.3039
  280MOL0     H38623   1.569   7.459   6.308  4.2733 -0.0645  0.3695
  280MOL0     H38624   1.018   6.299   6.758 -0.3520 -1.7058  2.1455
  280MOL0     H38625   1.152   6.190   6.938  2.1874 -1.0494 -0.9257
  280MOL0     H38626   1.358   6.129   7.281  0.8744 -3.9970  1.3019
  280MOL0     H38627   1.432   6.049   7.465 -0.5791 -1.3795 -0.6668
  280MOL0     H38628   1.563   6.006   7.719  0.1328 -2.5814  1.7099
  280MOL0     H38629   1.572   5.890   7.588  2.1498 -2.9255  1.0805
  280MOL0     H38630   1.678   5.803   7.782  0.1602 -0.5739 -0.4676
  280MOL0     H38631   1.769   5.953   7.801 -1.1619  0.9851  0.6277
  280MOL0     H38632   1.787   5.753   7.568 -3.7406 -1.3780  2.5261
  280MOL0     H38633   1.908   5.880   7.611  0.4099  0.0817 -0.4766
  280MOL0     H38634   1.853   5.639   7.799  0.3491 -1.2912 -0.7820
  280MOL0     H38635   1.964   5.773   7.825 -0.0405 -1.6715  1.7703
  280MOL0     H38636   2.198   5.553   7.561 -0.4812 -3.2697  2.0112
  280MOL0     H38637   1.836   6.166   7.411 -0.1693 -3.4179  0.8404
  280MOL0     H38638   1.913   6.289   7.221  0.9816  0.7244 -3.1451
  280MOL0     H38639   1.834   6.237   7.075  0.1116  0.5719 -1.0296
  280MOL0     H38640   1.796   6.395   7.135 -0.0774 -0.5632 -1.9165
  281MOL0     O38641   3.466   0.215  10.080 -0.4910  0.7067  0.5508
  281MOL0     C38642   3.438   0.108  10.029  0.5060 -0.1117  0.2695
  281MOL0     O38643   3.391  -0.004  10.097 -1.0696 -0.5596 -0.0580
  281MOL0     C38644   3.428  -0.029  10.228 -1.0095 -0.9285 -0.1049
  281MOL0     C38645   3.363  -0.134  10.286 -0.8864  0.3086  0.0093
  281MOL0     C38646   3.403  -0.197  10.404 -0.3918 -0.4197  0.5169
  281MOL0     C38647   3.499  -0.140  10.488  0.1487  0.0831 -0.1416
  281MOL0     O38648   3.537  -0.204  10.603  0.0800  0.3123 -0.3401
  281MOL0     C38649   3.661  -0.182  10.661  0.1186 -0.7203  0.8525
  281MOL0     C38650   3.652  -0.221  10.816  0.6995 -0.3485  0.0927
  281MOL0     C38651   3.627  -0.373  10.835 -0.0359  0.2006 -0.2264
  281MOL0     C38652   3.644  -0.401  10.979 -0.1591  1.0336 -0.1618
  281MOL0     C38653   3.789  -0.432  11.034  0.2668  0.2076  0.4888
  281MOL0     C38654   3.777  -0.470  11.182 -0.7573 -0.9119  0.0634
  281MOL0     C38655   3.907  -0.521  11.244  0.2480 -0.2290 -0.7587
  281MOL0     C38656   3.889  -0.554  11.390 -0.3652  0.6689 -0.7913
  281MOL0     N38657   3.853  -0.440  11.478 -0.5742 -1.0192  0.1890
  281MOL0     C38658   3.931  -0.324  11.478  0.3099  0.2513 -0.4592
  281MOL0     C38659   3.899  -0.268  11.591  0.7835 -0.3896  0.1641
  281MOL0     C38660   3.960  -0.153  11.668  0.1526  0.5222 -0.2325
  281MOL0     C38661   3.871  -0.024  11.659  0.1459 -0.0515  0.6779
  281MOL0     C38662   3.942   0.084  11.748 -0.0585  1.2007  0.5844
  281MOL0     C38663   3.868   0.210  11.709 -0.6586 -0.6890  0.0508
  281MOL0     O38664   3.941   0.311  11.774 -0.1787 -0.0231 -0.3983
  281MOL0     C38665   3.863   0.417  11.808  1.3270  0.5746 -0.9820
  281MOL0     C38666   3.885   0.482  11.930  0.1108 -0.2099  0.4056
  281MOL0     C38667   3.813   0.595  11.982  0.9055 -0.0565  1.0372
  281MOL0     C38668   3.847   0.647  12.118 -0.4823 -0.0118  0.2165
  281MOL0     C38669   3.716   0.650  11.897 -0.0748  0.5100  0.0587
  281MOL0     C38670   3.638   0.772  11.933  0.0715  0.6372 -0.8266
  281MOL0     O38671   3.707   0.866  12.007 -0.1261  0.3678 -0.7240
  281MOL0     C38672   3.650   0.988  12.027  0.0981 -0.1563 -1.1404
  281MOL0     C38673   3.577   1.063  11.939 -0.3134 -0.3828 -0.1312
  281MOL0     C38674   3.526   1.189  11.964 -0.8169 -0.0791 -0.5682
  281MOL0     C38675   3.544   1.241  12.095 -1.1651 -0.4283  0.2565
  281MOL0     O38676   3.500   1.371  12.137 -0.6563  0.4874 -0.0064
  281MOL0     C38677   3.374   1.423  12.090 -1.5266 -0.8883 -0.2070
  281MOL0     C38678   3.391   1.562  12.015  0.9243  0.0801  0.4522
  281MOL0     C38679   3.259   1.581  11.945  0.1171 -0.4377 -0.4735
  281MOL0     C38680   3.240   1.732  11.905  1.1145  0.7774 -0.8212
  281MOL0     C38681   3.100   1.749  11.835 -0.0195 -0.4752 -0.2746
  281MOL0     C38682   3.081   1.897  11.784 -0.7450 -0.5780 -0.0061
  281MOL0     C38683   2.927   1.904  11.737  0.2898  0.0354  0.2862
  281MOL0     C38684   2.889   2.035  11.692  0.0477 -0.0227 -0.0284
  281MOL0    Cl38685   2.928   2.169  11.804 -0.4354 -0.4166 -0.1887
  281MOL0     C38686   3.610   1.163  12.192  0.2192 -0.6025  0.3867
  281MOL0     C38687   3.664   1.038  12.157  0.4615 -0.9861  0.7611
  281MOL0     O38688   3.527   0.785  11.885 -0.2760 -0.1266  0.0165
  281MOL0     C38689   3.683   0.581  11.773 -0.1363  0.5270 -0.0206
  281MOL0     C38690   3.760   0.470  11.728 -0.9798  0.6391  0.1058
  281MOL0     N38691   3.790  -0.337  11.650 -0.0121  0.6072 -1.0050
  281MOL0     N38692   3.757  -0.436  11.567 -0.7282 -0.0909 -0.0620
  281MOL0     C38693   3.566  -0.025  10.434  1.3906  0.1437  0.1358
  281MOL0     C38694   3.538   0.013  10.304  0.9370  0.3395 -0.0387
  281MOL0     C38695   3.414   0.109   9.882  0.5311  0.6367  0.7139
  281MOL0     C38696   3.340  -0.008   9.825 -0.4170 -0.1930 -0.8443
  281MOL0     C38697   3.315  -0.017   9.687  0.2467  0.4672  0.5832
  281MOL0     C38698   3.346   0.086   9.603  0.6736 -0.4236 -0.1296
  281MOL0     O38699   3.324   0.065   9.466  0.0108 -0.2902  0.7125
  281MOL0     C38700   3.247   0.168   9.403 -0.7077  0.6747 -0.4038
  281MOL0     C38701   3.146   0.111   9.313  0.0744  0.2372  0.5173
  281MOL0     C38702   3.037   0.196   9.253  1.3053 -0.6080 -1.1740
  281MOL0     C38703   3.072   0.301   9.152  0.1147 -0.9026 -0.3563
  281MOL0     C38704   3.135   0.419   9.221 -0.0937 -0.5927  0.4524
  281MOL0     C38705   3.183   0.511   9.281 -0.3067  0.3168 -0.1178
  281MOL0     C38706   3.410   0.203   9.652 -0.4036 -1.2342  0.9929
  281MOL0     C38707   3.432   0.220   9.790 -0.5233  1.0336  0.4649
  281MOL0     C38708   3.476   0.356   9.833 -0.3519  0.7584 -0.9429
  281MOL0     H38709   3.278  -0.173  10.230 -1.7781  0.8493  0.9630
  281MOL0     H38710   3.347  -0.289  10.414 -1.2675 -0.0859 -1.1196
  281MOL0     H38711   3.674  -0.074  10.669  1.3506 -0.7612 -0.3158
  281MOL0     H38712   3.729  -0.249  10.608 -2.2361 -1.3909 -1.5551
  281MOL0     H38713   3.740  -0.198  10.876  4.1806 -3.1086 -3.3941
  281MOL0     H38714   3.563  -0.173  10.858 -1.5926 -3.7366 -0.3984
  281MOL0     H38715   3.532  -0.417  10.804  2.0568 -2.7217 -3.0880
  281MOL0     H38716   3.692  -0.435  10.774 -2.1974 -1.2440 -1.1673
  281MOL0     H38717   3.602  -0.316  11.034 -3.9934  0.3152 -1.6471
  281MOL0     H38718   3.576  -0.485  10.995 -2.4095  2.0650 -3.2710
  281MOL0     H38719   3.862  -0.352  11.019  0.5755  0.1728  1.7174
  281MOL0     H38720   3.829  -0.512  10.972  2.7005  1.0046  0.9343
  281MOL0     H38721   3.745  -0.381  11.237  0.3466 -1.3390  1.4651
  281MOL0     H38722   3.700  -0.545  11.205  0.0490 -0.7586  3.8501
  281MOL0     H38723   3.982  -0.448  11.210  0.8013 -0.5061 -0.1583
  281MOL0     H38724   3.931  -0.619  11.203 -2.0699 -1.2903  0.2640
  281MOL0     H38725   3.822  -0.637  11.413 -0.5090  1.2169  0.9316
  281MOL0     H38726   3.980  -0.597  11.433  1.4872  3.3511 -1.7865
  281MOL0     H38727   4.025  -0.311  11.424  0.8530 -3.9670 -0.9009
  281MOL0     H38728   4.062  -0.125  11.640  0.3308  1.3875  1.1888
  281MOL0     H38729   3.978  -0.178  11.773 -1.0061  1.3848  0.1912
  281MOL0     H38730   3.864   0.010  11.555  1.4927  4.4491  1.8031
  281MOL0     H38731   3.769  -0.040  11.696 -0.2534 -0.6426 -0.6385
  281MOL0     H38732   3.932   0.050  11.851  2.8031 -3.1472 -0.2751
  281MOL0     H38733   4.049   0.097  11.729  0.1665  1.6701  2.0994
  281MOL0     H38734   3.860   0.221  11.600 -0.5073 -0.1356  0.0944
  281MOL0     H38735   3.767   0.209  11.753  0.6425 -1.5934  3.2925
  281MOL0     H38736   3.965   0.443  11.993 -0.9304 -2.3540  0.4937
  281MOL0     H38737   3.765   0.682  12.182  2.1106  5.3058  1.1805
  281MOL0     H38738   3.916   0.730  12.106 -2.6043  1.6441 -1.2890
  281MOL0     H38739   3.895   0.564  12.171 -2.5012 -1.1292  0.4036
  281MOL0     H38740   3.555   1.040  11.835 -5.6872  2.0183  0.1229
  281MOL0     H38741   3.478   1.256  11.894 -2.9876 -2.0725 -1.0852
  281MOL0     H38742   3.333   1.343  12.028 -2.4452 -0.2342 -0.4638
  281MOL0     H38743   3.315   1.431  12.182  0.2004 -0.1815  0.8974
  281MOL0     H38744   3.412   1.646  12.081  0.5125  3.1779 -3.0398
  281MOL0     H38745   3.469   1.564  11.939 -0.4613  3.4458 -1.1166
  281MOL0     H38746   3.181   1.556  12.017  0.9081  1.4693  1.1281
  281MOL0     H38747   3.252   1.517  11.857 -2.2888 -1.2496  0.2327
  281MOL0     H38748   3.316   1.760  11.832  1.3902 -0.3702 -0.9987
  281MOL0     H38749   3.242   1.796  11.994 -1.8902 -1.9618  1.4550
  281MOL0     H38750   3.081   1.674  11.757 -0.1404 -1.0815  0.3285
  281MOL0     H38751   3.021   1.739  11.911  0.4695 -0.1826  0.2782
  281MOL0     H38752   3.155   1.932  11.712  0.5602  1.1430  2.0254
  281MOL0     H38753   3.087   1.960  11.874 -1.2242 -2.1736  1.1928
  281MOL0     H38754   2.877   1.861  11.824  0.3032 -1.2044 -0.2984
  281MOL0     H38755   2.906   1.830  11.660  2.4746 -0.3345 -0.0213
  281MOL0     H38756   2.785   2.040  11.659  0.8569  1.4737 -2.6428
  281MOL0     H38757   2.946   2.041  11.600  1.0964 -3.2788  0.2819
  281MOL0     H38758   3.641   1.226  12.275  0.9823  5.8775 -4.0333
  281MOL0     H38759   3.729   0.981  12.223  0.5718 -0.5414  1.0410
  281MOL0     H38760   3.605   0.618  11.708 -0.3454 -1.0292 -0.6770
  281MOL0     H38761   3.739   0.425  11.632  1.0942 -1.3355  0.4752
  281MOL0     H38762   3.635   0.035  10.493  0.0183 -0.5161  2.5651
  281MOL0     H38763   3.589   0.095  10.253 -0.0950 -0.0724 -1.8500
  281MOL0     H38764   3.314  -0.096   9.882  0.6814  1.0803  1.7918
  281MOL0     H38765   3.270  -0.109   9.650  1.8327  0.2369 -0.9396
  281MOL0     H38766   3.195   0.236   9.471 -1.9298  0.0885 -0.7208
  281MOL0     H38767   3.309   0.226   9.334 -3.7418  0.1554 -3.8887
  281MOL0     H38768   3.095   0.031   9.369  0.6770 -2.2762 -2.2347
  281MOL0     H38769   3.192   0.066   9.224 -0.8979  1.8864 -0.8841
  281MOL0     H38770   2.967   0.129   9.202  0.8544 -1.6386  0.6770
  281MOL0     H38771   2.975   0.234   9.334  2.8194  3.1929 -1.6225
  281MOL0     H38772   2.979   0.328   9.101  0.4169  0.0352 -0.4399
  281MOL0     H38773   3.148   0.269   9.080  2.1738  1.3399  0.6737
  281MOL0     H38774   3.219   0.601   9.327  0.7837  1.8136 -3.6086
  281MOL0     H38775   3.425   0.285   9.583  0.9280 -2.0008  0.3257
  281MOL0     H38776   3.402   0.405   9.897 -0.7814  0.6097 -1.3253
  281MOL0     H38777   3.582   0.347   9.861 -0.4440 -1.3608 -1.1241
  281MOL0     H38778   3.482   0.427   9.750 -1.9345  1.2160 -0.6958
  282MOL0     O38779   4.486   2.676  11.272  0.7296  0.2537 -0.6619
  282MOL0     C38780   4.551   2.713  11.365 -0.3928  0.4771  0.1450
  282MOL0     O38781   4.494   2.777  11.473  0.4193  0.2338 -0.7572
  282MOL0     C38782   4.568   2.775  11.595  0.6299  1.0191  0.6410
  282MOL0     C38783   4.638   2.665  11.647 -0.0220  0.0833 -0.1406
  282MOL0     C38784   4.707   2.676  11.768  0.1912  0.0587  0.6065
  282MOL0     C38785   4.711   2.796  11.837 -0.7498  0.0672 -0.1314
  282MOL0     O38786   4.790   2.792  11.950 -0.9352  0.7327  0.3847
  282MOL0     C38787   4.803   2.910  12.034 -1.0140  0.0738  0.3227
  282MOL0     C38788   4.679   2.934  12.111 -0.0842 -0.2778  0.5668
  282MOL0     C38789   4.644   2.810  12.205  0.0911 -0.9463  0.3527
  282MOL0     C38790   4.518   2.853  12.286  0.2129 -0.2133 -0.1354
  282MOL0     C38791   4.455   2.727  12.347 -0.8075  0.1995  0.7759
  282MOL0     C38792   4.394   2.758  12.487  0.8510  0.4662 -0.0010
  282MOL0     C38793   4.335   2.632  12.539  0.5866  0.0442 -1.0516
  282MOL0     C38794   4.431   2.518  12.560 -0.7914  0.5384 -1.1221
  282MOL0     N38795   4.546   2.570  12.637  0.0645  0.6772 -0.1591
  282MOL0     C38796   4.559   2.599  12.767 -0.0283  0.1621 -0.5553
  282MOL0     C38797   4.688   2.638  12.784  0.2108  0.2953  0.1729
  282MOL0     C38798   4.750   2.670  12.924  0.0792 -0.6598  0.1835
  282MOL0     C38799   4.831   2.802  12.909 -0.0431 -0.1441 -0.7321
  282MOL0     C38800   4.908   2.839  13.044 -0.4674 -0.6616 -0.6719
  282MOL0     C38801   5.013   2.741  13.095 -1.1464 -0.5409 -0.1737
  282MOL0     O38802   5.087   2.682  12.995 -0.8610  0.3097  1.0233
  282MOL0     C38803   5.174   2.758  12.923 -0.1969  0.6549 -0.1902
  282MOL0     C38804   5.208   2.895  12.964  1.1844 -0.1524  0.5928
  282MOL0     C38805   5.285   2.980  12.882 -0.0558 -0.3438  0.4458
  282MOL0     C38806   5.323   3.116  12.937 -0.1438  1.0721 -0.3756
  282MOL0     C38807   5.340   2.934  12.760 -0.6771  0.3177 -0.3142
  282MOL0     C38808   5.418   3.030  12.672 -0.0355  0.4086 -0.1503
  282MOL0     O38809   5.549   3.020  12.670 -0.5061  0.2188 -0.3170
  282MOL0     C38810   5.642   3.113  12.604  0.1668  0.0560 -0.0070
  282MOL0     C38811   5.612   3.250  12.599 -0.5463 -0.0064 -0.3418
  282MOL0     C38812   5.717   3.336  12.556 -0.2410 -0.7394 -0.0621
  282MOL0     C38813   5.843   3.297  12.517 -0.1762  0.1695 -0.6821
  282MOL0     O38814   5.932   3.403  12.479  0.6849  0.3266  0.8010
  282MOL0     C38815   6.066   3.356  12.461 -0.4447 -0.4457  1.1215
  282MOL0     C38816   6.149   3.471  12.439 -1.3226  0.1205  0.3018
  282MOL0     C38817   6.113   3.562  12.320  0.1633 -0.4873 -0.6897
  282MOL0     C38818   6.238   3.590  12.242 -0.3535 -1.0224 -0.1200
  282MOL0     C38819   6.204   3.695  12.137 -0.5063 -0.0092 -1.5178
  282MOL0     C38820   6.289   3.677  12.008 -0.5173  0.7111  0.9427
  282MOL0     C38821   6.248   3.795  11.910 -0.7023  1.6862 -0.3465
  282MOL0     C38822   6.358   3.840  11.820  0.5989 -0.0745 -0.1679
  282MOL0    Cl38823   6.285   3.971  11.720 -0.1509  0.3317 -0.1655
  282MOL0     C38824   5.867   3.160  12.513 -0.9766 -0.2053 -0.1191
  282MOL0     C38825   5.777   3.069  12.566  0.3108 -0.0981  0.0666
  282MOL0     O38826   5.356   3.113  12.608  0.2897  0.2538  0.7710
  282MOL0     C38827   5.298   2.809  12.709 -0.0320 -0.2587 -0.0755
  282MOL0     C38828   5.224   2.719  12.793  0.3102 -0.1546  0.0308
  282MOL0     N38829   4.759   2.619  12.669  0.8418  0.3535  0.5811
  282MOL0     N38830   4.668   2.573  12.588 -0.1624  0.3275  0.4151
  282MOL0     C38831   4.638   2.900  11.791  1.0259  0.7543  0.7794
  282MOL0     C38832   4.568   2.890  11.671  0.8218  0.5589  0.2175
  282MOL0     C38833   4.696   2.736  11.333 -0.2493  0.0143 -0.5199
  282MOL0     C38834   4.725   2.861  11.300  0.1489 -0.2295 -0.5682
  282MOL0     C38835   4.850   2.904  11.257 -0.2056 -0.1027  0.7758
  282MOL0     C38836   4.952   2.818  11.247  0.0189  0.8492 -0.2705
  282MOL0     O38837   5.078   2.865  11.209 -0.0197 -0.2628  0.3785
  282MOL0     C38838   5.101   2.865  11.071  1.2717  0.1372  0.4517
  282MOL0     C38839   5.135   2.725  11.018 -0.4923  0.0870  0.3732
  282MOL0     C38840   5.264   2.680  11.081 -0.1521  0.1619 -0.4358
  282MOL0     C38841   5.314   2.556  11.008  0.1988 -0.1631 -1.0918
  282MOL0     C38842   5.230   2.443  11.016  1.1548  0.1779 -0.0770
  282MOL0     C38843   5.150   2.356  11.030 -1.0667 -0.0449 -0.6374
  282MOL0     C38844   4.926   2.683  11.266  1.1157 -0.2363  0.2428
  282MOL0     C38845   4.799   2.644  11.311  0.7859  0.4598  0.2329
  282MOL0     C38846   4.771   2.500  11.317 -0.0163  0.6282 -0.0589
  282MOL0     H38847   4.615   2.569  11.604  0.3980  0.5815 -1.5386
  282MOL0     H38848   4.751   2.592  11.821  2.8617  1.3671  0.6474
  282MOL0     H38849   4.828   2.989  11.963  0.0032 -2.0709 -1.8327
  282MOL0     H38850   4.888   2.897  12.102 -1.2345  0.7689  0.7409
  282MOL0     H38851   4.693   3.019  12.179  1.6662 -1.5220  1.8616
  282MOL0     H38852   4.595   2.946  12.042 -0.7867 -0.4228  1.3704
  282MOL0     H38853   4.632   2.713  12.155  2.3586 -1.0036 -0.1993
  282MOL0     H38854   4.720   2.795  12.282 -3.4556  1.2415  4.7888
  282MOL0     H38855   4.548   2.921  12.366  0.0516 -1.3172  0.8933
  282MOL0     H38856   4.440   2.906  12.230 -1.1787  0.4211  2.2367
  282MOL0     H38857   4.528   2.648  12.367 -1.4832 -0.2420  1.5783
  282MOL0     H38858   4.396   2.684  12.266  1.5220  2.6861 -2.5507
  282MOL0     H38859   4.471   2.796  12.556  0.6051 -2.5054  2.1055
  282MOL0     H38860   4.311   2.828  12.476  0.9372  0.2076 -2.9628
  282MOL0     H38861   4.250   2.600  12.478  2.1243 -4.4784 -1.2031
  282MOL0     H38862   4.296   2.666  12.636 -0.8373  1.4063 -2.0512
  282MOL0     H38863   4.367   2.441  12.603  0.3724  0.1656  0.0053
  282MOL0     H38864   4.477   2.468  12.474  1.7758 -1.3403  1.1380
  282MOL0     H38865   4.478   2.610  12.839 -0.5790  1.3756 -1.3185
  282MOL0     H38866   4.822   2.589  12.938 -1.5482 -2.5507 -1.7916
  282MOL0     H38867   4.676   2.671  13.005  0.2834 -0.1640  0.3681
  282MOL0     H38868   4.911   2.785  12.837  0.3117 -2.9797  0.2054
  282MOL0     H38869   4.762   2.882  12.881  0.5372  0.5076 -0.3356
  282MOL0     H38870   4.952   2.938  13.034  0.6060 -0.5259  3.4092
  282MOL0     H38871   4.823   2.842  13.112  1.6445 -1.4770  2.2114
  282MOL0     H38872   5.079   2.784  13.170 -1.0450 -1.9123  0.5503
  282MOL0     H38873   4.948   2.664  13.138 -2.1522  0.5600  0.3509
  282MOL0     H38874   5.177   2.945  13.055  2.5551  1.7615  0.0651
  282MOL0     H38875   5.408   3.109  13.006 -0.8786  2.9947  0.8050
  282MOL0     H38876   5.243   3.164  12.993 -0.1102  2.1263 -1.2027
  282MOL0     H38877   5.347   3.186  12.856 -5.2720  1.7463 -1.6210
  282MOL0     H38878   5.512   3.291  12.607 -1.2049  0.1230 -5.5896
  282MOL0     H38879   5.680   3.438  12.549 -1.3068 -1.0195  1.1614
  282MOL0     H38880   6.103   3.303  12.549  1.0199 -0.2153  0.6712
  282MOL0     H38881   6.069   3.291  12.373 -0.4520  1.3855 -0.2925
  282MOL0     H38882   6.139   3.530  12.531 -1.8683  1.9410 -0.8717
  282MOL0     H38883   6.253   3.456  12.411 -1.0839  1.1953  0.5584
  282MOL0     H38884   6.064   3.655  12.350  0.4948  0.2519 -2.3756
  282MOL0     H38885   6.035   3.513  12.260 -2.4624  1.4587  0.9023
  282MOL0     H38886   6.265   3.496  12.192 -3.7316 -1.6234 -1.0347
  282MOL0     H38887   6.330   3.626  12.290 -0.1344 -0.6657 -0.7830
  282MOL0     H38888   6.097   3.706  12.118 -0.4169  0.0264 -2.0345
  282MOL0     H38889   6.240   3.787  12.184 -4.7018  0.7010  0.8359
  282MOL0     H38890   6.268   3.579  11.965  0.9610  0.2585  1.1897
  282MOL0     H38891   6.395   3.687  12.031 -0.2029  1.9225 -0.7502
  282MOL0     H38892   6.214   3.879  11.971 -0.8239  0.7001  0.9933
  282MOL0     H38893   6.165   3.755  11.851  0.4855  2.3516 -2.5895
  282MOL0     H38894   6.381   3.757  11.752 -0.9685 -0.0984 -0.7064
  282MOL0     H38895   6.443   3.883  11.874  2.8601 -2.4030 -1.5635
  282MOL0     H38896   5.953   3.107  12.474 -1.0714 -1.1034  0.8604
  282MOL0     H38897   5.800   2.963  12.576 -0.7566 -0.1498  3.0312
  282MOL0     H38898   5.331   2.772  12.613 -0.3733 -0.7485 -0.0072
  282MOL0     H38899   5.180   2.629  12.751 -2.3527 -0.8524  3.7504
  282MOL0     H38900   4.646   2.995  11.842  1.2564  0.4109  1.3856
  282MOL0     H38901   4.515   2.975  11.630  2.9455  1.0746 -1.6553
  282MOL0     H38902   4.644   2.933  11.310  1.6516  1.2381  2.3243
  282MOL0     H38903   4.863   3.009  11.235 -1.1832  0.0160  0.7165
  282MOL0     H38904   5.004   2.884  11.023  0.6786 -0.7942  1.2342
  282MOL0     H38905   5.182   2.933  11.046 -0.1085  1.9512  0.7152
  282MOL0     H38906   5.166   2.723  10.913 -0.4827  1.9718  0.3087
  282MOL0     H38907   5.051   2.656  11.024 -0.2282 -1.1417 -4.9054
  282MOL0     H38908   5.346   2.752  11.068  0.0252  0.1208  0.4122
  282MOL0     H38909   5.231   2.666  11.184 -0.2050 -0.8000 -0.5782
  282MOL0     H38910   5.416   2.540  11.044  0.1516  3.6913  1.3151
  282MOL0     H38911   5.315   2.588  10.904 -1.4556  1.1393 -0.7545
  282MOL0     H38912   5.085   2.273  11.047 -0.7075  0.2197  2.6878
  282MOL0     H38913   4.999   2.604  11.248 -0.4502 -0.8716 -5.3837
  282MOL0     H38914   4.666   2.468  11.321  0.6901 -1.8561  0.6500
  282MOL0     H38915   4.822   2.458  11.230  1.0026  0.4470  0.6143
  282MOL0     H38916   4.826   2.458  11.402 -0.0774 -0.3068 -0.4674
  283MOL0     O38917   4.893  11.576   1.749  0.2340  1.7540  0.0800
  283MOL0     C38918   4.963  11.596   1.847 -0.0480  0.7105 -0.4162
  283MOL0     O38919   4.925  11.610   1.977 -0.1371 -1.5978 -1.0086
  283MOL0     C38920   4.791  11.618   2.006 -0.5975 -0.2146 -0.1609
  283MOL0     C38921   4.742  11.714   2.094  0.7461 -0.4422  0.0367
  283MOL0     C38922   4.603  11.711   2.131 -0.2241 -0.0203 -0.3613
  283MOL0     C38923   4.528  11.594   2.091  0.3505  0.1258  0.2946
  283MOL0     O38924   4.402  11.579   2.122  1.3939  0.1395 -0.3593
  283MOL0     C38925   4.327  11.699   2.141 -0.2330 -0.1434  0.1051
  283MOL0     C38926   4.176  11.665   2.127  0.3167  0.5264 -0.2681
  283MOL0     C38927   4.082  11.784   2.153  0.2162  0.0517 -0.6099
  283MOL0     C38928   3.952  11.760   2.074 -0.6542 -0.0853 -0.4394
  283MOL0     C38929   3.834  11.861   2.109 -0.4759 -0.1412  0.5884
  283MOL0     C38930   3.769  11.918   1.981  0.5369 -0.8841  0.6766
  283MOL0     C38931   3.659  12.018   2.002 -0.3876  0.2915 -0.3006
  283MOL0     C38932   3.697  12.161   2.046 -0.5397  0.3258 -0.5135
  283MOL0     N38933   3.742  12.237   1.927 -0.0049 -0.0314  0.1743
  283MOL0     C38934   3.873  12.285   1.903  1.1158  0.0419  0.5774
  283MOL0     C38935   3.864  12.365   1.790 -0.8887  0.9305  0.6835
  283MOL0     C38936   3.980  12.415   1.717 -0.8388 -0.1755  0.4638
  283MOL0     C38937   3.932  12.510   1.603  0.7468 -0.4240  0.2790
  283MOL0     C38938   4.031  12.614   1.533 -0.7928  0.1447  0.5365
  283MOL0     C38939   4.171  12.565   1.526 -0.0167 -0.0094 -0.8819
  283MOL0     O38940   4.181  12.503   1.396 -0.4850  0.2576 -0.2842
  283MOL0     C38941   4.317  12.492   1.357 -0.5840 -0.2225 -0.1418
  283MOL0     C38942   4.433  12.508   1.430  0.0321 -0.1239  0.1245
  283MOL0     C38943   4.556  12.455   1.383  0.4363  0.3671  0.5654
  283MOL0     C38944   4.668  12.435   1.485  0.7128 -0.5150  0.5819
  283MOL0     C38945   4.563  12.400   1.251  1.4308 -0.1988  0.4866
  283MOL0     C38946   4.686  12.358   1.182  0.1827 -0.3350  0.4116
  283MOL0     O38947   4.794  12.445   1.175 -0.7001 -0.0082 -0.3762
  283MOL0     C38948   4.920  12.394   1.133  0.6041  0.4945 -0.3094
  283MOL0     C38949   4.976  12.273   1.174  0.1021  0.6377 -0.1313
  283MOL0     C38950   5.101  12.231   1.131 -0.5439  0.4151 -0.2824
  283MOL0     C38951   5.175  12.310   1.045 -0.5129  0.7342  0.5025
  283MOL0     O38952   5.301  12.270   1.013  0.6890  0.1586 -0.1008
  283MOL0     C38953   5.389  12.368   0.960 -1.8614  0.2323 -0.4209
  283MOL0     C38954   5.546  12.330   0.974  0.3928  1.4927  0.1123
  283MOL0     C38955   5.597  12.317   1.123 -0.2127  0.0284  0.4555
  283MOL0     C38956   5.755  12.278   1.126  0.5431 -1.3982  0.5476
  283MOL0     C38957   5.809  12.278   1.270  0.1130  0.0224  0.0975
  283MOL0     C38958   5.958  12.246   1.270 -1.1814 -0.1663  0.3780
  283MOL0     C38959   6.032  12.281   1.401 -1.1086 -0.4735  0.3025
  283MOL0     C38960   6.186  12.270   1.375  0.1269  0.0595 -0.1562
  283MOL0    Cl38961   6.234  12.101   1.388 -0.1096  0.2617 -0.3685
  283MOL0     C38962   5.119  12.429   1.000  0.0027 -0.7506 -0.1217
  283MOL0     C38963   4.994  12.469   1.043  0.4210  0.3101  0.5955
  283MOL0     O38964   4.687  12.239   1.143 -0.1426  0.2238 -0.3021
  283MOL0     C38965   4.444  12.388   1.170 -0.3571 -0.2137 -1.1389
  283MOL0     C38966   4.328  12.434   1.227  0.5033  0.2809 -0.4421
  283MOL0     N38967   3.733  12.377   1.761  0.5715 -0.3683  0.4627
  283MOL0     N38968   3.662  12.294   1.830 -0.1073  0.0304 -0.7952
  283MOL0     C38969   4.583  11.498   2.007 -0.4747  0.1236  0.1661
  283MOL0     C38970   4.715  11.506   1.963  0.4746 -0.0885 -0.5651
  283MOL0     C38971   5.112  11.583   1.829  0.1031  0.2799 -0.0878
  283MOL0     C38972   5.191  11.539   1.938  0.2876  1.1988  0.3076
  283MOL0     C38973   5.328  11.520   1.922  0.9590 -0.7350  1.0480
  283MOL0     C38974   5.392  11.531   1.802  0.3726 -0.2565  0.0413
  283MOL0     O38975   5.529  11.515   1.798 -0.4212 -0.6009  0.5925
  283MOL0     C38976   5.602  11.537   1.672 -0.7165 -0.7435 -0.5901
  283MOL0     C38977   5.732  11.457   1.695 -0.6081 -0.0786 -0.0203
  283MOL0     C38978   5.713  11.305   1.690  0.2221  0.0623  0.0579
  283MOL0     C38979   5.754  11.262   1.553 -0.0356  0.0069  0.0042
  283MOL0     C38980   5.684  11.146   1.520  1.3793  0.5115  1.2241
  283MOL0     C38981   5.610  11.055   1.519  0.0828  0.8117 -0.3254
  283MOL0     C38982   5.318  11.566   1.686  0.4124 -0.0393  0.0526
  283MOL0     C38983   5.180  11.584   1.705 -0.0631 -0.5460  0.1845
  283MOL0     C38984   5.106  11.599   1.573 -0.0696 -0.7525 -0.5953
  283MOL0     H38985   4.815  11.787   2.128  3.9261 -4.5693  2.9441
  283MOL0     H38986   4.561  11.795   2.186 -2.9221 -2.3929  1.4393
  283MOL0     H38987   4.355  11.771   2.064  0.5218  0.7814  1.1964
  283MOL0     H38988   4.341  11.742   2.240  0.9495 -0.9798  0.3301
  283MOL0     H38989   4.155  11.628   2.026 -0.8971  2.3957 -0.7569
  283MOL0     H38990   4.149  11.588   2.200 -1.4249  3.3600  2.3111
  283MOL0     H38991   4.053  11.791   2.258 -0.5321  2.8809 -0.9215
  283MOL0     H38992   4.125  11.880   2.126  0.8925 -0.0020  0.2615
  283MOL0     H38993   3.983  11.788   1.973 -0.0887 -3.2555 -1.2422
  283MOL0     H38994   3.916  11.657   2.081 -0.8041  0.0130  0.4338
  283MOL0     H38995   3.866  11.952   2.160 -3.3180  1.1262  0.3468
  283MOL0     H38996   3.770  11.819   2.187  1.4365 -0.8486  1.8421
  283MOL0     H38997   3.841  11.968   1.916 -1.9424  1.9362 -0.1625
  283MOL0     H38998   3.724  11.836   1.925 -1.3189  0.8947 -0.6299
  283MOL0     H38999   3.588  11.978   2.076  1.4721 -1.7734  0.4807
  283MOL0     H39000   3.604  12.026   1.908  4.1647  0.8915 -3.2147
  283MOL0     H39001   3.613  12.208   2.098 -0.8174  0.1907 -0.8352
  283MOL0     H39002   3.780  12.157   2.117 -2.8064 -0.0505  2.2844
  283MOL0     H39003   3.958  12.243   1.955  1.0990  0.2215  0.7479
  283MOL0     H39004   4.042  12.334   1.680 -1.9530 -0.8110 -0.0737
  283MOL0     H39005   4.047  12.474   1.780  2.7746  0.0238 -3.1460
  283MOL0     H39006   3.889  12.445   1.527  1.9869 -0.6499 -0.2440
  283MOL0     H39007   3.856  12.579   1.641 -0.8628 -0.2659 -2.9141
  283MOL0     H39008   4.009  12.641   1.429  3.2718  0.0227 -0.5611
  283MOL0     H39009   4.020  12.704   1.594  3.4282  0.5370  1.0555
  283MOL0     H39010   4.230  12.657   1.520 -1.4750  0.8858 -2.1175
  283MOL0     H39011   4.213  12.507   1.609 -0.5032 -2.0675 -2.0049
  283MOL0     H39012   4.427  12.532   1.536 -0.2166  0.7453 -0.0833
  283MOL0     H39013   4.625  12.382   1.571 -0.3198 -0.1401  0.3116
  283MOL0     H39014   4.714  12.532   1.507 -0.7873  0.2031  0.6747
  283MOL0     H39015   4.745  12.365   1.451  0.9210 -0.0743  0.1444
  283MOL0     H39016   4.921  12.216   1.249 -2.6119  2.3208 -0.6920
  283MOL0     H39017   5.148  12.141   1.167  1.1510  0.5772 -1.9547
  283MOL0     H39018   5.376  12.362   0.852  0.4340  1.2227 -0.7979
  283MOL0     H39019   5.375  12.474   0.986  0.0950  0.0186  1.8702
  283MOL0     H39020   5.561  12.235   0.923  0.1587 -0.6358  3.6508
  283MOL0     H39021   5.607  12.407   0.926  2.7157  0.0043  0.5366
  283MOL0     H39022   5.540  12.234   1.167 -0.1063 -0.2240  0.1181
  283MOL0     H39023   5.588  12.415   1.172  3.3945  0.4107  0.6405
  283MOL0     H39024   5.814  12.360   1.084  2.5810 -0.9378  3.8983
  283MOL0     H39025   5.771  12.180   1.080  0.5687 -2.5666  2.8735
  283MOL0     H39026   5.779  12.371   1.319 -1.5626 -0.9972  1.1442
  283MOL0     H39027   5.754  12.201   1.326 -2.5252  0.7353 -1.3099
  283MOL0     H39028   6.006  12.298   1.187 -1.8528 -0.6502 -0.3221
  283MOL0     H39029   5.971  12.140   1.246  0.6600  0.3383 -1.1983
  283MOL0     H39030   5.997  12.226   1.488  1.2524 -5.2743 -1.4437
  283MOL0     H39031   6.017  12.388   1.420 -0.3432 -0.3055 -0.0031
  283MOL0     H39032   6.249  12.335   1.438  1.4462 -0.8862 -0.4464
  283MOL0     H39033   6.211  12.298   1.272  1.4760  1.2981  0.4640
  283MOL0     H39034   5.174  12.489   0.927  0.8204 -2.0903 -0.6368
  283MOL0     H39035   4.948  12.558   1.002 -0.4440  0.9581  2.8131
  283MOL0     H39036   4.455  12.355   1.067  0.1636 -0.0166 -1.1472
  283MOL0     H39037   4.237  12.414   1.171  0.5520 -0.9871 -0.1002
  283MOL0     H39038   4.520  11.422   1.963 -1.3295  2.7571 -3.7033
  283MOL0     H39039   4.746  11.424   1.898  0.3107  0.7019 -1.6784
  283MOL0     H39040   5.143  11.521   2.034 -1.0681 -0.0115 -0.5613
  283MOL0     H39041   5.369  11.467   2.008 -4.3963 -3.4687  2.3792
  283MOL0     H39042   5.540  11.504   1.589  0.9909  1.9187 -3.1140
  283MOL0     H39043   5.620  11.645   1.663 -0.1430 -0.5942  1.6938
  283MOL0     H39044   5.776  11.496   1.787  1.0994  0.4561 -1.0080
  283MOL0     H39045   5.808  11.478   1.619 -0.1106 -2.6018 -0.3074
  283MOL0     H39046   5.775  11.272   1.774 -0.4744  0.4575  0.7394
  283MOL0     H39047   5.610  11.277   1.712  0.3725 -1.9611 -1.5602
  283MOL0     H39048   5.862  11.246   1.543 -0.2216 -1.1641 -0.3148
  283MOL0     H39049   5.737  11.326   1.466  1.2726  0.6092  0.1707
  283MOL0     H39050   5.562  10.960   1.529 -0.7266  1.1889 -0.5608
  283MOL0     H39051   5.360  11.586   1.588  1.6247 -1.4466  0.2503
  283MOL0     H39052   5.020  11.531   1.571  0.1438 -1.1362  1.3143
  283MOL0     H39053   5.053  11.695   1.575 -1.0965 -1.2827 -1.0913
  283MOL0     H39054   5.164  11.581   1.482  1.2123 -5.0240  0.8561
  284MOL0     O39055  10.479   8.242   9.519 -0.2427 -0.4704 -0.1279
  284MOL0     C39056  10.534   8.343   9.571  0.5911  0.6757  0.6616
  284MOL0     O39057  10.547   8.358   9.701  0.2449  0.3604 -0.3783
  284MOL0     C39058  10.469   8.277   9.783  0.0095  0.4508 -0.1317
  284MOL0     C39059  10.368   8.335   9.860  1.1152  0.5230  0.0298
  284MOL0     C39060  10.297   8.261   9.957  0.4463 -0.5571  0.9733
  284MOL0     C39061  10.328   8.127   9.982  0.1194  0.8995  0.6361
  284MOL0     O39062  10.295   8.046  10.091  0.0125  0.1320 -0.3397
  284MOL0     C39063  10.180   7.967  10.088 -0.3786 -0.0598  1.0026
  284MOL0     C39064  10.157   7.897  10.217 -0.6949 -0.3382 -1.1708
  284MOL0     C39065  10.133   7.989  10.339 -0.1537 -0.1238 -0.4208
  284MOL0     C39066  10.005   8.057  10.346  0.9183 -0.3711 -0.5577
  284MOL0     C39067   9.988   8.121  10.483 -0.4492 -0.6783 -0.8525
  284MOL0     C39068   9.838   8.137  10.502  0.2083  0.3649 -0.0210
  284MOL0     C39069   9.806   8.207  10.631 -0.3682 -0.4381 -0.0126
  284MOL0     C39070   9.659   8.222  10.652 -1.5748 -0.7685  0.2294
  284MOL0     N39071   9.631   8.299  10.778 -0.1209  0.6356  0.1232
  284MOL0     C39072   9.661   8.432  10.795  0.2412 -0.0976  0.8373
  284MOL0     C39073   9.583   8.475  10.896 -0.0088  0.2300  0.2924
  284MOL0     C39074   9.573   8.613  10.953 -0.8253 -0.9459 -0.0733
  284MOL0     C39075   9.450   8.627  11.051 -0.3237  0.8981  0.7957
  284MOL0     C39076   9.431   8.774  11.107 -0.9531  0.7301 -0.0184
  284MOL0     C39077   9.299   8.786  11.178 -0.5227  0.7880 -0.2606
  284MOL0     O39078   9.292   8.706  11.299  0.0905 -0.3891 -0.0335
  284MOL0     C39079   9.181   8.634  11.321 -0.1396 -0.3855  0.1704
  284MOL0     C39080   9.113   8.647  11.440 -0.2639  0.9220 -0.2592
  284MOL0     C39081   9.003   8.559  11.476  0.3698  0.1158  1.0662
  284MOL0     C39082   8.946   8.587  11.614 -0.6526  0.1668  0.1146
  284MOL0     C39083   8.970   8.450  11.390 -0.5431 -0.6097  0.3989
  284MOL0     C39084   8.874   8.342  11.421 -0.2368 -1.4304  0.1437
  284MOL0     O39085   8.868   8.239  11.333  0.5213 -0.3156 -0.3559
  284MOL0     C39086   8.830   8.124  11.397  0.7163  0.1664  0.6220
  284MOL0     C39087   8.890   8.048  11.502 -0.6722 -0.7948  0.7528
  284MOL0     C39088   8.851   7.917  11.538  0.1856  0.4513  0.3878
  284MOL0     C39089   8.736   7.871  11.475 -0.0386 -0.6669 -0.4370
  284MOL0     O39090   8.686   7.750  11.520 -0.0021 -0.1378  0.2110
  284MOL0     C39091   8.760   7.632  11.497 -0.7419 -1.3964  0.4848
  284MOL0     C39092   8.661   7.522  11.505 -0.3602 -0.3275  0.4988
  284MOL0     C39093   8.722   7.384  11.456 -0.3639  0.6616 -0.0830
  284MOL0     C39094   8.756   7.369  11.305 -0.1876 -0.1375  0.4969
  284MOL0     C39095   8.800   7.229  11.275 -0.8601  0.7882  0.3695
  284MOL0     C39096   8.684   7.138  11.217 -0.9856  0.9882  0.0579
  284MOL0     C39097   8.729   7.003  11.161  0.2509  0.1262  0.0332
  284MOL0     C39098   8.605   6.925  11.120 -0.1568  0.2457  0.2376
  284MOL0    Cl39099   8.498   7.012  11.006 -0.0963 -0.1555 -0.3983
  284MOL0     C39100   8.675   7.945  11.382 -0.0536 -0.2098 -0.0203
  284MOL0     C39101   8.713   8.071  11.346  0.8176 -0.0136 -0.5443
  284MOL0     O39102   8.786   8.361  11.505 -0.5549 -0.5553 -0.1486
  284MOL0     C39103   9.045   8.432  11.267 -0.1586  0.1275  0.3829
  284MOL0     C39104   9.149   8.522  11.243 -0.3446  1.3981  0.1348
  284MOL0     N39105   9.530   8.365  10.955  0.4975  0.8550 -0.1604
  284MOL0     N39106   9.552   8.261  10.879  1.1771 -0.0915 -0.6699
  284MOL0     C39107  10.419   8.063   9.886  0.7232 -0.2571 -0.5988
  284MOL0     C39108  10.498   8.139   9.788  1.0167  0.2227  0.2861
  284MOL0     C39109  10.597   8.455   9.480 -0.2080 -0.0958  0.0407
  284MOL0     C39110  10.706   8.535   9.523 -0.3430  0.3452  0.2086
  284MOL0     C39111  10.751   8.643   9.456 -0.6597 -0.0164 -0.7705
  284MOL0     C39112  10.696   8.681   9.335  0.3865  0.3577 -0.0835
  284MOL0     O39113  10.750   8.784   9.264  0.8254 -0.5665  0.4051
  284MOL0     C39114  10.799   8.741   9.136 -0.1375  0.2842  0.7236
  284MOL0     C39115  10.906   8.848   9.093  0.4201 -0.5896  0.4808
  284MOL0     C39116  11.020   8.863   9.202 -0.1912  0.2666  0.1796
  284MOL0     C39117  11.113   8.742   9.222  0.1338  0.8400 -0.1495
  284MOL0     C39118  11.255   8.786   9.214 -0.2324 -0.4793  0.1866
  284MOL0     C39119  11.376   8.808   9.191  0.6393  1.1660 -0.7923
  284MOL0     C39120  10.582   8.612   9.293  0.0369 -0.1629 -0.2067
  284MOL0     C39121  10.531   8.502   9.362  0.0305 -0.0301 -0.9034
  284MOL0     C39122  10.394   8.450   9.333  0.5095  0.1688  0.8091
  284MOL0     H39123  10.350   8.442   9.847  0.8550  1.1073  3.8945
  284MOL0     H39124  10.223   8.308  10.022  1.6776  1.7197  0.8314
  284MOL0     H39125  10.192   7.897  10.006 -2.9651  0.2767  0.2535
  284MOL0     H39126  10.097   8.031  10.059 -0.8015 -0.2593  1.7399
  284MOL0     H39127  10.071   7.831  10.204 -1.4780  0.1138  1.2211
  284MOL0     H39128  10.237   7.825  10.236 -0.0499  0.6105 -0.1314
  284MOL0     H39129  10.142   7.918  10.422 -1.7707 -1.1203 -1.0408
  284MOL0     H39130  10.210   8.066  10.347 -0.7412  0.3350  1.3907
  284MOL0     H39131   9.988   8.130  10.266 -2.6397  2.0924  2.1017
  284MOL0     H39132   9.924   7.988  10.325 -1.4002  1.4209  1.7676
  284MOL0     H39133  10.025   8.224  10.479 -0.2906 -0.3767  3.6275
  284MOL0     H39134  10.022   8.056  10.564 -0.8785  0.8499  0.6270
  284MOL0     H39135   9.795   8.185  10.413 -0.9165 -0.5107  0.0320
  284MOL0     H39136   9.786   8.041  10.502  1.5138 -0.3723  0.7492
  284MOL0     H39137   9.861   8.301  10.627  0.0706 -0.7205 -2.4426
  284MOL0     H39138   9.849   8.149  10.713  0.7915 -2.0669 -1.6756
  284MOL0     H39139   9.621   8.285  10.571  2.8312 -0.2295 -1.7202
  284MOL0     H39140   9.614   8.122  10.653 -0.0040 -1.5132  2.0567
  284MOL0     H39141   9.715   8.485  10.718 -1.2139 -1.9500 -1.6056
  284MOL0     H39142   9.581   8.690  10.876  1.2508 -0.8227  0.2216
  284MOL0     H39143   9.665   8.635  11.008 -2.6827  1.5434  2.3260
  284MOL0     H39144   9.356   8.590  11.012 -0.5987  0.2330  2.0210
  284MOL0     H39145   9.478   8.567  11.138 -1.6494  1.6680  1.7930
  284MOL0     H39146   9.522   8.799  11.163  0.1302  0.2451 -1.4932
  284MOL0     H39147   9.410   8.834  11.018 -0.1654 -0.6129 -1.1567
  284MOL0     H39148   9.290   8.893  11.195 -0.4935  0.6076  1.0823
  284MOL0     H39149   9.225   8.762  11.102 -2.6847  1.5547  1.5007
  284MOL0     H39150   9.141   8.731  11.503  0.7804 -0.0388  0.6069
  284MOL0     H39151   8.949   8.507  11.688 -1.1233 -0.1679 -0.2184
  284MOL0     H39152   8.845   8.626  11.600 -1.1072  0.9415  4.4034
  284MOL0     H39153   8.998   8.669  11.664  0.1554  1.1367 -2.1435
  284MOL0     H39154   8.989   8.079  11.533 -0.7130 -1.7521  1.9338
  284MOL0     H39155   8.910   7.869  11.615  1.8409  0.7847 -0.6235
  284MOL0     H39156   8.794   7.626  11.393  0.3624 -2.4378  0.8845
  284MOL0     H39157   8.845   7.627  11.566  0.5235 -0.8384 -0.9878
  284MOL0     H39158   8.632   7.511  11.610 -1.6120 -1.8472  0.0345
  284MOL0     H39159   8.574   7.542  11.443 -1.0079  0.3193  1.5826
  284MOL0     H39160   8.665   7.297  11.488  0.9751 -1.7549 -3.6354
  284MOL0     H39161   8.810   7.367  11.519 -1.5992  1.2458  1.8982
  284MOL0     H39162   8.832   7.444  11.282 -2.4835  2.6147  1.3744
  284MOL0     H39163   8.676   7.401  11.237  1.6908  0.5414 -1.5279
  284MOL0     H39164   8.884   7.234  11.204 -0.0608 -3.4776  0.7127
  284MOL0     H39165   8.841   7.177  11.362  1.6505 -0.4817 -1.4394
  284MOL0     H39166   8.635   7.195  11.137  0.5500  3.0612  0.4860
  284MOL0     H39167   8.601   7.125  11.287 -1.5383 -1.1184 -0.9057
  284MOL0     H39168   8.789   6.943  11.231 -2.8506 -3.9985 -0.4876
  284MOL0     H39169   8.790   7.022  11.072 -0.9485 -1.3129 -1.1532
  284MOL0     H39170   8.531   6.899  11.196 -2.5695 -0.6457 -2.2690
  284MOL0     H39171   8.642   6.827  11.091  1.5065  0.6852  0.7913
  284MOL0     H39172   8.591   7.886  11.347 -0.2625 -0.1673  0.4021
  284MOL0     H39173   8.638   8.114  11.281 -0.4585  0.0320  0.8839
  284MOL0     H39174   9.023   8.354  11.194  2.7374 -0.3158 -0.1252
  284MOL0     H39175   9.208   8.508  11.153  2.1006  1.3673  1.6586
  284MOL0     H39176  10.436   7.959   9.911 -0.7901 -1.4220 -3.7905
  284MOL0     H39177  10.582   8.095   9.734  2.1094 -0.1923  2.2075
  284MOL0     H39178  10.735   8.501   9.622  1.5231 -2.2580 -1.1072
  284MOL0     H39179  10.834   8.703   9.493  0.1170 -2.7477  2.3609
  284MOL0     H39180  10.840   8.640   9.136 -0.2558  0.1859 -1.5047
  284MOL0     H39181  10.723   8.746   9.059  0.4071  0.8503  0.2111
  284MOL0     H39182  10.857   8.945   9.083  0.5580 -0.6067 -0.3672
  284MOL0     H39183  10.936   8.829   8.990 -0.0904 -1.5803  0.4971
  284MOL0     H39184  11.070   8.952   9.164  0.1942  1.2797  2.8451
  284MOL0     H39185  10.991   8.905   9.299  1.2682 -0.7225  1.0986
  284MOL0     H39186  11.086   8.670   9.144 -0.3589  0.7902  0.0575
  284MOL0     H39187  11.098   8.687   9.315  1.2824 -2.7054 -1.8765
  284MOL0     H39188  11.472   8.845   9.162  0.8577 -0.4201 -2.2765
  284MOL0     H39189  10.547   8.668   9.207 -3.2650 -1.6579 -0.0034
  284MOL0     H39190  10.343   8.484   9.243  0.2345  2.1660  1.6826
  284MOL0     H39191  10.380   8.342   9.322  0.6641  0.1194  1.0882
  284MOL0     H39192  10.339   8.485   9.420 -2.2199 -0.4639 -0.5573
  285MOL0     O39193  11.585   8.178   8.675  0.3145 -0.6846  0.2953
  285MOL0     C39194  11.674   8.261   8.660  0.3477 -0.4877 -0.0729
  285MOL0     O39195  11.728   8.344   8.747 -0.2446  0.1814 -0.8011
  285MOL0     C39196  11.709   8.341   8.885  0.6702  0.6620  0.1709
  285MOL0     C39197  11.646   8.234   8.955  0.1757 -0.0902  0.4285
  285MOL0     C39198  11.642   8.237   9.097 -0.3103  0.2493 -0.3768
  285MOL0     C39199  11.681   8.345   9.171 -0.6830 -0.0784  1.0135
  285MOL0     O39200  11.672   8.368   9.301  1.0095 -0.0309 -0.0272
  285MOL0     C39201  11.622   8.263   9.389  0.6140  1.0798 -0.0746
  285MOL0     C39202  11.536   8.323   9.504  0.0193  0.7735 -0.0356
  285MOL0     C39203  11.633   8.396   9.595  0.7901 -0.2176 -0.1569
  285MOL0     C39204  11.709   8.311   9.695 -0.6571 -0.4391  0.1738
  285MOL0     C39205  11.781   8.390   9.803  0.4573  0.5589 -0.5531
  285MOL0     C39206  11.840   8.298   9.904  1.0424 -0.0004 -0.2434
  285MOL0     C39207  11.748   8.224   9.998  0.5787 -0.3224  0.7877
  285MOL0     C39208  11.698   8.315  10.118  0.5577  0.8028  0.0701
  285MOL0     N39209  11.778   8.312  10.243  0.4479  0.1997 -0.2905
  285MOL0     C39210  11.866   8.409  10.274 -0.5709 -0.3744 -0.7810
  285MOL0     C39211  11.873   8.417  10.407 -0.1256 -0.1592 -0.6216
  285MOL0     C39212  11.960   8.510  10.495  0.0571  0.2469 -0.1136
  285MOL0     C39213  11.931   8.665  10.458  0.4723 -0.0706  0.4097
  285MOL0     C39214  12.042   8.738  10.535 -0.3672 -0.1454  0.0777
  285MOL0     C39215  12.032   8.888  10.512  0.3891 -0.5679  0.9893
  285MOL0     O39216  12.056   8.918  10.368 -0.5384 -0.4945 -0.5449
  285MOL0     C39217  12.187   8.906  10.325 -0.3540 -0.9939  0.1538
  285MOL0     C39218  12.305   8.907  10.388 -0.5351 -0.8998  0.3804
  285MOL0     C39219  12.430   8.912  10.311  0.0905  0.9719  0.4204
  285MOL0     C39220  12.551   8.940  10.383 -0.4354  0.2702 -0.4099
  285MOL0     C39221  12.420   8.883  10.169  0.0271 -0.5318 -0.0524
  285MOL0     C39222  12.541   8.846  10.089 -0.2048  0.8296 -0.1030
  285MOL0     O39223  12.661   8.834  10.153  0.4291 -0.2483 -0.3160
  285MOL0     C39224  12.788   8.802  10.096 -0.2396  0.9034 -0.4170
  285MOL0     C39225  12.828   8.790   9.964  0.3104  0.1241 -0.5205
  285MOL0     C39226  12.963   8.778   9.924 -0.7415 -0.2088 -0.6756
  285MOL0     C39227  13.064   8.786  10.019  0.6621  0.1976  0.3304
  285MOL0     O39228  13.190   8.769   9.977 -0.3625 -0.6123  0.2681
  285MOL0     C39229  13.263   8.654  10.030 -0.8195 -1.1277 -0.9181
  285MOL0     C39230  13.400   8.686  10.073  0.0553  0.4701 -0.0407
  285MOL0     C39231  13.415   8.708  10.225  0.2801 -0.8618 -0.1579
  285MOL0     C39232  13.559   8.715  10.269 -0.5097  0.0515  0.3432
  285MOL0     C39233  13.576   8.749  10.423  0.1424  0.3650  0.3167
  285MOL0     C39234  13.564   8.895  10.467  0.3724  1.0724 -0.6473
  285MOL0     C39235  13.622   8.916  10.608 -0.0890 -0.0005 -0.0226
  285MOL0     C39236  13.533   9.012  10.687  0.1166  0.5183  0.3253
  285MOL0    Cl39237  13.539   9.170  10.604  0.3740 -0.3830 -0.4184
  285MOL0     C39238  13.025   8.797  10.153  0.6344 -0.4734 -0.4903
  285MOL0     C39239  12.892   8.803  10.196  0.3501 -0.0101 -0.7052
  285MOL0     O39240  12.522   8.825   9.973  0.1638 -0.1608  0.5874
  285MOL0     C39241  12.295   8.875  10.109  0.7312 -0.4454  1.2027
  285MOL0     C39242  12.178   8.892  10.181 -1.0517 -0.3064  0.5621
  285MOL0     N39243  11.794   8.314  10.458 -0.1516 -0.1461 -1.5410
  285MOL0     N39244  11.746   8.252  10.360 -0.2343  0.0853  0.5101
  285MOL0     C39245  11.739   8.451   9.096 -0.5544  0.7833 -0.4184
  285MOL0     C39246  11.755   8.448   8.957 -0.1747 -0.1969  0.4363
  285MOL0     C39247  11.727   8.263   8.517  0.5154 -0.2629 -1.0906
  285MOL0     C39248  11.854   8.319   8.502  0.5035 -0.5293 -0.3790
  285MOL0     C39249  11.918   8.334   8.379  0.0837  0.6969  0.2243
  285MOL0     C39250  11.864   8.286   8.263 -1.5551  0.6489  0.8352
  285MOL0     O39251  11.924   8.313   8.145  0.2267  0.5015  0.3149
  285MOL0     C39252  11.915   8.210   8.049  0.3501  0.0611  0.7244
  285MOL0     C39253  11.954   8.254   7.904  0.1646 -0.5222  0.3643
  285MOL0     C39254  11.932   8.129   7.819 -0.8999  0.6982  0.2852
  285MOL0     C39255  11.991   8.151   7.673 -0.3332 -0.4163 -0.4186
  285MOL0     C39256  11.960   8.038   7.582 -0.7167  1.1466 -0.4488
  285MOL0     C39257  11.919   7.959   7.490 -0.6204 -0.2086 -0.1641
  285MOL0     C39258  11.733   8.228   8.285  0.2430 -0.1055 -0.5218
  285MOL0     C39259  11.667   8.216   8.408  0.5886  0.2064  0.1762
  285MOL0     C39260  11.520   8.168   8.402  0.3884  0.1959 -0.2924
  285MOL0     H39261  11.604   8.150   8.901  1.6051 -0.3906 -0.2632
  285MOL0     H39262  11.617   8.146   9.149  0.7341 -1.2362 -2.3322
  285MOL0     H39263  11.698   8.198   9.432 -0.3979  0.3191  0.5860
  285MOL0     H39264  11.550   8.201   9.335  0.4196 -0.8636  2.2638
  285MOL0     H39265  11.467   8.401   9.471 -1.7105 -0.7300 -0.1355
  285MOL0     H39266  11.479   8.250   9.562  2.0961  0.1770  1.3739
  285MOL0     H39267  11.701   8.455   9.532 -0.2598  0.9409 -0.2401
  285MOL0     H39268  11.585   8.472   9.657  0.8894 -0.5403  0.3231
  285MOL0     H39269  11.627   8.245   9.725 -3.7873  0.4738 -5.1017
  285MOL0     H39270  11.784   8.248   9.647  0.4216  0.5730  0.4823
  285MOL0     H39271  11.712   8.458   9.854  1.8280  1.3106  0.3645
  285MOL0     H39272  11.866   8.450   9.769  1.6319 -0.2024  0.9048
  285MOL0     H39273  11.893   8.222   9.845 -4.2326 -3.9313 -0.6906
  285MOL0     H39274  11.900   8.359   9.972 -1.0470 -0.7974  2.4791
  285MOL0     H39275  11.783   8.134  10.049 -2.0161 -1.2276  1.1487
  285MOL0     H39276  11.670   8.189   9.929  2.4001 -1.3343 -0.8551
  285MOL0     H39277  11.694   8.418  10.081 -2.7852  0.2414 -1.5398
  285MOL0     H39278  11.602   8.280  10.157  3.1332 -1.4783  5.2370
  285MOL0     H39279  11.926   8.465  10.202  1.8974 -1.7349  0.0788
  285MOL0     H39280  12.063   8.475  10.498 -1.2376 -4.2522  2.4307
  285MOL0     H39281  11.931   8.505  10.600 -0.6049  1.6829 -0.2056
  285MOL0     H39282  11.939   8.674  10.350 -2.4927 -0.0327  0.1282
  285MOL0     H39283  11.829   8.696  10.481 -0.8358 -1.7027 -2.6522
  285MOL0     H39284  12.034   8.722  10.643  3.6935 -4.6385  0.0841
  285MOL0     H39285  12.140   8.714  10.492 -0.4893 -0.3646 -0.0786
  285MOL0     H39286  11.930   8.926  10.525  0.1589 -0.1203 -1.5125
  285MOL0     H39287  12.105   8.940  10.575  4.1725 -2.9150 -1.1207
  285MOL0     H39288  12.318   8.911  10.496  0.1380 -2.6167  0.4026
  285MOL0     H39289  12.621   8.856  10.380 -2.9181 -1.9374 -0.6379
  285MOL0     H39290  12.530   8.976  10.484  0.5186  1.5673 -0.6489
  285MOL0     H39291  12.605   9.020  10.331  0.8436 -0.4011 -0.1490
  285MOL0     H39292  12.754   8.786   9.885 -0.9404 -1.2784  0.6862
  285MOL0     H39293  13.000   8.763   9.824  3.8088 -2.5773  1.0909
  285MOL0     H39294  13.210   8.612  10.115  3.7827 -2.0491  1.8758
  285MOL0     H39295  13.274   8.573   9.956 -0.5989 -0.5124 -1.5716
  285MOL0     H39296  13.467   8.602  10.051 -2.1400 -1.4472  0.2358
  285MOL0     H39297  13.441   8.780  10.033 -2.8755  2.1800  0.7005
  285MOL0     H39298  13.366   8.627  10.279 -1.0518  0.1098  0.1631
  285MOL0     H39299  13.362   8.802  10.245  0.2514 -1.0591  0.6946
  285MOL0     H39300  13.632   8.776  10.215  1.2796  0.0917  2.6211
  285MOL0     H39301  13.601   8.616  10.253 -0.9523 -0.8120  3.6507
  285MOL0     H39302  13.511   8.685  10.484 -1.4978  2.6649  1.1021
  285MOL0     H39303  13.677   8.710  10.442  0.5927  1.8768  1.2802
  285MOL0     H39304  13.455   8.907  10.465 -0.5258 -4.0904  1.6601
  285MOL0     H39305  13.616   8.948  10.387  1.1924  0.3484 -0.6090
  285MOL0     H39306  13.720   8.961  10.592  0.6892 -1.7891 -0.5147
  285MOL0     H39307  13.632   8.822  10.663  3.7022  0.6455  0.6518
  285MOL0     H39308  13.561   9.013  10.793  0.3636  0.0272  0.2700
  285MOL0     H39309  13.430   8.977  10.677 -0.9984  3.7533 -0.6342
  285MOL0     H39310  13.100   8.787  10.231  5.0657  3.6822 -3.6516
  285MOL0     H39311  12.858   8.825  10.296 -2.9779  0.6424 -1.8684
  285MOL0     H39312  12.288   8.858  10.002  1.0396 -1.7081  1.3750
  285MOL0     H39313  12.080   8.896  10.136 -0.8142 -0.1298  0.0437
  285MOL0     H39314  11.795   8.532   9.143  0.8228 -0.3914  0.0510
  285MOL0     H39315  11.808   8.531   8.911 -1.1240 -0.8366 -1.9190
  285MOL0     H39316  11.910   8.362   8.585  0.8801  1.2538 -1.4939
  285MOL0     H39317  12.014   8.385   8.384  0.4954 -0.1469  1.6009
  285MOL0     H39318  11.961   8.116   8.081  0.5385  0.1626  0.7570
  285MOL0     H39319  11.808   8.187   8.041  0.9444 -2.3902 -2.4712
  285MOL0     H39320  12.052   8.302   7.902 -1.1641  2.5836  1.7150
  285MOL0     H39321  11.895   8.339   7.868  1.0528  0.7386  1.7697
  285MOL0     H39322  11.986   8.050   7.872 -0.1504  1.2513  0.3529
  285MOL0     H39323  11.827   8.099   7.814 -0.6969 -0.0653  0.4563
  285MOL0     H39324  12.100   8.164   7.675  0.1851 -3.2543 -3.0329
  285MOL0     H39325  11.949   8.246   7.639 -1.3156 -0.2260  1.2238
  285MOL0     H39326  11.868   7.889   7.426 -4.0678  1.5237  0.4528
  285MOL0     H39327  11.679   8.179   8.204  0.5026 -1.9017  0.3524
  285MOL0     H39328  11.466   8.248   8.453 -0.1430  0.3580 -1.0946
  285MOL0     H39329  11.492   8.153   8.298 -2.1324 -2.8208  0.6450
  285MOL0     H39330  11.499   8.078   8.461 -2.3041  0.0050 -1.3914
  286MOL0     O39331   6.866   9.302   1.859  0.7042 -0.0394 -0.0449
  286MOL0     C39332   6.843   9.186   1.820 -0.5514 -0.5455  0.1077
  286MOL0     O39333   6.865   9.144   1.688 -0.6151 -0.3225  0.2515
  286MOL0     C39334   6.908   9.244   1.601 -0.3986  0.7118 -0.4870
  286MOL0     C39335   7.039   9.290   1.614  0.2333 -0.3996  0.5066
  286MOL0     C39336   7.088   9.386   1.526  0.0688  0.0201  0.1333
  286MOL0     C39337   7.007   9.451   1.436 -0.3278 -0.7297  0.2103
  286MOL0     O39338   7.058   9.554   1.368  0.2770 -0.4241 -0.9326
  286MOL0     C39339   7.099   9.665   1.446  0.8727  0.5296 -0.4070
  286MOL0     C39340   7.102   9.785   1.339 -0.0857 -0.1662 -0.4811
  286MOL0     C39341   7.155   9.902   1.419 -0.8552 -0.5622  0.9662
  286MOL0     C39342   7.184  10.016   1.335  0.0241  0.0001 -0.4550
  286MOL0     C39343   7.279  10.121   1.391  0.0366 -1.0568  0.4083
  286MOL0     C39344   7.291  10.250   1.302  0.4152  0.1420 -1.0766
  286MOL0     C39345   7.160  10.309   1.272  0.1975  0.4274 -0.3245
  286MOL0     C39346   7.149  10.457   1.225  0.0051  0.0125  0.0230
  286MOL0     N39347   7.011  10.487   1.269  0.1981  0.0845  0.1493
  286MOL0     C39348   6.891  10.481   1.186  0.4121 -0.1429 -0.1658
  286MOL0     C39349   6.800  10.548   1.265 -0.4818  0.6279  0.5541
  286MOL0     C39350   6.662  10.586   1.230  0.0378  0.7540 -0.2019
  286MOL0     C39351   6.569  10.485   1.295  0.4014  0.3685 -0.6921
  286MOL0     C39352   6.417  10.528   1.278 -0.7676  0.3481  0.3275
  286MOL0     C39353   6.322  10.437   1.356 -0.1931  0.0007  0.3670
  286MOL0     O39354   6.269  10.480   1.492  0.1780 -0.0590  0.0684
  286MOL0     C39355   6.162  10.409   1.522  0.1331  0.7150 -0.2309
  286MOL0     C39356   6.034  10.476   1.535 -0.9075  1.0677  0.4418
  286MOL0     C39357   5.919  10.412   1.550  0.1546  0.1124 -0.0382
  286MOL0     C39358   5.798  10.492   1.533 -0.6243 -0.5873 -0.7577
  286MOL0     C39359   5.917  10.271   1.564 -0.2604  0.3613  0.1922
  286MOL0     C39360   5.795  10.190   1.589  0.0141  0.3220  0.7590
  286MOL0     O39361   5.806  10.059   1.587 -0.3257  0.0335 -0.5863
  286MOL0     C39362   5.688   9.989   1.579 -1.1217 -0.7235 -0.7997
  286MOL0     C39363   5.637   9.934   1.460 -0.9264  0.8814 -1.0891
  286MOL0     C39364   5.517   9.859   1.464  0.1662 -0.1945  0.1780
  286MOL0     C39365   5.450   9.819   1.579  0.0847 -0.5177 -0.1266
  286MOL0     O39366   5.343   9.730   1.577  0.8202 -0.2764  0.4073
  286MOL0     C39367   5.252   9.750   1.680 -0.6770 -0.1676 -0.2986
  286MOL0     C39368   5.126   9.666   1.652 -0.2448  0.5387 -0.1196
  286MOL0     C39369   5.039   9.712   1.534 -0.0415  0.1680  0.0845
  286MOL0     C39370   4.914   9.627   1.523  0.1856  0.3849 -0.4029
  286MOL0     C39371   4.841   9.644   1.391 -0.9051 -0.0342 -0.7558
  286MOL0     C39372   4.783   9.784   1.377 -0.1042 -0.0627 -0.9663
  286MOL0     C39373   4.643   9.784   1.314 -0.0396  0.1653 -0.4120
  286MOL0     C39374   4.572   9.918   1.343 -0.8015 -0.0786  1.0173
  286MOL0    Cl39375   4.686  10.052   1.284 -0.0620  0.2416  0.6462
  286MOL0     C39376   5.518   9.862   1.697  0.4286  0.4580  0.0588
  286MOL0     C39377   5.631   9.939   1.700 -0.0615  0.1348  0.2048
  286MOL0     O39378   5.684  10.247   1.592  0.4312 -0.5739 -0.5146
  286MOL0     C39379   6.031  10.206   1.564 -0.4740 -0.4725 -0.3917
  286MOL0     C39380   6.159  10.272   1.547 -0.1974  0.0235  0.1059
  286MOL0     N39381   6.866  10.596   1.378  0.7869 -0.1464  0.4704
  286MOL0     N39382   6.985  10.559   1.385 -0.0301  0.3118 -0.6580
  286MOL0     C39383   6.876   9.417   1.429 -0.3165 -0.8100  0.5771
  286MOL0     C39384   6.826   9.310   1.513 -0.2748 -0.0176  0.6355
  286MOL0     C39385   6.807   9.082   1.918  0.3319 -0.0540 -0.7213
  286MOL0     C39386   6.854   8.950   1.900 -0.2517  0.2759  0.0065
  286MOL0     C39387   6.824   8.842   1.986  0.0305  0.0913 -0.0257
  286MOL0     C39388   6.757   8.859   2.105 -0.5541 -0.2279 -0.7438
  286MOL0     O39389   6.750   8.750   2.189 -0.2046 -0.0040  0.3464
  286MOL0     C39390   6.657   8.755   2.302 -0.9105  0.3734 -0.7481
  286MOL0     C39391   6.715   8.813   2.439  0.2796  0.2970 -1.2707
  286MOL0     C39392   6.696   8.965   2.478 -0.0286 -0.6478 -1.0654
  286MOL0     C39393   6.549   9.013   2.508 -0.2147  0.0729  0.6860
  286MOL0     C39394   6.485   8.964   2.630 -0.1001  0.5013 -0.0587
  286MOL0     C39395   6.420   8.947   2.738  0.4953 -0.2049  0.3141
  286MOL0     C39396   6.718   8.988   2.128 -0.6219 -0.7232 -0.5756
  286MOL0     C39397   6.744   9.100   2.046 -0.6604  0.3105  0.8211
  286MOL0     C39398   6.681   9.232   2.087 -0.9122 -0.2936  0.3355
  286MOL0     H39399   7.107   9.248   1.687  1.8653  1.6901  0.2694
  286MOL0     H39400   7.191   9.419   1.527  0.6283 -1.5890  2.0339
  286MOL0     H39401   7.198   9.644   1.486  1.2010  0.3825 -1.2842
  286MOL0     H39402   7.029   9.687   1.527  2.4703 -0.5116  1.3414
  286MOL0     H39403   7.171   9.755   1.260 -2.4761 -2.2593 -1.9497
  286MOL0     H39404   7.007   9.811   1.290  0.0275  0.7709 -0.2170
  286MOL0     H39405   7.088   9.941   1.496 -1.8356 -0.3227  0.0195
  286MOL0     H39406   7.256   9.880   1.455 -1.0802 -3.2253  0.2094
  286MOL0     H39407   7.244   9.980   1.250  0.3918 -3.7714  1.2099
  286MOL0     H39408   7.099  10.076   1.302  0.2271  1.9943  2.2822
  286MOL0     H39409   7.376  10.072   1.398 -0.0347 -1.0427  1.7975
  286MOL0     H39410   7.241  10.153   1.489 -0.3038 -1.2737  0.3499
  286MOL0     H39411   7.346  10.320   1.366  1.4280 -0.1116 -1.6450
  286MOL0     H39412   7.355  10.226   1.217  4.0582  0.1455  1.4114
  286MOL0     H39413   7.103  10.306   1.365  2.2876  0.4161  1.0384
  286MOL0     H39414   7.119  10.250   1.190 -0.9159  1.9611 -0.9293
  286MOL0     H39415   7.228  10.505   1.284  0.6218 -1.1334  0.1460
  286MOL0     H39416   7.161  10.481   1.119  0.8916 -3.1037 -0.6769
  286MOL0     H39417   6.887  10.434   1.088 -3.5118  1.5243 -1.0001
  286MOL0     H39418   6.656  10.585   1.121  1.1998 -1.0222 -0.3007
  286MOL0     H39419   6.640  10.686   1.268  3.4996  2.9894 -3.3838
  286MOL0     H39420   6.590  10.394   1.239  1.5131 -0.3764  0.9008
  286MOL0     H39421   6.587  10.490   1.402 -2.1211  2.7437 -0.2483
  286MOL0     H39422   6.390  10.629   1.312 -1.7778 -1.0075  3.9956
  286MOL0     H39423   6.390  10.527   1.172 -2.3932 -0.0067  0.7174
  286MOL0     H39424   6.232  10.426   1.294  0.5544 -0.4678 -0.6814
  286MOL0     H39425   6.368  10.338   1.356  1.5236  0.6740 -2.1278
  286MOL0     H39426   6.034  10.584   1.524  1.8413  1.0613 -0.3810
  286MOL0     H39427   5.744  10.481   1.627  1.8241 -0.1311  0.7733
  286MOL0     H39428   5.735  10.471   1.446 -3.9377  0.8818  1.0978
  286MOL0     H39429   5.820  10.599   1.525 -2.2303 -0.1556  0.1842
  286MOL0     H39430   5.691   9.952   1.367  0.7710  0.6461 -0.1912
  286MOL0     H39431   5.478   9.830   1.367  1.4148 -1.4549  0.0249
  286MOL0     H39432   5.282   9.725   1.782 -0.2630 -0.9392 -0.6098
  286MOL0     H39433   5.232   9.858   1.675  0.6597  0.0801 -0.6450
  286MOL0     H39434   5.157   9.569   1.614  0.3024  0.3973  0.6746
  286MOL0     H39435   5.052   9.663   1.733 -0.5963 -1.4333 -0.4624
  286MOL0     H39436   5.094   9.699   1.441  0.7769 -0.4348  0.6358
  286MOL0     H39437   5.020   9.819   1.543  3.4542  1.0350 -1.2757
  286MOL0     H39438   4.841   9.651   1.601  0.9400  0.5146  0.2880
  286MOL0     H39439   4.941   9.521   1.530  1.8726  0.8819  1.7399
  286MOL0     H39440   4.908   9.620   1.308 -0.2927  2.6486 -1.1070
  286MOL0     H39441   4.769   9.563   1.371 -1.4324  0.2556 -0.0804
  286MOL0     H39442   4.849   9.854   1.325 -0.8401  0.3585 -1.3595
  286MOL0     H39443   4.768   9.839   1.471 -0.8122 -2.4887  0.4259
  286MOL0     H39444   4.582   9.715   1.373  0.3435 -0.0537 -0.2721
  286MOL0     H39445   4.644   9.755   1.209 -0.1174 -0.5048 -0.2287
  286MOL0     H39446   4.557   9.932   1.451 -0.4669 -0.6007  1.1338
  286MOL0     H39447   4.472   9.920   1.300  0.0020  2.7910 -1.0112
  286MOL0     H39448   5.468   9.833   1.789 -2.1151 -2.3442 -2.0170
  286MOL0     H39449   5.655   9.954   1.805  0.6642 -0.3260  0.1091
  286MOL0     H39450   6.036  10.099   1.551 -0.6405 -0.2007 -3.5651
  286MOL0     H39451   6.250  10.213   1.550  0.5263  1.0274 -0.9960
  286MOL0     H39452   6.808   9.461   1.357  1.5451  0.1721 -0.6692
  286MOL0     H39453   6.721   9.284   1.507  0.4337 -2.7655 -3.5922
  286MOL0     H39454   6.903   8.933   1.804  1.0490 -1.0024  0.8512
  286MOL0     H39455   6.846   8.738   1.964  0.7772  0.1449  0.4332
  286MOL0     H39456   6.563   8.801   2.272 -1.7142 -1.2136 -0.7698
  286MOL0     H39457   6.628   8.651   2.324 -3.9009  0.9757 -1.4498
  286MOL0     H39458   6.824   8.805   2.433  0.4153 -0.2170  1.0203
  286MOL0     H39459   6.687   8.746   2.522  0.0855 -2.3140 -3.3027
  286MOL0     H39460   6.751   8.968   2.573 -0.2116 -1.0248 -0.9458
  286MOL0     H39461   6.739   9.032   2.403  1.0929 -0.0126  0.0973
  286MOL0     H39462   6.488   8.986   2.421 -1.9136 -2.4714  2.5062
  286MOL0     H39463   6.543   9.122   2.515  1.7472  0.3840 -1.2554
  286MOL0     H39464   6.363   8.941   2.828  1.5745 -1.2942  0.9452
  286MOL0     H39465   6.657   8.999   2.218 -0.6737  0.2355 -0.7166
  286MOL0     H39466   6.629   9.276   2.002 -0.3225 -0.1604  0.0383
  286MOL0     H39467   6.610   9.233   2.170 -0.6404 -0.5984  0.5781
  286MOL0     H39468   6.765   9.294   2.120 -0.7609  0.4184 -1.3361
  287MOL0     O39469   7.258   5.645   4.235 -0.0571  0.3950  0.1242
  287MOL0     C39470   7.346   5.720   4.287  0.7095  0.1414 -0.5694
  287MOL0     O39471   7.371   5.851   4.263  0.0900 -0.1785  0.2985
  287MOL0     C39472   7.288   5.909   4.159 -0.1522 -0.2327  0.3451
  287MOL0     C39473   7.147   5.911   4.154  0.6688  0.8786  0.7039
  287MOL0     C39474   7.073   5.964   4.049 -0.4280  0.1172  0.2050
  287MOL0     C39475   7.142   6.037   3.948  1.1297  0.1241 -0.4538
  287MOL0     O39476   7.067   6.092   3.846  0.2841  0.0628  0.2386
  287MOL0     C39477   7.075   6.230   3.852  0.5181  0.2802  0.0941
  287MOL0     C39478   6.954   6.300   3.803  0.5697  0.2734  0.1593
  287MOL0     C39479   7.000   6.440   3.757  0.0707  0.9327 -0.1061
  287MOL0     C39480   6.890   6.548   3.721  0.0013  0.4398  0.3977
  287MOL0     C39481   6.938   6.700   3.694  0.4138 -0.3092 -0.1834
  287MOL0     C39482   6.997   6.716   3.543 -0.2909  0.8969  0.1865
  287MOL0     C39483   6.914   6.688   3.416 -0.4623  0.0135 -0.4269
  287MOL0     C39484   6.780   6.762   3.431  0.6493  0.3028  0.4800
  287MOL0     N39485   6.713   6.778   3.301  0.0952 -0.6723  0.8353
  287MOL0     C39486   6.765   6.803   3.182 -0.0747  0.1728 -0.7817
  287MOL0     C39487   6.665   6.768   3.091 -0.1365 -1.2798 -0.3444
  287MOL0     C39488   6.689   6.768   2.941  0.8217  0.1933  0.1311
  287MOL0     C39489   6.821   6.717   2.895 -0.2472 -0.2583 -0.3203
  287MOL0     C39490   6.800   6.680   2.748  0.2710 -0.9322 -0.7179
  287MOL0     C39491   6.929   6.644   2.672  0.2024 -0.1951  0.3255
  287MOL0     O39492   6.908   6.634   2.527 -0.3336  0.5315  0.0273
  287MOL0     C39493   6.859   6.520   2.458  0.0718  0.0811  0.2061
  287MOL0     C39494   6.842   6.395   2.526  1.2498 -0.7236 -0.0181
  287MOL0     C39495   6.805   6.287   2.446  0.3018 -0.1993 -0.3072
  287MOL0     C39496   6.777   6.158   2.521  1.2473 -0.4552 -0.6450
  287MOL0     C39497   6.795   6.307   2.304  0.0122  0.1806  0.2624
  287MOL0     C39498   6.773   6.193   2.212  1.2417  0.3075 -0.6511
  287MOL0     O39499   6.659   6.114   2.228  0.0148  0.1690  0.4904
  287MOL0     C39500   6.632   6.016   2.141  0.3914 -0.5685  0.8881
  287MOL0     C39501   6.593   5.900   2.200  0.6307  0.1045  0.4467
  287MOL0     C39502   6.573   5.790   2.113 -0.9978 -0.1512 -0.8366
  287MOL0     C39503   6.581   5.798   1.975  0.0740  0.4674 -0.3149
  287MOL0     O39504   6.547   5.679   1.903  0.4443 -0.5285  0.2004
  287MOL0     C39505   6.596   5.657   1.773 -0.4237  0.0420 -0.5539
  287MOL0     C39506   6.584   5.512   1.745 -0.3397 -0.9839  1.0444
  287MOL0     C39507   6.556   5.495   1.596  0.1953  0.9237 -0.4697
  287MOL0     C39508   6.686   5.467   1.513  0.0474 -0.0174 -0.9746
  287MOL0     C39509   6.668   5.553   1.392 -0.6950 -0.7537  0.0959
  287MOL0     C39510   6.771   5.513   1.285  0.8357  0.6572 -0.4554
  287MOL0     C39511   6.776   5.609   1.167 -0.2011 -0.1808  0.3317
  287MOL0     C39512   6.881   5.568   1.060 -0.0195 -0.3246 -0.2014
  287MOL0    Cl39513   7.038   5.534   1.145  0.0712  0.0845 -0.1403
  287MOL0     C39514   6.617   5.924   1.917  0.4106 -0.7224 -1.4376
  287MOL0     C39515   6.646   6.031   1.997  0.1833  0.0632 -0.5113
  287MOL0     O39516   6.858   6.181   2.126 -0.1771 -0.2546  0.0229
  287MOL0     C39517   6.825   6.425   2.241  0.0329 -0.5011 -0.4171
  287MOL0     C39518   6.842   6.538   2.327  0.3107 -0.8599  0.5559
  287MOL0     N39519   6.556   6.735   3.163  0.2839 -0.2272  0.1836
  287MOL0     N39520   6.586   6.734   3.293  0.5456 -0.0035  0.4489
  287MOL0     C39521   7.283   6.043   3.957  0.2249 -1.4443  0.1346
  287MOL0     C39522   7.352   5.978   4.061  0.3568  0.3519 -0.5896
  287MOL0     C39523   7.447   5.662   4.362  0.6157  0.7626 -0.2521
  287MOL0     C39524   7.479   5.729   4.480  0.6859 -0.3995 -1.0585
  287MOL0     C39525   7.578   5.678   4.563 -0.0460  0.5436  0.3448
  287MOL0     C39526   7.637   5.557   4.530  0.7584 -0.5920  0.0857
  287MOL0     O39527   7.757   5.535   4.601  0.1146  0.2451  0.1881
  287MOL0     C39528   7.812   5.408   4.585 -1.3107 -0.3318  0.5819
  287MOL0     C39529   7.922   5.414   4.475  0.2056 -0.3892 -0.2310
  287MOL0     C39530   8.018   5.301   4.492 -0.3595  0.4639 -0.1537
  287MOL0     C39531   8.117   5.303   4.380 -0.6541  0.1835 -0.1679
  287MOL0     C39532   8.216   5.194   4.416  0.6782 -0.7932  0.4343
  287MOL0     C39533   8.303   5.116   4.432  0.0961 -0.3690 -0.3110
  287MOL0     C39534   7.588   5.483   4.423 -0.4618  0.2752 -0.3266
  287MOL0     C39535   7.495   5.537   4.332  0.5778 -0.6951 -0.1007
  287MOL0     C39536   7.477   5.471   4.200 -0.9875 -0.1107 -0.0740
  287MOL0     H39537   7.102   5.865   4.241 -0.9599  1.4851  0.2104
  287MOL0     H39538   6.965   5.977   4.051 -0.3239  2.2149 -2.3852
  287MOL0     H39539   7.150   6.250   3.775 -1.5116 -0.6588 -2.2551
  287MOL0     H39540   7.097   6.267   3.953  1.7744  1.5385 -0.5940
  287MOL0     H39541   6.924   6.236   3.720 -0.4205 -0.4788  1.0614
  287MOL0     H39542   6.876   6.314   3.878  0.3433  0.3228 -0.0861
  287MOL0     H39543   7.068   6.482   3.831 -0.0540  0.9223  0.0143
  287MOL0     H39544   7.056   6.418   3.665  0.1257 -0.9537  0.3481
  287MOL0     H39545   6.833   6.507   3.637  3.3037 -1.6510 -1.0541
  287MOL0     H39546   6.820   6.559   3.803  0.7813  0.4888  1.0735
  287MOL0     H39547   7.009   6.725   3.773 -0.5708 -0.2032  0.6957
  287MOL0     H39548   6.850   6.761   3.716 -0.2966 -2.0230  2.2126
  287MOL0     H39549   7.025   6.822   3.544  0.9227  0.6578 -2.0333
  287MOL0     H39550   7.088   6.655   3.545  0.3281  1.8060  0.7345
  287MOL0     H39551   6.895   6.582   3.403  0.6324 -0.6716  2.6741
  287MOL0     H39552   6.964   6.728   3.327 -1.2096 -1.3653 -1.5077
  287MOL0     H39553   6.718   6.698   3.495 -1.8568 -0.4312 -2.4360
  287MOL0     H39554   6.801   6.857   3.482  1.9154 -0.2982  1.1178
  287MOL0     H39555   6.869   6.825   3.159 -0.5017  1.3843 -1.6557
  287MOL0     H39556   6.675   6.866   2.894 -1.0075  0.9732  2.1221
  287MOL0     H39557   6.613   6.699   2.904  2.9397 -2.6021  0.7013
  287MOL0     H39558   6.894   6.798   2.896 -1.6397  1.0336  0.2668
  287MOL0     H39559   6.857   6.634   2.956 -2.6821  0.1494  1.8159
  287MOL0     H39560   6.740   6.589   2.740  1.5308 -1.6900 -2.1596
  287MOL0     H39561   6.751   6.756   2.687  0.2090 -0.5213 -0.1575
  287MOL0     H39562   6.995   6.730   2.687  0.1742 -0.3642  1.5042
  287MOL0     H39563   6.980   6.552   2.701  0.7438  0.3833  1.2454
  287MOL0     H39564   6.860   6.371   2.630  0.8582 -0.9770 -0.0068
  287MOL0     H39565   6.844   6.143   2.606  0.7904 -4.1724 -0.7717
  287MOL0     H39566   6.776   6.066   2.461 -0.6482  0.5162 -2.2082
  287MOL0     H39567   6.676   6.164   2.563  1.9179 -0.0198  0.9860
  287MOL0     H39568   6.586   5.875   2.305  0.7850 -4.6537 -0.4463
  287MOL0     H39569   6.534   5.703   2.165 -1.8931  0.4664 -0.4418
  287MOL0     H39570   6.549   5.719   1.697  0.6670 -0.2420 -1.4909
  287MOL0     H39571   6.705   5.670   1.769 -0.1842 -1.7534 -0.5905
  287MOL0     H39572   6.678   5.465   1.774 -0.5181 -2.0093  0.0131
  287MOL0     H39573   6.507   5.451   1.793 -0.3040  0.0631  2.4855
  287MOL0     H39574   6.499   5.580   1.556 -1.4007  0.5459  0.8711
  287MOL0     H39575   6.489   5.410   1.586  0.6360  0.4496  0.4458
  287MOL0     H39576   6.700   5.363   1.482  0.0583 -0.8101  1.5476
  287MOL0     H39577   6.773   5.510   1.564 -0.3054  1.0841 -1.2866
  287MOL0     H39578   6.562   5.554   1.366 -2.3299 -1.3610  5.4596
  287MOL0     H39579   6.697   5.653   1.425  0.9038 -1.6486  1.5981
  287MOL0     H39580   6.739   5.416   1.247 -3.1861  1.4673  0.3936
  287MOL0     H39581   6.873   5.505   1.324  0.2020  0.7305  1.2891
  287MOL0     H39582   6.799   5.710   1.202  1.8521 -1.0610  1.6637
  287MOL0     H39583   6.676   5.609   1.122 -1.1309  1.8091  2.2176
  287MOL0     H39584   6.903   5.643   0.985 -2.2001  0.1658 -0.4265
  287MOL0     H39585   6.842   5.478   1.010  1.2570 -0.6648 -0.6274
  287MOL0     H39586   6.613   5.940   1.810 -1.9147  1.6312 -1.0874
  287MOL0     H39587   6.687   6.114   1.940  0.5252 -1.2585 -2.2664
  287MOL0     H39588   6.829   6.436   2.133 -2.0008  1.7010 -0.3595
  287MOL0     H39589   6.840   6.640   2.291 -0.4979 -0.7329  0.9447
  287MOL0     H39590   7.338   6.101   3.884 -0.9183  0.9564  1.0565
  287MOL0     H39591   7.459   5.962   4.074 -0.3749 -4.6762  1.7931
  287MOL0     H39592   7.430   5.819   4.516  0.3705  0.4950 -3.5338
  287MOL0     H39593   7.608   5.731   4.654 -0.5656  1.8997 -0.2511
  287MOL0     H39594   7.868   5.381   4.676  0.5698  0.9162 -0.1600
  287MOL0     H39595   7.730   5.336   4.578 -2.4081  0.5488  3.1676
  287MOL0     H39596   7.976   5.510   4.481  3.6471 -2.2334  1.6962
  287MOL0     H39597   7.881   5.409   4.374 -0.7968 -2.8391  0.2428
  287MOL0     H39598   8.079   5.312   4.582  1.2393 -4.5656 -0.3274
  287MOL0     H39599   7.972   5.204   4.512  1.4435 -0.0787  1.7515
  287MOL0     H39600   8.170   5.399   4.381  0.1089 -0.2265  1.2048
  287MOL0     H39601   8.076   5.291   4.279 -1.8802  3.9396 -0.2454
  287MOL0     H39602   8.394   5.065   4.456  2.1283  3.6186  1.3684
  287MOL0     H39603   7.633   5.385   4.409 -0.0832 -0.0756  2.6870
  287MOL0     H39604   7.572   5.421   4.182  0.6355  2.3008  1.2813
  287MOL0     H39605   7.391   5.405   4.213 -1.4472 -0.2025 -2.8870
  287MOL0     H39606   7.456   5.544   4.122 -2.3576 -0.3482  0.0388
  288MOL0     O39607   3.554   9.499   5.336  0.0461 -0.3767 -0.4642
  288MOL0     C39608   3.507   9.604   5.295 -0.0265 -0.2150  0.1915
  288MOL0     O39609   3.486   9.715   5.370 -0.0741  0.0956  0.9755
  288MOL0     C39610   3.496   9.729   5.504 -1.7859 -0.2318  0.1428
  288MOL0     C39611   3.467   9.630   5.595 -0.1408 -0.4555 -1.3257
  288MOL0     C39612   3.491   9.648   5.733  0.4270 -0.7160  0.6713
  288MOL0     C39613   3.551   9.766   5.777  0.6544 -0.7132  0.0047
  288MOL0     O39614   3.569   9.791   5.914 -0.4226  0.0371 -0.1052
  288MOL0     C39615   3.656   9.896   5.958 -0.1833  0.3883 -0.8238
  288MOL0     C39616   3.682   9.879   6.106 -0.7923 -0.2043  0.3199
  288MOL0     C39617   3.739  10.014   6.168  0.1859  0.0239 -0.9210
  288MOL0     C39618   3.816   9.984   6.300 -0.1924  0.1932  0.5242
  288MOL0     C39619   3.873  10.113   6.363 -0.0833  0.5116 -0.4056
  288MOL0     C39620   3.972  10.184   6.279 -0.4798  0.3317  0.0206
  288MOL0     C39621   4.045  10.302   6.341 -1.2963  0.2096 -0.4781
  288MOL0     C39622   4.137  10.370   6.235  0.0319  1.4028 -0.6775
  288MOL0     N39623   4.066  10.451   6.137 -0.2349 -0.7677  0.6698
  288MOL0     C39624   3.998  10.569   6.173 -0.2090 -0.6545  0.8600
  288MOL0     C39625   3.938  10.609   6.058 -0.1058 -0.3061 -0.4466
  288MOL0     C39626   3.851  10.732   6.037  0.3382 -0.0961 -0.5660
  288MOL0     C39627   3.775  10.731   5.907  0.0742  0.6226 -0.6090
  288MOL0     C39628   3.656  10.824   5.906 -0.3070 -0.1813  0.0188
  288MOL0     C39629   3.530  10.761   5.984 -0.9243 -0.7953 -0.5839
  288MOL0     O39630   3.554  10.786   6.130 -0.8932 -0.5739  0.5654
  288MOL0     C39631   3.455  10.764   6.227 -0.2535 -0.0641 -0.1578
  288MOL0     C39632   3.331  10.691   6.215 -0.1463 -0.3952  0.1903
  288MOL0     C39633   3.249  10.675   6.326 -0.2425 -0.4200 -0.4296
  288MOL0     C39634   3.111  10.614   6.317 -0.7856 -0.4633  0.1648
  288MOL0     C39635   3.290  10.741   6.452  0.9733 -0.4831  0.0454
  288MOL0     C39636   3.201  10.731   6.568  0.2918 -0.1235  0.6713
  288MOL0     O39637   3.231  10.643   6.672  0.2898  0.2622  0.1921
  288MOL0     C39638   3.190  10.670   6.800 -1.0580  0.1638  0.8066
  288MOL0     C39639   3.083  10.734   6.858 -0.6353  0.3695  0.9139
  288MOL0     C39640   3.066  10.748   6.998  0.3713  0.5533  1.1453
  288MOL0     C39641   3.149  10.692   7.094  0.0805 -0.3246 -0.3572
  288MOL0     O39642   3.102  10.680   7.222 -0.7737  0.5803  1.8350
  288MOL0     C39643   3.188  10.640   7.329 -0.4656  0.5316  0.1052
  288MOL0     C39644   3.112  10.550   7.433  0.0134  0.7053 -1.2340
  288MOL0     C39645   2.999  10.620   7.499 -0.3609 -1.0007  0.3438
  288MOL0     C39646   2.935  10.554   7.623 -0.6112  0.2115  0.2844
  288MOL0     C39647   2.820  10.649   7.678 -0.7158  0.5908  0.1947
  288MOL0     C39648   2.877  10.774   7.754 -0.0020 -0.4770  0.5979
  288MOL0     C39649   2.763  10.855   7.827  0.5264 -1.1883  0.9014
  288MOL0     C39650   2.797  11.010   7.821 -0.0962  0.3632 -1.0379
  288MOL0    Cl39651   2.789  11.075   7.655  0.1235  0.0640  0.0433
  288MOL0     C39652   3.261  10.632   7.042 -0.0350  0.2505  0.2821
  288MOL0     C39653   3.277  10.621   6.902  1.4848 -0.5122  0.7579
  288MOL0     O39654   3.127  10.827   6.570  0.0608 -0.4918  0.6338
  288MOL0     C39655   3.407  10.814   6.462  0.0275 -0.1575 -1.2445
  288MOL0     C39656   3.487  10.822   6.342  0.1061 -0.5034 -1.0785
  288MOL0     N39657   3.985  10.535   5.954  0.8145  1.0929  0.2920
  288MOL0     N39658   4.061  10.441   6.006  0.1794  0.1013  0.1701
  288MOL0     C39659   3.563   9.873   5.683 -0.1984 -0.2293  0.4318
  288MOL0     C39660   3.540   9.852   5.546 -0.1466  0.5199  0.1496
  288MOL0     C39661   3.480   9.618   5.150 -0.6609  0.3165 -0.0957
  288MOL0     C39662   3.591   9.582   5.076 -0.1790 -0.0102  0.0682
  288MOL0     C39663   3.573   9.591   4.942 -1.0272  0.1618  0.0801
  288MOL0     C39664   3.463   9.614   4.872  0.7924 -0.7345  0.3921
  288MOL0     O39665   3.467   9.605   4.737  0.7817  0.4032 -0.2385
  288MOL0     C39666   3.348   9.578   4.661 -0.1912  0.8191 -0.3444
  288MOL0     C39667   3.270   9.703   4.622  0.0263 -0.6928 -0.0303
  288MOL0     C39668   3.357   9.789   4.529  0.2642 -0.2644  0.2642
  288MOL0     C39669   3.305   9.936   4.505 -0.3250 -0.2616  0.6736
  288MOL0     C39670   3.363  10.000   4.392 -0.3204  0.3937  0.0110
  288MOL0     C39671   3.427  10.045   4.301  0.9641 -0.0442  0.2141
  288MOL0     C39672   3.356   9.654   4.948 -0.0778 -0.4439  0.6708
  288MOL0     C39673   3.358   9.660   5.087 -0.5533  0.5801 -0.5431
  288MOL0     C39674   3.247   9.726   5.175  0.7298  0.2703 -0.2536
  288MOL0     H39675   3.442   9.529   5.567  0.3445 -1.1919  0.7176
  288MOL0     H39676   3.470   9.566   5.801 -0.8464 -1.3477 -0.4491
  288MOL0     H39677   3.596   9.988   5.962  1.5218  1.4890  0.7134
  288MOL0     H39678   3.740   9.905   5.889 -0.2582 -0.8707 -1.1004
  288MOL0     H39679   3.596   9.831   6.155 -0.8629 -2.8753 -2.1931
  288MOL0     H39680   3.769   9.814   6.114  0.8992  1.9710  0.7157
  288MOL0     H39681   3.819  10.038   6.098  0.0646  1.0348 -0.7302
  288MOL0     H39682   3.657  10.085   6.177 -0.4081 -0.6953 -0.4593
  288MOL0     H39683   3.749   9.930   6.368 -1.4922  1.8667  0.6452
  288MOL0     H39684   3.909   9.937   6.266  0.4678  2.9442 -1.8328
  288MOL0     H39685   3.920  10.086   6.458  0.3009  0.0821 -0.7130
  288MOL0     H39686   3.791  10.183   6.382 -1.9183 -1.5068 -0.4660
  288MOL0     H39687   4.045  10.119   6.230  0.1066  1.3633 -0.5121
  288MOL0     H39688   3.904  10.222   6.202  1.0155 -0.0136 -1.5493
  288MOL0     H39689   4.120  10.267   6.412  0.7765  0.5183 -2.3793
  288MOL0     H39690   3.972  10.369   6.387  0.0044  0.7550  0.8837
  288MOL0     H39691   4.195  10.447   6.289  3.2054 -0.3817 -1.2867
  288MOL0     H39692   4.213  10.306   6.191  0.2144  1.5742 -0.6141
  288MOL0     H39693   3.987  10.613   6.272 -0.6411 -2.6481  1.7487
  288MOL0     H39694   3.922  10.815   6.032  4.4559 -3.3330 -0.3416
  288MOL0     H39695   3.786  10.736   6.126  0.5363  2.0349 -0.4670
  288MOL0     H39696   3.832  10.762   5.819 -0.1180  2.2491 -0.1902
  288MOL0     H39697   3.743  10.627   5.897  3.8076 -1.0564  2.3024
  288MOL0     H39698   3.665  10.931   5.929 -1.2657 -0.0777 -0.0601
  288MOL0     H39699   3.623  10.815   5.802  0.1961 -3.2966  0.0308
  288MOL0     H39700   3.434  10.804   5.954 -2.5800 -0.0885  4.6729
  288MOL0     H39701   3.528  10.652   5.967 -2.7322 -1.5997  3.4914
  288MOL0     H39702   3.294  10.670   6.115 -1.7398  4.6548 -0.5861
  288MOL0     H39703   3.054  10.614   6.410 -1.6064  4.3126 -0.0693
  288MOL0     H39704   3.123  10.519   6.264  1.2483  0.8623 -1.9500
  288MOL0     H39705   3.045  10.678   6.256  0.2223 -0.1541 -0.6300
  288MOL0     H39706   3.010  10.792   6.802  0.9255 -1.5397 -3.6213
  288MOL0     H39707   2.969  10.792   7.022 -0.6382 -0.5646 -0.6856
  288MOL0     H39708   3.265  10.577   7.283 -0.9164 -0.4516  0.6722
  288MOL0     H39709   3.228  10.730   7.377 -0.6787  2.0707 -2.4315
  288MOL0     H39710   3.086  10.455   7.386  0.9009  0.6029 -1.5489
  288MOL0     H39711   3.175  10.521   7.517 -3.5207 -1.5833  0.8955
  288MOL0     H39712   2.918  10.633   7.428  0.3548 -0.9813 -0.4850
  288MOL0     H39713   3.044  10.716   7.529 -2.4778 -0.2783  1.3827
  288MOL0     H39714   3.012  10.530   7.697 -0.4592  1.1034  0.4251
  288MOL0     H39715   2.879  10.468   7.584  1.5939 -0.7465 -0.9462
  288MOL0     H39716   2.768  10.687   7.590  2.0815 -0.6793 -2.2063
  288MOL0     H39717   2.756  10.585   7.740 -1.7979  1.5541  0.1060
  288MOL0     H39718   2.923  10.842   7.682 -3.5888 -1.1021 -2.5840
  288MOL0     H39719   2.951  10.720   7.814  0.9991 -3.0509 -2.6725
  288MOL0     H39720   2.762  10.826   7.933 -2.2335 -1.7058  0.8006
  288MOL0     H39721   2.666  10.837   7.781  0.5325  2.1259 -0.6801
  288MOL0     H39722   2.898  11.022   7.862 -0.9545  0.8877  1.0883
  288MOL0     H39723   2.729  11.069   7.883  1.6654  0.8545  0.5551
  288MOL0     H39724   3.336  10.573   7.093 -0.3774 -0.1896  0.2818
  288MOL0     H39725   3.367  10.574   6.865  0.2879 -1.3988 -1.1829
  288MOL0     H39726   3.431  10.864   6.555  2.0521 -0.0304 -1.7972
  288MOL0     H39727   3.585  10.868   6.352 -1.0586  1.6452  2.5423
  288MOL0     H39728   3.605   9.966   5.721 -2.1412  1.8918 -2.2162
  288MOL0     H39729   3.583   9.919   5.472  0.8692 -0.7282 -0.4359
  288MOL0     H39730   3.688   9.558   5.118 -0.9612 -4.0490 -0.0129
  288MOL0     H39731   3.665   9.593   4.885 -0.2858  0.2728  1.2515
  288MOL0     H39732   3.369   9.523   4.569 -0.1605  0.5880 -0.1998
  288MOL0     H39733   3.288   9.515   4.728 -0.3098  2.4158  1.1426
  288MOL0     H39734   3.247   9.762   4.711  1.3157 -0.6288  0.2819
  288MOL0     H39735   3.181   9.661   4.573  1.3101  0.7745 -4.0217
  288MOL0     H39736   3.460   9.799   4.566  0.3740 -2.1491  0.5530
  288MOL0     H39737   3.362   9.734   4.435  3.6171 -1.2003  0.8748
  288MOL0     H39738   3.330  10.004   4.587  1.4512  1.2380 -0.9999
  288MOL0     H39739   3.196   9.940   4.508 -0.3147  0.0891  0.5927
  288MOL0     H39740   3.483  10.078   4.216  0.6427 -0.9364 -0.3594
  288MOL0     H39741   3.265   9.704   4.916  0.6420  1.7072  1.7987
  288MOL0     H39742   3.151   9.702   5.127  1.8749  0.2153 -2.6793
  288MOL0     H39743   3.254   9.682   5.275  4.6019  0.7184 -0.1829
  288MOL0     H39744   3.265   9.833   5.184  0.9740  0.0796  2.1383
  289MOL0     O39745   9.906   8.719   8.694 -0.5938  0.7694  0.2792
  289MOL0     C39746   9.979   8.808   8.664 -0.6333 -0.7997  0.0968
  289MOL0     O39747   9.959   8.945   8.691 -0.2841  0.2635 -0.2386
  289MOL0     C39748   9.851   8.973   8.773 -0.9461  0.3277  0.3660
  289MOL0     C39749   9.736   9.030   8.712 -1.5201  0.5859 -0.6582
  289MOL0     C39750   9.616   9.044   8.789  1.0649  0.2978  0.4476
  289MOL0     C39751   9.613   9.012   8.926 -0.2577 -0.0521  0.0076
  289MOL0     O39752   9.491   9.023   8.992 -0.2452  0.2299  0.4409
  289MOL0     C39753   9.491   9.023   9.141  0.5057  0.2271  0.6591
  289MOL0     C39754   9.351   9.065   9.195 -0.1549 -0.2108 -0.1944
  289MOL0     C39755   9.231   8.996   9.138  0.5813  0.3359 -0.2473
  289MOL0     C39756   9.107   9.035   9.224 -1.0400  0.4998  1.0905
  289MOL0     C39757   8.983   9.002   9.150  0.3593  0.5268 -1.6567
  289MOL0     C39758   8.859   9.008   9.255  0.9958  0.7076 -0.2096
  289MOL0     C39759   8.727   8.994   9.183  0.2848 -0.4823 -0.3378
  289MOL0     C39760   8.605   9.035   9.270 -0.2553  0.5511  0.4732
  289MOL0     N39761   8.602   8.953   9.389  0.6821  0.2074 -0.2192
  289MOL0     C39762   8.579   8.821   9.403  0.7779 -0.8344  0.3186
  289MOL0     C39763   8.565   8.800   9.536  0.0603 -0.0545 -0.9019
  289MOL0     C39764   8.566   8.668   9.612  0.6782  0.0777 -0.2680
  289MOL0     C39765   8.449   8.668   9.714  0.8133  0.2389  0.0523
  289MOL0     C39766   8.416   8.529   9.755  1.6661 -0.1474 -0.3776
  289MOL0     C39767   8.303   8.529   9.855  0.6498 -0.0420  0.1067
  289MOL0     O39768   8.291   8.396   9.913 -0.2304 -0.5605 -0.5279
  289MOL0     C39769   8.178   8.324   9.939 -0.4950 -0.4548 -0.3771
  289MOL0     C39770   8.193   8.214  10.022  0.3770 -0.8610 -0.5068
  289MOL0     C39771   8.102   8.108  10.038 -0.9800 -0.9124  0.3872
  289MOL0     C39772   8.149   8.004  10.135 -0.1609  0.0593 -0.0747
  289MOL0     C39773   7.977   8.125   9.969 -0.2559  1.0760  0.3898
  289MOL0     C39774   7.861   8.030   9.963 -0.7829 -0.5079  0.3575
  289MOL0     O39775   7.747   8.086   9.911  0.1982 -0.7958 -0.3082
  289MOL0     C39776   7.647   8.022   9.845  0.3091  1.0727  0.2454
  289MOL0     C39777   7.621   7.883   9.846  0.4287  0.2246 -0.1126
  289MOL0     C39778   7.522   7.818   9.755  0.6715 -0.7222 -0.3135
  289MOL0     C39779   7.445   7.901   9.678  0.0282 -0.1469  0.0226
  289MOL0     O39780   7.370   7.863   9.566  0.2412 -0.1058  0.6380
  289MOL0     C39781   7.290   7.745   9.566  0.2327 -0.5625  0.7231
  289MOL0     C39782   7.159   7.750   9.498 -0.3143 -0.6788  0.9150
  289MOL0     C39783   7.171   7.799   9.358  0.2532  0.3646  0.8790
  289MOL0     C39784   7.034   7.841   9.310  0.6112  0.1004 -0.0111
  289MOL0     C39785   7.024   7.886   9.168 -0.5078 -0.1918 -0.5444
  289MOL0     C39786   7.095   8.009   9.134 -0.4045  0.4995 -0.5357
  289MOL0     C39787   7.007   8.104   9.052  0.2751 -0.0603  0.1840
  289MOL0     C39788   7.054   8.245   8.998 -1.0472  0.5758  0.0652
  289MOL0    Cl39789   6.922   8.350   8.923 -0.3229 -0.1596  0.8164
  289MOL0     C39790   7.467   8.037   9.682  0.3389  0.8193 -0.6875
  289MOL0     C39791   7.568   8.096   9.755  0.1969  0.3847 -0.0659
  289MOL0     O39792   7.870   7.919  10.007  0.0500  0.5869  0.2637
  289MOL0     C39793   7.968   8.242   9.891  0.7796 -0.7316  0.8329
  289MOL0     C39794   8.065   8.348   9.883  0.8970  1.1573 -0.1800
  289MOL0     N39795   8.580   8.928   9.602  0.0850  1.7943  1.7251
  289MOL0     N39796   8.594   9.019   9.512 -0.5352 -0.6722  0.3840
  289MOL0     C39797   9.728   8.968   8.989  0.5421 -0.4975  0.7790
  289MOL0     C39798   9.844   8.954   8.915  0.8031 -0.1472 -0.3163
  289MOL0     C39799  10.117   8.777   8.598  0.2539 -0.7661  0.9823
  289MOL0     C39800  10.206   8.880   8.576  0.1449  0.7050 -0.2399
  289MOL0     C39801  10.326   8.872   8.506  0.9276  0.5873 -1.0717
  289MOL0     C39802  10.371   8.740   8.477  0.3187  0.1931  0.5224
  289MOL0     O39803  10.499   8.712   8.433  0.3035  0.1788 -0.0165
  289MOL0     C39804  10.608   8.808   8.419  1.2617  0.4821 -0.5831
  289MOL0     C39805  10.692   8.827   8.544  0.0687 -0.1135 -0.0736
  289MOL0     C39806  10.705   8.710   8.650  0.1980  0.2783  0.5556
  289MOL0     C39807  10.696   8.763   8.783  0.0569 -0.3198  0.4632
  289MOL0     C39808  10.553   8.782   8.813 -0.8544  0.8321  0.8300
  289MOL0     C39809  10.436   8.777   8.840  0.2187 -0.0213  0.7268
  289MOL0     C39810  10.277   8.636   8.490  0.8797 -0.0864  0.0489
  289MOL0     C39811  10.146   8.654   8.539 -0.2296  1.6089 -0.2376
  289MOL0     C39812  10.058   8.537   8.549 -0.4526 -0.1750 -0.6992
  289MOL0     H39813   9.729   9.048   8.606 -1.1286 -2.7924 -1.3849
  289MOL0     H39814   9.522   9.068   8.741  0.1117  0.7821  2.4298
  289MOL0     H39815   9.570   9.083   9.188  3.3226 -1.1590 -1.8788
  289MOL0     H39816   9.512   8.919   9.167 -1.3915 -0.8573 -1.6930
  289MOL0     H39817   9.346   9.062   9.304  1.4545  4.7017  0.2555
  289MOL0     H39818   9.345   9.171   9.168 -0.2084  0.3943  2.0296
  289MOL0     H39819   9.212   9.033   9.037 -2.5569 -1.8883 -0.6436
  289MOL0     H39820   9.245   8.888   9.141 -0.6245  0.1746  0.2822
  289MOL0     H39821   9.114   8.980   9.319 -2.6595  0.4938  1.2217
  289MOL0     H39822   9.102   9.140   9.253 -0.6788  0.5859  0.8479
  289MOL0     H39823   8.984   8.898   9.115  0.6533 -1.2748  3.0332
  289MOL0     H39824   8.965   9.070   9.067 -1.2310  0.7549 -1.1636
  289MOL0     H39825   8.877   8.926   9.324  0.2568 -0.3150 -1.1909
  289MOL0     H39826   8.873   9.102   9.309  4.2187  1.0533 -1.4040
  289MOL0     H39827   8.700   8.890   9.161 -0.2069 -0.1184 -1.5051
  289MOL0     H39828   8.724   9.049   9.089 -1.0737 -0.8044 -0.4921
  289MOL0     H39829   8.609   9.143   9.291  0.2458  0.4519  0.9022
  289MOL0     H39830   8.515   9.018   9.210 -0.0875  0.3752  0.2715
  289MOL0     H39831   8.580   8.739   9.331 -1.1811 -1.9107  1.4109
  289MOL0     H39832   8.659   8.643   9.662  1.1751  0.3442 -1.0420
  289MOL0     H39833   8.542   8.584   9.546  2.1866 -0.5806 -0.0044
  289MOL0     H39834   8.486   8.732   9.794 -1.0323 -0.9058  1.9306
  289MOL0     H39835   8.357   8.712   9.674  1.5334 -0.4701 -2.6597
  289MOL0     H39836   8.379   8.477   9.667 -1.3771 -0.5958  1.0513
  289MOL0     H39837   8.503   8.481   9.802 -0.9641 -2.4281  2.5120
  289MOL0     H39838   8.324   8.594   9.941  0.4096 -3.0356  2.5799
  289MOL0     H39839   8.210   8.566   9.810  0.2319  3.8518  3.4692
  289MOL0     H39840   8.292   8.200  10.065 -0.1679 -1.5529  0.5600
  289MOL0     H39841   8.076   8.004  10.217 -0.7413 -1.1876 -0.5744
  289MOL0     H39842   8.239   8.039  10.187  1.3061  0.3679 -2.6404
  289MOL0     H39843   8.157   7.900  10.103  0.3961 -0.4655  1.6852
  289MOL0     H39844   7.694   7.819   9.894 -1.8295 -0.7107  2.3036
  289MOL0     H39845   7.529   7.712   9.735  0.2983 -0.7244 -0.4392
  289MOL0     H39846   7.347   7.661   9.525 -0.3938 -2.6253  3.7181
  289MOL0     H39847   7.281   7.712   9.670 -1.8363  1.5637  1.2860
  289MOL0     H39848   7.116   7.650   9.500 -5.4312  1.2314  0.1951
  289MOL0     H39849   7.090   7.815   9.552 -0.2898  0.1292  0.0068
  289MOL0     H39850   7.210   7.720   9.293 -1.0021  0.9545 -0.6359
  289MOL0     H39851   7.244   7.880   9.346  0.7676 -0.3152 -0.9531
  289MOL0     H39852   7.000   7.919   9.379 -1.9057  0.8743 -1.9943
  289MOL0     H39853   6.969   7.754   9.323  0.6247 -0.3078 -2.3014
  289MOL0     H39854   7.047   7.802   9.102 -2.1533 -0.3906 -0.8891
  289MOL0     H39855   6.920   7.899   9.139  0.0698  0.2981 -2.5741
  289MOL0     H39856   7.187   7.987   9.080  0.3415  0.4833  0.7209
  289MOL0     H39857   7.116   8.070   9.223 -0.0403 -0.5972  0.1426
  289MOL0     H39858   6.916   8.119   9.112  2.6760  3.2230  3.4624
  289MOL0     H39859   6.975   8.051   8.962  1.2954  1.3337 -1.0550
  289MOL0     H39860   7.128   8.220   8.922  0.0736  1.3377  0.8663
  289MOL0     H39861   7.113   8.302   9.071  0.6992 -0.1029 -0.7541
  289MOL0     H39862   7.412   8.113   9.627 -0.5740  0.6401 -0.0446
  289MOL0     H39863   7.600   8.199   9.742  1.4051  0.2316  1.3598
  289MOL0     H39864   7.885   8.264   9.825 -0.4505 -2.3339  1.7948
  289MOL0     H39865   8.037   8.429   9.816 -0.1583  0.3008 -0.8262
  289MOL0     H39866   9.726   8.947   9.095 -2.0431  2.2065  1.3934
  289MOL0     H39867   9.934   8.927   8.970 -0.8262 -2.0077  1.6088
  289MOL0     H39868  10.190   8.983   8.607 -2.0220  0.1402  0.7400
  289MOL0     H39869  10.387   8.962   8.506  1.1916  0.4092 -0.8141
  289MOL0     H39870  10.662   8.758   8.339 -0.7785 -5.1663  1.0470
  289MOL0     H39871  10.569   8.899   8.372  0.2518 -0.6081 -1.9107
  289MOL0     H39872  10.669   8.919   8.600  0.9560 -1.3577  2.5098
  289MOL0     H39873  10.794   8.844   8.509  1.1656 -2.8279  1.5090
  289MOL0     H39874  10.637   8.626   8.633 -0.5464  1.3465 -2.3829
  289MOL0     H39875  10.804   8.668   8.629 -0.6542 -1.0318 -1.1108
  289MOL0     H39876  10.734   8.865   8.795 -1.8667  0.4374  0.5190
  289MOL0     H39877  10.744   8.697   8.856  3.1657  1.5698  0.2749
  289MOL0     H39878  10.331   8.784   8.860  0.3337  0.1003  1.3102
  289MOL0     H39879  10.310   8.538   8.458  2.0878  0.8270 -1.6824
  289MOL0     H39880  10.100   8.461   8.483  0.0643 -0.3058 -0.2271
  289MOL0     H39881  10.050   8.491   8.648  1.2493  0.0891 -0.4011
  289MOL0     H39882   9.966   8.568   8.499 -0.2516 -0.7372 -1.4366
  290MOL0     O39883   8.886   5.212  10.014 -0.4646  0.1162 -0.5076
  290MOL0     C39884   8.886   5.235  10.135 -0.4924  0.2273  1.4775
  290MOL0     O39885   8.991   5.237  10.218  0.2360 -0.3430 -0.5196
  290MOL0     C39886   9.111   5.183  10.178  0.3551 -0.7222  0.1722
  290MOL0     C39887   9.122   5.062  10.114 -1.2091 -0.0776  0.4828
  290MOL0     C39888   9.247   5.006  10.099 -0.3900 -0.5711  0.0646
  290MOL0     C39889   9.368   5.069  10.134  0.2487  0.0078  0.6120
  290MOL0     O39890   9.476   5.002  10.107  0.1930  0.1928  0.2510
  290MOL0     C39891   9.587   5.089  10.062  0.4287  0.1280  0.4960
  290MOL0     C39892   9.689   4.999   9.980 -0.0626  0.5435  0.6437
  290MOL0     C39893   9.630   4.939   9.848 -0.8279 -0.7197  0.4928
  290MOL0     C39894   9.620   5.046   9.746  1.2833 -0.2965  0.7145
  290MOL0     C39895   9.519   5.008   9.636  0.5430  0.1364  0.8062
  290MOL0     C39896   9.368   5.026   9.684 -0.2523 -0.3604 -0.9390
  290MOL0     C39897   9.327   5.170   9.709 -0.8102 -0.3836  0.6495
  290MOL0     C39898   9.173   5.172   9.721  0.3660 -1.3108  0.6470
  290MOL0     N39899   9.131   5.312   9.694 -0.5911 -0.6641 -1.3653
  290MOL0     C39900   9.107   5.406   9.791 -0.0741  0.4287  0.1597
  290MOL0     C39901   9.057   5.513   9.728 -0.6720 -1.0545  0.0921
  290MOL0     C39902   9.027   5.655   9.783  0.0856  0.5641  0.9371
  290MOL0     C39903   9.132   5.769   9.755 -0.1922  0.0688 -0.5701
  290MOL0     C39904   9.090   5.888   9.848 -0.7133  0.4792  0.2374
  290MOL0     C39905   9.218   5.976   9.888  0.6073 -0.3437  0.3658
  290MOL0     O39906   9.309   5.881   9.948  0.6717  0.5231  0.0305
  290MOL0     C39907   9.338   5.913  10.079 -0.0877  0.0578 -1.1143
  290MOL0     C39908   9.240   5.948  10.169 -0.4706 -0.5682  0.0525
  290MOL0     C39909   9.258   5.995  10.296 -0.8548 -0.0214 -0.3473
  290MOL0     C39910   9.141   6.047  10.367 -0.0746  0.4755 -0.7549
  290MOL0     C39911   9.394   6.006  10.349 -0.0321 -0.4917 -0.3036
  290MOL0     C39912   9.431   6.053  10.489  0.1052 -0.6736 -0.0986
  290MOL0     O39913   9.336   6.059  10.591 -0.0586 -0.4045 -0.2880
  290MOL0     C39914   9.339   6.113  10.716  0.9057 -0.5401 -0.7420
  290MOL0     C39915   9.429   6.205  10.767 -0.3144  0.2363  0.4236
  290MOL0     C39916   9.415   6.259  10.900 -0.7380 -0.3019 -0.5861
  290MOL0     C39917   9.302   6.222  10.980 -0.4841 -0.5471  0.5251
  290MOL0     O39918   9.301   6.250  11.112  0.1676 -0.2034 -0.6606
  290MOL0     C39919   9.172   6.260  11.181 -0.7093 -0.1750  0.4933
  290MOL0     C39920   9.186   6.315  11.322  0.0853 -0.0559 -0.3346
  290MOL0     C39921   9.270   6.225  11.423 -0.1955  0.3601  0.2177
  290MOL0     C39922   9.189   6.104  11.445  0.4392  0.3371 -0.9041
  290MOL0     C39923   9.214   6.045  11.584  0.1016 -0.4573 -0.0410
  290MOL0     C39924   9.334   5.947  11.595 -1.0683 -0.2396  1.0756
  290MOL0     C39925   9.345   5.889  11.738  0.1916 -0.1850 -0.6239
  290MOL0     C39926   9.469   5.806  11.761  0.0237  0.4937  0.0508
  290MOL0    Cl39927   9.428   5.636  11.735 -0.0396 -0.0517  0.0396
  290MOL0     C39928   9.204   6.155  10.916 -0.3018  0.5242 -0.3868
  290MOL0     C39929   9.220   6.094  10.787 -0.2415 -0.0933 -1.0194
  290MOL0     O39930   9.548   6.079  10.504  0.6902  0.4001 -0.2012
  290MOL0     C39931   9.501   5.963  10.261  0.2256 -0.0176 -1.1030
  290MOL0     C39932   9.471   5.933  10.126 -0.0629  0.7809 -0.4074
  290MOL0     N39933   9.020   5.472   9.604  0.2072  0.1175  0.0730
  290MOL0     N39934   9.055   5.350   9.591  0.7354  0.9794  0.0714
  290MOL0     C39935   9.362   5.198  10.194  0.4290  1.0055 -0.0369
  290MOL0     C39936   9.228   5.247  10.215  0.3244  0.2372 -0.5490
  290MOL0     C39937   8.752   5.272  10.175 -0.1586  0.7747  0.0019
  290MOL0     C39938   8.678   5.370  10.107  0.0410 -0.1171 -0.4961
  290MOL0     C39939   8.543   5.388  10.143 -0.6358 -0.3067 -0.3043
  290MOL0     C39940   8.495   5.327  10.252  0.3067 -0.5977  0.6264
  290MOL0     O39941   8.372   5.351  10.293 -0.2954 -0.0600 -0.1488
  290MOL0     C39942   8.359   5.380  10.431 -1.4239  0.4254 -0.5380
  290MOL0     C39943   8.268   5.500  10.451  0.7648  0.6027  0.2927
  290MOL0     C39944   8.122   5.483  10.398 -0.8685 -0.7019  1.4074
  290MOL0     C39945   8.040   5.379  10.471 -0.5138  0.2562  0.7748
  290MOL0     C39946   7.913   5.368  10.410  0.2036 -0.1940  0.7512
  290MOL0     C39947   7.804   5.358  10.372  0.0188  0.2769  0.2831
  290MOL0     C39948   8.565   5.231  10.316  0.0286  0.7191 -1.0495
  290MOL0     C39949   8.689   5.202  10.278 -0.2570 -0.8595 -0.1360
  290MOL0     C39950   8.742   5.080  10.350 -1.2599 -1.0848 -0.0271
  290MOL0     H39951   9.040   4.999  10.081 -1.2675 -0.5338  1.4565
  290MOL0     H39952   9.253   4.906  10.058 -0.5350  0.6799 -3.3413
  290MOL0     H39953   9.631   5.125  10.155 -0.0995 -2.3152  1.7852
  290MOL0     H39954   9.561   5.186  10.018  1.3175  0.2100  0.1355
  290MOL0     H39955   9.778   5.053   9.945  0.9122 -1.0117  0.5908
  290MOL0     H39956   9.723   4.914  10.041 -2.7018 -1.0945 -0.0143
  290MOL0     H39957   9.697   4.862   9.810 -2.5460 -0.4623 -3.5597
  290MOL0     H39958   9.531   4.900   9.874 -0.1774 -1.6917  1.6193
  290MOL0     H39959   9.592   5.145   9.782 -2.7463  0.5933 -3.8225
  290MOL0     H39960   9.721   5.070   9.711  1.4579  0.3881  1.6507
  290MOL0     H39961   9.538   4.904   9.608  0.2708  0.1993  0.3907
  290MOL0     H39962   9.544   5.064   9.546  0.4005  1.2297  1.4309
  290MOL0     H39963   9.296   4.970   9.625 -1.2102  1.8077 -1.9237
  290MOL0     H39964   9.361   4.990   9.787 -1.7741  1.6025 -0.2847
  290MOL0     H39965   9.353   5.231   9.622  0.1114 -0.9883  0.4888
  290MOL0     H39966   9.367   5.202   9.806  1.8531  0.6819 -0.7064
  290MOL0     H39967   9.123   5.108   9.649  0.9423 -2.3176  1.1261
  290MOL0     H39968   9.146   5.137   9.821 -0.7268 -2.7427 -0.1202
  290MOL0     H39969   9.138   5.397   9.895  0.7590  0.3704 -0.0846
  290MOL0     H39970   9.017   5.634   9.890  2.6947 -1.9547  0.8047
  290MOL0     H39971   8.938   5.702   9.740 -0.8139 -2.9922 -1.4957
  290MOL0     H39972   9.230   5.730   9.782 -1.5633 -3.3436  0.0297
  290MOL0     H39973   9.136   5.805   9.652  1.2415 -0.8303 -0.8598
  290MOL0     H39974   9.023   5.964   9.806 -1.0553  1.5813  2.5997
  290MOL0     H39975   9.040   5.861   9.941  0.4341  0.8371  0.9824
  290MOL0     H39976   9.263   6.026   9.801  0.9632 -1.6198 -0.2046
  290MOL0     H39977   9.173   6.047   9.958 -0.5102 -1.8966  1.2603
  290MOL0     H39978   9.135   5.950  10.144 -0.4346 -2.5518 -0.4178
  290MOL0     H39979   9.159   6.154  10.379  0.4547  0.3045  0.0534
  290MOL0     H39980   9.148   5.999  10.465  0.8561  0.5060 -0.8003
  290MOL0     H39981   9.046   6.020  10.320 -0.7104  0.0612  0.6939
  290MOL0     H39982   9.521   6.233  10.716 -1.4901  2.2155 -0.7605
  290MOL0     H39983   9.489   6.320  10.951 -0.5193 -0.8009 -0.3032
  290MOL0     H39984   9.089   6.315  11.135 -0.4872  0.2086  0.5448
  290MOL0     H39985   9.133   6.158  11.184  1.7533 -1.1666  0.7955
  290MOL0     H39986   9.225   6.418  11.320  1.1384 -0.4418 -0.4291
  290MOL0     H39987   9.085   6.323  11.361 -0.1597  0.1659 -1.0036
  290MOL0     H39988   9.291   6.277  11.516  0.3948  2.5542 -1.0537
  290MOL0     H39989   9.364   6.206  11.369  0.1005  2.6220 -0.2024
  290MOL0     H39990   9.201   6.036  11.360  0.5965  1.3045 -1.6759
  290MOL0     H39991   9.082   6.127  11.447  0.2324 -0.6090  0.8613
  290MOL0     H39992   9.218   6.127  11.656  0.2051 -0.2559 -0.2741
  290MOL0     H39993   9.135   5.979  11.620  0.7976  0.1566  2.8615
  290MOL0     H39994   9.428   6.001  11.576 -0.2042 -0.9947  3.0327
  290MOL0     H39995   9.322   5.865  11.523  0.6687  0.5784 -0.2473
  290MOL0     H39996   9.266   5.817  11.762  0.0236 -0.2255 -1.2682
  290MOL0     H39997   9.344   5.970  11.812 -1.4545 -2.7503  2.3882
  290MOL0     H39998   9.504   5.819  11.864 -0.5325 -1.6440  0.5484
  290MOL0     H39999   9.558   5.840  11.707 -1.3785  3.2646 -0.7189
  290MOL0     H40000   9.114   6.130  10.971  0.2418 -0.5684  0.0317
  290MOL0     H40001   9.136   6.040  10.746 -2.0769 -0.0211  2.3360
  290MOL0     H40002   9.604   5.974  10.294 -0.4503  4.3737  0.2678
  290MOL0     H40003   9.547   5.901  10.057 -0.2565 -4.3750  1.3102
  290MOL0     H40004   9.453   5.248  10.226  1.2476 -0.1407 -0.5143
  290MOL0     H40005   9.233   5.335  10.277 -1.3382 -1.3768  2.0784
  290MOL0     H40006   8.729   5.433  10.034 -1.6682 -0.6326 -2.2244
  290MOL0     H40007   8.492   5.462  10.082  1.6423  1.6668  0.0010
  290MOL0     H40008   8.314   5.294  10.482 -0.2237 -0.9662 -1.7292
  290MOL0     H40009   8.449   5.409  10.485 -2.8672  1.2577  1.5378
  290MOL0     H40010   8.306   5.588  10.399 -1.3195  2.9591  2.4471
  290MOL0     H40011   8.267   5.512  10.560  1.6909  0.3662  0.3350
  290MOL0     H40012   8.076   5.582  10.393 -0.7334 -0.6857 -0.5026
  290MOL0     H40013   8.127   5.447  10.295  1.0109  0.8082  0.9139
  290MOL0     H40014   8.037   5.406  10.576  3.7455  1.8716  0.7105
  290MOL0     H40015   8.103   5.290  10.460 -2.0350 -1.0402  2.1128
  290MOL0     H40016   7.700   5.360  10.347 -0.4234  0.0467  1.9654
  290MOL0     H40017   8.518   5.169  10.391  1.6274  0.8239  0.0800
  290MOL0     H40018   8.701   5.068  10.450  3.1363 -4.8105  1.6935
  290MOL0     H40019   8.723   4.995  10.283  0.9322 -2.3773  0.8601
  290MOL0     H40020   8.851   5.069  10.345 -1.4388 -2.5701 -1.4692
  291MOL0     O40021   7.709   4.351   0.131 -0.2500 -0.2077  0.6670
  291MOL0     C40022   7.596   4.323   0.104  0.5877  0.2171 -0.0693
  291MOL0     O40023   7.520   4.229   0.171 -0.0459  0.0822  0.4144
  291MOL0     C40024   7.571   4.146   0.268 -0.1127  1.1805 -0.6789
  291MOL0     C40025   7.615   4.191   0.391 -0.9072 -0.1254 -0.1522
  291MOL0     C40026   7.649   4.102   0.500  0.0748  0.2665  0.1924
  291MOL0     C40027   7.640   3.965   0.473  0.1326  0.2370 -0.8046
  291MOL0     O40028   7.680   3.885   0.573 -0.1829  0.0713  0.0353
  291MOL0     C40029   7.714   3.749   0.537  0.9918 -0.3570  0.7186
  291MOL0     C40030   7.771   3.669   0.655 -0.3920 -0.0234  0.1085
  291MOL0     C40031   7.836   3.536   0.608 -0.2153 -0.3788 -0.0497
  291MOL0     C40032   7.973   3.574   0.540  0.8594  0.2232  0.8060
  291MOL0     C40033   8.045   3.452   0.492  0.0260  1.1160 -0.0775
  291MOL0     C40034   7.976   3.372   0.390  0.3586  0.3603 -0.0162
  291MOL0     C40035   8.057   3.245   0.361  0.1920 -0.2080  0.9574
  291MOL0     C40036   7.993   3.162   0.246 -0.2471 -0.1224  0.6786
  291MOL0     N40037   8.086   3.066   0.182  0.1031 -0.6351  0.2444
  291MOL0     C40038   8.228   3.072   0.197  1.1773 -0.5363 -0.2026
  291MOL0     C40039   8.281   3.015   0.089  0.5627 -0.5988 -0.5786
  291MOL0     C40040   8.426   3.013   0.047 -0.9408  0.7554  0.1873
  291MOL0     C40041   8.520   3.036   0.165  0.2087  0.2014 -0.3151
  291MOL0     C40042   8.672   3.024   0.148  0.0028 -0.3279  0.0517
  291MOL0     C40043   8.721   2.929   0.045 -0.3595  0.5542  0.1985
  291MOL0     O40044   8.706   2.788   0.087 -0.4136  0.3734  0.0693
  291MOL0     C40045   8.729   2.698  -0.014  0.0514 -0.3282 -0.0926
  291MOL0     C40046   8.787   2.728  -0.141  1.1098 -0.0149 -0.2169
  291MOL0     C40047   8.801   2.632  -0.235 -0.5845  1.2062 -0.0618
  291MOL0     C40048   8.831   2.682  -0.376  0.3533  0.7183  0.4816
  291MOL0     C40049   8.756   2.499  -0.205 -0.4522 -0.2321 -0.1429
  291MOL0     C40050   8.769   2.392  -0.309  0.5368 -0.7700 -0.6809
  291MOL0     O40051   8.749   2.271  -0.258  0.1157 -0.4660 -0.3511
  291MOL0     C40052   8.741   2.170  -0.354 -0.9213  0.4702 -0.0634
  291MOL0     C40053   8.851   2.128  -0.437  0.1814 -0.4784 -0.1660
  291MOL0     C40054   8.843   2.006  -0.511 -0.1493 -0.6782 -0.9890
  291MOL0     C40055   8.723   1.932  -0.517  0.2761  0.3617  0.2500
  291MOL0     O40056   8.715   1.819  -0.588  0.1119  0.3885 -0.2820
  291MOL0     C40057   8.789   1.819  -0.708  0.4072  1.1087 -0.8250
  291MOL0     C40058   8.733   1.735  -0.813 -0.5797  0.2774 -0.2356
  291MOL0     C40059   8.824   1.747  -0.939  0.0904  0.5914  0.2972
  291MOL0     C40060   8.777   1.651  -1.049 -0.8033  0.8903 -0.5504
  291MOL0     C40061   8.867   1.690  -1.178  0.2742 -0.5780 -0.5689
  291MOL0     C40062   8.843   1.600  -1.298 -0.1670 -0.2889 -0.3148
  291MOL0     C40063   8.707   1.624  -1.363 -0.0395 -0.6167 -0.6769
  291MOL0     C40064   8.706   1.540  -1.495 -0.9160  0.5264 -0.1178
  291MOL0    Cl40065   8.580   1.616  -1.602 -0.3246  0.1236 -0.1948
  291MOL0     C40066   8.611   1.988  -0.452  0.8424  0.0641 -0.0532
  291MOL0     C40067   8.621   2.101  -0.371  0.3583 -0.4566 -0.9332
  291MOL0     O40068   8.795   2.413  -0.425  0.3334 -0.7977  0.2605
  291MOL0     C40069   8.717   2.463  -0.070 -0.2532 -0.4556  0.5070
  291MOL0     C40070   8.688   2.564   0.019 -0.8030  0.7471  0.2302
  291MOL0     N40071   8.173   2.964   0.021  0.7431 -0.0488 -1.1124
  291MOL0     N40072   8.057   2.987   0.074  0.1937 -1.0653  0.8150
  291MOL0     C40073   7.584   3.913   0.355 -0.2869  0.9547  1.0617
  291MOL0     C40074   7.552   4.009   0.252 -0.2090  0.9174  0.3350
  291MOL0     C40075   7.537   4.384  -0.018 -0.4759  0.2117  0.4792
  291MOL0     C40076   7.479   4.296  -0.120 -0.2126 -0.3698  0.1511
  291MOL0     C40077   7.433   4.342  -0.245  0.1088  0.6680 -0.4177
  291MOL0     C40078   7.454   4.481  -0.273 -0.6657 -0.6288  0.3116
  291MOL0     O40079   7.413   4.543  -0.388 -0.1163  0.1124 -0.3371
  291MOL0     C40080   7.363   4.468  -0.497  0.5357  0.0052 -0.1060
  291MOL0     C40081   7.324   4.559  -0.611  0.2549  0.2641 -0.2131
  291MOL0     C40082   7.182   4.618  -0.595  0.1304 -1.2200  0.4518
  291MOL0     C40083   7.187   4.759  -0.527 -0.3863 -0.3651  0.3224
  291MOL0     C40084   7.054   4.826  -0.517 -0.6568  0.2481  0.4720
  291MOL0     C40085   6.944   4.863  -0.507 -0.1902 -0.6452 -0.1377
  291MOL0     C40086   7.503   4.561  -0.171 -0.3020  0.0928  0.7304
  291MOL0     C40087   7.545   4.516  -0.051  0.5802 -1.3305  0.3897
  291MOL0     C40088   7.606   4.623   0.037  0.1915  0.3017 -0.4729
  291MOL0     H40089   7.615   4.298   0.411 -0.8340 -0.1246 -0.1592
  291MOL0     H40090   7.695   4.142   0.591  3.6679 -0.4658 -1.1253
  291MOL0     H40091   7.781   3.754   0.450  0.6578  0.0615  0.4788
  291MOL0     H40092   7.631   3.693   0.494  0.0863  0.3357  1.5247
  291MOL0     H40093   7.851   3.718   0.710 -3.7142 -0.5536  6.2454
  291MOL0     H40094   7.689   3.647   0.723  2.3405 -0.3752  3.5585
  291MOL0     H40095   7.855   3.475   0.697 -1.5410  0.2059  0.6571
  291MOL0     H40096   7.767   3.496   0.533  0.0017  0.4743 -0.7193
  291MOL0     H40097   7.966   3.651   0.462 -2.3794 -0.9639 -0.2678
  291MOL0     H40098   8.043   3.625   0.607  2.4204  0.3552 -0.8695
  291MOL0     H40099   8.067   3.381   0.572  0.7645 -1.1579 -2.1747
  291MOL0     H40100   8.136   3.501   0.455  1.3217 -1.7282 -0.9238
  291MOL0     H40101   7.878   3.332   0.420  1.0083 -1.7105 -0.5120
  291MOL0     H40102   7.958   3.438   0.305 -2.4543  0.9240  0.8801
  291MOL0     H40103   8.070   3.185   0.452  0.9391  1.2017  1.8372
  291MOL0     H40104   8.156   3.283   0.333 -0.0888 -0.2541 -0.1371
  291MOL0     H40105   7.902   3.107   0.274 -3.3928  3.2763 -1.8046
  291MOL0     H40106   7.944   3.232   0.177 -2.9299 -3.6677 -1.3569
  291MOL0     H40107   8.288   3.116   0.276  1.8747 -2.7382  0.5788
  291MOL0     H40108   8.441   3.089  -0.031  0.8131 -1.2194 -1.5230
  291MOL0     H40109   8.442   2.917  -0.003 -2.7369  0.3218  0.3709
  291MOL0     H40110   8.516   3.134   0.213 -0.1626  0.5895 -1.1192
  291MOL0     H40111   8.500   2.965   0.246  0.6187  0.4709  0.0265
  291MOL0     H40112   8.707   3.127   0.134 -3.0404  1.0686  1.7105
  291MOL0     H40113   8.718   3.000   0.244  1.4222  6.3089  1.5673
  291MOL0     H40114   8.667   2.951  -0.048  0.7088 -2.3935 -1.2636
  291MOL0     H40115   8.827   2.949   0.026 -0.7648  1.8109 -0.8558
  291MOL0     H40116   8.825   2.829  -0.151 -0.7496  0.5451 -2.3736
  291MOL0     H40117   8.749   2.672  -0.447  1.1785 -1.9262 -0.1928
  291MOL0     H40118   8.915   2.627  -0.417 -0.9413 -0.0723 -1.2367
  291MOL0     H40119   8.862   2.787  -0.370 -0.6674  1.1587 -1.1927
  291MOL0     H40120   8.946   2.179  -0.444 -0.9646  1.7240 -0.5906
  291MOL0     H40121   8.934   1.971  -0.558  0.5941  0.5582 -0.5100
  291MOL0     H40122   8.795   1.923  -0.742 -2.9432  1.9246  0.6947
  291MOL0     H40123   8.885   1.767  -0.699 -1.2605 -2.1213 -0.1031
  291MOL0     H40124   8.722   1.638  -0.764  1.3215 -0.3120 -0.8841
  291MOL0     H40125   8.642   1.784  -0.848 -1.9327  0.5107  3.1856
  291MOL0     H40126   8.928   1.718  -0.924  0.3719 -1.2376 -3.8445
  291MOL0     H40127   8.819   1.852  -0.971  0.8641  0.9634  1.3249
  291MOL0     H40128   8.670   1.669  -1.066 -1.4249  2.2678  3.7367
  291MOL0     H40129   8.793   1.548  -1.017  0.9906  0.7653 -1.6843
  291MOL0     H40130   8.859   1.795  -1.206  0.9712 -0.2624  0.3359
  291MOL0     H40131   8.970   1.670  -1.145  0.5288 -1.1022 -1.6439
  291MOL0     H40132   8.846   1.497  -1.261 -0.9482  0.0267  0.6951
  291MOL0     H40133   8.915   1.610  -1.379  0.6119 -3.7123 -0.1978
  291MOL0     H40134   8.706   1.730  -1.388  3.4072 -0.2952  0.0440
  291MOL0     H40135   8.633   1.589  -1.291 -0.4889  0.4606 -0.5962
  291MOL0     H40136   8.685   1.437  -1.463 -2.9524  1.0978  0.5590
  291MOL0     H40137   8.800   1.547  -1.550  0.7683 -3.1507  1.9179
  291MOL0     H40138   8.517   1.933  -0.454 -0.7038  2.5465 -0.5076
  291MOL0     H40139   8.542   2.136  -0.306  0.2891  2.3716 -2.3851
  291MOL0     H40140   8.705   2.357  -0.050  2.3646 -0.8003  0.5999
  291MOL0     H40141   8.644   2.543   0.116  2.1835 -2.4725  1.0935
  291MOL0     H40142   7.550   3.811   0.348  0.6338  0.5514  2.1349
  291MOL0     H40143   7.500   3.971   0.164 -2.1532  1.5619  1.1499
  291MOL0     H40144   7.494   4.192  -0.093  0.0835  0.3814  3.2247
  291MOL0     H40145   7.384   4.280  -0.320  1.8312  1.5784 -2.4170
  291MOL0     H40146   7.414   4.378  -0.534 -1.7169  0.0360 -3.7337
  291MOL0     H40147   7.267   4.427  -0.464 -0.3646  0.0911 -2.4432
  291MOL0     H40148   7.320   4.499  -0.702  1.7560 -2.8863  1.6462
  291MOL0     H40149   7.397   4.638  -0.631  2.2494 -1.6380 -0.8345
  291MOL0     H40150   7.144   4.625  -0.698  1.4916  0.5297  0.0204
  291MOL0     H40151   7.109   4.557  -0.542 -1.9426  0.0466 -0.7863
  291MOL0     H40152   7.243   4.831  -0.588 -2.9003  0.3218 -1.3318
  291MOL0     H40153   7.233   4.761  -0.428  2.3057  0.7796 -0.8374
  291MOL0     H40154   6.847   4.904  -0.493  1.1357  2.1465  1.6826
  291MOL0     H40155   7.494   4.668  -0.184  0.9366  0.0890 -0.3713
  291MOL0     H40156   7.557   4.716   0.007 -0.5711  0.4350  1.1322
  291MOL0     H40157   7.580   4.615   0.142 -1.2689  4.3758 -0.3551
  291MOL0     H40158   7.715   4.627   0.026  0.1049 -0.6068 -2.0241
  292MOL0     O40159   8.042   7.243   5.495 -0.4396  0.1662 -0.6196
  292MOL0     C40160   8.139   7.274   5.566 -0.4526 -0.2019  0.2500
  292MOL0     O40161   8.241   7.371   5.538 -0.0646  0.6396  0.0232
  292MOL0     C40162   8.224   7.442   5.424 -0.2865 -0.0544 -0.0241
  292MOL0     C40163   8.327   7.464   5.342  0.5753  0.0266  1.0184
  292MOL0     C40164   8.302   7.544   5.226 -0.1313 -0.6350 -0.1367
  292MOL0     C40165   8.179   7.592   5.196  0.9683 -0.3432  0.4411
  292MOL0     O40166   8.178   7.667   5.082  0.4340 -0.1842 -0.2942
  292MOL0     C40167   8.072   7.755   5.046  0.2521  0.1393 -0.3172
  292MOL0     C40168   7.988   7.682   4.937  0.8634 -0.3836  0.7798
  292MOL0     C40169   7.867   7.775   4.898 -0.9310  0.5255 -0.7727
  292MOL0     C40170   7.763   7.735   4.799 -0.4446  0.5492 -0.1535
  292MOL0     C40171   7.688   7.605   4.812  0.2854  0.4464  0.2887
  292MOL0     C40172   7.564   7.598   4.719  0.5079 -0.0388  0.2737
  292MOL0     C40173   7.469   7.474   4.731 -0.3433 -1.3132 -1.1155
  292MOL0     C40174   7.421   7.447   4.877  0.4044  0.5163 -0.0862
  292MOL0     N40175   7.322   7.343   4.877  0.3213  0.7103  0.6252
  292MOL0     C40176   7.340   7.200   4.875  0.0448 -0.4154 -1.0702
  292MOL0     C40177   7.213   7.151   4.849 -0.0010 -0.2364  0.9781
  292MOL0     C40178   7.187   6.999   4.836 -0.0229 -0.3550  0.3461
  292MOL0     C40179   7.188   6.932   4.976 -0.3668  1.0901  1.0782
  292MOL0     C40180   7.130   6.779   4.996  0.3858 -0.5410  0.2915
  292MOL0     C40181   7.016   6.742   4.897  0.0242  0.4129  0.6077
  292MOL0     O40182   7.052   6.716   4.759  0.7188  0.0257 -0.2310
  292MOL0     C40183   6.942   6.687   4.682  0.8628  0.2748 -0.3211
  292MOL0     C40184   6.852   6.779   4.627  0.1931  0.2860 -0.5539
  292MOL0     C40185   6.747   6.736   4.544 -0.0394  0.2957 -0.2150
  292MOL0     C40186   6.678   6.841   4.477 -1.1914  0.1553 -0.3920
  292MOL0     C40187   6.709   6.593   4.523  0.2852  0.1941 -0.4394
  292MOL0     C40188   6.594   6.541   4.457  0.3220 -0.8305 -1.0760
  292MOL0     O40189   6.491   6.628   4.417 -0.0719  0.5389 -0.2581
  292MOL0     C40190   6.384   6.583   4.346 -1.2620 -0.2967 -0.5249
  292MOL0     C40191   6.285   6.677   4.339  0.3314 -0.0126 -1.1549
  292MOL0     C40192   6.163   6.648   4.274 -0.6289 -1.0559 -0.7642
  292MOL0     C40193   6.152   6.526   4.203  0.1551 -0.0815 -0.1200
  292MOL0     O40194   6.046   6.513   4.123  0.2038 -0.6227 -0.7644
  292MOL0     C40195   6.038   6.405   4.031 -0.5077 -0.0922  0.5682
  292MOL0     C40196   5.896   6.419   3.968 -0.7599  0.0251  0.7894
  292MOL0     C40197   5.861   6.298   3.887 -0.3640  0.8197  0.2183
  292MOL0     C40198   5.714   6.315   3.834 -0.2524  0.6102  0.0670
  292MOL0     C40199   5.689   6.245   3.704  1.1909 -0.5058 -0.0087
  292MOL0     C40200   5.542   6.236   3.662 -0.3462  0.0250  0.3084
  292MOL0     C40201   5.492   6.165   3.526  0.1081  0.5013 -0.2664
  292MOL0     C40202   5.361   6.235   3.483  0.0749  0.3756 -0.5561
  292MOL0    Cl40203   5.395   6.407   3.457 -0.0479  0.0290  0.3078
  292MOL0     C40204   6.245   6.431   4.208 -0.8733  0.1014  1.4244
  292MOL0     C40205   6.364   6.456   4.283  0.1682 -0.2587  0.6194
  292MOL0     O40206   6.579   6.421   4.464 -0.8087  0.4881 -0.0884
  292MOL0     C40207   6.804   6.506   4.576  0.5650 -1.0693 -1.1150
  292MOL0     C40208   6.913   6.550   4.651  0.2339 -0.0149 -0.1993
  292MOL0     N40209   7.125   7.250   4.827 -0.9344 -0.5548  0.2943
  292MOL0     N40210   7.188   7.360   4.847  0.0221 -0.0028  0.0217
  292MOL0     C40211   8.078   7.568   5.279  0.3645 -0.0732  0.5137
  292MOL0     C40212   8.098   7.499   5.396  0.1548 -0.8094 -0.5611
  292MOL0     C40213   8.162   7.189   5.688 -0.2621 -0.3107 -0.9358
  292MOL0     C40214   8.292   7.191   5.744 -0.0610 -0.3268  0.6205
  292MOL0     C40215   8.322   7.147   5.872  0.3297  0.2873 -0.4188
  292MOL0     C40216   8.225   7.092   5.957  0.7202 -0.5411  0.0795
  292MOL0     O40217   8.268   7.047   6.078  0.7138  0.6543 -0.2156
  292MOL0     C40218   8.177   6.976   6.158 -1.0058  0.1080  0.0086
  292MOL0     C40219   8.259   6.875   6.239  0.3916  0.2130 -0.1931
  292MOL0     C40220   8.187   6.745   6.284 -0.7263  0.3541  0.7592
  292MOL0     C40221   8.296   6.657   6.346  0.4488 -0.5651 -0.4990
  292MOL0     C40222   8.262   6.525   6.317 -0.1649 -0.2365  0.4101
  292MOL0     C40223   8.239   6.405   6.299 -0.3429 -0.9573  0.7089
  292MOL0     C40224   8.096   7.098   5.902 -0.6904  0.0426 -0.4723
  292MOL0     C40225   8.064   7.133   5.771  0.4607 -0.2203  0.2992
  292MOL0     C40226   7.918   7.101   5.730  0.3708  0.5907 -0.6491
  292MOL0     H40227   8.431   7.455   5.370  0.9800  5.3397  2.2724
  292MOL0     H40228   8.391   7.566   5.168  1.2754 -1.6294  1.5072
  292MOL0     H40229   8.107   7.848   5.001  0.6070  1.5657  2.6499
  292MOL0     H40230   8.007   7.784   5.129  0.4316 -0.7090  0.1297
  292MOL0     H40231   8.044   7.655   4.847 -1.4457  3.2034 -2.0533
  292MOL0     H40232   7.942   7.603   4.997 -1.0370  1.1438  1.4439
  292MOL0     H40233   7.817   7.797   4.992 -1.2498 -1.1744 -0.5220
  292MOL0     H40234   7.895   7.872   4.855 -1.4811  0.7994 -0.5230
  292MOL0     H40235   7.679   7.805   4.795  0.7112  1.9581 -1.2020
  292MOL0     H40236   7.818   7.745   4.704  0.9194  1.2457  0.6746
  292MOL0     H40237   7.653   7.591   4.915  1.8902  1.5007  1.0200
  292MOL0     H40238   7.755   7.520   4.798  0.3279  0.4918  0.2150
  292MOL0     H40239   7.506   7.689   4.739 -1.2832 -1.2807  0.8816
  292MOL0     H40240   7.608   7.591   4.619 -1.2740 -1.1229 -0.4675
  292MOL0     H40241   7.523   7.387   4.693 -0.4025 -1.2759 -1.2843
  292MOL0     H40242   7.384   7.481   4.663 -1.3216 -3.7700 -0.2620
  292MOL0     H40243   7.513   7.422   4.931 -0.1341 -0.6857  0.3099
  292MOL0     H40244   7.385   7.543   4.915 -0.8410 -0.3916  1.1467
  292MOL0     H40245   7.434   7.145   4.876  1.3984  1.7468  0.9232
  292MOL0     H40246   7.255   6.950   4.765 -4.3168 -1.8549 -3.2016
  292MOL0     H40247   7.083   6.993   4.803 -0.0928 -4.6982  0.8488
  292MOL0     H40248   7.290   6.938   5.014  0.9747 -1.7403 -1.6804
  292MOL0     H40249   7.115   6.995   5.028  0.8194  2.2875  1.3469
  292MOL0     H40250   7.210   6.707   4.977 -0.5374 -0.6757 -4.0215
  292MOL0     H40251   7.085   6.775   5.096  1.0745 -0.3596  0.6165
  292MOL0     H40252   6.969   6.649   4.930  0.1252 -0.1212 -0.6891
  292MOL0     H40253   6.931   6.807   4.923 -1.9484 -3.3759  5.0237
  292MOL0     H40254   6.877   6.880   4.655  0.2503 -0.5246  2.7273
  292MOL0     H40255   6.738   6.932   4.480  0.1058 -0.6395  2.5619
  292MOL0     H40256   6.581   6.863   4.522 -1.8744 -0.3989 -1.5445
  292MOL0     H40257   6.672   6.810   4.373 -1.3503  1.3789 -0.7563
  292MOL0     H40258   6.294   6.779   4.376 -0.2550 -0.1183 -0.7100
  292MOL0     H40259   6.092   6.730   4.264 -0.3951 -0.8034 -0.3854
  292MOL0     H40260   6.117   6.415   3.956  1.8919 -0.8044  2.8750
  292MOL0     H40261   6.038   6.299   4.057  2.0743 -0.1745  0.4716
  292MOL0     H40262   5.824   6.424   4.050  1.5401  1.0223  2.8645
  292MOL0     H40263   5.908   6.510   3.908  0.4525  1.8572  3.6311
  292MOL0     H40264   5.854   6.216   3.959 -1.8123 -0.0052 -0.8052
  292MOL0     H40265   5.937   6.272   3.813 -0.3715 -0.6802  0.7114
  292MOL0     H40266   5.685   6.419   3.814 -0.7356  0.6068  0.7348
  292MOL0     H40267   5.645   6.280   3.911 -1.4862  0.2571 -1.1450
  292MOL0     H40268   5.748   6.293   3.626 -0.3372  3.2474  0.9202
  292MOL0     H40269   5.721   6.141   3.709 -0.6646 -1.0699  0.8432
  292MOL0     H40270   5.504   6.338   3.674  4.1386  2.0594 -0.6895
  292MOL0     H40271   5.495   6.178   3.742 -2.7311  4.2625  2.3532
  292MOL0     H40272   5.476   6.060   3.548  2.4174 -0.0633 -1.0852
  292MOL0     H40273   5.576   6.168   3.456 -0.8624 -1.8584 -1.6668
  292MOL0     H40274   5.279   6.215   3.554  1.8467  0.3715  1.6028
  292MOL0     H40275   5.320   6.189   3.393 -0.2258 -2.9264  1.1282
  292MOL0     H40276   6.240   6.337   4.154 -0.4264  0.0658  1.4367
  292MOL0     H40277   6.449   6.390   4.267  1.2481  1.3129 -0.3695
  292MOL0     H40278   6.788   6.399   4.577 -1.5195 -0.8017  0.0167
  292MOL0     H40279   6.985   6.478   4.687  0.2378  0.8716  1.6623
  292MOL0     H40280   7.980   7.605   5.251 -0.3515 -1.4122  1.1442
  292MOL0     H40281   8.011   7.486   5.460 -0.2928  0.5778 -0.8513
  292MOL0     H40282   8.374   7.236   5.688 -1.0656 -1.0175 -1.5338
  292MOL0     H40283   8.425   7.150   5.906  0.5550 -0.7723 -0.9635
  292MOL0     H40284   8.123   7.032   6.234 -0.9332 -1.4486  1.2666
  292MOL0     H40285   8.108   6.922   6.093 -0.6860 -1.1170  0.6522
  292MOL0     H40286   8.296   6.930   6.326  0.1177 -1.4159  0.9972
  292MOL0     H40287   8.344   6.844   6.176  0.9593  0.5484  0.3945
  292MOL0     H40288   8.104   6.761   6.353 -0.4213 -0.0250  1.2222
  292MOL0     H40289   8.130   6.697   6.204 -0.8503  0.3738  0.8357
  292MOL0     H40290   8.286   6.655   6.455  0.4759 -2.1250 -0.5030
  292MOL0     H40291   8.400   6.681   6.322  0.5143 -0.0795  0.2200
  292MOL0     H40292   8.212   6.303   6.280 -2.2996 -0.6703  1.6984
  292MOL0     H40293   8.024   7.058   5.973  2.5877 -1.8551  2.1090
  292MOL0     H40294   7.870   7.058   5.818 -1.0989 -0.0917 -1.7440
  292MOL0     H40295   7.867   7.192   5.697 -1.3105  0.9876  2.6339
  292MOL0     H40296   7.910   7.019   5.659 -0.9528 -1.1070  1.3417
  293MOL0     O40297   0.968   8.303  10.446  0.4775 -0.3303  0.2732
  293MOL0     C40298   0.944   8.406  10.498  0.4114  0.1972  0.6583
  293MOL0     O40299   0.863   8.501  10.448  0.4061 -0.0097 -0.1873
  293MOL0     C40300   0.808   8.489  10.322  0.5653 -0.0227  0.4914
  293MOL0     C40301   0.890   8.467  10.215  0.0073 -0.3283 -0.1359
  293MOL0     C40302   0.843   8.485  10.085  0.4122 -0.1092  0.3299
  293MOL0     C40303   0.708   8.527  10.061 -0.0644 -0.0890 -0.6055
  293MOL0     O40304   0.656   8.548   9.933  0.6768  0.5791 -0.5692
  293MOL0     C40305   0.629   8.424   9.861  1.5595  0.0354 -0.3191
  293MOL0     C40306   0.602   8.451   9.717 -0.8781 -0.1866  0.5823
  293MOL0     C40307   0.556   8.330   9.633 -0.6865  0.1702  0.1731
  293MOL0     C40308   0.524   8.367   9.486  0.0442 -0.2182 -0.2197
  293MOL0     C40309   0.490   8.248   9.396 -0.8618  0.3097 -0.6761
  293MOL0     C40310   0.355   8.179   9.440 -0.3317 -0.0806 -0.2968
  293MOL0     C40311   0.332   8.072   9.321 -0.0878 -0.3098 -0.1389
  293MOL0     C40312   0.437   7.962   9.312 -0.2741 -0.9513 -0.4565
  293MOL0     N40313   0.456   7.893   9.442  0.1849  0.6751 -0.1208
  293MOL0     C40314   0.361   7.810   9.493  0.9730 -0.3170 -0.2539
  293MOL0     C40315   0.402   7.787   9.626  1.3082  0.6215  1.8427
  293MOL0     C40316   0.306   7.707   9.709 -0.4614 -0.4320  0.6172
  293MOL0     C40317   0.191   7.782   9.778 -0.1965  0.0145  0.3840
  293MOL0     C40318   0.144   7.729   9.914 -0.2636  0.3142  0.4332
  293MOL0     C40319   0.078   7.592   9.902  0.0431 -1.0153 -0.0447
  293MOL0     O40320  -0.038   7.605   9.820  0.5762 -1.2420  0.2428
  293MOL0     C40321  -0.120   7.495   9.802 -0.0929 -0.1101  0.8715
  293MOL0     C40322  -0.113   7.376   9.882 -0.5687 -0.1268  0.4015
  293MOL0     C40323  -0.205   7.275   9.861 -0.4681 -0.2899 -0.2547
  293MOL0     C40324  -0.211   7.160   9.949  0.8369  0.1518 -0.0706
  293MOL0     C40325  -0.294   7.290   9.747 -0.9037  0.5794 -0.1966
  293MOL0     C40326  -0.389   7.180   9.706 -0.9080 -0.2247  0.6625
  293MOL0     O40327  -0.482   7.145   9.790  0.2675 -0.4777  0.0976
  293MOL0     C40328  -0.544   7.019   9.787  0.2706  0.4085  0.1495
  293MOL0     C40329  -0.668   7.012   9.718 -0.1287 -0.2653 -0.5990
  293MOL0     C40330  -0.725   6.887   9.703 -0.7475  0.5242  0.2853
  293MOL0     C40331  -0.659   6.776   9.758  0.1889 -0.4017 -0.0562
  293MOL0     O40332  -0.713   6.658   9.740 -0.1825  0.6045  0.4932
  293MOL0     C40333  -0.810   6.601   9.836 -0.6824 -0.6850  1.0623
  293MOL0     C40334  -0.738   6.563   9.964  0.6384 -0.4248 -0.5478
  293MOL0     C40335  -0.814   6.450  10.041 -0.7007 -0.5152  0.3971
  293MOL0     C40336  -0.742   6.366  10.154  0.2850 -0.1375 -0.9079
  293MOL0     C40337  -0.782   6.411  10.294 -0.3765 -0.1518  0.0244
  293MOL0     C40338  -0.725   6.326  10.415 -0.0570 -0.0251 -0.1640
  293MOL0     C40339  -0.788   6.381  10.541 -0.4200  0.9902 -0.8602
  293MOL0     C40340  -0.740   6.528  10.576 -0.0619 -1.9087 -0.8166
  293MOL0    Cl40341  -0.762   6.533  10.750 -0.1367  0.2100  0.2757
  293MOL0     C40342  -0.538   6.788   9.828 -0.0941  1.0796  0.5091
  293MOL0     C40343  -0.484   6.910   9.838  0.0310  0.8511  0.4028
  293MOL0     O40344  -0.376   7.135   9.593  0.8736 -0.1839 -0.2946
  293MOL0     C40345  -0.296   7.401   9.666  0.2067 -0.1631 -0.2540
  293MOL0     C40346  -0.218   7.509   9.701 -1.0470 -0.0064 -0.4176
  293MOL0     N40347   0.527   7.837   9.636 -0.2327 -0.2805  0.3135
  293MOL0     N40348   0.557   7.902   9.525 -0.1232 -0.0892 -0.5722
  293MOL0     C40349   0.632   8.555  10.171 -0.0076  0.2763 -0.2538
  293MOL0     C40350   0.682   8.540  10.295  0.8674 -0.2966  0.5362
  293MOL0     C40351   0.986   8.413  10.644  0.3360  0.4574  0.5429
  293MOL0     C40352   0.977   8.291  10.722  0.1700 -0.6845  0.6489
  293MOL0     C40353   1.008   8.288  10.858  0.0581 -0.7541 -0.7659
  293MOL0     C40354   1.047   8.407  10.918 -0.3168 -0.3647  0.5519
  293MOL0     O40355   1.075   8.416  11.051 -0.1712 -0.4946 -0.5385
  293MOL0     C40356   0.973   8.382  11.147 -0.4317  0.9061  0.3319
  293MOL0     C40357   1.004   8.244  11.217  0.1661  0.2125  0.2402
  293MOL0     C40358   0.948   8.246  11.355  0.4873 -0.7624  0.9670
  293MOL0     C40359   0.942   8.102  11.403 -0.2813 -0.1993  0.1167
  293MOL0     C40360   0.912   8.099  11.553 -0.7427 -0.6625 -0.8940
  293MOL0     C40361   0.941   8.066  11.666  1.6429 -0.5313  0.0296
  293MOL0     C40362   1.071   8.518  10.839 -1.2638  0.5145  0.2578
  293MOL0     C40363   1.035   8.526  10.703  0.4559 -0.4289 -0.3831
  293MOL0     C40364   1.065   8.641  10.615  0.2819 -0.4964 -0.2423
  293MOL0     H40365   0.996   8.444  10.207 -0.0043 -0.8796  1.1029
  293MOL0     H40366   0.906   8.500   9.998 -2.0170 -1.5799 -1.8454
  293MOL0     H40367   0.545   8.377   9.912  1.0859  0.8003 -0.3849
  293MOL0     H40368   0.715   8.356   9.870  1.1939 -0.5188 -0.9607
  293MOL0     H40369   0.527   8.531   9.714  0.7833  1.4609  1.2747
  293MOL0     H40370   0.695   8.493   9.677 -0.0882 -0.3487  2.1873
  293MOL0     H40371   0.637   8.258   9.644 -2.7238 -1.9402  3.3311
  293MOL0     H40372   0.466   8.285   9.677 -1.9758  1.5011 -1.0236
  293MOL0     H40373   0.436   8.433   9.492 -0.7058 -1.3040  1.6026
  293MOL0     H40374   0.610   8.416   9.442  0.7217 -2.1154 -1.1136
  293MOL0     H40375   0.580   8.186   9.394  0.1239  1.0884  4.5466
  293MOL0     H40376   0.471   8.283   9.294  0.7781  1.8498 -0.5098
  293MOL0     H40377   0.344   8.134   9.539 -0.1771 -3.0345 -1.5050
  293MOL0     H40378   0.284   8.261   9.446  1.9205  1.9617  0.0550
  293MOL0     H40379   0.335   8.119   9.222  0.8432  2.3310  1.0523
  293MOL0     H40380   0.246   8.012   9.351  0.7688 -0.5806  1.9793
  293MOL0     H40381   0.399   7.893   9.237 -2.3685  0.5366 -0.8483
  293MOL0     H40382   0.533   7.994   9.270  0.3211 -0.7662  0.9821
  293MOL0     H40383   0.267   7.776   9.451  0.7527  0.6215 -0.5450
  293MOL0     H40384   0.372   7.666   9.786  1.7607  2.4118  0.4152
  293MOL0     H40385   0.260   7.625   9.653 -0.8726  2.1611 -3.2390
  293MOL0     H40386   0.232   7.883   9.788  0.8004  0.0215 -2.8173
  293MOL0     H40387   0.104   7.792   9.712  0.3803 -1.8439 -0.7196
  293MOL0     H40388   0.220   7.722   9.992 -2.5205 -2.0697  2.6154
  293MOL0     H40389   0.065   7.801   9.940 -1.6016 -1.5512  1.7799
  293MOL0     H40390   0.143   7.508   9.877  4.4221  2.1253 -0.2450
  293MOL0     H40391   0.045   7.576  10.005 -0.5745 -2.9129 -0.5104
  293MOL0     H40392  -0.036   7.375   9.958  1.9266 -1.3016 -1.9728
  293MOL0     H40393  -0.127   7.160  10.019  1.6438  0.2471 -1.0193
  293MOL0     H40394  -0.199   7.069   9.889 -0.3961  0.9714 -1.6580
  293MOL0     H40395  -0.304   7.167  10.005  0.0475  0.8407 -1.4112
  293MOL0     H40396  -0.716   7.096   9.669  4.8769  1.8927 -2.5306
  293MOL0     H40397  -0.817   6.867   9.648  0.7720 -1.0898 -1.8476
  293MOL0     H40398  -0.904   6.653   9.859  0.1785 -0.0986  3.5818
  293MOL0     H40399  -0.847   6.507   9.795 -3.0166  0.6015  0.0367
  293MOL0     H40400  -0.638   6.535   9.930  0.8741 -0.6633  0.3105
  293MOL0     H40401  -0.724   6.646  10.034  1.0594 -0.2280 -0.8647
  293MOL0     H40402  -0.828   6.379   9.959 -0.7786  1.4253 -1.3513
  293MOL0     H40403  -0.912   6.491  10.066 -1.6165 -2.8966  0.9455
  293MOL0     H40404  -0.634   6.355  10.141  0.2944 -5.2614  1.3049
  293MOL0     H40405  -0.796   6.271  10.154  0.2565 -0.2270 -4.1916
  293MOL0     H40406  -0.774   6.518  10.311  0.8330 -0.3532  0.8860
  293MOL0     H40407  -0.891   6.406  10.290 -0.3339 -2.6001 -3.7118
  293MOL0     H40408  -0.617   6.340  10.421 -0.1157  0.0762  0.7036
  293MOL0     H40409  -0.753   6.221  10.399  3.3514 -1.3395  1.5251
  293MOL0     H40410  -0.773   6.307  10.620 -2.1463 -1.7259 -2.9080
  293MOL0     H40411  -0.897   6.390  10.534 -0.7116 -2.0311 -1.4042
  293MOL0     H40412  -0.808   6.605  10.538 -0.2070 -0.0352  2.7933
  293MOL0     H40413  -0.635   6.550  10.553  0.0280  0.2359  1.2504
  293MOL0     H40414  -0.485   6.703   9.869  0.9199  0.0651 -2.6446
  293MOL0     H40415  -0.396   6.923   9.899 -1.0218  2.2137  1.6910
  293MOL0     H40416  -0.361   7.403   9.580  0.9730  0.1901 -0.8332
  293MOL0     H40417  -0.231   7.607   9.657  2.8780 -0.4416 -3.0533
  293MOL0     H40418   0.532   8.597  10.169 -1.6764 -3.1715  1.5274
  293MOL0     H40419   0.617   8.562  10.378  2.0027  1.4566  0.9979
  293MOL0     H40420   0.938   8.199  10.682 -5.0882  0.8953  1.4559
  293MOL0     H40421   0.986   8.206  10.926 -0.3783  0.4355  0.5755
  293MOL0     H40422   0.976   8.461  11.223  3.7083  0.1178  1.2136
  293MOL0     H40423   0.876   8.384  11.098 -0.5329  2.3142  0.5663
  293MOL0     H40424   1.113   8.242  11.220  0.3107  1.8820 -1.5634
  293MOL0     H40425   0.955   8.164  11.160  0.5226 -0.5316  0.9650
  293MOL0     H40426   1.011   8.312  11.415 -0.5785  2.1029 -0.8744
  293MOL0     H40427   0.846   8.285  11.351 -1.1176 -3.9842  4.2541
  293MOL0     H40428   1.042   8.062  11.383  0.1562  0.8120  0.2012
  293MOL0     H40429   0.875   8.042  11.341 -0.6705  1.3093 -0.9704
  293MOL0     H40430   0.968   8.028  11.763 -0.1456 -1.7584  0.0857
  293MOL0     H40431   1.129   8.600  10.882  3.2143 -2.8227  1.3215
  293MOL0     H40432   1.116   8.603  10.526 -0.2532  0.9442 -1.1957
  293MOL0     H40433   0.975   8.693  10.581 -1.9152 -0.7833  4.3388
  293MOL0     H40434   1.117   8.715  10.677 -2.8663  1.5700  0.1354
  294MOL0     O40435   5.222   6.303  10.727 -0.2534 -0.0551  0.4231
  294MOL0     C40436   5.243   6.421  10.678  0.7915  0.5721  0.5083
  294MOL0     O40437   5.145   6.509  10.633  0.2194  0.0353  0.3333
  294MOL0     C40438   5.029   6.491  10.701  0.5336 -0.2161 -0.0822
  294MOL0     C40439   5.006   6.562  10.822 -0.1954 -0.2368  0.9945
  294MOL0     C40440   4.889   6.546  10.886  0.2535 -0.5780  0.2475
  294MOL0     C40441   4.788   6.466  10.834 -1.0864  0.6498  0.1834
  294MOL0     O40442   4.659   6.460  10.889 -0.3873 -1.0312 -0.6952
  294MOL0     C40443   4.630   6.546  11.004  0.1935 -0.2935  1.5705
  294MOL0     C40444   4.681   6.509  11.144 -0.2858 -0.0795  0.0721
  294MOL0     C40445   4.640   6.370  11.194 -0.6574 -0.3978 -0.4967
  294MOL0     C40446   4.498   6.360  11.251 -0.4363  0.3164  0.8819
  294MOL0     C40447   4.479   6.227  11.328  0.3495  0.6843  0.8039
  294MOL0     C40448   4.338   6.210  11.388  0.4064  0.6786  0.8050
  294MOL0     C40449   4.319   6.306  11.507 -0.6215  0.0337 -0.3961
  294MOL0     C40450   4.189   6.279  11.584 -0.4833 -0.1654  1.4937
  294MOL0     N40451   4.207   6.162  11.675 -0.4661  0.1897 -0.7347
  294MOL0     C40452   4.166   6.031  11.652 -0.0455 -0.5318 -0.5595
  294MOL0     C40453   4.174   5.973  11.772 -0.2594 -0.8010  0.9514
  294MOL0     C40454   4.140   5.822  11.770 -0.0125  0.3933  0.0094
  294MOL0     C40455   4.141   5.750  11.911  0.0681 -0.0234 -0.6391
  294MOL0     C40456   4.286   5.709  11.946  0.1583 -0.1782  0.0182
  294MOL0     C40457   4.296   5.676  12.105 -0.0933 -0.4014  0.2131
  294MOL0     O40458   4.437   5.631  12.122 -0.0968 -0.2000  0.4270
  294MOL0     C40459   4.492   5.612  12.249 -0.8169  1.2616  0.7469
  294MOL0     C40460   4.412   5.636  12.360 -0.7363 -0.2919  0.6082
  294MOL0     C40461   4.479   5.641  12.491  0.1395 -0.6641  0.2125
  294MOL0     C40462   4.394   5.678  12.614  0.1885  0.2433 -0.0855
  294MOL0     C40463   4.617   5.608  12.499 -0.7978 -0.7253 -0.6563
  294MOL0     C40464   4.699   5.594  12.623 -0.3885  0.5609 -0.0965
  294MOL0     O40465   4.680   5.675  12.717 -0.3921 -0.5227  0.7040
  294MOL0     C40466   4.751   5.699  12.830 -0.1128 -0.8027 -0.7854
  294MOL0     C40467   4.867   5.631  12.879 -0.4369 -0.3517  0.3483
  294MOL0     C40468   4.933   5.666  12.999 -0.2872 -0.0595 -1.0867
  294MOL0     C40469   4.878   5.776  13.078  0.0940 -0.2522  0.1868
  294MOL0     O40470   4.934   5.820  13.190  0.0471 -0.0588 -0.1353
  294MOL0     C40471   5.010   5.725  13.273  0.4116  0.0264  0.4818
  294MOL0     C40472   4.916   5.643  13.354 -1.3415  1.0175 -0.6747
  294MOL0     C40473   4.993   5.554  13.455 -0.2446 -0.1380  0.2974
  294MOL0     C40474   4.992   5.630  13.586 -0.0754  0.2685  0.0959
  294MOL0     C40475   5.065   5.555  13.700 -0.4990  0.2490 -0.1074
  294MOL0     C40476   5.004   5.580  13.839 -0.3908  0.3149  0.7962
  294MOL0     C40477   5.037   5.722  13.884 -0.7141 -0.1645 -0.5967
  294MOL0     C40478   4.988   5.730  14.033 -0.3756  1.2088  0.5595
  294MOL0    Cl40479   4.989   5.892  14.112  0.4581 -0.0043 -0.0756
  294MOL0     C40480   4.766   5.847  13.027 -0.2624 -0.7121  0.5156
  294MOL0     C40481   4.702   5.807  12.909 -0.4226 -0.4106 -0.5733
  294MOL0     O40482   4.787   5.510  12.619  1.0594 -0.0876 -0.5343
  294MOL0     C40483   4.688   5.576  12.386  0.8849  0.3402  0.1213
  294MOL0     C40484   4.623   5.578  12.258  0.4765 -0.4827  0.4030
  294MOL0     N40485   4.230   6.067  11.860  0.5370  0.4505  0.5528
  294MOL0     N40486   4.247   6.180  11.806  0.1799  0.3589  1.5648
  294MOL0     C40487   4.812   6.391  10.722 -0.1704 -0.5399 -0.6302
  294MOL0     C40488   4.932   6.408  10.654 -0.3257  0.6072 -0.7787
  294MOL0     C40489   5.381   6.460  10.657  0.3772 -0.4853  0.1511
  294MOL0     C40490   5.474   6.358  10.631  0.0889  0.0948  1.3102
  294MOL0     C40491   5.606   6.401  10.605  0.1333 -0.1568  0.4005
  294MOL0     C40492   5.636   6.533  10.585 -0.8451  0.8128 -0.6043
  294MOL0     O40493   5.761   6.571  10.538  1.1396 -0.3000 -0.0694
  294MOL0     C40494   5.827   6.484  10.443 -1.3274  0.1495  0.7299
  294MOL0     C40495   5.935   6.403  10.521  0.5037  0.4181  1.2336
  294MOL0     C40496   6.029   6.504  10.587  0.0983  0.6664 -0.3303
  294MOL0     C40497   6.163   6.449  10.608 -0.3735  0.3892  0.3572
  294MOL0     C40498   6.224   6.392  10.489 -0.0343  1.0115  1.0870
  294MOL0     C40499   6.294   6.343  10.398 -0.1004  0.9019  0.9734
  294MOL0     C40500   5.549   6.633  10.615 -0.8455 -0.3000  0.0644
  294MOL0     C40501   5.425   6.596  10.663  0.2129  0.2220  0.5827
  294MOL0     C40502   5.343   6.713  10.716 -0.6234 -0.6094 -0.0621
  294MOL0     H40503   5.080   6.628  10.865  1.1708 -1.4932  0.6851
  294MOL0     H40504   4.888   6.603  10.978  0.7277  0.6560 -0.4909
  294MOL0     H40505   4.521   6.537  11.003  0.0868 -0.3731 -2.7104
  294MOL0     H40506   4.650   6.650  10.977 -1.9410 -1.1442 -4.7814
  294MOL0     H40507   4.789   6.528  11.138 -0.4187  0.3700 -1.0620
  294MOL0     H40508   4.633   6.574  11.218 -1.4803 -0.9151  0.0584
  294MOL0     H40509   4.652   6.304  11.108  2.1176  0.9514 -1.2797
  294MOL0     H40510   4.709   6.338  11.273 -0.5072  1.1749  0.0438
  294MOL0     H40511   4.486   6.444  11.320 -0.1846  1.0209  0.0730
  294MOL0     H40512   4.424   6.364  11.170  0.0366 -0.5357  0.4007
  294MOL0     H40513   4.546   6.218  11.414 -2.9913  0.7083  3.6266
  294MOL0     H40514   4.491   6.146  11.256 -2.6040  2.3772 -1.8610
  294MOL0     H40515   4.270   6.238  11.307  1.4307  3.1397  0.6913
  294MOL0     H40516   4.326   6.103  11.406  2.4934  0.5123  1.5310
  294MOL0     H40517   4.325   6.413  11.482 -3.6747  0.2619 -0.5309
  294MOL0     H40518   4.405   6.290  11.572 -0.9949 -0.7619 -0.0810
  294MOL0     H40519   4.158   6.364  11.646  0.3551  0.6769  0.7746
  294MOL0     H40520   4.119   6.247  11.507  1.5763  0.4286 -0.7338
  294MOL0     H40521   4.124   5.987  11.562 -2.9897  3.1157 -1.2026
  294MOL0     H40522   4.199   5.762  11.700  3.5881  0.5634  2.6154
  294MOL0     H40523   4.038   5.815  11.732 -0.2723 -0.2958  0.7913
  294MOL0     H40524   4.087   5.822  11.974  2.5724  0.5291  1.0114
  294MOL0     H40525   4.076   5.662  11.923  0.6524 -0.2735  1.0043
  294MOL0     H40526   4.299   5.612  11.898  0.4809  0.6649 -1.6897
  294MOL0     H40527   4.357   5.791  11.930  0.2615  0.4552  3.0418
  294MOL0     H40528   4.267   5.763  12.164  2.0461  0.0723  0.6367
  294MOL0     H40529   4.222   5.606  12.144  1.5525 -1.3818  1.7054
  294MOL0     H40530   4.305   5.648  12.346 -0.3245  1.0292 -2.2319
  294MOL0     H40531   4.292   5.668  12.574 -1.1192  1.4074  2.6940
  294MOL0     H40532   4.413   5.777  12.656  1.6213 -1.0206  2.4034
  294MOL0     H40533   4.413   5.609  12.696  1.6461 -0.7536 -1.2181
  294MOL0     H40534   4.887   5.544  12.817 -3.8576  0.2466 -1.8727
  294MOL0     H40535   5.023   5.607  13.016 -1.1436 -1.3691 -0.9570
  294MOL0     H40536   5.074   5.661  13.211  0.3721  1.6974 -1.4139
  294MOL0     H40537   5.069   5.780  13.347  0.1573  0.3264  0.4641
  294MOL0     H40538   4.847   5.702  13.413 -2.6069  0.7937 -1.8690
  294MOL0     H40539   4.870   5.572  13.284 -2.2101  0.8173  0.0950
  294MOL0     H40540   5.091   5.548  13.409 -1.4496  1.0645 -2.6563
  294MOL0     H40541   4.952   5.454  13.471  1.4108 -0.7863  0.6662
  294MOL0     H40542   4.888   5.617  13.616  0.4984 -1.6459  1.4954
  294MOL0     H40543   5.019   5.734  13.568 -0.9104  0.2927 -1.1804
  294MOL0     H40544   5.059   5.446  13.696  0.0185  0.0465  2.9130
  294MOL0     H40545   5.171   5.579  13.694 -0.6728  0.8114 -1.1346
  294MOL0     H40546   5.059   5.513  13.906  0.4887 -1.7873 -1.8465
  294MOL0     H40547   4.898   5.556  13.841  0.0517 -2.5687 -2.2159
  294MOL0     H40548   4.993   5.807  13.830 -1.9197  0.2895  1.0171
  294MOL0     H40549   5.143   5.748  13.891 -0.7430  0.6213 -2.4055
  294MOL0     H40550   5.053   5.655  14.081  1.5160 -1.2153 -4.9651
  294MOL0     H40551   4.887   5.689  14.040 -1.4765  2.8537 -3.2773
  294MOL0     H40552   4.724   5.934  13.077 -1.2715 -1.9056  1.8407
  294MOL0     H40553   4.612   5.863  12.883 -1.3786 -1.1155  1.0487
  294MOL0     H40554   4.793   5.550  12.381  1.0622  1.3046 -1.9880
  294MOL0     H40555   4.673   5.564  12.163 -1.8773  2.3369 -1.3971
  294MOL0     H40556   4.739   6.313  10.701 -0.2446 -0.4414 -0.7433
  294MOL0     H40557   4.957   6.343  10.570  0.1444  0.8442 -0.8194
  294MOL0     H40558   5.450   6.253  10.622  2.1886 -0.2906 -0.6613
  294MOL0     H40559   5.678   6.323  10.587 -0.6884 -1.2065  1.5158
  294MOL0     H40560   5.760   6.433  10.374 -0.8432  1.4357 -0.7626
  294MOL0     H40561   5.876   6.559  10.379 -2.8014  1.3501  0.9420
  294MOL0     H40562   5.976   6.352  10.434  1.3688  3.9196 -0.5828
  294MOL0     H40563   5.894   6.324  10.586 -2.9973  0.7930 -0.2807
  294MOL0     H40564   6.042   6.591  10.522  0.4669  0.9286  0.0968
  294MOL0     H40565   5.998   6.538  10.686 -1.2499  3.0249 -1.4978
  294MOL0     H40566   6.156   6.377  10.690 -0.9978 -1.5617 -1.3018
  294MOL0     H40567   6.234   6.530  10.627  0.0418  0.0958  0.0630
  294MOL0     H40568   6.376   6.298  10.345  1.1682 -1.6717  4.6998
  294MOL0     H40569   5.579   6.733  10.587 -1.8971 -0.6442 -2.6727
  294MOL0     H40570   5.286   6.675  10.801 -0.3266 -2.7293 -0.7580
  294MOL0     H40571   5.405   6.794  10.755 -2.4675  0.8308 -0.0075
  294MOL0     H40572   5.280   6.752  10.635  2.6599  2.1628 -1.5195
  295MOL0     O40573   6.709   9.063   6.581  0.5380 -0.7970  0.1994
  295MOL0     C40574   6.616   8.992   6.622  0.4034  0.7165  0.4337
  295MOL0     O40575   6.497   9.035   6.658  0.5597  0.0753 -0.1157
  295MOL0     C40576   6.468   9.164   6.617  0.5529  1.3189  0.0812
  295MOL0     C40577   6.465   9.199   6.475  0.4318  1.1230 -0.6363
  295MOL0     C40578   6.411   9.327   6.449  1.0540  0.6223  0.0043
  295MOL0     C40579   6.373   9.420   6.549 -0.3859  0.7972 -0.0878
  295MOL0     O40580   6.331   9.536   6.497 -0.0051 -0.6139  0.9141
  295MOL0     C40581   6.222   9.611   6.551 -0.8522  0.4869 -0.5572
  295MOL0     C40582   6.146   9.669   6.430 -0.3667  0.7391 -0.3778
  295MOL0     C40583   6.045   9.567   6.393 -0.7150  0.6169 -0.5815
  295MOL0     C40584   5.973   9.614   6.273  1.0050  0.5970  0.1137
  295MOL0     C40585   5.863   9.511   6.237 -0.0913  1.0716  0.7882
  295MOL0     C40586   5.930   9.385   6.180 -1.0027 -0.2291 -0.2839
  295MOL0     C40587   5.823   9.302   6.106  0.1093 -0.9137 -0.8150
  295MOL0     C40588   5.837   9.160   6.164  0.4539  0.7464 -0.7940
  295MOL0     N40589   5.742   9.054   6.132 -0.2160 -0.2335  0.2073
  295MOL0     C40590   5.703   9.004   6.009  0.3715 -0.0677 -0.2280
  295MOL0     C40591   5.589   8.928   6.038 -0.0955  0.6258 -0.1608
  295MOL0     C40592   5.486   8.892   5.935 -0.5873 -0.9570 -0.1202
  295MOL0     C40593   5.529   8.757   5.873  0.0050 -0.9155 -0.0989
  295MOL0     C40594   5.487   8.636   5.963  0.7950 -1.7561  0.8707
  295MOL0     C40595   5.544   8.506   5.907  0.3740 -0.2528  0.4149
  295MOL0     O40596   5.689   8.518   5.927  0.1061  0.8133 -0.0765
  295MOL0     C40597   5.772   8.416   5.885 -0.2878 -0.4622  0.2541
  295MOL0     C40598   5.749   8.280   5.903 -0.2000  0.1975 -0.6428
  295MOL0     C40599   5.836   8.177   5.857 -0.5040 -0.7998  0.0955
  295MOL0     C40600   5.807   8.030   5.870 -0.1018  0.4356  0.9730
  295MOL0     C40601   5.956   8.226   5.788 -0.0123  0.1859 -0.7361
  295MOL0     C40602   6.053   8.134   5.732 -0.1599 -0.1666 -0.8761
  295MOL0     O40603   6.075   8.019   5.803 -0.9264  0.8543  0.6112
  295MOL0     C40604   6.163   7.929   5.750  0.5544 -0.1723 -0.5239
  295MOL0     C40605   6.300   7.957   5.754  0.1272 -0.0104 -0.8520
  295MOL0     C40606   6.393   7.869   5.691 -0.3388  1.2813  0.5107
  295MOL0     C40607   6.342   7.762   5.608 -0.5235  0.1179 -0.6934
  295MOL0     O40608   6.442   7.674   5.567 -1.1817 -0.7160 -0.3234
  295MOL0     C40609   6.406   7.587   5.455 -1.7484  0.6099 -0.1699
  295MOL0     C40610   6.534   7.564   5.370  0.6688  0.0325 -0.1991
  295MOL0     C40611   6.521   7.452   5.265  0.6801 -0.1644  0.0059
  295MOL0     C40612   6.649   7.434   5.183  0.9474 -0.8540  0.0682
  295MOL0     C40613   6.632   7.334   5.074  1.1577  1.4487 -0.5379
  295MOL0     C40614   6.559   7.208   5.107 -0.1598  0.4287 -0.1455
  295MOL0     C40615   6.542   7.124   4.980 -0.1640  0.1546 -0.3675
  295MOL0     C40616   6.678   7.082   4.924 -0.1095  0.3802 -0.3715
  295MOL0    Cl40617   6.653   6.968   4.786 -0.2489  0.3458 -0.0979
  295MOL0     C40618   6.204   7.745   5.604 -0.1481  0.5078 -0.2157
  295MOL0     C40619   6.117   7.820   5.677  0.0285  0.6942 -0.4446
  295MOL0     O40620   6.095   8.169   5.621 -0.0477 -0.3350  0.2785
  295MOL0     C40621   5.983   8.360   5.783  1.0950 -0.3666 -0.0841
  295MOL0     C40622   5.891   8.461   5.827 -0.8914  0.5231 -0.2979
  295MOL0     N40623   5.581   8.926   6.180  0.1608 -0.1943  0.2738
  295MOL0     N40624   5.676   8.986   6.227 -0.1181 -1.2880  0.4973
  295MOL0     C40625   6.368   9.374   6.681  0.3789  0.1075  0.4211
  295MOL0     C40626   6.415   9.249   6.714 -0.4181  0.2705  0.5920
  295MOL0     C40627   6.636   8.850   6.624  0.7613  0.0174 -0.2400
  295MOL0     C40628   6.525   8.765   6.664 -0.3545 -0.2058 -1.1348
  295MOL0     C40629   6.535   8.628   6.674 -0.7168 -0.4190  0.5486
  295MOL0     C40630   6.665   8.565   6.638  0.0971 -0.2397 -0.1461
  295MOL0     O40631   6.697   8.429   6.658 -0.4918 -0.3798 -0.5895
  295MOL0     C40632   6.626   8.369   6.775  0.0898  0.0516  0.8581
  295MOL0     C40633   6.721   8.315   6.870  0.1715  1.0168 -0.3654
  295MOL0     C40634   6.673   8.278   7.015  0.0189  0.3885  0.1915
  295MOL0     C40635   6.610   8.398   7.096  0.3508 -0.4003  1.2881
  295MOL0     C40636   6.709   8.492   7.154  0.5015 -0.1273  0.2369
  295MOL0     C40637   6.792   8.572   7.192 -0.3191 -0.7138  0.3386
  295MOL0     C40638   6.769   8.653   6.604 -0.3755  0.3783 -0.7731
  295MOL0     C40639   6.753   8.794   6.597 -1.9085  0.3961  0.3904
  295MOL0     C40640   6.878   8.856   6.531  0.2447 -1.5473 -0.0257
  295MOL0     H40641   6.492   9.117   6.409  0.8759 -0.2940  1.2106
  295MOL0     H40642   6.396   9.346   6.344 -1.1508 -1.8907 -0.2429
  295MOL0     H40643   6.256   9.695   6.612  0.9073 -0.8949  0.4651
  295MOL0     H40644   6.168   9.552   6.625  2.5527 -4.8546 -1.7675
  295MOL0     H40645   6.104   9.765   6.463 -2.7128 -0.6355  0.9133
  295MOL0     H40646   6.218   9.682   6.348 -1.0074 -2.0596 -1.4980
  295MOL0     H40647   6.100   9.476   6.366  0.1415  0.6059  1.0788
  295MOL0     H40648   5.975   9.549   6.475  0.2080 -0.2713  0.0389
  295MOL0     H40649   5.944   9.719   6.286 -0.4541  0.1209  0.9451
  295MOL0     H40650   6.037   9.600   6.186  1.4830 -0.6012  0.6398
  295MOL0     H40651   5.804   9.564   6.162  0.1047  0.8791  0.5014
  295MOL0     H40652   5.798   9.485   6.322 -2.1883  1.5500 -0.5920
  295MOL0     H40653   6.006   9.407   6.103 -2.7087 -1.3239 -2.3927
  295MOL0     H40654   5.971   9.332   6.266 -1.9055  3.0189  2.3220
  295MOL0     H40655   5.839   9.307   5.998  3.0439 -1.5754 -0.4873
  295MOL0     H40656   5.720   9.334   6.122  0.5005  1.4354 -2.4482
  295MOL0     H40657   5.929   9.123   6.118  0.5925  0.6699 -0.4532
  295MOL0     H40658   5.845   9.159   6.273 -3.4838 -0.1481 -0.3627
  295MOL0     H40659   5.732   9.054   5.917  0.0092 -0.3576 -0.5023
  295MOL0     H40660   5.475   8.969   5.857 -0.0497 -0.4396  0.3064
  295MOL0     H40661   5.395   8.880   5.994  0.1096 -2.2396  0.7264
  295MOL0     H40662   5.471   8.761   5.780  1.9741  2.8093 -1.4093
  295MOL0     H40663   5.635   8.762   5.849 -0.2962 -0.1605 -1.3584
  295MOL0     H40664   5.531   8.646   6.063  0.2228 -2.5608  1.2131
  295MOL0     H40665   5.379   8.630   5.979  0.2219  1.3014 -1.0505
  295MOL0     H40666   5.509   8.435   5.982 -3.4447  0.1579 -0.7603
  295MOL0     H40667   5.513   8.478   5.806 -1.0336 -2.5297  1.4077
  295MOL0     H40668   5.665   8.246   5.962  0.7695  1.3365  1.4970
  295MOL0     H40669   5.834   7.967   5.784 -0.0425 -1.0072  2.0078
  295MOL0     H40670   5.700   8.012   5.886 -0.2724 -0.3767 -0.7829
  295MOL0     H40671   5.860   7.986   5.955 -0.7630  0.1288  1.2364
  295MOL0     H40672   6.341   8.048   5.798  0.9500 -2.0245  3.0112
  295MOL0     H40673   6.495   7.904   5.701  0.4672 -1.1461  1.3417
  295MOL0     H40674   6.383   7.486   5.491  3.3786 -0.8575 -0.1701
  295MOL0     H40675   6.324   7.624   5.393 -1.2645  2.0188  0.0102
  295MOL0     H40676   6.555   7.655   5.313 -1.8784  0.7361 -0.1433
  295MOL0     H40677   6.611   7.545   5.446 -0.3553 -0.1875  0.8022
  295MOL0     H40678   6.438   7.463   5.195  2.2171  1.2318 -1.7065
  295MOL0     H40679   6.482   7.366   5.320 -0.7321 -0.0443 -0.7733
  295MOL0     H40680   6.731   7.419   5.255  1.4485 -1.8099 -0.6784
  295MOL0     H40681   6.675   7.527   5.133 -1.8664  0.6760  1.2020
  295MOL0     H40682   6.607   7.384   4.981  1.8841 -0.6004 -1.8973
  295MOL0     H40683   6.737   7.307   5.057  1.1864  1.5130 -0.4666
  295MOL0     H40684   6.457   7.222   5.145 -0.1511  0.3801 -0.1034
  295MOL0     H40685   6.624   7.140   5.163  0.8694 -2.2229 -4.1711
  295MOL0     H40686   6.478   7.165   4.901 -1.6274 -0.6822  0.3347
  295MOL0     H40687   6.488   7.034   5.011 -1.9719  1.3687  0.1398
  295MOL0     H40688   6.740   7.020   4.989 -1.2829 -1.7791 -1.1880
  295MOL0     H40689   6.739   7.164   4.887 -1.2925  0.3984 -2.4533
  295MOL0     H40690   6.169   7.658   5.549 -2.8756  0.5223  1.3435
  295MOL0     H40691   6.011   7.802   5.669 -0.3380  2.3322  0.2452
  295MOL0     H40692   6.082   8.385   5.745  0.3217 -0.4382 -2.2784
  295MOL0     H40693   5.924   8.565   5.824  2.9011 -0.4144  1.7111
  295MOL0     H40694   6.331   9.436   6.763 -2.1060  0.1701 -0.6798
  295MOL0     H40695   6.413   9.215   6.817  0.9965 -0.5792  0.3526
  295MOL0     H40696   6.432   8.810   6.698  0.4570  0.8495 -0.2383
  295MOL0     H40697   6.451   8.569   6.709  1.1587 -1.4250  3.7534
  295MOL0     H40698   6.554   8.443   6.813  1.3528  2.4113 -1.0462
  295MOL0     H40699   6.573   8.286   6.727 -0.0544  1.5756 -1.8003
  295MOL0     H40700   6.807   8.382   6.875  0.3756  0.6545  1.5791
  295MOL0     H40701   6.750   8.222   6.819 -2.1147 -0.0970  0.2252
  295MOL0     H40702   6.591   8.209   6.994  0.8105  0.2913 -3.2116
  295MOL0     H40703   6.749   8.231   7.077 -0.4187  0.3307  0.6978
  295MOL0     H40704   6.544   8.367   7.177 -2.2720  0.0999 -0.4986
  295MOL0     H40705   6.541   8.447   7.026  0.2397 -1.0970  0.8952
  295MOL0     H40706   6.864   8.642   7.230  1.2015 -2.1462  0.2343
  295MOL0     H40707   6.863   8.611   6.569 -1.1300 -1.3940 -0.7667
  295MOL0     H40708   6.868   8.893   6.429  1.4039 -1.8784 -0.2745
  295MOL0     H40709   6.931   8.929   6.595  0.6313 -1.9435  0.1103
  295MOL0     H40710   6.964   8.789   6.522  1.5441 -0.0696  0.7207
  296MOL0     O40711   7.139   4.445   2.743  0.7028  0.2505  0.0188
  296MOL0     C40712   7.119   4.323   2.742  0.3749  0.3510 -0.6574
  296MOL0     O40713   7.178   4.224   2.672  0.2563  0.7291  0.7353
  296MOL0     C40714   7.306   4.249   2.627  0.3693 -0.8475 -0.3263
  296MOL0     C40715   7.341   4.277   2.492  1.8979  0.1802  0.5201
  296MOL0     C40716   7.454   4.346   2.454  0.2806 -0.2582  0.4482
  296MOL0     C40717   7.556   4.368   2.553 -1.3920 -0.8813  1.0033
  296MOL0     O40718   7.690   4.403   2.530  0.4511 -0.3911 -0.4974
  296MOL0     C40719   7.742   4.421   2.397  0.9971  0.5867 -0.1823
  296MOL0     C40720   7.886   4.395   2.403 -0.0571 -0.1841 -0.4002
  296MOL0     C40721   7.944   4.511   2.487 -0.0198 -1.0433 -1.3109
  296MOL0     C40722   8.096   4.516   2.455  0.5224 -0.2066 -0.7635
  296MOL0     C40723   8.177   4.581   2.572  0.2110  0.2827 -0.6058
  296MOL0     C40724   8.139   4.730   2.581 -0.0607 -0.1628 -0.3161
  296MOL0     C40725   8.234   4.791   2.674 -0.6696 -0.0813 -0.1178
  296MOL0     C40726   8.219   4.946   2.684  0.0198  0.7481 -0.0667
  296MOL0     N40727   8.313   5.000   2.788  0.4523  0.6972  0.9047
  296MOL0     C40728   8.454   4.975   2.794  0.3261  0.3933 -0.5372
  296MOL0     C40729   8.483   5.047   2.912  1.1233 -0.5355  0.6453
  296MOL0     C40730   8.617   5.036   2.972  0.1763 -0.9703 -0.3886
  296MOL0     C40731   8.703   5.152   2.919  1.3173  0.5991 -0.2114
  296MOL0     C40732   8.832   5.159   3.007 -0.6934  0.3394 -0.4469
  296MOL0     C40733   8.811   5.191   3.156  0.2996 -0.8842 -0.6843
  296MOL0     O40734   8.927   5.261   3.215 -0.7125 -0.0366 -0.2748
  296MOL0     C40735   9.040   5.184   3.224  1.2571  0.9921 -0.2707
  296MOL0     C40736   9.056   5.043   3.244  0.0269  0.7366 -0.2826
  296MOL0     C40737   9.179   4.976   3.235 -0.1006  0.9872 -0.5310
  296MOL0     C40738   9.154   4.827   3.248  0.0716  0.4915  0.2037
  296MOL0     C40739   9.298   5.041   3.200  0.5700  0.0351  0.0207
  296MOL0     C40740   9.427   4.974   3.160  0.0865  0.0566  0.2891
  296MOL0     O40741   9.539   5.047   3.201 -0.7685  0.5135 -0.1625
  296MOL0     C40742   9.658   5.000   3.166  0.8207  0.1442  0.3897
  296MOL0     C40743   9.732   5.043   3.054 -0.6965  0.6768  0.1962
  296MOL0     C40744   9.870   5.014   3.046 -0.5434 -0.0874 -0.2201
  296MOL0     C40745   9.935   4.942   3.148  0.2109  0.2166  0.4444
  296MOL0     O40746  10.064   4.906   3.135  0.6078  0.5491 -0.3389
  296MOL0     C40747  10.074   4.758   3.121  0.6682 -0.1795 -0.1494
  296MOL0     C40748  10.091   4.713   2.975 -0.6163  0.8260 -0.1467
  296MOL0     C40749  10.144   4.571   2.977  0.1598 -0.6904  0.6561
  296MOL0     C40750  10.177   4.532   2.830  0.2778  0.3526  0.2858
  296MOL0     C40751  10.268   4.418   2.816  0.2816 -0.0754  0.0509
  296MOL0     C40752  10.293   4.387   2.666 -0.4261 -0.2323 -0.3940
  296MOL0     C40753  10.361   4.255   2.636  0.7943 -0.2245 -0.7829
  296MOL0     C40754  10.350   4.201   2.496 -0.2237  0.4983  0.2023
  296MOL0    Cl40755  10.447   4.276   2.373  0.2850  0.1969 -0.1828
  296MOL0     C40756   9.856   4.891   3.256  0.5851 -0.5347 -0.1754
  296MOL0     C40757   9.724   4.918   3.263  0.3236 -0.4699 -0.9291
  296MOL0     O40758   9.419   4.875   3.090 -0.1254  0.2497 -0.0644
  296MOL0     C40759   9.275   5.177   3.171  0.2860  0.2569 -1.1331
  296MOL0     C40760   9.156   5.249   3.192  0.2266 -0.0059 -0.5375
  296MOL0     N40761   8.373   5.104   2.970 -0.3459  0.4121  0.2154
  296MOL0     N40762   8.272   5.071   2.896  1.1324  0.2367 -0.6837
  296MOL0     C40763   7.529   4.344   2.684 -1.1908  0.3502  0.0291
  296MOL0     C40764   7.402   4.289   2.720  0.3697 -0.6520  0.4485
  296MOL0     C40765   7.012   4.271   2.822  0.0813 -0.2473 -0.7656
  296MOL0     C40766   6.914   4.369   2.876 -0.7462  0.8713 -0.9246
  296MOL0     C40767   6.798   4.324   2.942  0.0073  0.4687 -0.3691
  296MOL0     C40768   6.766   4.192   2.957 -0.1671  0.4653  0.1102
  296MOL0     O40769   6.653   4.159   3.026 -0.3455  0.5279 -0.9150
  296MOL0     C40770   6.538   4.238   3.024  0.6784  0.3894 -0.7968
  296MOL0     C40771   6.430   4.157   3.088 -0.0321 -0.7977  0.3680
  296MOL0     C40772   6.293   4.233   3.090 -0.7789  0.0232 -0.2023
  296MOL0     C40773   6.195   4.198   2.985  1.1039  0.2058  0.3970
  296MOL0     C40774   6.084   4.291   2.972  0.0694 -0.6851 -0.7711
  296MOL0     C40775   5.989   4.359   2.944  0.4230 -0.2377 -0.7137
  296MOL0     C40776   6.868   4.102   2.933  0.1076  0.4767 -0.1600
  296MOL0     C40777   6.991   4.131   2.867  0.6707  0.3834  0.7569
  296MOL0     C40778   7.086   4.012   2.852  0.6984  0.7632 -0.0612
  296MOL0     H40779   7.264   4.257   2.418 -0.6684  3.1051  2.1270
  296MOL0     H40780   7.469   4.392   2.357 -4.5052 -1.7880 -1.3172
  296MOL0     H40781   7.719   4.526   2.374 -3.2817 -0.3780 -1.1045
  296MOL0     H40782   7.695   4.344   2.336 -2.5884  1.1263  1.6424
  296MOL0     H40783   7.907   4.295   2.442  2.2226 -1.8364 -5.0753
  296MOL0     H40784   7.929   4.379   2.303  3.0123 -0.0122  0.7638
  296MOL0     H40785   7.895   4.606   2.467 -0.6257 -0.7621  1.1907
  296MOL0     H40786   7.939   4.490   2.595 -1.1781 -3.0346 -1.7025
  296MOL0     H40787   8.133   4.414   2.440  1.2495 -0.0325 -0.2421
  296MOL0     H40788   8.106   4.587   2.372 -0.1557 -0.8046 -1.3733
  296MOL0     H40789   8.284   4.564   2.559  0.6233 -0.6686  2.7986
  296MOL0     H40790   8.153   4.524   2.663  2.6434 -1.5064 -0.9691
  296MOL0     H40791   8.146   4.774   2.482 -0.3796 -0.5814 -0.5274
  296MOL0     H40792   8.036   4.733   2.616  0.8614 -1.8523  3.0811
  296MOL0     H40793   8.329   4.766   2.625  0.3545 -0.6790  2.0663
  296MOL0     H40794   8.223   4.751   2.775  1.5698  0.8620  0.5520
  296MOL0     H40795   8.248   4.978   2.584 -1.8876 -2.6125 -1.8889
  296MOL0     H40796   8.118   4.976   2.714  1.1428  1.1287  3.9746
  296MOL0     H40797   8.512   4.909   2.731 -2.6940 -0.7764 -2.3339
  296MOL0     H40798   8.662   4.941   2.941 -1.1210 -1.6031 -0.4001
  296MOL0     H40799   8.617   5.049   3.081  2.2918  0.5407 -0.5020
  296MOL0     H40800   8.730   5.127   2.816 -0.9282 -2.2405 -0.2520
  296MOL0     H40801   8.656   5.250   2.928 -1.1572 -0.6471  2.4678
  296MOL0     H40802   8.891   5.069   2.991 -0.4306 -0.1439  2.7097
  296MOL0     H40803   8.886   5.246   2.968  1.2083 -2.0518 -3.6853
  296MOL0     H40804   8.724   5.257   3.167  1.0671  0.2000 -1.0309
  296MOL0     H40805   8.783   5.104   3.216 -0.0802  0.4904  1.2225
  296MOL0     H40806   8.964   4.995   3.276 -1.5297  1.3766 -3.3482
  296MOL0     H40807   9.232   4.786   3.312  0.4159 -0.1777 -0.6244
  296MOL0     H40808   9.167   4.778   3.151  0.9345 -3.0027  1.9335
  296MOL0     H40809   9.057   4.802   3.292  0.5554  1.1937  1.7328
  296MOL0     H40810   9.674   5.104   2.985 -2.9636 -0.5088  0.9633
  296MOL0     H40811   9.923   5.037   2.954 -0.0248 -2.7494 -0.6939
  296MOL0     H40812  10.153   4.738   3.195 -1.4585  1.6713  2.8610
  296MOL0     H40813   9.990   4.702   3.163  1.8717 -2.1206 -0.2358
  296MOL0     H40814   9.999   4.728   2.917  1.3660  2.0481 -3.1951
  296MOL0     H40815  10.162   4.775   2.921 -0.0171 -0.5614 -1.0056
  296MOL0     H40816  10.085   4.494   3.028  3.1544 -0.6207  4.7222
  296MOL0     H40817  10.237   4.588   3.032 -0.2960 -1.5947  1.7424
  296MOL0     H40818  10.216   4.618   2.776 -3.6369  1.0894 -1.7881
  296MOL0     H40819  10.084   4.508   2.776 -1.2173  1.4530  2.2465
  296MOL0     H40820  10.360   4.439   2.871  0.0425  1.3344 -0.0589
  296MOL0     H40821  10.224   4.328   2.861  0.6214  0.1854  0.9233
  296MOL0     H40822  10.329   4.475   2.611 -1.4354  1.4091  1.4388
  296MOL0     H40823  10.200   4.364   2.614  0.5735 -4.1893 -0.7011
  296MOL0     H40824  10.322   4.176   2.701  1.7623  1.0626  1.4963
  296MOL0     H40825  10.470   4.247   2.648  0.7498 -1.2069 -0.9571
  296MOL0     H40826  10.246   4.212   2.463  0.3755  0.4410 -1.8027
  296MOL0     H40827  10.366   4.092   2.491  3.1411  0.9018  0.0402
  296MOL0     H40828   9.889   4.842   3.347  0.3582  0.6091  0.5479
  296MOL0     H40829   9.668   4.876   3.346 -3.1259 -1.7109 -3.6310
  296MOL0     H40830   9.366   5.230   3.145  1.6144 -0.8615  0.9160
  296MOL0     H40831   9.141   5.355   3.175 -1.5950 -0.0898  0.2379
  296MOL0     H40832   7.607   4.367   2.756 -1.1181  3.0843 -0.8026
  296MOL0     H40833   7.390   4.270   2.826  3.9451  1.0020  1.2802
  296MOL0     H40834   6.941   4.473   2.856  0.8357  0.1369 -2.9674
  296MOL0     H40835   6.718   4.390   2.973  0.8233  0.8043  1.1335
  296MOL0     H40836   6.542   4.334   3.076  2.4970 -1.4142  2.7214
  296MOL0     H40837   6.520   4.264   2.919 -2.6910 -3.0373 -1.2892
  296MOL0     H40838   6.461   4.132   3.190 -1.4991  1.7589  1.5484
  296MOL0     H40839   6.408   4.063   3.037 -1.6244  0.0550 -0.6090
  296MOL0     H40840   6.244   4.227   3.188 -1.1732 -0.3013 -0.4143
  296MOL0     H40841   6.312   4.340   3.084 -0.3944 -0.1018 -1.6987
  296MOL0     H40842   6.163   4.096   3.006  1.2073 -0.2704 -1.6108
  296MOL0     H40843   6.225   4.194   2.880 -2.9451  1.8174 -1.0494
  296MOL0     H40844   5.913   4.434   2.929 -2.9290 -3.5338 -1.7318
  296MOL0     H40845   6.852   3.997   2.955 -0.4678  0.4984 -0.4489
  296MOL0     H40846   7.057   3.925   2.912  1.0397  0.1760 -0.7308
  296MOL0     H40847   7.086   3.978   2.748  0.2731  0.9138 -0.1117
  296MOL0     H40848   7.192   4.026   2.875  0.1365  1.7429  2.2529
  297MOL0     O40849  10.384   5.642   1.337 -0.3182  0.7999 -0.7091
  297MOL0     C40850  10.285   5.583   1.365 -0.1746 -0.0645  0.7905
  297MOL0     O40851  10.287   5.458   1.424  0.6632 -0.7880 -0.0901
  297MOL0     C40852  10.380   5.364   1.408 -0.5374  0.0250  0.4312
  297MOL0     C40853  10.483   5.374   1.305 -0.8449  0.5304 -0.2926
  297MOL0     C40854  10.577   5.270   1.306  0.0200  0.8038 -0.3934
  297MOL0     C40855  10.565   5.166   1.400  0.0455  0.2220  0.0794
  297MOL0     O40856  10.660   5.070   1.405  0.2867  0.5794  0.4790
  297MOL0     C40857  10.616   4.941   1.340  0.4199 -0.6699  0.4982
  297MOL0     C40858  10.656   4.940   1.193 -0.3994  0.0500 -0.5132
  297MOL0     C40859  10.673   4.797   1.144  0.3397 -0.2865  0.2683
  297MOL0     C40860  10.695   4.790   0.991  0.1598 -0.9799 -0.1774
  297MOL0     C40861  10.677   4.647   0.948 -0.6467  0.3576 -0.1321
  297MOL0     C40862  10.680   4.634   0.792 -0.1804  0.4781 -0.1514
  297MOL0     C40863  10.677   4.481   0.752 -0.3715  0.0429 -0.4420
  297MOL0     C40864  10.705   4.439   0.608 -0.6097  0.2842  0.6166
  297MOL0     N40865  10.689   4.291   0.591 -0.0132  0.9370  0.5590
  297MOL0     C40866  10.781   4.194   0.599  0.2055  0.2093  0.2994
  297MOL0     C40867  10.734   4.072   0.616 -0.5775  0.0518 -0.1138
  297MOL0     C40868  10.803   3.944   0.651 -0.5256  0.7184 -0.3825
  297MOL0     C40869  10.815   3.913   0.808  0.3825 -0.6640  0.4593
  297MOL0     C40870  10.679   3.926   0.875 -0.9489 -0.4710  0.1520
  297MOL0     C40871  10.580   3.812   0.837  0.2938 -0.8959 -0.6151
  297MOL0     O40872  10.645   3.681   0.844 -0.0783 -0.2905  0.9912
  297MOL0     C40873  10.560   3.576   0.862 -0.0254 -0.6185  0.0581
  297MOL0     C40874  10.559   3.518   0.981  0.0496  0.4937  0.6850
  297MOL0     C40875  10.480   3.411   1.017  1.1678  0.3669 -0.7503
  297MOL0     C40876  10.497   3.367   1.158 -0.2188 -0.2411  0.3209
  297MOL0     C40877  10.385   3.364   0.919  0.1926  0.4662 -0.4808
  297MOL0     C40878  10.290   3.241   0.940 -0.2305  0.6015 -0.1321
  297MOL0     O40879  10.180   3.231   0.851  0.1350  0.1920 -0.0659
  297MOL0     C40880  10.117   3.107   0.843 -0.7113  0.2608 -0.0946
  297MOL0     C40881  10.049   3.045   0.954 -0.3491 -0.1402  0.7941
  297MOL0     C40882  10.012   2.913   0.949 -1.0769 -0.1911 -0.4303
  297MOL0     C40883  10.003   2.847   0.823  0.5617  1.0245  0.7039
  297MOL0     O40884   9.964   2.708   0.817 -0.4111 -0.1605  0.3949
  297MOL0     C40885  10.010   2.627   0.706  0.7998  1.0621 -0.5348
  297MOL0     C40886  10.027   2.470   0.729  0.5462 -0.1881  0.2335
  297MOL0     C40887  10.122   2.439   0.843 -0.2220  0.0836  0.5506
  297MOL0     C40888  10.264   2.454   0.801 -0.4765 -0.1157  0.7798
  297MOL0     C40889  10.373   2.447   0.915  0.1047 -0.0292  0.3512
  297MOL0     C40890  10.509   2.476   0.868  0.1506  0.7878  0.3638
  297MOL0     C40891  10.599   2.504   0.979 -0.4548  0.9164 -0.4269
  297MOL0     C40892  10.628   2.371   1.063  0.2662  1.2048  0.1822
  297MOL0    Cl40893  10.758   2.415   1.149 -0.1186 -0.2460  0.1284
  297MOL0     C40894  10.052   2.916   0.706 -0.4099  0.1091 -0.0360
  297MOL0     C40895  10.105   3.044   0.717  0.1222  0.0821  0.0847
  297MOL0     O40896  10.315   3.163   1.029 -0.0331  0.2162 -1.0572
  297MOL0     C40897  10.386   3.424   0.794  0.3802 -0.9287  0.2724
  297MOL0     C40898  10.477   3.526   0.763  1.6228 -0.7343  0.5444
  297MOL0     N40899  10.597   4.099   0.591  0.7097 -0.4488 -0.4456
  297MOL0     N40900  10.569   4.223   0.574 -0.2921  0.7291 -0.0375
  297MOL0     C40901  10.462   5.149   1.490 -0.0015  0.0391 -0.3272
  297MOL0     C40902  10.367   5.250   1.493 -0.6308 -0.5885 -0.4721
  297MOL0     C40903  10.151   5.663   1.363 -0.7921 -0.2094 -0.3524
  297MOL0     C40904  10.066   5.630   1.468  0.7457  0.0134 -0.8350
  297MOL0     C40905   9.941   5.704   1.474  0.2464  0.4181  0.1378
  297MOL0     C40906   9.902   5.797   1.390 -0.7178 -0.4900 -0.0781
  297MOL0     O40907   9.797   5.871   1.396 -0.1856  0.7700 -0.6345
  297MOL0     C40908   9.691   5.850   1.485  0.5993 -0.9425  0.7527
  297MOL0     C40909   9.715   5.921   1.614 -0.1166  0.3739  1.0673
  297MOL0     C40910   9.714   6.072   1.605  0.3435  0.6985 -0.9064
  297MOL0     C40911   9.799   6.140   1.710  0.9461 -0.0995 -0.0908
  297MOL0     C40912   9.803   6.290   1.691 -0.5273  0.7852 -0.0614
  297MOL0     C40913   9.809   6.407   1.691  0.3194 -0.6444 -0.1614
  297MOL0     C40914   9.987   5.830   1.288 -0.8185 -0.2024 -0.4297
  297MOL0     C40915  10.107   5.754   1.267  0.4118 -2.0205 -0.4859
  297MOL0     C40916  10.198   5.799   1.152 -0.8913 -0.2800 -0.0613
  297MOL0     H40917  10.488   5.452   1.230  1.1225  1.5282  0.8117
  297MOL0     H40918  10.659   5.266   1.235 -1.3399 -0.4621 -1.9727
  297MOL0     H40919  10.507   4.942   1.348  0.5143  0.3036  1.8624
  297MOL0     H40920  10.658   4.858   1.397  2.0506 -0.0308  0.2826
  297MOL0     H40921  10.581   5.004   1.145  0.1173  0.8768 -0.2502
  297MOL0     H40922  10.747   4.994   1.167 -0.6575  0.4954 -0.5163
  297MOL0     H40923  10.748   4.739   1.198 -1.3894 -3.9934 -0.9967
  297MOL0     H40924  10.579   4.745   1.165  0.7824 -1.2723 -0.1834
  297MOL0     H40925  10.617   4.855   0.950  0.1339 -1.5003 -0.9567
  297MOL0     H40926  10.791   4.828   0.955 -0.2463  0.7561  0.4417
  297MOL0     H40927  10.585   4.610   0.993  1.1050 -2.7689  1.2486
  297MOL0     H40928  10.757   4.584   0.990 -0.4477  0.3059 -0.5819
  297MOL0     H40929  10.591   4.690   0.763  0.7037  2.0359  0.0154
  297MOL0     H40930  10.766   4.677   0.739  0.0095  1.0227  0.5747
  297MOL0     H40931  10.585   4.439   0.793  1.1006 -1.7213  1.2383
  297MOL0     H40932  10.758   4.430   0.805 -0.9222 -0.4436 -0.0502
  297MOL0     H40933  10.630   4.483   0.542 -2.1834  0.4879  2.4445
  297MOL0     H40934  10.805   4.466   0.573  0.4880 -0.7873  2.7476
  297MOL0     H40935  10.887   4.217   0.598  0.9725 -2.9095 -1.5178
  297MOL0     H40936  10.898   3.951   0.597  1.0715 -2.7598  1.6449
  297MOL0     H40937  10.742   3.867   0.604 -2.3564  1.0591  1.3298
  297MOL0     H40938  10.875   3.828   0.841  5.2831  2.9267  1.9951
  297MOL0     H40939  10.860   4.002   0.853 -3.1888  1.1005  0.9069
  297MOL0     H40940  10.690   3.902   0.982 -1.1942 -3.5115 -0.4250
  297MOL0     H40941  10.633   4.022   0.850 -4.5453 -1.5658  1.9264
  297MOL0     H40942  10.501   3.819   0.914  0.4060 -1.1820 -0.4746
  297MOL0     H40943  10.536   3.818   0.738 -0.4170 -0.7291 -0.2980
  297MOL0     H40944  10.624   3.562   1.056  0.6688 -0.5183  0.7652
  297MOL0     H40945  10.587   3.304   1.163 -0.7669 -1.2062 -1.1967
  297MOL0     H40946  10.418   3.304   1.199  1.6308 -0.4403  4.0044
  297MOL0     H40947  10.509   3.444   1.234 -0.8674  1.8454 -1.6110
  297MOL0     H40948  10.036   3.091   1.051 -1.9749 -0.8979  0.9674
  297MOL0     H40949   9.981   2.868   1.043  0.4490  0.0609  0.2248
  297MOL0     H40950   9.950   2.648   0.618 -2.2467  0.4746  1.2521
  297MOL0     H40951  10.111   2.666   0.694  1.5869 -1.0460 -1.3212
  297MOL0     H40952   9.929   2.431   0.755  0.6321 -2.1252 -2.0184
  297MOL0     H40953  10.046   2.441   0.625  0.4343  1.0403 -0.1502
  297MOL0     H40954  10.094   2.337   0.873 -0.6831 -0.5334 -1.7965
  297MOL0     H40955  10.113   2.517   0.920 -0.0448  0.6570 -0.0030
  297MOL0     H40956  10.275   2.549   0.748 -2.0080  0.9417  2.2290
  297MOL0     H40957  10.280   2.367   0.736 -1.0397  0.8704 -0.7326
  297MOL0     H40958  10.351   2.522   0.991 -1.4727  1.9013 -1.8391
  297MOL0     H40959  10.396   2.350   0.960  1.2933  0.5892  1.1229
  297MOL0     H40960  10.500   2.558   0.796 -2.9872  2.2002  2.1498
  297MOL0     H40961  10.554   2.397   0.807  1.4812 -0.2653  2.5895
  297MOL0     H40962  10.572   2.587   1.045  2.4267  3.0416 -1.7130
  297MOL0     H40963  10.693   2.544   0.941  0.2419 -0.0864  0.2026
  297MOL0     H40964  10.651   2.283   1.002  0.5082 -0.5197  2.6167
  297MOL0     H40965  10.539   2.348   1.122  2.1239  1.9386  3.5256
  297MOL0     H40966  10.040   2.869   0.609 -2.4990  0.5322 -0.0268
  297MOL0     H40967  10.158   3.080   0.630 -0.6676  1.2696  0.0732
  297MOL0     H40968  10.316   3.390   0.718 -0.0828 -0.4628  0.4874
  297MOL0     H40969  10.472   3.581   0.670 -2.8036 -1.2792  0.2521
  297MOL0     H40970  10.464   5.067   1.561 -3.6884  0.5077  0.4993
  297MOL0     H40971  10.284   5.267   1.561  0.5332  0.9223  0.6439
  297MOL0     H40972  10.109   5.570   1.548  1.4380  2.4454  0.7232
  297MOL0     H40973   9.890   5.680   1.567 -0.4284 -0.2577 -0.3925
  297MOL0     H40974   9.606   5.888   1.428  2.3959 -0.4087 -1.7352
  297MOL0     H40975   9.677   5.742   1.493 -0.9248 -1.2066 -3.0986
  297MOL0     H40976   9.806   5.880   1.658  0.2155  2.6317  2.6255
  297MOL0     H40977   9.644   5.882   1.686 -0.0013  2.3934  2.3249
  297MOL0     H40978   9.751   6.090   1.503  0.2786  0.3271 -0.9994
  297MOL0     H40979   9.615   6.115   1.620 -0.7613 -1.9435  0.0405
  297MOL0     H40980   9.902   6.105   1.723  0.4623 -1.5616 -0.0094
  297MOL0     H40981   9.750   6.139   1.808  0.4066  0.7741 -0.3357
  297MOL0     H40982   9.831   6.512   1.693 -0.0318 -0.5764  1.1009
  297MOL0     H40983   9.963   5.903   1.212  1.1079  1.2392  0.2489
  297MOL0     H40984  10.233   5.706   1.107 -3.1922  0.0912 -2.9665
  297MOL0     H40985  10.150   5.866   1.080  1.2282  1.7056  0.2423
  297MOL0     H40986  10.266   5.872   1.198 -4.4544  1.6529  2.6267
  298MOL0     O40987   0.586   3.325   5.821 -0.4203 -0.0516  0.8129
  298MOL0     C40988   0.616   3.205   5.793 -0.2631  1.1759  0.3664
  298MOL0     O40989   0.537   3.100   5.809 -0.0654 -0.6603 -0.8620
  298MOL0     C40990   0.405   3.105   5.838 -0.7149  0.0744  0.2900
  298MOL0     C40991   0.319   3.210   5.820 -0.0708  0.3138 -0.2847
  298MOL0     C40992   0.192   3.202   5.829  0.3216 -0.3947  1.0365
  298MOL0     C40993   0.123   3.088   5.883 -0.7017 -0.0314  0.2140
  298MOL0     O40994  -0.011   3.091   5.907  0.0235  0.8413  0.0938
  298MOL0     C40995  -0.059   2.959   5.945  0.1576 -0.0869  0.4551
  298MOL0     C40996  -0.214   2.947   5.958 -0.7844  0.8022  0.1738
  298MOL0     C40997  -0.280   3.055   6.045 -0.6426  0.6845  0.1907
  298MOL0     C40998  -0.426   3.008   6.054  0.3058 -0.3538 -0.9673
  298MOL0     C40999  -0.508   3.117   6.122 -0.0727  0.2850 -0.8497
  298MOL0     C41000  -0.472   3.145   6.266  0.6931  0.3608 -0.5666
  298MOL0     C41001  -0.573   3.233   6.321 -0.0851  0.1039 -0.7520
  298MOL0     C41002  -0.538   3.245   6.466  0.3151 -0.7040 -0.3290
  298MOL0     N41003  -0.658   3.280   6.547  0.1355  0.4190 -0.3602
  298MOL0     C41004  -0.709   3.410   6.548  0.6035 -0.5862  0.3629
  298MOL0     C41005  -0.807   3.412   6.650 -1.2261  0.1199  0.7578
  298MOL0     C41006  -0.876   3.532   6.688 -0.6042  0.1814 -0.0044
  298MOL0     C41007  -1.017   3.520   6.742 -0.0859  0.6437 -0.3476
  298MOL0     C41008  -1.066   3.658   6.797  0.2680 -0.6057  0.4704
  298MOL0     C41009  -1.166   3.639   6.905  0.6275 -0.2205 -0.4264
  298MOL0     O41010  -1.290   3.610   6.843 -0.4996 -0.1362 -0.0581
  298MOL0     C41011  -1.398   3.579   6.924  1.0699  0.8502 -0.1618
  298MOL0     C41012  -1.526   3.571   6.861 -0.5653  0.5248 -0.6930
  298MOL0     C41013  -1.642   3.555   6.937  0.9221 -0.3809 -0.1134
  298MOL0     C41014  -1.771   3.559   6.851  0.6901  0.5089 -0.0778
  298MOL0     C41015  -1.638   3.535   7.074 -0.0324  0.6368 -0.7823
  298MOL0     C41016  -1.759   3.516   7.159  0.2622 -0.5421 -0.4795
  298MOL0     O41017  -1.869   3.475   7.090  1.1893  0.8812 -0.0118
  298MOL0     C41018  -1.972   3.434   7.173 -0.1936  0.4097 -0.5472
  298MOL0     C41019  -2.060   3.541   7.213  0.4936  0.4280 -0.8837
  298MOL0     C41020  -2.159   3.499   7.309 -0.8726 -0.9410  0.0755
  298MOL0     C41021  -2.162   3.369   7.367 -0.0927 -1.2331  0.2893
  298MOL0     O41022  -2.255   3.351   7.464  0.9337  0.9147  0.2502
  298MOL0     C41023  -2.208   3.279   7.583  0.5264  0.2618 -1.2381
  298MOL0     C41024  -2.325   3.268   7.677  0.3813  0.1457 -0.0018
  298MOL0     C41025  -2.397   3.396   7.733 -0.1922 -0.2581 -0.0690
  298MOL0     C41026  -2.305   3.483   7.804 -0.6067 -0.2847 -0.3963
  298MOL0     C41027  -2.372   3.607   7.856  0.2983 -0.4468  0.8247
  298MOL0     C41028  -2.284   3.710   7.916  0.2702  0.6021  0.9147
  298MOL0     C41029  -2.364   3.846   7.912  1.3098  1.1082 -0.5125
  298MOL0     C41030  -2.451   3.853   8.032  0.3650  0.3451 -0.5133
  298MOL0    Cl41031  -2.583   3.740   8.062 -0.2245 -0.3039  0.1747
  298MOL0     C41032  -2.074   3.276   7.315  0.5797  0.6252 -0.2425
  298MOL0     C41033  -1.987   3.301   7.217  0.5943  0.2166 -0.3547
  298MOL0     O41034  -1.747   3.545   7.273 -0.0333  0.1971 -0.9227
  298MOL0     C41035  -1.512   3.524   7.138 -0.9384  0.1708 -0.3416
  298MOL0     C41036  -1.398   3.562   7.060  0.2783 -0.3220 -0.4307
  298MOL0     N41037  -0.808   3.283   6.699  0.1899  0.1723 -0.5108
  298MOL0     N41038  -0.734   3.208   6.632 -0.3445 -0.0198  0.2897
  298MOL0     C41039   0.207   2.978   5.913  0.8334 -0.2553 -0.2950
  298MOL0     C41040   0.343   2.989   5.885  0.3430  0.2068 -0.2564
  298MOL0     C41041   0.751   3.175   5.734 -0.5401 -0.4798 -1.2332
  298MOL0     C41042   0.872   3.262   5.765  1.2262 -0.4415  0.2402
  298MOL0     C41043   0.998   3.215   5.732 -0.1295 -0.2442 -0.3243
  298MOL0     C41044   1.027   3.098   5.652  0.6690 -0.4089  0.5531
  298MOL0     O41045   1.158   3.076   5.626 -1.0979  0.1701  0.5877
  298MOL0     C41046   1.201   2.951   5.564  0.5260 -0.5007  0.2959
  298MOL0     C41047   1.180   2.949   5.415 -0.5180 -0.9945  0.8410
  298MOL0     C41048   1.262   3.056   5.337  0.1595  0.0806  0.9143
  298MOL0     C41049   1.418   3.062   5.381 -0.0867 -0.0374  0.7130
  298MOL0     C41050   1.494   3.141   5.288 -0.7429  0.0953  0.0592
  298MOL0     C41051   1.547   3.216   5.208  0.2623 -0.4645 -1.1339
  298MOL0     C41052   0.914   3.017   5.628 -0.1889  0.0402 -0.3104
  298MOL0     C41053   0.781   3.051   5.659  0.2262 -0.0690  0.6047
  298MOL0     C41054   0.674   2.945   5.621 -0.2661 -0.6518  0.0906
  298MOL0     H41055   0.357   3.302   5.777  0.4922 -0.8401 -2.3773
  298MOL0     H41056   0.129   3.288   5.808 -1.5102 -1.5731  1.4258
  298MOL0     H41057  -0.027   2.933   6.046 -2.8194 -1.5010  1.1449
  298MOL0     H41058  -0.026   2.876   5.882  2.0029  0.8463  0.1327
  298MOL0     H41059  -0.256   2.926   5.860  0.5605  3.5984 -1.1003
  298MOL0     H41060  -0.231   2.849   6.004 -2.0806  0.0283 -1.8404
  298MOL0     H41061  -0.226   3.073   6.138 -0.4146  0.7831  0.0411
  298MOL0     H41062  -0.269   3.150   5.992  2.0576  0.3129 -0.0555
  298MOL0     H41063  -0.470   2.979   5.958 -2.3155  0.9122 -0.2439
  298MOL0     H41064  -0.442   2.920   6.116  1.2604  0.1060 -0.0408
  298MOL0     H41065  -0.611   3.082   6.117 -0.0891 -0.5736  2.9229
  298MOL0     H41066  -0.499   3.208   6.062  3.7372 -1.5566 -3.5314
  298MOL0     H41067  -0.474   3.051   6.323 -2.1820  0.2141 -0.7341
  298MOL0     H41068  -0.373   3.190   6.268  0.1217  1.6766  1.3228
  298MOL0     H41069  -0.665   3.175   6.326 -0.2631 -0.0181 -3.5317
  298MOL0     H41070  -0.566   3.326   6.263 -0.0210 -0.2552 -1.3307
  298MOL0     H41071  -0.481   3.164   6.512  3.0131  1.1206 -0.2413
  298MOL0     H41072  -0.467   3.329   6.468 -0.1700 -0.2722 -0.8321
  298MOL0     H41073  -0.663   3.497   6.504  0.3006  0.7288  2.5022
  298MOL0     H41074  -0.881   3.600   6.603 -1.7921  0.9792  0.6795
  298MOL0     H41075  -0.820   3.583   6.767 -1.6465  2.1658 -0.4735
  298MOL0     H41076  -1.078   3.473   6.664  1.6759 -1.4040 -0.5902
  298MOL0     H41077  -1.005   3.451   6.826  1.0856 -2.4076 -2.8068
  298MOL0     H41078  -0.986   3.705   6.855  2.2244 -2.2855 -0.7182
  298MOL0     H41079  -1.092   3.724   6.713 -0.2511  1.7766  2.3668
  298MOL0     H41080  -1.137   3.556   6.970 -1.6138 -2.2245 -1.8292
  298MOL0     H41081  -1.197   3.731   6.955 -2.5007 -0.1602 -2.2659
  298MOL0     H41082  -1.537   3.587   6.754  1.3511  2.4447 -0.6725
  298MOL0     H41083  -1.807   3.456   6.853 -0.5673  0.9287  0.2879
  298MOL0     H41084  -1.747   3.590   6.749  0.3966  1.2348  0.0641
  298MOL0     H41085  -1.830   3.642   6.891  2.4065  2.3773 -1.2385
  298MOL0     H41086  -2.034   3.640   7.175  2.1344 -0.1561 -1.3984
  298MOL0     H41087  -2.234   3.568   7.345 -1.1397  0.1731 -2.4378
  298MOL0     H41088  -2.175   3.183   7.543  0.6002  0.5250 -1.8136
  298MOL0     H41089  -2.130   3.328   7.643  0.1817 -1.4686  0.7609
  298MOL0     H41090  -2.400   3.207   7.628 -0.9130 -0.0761  2.1112
  298MOL0     H41091  -2.284   3.200   7.752 -0.0251  0.6286  0.6698
  298MOL0     H41092  -2.466   3.361   7.811  1.8865 -1.2797  1.3996
  298MOL0     H41093  -2.445   3.450   7.651 -0.0115 -2.1879 -1.5008
  298MOL0     H41094  -2.225   3.519   7.738 -0.9497  0.7960 -0.2328
  298MOL0     H41095  -2.254   3.423   7.881  2.4478 -0.6888 -2.5436
  298MOL0     H41096  -2.415   3.649   7.765  1.0312 -4.4264 -1.5898
  298MOL0     H41097  -2.453   3.581   7.925 -1.6661  0.4612 -1.0193
  298MOL0     H41098  -2.199   3.740   7.854  0.6781 -0.2891  1.0239
  298MOL0     H41099  -2.254   3.684   8.018  3.8118 -1.5387 -0.4919
  298MOL0     H41100  -2.436   3.855   7.830  1.3905 -1.5457 -0.9654
  298MOL0     H41101  -2.288   3.923   7.920  0.6189  2.4497 -4.5275
  298MOL0     H41102  -2.483   3.955   8.057  0.2246 -0.2852  2.1383
  298MOL0     H41103  -2.390   3.837   8.121 -1.8219 -0.5885  0.9114
  298MOL0     H41104  -2.086   3.170   7.336  0.8880 -0.2756 -3.9131
  298MOL0     H41105  -1.912   3.229   7.186 -1.7417 -2.6821  0.2470
  298MOL0     H41106  -1.498   3.486   7.239 -0.7384  0.9395 -0.0737
  298MOL0     H41107  -1.298   3.563   7.102  0.7846  1.1824 -1.5780
  298MOL0     H41108   0.170   2.877   5.921  2.2428 -1.0399 -2.5875
  298MOL0     H41109   0.406   2.904   5.908  0.8339  0.6374  0.0013
  298MOL0     H41110   0.854   3.353   5.822  0.5355 -2.3238  3.2818
  298MOL0     H41111   1.079   3.270   5.778 -0.5642 -0.5977  0.9096
  298MOL0     H41112   1.304   2.922   5.587  0.8193 -1.8155 -2.3319
  298MOL0     H41113   1.143   2.870   5.609  0.0214 -0.3182 -0.0189
  298MOL0     H41114   1.076   2.961   5.384  0.3040  3.3785 -0.8914
  298MOL0     H41115   1.217   2.854   5.375 -1.4948 -1.1828  0.3587
  298MOL0     H41116   1.260   3.035   5.230 -4.0800  0.3926  0.7583
  298MOL0     H41117   1.211   3.151   5.352 -1.8246 -0.8050  0.0442
  298MOL0     H41118   1.460   2.964   5.401 -0.6616 -0.3947  0.2039
  298MOL0     H41119   1.415   3.113   5.478  0.1134 -0.1423  0.7738
  298MOL0     H41120   1.586   3.268   5.124  1.5848  1.7887  0.7655
  298MOL0     H41121   0.937   2.929   5.569  0.1512 -1.2661  1.6736
  298MOL0     H41122   0.635   2.888   5.706 -0.6552 -0.5448 -0.0136
  298MOL0     H41123   0.593   2.983   5.558  0.2715  0.0590 -0.1870
  298MOL0     H41124   0.724   2.880   5.549 -1.0985 -0.4678 -0.6767
  299MOL0     O41125   1.588   2.781   3.451 -0.0507 -0.1220 -0.6536
  299MOL0     C41126   1.488   2.713   3.432 -0.3847 -0.0764  0.2639
  299MOL0     O41127   1.366   2.772   3.419  0.1027  0.2089  0.2119
  299MOL0     C41128   1.349   2.889   3.496  0.6866 -0.4826  0.5463
  299MOL0     C41129   1.389   3.017   3.449  1.3903  0.6412  0.0024
  299MOL0     C41130   1.375   3.138   3.510 -0.3408 -0.7884 -0.3133
  299MOL0     C41131   1.316   3.135   3.633 -0.3248  0.0888 -0.4859
  299MOL0     O41132   1.290   3.241   3.712 -0.1487  0.2172 -0.1188
  299MOL0     C41133   1.360   3.250   3.837 -0.4157  0.1197  0.6908
  299MOL0     C41134   1.281   3.321   3.944  0.3864  0.0969  0.0873
  299MOL0     C41135   1.364   3.378   4.054 -1.2756  0.1416  0.7172
  299MOL0     C41136   1.434   3.274   4.150  0.3166 -0.4837  0.6467
  299MOL0     C41137   1.328   3.205   4.236 -0.0109 -0.7689 -0.5804
  299MOL0     C41138   1.271   3.309   4.336  0.4298  0.6361  0.4736
  299MOL0     C41139   1.175   3.247   4.441  0.6963  0.2296  1.4044
  299MOL0     C41140   1.034   3.208   4.372 -0.4575  0.1308  0.2598
  299MOL0     N41141   0.935   3.319   4.397 -0.2588  0.6054 -0.6481
  299MOL0     C41142   0.849   3.336   4.498  0.3427  0.6054 -0.5090
  299MOL0     C41143   0.805   3.462   4.485  0.3456  0.4107  0.7174
  299MOL0     C41144   0.708   3.522   4.582 -0.3961  0.3667  0.8351
  299MOL0     C41145   0.562   3.498   4.546 -0.1361 -0.8538  0.2556
  299MOL0     C41146   0.469   3.510   4.666  0.6211 -0.3307  0.7230
  299MOL0     C41147   0.331   3.565   4.621 -0.7728 -0.4200 -0.1039
  299MOL0     O41148   0.354   3.704   4.597  0.0496 -0.1047 -0.6526
  299MOL0     C41149   0.240   3.771   4.552  0.1843  0.3336  0.2314
  299MOL0     C41150   0.111   3.718   4.570 -0.5590 -0.4327  0.4889
  299MOL0     C41151  -0.004   3.789   4.541 -1.8899 -0.4912  0.2744
  299MOL0     C41152  -0.131   3.722   4.565 -0.1049  0.9660  0.2633
  299MOL0     C41153   0.012   3.921   4.488 -0.8019  0.3870  0.9625
  299MOL0     C41154  -0.102   4.011   4.453 -0.1415  0.4767 -0.2635
  299MOL0     O41155  -0.229   3.973   4.483 -0.0763  0.1357 -0.2899
  299MOL0     C41156  -0.314   4.077   4.519  0.7451  0.6503  0.7108
  299MOL0     C41157  -0.274   4.201   4.556 -0.1916 -0.1887 -0.0999
  299MOL0     C41158  -0.379   4.287   4.596  0.7234  0.2003  0.1604
  299MOL0     C41159  -0.516   4.251   4.602  0.1388  0.5776 -0.1709
  299MOL0     O41160  -0.619   4.334   4.650  0.0105  0.6213  0.5895
  299MOL0     C41161  -0.714   4.370   4.546 -0.4143 -0.1590  0.4060
  299MOL0     C41162  -0.651   4.492   4.472  0.1836  0.1099 -0.5646
  299MOL0     C41163  -0.664   4.617   4.554  0.1407 -0.4557  0.7652
  299MOL0     C41164  -0.814   4.670   4.547  0.3920  0.0256 -0.6412
  299MOL0     C41165  -0.832   4.802   4.616 -0.1647 -0.5435 -0.3678
  299MOL0     C41166  -0.975   4.863   4.571  0.0100 -0.5080  0.1070
  299MOL0     C41167  -0.979   4.991   4.653  0.2802  0.5130  0.6763
  299MOL0     C41168  -1.136   5.024   4.656  0.1927  0.7140  0.2453
  299MOL0    Cl41169  -1.155   5.192   4.715 -0.1074  0.1942 -0.1677
  299MOL0     C41170  -0.550   4.124   4.567  0.3039 -0.7962  0.0933
  299MOL0     C41171  -0.447   4.035   4.525 -0.5153 -0.4729  1.0244
  299MOL0     O41172  -0.070   4.107   4.379  0.7340 -0.3932 -0.7034
  299MOL0     C41173   0.144   3.975   4.476 -0.7214 -0.0942 -0.2738
  299MOL0     C41174   0.254   3.902   4.507 -0.9564  1.0444  0.4814
  299MOL0     N41175   0.863   3.524   4.376  0.0262  1.0018 -0.0233
  299MOL0     N41176   0.936   3.430   4.321 -0.1191 -0.3992 -0.0386
  299MOL0     C41177   1.275   3.012   3.683 -0.0155 -0.0589 -0.6178
  299MOL0     C41178   1.290   2.889   3.619  0.4937  0.1568 -1.4555
  299MOL0     C41179   1.505   2.561   3.417  0.6962 -0.1868 -0.5398
  299MOL0     C41180   1.406   2.475   3.465 -0.9812  0.2170 -0.1524
  299MOL0     C41181   1.426   2.337   3.470  0.1054 -0.6382  1.1740
  299MOL0     C41182   1.536   2.275   3.423  0.2341 -0.4565 -0.3146
  299MOL0     O41183   1.561   2.137   3.440  0.4114 -0.0433 -0.3943
  299MOL0     C41184   1.638   2.095   3.554 -0.2062  0.3701  0.3542
  299MOL0     C41185   1.759   2.015   3.515 -0.7301  1.1176 -0.2278
  299MOL0     C41186   1.709   1.898   3.431 -1.2828 -0.8138 -0.1558
  299MOL0     C41187   1.813   1.776   3.417  0.0082 -0.1877 -0.0312
  299MOL0     C41188   1.838   1.723   3.284 -0.0824 -0.2096  0.2737
  299MOL0     C41189   1.853   1.695   3.168  0.0205 -0.3038  0.0003
  299MOL0     C41190   1.634   2.363   3.370 -0.9036  0.5553  0.4186
  299MOL0     C41191   1.625   2.502   3.360  0.4718 -0.1397  0.1227
  299MOL0     C41192   1.736   2.590   3.303 -0.5875  0.1746 -0.0340
  299MOL0     H41193   1.441   3.011   3.353 -1.6923 -0.2760 -1.7490
  299MOL0     H41194   1.405   3.232   3.465 -1.2669  0.2859  1.2167
  299MOL0     H41195   1.457   3.298   3.821  0.5992 -1.6643  1.2419
  299MOL0     H41196   1.373   3.147   3.871 -2.0032 -0.7532 -1.1584
  299MOL0     H41197   1.218   3.398   3.897  2.7493  2.3063  0.3092
  299MOL0     H41198   1.204   3.261   3.994 -1.3653  1.9071 -0.2801
  299MOL0     H41199   1.439   3.432   3.994  0.2085 -1.4727  1.0417
  299MOL0     H41200   1.302   3.449   4.109 -0.8006 -0.8431  2.5740
  299MOL0     H41201   1.495   3.200   4.097 -2.0613 -0.7971 -1.8708
  299MOL0     H41202   1.508   3.328   4.210  1.1621 -0.0966 -0.6928
  299MOL0     H41203   1.366   3.124   4.299 -2.5894 -0.0352  2.1689
  299MOL0     H41204   1.253   3.159   4.171  2.1718 -2.8365 -1.8014
  299MOL0     H41205   1.358   3.361   4.377  1.2495 -0.8634  0.6828
  299MOL0     H41206   1.211   3.382   4.281  1.2105  4.6902  4.4138
  299MOL0     H41207   1.161   3.302   4.535 -0.5712  2.6338 -0.0772
  299MOL0     H41208   1.229   3.161   4.480  0.4259  0.4763  2.3667
  299MOL0     H41209   1.042   3.177   4.268 -0.6034  0.9665 -0.0050
  299MOL0     H41210   0.990   3.128   4.433  1.5544 -0.6626  0.7531
  299MOL0     H41211   0.817   3.287   4.590 -2.0981 -0.6725 -1.9484
  299MOL0     H41212   0.732   3.628   4.593  0.0606  0.3205  0.3066
  299MOL0     H41213   0.726   3.467   4.675  0.5988 -0.1914  0.3282
  299MOL0     H41214   0.529   3.571   4.471 -0.6459 -1.6936 -0.3474
  299MOL0     H41215   0.556   3.400   4.498 -0.5403 -0.9003  0.3997
  299MOL0     H41216   0.448   3.407   4.695  0.7222 -0.1144  1.6202
  299MOL0     H41217   0.507   3.573   4.747 -3.4603  0.0089  2.6307
  299MOL0     H41218   0.309   3.510   4.529  0.4893 -1.6269  0.2836
  299MOL0     H41219   0.258   3.548   4.701  1.4321 -1.3290  1.8104
  299MOL0     H41220   0.091   3.625   4.623 -0.0400 -0.3563  0.8299
  299MOL0     H41221  -0.194   3.772   4.640 -0.8061  1.0673 -0.3804
  299MOL0     H41222  -0.117   3.623   4.610  1.6207  0.7037 -0.7836
  299MOL0     H41223  -0.187   3.716   4.471  0.4269 -1.0203  0.0278
  299MOL0     H41224  -0.170   4.232   4.562 -0.4400  0.5500  0.3725
  299MOL0     H41225  -0.355   4.391   4.614  3.1412 -0.2149 -0.2906
  299MOL0     H41226  -0.730   4.287   4.476  1.6735  0.0505 -0.3920
  299MOL0     H41227  -0.808   4.402   4.592  0.4048  0.9276  1.3987
  299MOL0     H41228  -0.544   4.470   4.462  1.1091  3.4257  0.8316
  299MOL0     H41229  -0.698   4.507   4.374  3.2162  1.2490 -1.9948
  299MOL0     H41230  -0.597   4.691   4.511  1.7801 -1.6815  1.1137
  299MOL0     H41231  -0.633   4.594   4.657 -0.7117  0.3899  1.2315
  299MOL0     H41232  -0.881   4.595   4.591 -1.2474  1.5045 -0.5215
  299MOL0     H41233  -0.842   4.700   4.445  0.5107  1.9460 -0.1428
  299MOL0     H41234  -0.823   4.781   4.723 -2.7135  1.0722  0.2560
  299MOL0     H41235  -0.752   4.871   4.589 -2.7470  2.5202 -0.7497
  299MOL0     H41236  -1.065   4.801   4.581 -0.9828  0.8018 -0.5017
  299MOL0     H41237  -0.960   4.884   4.465  2.6549  1.2796  0.7419
  299MOL0     H41238  -0.916   5.067   4.607  0.6758  0.7121  1.5177
  299MOL0     H41239  -0.942   4.969   4.754 -0.8262  0.0323  1.0005
  299MOL0     H41240  -1.188   4.956   4.723  2.4552 -0.7163  0.6394
  299MOL0     H41241  -1.178   5.018   4.555  1.9238 -3.1062 -0.4261
  299MOL0     H41242  -0.650   4.089   4.592  0.1437 -0.8106 -0.5618
  299MOL0     H41243  -0.456   3.929   4.503 -0.5165 -0.3309  0.2962
  299MOL0     H41244   0.152   4.078   4.444 -1.1949 -0.2618 -0.9578
  299MOL0     H41245   0.347   3.956   4.497  0.5090 -0.9967  2.0831
  299MOL0     H41246   1.219   3.008   3.776 -2.2532 -1.0182 -1.9122
  299MOL0     H41247   1.244   2.802   3.666  0.1172  0.1218 -1.8840
  299MOL0     H41248   1.318   2.516   3.514  1.2689 -0.0677  4.7233
  299MOL0     H41249   1.346   2.274   3.508 -2.7987  0.9931 -1.7562
  299MOL0     H41250   1.671   2.187   3.603  1.3297  0.8393 -1.4195
  299MOL0     H41251   1.573   2.042   3.624 -0.5598  3.2399  2.3787
  299MOL0     H41252   1.815   1.983   3.604 -1.7545  4.2875  1.6964
  299MOL0     H41253   1.827   2.077   3.455 -1.7189  1.1360 -1.3607
  299MOL0     H41254   1.622   1.844   3.470  0.0511 -2.2507  0.9368
  299MOL0     H41255   1.679   1.937   3.333  2.0150 -2.0528 -1.8048
  299MOL0     H41256   1.773   1.703   3.487  0.1765  0.5958  0.9032
  299MOL0     H41257   1.905   1.818   3.459 -1.0125 -1.4500  3.8679
  299MOL0     H41258   1.853   1.688   3.061  0.2563  1.5573 -0.1611
  299MOL0     H41259   1.724   2.318   3.328 -2.4156  0.6706 -3.3255
  299MOL0     H41260   1.712   2.621   3.201 -2.0653 -0.6431  0.0372
  299MOL0     H41261   1.763   2.679   3.360  4.1541 -1.5952  0.8887
  299MOL0     H41262   1.829   2.534   3.289  0.9544  2.8111 -1.0465
  300MOL0     O41263   7.596   3.059   3.254 -0.2141 -0.3846 -0.2724
  300MOL0     C41264   7.587   3.115   3.147 -0.4144  0.0024  0.2350
  300MOL0     O41265   7.518   3.232   3.121  0.3963  0.0346  0.0266
  300MOL0     C41266   7.497   3.311   3.234  0.5312  0.6222 -0.4984
  300MOL0     C41267   7.595   3.372   3.308 -0.3159  1.0524  0.1061
  300MOL0     C41268   7.576   3.460   3.415  0.8131  0.4269 -0.5353
  300MOL0     C41269   7.439   3.492   3.448  0.6858 -0.3164  0.2784
  300MOL0     O41270   7.399   3.574   3.553 -0.3021  0.1378 -0.2017
  300MOL0     C41271   7.477   3.558   3.679  1.3941  0.9033  0.3855
  300MOL0     C41272   7.423   3.663   3.778  0.2588  0.0200 -0.3185
  300MOL0     C41273   7.510   3.648   3.905 -0.7886 -0.6366 -0.1994
  300MOL0     C41274   7.445   3.738   4.011  1.2057 -0.2309 -0.5578
  300MOL0     C41275   7.527   3.722   4.141 -0.0666  0.1145 -0.8789
  300MOL0     C41276   7.466   3.773   4.273 -0.8182 -0.3181 -0.2156
  300MOL0     C41277   7.565   3.747   4.387 -1.1640 -0.1844 -1.1489
  300MOL0     C41278   7.693   3.830   4.389  0.0973 -0.4040 -0.0117
  300MOL0     N41279   7.731   3.852   4.530 -0.4544  0.8331  0.0922
  300MOL0     C41280   7.766   3.965   4.589 -0.3115 -0.8546 -0.2165
  300MOL0     C41281   7.841   3.933   4.702  0.0834  0.6638  0.0043
  300MOL0     C41282   7.900   4.035   4.801 -0.1101  0.4326  0.4772
  300MOL0     C41283   7.907   3.998   4.950 -1.4064  0.9118  0.9718
  300MOL0     C41284   7.766   3.945   5.002 -0.5667 -0.0297  0.1039
  300MOL0     C41285   7.777   3.925   5.161 -0.3147  0.5440  0.3577
  300MOL0     O41286   7.697   3.814   5.209  0.6665 -0.0778  0.0062
  300MOL0     C41287   7.564   3.815   5.223 -0.7328 -0.3447  0.1435
  300MOL0     C41288   7.477   3.912   5.168  1.0753 -0.1044  0.5782
  300MOL0     C41289   7.341   3.920   5.203 -0.1645  0.0846 -0.1011
  300MOL0     C41290   7.266   4.023   5.131 -0.1859 -0.5546 -0.3358
  300MOL0     C41291   7.282   3.822   5.293 -0.5071  0.1738  0.2604
  300MOL0     C41292   7.142   3.818   5.329  0.3351 -0.1330 -0.1986
  300MOL0     O41293   7.104   3.755   5.445 -0.4528  0.2425 -0.0710
  300MOL0     C41294   6.997   3.804   5.511 -0.3378  0.4542 -0.3592
  300MOL0     C41295   7.006   3.859   5.637  0.2478 -0.0933  0.4448
  300MOL0     C41296   6.903   3.907   5.707  0.2087 -0.4278 -0.1918
  300MOL0     C41297   6.766   3.902   5.651  0.2965 -0.9750  0.5583
  300MOL0     O41298   6.654   3.930   5.723 -0.1207 -0.6962 -0.0859
  300MOL0     C41299   6.649   4.072   5.772  0.2783  0.1402  0.1035
  300MOL0     C41300   6.645   4.174   5.652 -0.3910  1.4424  0.2596
  300MOL0     C41301   6.608   4.315   5.683 -0.3608 -0.3536  0.8656
  300MOL0     C41302   6.670   4.367   5.817  0.7755 -0.4966 -0.0841
  300MOL0     C41303   6.635   4.519   5.816  0.8576 -0.6481 -0.7752
  300MOL0     C41304   6.728   4.601   5.913  0.4340 -0.5332  0.8486
  300MOL0     C41305   6.661   4.741   5.947  0.8240 -0.3756  0.1070
  300MOL0     C41306   6.630   4.818   5.824  0.5650  0.3231  0.7372
  300MOL0    Cl41307   6.701   4.980   5.842  0.3058 -0.0741 -0.0825
  300MOL0     C41308   6.752   3.846   5.515  0.6207  0.5691 -0.7238
  300MOL0     C41309   6.866   3.801   5.451 -0.4068  0.7495  0.7375
  300MOL0     O41310   7.061   3.841   5.242  0.3583 -1.1718  0.8228
  300MOL0     C41311   7.369   3.722   5.343 -0.8676  0.4460 -0.4780
  300MOL0     C41312   7.508   3.718   5.308  0.1661 -0.0740  0.7100
  300MOL0     N41313   7.843   3.797   4.711 -0.2796 -0.5603  0.4356
  300MOL0     N41314   7.777   3.754   4.609 -0.7309  0.7109 -0.2196
  300MOL0     C41315   7.338   3.444   3.360 -0.4759 -0.5808  0.1119
  300MOL0     C41316   7.366   3.354   3.257 -1.1251  0.8288 -0.0552
  300MOL0     C41317   7.630   3.035   3.034  0.1820  0.1368 -0.4061
  300MOL0     C41318   7.748   3.067   2.952  0.7409 -1.0028  0.3742
  300MOL0     C41319   7.779   2.998   2.839  0.9343 -0.0270 -0.4169
  300MOL0     C41320   7.695   2.894   2.797  0.2366  0.0192 -0.5005
  300MOL0     O41321   7.704   2.825   2.688  0.4018  1.0885 -0.4130
  300MOL0     C41322   7.711   2.897   2.563 -0.3116  0.9071 -0.3234
  300MOL0     C41323   7.855   2.939   2.522  0.0554 -0.3317 -0.2223
  300MOL0     C41324   7.958   2.825   2.534  0.7636  0.4583  0.2693
  300MOL0     C41325   7.948   2.709   2.435  0.8903  0.1429 -0.5877
  300MOL0     C41326   7.823   2.630   2.431  0.0505  0.4516  0.0669
  300MOL0     C41327   7.727   2.551   2.428  0.8256  0.7272  0.7276
  300MOL0     C41328   7.598   2.854   2.881 -0.1418 -0.3681 -0.0676
  300MOL0     C41329   7.563   2.916   3.000 -0.2259 -0.1186  0.8610
  300MOL0     C41330   7.436   2.856   3.065 -0.4979 -0.0889 -0.3351
  300MOL0     H41331   7.699   3.341   3.297  0.3822  1.7073  3.6433
  300MOL0     H41332   7.663   3.492   3.472 -0.2605  2.1460  0.1924
  300MOL0     H41333   7.584   3.574   3.664  1.8200  1.6920  3.4792
  300MOL0     H41334   7.464   3.457   3.719 -0.1335  1.5215  1.5741
  300MOL0     H41335   7.436   3.766   3.744  0.1661 -0.2392 -1.1794
  300MOL0     H41336   7.317   3.660   3.807  1.0396  0.4239  2.9576
  300MOL0     H41337   7.508   3.542   3.928 -6.0462 -0.7547 -0.0106
  300MOL0     H41338   7.604   3.701   3.888 -2.3767  1.6770 -2.9092
  300MOL0     H41339   7.440   3.845   3.990  1.9901 -0.0468  0.1254
  300MOL0     H41340   7.345   3.699   4.032  1.6389 -0.9426  0.2519
  300MOL0     H41341   7.627   3.763   4.123 -0.5553  1.3493 -0.9107
  300MOL0     H41342   7.551   3.616   4.152 -0.8019 -0.1440 -1.6442
  300MOL0     H41343   7.426   3.874   4.282  1.9350  1.0663 -2.1040
  300MOL0     H41344   7.379   3.712   4.299  0.0355 -0.5445  2.4606
  300MOL0     H41345   7.588   3.641   4.396 -2.2596 -0.2766  1.0842
  300MOL0     H41346   7.507   3.775   4.475 -2.2632 -0.4676 -1.7652
  300MOL0     H41347   7.779   3.773   4.353  0.0191 -1.0721  0.8464
  300MOL0     H41348   7.682   3.929   4.344 -3.1020  0.4296  2.2334
  300MOL0     H41349   7.755   4.067   4.553 -3.1361 -1.4906 -1.4509
  300MOL0     H41350   7.839   4.125   4.789 -0.5843 -0.1562 -2.2216
  300MOL0     H41351   8.004   4.055   4.776 -0.1391 -0.5409 -0.5296
  300MOL0     H41352   7.983   3.921   4.963 -2.9650 -0.5876  1.5944
  300MOL0     H41353   7.940   4.088   5.004  2.1480  0.8979 -0.8718
  300MOL0     H41354   7.692   4.021   4.978 -1.1769 -0.7267 -0.2836
  300MOL0     H41355   7.750   3.851   4.948 -0.9348 -0.5413  1.0839
  300MOL0     H41356   7.879   3.911   5.197 -1.0464 -2.1949  1.6473
  300MOL0     H41357   7.753   4.020   5.210  0.6588  1.5248 -0.9885
  300MOL0     H41358   7.505   3.989   5.097  1.1716  0.1727  0.9166
  300MOL0     H41359   7.199   3.977   5.058  1.3176 -1.1602 -1.3927
  300MOL0     H41360   7.318   4.101   5.075  0.4277 -0.3238  0.5446
  300MOL0     H41361   7.213   4.082   5.207  0.8151  0.3624 -0.3293
  300MOL0     H41362   7.102   3.881   5.683 -1.0394  2.5301  2.1275
  300MOL0     H41363   6.918   3.948   5.806 -0.0648  0.1374 -0.3787
  300MOL0     H41364   6.560   4.078   5.836  0.0740 -1.8129  0.0791
  300MOL0     H41365   6.731   4.094   5.840 -1.1555 -2.0924  2.7664
  300MOL0     H41366   6.741   4.184   5.601 -0.3072 -1.1110 -0.2098
  300MOL0     H41367   6.572   4.134   5.581  1.6055 -4.8630  1.1508
  300MOL0     H41368   6.500   4.326   5.668 -0.3977 -0.2571  1.1940
  300MOL0     H41369   6.659   4.368   5.602  1.1278 -1.9065  0.7537
  300MOL0     H41370   6.777   4.344   5.819  0.7576 -0.7289 -1.1919
  300MOL0     H41371   6.625   4.316   5.903  0.1682 -1.4467 -0.9437
  300MOL0     H41372   6.627   4.563   5.716  3.7774 -0.3948 -0.9804
  300MOL0     H41373   6.537   4.514   5.864  0.8165 -2.3940 -0.9784
  300MOL0     H41374   6.827   4.626   5.873  0.3314  0.8057  1.3670
  300MOL0     H41375   6.738   4.548   6.008  1.6824 -2.0275 -0.0719
  300MOL0     H41376   6.736   4.792   6.008  1.7257 -0.3322 -1.0067
  300MOL0     H41377   6.575   4.729   6.015 -0.6287 -0.0977 -1.6069
  300MOL0     H41378   6.521   4.826   5.816  0.2635 -3.4240 -0.7778
  300MOL0     H41379   6.666   4.768   5.734  0.0424  1.2937 -0.0347
  300MOL0     H41380   6.655   3.833   5.469  0.5157 -1.6356 -0.0043
  300MOL0     H41381   6.852   3.752   5.355  1.1587  0.0527  0.8407
  300MOL0     H41382   7.344   3.647   5.418 -2.6149  1.2271 -0.2225
  300MOL0     H41383   7.558   3.633   5.355  0.5506  1.4177  3.2205
  300MOL0     H41384   7.240   3.480   3.388  1.2429  2.7703  2.5195
  300MOL0     H41385   7.296   3.335   3.176 -1.9723  2.3265  0.2779
  300MOL0     H41386   7.808   3.154   2.977  1.5612 -0.8745 -1.8089
  300MOL0     H41387   7.873   3.021   2.791  0.3452  1.6280 -0.8364
  300MOL0     H41388   7.665   2.830   2.489 -1.4306 -1.1669  2.1061
  300MOL0     H41389   7.648   2.986   2.557 -1.5228  0.0446 -0.9076
  300MOL0     H41390   7.880   3.026   2.584 -0.8053  0.0993 -0.4727
  300MOL0     H41391   7.861   2.976   2.419  0.5472 -3.0686 -1.2680
  300MOL0     H41392   8.053   2.876   2.515  0.8618  0.3000  0.3331
  300MOL0     H41393   7.951   2.789   2.637 -2.0836 -2.3492 -0.7467
  300MOL0     H41394   8.032   2.649   2.472 -2.9432 -3.8118  2.7280
  300MOL0     H41395   7.967   2.743   2.333 -0.2379  3.5173  0.1974
  300MOL0     H41396   7.649   2.478   2.432  1.0288  0.3361 -1.4425
  300MOL0     H41397   7.544   2.763   2.855 -2.7740  0.5921  1.6461
  300MOL0     H41398   7.351   2.891   3.006 -0.0558  1.1469 -0.2646
  300MOL0     H41399   7.440   2.747   3.061  1.2258 -0.1157  1.1386
  300MOL0     H41400   7.426   2.878   3.171  1.3508 -1.6046  0.2266
  301MOL0     O41401  11.434   5.071  10.197 -0.7797  1.1505 -0.3822
  301MOL0     C41402  11.338   5.075  10.127 -0.0129  0.5578  1.0201
  301MOL0     O41403  11.222   5.007  10.145 -0.7034  0.3819 -0.2679
  301MOL0     C41404  11.221   4.901  10.226 -0.4711  1.0194  0.2086
  301MOL0     C41405  11.212   4.904  10.364 -0.3558 -0.4488  0.4746
  301MOL0     C41406  11.222   4.787  10.440  0.3537 -0.8661  0.1458
  301MOL0     C41407  11.229   4.664  10.376 -0.6125 -0.8119  0.4651
  301MOL0     O41408  11.233   4.550  10.441  0.2607  2.0061 -0.3897
  301MOL0     C41409  11.362   4.523  10.511  0.6794  0.2817 -0.7074
  301MOL0     C41410  11.368   4.573  10.658 -0.0610  0.6690 -1.0603
  301MOL0     C41411  11.474   4.672  10.680  0.9144 -0.2777 -0.1111
  301MOL0     C41412  11.483   4.711  10.836  1.0977 -0.5500  0.1343
  301MOL0     C41413  11.358   4.781  10.884 -0.6497  0.3050  0.5163
  301MOL0     C41414  11.359   4.937  10.846 -0.2872 -1.1151  1.5336
  301MOL0     C41415  11.264   5.016  10.938 -0.1637 -0.4882  0.6798
  301MOL0     C41416  11.112   4.980  10.918  0.5057  1.1011  0.1593
  301MOL0     N41417  11.057   4.910  11.033  0.5347  0.6178 -0.0045
  301MOL0     C41418  11.042   4.967  11.152  0.5561  0.3408  0.5312
  301MOL0     C41419  10.997   4.880  11.240  1.3678 -0.8833  0.1417
  301MOL0     C41420  10.959   4.902  11.379 -0.4595 -0.6769 -1.1207
  301MOL0     C41421  10.847   5.005  11.408  1.0493  1.3119 -0.3037
  301MOL0     C41422  10.756   4.953  11.522  0.2463  0.1316 -0.0941
  301MOL0     C41423  10.660   5.063  11.578  0.3314  0.1900  0.1424
  301MOL0     O41424  10.552   5.077  11.483  0.6829 -1.2302  0.8717
  301MOL0     C41425  10.454   5.168  11.518 -0.0299  0.0141  0.7627
  301MOL0     C41426  10.475   5.280  11.596 -0.0993 -0.2810  0.6021
  301MOL0     C41427  10.383   5.385  11.603  0.4627 -0.7529 -0.0118
  301MOL0     C41428  10.435   5.502  11.695  0.2294 -0.3853  0.8292
  301MOL0     C41429  10.252   5.367  11.537  0.2532  1.1171 -0.3295
  301MOL0     C41430  10.147   5.475  11.525 -0.1074  0.5379 -0.6453
  301MOL0     O41431  10.024   5.443  11.482 -0.2580  0.3168  0.2121
  301MOL0     C41432   9.935   5.541  11.453  0.2070 -0.8314  0.5813
  301MOL0     C41433   9.838   5.565  11.547  0.4401  0.4702 -0.2294
  301MOL0     C41434   9.726   5.627  11.507 -0.0194 -1.0450 -0.8090
  301MOL0     C41435   9.704   5.665  11.373 -0.7291 -0.1772 -0.3502
  301MOL0     O41436   9.578   5.715  11.339  0.4550 -0.1164 -0.2145
  301MOL0     C41437   9.561   5.858  11.320 -0.0373  0.3793 -1.3423
  301MOL0     C41438   9.436   5.891  11.231  0.6725  0.1922  0.6415
  301MOL0     C41439   9.458   5.836  11.090 -0.4018  0.0797 -0.1615
  301MOL0     C41440   9.583   5.903  11.003  0.3985  0.0872 -0.0264
  301MOL0     C41441   9.583   5.828  10.866  1.5003 -1.2832  0.6056
  301MOL0     C41442   9.622   5.684  10.863 -0.4068  0.3763 -0.1677
  301MOL0     C41443   9.778   5.678  10.854  0.0456 -1.2408 -0.5454
  301MOL0     C41444   9.836   5.545  10.900  0.0426 -1.4294 -0.2992
  301MOL0    Cl41445  10.012   5.558  10.906 -0.5667 -0.0238  0.4233
  301MOL0     C41446   9.814   5.661  11.287  0.6203  1.4203  0.0279
  301MOL0     C41447   9.936   5.599  11.325  0.9712  0.2690  2.0295
  301MOL0     O41448  10.185   5.588  11.571  0.3882  0.0051  0.0813
  301MOL0     C41449  10.230   5.246  11.463 -0.1485  0.4582  0.0476
  301MOL0     C41450  10.331   5.147  11.460  0.4356  0.8901 -0.0937
  301MOL0     N41451  10.985   4.755  11.177 -0.2837 -1.1995 -0.1026
  301MOL0     N41452  11.029   4.779  11.057  0.8203  0.0679 -0.3689
  301MOL0     C41453  11.235   4.657  10.242 -0.0510  0.9200 -0.1986
  301MOL0     C41454  11.228   4.771  10.165 -0.6075  0.6062  0.7317
  301MOL0     C41455  11.336   5.162  10.013  0.2899 -0.6303  0.4045
  301MOL0     C41456  11.229   5.132   9.923  0.3527 -0.4618  0.2839
  301MOL0     C41457  11.218   5.210   9.810 -0.4709 -0.2489 -0.7335
  301MOL0     C41458  11.310   5.311   9.783  0.3186 -1.1852  0.2091
  301MOL0     O41459  11.301   5.378   9.661 -0.1778 -0.0164  0.5615
  301MOL0     C41460  11.190   5.470   9.651 -0.7655  0.4985  0.0472
  301MOL0     C41461  11.243   5.583   9.547 -0.0243 -0.7928 -0.8482
  301MOL0     C41462  11.139   5.703   9.534 -1.0826 -0.1902 -0.8514
  301MOL0     C41463  11.112   5.772   9.670 -0.2735  0.1745 -0.3259
  301MOL0     C41464  11.236   5.839   9.726 -0.3728 -0.3962  1.1445
  301MOL0     C41465  11.320   5.911   9.779  0.9894 -0.5732 -0.1246
  301MOL0     C41466  11.422   5.337   9.862  0.6064 -0.4799 -0.4377
  301MOL0     C41467  11.437   5.263   9.979 -0.8521  0.1198 -0.2477
  301MOL0     C41468  11.553   5.317  10.063  0.2302  0.4212 -0.4093
  301MOL0     H41469  11.212   4.999  10.416  1.2710 -1.9424  3.5419
  301MOL0     H41470  11.227   4.787  10.548  2.1167 -1.2020  0.0931
  301MOL0     H41471  11.442   4.562  10.448  2.5146  1.7268  2.2814
  301MOL0     H41472  11.369   4.414  10.507 -1.4156  0.0794 -0.2303
  301MOL0     H41473  11.269   4.611  10.685  0.0538 -0.9350  2.1716
  301MOL0     H41474  11.395   4.482  10.712  0.2524  0.2575 -1.8999
  301MOL0     H41475  11.564   4.619  10.648  0.7158 -0.9526  0.4461
  301MOL0     H41476  11.464   4.753  10.606  0.7345 -1.1502 -1.0658
  301MOL0     H41477  11.490   4.618  10.894  1.1557  1.7191  4.1209
  301MOL0     H41478  11.562   4.777  10.874 -1.2793  0.5579  3.6688
  301MOL0     H41479  11.363   4.789  10.993 -1.4250 -1.1315  0.6777
  301MOL0     H41480  11.269   4.722  10.862  0.1351 -0.5332 -0.5296
  301MOL0     H41481  11.459   4.980  10.831 -1.7140  1.2855 -3.1738
  301MOL0     H41482  11.322   4.942  10.743 -0.3428 -0.4929  1.5760
  301MOL0     H41483  11.278   5.120  10.909 -1.5539 -0.6418 -0.6868
  301MOL0     H41484  11.306   5.008  11.039  4.0687  2.5206 -0.5541
  301MOL0     H41485  11.048   5.068  10.904  0.1017  0.7846  0.0089
  301MOL0     H41486  11.096   4.928  10.823  1.7128 -0.2601  0.6622
  301MOL0     H41487  11.058   5.073  11.167  2.5871  0.5190 -2.1711
  301MOL0     H41488  11.048   4.928  11.437 -0.2183  0.5511 -2.0150
  301MOL0     H41489  10.915   4.810  11.419 -1.4068  1.8860  4.6790
  301MOL0     H41490  10.903   5.094  11.438  1.0001  0.7210  1.6760
  301MOL0     H41491  10.788   5.013  11.316  2.7087 -4.3162 -2.2239
  301MOL0     H41492  10.701   4.864  11.492 -1.9418  0.4135  2.7339
  301MOL0     H41493  10.821   4.921  11.603  0.1944  2.3510  0.9052
  301MOL0     H41494  10.625   5.020  11.673  1.8444  0.0271  0.6549
  301MOL0     H41495  10.717   5.153  11.602  0.8137 -0.1982  0.4760
  301MOL0     H41496  10.579   5.302  11.617  0.6969 -0.2965 -2.7124
  301MOL0     H41497  10.500   5.456  11.771  2.6841  0.6100 -0.5357
  301MOL0     H41498  10.349   5.547  11.745 -0.1294  0.9644 -0.9146
  301MOL0     H41499  10.486   5.583  11.642 -0.8900 -0.2567 -0.0872
  301MOL0     H41500   9.845   5.515  11.643 -1.6112 -0.7297 -0.6305
  301MOL0     H41501   9.656   5.639  11.588  1.9638  0.3993  0.7642
  301MOL0     H41502   9.575   5.912  11.414 -0.3862 -1.1818 -0.3531
  301MOL0     H41503   9.637   5.884  11.247 -0.2357 -1.9588 -2.4560
  301MOL0     H41504   9.347   5.839  11.268  1.7572 -1.1182  1.5034
  301MOL0     H41505   9.414   5.998  11.233  1.4287  0.3443  1.2612
  301MOL0     H41506   9.366   5.855  11.035  0.8723  1.2449 -1.9943
  301MOL0     H41507   9.470   5.727  11.094  0.1261  0.1428  0.1966
  301MOL0     H41508   9.677   5.884  11.055 -1.0878 -1.0511  2.4316
  301MOL0     H41509   9.567   6.008  10.979 -0.0901 -0.2162 -1.0766
  301MOL0     H41510   9.487   5.842  10.815  2.0419 -0.6149 -0.2644
  301MOL0     H41511   9.655   5.882  10.804  0.0705 -1.8825 -1.6981
  301MOL0     H41512   9.583   5.625  10.780  1.0366 -0.7365 -0.0878
  301MOL0     H41513   9.576   5.636  10.950 -1.3692  0.1544 -0.7812
  301MOL0     H41514   9.826   5.756  10.915  1.1110 -1.7106 -0.7635
  301MOL0     H41515   9.802   5.690  10.748  4.4963 -0.4123  0.3558
  301MOL0     H41516   9.819   5.463  10.830  1.3780 -0.9965 -1.1735
  301MOL0     H41517   9.814   5.523  11.005  1.9317  2.2297  1.0124
  301MOL0     H41518   9.798   5.707  11.190  0.0885 -0.4773 -0.8380
  301MOL0     H41519  10.022   5.597  11.258 -0.4655  1.2341  0.0721
  301MOL0     H41520  10.145   5.219  11.402  0.7774 -1.6203 -0.4064
  301MOL0     H41521  10.311   5.054  11.409  1.2600  1.2343 -1.0629
  301MOL0     H41522  11.225   4.555  10.206  3.0485  0.9716 -1.4889
  301MOL0     H41523  11.221   4.756  10.058  3.2972 -0.7339  0.5006
  301MOL0     H41524  11.157   5.051   9.931  1.0914 -1.1842 -0.1338
  301MOL0     H41525  11.146   5.172   9.737 -0.8451 -1.1930  0.0917
  301MOL0     H41526  11.106   5.413   9.612  0.2036  0.9274 -2.9266
  301MOL0     H41527  11.155   5.507   9.748 -1.1124 -0.4455  0.2887
  301MOL0     H41528  11.267   5.534   9.451  0.9516 -1.7235 -0.1593
  301MOL0     H41529  11.336   5.629   9.581  1.4062 -2.1674 -2.6136
  301MOL0     H41530  11.181   5.768   9.456  1.6071 -1.4434 -0.5759
  301MOL0     H41531  11.050   5.657   9.491 -0.9736 -1.3218  0.0838
  301MOL0     H41532  11.068   5.698   9.737  3.3238 -0.8194  1.1872
  301MOL0     H41533  11.042   5.855   9.654 -3.9404 -2.4149  0.8909
  301MOL0     H41534  11.411   5.948   9.823  1.5096 -1.1157 -0.7303
  301MOL0     H41535  11.490   5.418   9.836 -0.0637  0.3608  0.3456
  301MOL0     H41536  11.604   5.390  10.000 -1.8572  2.4708  0.1670
  301MOL0     H41537  11.505   5.377  10.140  0.3113 -2.2321  1.8895
  301MOL0     H41538  11.626   5.244  10.100 -0.5793 -0.6551 -0.8935
  302MOL0     O41539   7.627   8.214  11.270 -1.1350 -0.4127  0.2177
  302MOL0     C41540   7.645   8.174  11.158  1.0549  0.3711 -1.3906
  302MOL0     O41541   7.698   8.057  11.127  0.4694 -0.9525 -0.4100
  302MOL0     C41542   7.782   7.994  11.218  0.5925  0.7950  0.3705
  302MOL0     C41543   7.878   8.053  11.304 -0.2024 -0.2644 -0.6625
  302MOL0     C41544   7.957   7.972  11.383 -0.3263  0.1074 -1.0311
  302MOL0     C41545   7.952   7.830  11.373 -0.0179 -0.3627  0.1742
  302MOL0     O41546   8.049   7.747  11.430  0.4649 -0.4157  1.2298
  302MOL0     C41547   8.103   7.780  11.553 -0.3605  0.6577  0.1420
  302MOL0     C41548   8.173   7.655  11.590 -1.1041 -0.7588 -0.3130
  302MOL0     C41549   8.247   7.688  11.715 -0.0684  0.3414  0.1137
  302MOL0     C41550   8.334   7.564  11.741  0.5717 -0.4530  0.1219
  302MOL0     C41551   8.422   7.578  11.865 -0.2047  0.2960  0.4818
  302MOL0     C41552   8.356   7.509  11.979 -0.0553  0.2008 -0.0196
  302MOL0     C41553   8.405   7.365  11.978  0.7688  0.2628 -0.3249
  302MOL0     C41554   8.511   7.330  12.087 -0.0051  0.5689 -0.5556
  302MOL0     N41555   8.644   7.354  12.026 -0.6368 -0.6521 -0.1090
  302MOL0     C41556   8.698   7.476  12.026 -0.4397  0.5661  0.7807
  302MOL0     C41557   8.830   7.455  11.990 -0.6259  0.3028 -0.8191
  302MOL0     C41558   8.941   7.556  11.970 -1.1479 -0.2221 -0.4740
  302MOL0     C41559   9.004   7.546  11.833  0.2761  0.0372  2.0268
  302MOL0     C41560   9.113   7.646  11.802  0.2761  0.0329 -0.3265
  302MOL0     C41561   9.210   7.667  11.916 -0.0470 -0.5745  0.5525
  302MOL0     O41562   9.165   7.716  12.043  0.9763  0.0957  0.4396
  302MOL0     C41563   9.137   7.855  12.036  1.5087  0.1308  0.0784
  302MOL0     C41564   9.174   7.947  11.937 -0.3912  0.0343 -0.0757
  302MOL0     C41565   9.136   8.079  11.944 -0.0684 -0.1030 -1.1722
  302MOL0     C41566   9.185   8.169  11.829 -0.0109  0.8883  0.0393
  302MOL0     C41567   9.057   8.130  12.054  0.0900  0.7533 -0.1807
  302MOL0     C41568   9.002   8.266  12.070 -0.0555  0.9843  0.0966
  302MOL0     O41569   8.900   8.282  12.155  1.0202  0.5442  0.0979
  302MOL0     C41570   8.862   8.407  12.199 -0.2784  0.1299  0.9149
  302MOL0     C41571   8.951   8.485  12.270  0.3044 -0.2493 -0.2857
  302MOL0     C41572   8.913   8.608  12.324 -1.5697  0.3793  0.1755
  302MOL0     C41573   8.782   8.647  12.299  0.7268  0.1799 -0.0862
  302MOL0     O41574   8.762   8.771  12.363  0.3012 -0.1864  1.4979
  302MOL0     C41575   8.633   8.823  12.364  0.0591  0.5687  0.0658
  302MOL0     C41576   8.619   8.858  12.516 -0.7034 -1.5490 -0.0095
  302MOL0     C41577   8.487   8.934  12.557  1.0766 -0.2289  0.1265
  302MOL0     C41578   8.474   8.958  12.707  0.1474  0.1768  0.3819
  302MOL0     C41579   8.411   8.845  12.775 -0.0171 -0.2882 -0.0870
  302MOL0     C41580   8.400   8.875  12.921  0.5571  0.2336 -1.4014
  302MOL0     C41581   8.359   8.736  13.003  0.1567 -0.0987 -0.7167
  302MOL0     C41582   8.215   8.703  12.974 -0.7237  0.0843  0.3299
  302MOL0    Cl41583   8.172   8.551  13.043  0.1288 -0.2750  0.3689
  302MOL0     C41584   8.689   8.563  12.233  0.1270  0.8654 -0.6805
  302MOL0     C41585   8.729   8.447  12.180 -0.9299 -0.9419  0.0645
  302MOL0     O41586   9.081   8.351  12.035  0.1219  0.8034 -0.2581
  302MOL0     C41587   9.012   8.029  12.148  0.3930  0.0802  0.1073
  302MOL0     C41588   9.055   7.896  12.134  0.4676 -1.3616 -0.2723
  302MOL0     N41589   8.845   7.317  11.974 -0.3430  0.8779  0.4437
  302MOL0     N41590   8.730   7.259  11.992 -0.1026  0.0868  0.8958
  302MOL0     C41591   7.850   7.771  11.305  0.5756 -0.2989  0.2554
  302MOL0     C41592   7.765   7.851  11.220 -0.0213  0.2032 -0.1959
  302MOL0     C41593   7.586   8.249  11.047  0.5482 -0.4175  0.4874
  302MOL0     C41594   7.447   8.226  11.030 -0.8114 -0.0220 -0.5606
  302MOL0     C41595   7.366   8.285  10.940  0.0216  0.0739  0.6723
  302MOL0     C41596   7.436   8.348  10.835  0.0538  0.7196  0.0870
  302MOL0     O41597   7.378   8.396  10.723 -0.1094 -0.7219  0.7136
  302MOL0     C41598   7.249   8.344  10.677  0.7131 -0.1101  1.3846
  302MOL0     C41599   7.259   8.199  10.645 -0.5853 -0.1546  0.9785
  302MOL0     C41600   7.196   8.152  10.512  0.5508  1.1862  0.3457
  302MOL0     C41601   7.051   8.174  10.518  0.2280 -1.1050 -0.3550
  302MOL0     C41602   6.975   8.114  10.409 -0.5481  0.3481 -0.1273
  302MOL0     C41603   6.907   8.068  10.324 -0.5255 -0.7240  0.8655
  302MOL0     C41604   7.581   8.365  10.845 -0.7652  0.0761 -0.0998
  302MOL0     C41605   7.654   8.330  10.958 -0.7199  0.8855  0.4306
  302MOL0     C41606   7.803   8.354  10.962  0.0611  0.1549 -0.8002
  302MOL0     H41607   7.885   8.162  11.308  0.2827 -0.3202  0.5287
  302MOL0     H41608   8.040   8.016  11.438  0.8147 -1.9364 -1.0129
  302MOL0     H41609   8.027   7.797  11.630  0.0473  0.3341  0.6271
  302MOL0     H41610   8.177   7.861  11.557 -0.7093  1.0403 -0.9979
  302MOL0     H41611   8.113   7.565  11.605 -0.4318 -0.9310  1.4583
  302MOL0     H41612   8.245   7.640  11.509 -0.6454  0.8612 -0.2401
  302MOL0     H41613   8.316   7.773  11.722  2.5079 -1.7837  2.8515
  302MOL0     H41614   8.168   7.691  11.790 -0.7677 -1.7819 -0.4677
  302MOL0     H41615   8.263   7.482  11.749  0.3807 -0.1910  1.2614
  302MOL0     H41616   8.399   7.542  11.656 -0.2575 -0.5838 -0.4915
  302MOL0     H41617   8.416   7.681  11.902  2.5991  0.6773  0.0514
  302MOL0     H41618   8.519   7.541  11.830 -0.9619 -0.4102 -0.9870
  302MOL0     H41619   8.378   7.558  12.074  0.5780  0.2255 -0.1769
  302MOL0     H41620   8.247   7.506  11.966 -0.0383 -1.7737 -0.0037
  302MOL0     H41621   8.437   7.338  11.877 -1.6648  1.4304 -1.5172
  302MOL0     H41622   8.321   7.302  12.010  1.7921  0.2984  2.8062
  302MOL0     H41623   8.495   7.397  12.172  1.7168 -0.3103  0.5042
  302MOL0     H41624   8.513   7.234  12.139  0.1820  1.7807  1.8340
  302MOL0     H41625   8.650   7.572  12.033 -1.5790  0.0930 -0.1321
  302MOL0     H41626   9.009   7.537  12.053 -0.4413 -0.4151 -1.0880
  302MOL0     H41627   8.891   7.653  11.983 -2.1251 -0.2008 -3.5067
  302MOL0     H41628   9.040   7.443  11.822  0.9803 -0.1257  4.8995
  302MOL0     H41629   8.926   7.560  11.758  0.8553 -0.6214  1.2846
  302MOL0     H41630   9.157   7.614  11.707  1.2468  0.0526  0.1038
  302MOL0     H41631   9.064   7.743  11.792  0.2398  0.0326 -0.1487
  302MOL0     H41632   9.249   7.566  11.929  0.6512 -0.3462  0.2984
  302MOL0     H41633   9.296   7.722  11.877  1.6357 -2.9313  0.7135
  302MOL0     H41634   9.230   7.909  11.853  2.2599 -1.3275  2.1225
  302MOL0     H41635   9.268   8.237  11.850  1.0100 -0.3660  0.2022
  302MOL0     H41636   9.104   8.223  11.779 -0.2189 -0.2583 -0.9205
  302MOL0     H41637   9.225   8.105  11.749 -1.3527  1.0385 -0.7877
  302MOL0     H41638   9.053   8.449  12.277  0.1666 -0.3948  1.4629
  302MOL0     H41639   8.988   8.661  12.381 -0.5267 -0.3409 -0.5062
  302MOL0     H41640   8.620   8.908  12.296 -0.9616  1.1259  0.9269
  302MOL0     H41641   8.559   8.745  12.344  1.3401 -0.5016 -0.6335
  302MOL0     H41642   8.628   8.769  12.580 -0.1425 -0.5035  1.4235
  302MOL0     H41643   8.710   8.912  12.544 -1.6534  2.5586 -3.7904
  302MOL0     H41644   8.394   8.882  12.533  1.3963 -0.9355  0.3967
  302MOL0     H41645   8.480   9.028  12.501  2.9283 -0.2588 -0.2138
  302MOL0     H41646   8.414   9.047  12.727  1.1068  0.2386  3.4905
  302MOL0     H41647   8.576   8.967  12.746  0.1966  0.2201  0.2429
  302MOL0     H41648   8.309   8.821  12.744 -0.7134  3.7134 -1.5303
  302MOL0     H41649   8.475   8.756  12.776  0.9546  0.3091  3.2708
  302MOL0     H41650   8.330   8.953  12.950 -2.9517 -2.3179 -2.3392
  302MOL0     H41651   8.498   8.910  12.954  0.1625  2.4997 -2.4325
  302MOL0     H41652   8.375   8.756  13.110  0.1222 -3.8762  0.1445
  302MOL0     H41653   8.425   8.652  12.984  2.2010  0.8088  1.8178
  302MOL0     H41654   8.191   8.724  12.870  1.5741  2.1051  0.1345
  302MOL0     H41655   8.162   8.784  13.024  1.6545  3.2525 -1.8696
  302MOL0     H41656   8.585   8.593  12.222 -0.8161 -1.5637  0.8395
  302MOL0     H41657   8.658   8.380  12.133 -2.3009  1.4775 -1.5068
  302MOL0     H41658   8.939   8.029  12.228 -0.9787 -2.3427 -1.0250
  302MOL0     H41659   9.017   7.831  12.212  1.4167  1.6161  2.9606
  302MOL0     H41660   7.816   7.669  11.322 -3.5110  0.8265 -0.2493
  302MOL0     H41661   7.689   7.814  11.152 -0.0626  3.1996 -1.9720
  302MOL0     H41662   7.388   8.164  11.097 -0.1906  0.9467  0.9495
  302MOL0     H41663   7.258   8.277  10.947  0.1940 -4.3078  1.1626
  302MOL0     H41664   7.166   8.370  10.744  1.0170  0.1135  1.6750
  302MOL0     H41665   7.214   8.387  10.582  0.1110 -2.7952  0.3178
  302MOL0     H41666   7.212   8.145  10.727 -0.5321 -1.0329  0.4380
  302MOL0     H41667   7.361   8.159  10.643 -2.0307 -4.3277 -0.8436
  302MOL0     H41668   7.213   8.219  10.427 -2.7814  1.4855 -0.2489
  302MOL0     H41669   7.221   8.046  10.505 -3.0396  0.1712  0.4996
  302MOL0     H41670   7.031   8.281  10.528  1.1569 -1.0199  0.8746
  302MOL0     H41671   7.020   8.137  10.617  1.3615 -4.5108 -1.1329
  302MOL0     H41672   6.839   8.034  10.249 -0.6702 -3.1748  2.0073
  302MOL0     H41673   7.633   8.410  10.761 -2.5440 -1.1589 -1.9711
  302MOL0     H41674   7.822   8.429  11.039 -1.2908  1.0594 -1.3109
  302MOL0     H41675   7.859   8.264  10.990  0.3867  0.4496 -0.4980
  302MOL0     H41676   7.839   8.392  10.866  3.0846 -3.0364 -1.1312
  303MOL0     O41677   6.638   2.999   1.819 -0.5491 -0.3537 -0.4113
  303MOL0     C41678   6.695   2.944   1.916 -0.4365  0.2604 -0.0601
  303MOL0     O41679   6.832   2.951   1.953  1.4085  0.3539  0.1126
  303MOL0     C41680   6.903   3.038   1.872 -0.2668  0.0413  0.4162
  303MOL0     C41681   6.870   3.174   1.851 -0.1055  0.4430 -0.0855
  303MOL0     C41682   6.968   3.256   1.770  1.1247  0.8084  0.7828
  303MOL0     C41683   7.093   3.192   1.731  0.4060 -0.4878 -0.9767
  303MOL0     O41684   7.184   3.259   1.662  0.5248 -0.1938  0.0360
  303MOL0     C41685   7.226   3.376   1.735  0.0172 -0.1561  0.3671
  303MOL0     C41686   7.338   3.339   1.833  0.1450 -0.2873  0.2118
  303MOL0     C41687   7.448   3.252   1.770  1.0191  0.1204  0.4192
  303MOL0     C41688   7.589   3.314   1.760  0.8626  0.9499  0.1054
  303MOL0     C41689   7.698   3.215   1.704  0.0950  0.2595 -0.3284
  303MOL0     C41690   7.830   3.282   1.681 -0.3704  0.1956 -0.2434
  303MOL0     C41691   7.931   3.189   1.620  0.7191 -0.6723  0.2549
  303MOL0     C41692   8.029   3.117   1.712 -0.1011  0.1835 -0.6299
  303MOL0     N41693   7.966   3.111   1.853  0.5231  1.2940  0.8214
  303MOL0     C41694   7.973   3.204   1.951  0.0202  0.3434 -0.8164
  303MOL0     C41695   7.905   3.148   2.058 -0.3279  0.2599 -0.3709
  303MOL0     C41696   7.878   3.214   2.190  0.9327  0.3961 -0.0471
  303MOL0     C41697   7.744   3.285   2.194  0.7500  0.3983 -0.3626
  303MOL0     C41698   7.626   3.195   2.239  0.3420 -0.3481 -0.9608
  303MOL0     C41699   7.507   3.287   2.278 -0.0867 -0.0492  0.6862
  303MOL0     O41700   7.436   3.324   2.154  0.5016  0.2748  0.1475
  303MOL0     C41701   7.374   3.442   2.166 -0.5295  0.8307  0.3608
  303MOL0     C41702   7.239   3.430   2.190 -0.3276 -0.0218 -0.1968
  303MOL0     C41703   7.176   3.552   2.231 -0.1249  0.0231 -0.1565
  303MOL0     C41704   7.037   3.525   2.281  0.5316  0.7011 -0.5891
  303MOL0     C41705   7.243   3.677   2.231 -0.9451 -0.8518  0.2536
  303MOL0     C41706   7.172   3.806   2.244 -0.1772  0.4469 -0.3077
  303MOL0     O41707   7.035   3.798   2.256  1.1825  0.0873 -0.6249
  303MOL0     C41708   6.959   3.910   2.285  0.2410  0.3510 -0.2190
  303MOL0     C41709   6.855   3.933   2.195 -0.1594 -0.4711 -0.6764
  303MOL0     C41710   6.772   4.050   2.210 -0.2031  1.1127  0.3745
  303MOL0     C41711   6.783   4.124   2.324 -0.6287 -0.3370  0.9224
  303MOL0     O41712   6.707   4.241   2.334  0.1142  0.7249  0.5205
  303MOL0     C41713   6.676   4.291   2.466  0.0697  0.2739 -0.8270
  303MOL0     C41714   6.545   4.373   2.445 -0.0316 -0.4864 -0.7425
  303MOL0     C41715   6.486   4.427   2.580 -0.5230 -0.1388 -1.0018
  303MOL0     C41716   6.341   4.490   2.547 -1.7811  0.2600  0.2481
  303MOL0     C41717   6.289   4.582   2.651 -0.6113 -0.1327 -0.4978
  303MOL0     C41718   6.280   4.511   2.781  1.1563  0.5939  0.5453
  303MOL0     C41719   6.268   4.613   2.894  0.1416 -0.2280 -0.2844
  303MOL0     C41720   6.409   4.687   2.922  0.6834  0.5989  0.0321
  303MOL0    Cl41721   6.547   4.565   2.944 -0.4433  0.3066  0.2631
  303MOL0     C41722   6.877   4.096   2.420 -1.4573 -0.6002  0.2733
  303MOL0     C41723   6.965   3.986   2.406  0.3103  0.0782  0.6911
  303MOL0     O41724   7.236   3.911   2.256 -0.8606 -0.2249 -0.1586
  303MOL0     C41725   7.381   3.681   2.206  0.2356 -0.4512 -0.3217
  303MOL0     C41726   7.448   3.562   2.174 -0.5313 -0.1201  0.7149
  303MOL0     N41727   7.873   3.022   2.029 -0.2127 -0.4384  0.1967
  303MOL0     N41728   7.896   3.002   1.901  0.4995 -0.0411  0.0776
  303MOL0     C41729   7.122   3.064   1.773  0.5249  0.1483  1.3484
  303MOL0     C41730   7.019   2.980   1.822  0.3751  1.1878 -1.0751
  303MOL0     C41731   6.630   2.837   1.993 -0.1967 -0.5240 -0.1225
  303MOL0     C41732   6.670   2.833   2.130 -0.2078  0.2617  0.4868
  303MOL0     C41733   6.630   2.725   2.209 -0.2224  0.2885  1.1561
  303MOL0     C41734   6.530   2.638   2.167 -0.4127  0.8093  0.9772
  303MOL0     O41735   6.468   2.536   2.241  0.0293 -0.3499  0.0998
  303MOL0     C41736   6.329   2.543   2.266  0.0499 -0.8204  0.8135
  303MOL0     C41737   6.280   2.458   2.380 -0.3795 -0.2644  0.3307
  303MOL0     C41738   6.301   2.512   2.522 -0.3752 -0.0396 -0.9406
  303MOL0     C41739   6.451   2.493   2.576 -0.3020  0.2482 -0.2320
  303MOL0     C41740   6.465   2.550   2.709 -0.7268 -0.3413  0.0305
  303MOL0     C41741   6.489   2.599   2.817  0.3601 -0.2319  0.0596
  303MOL0     C41742   6.480   2.658   2.038  0.7963  0.9878 -0.2495
  303MOL0     C41743   6.530   2.748   1.957  0.0336 -0.8574  0.6780
  303MOL0     C41744   6.472   2.739   1.813 -0.5389  0.3865  0.0924
  303MOL0     H41745   6.774   3.221   1.873 -0.6892 -0.8503  0.2521
  303MOL0     H41746   6.964   3.362   1.751  0.9135  0.6871  0.0990
  303MOL0     H41747   7.148   3.433   1.786  1.5373  0.9250  1.5779
  303MOL0     H41748   7.275   3.449   1.669 -0.4172  0.6846  0.9607
  303MOL0     H41749   7.393   3.427   1.869  0.4157 -0.5270  0.3953
  303MOL0     H41750   7.309   3.277   1.918  0.1283  0.2328  0.5901
  303MOL0     H41751   7.447   3.153   1.816  1.7371 -1.1000 -1.9885
  303MOL0     H41752   7.412   3.229   1.669 -0.7851  2.5519  0.4183
  303MOL0     H41753   7.579   3.404   1.698 -3.0126  1.1204  0.7305
  303MOL0     H41754   7.614   3.350   1.860 -1.7272 -3.7426  2.7858
  303MOL0     H41755   7.662   3.188   1.604  1.3218  2.4124 -1.4110
  303MOL0     H41756   7.705   3.124   1.765  0.4202 -2.7889 -4.4745
  303MOL0     H41757   7.820   3.367   1.612 -1.3443 -0.1620 -0.5702
  303MOL0     H41758   7.868   3.325   1.774  1.0028 -1.6464  0.0899
  303MOL0     H41759   7.999   3.251   1.562 -1.1256  0.6741 -0.5674
  303MOL0     H41760   7.881   3.127   1.544  1.7047 -1.6158  0.3558
  303MOL0     H41761   8.058   3.015   1.685  0.2692 -0.1638  0.9642
  303MOL0     H41762   8.120   3.177   1.708  0.3313 -0.4481 -0.4400
  303MOL0     H41763   8.011   3.305   1.954 -2.0095  1.2181  3.1067
  303MOL0     H41764   7.951   3.290   2.219 -0.7793  2.0983  0.0245
  303MOL0     H41765   7.881   3.134   2.264 -1.4146 -0.0702 -0.3640
  303MOL0     H41766   7.749   3.370   2.263  3.4151 -0.2583  0.3809
  303MOL0     H41767   7.720   3.323   2.094  0.2841 -1.4850 -0.9994
  303MOL0     H41768   7.597   3.127   2.159 -0.6258 -0.2845 -0.6723
  303MOL0     H41769   7.644   3.126   2.322 -1.8067  3.0653  2.7121
  303MOL0     H41770   7.440   3.228   2.341 -0.6656 -1.2994 -0.9924
  303MOL0     H41771   7.540   3.373   2.336  0.1613  0.4275 -0.1461
  303MOL0     H41772   7.178   3.341   2.177  0.8168 -1.3720  2.8023
  303MOL0     H41773   7.026   3.421   2.314  4.4709 -0.0806 -1.2076
  303MOL0     H41774   6.967   3.538   2.198 -0.7543 -2.4755 -0.1378
  303MOL0     H41775   6.997   3.583   2.365  3.5644 -1.2566  2.4742
  303MOL0     H41776   6.833   3.880   2.103  1.4505 -0.9152 -0.8279
  303MOL0     H41777   6.698   4.081   2.136 -0.9418  1.4511  1.2382
  303MOL0     H41778   6.654   4.215   2.541 -1.2448  1.5975  0.2014
  303MOL0     H41779   6.760   4.352   2.501  0.6625 -0.6646 -0.5859
  303MOL0     H41780   6.567   4.460   2.382  1.4093  0.7987  1.4024
  303MOL0     H41781   6.470   4.310   2.396  0.6521 -2.3352  0.5118
  303MOL0     H41782   6.556   4.500   2.622 -1.2375  0.3458 -0.6294
  303MOL0     H41783   6.476   4.344   2.652  4.1901 -2.9772 -3.1061
  303MOL0     H41784   6.272   4.405   2.547  2.1939 -3.4606 -2.9876
  303MOL0     H41785   6.338   4.524   2.443  2.3706 -0.0241 -0.1634
  303MOL0     H41786   6.358   4.665   2.670  2.5443 -2.5739 -0.4933
  303MOL0     H41787   6.190   4.619   2.623 -0.1761 -0.0667 -2.0193
  303MOL0     H41788   6.371   4.451   2.796  1.6275  1.0833 -0.3178
  303MOL0     H41789   6.193   4.444   2.788  1.0943  0.6316  0.1504
  303MOL0     H41790   6.239   4.551   2.979 -1.2177  1.0067  0.1875
  303MOL0     H41791   6.179   4.676   2.884 -1.8884 -2.3419  2.7159
  303MOL0     H41792   6.390   4.749   3.010 -1.0673  0.3681 -0.1630
  303MOL0     H41793   6.445   4.757   2.845 -0.0601  1.6362  0.5995
  303MOL0     H41794   6.883   4.139   2.520 -1.0550 -2.0299  0.8992
  303MOL0     H41795   7.033   3.970   2.490 -0.6933  1.0604  1.7381
  303MOL0     H41796   7.428   3.779   2.201  0.3594 -0.5650 -2.3492
  303MOL0     H41797   7.551   3.561   2.140 -1.1914  0.4551 -1.4678
  303MOL0     H41798   7.215   3.018   1.743 -1.5088 -1.3305 -3.7420
  303MOL0     H41799   7.030   2.872   1.817  0.2792  0.9056  2.2360
  303MOL0     H41800   6.745   2.900   2.169  1.8620  0.6115 -3.5497
  303MOL0     H41801   6.659   2.712   2.312  2.0324  2.7190  0.9357
  303MOL0     H41802   6.307   2.649   2.285 -3.1050 -1.1217 -0.5206
  303MOL0     H41803   6.273   2.507   2.179  3.0530  1.0817 -2.1506
  303MOL0     H41804   6.329   2.361   2.369  0.3379  0.1479 -0.1306
  303MOL0     H41805   6.176   2.424   2.375 -1.5545  3.2350 -2.0693
  303MOL0     H41806   6.291   2.621   2.520  2.2041  0.2631 -1.3668
  303MOL0     H41807   6.231   2.462   2.590 -1.6872  4.1162  1.1208
  303MOL0     H41808   6.525   2.542   2.513  0.2744  0.6581  0.7327
  303MOL0     H41809   6.500   2.395   2.566  1.4401  1.3371 -3.9021
  303MOL0     H41810   6.501   2.635   2.918 -1.3448 -0.6142  0.4190
  303MOL0     H41811   6.396   2.595   2.009  0.9955  1.1688 -1.2526
  303MOL0     H41812   6.533   2.780   1.732 -1.5394 -0.3498 -1.0504
  303MOL0     H41813   6.450   2.636   1.786  1.5881  0.3528 -1.8234
  303MOL0     H41814   6.380   2.797   1.808 -0.6543  0.1883 -0.0706
  304MOL0     O41815   2.858   8.369  10.715  0.1845 -0.3343 -0.3117
  304MOL0     C41816   2.874   8.380  10.840  1.9331  0.1038  0.1137
  304MOL0     O41817   2.798   8.321  10.937 -0.0126 -0.8975 -0.2819
  304MOL0     C41818   2.681   8.268  10.916 -0.2352 -0.0129  0.4903
  304MOL0     C41819   2.615   8.225  11.025 -0.1317 -0.7956 -0.0425
  304MOL0     C41820   2.487   8.157  11.030 -0.1871 -0.3474 -0.1487
  304MOL0     C41821   2.426   8.127  10.912 -1.0057  0.3146 -0.6099
  304MOL0     O41822   2.309   8.070  10.924  0.3885 -0.0236  0.4075
  304MOL0     C41823   2.232   8.090  10.808  0.2579  0.3462 -0.5836
  304MOL0     C41824   2.077   8.087  10.825 -0.5901 -0.1660 -0.1328
  304MOL0     C41825   2.024   7.940  10.824 -0.5393 -0.2944  0.2404
  304MOL0     C41826   1.872   7.950  10.852 -0.7203  0.1798  0.1810
  304MOL0     C41827   1.807   7.808  10.850  0.0025  0.4701 -0.6794
  304MOL0     C41828   1.814   7.717  10.729 -0.1256  0.9535  0.4926
  304MOL0     C41829   1.706   7.607  10.733 -0.6662 -0.5916 -0.3022
  304MOL0     C41830   1.680   7.505  10.610 -0.7456  0.1964  0.1346
  304MOL0     N41831   1.594   7.401  10.652 -0.5966 -0.1159 -0.1874
  304MOL0     C41832   1.461   7.407  10.650 -0.1990  0.7854 -0.1462
  304MOL0     C41833   1.429   7.312  10.739 -0.6701 -0.0757  0.1574
  304MOL0     C41834   1.290   7.275  10.782 -1.0464  0.4884 -0.0197
  304MOL0     C41835   1.243   7.162  10.684  0.2289  0.0206 -0.2015
  304MOL0     C41836   1.106   7.113  10.712  0.7238 -0.1101 -1.2102
  304MOL0     C41837   1.041   7.027  10.602 -0.0215 -0.1162  0.1543
  304MOL0     O41838   0.900   7.071  10.601  0.0018 -0.3031  0.0671
  304MOL0     C41839   0.809   6.987  10.535  0.5668 -0.2276  0.6207
  304MOL0     C41840   0.675   7.015  10.563  0.4088 -0.3896  0.2821
  304MOL0     C41841   0.569   6.949  10.496  1.4530  0.3432  0.7033
  304MOL0     C41842   0.430   6.996  10.534  1.2938  0.4279 -0.3506
  304MOL0     C41843   0.595   6.861  10.386 -0.9798  0.7142 -0.0838
  304MOL0     C41844   0.494   6.792  10.309  0.8468  0.3530 -0.4270
  304MOL0     O41845   0.547   6.700  10.219  0.5264 -0.1046  0.4100
  304MOL0     C41846   0.474   6.596  10.172  0.5481 -0.1084 -0.1703
  304MOL0     C41847   0.334   6.572  10.175  0.6920 -0.3727  0.4177
  304MOL0     C41848   0.269   6.454  10.126 -0.1414 -1.0964 -0.9278
  304MOL0     C41849   0.354   6.354  10.082 -0.2404  0.4363 -1.1768
  304MOL0     O41850   0.298   6.241  10.046  0.2478  0.5500 -0.1529
  304MOL0     C41851   0.341   6.130  10.119 -0.3431  0.7638  0.1078
  304MOL0     C41852   0.264   6.006  10.063  0.0867  0.0778 -0.6197
  304MOL0     C41853   0.114   6.037  10.030  0.6257 -0.4293 -0.6475
  304MOL0     C41854   0.026   6.052  10.160 -0.3106 -0.0672 -0.0103
  304MOL0     C41855  -0.122   6.077  10.134  0.2639  0.5793 -0.2330
  304MOL0     C41856  -0.217   6.008  10.234 -0.1378 -0.7681 -0.0247
  304MOL0     C41857  -0.353   6.078  10.239  0.1761  0.0409 -0.1395
  304MOL0     C41858  -0.452   6.020  10.338 -0.2953 -0.4489  0.6476
  304MOL0    Cl41859  -0.505   5.856  10.270 -0.0896  0.1664 -0.0863
  304MOL0     C41860   0.501   6.375  10.080  0.1759  0.3595  0.6612
  304MOL0     C41861   0.550   6.494  10.120  0.4043  0.1377  0.8437
  304MOL0     O41862   0.376   6.800  10.351 -0.2964  0.2107  0.0671
  304MOL0     C41863   0.737   6.836  10.359 -0.0467  0.2475  0.1164
  304MOL0     C41864   0.835   6.882  10.443  0.6308 -0.3350  0.2981
  304MOL0     N41865   1.539   7.245  10.791  0.0556  1.3086  0.5519
  304MOL0     N41866   1.639   7.306  10.737  0.4631  0.5894  0.3890
  304MOL0     C41867   2.492   8.174  10.793 -0.4589  0.0015 -0.3594
  304MOL0     C41868   2.614   8.241  10.801  0.1720  0.4994 -0.2304
  304MOL0     C41869   2.968   8.479  10.885 -0.1597  0.5313  0.0749
  304MOL0     C41870   3.057   8.524  10.792  0.7620 -0.2081  1.0818
  304MOL0     C41871   3.144   8.627  10.816 -0.5481  0.8872 -0.7491
  304MOL0     C41872   3.140   8.685  10.938  1.1014  0.0612 -0.0060
  304MOL0     O41873   3.224   8.785  10.974 -0.2636 -0.1524  0.2080
  304MOL0     C41874   3.278   8.879  10.876  0.8132 -0.2055  0.3291
  304MOL0     C41875   3.280   9.023  10.913 -0.2044  0.8714 -0.3578
  304MOL0     C41876   3.147   9.078  10.949  1.5143 -0.3167  0.3847
  304MOL0     C41877   3.056   9.117  10.833 -0.7868  0.6319 -0.7503
  304MOL0     C41878   3.103   9.241  10.759  0.1111  0.5415 -0.1166
  304MOL0     C41879   3.138   9.345  10.720  0.5758  0.0876 -0.1584
  304MOL0     C41880   3.056   8.643  11.040  0.1807 -0.2668 -0.1979
  304MOL0     C41881   2.969   8.533  11.014  0.0380 -0.7039 -0.0665
  304MOL0     C41882   2.894   8.502  11.130  0.9497  0.0751  0.6689
  304MOL0     H41883   2.671   8.251  11.114 -1.5973  0.9997  0.4021
  304MOL0     H41884   2.454   8.129  11.129  0.1334  0.8950  0.3321
  304MOL0     H41885   2.266   8.013  10.739  1.6162  1.0755 -0.7554
  304MOL0     H41886   2.253   8.188  10.765  1.7323  0.5051  0.4182
  304MOL0     H41887   2.059   8.147  10.914  0.5327 -1.2366  0.8471
  304MOL0     H41888   2.023   8.126  10.738  0.6137  0.1816 -0.7484
  304MOL0     H41889   2.030   7.894  10.725 -0.2119  0.6763 -0.2073
  304MOL0     H41890   2.063   7.877  10.905  2.7201  0.6368 -0.4738
  304MOL0     H41891   1.861   7.999  10.950 -1.1060  1.2792 -0.4019
  304MOL0     H41892   1.817   8.011  10.781  0.6319 -0.0257 -1.0865
  304MOL0     H41893   1.703   7.826  10.880 -0.0442  0.3842 -0.7925
  304MOL0     H41894   1.851   7.755  10.935 -0.8617 -2.3444 -1.8920
  304MOL0     H41895   1.811   7.779  10.640  2.5982 -0.8743 -1.0059
  304MOL0     H41896   1.911   7.668  10.728  0.2694  1.7399 -0.5061
  304MOL0     H41897   1.611   7.655  10.758 -0.3552 -0.0952 -0.0434
  304MOL0     H41898   1.716   7.541  10.819  0.8934 -0.4754 -0.3510
  304MOL0     H41899   1.640   7.562  10.526  0.4699  0.0214 -0.5821
  304MOL0     H41900   1.773   7.458  10.578 -1.2705 -0.1507 -0.9147
  304MOL0     H41901   1.398   7.479  10.599 -0.6973  1.1415  0.9452
  304MOL0     H41902   1.221   7.360  10.771  1.8122  2.6102 -3.9837
  304MOL0     H41903   1.280   7.231  10.882 -0.4696 -0.2443 -0.2789
  304MOL0     H41904   1.264   7.201  10.584  0.4463  0.0062 -0.1627
  304MOL0     H41905   1.299   7.070  10.703 -1.7609 -0.8423  1.9295
  304MOL0     H41906   1.114   7.058  10.807  2.4458 -1.6011 -2.1499
  304MOL0     H41907   1.043   7.196  10.745  0.7504 -0.7911  0.6837
  304MOL0     H41908   1.084   7.023  10.501 -0.6063  4.0919 -0.4627
  304MOL0     H41909   1.036   6.923  10.634  1.0640 -0.5805 -1.0955
  304MOL0     H41910   0.648   7.088  10.639 -3.3090  0.3507 -1.5239
  304MOL0     H41911   0.442   7.071  10.613 -2.3025  0.4834  0.3172
  304MOL0     H41912   0.369   6.914  10.572 -1.0360  0.2083 -4.1213
  304MOL0     H41913   0.375   7.038  10.449 -0.1424 -2.6436 -1.0820
  304MOL0     H41914   0.269   6.655  10.201  0.0879 -0.5291 -0.5521
  304MOL0     H41915   0.161   6.444  10.114 -0.0745 -2.3813 -0.5466
  304MOL0     H41916   0.447   6.111  10.097 -0.6225 -1.4516  0.4551
  304MOL0     H41917   0.332   6.138  10.227  0.8208  0.9659  0.2074
  304MOL0     H41918   0.320   5.974   9.974 -0.5964  0.2691 -1.1356
  304MOL0     H41919   0.276   5.932  10.143  2.6455  2.2718  1.1822
  304MOL0     H41920   0.065   5.951   9.984  1.6925 -1.5339  0.2138
  304MOL0     H41921   0.112   6.122   9.961  3.4107 -1.0398 -1.5810
  304MOL0     H41922   0.067   6.133  10.222 -0.0875  0.1509 -0.4437
  304MOL0     H41923   0.037   5.958  10.214  0.1807  1.1213  2.0905
  304MOL0     H41924  -0.132   6.184  10.151  2.9529  1.3335 -2.5778
  304MOL0     H41925  -0.163   6.039  10.040  0.8880 -2.1520  0.4927
  304MOL0     H41926  -0.172   6.016  10.333 -1.9799 -2.4045  1.0105
  304MOL0     H41927  -0.236   5.900  10.222  0.9280 -1.4102  3.1944
  304MOL0     H41928  -0.399   6.079  10.140  0.5294 -0.2023 -0.3081
  304MOL0     H41929  -0.342   6.177  10.286 -1.6885 -0.0273  0.5372
  304MOL0     H41930  -0.539   6.086  10.340 -0.0830 -0.1258 -0.1577
  304MOL0     H41931  -0.433   6.011  10.445 -2.1003  1.5237  1.2104
  304MOL0     H41932   0.562   6.305  10.026  0.8007  0.1774  1.5868
  304MOL0     H41933   0.653   6.525  10.106 -0.0777  0.7131 -2.0670
  304MOL0     H41934   0.757   6.756  10.289 -2.8807 -0.6605  0.2153
  304MOL0     H41935   0.937   6.847  10.433  0.1352 -1.4819 -1.2130
  304MOL0     H41936   2.451   8.165  10.693  2.8553 -1.3689 -1.7422
  304MOL0     H41937   2.645   8.287  10.708 -2.7801  2.5504 -0.3579
  304MOL0     H41938   3.078   8.470  10.700  0.3997 -0.8531  1.3756
  304MOL0     H41939   3.221   8.645  10.743  1.9191 -1.5426  1.0391
  304MOL0     H41940   3.379   8.842  10.857  0.3457 -1.9563  1.0154
  304MOL0     H41941   3.230   8.872  10.778  0.9907  0.0324  0.2248
  304MOL0     H41942   3.332   9.083  10.838 -0.3402  2.3587  0.6936
  304MOL0     H41943   3.344   9.023  11.001  2.8271 -0.1382 -2.3737
  304MOL0     H41944   3.079   9.012  11.003  1.0675 -0.7076 -0.6323
  304MOL0     H41945   3.163   9.167  11.011 -3.4132  0.2497  1.2651
  304MOL0     H41946   2.957   9.140  10.873 -1.2066 -0.5772 -1.0557
  304MOL0     H41947   3.049   9.034  10.762 -0.1671  1.5886 -1.9541
  304MOL0     H41948   3.173   9.437  10.678  3.6720  1.5476  4.7699
  304MOL0     H41949   3.053   8.703  11.130 -1.5139 -1.2088  0.4180
  304MOL0     H41950   2.786   8.507  11.110  1.2582 -1.0313 -1.5554
  304MOL0     H41951   2.911   8.396  11.151  2.6485  0.2207  0.1164
  304MOL0     H41952   2.925   8.565  11.214 -1.6539  1.2198  0.8786
  305MOL0     O41953  10.940   2.172   0.106 -0.1123  0.1077  0.6521
  305MOL0     C41954  11.039   2.195   0.035 -0.3798  0.4828 -0.3975
  305MOL0     O41955  11.155   2.228   0.083 -0.4621 -0.6539 -0.1346
  305MOL0     C41956  11.192   2.198   0.209 -0.8246 -0.1818 -0.6866
  305MOL0     C41957  11.136   2.238   0.329  0.0263  1.5153  0.1316
  305MOL0     C41958  11.197   2.195   0.448  0.0184 -0.9918  0.0318
  305MOL0     C41959  11.326   2.136   0.452  0.3222 -0.0426  0.1736
  305MOL0     O41960  11.403   2.116   0.568 -0.6486  0.3140  0.0807
  305MOL0     C41961  11.340   2.132   0.694 -0.3246 -0.2454 -0.3681
  305MOL0     C41962  11.418   2.064   0.805  0.7726 -0.4308  0.1332
  305MOL0     C41963  11.566   2.115   0.809  0.5795 -0.0066  0.4193
  305MOL0     C41964  11.572   2.255   0.870 -0.1032 -0.2515 -0.8293
  305MOL0     C41965  11.545   2.272   1.020 -0.0699 -0.3653  0.4524
  305MOL0     C41966  11.545   2.419   1.070 -1.2115  0.2564  0.1695
  305MOL0     C41967  11.453   2.520   1.008  0.7087  0.2812 -0.1822
  305MOL0     C41968  11.464   2.655   1.077  0.1402  0.5194 -0.4647
  305MOL0     N41969  11.581   2.717   1.037 -0.8693 -0.4969 -0.3440
  305MOL0     C41970  11.613   2.763   0.907  1.0573  0.7301 -1.1131
  305MOL0     C41971  11.752   2.781   0.904  1.1770 -0.7881  0.2842
  305MOL0     C41972  11.848   2.804   0.785  0.4944 -0.0873 -0.0819
  305MOL0     C41973  11.993   2.781   0.829 -1.7035  0.9410  0.0144
  305MOL0     C41974  12.022   2.633   0.865 -0.0265 -0.0157 -0.4076
  305MOL0     C41975  12.153   2.622   0.954  0.3230  0.2092 -0.6291
  305MOL0     O41976  12.190   2.490   0.986  0.6727 -0.0756 -0.2317
  305MOL0     C41977  12.105   2.413   1.062  0.0959 -0.8548  0.2066
  305MOL0     C41978  12.121   2.275   1.058 -0.4282 -0.0294  0.1481
  305MOL0     C41979  12.031   2.190   1.115  0.4527  0.5618 -0.2420
  305MOL0     C41980  12.040   2.034   1.085  0.4779  0.5664 -0.4525
  305MOL0     C41981  11.918   2.241   1.189  0.0897  0.6759 -0.1021
  305MOL0     C41982  11.808   2.148   1.250 -0.0895  0.9262  0.4338
  305MOL0     O41983  11.783   2.032   1.188 -0.4426  0.0470 -0.0945
  305MOL0     C41984  11.726   1.925   1.254  1.4947  0.3085  0.8097
  305MOL0     C41985  11.659   1.827   1.177  0.8268 -0.7561  0.4860
  305MOL0     C41986  11.601   1.716   1.228 -0.4550 -0.3102 -0.1956
  305MOL0     C41987  11.619   1.690   1.360  0.3186 -0.2885  0.2488
  305MOL0     O41988  11.557   1.573   1.402 -0.0496 -0.1090 -0.1416
  305MOL0     C41989  11.537   1.539   1.542  0.2432 -0.4506 -0.0480
  305MOL0     C41990  11.485   1.397   1.565 -0.7673  0.1852 -0.6169
  305MOL0     C41991  11.473   1.352   1.713 -0.6022 -0.2140 -0.0745
  305MOL0     C41992  11.433   1.205   1.740 -0.8697 -0.1681 -0.2675
  305MOL0     C41993  11.398   1.202   1.886 -0.1234  0.1538 -0.3185
  305MOL0     C41994  11.412   1.061   1.939 -0.2552  0.6467 -0.0767
  305MOL0     C41995  11.387   1.047   2.091 -1.0448 -0.1751 -0.2923
  305MOL0     C41996  11.234   1.034   2.112 -0.0948  0.8898 -0.9476
  305MOL0    Cl41997  11.158   1.188   2.144 -0.1157  0.1036 -0.2245
  305MOL0     C41998  11.692   1.775   1.441 -0.3042  0.4629  0.4192
  305MOL0     C41999  11.753   1.891   1.386  0.5247 -0.5248  0.0136
  305MOL0     O42000  11.748   2.178   1.346 -0.1606 -0.1702 -0.3214
  305MOL0     C42001  11.903   2.375   1.199 -0.6116  0.3791  0.0802
  305MOL0     C42002  11.990   2.453   1.134 -0.0532  0.3148 -0.4242
  305MOL0     N42003  11.794   2.767   1.033  0.2731  0.0184  0.0855
  305MOL0     N42004  11.688   2.736   1.107  0.5485 -0.1894 -1.2038
  305MOL0     C42005  11.387   2.098   0.332  1.4390  0.4374 -0.4720
  305MOL0     C42006  11.316   2.129   0.213 -0.5713 -0.0356 -0.1963
  305MOL0     C42007  11.021   2.213  -0.111  0.6818 -0.1172 -0.2924
  305MOL0     C42008  10.886   2.220  -0.164 -0.2377  0.2047 -0.1838
  305MOL0     C42009  10.864   2.241  -0.296  0.5276 -0.0750 -0.1068
  305MOL0     C42010  10.959   2.271  -0.389  0.0132  0.0517  0.2303
  305MOL0     O42011  10.933   2.305  -0.521  1.2757  0.6524  0.4016
  305MOL0     C42012  10.802   2.344  -0.564  1.4641 -0.0318  0.1782
  305MOL0     C42013  10.783   2.489  -0.521 -0.3570 -0.9282  0.5801
  305MOL0     C42014  10.633   2.540  -0.538  0.0509  0.3749  0.2951
  305MOL0     C42015  10.614   2.679  -0.483  1.0870  0.1923 -1.1330
  305MOL0     C42016  10.475   2.730  -0.499 -0.4743 -0.1031  0.3298
  305MOL0     C42017  10.368   2.765  -0.556 -0.0914 -1.0453 -0.5149
  305MOL0     C42018  11.087   2.259  -0.342 -0.9406 -0.3228 -0.4044
  305MOL0     C42019  11.120   2.223  -0.212 -0.3432 -0.7801 -0.1081
  305MOL0     C42020  11.266   2.228  -0.178  0.7376  0.5277  0.5919
  305MOL0     H42021  11.039   2.284   0.320 -1.4626 -1.3448  0.4090
  305MOL0     H42022  11.145   2.218   0.540  2.1491 -0.1322  1.0719
  305MOL0     H42023  11.237   2.095   0.699 -0.5177  0.2370 -0.7251
  305MOL0     H42024  11.343   2.236   0.727  2.0916 -0.7398  1.2401
  305MOL0     H42025  11.368   2.073   0.902  1.5761  1.0252  0.4395
  305MOL0     H42026  11.420   1.962   0.766  0.6060  0.3483 -2.0059
  305MOL0     H42027  11.635   2.047   0.860  1.0552  0.0695 -0.1098
  305MOL0     H42028  11.603   2.124   0.706  0.1892 -0.2903  0.2518
  305MOL0     H42029  11.676   2.286   0.860 -0.3919  2.3142  2.4771
  305MOL0     H42030  11.515   2.324   0.808  0.4011 -0.5399 -1.6343
  305MOL0     H42031  11.614   2.208   1.075  0.2698  1.2458  1.9852
  305MOL0     H42032  11.446   2.230   1.043 -0.5450  1.2978  1.6487
  305MOL0     H42033  11.521   2.408   1.176  0.8225  1.7306  0.8464
  305MOL0     H42034  11.652   2.440   1.058 -1.2319  0.0869 -0.3171
  305MOL0     H42035  11.350   2.493   1.032 -0.2996  2.9342 -1.1962
  305MOL0     H42036  11.455   2.518   0.899 -0.4155  0.4375 -0.2194
  305MOL0     H42037  11.381   2.718   1.044 -2.0230 -2.4776 -1.2335
  305MOL0     H42038  11.465   2.651   1.187  2.3389 -1.0534 -0.4723
  305MOL0     H42039  11.554   2.751   0.817 -2.4555 -1.4643  1.2683
  305MOL0     H42040  11.838   2.910   0.757 -0.7969  0.9642  3.6453
  305MOL0     H42041  11.820   2.736   0.704 -3.7848  0.1967  0.8864
  305MOL0     H42042  12.049   2.821   0.744  0.6062  1.2122  1.5743
  305MOL0     H42043  12.027   2.843   0.913 -1.0939 -0.2513  0.6751
  305MOL0     H42044  11.940   2.582   0.916 -0.4961  0.0844 -1.0408
  305MOL0     H42045  12.024   2.581   0.768  0.1847  2.9051 -2.0785
  305MOL0     H42046  12.232   2.661   0.889 -2.4657  1.4769 -3.5196
  305MOL0     H42047  12.145   2.688   1.041  2.0186 -1.2249  0.6869
  305MOL0     H42048  12.205   2.239   1.000  1.9444  1.2592  2.5598
  305MOL0     H42049  12.021   1.969   1.172 -1.8405  0.2333 -1.1537
  305MOL0     H42050  12.136   2.007   1.039 -1.3419 -3.3877 -2.4581
  305MOL0     H42051  11.974   2.007   1.002 -1.3328 -1.2013  1.4171
  305MOL0     H42052  11.632   1.847   1.073 -0.8363 -2.7196  0.4615
  305MOL0     H42053  11.539   1.652   1.166 -1.3506 -1.3805  1.7078
  305MOL0     H42054  11.632   1.557   1.594 -0.0155  0.6611  0.0726
  305MOL0     H42055  11.460   1.602   1.587  0.1456 -0.7353  0.1818
  305MOL0     H42056  11.391   1.404   1.509  0.2077 -0.0401 -2.3532
  305MOL0     H42057  11.554   1.328   1.515 -1.0232 -1.2096  0.8817
  305MOL0     H42058  11.403   1.421   1.761  1.9492  3.0528 -0.7222
  305MOL0     H42059  11.571   1.353   1.761  0.0526  0.0152 -1.3826
  305MOL0     H42060  11.522   1.151   1.705 -0.0384  2.3327 -2.3728
  305MOL0     H42061  11.355   1.173   1.670  0.1686  3.6874 -3.6296
  305MOL0     H42062  11.462   1.274   1.938 -0.7055  1.1758 -0.9682
  305MOL0     H42063  11.298   1.246   1.895  0.7827  2.4620 -0.7383
  305MOL0     H42064  11.505   1.021   1.899 -0.2238  1.3648 -0.7510
  305MOL0     H42065  11.342   0.994   1.888  0.6478  0.6830 -1.4068
  305MOL0     H42066  11.438   1.126   2.147 -4.2450  0.1394  2.5022
  305MOL0     H42067  11.440   0.955   2.120  0.2197  0.6408  0.0608
  305MOL0     H42068  11.217   0.968   2.198  0.7712  1.5007 -0.2945
  305MOL0     H42069  11.181   0.985   2.029  0.4658  1.0356 -1.4001
  305MOL0     H42070  11.728   1.751   1.540 -0.4138 -2.9830 -0.2560
  305MOL0     H42071  11.824   1.961   1.428  0.3696  0.9080 -1.9573
  305MOL0     H42072  11.823   2.423   1.255  1.4505 -0.5804  4.3130
  305MOL0     H42073  11.966   2.558   1.118  2.3140  0.7891 -1.4040
  305MOL0     H42074  11.475   2.035   0.328 -1.6091 -4.3081 -1.2685
  305MOL0     H42075  11.358   2.099   0.117 -1.5549 -3.6484  0.3524
  305MOL0     H42076  10.794   2.196  -0.111 -0.0581  2.4660  1.2700
  305MOL0     H42077  10.759   2.247  -0.323 -0.0077 -2.1251  1.3428
  305MOL0     H42078  10.799   2.339  -0.674 -1.1913  3.1503 -0.0527
  305MOL0     H42079  10.723   2.283  -0.519 -1.7220  1.1271 -3.2627
  305MOL0     H42080  10.845   2.558  -0.579 -0.3987 -1.0397  0.4053
  305MOL0     H42081  10.819   2.496  -0.418 -0.3313 -1.1477  0.5865
  305MOL0     H42082  10.604   2.537  -0.643  2.8024 -0.5550 -0.5190
  305MOL0     H42083  10.565   2.478  -0.479 -0.2793 -1.2131 -1.6919
  305MOL0     H42084  10.683   2.757  -0.518  2.7263  1.0686  3.3378
  305MOL0     H42085  10.632   2.664  -0.376  0.6527 -0.0908 -1.0993
  305MOL0     H42086  10.282   2.803  -0.607  0.2658  0.0761 -0.3162
  305MOL0     H42087  11.159   2.269  -0.422  0.4183  0.3467  0.8463
  305MOL0     H42088  11.325   2.213  -0.269 -1.1918  0.8437 -0.7866
  305MOL0     H42089  11.287   2.331  -0.150  0.6032  0.8401 -0.3856
  305MOL0     H42090  11.295   2.157  -0.101  0.7426 -1.7717 -1.4181
  306MOL0     O42091   7.130   6.843   9.255  0.0353 -0.0915 -0.5578
  306MOL0     C42092   7.167   6.863   9.369  0.8199  0.0911  0.5642
  306MOL0     O42093   7.116   6.801   9.477 -0.5090 -0.5724 -0.3198
  306MOL0     C42094   7.024   6.707   9.460  0.1529  0.2274  0.5566
  306MOL0     C42095   6.882   6.749   9.470  0.2907  0.3210 -0.7249
  306MOL0     C42096   6.784   6.661   9.446  0.3450  0.5881  0.0993
  306MOL0     C42097   6.826   6.527   9.419 -0.1299  1.1082 -0.0580
  306MOL0     O42098   6.725   6.445   9.392 -0.5317  0.7714  0.0072
  306MOL0     C42099   6.709   6.431   9.254  0.2418 -0.4298  0.1819
  306MOL0     C42100   6.591   6.338   9.241 -0.7380  0.7889 -0.8966
  306MOL0     C42101   6.551   6.321   9.101  0.6964  0.3025  0.0082
  306MOL0     C42102   6.395   6.284   9.081 -0.2082 -0.4100 -0.2737
  306MOL0     C42103   6.340   6.283   8.935  0.1859 -0.5311  0.1469
  306MOL0     C42104   6.188   6.304   8.926 -0.0491  1.4945 -1.2149
  306MOL0     C42105   6.147   6.273   8.791 -0.9815  0.7051  0.6673
  306MOL0     C42106   6.001   6.287   8.768  0.2435  1.3580 -0.1232
  306MOL0     N42107   5.956   6.219   8.643  0.6122  0.1589 -0.2473
  306MOL0     C42108   5.943   6.079   8.618  0.4749  1.0772 -0.8240
  306MOL0     C42109   5.905   6.071   8.490  0.6720  0.5666  0.0298
  306MOL0     C42110   5.858   5.947   8.409 -0.1018 -0.2727  0.2505
  306MOL0     C42111   5.736   5.884   8.487  0.2548 -0.1286  0.0668
  306MOL0     C42112   5.609   5.971   8.478 -0.0809  0.0811  0.2549
  306MOL0     C42113   5.475   5.914   8.539 -0.3309  0.9282 -0.2229
  306MOL0     O42114   5.488   5.768   8.573 -0.1770 -0.6149 -0.8006
  306MOL0     C42115   5.505   5.729   8.702 -0.2467  0.1394 -0.1185
  306MOL0     C42116   5.529   5.592   8.729  0.5210 -0.0952  0.0786
  306MOL0     C42117   5.538   5.542   8.865  0.3616 -0.3973  0.4060
  306MOL0     C42118   5.545   5.393   8.881  0.3577  0.5716  0.4735
  306MOL0     C42119   5.559   5.631   8.969  0.4463  0.5362  0.4387
  306MOL0     C42120   5.585   5.604   9.110 -0.9627  0.6854 -0.1929
  306MOL0     O42121   5.609   5.707   9.198  0.2908  0.3535  0.1852
  306MOL0     C42122   5.625   5.676   9.333  0.1061  0.1301  1.1183
  306MOL0     C42123   5.758   5.699   9.390  0.1287 -0.4393  0.3547
  306MOL0     C42124   5.772   5.688   9.529  1.0272 -0.2622 -0.1489
  306MOL0     C42125   5.662   5.640   9.605 -0.3374 -0.3422 -0.2784
  306MOL0     O42126   5.678   5.618   9.737 -0.0860  0.4558  0.7326
  306MOL0     C42127   5.800   5.562   9.784 -0.3092  0.1746  0.0480
  306MOL0     C42128   5.792   5.524   9.925  0.1405  0.3603  0.5011
  306MOL0     C42129   5.743   5.630  10.029 -0.4494 -1.1170  0.2707
  306MOL0     C42130   5.771   5.577  10.176 -0.3335  0.8591  0.2511
  306MOL0     C42131   5.750   5.703  10.264 -1.0490 -0.0147  1.0148
  306MOL0     C42132   5.788   5.687  10.405  0.0138  0.1571  1.5928
  306MOL0     C42133   5.932   5.665  10.449 -0.3952  0.6084  0.5805
  306MOL0     C42134   5.948   5.635  10.595  0.4882  0.3159 -0.7163
  306MOL0    Cl42135   6.115   5.653  10.646  0.2011  0.4393  0.4981
  306MOL0     C42136   5.537   5.594   9.544 -0.4579 -0.2449  0.1257
  306MOL0     C42137   5.517   5.621   9.413 -1.0293  0.8743 -0.5538
  306MOL0     O42138   5.579   5.487   9.151 -0.0511 -0.0612  0.2325
  306MOL0     C42139   5.549   5.772   8.940  0.0659 -0.4139  0.6640
  306MOL0     C42140   5.513   5.816   8.808  0.2913 -0.1443 -0.2180
  306MOL0     N42141   5.902   6.199   8.440  0.0882 -0.2096 -0.8734
  306MOL0     N42142   5.933   6.290   8.530 -1.0307  0.8737  0.2401
  306MOL0     C42143   6.963   6.488   9.416 -0.5380  0.3493 -0.3689
  306MOL0     C42144   7.059   6.586   9.439  0.3839  0.4629  0.3567
  306MOL0     C42145   7.289   6.947   9.386  0.0349 -0.2987 -0.6001
  306MOL0     C42146   7.391   6.929   9.289  0.2992 -0.3604  0.2671
  306MOL0     C42147   7.509   6.999   9.301 -0.3210  0.1202 -0.3771
  306MOL0     C42148   7.521   7.098   9.397 -0.1718 -0.0437 -0.4733
  306MOL0     O42149   7.637   7.164   9.426  0.3314 -0.0300  0.6663
  306MOL0     C42150   7.768   7.140   9.355  0.2015 -0.1613 -0.4546
  306MOL0     C42151   7.873   7.242   9.398  0.0892 -0.2756 -1.0681
  306MOL0     C42152   7.907   7.205   9.546 -1.2308 -0.6425  0.7862
  306MOL0     C42153   8.050   7.252   9.567  0.2862  0.6032 -0.0746
  306MOL0     C42154   8.152   7.198   9.478 -0.8651 -0.3560  0.2595
  306MOL0     C42155   8.243   7.194   9.394 -0.4561 -0.2990 -0.1458
  306MOL0     C42156   7.418   7.119   9.490 -0.6882  0.1009 -0.9078
  306MOL0     C42157   7.305   7.043   9.490  0.4433 -0.6922  0.0548
  306MOL0     C42158   7.192   7.063   9.591  1.1757  0.4259 -0.0048
  306MOL0     H42159   6.835   6.839   9.507 -1.2961 -1.1009  0.9600
  306MOL0     H42160   6.678   6.685   9.444  0.3107  0.4299 -1.5959
  306MOL0     H42161   6.798   6.388   9.207 -0.5021  1.5327 -3.4299
  306MOL0     H42162   6.689   6.529   9.209 -1.1657 -1.3573 -1.3021
  306MOL0     H42163   6.620   6.244   9.287  1.2265  2.7767  2.2946
  306MOL0     H42164   6.512   6.380   9.305 -1.5320  0.5023 -1.6721
  306MOL0     H42165   6.564   6.417   9.050 -0.1950  2.0681  2.8354
  306MOL0     H42166   6.610   6.238   9.063 -0.9458 -0.8071 -0.2547
  306MOL0     H42167   6.368   6.189   9.128 -0.4291  0.7061  2.0117
  306MOL0     H42168   6.348   6.365   9.139 -2.7043 -1.2544 -0.9829
  306MOL0     H42169   6.363   6.188   8.886  5.9031  1.1945 -1.3388
  306MOL0     H42170   6.382   6.367   8.879  2.2267 -2.5751 -1.5810
  306MOL0     H42171   6.149   6.238   9.004  1.2473  0.6439 -1.2478
  306MOL0     H42172   6.172   6.409   8.954  1.4092  1.0645  1.6429
  306MOL0     H42173   6.183   6.174   8.758  4.9410  1.6665  2.9029
  306MOL0     H42174   6.201   6.348   8.732  1.5452 -0.1500  1.7343
  306MOL0     H42175   5.946   6.244   8.853  1.8624  0.5704  0.5859
  306MOL0     H42176   5.981   6.393   8.755 -2.9426  0.9649  0.6864
  306MOL0     H42177   5.966   5.993   8.680  1.3009  1.7646 -0.1625
  306MOL0     H42178   5.935   5.871   8.388 -0.2598 -0.9827  2.0527
  306MOL0     H42179   5.814   5.989   8.318  1.7352  0.7096 -0.2351
  306MOL0     H42180   5.714   5.783   8.452 -0.7740 -0.2425  0.9782
  306MOL0     H42181   5.755   5.885   8.594 -0.8093  1.9188  0.2930
  306MOL0     H42182   5.624   6.069   8.524 -3.3003 -0.0351  1.8440
  306MOL0     H42183   5.601   5.988   8.370  0.8464  1.0266  0.3222
  306MOL0     H42184   5.457   5.981   8.623 -1.4579  0.7875 -0.3299
  306MOL0     H42185   5.393   5.922   8.467 -0.7709  2.7842  0.4461
  306MOL0     H42186   5.503   5.523   8.649 -2.8958 -3.3663  3.5519
  306MOL0     H42187   5.447   5.367   8.921 -0.3286  2.5233  0.2016
  306MOL0     H42188   5.627   5.358   8.943  0.5669  1.8248  0.9455
  306MOL0     H42189   5.545   5.327   8.794 -1.1935 -2.1519  2.4178
  306MOL0     H42190   5.827   5.724   9.311  0.4286 -1.3743  0.3026
  306MOL0     H42191   5.860   5.734   9.572  1.5083  1.7074 -2.9936
  306MOL0     H42192   5.847   5.488   9.719 -0.1799 -0.2950  0.6690
  306MOL0     H42193   5.862   5.652   9.788  1.3044 -0.9330  3.1130
  306MOL0     H42194   5.718   5.444   9.920  1.8668 -1.3369  0.5258
  306MOL0     H42195   5.889   5.486   9.958  0.4150 -0.3756 -1.0739
  306MOL0     H42196   5.636   5.635  10.006 -0.0512 -0.1885 -1.5816
  306MOL0     H42197   5.781   5.728   9.998 -2.2479 -0.8045 -1.1596
  306MOL0     H42198   5.878   5.551  10.177 -0.1910  1.4300  0.6960
  306MOL0     H42199   5.709   5.490  10.198 -0.8698  0.9637 -0.8158
  306MOL0     H42200   5.819   5.779  10.225  0.2104 -0.3997  2.4138
  306MOL0     H42201   5.649   5.744  10.253 -0.1060  2.4383  0.7313
  306MOL0     H42202   5.721   5.609  10.442 -3.9209  0.5840 -3.5450
  306MOL0     H42203   5.763   5.783  10.451 -0.4899  1.2452 -0.7946
  306MOL0     H42204   5.987   5.748  10.404  1.6739 -1.9657 -2.0409
  306MOL0     H42205   5.968   5.579  10.393  0.2096  2.8951 -2.8462
  306MOL0     H42206   5.924   5.532  10.621 -1.8324  0.8838 -0.3390
  306MOL0     H42207   5.888   5.703  10.656  0.2457  3.1414 -3.7802
  306MOL0     H42208   5.456   5.540   9.593  1.2891 -2.7459  0.4233
  306MOL0     H42209   5.434   5.596   9.348 -1.9127 -0.9259  1.1742
  306MOL0     H42210   5.564   5.841   9.023  1.5897  0.2087 -0.1033
  306MOL0     H42211   5.498   5.923   8.800 -0.9492 -0.2506  0.3995
  306MOL0     H42212   6.995   6.386   9.399 -0.1410  0.1170  1.5804
  306MOL0     H42213   7.158   6.540   9.444  1.1179  1.7003 -1.5539
  306MOL0     H42214   7.371   6.851   9.216  0.7479 -0.0531 -0.1927
  306MOL0     H42215   7.585   6.964   9.232 -0.7005  2.2214 -1.9697
  306MOL0     H42216   7.806   7.042   9.385  0.5288  0.3130  0.7023
  306MOL0     H42217   7.752   7.127   9.247 -1.0100 -0.3430 -0.2650
  306MOL0     H42218   7.839   7.345   9.410  0.0044 -0.5843  2.4528
  306MOL0     H42219   7.950   7.218   9.325 -0.6356 -2.8413 -1.0775
  306MOL0     H42220   7.832   7.251   9.612 -0.2380 -0.3786  1.7612
  306MOL0     H42221   7.907   7.097   9.562  0.0513 -1.0964 -1.7691
  306MOL0     H42222   8.068   7.222   9.671  2.2859  0.8997 -0.2958
  306MOL0     H42223   8.050   7.361   9.559  0.6483  0.7072  1.0893
  306MOL0     H42224   8.323   7.193   9.322  1.4697 -1.3498  1.8646
  306MOL0     H42225   7.426   7.199   9.563  1.1351 -0.5471 -0.3530
  306MOL0     H42226   7.102   7.093   9.536  2.4035  1.5321 -1.4943
  306MOL0     H42227   7.172   6.982   9.662 -0.3789 -0.5351 -1.4600
  306MOL0     H42228   7.211   7.136   9.671 -0.0600 -3.0390  3.8069
  307MOL0     O42229   5.001   7.540   0.084 -0.3190  0.0923  0.3269
  307MOL0     C42230   5.029   7.509   0.201  0.1750  1.0428  0.1652
  307MOL0     O42231   5.031   7.602   0.295 -0.5466  0.3885 -0.2733
  307MOL0     C42232   4.952   7.711   0.264  0.1237  0.8294  0.9646
  307MOL0     C42233   4.818   7.720   0.303  0.4196  0.4149  0.7185
  307MOL0     C42234   4.731   7.815   0.256 -0.9363 -0.4781 -0.4444
  307MOL0     C42235   4.797   7.927   0.185  0.4441  0.1166 -0.4059
  307MOL0     O42236   4.712   8.021   0.123 -0.9486 -0.7173 -1.2006
  307MOL0     C42237   4.770   8.133   0.043  0.2097  0.3574 -0.2650
  307MOL0     C42238   4.636   8.196   0.009  0.1384  0.5363  0.6960
  307MOL0     C42239   4.675   8.308  -0.088 -0.5920  0.1209  0.2116
  307MOL0     C42240   4.561   8.403  -0.114  0.7982 -0.5375 -0.2110
  307MOL0     C42241   4.583   8.534  -0.194  0.6387  0.1700  0.0139
  307MOL0     C42242   4.451   8.615  -0.234  0.4112 -0.0749  0.4270
  307MOL0     C42243   4.472   8.744  -0.316 -0.1290  0.6741  0.0940
  307MOL0     C42244   4.416   8.744  -0.460 -0.7677  0.2421 -0.9721
  307MOL0     N42245   4.272   8.736  -0.462  0.2350 -0.5238 -0.2949
  307MOL0     C42246   4.177   8.832  -0.457  0.6511 -0.0827 -0.2665
  307MOL0     C42247   4.056   8.777  -0.474  0.1221  0.4240  0.8621
  307MOL0     C42248   3.917   8.847  -0.479 -0.5163 -0.3134  0.2032
  307MOL0     C42249   3.815   8.754  -0.434  0.5951  0.3451 -0.1587
  307MOL0     C42250   3.679   8.818  -0.428  0.7168 -0.1879 -0.1693
  307MOL0     C42251   3.565   8.712  -0.449  0.0597 -0.1317 -0.1280
  307MOL0     O42252   3.565   8.609  -0.354 -0.0123 -0.0307 -0.0983
  307MOL0     C42253   3.475   8.516  -0.356  1.1552 -0.2887  0.5866
  307MOL0     C42254   3.489   8.422  -0.255  0.5496  0.1844 -0.3770
  307MOL0     C42255   3.407   8.316  -0.252 -0.0426  0.2680 -1.3916
  307MOL0     C42256   3.427   8.236  -0.131 -0.8897  0.7485  0.3949
  307MOL0     C42257   3.309   8.294  -0.352 -0.6281 -0.5264 -0.6114
  307MOL0     C42258   3.235   8.176  -0.350  0.3063  0.8076  0.0244
  307MOL0     O42259   3.183   8.118  -0.234 -0.4758  0.5521  0.2442
  307MOL0     C42260   3.128   7.993  -0.230  0.1550 -0.7348 -0.3491
  307MOL0     C42261   2.995   7.991  -0.269 -0.7004 -0.2970 -0.1167
  307MOL0     C42262   2.939   7.865  -0.264 -0.6404  0.7048 -0.2754
  307MOL0     C42263   3.005   7.749  -0.226 -0.2687  0.3780  0.1289
  307MOL0     O42264   2.926   7.643  -0.238 -0.9551  0.0189  0.2525
  307MOL0     C42265   2.977   7.506  -0.197 -0.7952 -1.1073 -0.3100
  307MOL0     C42266   3.042   7.440  -0.319 -0.8359 -0.5940 -0.1243
  307MOL0     C42267   3.093   7.287  -0.301  0.2045 -1.0401  0.1803
  307MOL0     C42268   3.124   7.213  -0.429 -0.6048  0.3976  0.8083
  307MOL0     C42269   3.009   7.202  -0.531  0.1930  0.9363  0.5083
  307MOL0     C42270   2.872   7.165  -0.470 -0.4107 -0.4437  0.7564
  307MOL0     C42271   2.749   7.187  -0.563 -0.2655 -0.2940 -0.7352
  307MOL0     C42272   2.735   7.319  -0.639  1.2933 -0.0681  0.3558
  307MOL0    Cl42273   2.565   7.363  -0.663  0.0964 -0.1833 -0.1822
  307MOL0     C42274   3.143   7.757  -0.192 -0.5100 -0.3733  0.6982
  307MOL0     C42275   3.207   7.883  -0.198  0.5360 -0.2025 -1.1684
  307MOL0     O42276   3.205   8.129  -0.464  0.7706 -0.0944 -0.0822
  307MOL0     C42277   3.288   8.391  -0.448 -1.0393 -0.3279 -0.1538
  307MOL0     C42278   3.380   8.496  -0.454 -0.3005 -0.1861 -0.7784
  307MOL0     N42279   4.082   8.641  -0.501  1.1909  1.3121  0.5072
  307MOL0     N42280   4.207   8.621  -0.488 -0.9368 -0.5787  0.3668
  307MOL0     C42281   4.931   7.929   0.170 -0.0559  0.6332  0.0231
  307MOL0     C42282   5.010   7.818   0.201 -1.1863  0.5327  0.0856
  307MOL0     C42283   5.036   7.357   0.232 -0.0994 -0.0077 -0.5547
  307MOL0     C42284   4.996   7.263   0.136 -0.3710 -0.4720  0.1242
  307MOL0     C42285   5.004   7.116   0.159 -1.1393  0.0422 -0.4595
  307MOL0     C42286   5.071   7.062   0.268  0.2094  0.5182  0.4321
  307MOL0     O42287   5.072   6.926   0.289 -0.5470 -0.2649 -0.1131
  307MOL0     C42288   4.948   6.852   0.271  0.3941  0.3530  0.8497
  307MOL0     C42289   4.963   6.703   0.311 -1.0347 -0.1160 -0.3619
  307MOL0     C42290   4.945   6.680   0.465 -0.6525 -0.3205 -0.3753
  307MOL0     C42291   4.794   6.656   0.508 -0.1047 -0.3309  0.5257
  307MOL0     C42292   4.768   6.635   0.653 -0.5112 -0.7295 -0.5964
  307MOL0     C42293   4.757   6.625   0.767  0.9251  0.6628 -0.1545
  307MOL0     C42294   5.114   7.154   0.366 -0.6832 -0.7006  1.0933
  307MOL0     C42295   5.112   7.296   0.342 -0.8743  0.0667 -0.4884
  307MOL0     C42296   5.187   7.375   0.452  1.2621 -0.0137  0.2564
  307MOL0     H42297   4.781   7.641   0.368  0.4316  2.6095  3.6062
  307MOL0     H42298   4.624   7.829   0.270 -1.0613 -0.6248 -1.1873
  307MOL0     H42299   4.836   8.101  -0.038  1.0032 -2.1480  1.2454
  307MOL0     H42300   4.822   8.198   0.114  1.6906 -0.5110 -0.4939
  307MOL0     H42301   4.577   8.121  -0.043 -0.6080  0.7595  1.1978
  307MOL0     H42302   4.592   8.230   0.104 -2.8542 -1.1137  0.0166
  307MOL0     H42303   4.755   8.371  -0.048 -1.8994  3.4357 -1.9581
  307MOL0     H42304   4.699   8.265  -0.186  2.8377 -3.2259  2.2872
  307MOL0     H42305   4.483   8.334  -0.149  0.0921  1.5696 -3.3239
  307MOL0     H42306   4.533   8.446  -0.018  5.8257  1.5682  0.6141
  307MOL0     H42307   4.642   8.520  -0.284  3.7545 -1.4802  2.1276
  307MOL0     H42308   4.638   8.608  -0.136  0.6892  0.0176  0.1627
  307MOL0     H42309   4.396   8.547  -0.300 -1.0777 -1.7087  3.1275
  307MOL0     H42310   4.398   8.634  -0.140  0.8244  1.2521  0.4078
  307MOL0     H42311   4.579   8.766  -0.315 -0.2395  1.2112  0.1505
  307MOL0     H42312   4.421   8.834  -0.281 -0.7058  0.3698  0.0338
  307MOL0     H42313   4.450   8.838  -0.505 -0.0123 -0.1091 -1.1584
  307MOL0     H42314   4.454   8.655  -0.512  0.4933 -0.3015  0.7755
  307MOL0     H42315   4.199   8.936  -0.434  2.3041 -0.3140 -0.6956
  307MOL0     H42316   3.918   8.874  -0.585  0.8497 -1.0939  0.0008
  307MOL0     H42317   3.923   8.931  -0.408  1.0777 -2.3225  2.6540
  307MOL0     H42318   3.806   8.667  -0.499  1.2000 -0.7079  1.1280
  307MOL0     H42319   3.838   8.714  -0.335 -1.1641 -0.7736 -0.1732
  307MOL0     H42320   3.661   8.889  -0.347 -0.9511 -1.8224  0.9733
  307MOL0     H42321   3.663   8.887  -0.511  0.1472  0.6366  0.6097
  307MOL0     H42322   3.471   8.766  -0.434  1.3230  1.7191  1.7618
  307MOL0     H42323   3.554   8.658  -0.543 -0.1496 -0.3941  0.0453
  307MOL0     H42324   3.576   8.445  -0.195  2.6659 -4.1105 -1.4305
  307MOL0     H42325   3.511   8.263  -0.066 -1.3217  0.5703  1.0335
  307MOL0     H42326   3.430   8.130  -0.156  0.5054  1.1091 -1.2006
  307MOL0     H42327   3.337   8.251  -0.071 -5.0896 -2.5711 -4.2833
  307MOL0     H42328   2.942   8.084  -0.289 -0.1406 -0.4336 -2.5263
  307MOL0     H42329   2.835   7.856  -0.293 -0.8350 -3.7802  1.1556
  307MOL0     H42330   3.044   7.508  -0.111 -4.1508  5.6994  2.9083
  307MOL0     H42331   2.891   7.450  -0.157 -1.8845  1.1591  0.7439
  307MOL0     H42332   2.967   7.447  -0.398 -0.4873  1.1554 -0.3335
  307MOL0     H42333   3.135   7.492  -0.343  0.9849 -2.4663  2.2820
  307MOL0     H42334   3.034   7.220  -0.238  1.8741 -2.5866  0.2170
  307MOL0     H42335   3.186   7.286  -0.243 -1.0178  0.6165  2.3324
  307MOL0     H42336   3.135   7.109  -0.398 -0.0633 -1.1274 -3.6732
  307MOL0     H42337   3.213   7.253  -0.479 -0.8102  1.3716  1.2087
  307MOL0     H42338   2.992   7.298  -0.580 -0.7062  1.3020  1.5095
  307MOL0     H42339   3.035   7.143  -0.620 -2.4962 -1.4880  1.1655
  307MOL0     H42340   2.849   7.223  -0.380  1.0908  3.5769 -1.2114
  307MOL0     H42341   2.865   7.059  -0.441 -2.4773  0.0414  2.2555
  307MOL0     H42342   2.665   7.175  -0.495  1.5058 -0.2709  1.6028
  307MOL0     H42343   2.738   7.103  -0.632 -2.8758  1.2994 -2.4168
  307MOL0     H42344   2.780   7.304  -0.738 -5.4145 -3.4135 -2.8837
  307MOL0     H42345   2.786   7.394  -0.579  0.9957 -0.7318  1.4601
  307MOL0     H42346   3.209   7.678  -0.157  0.0541  0.0368  0.5872
  307MOL0     H42347   3.314   7.891  -0.178  0.9911 -0.5864 -3.2060
  307MOL0     H42348   3.217   8.362  -0.525  0.2805 -3.7971 -0.2251
  307MOL0     H42349   3.358   8.559  -0.540 -0.6382  0.1989 -0.4115
  307MOL0     H42350   4.972   7.995   0.094 -0.3773 -1.2728 -1.8990
  307MOL0     H42351   5.117   7.808   0.187 -1.0219 -0.1289  1.6794
  307MOL0     H42352   4.958   7.290   0.038 -0.9015 -0.0990  0.4259
  307MOL0     H42353   4.983   7.044   0.081  3.4716 -2.7701  0.4815
  307MOL0     H42354   4.873   6.896   0.336 -1.1681 -0.2105 -0.5000
  307MOL0     H42355   4.924   6.863   0.164  0.3647  0.2768  0.8484
  307MOL0     H42356   5.061   6.676   0.269 -0.2430 -1.6750  2.2714
  307MOL0     H42357   4.889   6.641   0.259 -2.6491  1.5455 -0.1594
  307MOL0     H42358   5.001   6.590   0.490  0.9432  1.3981  2.8821
  307MOL0     H42359   4.992   6.760   0.523  1.0640 -0.6408 -1.2588
  307MOL0     H42360   4.761   6.579   0.438 -1.0589  0.8342 -0.3477
  307MOL0     H42361   4.733   6.740   0.475  1.8835 -0.4152 -4.1855
  307MOL0     H42362   4.742   6.623   0.873  3.6194 -0.9526  0.2821
  307MOL0     H42363   5.165   7.121   0.456  3.1478  1.0091 -0.2309
  307MOL0     H42364   5.286   7.330   0.467  1.0161 -0.1357  1.6246
  307MOL0     H42365   5.208   7.477   0.417  1.5436  0.1234  0.8198
  307MOL0     H42366   5.116   7.388   0.534 -2.1391  4.5600 -2.9302
  308MOL0     O42367   3.538   3.577   9.739  0.2956 -0.4066 -0.0835
  308MOL0     C42368   3.595   3.477   9.784 -0.2907  0.8401 -0.4169
  308MOL0     O42369   3.620   3.370   9.703 -0.5615  0.8619  0.3503
  308MOL0     C42370   3.612   3.396   9.562 -1.3328  0.1096 -0.4412
  308MOL0     C42371   3.551   3.295   9.477  0.0002  0.4181  0.2505
  308MOL0     C42372   3.509   3.328   9.342 -0.2845  0.7165 -0.5847
  308MOL0     C42373   3.552   3.447   9.287  1.2118  0.1430  0.8221
  308MOL0     O42374   3.489   3.488   9.171  0.0287 -0.5969 -0.6747
  308MOL0     C42375   3.455   3.628   9.148  0.1735  0.4021 -0.5057
  308MOL0     C42376   3.353   3.679   9.263  0.4404 -0.6002 -0.7869
  308MOL0     C42377   3.335   3.832   9.274  0.8320 -0.1482 -0.0870
  308MOL0     C42378   3.471   3.910   9.296 -0.7748 -0.2033  1.3164
  308MOL0     C42379   3.454   4.054   9.345 -0.1791 -0.3949 -0.6254
  308MOL0     C42380   3.375   4.068   9.482  0.1572  0.6974 -0.7330
  308MOL0     C42381   3.429   3.986   9.597 -0.3684 -0.7771 -0.3817
  308MOL0     C42382   3.316   3.953   9.709 -0.2664 -0.0721  0.0268
  308MOL0     N42383   3.217   3.847   9.669  0.0348 -0.4478  0.4405
  308MOL0     C42384   3.258   3.722   9.639 -0.8149  0.6131 -0.0283
  308MOL0     C42385   3.145   3.643   9.631  0.2546  0.5794  0.5972
  308MOL0     C42386   3.140   3.494   9.591  0.2018 -0.6227 -0.7499
  308MOL0     C42387   3.141   3.396   9.710  0.1635  0.3653  1.1040
  308MOL0     C42388   3.009   3.401   9.788  0.2083 -1.0256  1.1218
  308MOL0     C42389   3.002   3.321   9.910  0.1283  0.5524 -0.5006
  308MOL0     O42390   3.053   3.188   9.880  0.3929 -0.0165 -0.7882
  308MOL0     C42391   2.994   3.102   9.969  0.4097 -0.3084 -0.2362
  308MOL0     C42392   3.022   3.111  10.107 -0.2262  1.4423  0.4341
  308MOL0     C42393   2.960   3.034  10.207 -0.2708 -1.2926 -0.5462
  308MOL0     C42394   2.998   3.082  10.349  0.5168 -0.5472  0.0038
  308MOL0     C42395   2.881   2.925  10.167 -0.3577 -0.1952 -0.0652
  308MOL0     C42396   2.824   2.827  10.263  0.0640 -0.4167  0.2344
  308MOL0     O42397   2.737   2.736  10.210  1.0175  0.1009  0.1495
  308MOL0     C42398   2.716   2.621  10.284  0.4356  0.9953  0.6635
  308MOL0     C42399   2.672   2.610  10.413  0.6536 -0.2522  0.5808
  308MOL0     C42400   2.655   2.488  10.480  0.4619  0.6344 -0.0010
  308MOL0     C42401   2.701   2.365  10.423  0.2413 -0.3724 -0.3987
  308MOL0     O42402   2.670   2.242  10.487  0.5248 -0.2770 -0.7053
  308MOL0     C42403   2.723   2.123  10.432  0.4572 -0.3893  0.6374
  308MOL0     C42404   2.673   2.008  10.521 -0.2755 -0.2586  0.0321
  308MOL0     C42405   2.740   1.882  10.491 -0.2847  0.2298  0.3730
  308MOL0     C42406   2.680   1.756  10.554  0.2765  0.6336 -0.5703
  308MOL0     C42407   2.750   1.634  10.485 -1.2478 -0.3058 -0.1188
  308MOL0     C42408   2.700   1.501  10.530  0.3179 -0.2495 -0.9152
  308MOL0     C42409   2.556   1.461  10.502 -0.1571  0.5708  0.3866
  308MOL0     C42410   2.512   1.331  10.558  0.0266  0.2674 -0.2148
  308MOL0    Cl42411   2.473   1.347  10.731 -0.3135 -0.0957  0.3016
  308MOL0     C42412   2.753   2.374  10.291 -0.2130 -0.9330  0.6658
  308MOL0     C42413   2.760   2.502  10.220  0.4107  0.3209  0.7048
  308MOL0     O42414   2.852   2.836  10.383  0.2933 -0.6334  0.5323
  308MOL0     C42415   2.853   2.921  10.024 -0.2477 -0.3355 -0.2769
  308MOL0     C42416   2.911   3.002   9.931  0.3353  0.0707  0.4620
  308MOL0     N42417   3.041   3.731   9.646  0.2778 -0.3788 -0.2181
  308MOL0     N42418   3.081   3.862   9.653 -0.4578 -0.0163 -0.0158
  308MOL0     C42419   3.638   3.535   9.350 -0.0948 -0.1289  0.2125
  308MOL0     C42420   3.674   3.506   9.489 -0.8437  0.1017 -0.9102
  308MOL0     C42421   3.648   3.464   9.925  0.7474 -1.2933  0.2979
  308MOL0     C42422   3.735   3.362   9.969 -0.3460  0.6721 -0.0832
  308MOL0     C42423   3.793   3.356  10.098 -0.0049  0.3957  0.6028
  308MOL0     C42424   3.761   3.444  10.190  0.6870  0.5175  0.7907
  308MOL0     O42425   3.822   3.402  10.309  0.3375 -0.1925 -0.2967
  308MOL0     C42426   3.770   3.441  10.436 -0.3724  0.4222  0.1939
  308MOL0     C42427   3.813   3.347  10.566  0.4215 -0.2657  0.5284
  308MOL0     C42428   3.963   3.377  10.597 -1.1132 -0.0586  0.0158
  308MOL0     C42429   3.988   3.357  10.742  0.6855 -0.2256  0.0194
  308MOL0     C42430   4.134   3.356  10.760  0.3428  0.0199 -0.7087
  308MOL0     C42431   4.257   3.352  10.779  0.3257 -0.1303 -0.6666
  308MOL0     C42432   3.668   3.551  10.161 -0.8506  0.4993  0.2676
  308MOL0     C42433   3.621   3.558  10.025 -0.1123  0.3827  0.5449
  308MOL0     C42434   3.533   3.680  10.001 -0.2034 -0.3192  0.9039
  308MOL0     H42435   3.504   3.211   9.527  0.5552 -0.7974 -1.2174
  308MOL0     H42436   3.446   3.270   9.275  1.1049 -0.1747 -1.1719
  308MOL0     H42437   3.412   3.626   9.048 -1.1888 -0.1853  0.0672
  308MOL0     H42438   3.548   3.686   9.148 -0.6681  1.8097 -0.8874
  308MOL0     H42439   3.250   3.642   9.252 -0.6214  1.0479  2.2920
  308MOL0     H42440   3.389   3.657   9.364  0.4214 -1.3582 -0.9358
  308MOL0     H42441   3.284   3.870   9.185 -0.5968 -1.2356  0.2211
  308MOL0     H42442   3.274   3.837   9.365  1.8132  1.6037  0.5145
  308MOL0     H42443   3.545   3.854   9.354 -0.6863 -0.4461  0.9778
  308MOL0     H42444   3.522   3.918   9.200 -1.8109 -2.6680  0.4701
  308MOL0     H42445   3.389   4.102   9.271 -0.3901 -2.5103 -1.8867
  308MOL0     H42446   3.554   4.098   9.335  0.5118 -2.2517 -2.7437
  308MOL0     H42447   3.379   4.170   9.520 -0.0735 -0.3253  2.2801
  308MOL0     H42448   3.269   4.044   9.468  0.4621 -1.3237  0.0219
  308MOL0     H42449   3.507   4.045   9.646 -0.8313 -1.7694  1.6495
  308MOL0     H42450   3.474   3.890   9.569  2.3698  0.8753 -2.2210
  308MOL0     H42451   3.382   3.919   9.789  0.8279  0.7084 -0.5120
  308MOL0     H42452   3.267   4.049   9.727 -4.1361 -1.6313 -1.1166
  308MOL0     H42453   3.363   3.694   9.628  0.2325  3.2794  2.2021
  308MOL0     H42454   3.227   3.459   9.534  0.0574 -2.4564  0.0784
  308MOL0     H42455   3.052   3.486   9.527 -0.9214 -1.0160  0.7685
  308MOL0     H42456   3.156   3.296   9.669  0.0435  1.1403 -0.9008
  308MOL0     H42457   3.221   3.427   9.778  1.8838  0.2147 -0.7844
  308MOL0     H42458   2.987   3.507   9.802  1.6726 -0.3610 -1.0308
  308MOL0     H42459   2.937   3.351   9.723  1.0871  0.5956 -1.2337
  308MOL0     H42460   3.057   3.366   9.994  0.9452 -0.3286 -0.5417
  308MOL0     H42461   2.896   3.306   9.930 -0.2460  2.3290 -0.8995
  308MOL0     H42462   3.095   3.186  10.136  1.3292  0.6676 -1.2616
  308MOL0     H42463   3.078   3.155  10.360 -1.8460  2.2491 -0.2475
  308MOL0     H42464   3.037   2.996  10.405 -0.1229 -0.5413  0.4785
  308MOL0     H42465   2.909   3.125  10.396  0.1235 -2.4718  1.1402
  308MOL0     H42466   2.646   2.700  10.468 -3.4501 -0.8156 -0.0765
  308MOL0     H42467   2.605   2.486  10.576 -2.1466 -1.4885 -1.2849
  308MOL0     H42468   2.696   2.113  10.327 -2.2886 -0.7828  1.2986
  308MOL0     H42469   2.832   2.127  10.429  0.4464 -0.9653 -1.4151
  308MOL0     H42470   2.697   2.025  10.626 -0.2276  5.2550 -0.6059
  308MOL0     H42471   2.564   1.999  10.513 -0.2775  0.7073 -1.6193
  308MOL0     H42472   2.847   1.886  10.516 -0.0814 -0.4605 -0.3177
  308MOL0     H42473   2.739   1.872  10.382  0.4638  0.5874  0.3216
  308MOL0     H42474   2.577   1.758  10.517  0.6638  0.6772 -1.6627
  308MOL0     H42475   2.689   1.776  10.662 -0.6000  5.0262 -1.1234
  308MOL0     H42476   2.720   1.628  10.380 -0.0578  1.7726 -0.6416
  308MOL0     H42477   2.858   1.637  10.499 -1.4717 -1.3592  2.2973
  308MOL0     H42478   2.704   1.514  10.639 -1.5943  3.1193 -1.1348
  308MOL0     H42479   2.773   1.420  10.516 -0.2238 -1.4275  2.1743
  308MOL0     H42480   2.544   1.463  10.393  1.3785 -0.4054  0.1597
  308MOL0     H42481   2.493   1.531  10.556 -2.7117  2.5257 -4.4735
  308MOL0     H42482   2.587   1.252  10.556  1.4117  1.5030 -2.9361
  308MOL0     H42483   2.421   1.301  10.504 -2.2542  2.5919  2.0258
  308MOL0     H42484   2.787   2.281  10.246 -0.2025 -1.3230  1.4593
  308MOL0     H42485   2.812   2.503  10.124 -1.4284 -2.1272 -0.4302
  308MOL0     H42486   2.789   2.845   9.980 -0.8799  0.1341 -0.1910
  308MOL0     H42487   2.904   2.984   9.824  1.1250  1.2251  0.2014
  308MOL0     H42488   3.668   3.631   9.310  2.5411 -0.2979  1.5700
  308MOL0     H42489   3.732   3.568   9.556 -0.0941 -1.4774 -0.0460
  308MOL0     H42490   3.763   3.290   9.893 -2.2813  0.5388 -0.7263
  308MOL0     H42491   3.851   3.267  10.122 -0.7091 -0.2281  0.0318
  308MOL0     H42492   3.781   3.547  10.460 -2.1625  0.4860  0.9102
  308MOL0     H42493   3.663   3.416  10.431 -0.2484 -0.5859  1.6939
  308MOL0     H42494   3.795   3.240  10.554 -0.4007 -0.2355  1.3368
  308MOL0     H42495   3.742   3.358  10.649 -0.8104 -0.3788 -0.4726
  308MOL0     H42496   4.018   3.304  10.537 -3.1820 -0.6431 -1.2884
  308MOL0     H42497   3.997   3.479  10.579 -0.3407 -0.5301 -1.3884
  308MOL0     H42498   3.945   3.257  10.759 -0.1873 -0.4706 -3.0416
  308MOL0     H42499   3.924   3.427  10.796 -1.8734 -0.0079 -3.0155
  308MOL0     H42500   4.362   3.343  10.799  1.0815  1.7642 -3.1927
  308MOL0     H42501   3.638   3.615  10.243 -2.0437  0.1416  0.1235
  308MOL0     H42502   3.452   3.655   9.931  2.1162 -3.4957 -0.9193
  308MOL0     H42503   3.475   3.689  10.093  0.1905  0.4332  1.0840
  308MOL0     H42504   3.588   3.773   9.982 -0.5415  0.2291  2.4712
  309MOL0     O42505   9.435   2.171   6.551  0.3897  0.5034 -0.5652
  309MOL0     C42506   9.359   2.074   6.577 -0.2365  0.5049  0.7108
  309MOL0     O42507   9.252   2.065   6.668  0.9302 -0.0557 -0.3064
  309MOL0     C42508   9.237   2.187   6.734  0.7429 -0.4927 -0.0644
  309MOL0     C42509   9.306   2.217   6.848 -0.6474 -0.3166 -0.3065
  309MOL0     C42510   9.308   2.337   6.926 -0.3971  0.6943  0.2854
  309MOL0     C42511   9.218   2.433   6.874 -0.9152 -0.2525 -0.5449
  309MOL0     O42512   9.211   2.555   6.927 -0.0691 -0.8517  0.4078
  309MOL0     C42513   9.344   2.605   6.971  0.3869  0.7265  0.3424
  309MOL0     C42514   9.355   2.757   6.982  0.0957  0.0875  0.2176
  309MOL0     C42515   9.265   2.796   7.099  0.7435 -0.0469 -0.1178
  309MOL0     C42516   9.265   2.951   7.116  0.2605  0.2904 -0.3893
  309MOL0     C42517   9.226   2.987   7.255 -1.1054 -0.5018 -0.0885
  309MOL0     C42518   9.085   2.953   7.294  0.4169  0.1325  0.1442
  309MOL0     C42519   9.057   3.009   7.437  0.6430 -0.1918  0.2783
  309MOL0     C42520   9.042   2.896   7.536  0.0858 -1.0157 -0.4099
  309MOL0     N42521   9.040   2.925   7.684 -0.1707  0.6459  0.0877
  309MOL0     C42522   9.003   3.047   7.737 -0.0093 -0.0761  0.4332
  309MOL0     C42523   9.023   3.039   7.873 -0.6117  0.0764  0.0292
  309MOL0     C42524   9.005   3.143   7.983  0.7241 -0.1191  0.4002
  309MOL0     C42525   9.140   3.184   8.042  0.0363  1.6194  1.7163
  309MOL0     C42526   9.136   3.307   8.126 -0.0249  0.3541  0.1506
  309MOL0     C42527   9.261   3.351   8.202 -0.1367 -0.6535  0.4777
  309MOL0     O42528   9.299   3.235   8.283  0.4046  1.2659 -0.8059
  309MOL0     C42529   9.405   3.253   8.371  0.7103 -0.6721 -0.2351
  309MOL0     C42530   9.473   3.377   8.376  0.9377  1.0565  0.2199
  309MOL0     C42531   9.571   3.393   8.478 -0.6837 -0.4364 -0.6976
  309MOL0     C42532   9.633   3.534   8.467  0.3534  1.0659 -0.1472
  309MOL0     C42533   9.602   3.296   8.574  1.4100 -0.2409  0.0890
  309MOL0     C42534   9.699   3.311   8.685 -0.0344 -0.4159 -0.0559
  309MOL0     O42535   9.806   3.395   8.659 -0.6238  0.7135 -0.1893
  309MOL0     C42536   9.906   3.402   8.756  0.3707  0.2129 -0.0340
  309MOL0     C42537   9.871   3.458   8.883 -0.2247 -0.2380  0.2976
  309MOL0     C42538   9.969   3.497   8.977 -0.4234  1.1004  0.7449
  309MOL0     C42539  10.102   3.474   8.939 -0.4507 -0.3885 -0.0614
  309MOL0     O42540  10.205   3.515   9.022 -0.4808  0.0755 -0.4448
  309MOL0     C42541  10.199   3.624   9.118  0.6919  0.2929 -0.1403
  309MOL0     C42542  10.188   3.758   9.054  0.6895  0.1179 -0.1199
  309MOL0     C42543  10.230   3.870   9.150 -0.1707  0.8838 -1.0638
  309MOL0     C42544  10.262   3.998   9.075  0.7050  0.0768 -0.4943
  309MOL0     C42545  10.235   4.126   9.164 -0.0048 -0.0049 -0.2366
  309MOL0     C42546  10.298   4.244   9.100  0.0520 -0.1612  0.5764
  309MOL0     C42547  10.313   4.363   9.193  0.1757 -0.3428  0.4976
  309MOL0     C42548  10.182   4.445   9.195 -0.8002  0.0433 -0.6301
  309MOL0    Cl42549  10.178   4.535   9.041 -0.0681  0.0923 -0.2216
  309MOL0     C42550  10.138   3.409   8.820  0.1230 -0.4303  0.7506
  309MOL0     C42551  10.042   3.388   8.721 -0.1497 -0.1336  0.1309
  309MOL0     O42552   9.679   3.248   8.790 -0.1033 -0.2741  0.0754
  309MOL0     C42553   9.521   3.181   8.563 -1.5368 -0.1638 -0.1510
  309MOL0     C42554   9.422   3.159   8.473 -0.2959  0.0719  0.1337
  309MOL0     N42555   9.076   2.914   7.891  0.3075 -0.0989 -0.7561
  309MOL0     N42556   9.088   2.850   7.784 -0.3089  0.2082  0.9072
  309MOL0     C42557   9.134   2.402   6.767  0.0590 -0.2267  0.1260
  309MOL0     C42558   9.139   2.281   6.696  0.5857  1.7154  0.8927
  309MOL0     C42559   9.385   1.938   6.514 -0.2085 -1.0183  0.6990
  309MOL0     C42560   9.332   1.824   6.588 -0.1274  0.5789 -0.5312
  309MOL0     C42561   9.341   1.702   6.524  0.0368 -0.3042 -0.2221
  309MOL0     C42562   9.408   1.690   6.405  0.2095  0.7331  0.4897
  309MOL0     O42563   9.410   1.570   6.333  0.3607  0.6681  0.2252
  309MOL0     C42564   9.533   1.500   6.338 -0.1299  1.1152  0.3169
  309MOL0     C42565   9.510   1.350   6.320  0.1829 -0.2269  0.9883
  309MOL0     C42566   9.430   1.292   6.425 -0.7669 -0.3443  0.0206
  309MOL0     C42567   9.433   1.142   6.415 -0.1994 -0.3692  0.5109
  309MOL0     C42568   9.339   1.085   6.509 -0.0711 -0.0665 -0.2219
  309MOL0     C42569   9.258   1.047   6.594  0.1116 -0.5214 -0.4855
  309MOL0     C42570   9.466   1.799   6.338  0.1734  0.7208 -0.1932
  309MOL0     C42571   9.453   1.918   6.389 -0.2391  0.3109 -1.1085
  309MOL0     C42572   9.516   2.022   6.316  0.3417  0.0751  0.4661
  309MOL0     H42573   9.373   2.137   6.877  4.3685  2.0406 -3.8815
  309MOL0     H42574   9.369   2.343   7.016  1.9123 -3.0354 -0.8296
  309MOL0     H42575   9.427   2.569   6.909  1.4999  2.9125  0.4657
  309MOL0     H42576   9.352   2.555   7.068 -1.7600 -2.2383 -0.8577
  309MOL0     H42577   9.457   2.781   7.013 -0.2415 -0.6904  2.0463
  309MOL0     H42578   9.336   2.802   6.884  2.4126 -1.0945 -0.8711
  309MOL0     H42579   9.162   2.771   7.071 -0.2173 -4.2596  5.3665
  309MOL0     H42580   9.273   2.737   7.191 -2.3995 -0.2976  0.1271
  309MOL0     H42581   9.363   2.997   7.102  0.6385 -0.6339 -0.9284
  309MOL0     H42582   9.197   3.008   7.053  0.5974  2.2114  0.9114
  309MOL0     H42583   9.238   3.096   7.254 -2.0297 -0.3820  0.2845
  309MOL0     H42584   9.296   2.942   7.326  2.7692  2.8297 -1.3920
  309MOL0     H42585   9.008   2.995   7.228 -0.6076 -1.5676  0.1974
  309MOL0     H42586   9.069   2.845   7.295 -1.2779  0.3458  1.8787
  309MOL0     H42587   8.963   3.063   7.429 -0.2644 -1.9849 -4.1346
  309MOL0     H42588   9.142   3.073   7.463  0.8416  0.2610 -1.3652
  309MOL0     H42589   8.948   2.843   7.515 -0.6856 -0.7250  1.9762
  309MOL0     H42590   9.131   2.833   7.526 -0.2805 -1.2103 -3.2323
  309MOL0     H42591   8.968   3.133   7.681  1.9821 -0.6744 -1.8847
  309MOL0     H42592   8.937   3.098   8.056  2.4664 -2.9027  0.4459
  309MOL0     H42593   8.963   3.230   7.933  1.0889 -0.4172 -0.4536
  309MOL0     H42594   9.184   3.104   8.103  1.5005  3.4336  3.1364
  309MOL0     H42595   9.203   3.199   7.954 -0.6086 -2.2964  0.3650
  309MOL0     H42596   9.108   3.384   8.053  3.2822  1.0419 -0.5255
  309MOL0     H42597   9.053   3.286   8.194 -1.6972  1.5521 -1.4245
  309MOL0     H42598   9.339   3.386   8.134  1.4422  1.4764  3.1494
  309MOL0     H42599   9.235   3.442   8.257  1.9706  1.0237 -1.1506
  309MOL0     H42600   9.465   3.456   8.303 -4.9387 -0.0647 -0.8615
  309MOL0     H42601   9.695   3.572   8.549 -2.4701  2.7676  1.3836
  309MOL0     H42602   9.557   3.610   8.450  0.0386  0.9926  0.8298
  309MOL0     H42603   9.703   3.537   8.384 -0.9470 -3.4088 -1.6971
  309MOL0     H42604   9.765   3.479   8.899 -0.7085 -2.5929  0.5170
  309MOL0     H42605   9.951   3.538   9.076 -1.7905 -1.1871  1.5194
  309MOL0     H42606  10.125   3.611   9.197  0.4894 -0.8189 -0.4952
  309MOL0     H42607  10.294   3.613   9.172 -0.6876  0.1702  2.4128
  309MOL0     H42608  10.268   3.766   8.979 -0.6942  3.0064 -1.4633
  309MOL0     H42609  10.091   3.783   9.011  1.6812  2.9166 -0.9890
  309MOL0     H42610  10.313   3.856   9.219 -1.9551  1.5016  1.3437
  309MOL0     H42611  10.150   3.886   9.223  0.9725  1.3635  0.1155
  309MOL0     H42612  10.195   4.001   8.989  3.4050 -4.8329 -3.2025
  309MOL0     H42613  10.368   3.990   9.047  1.7451  1.1610  2.6931
  309MOL0     H42614  10.129   4.139   9.190 -0.5029 -5.2078  1.4149
  309MOL0     H42615  10.276   4.103   9.263 -0.9522 -0.0570  0.1534
  309MOL0     H42616  10.237   4.283   9.018 -2.0577 -0.2449  2.0272
  309MOL0     H42617  10.390   4.214   9.049  0.2260  0.8828  0.2593
  309MOL0     H42618  10.401   4.426   9.176  0.6326 -0.2470  2.9397
  309MOL0     H42619  10.327   4.332   9.297  1.7378  2.9929  1.3985
  309MOL0     H42620  10.200   4.505   9.285  0.0119  0.4336 -1.0411
  309MOL0     H42621  10.094   4.381   9.205 -1.5965  1.3568  1.6969
  309MOL0     H42622  10.240   3.383   8.790 -0.0821  0.2913 -0.7000
  309MOL0     H42623  10.062   3.340   8.626 -2.3223 -2.8379  0.8818
  309MOL0     H42624   9.539   3.118   8.650 -2.5335  1.2827  1.1509
  309MOL0     H42625   9.357   3.074   8.489 -0.8367  0.5642  0.5877
  309MOL0     H42626   9.058   2.472   6.733 -2.1058 -0.9888  3.0347
  309MOL0     H42627   9.077   2.237   6.618 -0.8327 -0.7029  3.2071
  309MOL0     H42628   9.280   1.836   6.682 -0.3311  1.3185 -0.7328
  309MOL0     H42629   9.308   1.612   6.574  1.1178 -1.0227 -0.7672
  309MOL0     H42630   9.587   1.533   6.248  4.1784 -3.8385  0.5956
  309MOL0     H42631   9.604   1.514   6.420  1.1553 -2.6559  0.0659
  309MOL0     H42632   9.611   1.308   6.321 -0.7154 -2.6347 -0.0336
  309MOL0     H42633   9.462   1.326   6.224  2.2777 -0.0105 -0.1804
  309MOL0     H42634   9.471   1.326   6.520  0.6820  0.4907 -0.8555
  309MOL0     H42635   9.328   1.329   6.416 -1.1389 -1.0282  1.2082
  309MOL0     H42636   9.530   1.094   6.431 -0.0340 -0.0485  0.4773
  309MOL0     H42637   9.394   1.115   6.317  1.0080  0.1689 -0.1356
  309MOL0     H42638   9.191   1.041   6.677  1.0285  2.8226  0.6708
  309MOL0     H42639   9.506   1.785   6.238 -1.9620 -0.1089 -0.9955
  309MOL0     H42640   9.525   1.998   6.209  3.3301  3.8584 -0.3484
  309MOL0     H42641   9.470   2.121   6.320  6.0004  3.2174 -1.1892
  309MOL0     H42642   9.615   2.047   6.356 -0.4890  1.1733  1.9166
  310MOL0     O42643   5.583   3.594   3.053  0.6433  0.3198 -0.5895
  310MOL0     C42644   5.602   3.471   3.073  0.0289 -0.5496  0.8978
  310MOL0     O42645   5.695   3.413   3.144  0.0845  0.5756 -0.3814
  310MOL0     C42646   5.787   3.486   3.216  0.5046 -0.9611  0.4909
  310MOL0     C42647   5.919   3.442   3.213 -0.7315 -0.8825 -0.4678
  310MOL0     C42648   6.015   3.514   3.286  0.0225  0.1493  0.9720
  310MOL0     C42649   5.977   3.624   3.372 -1.1290  0.6272 -0.3680
  310MOL0     O42650   6.057   3.706   3.447 -0.3883 -0.1716 -0.0564
  310MOL0     C42651   6.191   3.715   3.397  0.2415  0.7488 -0.7752
  310MOL0     C42652   6.277   3.813   3.470  0.5810  0.6714  0.4738
  310MOL0     C42653   6.299   3.789   3.617 -0.8707  0.5953  0.6034
  310MOL0     C42654   6.401   3.894   3.683 -0.1991 -0.4000 -0.4589
  310MOL0     C42655   6.466   3.845   3.812 -0.2654 -0.0279  0.5290
  310MOL0     C42656   6.548   3.946   3.891  0.3096 -0.4199 -0.0874
  310MOL0     C42657   6.592   3.893   4.030  0.6887  0.4881 -0.1543
  310MOL0     C42658   6.665   3.987   4.108 -0.1768 -0.7832 -0.2515
  310MOL0     N42659   6.581   4.086   4.174  0.4943  0.3393 -0.4577
  310MOL0     C42660   6.501   4.069   4.281 -0.6291 -0.0384  0.0374
  310MOL0     C42661   6.438   4.191   4.302  0.2895 -0.2336  0.2781
  310MOL0     C42662   6.343   4.218   4.411  0.2193 -0.5044  0.9234
  310MOL0     C42663   6.211   4.276   4.362 -0.3399 -0.0253  0.2101
  310MOL0     C42664   6.125   4.200   4.267  0.2050  1.1501 -0.2225
  310MOL0     C42665   5.983   4.268   4.249 -1.1346 -0.6202  1.4223
  310MOL0     O42666   5.917   4.296   4.367  0.2437  0.5924 -0.0376
  310MOL0     C42667   5.787   4.253   4.377 -0.0652  0.8864 -0.1952
  310MOL0     C42668   5.766   4.150   4.467  0.0146  0.0081 -0.4925
  310MOL0     C42669   5.638   4.097   4.497 -0.1065 -1.5914  0.6234
  310MOL0     C42670   5.620   3.981   4.592  1.0395 -0.1587  0.7410
  310MOL0     C42671   5.520   4.157   4.437 -0.4154 -0.2994  0.6037
  310MOL0     C42672   5.379   4.107   4.460 -0.9933  0.3123 -0.8683
  310MOL0     O42673   5.284   4.209   4.485 -0.1520  0.4212 -1.3051
  310MOL0     C42674   5.318   4.294   4.587  0.6052  0.7205 -0.3642
  310MOL0     C42675   5.337   4.424   4.552  0.4601 -0.8266 -0.7278
  310MOL0     C42676   5.353   4.512   4.659  0.2355 -0.3772  0.3610
  310MOL0     C42677   5.357   4.462   4.789 -0.6453  0.1294  0.3978
  310MOL0     O42678   5.409   4.540   4.891 -0.5041  0.4359 -0.1867
  310MOL0     C42679   5.470   4.676   4.886  0.8902  0.3127 -0.2803
  310MOL0     C42680   5.620   4.687   4.836  0.3218  0.5849 -0.2319
  310MOL0     C42681   5.716   4.634   4.942  0.2360  1.4867  0.2345
  310MOL0     C42682   5.773   4.493   4.883  0.2868  0.0073  0.2649
  310MOL0     C42683   5.866   4.426   4.995  0.4374  0.5279  0.5139
  310MOL0     C42684   5.935   4.315   4.921  0.9698  0.0212 -0.1936
  310MOL0     C42685   6.036   4.250   5.008 -0.0908  0.1262 -0.3776
  310MOL0     C42686   6.057   4.098   4.990 -0.2045 -0.1722  0.7972
  310MOL0    Cl42687   6.212   4.033   5.066  0.7642 -0.2540  0.1086
  310MOL0     C42688   5.341   4.331   4.815  0.9942 -0.0352  0.3608
  310MOL0     C42689   5.318   4.245   4.711  0.6520  0.5240 -1.3243
  310MOL0     O42690   5.349   3.990   4.436 -0.2920  0.8147 -0.5669
  310MOL0     C42691   5.547   4.274   4.360 -0.2467  0.0508 -0.5898
  310MOL0     C42692   5.671   4.316   4.328 -0.5201  0.5984  0.0999
  310MOL0     N42693   6.483   4.275   4.201 -0.6755  0.2337  0.3177
  310MOL0     N42694   6.569   4.211   4.125 -0.4012 -0.4211 -0.6083
  310MOL0     C42695   5.843   3.656   3.382 -0.3040  0.2480  0.5392
  310MOL0     C42696   5.751   3.594   3.301 -0.2894  0.3749  0.1584
  310MOL0     C42697   5.490   3.397   3.025 -0.4016 -0.8943  0.1385
  310MOL0     C42698   5.487   3.375   2.893 -0.5283  0.6751 -0.2061
  310MOL0     C42699   5.381   3.306   2.837  1.0655  0.5984  0.0316
  310MOL0     C42700   5.285   3.249   2.918 -0.2531  0.7539  0.3070
  310MOL0     O42701   5.193   3.169   2.857 -0.3459  0.7955 -0.5127
  310MOL0     C42702   5.101   3.099   2.950  0.2503  0.4787  0.5888
  310MOL0     C42703   5.017   3.000   2.861  1.1358 -0.3268 -0.0909
  310MOL0     C42704   5.092   2.900   2.760  0.6319  0.3559 -1.0089
  310MOL0     C42705   4.982   2.816   2.696 -0.2568 -0.1938  0.5973
  310MOL0     C42706   5.047   2.718   2.609  0.4142  0.0910  0.9207
  310MOL0     C42707   5.092   2.640   2.526 -0.5970 -0.0157  0.2202
  310MOL0     C42708   5.290   3.271   3.056  0.5051  0.5450  0.0396
  310MOL0     C42709   5.391   3.345   3.113  0.2210  0.5249 -0.7786
  310MOL0     C42710   5.392   3.363   3.266 -0.8652  0.1709  0.4396
  310MOL0     H42711   5.948   3.361   3.147  1.5770  2.0503 -3.3738
  310MOL0     H42712   6.119   3.494   3.261  0.7958  4.1965  0.1607
  310MOL0     H42713   6.196   3.747   3.292 -0.8360  0.0091 -1.0671
  310MOL0     H42714   6.244   3.619   3.405  1.5430  1.5337  0.3986
  310MOL0     H42715   6.374   3.818   3.420  1.5877 -1.0512  2.1238
  310MOL0     H42716   6.238   3.915   3.470  3.1651  1.7190  1.2054
  310MOL0     H42717   6.209   3.778   3.678 -0.6534 -0.3195  0.7717
  310MOL0     H42718   6.351   3.693   3.624 -3.0116 -0.5584  1.5554
  310MOL0     H42719   6.484   3.916   3.615  0.6005 -1.4135  0.1667
  310MOL0     H42720   6.344   3.987   3.692 -0.0810 -0.0221 -3.0099
  310MOL0     H42721   6.528   3.762   3.778 -1.4420  0.3933 -3.1822
  310MOL0     H42722   6.388   3.801   3.875 -1.0491 -3.5558 -2.5490
  310MOL0     H42723   6.644   3.966   3.842  2.2510 -2.5787  2.5277
  310MOL0     H42724   6.490   4.039   3.892 -0.7694 -1.0526 -1.1142
  310MOL0     H42725   6.666   3.815   4.008 -1.0700 -0.5052 -3.2498
  310MOL0     H42726   6.508   3.856   4.090 -0.0767  2.5899  0.1561
  310MOL0     H42727   6.730   3.933   4.178 -0.4655 -1.5199 -0.5439
  310MOL0     H42728   6.735   4.040   4.041 -0.0099 -1.5339 -0.6844
  310MOL0     H42729   6.492   3.990   4.354 -3.0459 -3.0774 -3.1929
  310MOL0     H42730   6.379   4.291   4.483 -0.6872 -1.6972  2.6472
  310MOL0     H42731   6.330   4.132   4.477  1.7426 -1.5060 -0.0022
  310MOL0     H42732   6.159   4.302   4.454  0.4268 -2.0636  1.2860
  310MOL0     H42733   6.234   4.372   4.315 -0.4430  0.0254  0.2643
  310MOL0     H42734   6.172   4.189   4.169  0.0652 -0.1881 -0.1547
  310MOL0     H42735   6.101   4.103   4.311 -0.2059  1.3160 -0.0650
  310MOL0     H42736   6.003   4.363   4.199  4.9100 -2.8457 -1.4021
  310MOL0     H42737   5.928   4.200   4.183  0.2775  1.4152 -2.1750
  310MOL0     H42738   5.848   4.111   4.527  0.4223  1.4654 -0.0442
  310MOL0     H42739   5.534   3.990   4.659  1.5843  0.1709  1.4043
  310MOL0     H42740   5.714   3.977   4.648 -0.5354 -2.3271  3.4711
  310MOL0     H42741   5.608   3.886   4.539 -0.9302  1.4837 -2.0047
  310MOL0     H42742   5.328   4.466   4.452 -3.7235 -3.1263 -1.5610
  310MOL0     H42743   5.355   4.618   4.633 -1.5972 -0.6295 -0.9965
  310MOL0     H42744   5.403   4.735   4.824 -1.1575 -1.8671 -0.3195
  310MOL0     H42745   5.452   4.704   4.990 -5.4237 -0.1450 -0.8469
  310MOL0     H42746   5.627   4.642   4.737 -2.1897  3.0161 -1.6870
  310MOL0     H42747   5.634   4.793   4.813 -1.0360  1.2091  1.5760
  310MOL0     H42748   5.665   4.608   5.035 -1.7510  0.8360 -0.9871
  310MOL0     H42749   5.796   4.706   4.966  0.2002  3.0422 -3.5802
  310MOL0     H42750   5.848   4.517   4.808  1.5088 -3.3794  0.2448
  310MOL0     H42751   5.702   4.424   4.837 -0.3831  0.7303  0.1875
  310MOL0     H42752   5.939   4.502   5.026  1.0278  0.3654 -0.4373
  310MOL0     H42753   5.802   4.390   5.076 -2.5773  0.5340 -1.6709
  310MOL0     H42754   5.983   4.343   4.827 -0.2967 -0.6094 -1.0581
  310MOL0     H42755   5.867   4.233   4.895  1.2192  0.7194 -3.4819
  310MOL0     H42756   6.021   4.277   5.113 -0.2430  0.7869 -0.5603
  310MOL0     H42757   6.134   4.294   4.986  0.2176 -1.0726 -1.4735
  310MOL0     H42758   6.087   4.096   4.885 -3.0021  0.9545 -0.1121
  310MOL0     H42759   5.976   4.038   5.031 -1.1247  0.4463 -0.0741
  310MOL0     H42760   5.336   4.300   4.919  0.7043 -1.6778 -0.1083
  310MOL0     H42761   5.288   4.142   4.724  0.9204  0.7108  1.1812
  310MOL0     H42762   5.464   4.332   4.319 -1.0907 -0.9695 -0.3728
  310MOL0     H42763   5.688   4.412   4.279  0.2361 -0.3141 -1.5033
  310MOL0     H42764   5.819   3.737   3.449 -0.5997 -0.2612  1.0559
  310MOL0     H42765   5.644   3.613   3.305  0.1632  3.8748 -0.9170
  310MOL0     H42766   5.564   3.410   2.825 -2.3792 -0.2530 -2.9559
  310MOL0     H42767   5.376   3.304   2.729 -1.9669 -1.9250  0.1014
  310MOL0     H42768   5.144   3.051   3.038  1.9745 -1.7952 -1.3770
  310MOL0     H42769   5.035   3.174   2.994 -1.3355 -0.7588  0.4181
  310MOL0     H42770   4.943   3.053   2.800  3.4218  2.2948 -0.8205
  310MOL0     H42771   4.960   2.940   2.932  1.8547  0.7171  1.4177
  310MOL0     H42772   5.139   2.959   2.681  0.8006  0.8985 -0.5090
  310MOL0     H42773   5.175   2.844   2.804 -0.2883  0.2693  0.6886
  310MOL0     H42774   4.918   2.884   2.639 -2.9593  0.8841  4.5573
  310MOL0     H42775   4.922   2.770   2.774 -3.4101 -1.8884 -2.5487
  310MOL0     H42776   5.139   2.577   2.454  3.3482  2.5206  0.2252
  310MOL0     H42777   5.228   3.218   3.128 -1.9727  0.4931 -1.9766
  310MOL0     H42778   5.459   3.292   3.316 -0.6160  0.3217  0.3207
  310MOL0     H42779   5.421   3.468   3.274  0.1753 -0.0789  0.0838
  310MOL0     H42780   5.288   3.351   3.299 -0.8398 -0.7621  0.2003
  311MOL0     O42781   7.312   7.145   0.910 -0.6253 -0.4291 -0.1720
  311MOL0     C42782   7.204   7.153   0.959  0.9750 -0.5708  0.1780
  311MOL0     O42783   7.173   7.191   1.090 -0.3757  0.2206 -0.4206
  311MOL0     C42784   7.286   7.223   1.168 -0.3499  0.6102 -0.6390
  311MOL0     C42785   7.359   7.117   1.220 -0.9647  0.5252 -0.3202
  311MOL0     C42786   7.469   7.153   1.305 -0.6945  0.2139  0.2119
  311MOL0     C42787   7.513   7.283   1.330 -0.1665 -0.6566  0.1828
  311MOL0     O42788   7.626   7.291   1.403  0.1923 -0.1960 -0.8552
  311MOL0     C42789   7.649   7.420   1.478 -0.3265 -1.0458 -1.2541
  311MOL0     C42790   7.740   7.389   1.606 -0.1019  0.0577  0.5438
  311MOL0     C42791   7.791   7.506   1.682 -0.1292 -0.1098  1.0883
  311MOL0     C42792   7.897   7.599   1.607  0.4334  0.0432  0.2963
  311MOL0     C42793   7.953   7.709   1.689  0.1012 -0.6313  0.5095
  311MOL0     C42794   8.066   7.786   1.623 -0.8533  0.0259 -0.8602
  311MOL0     C42795   8.143   7.886   1.715  0.4959  0.6737 -0.1885
  311MOL0     C42796   8.285   7.914   1.681 -0.2378  0.1243  0.2546
  311MOL0     N42797   8.345   8.029   1.751 -0.4049  0.1121  0.0045
  311MOL0     C42798   8.366   8.030   1.888  0.4176  0.8001  0.5828
  311MOL0     C42799   8.439   8.136   1.923 -0.2789 -0.4802 -0.3847
  311MOL0     C42800   8.463   8.183   2.061 -0.0838 -0.3261  0.2882
  311MOL0     C42801   8.613   8.197   2.089 -0.2903 -0.2271  0.5042
  311MOL0     C42802   8.621   8.228   2.234 -0.0918 -0.4262 -0.4449
  311MOL0     C42803   8.771   8.241   2.277  1.0207 -0.5799 -0.5495
  311MOL0     O42804   8.775   8.289   2.408  0.2852 -0.0086 -0.1899
  311MOL0     C42805   8.767   8.217   2.525  0.5186 -0.2219  0.9212
  311MOL0     C42806   8.747   8.305   2.627 -0.1071  0.3692 -0.8225
  311MOL0     C42807   8.711   8.262   2.754 -0.5378 -0.1692  0.1767
  311MOL0     C42808   8.693   8.375   2.845  0.0019  0.6591  0.4386
  311MOL0     C42809   8.705   8.125   2.785 -0.7024 -0.5801 -0.7409
  311MOL0     C42810   8.690   8.073   2.923 -1.0080  1.3823  0.1520
  311MOL0     O42811   8.643   8.150   3.029 -0.0507 -0.0576 -0.3059
  311MOL0     C42812   8.600   8.078   3.139 -0.5492  0.4544 -0.0763
  311MOL0     C42813   8.661   7.960   3.199 -0.4174 -0.9619  0.4814
  311MOL0     C42814   8.599   7.910   3.308 -0.9067 -0.0293 -0.0363
  311MOL0     C42815   8.483   7.947   3.362  0.4930 -0.0370  0.8238
  311MOL0     O42816   8.409   7.906   3.469  0.0807  0.4493 -0.1860
  311MOL0     C42817   8.445   7.782   3.522 -0.4824  1.1704 -0.0825
  311MOL0     C42818   8.372   7.755   3.657 -0.0910  0.2108  0.6483
  311MOL0     C42819   8.426   7.652   3.745  0.4845  0.0985 -0.2808
  311MOL0     C42820   8.322   7.621   3.856  0.8760  0.2376 -0.6917
  311MOL0     C42821   8.247   7.484   3.841  0.0090 -0.3365 -0.5098
  311MOL0     C42822   8.178   7.451   3.712  0.4348  0.3952 -0.7646
  311MOL0     C42823   8.142   7.299   3.732 -0.7218 -0.0223 -0.9119
  311MOL0     C42824   8.068   7.253   3.605  0.6445  0.0305  0.0919
  311MOL0    Cl42825   8.027   7.078   3.617 -0.4470  0.7043  0.0453
  311MOL0     C42826   8.421   8.054   3.295 -0.1321  0.2005  0.0795
  311MOL0     C42827   8.478   8.116   3.187  0.1085 -0.4436  0.8088
  311MOL0     O42828   8.715   7.948   2.917 -0.6820  0.0883 -0.3320
  311MOL0     C42829   8.714   8.037   2.674  0.3857  0.1871  0.8219
  311MOL0     C42830   8.750   8.086   2.548  0.5726 -0.2932  0.3903
  311MOL0     N42831   8.460   8.210   1.801 -0.4261 -0.3033 -1.1639
  311MOL0     N42832   8.413   8.146   1.702  0.7269  0.6564  0.1710
  311MOL0     C42833   7.445   7.385   1.254 -0.7312  0.0919  0.9573
  311MOL0     C42834   7.313   7.355   1.194 -0.6699 -0.5196  0.5596
  311MOL0     C42835   7.098   7.130   0.851 -0.1224  0.5369  0.9738
  311MOL0     C42836   6.979   7.058   0.880 -0.4033 -1.3323 -0.0092
  311MOL0     C42837   6.864   7.079   0.798  0.2040 -0.8114  0.4475
  311MOL0     C42838   6.883   7.129   0.661 -0.5044 -0.1205 -0.0057
  311MOL0     O42839   6.798   7.105   0.562 -0.1743 -0.1385 -0.4661
  311MOL0     C42840   6.708   7.206   0.554  0.0461 -0.7385 -0.3730
  311MOL0     C42841   6.564   7.168   0.600 -0.4855 -0.2475  0.3738
  311MOL0     C42842   6.542   7.017   0.591  0.5204  0.4680 -0.6150
  311MOL0     C42843   6.552   6.952   0.454 -0.5458 -0.3309  0.8947
  311MOL0     C42844   6.448   6.850   0.428 -0.5629 -1.3872 -0.3856
  311MOL0     C42845   6.365   6.774   0.395  0.4068 -0.2191  0.1758
  311MOL0     C42846   7.012   7.169   0.623  0.3944 -0.4141 -0.0706
  311MOL0     C42847   7.110   7.187   0.717 -0.3027  1.0373 -0.2271
  311MOL0     C42848   7.228   7.242   0.652 -0.4457 -0.6972  0.4151
  311MOL0     H42849   7.347   7.011   1.201  2.9801 -0.1961  0.2710
  311MOL0     H42850   7.527   7.067   1.338 -0.5873 -1.0946 -3.0208
  311MOL0     H42851   7.549   7.455   1.505 -0.4267 -2.5232  0.5011
  311MOL0     H42852   7.704   7.481   1.406 -1.8440  1.4206 -0.4423
  311MOL0     H42853   7.686   7.323   1.674  1.0408 -3.1426 -1.3872
  311MOL0     H42854   7.820   7.319   1.578 -0.5861 -0.8799  1.4438
  311MOL0     H42855   7.704   7.569   1.702 -1.8857 -0.6848 -3.5142
  311MOL0     H42856   7.833   7.465   1.774  0.7108 -0.4811  0.5534
  311MOL0     H42857   7.977   7.537   1.567  0.5667  0.0627  0.5264
  311MOL0     H42858   7.852   7.633   1.514 -0.0199 -1.6242 -0.1198
  311MOL0     H42859   7.999   7.664   1.778 -0.9373 -0.1798  1.2951
  311MOL0     H42860   7.870   7.777   1.710 -1.8606 -1.1187 -4.4071
  311MOL0     H42861   8.144   7.715   1.595 -0.9127  0.6127 -2.6904
  311MOL0     H42862   8.020   7.829   1.533 -0.8865  1.8416 -0.0107
  311MOL0     H42863   8.147   7.850   1.819  3.9066  0.0398 -0.4119
  311MOL0     H42864   8.086   7.978   1.702 -3.1035 -1.6534 -2.7102
  311MOL0     H42865   8.349   7.829   1.707  0.3068  0.5447  0.3250
  311MOL0     H42866   8.290   7.925   1.573 -3.8583  0.1118 -0.0266
  311MOL0     H42867   8.342   7.958   1.966  2.6877 -1.4753 -0.6860
  311MOL0     H42868   8.421   8.116   2.137 -1.0638  0.7769  0.7597
  311MOL0     H42869   8.422   8.284   2.064 -0.0564 -0.3343  1.0362
  311MOL0     H42870   8.666   8.105   2.062  3.3940  2.8146 -4.6268
  311MOL0     H42871   8.657   8.277   2.028  2.7081 -1.6495  0.6116
  311MOL0     H42872   8.569   8.321   2.259  0.8076 -0.0827  0.2064
  311MOL0     H42873   8.567   8.150   2.287  0.6535 -1.8007 -1.6204
  311MOL0     H42874   8.829   8.148   2.272  1.1573 -0.5001 -0.4361
  311MOL0     H42875   8.827   8.315   2.219  2.8660 -0.1428  1.6465
  311MOL0     H42876   8.765   8.408   2.600  1.5382  0.1043 -0.8098
  311MOL0     H42877   8.775   8.389   2.916 -1.9885 -0.6421  3.1949
  311MOL0     H42878   8.606   8.359   2.909  1.4378  3.6746  3.5105
  311MOL0     H42879   8.665   8.464   2.788  1.7764  1.4437  0.7116
  311MOL0     H42880   8.755   7.928   3.157  1.1488  2.0324  1.4084
  311MOL0     H42881   8.663   7.834   3.351  1.6347  2.6408  1.2222
  311MOL0     H42882   8.432   7.693   3.458  1.3277  0.5220  0.3824
  311MOL0     H42883   8.553   7.780   3.540 -0.6016  0.4494  0.6276
  311MOL0     H42884   8.376   7.849   3.712  3.1218  0.6061 -0.0711
  311MOL0     H42885   8.266   7.736   3.638  0.5431 -5.7551  1.0851
  311MOL0     H42886   8.514   7.704   3.786  0.9606  0.2846 -1.5003
  311MOL0     H42887   8.442   7.561   3.687  0.7863  0.3018 -0.5241
  311MOL0     H42888   8.249   7.703   3.865 -0.5470 -1.0420 -0.2065
  311MOL0     H42889   8.379   7.618   3.948  2.0813 -0.1532 -1.4325
  311MOL0     H42890   8.324   7.407   3.852  1.4067  1.1276  0.4212
  311MOL0     H42891   8.177   7.468   3.924  1.0523  0.4713  0.5625
  311MOL0     H42892   8.242   7.458   3.623 -0.9365 -0.6443 -1.8751
  311MOL0     H42893   8.082   7.502   3.714 -1.7626 -3.3696  0.0690
  311MOL0     H42894   8.078   7.288   3.821  1.7418 -1.9162  0.7354
  311MOL0     H42895   8.233   7.239   3.734  0.3245  1.3946 -2.8018
  311MOL0     H42896   8.120   7.275   3.511  0.8420 -1.5355 -0.1892
  311MOL0     H42897   7.970   7.302   3.606  0.8079  0.3623  0.0965
  311MOL0     H42898   8.330   8.088   3.344 -0.9287  0.9768 -1.7997
  311MOL0     H42899   8.429   8.205   3.148 -1.5886 -1.8804 -0.5141
  311MOL0     H42900   8.684   7.933   2.684  0.6630 -0.5102 -3.6049
  311MOL0     H42901   8.748   8.020   2.462  2.4290 -2.7253  2.0416
  311MOL0     H42902   7.469   7.490   1.242  1.5850 -0.4033  0.7989
  311MOL0     H42903   7.238   7.427   1.162  0.3342 -0.7225 -2.5967
  311MOL0     H42904   6.974   7.010   0.978  2.0316 -3.1444 -0.6701
  311MOL0     H42905   6.768   7.034   0.820  0.5929 -1.3568  1.1080
  311MOL0     H42906   6.734   7.304   0.595 -0.9753  0.1439 -1.7448
  311MOL0     H42907   6.687   7.230   0.450 -5.1425 -1.5648  0.2130
  311MOL0     H42908   6.485   7.221   0.546 -0.6614 -1.3785 -0.5256
  311MOL0     H42909   6.545   7.196   0.704 -0.7343  1.3947 -0.0904
  311MOL0     H42910   6.607   6.965   0.662 -0.6781  1.4706  1.3235
  311MOL0     H42911   6.445   6.998   0.639  1.0865 -1.2253 -0.0677
  311MOL0     H42912   6.649   6.901   0.443  1.0780  2.6124  0.3855
  311MOL0     H42913   6.551   7.022   0.369  2.0514 -2.0089 -0.6738
  311MOL0     H42914   6.300   6.692   0.371 -1.1542 -0.1094  3.4725
  311MOL0     H42915   7.019   7.203   0.520 -3.6342  0.9322 -0.0666
  311MOL0     H42916   7.298   7.160   0.631  0.1881 -0.0759  0.0643
  311MOL0     H42917   7.211   7.293   0.557 -0.5914 -0.6760  0.4528
  311MOL0     H42918   7.276   7.320   0.712  1.1956  0.1173 -1.8280
  312MOL0     O42919   3.560   1.365   5.752  1.0458  0.9490  0.0926
  312MOL0     C42920   3.549   1.475   5.803  0.3641 -0.3007 -1.0302
  312MOL0     O42921   3.601   1.518   5.923  0.0593  0.2698 -0.0450
  312MOL0     C42922   3.658   1.419   5.998 -0.1329 -0.4472  0.3151
  312MOL0     C42923   3.789   1.438   6.034  0.3465  0.1719  0.0585
  312MOL0     C42924   3.854   1.358   6.135 -0.0866  0.3906 -0.0470
  312MOL0     C42925   3.776   1.262   6.216 -0.8423 -0.2347  0.4028
  312MOL0     O42926   3.848   1.178   6.308  0.2564  0.0267 -0.3149
  312MOL0     C42927   3.772   1.083   6.381  0.0313  0.4896 -0.5669
  312MOL0     C42928   3.876   1.028   6.479  0.2878 -0.8541  0.7586
  312MOL0     C42929   3.815   0.912   6.549 -0.6628 -0.6061  0.4602
  312MOL0     C42930   3.928   0.852   6.626 -0.2117  0.3294  0.2644
  312MOL0     C42931   3.953   0.928   6.768 -0.5202  0.3918  0.3765
  312MOL0     C42932   3.832   0.915   6.871 -0.7281 -0.9833  0.3548
  312MOL0     C42933   3.813   0.770   6.889  0.4646  0.1295  1.2034
  312MOL0     C42934   3.692   0.744   6.977  0.6281  0.1357  0.1444
  312MOL0     N42935   3.554   0.750   6.931  0.9324  1.0505 -0.1596
  312MOL0     C42936   3.487   0.639   6.897  0.7030 -0.1910  0.9128
  312MOL0     C42937   3.363   0.687   6.853 -0.0708 -0.4952 -0.3566
  312MOL0     C42938   3.240   0.624   6.791  0.4080 -0.0162 -1.2633
  312MOL0     C42939   3.273   0.559   6.659  0.4736  0.3800 -0.2821
  312MOL0     C42940   3.338   0.421   6.663 -0.0721  0.8122  0.2542
  312MOL0     C42941   3.478   0.410   6.617  0.5961 -0.5193 -1.0485
  312MOL0     O42942   3.490   0.293   6.538  0.3584  0.3061  0.9199
  312MOL0     C42943   3.611   0.260   6.491  0.0134  0.9826 -0.0591
  312MOL0     C42944   3.632   0.142   6.407 -0.3088  0.4115 -0.1752
  312MOL0     C42945   3.762   0.105   6.373  0.5733 -0.8012 -0.8036
  312MOL0     C42946   3.762  -0.020   6.295  0.3082 -0.3784 -0.4920
  312MOL0     C42947   3.876   0.160   6.422  0.5931  0.7952  0.8747
  312MOL0     C42948   4.018   0.103   6.382  1.0140  0.2112 -0.3083
  312MOL0     O42949   4.112   0.057   6.474  0.1322  0.0107 -0.5874
  312MOL0     C42950   4.184  -0.046   6.426  0.0217  0.7564 -0.5764
  312MOL0     C42951   4.276  -0.032   6.327  0.1157  0.5710 -0.4883
  312MOL0     C42952   4.354  -0.134   6.268 -0.8615  0.5918  0.0128
  312MOL0     C42953   4.342  -0.257   6.331  0.6449  0.3873 -0.8434
  312MOL0     O42954   4.434  -0.358   6.322  0.8068 -0.4805  0.3240
  312MOL0     C42955   4.536  -0.347   6.213  0.1370  1.1772 -0.4166
  312MOL0     C42956   4.574  -0.493   6.210 -1.2508  0.1833  0.2141
  312MOL0     C42957   4.644  -0.553   6.330  0.6232 -1.0761  0.9331
  312MOL0     C42958   4.675  -0.698   6.318  0.0137  0.4019  1.1507
  312MOL0     C42959   4.727  -0.757   6.448 -0.4566  0.6426  0.2008
  312MOL0     C42960   4.841  -0.677   6.525 -0.0118  0.0623  0.2362
  312MOL0     C42961   4.901  -0.739   6.644 -0.7498  0.7040 -0.0443
  312MOL0     C42962   4.989  -0.864   6.630  0.0378  0.3745 -0.4819
  312MOL0    Cl42963   5.024  -0.931   6.786 -0.0123 -0.5597 -0.3282
  312MOL0     C42964   4.251  -0.269   6.432  0.2709  0.0280 -0.2106
  312MOL0     C42965   4.174  -0.175   6.480 -0.2937 -0.3611 -1.3374
  312MOL0     O42966   4.038   0.131   6.267 -0.1303 -0.0280 -0.3977
  312MOL0     C42967   3.857   0.260   6.520 -0.9064  0.3647  1.1103
  312MOL0     C42968   3.731   0.319   6.543  0.4683 -0.4541 -0.3709
  312MOL0     N42969   3.366   0.823   6.861  1.0687 -0.3093 -0.2914
  312MOL0     N42970   3.479   0.864   6.908  0.3671  0.3761 -1.0709
  312MOL0     C42971   3.642   1.240   6.169  0.5133  0.1556 -0.2893
  312MOL0     C42972   3.587   1.315   6.064 -0.1543  0.5405 -0.3901
  312MOL0     C42973   3.486   1.578   5.726 -0.4168 -0.2546 -0.0260
  312MOL0     C42974   3.463   1.707   5.780  0.2986 -0.3941  0.0152
  312MOL0     C42975   3.396   1.799   5.710  0.2107 -0.5559 -0.3835
  312MOL0     C42976   3.384   1.795   5.572 -0.0314 -0.0083  0.3564
  312MOL0     O42977   3.316   1.900   5.510  0.6924  0.6558  0.5417
  312MOL0     C42978   3.343   1.906   5.358 -1.0288  0.3436 -0.9557
  312MOL0     C42979   3.330   2.052   5.312  0.3690  0.4686 -0.0947
  312MOL0     C42980   3.417   2.143   5.395 -0.3684 -0.6726  0.3330
  312MOL0     C42981   3.417   2.286   5.348  0.6982  0.6355 -1.3083
  312MOL0     C42982   3.496   2.298   5.226  0.0445 -0.8286  0.2037
  312MOL0     C42983   3.556   2.311   5.115  0.4309  0.2471 -0.7558
  312MOL0     C42984   3.405   1.668   5.514 -0.3151 -0.6062 -0.8686
  312MOL0     C42985   3.444   1.561   5.590 -0.9077  0.5176 -0.0293
  312MOL0     C42986   3.431   1.428   5.514  0.5099 -0.0179 -0.3414
  312MOL0     H42987   3.857   1.510   5.992  1.9138 -0.8218  0.7983
  312MOL0     H42988   3.957   1.364   6.166 -0.2162  3.6666  0.1084
  312MOL0     H42989   3.721   1.006   6.323 -0.0005  0.5147 -0.5726
  312MOL0     H42990   3.700   1.135   6.446 -1.2465 -0.4008 -1.2277
  312MOL0     H42991   3.959   0.988   6.421  0.8628 -1.5819  2.0555
  312MOL0     H42992   3.925   1.099   6.546  3.1553  0.4724 -2.4262
  312MOL0     H42993   3.733   0.950   6.611 -1.6375  0.7895 -1.5456
  312MOL0     H42994   3.787   0.843   6.469 -1.1295  0.8398 -0.6742
  312MOL0     H42995   3.915   0.744   6.635  2.3326 -0.2682 -2.0124
  312MOL0     H42996   4.025   0.861   6.575 -0.8761 -1.3749 -1.4304
  312MOL0     H42997   3.978   1.033   6.752 -1.6462  0.9518  1.9604
  312MOL0     H42998   4.047   0.886   6.805 -1.5401 -1.4627  1.0140
  312MOL0     H42999   3.856   0.961   6.967  2.1551 -1.5554  0.0119
  312MOL0     H43000   3.742   0.960   6.828 -0.6239 -0.7882  0.3370
  312MOL0     H43001   3.893   0.721   6.944  2.9196  5.1885  2.7642
  312MOL0     H43002   3.782   0.727   6.793 -0.3256  2.8228  0.1693
  312MOL0     H43003   3.706   0.640   7.009  1.0228  0.9634  2.9104
  312MOL0     H43004   3.708   0.790   7.075  2.0530  1.2813 -0.5853
  312MOL0     H43005   3.518   0.535   6.888 -0.4822 -0.3979 -2.6212
  312MOL0     H43006   3.163   0.701   6.788  0.8282  1.0296  4.4426
  312MOL0     H43007   3.195   0.549   6.857  1.0051 -1.3225 -2.2785
  312MOL0     H43008   3.172   0.556   6.617  0.9429  1.5892 -1.5511
  312MOL0     H43009   3.337   0.622   6.598  0.9476  0.4850  0.3223
  312MOL0     H43010   3.331   0.368   6.758 -2.9080  1.8838  0.7195
  312MOL0     H43011   3.286   0.357   6.591 -1.4047 -1.8256  3.3110
  312MOL0     H43012   3.494   0.499   6.556  2.2220  0.6070  0.8890
  312MOL0     H43013   3.548   0.407   6.701  0.0890  1.4188 -0.5038
  312MOL0     H43014   3.548   0.081   6.375 -2.1082  1.4676  2.2117
  312MOL0     H43015   3.682  -0.033   6.220 -0.7346 -0.8883  0.6736
  312MOL0     H43016   3.750  -0.101   6.367 -0.7603  0.4343  0.2759
  312MOL0     H43017   3.855  -0.028   6.239  1.8730  3.5052  1.2114
  312MOL0     H43018   4.302   0.068   6.291 -0.7175  1.4452  1.2154
  312MOL0     H43019   4.435  -0.124   6.196 -0.9647 -1.2737 -0.4106
  312MOL0     H43020   4.497  -0.318   6.115 -0.3795  3.0385  0.2853
  312MOL0     H43021   4.618  -0.282   6.244  0.0338  0.9888  0.2788
  312MOL0     H43022   4.491  -0.554   6.174  0.6957 -2.6018  0.0885
  312MOL0     H43023   4.649  -0.503   6.131 -3.1228 -2.2399 -1.3790
  312MOL0     H43024   4.584  -0.540   6.420  0.5050 -2.8901  1.1424
  312MOL0     H43025   4.737  -0.498   6.352  1.3163 -1.7064 -0.2857
  312MOL0     H43026   4.750  -0.684   6.240 -1.7835  1.8041 -0.4319
  312MOL0     H43027   4.599  -0.769   6.283 -0.2619  1.3199 -0.1784
  312MOL0     H43028   4.646  -0.785   6.515  1.4291 -0.9809  1.9537
  312MOL0     H43029   4.774  -0.852   6.417  1.2222  1.7675 -0.8689
  312MOL0     H43030   4.804  -0.578   6.550  1.5039  0.3717  1.4252
  312MOL0     H43031   4.919  -0.669   6.448 -1.3770 -1.1915 -1.3508
  312MOL0     H43032   4.813  -0.758   6.705 -0.7949  0.4857 -0.1763
  312MOL0     H43033   4.975  -0.677   6.695 -0.2509 -0.9499  1.3384
  312MOL0     H43034   5.079  -0.843   6.572 -0.0200  0.7994 -0.4213
  312MOL0     H43035   4.926  -0.940   6.582  0.7944 -1.2352  0.9589
  312MOL0     H43036   4.234  -0.368   6.473  1.2839  0.3279  0.9839
  312MOL0     H43037   4.110  -0.193   6.566  0.5658 -2.0062 -0.9911
  312MOL0     H43038   3.955   0.301   6.545  0.4870 -1.3420 -1.1084
  312MOL0     H43039   3.743   0.410   6.600  1.5580  1.4471 -3.4298
  312MOL0     H43040   3.591   1.153   6.210  1.7907 -0.8170 -0.6826
  312MOL0     H43041   3.482   1.313   6.039  0.2753 -1.8286 -2.3676
  312MOL0     H43042   3.488   1.714   5.885  0.4175 -0.7241  0.0078
  312MOL0     H43043   3.352   1.885   5.759  1.4704 -2.3488  4.4378
  312MOL0     H43044   3.440   1.868   5.327 -0.6570  0.2348  0.2731
  312MOL0     H43045   3.278   1.843   5.297  0.3290 -1.3190 -0.7697
  312MOL0     H43046   3.225   2.078   5.330 -0.4840 -1.1473 -2.2789
  312MOL0     H43047   3.353   2.065   5.206  3.9432 -1.4210  0.3028
  312MOL0     H43048   3.379   2.154   5.497 -2.0332  2.0378 -0.4732
  312MOL0     H43049   3.520   2.107   5.399  0.8578  2.5782  1.6991
  312MOL0     H43050   3.459   2.356   5.420 -3.8440  2.3559  0.0404
  312MOL0     H43051   3.318   2.333   5.352 -0.0625 -0.9828  1.0199
  312MOL0     H43052   3.610   2.309   5.022  0.4413 -0.5946 -0.7376
  312MOL0     H43053   3.396   1.655   5.406  2.0904 -0.8419 -1.0929
  312MOL0     H43054   3.532   1.388   5.503  0.3312  0.1420 -3.8814
  312MOL0     H43055   3.360   1.370   5.574 -0.7641  2.0985  0.3133
  312MOL0     H43056   3.399   1.429   5.409  1.4187 -2.4708 -0.7045
  313MOL0     O43057   2.991   3.541   3.987  0.1915 -0.2290  0.4681
  313MOL0     C43058   2.949   3.574   3.877 -0.0250 -0.4253  0.5155
  313MOL0     O43059   2.992   3.682   3.812 -0.3113  0.2592  0.0569
  313MOL0     C43060   3.078   3.766   3.880 -0.3863  0.0606  0.5519
  313MOL0     C43061   3.222   3.733   3.879 -0.2396 -0.1795 -0.3724
  313MOL0     C43062   3.305   3.824   3.952 -0.1144 -1.3106  1.0473
  313MOL0     C43063   3.254   3.937   4.016 -0.2629  0.4734 -0.8267
  313MOL0     O43064   3.339   4.030   4.079  0.1849 -1.1424  0.8290
  313MOL0     C43065   3.446   4.007   4.163 -0.0145  0.2621 -0.7092
  313MOL0     C43066   3.565   4.094   4.121 -0.0517 -1.2924 -0.9019
  313MOL0     C43067   3.527   4.233   4.106  0.9361 -0.9114  0.3036
  313MOL0     C43068   3.574   4.311   3.982 -0.3957  0.1889 -0.4984
  313MOL0     C43069   3.556   4.465   3.993  1.2438 -0.4706 -0.6145
  313MOL0     C43070   3.403   4.491   3.991  0.5928 -0.4563  0.5055
  313MOL0     C43071   3.351   4.634   4.040  1.2999 -0.1491  0.4503
  313MOL0     C43072   3.333   4.646   4.187  0.0740  0.0502  0.5402
  313MOL0     N43073   3.414   4.760   4.249  0.4557  0.2067  0.4550
  313MOL0     C43074   3.492   4.745   4.364 -0.5710  0.4927 -0.7133
  313MOL0     C43075   3.534   4.872   4.379 -1.1079 -0.7627 -0.5783
  313MOL0     C43076   3.614   4.919   4.498 -0.0123  1.4554 -1.1813
  313MOL0     C43077   3.528   4.891   4.621  0.6520  0.0110 -1.2243
  313MOL0     C43078   3.611   4.925   4.748  0.3801  1.5001  0.0945
  313MOL0     C43079   3.529   4.920   4.877  0.1331  1.4076  0.3498
  313MOL0     O43080   3.615   4.934   4.991  0.3426 -1.0425  0.0266
  313MOL0     C43081   3.642   5.053   5.063  0.1759  0.7358  1.4697
  313MOL0     C43082   3.685   5.028   5.188 -0.0404  0.0820  0.1703
  313MOL0     C43083   3.708   5.131   5.279 -0.6575  0.3089 -0.7572
  313MOL0     C43084   3.729   5.099   5.431  0.0481  0.0962  1.3593
  313MOL0     C43085   3.695   5.270   5.235 -0.0369 -0.0841 -0.3606
  313MOL0     C43086   3.704   5.393   5.324  0.7412  0.0917  0.4752
  313MOL0     O43087   3.658   5.510   5.262 -0.0803  0.0143 -0.1862
  313MOL0     C43088   3.681   5.633   5.330 -0.2701  0.5042 -0.4266
  313MOL0     C43089   3.575   5.722   5.350 -0.4663 -0.5833 -0.7627
  313MOL0     C43090   3.597   5.849   5.405 -0.1237  0.0729 -0.2762
  313MOL0     C43091   3.721   5.888   5.447 -0.1740  0.1562 -0.0712
  313MOL0     O43092   3.753   6.007   5.519 -0.0563  0.2523  0.7098
  313MOL0     C43093   3.640   6.070   5.595 -0.9567  0.9553  0.7825
  313MOL0     C43094   3.711   6.213   5.617  0.2084 -0.0491 -1.1415
  313MOL0     C43095   3.593   6.307   5.650 -0.2051 -0.4289  0.8291
  313MOL0     C43096   3.645   6.446   5.687 -0.4827 -0.9332 -1.1692
  313MOL0     C43097   3.537   6.516   5.770  0.1029 -0.6986  0.0435
  313MOL0     C43098   3.559   6.665   5.789 -0.4232  0.8629  0.0628
  313MOL0     C43099   3.462   6.712   5.905  0.6116  0.2061  0.8489
  313MOL0     C43100   3.460   6.863   5.891 -0.2935  0.0752 -0.1425
  313MOL0    Cl43101   3.614   6.933   5.947  0.0889 -0.0321 -0.4709
  313MOL0     C43102   3.824   5.815   5.414 -0.3910  0.3242  0.1466
  313MOL0     C43103   3.813   5.683   5.359  0.4914  0.4999  0.3770
  313MOL0     O43104   3.741   5.377   5.438  0.1663 -0.2375  1.0218
  313MOL0     C43105   3.649   5.294   5.108 -1.0906  0.2227  0.0977
  313MOL0     C43106   3.638   5.186   5.017 -0.8147 -0.1770  0.3623
  313MOL0     N43107   3.502   4.953   4.275  0.6176  0.2368  0.3900
  313MOL0     N43108   3.419   4.885   4.202 -0.3064 -0.3372 -0.1484
  313MOL0     C43109   3.116   3.961   4.021 -0.7220  0.1171  0.6564
  313MOL0     C43110   3.028   3.876   3.948 -0.0044  0.8679  0.1460
  313MOL0     C43111   2.829   3.505   3.818  0.0246  0.2132  0.0475
  313MOL0     C43112   2.758   3.572   3.723  0.9079 -0.2157  0.1715
  313MOL0     C43113   2.651   3.532   3.659  0.6504 -0.3364 -0.8347
  313MOL0     C43114   2.597   3.416   3.704 -0.2456 -0.1017 -0.1899
  313MOL0     O43115   2.489   3.373   3.633 -0.3488  0.2083  0.5391
  313MOL0     C43116   2.377   3.318   3.702  0.2403  0.4538 -0.0658
  313MOL0     C43117   2.330   3.399   3.818 -0.7270  0.7199  0.2066
  313MOL0     C43118   2.281   3.536   3.779 -0.6439 -0.9675  0.1339
  313MOL0     C43119   2.204   3.587   3.903 -0.1190  0.0866 -0.1687
  313MOL0     C43120   2.139   3.718   3.881 -0.0396 -0.9803  0.1621
  313MOL0     C43121   2.077   3.824   3.872  0.9902 -0.2912 -0.6971
  313MOL0     C43122   2.661   3.336   3.799  0.0554  0.7488  0.7540
  313MOL0     C43123   2.770   3.383   3.855 -0.6278  0.4710  0.1750
  313MOL0     C43124   2.846   3.286   3.956 -0.5007  0.4281  0.4858
  313MOL0     H43125   3.267   3.645   3.835 -0.3226 -0.6649  0.5061
  313MOL0     H43126   3.412   3.839   3.940 -0.3432 -0.1222  0.2421
  313MOL0     H43127   3.455   3.899   4.180 -0.8643  0.4734  1.3745
  313MOL0     H43128   3.429   4.040   4.265  2.0700 -1.1697  0.1752
  313MOL0     H43129   3.626   4.084   4.211 -0.4217 -1.3058 -0.6478
  313MOL0     H43130   3.615   4.049   4.035 -2.1898  0.1898 -3.0555
  313MOL0     H43131   3.420   4.240   4.124  1.2644 -0.6409  2.5200
  313MOL0     H43132   3.567   4.290   4.191  0.7192 -0.2632 -0.0190
  313MOL0     H43133   3.679   4.287   3.962  0.6057  1.8237  2.1883
  313MOL0     H43134   3.528   4.260   3.897 -1.0104 -0.9353  0.4612
  313MOL0     H43135   3.602   4.514   3.907  2.2419 -0.0356  0.1603
  313MOL0     H43136   3.602   4.498   4.086  0.5984  0.6890 -0.6862
  313MOL0     H43137   3.363   4.492   3.890  1.5578  3.3028  0.0067
  313MOL0     H43138   3.344   4.413   4.040 -1.0097  1.8311  2.4692
  313MOL0     H43139   3.262   4.660   3.983  2.0719  2.3096  0.2054
  313MOL0     H43140   3.431   4.703   4.010  1.8092 -0.2113  1.6153
  313MOL0     H43141   3.227   4.667   4.200  0.3657  4.1778 -2.1797
  313MOL0     H43142   3.368   4.553   4.234 -0.2496 -0.0439  0.5925
  313MOL0     H43143   3.510   4.665   4.435  1.8801  3.0622  1.8297
  313MOL0     H43144   3.633   5.026   4.499  0.3873  1.4748  2.7269
  313MOL0     H43145   3.709   4.865   4.505  0.1827  1.7487 -1.5595
  313MOL0     H43146   3.450   4.967   4.614  0.9415  0.9056  2.6011
  313MOL0     H43147   3.487   4.790   4.631  1.1760  0.0329  3.7647
  313MOL0     H43148   3.679   4.842   4.728  0.2940  2.0403 -3.1055
  313MOL0     H43149   3.668   5.019   4.744  0.1176  1.7542  1.7355
  313MOL0     H43150   3.457   5.002   4.875 -0.3911  0.9760  1.0059
  313MOL0     H43151   3.467   4.830   4.884  1.6032  0.3849  0.7689
  313MOL0     H43152   3.680   4.925   5.222  3.2213  0.1537  1.2080
  313MOL0     H43153   3.638   5.142   5.474 -2.1249  1.2298 -3.6392
  313MOL0     H43154   3.823   5.122   5.481 -1.1873  0.1036  3.7885
  313MOL0     H43155   3.719   4.992   5.450  1.9413 -0.5593 -0.8142
  313MOL0     H43156   3.477   5.695   5.310 -2.0190  0.3875  2.1201
  313MOL0     H43157   3.510   5.913   5.398 -1.6556 -1.9342 -0.3631
  313MOL0     H43158   3.549   6.078   5.536  0.1153  3.1250 -0.7244
  313MOL0     H43159   3.616   6.020   5.689 -0.8451  0.8359  0.7481
  313MOL0     H43160   3.776   6.211   5.705 -3.2778  3.0221  1.8399
  313MOL0     H43161   3.760   6.256   5.530  0.8381 -1.9330 -1.7845
  313MOL0     H43162   3.538   6.265   5.735  1.1009 -2.8364  0.5782
  313MOL0     H43163   3.522   6.317   5.567  0.1070  0.0059  0.6094
  313MOL0     H43164   3.663   6.502   5.594  1.0628  0.4476 -0.0920
  313MOL0     H43165   3.742   6.457   5.735  0.2011  3.1101 -2.9896
  313MOL0     H43166   3.444   6.499   5.715  0.0872 -2.3219  0.5306
  313MOL0     H43167   3.530   6.473   5.871  2.5707  0.0726  0.6323
  313MOL0     H43168   3.540   6.725   5.699 -2.8635  2.2143  1.3617
  313MOL0     H43169   3.664   6.675   5.818 -0.6069 -1.6742  1.8968
  313MOL0     H43170   3.484   6.671   6.004 -0.5120  2.8479  2.2759
  313MOL0     H43171   3.355   6.688   5.897  0.4601  0.8350  0.9837
  313MOL0     H43172   3.376   6.897   5.952 -1.1376 -0.1285 -1.1448
  313MOL0     H43173   3.417   6.896   5.795 -2.7684 -2.4017 -0.0341
  313MOL0     H43174   3.924   5.849   5.440  0.2974  0.1888 -2.1209
  313MOL0     H43175   3.897   5.614   5.357 -0.3204 -0.5619  1.1441
  313MOL0     H43176   3.632   5.393   5.066 -3.4631 -0.5610 -0.9876
  313MOL0     H43177   3.603   5.197   4.914 -2.0971 -1.0513  0.6805
  313MOL0     H43178   3.066   4.047   4.065  1.6862  1.9894 -0.0267
  313MOL0     H43179   2.919   3.881   3.944 -0.0880  0.0095  0.8092
  313MOL0     H43180   2.776   3.675   3.697 -1.6570  0.8649  2.2325
  313MOL0     H43181   2.605   3.603   3.590  2.1829  2.3919  0.7968
  313MOL0     H43182   2.303   3.300   3.624  0.0645  2.2609 -0.3751
  313MOL0     H43183   2.397   3.224   3.753 -2.9220 -0.3231 -0.1000
  313MOL0     H43184   2.411   3.400   3.893  4.1876 -1.4355 -4.4153
  313MOL0     H43185   2.249   3.341   3.864  1.2842  0.1564  3.3767
  313MOL0     H43186   2.367   3.603   3.766 -2.1443  1.2414  0.8880
  313MOL0     H43187   2.223   3.533   3.687 -1.3905 -1.5896  0.6180
  313MOL0     H43188   2.273   3.597   3.987 -0.5749 -2.6030  0.5997
  313MOL0     H43189   2.129   3.511   3.924  4.8291 -4.9940  1.5659
  313MOL0     H43190   2.023   3.916   3.865 -0.5345 -1.0970  0.0839
  313MOL0     H43191   2.618   3.240   3.826 -1.7306  1.8902  2.2168
  313MOL0     H43192   2.954   3.295   3.947 -0.4357 -0.0118  0.7999
  313MOL0     H43193   2.831   3.317   4.060  3.1396 -0.0560  1.2864
  313MOL0     H43194   2.829   3.178   3.958  0.4007  0.2847  2.2260
  314MOL0     O43195   6.280   4.740   6.046 -0.0683 -0.6640 -0.0672
  314MOL0     C43196   6.234   4.637   6.093  0.0661  0.0446  0.0757
  314MOL0     O43197   6.117   4.624   6.161  0.0628 -0.1266  0.0330
  314MOL0     C43198   6.033   4.723   6.136  0.5163 -0.0263 -0.3904
  314MOL0     C43199   6.004   4.776   6.007  0.6515 -0.1422  0.6397
  314MOL0     C43200   5.912   4.886   6.000 -0.0359  0.6903  0.2407
  314MOL0     C43201   5.863   4.942   6.127 -0.2258 -0.5992 -0.2743
  314MOL0     O43202   5.790   5.057   6.147 -0.6339 -0.1882  0.9797
  314MOL0     C43203   5.768   5.145   6.035  1.3767  0.3440  0.2131
  314MOL0     C43204   5.707   5.276   6.070 -0.0220 -0.5393 -0.4844
  314MOL0     C43205   5.571   5.276   6.148 -0.2445 -0.8211  0.2716
  314MOL0     C43206   5.452   5.261   6.043 -0.3283 -0.0404 -0.0248
  314MOL0     C43207   5.324   5.234   6.130  0.4555 -0.4829  0.6146
  314MOL0     C43208   5.197   5.248   6.030 -1.6821 -0.5250 -0.0697
  314MOL0     C43209   5.127   5.384   6.033  0.3023 -0.3325 -0.3902
  314MOL0     C43210   5.054   5.421   6.163  0.0744 -0.4109  0.3853
  314MOL0     N43211   4.974   5.305   6.202 -0.3330 -0.6260 -0.1191
  314MOL0     C43212   4.858   5.254   6.148  0.1273 -0.6727  0.6261
  314MOL0     C43213   4.819   5.171   6.239  0.2957 -0.1619  0.9414
  314MOL0     C43214   4.698   5.078   6.217 -0.7254 -0.0474  0.9974
  314MOL0     C43215   4.591   5.071   6.318  1.0121 -0.2981 -0.0343
  314MOL0     C43216   4.484   4.964   6.286  0.0217 -0.4002 -0.7813
  314MOL0     C43217   4.359   4.972   6.371  0.4223 -0.1360 -0.3322
  314MOL0     O43218   4.297   5.107   6.348  0.2237  0.2194  0.8043
  314MOL0     C43219   4.209   5.152   6.439  0.0100  0.3777  0.4363
  314MOL0     C43220   4.200   5.287   6.465 -0.2619  0.5214  0.2239
  314MOL0     C43221   4.106   5.346   6.549 -0.5529 -0.2502 -0.1966
  314MOL0     C43222   4.104   5.498   6.541  0.5234  0.3684  0.2621
  314MOL0     C43223   4.026   5.266   6.635  0.4937  0.1995  0.4421
  314MOL0     C43224   3.918   5.312   6.723  0.2134  0.0020  0.2739
  314MOL0     O43225   3.847   5.434   6.694  0.3102  0.3461 -0.0887
  314MOL0     C43226   3.737   5.462   6.772  1.1420 -0.4306  1.0771
  314MOL0     C43227   3.616   5.396   6.769 -0.0623  0.2558  0.0279
  314MOL0     C43228   3.519   5.422   6.868 -0.5334 -0.7953  0.8135
  314MOL0     C43229   3.535   5.522   6.963  0.1402  0.3673  0.4723
  314MOL0     O43230   3.448   5.547   7.066 -0.6829  0.5158 -0.0768
  314MOL0     C43231   3.511   5.563   7.196 -0.0955 -0.0906  0.1133
  314MOL0     C43232   3.416   5.581   7.319  0.0388 -0.2642  0.0667
  314MOL0     C43233   3.373   5.716   7.348  0.4655 -0.5169  0.4428
  314MOL0     C43234   3.262   5.751   7.251  0.3554 -0.5940  0.2410
  314MOL0     C43235   3.229   5.901   7.283 -0.0471  0.0682  0.6377
  314MOL0     C43236   3.131   5.966   7.182  0.6933 -0.3487  0.0128
  314MOL0     C43237   3.074   6.089   7.245 -0.0463 -0.6978 -0.3818
  314MOL0     C43238   2.939   6.113   7.175 -0.0348  0.3662 -0.3761
  314MOL0    Cl43239   2.894   6.271   7.220  0.1666  0.8671  0.0855
  314MOL0     C43240   3.654   5.598   6.952 -0.3110 -0.1658  1.2201
  314MOL0     C43241   3.755   5.566   6.864  0.3155 -0.6437  0.3113
  314MOL0     O43242   3.896   5.247   6.823  0.6025 -0.7953  0.4537
  314MOL0     C43243   4.042   5.126   6.617  0.3439  0.6788  0.3437
  314MOL0     C43244   4.132   5.068   6.521  0.2330  0.3393 -0.5926
  314MOL0     N43245   4.902   5.166   6.346  0.4812  0.5414 -0.7376
  314MOL0     N43246   5.003   5.240   6.316  0.2408  0.4667 -0.3065
  314MOL0     C43247   5.894   4.883   6.250 -0.1595 -0.0518  0.9654
  314MOL0     C43248   5.984   4.778   6.257  0.4330  0.0110  0.6267
  314MOL0     C43249   6.321   4.526   6.099  0.7082 -0.2192  0.2825
  314MOL0     C43250   6.409   4.515   6.204 -0.1064 -0.1635 -0.3501
  314MOL0     C43251   6.470   4.397   6.221 -1.1318  0.4326 -0.2641
  314MOL0     C43252   6.439   4.286   6.139  0.4370 -0.6311  0.3919
  314MOL0     O43253   6.501   4.164   6.148  0.4559 -0.5060  0.1536
  314MOL0     C43254   6.606   4.149   6.239 -0.9295 -0.2318 -0.1495
  314MOL0     C43255   6.667   4.005   6.233 -0.1798 -0.1515  0.1876
  314MOL0     C43256   6.715   3.976   6.090 -0.2690  0.8779 -1.0584
  314MOL0     C43257   6.801   3.847   6.091 -0.6193  0.4219  0.0220
  314MOL0     C43258   6.709   3.733   6.112 -0.3910 -0.2698 -0.1082
  314MOL0     C43259   6.638   3.633   6.120 -0.1860  0.0048 -0.8912
  314MOL0     C43260   6.363   4.305   6.023 -0.4649 -0.3797  0.1555
  314MOL0     C43261   6.291   4.422   6.002 -0.6576 -0.7193  1.0297
  314MOL0     C43262   6.210   4.448   5.883 -0.3348  0.2396  0.2289
  314MOL0     H43263   6.046   4.727   5.920 -0.2296 -1.9024  1.1468
  314MOL0     H43264   5.895   4.935   5.905  2.7212 -0.5182 -0.9775
  314MOL0     H43265   5.696   5.082   5.982  0.1872 -0.0571  2.2084
  314MOL0     H43266   5.860   5.161   5.978  1.0555  0.6768 -0.2108
  314MOL0     H43267   5.783   5.334   6.125  0.5267 -3.0618  1.6043
  314MOL0     H43268   5.683   5.338   5.983  1.3937 -1.9307 -1.9272
  314MOL0     H43269   5.569   5.208   6.234 -0.7231 -0.8126  0.2651
  314MOL0     H43270   5.562   5.377   6.186  0.3086 -0.7718  0.2775
  314MOL0     H43271   5.440   5.349   5.979  0.8957  0.9379  1.0437
  314MOL0     H43272   5.471   5.167   5.991 -1.1624 -0.8403  1.0617
  314MOL0     H43273   5.322   5.308   6.211  3.4744 -0.0965  0.4429
  314MOL0     H43274   5.321   5.129   6.160 -2.5437 -1.1528 -1.5312
  314MOL0     H43275   5.229   5.219   5.930 -1.6237  1.3343 -0.6411
  314MOL0     H43276   5.132   5.168   6.066  1.2666 -2.5446  1.1232
  314MOL0     H43277   5.051   5.396   5.955 -1.0085  0.8034  1.0010
  314MOL0     H43278   5.203   5.457   6.004 -0.1661 -0.1851 -1.2904
  314MOL0     H43279   5.129   5.437   6.241 -0.7813 -1.3385  1.4375
  314MOL0     H43280   5.001   5.517   6.155  1.4981  0.2737 -1.5261
  314MOL0     H43281   4.802   5.274   6.057  2.8493  0.2618 -0.9462
  314MOL0     H43282   4.734   4.976   6.198  0.0741  0.3931  0.0422
  314MOL0     H43283   4.656   5.117   6.124  1.3693 -0.4452 -0.1761
  314MOL0     H43284   4.642   5.045   6.411  2.3167 -2.4457 -1.2651
  314MOL0     H43285   4.552   5.173   6.323 -0.5718 -0.8169 -0.7574
  314MOL0     H43286   4.461   4.976   6.179  3.2305 -0.8261 -1.6290
  314MOL0     H43287   4.530   4.867   6.305 -0.1419 -0.4619 -0.6958
  314MOL0     H43288   4.287   4.893   6.348  0.2296  0.5969 -2.4439
  314MOL0     H43289   4.400   4.964   6.472 -0.2057  1.0268  0.0301
  314MOL0     H43290   4.269   5.356   6.417 -0.7378  1.1480  0.4334
  314MOL0     H43291   4.020   5.524   6.476  2.2266 -0.2572 -2.3552
  314MOL0     H43292   4.192   5.545   6.495  0.4711 -0.3333 -0.5787
  314MOL0     H43293   4.088   5.541   6.640  1.1252  1.0337  0.0798
  314MOL0     H43294   3.608   5.321   6.691 -1.0066  3.2005 -2.9523
  314MOL0     H43295   3.442   5.346   6.879  0.8053 -2.6126 -1.5940
  314MOL0     H43296   3.561   5.468   7.218  1.4480  0.8835  0.9950
  314MOL0     H43297   3.594   5.633   7.184  0.9998 -1.7640 -3.4513
  314MOL0     H43298   3.340   5.507   7.295  0.3988 -0.8651  0.7575
  314MOL0     H43299   3.463   5.545   7.411 -2.3076 -0.0832  1.4008
  314MOL0     H43300   3.454   5.789   7.349  0.5787 -0.6442  0.7320
  314MOL0     H43301   3.332   5.715   7.449 -0.0047 -1.4069  0.2581
  314MOL0     H43302   3.171   5.691   7.266  0.8146 -1.2182  0.6122
  314MOL0     H43303   3.297   5.743   7.147  0.0775  3.0368 -0.2592
  314MOL0     H43304   3.173   5.915   7.376 -0.2463 -0.6267  0.6276
  314MOL0     H43305   3.314   5.970   7.291 -0.3697  0.7028 -0.8956
  314MOL0     H43306   3.061   5.890   7.147 -0.0142  0.8355 -1.2346
  314MOL0     H43307   3.189   6.012   7.101 -0.4321  0.4886 -0.3414
  314MOL0     H43308   3.141   6.175   7.238  0.4464 -1.1241 -1.0632
  314MOL0     H43309   3.060   6.071   7.352 -3.0167  0.0801 -0.5655
  314MOL0     H43310   2.865   6.055   7.231  0.8113 -1.2702 -0.8901
  314MOL0     H43311   2.944   6.098   7.067  3.7260  0.8023 -0.3971
  314MOL0     H43312   3.670   5.689   7.008 -1.2668  1.6761 -1.3157
  314MOL0     H43313   3.839   5.634   6.864 -2.1780  3.0052 -3.6436
  314MOL0     H43314   3.968   5.069   6.672  0.0205  2.3587  1.7411
  314MOL0     H43315   4.138   4.959   6.518  0.3542  0.1743  2.6336
  314MOL0     H43316   5.869   4.915   6.351  0.8406 -0.9427  1.5080
  314MOL0     H43317   5.997   4.739   6.357  0.5259  1.1136  1.0510
  314MOL0     H43318   6.430   4.599   6.270  0.4958 -0.2794 -0.3820
  314MOL0     H43319   6.519   4.393   6.318 -3.9737 -0.4093  1.2661
  314MOL0     H43320   6.680   4.228   6.223 -2.3148  1.1596  0.0403
  314MOL0     H43321   6.590   4.179   6.343  1.6486  1.1365 -0.0467
  314MOL0     H43322   6.585   3.944   6.271 -1.2038  2.5514  2.6888
  314MOL0     H43323   6.750   4.009   6.304  0.5809  0.8370 -0.7314
  314MOL0     H43324   6.629   3.966   6.023 -1.8112  0.6357  0.8831
  314MOL0     H43325   6.776   4.065   6.075 -0.8649  1.8651  1.8280
  314MOL0     H43326   6.872   3.851   6.174 -1.3499  0.7479  0.6368
  314MOL0     H43327   6.853   3.857   5.995 -0.4416 -3.4620 -0.4497
  314MOL0     H43328   6.569   3.552   6.131  0.2001 -0.7460 -3.2714
  314MOL0     H43329   6.354   4.228   5.947 -2.3819  1.2756 -1.4269
  314MOL0     H43330   6.107   4.481   5.903 -0.3134  1.0703 -0.9099
  314MOL0     H43331   6.250   4.518   5.809 -0.4277 -2.9013 -3.0409
  314MOL0     H43332   6.203   4.355   5.827  0.7674  1.3691 -1.9023
  315MOL0     O43333   2.153   7.486   8.441 -0.1229 -0.5580 -0.0049
  315MOL0     C43334   2.145   7.499   8.322  0.5740 -0.4419  0.5661
  315MOL0     O43335   2.203   7.601   8.249  0.3546 -0.1757  0.3457
  315MOL0     C43336   2.256   7.715   8.306 -0.8022 -0.7652  1.0165
  315MOL0     C43337   2.368   7.727   8.396  0.7100  0.0381  0.3262
  315MOL0     C43338   2.416   7.849   8.438 -0.9706 -0.5939  0.1537
  315MOL0     C43339   2.351   7.967   8.395  0.9709  0.0398  0.0992
  315MOL0     O43340   2.419   8.082   8.434 -0.3804 -0.3522 -0.1189
  315MOL0     C43341   2.377   8.204   8.376 -0.0664 -0.8235  1.0143
  315MOL0     C43342   2.431   8.319   8.465  1.1169  0.2397 -0.2978
  315MOL0     C43343   2.557   8.390   8.414 -0.6724 -0.7682 -0.0538
  315MOL0     C43344   2.601   8.503   8.505  0.1846  0.8170 -0.4202
  315MOL0     C43345   2.698   8.609   8.445  0.4634  0.0596 -0.5683
  315MOL0     C43346   2.842   8.553   8.424 -0.0086 -0.1343 -0.1686
  315MOL0     C43347   2.905   8.476   8.549 -0.4781  0.8137 -0.5262
  315MOL0     C43348   3.063   8.482   8.549 -0.3636 -0.2515  0.5979
  315MOL0     N43349   3.116   8.573   8.653  0.8379  0.3199 -0.4073
  315MOL0     C43350   3.108   8.539   8.792 -0.3739  0.1271 -0.0029
  315MOL0     C43351   3.160   8.642   8.853 -0.4260 -0.3811  1.1644
  315MOL0     C43352   3.188   8.669   8.997 -0.2815  0.1573  0.5315
  315MOL0     C43353   3.298   8.580   9.045 -0.1761  0.6282 -0.1671
  315MOL0     C43354   3.352   8.628   9.185 -0.5228  0.4532 -0.2422
  315MOL0     C43355   3.435   8.533   9.261 -0.0141  0.3939  0.8053
  315MOL0     O43356   3.341   8.442   9.309 -0.0018 -0.5249 -0.2689
  315MOL0     C43357   3.398   8.327   9.343 -0.3705  0.0719  0.0851
  315MOL0     C43358   3.431   8.310   9.477 -0.5736  0.1340 -0.2358
  315MOL0     C43359   3.473   8.186   9.533 -0.0722 -0.3459 -0.5017
  315MOL0     C43360   3.474   8.171   9.686 -0.0869  0.0393  0.1010
  315MOL0     C43361   3.519   8.085   9.445  0.8561 -1.0270  0.0486
  315MOL0     C43362   3.567   7.955   9.492  0.1365 -0.7534 -0.1810
  315MOL0     O43363   3.531   7.851   9.413  0.1699  0.1668 -0.3870
  315MOL0     C43364   3.566   7.728   9.458  0.0987 -0.2655 -0.3167
  315MOL0     C43365   3.495   7.683   9.573  0.0661 -1.5964 -0.3831
  315MOL0     C43366   3.560   7.582   9.644  0.2670  0.5032  0.9346
  315MOL0     C43367   3.662   7.496   9.588 -0.4647 -0.4364 -0.5003
  315MOL0     O43368   3.727   7.391   9.647  0.2072  0.0780 -1.0438
  315MOL0     C43369   3.672   7.330   9.767 -0.4383  0.1434 -0.4499
  315MOL0     C43370   3.748   7.205   9.803 -0.2521 -0.5724  0.2762
  315MOL0     C43371   3.887   7.224   9.851 -0.3317  0.4743  0.5456
  315MOL0     C43372   3.958   7.111   9.929 -0.0797  0.3821  1.3397
  315MOL0     C43373   4.078   7.148  10.019 -0.3934 -0.4988 -0.1555
  315MOL0     C43374   4.135   7.015  10.086  0.6522 -0.7271  0.4101
  315MOL0     C43375   4.245   6.955   9.995  0.1419  0.3174  0.5406
  315MOL0     C43376   4.280   6.812  10.050 -0.4572 -0.4459  0.1400
  315MOL0    Cl43377   4.368   6.813  10.206 -0.0361 -0.0900 -0.0041
  315MOL0     C43378   3.723   7.531   9.471  0.6417 -0.5256 -0.1968
  315MOL0     C43379   3.678   7.649   9.408 -0.6261 -0.2067 -0.0157
  315MOL0     O43380   3.649   7.954   9.583  0.5333 -0.2934 -0.5334
  315MOL0     C43381   3.472   8.097   9.309  0.1376 -0.0504  0.5348
  315MOL0     C43382   3.406   8.217   9.259 -0.7514  0.0032  0.1813
  315MOL0     N43383   3.191   8.740   8.758 -0.1851 -1.5184  0.5931
  315MOL0     N43384   3.173   8.696   8.642  0.0833 -0.5599  0.4191
  315MOL0     C43385   2.239   7.961   8.305 -0.3152 -1.4729 -0.5056
  315MOL0     C43386   2.203   7.837   8.264 -0.0002 -0.6245 -0.0327
  315MOL0     C43387   2.075   7.392   8.242 -0.8944 -0.2831 -0.3671
  315MOL0     C43388   2.081   7.250   8.298 -0.3524 -1.1852  0.6242
  315MOL0     C43389   2.034   7.151   8.203 -0.8683 -0.0140 -0.9896
  315MOL0     C43390   1.969   7.181   8.087 -0.6698  0.0387  0.2334
  315MOL0     O43391   1.945   7.073   8.001 -0.1814 -0.2162  0.1206
  315MOL0     C43392   1.802   7.055   7.973  0.0557  0.4164 -0.3203
  315MOL0     C43393   1.772   6.925   7.904  0.4448 -0.4107 -1.3456
  315MOL0     C43394   1.834   6.799   7.978 -0.5262  0.0045 -0.6723
  315MOL0     C43395   1.760   6.758   8.103  0.0075 -0.0142  0.4902
  315MOL0     C43396   1.827   6.640   8.167  0.3780 -0.4148 -0.0959
  315MOL0     C43397   1.912   6.570   8.218  0.1964  0.0348  0.7488
  315MOL0     C43398   1.944   7.312   8.045 -0.8712  0.5449 -0.4403
  315MOL0     C43399   2.004   7.417   8.123  0.2723  0.2817 -0.2087
  315MOL0     C43400   1.973   7.561   8.086 -0.5731  0.5714 -0.0610
  315MOL0     H43401   2.429   7.641   8.424 -0.5821 -1.0755 -0.1669
  315MOL0     H43402   2.515   7.856   8.481 -0.0738 -2.2152 -1.5051
  315MOL0     H43403   2.268   8.208   8.376 -0.1001  2.4826 -1.2365
  315MOL0     H43404   2.411   8.213   8.272 -0.4584  0.6399  0.9848
  315MOL0     H43405   2.349   8.390   8.478 -2.0090 -3.3405  1.8397
  315MOL0     H43406   2.449   8.275   8.564 -0.3382  0.4672  0.0997
  315MOL0     H43407   2.634   8.315   8.396 -0.4764 -0.8512  1.0676
  315MOL0     H43408   2.550   8.436   8.315  1.9082  0.0746  0.1032
  315MOL0     H43409   2.514   8.550   8.551 -1.1890 -0.4882 -1.5708
  315MOL0     H43410   2.644   8.448   8.589 -1.3888 -0.7162 -0.5558
  315MOL0     H43411   2.690   8.682   8.526  1.5458  1.7963 -1.9427
  315MOL0     H43412   2.660   8.663   8.359 -0.0823 -0.7998 -0.8771
  315MOL0     H43413   2.838   8.491   8.333 -0.9862 -1.5697  0.8067
  315MOL0     H43414   2.901   8.644   8.414  2.0326 -1.4051 -0.2486
  315MOL0     H43415   2.876   8.370   8.542 -2.2973  1.3535 -2.4364
  315MOL0     H43416   2.857   8.491   8.646 -2.5357 -4.2786 -0.3982
  315MOL0     H43417   3.110   8.385   8.564 -1.0215 -0.7693 -0.5794
  315MOL0     H43418   3.101   8.521   8.454 -0.6201  0.2498  0.6952
  315MOL0     H43419   3.074   8.454   8.849  1.6178 -1.1419 -0.6010
  315MOL0     H43420   3.103   8.642   9.061  1.6489  0.2933  3.2970
  315MOL0     H43421   3.218   8.768   9.032 -0.3341  0.0836  0.7858
  315MOL0     H43422   3.251   8.482   9.039 -1.9102  1.0601  3.3142
  315MOL0     H43423   3.387   8.587   8.983  0.9802  0.0021  1.3775
  315MOL0     H43424   3.426   8.707   9.169 -1.0680  0.9867 -0.1875
  315MOL0     H43425   3.278   8.668   9.256 -0.7180 -0.5709  0.1541
  315MOL0     H43426   3.502   8.490   9.186  0.8706 -0.4465  2.0460
  315MOL0     H43427   3.508   8.571   9.333 -0.3151 -0.8228  1.7743
  315MOL0     H43428   3.421   8.387   9.554  1.2148 -3.1009  3.5698
  315MOL0     H43429   3.406   8.245   9.731 -0.5775  1.6529 -3.0338
  315MOL0     H43430   3.575   8.187   9.726  0.2855 -0.2033 -0.7253
  315MOL0     H43431   3.446   8.068   9.710  3.8099 -1.6153 -1.5945
  315MOL0     H43432   3.406   7.741   9.596  0.8519 -0.8630  0.9366
  315MOL0     H43433   3.513   7.560   9.739  1.6730  0.0065  1.5436
  315MOL0     H43434   3.664   7.387   9.860  0.3473 -0.7405  0.1732
  315MOL0     H43435   3.566   7.311   9.749 -1.3735  1.3795  2.9039
  315MOL0     H43436   3.700   7.138   9.875 -0.5514  1.7894  2.4208
  315MOL0     H43437   3.753   7.148   9.710 -0.8935 -0.3457  0.0943
  315MOL0     H43438   3.879   7.295   9.933 -1.5010  0.3005  0.6066
  315MOL0     H43439   3.955   7.255   9.771 -1.9875  0.2003 -1.0452
  315MOL0     H43440   3.986   7.039   9.852 -0.6119 -0.8066  2.2279
  315MOL0     H43441   3.873   7.078   9.989 -0.9258 -1.6057 -0.8099
  315MOL0     H43442   4.158   7.203   9.970  1.5155 -1.0154  2.2057
  315MOL0     H43443   4.037   7.208  10.101  0.6626  0.4488 -0.3037
  315MOL0     H43444   4.051   6.946  10.100 -2.5729  1.9523 -3.4114
  315MOL0     H43445   4.172   7.046  10.184 -2.0165  0.5681  1.0922
  315MOL0     H43446   4.330   7.022  10.010  0.8015 -0.5189  0.6670
  315MOL0     H43447   4.211   6.946   9.892 -0.4782 -2.3873  0.8845
  315MOL0     H43448   4.338   6.765   9.970 -0.2401 -0.8815  0.5443
  315MOL0     H43449   4.193   6.746  10.051 -1.4177  0.7245 -1.7280
  315MOL0     H43450   3.794   7.464   9.424 -1.2262 -3.0980  0.4263
  315MOL0     H43451   3.717   7.676   9.310  1.3548 -1.1094  0.4936
  315MOL0     H43452   3.485   8.007   9.249  5.9316  0.3853  0.5774
  315MOL0     H43453   3.378   8.221   9.154  2.7587 -2.5889 -1.0583
  315MOL0     H43454   2.199   8.044   8.248  0.0344 -3.4777 -3.9841
  315MOL0     H43455   2.120   7.837   8.194 -1.6286  2.1073  1.6995
  315MOL0     H43456   2.143   7.222   8.383  1.7141  0.0637 -0.3832
  315MOL0     H43457   2.045   7.044   8.214 -0.6546 -0.2128 -2.8149
  315MOL0     H43458   1.742   7.049   8.064  1.4658 -0.9951  0.5694
  315MOL0     H43459   1.769   7.143   7.918 -1.9924  0.3004  0.6536
  315MOL0     H43460   1.830   6.934   7.812  2.3184 -1.5601 -0.3587
  315MOL0     H43461   1.668   6.918   7.872  0.2307  1.3722 -1.1417
  315MOL0     H43462   1.834   6.718   7.906 -0.9669 -0.3146 -0.3166
  315MOL0     H43463   1.940   6.810   8.002 -0.4044  1.7707 -1.8576
  315MOL0     H43464   1.658   6.724   8.082  1.0027 -2.7205 -0.3774
  315MOL0     H43465   1.747   6.834   8.181 -2.4648 -0.8472  0.9818
  315MOL0     H43466   1.988   6.513   8.268 -1.7488 -1.8107  1.7352
  315MOL0     H43467   1.879   7.330   7.960 -0.0279 -0.8253 -1.4171
  315MOL0     H43468   1.941   7.617   8.175 -1.5610  2.1434 -1.3537
  315MOL0     H43469   2.043   7.620   8.027 -2.4547  0.5666 -2.4196
  315MOL0     H43470   1.895   7.556   8.010  0.9594 -1.1853 -1.6173
  316MOL0     O43471   5.944  10.714   3.166 -0.6994 -0.0807 -0.3522
  316MOL0     C43472   5.916  10.628   3.255  1.4473  0.2154 -0.3233
  316MOL0     O43473   5.804  10.550   3.244  0.6098 -0.1336  0.0698
  316MOL0     C43474   5.707  10.598   3.156  0.3878  0.4836  0.1356
  316MOL0     C43475   5.713  10.586   3.018  0.7226  0.3696  0.0272
  316MOL0     C43476   5.605  10.633   2.949  1.1781  0.7006 -0.8770
  316MOL0     C43477   5.484  10.683   3.008 -0.0583  1.4415 -0.2674
  316MOL0     O43478   5.369  10.729   2.949  0.1862 -0.0501 -0.0255
  316MOL0     C43479   5.358  10.709   2.809  1.1834 -0.0666  0.3693
  316MOL0     C43480   5.224  10.626   2.781 -1.0738 -0.8318 -0.3428
  316MOL0     C43481   5.223  10.560   2.639 -0.2265  1.0449  0.2252
  316MOL0     C43482   5.091  10.484   2.614  0.4677  0.8038  1.4816
  316MOL0     C43483   5.079  10.474   2.460 -0.4688 -1.0899 -1.0044
  316MOL0     C43484   4.954  10.398   2.415 -0.8881 -0.1616 -0.2052
  316MOL0     C43485   4.975  10.383   2.267  0.1098  0.1153  0.2936
  316MOL0     C43486   4.856  10.305   2.193  0.0145 -1.0599 -0.3185
  316MOL0     N43487   4.734  10.375   2.217  1.3128 -0.2030  0.0099
  316MOL0     C43488   4.720  10.517   2.218 -0.3530  0.0760 -0.1281
  316MOL0     C43489   4.590  10.539   2.223 -0.2956  0.1493  0.2617
  316MOL0     C43490   4.512  10.661   2.227 -0.3709  0.0247 -0.3054
  316MOL0     C43491   4.412  10.681   2.112 -0.3109 -0.3563 -0.3419
  316MOL0     C43492   4.356  10.824   2.078 -1.3474 -0.2639 -0.0954
  316MOL0     C43493   4.210  10.799   2.026  0.1215 -0.6424 -0.8827
  316MOL0     O43494   4.136  10.920   2.010 -1.2255 -0.1787 -0.4781
  316MOL0     C43495   4.002  10.903   1.980 -0.8381  0.0822 -0.1035
  316MOL0     C43496   3.944  10.789   1.935 -0.0608 -0.2077  0.3454
  316MOL0     C43497   3.811  10.782   1.883 -0.3618  0.0157  0.0557
  316MOL0     C43498   3.763  10.640   1.841  0.9015  0.4882  0.6747
  316MOL0     C43499   3.745  10.905   1.884 -0.1159 -0.2590 -0.3714
  316MOL0     C43500   3.599  10.915   1.851  0.0526  0.0068  0.4920
  316MOL0     O43501   3.525  10.802   1.851 -0.5658 -0.2004  0.4198
  316MOL0     C43502   3.395  10.791   1.819  0.3895 -0.3383  0.5354
  316MOL0     C43503   3.314  10.887   1.754  0.8036 -0.2218 -1.4288
  316MOL0     C43504   3.172  10.864   1.736  0.7906 -0.0444 -0.1010
  316MOL0     C43505   3.118  10.751   1.793 -0.0521  1.1421  0.8527
  316MOL0     O43506   2.985  10.708   1.786  0.2149  0.1464  0.3136
  316MOL0     C43507   2.902  10.759   1.679 -0.7063 -0.3210 -0.0263
  316MOL0     C43508   2.766  10.704   1.701  0.3754 -0.0865 -0.2269
  316MOL0     C43509   2.704  10.744   1.833  0.0631 -0.0311 -0.0903
  316MOL0     C43510   2.568  10.678   1.840  0.7836  0.6675  0.2662
  316MOL0     C43511   2.469  10.740   1.931  0.3161 -0.3890 -0.2448
  316MOL0     C43512   2.516  10.734   2.077 -0.3923  0.0111 -0.1456
  316MOL0     C43513   2.414  10.800   2.169  0.1096 -0.1964  0.1581
  316MOL0     C43514   2.423  10.777   2.323  1.5579  0.1394 -0.3295
  316MOL0    Cl43515   2.557  10.885   2.397  0.1243  0.3707  0.3946
  316MOL0     C43516   3.202  10.662   1.850  0.1867 -0.2127  0.7044
  316MOL0     C43517   3.335  10.680   1.864 -0.3213 -0.2681  0.6123
  316MOL0     O43518   3.558  11.032   1.842  0.2051 -0.1668  0.4773
  316MOL0     C43519   3.801  11.017   1.943 -0.6155 -0.8355  0.5746
  316MOL0     C43520   3.933  11.017   1.978  0.9995 -0.5202 -0.8480
  316MOL0     N43521   4.527  10.413   2.230  0.5759 -0.0400 -0.2464
  316MOL0     N43522   4.610  10.314   2.217 -0.0272 -0.9744  0.2472
  316MOL0     C43523   5.487  10.691   3.147  0.1673 -0.4543 -0.0560
  316MOL0     C43524   5.597  10.649   3.224  0.5417  0.8194 -0.4260
  316MOL0     C43525   5.989  10.622   3.392 -0.3301  0.9457 -0.0422
  316MOL0     C43526   5.913  10.604   3.508 -1.2939 -0.3075  0.2664
  316MOL0     C43527   5.989  10.591   3.630 -0.2606  0.1921  0.5675
  316MOL0     C43528   6.125  10.579   3.635 -0.2150 -0.3089 -0.5122
  316MOL0     O43529   6.178  10.584   3.764  0.0321 -0.0551  1.0595
  316MOL0     C43530   6.318  10.545   3.780 -0.2901  0.8332  0.5085
  316MOL0     C43531   6.333  10.497   3.925 -0.2943 -0.1538 -0.0981
  316MOL0     C43532   6.476  10.440   3.957 -0.6614 -0.1518 -0.0162
  316MOL0     C43533   6.470  10.344   4.069 -0.3367 -0.3151  1.0840
  316MOL0     C43534   6.600  10.279   4.072 -1.4304  1.2331  0.1020
  316MOL0     C43535   6.707  10.223   4.094  0.2844 -0.3305  0.5590
  316MOL0     C43536   6.200  10.582   3.519 -0.3498 -0.6357  0.6272
  316MOL0     C43537   6.135  10.616   3.394  0.5710  0.1181 -0.5676
  316MOL0     C43538   6.221  10.648   3.274  1.3738 -0.5995  0.1711
  316MOL0     H43539   5.806  10.553   2.972  1.5468  1.9819  0.4491
  316MOL0     H43540   5.624  10.636   2.842 -1.7129  1.5832 -1.4378
  316MOL0     H43541   5.436  10.644   2.770  0.7849 -1.1010  1.2363
  316MOL0     H43542   5.354  10.808   2.762 -2.2178 -1.3906 -2.5888
  316MOL0     H43543   5.206  10.565   2.870  0.2684  1.4405  1.6108
  316MOL0     H43544   5.147  10.703   2.777  0.0392  0.5558  2.1992
  316MOL0     H43545   5.232  10.648   2.573  1.4364  2.5122  2.2609
  316MOL0     H43546   5.303  10.487   2.625 -0.1764  1.4788 -2.3227
  316MOL0     H43547   5.089  10.382   2.653  0.0492  0.4547  0.5778
  316MOL0     H43548   5.001  10.532   2.653  1.1358  2.7817  0.7222
  316MOL0     H43549   5.165  10.420   2.421 -1.1866 -3.7887  0.8623
  316MOL0     H43550   5.073  10.576   2.419  0.9956 -1.0455 -1.1556
  316MOL0     H43551   4.957  10.300   2.465 -1.6769  0.2147  0.5944
  316MOL0     H43552   4.865  10.452   2.446 -0.2645 -0.5496  2.5524
  316MOL0     H43553   5.064  10.325   2.242 -1.2823 -1.5708 -0.9992
  316MOL0     H43554   4.981  10.483   2.225 -0.2021  0.0093 -0.0136
  316MOL0     H43555   4.870  10.313   2.085 -0.9601  0.8482 -0.3340
  316MOL0     H43556   4.841  10.202   2.228 -1.0298 -0.1346  2.1645
  316MOL0     H43557   4.804  10.586   2.220  2.7638 -3.2720 -2.5965
  316MOL0     H43558   4.573  10.750   2.245 -1.3495  0.4678  0.9679
  316MOL0     H43559   4.458  10.662   2.322  3.0515  3.7041  1.9052
  316MOL0     H43560   4.445  10.628   2.022 -3.8102  0.1601 -2.1057
  316MOL0     H43561   4.322  10.627   2.144 -1.3322  1.2904 -0.3092
  316MOL0     H43562   4.358  10.896   2.161 -0.2903 -2.3318  1.7849
  316MOL0     H43563   4.417  10.866   1.998 -0.4052  0.8039  1.1413
  316MOL0     H43564   4.202  10.745   1.931  0.0037  1.1901 -1.9817
  316MOL0     H43565   4.169  10.746   2.112  1.8649  0.0665  0.4426
  316MOL0     H43566   4.002  10.698   1.919 -1.1281 -0.3196 -3.9548
  316MOL0     H43567   3.691  10.634   1.758  3.4822 -0.6656 -1.6526
  316MOL0     H43568   3.733  10.576   1.924  0.3913 -3.3891 -2.2000
  316MOL0     H43569   3.848  10.590   1.793 -1.4828 -2.5651 -0.7524
  316MOL0     H43570   3.357  10.982   1.723  1.1124 -0.1319 -0.7427
  316MOL0     H43571   3.113  10.939   1.683  2.4617  0.2067 -1.7026
  316MOL0     H43572   2.891  10.868   1.674 -3.2990 -0.4684  0.6300
  316MOL0     H43573   2.939  10.718   1.585  1.9169  0.3463  0.6332
  316MOL0     H43574   2.714  10.745   1.613  1.3130 -1.9803 -1.7510
  316MOL0     H43575   2.774  10.596   1.682 -1.7789 -0.3018 -0.2074
  316MOL0     H43576   2.689  10.852   1.843 -1.4315 -0.0499 -1.5836
  316MOL0     H43577   2.767  10.705   1.913 -0.9738 -1.3874  0.1120
  316MOL0     H43578   2.582  10.572   1.861  2.4489  0.2788 -2.3343
  316MOL0     H43579   2.524  10.684   1.740  1.8375  1.5898 -0.1716
  316MOL0     H43580   2.439  10.840   1.900 -0.7090 -0.0594  1.6453
  316MOL0     H43581   2.373  10.688   1.927 -1.2617  1.6469  4.0274
  316MOL0     H43582   2.611  10.785   2.094  0.0294 -0.5611 -0.7157
  316MOL0     H43583   2.521  10.628   2.105 -1.3221  0.2274  0.9294
  316MOL0     H43584   2.314  10.774   2.132 -0.5135  0.5548  1.2429
  316MOL0     H43585   2.416  10.909   2.158 -1.9616 -0.1463 -0.2585
  316MOL0     H43586   2.447  10.674   2.349  1.9024  0.3474  0.2056
  316MOL0     H43587   2.332  10.808   2.374  2.8212  2.3600  0.7707
  316MOL0     H43588   3.167  10.568   1.891  5.5586 -4.9507 -3.8572
  316MOL0     H43589   3.394  10.596   1.901 -1.7752 -1.8023 -0.4116
  316MOL0     H43590   3.754  11.113   1.962  1.7931  0.2281  1.6540
  316MOL0     H43591   3.986  11.108   2.003 -0.3604 -0.1404  0.8778
  316MOL0     H43592   5.407  10.747   3.194 -1.0386 -1.2381 -1.0943
  316MOL0     H43593   5.596  10.672   3.330 -1.7260  0.5885 -0.3403
  316MOL0     H43594   5.805  10.600   3.501 -1.5756 -1.4411  3.2502
  316MOL0     H43595   5.933  10.579   3.722 -2.7068  1.5581 -0.6673
  316MOL0     H43596   6.331  10.459   3.714 -0.0488  1.9011 -0.8716
  316MOL0     H43597   6.392  10.621   3.757 -0.5923  1.0471  0.2287
  316MOL0     H43598   6.254  10.423   3.940  0.3234 -0.3763  2.4490
  316MOL0     H43599   6.300  10.571   3.998  0.4403  0.1193 -0.0335
  316MOL0     H43600   6.524  10.394   3.870 -0.5628 -2.2512  1.1086
  316MOL0     H43601   6.541  10.512   4.007 -2.6388  1.5065  0.3127
  316MOL0     H43602   6.391  10.270   4.054  0.8617 -1.5827  0.8211
  316MOL0     H43603   6.451  10.400   4.161 -5.8250  0.5402 -0.2502
  316MOL0     H43604   6.799  10.172   4.117  0.0520 -0.6983  0.6727
  316MOL0     H43605   6.308  10.579   3.527 -0.3436  0.5298  1.2180
  316MOL0     H43606   6.319  10.619   3.312  0.2009 -0.3080  3.8964
  316MOL0     H43607   6.208  10.585   3.186  0.8230 -1.7558  1.0462
  316MOL0     H43608   6.207  10.755   3.257 -1.3596 -0.7732  0.8052
  317MOL0     O43609   5.613   6.144   7.866  0.4510 -0.5615  0.5952
  317MOL0     C43610   5.720   6.086   7.843  0.2726 -0.7858  0.5148
  317MOL0     O43611   5.733   5.985   7.752 -0.3739 -0.3255 -0.5621
  317MOL0     C43612   5.625   5.939   7.684 -0.6114 -0.0559  0.3265
  317MOL0     C43613   5.546   5.831   7.745  0.2943 -0.7835 -0.7611
  317MOL0     C43614   5.448   5.776   7.666 -0.6512  0.3167  0.7211
  317MOL0     C43615   5.412   5.820   7.534  0.5756  0.2452 -0.4864
  317MOL0     O43616   5.316   5.749   7.469 -0.0924  0.3399 -0.3261
  317MOL0     C43617   5.239   5.821   7.375  0.0865 -0.8245  0.3469
  317MOL0     C43618   5.118   5.746   7.324 -0.4979  0.3188 -0.4802
  317MOL0     C43619   5.009   5.713   7.428 -0.5122 -0.3346 -0.0904
  317MOL0     C43620   4.901   5.644   7.350 -0.4394  0.5937 -0.3824
  317MOL0     C43621   4.769   5.650   7.415 -0.6036 -0.3280 -0.3829
  317MOL0     C43622   4.657   5.615   7.319 -0.5593  0.6288 -0.1837
  317MOL0     C43623   4.542   5.527   7.388  0.6932  0.5901 -0.3438
  317MOL0     C43624   4.455   5.599   7.498  0.2117  0.0263 -0.2628
  317MOL0     N43625   4.377   5.498   7.563 -0.7272  0.2856  0.7294
  317MOL0     C43626   4.428   5.382   7.622 -0.5971 -0.7395  0.5397
  317MOL0     C43627   4.326   5.331   7.687 -0.1293 -0.7045 -0.6076
  317MOL0     C43628   4.334   5.213   7.777  0.1769  0.1975  0.6629
  317MOL0     C43629   4.209   5.119   7.773  0.0978 -0.2252 -0.5470
  317MOL0     C43630   4.103   5.170   7.872  0.3348 -0.4868  0.6567
  317MOL0     C43631   3.975   5.097   7.900 -0.4400 -0.0474  0.9578
  317MOL0     O43632   4.010   4.971   7.963 -0.8953 -0.4082  0.0329
  317MOL0     C43633   3.908   4.871   7.973  0.4250 -0.1172  0.8352
  317MOL0     C43634   3.944   4.747   8.029 -0.3546  1.4584  1.3084
  317MOL0     C43635   3.849   4.647   8.074  0.3977 -0.0285  0.4405
  317MOL0     C43636   3.897   4.521   8.139  0.6422 -0.0517  0.5425
  317MOL0     C43637   3.715   4.683   8.032  0.1735 -0.9227 -0.0795
  317MOL0     C43638   3.598   4.585   8.029 -0.8878 -0.7307 -0.2377
  317MOL0     O43639   3.511   4.595   7.918 -0.6071  0.6422 -0.5796
  317MOL0     C43640   3.411   4.504   7.894  0.0370 -0.1278 -0.0844
  317MOL0     C43641   3.398   4.377   7.957 -0.2115  0.0531 -0.1823
  317MOL0     C43642   3.289   4.283   7.935 -0.0301 -1.2918 -0.2690
  317MOL0     C43643   3.187   4.328   7.838 -0.2257  1.0313 -0.3017
  317MOL0     O43644   3.072   4.248   7.807  0.2690  0.1783  0.8037
  317MOL0     C43645   3.049   4.133   7.900  0.5661  0.5538  0.6438
  317MOL0     C43646   2.937   4.051   7.829 -0.2104  0.6378 -0.8047
  317MOL0     C43647   2.976   3.982   7.696 -0.0573 -0.0203  0.3254
  317MOL0     C43648   2.854   3.940   7.610  0.1348 -1.0168  0.5186
  317MOL0     C43649   2.894   3.868   7.475 -0.2874 -0.3957 -0.6860
  317MOL0     C43650   2.763   3.824   7.418 -0.3147  0.1162  0.8887
  317MOL0     C43651   2.790   3.743   7.283  0.6441 -0.9654  0.7458
  317MOL0     C43652   2.875   3.799   7.161  0.4230 -0.6503  0.2238
  317MOL0    Cl43653   2.841   3.974   7.137 -0.0039 -0.2408 -0.0642
  317MOL0     C43654   3.204   4.455   7.777  0.3709  1.1326  0.6034
  317MOL0     C43655   3.318   4.539   7.801  0.5351  0.5488 -0.0715
  317MOL0     O43656   3.589   4.513   8.132  0.6153 -0.3287  0.0456
  317MOL0     C43657   3.681   4.803   7.966  0.5465 -0.2157  0.1390
  317MOL0     C43658   3.774   4.891   7.925 -0.3298 -0.4221 -0.2937
  317MOL0     N43659   4.215   5.410   7.678  0.6416 -0.0260 -0.0650
  317MOL0     N43660   4.249   5.507   7.599 -0.4214 -0.0967 -0.8195
  317MOL0     C43661   5.489   5.924   7.481 -0.8351 -0.3585  0.3797
  317MOL0     C43662   5.603   5.981   7.554 -0.3436  0.7738 -0.0228
  317MOL0     C43663   5.835   6.140   7.902 -1.4015  0.1954 -0.7601
  317MOL0     C43664   5.821   6.185   8.039  0.6973  1.3097  0.1362
  317MOL0     C43665   5.919   6.258   8.104  0.1316  0.8532 -0.3352
  317MOL0     C43666   6.040   6.282   8.048 -0.2004 -0.9632 -0.8221
  317MOL0     O43667   6.143   6.345   8.118 -0.6869  0.1219 -0.4568
  317MOL0     C43668   6.117   6.414   8.248  0.2630  0.6846  0.0808
  317MOL0     C43669   6.031   6.537   8.216 -0.2148  0.5932 -0.2445
  317MOL0     C43670   6.102   6.628   8.113 -0.2288  0.3490  1.1834
  317MOL0     C43671   6.154   6.762   8.174  0.3885  0.0594  0.1800
  317MOL0     C43672   6.079   6.881   8.138 -0.2692 -1.1258  0.6335
  317MOL0     C43673   6.017   6.978   8.093  0.5982  0.3295 -0.1013
  317MOL0     C43674   6.059   6.243   7.920 -0.1646  0.8332  0.5794
  317MOL0     C43675   5.958   6.186   7.840  0.1635 -0.4534  0.9611
  317MOL0     C43676   5.984   6.170   7.691  0.6384 -0.4317  0.0801
  317MOL0     H43677   5.560   5.795   7.847 -0.7211  0.0308 -0.3155
  317MOL0     H43678   5.415   5.679   7.703  1.4440 -0.1457  1.5675
  317MOL0     H43679   5.305   5.845   7.292 -2.1241  2.2232 -0.7047
  317MOL0     H43680   5.213   5.918   7.419 -0.6451 -1.5954  1.6764
  317MOL0     H43681   5.074   5.805   7.242 -1.4963  3.7064  2.2504
  317MOL0     H43682   5.154   5.649   7.288 -1.9511  0.1107 -1.4534
  317MOL0     H43683   5.048   5.646   7.505  2.2537  0.7174 -0.4571
  317MOL0     H43684   4.978   5.803   7.481  0.4374  1.1026 -1.8510
  317MOL0     H43685   4.889   5.695   7.253  0.9906 -2.0263 -2.0686
  317MOL0     H43686   4.926   5.539   7.330  0.7875  1.0270 -1.2753
  317MOL0     H43687   4.751   5.744   7.467  0.3358 -1.1031  1.4100
  317MOL0     H43688   4.774   5.567   7.486  1.3081 -2.0459 -2.4008
  317MOL0     H43689   4.604   5.701   7.276 -2.0595  1.2639  2.7144
  317MOL0     H43690   4.682   5.551   7.233 -2.2062 -1.5508  0.8644
  317MOL0     H43691   4.587   5.433   7.422  0.9919 -0.6635 -3.8197
  317MOL0     H43692   4.476   5.494   7.307  1.6997 -1.1784 -0.5132
  317MOL0     H43693   4.523   5.641   7.573 -1.2867 -2.0254  2.4816
  317MOL0     H43694   4.381   5.669   7.457  0.3255 -0.9687 -2.2610
  317MOL0     H43695   4.531   5.353   7.605 -1.0303 -2.2529  0.4168
  317MOL0     H43696   4.358   5.248   7.879 -1.3784  0.3217  1.0018
  317MOL0     H43697   4.418   5.152   7.744  0.4049 -0.1264  1.7929
  317MOL0     H43698   4.166   5.094   7.676  1.2324 -0.1826 -1.0671
  317MOL0     H43699   4.246   5.028   7.822  4.3281  1.3486 -0.4105
  317MOL0     H43700   4.144   5.197   7.970 -0.1120  1.9515  0.2372
  317MOL0     H43701   4.069   5.266   7.833  0.8360 -0.6543 -0.2188
  317MOL0     H43702   3.907   5.156   7.963 -1.4687  1.4075 -1.3935
  317MOL0     H43703   3.925   5.091   7.803  0.7890  3.0777  0.0044
  317MOL0     H43704   4.051   4.734   8.043  0.0661  0.5273 -2.0498
  317MOL0     H43705   3.994   4.489   8.100  0.4910 -2.5721  2.0230
  317MOL0     H43706   3.829   4.439   8.114 -0.7495  1.2978 -0.3168
  317MOL0     H43707   3.911   4.532   8.247  4.2444  1.0524  0.0908
  317MOL0     H43708   3.480   4.348   8.021 -0.3059  0.4545  0.1266
  317MOL0     H43709   3.278   4.192   7.992 -0.4090 -2.0995 -1.5815
  317MOL0     H43710   3.137   4.069   7.915 -0.6771 -1.3341  0.1990
  317MOL0     H43711   3.017   4.166   7.999 -0.3385  1.8521 -0.0635
  317MOL0     H43712   2.897   3.981   7.903  1.0693  1.8659  1.1449
  317MOL0     H43713   2.852   4.117   7.811 -1.0697 -0.6524 -1.6462
  317MOL0     H43714   3.031   3.888   7.706  1.2889  0.3568 -2.5615
  317MOL0     H43715   3.037   4.055   7.642  0.2632 -0.4390  0.1160
  317MOL0     H43716   2.797   4.030   7.584  1.6082 -0.8388 -2.5438
  317MOL0     H43717   2.790   3.873   7.667 -2.1077  1.7434  1.4798
  317MOL0     H43718   2.947   3.935   7.405  1.2560 -1.4931 -0.6368
  317MOL0     H43719   2.964   3.785   7.491 -0.1657 -0.0948  0.3659
  317MOL0     H43720   2.702   3.914   7.418 -1.0403 -0.3684  0.2837
  317MOL0     H43721   2.718   3.754   7.489 -1.3753  0.0248  0.1367
  317MOL0     H43722   2.693   3.722   7.236  0.1622 -0.3566  1.4558
  317MOL0     H43723   2.843   3.652   7.311  0.9840 -1.6524 -1.8489
  317MOL0     H43724   2.857   3.752   7.064  2.2161 -0.2141 -0.3533
  317MOL0     H43725   2.979   3.784   7.189  1.2737  0.6127 -1.9933
  317MOL0     H43726   3.121   4.483   7.712 -0.3326 -1.7930  0.0892
  317MOL0     H43727   3.307   4.638   7.760 -0.9848  0.8566  0.9701
  317MOL0     H43728   3.575   4.824   7.950  0.9007  2.8970  1.3012
  317MOL0     H43729   3.742   4.975   7.864  1.1025 -0.3498 -0.9989
  317MOL0     H43730   5.456   5.966   7.386 -2.3823  4.3435  2.7087
  317MOL0     H43731   5.667   6.054   7.506  4.0708 -3.0905 -0.7106
  317MOL0     H43732   5.730   6.164   8.094  0.6938  2.3551  0.5597
  317MOL0     H43733   5.895   6.303   8.200  1.5961 -1.3358  1.1336
  317MOL0     H43734   6.065   6.355   8.325  0.8772  0.2883  0.2007
  317MOL0     H43735   6.210   6.452   8.291  0.9257 -2.8408  2.2089
  317MOL0     H43736   6.010   6.583   8.313 -0.1389 -1.4458  0.7896
  317MOL0     H43737   5.929   6.509   8.190  0.3111 -1.5144 -0.2255
  317MOL0     H43738   6.191   6.576   8.078  0.7804  0.3873  3.5153
  317MOL0     H43739   6.037   6.653   8.028  2.2410  0.3272 -0.8302
  317MOL0     H43740   6.254   6.783   8.135  0.6552  2.5744  1.9675
  317MOL0     H43741   6.165   6.762   8.283  1.8075  0.5335  0.0574
  317MOL0     H43742   5.968   7.065   8.055  2.7681  1.1011 -1.2584
  317MOL0     H43743   6.154   6.256   7.870 -0.2272 -0.9899 -0.0807
  317MOL0     H43744   6.090   6.156   7.669  1.2527  0.5586  2.1602
  317MOL0     H43745   5.928   6.087   7.647  0.3969 -0.3289  0.1945
  317MOL0     H43746   5.952   6.265   7.647  0.8992 -0.3224  0.1269
  318MOL0     O43747   4.469   2.380   2.811 -0.6182  0.9301  0.0299
  318MOL0     C43748   4.424   2.431   2.713  0.3786  0.7108  0.1523
  318MOL0     O43749   4.296   2.474   2.696 -0.3116  0.1041 -0.0316
  318MOL0     C43750   4.217   2.455   2.807  0.2320 -0.6630  0.0056
  318MOL0     C43751   4.146   2.336   2.833  0.3708 -0.6697 -0.0780
  318MOL0     C43752   4.041   2.325   2.936 -0.3492  0.6835  0.6239
  318MOL0     C43753   4.014   2.433   3.004  0.1894 -0.2034  0.4590
  318MOL0     O43754   3.897   2.442   3.078 -0.9573 -0.7439 -0.6755
  318MOL0     C43755   3.917   2.424   3.222 -0.1369 -0.8870 -0.5327
  318MOL0     C43756   3.835   2.515   3.309  0.0403 -0.2168  0.0312
  318MOL0     C43757   3.894   2.654   3.311  0.8996  0.0337 -0.4134
  318MOL0     C43758   3.788   2.758   3.350  0.0147 -0.8430 -0.3656
  318MOL0     C43759   3.816   2.809   3.495  0.6588  0.4315  0.5517
  318MOL0     C43760   3.951   2.853   3.548  0.9080 -0.4097 -0.0081
  318MOL0     C43761   4.033   2.943   3.444  0.5446  0.2186 -0.8419
  318MOL0     C43762   3.981   3.088   3.424  0.3188 -0.2754 -0.4804
  318MOL0     N43763   4.085   3.174   3.366  0.6124  0.2607  0.0788
  318MOL0     C43764   4.194   3.215   3.435  0.3410 -0.4008 -0.6223
  318MOL0     C43765   4.249   3.303   3.360 -0.4602  0.1705 -0.0292
  318MOL0     C43766   4.368   3.391   3.417  0.8217 -0.0368  0.6662
  318MOL0     C43767   4.329   3.534   3.430  0.2409 -0.9003  0.4604
  318MOL0     C43768   4.214   3.560   3.526  0.3534  0.9540  0.3358
  318MOL0     C43769   4.184   3.704   3.518  0.7607 -0.4824 -0.1963
  318MOL0     O43770   4.275   3.786   3.604 -0.3732 -0.0463 -0.1925
  318MOL0     C43771   4.235   3.913   3.636  0.4977 -0.7864  0.3537
  318MOL0     C43772   4.169   4.005   3.551  0.5320  0.5839 -1.2800
  318MOL0     C43773   4.148   4.137   3.575  0.1925  0.6073  0.2064
  318MOL0     C43774   4.060   4.213   3.477 -0.5483  0.7479 -0.2747
  318MOL0     C43775   4.184   4.183   3.703 -0.0693 -0.1351  0.3182
  318MOL0     C43776   4.160   4.321   3.750 -0.7017  0.1464 -0.5125
  318MOL0     O43777   4.144   4.340   3.881  0.0857  0.0972 -0.2156
  318MOL0     C43778   4.136   4.465   3.937  0.4523 -1.0951  0.5012
  318MOL0     C43779   4.026   4.506   3.996 -0.3471  0.2050  0.4325
  318MOL0     C43780   4.015   4.627   4.067  0.7635  0.3140 -0.6293
  318MOL0     C43781   4.123   4.713   4.076  0.3293  0.3459  0.4171
  318MOL0     O43782   4.094   4.825   4.146  0.9474 -0.0051  0.0992
  318MOL0     C43783   4.176   4.887   4.231  0.5864 -0.0737 -0.3361
  318MOL0     C43784   4.101   4.969   4.333 -0.2136  0.0766  0.2906
  318MOL0     C43785   4.044   5.091   4.259  0.0456  0.8300 -0.8817
  318MOL0     C43786   4.025   5.212   4.352  0.1851  0.7787 -0.4474
  318MOL0     C43787   3.981   5.334   4.271  0.3900 -0.4784  0.7078
  318MOL0     C43788   3.958   5.443   4.370  1.1427 -0.2983  0.9198
  318MOL0     C43789   3.922   5.581   4.318  0.6118 -0.2442 -0.0269
  318MOL0     C43790   3.818   5.665   4.415 -0.9893  0.6447  0.5214
  318MOL0    Cl43791   3.912   5.786   4.488  0.3403 -0.0441 -0.0544
  318MOL0     C43792   4.241   4.675   4.018 -0.8052 -0.7945  1.3202
  318MOL0     C43793   4.249   4.547   3.951 -0.3620  0.0833  0.4877
  318MOL0     O43794   4.162   4.408   3.666 -0.4216  0.2964  0.2818
  318MOL0     C43795   4.244   4.089   3.797  0.8631  0.0397  0.1656
  318MOL0     C43796   4.273   3.961   3.761  0.2499  0.0946  0.0047
  318MOL0     N43797   4.200   3.301   3.233 -0.1679  0.5127 -0.1896
  318MOL0     N43798   4.086   3.222   3.246  0.0096  0.3510  1.0907
  318MOL0     C43799   4.098   2.545   2.994  0.1042  0.8036 -0.2520
  318MOL0     C43800   4.198   2.551   2.899  0.3115 -0.4710  0.0293
  318MOL0     C43801   4.522   2.440   2.608 -0.3695  0.0412 -0.7041
  318MOL0     C43802   4.479   2.486   2.482  0.1206 -0.8461 -0.6951
  318MOL0     C43803   4.548   2.479   2.363  0.3094  0.4215  0.0583
  318MOL0     C43804   4.674   2.437   2.366  0.1514 -0.3653 -0.0053
  318MOL0     O43805   4.751   2.431   2.251  0.2380 -0.4531 -0.0364
  318MOL0     C43806   4.699   2.456   2.109  0.1799  0.0292  0.4115
  318MOL0     C43807   4.797   2.413   2.010 -0.3504 -0.4163  0.8690
  318MOL0     C43808   4.913   2.510   2.017  0.2231 -0.8203  1.7345
  318MOL0     C43809   5.007   2.493   1.894  0.0399 -0.9997  0.8802
  318MOL0     C43810   5.087   2.377   1.911  0.5936 -0.2044  0.4023
  318MOL0     C43811   5.133   2.269   1.927 -0.1602  0.6185 -0.8086
  318MOL0     C43812   4.732   2.408   2.490 -0.4247 -0.0979  0.3736
  318MOL0     C43813   4.661   2.406   2.609 -1.0006  0.3286  0.0728
  318MOL0     C43814   4.737   2.374   2.734 -0.4210  1.1249  0.4653
  318MOL0     H43815   4.172   2.254   2.767 -1.3752  0.9954 -2.9935
  318MOL0     H43816   3.987   2.233   2.954 -0.7053  1.0650  1.6356
  318MOL0     H43817   4.022   2.433   3.252  0.1130 -0.5391 -1.4491
  318MOL0     H43818   3.870   2.328   3.241 -1.4845 -0.4426 -1.4735
  318MOL0     H43819   3.733   2.504   3.271 -0.2733 -0.0434  0.8004
  318MOL0     H43820   3.839   2.475   3.411 -1.8594  1.7373  0.9597
  318MOL0     H43821   3.977   2.654   3.382 -0.8814  0.2189  1.7651
  318MOL0     H43822   3.917   2.679   3.207  1.3661 -0.0563 -0.3357
  318MOL0     H43823   3.794   2.840   3.279 -0.4225 -2.3209 -2.1834
  318MOL0     H43824   3.687   2.720   3.329 -0.3593  1.0131 -2.1468
  318MOL0     H43825   3.766   2.730   3.552 -1.2164 -0.7637 -2.5131
  318MOL0     H43826   3.743   2.889   3.511 -1.2902 -0.5268 -2.6024
  318MOL0     H43827   3.951   2.913   3.640 -1.1268 -1.5100  0.7667
  318MOL0     H43828   4.011   2.767   3.578 -0.6746 -1.5678 -0.0384
  318MOL0     H43829   4.031   2.890   3.348 -1.3541 -4.2073  1.3692
  318MOL0     H43830   4.139   2.946   3.470  0.4454  2.7418 -0.5222
  318MOL0     H43831   3.890   3.078   3.364 -0.7616  1.3442  0.7861
  318MOL0     H43832   3.944   3.131   3.517  1.3599 -1.3306  0.4430
  318MOL0     H43833   4.219   3.190   3.538 -1.1619  0.6896  0.0352
  318MOL0     H43834   4.460   3.371   3.360  2.6675  1.5360  2.9022
  318MOL0     H43835   4.410   3.350   3.509  1.7343 -1.9637 -0.5294
  318MOL0     H43836   4.413   3.595   3.462 -0.0043 -1.4866  2.3595
  318MOL0     H43837   4.291   3.572   3.334 -2.3021 -0.2651  1.6408
  318MOL0     H43838   4.119   3.512   3.502  0.3347  0.8171  0.6717
  318MOL0     H43839   4.236   3.531   3.629  0.5753 -0.3817 -0.0647
  318MOL0     H43840   4.202   3.754   3.422  0.4620  2.7242  1.3087
  318MOL0     H43841   4.079   3.724   3.541  0.4441  1.6058 -2.8967
  318MOL0     H43842   4.159   3.980   3.446  1.0428  0.8214 -1.3903
  318MOL0     H43843   3.991   4.132   3.449 -2.4858  1.5098  1.9387
  318MOL0     H43844   4.121   4.242   3.391 -1.3586  0.3237 -1.0194
  318MOL0     H43845   3.998   4.298   3.507 -1.3735 -0.5731  1.9888
  318MOL0     H43846   3.942   4.440   4.011  0.2773 -0.2244  2.2592
  318MOL0     H43847   3.916   4.657   4.099  1.2906  0.6575  0.7630
  318MOL0     H43848   4.225   4.809   4.290 -0.5920 -0.6701 -0.1059
  318MOL0     H43849   4.258   4.930   4.172  0.5556  1.4803  0.7244
  318MOL0     H43850   4.013   4.923   4.379 -0.1565  1.9746  2.4538
  318MOL0     H43851   4.164   5.005   4.415  0.8912  2.2259 -1.3999
  318MOL0     H43852   3.946   5.072   4.216 -0.3703  0.9649 -0.0042
  318MOL0     H43853   4.098   5.123   4.169 -0.2795  3.1852 -0.2863
  318MOL0     H43854   4.128   5.234   4.381 -0.0447  0.8834  0.2884
  318MOL0     H43855   3.961   5.190   4.438  0.5296  3.3021  0.5299
  318MOL0     H43856   4.055   5.362   4.195  1.0292 -0.0432  1.4700
  318MOL0     H43857   3.888   5.314   4.218  0.7305 -1.6350  0.5095
  318MOL0     H43858   4.045   5.455   4.435  3.4012  0.1323 -1.9840
  318MOL0     H43859   3.870   5.413   4.427  1.0593  1.8646  2.0537
  318MOL0     H43860   3.890   5.570   4.214  0.5921 -2.7412  0.1681
  318MOL0     H43861   4.017   5.634   4.308 -0.6034  2.2927  1.0451
  318MOL0     H43862   3.779   5.595   4.490 -0.2798 -3.1003 -2.2706
  318MOL0     H43863   3.746   5.719   4.352 -2.6570 -0.0392  1.7855
  318MOL0     H43864   4.331   4.734   4.030  0.8529 -3.1562  1.0784
  318MOL0     H43865   4.347   4.518   3.914 -0.4877  2.2285 -1.8448
  318MOL0     H43866   4.281   4.133   3.889  0.0603 -3.7042  2.4979
  318MOL0     H43867   4.336   3.901   3.826  4.3556  1.9607 -1.9186
  318MOL0     H43868   4.079   2.625   3.065  2.3479 -0.6001  2.0751
  318MOL0     H43869   4.228   2.655   2.898 -1.3836  0.0893 -1.9149
  318MOL0     H43870   4.373   2.511   2.481 -0.5478 -3.4078 -0.5550
  318MOL0     H43871   4.491   2.506   2.274  0.8490  2.0535  0.1638
  318MOL0     H43872   4.611   2.393   2.092  2.2038 -3.1864  1.0323
  318MOL0     H43873   4.665   2.560   2.108  0.7344  0.4327  4.4239
  318MOL0     H43874   4.741   2.417   1.916 -1.3339  1.5472  1.4788
  318MOL0     H43875   4.840   2.313   2.024  2.5707  0.9604  2.5811
  318MOL0     H43876   4.873   2.611   2.008 -2.3290 -1.8028  1.2987
  318MOL0     H43877   4.972   2.495   2.108  0.2171 -1.1813  1.6819
  318MOL0     H43878   5.079   2.574   1.875 -0.0218 -0.9407  0.8994
  318MOL0     H43879   4.948   2.488   1.802  1.7528  1.0470 -0.4433
  318MOL0     H43880   5.165   2.169   1.950 -0.8665  0.6442  0.3764
  318MOL0     H43881   4.839   2.394   2.485 -0.5236 -0.4900 -0.9647
  318MOL0     H43882   4.712   2.272   2.765 -2.3569  0.1926 -3.5158
  318MOL0     H43883   4.845   2.393   2.736 -0.3452  0.6859  1.8457
  318MOL0     H43884   4.703   2.438   2.816  0.3452  1.0169  0.8844
  319MOL0     O43885   8.737   5.869   4.923  0.4493  0.2224 -0.7100
  319MOL0     C43886   8.748   5.994   4.905  0.3988 -0.3425 -0.2836
  319MOL0     O43887   8.720   6.087   5.009 -0.4799 -0.1628  0.5626
  319MOL0     C43888   8.702   6.212   4.968  1.0599 -0.0905  0.7627
  319MOL0     C43889   8.598   6.249   4.880 -0.0015  0.0126 -1.1185
  319MOL0     C43890   8.576   6.378   4.847  0.3691 -0.1477  0.0005
  319MOL0     C43891   8.636   6.486   4.910 -0.3834 -0.7171  1.2552
  319MOL0     O43892   8.610   6.623   4.890 -0.5389 -0.6760  0.0425
  319MOL0     C43893   8.663   6.666   4.761  0.3743 -0.6631  0.5478
  319MOL0     C43894   8.677   6.824   4.778 -0.0777 -0.0501  0.6089
  319MOL0     C43895   8.791   6.878   4.866  0.9476  0.6092  0.0842
  319MOL0     C43896   8.824   7.029   4.867  0.5427 -0.6677  0.3880
  319MOL0     C43897   8.921   7.053   4.975 -0.4702 -0.7916  1.0151
  319MOL0     C43898   9.058   6.992   4.953  1.0323  0.5306  0.8824
  319MOL0     C43899   9.160   7.012   5.068  0.6063 -0.4081 -0.1670
  319MOL0     C43900   9.297   6.957   5.025  0.5635  0.0241  0.6741
  319MOL0     N43901   9.330   7.007   4.889 -0.4128 -0.1500  0.4035
  319MOL0     C43902   9.337   6.919   4.780  0.2940 -0.7268  0.4025
  319MOL0     C43903   9.415   6.990   4.690  0.3577  0.7841  0.6367
  319MOL0     C43904   9.441   6.939   4.551  0.6319  0.0635  0.3853
  319MOL0     C43905   9.561   6.852   4.536 -0.2101 -0.3294 -0.2529
  319MOL0     C43906   9.574   6.729   4.630  0.4243 -0.1154  1.3431
  319MOL0     C43907   9.640   6.761   4.761  0.1425 -0.0354 -0.2611
  319MOL0     O43908   9.565   6.719   4.878  0.5615  0.1701 -0.3270
  319MOL0     C43909   9.628   6.729   4.998  0.1228 -0.9457 -0.3762
  319MOL0     C43910   9.736   6.815   5.018 -0.2868  0.0901 -0.2013
  319MOL0     C43911   9.784   6.846   5.145  0.1566  0.3680 -0.6617
  319MOL0     C43912   9.879   6.958   5.159 -0.5288 -0.9748  0.2775
  319MOL0     C43913   9.705   6.793   5.258 -0.3496  0.2967  0.0516
  319MOL0     C43914   9.744   6.821   5.393  0.7991  0.1518  0.3846
  319MOL0     O43915   9.657   6.890   5.474  0.3287  0.1790  0.6055
  319MOL0     C43916   9.531   6.942   5.440  0.6320  0.5465  0.0508
  319MOL0     C43917   9.423   6.901   5.513  0.3615  0.0941 -0.2748
  319MOL0     C43918   9.301   6.956   5.492  0.2656 -0.1124 -0.3784
  319MOL0     C43919   9.280   7.061   5.400 -1.0203  0.3165 -0.5155
  319MOL0     O43920   9.162   7.111   5.358  0.7858  0.1653 -0.0566
  319MOL0     C43921   9.063   7.120   5.462 -0.4176 -0.1889 -0.3792
  319MOL0     C43922   8.939   7.196   5.410  0.0958 -0.3801 -0.3424
  319MOL0     C43923   8.823   7.159   5.498  0.1833  0.3603  0.2355
  319MOL0     C43924   8.736   7.046   5.433  0.1224 -0.6015  0.2594
  319MOL0     C43925   8.632   6.987   5.529  0.1123  0.6364 -0.8607
  319MOL0     C43926   8.523   6.899   5.459 -0.3185 -0.7116  0.2818
  319MOL0     C43927   8.432   6.814   5.554 -0.3233 -0.0116  0.4517
  319MOL0     C43928   8.517   6.691   5.593  0.4040  0.1962 -0.5704
  319MOL0    Cl43929   8.647   6.625   5.494  0.2646 -0.0066  0.2033
  319MOL0     C43930   9.391   7.104   5.330  0.3384 -0.1316  0.8096
  319MOL0     C43931   9.519   7.043   5.346 -0.3022  0.7699 -0.0130
  319MOL0     O43932   9.849   6.774   5.430 -0.6489  0.9893 -0.4936
  319MOL0     C43933   9.609   6.694   5.235 -0.0122 -0.9437 -0.5320
  319MOL0     C43934   9.565   6.667   5.108 -0.5472 -0.0527 -0.2162
  319MOL0     N43935   9.456   7.099   4.749  0.7406  0.1024 -0.4818
  319MOL0     N43936   9.405   7.118   4.863 -0.1845  0.9148  0.2063
  319MOL0     C43937   8.740   6.458   5.003 -0.2996  0.7879  0.7526
  319MOL0     C43938   8.767   6.322   5.031  0.2573 -0.3970  0.0075
  319MOL0     C43939   8.805   6.031   4.777 -0.6772 -0.4623 -1.0631
  319MOL0     C43940   8.908   6.138   4.778  0.0973  0.3831 -0.4444
  319MOL0     C43941   8.959   6.170   4.654  0.8517  0.2111  0.1125
  319MOL0     C43942   8.912   6.122   4.526 -0.7412 -0.7721  0.5733
  319MOL0     O43943   8.957   6.185   4.406  0.1948  0.8707 -1.0141
  319MOL0     C43944   9.063   6.115   4.334  0.6186  0.1159 -0.3918
  319MOL0     C43945   9.194   6.126   4.414  0.9006  0.2531  0.4313
  319MOL0     C43946   9.311   6.059   4.344  0.5899  0.0212  0.8666
  319MOL0     C43947   9.419   6.139   4.276 -0.4596  0.5011 -0.0347
  319MOL0     C43948   9.547   6.076   4.285  0.5814  1.1516 -0.4234
  319MOL0     C43949   9.652   6.017   4.298 -0.2909 -0.3242  0.4564
  319MOL0     C43950   8.813   6.024   4.526 -0.4205  0.6673  0.0220
  319MOL0     C43951   8.769   5.978   4.647  0.2299  0.4342  0.0488
  319MOL0     C43952   8.670   5.866   4.640 -0.2843 -0.1586  0.3551
  319MOL0     H43953   8.538   6.177   4.826 -1.3771  3.1495 -4.2020
  319MOL0     H43954   8.501   6.412   4.777  1.1774  1.1555 -0.2725
  319MOL0     H43955   8.590   6.644   4.683 -1.7171  4.2793  0.7718
  319MOL0     H43956   8.761   6.624   4.735 -0.4909 -3.4576  1.3753
  319MOL0     H43957   8.704   6.856   4.677 -1.3411 -1.6920 -0.2933
  319MOL0     H43958   8.577   6.864   4.800 -2.1567 -1.4472 -4.6997
  319MOL0     H43959   8.767   6.848   4.968  1.1850 -1.5690 -0.4328
  319MOL0     H43960   8.882   6.830   4.828  1.4419  0.7003  1.1270
  319MOL0     H43961   8.856   7.075   4.773 -2.3810  3.1404  0.9816
  319MOL0     H43962   8.732   7.079   4.900  2.5139  1.0592  3.8791
  319MOL0     H43963   8.884   7.004   5.066  1.9133  0.0012  2.5236
  319MOL0     H43964   8.930   7.160   4.991 -0.8197 -0.3304 -1.4421
  319MOL0     H43965   9.056   6.886   4.927 -0.7668  0.8750 -0.6115
  319MOL0     H43966   9.100   7.042   4.865  1.5678 -0.5137  0.5263
  319MOL0     H43967   9.124   6.968   5.161  0.1780 -3.3357 -1.5997
  319MOL0     H43968   9.156   7.119   5.089 -2.0848  0.0542 -2.3852
  319MOL0     H43969   9.378   6.981   5.095 -0.5760 -0.9543  2.4298
  319MOL0     H43970   9.293   6.847   5.026 -1.2397  0.0636  1.6173
  319MOL0     H43971   9.303   6.817   4.771  0.7496 -1.0596  2.0173
  319MOL0     H43972   9.439   7.019   4.477 -2.9001 -1.7335 -1.7520
  319MOL0     H43973   9.349   6.883   4.530 -0.7998  3.1710 -2.4363
  319MOL0     H43974   9.557   6.812   4.434  0.1960  2.3056 -1.3775
  319MOL0     H43975   9.645   6.922   4.544 -1.0718  0.4919  2.9025
  319MOL0     H43976   9.474   6.693   4.656 -0.5023  0.0724 -1.6076
  319MOL0     H43977   9.636   6.652   4.584 -1.1836 -0.4331 -0.4278
  319MOL0     H43978   9.744   6.727   4.755 -0.0989 -0.5669 -2.3450
  319MOL0     H43979   9.643   6.870   4.757  1.8369 -0.0755 -2.1909
  319MOL0     H43980   9.791   6.853   4.933  0.7257 -3.2465 -1.2214
  319MOL0     H43981   9.881   7.009   5.256 -1.0778  1.4989 -0.9057
  319MOL0     H43982   9.854   7.035   5.084 -0.6964 -2.3987 -1.1824
  319MOL0     H43983   9.985   6.933   5.147  0.5927  3.0265  0.1168
  319MOL0     H43984   9.444   6.820   5.581  1.7942  1.6909  1.2765
  319MOL0     H43985   9.210   6.912   5.532  0.6394 -2.0294 -1.5257
  319MOL0     H43986   9.030   7.017   5.475  1.9447 -0.8873  0.4974
  319MOL0     H43987   9.094   7.164   5.557 -0.4010 -3.8095  1.4433
  319MOL0     H43988   8.965   7.303   5.407 -1.7095  0.0652 -1.9753
  319MOL0     H43989   8.925   7.170   5.304  0.8604 -3.8256  0.3008
  319MOL0     H43990   8.783   7.259   5.518 -1.3455  0.7277 -3.8531
  319MOL0     H43991   8.864   7.123   5.593  0.9739 -1.1064 -0.6311
  319MOL0     H43992   8.802   6.976   5.380  2.2839  1.8582 -0.4874
  319MOL0     H43993   8.679   7.087   5.349  0.1332  2.2522  1.5302
  319MOL0     H43994   8.678   6.928   5.608 -0.2413  1.6838  0.1518
  319MOL0     H43995   8.584   7.064   5.590 -4.0527 -1.1170 -1.5638
  319MOL0     H43996   8.572   6.842   5.379 -1.4210  0.6348 -1.4457
  319MOL0     H43997   8.455   6.970   5.412 -0.2105  0.0295  1.2121
  319MOL0     H43998   8.341   6.773   5.509 -1.0871  0.4453  1.5180
  319MOL0     H43999   8.403   6.872   5.642  2.9804  0.3736  1.4214
  319MOL0     H44000   8.438   6.625   5.630 -0.1682  1.7959  1.2477
  319MOL0     H44001   8.570   6.717   5.685  2.7940 -1.4321 -1.4165
  319MOL0     H44002   9.386   7.171   5.245  0.3819  0.5758  1.3595
  319MOL0     H44003   9.613   7.062   5.295 -0.0412 -0.1383  0.0980
  319MOL0     H44004   9.558   6.653   5.321  2.3438 -2.9815  0.0018
  319MOL0     H44005   9.481   6.602   5.083 -1.0064  0.6349 -0.4784
  319MOL0     H44006   8.782   6.541   5.058  1.4412  1.7192 -1.7518
  319MOL0     H44007   8.838   6.293   5.108 -1.0841  1.2301  1.9665
  319MOL0     H44008   8.953   6.195   4.858 -0.3679  1.0887 -0.6756
  319MOL0     H44009   9.044   6.237   4.643 -0.2906  1.2707 -3.5724
  319MOL0     H44010   9.042   6.010   4.313  1.3264 -0.0406 -0.3430
  319MOL0     H44011   9.079   6.169   4.240 -2.2198 -0.4116 -1.2679
  319MOL0     H44012   9.183   6.091   4.517 -0.3260  1.1598  0.6308
  319MOL0     H44013   9.220   6.232   4.424 -2.1426  1.0580  0.9714
  319MOL0     H44014   9.363   5.998   4.419  0.4231 -2.3503 -0.8415
  319MOL0     H44015   9.263   5.991   4.273  0.9529 -0.4978  1.1153
  319MOL0     H44016   9.417   6.238   4.324 -1.3790  0.1290  0.7099
  319MOL0     H44017   9.398   6.155   4.170 -0.2730 -0.9777 -0.3139
  319MOL0     H44018   9.749   5.971   4.300 -0.2664 -1.1146 -4.7354
  319MOL0     H44019   8.769   5.984   4.436  1.8817 -0.7278 -0.5866
  319MOL0     H44020   8.601   5.859   4.726 -1.2514  1.0540 -0.2910
  319MOL0     H44021   8.606   5.904   4.560 -0.1439 -0.2519  0.1989
  319MOL0     H44022   8.719   5.776   4.601  1.5445  1.5775 -1.6147
  320MOL0     O44023   4.407   2.346   9.995 -0.2456 -0.0731 -0.0411
  320MOL0     C44024   4.497   2.268   9.976  0.1028 -0.0501 -0.2396
  320MOL0     O44025   4.488   2.145   9.909 -0.7185  1.1314  0.0557
  320MOL0     C44026   4.358   2.112   9.887 -0.2575  0.6971 -0.4475
  320MOL0     C44027   4.277   2.036   9.976 -0.3943  0.9191  0.0857
  320MOL0     C44028   4.145   2.021   9.960 -0.0116  0.2783  0.7755
  320MOL0     C44029   4.083   2.068   9.839 -0.7038  0.0258  0.8309
  320MOL0     O44030   3.949   2.036   9.824  0.8106 -0.0615  0.2951
  320MOL0     C44031   3.863   2.079   9.928  0.6830 -0.1654 -0.8613
  320MOL0     C44032   3.780   1.968   9.996 -0.0371  1.0107  0.2938
  320MOL0     C44033   3.714   1.862   9.894  0.2749 -0.0132  1.1851
  320MOL0     C44034   3.626   1.773   9.986 -0.5822  0.1456 -0.5699
  320MOL0     C44035   3.535   1.701   9.892  0.3029  0.4587  1.0415
  320MOL0     C44036   3.456   1.573   9.946  1.2574  0.4696  0.9616
  320MOL0     C44037   3.327   1.564   9.865 -0.2412  0.9571 -0.6899
  320MOL0     C44038   3.239   1.451   9.918 -0.6381  0.3073 -0.0606
  320MOL0     N44039   3.102   1.459   9.876  0.1422 -0.3399  0.1304
  320MOL0     C44040   3.044   1.366   9.800 -0.2738  0.2754  0.4655
  320MOL0     C44041   2.921   1.405   9.765  1.3532 -0.9705  0.6305
  320MOL0     C44042   2.814   1.341   9.673  0.1109  0.0115 -0.5791
  320MOL0     C44043   2.702   1.303   9.768  0.5354  0.0174  0.5670
  320MOL0     C44044   2.591   1.242   9.681 -0.2147 -0.4530  1.1777
  320MOL0     C44045   2.452   1.229   9.736  0.6265 -0.1822 -0.7693
  320MOL0     O44046   2.367   1.146   9.645 -1.0753 -0.3945 -0.1419
  320MOL0     C44047   2.302   1.219   9.548  0.1574  0.8176  0.4119
  320MOL0     C44048   2.329   1.351   9.500 -0.9693  0.4761  0.0137
  320MOL0     C44049   2.270   1.403   9.381  0.1024  0.2036 -0.1567
  320MOL0     C44050   2.302   1.553   9.352 -0.2938  0.0261 -0.1427
  320MOL0     C44051   2.186   1.329   9.292  0.3201  0.1402  0.2995
  320MOL0     C44052   2.114   1.385   9.174  0.4855  0.1704 -0.3733
  320MOL0     O44053   2.038   1.294   9.108 -0.9942  0.3124 -0.5717
  320MOL0     C44054   1.954   1.314   8.998 -0.3129 -0.1935 -0.3414
  320MOL0     C44055   1.984   1.226   8.894 -0.8415  0.3238 -0.2924
  320MOL0     C44056   1.916   1.239   8.776 -0.1983  0.5128 -0.2793
  320MOL0     C44057   1.820   1.347   8.763 -0.2376  1.1537 -0.3919
  320MOL0     O44058   1.755   1.346   8.643 -0.3233  0.3068  0.2604
  320MOL0     C44059   1.633   1.418   8.631 -0.1191  1.2810 -0.6221
  320MOL0     C44060   1.617   1.428   8.475  0.3603  0.5031 -0.8248
  320MOL0     C44061   1.744   1.468   8.404 -0.3779  0.0571  0.0534
  320MOL0     C44062   1.718   1.559   8.280  0.1394  0.2171 -0.5121
  320MOL0     C44063   1.678   1.479   8.163 -0.1907 -0.2262 -0.9980
  320MOL0     C44064   1.614   1.564   8.050 -0.0859  0.1520  0.0011
  320MOL0     C44065   1.598   1.486   7.919  0.1937  0.9877 -0.1580
  320MOL0     C44066   1.681   1.549   7.805 -0.3227  0.4423  1.0839
  320MOL0    Cl44067   1.688   1.443   7.662  0.1596 -0.0792  0.2381
  320MOL0     C44068   1.788   1.432   8.867 -0.2217  0.0892 -0.3120
  320MOL0     C44069   1.857   1.414   8.987  0.0427 -1.0796 -0.3085
  320MOL0     O44070   2.104   1.506   9.158  0.2248 -0.6062 -0.1567
  320MOL0     C44071   2.179   1.192   9.331 -0.2924  0.3829 -0.7251
  320MOL0     C44072   2.233   1.137   9.455 -0.2153  0.6855 -0.4507
  320MOL0     N44073   2.902   1.528   9.819  0.2440  0.4096 -0.7287
  320MOL0     N44074   3.007   1.555   9.898 -0.1393 -0.2683 -0.6547
  320MOL0     C44075   4.169   2.111   9.737 -0.3124 -0.8331  0.0100
  320MOL0     C44076   4.304   2.148   9.762  0.6891  0.7860  0.4349
  320MOL0     C44077   4.622   2.284  10.062  0.3480  0.1129 -0.1242
  320MOL0     C44078   4.734   2.194  10.040  0.5921  0.1309  0.4078
  320MOL0     C44079   4.847   2.187  10.122  0.2783 -0.4779  0.5074
  320MOL0     C44080   4.840   2.266  10.234 -0.3030  0.8501  0.1123
  320MOL0     O44081   4.944   2.269  10.327 -0.4125 -0.3082  1.0501
  320MOL0     C44082   5.065   2.200  10.288 -0.7449 -0.9882 -0.8559
  320MOL0     C44083   5.178   2.253  10.379  0.4513  0.1113 -0.2738
  320MOL0     C44084   5.156   2.214  10.524 -0.3189  0.7829 -0.5794
  320MOL0     C44085   5.266   2.262  10.622 -0.3025  0.1223 -0.1517
  320MOL0     C44086   5.402   2.203  10.615  0.4459 -0.4534 -0.3974
  320MOL0     C44087   5.512   2.152  10.593  0.5908 -0.8556  0.1374
  320MOL0     C44088   4.738   2.346  10.258 -0.2893 -0.9769  0.0808
  320MOL0     C44089   4.626   2.357  10.185 -0.2109 -0.2079  0.4093
  320MOL0     C44090   4.518   2.450  10.241 -0.4008  0.4889  0.5029
  320MOL0     H44091   4.329   2.001  10.064  0.5383  1.1769 -0.3454
  320MOL0     H44092   4.081   1.974  10.034 -1.2649  0.0066 -0.4359
  320MOL0     H44093   3.784   2.144   9.887 -1.1864 -2.6471 -1.4432
  320MOL0     H44094   3.913   2.138  10.005 -0.4806 -2.0597  1.5137
  320MOL0     H44095   3.854   1.910  10.053  0.5418 -0.8363 -2.1774
  320MOL0     H44096   3.696   2.008  10.054 -0.1442  1.4492 -0.1558
  320MOL0     H44097   3.661   1.913   9.812  0.4884 -4.6496 -2.2646
  320MOL0     H44098   3.786   1.792   9.851  1.5586  2.3682 -0.7945
  320MOL0     H44099   3.697   1.711  10.041 -1.9449 -2.8252 -1.9519
  320MOL0     H44100   3.569   1.833  10.058 -1.2086 -0.5346 -0.4876
  320MOL0     H44101   3.589   1.654   9.809  0.6894  0.0748  1.5066
  320MOL0     H44102   3.467   1.764   9.833 -0.0225  0.7940  1.7660
  320MOL0     H44103   3.515   1.482   9.931  1.1673  0.7566 -1.6556
  320MOL0     H44104   3.434   1.592  10.051 -0.3722  0.3088  0.6769
  320MOL0     H44105   3.363   1.535   9.766  1.0299 -1.9690  0.5077
  320MOL0     H44106   3.282   1.663   9.873  0.3598  1.1476  0.8381
  320MOL0     H44107   3.262   1.353   9.876 -1.5434 -0.2188  0.6256
  320MOL0     H44108   3.245   1.455  10.028  2.2843 -0.6883 -0.0986
  320MOL0     H44109   3.087   1.275   9.758 -0.7463 -0.3296  1.2611
  320MOL0     H44110   2.867   1.255   9.631  5.3750  0.3735  4.0666
  320MOL0     H44111   2.778   1.407   9.594 -1.6990  2.1635  1.8662
  320MOL0     H44112   2.727   1.237   9.851 -1.4367  0.1839  1.3570
  320MOL0     H44113   2.654   1.391   9.812  2.6974  0.4046  2.3564
  320MOL0     H44114   2.590   1.291   9.583  1.4325 -1.8541  0.4083
  320MOL0     H44115   2.630   1.140   9.669  1.6339  0.3693 -0.3099
  320MOL0     H44116   2.459   1.199   9.841 -0.4744  0.4088 -0.5166
  320MOL0     H44117   2.403   1.326   9.745 -2.9193 -1.7561 -1.4455
  320MOL0     H44118   2.388   1.407   9.571  2.8459 -2.3867 -0.5729
  320MOL0     H44119   2.214   1.615   9.367 -2.6144 -2.8135 -0.9241
  320MOL0     H44120   2.339   1.569   9.250 -0.7680 -0.5691 -0.4176
  320MOL0     H44121   2.383   1.605   9.402  0.6058 -0.6508 -0.8563
  320MOL0     H44122   2.073   1.163   8.899 -0.5775  0.7949  1.8859
  320MOL0     H44123   1.933   1.175   8.690 -0.3176 -0.8786  0.7019
  320MOL0     H44124   1.547   1.364   8.671 -2.5273  1.1398 -5.3632
  320MOL0     H44125   1.643   1.519   8.674  1.7268  0.5285  0.8767
  320MOL0     H44126   1.594   1.329   8.436 -1.2718  0.7987 -0.7034
  320MOL0     H44127   1.530   1.491   8.452 -0.0849 -0.4864 -1.9479
  320MOL0     H44128   1.812   1.384   8.386  0.6666  0.8265  0.3118
  320MOL0     H44129   1.791   1.534   8.477 -0.8329  0.1834  0.2374
  320MOL0     H44130   1.809   1.616   8.261  0.4395 -0.3190 -0.7095
  320MOL0     H44131   1.642   1.632   8.310  3.3162  2.1372  3.9937
  320MOL0     H44132   1.764   1.427   8.120  1.0913  0.2887  0.7959
  320MOL0     H44133   1.605   1.404   8.195  0.5525 -0.5909 -0.1134
  320MOL0     H44134   1.688   1.639   8.022 -1.2741  0.1460 -3.7653
  320MOL0     H44135   1.514   1.605   8.066 -1.3432 -1.8549 -1.9808
  320MOL0     H44136   1.492   1.482   7.891  0.2014 -1.4956 -0.0860
  320MOL0     H44137   1.630   1.381   7.927 -3.4060 -0.4808 -2.4829
  320MOL0     H44138   1.786   1.567   7.830  0.7058 -1.2632 -1.6126
  320MOL0     H44139   1.644   1.649   7.782 -3.3186 -0.8257 -0.1395
  320MOL0     H44140   1.711   1.508   8.860  0.7958  1.4356  1.9198
  320MOL0     H44141   1.844   1.479   9.073  0.2157  1.9131 -2.3848
  320MOL0     H44142   2.121   1.115   9.281 -0.2844 -0.0243 -0.1116
  320MOL0     H44143   2.229   1.030   9.472 -0.3062  0.3214 -2.4914
  320MOL0     H44144   4.114   2.139   9.648 -1.4344  1.5704  1.3394
  320MOL0     H44145   4.362   2.191   9.680 -1.0621  0.2605 -1.1476
  320MOL0     H44146   4.745   2.167   9.935 -1.0385  3.2635 -0.6970
  320MOL0     H44147   4.935   2.129  10.094  1.0046 -0.2116  2.1110
  320MOL0     H44148   5.046   2.092  10.292 -1.6952 -0.7924  2.0187
  320MOL0     H44149   5.094   2.222  10.185  0.9290 -1.5080 -0.5338
  320MOL0     H44150   5.175   2.363  10.371 -4.8410  0.3000  0.2614
  320MOL0     H44151   5.280   2.231  10.348  1.7632  1.4911  2.6568
  320MOL0     H44152   5.062   2.245  10.569 -0.7114 -1.6851  0.4696
  320MOL0     H44153   5.151   2.106  10.540 -0.6615  0.4680 -2.5843
  320MOL0     H44154   5.241   2.252  10.728 -0.4216  3.3082  0.2438
  320MOL0     H44155   5.274   2.372  10.619 -1.8093  0.4004  2.7143
  320MOL0     H44156   5.598   2.096  10.562 -1.6906 -1.8419 -5.7628
  320MOL0     H44157   4.742   2.403  10.350 -2.9816 -2.1028  1.0155
  320MOL0     H44158   4.539   2.485  10.343  1.1723 -2.5129  1.3087
  320MOL0     H44159   4.509   2.539  10.177 -0.8378  2.0515  2.6051
  320MOL0     H44160   4.423   2.396  10.234 -0.6131  0.9597 -0.4470
  321MOL0     O44161   4.781   7.604   8.615  0.7830 -0.1367 -0.4445
  321MOL0     C44162   4.865   7.594   8.707 -0.0660 -0.0622 -0.1185
  321MOL0     O44163   4.846   7.533   8.826 -0.0097  0.5938 -0.4227
  321MOL0     C44164   4.720   7.481   8.858  0.3018 -0.1260  0.4017
  321MOL0     C44165   4.596   7.561   8.865 -1.2448 -0.7750  0.3080
  321MOL0     C44166   4.480   7.515   8.923 -0.4667 -0.0695  0.8430
  321MOL0     C44167   4.478   7.381   8.978  0.9254  0.5726 -0.1950
  321MOL0     O44168   4.368   7.325   9.034  0.1341  0.3546  0.4561
  321MOL0     C44169   4.252   7.401   9.039 -0.1679 -0.7130 -0.2224
  321MOL0     C44170   4.137   7.304   9.085 -0.2844 -0.2580  1.0399
  321MOL0     C44171   3.996   7.351   9.040 -0.7093 -0.3054 -0.8003
  321MOL0     C44172   3.885   7.290   9.109  0.0403  1.4572 -0.2124
  321MOL0     C44173   3.744   7.346   9.068 -0.8812  0.7225 -0.3421
  321MOL0     C44174   3.639   7.296   9.174 -0.2097 -0.6266  1.1999
  321MOL0     C44175   3.496   7.319   9.101 -1.4884  1.1249  0.7401
  321MOL0     C44176   3.388   7.320   9.201  0.7510 -0.8863 -0.1202
  321MOL0     N44177   3.368   7.181   9.251 -0.0071  0.4750 -0.3259
  321MOL0     C44178   3.402   7.139   9.378 -0.2339 -0.6397  0.4848
  321MOL0     C44179   3.356   7.014   9.385 -0.4049  1.3310 -0.3644
  321MOL0     C44180   3.375   6.914   9.488  0.2278  1.1302  0.2582
  321MOL0     C44181   3.515   6.846   9.480 -1.3944  0.2872 -0.7212
  321MOL0     C44182   3.605   6.900   9.595  0.0046 -0.3768  0.6593
  321MOL0     C44183   3.724   6.813   9.614  0.4001 -0.9478 -0.2317
  321MOL0     O44184   3.834   6.877   9.695  1.0081 -0.2227  0.7314
  321MOL0     C44185   3.929   6.785   9.720  0.2512  0.1363 -0.9453
  321MOL0     C44186   4.055   6.793   9.652  0.6420 -0.3058  0.6568
  321MOL0     C44187   4.156   6.711   9.678 -1.0252  0.2267 -0.6939
  321MOL0     C44188   4.292   6.715   9.605 -0.8106  0.4270  0.3907
  321MOL0     C44189   4.144   6.614   9.788 -0.6817 -1.2378  0.3309
  321MOL0     C44190   4.257   6.524   9.823 -0.1373  0.3530  0.7793
  321MOL0     O44191   4.261   6.479   9.946 -0.2471  0.3341 -0.3563
  321MOL0     C44192   4.355   6.394   9.991 -0.6216 -0.0115  0.4192
  321MOL0     C44193   4.458   6.435  10.074  0.2840  0.6311 -0.0789
  321MOL0     C44194   4.556   6.343  10.119 -0.5153  0.0899  0.3646
  321MOL0     C44195   4.572   6.218  10.063 -0.3568 -0.0734 -0.6340
  321MOL0     O44196   4.675   6.139  10.109 -0.5225 -0.1296  0.5659
  321MOL0     C44197   4.690   5.998  10.053  0.1183 -0.7122 -0.0698
  321MOL0     C44198   4.819   5.944  10.108 -0.3192 -0.3275  1.3439
  321MOL0     C44199   4.848   5.798  10.059  0.1842  0.1787 -0.3986
  321MOL0     C44200   4.867   5.712  10.182  0.3785  0.4006 -0.0302
  321MOL0     C44201   4.899   5.572  10.155  0.2473  0.8398 -0.3439
  321MOL0     C44202   4.961   5.502  10.276 -0.0417 -0.3747 -0.8883
  321MOL0     C44203   4.958   5.354  10.248 -0.7456  0.1510  1.3177
  321MOL0     C44204   5.011   5.261  10.359 -1.0766 -0.6716  0.1546
  321MOL0    Cl44205   5.186   5.305  10.390 -0.1990 -0.1592 -0.0094
  321MOL0     C44206   4.471   6.175   9.984  0.3196  0.1487 -0.8828
  321MOL0     C44207   4.373   6.267   9.943  1.1141  0.0894 -1.0823
  321MOL0     O44208   4.330   6.473   9.728  0.4897  0.0011 -0.7343
  321MOL0     C44209   4.025   6.611   9.862 -0.8829 -0.2943 -0.7869
  321MOL0     C44210   3.920   6.699   9.828  0.2451 -1.0925  0.6483
  321MOL0     N44211   3.305   6.984   9.266  0.7746 -1.0888  0.1578
  321MOL0     N44212   3.299   7.089   9.185  0.4900  0.4242  0.1243
  321MOL0     C44213   4.592   7.297   8.972  0.1642  0.5050  0.1437
  321MOL0     C44214   4.712   7.352   8.917 -0.2941  0.9857 -0.0053
  321MOL0     C44215   5.003   7.654   8.705 -0.2144 -0.0298  0.4366
  321MOL0     C44216   5.053   7.719   8.822  0.1367  0.8310  0.2892
  321MOL0     C44217   5.173   7.789   8.825  0.7260 -0.1719  0.5751
  321MOL0     C44218   5.230   7.818   8.703  0.2734  0.6982  0.7508
  321MOL0     O44219   5.338   7.903   8.691 -0.2523 -0.4447  0.4759
  321MOL0     C44220   5.414   7.928   8.805 -0.8994  0.3609  0.3768
  321MOL0     C44221   5.535   7.998   8.753 -0.1305 -0.8013 -0.7902
  321MOL0     C44222   5.626   8.071   8.861 -0.0460  0.6679  0.1298
  321MOL0     C44223   5.765   8.120   8.820 -0.3571  0.3050  0.4681
  321MOL0     C44224   5.848   8.000   8.822  0.6298 -1.1508 -0.0728
  321MOL0     C44225   5.911   7.899   8.837 -0.0058 -0.2003 -0.7997
  321MOL0     C44226   5.174   7.768   8.587  0.1661 -0.2390  0.7145
  321MOL0     C44227   5.071   7.679   8.587  0.4437  0.1745 -0.7884
  321MOL0     C44228   5.029   7.609   8.460 -0.2017  1.0674  0.1038
  321MOL0     H44229   4.618   7.662   8.831  0.5661 -0.7567  1.3666
  321MOL0     H44230   4.404   7.592   8.929  2.1733  2.6433  3.3438
  321MOL0     H44231   4.238   7.453   8.943  5.2520  0.1646 -0.8554
  321MOL0     H44232   4.261   7.476   9.118  0.6081 -1.0808  0.0504
  321MOL0     H44233   4.154   7.205   9.041 -1.5249  0.5950 -1.6110
  321MOL0     H44234   4.150   7.271   9.188 -0.5526 -1.2330  0.7661
  321MOL0     H44235   4.003   7.459   9.050 -0.1484 -0.3093 -1.1130
  321MOL0     H44236   3.975   7.334   8.934 -2.1418  0.2494 -0.6361
  321MOL0     H44237   3.896   7.182   9.101  2.9700  1.5159  1.6903
  321MOL0     H44238   3.906   7.310   9.215  1.3482  1.0432 -0.3848
  321MOL0     H44239   3.710   7.319   8.968  1.4907  1.1844 -1.3325
  321MOL0     H44240   3.766   7.451   9.091  2.8219  0.1317 -0.5620
  321MOL0     H44241   3.645   7.190   9.201 -1.8127 -1.2555 -0.6464
  321MOL0     H44242   3.642   7.363   9.260  2.0945 -0.5663  1.1223
  321MOL0     H44243   3.466   7.244   9.028 -0.7993  0.5056  1.0909
  321MOL0     H44244   3.499   7.417   9.051  1.9119  1.1194  0.7103
  321MOL0     H44245   3.417   7.389   9.281  1.9246 -1.6812  0.1738
  321MOL0     H44246   3.297   7.353   9.150  1.3545  0.6444 -0.2694
  321MOL0     H44247   3.450   7.199   9.454  0.0091 -0.0441 -0.1290
  321MOL0     H44248   3.297   6.840   9.468  1.4575  0.0018 -0.5148
  321MOL0     H44249   3.350   6.946   9.590 -3.2231 -2.5502  0.8320
  321MOL0     H44250   3.514   6.737   9.489 -1.6085  0.2500 -1.1849
  321MOL0     H44251   3.570   6.862   9.387  1.0228  0.2507  0.6217
  321MOL0     H44252   3.648   6.997   9.568  0.8915 -0.0544  3.0014
  321MOL0     H44253   3.553   6.901   9.691  0.9025  1.0235  1.1593
  321MOL0     H44254   3.689   6.716   9.652 -0.2251 -0.8345 -0.4920
  321MOL0     H44255   3.758   6.787   9.513 -2.8716  0.9796 -2.0076
  321MOL0     H44256   4.063   6.869   9.575 -1.2922  1.2181  1.8725
  321MOL0     H44257   4.319   6.819   9.583 -0.6360  0.3062  0.0144
  321MOL0     H44258   4.302   6.644   9.522  0.6122 -0.1341  1.0256
  321MOL0     H44259   4.381   6.696   9.665 -0.8968 -0.8258  0.1463
  321MOL0     H44260   4.449   6.534  10.118  1.1848  0.8805 -0.4183
  321MOL0     H44261   4.641   6.370  10.181  1.7788 -2.5099 -1.4218
  321MOL0     H44262   4.602   5.942  10.087 -0.0839  1.0391  2.6545
  321MOL0     H44263   4.692   5.976   9.946  2.6110 -0.5604 -0.1114
  321MOL0     H44264   4.901   6.002  10.066  0.4340 -0.6494  2.3302
  321MOL0     H44265   4.825   5.951  10.217  0.3898 -1.7882  1.4184
  321MOL0     H44266   4.941   5.798  10.002  1.9330 -0.1858  2.2852
  321MOL0     H44267   4.772   5.756   9.992  1.1736 -0.0091 -1.4328
  321MOL0     H44268   4.771   5.723  10.233 -0.0103  4.2008 -1.2652
  321MOL0     H44269   4.951   5.755  10.238  0.3395  3.6464 -2.1710
  321MOL0     H44270   4.811   5.521  10.115  0.5296 -1.1966  1.4713
  321MOL0     H44271   4.967   5.573  10.069  1.2256  0.8471  0.4101
  321MOL0     H44272   4.909   5.517  10.371 -0.4938 -0.9302 -1.0370
  321MOL0     H44273   5.067   5.526  10.283 -0.6847  2.6387  0.0901
  321MOL0     H44274   5.001   5.330  10.151 -1.7989 -1.0844  1.1300
  321MOL0     H44275   4.853   5.330  10.230 -0.6598 -0.2724  1.3693
  321MOL0     H44276   5.001   5.153  10.345 -0.7348 -0.9787  2.0318
  321MOL0     H44277   4.948   5.278  10.447 -2.3448  0.9308 -0.9982
  321MOL0     H44278   4.472   6.074   9.944 -3.3068 -0.5885  0.4847
  321MOL0     H44279   4.294   6.228   9.880 -1.4053  1.6982  0.8720
  321MOL0     H44280   4.013   6.532   9.935  1.0723 -0.5667 -0.7170
  321MOL0     H44281   3.827   6.689   9.883  0.3277 -0.0314  0.9984
  321MOL0     H44282   4.592   7.193   9.004 -0.4622  0.8712  1.3748
  321MOL0     H44283   4.807   7.301   8.929  0.2714  1.2989 -2.4397
  321MOL0     H44284   4.982   7.718   8.904 -0.4951  0.4266 -0.2570
  321MOL0     H44285   5.214   7.831   8.916 -1.8127  3.0319  0.4359
  321MOL0     H44286   5.364   7.985   8.883 -0.5740  0.8079  0.2628
  321MOL0     H44287   5.445   7.830   8.843 -0.1706  0.7047  0.7015
  321MOL0     H44288   5.503   8.078   8.686  3.7470  2.0992  0.4000
  321MOL0     H44289   5.595   7.929   8.692  2.1543  1.1893 -0.9530
  321MOL0     H44290   5.558   8.140   8.912 -0.3320 -0.4990  1.4274
  321MOL0     H44291   5.635   8.010   8.952 -2.7696  0.7641  0.5780
  321MOL0     H44292   5.798   8.193   8.895  2.9743 -1.1047  0.5469
  321MOL0     H44293   5.774   8.168   8.722 -1.8000  0.8284  0.5641
  321MOL0     H44294   5.960   7.804   8.845 -1.4703 -0.8038  2.9758
  321MOL0     H44295   5.216   7.813   8.497 -1.0355 -0.3188  0.0840
  321MOL0     H44296   5.113   7.610   8.391 -0.1513 -0.8930  0.0818
  321MOL0     H44297   4.995   7.508   8.487 -1.7694  1.4013 -0.5219
  321MOL0     H44298   4.938   7.657   8.423 -0.3364  2.4578  2.0624
  322MOL0     O44299  11.228   3.121   1.347 -0.8843  0.0012  0.3514
  322MOL0     C44300  11.272   3.028   1.406 -0.0489  0.0290 -1.4941
  322MOL0     O44301  11.408   2.987   1.399 -0.2697  0.4339  0.3199
  322MOL0     C44302  11.482   3.053   1.311  0.0719 -0.6977 -1.0465
  322MOL0     C44303  11.457   3.058   1.164  0.2210 -0.8014 -1.0619
  322MOL0     C44304  11.547   3.133   1.092 -0.3778  0.1104  0.2146
  322MOL0     C44305  11.648   3.208   1.148 -0.0497  0.0309 -0.3256
  322MOL0     O44306  11.735   3.275   1.068  1.7590 -0.4771  0.6570
  322MOL0     C44307  11.858   3.214   1.021 -0.4288 -0.4528 -0.2609
  322MOL0     C44308  11.856   3.205   0.874  0.1603 -0.1028 -0.1626
  322MOL0     C44309  11.843   3.338   0.802  0.8301 -1.1040 -0.4511
  322MOL0     C44310  11.878   3.318   0.651  0.3603 -0.3367  0.3917
  322MOL0     C44311  11.890   3.455   0.571  0.7958 -0.0042 -0.9381
  322MOL0     C44312  12.014   3.532   0.612  0.2101  0.5113 -0.2773
  322MOL0     C44313  12.043   3.655   0.527  0.2622  0.6238  0.1588
  322MOL0     C44314  12.044   3.647   0.371  0.3723  1.0174 -0.4923
  322MOL0     N44315  12.055   3.786   0.318  0.1339  0.3937 -0.5337
  322MOL0     C44316  12.166   3.865   0.293  1.0473  0.2150  0.5498
  322MOL0     C44317  12.119   3.985   0.254  0.2707 -0.4590  0.9142
  322MOL0     C44318  12.188   4.109   0.219  0.6388  0.9950  0.7543
  322MOL0     C44319  12.294   4.133   0.321  0.4811  0.1867  1.1248
  322MOL0     C44320  12.362   4.272   0.295 -0.5733 -0.5808 -0.6214
  322MOL0     C44321  12.498   4.267   0.350  0.0307 -0.1989  0.4990
  322MOL0     O44322  12.490   4.215   0.483 -0.5610  0.0864  0.6199
  322MOL0     C44323  12.454   4.295   0.591 -0.0289  0.2414  0.2815
  322MOL0     C44324  12.410   4.234   0.710  0.1261 -0.4423  0.1639
  322MOL0     C44325  12.379   4.312   0.823 -0.1766  0.2312  1.3033
  322MOL0     C44326  12.328   4.243   0.940  0.4208  0.2294 -0.5489
  322MOL0     C44327  12.401   4.454   0.823  0.4682 -1.0058  0.9020
  322MOL0     C44328  12.366   4.547   0.932 -0.0888 -1.1127  0.6054
  322MOL0     O44329  12.418   4.543   1.063 -0.6136  0.3138 -0.2778
  322MOL0     C44330  12.520   4.449   1.094 -0.7147 -0.5349 -0.6842
  322MOL0     C44331  12.493   4.360   1.195  0.4529  0.2642 -0.4507
  322MOL0     C44332  12.591   4.275   1.250  0.8391 -0.2156  0.1246
  322MOL0     C44333  12.718   4.281   1.205 -0.3096  0.6457 -0.5095
  322MOL0     O44334  12.816   4.198   1.250  0.3707 -0.4747  0.3052
  322MOL0     C44335  12.801   4.134   1.381 -0.1411 -0.0359  0.8236
  322MOL0     C44336  12.802   4.235   1.500  0.5657 -0.5139  0.3155
  322MOL0     C44337  12.940   4.277   1.558 -0.7760  0.3214 -0.0760
  322MOL0     C44338  12.985   4.171   1.669  0.2914 -0.4515 -0.8615
  322MOL0     C44339  13.110   4.211   1.747 -0.1903 -0.2677 -0.2888
  322MOL0     C44340  13.119   4.126   1.867  0.7227 -0.0473 -0.3388
  322MOL0     C44341  13.239   4.161   1.949 -0.5820 -0.4431 -0.0122
  322MOL0     C44342  13.227   4.098   2.091  0.1592 -0.3066 -0.3294
  322MOL0    Cl44343  13.356   4.172   2.192 -0.0185  0.1657 -0.2430
  322MOL0     C44344  12.750   4.373   1.111 -0.1909 -0.2288 -0.5542
  322MOL0     C44345  12.651   4.457   1.055 -0.0323 -0.7950 -0.5900
  322MOL0     O44346  12.294   4.638   0.894  0.5073 -0.6948  0.5032
  322MOL0     C44347  12.446   4.506   0.702 -0.6842  0.0872  0.2170
  322MOL0     C44348  12.475   4.428   0.585 -0.1949 -0.3575  0.8240
  322MOL0     N44349  11.979   3.982   0.274  0.0639 -1.0063 -0.3882
  322MOL0     N44350  11.948   3.869   0.322 -0.1459  0.6358  0.2751
  322MOL0     C44351  11.662   3.205   1.290 -0.1287 -0.0674  1.2525
  322MOL0     C44352  11.587   3.125   1.373  0.7942  0.3123 -0.5222
  322MOL0     C44353  11.166   2.949   1.476 -0.5632  0.1059 -0.2845
  322MOL0     C44354  11.107   2.984   1.601  1.0464  0.6679 -0.5851
  322MOL0     C44355  11.024   2.901   1.675 -0.0763  1.1018 -1.1325
  322MOL0     C44356  10.987   2.777   1.615  0.4640  0.1294 -0.7218
  322MOL0     O44357  10.913   2.678   1.676 -0.4935  0.0211 -0.1339
  322MOL0     C44358  10.804   2.733   1.755  0.6283  0.5882 -0.6916
  322MOL0     C44359  10.710   2.612   1.791  0.0553 -0.1314 -0.2760
  322MOL0     C44360  10.581   2.654   1.854 -0.4274 -0.4933  0.0155
  322MOL0     C44361  10.475   2.541   1.886  0.2230  0.2080  0.4214
  322MOL0     C44362  10.359   2.582   1.965  0.1368  0.5244  0.4317
  322MOL0     C44363  10.251   2.633   1.998  0.8811  0.8572 -0.7122
  322MOL0     C44364  11.038   2.746   1.495  0.2936  0.3437 -0.2552
  322MOL0     C44365  11.127   2.830   1.419  0.7777 -0.0620  0.2078
  322MOL0     C44366  11.163   2.799   1.275  0.4684  0.4776  0.5192
  322MOL0     H44367  11.369   3.019   1.115 -2.6119  0.7054  2.3866
  322MOL0     H44368  11.526   3.125   0.985  2.1340 -2.7879 -0.1947
  322MOL0     H44369  11.869   3.119   1.074 -2.6402  0.7215  2.6002
  322MOL0     H44370  11.939   3.279   1.055 -1.7548  0.7569  0.7013
  322MOL0     H44371  11.929   3.133   0.836 -1.5075 -1.7092 -0.4317
  322MOL0     H44372  11.764   3.153   0.848  0.7270 -0.3098 -1.9250
  322MOL0     H44373  11.750   3.392   0.819  0.8321 -1.8272  2.4223
  322MOL0     H44374  11.925   3.403   0.835 -0.7637  0.7008  0.1452
  322MOL0     H44375  11.977   3.274   0.644  0.2876 -0.3834 -0.4604
  322MOL0     H44376  11.799   3.261   0.600 -1.0853  2.8448 -1.2532
  322MOL0     H44377  11.800   3.515   0.589  1.1100 -0.3398  2.3699
  322MOL0     H44378  11.898   3.420   0.468 -0.4950 -3.6762  0.0355
  322MOL0     H44379  12.009   3.564   0.717 -7.0454  3.5125 -0.9555
  322MOL0     H44380  12.100   3.467   0.590  0.3846  0.8771 -0.6870
  322MOL0     H44381  12.134   3.692   0.574  0.0163 -1.0932  2.1315
  322MOL0     H44382  11.977   3.738   0.556  2.8101  2.3108  1.4980
  322MOL0     H44383  12.120   3.576   0.337  0.8453  0.9330  0.6939
  322MOL0     H44384  11.950   3.608   0.330 -0.3245 -0.4207  2.2265
  322MOL0     H44385  12.266   3.829   0.276  0.5601 -0.8111 -0.2403
  322MOL0     H44386  12.116   4.191   0.214 -0.7901 -0.2604 -0.4779
  322MOL0     H44387  12.234   4.100   0.121  4.6282  2.5570  2.2687
  322MOL0     H44388  12.239   4.122   0.415 -0.4862 -0.2271  0.5279
  322MOL0     H44389  12.367   4.051   0.328  0.4872  0.3281  4.7136
  322MOL0     H44390  12.364   4.288   0.187  1.1064 -0.4259 -0.5973
  322MOL0     H44391  12.311   4.359   0.335  2.0764  0.5739  0.4597
  322MOL0     H44392  12.552   4.194   0.288 -0.1883 -1.3810  1.6623
  322MOL0     H44393  12.567   4.351   0.348  0.6148 -0.5615  2.7991
  322MOL0     H44394  12.406   4.126   0.711  4.3354 -0.7902  0.1894
  322MOL0     H44395  12.392   4.157   0.965  0.5318  0.6511  0.6736
  322MOL0     H44396  12.230   4.202   0.912 -0.9592 -0.6735  4.5248
  322MOL0     H44397  12.305   4.302   1.029  1.5673 -0.6794  0.3888
  322MOL0     H44398  12.404   4.371   1.256  1.3494  1.6731  0.6862
  322MOL0     H44399  12.564   4.221   1.340 -1.0354 -0.5778 -0.6215
  322MOL0     H44400  12.705   4.082   1.391 -0.4357  0.3860  0.3075
  322MOL0     H44401  12.877   4.057   1.393  0.7664  0.9339  1.4813
  322MOL0     H44402  12.747   4.324   1.469  0.7347 -0.7211 -0.6201
  322MOL0     H44403  12.728   4.196   1.570  0.7728 -1.0512  0.2365
  322MOL0     H44404  12.953   4.380   1.592 -1.7090 -0.2418  2.2024
  322MOL0     H44405  13.012   4.274   1.475 -1.0142  3.3763 -0.4920
  322MOL0     H44406  12.999   4.072   1.624 -1.1964  0.3545 -3.3324
  322MOL0     H44407  12.903   4.175   1.741  1.8230  1.4037  0.8716
  322MOL0     H44408  13.195   4.197   1.681  1.9106 -1.4106  2.4556
  322MOL0     H44409  13.105   4.315   1.780 -3.6358 -0.0532 -1.0471
  322MOL0     H44410  13.125   4.021   1.839 -2.0074  0.0060 -1.3719
  322MOL0     H44411  13.025   4.146   1.919  0.6675  2.0176 -1.1281
  322MOL0     H44412  13.241   4.269   1.967  1.5087 -0.8077  2.6395
  322MOL0     H44413  13.327   4.125   1.895  0.4997 -0.5685  1.7610
  322MOL0     H44414  13.237   3.993   2.064  0.0403  0.0128 -1.7193
  322MOL0     H44415  13.132   4.119   2.142  1.8698  2.1950  2.1005
  322MOL0     H44416  12.849   4.384   1.069  0.9487  2.2108  2.3409
  322MOL0     H44417  12.678   4.535   0.985  0.4106 -1.1982 -0.8737
  322MOL0     H44418  12.471   4.610   0.685 -0.0623 -0.0560  0.2466
  322MOL0     H44419  12.529   4.470   0.501 -1.1207  0.1316  0.4673
  322MOL0     H44420  11.737   3.277   1.322 -1.6060  1.8576  0.5947
  322MOL0     H44421  11.611   3.124   1.479  4.8028 -2.2279 -1.2471
  322MOL0     H44422  11.130   3.074   1.658 -0.0861 -0.6004  1.9820
  322MOL0     H44423  10.990   2.922   1.776 -3.7633 -2.5920 -1.3519
  322MOL0     H44424  10.834   2.770   1.853  0.6934  0.1527 -0.5448
  322MOL0     H44425  10.745   2.808   1.701  0.6284  2.3921  1.6638
  322MOL0     H44426  10.765   2.543   1.856  4.4487  1.7429 -1.6342
  322MOL0     H44427  10.680   2.561   1.699 -0.0979 -2.0359  0.7663
  322MOL0     H44428  10.601   2.715   1.942 -0.1604 -1.7715  0.8612
  322MOL0     H44429  10.531   2.727   1.789 -0.4351 -0.7893 -0.3134
  322MOL0     H44430  10.527   2.462   1.940  2.0605  2.3764  2.0216
  322MOL0     H44431  10.445   2.512   1.785  0.1303  3.3767 -0.5601
  322MOL0     H44432  10.168   2.692   2.030 -1.0909  1.2150 -5.6441
  322MOL0     H44433  11.016   2.651   1.446  1.1067  0.1616 -0.2815
  322MOL0     H44434  11.271   2.795   1.260  1.1491  0.2383  4.4669
  322MOL0     H44435  11.125   2.699   1.253  2.6796 -0.1476 -0.8243
  322MOL0     H44436  11.130   2.871   1.200  3.7150  1.6837  0.0746
  323MOL0     O44437   7.932   0.823  11.276 -0.0038  0.1712  0.3134
  323MOL0     C44438   7.895   0.917  11.204  0.0257 -0.1311 -0.4538
  323MOL0     O44439   7.811   1.014  11.237 -0.0318  0.9682  0.8509
  323MOL0     C44440   7.719   0.975  11.329 -0.3158  0.4711  0.1476
  323MOL0     C44441   7.742   0.979  11.470 -0.5439 -0.1916 -0.4281
  323MOL0     C44442   7.641   0.929  11.556 -0.3452  0.2511 -0.0040
  323MOL0     C44443   7.520   0.873  11.507  0.8530 -0.2264 -0.7445
  323MOL0     O44444   7.416   0.817  11.598  0.4049 -0.4417 -0.3004
  323MOL0     C44445   7.454   0.734  11.708 -0.5280  0.3775  1.0631
  323MOL0     C44446   7.334   0.666  11.775 -0.1340 -0.1043 -0.0689
  323MOL0     C44447   7.228   0.774  11.827  0.0964  0.0236  0.7437
  323MOL0     C44448   7.126   0.712  11.928 -0.1223 -0.5831  0.0298
  323MOL0     C44449   7.023   0.813  11.990 -0.0496 -0.2504 -0.8098
  323MOL0     C44450   6.948   0.751  12.113 -1.6417  0.2043 -0.8023
  323MOL0     C44451   6.808   0.713  12.088  1.1935  0.3271 -0.3730
  323MOL0     C44452   6.760   0.581  12.156 -0.1440 -0.5002  0.0443
  323MOL0     N44453   6.615   0.578  12.147  0.1651 -0.5136  0.4656
  323MOL0     C44454   6.534   0.560  12.252 -0.7906  0.2129  0.6018
  323MOL0     C44455   6.408   0.535  12.194  0.4600 -0.3329  0.3696
  323MOL0     C44456   6.283   0.483  12.273 -0.7911 -1.0189 -0.5177
  323MOL0     C44457   6.154   0.500  12.191  0.6739  0.1519  0.6279
  323MOL0     C44458   6.027   0.475  12.276 -1.1109 -0.4674  0.0396
  323MOL0     C44459   6.000   0.321  12.285  0.0449 -1.4611 -0.9109
  323MOL0     O44460   5.880   0.313  12.367  0.9785  0.1691  0.1716
  323MOL0     C44461   5.830   0.186  12.390  0.3532 -0.6171 -0.5515
  323MOL0     C44462   5.904   0.069  12.372  0.5882  0.8072  0.3755
  323MOL0     C44463   5.853  -0.065  12.372  0.7001 -0.0542  0.2548
  323MOL0     C44464   5.930  -0.176  12.309 -0.3372  0.3735 -0.7314
  323MOL0     C44465   5.716  -0.078  12.402  0.6480  0.1486  1.3543
  323MOL0     C44466   5.637  -0.208  12.402 -0.1958 -0.1650 -0.4958
  323MOL0     O44467   5.523  -0.201  12.469  0.5814  0.2715 -0.3031
  323MOL0     C44468   5.439  -0.307  12.487 -0.0108 -0.4435 -0.0321
  323MOL0     C44469   5.306  -0.273  12.506  0.6579 -0.1684 -0.0917
  323MOL0     C44470   5.210  -0.363  12.538 -1.6729  0.3885 -0.0932
  323MOL0     C44471   5.237  -0.492  12.544 -0.7156  0.3717  0.3089
  323MOL0     O44472   5.137  -0.584  12.576  0.4505 -0.6906 -0.0917
  323MOL0     C44473   5.172  -0.718  12.614 -0.5953 -0.8719  0.2050
  323MOL0     C44474   5.059  -0.779  12.698  0.4959 -0.1704 -0.0679
  323MOL0     C44475   5.071  -0.748  12.853 -0.9874 -0.3734 -1.1950
  323MOL0     C44476   4.980  -0.847  12.919  0.2664  0.4685 -0.7533
  323MOL0     C44477   5.047  -0.985  12.949 -0.3343 -0.1626 -0.3075
  323MOL0     C44478   4.951  -1.105  12.912  1.0295 -0.3569 -0.3792
  323MOL0     C44479   5.036  -1.234  12.929  0.8043  0.0791 -0.1148
  323MOL0     C44480   4.992  -1.337  12.823 -0.2827  1.0225 -0.0826
  323MOL0    Cl44481   5.044  -1.502  12.867  0.1660  0.5158  0.5181
  323MOL0     C44482   5.369  -0.533  12.498  0.5764 -0.2659  0.3424
  323MOL0     C44483   5.464  -0.440  12.469  0.1302  1.0544 -0.0053
  323MOL0     O44484   5.669  -0.301  12.327 -0.3231  0.9258 -0.3664
  323MOL0     C44485   5.645   0.038  12.443  0.4205  1.3638  0.2454
  323MOL0     C44486   5.698   0.161  12.430 -0.0634  0.2267  0.5174
  323MOL0     N44487   6.417   0.567  12.054  0.4934 -0.0461 -0.8871
  323MOL0     N44488   6.544   0.581  12.031 -0.0845 -1.2153  0.3328
  323MOL0     C44489   7.496   0.876  11.373 -0.0281  0.4875  0.2939
  323MOL0     C44490   7.588   0.940  11.291  0.4866  0.4232 -0.4339
  323MOL0     C44491   7.957   0.940  11.067  0.5792 -0.1927 -0.6957
  323MOL0     C44492   7.897   1.030  10.981 -0.8515  0.2397  0.6162
  323MOL0     C44493   7.954   1.080  10.863  0.2813 -0.1886  0.3905
  323MOL0     C44494   8.067   1.019  10.819  0.1021 -0.5867 -1.3083
  323MOL0     O44495   8.133   1.062  10.708  0.0729 -0.7481 -0.7854
  323MOL0     C44496   8.103   1.190  10.643  0.2586 -0.4285 -0.1833
  323MOL0     C44497   8.163   1.306  10.724  0.4384  0.1017  0.1016
  323MOL0     C44498   8.200   1.424  10.630  0.1057  0.0604 -0.4691
  323MOL0     C44499   8.248   1.550  10.698 -0.4354  0.3069  0.0033
  323MOL0     C44500   8.352   1.524  10.793 -0.0869 -0.1701  0.8445
  323MOL0     C44501   8.447   1.513  10.870  0.5489  0.6099  1.5348
  323MOL0     C44502   8.132   0.925  10.899  0.4688  0.2296  0.5495
  323MOL0     C44503   8.075   0.877  11.018 -0.5958 -0.6044  0.6403
  323MOL0     C44504   8.142   0.754  11.093  0.8892  0.2942  0.4835
  323MOL0     H44505   7.841   1.013  11.500 -0.3948  1.0210 -2.1267
  323MOL0     H44506   7.668   0.921  11.661  0.0006  2.2650  0.1003
  323MOL0     H44507   7.509   0.782  11.790 -1.4596  0.9723  1.3614
  323MOL0     H44508   7.529   0.666  11.666 -2.1392 -0.5454 -0.4021
  323MOL0     H44509   7.293   0.589  11.709 -0.7035  0.5891 -0.5461
  323MOL0     H44510   7.367   0.601  11.856 -1.0511 -1.8539 -1.0341
  323MOL0     H44511   7.289   0.849  11.878  0.7286  0.3316 -0.4451
  323MOL0     H44512   7.160   0.803  11.747 -2.2943 -1.2487  2.1933
  323MOL0     H44513   7.064   0.648  11.865 -1.4545  0.4922  0.2086
  323MOL0     H44514   7.175   0.655  12.007 -3.9598 -2.8122  1.0622
  323MOL0     H44515   6.951   0.861  11.923 -1.6413  2.5776  2.5744
  323MOL0     H44516   7.091   0.888  12.030  0.5155 -3.1911  4.6605
  323MOL0     H44517   7.008   0.664  12.142  0.1505  0.5129 -3.2606
  323MOL0     H44518   6.942   0.834  12.184  1.4710  0.0545 -0.2078
  323MOL0     H44519   6.792   0.702  11.980 -0.7416  2.3220 -0.3599
  323MOL0     H44520   6.735   0.790  12.114 -1.1362 -2.0299  0.4912
  323MOL0     H44521   6.802   0.495  12.103 -2.1318 -0.0742 -2.4430
  323MOL0     H44522   6.792   0.588  12.260 -2.3416 -0.4828  0.7590
  323MOL0     H44523   6.566   0.539  12.353 -2.2766 -1.3528  0.8062
  323MOL0     H44524   6.268   0.538  12.366 -2.2688 -1.3402 -0.5432
  323MOL0     H44525   6.304   0.379  12.302 -1.0655 -0.5678  1.3899
  323MOL0     H44526   6.153   0.606  12.162  0.6194 -0.0479 -0.1433
  323MOL0     H44527   6.167   0.433  12.105 -2.0659 -1.1301  1.0917
  323MOL0     H44528   6.034   0.526  12.373 -2.0432  0.7134 -0.4855
  323MOL0     H44529   5.937   0.513  12.227 -2.2229 -2.9959 -0.0333
  323MOL0     H44530   5.983   0.284  12.183 -1.5626  0.6316 -1.4675
  323MOL0     H44531   6.078   0.264  12.335  1.0157  0.5706 -0.0129
  323MOL0     H44532   6.009   0.078  12.345 -0.3539  1.0471 -4.0804
  323MOL0     H44533   5.929  -0.263  12.376 -1.2806  1.4694  0.7279
  323MOL0     H44534   6.036  -0.155  12.294  1.3690 -3.4292  3.6133
  323MOL0     H44535   5.888  -0.199  12.210  3.2446 -2.5908 -1.8336
  323MOL0     H44536   5.277  -0.169  12.497 -0.5206 -0.6103 -2.0594
  323MOL0     H44537   5.109  -0.333  12.563 -1.2069  1.9490  0.0354
  323MOL0     H44538   5.187  -0.772  12.521 -0.5840  0.2470 -0.4572
  323MOL0     H44539   5.266  -0.716  12.670 -0.1931  0.4160 -0.4777
  323MOL0     H44540   4.963  -0.748  12.654 -2.4201 -3.3042  3.4154
  323MOL0     H44541   5.052  -0.885  12.674  0.4611 -0.6495  1.9604
  323MOL0     H44542   5.041  -0.645  12.874  2.7543  1.3014 -3.0545
  323MOL0     H44543   5.173  -0.753  12.890 -2.0015  1.3252  2.2391
  323MOL0     H44544   4.889  -0.854  12.859  0.0401  1.3620 -0.5215
  323MOL0     H44545   4.959  -0.810  13.020 -3.0119 -0.4656 -0.9695
  323MOL0     H44546   5.138  -0.998  12.890 -1.5870 -4.1351 -1.7126
  323MOL0     H44547   5.069  -0.988  13.056  3.2082 -1.8471 -0.9426
  323MOL0     H44548   4.915  -1.086  12.810  1.2258  3.8245  0.1495
  323MOL0     H44549   4.860  -1.102  12.972 -1.2344 -0.2560 -3.5241
  323MOL0     H44550   5.006  -1.282  13.023 -0.3296 -1.2055 -1.1008
  323MOL0     H44551   5.143  -1.210  12.942  0.8357  2.2947 -3.3175
  323MOL0     H44552   5.028  -1.301  12.726  0.1685  1.2119  0.1536
  323MOL0     H44553   4.887  -1.330  12.794 -0.1465  0.2403 -0.8123
  323MOL0     H44554   5.378  -0.641  12.506  1.0165 -0.0605  3.7237
  323MOL0     H44555   5.557  -0.477  12.426 -0.9253  0.8100 -2.2786
  323MOL0     H44556   5.545   0.040  12.486 -0.3608 -2.7742 -0.9248
  323MOL0     H44557   5.634   0.247  12.450 -0.7612 -0.4284  1.2019
  323MOL0     H44558   7.406   0.835  11.328 -1.1630  1.5637  1.5042
  323MOL0     H44559   7.555   0.942  11.188 -5.2940  1.5305  1.0867
  323MOL0     H44560   7.810   1.090  11.007 -0.0736  1.4283  0.5314
  323MOL0     H44561   7.913   1.171  10.819  1.9672  0.1144 -0.6140
  323MOL0     H44562   8.164   1.182  10.553  1.9125  1.8988  0.6266
  323MOL0     H44563   8.000   1.220  10.622  0.2125 -1.5163 -1.6676
  323MOL0     H44564   8.247   1.264  10.781  0.8666  0.2045 -0.4433
  323MOL0     H44565   8.080   1.343  10.784  0.0815 -0.4584 -0.0405
  323MOL0     H44566   8.275   1.396  10.555 -0.2320 -0.6160 -0.5524
  323MOL0     H44567   8.109   1.447  10.575 -0.0695 -1.8693 -1.0510
  323MOL0     H44568   8.164   1.602  10.745  0.1043 -0.0625  1.4190
  323MOL0     H44569   8.287   1.618  10.622 -2.0410  0.6316 -0.5603
  323MOL0     H44570   8.527   1.497  10.940  3.8982  1.2920 -1.8024
  323MOL0     H44571   8.225   0.891  10.854 -0.1643 -0.3887 -0.3428
  323MOL0     H44572   8.219   0.718  11.025 -0.7315  0.7375 -1.7056
  323MOL0     H44573   8.177   0.793  11.189 -1.0224  1.3131  0.8107
  323MOL0     H44574   8.065   0.677  11.102 -0.4034  1.2882 -1.3097
  324MOL0     O44575  10.417   3.521   4.210  0.1794 -0.1732  0.4286
  324MOL0     C44576  10.334   3.464   4.281  0.2145  0.8343 -0.0999
  324MOL0     O44577  10.299   3.508   4.408  0.4178  0.4073 -0.2849
  324MOL0     C44578  10.364   3.593   4.503  0.1812 -0.3545 -0.5586
  324MOL0     C44579  10.479   3.670   4.468  0.1455 -0.4738  0.4539
  324MOL0     C44580  10.551   3.741   4.563 -0.2874 -0.1078  0.0492
  324MOL0     C44581  10.514   3.744   4.691  0.0300  0.1559 -0.3811
  324MOL0     O44582  10.582   3.824   4.768  1.3016 -0.9382 -0.3510
  324MOL0     C44583  10.504   3.933   4.830 -0.3054  1.0112  0.6526
  324MOL0     C44584  10.493   4.049   4.728  0.7825 -0.7064 -0.0225
  324MOL0     C44585  10.374   4.140   4.775  0.4023  0.7220  0.0530
  324MOL0     C44586  10.410   4.215   4.899 -0.3208  0.3435  0.1247
  324MOL0     C44587  10.519   4.324   4.884  0.4927 -0.5915 -1.3463
  324MOL0     C44588  10.467   4.440   4.805 -0.6295  0.0127 -0.5319
  324MOL0     C44589  10.508   4.580   4.859 -0.6440  0.4882  0.0488
  324MOL0     C44590  10.455   4.623   4.992 -0.6203  0.5436  0.4268
  324MOL0     N44591  10.506   4.754   5.044  0.3386 -0.6878 -0.3386
  324MOL0     C44592  10.462   4.876   5.006 -0.2942  0.5496  0.1040
  324MOL0     C44593  10.549   4.951   5.069  1.1727 -0.5278  0.5969
  324MOL0     C44594  10.560   5.107   5.075  0.2355 -0.3665  0.2751
  324MOL0     C44595  10.515   5.157   5.214 -0.6478  0.9241 -0.2915
  324MOL0     C44596  10.601   5.278   5.239 -0.0105  0.4068 -0.6331
  324MOL0     C44597  10.527   5.386   5.328  0.7320 -0.3612 -0.6521
  324MOL0     O44598  10.459   5.476   5.242 -0.6733  0.1135 -0.9488
  324MOL0     C44599  10.531   5.581   5.188 -0.5534  1.2186 -0.1222
  324MOL0     C44600  10.672   5.606   5.211  0.9555 -0.5185 -0.3512
  324MOL0     C44601  10.730   5.730   5.178  0.3426  0.6636 -0.1497
  324MOL0     C44602  10.870   5.763   5.220 -0.4733  0.1217  0.3518
  324MOL0     C44603  10.644   5.834   5.129  0.3122 -0.0114  0.1912
  324MOL0     C44604  10.674   5.971   5.114 -0.0588  0.5992 -1.3194
  324MOL0     O44605  10.801   5.995   5.059  0.3449 -0.0911 -0.4127
  324MOL0     C44606  10.836   6.117   5.005  0.8606  0.3467  0.3327
  324MOL0     C44607  10.930   6.089   4.900  0.3305  0.1048 -0.3610
  324MOL0     C44608  10.968   6.178   4.816  0.7425 -0.3164 -0.1447
  324MOL0     C44609  10.905   6.313   4.828  1.0582  0.2097 -0.0516
  324MOL0     O44610  10.933   6.402   4.736 -0.1128 -0.9106  0.1385
  324MOL0     C44611  10.944   6.364   4.599  0.3610 -0.6190  0.3893
  324MOL0     C44612  10.980   6.495   4.524 -0.0650 -0.6278 -0.5557
  324MOL0     C44613  11.012   6.471   4.377 -0.4439 -0.5142  0.2456
  324MOL0     C44614  11.080   6.598   4.318  0.0857 -0.1563 -0.0385
  324MOL0     C44615  11.218   6.586   4.267 -0.7502  1.2674  0.7247
  324MOL0     C44616  11.225   6.491   4.143  0.0166  0.0800  0.0162
  324MOL0     C44617  11.362   6.469   4.089  0.4974 -0.1557 -0.1778
  324MOL0     C44618  11.372   6.354   3.984  0.1181 -0.8915 -0.4339
  324MOL0    Cl44619  11.244   6.348   3.854  0.2455 -0.2305 -0.0220
  324MOL0     C44620  10.835   6.349   4.947  0.5311  0.3917  0.0086
  324MOL0     C44621  10.790   6.244   5.024  0.7637 -0.3539 -0.3601
  324MOL0     O44622  10.576   6.045   5.122 -0.3281 -0.0735 -0.8626
  324MOL0     C44623  10.514   5.797   5.088 -0.6699  0.2961  0.3604
  324MOL0     C44624  10.463   5.672   5.112  0.4885 -0.0338 -0.0481
  324MOL0     N44625  10.642   4.883   5.133  0.1495  0.3227 -0.7448
  324MOL0     N44626  10.620   4.760   5.124 -0.0390 -0.8351  0.1188
  324MOL0     C44627  10.406   3.665   4.731 -0.0068  0.5375 -0.3454
  324MOL0     C44628  10.326   3.594   4.645  0.1583 -0.5563  0.7350
  324MOL0     C44629  10.247   3.363   4.207  0.1178  0.5456 -0.9292
  324MOL0     C44630  10.181   3.413   4.096  0.7806 -0.1676  0.3530
  324MOL0     C44631  10.087   3.330   4.032 -0.2766  0.7339  1.0003
  324MOL0     C44632  10.054   3.204   4.081 -0.0235  0.5460  0.6040
  324MOL0     O44633   9.971   3.122   4.014 -0.5865  0.5344 -0.0448
  324MOL0     C44634   9.999   3.092   3.871  0.5152  0.4863  0.3318
  324MOL0     C44635  10.148   3.049   3.854 -0.2591  0.6100  0.0231
  324MOL0     C44636  10.179   2.933   3.954 -1.3934 -0.2278  0.9454
  324MOL0     C44637  10.066   2.825   3.946  0.3699 -0.4670  0.0128
  324MOL0     C44638  10.052   2.775   3.806  0.4275 -0.2689  0.2133
  324MOL0     C44639  10.032   2.732   3.690 -0.7266 -0.3952  0.0735
  324MOL0     C44640  10.118   3.165   4.197  0.2822 -0.0721 -0.1696
  324MOL0     C44641  10.213   3.238   4.262  0.5749  0.1763 -0.0892
  324MOL0     C44642  10.294   3.174   4.379  0.5777 -0.2450  0.8420
  324MOL0     H44643  10.507   3.680   4.364 -2.6126  1.2491 -0.2451
  324MOL0     H44644  10.637   3.799   4.531  0.2179  0.3399  2.0612
  324MOL0     H44645  10.563   3.949   4.921 -1.9596 -2.9725  2.6824
  324MOL0     H44646  10.404   3.907   4.866 -0.5795 -0.3593 -0.9563
  324MOL0     H44647  10.583   4.109   4.710  0.3077  1.6326  4.2442
  324MOL0     H44648  10.473   4.006   4.629  0.9562  1.1736 -0.9164
  324MOL0     H44649  10.373   4.209   4.691  1.6200  1.4959  0.6432
  324MOL0     H44650  10.285   4.080   4.794 -1.4356  3.5634  1.0806
  324MOL0     H44651  10.310   4.253   4.924 -0.2712  0.7456 -0.2653
  324MOL0     H44652  10.431   4.140   4.975  0.8264  0.3972 -0.1284
  324MOL0     H44653  10.604   4.267   4.847 -0.0238 -1.0624 -1.8320
  324MOL0     H44654  10.540   4.355   4.986  0.9934 -0.5152 -1.4714
  324MOL0     H44655  10.512   4.431   4.706 -0.7775  1.3455 -0.7407
  324MOL0     H44656  10.357   4.437   4.804 -0.8482 -1.1046  3.9984
  324MOL0     H44657  10.487   4.658   4.784  1.6826 -0.3715 -1.6461
  324MOL0     H44658  10.617   4.574   4.860 -0.6302  0.3681 -0.9825
  324MOL0     H44659  10.346   4.618   4.993 -0.8140  2.3639 -2.5823
  324MOL0     H44660  10.504   4.545   5.052  0.9559  0.1219 -1.3423
  324MOL0     H44661  10.366   4.897   4.960 -0.9654 -1.9173  0.2411
  324MOL0     H44662  10.496   5.160   5.004  0.6355  0.0125  0.1868
  324MOL0     H44663  10.665   5.126   5.048 -0.0825  4.0342  1.4805
  324MOL0     H44664  10.408   5.177   5.221 -0.6765  0.2752  1.5450
  324MOL0     H44665  10.546   5.077   5.282  0.2163 -1.1131 -2.8816
  324MOL0     H44666  10.693   5.239   5.285 -1.3499 -0.3602  1.5495
  324MOL0     H44667  10.640   5.322   5.147 -0.5775 -0.6166 -1.3763
  324MOL0     H44668  10.448   5.350   5.395 -0.5295  3.1187 -0.0646
  324MOL0     H44669  10.599   5.443   5.389  0.2029 -2.5198  2.1855
  324MOL0     H44670  10.731   5.533   5.265 -1.2130 -2.3320 -0.2521
  324MOL0     H44671  10.935   5.807   5.144 -1.1549  1.2608  0.4082
  324MOL0     H44672  10.924   5.674   5.253 -1.4867 -1.8489 -2.7406
  324MOL0     H44673  10.870   5.831   5.305  0.3982 -0.6778  1.0041
  324MOL0     H44674  10.976   5.991   4.891 -0.5398 -0.2109 -1.5791
  324MOL0     H44675  11.024   6.142   4.731  4.0458  0.2909  1.6145
  324MOL0     H44676  11.026   6.296   4.574 -0.1284 -1.0913  0.0300
  324MOL0     H44677  10.846   6.325   4.570 -0.0893  0.8868 -0.1598
  324MOL0     H44678  10.897   6.566   4.530  0.3086 -0.1928 -0.5318
  324MOL0     H44679  11.057   6.553   4.574 -0.8264  0.5000 -0.6587
  324MOL0     H44680  10.915   6.447   4.333  0.3558 -3.9469  0.0208
  324MOL0     H44681  11.082   6.388   4.362 -2.9076 -3.0085  1.5887
  324MOL0     H44682  11.075   6.682   4.388  1.5915 -1.2831  1.5406
  324MOL0     H44683  11.024   6.629   4.230 -0.2673  0.5105  0.4138
  324MOL0     H44684  11.258   6.686   4.246 -2.7050  2.2471  1.4016
  324MOL0     H44685  11.291   6.546   4.339 -1.0382  0.5307  0.6130
  324MOL0     H44686  11.170   6.530   4.057  1.2587 -2.0279 -1.8457
  324MOL0     H44687  11.174   6.401   4.176 -1.9810  2.2280  3.3640
  324MOL0     H44688  11.423   6.443   4.176  0.6763 -2.8156 -1.0241
  324MOL0     H44689  11.407   6.557   4.043 -0.9493 -0.1621 -1.7167
  324MOL0     H44690  11.364   6.261   4.041 -1.8084 -0.1962  0.5162
  324MOL0     H44691  11.473   6.358   3.942  0.9123 -0.0905  1.4396
  324MOL0     H44692  10.803   6.450   4.972 -1.4240 -0.4782  1.2498
  324MOL0     H44693  10.708   6.247   5.095  1.1188  2.5967  0.0522
  324MOL0     H44694  10.454   5.873   5.039  1.3025  1.1191 -0.9038
  324MOL0     H44695  10.356   5.653   5.115 -0.0780  2.6250 -0.3110
  324MOL0     H44696  10.363   3.673   4.830 -0.9867  0.5193 -0.7556
  324MOL0     H44697  10.248   3.535   4.692  0.5224 -1.5117  0.1530
  324MOL0     H44698  10.211   3.503   4.043  0.6929 -0.2584  0.1503
  324MOL0     H44699  10.033   3.353   3.941 -1.9111 -1.4461  1.3453
  324MOL0     H44700   9.924   3.020   3.838 -2.1810  2.2253  2.2270
  324MOL0     H44701   9.976   3.178   3.808 -1.8151 -1.2827 -1.3866
  324MOL0     H44702  10.214   3.134   3.873 -0.0956  0.3051  0.8530
  324MOL0     H44703  10.176   3.023   3.752 -2.7810  2.9834 -1.4047
  324MOL0     H44704  10.264   2.870   3.929 -2.6739 -1.2004 -1.2084
  324MOL0     H44705  10.198   2.979   4.051  1.2760  1.0377 -0.0621
  324MOL0     H44706   9.983   2.880   3.991  2.0353  2.0240  0.2450
  324MOL0     H44707  10.083   2.747   4.021 -3.2884  2.1766  4.0722
  324MOL0     H44708  10.012   2.704   3.589 -2.6756  0.0979  0.2711
  324MOL0     H44709  10.111   3.062   4.228 -2.2854 -0.8164 -2.7851
  324MOL0     H44710  10.334   3.076   4.352 -0.7876 -0.2607 -1.3618
  324MOL0     H44711  10.376   3.231   4.422 -2.2757  4.9931  0.1659
  324MOL0     H44712  10.211   3.160   4.450 -1.2234 -2.0988 -1.4842
  325MOL0     O44713   7.324   8.951   3.506 -0.1297 -0.5857 -0.4388
  325MOL0     C44714   7.391   8.896   3.423 -0.5672 -0.5115  0.2283
  325MOL0     O44715   7.389   8.942   3.295  0.4887 -0.0430 -0.1411
  325MOL0     C44716   7.301   9.045   3.252  0.5344 -0.8175 -0.2587
  325MOL0     C44717   7.233   9.019   3.131 -0.3739  0.0201 -0.1908
  325MOL0     C44718   7.163   9.119   3.076  0.6146 -0.0553  0.5428
  325MOL0     C44719   7.149   9.246   3.134 -0.7133  0.4344  0.1979
  325MOL0     O44720   7.040   9.318   3.100  0.6972  0.4293 -0.1299
  325MOL0     C44721   7.066   9.455   3.067 -0.0036 -0.3622 -0.3464
  325MOL0     C44722   6.932   9.529   3.040 -0.4542  0.6498  0.0216
  325MOL0     C44723   6.932   9.678   3.079  0.1586 -0.5761 -0.0979
  325MOL0     C44724   6.798   9.719   3.144 -0.1347 -0.4560 -0.4791
  325MOL0     C44725   6.797   9.875   3.153 -0.6500 -0.2526 -0.9046
  325MOL0     C44726   6.677   9.929   3.235 -0.2475 -0.1044 -0.4540
  325MOL0     C44727   6.715  10.070   3.293  0.1515  0.4239  0.0223
  325MOL0     C44728   6.591  10.138   3.350 -0.2223 -0.6129  0.2260
  325MOL0     N44729   6.623  10.277   3.403 -1.1393  1.5790 -0.4650
  325MOL0     C44730   6.665  10.383   3.332 -1.0617  0.5157 -0.6197
  325MOL0     C44731   6.655  10.490   3.409  0.0313  0.5399 -0.3486
  325MOL0     C44732   6.674  10.632   3.377 -1.0600  0.3216  0.1257
  325MOL0     C44733   6.826  10.657   3.339  0.7735  0.2715  0.6191
  325MOL0     C44734   6.876  10.805   3.334  0.0689 -0.5046  0.1159
  325MOL0     C44735   6.784  10.891   3.251  0.6875 -0.1989  0.1062
  325MOL0     O44736   6.797  10.837   3.128  0.0221  0.2308  0.4256
  325MOL0     C44737   6.811  10.927   3.027  0.7200 -0.4085  0.4879
  325MOL0     C44738   6.773  11.064   3.023  0.6972  0.8475  0.6455
  325MOL0     C44739   6.755  11.132   2.902 -0.2421  0.7171  0.4473
  325MOL0     C44740   6.691  11.272   2.903 -0.5184  0.5791  0.0376
  325MOL0     C44741   6.794  11.063   2.782 -0.1234 -0.8365  0.7750
  325MOL0     C44742   6.774  11.132   2.643  0.1975  0.9045 -0.1340
  325MOL0     O44743   6.746  11.047   2.535  0.3908  0.2407 -0.2382
  325MOL0     C44744   6.760  11.100   2.411  0.1236  0.6007 -0.8562
  325MOL0     C44745   6.885  11.115   2.360  0.1938  0.4082  0.7706
  325MOL0     C44746   6.889  11.165   2.230  0.1048 -0.0109  0.5759
  325MOL0     C44747   6.787  11.208   2.147  0.2417  0.2875  1.1683
  325MOL0     O44748   6.817  11.266   2.028  0.0324 -0.0576  0.9234
  325MOL0     C44749   6.714  11.365   1.981 -0.7774  0.4887  0.0757
  325MOL0     C44750   6.760  11.422   1.842  0.2017 -0.9250 -0.3354
  325MOL0     C44751   6.895  11.479   1.856  0.0254 -0.2189  0.3241
  325MOL0     C44752   6.932  11.555   1.722 -0.2429  0.3262 -0.3408
  325MOL0     C44753   7.061  11.635   1.724 -0.5159  0.0972  0.2015
  325MOL0     C44754   7.039  11.755   1.825 -0.2382 -0.2897  0.3231
  325MOL0     C44755   7.145  11.860   1.804  0.2081 -0.3882  0.4384
  325MOL0     C44756   7.148  11.952   1.924 -1.0386 -0.1856  0.1090
  325MOL0    Cl44757   6.986  12.022   1.978 -0.2550  0.4370  0.0400
  325MOL0     C44758   6.664  11.208   2.214  0.6801 -0.1256  1.2191
  325MOL0     C44759   6.646  11.147   2.342  0.3441  0.7144  0.5161
  325MOL0     O44760   6.783  11.250   2.635 -0.7262 -0.4931 -0.0337
  325MOL0     C44761   6.840  10.934   2.792 -0.6226  0.1794 -0.3576
  325MOL0     C44762   6.856  10.863   2.912 -0.7318 -0.1825 -0.4109
  325MOL0     N44763   6.607  10.443   3.527  0.0745 -0.5614 -0.3344
  325MOL0     N44764   6.575  10.316   3.519 -0.0493  0.0904 -0.1447
  325MOL0     C44765   7.213   9.272   3.255  0.6769  0.0043 -0.7488
  325MOL0     C44766   7.291   9.170   3.307  0.0871 -0.8018 -1.1732
  325MOL0     C44767   7.484   8.789   3.463 -0.4859 -0.9454  0.3741
  325MOL0     C44768   7.596   8.772   3.376 -0.1632 -0.0048  0.2805
  325MOL0     C44769   7.687   8.669   3.401 -0.2088  0.9765 -0.4199
  325MOL0     C44770   7.683   8.590   3.520  0.3715 -0.3078  0.0540
  325MOL0     O44771   7.784   8.489   3.547 -0.1415  0.0203  0.8770
  325MOL0     C44772   7.794   8.447   3.689  0.0256  0.1789  0.3874
  325MOL0     C44773   7.933   8.379   3.684  0.4760 -0.1612  1.4537
  325MOL0     C44774   7.926   8.229   3.674 -0.7069  0.6181  1.3284
  325MOL0     C44775   8.067   8.177   3.656  0.0700  0.1003 -0.3148
  325MOL0     C44776   8.067   8.039   3.611 -0.2160 -0.4870  0.8879
  325MOL0     C44777   8.069   7.934   3.553 -1.1320 -0.2233 -0.2039
  325MOL0     C44778   7.586   8.624   3.618  0.2023 -0.1242 -0.0756
  325MOL0     C44779   7.484   8.717   3.581  0.4870  0.8181 -1.0179
  325MOL0     C44780   7.360   8.708   3.663  0.1521  0.3081 -0.1277
  325MOL0     H44781   7.242   8.919   3.090 -1.9672  0.6141 -2.1292
  325MOL0     H44782   7.104   9.097   2.988  0.3222  1.8630  0.2019
  325MOL0     H44783   7.139   9.478   2.989  1.1857  1.7065  1.2623
  325MOL0     H44784   7.107   9.494   3.161  0.6559 -0.3656 -0.6320
  325MOL0     H44785   6.905   9.526   2.934 -1.6052  0.2043  0.3018
  325MOL0     H44786   6.865   9.466   3.100  1.7494 -1.8080  0.0853
  325MOL0     H44787   7.013   9.703   3.148  0.7309 -1.6915 -0.3330
  325MOL0     H44788   6.939   9.731   2.984 -0.2521 -1.1619 -0.4638
  325MOL0     H44789   6.718   9.685   3.078  0.4491  2.9232 -3.2512
  325MOL0     H44790   6.790   9.671   3.241  0.1823 -0.9534 -0.6935
  325MOL0     H44791   6.796   9.925   3.055  2.7919  2.7954  0.3725
  325MOL0     H44792   6.889   9.913   3.199 -0.6567 -2.1588  0.8054
  325MOL0     H44793   6.584   9.942   3.180 -0.4995  3.5350  0.6151
  325MOL0     H44794   6.656   9.857   3.316  0.3092 -0.0650 -0.2664
  325MOL0     H44795   6.753  10.141   3.218 -0.1426  0.8586  0.2802
  325MOL0     H44796   6.793  10.063   3.369  2.7667  3.9225 -2.0338
  325MOL0     H44797   6.508  10.129   3.279 -1.5798 -1.9327  1.8813
  325MOL0     H44798   6.558  10.080   3.436  0.3243 -0.3792  0.5992
  325MOL0     H44799   6.701  10.374   3.230  0.6094  0.9362 -0.0984
  325MOL0     H44800   6.652  10.679   3.474  2.1001  0.7661  0.7459
  325MOL0     H44801   6.612  10.666   3.293 -1.2596 -2.1961 -0.8281
  325MOL0     H44802   6.895  10.611   3.410 -0.8390 -0.1276  1.9902
  325MOL0     H44803   6.829  10.609   3.241 -3.0401  0.6869  0.1499
  325MOL0     H44804   6.881  10.845   3.436  1.4715  1.8780 -0.8080
  325MOL0     H44805   6.982  10.796   3.307  1.6702  2.3046  4.2971
  325MOL0     H44806   6.679  10.884   3.283  1.1429  2.4267  2.6379
  325MOL0     H44807   6.818  10.995   3.249  1.0013 -0.3116 -0.3917
  325MOL0     H44808   6.733  11.116   3.109  0.8515 -0.7932  1.7577
  325MOL0     H44809   6.631  11.288   2.814  0.5320  2.5024 -0.3690
  325MOL0     H44810   6.773  11.345   2.911 -2.6049  3.0501  0.1164
  325MOL0     H44811   6.611  11.277   2.978  0.4264  1.6805  1.0281
  325MOL0     H44812   6.967  11.075   2.419  1.2678  0.6552 -0.4875
  325MOL0     H44813   6.986  11.178   2.182 -0.4926  0.2653 -0.5900
  325MOL0     H44814   6.618  11.314   1.966 -0.0550 -0.9143  0.0772
  325MOL0     H44815   6.710  11.453   2.045 -2.9545  0.0722  0.5690
  325MOL0     H44816   6.768  11.330   1.783 -2.7345 -0.6373 -1.3591
  325MOL0     H44817   6.680  11.484   1.801  1.0365  0.2500 -0.2294
  325MOL0     H44818   6.968  11.397   1.862  0.7345  0.4261  0.6975
  325MOL0     H44819   6.911  11.536   1.948 -0.6608  0.3914  0.0750
  325MOL0     H44820   6.850  11.625   1.701 -2.7741 -2.1874  0.4916
  325MOL0     H44821   6.922  11.472   1.651 -0.3307  0.7243 -0.7980
  325MOL0     H44822   7.147  11.572   1.748 -0.3580  0.8297  1.6605
  325MOL0     H44823   7.075  11.663   1.619 -1.9615 -0.5061 -0.1745
  325MOL0     H44824   7.045  11.712   1.925  1.4570  0.5631  0.6262
  325MOL0     H44825   6.937  11.790   1.805 -0.9005 -2.2084  0.1711
  325MOL0     H44826   7.124  11.918   1.713  0.1551 -0.3285  0.4885
  325MOL0     H44827   7.241  11.809   1.791 -0.0288 -1.2137  1.7088
  325MOL0     H44828   7.220  12.032   1.905 -1.9853  0.6327 -0.1084
  325MOL0     H44829   7.194  11.887   1.999  3.0102  0.2455 -1.7339
  325MOL0     H44830   6.573  11.240   2.163 -0.3301 -0.5074  2.7344
  325MOL0     H44831   6.551  11.154   2.394 -0.0047  0.2381 -0.0471
  325MOL0     H44832   6.850  10.871   2.704 -1.4559  1.0140 -1.0677
  325MOL0     H44833   6.877  10.757   2.915 -1.3168 -0.2953 -0.2580
  325MOL0     H44834   7.212   9.359   3.321 -0.5307  0.0960 -0.8732
  325MOL0     H44835   7.336   9.175   3.405 -3.0158 -1.4590  0.3953
  325MOL0     H44836   7.593   8.831   3.286 -2.6779 -2.3312 -1.3235
  325MOL0     H44837   7.753   8.643   3.319 -0.3249  1.1852 -0.5792
  325MOL0     H44838   7.810   8.541   3.743  0.5387  1.8528 -2.4598
  325MOL0     H44839   7.716   8.379   3.725 -0.1018  0.6159  0.9572
  325MOL0     H44840   7.992   8.398   3.775  0.5585  2.0628  1.0079
  325MOL0     H44841   7.990   8.420   3.600 -5.0742  2.8054 -1.4517
  325MOL0     H44842   7.881   8.176   3.758 -0.8232 -1.0250  0.2689
  325MOL0     H44843   7.869   8.207   3.584  1.8256 -1.3776  0.0635
  325MOL0     H44844   8.131   8.190   3.743  0.7835  3.0325 -1.1799
  325MOL0     H44845   8.118   8.239   3.582 -0.7999  0.4029 -0.6767
  325MOL0     H44846   8.052   7.843   3.499 -0.2822 -0.1747 -0.5603
  325MOL0     H44847   7.580   8.566   3.710  0.8496 -2.0858 -1.2196
  325MOL0     H44848   7.382   8.654   3.756  4.2548  0.1432 -0.9730
  325MOL0     H44849   7.307   8.802   3.680 -0.9934 -0.4007  0.3227
  325MOL0     H44850   7.306   8.636   3.602 -0.8526  0.0284  1.0600
  326MOL0     O44851   8.638   9.791   2.081  0.5060  0.1539 -0.2170
  326MOL0     C44852   8.593   9.797   2.194 -0.1610 -0.3015 -0.4520
  326MOL0     O44853   8.632   9.717   2.297  0.3272  0.3520 -0.2795
  326MOL0     C44854   8.739   9.631   2.281  1.0128  0.2321  0.0890
  326MOL0     C44855   8.733   9.509   2.214 -0.0918  0.1683 -0.2373
  326MOL0     C44856   8.846   9.433   2.186 -1.1647 -0.0710  0.9577
  326MOL0     C44857   8.972   9.486   2.228  0.4738 -0.0327 -0.0326
  326MOL0     O44858   9.075   9.407   2.200 -0.6252  0.1731  0.3151
  326MOL0     C44859   9.199   9.447   2.239 -0.2381  0.2237  0.6222
  326MOL0     C44860   9.300   9.335   2.250  0.6535 -0.0812  1.2814
  326MOL0     C44861   9.333   9.280   2.113 -0.1430 -0.2124  0.8525
  326MOL0     C44862   9.453   9.196   2.108 -0.6805  0.4097  0.2618
  326MOL0     C44863   9.506   9.162   1.971  0.8422  0.1772  0.2076
  326MOL0     C44864   9.653   9.096   1.975  1.3395  0.1864 -0.4279
  326MOL0     C44865   9.697   9.053   1.835 -0.2172  1.0429  0.7319
  326MOL0     C44866   9.740   9.183   1.761  0.0529  0.4868 -0.1999
  326MOL0     N44867   9.780   9.168   1.621 -1.4028  0.1558 -0.5428
  326MOL0     C44868   9.891   9.087   1.576  0.5033  0.0712 -0.2420
  326MOL0     C44869   9.884   9.094   1.437  0.5927  0.5010  0.7227
  326MOL0     C44870   9.977   9.027   1.339  0.4159  0.0298  0.2429
  326MOL0     C44871  10.048   9.125   1.243  0.3012 -0.1908 -0.6107
  326MOL0     C44872   9.962   9.173   1.125  0.5708 -0.4070  0.1285
  326MOL0     C44873   9.913   9.073   1.027 -0.2482  0.7307  0.4314
  326MOL0     O44874  10.021   9.022   0.952  0.0718 -0.1518  0.2614
  326MOL0     C44875   9.994   8.907   0.886 -0.1717  0.0438  0.1442
  326MOL0     C44876  10.102   8.826   0.853 -0.2376 -0.3199 -0.4989
  326MOL0     C44877  10.090   8.711   0.780  0.2260  0.5634  0.1250
  326MOL0     C44878  10.223   8.643   0.768  0.8401 -0.6401  0.3586
  326MOL0     C44879   9.956   8.664   0.738 -0.0350  0.2878  0.0985
  326MOL0     C44880   9.921   8.542   0.664 -1.3076 -0.3517  0.4414
  326MOL0     O44881   9.803   8.530   0.603 -0.0413 -0.6470 -0.2630
  326MOL0     C44882   9.774   8.418   0.537  0.2348 -1.1036 -0.1021
  326MOL0     C44883   9.636   8.389   0.524  0.4251  0.5306  0.4489
  326MOL0     C44884   9.576   8.281   0.454 -0.7324  0.1520  0.7845
  326MOL0     C44885   9.668   8.200   0.385  0.5554  0.1339  0.2068
  326MOL0     O44886   9.612   8.090   0.328 -0.8460 -0.6830 -0.4243
  326MOL0     C44887   9.701   7.993   0.258  0.8251 -0.7025 -0.7683
  326MOL0     C44888   9.612   7.885   0.193 -0.8666 -0.1612 -0.9575
  326MOL0     C44889   9.550   7.921   0.053  0.4238 -0.3025 -0.7110
  326MOL0     C44890   9.516   7.812  -0.045 -0.2188 -0.3095  0.1190
  326MOL0     C44891   9.500   7.868  -0.187  0.5253  0.3425  0.4511
  326MOL0     C44892   9.479   7.743  -0.291  0.5506  0.1634 -0.3514
  326MOL0     C44893   9.494   7.776  -0.427 -0.1047 -0.1737  0.7202
  326MOL0     C44894   9.509   7.651  -0.523 -0.7640 -0.0382  0.0969
  326MOL0    Cl44895   9.507   7.707  -0.688  0.2082 -0.1576  0.1066
  326MOL0     C44896   9.802   8.226   0.392 -1.0952  0.2402 -0.0861
  326MOL0     C44897   9.855   8.329   0.460 -0.4608  0.2795  0.2350
  326MOL0     O44898  10.012   8.456   0.668  0.3115 -1.0230 -0.7919
  326MOL0     C44899   9.847   8.759   0.765  0.5923  0.0457 -0.4277
  326MOL0     C44900   9.867   8.873   0.835 -0.3094  0.0871  0.5535
  326MOL0     N44901   9.776   9.170   1.403 -0.2369 -0.4679  0.3422
  326MOL0     N44902   9.722   9.221   1.511 -0.7939  0.5976 -0.4630
  326MOL0     C44903   8.978   9.616   2.290  1.4646 -0.4153 -0.6978
  326MOL0     C44904   8.858   9.686   2.309  0.7040 -0.7414  0.2794
  326MOL0     C44905   8.479   9.887   2.228  0.1496  1.3283  0.2216
  326MOL0     C44906   8.436   9.892   2.359  0.5144  1.0000  0.4751
  326MOL0     C44907   8.346   9.987   2.402  0.5454 -0.6533 -0.5449
  326MOL0     C44908   8.284  10.076   2.316  0.6464  0.4253  0.1377
  326MOL0     O44909   8.201  10.171   2.366 -0.9879 -0.3298 -1.2199
  326MOL0     C44910   8.181  10.300   2.308  0.2264  0.1897  0.1608
  326MOL0     C44911   8.090  10.393   2.399 -0.6140  0.7810  0.0488
  326MOL0     C44912   8.150  10.524   2.375  0.2247 -1.1653 -0.2370
  326MOL0     C44913   8.097  10.638   2.473  0.0889  0.4440 -0.0943
  326MOL0     C44914   8.120  10.771   2.417 -0.6510  0.7611 -0.4460
  326MOL0     C44915   8.132  10.884   2.373 -0.7366  0.0998 -0.1393
  326MOL0     C44916   8.332  10.081   2.188  0.1925 -0.4133  0.2223
  326MOL0     C44917   8.425   9.986   2.140 -0.3046  0.3048  0.6675
  326MOL0     C44918   8.447   9.996   1.992 -0.3436 -0.6975  1.0449
  326MOL0     H44919   8.639   9.479   2.170 -1.8154  2.0791  1.8879
  326MOL0     H44920   8.846   9.338   2.133  3.1035 -0.2200  0.8860
  326MOL0     H44921   9.198   9.491   2.339  0.1027  1.8265 -0.0541
  326MOL0     H44922   9.237   9.516   2.162  0.1297 -1.7686 -1.0684
  326MOL0     H44923   9.392   9.373   2.297  2.3502 -1.5101 -0.7307
  326MOL0     H44924   9.265   9.254   2.315  1.5217 -0.2632  1.5370
  326MOL0     H44925   9.246   9.223   2.081 -0.6914  1.0725 -0.0708
  326MOL0     H44926   9.358   9.360   2.042  1.6429  0.0247  1.7015
  326MOL0     H44927   9.538   9.245   2.157  0.8263 -0.5621 -1.2209
  326MOL0     H44928   9.435   9.102   2.162 -3.0532 -0.1530 -1.3910
  326MOL0     H44929   9.501   9.253   1.910 -0.4630  0.6461  0.9551
  326MOL0     H44930   9.433   9.096   1.922  1.8872 -2.1928  1.6852
  326MOL0     H44931   9.724   9.173   2.005  0.4269  0.5026  1.0154
  326MOL0     H44932   9.661   9.011   2.044  4.2063  1.2718  0.7551
  326MOL0     H44933   9.614   9.007   1.779 -1.2437  0.7835  2.3948
  326MOL0     H44934   9.785   8.989   1.840 -1.2044 -0.3163  1.6199
  326MOL0     H44935   9.665   9.262   1.764  0.7851  1.1848  2.3412
  326MOL0     H44936   9.826   9.219   1.818  0.6110  0.0917 -0.7705
  326MOL0     H44937   9.965   9.030   1.632 -2.2382 -1.4308  2.1463
  326MOL0     H44938   9.924   8.952   1.280  1.9308  2.1458 -4.2349
  326MOL0     H44939  10.049   8.972   1.400 -0.6504 -0.1146  1.4202
  326MOL0     H44940  10.070   9.219   1.295 -0.9066 -0.1638 -0.1185
  326MOL0     H44941  10.141   9.088   1.198 -0.4478  1.1794 -3.5357
  326MOL0     H44942   9.877   9.226   1.168  0.0433 -2.3309  1.6037
  326MOL0     H44943  10.012   9.251   1.067 -0.3585  2.2791  2.6864
  326MOL0     H44944   9.859   8.990   1.075  1.8430 -2.0161 -1.6705
  326MOL0     H44945   9.847   9.129   0.960 -1.8917 -2.2160 -0.6063
  326MOL0     H44946  10.198   8.856   0.894 -1.2378  0.4096  1.4416
  326MOL0     H44947  10.240   8.612   0.871 -1.5100  0.1346  1.0289
  326MOL0     H44948  10.300   8.708   0.725  1.6431 -2.7598 -1.5417
  326MOL0     H44949  10.229   8.555   0.704 -2.0477 -1.0367  0.5131
  326MOL0     H44950   9.568   8.450   0.584  1.7043  1.6382  0.8088
  326MOL0     H44951   9.471   8.253   0.467 -1.2718  0.5545 -2.0864
  326MOL0     H44952   9.754   8.041   0.175 -1.1308 -0.3349 -1.8614
  326MOL0     H44953   9.768   7.942   0.328  3.7021  0.0393 -2.7912
  326MOL0     H44954   9.676   7.796   0.186  0.5570  0.3742  2.7290
  326MOL0     H44955   9.530   7.852   0.257  1.3909 -0.2852  2.1488
  326MOL0     H44956   9.621   7.986   0.002  0.6416  0.5504  0.6255
  326MOL0     H44957   9.464   7.984   0.077  1.9418  2.4116 -2.0664
  326MOL0     H44958   9.434   7.745  -0.017  0.1784 -0.6436  0.4950
  326MOL0     H44959   9.599   7.741  -0.050  0.0228  0.0628 -2.1700
  326MOL0     H44960   9.418   7.940  -0.202 -0.6385 -0.4564  2.5299
  326MOL0     H44961   9.585   7.928  -0.220 -0.4708 -0.4835 -4.2600
  326MOL0     H44962   9.386   7.688  -0.276  0.7526  0.1034  0.7868
  326MOL0     H44963   9.562   7.673  -0.282 -0.8674 -1.3620  2.5674
  326MOL0     H44964   9.575   7.845  -0.448 -1.2596  0.9320 -0.2999
  326MOL0     H44965   9.397   7.823  -0.446 -2.1434 -3.6853  1.4981
  326MOL0     H44966   9.415   7.597  -0.512 -1.3548  0.8810 -0.2954
  326MOL0     H44967   9.593   7.587  -0.493 -1.4161  0.0309  2.2473
  326MOL0     H44968   9.881   8.165   0.348  0.4886  1.2894  1.2019
  326MOL0     H44969   9.960   8.353   0.442 -0.6623  0.5452 -0.6461
  326MOL0     H44970   9.747   8.740   0.729  0.8176 -3.1154  0.3239
  326MOL0     H44971   9.781   8.937   0.851 -0.7549  0.1867 -1.8983
  326MOL0     H44972   9.069   9.667   2.316 -0.2340  2.2398  0.4352
  326MOL0     H44973   8.855   9.791   2.336  0.5185 -1.0877  1.7336
  326MOL0     H44974   8.466   9.816   2.431 -1.4783 -2.2524 -1.8320
  326MOL0     H44975   8.307   9.999   2.503 -1.5420  0.7180 -1.4465
  326MOL0     H44976   8.280  10.342   2.289  1.3966 -2.4855 -0.0159
  326MOL0     H44977   8.135  10.290   2.210  1.2212  2.6479 -0.6396
  326MOL0     H44978   8.109  10.382   2.506 -2.3588  1.4797  0.4694
  326MOL0     H44979   7.982  10.391   2.384 -0.3013 -1.0475 -2.4916
  326MOL0     H44980   8.258  10.526   2.389 -0.0523 -2.7685  2.9121
  326MOL0     H44981   8.129  10.561   2.274 -0.8573  1.5539  0.8569
  326MOL0     H44982   8.153  10.621   2.566 -0.3708 -1.1648 -0.0899
  326MOL0     H44983   7.990  10.628   2.496  0.8280 -0.7114  3.5180
  326MOL0     H44984   8.144  10.987   2.346  4.2012  0.1358  1.2851
  326MOL0     H44985   8.278  10.149   2.123 -4.9014  0.8949  5.0819
  326MOL0     H44986   8.380  10.049   1.924  2.8519 -0.6882 -2.4397
  326MOL0     H44987   8.538  10.056   1.982 -1.5735  0.9361 -1.4618
  326MOL0     H44988   8.453   9.893   1.955 -1.2302 -0.3639 -0.0649
  327MOL0     O44989   7.041   8.746   1.714 -0.0890  0.3509 -1.0132
  327MOL0     C44990   7.158   8.784   1.742 -0.5934  1.1047  0.1663
  327MOL0     O44991   7.231   8.864   1.663  0.0787  0.4257  0.1878
  327MOL0     C44992   7.191   8.887   1.535  0.0188  0.4539  0.6617
  327MOL0     C44993   7.292   8.863   1.445 -0.2091  0.2650 -0.3314
  327MOL0     C44994   7.268   8.884   1.311  0.5718 -0.2632 -0.1212
  327MOL0     C44995   7.144   8.933   1.273  0.4738 -0.7854  0.2493
  327MOL0     O44996   7.122   8.954   1.139  0.5043  0.8296 -0.0901
  327MOL0     C44997   6.992   8.980   1.083  0.0291  0.6252  0.6806
  327MOL0     C44998   6.991   9.024   0.931 -0.4551  0.2317 -0.0309
  327MOL0     C44999   7.092   8.933   0.846  0.9450 -0.0530  0.0680
  327MOL0     C45000   7.075   8.934   0.689  0.2450 -0.7729  0.2407
  327MOL0     C45001   7.186   8.872   0.613  0.6611  0.1441 -0.8892
  327MOL0     C45002   7.324   8.942   0.628  0.2545 -0.1068  0.1918
  327MOL0     C45003   7.329   9.099   0.607 -0.3936  0.1039  0.0364
  327MOL0     C45004   7.468   9.171   0.614 -0.9794  0.0724 -1.0245
  327MOL0     N45005   7.569   9.120   0.528  0.0631 -0.8668  0.3244
  327MOL0     C45006   7.552   9.102   0.393  0.5097  1.7614  0.4938
  327MOL0     C45007   7.670   9.107   0.328 -0.3763  0.4788 -0.1814
  327MOL0     C45008   7.710   9.079   0.184  0.0917  0.6120 -0.6644
  327MOL0     C45009   7.722   9.220   0.112  0.8060  0.5997  0.8819
  327MOL0     C45010   7.734   9.202  -0.041 -0.2566  0.1504 -0.4685
  327MOL0     C45011   7.625   9.129  -0.112 -0.8500 -0.2623  0.3313
  327MOL0     O45012   7.500   9.195  -0.102 -0.0543  0.0130 -0.2534
  327MOL0     C45013   7.478   9.301  -0.183  0.5272 -1.0621 -0.1071
  327MOL0     C45014   7.564   9.366  -0.279  0.2390 -0.3008 -0.6971
  327MOL0     C45015   7.530   9.487  -0.349 -0.0280  0.5501 -0.6004
  327MOL0     C45016   7.642   9.562  -0.420  0.7796  0.6135  0.4912
  327MOL0     C45017   7.396   9.520  -0.351 -0.3507  0.6599  0.6274
  327MOL0     C45018   7.338   9.617  -0.443  0.0386 -0.0033  0.5789
  327MOL0     O45019   7.211   9.654  -0.425  0.4525  0.5641 -0.0127
  327MOL0     C45020   7.152   9.744  -0.508 -0.4526  0.3308 -0.3142
  327MOL0     C45021   7.087   9.702  -0.623  0.4411  0.0566 -0.4705
  327MOL0     C45022   7.018   9.795  -0.702 -0.2603 -1.0049 -0.6741
  327MOL0     C45023   7.007   9.934  -0.658 -1.1709  0.1758  0.4023
  327MOL0     O45024   6.953  10.035  -0.734 -0.7031 -0.7675 -0.7002
  327MOL0     C45025   6.934  10.019  -0.875  1.0138  0.1557 -0.8825
  327MOL0     C45026   6.862  10.139  -0.943  0.3310 -0.2315  0.2836
  327MOL0     C45027   6.862  10.122  -1.095  0.5094 -0.4274 -0.3244
  327MOL0     C45028   6.776  10.215  -1.169  0.6803 -0.8906  0.7325
  327MOL0     C45029   6.786  10.177  -1.320  0.4892  0.2075 -0.7634
  327MOL0     C45030   6.672  10.258  -1.400 -0.1143  0.3996  0.0313
  327MOL0     C45031   6.706  10.405  -1.428 -0.0077 -0.1685 -1.4994
  327MOL0     C45032   6.653  10.452  -1.568 -0.8098 -0.0823  0.8111
  327MOL0    Cl45033   6.483  10.406  -1.578  0.0671 -0.5864  0.0434
  327MOL0     C45034   7.063   9.973  -0.537  0.0616  0.0675 -0.3325
  327MOL0     C45035   7.140   9.876  -0.472  0.1691 -1.0728 -0.3837
  327MOL0     O45036   7.411   9.650  -0.540  0.1299 -0.3029 -0.5654
  327MOL0     C45037   7.311   9.448  -0.258  0.4383  0.6183  0.6903
  327MOL0     C45038   7.347   9.347  -0.172  0.3455  0.3133 -0.6461
  327MOL0     N45039   7.757   9.138   0.423 -0.2048  0.0731 -1.6383
  327MOL0     N45040   7.697   9.154   0.542 -0.3911  0.8925  0.2204
  327MOL0     C45041   7.046   8.950   1.372  0.4300 -0.4548  0.2222
  327MOL0     C45042   7.066   8.929   1.507  0.5781 -0.5461 -0.4143
  327MOL0     C45043   7.233   8.723   1.857  0.3174 -1.1454  0.3021
  327MOL0     C45044   7.359   8.784   1.883  0.4070 -0.0263 -0.4734
  327MOL0     C45045   7.437   8.731   1.987 -1.1918 -0.1029  0.7434
  327MOL0     C45046   7.410   8.616   2.049 -0.5366 -0.2028 -0.3628
  327MOL0     O45047   7.489   8.566   2.158  0.1206 -0.0183  0.3345
  327MOL0     C45048   7.481   8.427   2.210 -0.4036 -0.5146 -0.1439
  327MOL0     C45049   7.578   8.408   2.321  0.1894  0.5653  0.8145
  327MOL0     C45050   7.561   8.261   2.370 -0.0436 -0.1242  0.4854
  327MOL0     C45051   7.670   8.236   2.478  0.1854 -0.6888 -0.8030
  327MOL0     C45052   7.626   8.314   2.590  1.4801 -0.1408 -0.4859
  327MOL0     C45053   7.566   8.388   2.668 -0.5072  0.1339  0.0521
  327MOL0     C45054   7.290   8.549   2.015 -0.4828  0.4499 -0.6679
  327MOL0     C45055   7.198   8.598   1.923  0.9934 -0.6594 -0.3089
  327MOL0     C45056   7.076   8.526   1.899 -0.3045 -0.3964 -0.2045
  327MOL0     H45057   7.387   8.835   1.489  0.5145  1.0073 -1.3886
  327MOL0     H45058   7.347   8.850   1.245  0.3205  0.8970 -1.0572
  327MOL0     H45059   6.950   9.058   1.148  0.2610  0.6671  0.7785
  327MOL0     H45060   6.930   8.890   1.090  0.8186  0.1840  2.8886
  327MOL0     H45061   6.888   9.023   0.895 -1.0775 -1.5530  1.6549
  327MOL0     H45062   7.028   9.126   0.915  1.9337 -0.3795  1.1990
  327MOL0     H45063   7.187   8.971   0.883  0.3017  2.8536 -1.0161
  327MOL0     H45064   7.076   8.830   0.879 -0.4889 -0.1047 -0.7055
  327MOL0     H45065   6.980   8.879   0.685 -0.0779 -0.2294 -3.5178
  327MOL0     H45066   7.063   9.038   0.658  0.8088 -0.4389  1.1130
  327MOL0     H45067   7.146   8.862   0.512 -3.2427 -0.7590  0.5735
  327MOL0     H45068   7.201   8.767   0.640  2.4469 -0.2833 -3.2335
  327MOL0     H45069   7.361   8.912   0.727 -2.3655 -3.0276  0.4513
  327MOL0     H45070   7.394   8.906   0.553 -1.6394  0.1144 -1.7595
  327MOL0     H45071   7.271   9.153   0.682  0.0851  1.5828 -0.6099
  327MOL0     H45072   7.290   9.123   0.507  1.3373  2.2788 -0.2182
  327MOL0     H45073   7.452   9.278   0.596 -0.5366  0.4618  0.7837
  327MOL0     H45074   7.504   9.179   0.716 -1.5993  0.4571 -0.8269
  327MOL0     H45075   7.452   9.076   0.360  1.0778 -0.5578  0.3981
  327MOL0     H45076   7.631   9.011   0.149 -0.7567  1.8303 -1.2038
  327MOL0     H45077   7.805   9.026   0.173 -0.5685 -0.3042 -2.4908
  327MOL0     H45078   7.634   9.282   0.133 -0.9121 -1.6091  0.5223
  327MOL0     H45079   7.805   9.277   0.156  1.0461 -1.3689  3.2167
  327MOL0     H45080   7.743   9.304  -0.080 -1.4318  1.2223  1.8340
  327MOL0     H45081   7.834   9.160  -0.053  1.4662  3.2356  1.6696
  327MOL0     H45082   7.655   9.119  -0.217  1.3452  1.5886  0.7094
  327MOL0     H45083   7.611   9.025  -0.081 -1.0598 -0.2811  0.1797
  327MOL0     H45084   7.668   9.336  -0.288  0.4157 -0.1702  0.7125
  327MOL0     H45085   7.614   9.667  -0.433 -1.5648 -0.1286 -0.9176
  327MOL0     H45086   7.678   9.522  -0.515 -0.9059  0.4298 -0.1030
  327MOL0     H45087   7.728   9.571  -0.353  0.5760  3.8277  0.4643
  327MOL0     H45088   7.079   9.597  -0.649  1.3085  0.3827 -2.1819
  327MOL0     H45089   6.980   9.753  -0.794  0.3369 -3.3535  0.0876
  327MOL0     H45090   7.026   9.986  -0.923 -0.8445 -1.7551 -3.3976
  327MOL0     H45091   6.869   9.933  -0.891  0.2587  0.7540 -1.0903
  327MOL0     H45092   6.759  10.152  -0.908 -0.2762  0.2047 -1.5302
  327MOL0     H45093   6.916  10.233  -0.928 -0.3014  0.6376 -2.2554
  327MOL0     H45094   6.836  10.018  -1.115  3.2332 -1.5839  1.4678
  327MOL0     H45095   6.965  10.131  -1.132  0.0435 -0.8246 -1.8061
  327MOL0     H45096   6.806  10.320  -1.162  2.6058 -1.4658  1.9118
  327MOL0     H45097   6.678  10.202  -1.123 -1.6624  0.1358 -3.4628
  327MOL0     H45098   6.882  10.199  -1.368 -0.1614  1.4509 -1.5526
  327MOL0     H45099   6.777  10.069  -1.334  1.9768  0.2703 -2.6064
  327MOL0     H45100   6.582  10.250  -1.337 -1.1661  1.2718 -1.3211
  327MOL0     H45101   6.639  10.201  -1.488 -0.6109 -2.2176  1.7625
  327MOL0     H45102   6.815  10.411  -1.434  0.2455 -1.6719  0.5368
  327MOL0     H45103   6.667  10.475  -1.353 -1.0287  0.5982 -2.6978
  327MOL0     H45104   6.725  10.416  -1.641  1.4709 -1.2097  3.4270
  327MOL0     H45105   6.658  10.561  -1.553  2.1620  0.4492 -2.7970
  327MOL0     H45106   7.050  10.074  -0.499 -1.2652 -0.1483 -0.1594
  327MOL0     H45107   7.191   9.898  -0.379 -1.5689  1.6756  0.0091
  327MOL0     H45108   7.204   9.466  -0.262  0.1420 -1.2056 -1.4841
  327MOL0     H45109   7.281   9.304  -0.097  2.9925  0.2743  1.8951
  327MOL0     H45110   6.951   8.988   1.337  0.5757  1.8908  2.0925
  327MOL0     H45111   6.991   8.935   1.586  0.4196  0.1568 -0.6123
  327MOL0     H45112   7.396   8.871   1.830  1.3753 -0.9801 -1.4050
  327MOL0     H45113   7.534   8.777   2.003 -0.1442 -0.8694 -2.5340
  327MOL0     H45114   7.386   8.401   2.257  0.9638 -2.1985  1.9141
  327MOL0     H45115   7.506   8.355   2.131  0.9622  3.0260 -3.2496
  327MOL0     H45116   7.542   8.476   2.399 -0.5036  1.3853 -0.1959
  327MOL0     H45117   7.675   8.431   2.277  0.3489 -0.6768  0.4865
  327MOL0     H45118   7.461   8.247   2.414 -1.2147  0.0818 -1.9685
  327MOL0     H45119   7.561   8.193   2.284 -2.1136  3.4144 -2.6066
  327MOL0     H45120   7.770   8.264   2.446  0.4138  0.4537  0.8263
  327MOL0     H45121   7.688   8.134   2.515  1.8382 -0.1075  0.0865
  327MOL0     H45122   7.510   8.459   2.725  1.0644  0.4602  1.2228
  327MOL0     H45123   7.279   8.449   2.056  0.1195  0.4128 -0.5973
  327MOL0     H45124   7.066   8.513   1.791  3.3602 -1.8289 -0.5146
  327MOL0     H45125   7.087   8.424   1.936  0.4589  0.3512  1.7198
  327MOL0     H45126   6.986   8.564   1.948  0.1963 -0.6195  0.9182
  328MOL0     O45127   8.027   5.452  11.013  0.2813 -0.1900  0.0727
  328MOL0     C45128   8.087   5.405  11.111  0.4945  1.2577 -0.4372
  328MOL0     O45129   8.152   5.481  11.211 -0.6577 -0.1262  0.4662
  328MOL0     C45130   8.175   5.612  11.197 -0.2798  0.4605  0.4166
  328MOL0     C45131   8.126   5.705  11.301 -1.0937 -0.6234  0.6518
  328MOL0     C45132   8.168   5.842  11.295 -0.1181 -0.3492  0.5092
  328MOL0     C45133   8.223   5.897  11.178 -0.6630 -0.6847 -0.1304
  328MOL0     O45134   8.268   6.022  11.159  0.0716 -1.2357  1.1142
  328MOL0     C45135   8.221   6.126  11.240  0.2161 -0.4834  0.7051
  328MOL0     C45136   8.258   6.257  11.157  0.2632  0.5264  0.4820
  328MOL0     C45137   8.226   6.397  11.216 -0.4135  0.3364 -0.0307
  328MOL0     C45138   8.257   6.515  11.119  0.5891  0.5671 -0.3093
  328MOL0     C45139   8.183   6.644  11.170  0.2010 -0.1090  0.1869
  328MOL0     C45140   8.242   6.771  11.109 -0.4893  0.1283  0.0620
  328MOL0     C45141   8.211   6.914  11.159 -0.7746  0.3766  0.8623
  328MOL0     C45142   8.064   6.928  11.147 -0.5318 -0.5083 -0.6154
  328MOL0     N45143   8.016   7.068  11.177  0.7453 -0.7008  0.9527
  328MOL0     C45144   8.040   7.178  11.094  0.6179  0.2623  0.9814
  328MOL0     C45145   7.975   7.279  11.158 -0.0638 -0.4749  0.0494
  328MOL0     C45146   7.971   7.422  11.114  0.4796 -0.0327  0.9167
  328MOL0     C45147   7.833   7.478  11.072 -0.1998  0.3364  0.6000
  328MOL0     C45148   7.724   7.467  11.181 -0.6775  0.1685  0.5452
  328MOL0     C45149   7.638   7.337  11.167  0.0463 -0.4937 -0.7078
  328MOL0     O45150   7.603   7.299  11.037 -0.1091  0.1058  0.8795
  328MOL0     C45151   7.576   7.162  11.018 -0.0177 -0.1313  0.5018
  328MOL0     C45152   7.489   7.086  11.094  0.4588 -0.2822  0.2499
  328MOL0     C45153   7.471   6.948  11.078  0.0605  0.8382  1.0455
  328MOL0     C45154   7.357   6.881  11.155 -0.3496 -0.3575  0.0399
  328MOL0     C45155   7.554   6.877  10.984  0.9204  0.2019  0.1143
  328MOL0     C45156   7.539   6.739  10.951  0.6112  0.9848  1.2458
  328MOL0     O45157   7.410   6.677  10.947  0.4445 -0.7951 -0.4058
  328MOL0     C45158   7.406   6.537  10.947  1.2007  0.2706  0.4315
  328MOL0     C45159   7.468   6.461  10.846  0.3545 -1.0019 -0.0301
  328MOL0     C45160   7.453   6.327  10.843 -0.1359  0.8726  0.0454
  328MOL0     C45161   7.377   6.258  10.941  0.1030  1.4172 -0.0697
  328MOL0     O45162   7.372   6.124  10.929  0.4829 -0.3286 -0.4392
  328MOL0     C45163   7.310   6.042  11.037  0.0846 -0.3331  0.4867
  328MOL0     C45164   7.344   5.898  11.001 -1.2300  1.0503 -0.5833
  328MOL0     C45165   7.324   5.847  10.854 -0.4945  0.1648  0.4223
  328MOL0     C45166   7.453   5.866  10.771 -0.1773 -0.3650 -0.0343
  328MOL0     C45167   7.431   5.810  10.632 -0.1746 -0.5594 -0.0244
  328MOL0     C45168   7.569   5.813  10.551  0.1193 -0.4888 -1.0433
  328MOL0     C45169   7.548   5.749  10.414 -0.8903  0.7158  0.8808
  328MOL0     C45170   7.477   5.851  10.313  0.0611  0.6068 -0.9140
  328MOL0    Cl45171   7.500   5.804  10.145  0.2105  0.0360 -0.0796
  328MOL0     C45172   7.304   6.334  11.045 -0.4929 -1.1460  0.5055
  328MOL0     C45173   7.332   6.477  11.044  0.6553  0.6256  1.0232
  328MOL0     O45174   7.640   6.678  10.921 -0.9728  0.6234  0.0973
  328MOL0     C45175   7.652   6.953  10.918 -0.3317 -0.3985  0.5706
  328MOL0     C45176   7.663   7.097  10.935 -0.1899  0.1847 -0.4821
  328MOL0     N45177   7.944   7.227  11.283 -0.8095 -0.2353 -0.4119
  328MOL0     N45178   7.977   7.106  11.295  0.2237  0.3617  1.0849
  328MOL0     C45179   8.259   5.809  11.073 -0.5841  0.3710 -0.3785
  328MOL0     C45180   8.244   5.670  11.083 -0.8381 -1.5104  0.5740
  328MOL0     C45181   8.095   5.257  11.104 -0.3047 -0.3227 -0.2087
  328MOL0     C45182   8.210   5.188  11.152 -0.3487  0.0583  0.4210
  328MOL0     C45183   8.204   5.049  11.168 -0.5597 -1.0941 -0.6150
  328MOL0     C45184   8.099   4.971  11.123 -0.4797  0.1627  0.2455
  328MOL0     O45185   8.093   4.842  11.151  0.4605  0.8654  0.5981
  328MOL0     C45186   8.210   4.762  11.139 -0.2867 -0.1514 -0.1109
  328MOL0     C45187   8.160   4.625  11.094  0.5515 -0.9487  0.3767
  328MOL0     C45188   8.284   4.533  11.058  0.4818 -0.0230 -0.3895
  328MOL0     C45189   8.229   4.422  10.973  0.4309 -0.9622  0.1507
  328MOL0     C45190   8.337   4.327  10.941  0.6213 -0.0793 -0.6041
  328MOL0     C45191   8.437   4.264  10.909  0.5937  0.4690  0.5678
  328MOL0     C45192   7.999   5.029  11.050  0.5553 -0.2610  0.1103
  328MOL0     C45193   7.991   5.176  11.047  0.7361  0.1790 -0.4475
  328MOL0     C45194   7.857   5.232  10.987  0.2688  0.2756  0.0125
  328MOL0     H45195   8.075   5.663  11.387 -2.4566  0.7246  0.5521
  328MOL0     H45196   8.141   5.904  11.380 -1.3654  0.4362 -0.4303
  328MOL0     H45197   8.256   6.113  11.343  2.0712  0.5016  0.2478
  328MOL0     H45198   8.113   6.130  11.255  0.1152  0.5543 -0.1573
  328MOL0     H45199   8.367   6.250  11.149  0.3040  0.9915  0.5806
  328MOL0     H45200   8.205   6.265  11.062 -0.6322  0.9577  1.0061
  328MOL0     H45201   8.120   6.397  11.241 -0.0873  1.7489  1.5840
  328MOL0     H45202   8.280   6.415  11.310 -5.0583 -0.3314  3.0766
  328MOL0     H45203   8.366   6.521  11.121  0.7111 -1.2061 -0.6105
  328MOL0     H45204   8.224   6.486  11.019 -0.5841 -2.8750  0.9341
  328MOL0     H45205   8.182   6.656  11.279  2.8208 -1.2189  0.4225
  328MOL0     H45206   8.077   6.637  11.146  0.4403  1.8736 -1.8270
  328MOL0     H45207   8.350   6.762  11.115 -0.4703  0.9052  1.0714
  328MOL0     H45208   8.228   6.776  11.000  2.2026 -0.9695 -0.4033
  328MOL0     H45209   8.257   6.982  11.086  1.4467 -2.0687 -0.1479
  328MOL0     H45210   8.255   6.927  11.258  0.4622 -3.6797  1.0138
  328MOL0     H45211   8.044   6.900  11.043  0.9772 -5.9381  0.2692
  328MOL0     H45212   8.016   6.864  11.221  1.4425  1.0774  2.2079
  328MOL0     H45213   8.082   7.174  10.994  0.1892  0.6451  0.7848
  328MOL0     H45214   8.047   7.445  11.038 -1.2870  3.3200 -0.0369
  328MOL0     H45215   8.004   7.484  11.198  1.9518 -0.7531  0.8954
  328MOL0     H45216   7.859   7.580  11.040  0.1721 -0.3044 -1.2831
  328MOL0     H45217   7.787   7.418  10.993  0.6983 -1.6975  1.5629
  328MOL0     H45218   7.771   7.479  11.279  2.6735  1.0379 -1.0199
  328MOL0     H45219   7.646   7.542  11.162 -1.7504 -1.4390 -1.8710
  328MOL0     H45220   7.691   7.254  11.215  2.1475 -0.0947 -2.1942
  328MOL0     H45221   7.551   7.363  11.227  1.8960  1.5906  1.2772
  328MOL0     H45222   7.420   7.135  11.161  1.1806 -0.4621  1.1373
  328MOL0     H45223   7.405   6.796  11.204 -0.1367  0.6826  1.7219
  328MOL0     H45224   7.272   6.857  11.091  0.2085  0.1199 -0.9103
  328MOL0     H45225   7.324   6.949  11.234  0.8302  1.1396 -0.6857
  328MOL0     H45226   7.531   6.510  10.773  0.1438 -1.6735 -0.6783
  328MOL0     H45227   7.506   6.263  10.774  0.9027 -0.2440  1.7837
  328MOL0     H45228   7.344   6.070  11.138 -0.8245 -2.2513  1.3589
  328MOL0     H45229   7.204   6.068  11.038 -0.6432 -3.0942  1.3264
  328MOL0     H45230   7.448   5.872  11.023 -0.7070  1.8470 -1.9780
  328MOL0     H45231   7.287   5.837  11.071  2.5997 -3.9364 -1.2689
  328MOL0     H45232   7.243   5.898  10.801 -2.8780 -0.3031  3.2986
  328MOL0     H45233   7.308   5.740  10.866  4.2375 -0.7815 -0.0476
  328MOL0     H45234   7.538   5.817  10.820 -1.5109 -1.3452  1.4016
  328MOL0     H45235   7.480   5.971  10.760  2.1913 -1.2241 -5.5697
  328MOL0     H45236   7.381   5.712  10.629  0.2441 -0.8192 -3.7589
  328MOL0     H45237   7.363   5.879  10.581 -3.1787  0.4080  4.6807
  328MOL0     H45238   7.638   5.753  10.610  0.3636  0.7448 -0.0218
  328MOL0     H45239   7.610   5.913  10.532 -0.4287  0.0118  0.2539
  328MOL0     H45240   7.512   5.647  10.430  0.1992 -0.1731 -1.7751
  328MOL0     H45241   7.652   5.741  10.381 -0.3866  1.4130  2.2287
  328MOL0     H45242   7.532   5.944  10.328  1.1269  0.2042 -2.1488
  328MOL0     H45243   7.371   5.860  10.339  0.2263  0.6283 -0.2312
  328MOL0     H45244   7.251   6.280  11.123 -2.0191 -0.1460  0.1960
  328MOL0     H45245   7.292   6.534  11.127  0.4551 -0.8266  1.9568
  328MOL0     H45246   7.691   6.918  10.823 -1.2645 -0.4920  0.2073
  328MOL0     H45247   7.721   7.158  10.866  2.2867  0.3356  1.5821
  328MOL0     H45248   8.321   5.850  10.995 -2.1364  1.6827 -0.9889
  328MOL0     H45249   8.283   5.610  11.002 -0.6884 -0.3511 -0.2350
  328MOL0     H45250   8.289   5.252  11.191 -0.7265  1.6235 -1.2592
  328MOL0     H45251   8.295   5.016  11.218  1.2425  2.7861 -0.9639
  328MOL0     H45252   8.276   4.808  11.065  1.8317  2.2676  3.0161
  328MOL0     H45253   8.262   4.767  11.235 -2.7016  2.5197  1.2182
  328MOL0     H45254   8.101   4.634  11.003  1.9760 -0.7587 -0.5538
  328MOL0     H45255   8.110   4.574  11.177  0.7492 -0.4652  0.7951
  328MOL0     H45256   8.363   4.589  11.008  0.3260 -0.0128 -0.6257
  328MOL0     H45257   8.318   4.489  11.152  2.6614 -0.0564 -1.1440
  328MOL0     H45258   8.173   4.464  10.888 -1.7206 -1.3293  1.3195
  328MOL0     H45259   8.156   4.373  11.038 -1.2928  1.4449  0.2181
  328MOL0     H45260   8.525   4.206  10.892  0.3734  0.1939  0.3512
  328MOL0     H45261   7.929   4.966  10.997 -1.0380 -0.1966  2.0461
  328MOL0     H45262   7.804   5.271  11.075 -0.8437 -1.7009  0.2770
  328MOL0     H45263   7.874   5.305  10.907 -1.3731 -0.9217 -1.5402
  328MOL0     H45264   7.794   5.159  10.934 -2.6403  3.5365 -1.4693
  329MOL0     O45265  10.998   8.164   9.575  0.1851 -0.2182  0.5994
  329MOL0     C45266  10.902   8.170   9.652  0.1899 -0.3238  0.4404
  329MOL0     O45267  10.799   8.084   9.658 -0.0370 -0.3111  0.0513
  329MOL0     C45268  10.734   8.039   9.539 -0.0583  0.1008 -0.0784
  329MOL0     C45269  10.741   8.103   9.410  0.6031  0.0116 -0.3205
  329MOL0     C45270  10.693   8.041   9.296  0.2212  0.0153 -0.0702
  329MOL0     C45271  10.650   7.909   9.298 -0.4338 -0.4123 -1.5675
  329MOL0     O45272  10.598   7.848   9.197 -0.1649  0.4882 -0.8915
  329MOL0     C45273  10.689   7.785   9.112  0.1877  0.1582  0.1634
  329MOL0     C45274  10.634   7.733   8.978 -0.6181  0.1254 -0.3992
  329MOL0     C45275  10.567   7.831   8.882 -0.6969 -0.3200 -0.7179
  329MOL0     C45276  10.520   7.783   8.744 -1.2608 -0.2496  0.0515
  329MOL0     C45277  10.456   7.903   8.673  0.5155  0.1827  0.3590
  329MOL0     C45278  10.385   7.863   8.546 -0.5419  0.0053 -0.6646
  329MOL0     C45279  10.247   7.788   8.580  0.7298 -0.3972  0.1198
  329MOL0     C45280  10.142   7.773   8.466 -0.1824  0.0970  0.0076
  329MOL0     N45281  10.014   7.716   8.506  0.5193  0.5155  0.5325
  329MOL0     C45282   9.891   7.759   8.459  0.9768 -0.5862 -1.2622
  329MOL0     C45283   9.796   7.672   8.503 -0.8977  0.8034  0.7075
  329MOL0     C45284   9.651   7.680   8.472  0.0154  0.2324 -0.1439
  329MOL0     C45285   9.602   7.548   8.407 -0.8190 -0.1543  0.0975
  329MOL0     C45286   9.446   7.550   8.402 -0.1191 -0.5953  0.9804
  329MOL0     C45287   9.366   7.429   8.330 -0.7666 -0.0601 -0.1429
  329MOL0     O45288   9.451   7.400   8.219 -0.1797  0.2418  0.7826
  329MOL0     C45289   9.420   7.310   8.118  0.3582  1.1065  0.0366
  329MOL0     C45290   9.299   7.235   8.112 -0.7163  1.6058 -0.8003
  329MOL0     C45291   9.276   7.136   8.015  0.1866 -0.5904 -0.1772
  329MOL0     C45292   9.141   7.064   8.023 -0.1663  1.4773 -0.1281
  329MOL0     C45293   9.381   7.108   7.914  0.3004  1.1231 -0.2907
  329MOL0     C45294   9.366   7.018   7.798  0.4227 -0.6659  0.9340
  329MOL0     O45295   9.482   6.955   7.756  0.2248 -0.2744  0.4379
  329MOL0     C45296   9.500   6.911   7.626  0.2940 -0.6312 -0.2845
  329MOL0     C45297   9.581   6.790   7.622 -0.6756  0.6946  0.0709
  329MOL0     C45298   9.597   6.735   7.493 -0.4501 -0.5074 -0.5982
  329MOL0     C45299   9.532   6.785   7.376  0.6587 -0.4507  0.3224
  329MOL0     O45300   9.548   6.711   7.268 -0.0058 -0.0638  0.4305
  329MOL0     C45301   9.523   6.761   7.138  0.0807  0.4379  0.3969
  329MOL0     C45302   9.610   6.885   7.097 -0.6680 -0.3195 -0.5018
  329MOL0     C45303   9.761   6.844   7.115 -0.1376  0.2689 -0.3006
  329MOL0     C45304   9.859   6.946   7.079 -0.7025 -0.6229  0.6516
  329MOL0     C45305  10.008   6.910   7.085  0.3738 -0.6279 -0.3343
  329MOL0     C45306  10.057   6.801   6.985 -0.2064  0.2426  0.1543
  329MOL0     C45307  10.032   6.837   6.834  0.7548  0.9540 -0.4053
  329MOL0     C45308  10.121   6.948   6.766 -0.1739 -0.1163 -0.6781
  329MOL0    Cl45309  10.284   6.973   6.839  0.1558 -0.4490 -0.0438
  329MOL0     C45310   9.458   6.909   7.387 -0.3206  1.0625  0.6024
  329MOL0     C45311   9.443   6.964   7.512  0.1786  0.0787 -0.5233
  329MOL0     O45312   9.250   6.997   7.755  0.1094 -0.5752  0.4621
  329MOL0     C45313   9.504   7.178   7.930  0.4862  0.2441 -0.8631
  329MOL0     C45314   9.519   7.275   8.027  0.5023 -0.7862 -0.4024
  329MOL0     N45315   9.870   7.564   8.548  0.8995  0.0680  0.9875
  329MOL0     N45316  10.001   7.586   8.547 -0.2219 -0.2346 -0.1479
  329MOL0     C45317  10.635   7.844   9.419  0.2433 -0.0800 -1.1505
  329MOL0     C45318  10.669   7.911   9.542 -0.7101  0.0940 -0.4401
  329MOL0     C45319  10.907   8.267   9.766  0.1410 -0.4624  0.2393
  329MOL0     C45320  10.826   8.248   9.876 -0.2764 -0.0376  0.3847
  329MOL0     C45321  10.812   8.342   9.975  0.1609  1.2118  0.2161
  329MOL0     C45322  10.893   8.445   9.984  0.5881 -0.2630 -0.5853
  329MOL0     O45323  10.875   8.528  10.098 -0.2509  0.8605  0.1471
  329MOL0     C45324  10.983   8.601  10.145 -0.8053  0.2072  0.6188
  329MOL0     C45325  10.954   8.740  10.177  0.3596 -0.1150 -1.3088
  329MOL0     C45326  10.928   8.829  10.055 -0.3738 -0.4812 -0.0441
  329MOL0     C45327  10.868   8.965  10.095  0.2479 -1.0812  0.1611
  329MOL0     C45328  10.933   9.084  10.027 -0.7841  0.7594 -1.1921
  329MOL0     C45329  10.991   9.178   9.972 -0.1186  0.6224 -0.0550
  329MOL0     C45330  10.969   8.484   9.877 -0.4496  0.0597  0.2884
  329MOL0     C45331  10.984   8.386   9.767  0.1142 -0.6124 -0.4863
  329MOL0     C45332  11.080   8.428   9.651 -0.4532  0.0038 -0.3535
  329MOL0     H45333  10.780   8.202   9.389 -1.5691  0.4914 -2.6293
  329MOL0     H45334  10.683   8.100   9.205  0.9458  0.1850 -0.0486
  329MOL0     H45335  10.731   7.698   9.164 -1.5807  0.1115  1.6018
  329MOL0     H45336  10.761   7.861   9.082  0.7978 -0.5894 -0.3177
  329MOL0     H45337  10.705   7.667   8.928  2.2432  2.0857  0.7649
  329MOL0     H45338  10.556   7.664   9.012  1.2312 -1.3061  1.1419
  329MOL0     H45339  10.484   7.873   8.939 -0.6619 -0.1756 -0.7748
  329MOL0     H45340  10.624   7.922   8.862  1.7345 -1.6584 -0.3783
  329MOL0     H45341  10.603   7.757   8.678 -0.6030 -2.1145  1.5162
  329MOL0     H45342  10.464   7.690   8.761  0.7143 -1.2628  1.4697
  329MOL0     H45343  10.533   7.975   8.642  0.9155 -0.8036 -1.0334
  329MOL0     H45344  10.385   7.953   8.740 -0.6079  0.8566 -1.2844
  329MOL0     H45345  10.344   7.952   8.498 -0.1400 -1.3687 -3.7844
  329MOL0     H45346  10.441   7.802   8.475 -1.4804 -2.0373  0.2502
  329MOL0     H45347  10.194   7.835   8.664  0.0109  1.2871 -1.2109
  329MOL0     H45348  10.259   7.685   8.615 -1.2935  0.2295  3.0632
  329MOL0     H45349  10.124   7.866   8.413 -0.5760  0.6141  1.0249
  329MOL0     H45350  10.175   7.699   8.392  0.9470 -0.8276  1.3667
  329MOL0     H45351   9.860   7.849   8.406  1.1554  0.5115  0.4357
  329MOL0     H45352   9.635   7.759   8.399 -0.6576  2.0616  1.8638
  329MOL0     H45353   9.593   7.697   8.564 -1.4209 -2.8500 -0.3575
  329MOL0     H45354   9.651   7.535   8.310  3.4900 -0.5799  2.0926
  329MOL0     H45355   9.627   7.460   8.467 -1.1818 -0.2716  0.0799
  329MOL0     H45356   9.409   7.559   8.504 -1.6245 -0.6614  0.4626
  329MOL0     H45357   9.411   7.638   8.348  2.5727 -0.5982 -0.9997
  329MOL0     H45358   9.347   7.353   8.405 -1.2601  0.4706  0.2780
  329MOL0     H45359   9.273   7.471   8.292  0.6835  2.0827 -1.6121
  329MOL0     H45360   9.222   7.250   8.186  1.7441  0.6583  2.1329
  329MOL0     H45361   9.100   7.080   7.923 -0.1347 -3.3383 -1.1320
  329MOL0     H45362   9.076   7.086   8.109  0.7036  0.5652  0.7905
  329MOL0     H45363   9.151   6.955   8.025  0.9108  1.5433 -0.9751
  329MOL0     H45364   9.629   6.745   7.709  0.2905 -1.1019 -1.3316
  329MOL0     H45365   9.667   6.652   7.495 -0.7138 -0.7601  2.3455
  329MOL0     H45366   9.542   6.680   7.068 -1.7473 -0.0642  0.4405
  329MOL0     H45367   9.418   6.788   7.123  1.0522  3.4189 -2.4491
  329MOL0     H45368   9.595   6.906   6.991 -0.1853 -3.4803 -1.3197
  329MOL0     H45369   9.598   6.974   7.159  2.7739 -0.4343  0.5070
  329MOL0     H45370   9.772   6.756   7.051 -0.9889 -1.2500  1.5332
  329MOL0     H45371   9.781   6.804   7.214 -0.2067 -1.3926 -0.9232
  329MOL0     H45372   9.846   7.027   7.151 -2.6635 -2.2992  2.3071
  329MOL0     H45373   9.843   7.001   6.986 -1.6917  0.6152  1.5144
  329MOL0     H45374  10.065   7.000   7.058 -1.8926  0.7093 -0.9445
  329MOL0     H45375  10.034   6.886   7.188  1.8666  1.5027 -0.1381
  329MOL0     H45376  10.000   6.709   7.004 -1.4620  0.6870 -1.2062
  329MOL0     H45377  10.161   6.770   6.993  0.2911  2.3210  3.3119
  329MOL0     H45378   9.923   6.849   6.823  0.2666 -2.0382  0.3304
  329MOL0     H45379  10.051   6.747   6.775 -1.5133  1.0081 -1.3341
  329MOL0     H45380  10.060   7.038   6.771  0.3140  0.1902 -0.0566
  329MOL0     H45381  10.137   6.933   6.659 -3.8483 -2.6398 -1.0588
  329MOL0     H45382   9.415   6.949   7.296 -1.4677 -1.0963  0.1232
  329MOL0     H45383   9.379   7.051   7.525 -2.8557 -2.0023 -0.3682
  329MOL0     H45384   9.586   7.161   7.862 -2.0677 -2.2667 -3.6252
  329MOL0     H45385   9.614   7.325   8.041 -0.9671  1.2467  4.2603
  329MOL0     H45386  10.581   7.751   9.430  0.3798 -0.6105 -4.1494
  329MOL0     H45387  10.661   7.874   9.644 -1.7456 -1.1696 -0.9453
  329MOL0     H45388  10.762   8.160   9.869  0.4916 -0.6268  0.6242
  329MOL0     H45389  10.735   8.325  10.049 -0.6773 -2.0167 -1.2695
  329MOL0     H45390  11.037   8.549  10.224  2.4437  0.0378 -1.5238
  329MOL0     H45391  11.062   8.602  10.069 -3.8402  1.1971 -2.8613
  329MOL0     H45392  11.040   8.780  10.232 -1.3237 -1.0424  2.3031
  329MOL0     H45393  10.873   8.752  10.249  1.3393  1.1090 -0.3607
  329MOL0     H45394  11.031   8.844  10.022 -0.3855 -0.4510 -0.0656
  329MOL0     H45395  10.879   8.778   9.971  1.6319 -2.2216 -0.2566
  329MOL0     H45396  10.871   8.990  10.201 -1.3299  2.5059 -0.4901
  329MOL0     H45397  10.762   8.962  10.069  0.4154  1.8670 -1.2244
  329MOL0     H45398  11.018   9.266   9.918 -2.5710  0.3637 -1.8668
  329MOL0     H45399  11.001   8.587   9.867 -1.4529  0.2297 -1.4603
  329MOL0     H45400  11.173   8.371   9.648  0.5905  1.6974 -2.5171
  329MOL0     H45401  11.050   8.420   9.547  0.4055  0.5336 -0.6594
  329MOL0     H45402  11.098   8.536   9.661 -0.8727  0.6531 -4.7041
  330MOL0     O45403   2.752   8.761   6.064 -0.0773  0.2612  0.2662
  330MOL0     C45404   2.759   8.771   5.940 -0.1391  0.9959 -0.3092
  330MOL0     O45405   2.651   8.749   5.855 -0.4891  0.8487 -0.5231
  330MOL0     C45406   2.547   8.674   5.899  0.3689  0.3980 -0.8740
  330MOL0     C45407   2.422   8.720   5.904  0.4611 -0.5429 -0.3831
  330MOL0     C45408   2.316   8.634   5.938 -1.2641 -0.0329 -0.2864
  330MOL0     C45409   2.344   8.504   5.982  0.0388  0.5282  0.4483
  330MOL0     O45410   2.253   8.415   6.010  1.1048  0.9219  0.3351
  330MOL0     C45411   2.128   8.444   5.943  0.8094 -0.0434 -0.2985
  330MOL0     C45412   2.068   8.312   5.909  0.5675 -0.0837  0.2680
  330MOL0     C45413   1.948   8.332   5.805  0.7919  0.0948 -0.1018
  330MOL0     C45414   1.988   8.333   5.655 -0.4919 -0.5567  0.6454
  330MOL0     C45415   1.908   8.253   5.554  0.0173  0.0610 -0.8348
  330MOL0     C45416   1.926   8.095   5.575 -0.4043 -1.2174 -0.3254
  330MOL0     C45417   2.061   8.037   5.525 -0.4493 -0.9403 -0.6717
  330MOL0     C45418   2.059   7.884   5.516  1.5046  0.3840 -0.6712
  330MOL0     N45419   2.024   7.811   5.633 -0.2436  0.1515 -0.5677
  330MOL0     C45420   2.106   7.808   5.743  0.3881 -0.1519  1.3338
  330MOL0     C45421   2.059   7.707   5.819  0.1539 -0.6003  0.7612
  330MOL0     C45422   2.113   7.672   5.952 -0.2482  0.5790  0.4746
  330MOL0     C45423   2.125   7.785   6.047  0.5299 -0.4099 -0.1723
  330MOL0     C45424   2.028   7.901   6.028 -0.0359 -0.3491  0.2648
  330MOL0     C45425   1.989   7.969   6.162 -0.5035  0.3432 -0.3088
  330MOL0     O45426   2.115   7.993   6.231  0.6131 -0.0253 -0.4400
  330MOL0     C45427   2.103   8.084   6.329  0.0484  0.7809 -0.1766
  330MOL0     C45428   1.985   8.136   6.397  0.4397 -0.1204 -0.6671
  330MOL0     C45429   2.001   8.220   6.516 -0.2043 -0.1359 -0.3325
  330MOL0     C45430   1.874   8.245   6.593 -0.1552  0.1126 -1.1062
  330MOL0     C45431   2.131   8.256   6.565  0.2817  0.4534  1.0677
  330MOL0     C45432   2.157   8.338   6.681 -0.6519 -1.1824 -0.5061
  330MOL0     O45433   2.301   8.348   6.712 -0.0745  0.6399  0.7396
  330MOL0     C45434   2.332   8.425   6.810  0.3457 -0.2772 -0.5114
  330MOL0     C45435   2.375   8.382   6.936  0.9445 -0.4002  0.7283
  330MOL0     C45436   2.382   8.476   7.043 -1.2684  1.1398  0.5792
  330MOL0     C45437   2.368   8.611   7.029 -0.8732 -0.4812 -0.1278
  330MOL0     O45438   2.410   8.696   7.130  0.0245  0.8944 -0.4601
  330MOL0     C45439   2.348   8.826   7.151  0.1289 -0.9932 -1.0279
  330MOL0     C45440   2.394   8.890   7.288 -0.1294  0.8669 -0.5180
  330MOL0     C45441   2.546   8.907   7.291 -0.3928  0.0465  1.7255
  330MOL0     C45442   2.587   9.023   7.379  1.4660 -0.5844 -0.1775
  330MOL0     C45443   2.736   9.042   7.365  0.8146 -0.1039  0.6900
  330MOL0     C45444   2.782   9.191   7.378  0.0563  0.8636  1.0282
  330MOL0     C45445   2.828   9.222   7.514 -0.0173 -0.8256 -0.3115
  330MOL0     C45446   2.799   9.364   7.560 -0.8281 -0.9960 -0.0100
  330MOL0    Cl45447   2.881   9.491   7.470  0.0681 -0.1342  0.1401
  330MOL0     C45448   2.331   8.660   6.902  0.6923  0.6145 -0.0440
  330MOL0     C45449   2.312   8.566   6.799  0.6981 -0.0839  0.3166
  330MOL0     O45450   2.072   8.400   6.740  0.1344 -0.7337  0.0619
  330MOL0     C45451   2.238   8.218   6.485  0.2034 -0.1382  0.6255
  330MOL0     C45452   2.222   8.130   6.382  0.1776 -0.4337  0.4647
  330MOL0     N45453   1.962   7.650   5.757  0.8534  0.0530  0.4031
  330MOL0     N45454   1.928   7.719   5.649 -0.1509 -0.5442  0.5180
  330MOL0     C45455   2.482   8.455   5.964  1.2862  1.3217 -0.2493
  330MOL0     C45456   2.579   8.543   5.928  1.2795  1.2115 -0.7018
  330MOL0     C45457   2.870   8.861   5.906  0.6788 -0.5623 -1.2918
  330MOL0     C45458   2.849   8.945   5.793 -0.9802 -0.6230  1.2639
  330MOL0     C45459   2.926   9.060   5.777  0.2190  0.4386  0.1452
  330MOL0     C45460   3.033   9.098   5.866  0.0353 -0.5358  0.5945
  330MOL0     O45461   3.119   9.204   5.850  0.4518 -0.0428  0.0825
  330MOL0     C45462   3.072   9.313   5.761  0.0396 -0.0032 -0.4884
  330MOL0     C45463   3.104   9.290   5.608  0.1721 -0.6792  0.3772
  330MOL0     C45464   3.026   9.375   5.503 -0.9447 -0.2359 -0.0514
  330MOL0     C45465   3.084   9.335   5.362 -0.2383 -1.4152  0.3565
  330MOL0     C45466   3.034   9.413   5.244  0.8990  0.3388  0.4018
  330MOL0     C45467   2.996   9.458   5.144  0.4132 -0.4919 -0.7231
  330MOL0     C45468   3.068   9.006   5.967 -0.3260  0.5635 -0.1426
  330MOL0     C45469   2.988   8.887   5.984  0.5741  1.2640  0.3561
  330MOL0     C45470   3.032   8.803   6.099 -0.2374 -0.4370  0.4592
  330MOL0     H45471   2.404   8.824   5.879  3.7152  1.2149  3.4497
  330MOL0     H45472   2.217   8.677   5.952 -1.0212 -0.3154  3.2047
  330MOL0     H45473   2.127   8.504   5.851 -0.7668  1.5093  0.6602
  330MOL0     H45474   2.063   8.497   6.013  1.0741  1.3625 -1.0974
  330MOL0     H45475   2.147   8.249   5.865 -0.7251  0.5394 -3.3077
  330MOL0     H45476   2.020   8.253   5.987 -0.6739  3.3886  2.3572
  330MOL0     H45477   1.877   8.248   5.812  0.8051  0.2145  2.3923
  330MOL0     H45478   1.910   8.431   5.831  1.1981 -0.1687  1.5529
  330MOL0     H45479   1.990   8.440   5.633  3.3440  0.6189  4.9492
  330MOL0     H45480   2.092   8.301   5.643 -0.0640  0.5547  1.1936
  330MOL0     H45481   1.934   8.293   5.456  0.3248 -0.2369 -0.8769
  330MOL0     H45482   1.803   8.275   5.574  0.5323  1.3323  0.7606
  330MOL0     H45483   1.901   8.071   5.679  0.5462  0.5421  0.3534
  330MOL0     H45484   1.844   8.043   5.525 -0.7834  2.2921 -3.7973
  330MOL0     H45485   2.137   8.058   5.600 -1.7959  2.8058 -0.1478
  330MOL0     H45486   2.089   8.077   5.427  2.1608  1.4985  0.9271
  330MOL0     H45487   1.990   7.856   5.436  2.7663 -0.0318 -1.6471
  330MOL0     H45488   2.150   7.844   5.471  1.7972  1.4955 -1.1053
  330MOL0     H45489   2.198   7.863   5.764  0.3785  0.5779 -0.3858
  330MOL0     H45490   2.213   7.631   5.941  0.4579  2.4883 -0.7284
  330MOL0     H45491   2.052   7.589   5.988 -1.3127 -0.1779 -2.7031
  330MOL0     H45492   2.114   7.756   6.151 -0.6405 -0.9518 -0.4305
  330MOL0     H45493   2.227   7.817   6.024  0.3243 -1.3044 -2.6395
  330MOL0     H45494   2.065   7.973   5.955  1.9183 -2.7244 -1.2398
  330MOL0     H45495   1.933   7.867   5.987 -1.1118  2.1366  0.5535
  330MOL0     H45496   1.932   8.061   6.147  1.2727  1.3174 -1.4853
  330MOL0     H45497   1.934   7.893   6.218  2.6714 -0.4237  2.0800
  330MOL0     H45498   1.887   8.097   6.372 -1.0295  1.7557  1.8122
  330MOL0     H45499   1.887   8.217   6.698 -0.5315 -1.0392 -1.3498
  330MOL0     H45500   1.785   8.203   6.545 -1.7264  0.9239  0.9617
  330MOL0     H45501   1.860   8.353   6.590 -1.2131  0.1053  1.4496
  330MOL0     H45502   2.396   8.279   6.964 -1.8071 -0.7824  1.7200
  330MOL0     H45503   2.433   8.443   7.132  0.6368  1.4690 -0.3386
  330MOL0     H45504   2.358   8.894   7.066 -0.5236 -0.8172 -0.9686
  330MOL0     H45505   2.241   8.809   7.163 -0.4320  2.8353  1.0186
  330MOL0     H45506   2.342   8.986   7.302  2.3857  2.3075 -0.3939
  330MOL0     H45507   2.379   8.821   7.371  3.2037 -1.5928 -1.7397
  330MOL0     H45508   2.572   8.921   7.185  0.9683 -3.4074  1.4386
  330MOL0     H45509   2.586   8.813   7.330  1.5026  0.0162 -0.0766
  330MOL0     H45510   2.562   9.000   7.483 -0.2225  0.4759 -0.3100
  330MOL0     H45511   2.534   9.116   7.357  1.3397 -1.0205 -1.8260
  330MOL0     H45512   2.792   8.981   7.436  1.2450  1.5786  1.8631
  330MOL0     H45513   2.769   9.011   7.266  1.4528 -0.8571  1.1194
  330MOL0     H45514   2.704   9.256   7.336  1.8717  1.1894 -2.2358
  330MOL0     H45515   2.871   9.201   7.314  0.8839 -1.1198  1.8100
  330MOL0     H45516   2.937   9.227   7.525 -0.0244 -0.1275 -0.5307
  330MOL0     H45517   2.796   9.150   7.590  1.8680 -1.7387 -0.3221
  330MOL0     H45518   2.824   9.366   7.667  0.0237 -0.4275 -0.2160
  330MOL0     H45519   2.694   9.394   7.551 -0.9462 -1.9207 -2.2569
  330MOL0     H45520   2.319   8.761   6.865  2.5057 -0.1037 -2.8676
  330MOL0     H45521   2.273   8.603   6.705  1.4120 -0.4238 -0.1130
  330MOL0     H45522   2.339   8.239   6.517  0.1011  0.3096  0.6568
  330MOL0     H45523   2.307   8.085   6.332  1.2234  3.1363 -1.2606
  330MOL0     H45524   2.508   8.351   5.981 -1.3980  0.5203 -0.6175
  330MOL0     H45525   2.680   8.504   5.916  1.5854  1.7379  0.0834
  330MOL0     H45526   2.769   8.914   5.727  1.0773 -3.3435 -0.1644
  330MOL0     H45527   2.898   9.122   5.692 -0.3557  0.2592  0.2063
  330MOL0     H45528   2.968   9.342   5.777  0.6919  2.2602 -0.0439
  330MOL0     H45529   3.126   9.402   5.796  1.9977 -1.3663  0.1778
  330MOL0     H45530   3.078   9.185   5.588 -0.9197 -0.1309 -1.3496
  330MOL0     H45531   3.209   9.310   5.584  0.5464  0.9017  3.0250
  330MOL0     H45532   2.917   9.366   5.507 -0.8710 -0.6851  2.3059
  330MOL0     H45533   3.049   9.481   5.516 -2.2025 -0.1406  1.8335
  330MOL0     H45534   3.071   9.227   5.356 -0.1746 -1.3799 -0.4717
  330MOL0     H45535   3.193   9.351   5.362 -0.7408  3.7771 -1.2239
  330MOL0     H45536   2.962   9.490   5.048  2.8503  2.0503 -0.9037
  330MOL0     H45537   3.154   9.024   6.029  0.7576 -1.8595 -0.8349
  330MOL0     H45538   3.021   8.867   6.187 -1.9784 -1.7379  1.2552
  330MOL0     H45539   2.974   8.710   6.104 -0.0806 -0.5266  0.6412
  330MOL0     H45540   3.137   8.774   6.103 -0.1773 -0.1282  1.4810
  331MOL0     O45541  10.638   4.907  10.400 -0.2918  0.0773 -0.0677
  331MOL0     C45542  10.673   4.969  10.502  0.1299  0.1766 -0.4434
  331MOL0     O45543  10.590   4.976  10.607  0.6121 -0.4286 -0.3296
  331MOL0     C45544  10.484   4.889  10.619  0.1168 -0.1491 -0.9409
  331MOL0     C45545  10.475   4.813  10.742 -0.8955  0.0074 -0.2406
  331MOL0     C45546  10.367   4.726  10.754 -0.9618 -0.7290 -0.2567
  331MOL0     C45547  10.262   4.719  10.663  0.4965 -0.2446  0.6330
  331MOL0     O45548  10.161   4.621  10.673  0.0534 -0.6301 -0.0108
  331MOL0     C45549  10.201   4.491  10.734 -0.0096  0.4141 -0.1341
  331MOL0     C45550  10.131   4.381  10.663 -0.3360  1.5718  0.6391
  331MOL0     C45551  10.139   4.245  10.734  0.4756  0.5202  0.1180
  331MOL0     C45552  10.118   4.135  10.628 -0.1879 -0.7303 -0.1147
  331MOL0     C45553  10.170   3.998  10.660  0.9483  0.0165  0.3744
  331MOL0     C45554  10.087   3.890  10.583  0.5489 -0.0066 -0.2913
  331MOL0     C45555  10.175   3.779  10.529 -0.6257 -0.0785  0.6629
  331MOL0     C45556  10.276   3.834  10.432 -0.1650  0.5911 -0.3123
  331MOL0     N45557  10.215   3.879  10.307 -0.0529 -0.5093 -0.0970
  331MOL0     C45558  10.219   4.011  10.263 -0.6428 -0.4465 -0.4143
  331MOL0     C45559  10.178   4.013  10.139  0.0944  0.7453  0.9027
  331MOL0     C45560  10.170   4.133  10.048 -1.1115 -0.2207 -1.0641
  331MOL0     C45561  10.060   4.237  10.102 -1.0099  0.0548  0.4568
  331MOL0     C45562   9.921   4.197  10.132 -0.2897  0.6958 -1.4504
  331MOL0     C45563   9.856   4.116  10.020  0.4207  0.4168  0.5450
  331MOL0     O45564   9.863   4.170   9.887  0.3870  0.6460 -0.0810
  331MOL0     C45565   9.770   4.272   9.870  0.4823  0.6251  0.6020
  331MOL0     C45566   9.814   4.380   9.791  0.8029  0.9578  0.4712
  331MOL0     C45567   9.721   4.473   9.739  0.6953  0.3543 -0.4226
  331MOL0     C45568   9.785   4.591   9.671 -0.7248  0.6707  0.1939
  331MOL0     C45569   9.579   4.458   9.769 -0.7004  0.2183 -0.8096
  331MOL0     C45570   9.474   4.548   9.706 -0.2099  0.1537  0.0759
  331MOL0     O45571   9.372   4.592   9.782 -0.8373  0.6142  0.4189
  331MOL0     C45572   9.264   4.659   9.728  0.4127  0.0578  1.4989
  331MOL0     C45573   9.209   4.677   9.599 -0.2452  0.2212 -0.3000
  331MOL0     C45574   9.090   4.750   9.576  0.4682 -0.3122  0.8754
  331MOL0     C45575   9.014   4.799   9.687 -0.4434  0.7893  0.2185
  331MOL0     O45576   8.910   4.885   9.650 -0.6440 -0.7230  0.4389
  331MOL0     C45577   8.828   4.937   9.760 -0.4326 -0.2831 -0.0998
  331MOL0     C45578   8.700   4.988   9.697 -1.1453  0.4598  0.5134
  331MOL0     C45579   8.598   5.050   9.800 -0.3110 -0.6160  1.3618
  331MOL0     C45580   8.529   4.953   9.903 -0.3589 -0.1500  0.3748
  331MOL0     C45581   8.412   5.032   9.987 -1.0393  1.0153 -0.5981
  331MOL0     C45582   8.337   4.934  10.071 -0.0564 -1.1691 -0.9477
  331MOL0     C45583   8.248   5.005  10.180  0.4911 -0.0290 -0.0254
  331MOL0     C45584   8.177   5.127  10.129  0.1716  0.3064  0.4037
  331MOL0    Cl45585   8.055   5.102   9.994 -0.1554  0.0457  0.2266
  331MOL0     C45586   9.065   4.782   9.813  0.0975 -0.4510 -0.0277
  331MOL0     C45587   9.184   4.717   9.833 -0.4760  0.6209 -0.2369
  331MOL0     O45588   9.491   4.572   9.587 -0.1463  0.2008 -0.3095
  331MOL0     C45589   9.548   4.367   9.874 -0.7605 -0.8215  0.6834
  331MOL0     C45590   9.637   4.268   9.915 -0.4635 -0.5056  0.4960
  331MOL0     N45591  10.138   3.878  10.105 -0.1106 -0.0962  0.5473
  331MOL0     N45592  10.166   3.802  10.210  0.7400  0.3379  0.4741
  331MOL0     C45593  10.262   4.812  10.562 -0.1208 -0.4579  0.3213
  331MOL0     C45594  10.372   4.891  10.538  0.4863 -0.1077 -0.1574
  331MOL0     C45595  10.787   5.064  10.490 -0.0427 -0.0623 -0.5155
  331MOL0     C45596  10.873   5.067  10.381 -0.8862  0.3545 -0.1684
  331MOL0     C45597  10.983   5.151  10.380  1.2017 -0.3926  0.4482
  331MOL0     C45598  11.002   5.247  10.479 -0.0553  0.8038 -0.7564
  331MOL0     O45599  11.109   5.333  10.471 -0.3004 -0.4482  0.4441
  331MOL0     C45600  11.072   5.470  10.444 -0.6551  0.2195  0.5892
  331MOL0     C45601  11.033   5.490  10.297 -0.7267 -0.0861 -0.2326
  331MOL0     C45602  11.161   5.492  10.215  0.4773 -0.2099 -0.0448
  331MOL0     C45603  11.160   5.542  10.068 -0.0458  0.2781 -0.9785
  331MOL0     C45604  11.296   5.603  10.030  0.1123  0.1906 -0.4599
  331MOL0     C45605  11.397   5.667  10.011 -1.1030  0.7183  0.3136
  331MOL0     C45606  10.928   5.236  10.596  0.3359  0.0375  0.4227
  331MOL0     C45607  10.811   5.159  10.593  0.9282 -0.8335 -0.9523
  331MOL0     C45608  10.716   5.188  10.708 -0.7514  0.7736  0.6492
  331MOL0     H45609  10.560   4.811  10.810  2.2714 -0.2791 -3.8643
  331MOL0     H45610  10.377   4.660  10.839  1.3953  0.1635  0.2324
  331MOL0     H45611  10.169   4.482  10.839 -0.4990 -0.8864 -0.3688
  331MOL0     H45612  10.310   4.484  10.732 -0.0192 -0.1031  0.4680
  331MOL0     H45613  10.025   4.397  10.640 -1.0454 -1.1940  1.5165
  331MOL0     H45614  10.190   4.383  10.571  1.2241 -1.1791  1.4688
  331MOL0     H45615  10.241   4.237  10.772  0.1589  0.8837  1.0714
  331MOL0     H45616  10.052   4.241  10.801 -0.7171  0.7067 -1.3599
  331MOL0     H45617  10.009   4.128  10.626 -0.4183  0.7814  2.5086
  331MOL0     H45618  10.160   4.167  10.533 -1.8910  0.0875 -0.6307
  331MOL0     H45619  10.148   3.969  10.763  0.2403 -0.0435  0.2092
  331MOL0     H45620  10.279   3.992  10.654  0.9768 -0.7731  1.5019
  331MOL0     H45621  10.024   3.847  10.662  1.2673 -1.6951 -0.5976
  331MOL0     H45622  10.029   3.926  10.498 -2.3594  0.5155  1.7373
  331MOL0     H45623  10.117   3.709  10.468 -0.8308  1.2979 -0.7753
  331MOL0     H45624  10.234   3.722  10.601  2.0017 -1.1851 -2.1302
  331MOL0     H45625  10.347   3.909  10.469 -2.7769  1.9290  2.3960
  331MOL0     H45626  10.328   3.747  10.392 -2.1657 -0.3438 -1.0310
  331MOL0     H45627  10.258   4.095  10.320 -3.3338  1.3039 -0.9855
  331MOL0     H45628  10.167   4.102   9.943  1.4331 -1.3993 -0.8428
  331MOL0     H45629  10.264   4.187  10.058  0.3585 -2.7748 -0.0473
  331MOL0     H45630  10.105   4.289  10.188 -0.7169  0.4335  0.0802
  331MOL0     H45631  10.058   4.318  10.029  0.7669 -0.6318 -0.4046
  331MOL0     H45632   9.908   4.132  10.219  0.7467  1.5375 -0.6433
  331MOL0     H45633   9.863   4.288  10.145  0.1597  1.6205 -4.8948
  331MOL0     H45634   9.918   4.027  10.008  0.1822  0.5344 -2.2077
  331MOL0     H45635   9.756   4.079  10.044  0.5976 -0.6045 -0.2105
  331MOL0     H45636   9.921   4.389   9.776  0.6162  2.6487 -0.0891
  331MOL0     H45637   9.740   4.617   9.574 -1.6379  2.0795  0.9695
  331MOL0     H45638   9.891   4.583   9.644 -0.9758  0.2505 -0.6996
  331MOL0     H45639   9.772   4.679   9.734  5.3296 -0.5822  3.9949
  331MOL0     H45640   9.255   4.625   9.515  2.4451  0.6805  0.8060
  331MOL0     H45641   9.059   4.770   9.474  0.8877 -1.3312  0.5282
  331MOL0     H45642   8.805   4.864   9.839  2.9385  0.1074  1.4413
  331MOL0     H45643   8.872   5.015   9.823 -0.5804 -1.8265  2.0511
  331MOL0     H45644   8.727   5.075   9.637 -0.1220 -1.6361 -2.2486
  331MOL0     H45645   8.650   4.909   9.641 -1.6152  0.5251  0.8336
  331MOL0     H45646   8.509   5.077   9.743  0.7585 -1.9855 -1.1084
  331MOL0     H45647   8.637   5.143   9.843  0.8684 -0.9878  1.1079
  331MOL0     H45648   8.610   4.925   9.970 -1.5284  2.9488  3.3529
  331MOL0     H45649   8.489   4.863   9.856  0.4106 -1.1550  1.6074
  331MOL0     H45650   8.448   5.116  10.047 -3.2553  1.5431  0.1130
  331MOL0     H45651   8.346   5.081   9.915  0.7396  1.5804 -1.9133
  331MOL0     H45652   8.405   4.874  10.132 -0.9145  0.5092  1.8091
  331MOL0     H45653   8.273   4.864  10.016 -1.6406  1.5019 -2.7497
  331MOL0     H45654   8.311   5.038  10.263  1.2873  0.8646 -0.9796
  331MOL0     H45655   8.180   4.929  10.222 -1.0547  1.0026 -0.5605
  331MOL0     H45656   8.255   5.199  10.103  1.3303 -0.1051  2.4895
  331MOL0     H45657   8.122   5.179  10.209 -3.8157 -1.3354 -0.9972
  331MOL0     H45658   9.013   4.819   9.901  0.7176 -1.4585  0.7872
  331MOL0     H45659   9.205   4.673   9.931 -0.3396  0.1476 -0.4735
  331MOL0     H45660   9.445   4.365   9.910 -1.7553  3.7676 -1.1974
  331MOL0     H45661   9.600   4.185   9.972  0.3071 -1.9814 -1.0513
  331MOL0     H45662  10.188   4.812  10.482  0.1885  0.5280  0.0174
  331MOL0     H45663  10.374   4.958  10.452  0.8926 -0.1251 -0.1623
  331MOL0     H45664  10.865   4.992  10.303 -0.6698 -0.1720  0.3078
  331MOL0     H45665  11.050   5.166  10.295  1.4140 -2.9693  0.0625
  331MOL0     H45666  11.001   5.514  10.514 -0.5836 -0.8062  1.3280
  331MOL0     H45667  11.169   5.515  10.468 -0.1416 -0.8440  0.5607
  331MOL0     H45668  10.975   5.583  10.291  1.0399  1.2921  2.4731
  331MOL0     H45669  10.962   5.407  10.294  1.3281 -1.9872  1.0674
  331MOL0     H45670  11.233   5.553  10.270  0.7468 -0.4962 -0.0791
  331MOL0     H45671  11.208   5.393  10.210 -2.1791 -1.4698 -2.9273
  331MOL0     H45672  11.081   5.616  10.054  2.8019  3.3037 -2.3609
  331MOL0     H45673  11.138   5.460  10.000 -2.9749 -0.1733  0.3745
  331MOL0     H45674  11.487   5.725  10.013  0.7625 -1.8695 -1.2921
  331MOL0     H45675  10.946   5.297  10.684 -2.0365 -0.3090  1.2227
  331MOL0     H45676  10.747   5.276  10.766  2.3190 -1.8322  3.3507
  331MOL0     H45677  10.612   5.206  10.681 -0.9244  1.9360  1.9987
  331MOL0     H45678  10.724   5.101  10.773  0.4370  1.6674  1.7556
  332MOL0     O45679   1.617   4.930  11.043  0.3563 -0.7353  0.0659
  332MOL0     C45680   1.666   4.954  11.150 -0.0713  0.4763 -0.4333
  332MOL0     O45681   1.604   4.932  11.273 -0.8139  0.3321 -0.3691
  332MOL0     C45682   1.475   4.927  11.274  0.1865 -1.1292  0.1823
  332MOL0     C45683   1.414   4.813  11.318 -0.0071 -0.4966 -0.1460
  332MOL0     C45684   1.274   4.790  11.316  0.3428  0.2222  0.5286
  332MOL0     C45685   1.194   4.886  11.260  0.0240 -0.5507 -0.5926
  332MOL0     O45686   1.059   4.864  11.246 -0.6839 -0.3295 -0.4682
  332MOL0     C45687   1.013   4.732  11.235  0.3293 -0.1357 -1.0152
  332MOL0     C45688   0.877   4.732  11.160 -0.0337  0.0692  0.2559
  332MOL0     C45689   0.748   4.775  11.237  0.3300  0.1205 -1.1219
  332MOL0     C45690   0.637   4.768  11.132  0.6927 -0.4018  0.1839
  332MOL0     C45691   0.498   4.798  11.211 -0.8902 -0.0794  0.1994
  332MOL0     C45692   0.391   4.854  11.123 -0.9791  0.1870  0.6198
  332MOL0     C45693   0.272   4.886  11.192  0.0228 -0.1505 -0.4565
  332MOL0     C45694   0.152   4.934  11.109 -0.1331  0.4283 -0.0484
  332MOL0     N45695   0.030   4.938  11.185  0.0783  0.3775  0.5673
  332MOL0     C45696  -0.064   4.830  11.202 -0.1524  1.0932 -0.1421
  332MOL0     C45697  -0.171   4.880  11.266  1.0621 -0.3601  0.3610
  332MOL0     C45698  -0.295   4.803  11.316 -0.5079 -0.0907 -0.7262
  332MOL0     C45699  -0.243   4.689  11.405  0.8149  1.0376 -0.4632
  332MOL0     C45700  -0.356   4.627  11.483 -0.0980 -0.4163  0.7497
  332MOL0     C45701  -0.311   4.529  11.590  0.3066 -0.5516  1.1521
  332MOL0     O45702  -0.426   4.468  11.655 -0.8536  0.5191 -0.4014
  332MOL0     C45703  -0.456   4.483  11.788 -0.7640 -0.4741 -0.6876
  332MOL0     C45704  -0.408   4.591  11.870  0.3908 -0.6078  0.7218
  332MOL0     C45705  -0.431   4.602  12.012  0.6239 -0.0781  0.1877
  332MOL0     C45706  -0.374   4.717  12.089  0.6450 -0.1947  0.5142
  332MOL0     C45707  -0.494   4.487  12.072 -0.1332  0.5261 -0.5075
  332MOL0     C45708  -0.524   4.486  12.222 -0.3059 -0.4942  0.9943
  332MOL0     O45709  -0.582   4.601  12.272  0.1001  0.3758  0.3196
  332MOL0     C45710  -0.562   4.640  12.399 -0.2195 -0.2622 -0.2861
  332MOL0     C45711  -0.504   4.760  12.432 -0.1844 -0.1097  0.1304
  332MOL0     C45712  -0.509   4.807  12.561 -0.2597 -0.0327  0.1145
  332MOL0     C45713  -0.540   4.713  12.666  0.9920  0.0790  0.5079
  332MOL0     O45714  -0.512   4.766  12.788  0.2663  0.2734  0.0402
  332MOL0     C45715  -0.586   4.719  12.901 -1.9400  0.9348  0.5635
  332MOL0     C45716  -0.576   4.833  12.996  0.4194 -0.7863  0.2928
  332MOL0     C45717  -0.650   4.804  13.134 -0.2338  0.6072  0.5110
  332MOL0     C45718  -0.669   4.933  13.215  0.4178  0.1008  0.4071
  332MOL0     C45719  -0.745   4.890  13.341 -0.7575  0.1377  0.9347
  332MOL0     C45720  -0.767   5.021  13.421 -0.2108 -0.4737 -0.3474
  332MOL0     C45721  -0.907   5.087  13.378 -1.1619  0.0967 -0.7827
  332MOL0     C45722  -0.899   5.234  13.347  0.7412  0.5462 -0.2303
  332MOL0    Cl45723  -0.849   5.314  13.491  0.1511  0.2446  0.3225
  332MOL0     C45724  -0.576   4.580  12.642  0.2113 -0.2997 -0.2537
  332MOL0     C45725  -0.602   4.547  12.503 -0.2545 -0.7356  0.5854
  332MOL0     O45726  -0.515   4.383  12.285  0.3666 -0.0381  0.3665
  332MOL0     C45727  -0.546   4.380  11.995  0.5594  0.1613  0.8476
  332MOL0     C45728  -0.526   4.380  11.855 -0.3160  0.9701 -0.3429
  332MOL0     N45729  -0.146   5.014  11.285 -0.3636 -0.0783  0.2045
  332MOL0     N45730  -0.031   5.048  11.231 -0.2290 -0.1761 -0.4391
  332MOL0     C45731   1.249   5.005  11.230  0.2302  0.0673  0.5740
  332MOL0     C45732   1.388   5.027  11.234 -0.8642 -0.4607 -0.0845
  332MOL0     C45733   1.809   4.991  11.148 -0.7475 -0.6978 -0.9001
  332MOL0     C45734   1.867   5.038  11.269  0.1125  0.4133  0.3023
  332MOL0     C45735   2.001   5.077  11.275 -0.1925 -0.2061  0.1254
  332MOL0     C45736   2.081   5.082  11.157 -0.0397  0.1395  0.9592
  332MOL0     O45737   2.210   5.128  11.168  0.4877  0.0778  0.6822
  332MOL0     C45738   2.261   5.203  11.049  0.0338  0.0435 -0.1209
  332MOL0     C45739   2.381   5.286  11.104 -0.0808 -0.5261 -0.1192
  332MOL0     C45740   2.322   5.407  11.183 -0.5076  0.2485  0.2474
  332MOL0     C45741   2.255   5.514  11.097 -0.0637  0.2319 -0.4404
  332MOL0     C45742   2.180   5.619  11.174  0.1250 -0.0763  0.6184
  332MOL0     C45743   2.107   5.702  11.217 -0.1271 -0.5140 -0.2587
  332MOL0     C45744   2.023   5.040  11.046 -0.7021 -0.2720  0.4869
  332MOL0     C45745   1.894   4.995  11.033 -0.1864  0.0943  0.0665
  332MOL0     C45746   1.862   4.941  10.899 -0.5705 -0.1046 -0.3305
  332MOL0     H45747   1.489   4.740  11.349  0.2977  0.5041  1.6599
  332MOL0     H45748   1.232   4.695  11.346 -1.8198 -0.0045 -2.7919
  332MOL0     H45749   1.001   4.683  11.332 -0.4212  0.0656 -0.9995
  332MOL0     H45750   1.082   4.662  11.187  0.6753 -1.8780  1.7775
  332MOL0     H45751   0.883   4.803  11.076  0.0367  0.5839  0.6908
  332MOL0     H45752   0.864   4.631  11.120  0.1437 -0.3293  1.1853
  332MOL0     H45753   0.730   4.705  11.318 -0.5423  2.1032  0.4701
  332MOL0     H45754   0.762   4.878  11.272  0.7732 -0.2499 -0.1916
  332MOL0     H45755   0.655   4.850  11.062  1.0837  1.8534  2.7844
  332MOL0     H45756   0.643   4.668  11.087  3.4707 -0.3019  0.1353
  332MOL0     H45757   0.529   4.866  11.291 -0.3375 -1.6597  1.3750
  332MOL0     H45758   0.476   4.703  11.260  2.1694 -1.0079 -0.0345
  332MOL0     H45759   0.422   4.942  11.067  2.2948 -1.2800 -0.1160
  332MOL0     H45760   0.373   4.772  11.053  0.8079 -0.6706  1.1017
  332MOL0     H45761   0.282   4.971  11.259 -0.7580 -1.3753  1.2902
  332MOL0     H45762   0.237   4.797  11.246  3.4509 -1.6510 -0.4546
  332MOL0     H45763   0.169   5.037  11.079  3.6353 -0.3552 -1.1604
  332MOL0     H45764   0.150   4.876  11.016  2.3470  1.4797 -0.8357
  332MOL0     H45765  -0.042   4.726  11.181 -1.2638  1.0289 -1.1074
  332MOL0     H45766  -0.353   4.762  11.233  0.7705 -2.5434 -0.4779
  332MOL0     H45767  -0.362   4.866  11.375 -0.4735 -2.4085  1.9849
  332MOL0     H45768  -0.180   4.620  11.348  2.9281  1.9478  0.6391
  332MOL0     H45769  -0.171   4.716  11.483  1.8889 -1.6277 -0.3910
  332MOL0     H45770  -0.418   4.709  11.522 -1.9943  0.7490 -3.9984
  332MOL0     H45771  -0.412   4.575  11.405  1.5262  1.2455 -1.6458
  332MOL0     H45772  -0.251   4.446  11.553  0.7946  0.1175  0.4121
  332MOL0     H45773  -0.240   4.573  11.661  5.0560 -2.5595 -1.8897
  332MOL0     H45774  -0.338   4.664  11.831 -0.5065 -1.2359 -2.3666
  332MOL0     H45775  -0.307   4.774  12.024 -3.2332  0.0625 -3.8030
  332MOL0     H45776  -0.324   4.693  12.184  1.1264  1.7459  0.7917
  332MOL0     H45777  -0.456   4.786  12.108  1.2101  0.5825  0.1784
  332MOL0     H45778  -0.463   4.826  12.356  0.0896 -0.1699  0.2232
  332MOL0     H45779  -0.461   4.902  12.582 -0.2950 -0.1238  0.6115
  332MOL0     H45780  -0.684   4.683  12.869 -1.2445 -0.6063  0.0720
  332MOL0     H45781  -0.529   4.633  12.935  2.3474  3.6873  1.1371
  332MOL0     H45782  -0.471   4.858  13.008 -0.6561  4.0791  1.8545
  332MOL0     H45783  -0.631   4.920  12.959  0.2489  0.0676  2.4127
  332MOL0     H45784  -0.591   4.723  13.179  0.0145 -0.4249 -1.5631
  332MOL0     H45785  -0.742   4.751  13.109  0.9701 -1.4898  0.2528
  332MOL0     H45786  -0.717   5.008  13.151  1.1941  1.7957  1.7253
  332MOL0     H45787  -0.570   4.968  13.247  1.2511 -2.6052  1.0291
  332MOL0     H45788  -0.838   4.833  13.326  0.0532 -0.9314 -0.2475
  332MOL0     H45789  -0.688   4.817  13.400 -0.2306 -0.2773 -0.0685
  332MOL0     H45790  -0.678   5.082  13.407  0.0095 -0.8292 -0.5379
  332MOL0     H45791  -0.787   4.995  13.526 -0.7798  1.2277 -0.0125
  332MOL0     H45792  -0.983   5.058  13.451 -1.9740  1.7790 -0.9132
  332MOL0     H45793  -0.940   5.033  13.289 -0.7825  0.6831 -1.2957
  332MOL0     H45794  -1.000   5.256  13.311  0.2865  0.3102  0.8736
  332MOL0     H45795  -0.832   5.245  13.261 -0.9380 -0.4107 -1.7305
  332MOL0     H45796  -0.580   4.500  12.715 -0.0067 -0.2809 -0.2450
  332MOL0     H45797  -0.658   4.459  12.476 -0.0039 -0.1723 -2.0608
  332MOL0     H45798  -0.619   4.317  12.044 -0.6514 -0.9246 -2.1426
  332MOL0     H45799  -0.577   4.298  11.806 -0.9608  0.2895  1.3863
  332MOL0     H45800   1.181   5.085  11.201  3.4112  2.6988 -0.2039
  332MOL0     H45801   1.425   5.128  11.221  1.5328 -0.9293  2.1277
  332MOL0     H45802   1.808   5.046  11.360 -0.4198  1.8241 -0.1349
  332MOL0     H45803   2.052   5.106  11.366  0.6889  0.3392 -0.5211
  332MOL0     H45804   2.294   5.124  10.981 -1.2023 -1.4372  0.9296
  332MOL0     H45805   2.188   5.265  10.995 -0.2711 -0.1662  0.0436
  332MOL0     H45806   2.449   5.313  11.023  2.2049 -2.7489  0.9156
  332MOL0     H45807   2.443   5.221  11.166  3.4778  2.1802 -0.4692
  332MOL0     H45808   2.254   5.360  11.253  0.8694 -0.4260  1.1830
  332MOL0     H45809   2.392   5.464  11.245 -0.2768  0.8439 -0.5323
  332MOL0     H45810   2.174   5.461  11.046  0.0479 -0.6580  0.2763
  332MOL0     H45811   2.326   5.560  11.028  0.1936  1.5913  0.6909
  332MOL0     H45812   2.053   5.774  11.276  2.5826  0.6683  0.9866
  332MOL0     H45813   2.077   5.038  10.952  1.7646  0.5283  1.8014
  332MOL0     H45814   1.887   4.835  10.907 -0.2373 -0.0666 -0.8336
  332MOL0     H45815   1.760   4.936  10.860 -0.7356 -1.4608  0.2166
  332MOL0     H45816   1.918   4.991  10.819  3.1466 -0.2134  1.9472
  333MOL0     O45817  11.024   0.082   0.348  0.6520 -0.2850  0.1477
  333MOL0     C45818  10.911   0.138   0.322 -0.2493  0.5848 -0.7003
  333MOL0     O45819  10.790   0.087   0.357  0.0899  0.8285  0.7100
  333MOL0     C45820  10.786  -0.059   0.367 -0.8259 -0.7626  0.4700
  333MOL0     C45821  10.832  -0.135   0.266  0.4005 -0.5111  0.6471
  333MOL0     C45822  10.812  -0.274   0.266 -0.6858  0.8511  0.0088
  333MOL0     C45823  10.731  -0.337   0.364  0.5291  0.5753  0.1294
  333MOL0     O45824  10.704  -0.471   0.370 -0.6675  0.3467 -0.9905
  333MOL0     C45825  10.730  -0.555   0.487 -0.1858 -1.4101 -0.2843
  333MOL0     C45826  10.615  -0.656   0.507  0.2551 -0.2365  0.5718
  333MOL0     C45827  10.591  -0.750   0.384  0.2738  0.0375  0.1221
  333MOL0     C45828  10.684  -0.872   0.372 -0.4142  0.8586  0.1420
  333MOL0     C45829  10.677  -0.931   0.239 -0.0323  0.4352  0.1209
  333MOL0     C45830  10.549  -0.992   0.180  0.1985 -0.5674  0.4074
  333MOL0     C45831  10.553  -1.015   0.026 -0.2163 -0.1658  0.1084
  333MOL0     C45832  10.418  -1.017  -0.037  0.6990 -0.2898 -0.1632
  333MOL0     N45833  10.423  -1.074  -0.172  0.9063  0.0017  0.4384
  333MOL0     C45834  10.408  -1.004  -0.289 -0.7223  0.3074 -0.1010
  333MOL0     C45835  10.449  -1.076  -0.394 -0.1189  0.3077 -0.6765
  333MOL0     C45836  10.473  -1.034  -0.538  0.1688  0.1021  0.4053
  333MOL0     C45837  10.604  -0.949  -0.557  0.7212  0.7895 -0.6550
  333MOL0     C45838  10.677  -0.977  -0.690  0.7606 -0.8679  0.3805
  333MOL0     C45839  10.800  -1.064  -0.693  0.0919  0.9549 -0.0330
  333MOL0     O45840  10.847  -1.065  -0.828  0.1919  0.1340 -0.5299
  333MOL0     C45841  10.976  -1.054  -0.854 -0.7809 -0.2468  0.0793
  333MOL0     C45842  11.080  -1.096  -0.757  0.1674 -0.2399  0.3630
  333MOL0     C45843  11.214  -1.109  -0.804 -0.2198 -0.3678  0.2906
  333MOL0     C45844  11.310  -1.184  -0.709 -0.0430 -0.0160 -0.1627
  333MOL0     C45845  11.246  -1.057  -0.937 -0.1635 -0.0390  0.1459
  333MOL0     C45846  11.373  -1.093  -1.006  0.0472  0.1918  1.1377
  333MOL0     O45847  11.413  -1.017  -1.110  0.3908 -0.6927 -0.7228
  333MOL0     C45848  11.539  -1.042  -1.145 -0.2153 -0.5048  0.1491
  333MOL0     C45849  11.565  -1.147  -1.235  0.6218  0.8627  0.0823
  333MOL0     C45850  11.701  -1.156  -1.284  0.2597 -0.1015 -0.7867
  333MOL0     C45851  11.797  -1.065  -1.256  0.3020 -0.8293  1.2171
  333MOL0     O45852  11.935  -1.081  -1.297  0.8621 -0.1900  0.2024
  333MOL0     C45853  11.951  -1.129  -1.435  0.0726  0.2433  0.3961
  333MOL0     C45854  12.104  -1.153  -1.466  0.1495 -0.2407 -0.5042
  333MOL0     C45855  12.188  -1.020  -1.477  0.8757 -0.9413 -0.0208
  333MOL0     C45856  12.340  -1.046  -1.487  0.6860 -0.6965 -0.0872
  333MOL0     C45857  12.426  -0.921  -1.524 -0.1799  0.3085  0.4425
  333MOL0     C45858  12.371  -0.792  -1.453 -0.3379 -0.6453  0.6157
  333MOL0     C45859  12.495  -0.707  -1.431 -0.6840 -0.2691 -1.5449
  333MOL0     C45860  12.471  -0.595  -1.330  0.3448 -0.3571 -0.8651
  333MOL0    Cl45861  12.468  -0.641  -1.155 -0.4146 -0.3001  0.4577
  333MOL0     C45862  11.768  -0.970  -1.159  0.1559  0.0216 -0.5255
  333MOL0     C45863  11.640  -0.956  -1.100  0.5771  0.3301 -0.8519
  333MOL0     O45864  11.433  -1.198  -0.972 -0.4235  0.7389 -0.1835
  333MOL0     C45865  11.145  -0.990  -1.010 -0.3367 -0.0938 -0.3086
  333MOL0     C45866  11.008  -1.007  -0.977 -0.0667 -0.0218  0.4944
  333MOL0     N45867  10.508  -1.198  -0.345  1.0005  0.1204 -0.2360
  333MOL0     N45868  10.485  -1.193  -0.214 -0.4286 -0.2990  0.3434
  333MOL0     C45869  10.687  -0.258   0.466  0.4342  0.5254 -0.7161
  333MOL0     C45870  10.712  -0.118   0.467 -0.2720  0.0336 -0.7228
  333MOL0     C45871  10.919   0.271   0.258 -0.9559 -0.8449 -0.4697
  333MOL0     C45872  10.951   0.376   0.346 -0.4269 -0.5043  0.8784
  333MOL0     C45873  10.968   0.503   0.292  0.2912  0.5450  0.7418
  333MOL0     C45874  10.933   0.527   0.158 -1.0088 -0.1290  0.3789
  333MOL0     O45875  10.948   0.656   0.107 -0.8257 -0.1943  0.4445
  333MOL0     C45876  11.069   0.683   0.036  0.4677  0.5241 -0.1319
  333MOL0     C45877  11.085   0.831   0.005  0.5453 -0.1230 -0.2501
  333MOL0     C45878  11.201   0.863  -0.082  0.2803  0.4287  0.3699
  333MOL0     C45879  11.186   0.856  -0.233  0.2063 -0.0107  0.2689
  333MOL0     C45880  11.112   0.969  -0.283 -0.2343  0.8790  0.4854
  333MOL0     C45881  11.071   1.076  -0.317  0.7818 -0.4958 -0.3928
  333MOL0     C45882  10.894   0.419   0.074 -0.4064  0.9093 -0.1238
  333MOL0     C45883  10.886   0.296   0.126  1.0441 -0.7932 -0.2735
  333MOL0     C45884  10.858   0.184   0.025  0.4083  0.2725 -0.4284
  333MOL0     H45885  10.899  -0.090   0.194 -1.0297  3.4606  1.5664
  333MOL0     H45886  10.855  -0.339   0.190 -2.4979 -1.3499  0.7319
  333MOL0     H45887  10.738  -0.483   0.569  1.6821 -0.8776 -0.8899
  333MOL0     H45888  10.826  -0.607   0.477  0.9520  0.1153  1.7320
  333MOL0     H45889  10.640  -0.720   0.592 -1.7457 -1.9515 -0.0385
  333MOL0     H45890  10.521  -0.605   0.531  0.4819 -0.0393  1.0369
  333MOL0     H45891  10.488  -0.786   0.385 -0.0949  1.0580  0.1374
  333MOL0     H45892  10.616  -0.693   0.294  1.3619 -0.5042  0.0658
  333MOL0     H45893  10.788  -0.840   0.388  0.3804  1.0711 -4.0697
  333MOL0     H45894  10.659  -0.940   0.453 -1.3165  0.4380 -0.4756
  333MOL0     H45895  10.754  -1.008   0.238  0.4750  0.9300 -0.8077
  333MOL0     H45896  10.710  -0.860   0.162  3.5081 -2.3763 -1.2430
  333MOL0     H45897  10.536  -1.093   0.219  0.7824 -2.4239 -3.6315
  333MOL0     H45898  10.469  -0.925   0.213  0.6393 -0.2399  0.8300
  333MOL0     H45899  10.614  -1.102   0.000 -0.3800 -0.1814 -0.2277
  333MOL0     H45900  10.592  -0.922  -0.017 -1.4548  0.1183 -0.4309
  333MOL0     H45901  10.360  -1.079   0.032  2.2504 -1.8484 -0.1859
  333MOL0     H45902  10.375  -0.917  -0.043  1.0069 -0.0362  1.3951
  333MOL0     H45903  10.385  -0.898  -0.293 -2.0100  0.1190  1.2111
  333MOL0     H45904  10.389  -0.971  -0.571 -1.3162 -1.1433  1.6329
  333MOL0     H45905  10.473  -1.129  -0.592  3.8948  0.5267 -0.5561
  333MOL0     H45906  10.571  -0.845  -0.566 -0.3484  0.4596 -0.6687
  333MOL0     H45907  10.667  -0.970  -0.469 -0.0587 -2.1572 -0.6972
  333MOL0     H45908  10.604  -1.022  -0.759  1.7100  0.0590 -1.2891
  333MOL0     H45909  10.715  -0.879  -0.719  2.0550 -0.5740  2.7982
  333MOL0     H45910  10.869  -1.010  -0.628 -0.9772 -0.5164  2.4408
  333MOL0     H45911  10.783  -1.163  -0.649 -3.5858  2.2212  1.8388
  333MOL0     H45912  11.048  -1.119  -0.656 -0.2962  0.9467  0.5007
  333MOL0     H45913  11.393  -1.117  -0.686  0.3378 -1.0074  1.4700
  333MOL0     H45914  11.350  -1.278  -0.749  0.8811 -0.0819  0.8770
  333MOL0     H45915  11.266  -1.217  -0.615 -0.6056  0.2030 -0.3479
  333MOL0     H45916  11.489  -1.212  -1.276  3.4583 -1.9953 -1.0599
  333MOL0     H45917  11.737  -1.244  -1.336  1.4721 -0.8858  1.2498
  333MOL0     H45918  11.911  -1.229  -1.452  4.1382 -1.2903 -1.6158
  333MOL0     H45919  11.915  -1.060  -1.513 -3.2064 -0.6754  0.9489
  333MOL0     H45920  12.146  -1.219  -1.389  2.1234  0.8888 -0.5349
  333MOL0     H45921  12.110  -1.212  -1.557  0.1027 -1.6424  0.3631
  333MOL0     H45922  12.170  -0.947  -1.398  1.8129 -1.1012  0.3535
  333MOL0     H45923  12.156  -0.957  -1.561 -0.0706  0.0587  1.0523
  333MOL0     H45924  12.369  -1.139  -1.536  3.4011  1.5429 -3.1081
  333MOL0     H45925  12.365  -1.053  -1.380  0.9583  1.9925  0.1159
  333MOL0     H45926  12.532  -0.947  -1.521  0.0891  0.3832 -3.1810
  333MOL0     H45927  12.402  -0.917  -1.631  0.1208 -3.4118  0.1015
  333MOL0     H45928  12.325  -0.810  -1.355  0.1107  0.6062  1.0703
  333MOL0     H45929  12.299  -0.740  -1.517  0.8421  0.0394 -0.1725
  333MOL0     H45930  12.517  -0.660  -1.527  2.8593  1.0276 -0.2715
  333MOL0     H45931  12.588  -0.760  -1.407 -1.7585 -1.4457  0.2233
  333MOL0     H45932  12.378  -0.543  -1.354  0.8266  0.1358 -1.7239
  333MOL0     H45933  12.559  -0.531  -1.334 -0.7283  1.4781  1.7688
  333MOL0     H45934  11.846  -0.900  -1.131 -0.9644  1.1074 -0.0531
  333MOL0     H45935  11.607  -0.891  -1.021  2.0508 -2.7162  2.5643
  333MOL0     H45936  11.170  -0.935  -1.100 -1.9778 -2.0973 -2.1292
  333MOL0     H45937  10.928  -0.973  -1.042 -0.6420 -1.3539  0.4625
  333MOL0     H45938  10.625  -0.290   0.548  1.6381  4.0207  1.8089
  333MOL0     H45939  10.667  -0.051   0.540  1.2899 -0.9897  1.3084
  333MOL0     H45940  10.977   0.356   0.450 -0.6367 -0.8212  0.8695
  333MOL0     H45941  10.990   0.589   0.355  2.1230 -0.0294  0.9441
  333MOL0     H45942  11.151   0.638   0.092  1.7746 -2.7190 -4.1283
  333MOL0     H45943  11.082   0.618  -0.052 -0.0517 -1.3207  1.0992
  333MOL0     H45944  11.100   0.889   0.096  0.0607  0.0592 -0.2813
  333MOL0     H45945  10.996   0.868  -0.047  0.1940 -2.0800 -1.1099
  333MOL0     H45946  11.219   0.970  -0.071 -0.7254  0.8456 -1.7464
  333MOL0     H45947  11.290   0.810  -0.046  0.0453 -0.6197 -0.5390
  333MOL0     H45948  11.129   0.768  -0.263 -0.9990  0.6728  0.4864
  333MOL0     H45949  11.284   0.841  -0.280 -0.3121 -0.7404 -0.6151
  333MOL0     H45950  11.025   1.162  -0.361 -0.0328 -0.8905 -0.3434
  333MOL0     H45951  10.870   0.449  -0.028 -1.1112  4.2524  0.8994
  333MOL0     H45952  10.913   0.094   0.053  3.0493  1.3573 -1.7630
  333MOL0     H45953  10.751   0.174   0.045 -0.9191  3.3805 -4.5348
  333MOL0     H45954  10.876   0.210  -0.079 -1.5997  1.1216 -0.6201
  334MOL0     O45955  10.834   5.030   4.350  0.5737  0.7219  0.8106
  334MOL0     C45956  10.820   5.147   4.333 -0.9127  0.3562  0.7490
  334MOL0     O45957  10.928   5.233   4.342  0.1046 -0.3249  0.3761
  334MOL0     C45958  11.045   5.166   4.378  0.4699 -0.2315 -0.1494
  334MOL0     C45959  11.078   5.081   4.491 -0.0602 -0.2513  0.2521
  334MOL0     C45960  11.204   5.037   4.503 -0.1185  0.3386 -0.5040
  334MOL0     C45961  11.303   5.063   4.411  1.1985  0.1689  1.1284
  334MOL0     O45962  11.425   5.008   4.428 -0.0049  0.3480 -0.1048
  334MOL0     C45963  11.548   5.079   4.384  0.2433  0.2270  0.1453
  334MOL0     C45964  11.668   5.037   4.468 -0.5320  0.2237 -0.0760
  334MOL0     C45965  11.666   5.103   4.605  0.8218  1.2353  0.7212
  334MOL0     C45966  11.797   5.066   4.680  0.9811 -0.4201  1.3514
  334MOL0     C45967  11.835   5.170   4.784 -0.4351 -0.3052 -0.4507
  334MOL0     C45968  11.969   5.140   4.854 -0.2640 -0.1123  0.8794
  334MOL0     C45969  12.086   5.163   4.769 -0.1808  0.0140 -0.0499
  334MOL0     C45970  12.215   5.169   4.841 -0.1263 -0.1753 -0.8976
  334MOL0     N45971  12.266   5.043   4.892  0.0605  0.7171  0.1335
  334MOL0     C45972  12.212   4.989   5.004 -0.1037 -0.0655  0.0955
  334MOL0     C45973  12.297   4.883   5.026 -0.1919 -0.1451 -0.1708
  334MOL0     C45974  12.289   4.785   5.136  0.0359  0.2842  0.9176
  334MOL0     C45975  12.231   4.858   5.268  0.4704 -0.1535  0.1296
  334MOL0     C45976  12.252   4.769   5.387 -0.1174 -0.7274  0.9324
  334MOL0     C45977  12.149   4.814   5.504 -0.1356  0.0389  0.7575
  334MOL0     O45978  12.172   4.942   5.568 -0.6009 -0.3503  0.0760
  334MOL0     C45979  12.104   5.056   5.535  0.6021  0.3741 -0.3335
  334MOL0     C45980  11.983   5.056   5.466 -0.3021 -0.0621  1.2058
  334MOL0     C45981  11.923   5.173   5.419 -0.5502  0.0323  0.0572
  334MOL0     C45982  11.805   5.157   5.327  0.1669 -0.3445  0.0861
  334MOL0     C45983  11.975   5.302   5.459 -0.0021  0.4396 -0.6596
  334MOL0     C45984  11.924   5.430   5.408  0.5749 -0.9526 -0.6067
  334MOL0     O45985  12.017   5.541   5.395  0.1369 -0.0803 -0.5714
  334MOL0     C45986  11.965   5.658   5.338  0.3474 -0.2869 -0.1044
  334MOL0     C45987  11.999   5.705   5.208 -0.8017  0.1190  0.0322
  334MOL0     C45988  11.965   5.828   5.154 -0.5966 -0.8711  0.1954
  334MOL0     C45989  11.888   5.907   5.235 -0.5051  0.1416  0.7780
  334MOL0     O45990  11.820   6.015   5.176 -0.8895 -0.2712 -0.6240
  334MOL0     C45991  11.881   6.141   5.204  0.0199 -0.4753 -0.8367
  334MOL0     C45992  11.762   6.240   5.207 -0.2880 -0.5673 -0.5939
  334MOL0     C45993  11.740   6.301   5.066  0.0264 -0.3861 -0.8593
  334MOL0     C45994  11.687   6.213   4.965  0.6285 -0.5997 -0.2325
  334MOL0     C45995  11.635   6.296   4.837 -0.5322  0.2415 -0.1441
  334MOL0     C45996  11.512   6.386   4.872  1.0466  0.7432 -0.1236
  334MOL0     C45997  11.471   6.481   4.767  0.2919  0.4356  0.1697
  334MOL0     C45998  11.329   6.515   4.751  0.0981  0.1817 -0.3626
  334MOL0    Cl45999  11.324   6.640   4.622  0.0653 -0.1160  0.0668
  334MOL0     C46000  11.850   5.869   5.370  0.6730  0.0714 -0.4281
  334MOL0     C46001  11.891   5.744   5.417  0.1036 -0.0431 -0.2162
  334MOL0     O46002  11.806   5.446   5.389 -0.7860  0.2310  0.6138
  334MOL0     C46003  12.093   5.297   5.531 -0.2322 -0.9383 -0.5304
  334MOL0     C46004  12.154   5.180   5.561 -0.2376  0.3329 -0.5720
  334MOL0     N46005  12.372   4.864   4.910  0.5029  0.4409  0.0089
  334MOL0     N46006  12.340   4.953   4.828  0.1175 -0.8500  0.0550
  334MOL0     C46007  11.281   5.138   4.293 -0.3781 -0.2420  0.5244
  334MOL0     C46008  11.156   5.202   4.285 -0.1252 -0.5964 -0.2446
  334MOL0     C46009  10.692   5.209   4.283  0.7229 -0.4918  0.0523
  334MOL0     C46010  10.681   5.339   4.330 -0.4573 -0.4167  0.7710
  334MOL0     C46011  10.575   5.422   4.280  0.3687  0.9085 -0.0071
  334MOL0     C46012  10.476   5.368   4.196  0.2682 -0.1153 -0.4796
  334MOL0     O46013  10.381   5.452   4.137  0.2631  0.0809  0.5714
  334MOL0     C46014  10.411   5.506   4.005  1.0334 -0.8509  0.7270
  334MOL0     C46015  10.303   5.607   3.966  0.6112 -0.5638  0.2556
  334MOL0     C46016  10.328   5.751   4.026 -0.0486  0.0956 -0.2717
  334MOL0     C46017  10.443   5.837   3.958 -0.1761  0.7879  0.3825
  334MOL0     C46018  10.544   5.877   4.052  0.1151  0.2362 -0.7613
  334MOL0     C46019  10.648   5.912   4.118 -0.1230  0.3887 -0.0462
  334MOL0     C46020  10.485   5.237   4.163  0.2229  1.2610  0.1254
  334MOL0     C46021  10.582   5.150   4.209 -0.5261 -1.1715  1.3832
  334MOL0     C46022  10.594   5.012   4.146  0.3828  0.5422  0.3497
  334MOL0     H46023  10.999   5.061   4.563 -1.2841  1.3898 -0.5509
  334MOL0     H46024  11.232   4.985   4.594  0.0799 -0.4842 -1.0271
  334MOL0     H46025  11.528   5.186   4.394 -1.1094  0.0276 -0.2970
  334MOL0     H46026  11.574   5.044   4.283  1.3611 -1.3877  0.9450
  334MOL0     H46027  11.666   4.929   4.483 -1.6038  0.0889 -1.0403
  334MOL0     H46028  11.766   5.049   4.422 -0.0018 -0.0556  0.9406
  334MOL0     H46029  11.662   5.209   4.575  0.8653  0.3755 -2.7710
  334MOL0     H46030  11.584   5.070   4.669  2.3938  2.5229  3.5819
  334MOL0     H46031  11.784   4.969   4.729  1.6000 -0.2757  1.8126
  334MOL0     H46032  11.882   5.056   4.612 -1.7250 -1.2897 -2.2227
  334MOL0     H46033  11.747   5.171   4.849 -1.0267 -1.8204 -1.1941
  334MOL0     H46034  11.839   5.266   4.731 -0.3583 -1.0771 -1.9067
  334MOL0     H46035  11.975   5.188   4.952 -1.1861 -2.1436  1.9960
  334MOL0     H46036  11.974   5.034   4.880 -0.4990 -0.6949 -1.2864
  334MOL0     H46037  12.057   5.254   4.717 -0.8782 -0.3868 -0.3656
  334MOL0     H46038  12.093   5.090   4.688  1.1704 -2.0419  1.7925
  334MOL0     H46039  12.288   5.215   4.773 -0.6923 -1.0246 -2.1236
  334MOL0     H46040  12.207   5.244   4.920  1.4131 -0.0575 -0.8321
  334MOL0     H46041  12.117   5.013   5.049  0.0448 -0.4175  0.6149
  334MOL0     H46042  12.385   4.739   5.159 -0.1795  0.4612  2.2679
  334MOL0     H46043  12.222   4.705   5.102  0.6051 -0.4621  1.5162
  334MOL0     H46044  12.278   4.956   5.285  0.6098  0.2181 -2.1244
  334MOL0     H46045  12.123   4.872   5.265  0.6448  1.4561  0.3192
  334MOL0     H46046  12.221   4.668   5.358  0.5991 -1.2519  1.9474
  334MOL0     H46047  12.352   4.762   5.430  0.9215 -1.8846 -1.4932
  334MOL0     H46048  12.044   4.791   5.486  1.0322 -3.0076 -4.1247
  334MOL0     H46049  12.175   4.753   5.591  0.5797  0.8863  1.1581
  334MOL0     H46050  11.943   4.957   5.448  0.2385 -0.8199  3.7790
  334MOL0     H46051  11.818   5.215   5.235 -1.6600  2.7079  1.5916
  334MOL0     H46052  11.718   5.205   5.372 -1.9779 -0.9360 -3.0581
  334MOL0     H46053  11.775   5.054   5.309 -2.5543  0.6189 -1.5099
  334MOL0     H46054  12.055   5.637   5.145 -0.6846 -1.8796  2.1446
  334MOL0     H46055  11.982   5.842   5.048 -1.1529 -2.1389 -0.0863
  334MOL0     H46056  11.932   6.137   5.300  1.3164  1.0063 -1.4262
  334MOL0     H46057  11.946   6.181   5.126 -2.1171  1.4840 -1.7259
  334MOL0     H46058  11.666   6.215   5.252  0.7180 -0.8258  1.5829
  334MOL0     H46059  11.810   6.322   5.262  0.0175  0.5550 -2.4501
  334MOL0     H46060  11.830   6.358   5.040  0.3068  1.5799  3.5547
  334MOL0     H46061  11.666   6.379   5.087  0.0490 -0.0054 -2.0771
  334MOL0     H46062  11.601   6.164   5.012 -0.4165  2.2387  1.0473
  334MOL0     H46063  11.748   6.129   4.932  0.0133 -1.1729  0.0462
  334MOL0     H46064  11.708   6.360   4.787  0.2555 -0.4994  0.0294
  334MOL0     H46065  11.601   6.227   4.759 -1.1955  0.5116 -0.1058
  334MOL0     H46066  11.512   6.437   4.969  0.5535 -0.1483  0.3662
  334MOL0     H46067  11.428   6.316   4.877 -0.5058  2.2249 -3.1476
  334MOL0     H46068  11.509   6.459   4.667 -0.6786  4.3776 -1.2276
  334MOL0     H46069  11.513   6.577   4.798 -4.6697  2.7554  0.6436
  334MOL0     H46070  11.297   6.558   4.847  0.2639  0.1730 -0.3037
  334MOL0     H46071  11.273   6.424   4.728 -1.6384  0.5662  1.9573
  334MOL0     H46072  11.783   5.929   5.431  3.3876  2.7616  0.1829
  334MOL0     H46073  11.868   5.698   5.513 -1.4613 -2.0716 -1.4805
  334MOL0     H46074  12.128   5.391   5.571 -2.5256 -1.8485  4.4028
  334MOL0     H46075  12.243   5.186   5.623  0.2926  0.0922 -1.3017
  334MOL0     H46076  11.361   5.148   4.221  0.6298 -1.6785  1.3875
  334MOL0     H46077  11.136   5.268   4.200  2.9442  0.8907  0.0698
  334MOL0     H46078  10.752   5.396   4.389 -1.2988 -0.2005  1.6082
  334MOL0     H46079  10.582   5.530   4.291  2.3664  1.0104 -1.6658
  334MOL0     H46080  10.510   5.553   3.999 -0.0092  1.3772  0.0386
  334MOL0     H46081  10.418   5.425   3.931  1.2913  0.7711 -1.0967
  334MOL0     H46082  10.199   5.572   3.969  1.0824 -3.3656 -4.8287
  334MOL0     H46083  10.321   5.631   3.860 -0.7066 -0.2567  0.0802
  334MOL0     H46084  10.240   5.816   4.028  1.5023  2.3660 -1.1387
  334MOL0     H46085  10.348   5.744   4.133  1.0037  0.0928 -0.4623
  334MOL0     H46086  10.397   5.920   3.903  0.6299 -0.7612 -2.8317
  334MOL0     H46087  10.489   5.782   3.875 -1.4823  0.4188 -0.1211
  334MOL0     H46088  10.753   5.929   4.129  0.9723 -3.3107 -2.8908
  334MOL0     H46089  10.407   5.200   4.097  1.5898 -0.3429 -0.6751
  334MOL0     H46090  10.496   4.972   4.119  0.7706  0.2086 -0.6052
  334MOL0     H46091  10.651   5.014   4.052 -0.7483  0.2622 -0.3703
  334MOL0     H46092  10.629   4.940   4.220  0.0555  1.3964  1.3518
  335MOL0     O46093   2.203   3.545   8.646  0.8212 -0.6560 -0.7804
  335MOL0     C46094   2.081   3.564   8.641 -0.2363 -0.0943  0.4724
  335MOL0     O46095   1.981   3.511   8.732 -0.8215  0.5536 -0.6475
  335MOL0     C46096   2.019   3.460   8.854  0.2142 -0.5031 -1.0800
  335MOL0     C46097   1.931   3.477   8.948  0.3365 -0.3481  0.1507
  335MOL0     C46098   1.951   3.422   9.073  0.9656 -0.0919 -0.6511
  335MOL0     C46099   2.055   3.339   9.105  0.5823  0.2004  0.2921
  335MOL0     O46100   2.053   3.288   9.229  0.0842 -0.0747 -0.0664
  335MOL0     C46101   2.125   3.167   9.246 -0.8747  0.5351  0.1618
  335MOL0     C46102   2.079   3.085   9.367 -0.7452  0.4279  0.2589
  335MOL0     C46103   2.131   3.104   9.505  0.0777  0.1661  0.0481
  335MOL0     C46104   2.282   3.086   9.527 -1.1285 -0.0485 -1.1155
  335MOL0     C46105   2.323   3.070   9.675  0.5988 -0.9418 -0.0808
  335MOL0     C46106   2.476   3.050   9.678  0.5793  1.2496 -0.2121
  335MOL0     C46107   2.548   3.173   9.650  0.6713 -0.0957 -0.0143
  335MOL0     C46108   2.705   3.159   9.660  0.9870  0.3689  0.6108
  335MOL0     N46109   2.751   3.065   9.559 -0.1863 -0.4986  0.7012
  335MOL0     C46110   2.728   3.068   9.425  0.1507  0.7429 -0.4133
  335MOL0     C46111   2.786   2.955   9.380  1.0092 -0.3702  0.0194
  335MOL0     C46112   2.805   2.918   9.235  0.2059 -1.2206  0.1302
  335MOL0     C46113   2.895   3.022   9.164  0.4002  0.6320 -0.2686
  335MOL0     C46114   3.040   3.023   9.197  0.1638 -0.2560  0.2741
  335MOL0     C46115   3.124   3.135   9.130 -0.6916 -0.0302  0.6779
  335MOL0     O46116   3.111   3.258   9.208 -0.1533  0.4017 -0.0725
  335MOL0     C46117   3.084   3.377   9.153  0.2562  0.3039  0.4949
  335MOL0     C46118   3.114   3.406   9.016  0.4168 -0.2206 -0.1846
  335MOL0     C46119   3.073   3.530   8.962  0.2220  0.3338  0.0255
  335MOL0     C46120   3.114   3.561   8.817  0.8580  0.6311 -0.8345
  335MOL0     C46121   2.982   3.615   9.038 -0.3303  0.0612 -1.0151
  335MOL0     C46122   2.918   3.744   8.991 -0.7509  0.2434  1.2676
  335MOL0     O46123   2.938   3.783   8.862  0.5030 -1.1278 -0.0784
  335MOL0     C46124   2.874   3.902   8.819 -0.2232 -0.0134 -0.0321
  335MOL0     C46125   2.737   3.939   8.847  0.5943  0.3686  0.2358
  335MOL0     C46126   2.672   4.046   8.794 -0.0233 -0.3059  0.9490
  335MOL0     C46127   2.745   4.133   8.705  0.3950  0.9872 -0.0640
  335MOL0     O46128   2.675   4.242   8.643  0.0982  0.5128  0.0539
  335MOL0     C46129   2.726   4.372   8.655 -0.0162 -0.4736  0.7195
  335MOL0     C46130   2.611   4.455   8.586 -0.3113 -0.5126  0.2549
  335MOL0     C46131   2.617   4.604   8.619  0.2658  0.3091  0.1427
  335MOL0     C46132   2.754   4.674   8.594  0.1338  0.8614 -0.0602
  335MOL0     C46133   2.765   4.825   8.614 -0.3002 -0.2875  0.3511
  335MOL0     C46134   2.696   4.898   8.509  0.1442  0.1303  1.2958
  335MOL0     C46135   2.678   5.049   8.536 -0.1389  0.9798 -0.2833
  335MOL0     C46136   2.799   5.121   8.603 -0.6501  0.6183  0.3163
  335MOL0    Cl46137   2.760   5.302   8.612 -0.0274 -0.2368  0.0953
  335MOL0     C46138   2.880   4.102   8.682 -0.4534 -0.2625  0.0304
  335MOL0     C46139   2.944   3.996   8.738  0.4104  1.8879 -0.3386
  335MOL0     O46140   2.868   3.811   9.082 -0.8335  0.1572  0.3095
  335MOL0     C46141   2.955   3.579   9.168 -0.1796  0.1426 -0.3975
  335MOL0     C46142   3.004   3.457   9.221  0.4963  0.6514  0.1864
  335MOL0     N46143   2.835   2.882   9.491 -1.0971 -0.0395 -0.0587
  335MOL0     N46144   2.808   2.948   9.592 -0.3253  0.3269 -0.0923
  335MOL0     C46145   2.143   3.304   8.999 -0.4826 -0.6351 -0.9904
  335MOL0     C46146   2.132   3.371   8.878  0.2186  0.4848 -0.7114
  335MOL0     C46147   2.036   3.673   8.554 -0.4923 -0.1531 -0.5117
  335MOL0     C46148   1.941   3.764   8.604  0.4021 -0.0428  0.9004
  335MOL0     C46149   1.893   3.875   8.535 -0.0164  0.6168  0.0885
  335MOL0     C46150   1.959   3.914   8.421 -0.4962 -0.0795  0.9468
  335MOL0     O46151   1.928   4.020   8.340  0.3619 -0.2194 -0.0634
  335MOL0     C46152   1.915   4.145   8.409 -0.4117  0.2637 -0.3106
  335MOL0     C46153   1.772   4.182   8.390  0.1696  0.7589 -0.5056
  335MOL0     C46154   1.737   4.318   8.456  0.6045 -0.1038  0.3228
  335MOL0     C46155   1.718   4.314   8.607 -0.4504 -0.3662 -0.9910
  335MOL0     C46156   1.627   4.211   8.649  0.0923  0.5449 -0.0182
  335MOL0     C46157   1.548   4.119   8.688 -0.5158  0.4386 -0.2050
  335MOL0     C46158   2.057   3.829   8.364  0.4888  0.2466  0.2212
  335MOL0     C46159   2.095   3.705   8.432  0.8134 -0.1795 -0.8296
  335MOL0     C46160   2.181   3.615   8.345 -0.0769 -0.1354 -0.5171
  335MOL0     H46161   1.835   3.518   8.921 -0.7170 -2.4114  0.5432
  335MOL0     H46162   1.867   3.439   9.140  0.6285  3.4844 -1.7602
  335MOL0     H46163   2.232   3.189   9.251 -0.5645 -0.6475 -0.6948
  335MOL0     H46164   2.107   3.105   9.157  1.0161 -0.2743  0.2863
  335MOL0     H46165   1.970   3.093   9.369 -1.0415 -2.4374  3.0247
  335MOL0     H46166   2.111   2.985   9.334  0.2578  0.1618  1.9466
  335MOL0     H46167   2.117   3.211   9.522  3.1874  1.1188 -2.4358
  335MOL0     H46168   2.074   3.050   9.582 -1.7945 -0.2327 -1.5595
  335MOL0     H46169   2.320   3.000   9.470 -2.0917 -1.0141 -0.3527
  335MOL0     H46170   2.322   3.179   9.487 -2.3108  0.2894 -1.5792
  335MOL0     H46171   2.275   2.986   9.726 -0.5908  0.0521  0.4907
  335MOL0     H46172   2.287   3.162   9.722  0.4267  0.2646 -2.4092
  335MOL0     H46173   2.507   3.015   9.776  0.9242  1.9645 -0.0588
  335MOL0     H46174   2.503   2.978   9.600  0.9488 -0.8505  1.7625
  335MOL0     H46175   2.511   3.250   9.718 -2.2100  1.0698 -2.6996
  335MOL0     H46176   2.538   3.207   9.547  0.2403  3.1062  0.9823
  335MOL0     H46177   2.753   3.252   9.629 -2.8311  2.0874 -0.7232
  335MOL0     H46178   2.723   3.130   9.764  0.5748  0.5521  0.7361
  335MOL0     H46179   2.684   3.153   9.373 -3.8795  0.5563  2.1914
  335MOL0     H46180   2.710   2.896   9.187  0.2396 -2.3320  0.5442
  335MOL0     H46181   2.868   2.829   9.229  0.4573 -0.9637 -1.8036
  335MOL0     H46182   2.903   3.000   9.057  5.2540  1.4779 -0.3122
  335MOL0     H46183   2.848   3.121   9.171 -0.6188  0.1567 -0.2090
  335MOL0     H46184   3.063   3.014   9.303 -0.0179 -0.8656  0.2677
  335MOL0     H46185   3.094   2.931   9.173 -2.0597 -2.2040  2.1733
  335MOL0     H46186   3.228   3.101   9.143 -0.9097 -0.6440  0.8696
  335MOL0     H46187   3.106   3.150   9.024 -2.8834  0.7992  1.1116
  335MOL0     H46188   3.169   3.341   8.949  1.0951 -1.3420  1.3912
  335MOL0     H46189   3.040   3.513   8.751 -3.2976  1.8063  2.4871
  335MOL0     H46190   3.210   3.510   8.811 -0.9151 -3.3998  1.1072
  335MOL0     H46191   3.121   3.667   8.794 -0.6735  0.7868 -0.6871
  335MOL0     H46192   2.685   3.894   8.931  2.3261  3.0927  2.9991
  335MOL0     H46193   2.566   4.061   8.814 -0.5487 -1.7387 -0.4967
  335MOL0     H46194   2.735   4.396   8.761 -0.6273  0.6282  0.5357
  335MOL0     H46195   2.822   4.387   8.606 -0.9199 -0.5433 -1.1474
  335MOL0     H46196   2.606   4.456   8.476 -0.6106  0.9856  0.2548
  335MOL0     H46197   2.522   4.415   8.635 -0.8455 -0.9354 -1.0088
  335MOL0     H46198   2.593   4.624   8.724 -0.7940 -1.4704  0.2772
  335MOL0     H46199   2.540   4.656   8.561 -2.5028  0.6394  3.7994
  335MOL0     H46200   2.784   4.650   8.491  1.4215 -2.2756  0.9170
  335MOL0     H46201   2.832   4.622   8.649 -1.2145 -1.4653 -0.2028
  335MOL0     H46202   2.733   4.867   8.710  2.3819  4.9915 -0.6456
  335MOL0     H46203   2.872   4.847   8.604 -0.1608 -1.4007 -1.0177
  335MOL0     H46204   2.597   4.857   8.493  0.8711 -1.0596 -0.3652
  335MOL0     H46205   2.760   4.881   8.422  1.3824  1.6124  1.8665
  335MOL0     H46206   2.601   5.062   8.612  0.6318  2.3399  0.3213
  335MOL0     H46207   2.653   5.109   8.447  3.6909  2.0353 -0.8647
  335MOL0     H46208   2.890   5.108   8.543 -2.0845  1.1227 -2.0935
  335MOL0     H46209   2.828   5.084   8.702  5.6503 -0.2436 -1.4272
  335MOL0     H46210   2.937   4.151   8.604  1.6995  0.1030  1.7293
  335MOL0     H46211   3.047   3.963   8.727 -0.2466 -1.2648  1.6279
  335MOL0     H46212   2.895   3.644   9.231  0.7526  1.8960 -1.2651
  335MOL0     H46213   2.968   3.418   9.316 -0.0597 -2.7118 -1.2774
  335MOL0     H46214   2.227   3.238   9.021 -1.0056 -1.4792 -1.4542
  335MOL0     H46215   2.205   3.346   8.803  0.6865 -1.0402  0.2054
  335MOL0     H46216   1.912   3.748   8.708  0.9044 -2.4275  0.7411
  335MOL0     H46217   1.806   3.928   8.574 -2.0909 -2.8596  0.5933
  335MOL0     H46218   1.954   4.129   8.510  1.0518 -0.6812 -0.9835
  335MOL0     H46219   1.976   4.224   8.365 -0.3309 -0.2117 -1.0716
  335MOL0     H46220   1.707   4.097   8.411  1.5828 -0.8486 -2.3250
  335MOL0     H46221   1.755   4.197   8.283 -1.1712 -1.6026 -0.6815
  335MOL0     H46222   1.808   4.397   8.431 -1.7791  2.8500  2.1836
  335MOL0     H46223   1.640   4.347   8.413  0.4403  0.7700  1.2478
  335MOL0     H46224   1.666   4.404   8.641  0.3477 -0.4962  0.6596
  335MOL0     H46225   1.808   4.299   8.666 -1.9020 -3.0832  0.6848
  335MOL0     H46226   1.477   4.048   8.725 -0.7617  0.1554 -1.1991
  335MOL0     H46227   2.102   3.866   8.273 -1.0799 -0.7695 -1.0165
  335MOL0     H46228   2.151   3.638   8.243 -2.5096  3.7653  0.8536
  335MOL0     H46229   2.286   3.632   8.372 -0.6632  0.2848  1.7155
  335MOL0     H46230   2.163   3.513   8.380  1.2377 -1.2351 -2.8264
  336MOL0     O46231   1.091   3.459   1.463  0.2542 -0.6699 -0.1313
  336MOL0     C46232   1.125   3.345   1.488 -0.2052  0.2766  1.3043
  336MOL0     O46233   1.130   3.248   1.394 -0.0412  0.3796 -0.5387
  336MOL0     C46234   1.122   3.265   1.259  0.8815  0.1009 -0.8654
  336MOL0     C46235   1.234   3.307   1.187  0.6021  0.0724 -0.6484
  336MOL0     C46236   1.224   3.338   1.050 -0.8429 -0.3594 -0.9167
  336MOL0     C46237   1.100   3.326   0.985 -0.8014 -1.0463 -0.5620
  336MOL0     O46238   1.088   3.386   0.859 -0.0558 -0.4148 -0.1865
  336MOL0     C46239   1.141   3.525   0.845 -0.1214  0.5706 -0.2556
  336MOL0     C46240   1.247   3.512   0.750  0.2864 -0.5941  0.3710
  336MOL0     C46241   1.324   3.642   0.719  0.0615 -0.4897 -0.1120
  336MOL0     C46242   1.405   3.652   0.590 -0.0332  0.6028 -0.5346
  336MOL0     C46243   1.505   3.768   0.561 -0.0032 -0.4305  0.2415
  336MOL0     C46244   1.579   3.747   0.430  0.0256 -0.2424  1.1720
  336MOL0     C46245   1.695   3.649   0.443  1.4860  0.6050  0.5482
  336MOL0     C46246   1.718   3.570   0.314 -0.8914  0.5570 -0.5537
  336MOL0     N46247   1.847   3.493   0.302  0.8301 -0.7158  0.5821
  336MOL0     C46248   1.854   3.359   0.334 -0.0857  1.6834  0.1163
  336MOL0     C46249   1.981   3.320   0.310  0.6343 -0.1463 -0.1105
  336MOL0     C46250   2.034   3.180   0.331  0.9429  0.0059  0.4354
  336MOL0     C46251   2.098   3.158   0.471 -0.4218  0.1856  0.4493
  336MOL0     C46252   2.131   3.017   0.494  0.5105  0.7287 -0.2130
  336MOL0     C46253   2.278   2.964   0.453 -0.6113 -0.4201 -0.8431
  336MOL0     O46254   2.291   2.958   0.311 -0.6797 -0.4963 -0.1982
  336MOL0     C46255   2.318   2.846   0.248 -0.0043  0.3819  0.3181
  336MOL0     C46256   2.414   2.856   0.143 -0.5238  0.5118 -0.0103
  336MOL0     C46257   2.439   2.740   0.065 -0.2654  0.2591 -0.0315
  336MOL0     C46258   2.535   2.761  -0.054  0.6916  0.5127 -0.2672
  336MOL0     C46259   2.392   2.609   0.098  0.4519 -0.9181  0.5038
  336MOL0     C46260   2.416   2.494   0.020 -0.2071  0.2786  0.5054
  336MOL0     O46261   2.378   2.383   0.086 -0.1185  0.8774 -1.0152
  336MOL0     C46262   2.368   2.266   0.028 -1.4912  0.1535  0.9123
  336MOL0     C46263   2.485   2.215  -0.035  0.0305  0.0262  0.1265
  336MOL0     C46264   2.491   2.093  -0.100  0.0955  0.3895  0.4809
  336MOL0     C46265   2.372   2.012  -0.102 -0.4223  0.6033  0.0816
  336MOL0     O46266   2.366   1.895  -0.178 -0.4629 -0.4106 -0.4879
  336MOL0     C46267   2.456   1.866  -0.280 -0.4675  0.2584 -0.2997
  336MOL0     C46268   2.573   1.764  -0.240 -0.1298 -0.5885 -0.0409
  336MOL0     C46269   2.518   1.627  -0.197  0.3014  1.0995  0.7778
  336MOL0     C46270   2.619   1.529  -0.140  0.1292 -0.2931 -0.3684
  336MOL0     C46271   2.656   1.565   0.003  0.4160 -1.2461  0.1797
  336MOL0     C46272   2.615   1.472   0.117  0.4116  0.4018  0.0846
  336MOL0     C46273   2.467   1.441   0.135 -0.1983 -0.1091  0.6905
  336MOL0     C46274   2.434   1.349   0.250  0.1109  0.0775  0.3182
  336MOL0    Cl46275   2.533   1.202   0.244 -0.0318 -0.3591 -0.0668
  336MOL0     C46276   2.258   2.051  -0.032 -1.1803 -0.0076  0.5312
  336MOL0     C46277   2.260   2.179   0.034 -0.4447  0.4606  0.0663
  336MOL0     O46278   2.464   2.499  -0.095  0.3782  0.0670 -0.2490
  336MOL0     C46279   2.302   2.607   0.214  0.2259  0.6880  0.1388
  336MOL0     C46280   2.269   2.725   0.281 -0.1619  0.2864 -0.6872
  336MOL0     N46281   2.053   3.432   0.274  0.3708  0.2869  0.0792
  336MOL0     N46282   1.970   3.539   0.279 -0.7817 -0.5037  0.3651
  336MOL0     C46283   0.988   3.282   1.060  0.1269  0.0383 -0.1269
  336MOL0     C46284   0.999   3.244   1.195  0.2568 -0.4687 -0.4324
  336MOL0     C46285   1.196   3.311   1.613  0.0959 -0.8507  0.0697
  336MOL0     C46286   1.223   3.414   1.705 -0.0832 -0.4830 -0.1746
  336MOL0     C46287   1.296   3.394   1.821  1.1221 -1.3347 -0.2490
  336MOL0     C46288   1.337   3.270   1.850  0.1006  0.1259  0.7987
  336MOL0     O46289   1.385   3.233   1.968  0.5215 -0.3214 -0.9061
  336MOL0     C46290   1.495   3.307   2.007 -0.7072 -0.2120 -0.6420
  336MOL0     C46291   1.520   3.288   2.157 -0.1352 -0.0503  0.0595
  336MOL0     C46292   1.411   3.367   2.248  0.0660  0.5128 -0.3012
  336MOL0     C46293   1.459   3.408   2.385  0.5205 -0.2707 -0.1175
  336MOL0     C46294   1.588   3.477   2.390  0.4227  0.0503 -0.7216
  336MOL0     C46295   1.693   3.545   2.384 -0.4958 -0.1926 -0.7393
  336MOL0     C46296   1.299   3.166   1.766 -0.0190 -0.1644 -0.6673
  336MOL0     C46297   1.232   3.184   1.650  0.4156  0.6882 -0.3006
  336MOL0     C46298   1.223   3.056   1.572  0.4184 -0.0389  0.0174
  336MOL0     H46299   1.327   3.342   1.230 -0.1122  3.0743 -1.3013
  336MOL0     H46300   1.313   3.368   0.996 -0.3137 -1.3404 -0.6047
  336MOL0     H46301   1.173   3.562   0.943 -2.2023  4.3696 -0.8411
  336MOL0     H46302   1.074   3.599   0.800 -2.2495 -2.6509 -2.8958
  336MOL0     H46303   1.320   3.436   0.778  0.2586 -0.4045  0.9729
  336MOL0     H46304   1.197   3.477   0.659 -1.8269 -1.0674  1.6666
  336MOL0     H46305   1.248   3.722   0.721  0.4480 -0.1013  2.1917
  336MOL0     H46306   1.390   3.675   0.799 -2.4439  2.8733  0.8291
  336MOL0     H46307   1.459   3.561   0.617 -2.6225  0.1333  4.0184
  336MOL0     H46308   1.343   3.635   0.502  0.3497 -1.7120 -0.4211
  336MOL0     H46309   1.572   3.763   0.648 -1.4792  0.0638  1.4404
  336MOL0     H46310   1.444   3.859   0.560 -0.1874 -0.4841  2.3389
  336MOL0     H46311   1.517   3.703   0.351  0.1106 -1.8305  1.9385
  336MOL0     H46312   1.627   3.840   0.397 -1.7433  0.2445 -0.1919
  336MOL0     H46313   1.666   3.573   0.516 -0.7170 -1.8948 -2.6640
  336MOL0     H46314   1.789   3.693   0.479  2.7235 -1.5938  0.2202
  336MOL0     H46315   1.639   3.495   0.303 -1.3994  0.3096  3.3373
  336MOL0     H46316   1.708   3.644   0.234 -1.2297  1.0770 -0.0395
  336MOL0     H46317   1.766   3.300   0.357 -0.5190  1.5991 -1.6500
  336MOL0     H46318   2.102   3.155   0.249  2.3711  2.2717  0.8294
  336MOL0     H46319   1.949   3.112   0.331  0.3926  0.4813 -3.4701
  336MOL0     H46320   2.192   3.214   0.476 -0.3089  0.0193  0.2231
  336MOL0     H46321   2.028   3.211   0.536  0.5772  2.2286 -0.0473
  336MOL0     H46322   2.126   2.990   0.600 -2.1906 -1.6172 -0.7962
  336MOL0     H46323   2.046   2.956   0.461  0.2027  0.7844  0.4542
  336MOL0     H46324   2.345   3.043   0.490  0.8626 -3.1248  2.8747
  336MOL0     H46325   2.308   2.869   0.498 -1.5173 -1.1154 -1.6654
  336MOL0     H46326   2.462   2.954   0.142 -1.5612  1.2012  3.2156
  336MOL0     H46327   2.482   2.766  -0.150 -1.0468 -0.5333  0.6004
  336MOL0     H46328   2.613   2.685  -0.064 -0.0131 -0.0237 -2.3532
  336MOL0     H46329   2.592   2.852  -0.034  0.2734  0.6865  0.1471
  336MOL0     H46330   2.575   2.276  -0.038  0.8654 -1.1548  0.5283
  336MOL0     H46331   2.583   2.065  -0.151  0.6273 -0.7020  1.9643
  336MOL0     H46332   2.396   1.840  -0.367 -2.2036  5.6305 -1.1018
  336MOL0     H46333   2.502   1.961  -0.309  1.3492 -0.4626  0.0916
  336MOL0     H46334   2.644   1.753  -0.322 -0.5743 -0.8085 -0.4000
  336MOL0     H46335   2.628   1.807  -0.156  4.6646 -0.6189 -2.8240
  336MOL0     H46336   2.495   1.592  -0.299  0.8946 -0.6304  1.2100
  336MOL0     H46337   2.424   1.625  -0.140  0.0276 -1.8137  0.3310
  336MOL0     H46338   2.710   1.535  -0.201  0.4004  2.3952  0.1977
  336MOL0     H46339   2.576   1.429  -0.149 -1.2472  0.1740  0.7151
  336MOL0     H46340   2.764   1.586   0.002  0.1289  0.3158 -0.0517
  336MOL0     H46341   2.602   1.659   0.018 -0.3947 -1.0781 -3.0485
  336MOL0     H46342   2.666   1.502   0.209 -0.1788  0.9641  0.2314
  336MOL0     H46343   2.666   1.377   0.096 -0.1879 -0.0149  0.4762
  336MOL0     H46344   2.432   1.388   0.046  1.5650  4.3239 -3.0837
  336MOL0     H46345   2.412   1.535   0.151  0.4689  0.2746  0.7633
  336MOL0     H46346   2.327   1.324   0.257 -0.4210  2.2519  0.5711
  336MOL0     H46347   2.464   1.412   0.334  2.0351 -1.0103  0.5101
  336MOL0     H46348   2.181   1.977  -0.017  0.8806 -1.7349  3.7015
  336MOL0     H46349   2.180   2.195   0.106  0.8214  2.1407  1.1691
  336MOL0     H46350   2.238   2.520   0.230 -1.0994  1.1308 -2.2237
  336MOL0     H46351   2.187   2.724   0.352 -0.6110  0.0381 -1.2069
  336MOL0     H46352   0.889   3.272   1.017 -1.0652  1.6708  2.0865
  336MOL0     H46353   0.915   3.224   1.261 -1.4383  0.9487 -2.0457
  336MOL0     H46354   1.189   3.513   1.677 -1.2287 -1.3093 -1.8977
  336MOL0     H46355   1.311   3.486   1.876  0.6212 -0.3530 -1.7117
  336MOL0     H46356   1.578   3.273   1.945 -0.8329  0.0610 -0.9600
  336MOL0     H46357   1.472   3.411   1.983 -1.5431 -0.4341 -0.8344
  336MOL0     H46358   1.615   3.339   2.176 -0.2455  1.7983 -3.4903
  336MOL0     H46359   1.524   3.185   2.193 -0.2924 -0.0436  0.0958
  336MOL0     H46360   1.389   3.460   2.194  0.3355  1.6516  1.4756
  336MOL0     H46361   1.314   3.315   2.244  0.0625  0.5349 -0.5041
  336MOL0     H46362   1.466   3.313   2.439 -1.4337 -0.0322  0.6580
  336MOL0     H46363   1.377   3.461   2.435  2.7319  1.1904  2.1992
  336MOL0     H46364   1.765   3.623   2.372 -1.7097  0.8317 -1.6277
  336MOL0     H46365   1.325   3.070   1.809 -0.1350  0.7804  1.6334
  336MOL0     H46366   1.313   3.051   1.509  1.4787  1.2051  1.3693
  336MOL0     H46367   1.217   2.970   1.639 -1.1174 -0.5144 -0.6981
  336MOL0     H46368   1.136   3.049   1.507  0.4994  3.7569 -0.7513
  337MOL0     O46369  11.061   5.504   8.497  0.4798  0.0821  0.8206
  337MOL0     C46370  11.134   5.403   8.513  0.7027  0.4239 -0.5560
  337MOL0     O46371  11.101   5.274   8.470  0.5507 -0.9404 -0.3236
  337MOL0     C46372  10.970   5.259   8.427  1.2175  0.0567  0.7387
  337MOL0     C46373  10.922   5.281   8.301  0.0411  0.5099  0.8689
  337MOL0     C46374  10.790   5.260   8.260  0.4696  0.5800 -0.4120
  337MOL0     C46375  10.702   5.196   8.354 -0.0362  0.5315 -0.3243
  337MOL0     O46376  10.573   5.163   8.333 -0.4725 -0.3944  0.3584
  337MOL0     C46377  10.506   5.247   8.237 -0.1362 -0.4253 -0.5869
  337MOL0     C46378  10.463   5.395   8.272  0.6569  0.0890 -0.0388
  337MOL0     C46379  10.579   5.496   8.297  0.6933 -0.5293  0.5598
  337MOL0     C46380  10.527   5.641   8.302  0.0617 -0.3889  0.2215
  337MOL0     C46381  10.642   5.745   8.287  0.9728 -0.6176  1.0713
  337MOL0     C46382  10.705   5.739   8.143 -0.5570 -0.0266 -0.3146
  337MOL0     C46383  10.602   5.716   8.028 -0.4127 -0.1191  1.2863
  337MOL0     C46384  10.665   5.704   7.890 -0.5750  0.3656 -1.4811
  337MOL0     N46385  10.775   5.794   7.875 -0.4124  0.9393  0.2311
  337MOL0     C46386  10.771   5.928   7.884  0.2186 -0.4024 -0.3912
  337MOL0     C46387  10.895   5.961   7.865  0.8939 -0.7634  0.5326
  337MOL0     C46388  10.943   6.105   7.877  0.4286  0.6093 -0.1417
  337MOL0     C46389  10.891   6.185   7.762 -0.3074 -0.7367  0.8787
  337MOL0     C46390  11.005   6.262   7.695  0.3872 -0.0692 -0.6365
  337MOL0     C46391  10.958   6.366   7.598 -0.4168 -0.0366  0.1992
  337MOL0     O46392  11.070   6.458   7.579 -0.3612 -0.3671  0.4510
  337MOL0     C46393  11.064   6.571   7.499  0.9385  0.2799 -0.6597
  337MOL0     C46394  10.946   6.622   7.442 -0.0657  0.0417 -0.0755
  337MOL0     C46395  10.940   6.744   7.379 -0.1433  0.1575  0.1405
  337MOL0     C46396  10.804   6.788   7.310 -0.1699  0.9944 -0.1479
  337MOL0     C46397  11.058   6.822   7.375 -0.6331  0.5025  0.4943
  337MOL0     C46398  11.066   6.959   7.315  0.1265  0.0824  1.5603
  337MOL0     O46399  11.152   7.047   7.371 -0.1463  0.4784  0.4433
  337MOL0     C46400  11.174   7.158   7.300 -0.9208 -0.8220 -0.7600
  337MOL0     C46401  11.163   7.280   7.350  0.1677 -0.1344 -0.1650
  337MOL0     C46402  11.186   7.387   7.267  0.0060  1.0207 -0.6823
  337MOL0     C46403  11.247   7.381   7.138 -0.0891  0.0005 -0.0702
  337MOL0     O46404  11.265   7.497   7.064  0.1242  0.3994  0.7333
  337MOL0     C46405  11.390   7.530   6.998 -0.5658  0.7874  1.0645
  337MOL0     C46406  11.491   7.622   7.074  0.0691 -0.0611 -0.0784
  337MOL0     C46407  11.574   7.551   7.179 -1.1801  0.7122 -1.2718
  337MOL0     C46408  11.720   7.594   7.205 -0.5339  0.5624 -0.8836
  337MOL0     C46409  11.826   7.565   7.101  0.5709  0.3054 -0.5057
  337MOL0     C46410  11.961   7.606   7.146  0.1901 -0.0602  0.3352
  337MOL0     C46411  12.075   7.560   7.052  0.4335 -0.2049  1.2231
  337MOL0     C46412  12.216   7.628   7.069  0.6109 -0.6514  0.1795
  337MOL0    Cl46413  12.191   7.804   7.112  0.7040  0.0576  0.1045
  337MOL0     C46414  11.281   7.245   7.096 -0.2559  0.0116 -0.5426
  337MOL0     C46415  11.248   7.139   7.181 -0.4924 -0.4982 -0.4323
  337MOL0     O46416  10.974   6.990   7.230  0.0565 -1.2426 -0.4606
  337MOL0     C46417  11.188   6.768   7.428  0.0892 -0.2633  0.3350
  337MOL0     C46418  11.187   6.640   7.489 -0.5647  0.4135 -0.6881
  337MOL0     N46419  10.971   5.846   7.836 -1.5019  0.2054  0.2421
  337MOL0     N46420  10.897   5.740   7.843  1.0894  0.1136  0.4210
  337MOL0     C46421  10.747   5.171   8.484 -0.2498 -0.8568 -0.5269
  337MOL0     C46422  10.881   5.208   8.522  0.5449 -0.4886  0.2093
  337MOL0     C46423  11.254   5.428   8.592 -0.0696  0.6983 -0.0609
  337MOL0     C46424  11.250   5.528   8.690 -0.1223 -0.0986 -0.3110
  337MOL0     C46425  11.363   5.551   8.775  0.0904  0.3821  0.1464
  337MOL0     C46426  11.481   5.473   8.766  0.2284  0.0166  0.2004
  337MOL0     O46427  11.594   5.479   8.836 -0.2728 -0.7604  0.0168
  337MOL0     C46428  11.619   5.601   8.901 -0.7190 -0.7341 -0.3203
  337MOL0     C46429  11.741   5.572   8.991 -0.5449  0.5086 -1.1465
  337MOL0     C46430  11.771   5.695   9.070  1.2660 -1.0092 -0.0527
  337MOL0     C46431  11.809   5.671   9.216 -0.5101  0.5278 -0.0736
  337MOL0     C46432  11.695   5.606   9.277  0.4408 -0.4355  0.4618
  337MOL0     C46433  11.613   5.554   9.346  1.2237 -0.1910  0.5107
  337MOL0     C46434  11.482   5.377   8.662  0.2114  0.0584 -0.3339
  337MOL0     C46435  11.377   5.347   8.582 -0.1850  0.0533 -0.1017
  337MOL0     C46436  11.393   5.245   8.489  0.3144 -1.5463  0.3857
  337MOL0     H46437  10.993   5.313   8.225  0.3389 -1.1934  0.3869
  337MOL0     H46438  10.769   5.272   8.155  2.9163  0.9209 -0.9220
  337MOL0     H46439  10.412   5.197   8.210 -0.3286  1.1268 -3.0521
  337MOL0     H46440  10.567   5.248   8.147  2.1402 -1.7238  0.8385
  337MOL0     H46441  10.401   5.447   8.199  0.4069 -1.2008 -0.7605
  337MOL0     H46442  10.399   5.392   8.361  0.7147  4.4169  0.3836
  337MOL0     H46443  10.631   5.480   8.393 -1.9588  0.6864  2.3222
  337MOL0     H46444  10.657   5.482   8.222  2.8518  0.2938  2.5368
  337MOL0     H46445  10.461   5.660   8.217 -1.6940 -1.4303  1.2928
  337MOL0     H46446  10.478   5.659   8.398  2.1009 -1.7661  1.5988
  337MOL0     H46447  10.717   5.733   8.366  1.8746 -1.0396  0.1816
  337MOL0     H46448  10.591   5.841   8.298  0.4630 -0.7101 -0.2632
  337MOL0     H46449  10.752   5.837   8.129  1.2354 -0.9223 -0.7547
  337MOL0     H46450  10.787   5.667   8.140 -0.0430  0.1963  3.3830
  337MOL0     H46451  10.528   5.796   8.026  0.0531  0.3225 -0.4193
  337MOL0     H46452  10.549   5.620   8.040 -2.8455  0.7931 -1.0789
  337MOL0     H46453  10.692   5.600   7.870 -0.6701 -0.4268  1.9048
  337MOL0     H46454  10.597   5.747   7.816  1.6378  3.6520 -1.8341
  337MOL0     H46455  10.689   5.987   7.924  0.3991 -1.1911  1.2509
  337MOL0     H46456  11.047   6.118   7.911 -0.2543  2.3197  1.4832
  337MOL0     H46457  10.903   6.156   7.966  1.5970  3.7281 -1.2512
  337MOL0     H46458  10.852   6.127   7.678 -0.7835  0.1151  0.4948
  337MOL0     H46459  10.827   6.263   7.804  1.0220  0.6946  0.3856
  337MOL0     H46460  11.069   6.309   7.771 -1.9058  0.5012  1.0444
  337MOL0     H46461  11.070   6.200   7.633 -2.5327 -2.0960 -1.8576
  337MOL0     H46462  10.924   6.325   7.503 -0.5579 -1.0013  0.6542
  337MOL0     H46463  10.868   6.418   7.632 -1.7364 -0.4806 -2.4229
  337MOL0     H46464  10.856   6.561   7.442 -1.4967  2.0445 -0.6316
  337MOL0     H46465  10.728   6.717   7.343 -0.7373  2.1847  1.2351
  337MOL0     H46466  10.813   6.777   7.201  1.8160 -4.7826  0.2719
  337MOL0     H46467  10.771   6.887   7.345 -0.9615  0.8649 -0.4920
  337MOL0     H46468  11.127   7.295   7.452 -1.7651  4.6364 -1.2953
  337MOL0     H46469  11.143   7.475   7.314  0.6607  0.8746  0.2282
  337MOL0     H46470  11.436   7.439   6.959  0.8284  1.6322  0.6794
  337MOL0     H46471  11.365   7.591   6.911  3.0308 -1.8342 -2.1459
  337MOL0     H46472  11.560   7.670   7.004 -0.9313  2.0993  0.3444
  337MOL0     H46473  11.440   7.702   7.128  2.5096  0.4306  1.6432
  337MOL0     H46474  11.581   7.447   7.145 -2.7344  0.5154 -1.0785
  337MOL0     H46475  11.527   7.531   7.276  1.4461 -1.7463 -0.3299
  337MOL0     H46476  11.759   7.541   7.292 -0.6295 -0.1037 -1.2434
  337MOL0     H46477  11.713   7.699   7.236  3.6798  1.1457 -1.2568
  337MOL0     H46478  11.827   7.459   7.074  1.4227  0.3288 -0.6040
  337MOL0     H46479  11.795   7.609   7.007  0.1204 -2.2238 -1.6236
  337MOL0     H46480  11.986   7.559   7.242  5.3040 -1.1924 -1.2265
  337MOL0     H46481  11.967   7.714   7.160 -0.8271  0.2231 -1.1741
  337MOL0     H46482  12.039   7.594   6.955 -0.8644 -3.4547  0.4642
  337MOL0     H46483  12.083   7.451   7.052  1.1487 -0.1609  0.3335
  337MOL0     H46484  12.270   7.616   6.975  0.1634 -0.6128 -0.0869
  337MOL0     H46485  12.287   7.594   7.145 -1.9902 -1.7448  2.2782
  337MOL0     H46486  11.330   7.215   7.004 -0.0559  0.5722 -0.6223
  337MOL0     H46487  11.289   7.043   7.150 -2.4902 -0.5808 -3.2506
  337MOL0     H46488  11.279   6.824   7.413 -0.4127  0.4225 -0.2215
  337MOL0     H46489  11.275   6.601   7.539  1.4448  0.5857 -3.7797
  337MOL0     H46490  10.666   5.133   8.546 -1.0185 -0.4284 -1.2563
  337MOL0     H46491  10.921   5.202   8.623 -2.3173  0.1163  1.4905
  337MOL0     H46492  11.167   5.598   8.698 -0.2540 -0.2650 -0.2232
  337MOL0     H46493  11.372   5.639   8.839 -3.0983  0.5776  0.4920
  337MOL0     H46494  11.626   5.679   8.824  0.6035 -1.1462 -0.6502
  337MOL0     H46495  11.537   5.632   8.967  1.0696  1.2436  1.1076
  337MOL0     H46496  11.824   5.560   8.920  1.4530 -0.7749  1.2303
  337MOL0     H46497  11.728   5.481   9.051 -3.1143  1.9810  0.7244
  337MOL0     H46498  11.853   5.745   9.017 -1.2692  2.0458 -1.4257
  337MOL0     H46499  11.700   5.778   9.065  0.6912 -1.4352  0.7683
  337MOL0     H46500  11.835   5.765   9.265  0.8536 -0.9103  2.1400
  337MOL0     H46501  11.895   5.605   9.223  0.3102  1.6815  1.1282
  337MOL0     H46502  11.539   5.507   9.407 -1.6431  3.1706 -0.0340
  337MOL0     H46503  11.578   5.327   8.650  0.3240 -0.4235  1.9528
  337MOL0     H46504  11.398   5.147   8.536  3.4841 -2.4084 -1.4222
  337MOL0     H46505  11.322   5.237   8.406 -1.3477 -1.4541  1.7404
  337MOL0     H46506  11.484   5.265   8.432 -1.7672 -1.1189 -3.0664
  338MOL0     O46507   9.231   7.954   4.484  0.3529 -0.3002 -0.2557
  338MOL0     C46508   9.140   7.885   4.446  0.7073 -0.3502 -0.2748
  338MOL0     O46509   9.113   7.865   4.312 -0.4810  0.3771  0.3128
  338MOL0     C46510   9.215   7.868   4.218  0.3112 -0.4094 -0.2659
  338MOL0     C46511   9.195   7.947   4.102 -0.4201  0.3741 -0.2386
  338MOL0     C46512   9.295   7.934   3.994  0.0028 -0.9512 -0.3625
  338MOL0     C46513   9.415   7.857   4.012 -0.9247  0.5869 -1.7255
  338MOL0     O46514   9.502   7.842   3.902 -0.2023 -0.5070  0.0325
  338MOL0     C46515   9.603   7.742   3.875  0.4151  0.4824  0.6707
  338MOL0     C46516   9.637   7.760   3.728 -1.0850 -0.3360 -0.7681
  338MOL0     C46517   9.699   7.899   3.688  0.4255 -0.0842 -0.7477
  338MOL0     C46518   9.667   7.936   3.546 -1.1212  0.3835 -0.0344
  338MOL0     C46519   9.521   7.966   3.515 -0.5178 -0.2399  0.2684
  338MOL0     C46520   9.518   8.002   3.366 -0.5744 -0.2110 -0.0727
  338MOL0     C46521   9.381   8.040   3.315 -0.1732  0.2196 -0.2858
  338MOL0     C46522   9.263   7.954   3.384 -0.7695  0.3832  0.2245
  338MOL0     N46523   9.225   8.006   3.518 -0.2066  0.7694 -0.4800
  338MOL0     C46524   9.121   8.088   3.537  0.2326 -0.0533 -0.0613
  338MOL0     C46525   9.075   8.049   3.659 -0.3467 -0.4583 -0.4797
  338MOL0     C46526   8.939   8.087   3.722  0.1179  0.2666  1.0283
  338MOL0     C46527   8.964   8.202   3.822 -1.0949  0.7426 -0.2129
  338MOL0     C46528   8.954   8.338   3.755 -0.4389 -0.8427 -0.2176
  338MOL0     C46529   8.992   8.448   3.847  0.9325  0.1326 -0.8075
  338MOL0     O46530   8.919   8.461   3.980 -0.7629 -0.1431 -1.4419
  338MOL0     C46531   8.784   8.482   3.978  0.5136  0.8279  0.5214
  338MOL0     C46532   8.711   8.409   4.071  0.1129  0.1933  0.2913
  338MOL0     C46533   8.572   8.429   4.097 -1.1421  1.0150 -0.5408
  338MOL0     C46534   8.524   8.373   4.229  0.2970 -0.4359 -0.4208
  338MOL0     C46535   8.513   8.535   4.023  0.6261  0.1767 -0.4216
  338MOL0     C46536   8.374   8.574   4.022  0.1746 -0.3485  1.2882
  338MOL0     O46537   8.316   8.616   3.905 -0.0263  0.2898 -0.0267
  338MOL0     C46538   8.190   8.669   3.895 -0.0604 -1.0523  0.6644
  338MOL0     C46539   8.163   8.760   3.790  0.2477  0.6970  0.2897
  338MOL0     C46540   8.034   8.813   3.752 -0.5060  1.0114 -1.2044
  338MOL0     C46541   7.939   8.789   3.844 -0.1972 -1.3685 -0.8337
  338MOL0     O46542   7.808   8.829   3.820 -0.4618 -0.2901 -0.0893
  338MOL0     C46543   7.764   8.900   3.700  0.1812 -0.8029 -0.2012
  338MOL0     C46544   7.792   9.051   3.723  0.4532 -0.6308  1.3526
  338MOL0     C46545   7.724   9.122   3.609  0.1548  0.2896  0.5351
  338MOL0     C46546   7.738   9.281   3.618  0.0189 -1.2308  0.4750
  338MOL0     C46547   7.645   9.345   3.516 -0.3076 -0.0028  1.0383
  338MOL0     C46548   7.693   9.489   3.482 -0.1865 -0.2342  0.0351
  338MOL0     C46549   7.580   9.586   3.432  0.0336  0.3992 -0.1380
  338MOL0     C46550   7.515   9.529   3.300 -0.0362 -0.3361  0.8840
  338MOL0    Cl46551   7.384   9.643   3.253 -0.3879 -0.2144 -0.3222
  338MOL0     C46552   7.962   8.708   3.958  0.2728 -0.2263  0.0817
  338MOL0     C46553   8.079   8.649   3.986  0.3735  0.0952 -0.0126
  338MOL0     O46554   8.308   8.546   4.121 -0.0661 -1.1379 -0.0725
  338MOL0     C46555   8.589   8.610   3.933 -0.1789 -0.3263 -0.5301
  338MOL0     C46556   8.723   8.579   3.904  0.3550 -0.8006  0.0290
  338MOL0     N46557   9.160   7.955   3.708  0.1299 -1.0806 -0.0125
  338MOL0     N46558   9.247   7.924   3.622  0.8019 -0.0145 -0.5838
  338MOL0     C46559   9.433   7.791   4.136 -0.2412 -0.7033  0.9273
  338MOL0     C46560   9.332   7.795   4.229 -1.0781  0.6268  0.7502
  338MOL0     C46561   9.056   7.813   4.543  0.6723  0.4260  0.1338
  338MOL0     C46562   8.936   7.754   4.488  0.2878  0.0617 -0.0591
  338MOL0     C46563   8.826   7.713   4.564  0.1691  0.0851  0.5144
  338MOL0     C46564   8.840   7.714   4.703  0.3351  0.3243 -0.5981
  338MOL0     O46565   8.748   7.656   4.783  0.1057 -0.1080  0.4396
  338MOL0     C46566   8.608   7.671   4.745  0.4456  0.6222  0.5151
  338MOL0     C46567   8.538   7.622   4.881  0.8485 -0.7928 -0.6594
  338MOL0     C46568   8.499   7.472   4.891 -0.1451  0.5791 -0.0880
  338MOL0     C46569   8.605   7.374   4.928  1.2318  0.6318  0.7946
  338MOL0     C46570   8.662   7.388   5.058 -0.4981 -1.4636 -0.2077
  338MOL0     C46571   8.707   7.399   5.167  0.9422  0.6563 -0.0390
  338MOL0     C46572   8.959   7.762   4.759 -0.7982 -0.1787  0.1446
  338MOL0     C46573   9.065   7.816   4.686  0.9559 -0.9018  0.4803
  338MOL0     C46574   9.179   7.888   4.761  0.7242  0.6723  0.1164
  338MOL0     H46575   9.109   8.013   4.098 -1.6413 -1.2302 -2.5285
  338MOL0     H46576   9.287   7.992   3.903 -0.3603 -2.6884 -1.4804
  338MOL0     H46577   9.560   7.642   3.885 -1.8254  1.0160 -2.1859
  338MOL0     H46578   9.692   7.761   3.935 -0.5116 -0.1218  2.2754
  338MOL0     H46579   9.708   7.682   3.698 -1.1954 -1.1433  0.9662
  338MOL0     H46580   9.545   7.725   3.681 -1.1326 -3.7095  1.5257
  338MOL0     H46581   9.646   7.976   3.745 -0.4819  0.4699 -2.2802
  338MOL0     H46582   9.804   7.911   3.716 -0.2913  1.3030  1.5968
  338MOL0     H46583   9.734   8.018   3.517  1.9234 -1.5972  0.9032
  338MOL0     H46584   9.677   7.852   3.477  0.0707 -0.5583  1.2354
  338MOL0     H46585   9.503   8.055   3.576 -4.0008  0.5478 -1.6041
  338MOL0     H46586   9.460   7.876   3.523  0.4164 -1.2888 -2.9046
  338MOL0     H46587   9.580   8.091   3.354 -1.9955  0.8047 -0.0692
  338MOL0     H46588   9.557   7.923   3.300 -0.6452  1.9061 -2.8691
  338MOL0     H46589   9.385   8.036   3.206  1.9686  1.4164 -0.2922
  338MOL0     H46590   9.354   8.144   3.337 -0.1220 -0.5378  4.4933
  338MOL0     H46591   9.175   7.966   3.319 -1.6380  2.4389  1.6668
  338MOL0     H46592   9.297   7.851   3.382  1.2754  1.0168  0.0289
  338MOL0     H46593   9.070   8.146   3.461  3.2245  1.9248 -0.7395
  338MOL0     H46594   8.885   8.001   3.763 -2.2095  1.1641  0.0150
  338MOL0     H46595   8.868   8.120   3.646  1.1150  0.8868  0.3324
  338MOL0     H46596   8.899   8.209   3.910 -1.4777  1.2015 -0.5248
  338MOL0     H46597   9.065   8.176   3.854 -1.4633 -0.8460 -0.2761
  338MOL0     H46598   9.011   8.339   3.661 -1.5637 -2.7323 -0.9782
  338MOL0     H46599   8.845   8.348   3.747 -0.6904  1.0772  3.6304
  338MOL0     H46600   9.099   8.437   3.863  1.3770  1.2182 -2.7594
  338MOL0     H46601   8.982   8.536   3.783  0.0667 -0.4443 -1.4914
  338MOL0     H46602   8.753   8.325   4.125 -0.8354  0.5333  1.6114
  338MOL0     H46603   8.600   8.343   4.302 -0.8842 -0.0204  1.0297
  338MOL0     H46604   8.457   8.287   4.217  1.8584 -2.0333  1.6155
  338MOL0     H46605   8.469   8.456   4.275  0.4861 -0.9527  0.7768
  338MOL0     H46606   8.249   8.792   3.731 -1.7819  1.4925 -2.4153
  338MOL0     H46607   8.012   8.842   3.650 -0.5891  2.2410 -0.8544
  338MOL0     H46608   7.801   8.856   3.607 -1.1847 -2.9221  0.1909
  338MOL0     H46609   7.655   8.889   3.695  0.0107  0.6320 -0.2944
  338MOL0     H46610   7.746   9.102   3.809 -1.8630 -0.0248 -0.1660
  338MOL0     H46611   7.900   9.067   3.717  0.0870  1.8465  0.2754
  338MOL0     H46612   7.620   9.088   3.606 -0.0835  1.0783 -1.4298
  338MOL0     H46613   7.764   9.085   3.515 -0.9199  0.5510 -0.0421
  338MOL0     H46614   7.840   9.319   3.613 -1.1005  2.3358  1.3655
  338MOL0     H46615   7.689   9.314   3.711  4.3602 -0.3058  2.7115
  338MOL0     H46616   7.640   9.286   3.424  3.4718 -1.6163  1.6918
  338MOL0     H46617   7.546   9.351   3.563 -1.6942 -0.8083 -1.5316
  338MOL0     H46618   7.763   9.481   3.399 -0.9585 -3.1419 -0.4712
  338MOL0     H46619   7.740   9.519   3.576 -1.4967 -0.4446  0.7965
  338MOL0     H46620   7.619   9.688   3.420 -0.4133  0.5183 -0.6170
  338MOL0     H46621   7.497   9.584   3.504 -0.4438  0.0096 -0.6844
  338MOL0     H46622   7.485   9.427   3.322  2.5396 -0.8491  2.4642
  338MOL0     H46623   7.596   9.540   3.226 -1.0919  1.7041 -0.0665
  338MOL0     H46624   7.877   8.690   4.024 -0.2229 -0.7718 -0.6893
  338MOL0     H46625   8.088   8.583   4.071 -0.4124 -1.6797 -1.2528
  338MOL0     H46626   8.555   8.694   3.874 -0.2355  0.6943  0.9124
  338MOL0     H46627   8.789   8.648   3.852 -1.0409  2.4118  2.1866
  338MOL0     H46628   9.521   7.732   4.161  0.2723  0.1968  1.2861
  338MOL0     H46629   9.353   7.730   4.314 -0.0464  2.2292  1.7804
  338MOL0     H46630   8.920   7.741   4.381  2.4213  0.4766 -0.4667
  338MOL0     H46631   8.736   7.684   4.511  0.4727 -1.9497  1.0522
  338MOL0     H46632   8.589   7.778   4.730  3.2852  0.9570 -1.4179
  338MOL0     H46633   8.578   7.608   4.661  2.2246  1.9605 -1.2091
  338MOL0     H46634   8.440   7.667   4.895  1.1889 -0.0476 -0.6183
  338MOL0     H46635   8.593   7.657   4.969 -0.9033 -1.8948  0.9551
  338MOL0     H46636   8.419   7.468   4.965 -1.1042 -1.0168 -1.1554
  338MOL0     H46637   8.453   7.428   4.803 -3.5534  0.1407  1.7158
  338MOL0     H46638   8.673   7.378   4.842 -0.6762 -1.7644 -0.9649
  338MOL0     H46639   8.562   7.274   4.938 -0.9462  1.4799  0.4093
  338MOL0     H46640   8.759   7.408   5.261 -0.8396  0.1849  1.0503
  338MOL0     H46641   8.968   7.764   4.867 -0.6431  2.0781  0.1260
  338MOL0     H46642   9.163   7.994   4.736 -2.0998  0.4367  0.6208
  338MOL0     H46643   9.172   7.865   4.868  1.2907 -0.9929 -0.1769
  338MOL0     H46644   9.280   7.866   4.727  0.9189  2.7117 -0.8085
  339MOL0     O46645   6.753   3.600   2.593 -0.8902  0.0323 -0.0681
  339MOL0     C46646   6.817   3.681   2.660 -0.3679 -1.0569 -1.9811
  339MOL0     O46647   6.774   3.802   2.705  0.4302 -0.0091  0.2118
  339MOL0     C46648   6.666   3.858   2.646  1.1733 -0.3089 -0.6122
  339MOL0     C46649   6.584   3.948   2.721  0.1336  0.2270 -0.7226
  339MOL0     C46650   6.470   4.014   2.665 -0.1156  0.5540 -0.1626
  339MOL0     C46651   6.430   3.987   2.536 -0.1989 -0.0879  0.0779
  339MOL0     O46652   6.319   4.038   2.474 -1.5327 -0.4274  0.4826
  339MOL0     C46653   6.207   4.087   2.556 -0.4468  0.4097 -0.0024
  339MOL0     C46654   6.112   4.110   2.454  1.5935  0.2351 -0.1865
  339MOL0     C46655   5.962   4.123   2.494  0.0605 -1.1481 -0.6638
  339MOL0     C46656   5.928   4.258   2.545  0.4364  0.5358 -0.0623
  339MOL0     C46657   5.937   4.373   2.442  0.2994  0.8270  0.8912
  339MOL0     C46658   5.891   4.497   2.504 -0.1356  0.3201  0.0528
  339MOL0     C46659   5.905   4.607   2.395  0.6269  0.2194 -0.6935
  339MOL0     C46660   5.877   4.748   2.458  0.0832  0.3620 -0.4770
  339MOL0     N46661   5.880   4.851   2.354  0.4118  0.1939 -0.2958
  339MOL0     C46662   5.964   4.874   2.248 -0.1989  1.3659  0.5683
  339MOL0     C46663   5.907   4.994   2.204  0.5849  0.1857 -0.4713
  339MOL0     C46664   5.957   5.071   2.099 -0.1573 -0.2173 -0.7420
  339MOL0     C46665   5.915   5.221   2.106  0.6214 -0.7017 -0.6094
  339MOL0     C46666   6.003   5.293   2.212 -0.1233  0.1445  0.6114
  339MOL0     C46667   5.915   5.322   2.339  0.0724  0.0842  0.2903
  339MOL0     O46668   5.994   5.355   2.451 -0.2808 -0.5875 -0.2139
  339MOL0     C46669   6.057   5.475   2.448  0.0745  0.5595  0.1500
  339MOL0     C46670   6.156   5.491   2.546  0.1776 -0.0296 -0.4250
  339MOL0     C46671   6.231   5.603   2.556 -0.7479 -0.2952  0.8784
  339MOL0     C46672   6.341   5.620   2.671  0.5448  1.2540  0.5048
  339MOL0     C46673   6.202   5.709   2.463 -0.1651  0.4349  0.6294
  339MOL0     C46674   6.276   5.837   2.474 -0.0904  0.7588 -0.5415
  339MOL0     O46675   6.195   5.934   2.524  0.7413 -0.0096 -0.4656
  339MOL0     C46676   6.241   6.061   2.539  0.9359  0.1077  0.3877
  339MOL0     C46677   6.352   6.120   2.481 -1.9400  0.6515  0.6604
  339MOL0     C46678   6.380   6.258   2.496  0.0136  0.1744 -0.5169
  339MOL0     C46679   6.283   6.343   2.566  0.7315  1.2303 -0.2548
  339MOL0     O46680   6.302   6.480   2.553 -0.1793  0.3925 -0.4024
  339MOL0     C46681   6.194   6.571   2.588  0.4749  1.3185  0.1797
  339MOL0     C46682   6.223   6.717   2.562 -0.3401  0.5753  0.1948
  339MOL0     C46683   6.296   6.774   2.684 -0.2952 -0.1816  0.1165
  339MOL0     C46684   6.365   6.897   2.642 -0.0570 -0.0085  1.0852
  339MOL0     C46685   6.497   6.873   2.574 -0.4739 -0.4760  0.0582
  339MOL0     C46686   6.549   7.010   2.517 -0.0371  0.5216  0.1463
  339MOL0     C46687   6.458   7.091   2.418 -1.5209  0.0211  0.4051
  339MOL0     C46688   6.553   7.186   2.332  0.4401 -0.0714 -0.3413
  339MOL0    Cl46689   6.537   7.350   2.401  0.0315 -0.1018  0.5237
  339MOL0     C46690   6.180   6.279   2.636  0.6344 -0.3261  0.0491
  339MOL0     C46691   6.162   6.142   2.622  0.2236  0.3092  0.3907
  339MOL0     O46692   6.397   5.832   2.471  0.2944 -0.5905 -0.0158
  339MOL0     C46693   6.104   5.692   2.367  0.2570 -0.5276  0.2703
  339MOL0     C46694   6.030   5.578   2.359 -0.6328  0.2946  0.2084
  339MOL0     N46695   5.786   5.009   2.252  0.0357  0.1371 -0.1366
  339MOL0     N46696   5.771   4.933   2.348 -0.0509 -0.1294  0.0400
  339MOL0     C46697   6.512   3.893   2.463  1.4262  0.6148 -0.2278
  339MOL0     C46698   6.622   3.834   2.510 -0.2896 -0.7103 -0.6057
  339MOL0     C46699   6.951   3.645   2.701  1.3990  0.9132 -0.4140
  339MOL0     C46700   7.048   3.661   2.604 -0.1939 -0.6694 -0.0302
  339MOL0     C46701   7.170   3.597   2.625 -1.0688  0.1910 -0.1744
  339MOL0     C46702   7.194   3.526   2.750  1.1707 -0.3787  0.4833
  339MOL0     O46703   7.307   3.452   2.778 -0.5688 -0.1207 -0.0238
  339MOL0     C46704   7.407   3.420   2.669  1.2466 -0.4523  0.1955
  339MOL0     C46705   7.444   3.265   2.679 -0.6477 -0.4423  0.5401
  339MOL0     C46706   7.317   3.173   2.653 -0.1058 -0.7261 -0.0978
  339MOL0     C46707   7.312   3.057   2.748  0.5973  0.1248  1.5420
  339MOL0     C46708   7.188   2.979   2.732  0.2569  0.4726 -0.1573
  339MOL0     C46709   7.084   2.921   2.714  0.0895  0.6079  0.4044
  339MOL0     C46710   7.101   3.535   2.849 -0.9356 -0.6958  0.7167
  339MOL0     C46711   6.978   3.583   2.825  0.7666 -0.1928  0.3242
  339MOL0     C46712   6.878   3.575   2.927  1.2173 -0.0160 -0.4112
  339MOL0     H46713   6.610   3.956   2.826  0.3997 -1.2306 -0.6571
  339MOL0     H46714   6.418   4.077   2.737 -0.1438  2.2700 -1.6338
  339MOL0     H46715   6.237   4.182   2.600 -1.4942  1.3889 -1.3292
  339MOL0     H46716   6.165   4.013   2.625  4.2661 -2.5948  0.0951
  339MOL0     H46717   6.137   4.190   2.384 -5.5131  0.8186 -2.8867
  339MOL0     H46718   6.106   4.018   2.395 -2.6657 -1.2432  2.0867
  339MOL0     H46719   5.897   4.098   2.409 -2.4255  1.5129  0.2911
  339MOL0     H46720   5.927   4.045   2.562  0.5003 -0.0029  0.9127
  339MOL0     H46721   5.828   4.247   2.588 -0.1010  1.1656 -1.1110
  339MOL0     H46722   5.978   4.272   2.642 -3.9669  2.8871  2.1537
  339MOL0     H46723   5.876   4.353   2.353 -0.8055 -2.6161  2.2523
  339MOL0     H46724   6.040   4.392   2.412  0.5789 -1.4374  0.2857
  339MOL0     H46725   5.793   4.479   2.548  0.7336 -1.6717  1.3092
  339MOL0     H46726   5.967   4.528   2.576 -0.3790  3.4056 -0.8688
  339MOL0     H46727   5.853   4.591   2.301 -0.7338 -2.3088  0.4017
  339MOL0     H46728   6.013   4.611   2.378  0.4061 -1.8316 -3.2570
  339MOL0     H46729   5.783   4.764   2.513  1.2626  2.2102  1.1385
  339MOL0     H46730   5.955   4.766   2.532  0.0273  0.2781 -0.3982
  339MOL0     H46731   6.056   4.825   2.222 -0.5379 -0.1871  2.1386
  339MOL0     H46732   5.916   5.019   2.012 -0.7874 -1.1987  0.1199
  339MOL0     H46733   6.066   5.073   2.090 -0.2808  1.8423 -2.6295
  339MOL0     H46734   5.920   5.269   2.008 -1.9626 -1.2197 -1.0747
  339MOL0     H46735   5.811   5.231   2.138  1.0351 -0.5015  0.7293
  339MOL0     H46736   6.090   5.234   2.240  0.5583  1.6248  1.7528
  339MOL0     H46737   6.040   5.386   2.167  0.3143 -0.8547 -1.1479
  339MOL0     H46738   5.844   5.402   2.313 -0.6281 -0.5282  0.2848
  339MOL0     H46739   5.849   5.237   2.359 -3.0573  2.8171  2.6440
  339MOL0     H46740   6.182   5.400   2.598  0.4032  0.6104  0.6089
  339MOL0     H46741   6.325   5.719   2.717 -1.1067  0.8028  0.9720
  339MOL0     H46742   6.446   5.613   2.641  0.0392  2.0071 -1.6963
  339MOL0     H46743   6.320   5.536   2.737 -3.9298 -0.7047 -2.8956
  339MOL0     H46744   6.412   6.062   2.411 -0.3258  0.8805  1.8009
  339MOL0     H46745   6.467   6.315   2.467  1.0723  0.2105  2.4197
  339MOL0     H46746   6.107   6.546   2.526 -0.5131 -2.7252  2.8215
  339MOL0     H46747   6.149   6.546   2.685 -0.7749 -0.8651 -0.8977
  339MOL0     H46748   6.281   6.705   2.470 -0.5964  1.3908 -0.0794
  339MOL0     H46749   6.133   6.777   2.546 -2.3239 -2.7575 -2.4837
  339MOL0     H46750   6.365   6.694   2.714  2.0810  1.3410 -0.9700
  339MOL0     H46751   6.218   6.788   2.760 -2.4313  2.3200 -2.3158
  339MOL0     H46752   6.390   6.956   2.731  4.4155  1.2977 -0.7098
  339MOL0     H46753   6.299   6.953   2.576  0.8297  0.0823  0.2571
  339MOL0     H46754   6.571   6.830   2.643  1.1491 -0.4426 -1.6071
  339MOL0     H46755   6.484   6.799   2.495  0.5950 -0.0027 -0.5851
  339MOL0     H46756   6.646   6.983   2.474 -0.1718 -3.3936  1.8480
  339MOL0     H46757   6.571   7.072   2.605 -0.6581 -0.9477  1.3720
  339MOL0     H46758   6.382   7.153   2.467  2.7383  2.5335  4.7529
  339MOL0     H46759   6.416   7.020   2.347  2.4705 -2.0858 -0.1069
  339MOL0     H46760   6.510   7.184   2.232 -1.9829 -0.0853  0.6140
  339MOL0     H46761   6.655   7.148   2.344 -0.2475 -1.3599  2.2107
  339MOL0     H46762   6.098   6.335   2.680 -2.8334 -4.2170 -0.7950
  339MOL0     H46763   6.073   6.088   2.651 -0.8360  1.9550  0.3443
  339MOL0     H46764   6.083   5.761   2.285  1.0547 -1.3555 -0.6555
  339MOL0     H46765   5.961   5.561   2.277 -0.2258  0.0017 -0.0775
  339MOL0     H46766   6.502   3.860   2.360 -2.2532 -0.0463  0.2040
  339MOL0     H46767   6.678   3.764   2.449  2.4120 -1.8456  2.8269
  339MOL0     H46768   7.030   3.720   2.515 -0.3288  0.9405  1.0321
  339MOL0     H46769   7.250   3.608   2.552 -1.5578 -0.3879 -0.8057
  339MOL0     H46770   7.358   3.430   2.572  2.7920 -0.1379 -0.5836
  339MOL0     H46771   7.491   3.486   2.692 -0.5066  0.4753  5.1434
  339MOL0     H46772   7.487   3.257   2.779 -2.2936  1.4575  1.4760
  339MOL0     H46773   7.527   3.236   2.614  0.7007  1.2543  1.4073
  339MOL0     H46774   7.223   3.229   2.659 -1.5432 -1.8956 -5.9222
  339MOL0     H46775   7.315   3.134   2.551  0.9336 -2.7703  0.6099
  339MOL0     H46776   7.315   3.093   2.852 -2.8680  2.2955  1.0725
  339MOL0     H46777   7.388   2.992   2.705 -2.9352 -1.6420 -2.8220
  339MOL0     H46778   6.995   2.869   2.684  0.6874 -1.0498  1.3781
  339MOL0     H46779   7.134   3.496   2.945 -1.7805  2.1675  2.2858
  339MOL0     H46780   6.854   3.470   2.948  0.5001  0.0162 -1.0172
  339MOL0     H46781   6.915   3.616   3.021 -0.5022  2.0639 -0.5711
  339MOL0     H46782   6.785   3.626   2.900  1.3618 -0.0266 -0.9425
  340MOL0     O46783  11.391   7.979   2.607 -0.0048  0.4709  0.0868
  340MOL0     C46784  11.347   7.913   2.510 -0.3937 -0.8367  1.5180
  340MOL0     O46785  11.246   7.956   2.417  0.2949 -0.3337 -0.3502
  340MOL0     C46786  11.160   8.054   2.455  0.4894  0.2733  0.0688
  340MOL0     C46787  11.043   8.015   2.528 -0.0830 -0.2880  0.2473
  340MOL0     C46788  10.948   8.102   2.577 -0.5957  0.2117  0.2640
  340MOL0     C46789  10.974   8.238   2.566 -0.8379 -0.3813  0.1809
  340MOL0     O46790  10.902   8.322   2.654  0.4138  0.4791 -0.6031
  340MOL0     C46791  10.895   8.459   2.627 -0.3858 -0.1513  0.2818
  340MOL0     C46792  10.783   8.510   2.709 -0.5340 -1.6619  0.0699
  340MOL0     C46793  10.709   8.639   2.660 -0.0412 -0.7221  0.6332
  340MOL0     C46794  10.788   8.765   2.705  0.8272 -0.0224 -0.0507
  340MOL0     C46795  10.706   8.892   2.651 -0.2733 -0.0980 -0.8937
  340MOL0     C46796  10.653   8.905   2.511 -0.0163 -0.0856 -0.6085
  340MOL0     C46797  10.763   8.898   2.406 -0.4089  0.9947  0.7860
  340MOL0     C46798  10.690   8.916   2.268 -0.5658 -0.4512  0.1885
  340MOL0     N46799  10.768   8.874   2.149 -0.1925  0.1910  0.6729
  340MOL0     C46800  10.761   8.769   2.070  0.0582  0.6106  0.9795
  340MOL0     C46801  10.845   8.792   1.966 -0.9580  0.1000  0.2506
  340MOL0     C46802  10.872   8.688   1.857  0.8887 -0.1490  0.4293
  340MOL0     C46803  11.012   8.631   1.866  0.0111 -0.2858 -0.6838
  340MOL0     C46804  11.140   8.711   1.871  0.1734 -0.6954  0.1042
  340MOL0     C46805  11.144   8.812   1.758 -0.2332  0.2144  0.1385
  340MOL0     O46806  11.229   8.921   1.783 -0.5596 -0.7272  0.2907
  340MOL0     C46807  11.350   8.899   1.841 -0.3773 -0.0212 -0.3474
  340MOL0     C46808  11.379   8.976   1.955 -1.0240  0.1103 -0.3288
  340MOL0     C46809  11.495   8.948   2.029 -0.5406 -0.2100  0.0757
  340MOL0     C46810  11.507   9.026   2.158  0.1416  0.2623  0.8011
  340MOL0     C46811  11.588   8.852   1.986  0.4533  0.2542  0.3439
  340MOL0     C46812  11.713   8.818   2.065  0.4298 -0.4611 -0.5099
  340MOL0     O46813  11.773   8.697   2.039 -0.0570  0.8413 -0.0520
  340MOL0     C46814  11.857   8.659   2.138 -0.1934  0.1505  0.2496
  340MOL0     C46815  11.986   8.714   2.143  0.6049 -1.3445  1.2518
  340MOL0     C46816  12.084   8.674   2.241  0.1622 -0.4401 -0.6868
  340MOL0     C46817  12.052   8.560   2.328  0.3578 -0.3880 -0.0077
  340MOL0     O46818  12.133   8.520   2.429  0.1400  0.0889  0.6127
  340MOL0     C46819  12.263   8.487   2.373 -0.4768  0.2770 -0.4351
  340MOL0     C46820  12.340   8.379   2.453 -0.6226  0.0980 -0.6180
  340MOL0     C46821  12.242   8.281   2.532  0.1917 -1.3093 -0.1436
  340MOL0     C46822  12.321   8.197   2.640 -0.4348  0.4846  0.0764
  340MOL0     C46823  12.232   8.079   2.680 -0.4220  0.0170 -0.1797
  340MOL0     C46824  12.310   7.984   2.769 -1.3520 -0.8408  0.2030
  340MOL0     C46825  12.227   7.860   2.799 -0.7129  0.1773 -0.8187
  340MOL0     C46826  12.319   7.766   2.871 -0.5836  0.1095  0.8266
  340MOL0    Cl46827  12.198   7.627   2.904  0.1321 -0.0220 -0.0531
  340MOL0     C46828  11.926   8.509   2.324 -0.4466 -0.7721 -0.2766
  340MOL0     C46829  11.830   8.556   2.233 -0.2316 -0.4381  0.7744
  340MOL0     O46830  11.735   8.895   2.163 -0.6758  0.6596  0.2228
  340MOL0     C46831  11.552   8.764   1.886  0.9128 -0.5986  0.2122
  340MOL0     C46832  11.434   8.789   1.816  0.2015 -1.0999  0.3103
  340MOL0     N46833  10.882   8.929   1.975 -1.0611  0.1836  0.2181
  340MOL0     N46834  10.830   8.973   2.081  0.1545  1.0984 -0.5763
  340MOL0     C46835  11.080   8.276   2.468 -0.0064  0.2579 -0.0812
  340MOL0     C46836  11.174   8.185   2.423  0.8658  0.9318  0.7494
  340MOL0     C46837  11.415   7.787   2.466 -0.0117  0.2191  0.5321
  340MOL0     C46838  11.545   7.766   2.496  0.1398 -1.0668  0.2489
  340MOL0     C46839  11.623   7.648   2.470  0.2004 -0.8354 -0.1414
  340MOL0     C46840  11.553   7.532   2.420  0.4953  0.5500  0.6551
  340MOL0     O46841  11.618   7.414   2.400 -0.4505  0.6613  0.3469
  340MOL0     C46842  11.762   7.413   2.399  1.2684 -0.2812  0.4529
  340MOL0     C46843  11.824   7.274   2.368 -0.2606  0.3464  0.1934
  340MOL0     C46844  11.721   7.158   2.358 -0.0836  0.5391  0.1179
  340MOL0     C46845  11.790   7.029   2.318 -0.2842  0.2553  0.5989
  340MOL0     C46846  11.700   6.921   2.313  0.2590  0.2968 -1.2396
  340MOL0     C46847  11.637   6.816   2.317  0.8661 -0.1594  0.5225
  340MOL0     C46848  11.409   7.540   2.408 -0.7314 -0.3394 -0.3845
  340MOL0     C46849  11.343   7.667   2.422  0.0945 -0.1483  0.3484
  340MOL0     C46850  11.191   7.660   2.415 -0.6239 -0.0404 -0.2483
  340MOL0     H46851  11.022   7.911   2.553 -2.3938  0.5308  2.1239
  340MOL0     H46852  10.859   8.070   2.630  0.5368 -2.1419  0.8769
  340MOL0     H46853  10.861   8.467   2.523 -0.0732  0.7506  0.2425
  340MOL0     H46854  10.989   8.511   2.645 -1.3929  2.1108 -0.6230
  340MOL0     H46855  10.719   8.422   2.694 -0.1513 -1.6859 -1.6399
  340MOL0     H46856  10.826   8.524   2.809  0.4476 -0.3645 -0.5219
  340MOL0     H46857  10.713   8.642   2.550  1.4957 -0.5856  0.6737
  340MOL0     H46858  10.604   8.627   2.688 -0.8766 -5.2626 -3.1149
  340MOL0     H46859  10.791   8.767   2.814  1.3267  0.9692 -0.0722
  340MOL0     H46860  10.888   8.780   2.663 -0.0411  2.3811 -1.4384
  340MOL0     H46861  10.769   8.979   2.674 -1.0465  1.1042 -3.0164
  340MOL0     H46862  10.614   8.905   2.710  0.9831  2.2265  0.7585
  340MOL0     H46863  10.583   8.821   2.500 -1.0227  0.0353  3.2504
  340MOL0     H46864  10.601   9.000   2.494  1.5972  1.2542  1.5143
  340MOL0     H46865  10.813   8.804   2.429 -0.8497  0.7556  0.7613
  340MOL0     H46866  10.837   8.979   2.408 -0.9778  1.5842 -0.6295
  340MOL0     H46867  10.599   8.855   2.274 -1.8315  1.3194 -0.1752
  340MOL0     H46868  10.651   9.017   2.251 -3.8698 -1.1678  2.3878
  340MOL0     H46869  10.699   8.682   2.086  0.8268  0.3822  2.8864
  340MOL0     H46870  10.865   8.738   1.760  1.3145 -0.7478  0.0816
  340MOL0     H46871  10.800   8.608   1.879 -1.3634  1.7860  0.4520
  340MOL0     H46872  11.009   8.556   1.946 -0.6801  1.5892  1.1258
  340MOL0     H46873  11.007   8.577   1.770  0.5286 -0.3386 -0.6848
  340MOL0     H46874  11.144   8.761   1.969 -3.5698 -0.2936  0.1727
  340MOL0     H46875  11.217   8.633   1.866  1.8383  0.9603 -2.3142
  340MOL0     H46876  11.179   8.760   1.668  0.1427  0.8328 -0.0821
  340MOL0     H46877  11.045   8.857   1.747 -0.2712 -0.1520 -1.2809
  340MOL0     H46878  11.303   9.050   1.978 -0.5959  0.6226 -0.5474
  340MOL0     H46879  11.492   8.964   2.247  0.4970  0.6073  1.1079
  340MOL0     H46880  11.426   9.099   2.144 -1.1385 -1.2613  0.0259
  340MOL0     H46881  11.601   9.081   2.162 -0.4911  1.5354 -0.5637
  340MOL0     H46882  12.000   8.791   2.067 -1.6801 -3.3656 -1.4494
  340MOL0     H46883  12.180   8.724   2.236 -0.0389 -0.1352 -1.9174
  340MOL0     H46884  12.256   8.466   2.266  0.5768 -3.1236  0.0333
  340MOL0     H46885  12.324   8.575   2.393 -1.0028  0.6331 -0.3690
  340MOL0     H46886  12.405   8.320   2.387 -0.4035  1.4901 -1.6994
  340MOL0     H46887  12.402   8.437   2.522 -0.5684 -0.5823 -0.0738
  340MOL0     H46888  12.174   8.223   2.470 -3.2283  1.4102  0.7007
  340MOL0     H46889  12.175   8.351   2.584  4.1705  2.0448  1.0976
  340MOL0     H46890  12.343   8.258   2.728 -0.7825 -0.3459  0.7580
  340MOL0     H46891  12.409   8.158   2.589 -1.7741  0.0939 -2.0560
  340MOL0     H46892  12.133   8.099   2.722 -0.5632 -0.3237 -0.3483
  340MOL0     H46893  12.209   8.020   2.590 -2.4884  0.6588 -0.1364
  340MOL0     H46894  12.334   8.037   2.862  0.6709  0.7091 -1.0897
  340MOL0     H46895  12.404   7.951   2.723 -3.1053 -3.1472 -1.9842
  340MOL0     H46896  12.196   7.825   2.700 -2.4535  1.9264 -0.9523
  340MOL0     H46897  12.146   7.879   2.870  0.4079 -0.2994  0.6440
  340MOL0     H46898  12.354   7.803   2.968 -0.7823 -2.3354  1.9028
  340MOL0     H46899  12.406   7.741   2.809 -1.6635 -1.3854 -0.1738
  340MOL0     H46900  11.896   8.430   2.392  2.3852 -1.5098  0.2671
  340MOL0     H46901  11.734   8.505   2.228 -2.4251  3.3497  0.8450
  340MOL0     H46902  11.603   8.677   1.848  0.0246  0.4388 -3.7826
  340MOL0     H46903  11.423   8.721   1.733  2.5630 -1.0677 -0.0914
  340MOL0     H46904  11.104   8.380   2.448  0.5529  0.2294  0.4165
  340MOL0     H46905  11.246   8.214   2.346 -0.6203  2.3816 -0.1492
  340MOL0     H46906  11.606   7.849   2.533  0.9717 -1.0166 -1.1717
  340MOL0     H46907  11.731   7.639   2.482  0.2982 -2.5802 -1.7984
  340MOL0     H46908  11.794   7.489   2.328 -0.2435  0.8968  0.9769
  340MOL0     H46909  11.797   7.446   2.497  1.4102  3.7219 -0.7883
  340MOL0     H46910  11.894   7.258   2.450 -0.7385  1.1892  0.7731
  340MOL0     H46911  11.887   7.267   2.279 -1.1044  0.0056 -0.3887
  340MOL0     H46912  11.653   7.144   2.442 -0.0666  1.3153  0.2751
  340MOL0     H46913  11.653   7.190   2.279  0.7262  0.0690 -0.7807
  340MOL0     H46914  11.876   7.011   2.384 -2.1803  0.3784  3.2894
  340MOL0     H46915  11.841   7.038   2.222  0.4737 -0.9450  0.8617
  340MOL0     H46916  11.568   6.736   2.298  2.4504 -0.9631 -2.3730
  340MOL0     H46917  11.351   7.457   2.369 -0.5703  0.0502 -1.4967
  340MOL0     H46918  11.156   7.557   2.406  2.2716 -0.9235 -4.0775
  340MOL0     H46919  11.167   7.691   2.517  1.0922  4.2571 -0.9080
  340MOL0     H46920  11.158   7.728   2.335  1.5971  2.2196  0.6193
  341MOL0     O46921   3.603   3.307   6.032  0.9620 -0.2596  0.1191
  341MOL0     C46922   3.620   3.319   6.147 -0.8326 -0.0614 -0.4934
  341MOL0     O46923   3.699   3.252   6.233  0.6987 -0.5397 -0.6696
  341MOL0     C46924   3.752   3.133   6.187  0.2944 -0.5875 -0.6198
  341MOL0     C46925   3.761   3.038   6.288  0.3017  0.3726  0.5697
  341MOL0     C46926   3.832   2.917   6.274  0.4900  0.4443  0.7146
  341MOL0     C46927   3.890   2.876   6.153 -0.6064  0.2558 -0.3617
  341MOL0     O46928   3.965   2.761   6.167 -0.1775 -0.2713 -0.6939
  341MOL0     C46929   4.071   2.744   6.073 -0.0464 -0.6077  0.0857
  341MOL0     C46930   4.135   2.608   6.075  0.7341  0.2927 -0.8900
  341MOL0     C46931   4.154   2.558   6.225 -0.3056  0.3868  0.2396
  341MOL0     C46932   4.209   2.415   6.235 -0.6371 -1.4374  0.0915
  341MOL0     C46933   4.354   2.408   6.190  0.3307  0.2842 -0.9519
  341MOL0     C46934   4.409   2.272   6.233  0.7725  0.5492  0.2574
  341MOL0     C46935   4.446   2.242   6.376 -0.0566  0.4492 -0.6088
  341MOL0     C46936   4.483   2.089   6.391  0.2197  0.8494 -0.3939
  341MOL0     N46937   4.578   2.060   6.500 -0.0679 -0.5223 -0.2364
  341MOL0     C46938   4.600   1.929   6.543  0.0805 -0.2743  0.4187
  341MOL0     C46939   4.700   1.938   6.632 -0.4549 -0.0411  0.5158
  341MOL0     C46940   4.749   1.823   6.716  0.3990 -0.6546 -0.1260
  341MOL0     C46941   4.670   1.807   6.856 -0.2121  0.3150  0.4979
  341MOL0     C46942   4.738   1.893   6.962  0.2312 -0.6772 -1.0987
  341MOL0     C46943   4.625   1.971   7.038  0.1438 -0.9692  0.2841
  341MOL0     O46944   4.695   2.047   7.140  0.9018 -0.3563 -0.6341
  341MOL0     C46945   4.626   2.132   7.221  0.1471  0.8121  0.5509
  341MOL0     C46946   4.494   2.176   7.220  1.2901 -0.0623 -0.7551
  341MOL0     C46947   4.446   2.284   7.311 -0.5155  0.9392 -0.6228
  341MOL0     C46948   4.302   2.343   7.303 -0.6046  0.6717 -0.5559
  341MOL0     C46949   4.535   2.343   7.403 -0.9093 -0.1327 -0.1301
  341MOL0     C46950   4.497   2.444   7.502 -0.0093  0.3962  0.3674
  341MOL0     O46951   4.544   2.569   7.491  0.2244  0.0339 -0.5674
  341MOL0     C46952   4.500   2.655   7.587  0.3151 -0.5217  0.6613
  341MOL0     C46953   4.361   2.675   7.606  0.2956 -0.0160 -0.7538
  341MOL0     C46954   4.312   2.765   7.697  1.2119 -0.3398 -1.0084
  341MOL0     C46955   4.390   2.827   7.797 -0.4653 -0.1358  0.5401
  341MOL0     O46956   4.355   2.894   7.903 -0.4072 -0.6952  0.0982
  341MOL0     C46957   4.247   2.832   7.977 -1.0919 -0.5117 -0.5467
  341MOL0     C46958   4.248   2.885   8.123 -0.1595 -0.4526 -0.3703
  341MOL0     C46959   4.382   2.858   8.215  0.7572  0.1943  0.3367
  341MOL0     C46960   4.354   2.872   8.362  0.0441  0.6064 -1.5108
  341MOL0     C46961   4.487   2.855   8.436 -0.2269  0.2604 -0.1730
  341MOL0     C46962   4.477   2.911   8.582 -0.1661 -0.3825 -0.4818
  341MOL0     C46963   4.617   2.926   8.641 -1.1377  0.4860 -0.5696
  341MOL0     C46964   4.612   3.015   8.765 -0.6864  0.7834 -0.0067
  341MOL0    Cl46965   4.776   3.026   8.848  0.1727  0.5020  0.0605
  341MOL0     C46966   4.526   2.813   7.775 -0.8285 -1.1850  0.6191
  341MOL0     C46967   4.586   2.738   7.664  0.0018  0.1990 -0.9167
  341MOL0     O46968   4.426   2.397   7.595 -0.2539  0.4913  0.3584
  341MOL0     C46969   4.668   2.294   7.402  0.1441 -0.0617  0.3570
  341MOL0     C46970   4.713   2.193   7.314  0.1338 -0.2981 -0.1226
  341MOL0     N46971   4.746   2.068   6.635  0.5485 -0.3438 -0.0463
  341MOL0     N46972   4.674   2.136   6.557  0.5846  0.2618 -0.1852
  341MOL0     C46973   3.883   2.974   6.051  0.3295  0.3005 -0.5456
  341MOL0     C46974   3.820   3.108   6.073  0.6933  0.1350  0.4977
  341MOL0     C46975   3.578   3.458   6.196 -0.2289 -0.3087 -0.3898
  341MOL0     C46976   3.664   3.517   6.292 -0.0146 -0.3558 -1.1820
  341MOL0     C46977   3.632   3.634   6.364  0.2650 -1.3841 -0.4020
  341MOL0     C46978   3.511   3.699   6.331 -0.2691 -0.2691  0.1509
  341MOL0     O46979   3.466   3.794   6.424  0.5843 -0.2519 -0.4197
  341MOL0     C46980   3.376   3.898   6.392  0.6942 -0.1195  0.2628
  341MOL0     C46981   3.380   4.003   6.511  0.3095 -0.5056 -0.5672
  341MOL0     C46982   3.304   4.133   6.472  0.3781 -0.8478 -0.6296
  341MOL0     C46983   3.340   4.207   6.337  0.5653 -0.1751 -0.3820
  341MOL0     C46984   3.468   4.267   6.352 -0.6325 -0.3246 -0.3447
  341MOL0     C46985   3.579   4.328   6.350  0.0478 -0.0989 -0.6443
  341MOL0     C46986   3.426   3.643   6.234  0.4338 -0.0688  0.5610
  341MOL0     C46987   3.459   3.523   6.161  0.5680  0.1473  0.3136
  341MOL0     C46988   3.348   3.468   6.066 -0.3519 -0.2510 -0.1338
  341MOL0     H46989   3.710   3.062   6.380  0.0468  1.6342  0.1136
  341MOL0     H46990   3.830   2.844   6.355  0.7286  2.7878  2.9478
  341MOL0     H46991   4.151   2.817   6.080  1.3660 -2.2634  2.2338
  341MOL0     H46992   4.030   2.747   5.971 -1.3987  0.6736  0.6278
  341MOL0     H46993   4.088   2.534   6.009  3.2960 -0.9690 -1.4293
  341MOL0     H46994   4.233   2.613   6.026  1.0393 -1.6282 -0.5478
  341MOL0     H46995   4.223   2.623   6.279  2.2285 -1.6631 -0.3071
  341MOL0     H46996   4.057   2.550   6.274  0.6089 -3.2053  1.7737
  341MOL0     H46997   4.219   2.384   6.339  1.2221 -1.4006 -0.0473
  341MOL0     H46998   4.157   2.344   6.170  1.2860 -0.4792 -2.7018
  341MOL0     H46999   4.405   2.484   6.250  0.7064  1.1646 -2.3431
  341MOL0     H47000   4.373   2.427   6.084  0.0000  0.7606 -0.9293
  341MOL0     H47001   4.331   2.204   6.198  2.0700 -0.4275 -0.8728
  341MOL0     H47002   4.495   2.247   6.170  0.6913  0.8924  0.0029
  341MOL0     H47003   4.358   2.274   6.434 -0.6603  2.8969 -2.7043
  341MOL0     H47004   4.527   2.309   6.407 -1.3254  2.0358 -0.5817
  341MOL0     H47005   4.386   2.044   6.415  1.4551 -1.2421  1.0113
  341MOL0     H47006   4.524   2.053   6.296  2.2707  2.0033  0.0001
  341MOL0     H47007   4.545   1.839   6.517 -0.9257  0.5443 -0.3878
  341MOL0     H47008   4.854   1.853   6.729 -0.8794  4.2108  0.9787
  341MOL0     H47009   4.748   1.731   6.657  0.4562 -1.1688  0.6516
  341MOL0     H47010   4.566   1.837   6.843  0.1133  0.6697 -1.5841
  341MOL0     H47011   4.677   1.702   6.887  1.5639 -0.1794 -1.3467
  341MOL0     H47012   4.774   1.818   7.033 -2.4269 -0.4801  0.6185
  341MOL0     H47013   4.828   1.946   6.931  0.5217  1.7284  3.0767
  341MOL0     H47014   4.567   2.024   6.963  1.0789 -1.8139 -1.0761
  341MOL0     H47015   4.564   1.893   7.083 -2.8611  0.5208 -0.9224
  341MOL0     H47016   4.432   2.162   7.133 -1.2296  0.7846  0.7967
  341MOL0     H47017   4.293   2.439   7.252 -1.8287  2.4234  2.6672
  341MOL0     H47018   4.250   2.358   7.398 -2.6007 -1.4924 -1.1904
  341MOL0     H47019   4.240   2.269   7.251  3.4711 -3.4768 -0.1510
  341MOL0     H47020   4.281   2.623   7.555 -1.9246  0.3316  2.1531
  341MOL0     H47021   4.208   2.752   7.722  1.2063  0.6471 -0.4793
  341MOL0     H47022   4.152   2.861   7.932 -2.9377  0.8317  3.7495
  341MOL0     H47023   4.269   2.725   7.970  3.3981  0.2341 -0.8153
  341MOL0     H47024   4.232   2.991   8.102 -1.7536 -0.9465 -1.8343
  341MOL0     H47025   4.170   2.833   8.180 -1.2799  1.2201 -0.3016
  341MOL0     H47026   4.452   2.934   8.177  2.3304 -1.8057 -0.9662
  341MOL0     H47027   4.417   2.761   8.179  1.1553  1.0160 -1.6530
  341MOL0     H47028   4.274   2.807   8.395 -1.9632  3.2739 -0.8103
  341MOL0     H47029   4.329   2.975   8.389 -1.7269 -0.1394 -0.1563
  341MOL0     H47030   4.522   2.752   8.421  2.0924  1.2439 -2.3686
  341MOL0     H47031   4.570   2.900   8.381  1.7330 -2.6230  0.1723
  341MOL0     H47032   4.415   2.840   8.636 -0.2953  1.0519  1.3535
  341MOL0     H47033   4.419   3.003   8.591 -1.2789 -1.2348  1.8654
  341MOL0     H47034   4.691   2.970   8.575 -0.0300  2.1951  1.6845
  341MOL0     H47035   4.658   2.827   8.665  0.1177  0.1438 -3.7006
  341MOL0     H47036   4.540   2.977   8.839  0.4989  1.1872  1.3931
  341MOL0     H47037   4.569   3.112   8.737  0.4711  1.0561 -0.9273
  341MOL0     H47038   4.596   2.854   7.847  1.0507  0.0945 -1.7495
  341MOL0     H47039   4.690   2.708   7.660 -0.4470 -1.9715  0.9537
  341MOL0     H47040   4.738   2.339   7.472 -0.9170  0.1428  1.3187
  341MOL0     H47041   4.820   2.182   7.329 -0.4613 -2.0145  4.2971
  341MOL0     H47042   3.936   2.950   5.959 -1.8908 -0.6746 -1.6521
  341MOL0     H47043   3.835   3.185   5.999 -0.3880 -2.0305 -2.1437
  341MOL0     H47044   3.763   3.473   6.307  0.6550  0.5730 -2.6265
  341MOL0     H47045   3.687   3.691   6.438 -0.9345 -3.0139  1.8892
  341MOL0     H47046   3.395   3.952   6.299 -0.6947  0.1888  0.1418
  341MOL0     H47047   3.276   3.855   6.385  0.5515 -0.3584  2.6820
  341MOL0     H47048   3.484   4.021   6.538 -0.4051  1.5524  1.0937
  341MOL0     H47049   3.337   3.963   6.603 -0.2767  0.0312 -0.5972
  341MOL0     H47050   3.197   4.114   6.469  0.0686  0.3445  1.5314
  341MOL0     H47051   3.320   4.199   6.557  0.8814 -2.2053  0.3577
  341MOL0     H47052   3.256   4.276   6.324  0.1279 -0.1545  2.0523
  341MOL0     H47053   3.353   4.141   6.251  1.2898 -4.9727  3.0015
  341MOL0     H47054   3.673   4.375   6.331  0.3094  1.6157  3.6490
  341MOL0     H47055   3.328   3.687   6.223  1.1126  0.8671 -3.1543
  341MOL0     H47056   3.350   3.358   6.070 -2.0829 -0.5816 -4.1322
  341MOL0     H47057   3.253   3.517   6.087  1.0496  3.4366 -1.6730
  341MOL0     H47058   3.370   3.491   5.962 -2.0597  3.1213  0.1124
  342MOL0     O47059   3.166   9.680   0.671  0.5888  0.0605  0.0697
  342MOL0     C47060   3.171   9.798   0.690  0.4284 -0.0153 -0.2938
  342MOL0     O47061   3.221   9.898   0.607  0.3205 -0.4639  0.3371
  342MOL0     C47062   3.314   9.870   0.515 -1.0181  1.2076 -0.1717
  342MOL0     C47063   3.401   9.761   0.512 -0.4109 -0.0137 -0.2740
  342MOL0     C47064   3.492   9.749   0.413 -0.2854  0.4658 -0.6577
  342MOL0     C47065   3.517   9.847   0.316 -0.7644  0.1923  0.2801
  342MOL0     O47066   3.607   9.806   0.228  0.2884  0.2315  0.0265
  342MOL0     C47067   3.609   9.850   0.091 -1.1311 -0.1440 -0.4889
  342MOL0     C47068   3.593   9.730  -0.005 -0.4374  0.2252 -0.3070
  342MOL0     C47069   3.728   9.650  -0.015  0.2654  0.5767  1.2143
  342MOL0     C47070   3.734   9.573  -0.146 -0.3074  0.4834 -0.5018
  342MOL0     C47071   3.859   9.474  -0.163  0.1380 -0.3571 -0.1954
  342MOL0     C47072   3.856   9.349  -0.088  0.3303 -0.0803 -0.6662
  342MOL0     C47073   3.738   9.262  -0.121  0.2006  0.0839  0.8220
  342MOL0     C47074   3.738   9.147  -0.011 -0.6058 -0.5299  0.2844
  342MOL0     N47075   3.667   9.192   0.101 -0.9616 -0.4833  0.2096
  342MOL0     C47076   3.537   9.225   0.105  0.2879  0.2777  0.2134
  342MOL0     C47077   3.537   9.317   0.214 -0.5009 -0.2168  0.3569
  342MOL0     C47078   3.429   9.404   0.280 -0.9379  0.9370  0.0859
  342MOL0     C47079   3.299   9.332   0.321  0.3851  0.0940  0.6904
  342MOL0     C47080   3.208   9.429   0.399  0.0631 -1.0653  0.3391
  342MOL0     C47081   3.180   9.560   0.335 -0.7366  0.2657 -0.3821
  342MOL0     O47082   3.112   9.545   0.212  0.6575 -0.2739 -0.0458
  342MOL0     C47083   3.091   9.653   0.126 -0.4398  0.7035 -0.7872
  342MOL0     C47084   3.133   9.786   0.153  1.1123  0.4194 -0.2073
  342MOL0     C47085   3.130   9.884   0.057  0.0223  0.9183 -0.0674
  342MOL0     C47086   3.159  10.026   0.113  0.5428 -0.1422  0.2954
  342MOL0     C47087   3.092   9.853  -0.075 -0.9374 -0.3438 -0.3029
  342MOL0     C47088   3.091   9.953  -0.195  0.1764  0.1230 -0.6949
  342MOL0     O47089   2.998   9.931  -0.292  0.4446  0.1626 -0.2994
  342MOL0     C47090   3.011   9.987  -0.413 -1.2840  0.5569  0.1412
  342MOL0     C47091   2.896  10.043  -0.473 -0.4203  0.0023 -0.1952
  342MOL0     C47092   2.898  10.101  -0.600  0.1459  0.1965 -0.3745
  342MOL0     C47093   3.019  10.105  -0.665 -0.2764  0.2452  0.1362
  342MOL0     O47094   3.023  10.169  -0.792  0.0409  0.1835 -0.5346
  342MOL0     C47095   3.032  10.078  -0.903 -0.3634  0.2479  0.5314
  342MOL0     C47096   3.001  10.168  -1.027  0.1868 -0.1175 -1.0141
  342MOL0     C47097   3.110  10.273  -1.051 -0.9282  0.2076 -0.3032
  342MOL0     C47098   3.218  10.207  -1.143  0.5730 -1.1241  0.5172
  342MOL0     C47099   3.326  10.315  -1.161  0.3167  0.8511 -0.9623
  342MOL0     C47100   3.438  10.247  -1.238 -0.2174 -0.3496 -0.0696
  342MOL0     C47101   3.549  10.352  -1.260 -0.3662 -0.1787  0.3469
  342MOL0     C47102   3.674  10.292  -1.318 -0.2438  1.4087 -0.2612
  342MOL0    Cl47103   3.830  10.345  -1.227 -0.1721 -0.3498  0.0409
  342MOL0     C47104   3.138  10.060  -0.608  1.1377 -0.2846 -0.4700
  342MOL0     C47105   3.128   9.997  -0.483 -0.9792 -0.8356 -0.1980
  342MOL0     O47106   3.169  10.043  -0.186  0.5472 -0.3793 -0.7192
  342MOL0     C47107   3.055   9.714  -0.101 -1.6186 -0.3702  0.2477
  342MOL0     C47108   3.050   9.625   0.002  0.6514  0.3392 -0.4568
  342MOL0     N47109   3.663   9.306   0.277  1.4651 -0.1038 -0.4096
  342MOL0     N47110   3.736   9.234   0.210  0.5563 -0.4337  1.5215
  342MOL0     C47111   3.440   9.961   0.312  0.5791  0.2667  0.4004
  342MOL0     C47112   3.350   9.973   0.414  0.6153  0.0041 -0.6357
  342MOL0     C47113   3.124   9.833   0.816  0.8567  0.2286 -0.4047
  342MOL0     C47114   3.010   9.909   0.833  0.1642  0.3337 -0.3266
  342MOL0     C47115   2.968   9.937   0.967  0.6140 -0.1130 -0.3213
  342MOL0     C47116   3.026   9.875   1.077 -0.0539  0.5696  0.8459
  342MOL0     O47117   2.988   9.901   1.205  0.6358 -0.0179  0.3336
  342MOL0     C47118   3.069  10.000   1.272  0.4264 -0.8791  1.3129
  342MOL0     C47119   3.010  10.143   1.248 -0.0197 -0.5683  0.7316
  342MOL0     C47120   3.096  10.238   1.343  0.4653 -0.1677  0.0688
  342MOL0     C47121   3.036  10.376   1.328  0.4746  0.0171  0.8981
  342MOL0     C47122   3.100  10.467   1.423  0.2009 -0.7155  0.4961
  342MOL0     C47123   3.157  10.542   1.506  0.4070  0.7487  0.8880
  342MOL0     C47124   3.143   9.804   1.046 -0.7235 -0.7317 -0.3155
  342MOL0     C47125   3.194   9.788   0.926  0.5796  0.3587 -0.5517
  342MOL0     C47126   3.321   9.733   0.913 -0.2771 -0.2888 -0.4184
  342MOL0     H47127   3.394   9.683   0.587 -2.0245  2.4014  2.2706
  342MOL0     H47128   3.563   9.667   0.413  2.2352  2.4853  1.2797
  342MOL0     H47129   3.703   9.901   0.066 -0.6556 -1.3122 -1.1512
  342MOL0     H47130   3.543   9.935   0.069 -0.9572 -0.4887 -2.5767
  342MOL0     H47131   3.520   9.661   0.036  1.8295 -1.9782  0.2588
  342MOL0     H47132   3.562   9.763  -0.105  0.7879 -0.0789 -0.8143
  342MOL0     H47133   3.821   9.708  -0.016  1.4842 -1.2813 -0.3783
  342MOL0     H47134   3.736   9.578   0.068 -0.7777 -0.5627  0.3616
  342MOL0     H47135   3.639   9.521  -0.160 -0.5267  0.3004  1.4330
  342MOL0     H47136   3.743   9.642  -0.231  0.4308 -0.6075 -1.3320
  342MOL0     H47137   3.954   9.518  -0.132  0.2528 -0.6545 -0.1208
  342MOL0     H47138   3.866   9.460  -0.271 -3.5014  1.8367 -0.9085
  342MOL0     H47139   3.951   9.295  -0.097 -0.2130 -0.8765 -1.7429
  342MOL0     H47140   3.843   9.368   0.019  0.8569  1.4344 -0.8377
  342MOL0     H47141   3.746   9.225  -0.224 -3.3111  2.6111 -0.5533
  342MOL0     H47142   3.644   9.319  -0.125  0.9567  1.7125  3.8309
  342MOL0     H47143   3.684   9.060  -0.048 -1.8507 -0.8785  2.7044
  342MOL0     H47144   3.838   9.118   0.021 -0.8763  0.0120  1.6637
  342MOL0     H47145   3.450   9.209   0.042  3.1286  0.6885 -4.2087
  342MOL0     H47146   3.421   9.487   0.208  2.0761  2.4684  1.3200
  342MOL0     H47147   3.478   9.449   0.367 -1.4328 -0.5318  1.1574
  342MOL0     H47148   3.252   9.289   0.233  0.9070  0.5528  0.1768
  342MOL0     H47149   3.330   9.252   0.389  1.6011 -0.0934 -0.0488
  342MOL0     H47150   3.120   9.371   0.426  1.3540 -1.9825  2.9463
  342MOL0     H47151   3.254   9.455   0.495  3.6503 -2.4526 -0.8214
  342MOL0     H47152   3.128   9.628   0.403  0.0659  0.8482 -0.3387
  342MOL0     H47153   3.272   9.614   0.312  0.3275  0.4000  3.4045
  342MOL0     H47154   3.156   9.811   0.256  0.8352 -1.4672  0.3611
  342MOL0     H47155   3.084  10.093   0.069 -0.6381 -2.1110 -0.8452
  342MOL0     H47156   3.261  10.056   0.088  2.1166 -2.9146  2.7388
  342MOL0     H47157   3.141  10.028   0.221 -0.9555  1.7466  0.0622
  342MOL0     H47158   2.801  10.026  -0.425  0.2661  0.1748  1.2723
  342MOL0     H47159   2.809  10.144  -0.647  0.2409  0.5899 -0.1995
  342MOL0     H47160   3.137  10.050  -0.916 -0.3549  1.3594 -2.5811
  342MOL0     H47161   2.955  10.003  -0.883  0.4113 -1.2285 -1.7201
  342MOL0     H47162   2.975  10.118  -1.122  0.0363  1.4895 -1.8567
  342MOL0     H47163   2.903  10.203  -0.993 -1.0573 -4.7555  0.8915
  342MOL0     H47164   3.163  10.305  -0.961  0.5190  0.1756 -1.1133
  342MOL0     H47165   3.077  10.371  -1.086 -1.1285  0.2857  0.0982
  342MOL0     H47166   3.185  10.182  -1.245  3.9398  0.7228 -1.1831
  342MOL0     H47167   3.251  10.117  -1.092 -0.3800 -1.5065  0.4736
  342MOL0     H47168   3.290  10.403  -1.216 -1.5968  0.0583 -1.0859
  342MOL0     H47169   3.348  10.351  -1.060 -3.6886  4.3375 -1.0423
  342MOL0     H47170   3.404  10.201  -1.332 -1.7313 -0.2414  0.3994
  342MOL0     H47171   3.474  10.173  -1.166 -2.3869  1.2320  2.8409
  342MOL0     H47172   3.584  10.398  -1.167  0.2559  1.9250 -0.8466
  342MOL0     H47173   3.511  10.430  -1.327 -0.0804  0.3936  0.8365
  342MOL0     H47174   3.681  10.312  -1.425 -0.3023  1.8939 -0.1733
  342MOL0     H47175   3.677  10.183  -1.309  0.0060  1.5065  1.0747
  342MOL0     H47176   3.234  10.083  -0.655  1.3584  1.8038  0.8764
  342MOL0     H47177   3.221   9.973  -0.432 -1.1028  0.6705  0.8032
  342MOL0     H47178   3.015   9.686  -0.198 -0.0521  0.9857 -0.8485
  342MOL0     H47179   3.026   9.522  -0.024  2.6801  0.5421 -3.7253
  342MOL0     H47180   3.445  10.032   0.230 -2.4934  0.5064  0.3026
  342MOL0     H47181   3.296  10.066   0.422  3.0897  1.4246  0.6812
  342MOL0     H47182   2.963   9.956   0.747 -1.4897  0.7592  0.7506
  342MOL0     H47183   2.882  10.003   0.975  0.1377 -0.7072 -0.4004
  342MOL0     H47184   3.074   9.975   1.378 -0.5102  2.5710  2.3027
  342MOL0     H47185   3.174   9.997   1.238  0.4001  0.9352  0.9481
  342MOL0     H47186   2.907  10.147   1.283  0.2877  3.0924  1.7226
  342MOL0     H47187   3.003  10.163   1.141 -0.1567 -2.4091  0.3767
  342MOL0     H47188   3.081  10.208   1.447 -1.1967 -1.5658 -0.5172
  342MOL0     H47189   3.203  10.233   1.325  0.2515 -1.3517 -1.0225
  342MOL0     H47190   2.930  10.380   1.354  0.1738 -2.5781  0.2650
  342MOL0     H47191   3.065  10.403   1.226  3.5741 -2.2421  1.0466
  342MOL0     H47192   3.215  10.596   1.578 -1.4898  0.0813  2.9988
  342MOL0     H47193   3.197   9.777   1.137 -2.2725 -1.8447  0.3291
  342MOL0     H47194   3.317   9.626   0.890 -0.6109 -0.0355 -1.6330
  342MOL0     H47195   3.376   9.777   0.830 -2.4124  0.7473 -1.3567
  342MOL0     H47196   3.374   9.753   1.007 -1.0658 -1.9194  0.4260
  343MOL0     O47197   2.076   7.629   7.745 -0.0947  0.0625  0.1153
  343MOL0     C47198   2.159   7.604   7.659  0.0569  0.5057  0.3781
  343MOL0     O47199   2.297   7.576   7.678  0.3437 -0.0097 -0.0069
  343MOL0     C47200   2.357   7.606   7.800  0.5429  0.0684  0.0280
  343MOL0     C47201   2.322   7.696   7.894  0.7378  0.0420 -0.0569
  343MOL0     C47202   2.401   7.723   8.010 -0.2389  0.1158 -0.6738
  343MOL0     C47203   2.510   7.633   8.048 -0.4247 -0.7489 -0.0922
  343MOL0     O47204   2.579   7.641   8.167 -0.2459 -0.2377 -0.9905
  343MOL0     C47205   2.724   7.672   8.162 -0.1066 -0.6955 -0.3875
  343MOL0     C47206   2.757   7.806   8.108  0.2077 -0.0146  0.3488
  343MOL0     C47207   2.700   7.920   8.196  0.0774 -0.2174 -0.0870
  343MOL0     C47208   2.689   8.053   8.120  0.3720 -0.1606 -0.2211
  343MOL0     C47209   2.820   8.118   8.081  0.6939 -0.6558  0.7595
  343MOL0     C47210   2.874   8.195   8.210  0.9286  0.3170  0.0716
  343MOL0     C47211   3.005   8.275   8.183 -0.0042  0.7664 -0.5407
  343MOL0     C47212   3.124   8.197   8.243  0.4926  0.0854  0.2341
  343MOL0     N47213   3.257   8.251   8.206  0.0079  0.2234 -0.0860
  343MOL0     C47214   3.290   8.383   8.220  0.3658  0.2843  1.5260
  343MOL0     C47215   3.420   8.394   8.173  0.0923 -0.1780  0.0941
  343MOL0     C47216   3.516   8.504   8.191 -0.5166 -0.5043 -0.0837
  343MOL0     C47217   3.574   8.479   8.338  0.0529  0.0467 -0.3716
  343MOL0     C47218   3.491   8.547   8.443 -0.0722 -0.5103  0.1593
  343MOL0     C47219   3.534   8.503   8.587 -1.1758 -0.0710  0.5505
  343MOL0     O47220   3.432   8.403   8.638  0.0788  0.2484 -0.3925
  343MOL0     C47221   3.484   8.285   8.696  0.7026  0.2412 -0.3211
  343MOL0     C47222   3.580   8.199   8.648  0.8738  0.1414 -0.2247
  343MOL0     C47223   3.640   8.094   8.720 -0.2859  0.4515  0.9826
  343MOL0     C47224   3.775   8.048   8.678  0.6890  0.1959 -0.0109
  343MOL0     C47225   3.589   8.066   8.847 -0.2921 -0.1540 -0.6075
  343MOL0     C47226   3.648   7.975   8.939  0.7048 -0.4206  0.2680
  343MOL0     O47227   3.684   8.013   9.059  0.2773  0.4059  0.4642
  343MOL0     C47228   3.792   7.946   9.117 -0.2023 -0.8965  0.0167
  343MOL0     C47229   3.883   7.864   9.052 -0.6752 -0.2814  0.8018
  343MOL0     C47230   3.982   7.794   9.124 -0.0031 -0.0092 -0.4941
  343MOL0     C47231   3.986   7.802   9.265 -0.3461 -0.3523  0.3259
  343MOL0     O47232   4.055   7.730   9.354  0.3288  0.5026 -0.1698
  343MOL0     C47233   4.173   7.661   9.297 -0.2342  0.5050  0.0023
  343MOL0     C47234   4.256   7.628   9.414 -0.6759  0.0704 -0.4448
  343MOL0     C47235   4.196   7.503   9.482  0.1629 -0.7243 -0.1985
  343MOL0     C47236   4.284   7.372   9.478  0.4884  0.4711 -0.1349
  343MOL0     C47237   4.224   7.271   9.579 -0.1950 -0.3023  0.3711
  343MOL0     C47238   4.319   7.152   9.586  0.1178  0.2974 -0.4613
  343MOL0     C47239   4.438   7.169   9.688  0.4875  0.1972  0.7627
  343MOL0     C47240   4.554   7.083   9.680 -0.9969 -1.0491 -0.7811
  343MOL0    Cl47241   4.634   7.099   9.520  0.0119 -0.0428 -0.3159
  343MOL0     C47242   3.912   7.896   9.335  0.5384  0.0807  0.1065
  343MOL0     C47243   3.814   7.972   9.257  0.3031  0.5227  0.2093
  343MOL0     O47244   3.632   7.862   8.899  0.4037 -0.0944  0.2970
  343MOL0     C47245   3.479   8.147   8.893 -0.3364 -0.0524 -0.7687
  343MOL0     C47246   3.427   8.246   8.816  0.6140 -0.3783 -0.8505
  343MOL0     N47247   3.454   8.277   8.113  0.9520 -0.4782  0.4819
  343MOL0     N47248   3.351   8.193   8.124  0.0175  0.3344 -0.4690
  343MOL0     C47249   2.528   7.521   7.964 -0.1416 -0.1545  0.1179
  343MOL0     C47250   2.463   7.514   7.837  0.4189  0.1165  0.2754
  343MOL0     C47251   2.105   7.592   7.516 -0.2276  0.5187 -0.4737
  343MOL0     C47252   1.980   7.539   7.498 -0.8321  0.1877  0.0592
  343MOL0     C47253   1.925   7.534   7.366 -0.4286 -1.5320  0.4103
  343MOL0     C47254   1.995   7.587   7.267  0.9190 -0.1446  0.5229
  343MOL0     O47255   1.950   7.606   7.134  0.4023  0.0309 -1.0858
  343MOL0     C47256   1.827   7.569   7.085  0.2339 -0.3531 -0.1878
  343MOL0     C47257   1.718   7.675   7.131 -0.4017 -0.5127  0.3190
  343MOL0     C47258   1.601   7.665   7.028 -1.0791 -0.8596  0.4366
  343MOL0     C47259   1.522   7.790   6.995 -0.2291 -0.8853 -0.2548
  343MOL0     C47260   1.512   7.884   7.115  0.5934 -0.1523 -0.4137
  343MOL0     C47261   1.526   7.965   7.210  0.3863  0.4040  0.5595
  343MOL0     C47262   2.122   7.618   7.279 -0.4683 -0.7666 -0.7434
  343MOL0     C47263   2.175   7.632   7.406 -0.1333 -0.3537 -0.6969
  343MOL0     C47264   2.316   7.684   7.416 -0.3865 -0.8334 -0.1752
  343MOL0     H47265   2.236   7.762   7.881  1.6925  1.6460  1.2857
  343MOL0     H47266   2.369   7.802   8.078  0.8501  1.6192 -1.8213
  343MOL0     H47267   2.769   7.598   8.096  0.1528  0.6530 -1.7857
  343MOL0     H47268   2.773   7.679   8.259 -3.2633 -0.0761  1.3091
  343MOL0     H47269   2.866   7.801   8.105  0.1977 -1.3072  1.2017
  343MOL0     H47270   2.731   7.812   8.002  1.3947 -2.5526 -0.1793
  343MOL0     H47271   2.597   7.908   8.229 -0.5336  2.3043 -0.9031
  343MOL0     H47272   2.765   7.934   8.283  0.3842  2.6035 -0.6804
  343MOL0     H47273   2.628   8.039   8.030  0.6947  0.8839 -0.6225
  343MOL0     H47274   2.625   8.122   8.176 -0.1598 -0.5916 -0.2948
  343MOL0     H47275   2.811   8.190   7.999  1.0486 -0.7981  0.5948
  343MOL0     H47276   2.892   8.044   8.045  1.0244 -0.4797  1.0586
  343MOL0     H47277   2.804   8.276   8.233 -0.4275  0.6452 -4.3176
  343MOL0     H47278   2.876   8.126   8.295 -1.9065  0.7745  0.6065
  343MOL0     H47279   3.006   8.373   8.231 -0.3134 -0.5356  2.3203
  343MOL0     H47280   3.027   8.289   8.077 -0.3795 -1.2807 -0.9376
  343MOL0     H47281   3.116   8.211   8.351  1.0712  0.8200  0.1935
  343MOL0     H47282   3.118   8.090   8.221  3.8231 -0.2477  0.3980
  343MOL0     H47283   3.234   8.458   8.275  0.8716 -0.5772  3.2833
  343MOL0     H47284   3.469   8.603   8.192  2.5137  1.0540  1.0131
  343MOL0     H47285   3.597   8.500   8.118 -0.6325 -0.0716 -0.2404
  343MOL0     H47286   3.591   8.373   8.360  0.5608  0.5758  2.0800
  343MOL0     H47287   3.669   8.531   8.352 -0.7025  0.6853  3.6032
  343MOL0     H47288   3.508   8.654   8.427 -0.9251 -0.2881  0.6519
  343MOL0     H47289   3.384   8.525   8.434 -0.4190  1.7365 -2.3526
  343MOL0     H47290   3.635   8.464   8.570 -1.5294 -1.3142  1.2077
  343MOL0     H47291   3.548   8.579   8.664  1.1614 -0.6462  0.7939
  343MOL0     H47292   3.616   8.225   8.549 -2.6722  0.1921 -1.6441
  343MOL0     H47293   3.775   7.939   8.669  1.9991 -0.0045  1.9732
  343MOL0     H47294   3.835   8.065   8.768 -0.0633 -1.6305  0.8877
  343MOL0     H47295   3.807   8.111   8.594 -2.0011 -1.1440 -2.2149
  343MOL0     H47296   3.857   7.831   8.952 -1.0280 -0.3915  0.9250
  343MOL0     H47297   4.042   7.712   9.085 -1.0276 -1.0181 -0.0336
  343MOL0     H47298   4.145   7.573   9.238  1.4807  0.5682 -0.9564
  343MOL0     H47299   4.224   7.732   9.232  2.1059 -1.0569  0.0163
  343MOL0     H47300   4.354   7.602   9.375  0.2585  0.8570  1.2496
  343MOL0     H47301   4.268   7.707   9.489  0.1816 -0.0550 -0.4356
  343MOL0     H47302   4.097   7.483   9.442 -0.3038  1.5797 -0.3431
  343MOL0     H47303   4.176   7.519   9.589 -0.6916  0.1358 -0.4715
  343MOL0     H47304   4.387   7.396   9.506  0.7057 -2.5962  2.2189
  343MOL0     H47305   4.279   7.322   9.381 -1.4902 -0.5274  0.4216
  343MOL0     H47306   4.208   7.319   9.675  1.0323  0.1866  0.3491
  343MOL0     H47307   4.130   7.249   9.526  1.6046 -0.2993 -3.1628
  343MOL0     H47308   4.354   7.123   9.486  1.5446 -0.8342  0.3196
  343MOL0     H47309   4.274   7.060   9.624  1.3719 -1.1027 -2.1339
  343MOL0     H47310   4.394   7.154   9.787  1.7112 -1.7666  1.0623
  343MOL0     H47311   4.463   7.275   9.686 -2.4832  1.0407  2.1642
  343MOL0     H47312   4.538   6.977   9.705 -1.9125 -0.6374  0.4931
  343MOL0     H47313   4.625   7.128   9.750 -1.1005  0.4623 -1.6167
  343MOL0     H47314   3.917   7.910   9.443  0.5743 -1.1513  0.2830
  343MOL0     H47315   3.745   8.043   9.302 -1.8012 -1.6247  0.5726
  343MOL0     H47316   3.437   8.116   8.989  0.6360 -1.1238 -0.6563
  343MOL0     H47317   3.355   8.318   8.853  0.7944  0.7420 -2.5357
  343MOL0     H47318   2.603   7.446   7.988  2.8546  2.4600 -0.3898
  343MOL0     H47319   2.476   7.440   7.759  4.1622 -0.8763  1.6331
  343MOL0     H47320   1.931   7.499   7.586 -0.8150  0.8730  0.3882
  343MOL0     H47321   1.821   7.503   7.365 -0.7616 -0.4517 -0.1153
  343MOL0     H47322   1.833   7.573   6.976 -1.7120  0.1760 -0.3134
  343MOL0     H47323   1.812   7.464   7.115  2.0957 -0.0140  2.2676
  343MOL0     H47324   1.773   7.769   7.140  3.0096 -2.2840 -0.1753
  343MOL0     H47325   1.686   7.644   7.231  1.3574 -0.7909  0.8307
  343MOL0     H47326   1.615   7.623   6.928 -2.9484  2.2810 -1.3022
  343MOL0     H47327   1.533   7.600   7.083 -1.4645  0.8610  2.1212
  343MOL0     H47328   1.427   7.788   6.940 -2.3395  3.3166  2.6964
  343MOL0     H47329   1.587   7.849   6.928  2.2536 -1.5766  1.3971
  343MOL0     H47330   1.546   8.038   7.285  4.6174  0.0757 -0.0021
  343MOL0     H47331   2.187   7.648   7.198 -1.2904 -0.4440 -1.2995
  343MOL0     H47332   2.324   7.743   7.508  0.4707  1.0300 -1.3791
  343MOL0     H47333   2.380   7.597   7.430 -2.2964 -2.1928  0.5836
  343MOL0     H47334   2.352   7.737   7.328 -0.5671 -1.1745 -0.4559
  344MOL0     O47335  10.832   9.955   7.404  0.9603  0.4023 -0.3599
  344MOL0     C47336  10.858  10.070   7.424 -0.2646  0.6159 -0.0272
  344MOL0     O47337  10.866  10.138   7.545 -0.0582  0.4905  0.6837
  344MOL0     C47338  10.806  10.071   7.646 -0.2831  1.2365 -0.4081
  344MOL0     C47339  10.874  10.076   7.776  0.1779  0.2960  0.1910
  344MOL0     C47340  10.812  10.027   7.893  0.6391  0.0013 -0.5324
  344MOL0     C47341  10.686   9.969   7.888  0.7099  0.4582 -0.4070
  344MOL0     O47342  10.622   9.944   8.011  0.2450  0.5434 -0.9471
  344MOL0     C47343  10.483   9.903   8.000  0.4869  0.8719 -0.1456
  344MOL0     C47344  10.439   9.864   8.144 -0.1994  0.7291  0.0235
  344MOL0     C47345  10.297   9.793   8.152  0.1006 -0.0963  0.0800
  344MOL0     C47346  10.328   9.638   8.159 -0.3244 -0.1903 -0.1475
  344MOL0     C47347  10.214   9.558   8.213  0.9229  1.2439  0.6082
  344MOL0     C47348  10.085   9.565   8.127 -0.8266 -0.4656  1.1046
  344MOL0     C47349   9.979   9.460   8.178 -0.0935 -0.0648 -0.5403
  344MOL0     C47350   9.937   9.464   8.330 -0.5889 -0.1608  0.1650
  344MOL0     N47351   9.812   9.394   8.369 -0.4157  0.0743 -0.3025
  344MOL0     C47352   9.687   9.418   8.324  1.2292 -0.0444  0.8400
  344MOL0     C47353   9.601   9.344   8.398  0.0451  0.3415  0.1901
  344MOL0     C47354   9.450   9.334   8.377  1.1709 -0.2540 -0.1818
  344MOL0     C47355   9.390   9.228   8.460  0.3112 -0.1328 -0.4239
  344MOL0     C47356   9.241   9.199   8.440  0.1185  0.3291 -0.1833
  344MOL0     C47357   9.141   9.306   8.415  0.0045 -0.7428 -0.2668
  344MOL0     O47358   9.130   9.335   8.277 -0.5044 -0.5853 -0.1784
  344MOL0     C47359   9.027   9.414   8.239  0.8136  0.3120  0.0688
  344MOL0     C47360   8.897   9.397   8.286 -0.6108  0.1095  0.3722
  344MOL0     C47361   8.791   9.477   8.246 -0.1035  0.4332 -0.5020
  344MOL0     C47362   8.650   9.439   8.298 -0.1769 -0.0078 -0.5781
  344MOL0     C47363   8.820   9.566   8.139 -0.0449 -0.3751 -0.5605
  344MOL0     C47364   8.708   9.641   8.074 -0.0728 -0.8564 -1.1707
  344MOL0     O47365   8.719   9.652   7.939 -0.1345  0.6233  0.7305
  344MOL0     C47366   8.627   9.733   7.875  0.1704 -0.6040 -0.6073
  344MOL0     C47367   8.501   9.693   7.830  0.3037  0.1252 -0.2094
  344MOL0     C47368   8.408   9.787   7.770  0.0621 -0.5203  0.0369
  344MOL0     C47369   8.447   9.918   7.743 -0.6033  0.1439  0.1717
  344MOL0     O47370   8.362  10.016   7.691  0.3447 -0.5837  0.0246
  344MOL0     C47371   8.239   9.971   7.634  0.2012 -0.8344  0.3501
  344MOL0     C47372   8.165  10.103   7.604  0.0627 -1.1761 -0.0108
  344MOL0     C47373   8.016  10.085   7.569 -0.1241  0.6408 -0.6822
  344MOL0     C47374   7.996  10.005   7.439  0.7108 -0.3329  0.7610
  344MOL0     C47375   7.847   9.991   7.399 -0.3615 -0.4139 -0.3451
  344MOL0     C47376   7.813  10.045   7.256  0.4017 -0.1944  0.9423
  344MOL0     C47377   7.682   9.993   7.188 -0.0102 -0.4401 -0.0164
  344MOL0     C47378   7.556  10.039   7.278  0.1295 -0.5275 -0.5808
  344MOL0    Cl47379   7.551  10.210   7.296  0.0722  0.2276  0.3943
  344MOL0     C47380   8.575   9.958   7.793  0.0355  0.4659  0.5992
  344MOL0     C47381   8.667   9.872   7.854  0.4168 -0.4437  0.9103
  344MOL0     O47382   8.625   9.700   8.136  0.0507 -0.8229 -1.3427
  344MOL0     C47383   8.947   9.582   8.090  0.6175 -0.7412 -0.2048
  344MOL0     C47384   9.046   9.508   8.135 -0.2544 -0.5418  1.3179
  344MOL0     N47385   9.682   9.271   8.482  0.2880 -0.2964 -0.3771
  344MOL0     N47386   9.809   9.289   8.468 -0.2374 -0.2066  0.3895
  344MOL0     C47387  10.624   9.960   7.761  0.1360 -0.6976 -0.3649
  344MOL0     C47388  10.679  10.017   7.644  0.4482 -1.2547 -1.0399
  344MOL0     C47389  10.897  10.134   7.295  1.2852 -0.4204  0.1005
  344MOL0     C47390  10.831  10.092   7.178  0.0223 -0.1192  0.4682
  344MOL0     C47391  10.841  10.158   7.055  0.0910 -0.0017 -0.5084
  344MOL0     C47392  10.941  10.249   7.036  0.8086 -0.9967 -0.0305
  344MOL0     O47393  10.964  10.300   6.910 -0.0118 -0.1899 -0.4309
  344MOL0     C47394  11.066  10.400   6.883  0.0088 -0.3391 -0.6450
  344MOL0     C47395  11.200  10.351   6.824  0.1898 -0.3932 -0.6121
  344MOL0     C47396  11.193  10.242   6.715 -0.0566 -0.2875 -0.9326
  344MOL0     C47397  11.178  10.304   6.570 -0.5164 -0.0741 -1.4501
  344MOL0     C47398  11.127  10.210   6.473  1.4093 -0.0090  0.0198
  344MOL0     C47399  11.078  10.133   6.394  0.1644  0.0955  0.4857
  344MOL0     C47400  11.009  10.298   7.149  0.0777  0.2176  0.0688
  344MOL0     C47401  10.996  10.237   7.275  0.8088  1.1064  0.1041
  344MOL0     C47402  11.085  10.283   7.392  0.4807 -0.2279  0.6059
  344MOL0     H47403  10.975  10.111   7.794 -0.8605  2.0359  3.2929
  344MOL0     H47404  10.844  10.048   7.995 -0.1306  2.8409 -0.7891
  344MOL0     H47405  10.449   9.824   7.934 -1.3532  1.2254  0.3237
  344MOL0     H47406  10.420   9.990   7.976  0.1824  0.8819  0.6557
  344MOL0     H47407  10.519   9.798   8.180  2.3770  1.0746 -4.3648
  344MOL0     H47408  10.439   9.956   8.202  1.9287  0.8015 -0.0320
  344MOL0     H47409  10.262   9.826   8.250 -0.0797 -0.0101 -0.0150
  344MOL0     H47410  10.230   9.821   8.070 -1.2349 -2.1926  0.3694
  344MOL0     H47411  10.343   9.601   8.057 -1.1769 -1.0304  0.0158
  344MOL0     H47412  10.413   9.614   8.224 -0.2234  2.1208  0.6419
  344MOL0     H47413  10.179   9.591   8.311 -1.3367  0.6343  0.0706
  344MOL0     H47414  10.242   9.453   8.227  0.7732  0.9440 -1.0519
  344MOL0     H47415  10.046   9.667   8.131 -0.5782 -0.3363  0.3364
  344MOL0     H47416  10.118   9.537   8.026 -0.0394  1.7437  0.6960
  344MOL0     H47417  10.002   9.357   8.149  1.0499  0.0494 -0.0925
  344MOL0     H47418   9.895   9.478   8.111 -0.2566  0.3347 -0.2356
  344MOL0     H47419  10.013   9.429   8.401 -1.0858 -1.6911 -0.0335
  344MOL0     H47420   9.933   9.572   8.351  2.2815 -0.0481  0.5625
  344MOL0     H47421   9.655   9.484   8.244  1.3781 -0.3303  0.5412
  344MOL0     H47422   9.439   9.312   8.270  0.4343  2.5566 -0.7837
  344MOL0     H47423   9.398   9.429   8.394  2.1147 -0.0391  1.8619
  344MOL0     H47424   9.436   9.129   8.451  3.5424  1.3106 -1.4225
  344MOL0     H47425   9.411   9.249   8.566 -1.4265  4.4050 -0.7859
  344MOL0     H47426   9.211   9.114   8.379 -1.9345  0.3041  0.7699
  344MOL0     H47427   9.226   9.175   8.546  0.3696 -0.1955 -0.2655
  344MOL0     H47428   9.047   9.279   8.462 -0.4186  0.8502 -0.1359
  344MOL0     H47429   9.182   9.394   8.466  0.0613 -1.4889  1.0253
  344MOL0     H47430   8.874   9.315   8.354 -2.0177  0.9772  1.0145
  344MOL0     H47431   8.571   9.490   8.242  0.8541  2.9975  0.5150
  344MOL0     H47432   8.623   9.452   8.403 -4.1812 -0.7967 -1.3660
  344MOL0     H47433   8.643   9.331   8.281  0.7554  0.1714 -2.4093
  344MOL0     H47434   8.473   9.592   7.859  3.1813 -0.4840  0.7041
  344MOL0     H47435   8.308   9.747   7.752 -0.1001 -0.9922  1.7531
  344MOL0     H47436   8.252   9.915   7.541 -1.6670 -1.5744  0.4940
  344MOL0     H47437   8.179   9.908   7.699  0.6396 -1.6934 -0.0663
  344MOL0     H47438   8.177  10.175   7.685  0.1069 -1.3283  0.1200
  344MOL0     H47439   8.219  10.148   7.521  0.4872 -2.1028 -0.2590
  344MOL0     H47440   7.975  10.187   7.565 -0.3903  0.6844  1.5487
  344MOL0     H47441   7.959  10.032   7.646  2.1370 -2.3099 -0.8835
  344MOL0     H47442   8.022   9.899   7.448 -1.2035 -1.0338 -1.2352
  344MOL0     H47443   8.056  10.046   7.358 -1.4274 -3.3134 -2.6351
  344MOL0     H47444   7.818   9.887   7.418 -1.7935  0.3591  2.2722
  344MOL0     H47445   7.791  10.050   7.473 -0.1396  0.5901 -0.9620
  344MOL0     H47446   7.895  10.007   7.194  0.1578  0.7347  0.0245
  344MOL0     H47447   7.825  10.153   7.249 -1.1351 -0.0646 -0.1103
  344MOL0     H47448   7.696   9.886   7.171  1.0140  0.1963 -4.0857
  344MOL0     H47449   7.677  10.020   7.083 -0.7261 -0.5320 -0.0168
  344MOL0     H47450   7.552   9.992   7.376 -4.0168 -1.5294 -1.0482
  344MOL0     H47451   7.460  10.016   7.231 -1.1324 -1.7689  2.3473
  344MOL0     H47452   8.609  10.059   7.771  0.7524  0.3409  1.1078
  344MOL0     H47453   8.765   9.907   7.883  0.5189  0.9169 -0.8992
  344MOL0     H47454   8.961   9.663   8.020  2.4622 -1.5569 -0.8203
  344MOL0     H47455   9.145   9.538   8.104 -1.4524  2.0016 -0.4617
  344MOL0     H47456  10.525   9.915   7.763 -0.3483  0.3495  0.5545
  344MOL0     H47457  10.622  10.023   7.552  0.5205 -0.1942 -1.0304
  344MOL0     H47458  10.759  10.013   7.161  0.1010 -0.6205  2.2754
  344MOL0     H47459  10.781  10.131   6.968 -2.6222  0.6673  1.0249
  344MOL0     H47460  11.020  10.465   6.809 -0.3084 -2.1804 -2.1643
  344MOL0     H47461  11.086  10.463   6.970 -0.8702  1.1112 -1.4655
  344MOL0     H47462  11.260  10.317   6.909  0.6460  1.2714 -0.2230
  344MOL0     H47463  11.247  10.438   6.778 -1.8276  2.0110  1.5725
  344MOL0     H47464  11.283  10.186   6.737 -0.2379  0.4961  2.1966
  344MOL0     H47465  11.118  10.164   6.732 -0.7291  0.5325 -0.0158
  344MOL0     H47466  11.266  10.358   6.533  0.5180 -0.2665  0.6288
  344MOL0     H47467  11.103  10.384   6.577  0.1129  0.3774  0.8399
  344MOL0     H47468  11.036  10.048   6.344 -0.2451 -0.8155  2.3137
  344MOL0     H47469  11.081  10.379   7.150  1.2283 -0.7219  3.0864
  344MOL0     H47470  11.025  10.344   7.460  0.7125  1.3966 -0.5836
  344MOL0     H47471  11.138  10.198   7.434  0.1216 -0.1701  1.1776
  344MOL0     H47472  11.169  10.341   7.353 -0.6824  1.8109  0.9489
  345MOL0     O47473   5.132   3.583   7.536 -0.3730 -0.1436  0.6615
  345MOL0     C47474   5.111   3.472   7.573  0.3954  0.6352  1.1468
  345MOL0     O47475   5.012   3.399   7.527 -0.2241  0.2456  1.4646
  345MOL0     C47476   4.969   3.430   7.397  0.8754  1.0641  0.2145
  345MOL0     C47477   4.837   3.459   7.360 -0.2770 -0.8052  0.1452
  345MOL0     C47478   4.801   3.469   7.224  0.9137 -0.2027 -0.6421
  345MOL0     C47479   4.889   3.462   7.120  0.4392 -1.1655 -0.0569
  345MOL0     O47480   4.861   3.458   6.983  0.4973  0.3742  0.5575
  345MOL0     C47481   4.766   3.353   6.962  0.5047  0.7399 -0.3024
  345MOL0     C47482   4.758   3.311   6.817  0.5074 -0.6293 -0.4523
  345MOL0     C47483   4.860   3.207   6.773  0.7425  0.7492  0.0779
  345MOL0     C47484   4.999   3.249   6.741 -0.0231 -0.4968  0.8556
  345MOL0     C47485   5.077   3.137   6.682  0.0143  0.4551  0.0253
  345MOL0     C47486   5.215   3.194   6.636  0.3647 -0.2051 -0.4638
  345MOL0     C47487   5.221   3.246   6.489  0.0003  0.6648  0.2857
  345MOL0     C47488   5.176   3.150   6.378  0.7908 -0.3832 -0.3613
  345MOL0     N47489   5.268   3.042   6.370 -0.2370 -0.5140  0.1985
  345MOL0     C47490   5.396   3.036   6.320 -0.3135  0.0641 -0.4501
  345MOL0     C47491   5.437   2.912   6.363  0.5548  0.1156  0.1525
  345MOL0     C47492   5.583   2.872   6.353  0.8282  0.9538  0.8031
  345MOL0     C47493   5.676   2.919   6.474  0.1173  0.3460  0.1198
  345MOL0     C47494   5.630   2.858   6.604  0.3768 -0.1727  0.1357
  345MOL0     C47495   5.721   2.899   6.723  0.1184 -0.1954 -0.4836
  345MOL0     O47496   5.864   2.872   6.699  0.0663  0.9491 -0.2676
  345MOL0     C47497   5.952   2.972   6.689 -0.1941  0.0242 -0.1457
  345MOL0     C47498   5.933   3.110   6.676  1.3773  0.3417  0.3559
  345MOL0     C47499   6.041   3.202   6.674 -0.6294 -1.4469 -0.1436
  345MOL0     C47500   6.010   3.349   6.679  0.4017 -0.6584  0.1853
  345MOL0     C47501   6.176   3.156   6.700  0.1856  0.9246  0.2370
  345MOL0     C47502   6.302   3.228   6.714  0.4206 -0.3920 -0.2114
  345MOL0     O47503   6.304   3.342   6.781  0.0338 -0.8687 -0.5630
  345MOL0     C47504   6.386   3.451   6.745  1.1699 -0.8847 -0.4319
  345MOL0     C47505   6.425   3.477   6.619  0.4171 -0.6887  0.8059
  345MOL0     C47506   6.476   3.596   6.574 -0.5086 -0.2729  0.2641
  345MOL0     C47507   6.499   3.702   6.663 -0.4335 -0.5176 -0.9396
  345MOL0     O47508   6.552   3.826   6.633  0.3368 -0.4005 -0.0984
  345MOL0     C47509   6.454   3.935   6.613 -0.7944  0.5764 -0.5481
  345MOL0     C47510   6.381   3.994   6.737 -0.1846 -0.2761  0.3878
  345MOL0     C47511   6.280   4.101   6.698 -0.3199 -0.8056 -0.1701
  345MOL0     C47512   6.258   4.201   6.813  1.0877  1.0089 -0.7185
  345MOL0     C47513   6.150   4.289   6.780 -0.5803 -0.3929  0.3591
  345MOL0     C47514   6.190   4.404   6.681 -0.3583  0.0826  0.0950
  345MOL0     C47515   6.125   4.546   6.701 -0.6109  0.6417 -0.1068
  345MOL0     C47516   6.126   4.612   6.568  0.0437 -0.0939  0.3988
  345MOL0    Cl47517   6.309   4.662   6.529  0.2922  0.1119  0.0187
  345MOL0     C47518   6.462   3.677   6.799  1.0586  0.2817 -0.5496
  345MOL0     C47519   6.396   3.561   6.833 -0.5806  0.0844 -0.4798
  345MOL0     O47520   6.395   3.184   6.652 -0.2780  0.1695  0.2292
  345MOL0     C47521   6.196   3.011   6.716 -0.8130  0.3462  0.2245
  345MOL0     C47522   6.085   2.928   6.707 -0.6992  0.2257  0.5245
  345MOL0     N47523   5.335   2.841   6.418 -1.0777  0.0649 -0.3734
  345MOL0     N47524   5.234   2.922   6.427 -0.0876  0.5879 -0.3812
  345MOL0     C47525   5.030   3.447   7.161  0.2474 -0.3796  0.4586
  345MOL0     C47526   5.065   3.430   7.292 -0.1377 -0.6752 -0.3176
  345MOL0     C47527   5.189   3.410   7.686  0.2994  0.6241  0.6092
  345MOL0     C47528   5.151   3.284   7.728  1.2546  0.8522  0.3174
  345MOL0     C47529   5.217   3.216   7.818 -0.3712 -0.3643 -0.0166
  345MOL0     C47530   5.335   3.261   7.876 -0.8587  0.4155 -0.5400
  345MOL0     O47531   5.397   3.168   7.965  0.3772 -0.1129 -0.3638
  345MOL0     C47532   5.533   3.211   8.000 -0.1990 -0.1294  0.6486
  345MOL0     C47533   5.617   3.105   8.065 -0.2389  1.2450 -0.7269
  345MOL0     C47534   5.592   3.101   8.219  0.4196 -0.4054 -0.8246
  345MOL0     C47535   5.670   2.990   8.292  0.0400  0.1240 -0.2789
  345MOL0     C47536   5.697   2.869   8.201  0.3516  0.3956  0.4184
  345MOL0     C47537   5.714   2.773   8.134 -0.0154 -0.4412  0.7358
  345MOL0     C47538   5.376   3.389   7.839  0.5955  0.5789  0.6801
  345MOL0     C47539   5.304   3.467   7.743  0.2519  0.2010 -1.1638
  345MOL0     C47540   5.350   3.611   7.721  0.4590  0.6127 -0.2434
  345MOL0     H47541   4.762   3.476   7.437 -0.1622  3.1459 -0.4319
  345MOL0     H47542   4.695   3.475   7.204  0.6445  3.7668  1.0724
  345MOL0     H47543   4.665   3.383   6.991  0.0971  0.1172 -1.0507
  345MOL0     H47544   4.796   3.263   7.018  2.6983  0.9106 -1.0786
  345MOL0     H47545   4.656   3.276   6.801 -0.0763  0.9458 -0.3301
  345MOL0     H47546   4.773   3.399   6.754  1.5937 -0.1914  0.3820
  345MOL0     H47547   4.865   3.126   6.847  1.8789  1.3118  0.6432
  345MOL0     H47548   4.807   3.163   6.688 -1.8695  0.8548  1.5178
  345MOL0     H47549   4.995   3.336   6.674 -0.7092 -0.1348  1.3528
  345MOL0     H47550   5.045   3.279   6.836  0.8972  3.0451 -0.5297
  345MOL0     H47551   5.030   3.099   6.591 -1.5654  1.2006  0.4898
  345MOL0     H47552   5.095   3.060   6.757 -1.1935  0.3324  0.2127
  345MOL0     H47553   5.243   3.274   6.705 -0.9876  0.3985 -0.5871
  345MOL0     H47554   5.278   3.104   6.639 -0.9993 -1.2529 -1.7769
  345MOL0     H47555   5.325   3.268   6.463  0.4407 -3.6468 -2.6848
  345MOL0     H47556   5.161   3.337   6.475 -0.2332  0.1356 -2.9841
  345MOL0     H47557   5.074   3.116   6.400  0.5838  1.1286  1.2345
  345MOL0     H47558   5.175   3.209   6.285 -0.7015  0.0179 -0.1147
  345MOL0     H47559   5.458   3.119   6.290 -3.3586  2.0653 -1.6560
  345MOL0     H47560   5.624   2.905   6.257 -0.7035 -0.1457 -0.2839
  345MOL0     H47561   5.575   2.763   6.358 -0.0579  1.0754  2.4971
  345MOL0     H47562   5.776   2.878   6.456  0.0304 -0.9243  2.1631
  345MOL0     H47563   5.685   3.028   6.477 -2.2691  0.7108  5.4275
  345MOL0     H47564   5.531   2.895   6.632  0.6957 -0.5785  1.9099
  345MOL0     H47565   5.622   2.749   6.602 -1.1767 -0.0661 -0.5467
  345MOL0     H47566   5.710   3.005   6.746  2.3368  0.0320 -0.2057
  345MOL0     H47567   5.687   2.841   6.809 -0.3657  2.3545  1.1812
  345MOL0     H47568   5.831   3.146   6.664  0.7325 -1.9723 -2.0088
  345MOL0     H47569   6.052   3.389   6.586 -0.2266  0.8550  0.5209
  345MOL0     H47570   6.036   3.401   6.772  1.2973 -0.1298 -0.3524
  345MOL0     H47571   5.905   3.375   6.661  1.6120  3.0647 -3.0093
  345MOL0     H47572   6.418   3.399   6.543 -1.1244 -0.8380  1.0797
  345MOL0     H47573   6.492   3.604   6.466  1.4245 -0.9637  0.4702
  345MOL0     H47574   6.513   4.011   6.561  0.0736  0.8298  0.7336
  345MOL0     H47575   6.380   3.902   6.540  1.5925 -4.4359 -1.2000
  345MOL0     H47576   6.330   3.917   6.797 -2.6687 -0.8578 -2.2322
  345MOL0     H47577   6.472   4.040   6.775 -0.1074  0.6247 -0.8371
  345MOL0     H47578   6.190   4.044   6.671  1.1066 -3.1264 -0.2632
  345MOL0     H47579   6.319   4.146   6.607  0.9271 -2.6147 -0.5832
  345MOL0     H47580   6.354   4.248   6.834  2.5562 -0.1860 -4.0504
  345MOL0     H47581   6.229   4.141   6.900 -1.6078  1.3884 -1.2695
  345MOL0     H47582   6.060   4.238   6.745 -0.9529  1.4622 -1.5487
  345MOL0     H47583   6.117   4.324   6.879  2.4280  0.7778  1.0872
  345MOL0     H47584   6.182   4.379   6.575  0.5874  2.4009 -0.5742
  345MOL0     H47585   6.299   4.416   6.684 -0.5511  2.3804 -0.1857
  345MOL0     H47586   6.180   4.599   6.780 -2.1404 -0.4693  1.8106
  345MOL0     H47587   6.025   4.532   6.742 -0.3621 -1.1888 -0.0220
  345MOL0     H47588   6.056   4.696   6.566  0.5654  0.3820  1.3308
  345MOL0     H47589   6.083   4.550   6.488  2.6258  0.5592 -1.6210
  345MOL0     H47590   6.467   3.758   6.872  1.2984  3.7912 -4.1001
  345MOL0     H47591   6.369   3.538   6.935 -1.8823  0.6468 -0.6780
  345MOL0     H47592   6.294   2.972   6.737 -2.2144 -5.5554 -2.2985
  345MOL0     H47593   6.108   2.822   6.717 -0.8508  0.0442 -0.9281
  345MOL0     H47594   5.105   3.441   7.082 -2.5862  1.8559 -2.7212
  345MOL0     H47595   5.164   3.412   7.330  1.7237  0.8917 -3.8904
  345MOL0     H47596   5.065   3.234   7.684  3.0570 -2.4946  0.2308
  345MOL0     H47597   5.182   3.116   7.842 -4.8614  1.3878  1.8588
  345MOL0     H47598   5.586   3.240   7.909 -2.3327  0.0917 -0.5992
  345MOL0     H47599   5.540   3.302   8.061  0.6021  1.9005 -2.2677
  345MOL0     H47600   5.722   3.127   8.046  0.7873 -1.4071  1.2334
  345MOL0     H47601   5.590   3.006   8.025 -1.2141 -0.1279  2.9467
  345MOL0     H47602   5.620   3.199   8.260 -0.5782 -0.3174 -0.3159
  345MOL0     H47603   5.484   3.096   8.232  0.4736 -0.2165 -0.2473
  345MOL0     H47604   5.608   2.968   8.379 -3.1858 -0.8679 -2.6522
  345MOL0     H47605   5.769   3.030   8.316  0.6601 -2.3204  1.7140
  345MOL0     H47606   5.713   2.677   8.087  2.7098 -0.3132  0.2482
  345MOL0     H47607   5.467   3.432   7.879  1.1742  3.2411 -2.9465
  345MOL0     H47608   5.447   3.636   7.764  0.9457  0.2832 -1.1129
  345MOL0     H47609   5.359   3.623   7.612  2.5067  2.3481  0.0613
  345MOL0     H47610   5.282   3.691   7.752 -1.0650  1.0469 -4.1400
  346MOL0     O47611   3.904   2.287   3.793  0.3254  0.2839  0.2095
  346MOL0     C47612   3.956   2.325   3.690 -0.5500  0.6021 -1.4281
  346MOL0     O47613   3.917   2.282   3.576  0.0561  0.6900  0.4226
  346MOL0     C47614   3.797   2.232   3.557  0.1746  0.0446 -0.1384
  346MOL0     C47615   3.677   2.297   3.593  0.5325  0.2200  0.1321
  346MOL0     C47616   3.558   2.240   3.575  0.9675  0.3413 -0.8747
  346MOL0     C47617   3.546   2.108   3.512  0.5024 -0.1546  0.5017
  346MOL0     O47618   3.423   2.067   3.486  0.6039  0.2942  0.5113
  346MOL0     C47619   3.399   1.958   3.390  0.1945  0.6102 -0.0318
  346MOL0     C47620   3.286   1.863   3.445  0.0787  0.0536  0.6037
  346MOL0     C47621   3.163   1.851   3.347  0.0634 -0.4562 -0.2460
  346MOL0     C47622   3.065   1.970   3.349  0.0499 -0.0205  0.3604
  346MOL0     C47623   2.972   1.976   3.225  0.3053  0.1828  0.2946
  346MOL0     C47624   3.056   1.984   3.095 -0.0361  0.1974  0.4663
  346MOL0     C47625   2.972   2.037   2.988 -0.5716 -0.4300  1.0661
  346MOL0     C47626   3.039   2.032   2.848 -0.4089 -0.2000  0.3797
  346MOL0     N47627   3.061   1.898   2.793 -0.1365 -0.1160  0.4598
  346MOL0     C47628   3.185   1.825   2.806  0.0247  0.3127 -0.0830
  346MOL0     C47629   3.163   1.707   2.743  0.0655  0.9333  0.3911
  346MOL0     C47630   3.256   1.586   2.735  0.2967 -0.2856  0.2549
  346MOL0     C47631   3.228   1.487   2.852  0.2419 -0.3055  1.0457
  346MOL0     C47632   3.208   1.541   2.992 -0.2849 -0.1466 -0.5273
  346MOL0     C47633   3.352   1.563   3.056  0.8511  0.4306  0.0304
  346MOL0     O47634   3.385   1.700   3.026 -0.9156  0.0609 -0.1054
  346MOL0     C47635   3.518   1.744   3.029 -0.0720  0.2139 -0.2962
  346MOL0     C47636   3.531   1.879   3.051  0.0494 -0.4254 -0.6994
  346MOL0     C47637   3.660   1.939   3.062 -0.5056 -0.0733  0.1262
  346MOL0     C47638   3.660   2.087   3.100 -0.6517  0.2261  0.1777
  346MOL0     C47639   3.774   1.859   3.065 -0.1219  0.3765 -0.3273
  346MOL0     C47640   3.908   1.908   3.097  0.3854 -0.0974  0.3339
  346MOL0     O47641   4.011   1.811   3.080 -0.7253  0.9193 -0.3557
  346MOL0     C47642   4.141   1.859   3.087 -0.0201  0.1815 -0.4372
  346MOL0     C47643   4.181   1.948   2.981  0.0021  0.9302 -0.5557
  346MOL0     C47644   4.318   1.994   2.986  1.0556  0.6674  0.6766
  346MOL0     C47645   4.407   1.956   3.089  0.2805  0.1263  1.1289
  346MOL0     O47646   4.543   1.978   3.095 -0.2893 -0.4955  0.1241
  346MOL0     C47647   4.603   2.047   2.991  0.5610 -0.8773 -0.1188
  346MOL0     C47648   4.752   2.011   2.996  0.1177  0.4614  0.1611
  346MOL0     C47649   4.831   2.043   2.873 -1.5298 -0.1291  0.2696
  346MOL0     C47650   4.968   1.973   2.877 -0.4998 -0.7891 -0.5097
  346MOL0     C47651   4.967   1.822   2.855 -0.8854  0.6300  0.1525
  346MOL0     C47652   4.976   1.745   2.989  0.4438 -0.4441 -0.4209
  346MOL0     C47653   4.920   1.598   2.980  0.2980  0.7943 -0.6425
  346MOL0     C47654   4.947   1.516   3.110 -0.1302  0.3016 -0.5298
  346MOL0    Cl47655   5.122   1.501   3.147 -0.0823 -0.1180 -0.0897
  346MOL0     C47656   4.362   1.870   3.189 -0.0366 -0.2731  1.0959
  346MOL0     C47657   4.230   1.818   3.188 -0.4868 -0.3972  0.4092
  346MOL0     O47658   3.937   2.019   3.135 -0.4288 -0.2207  0.0084
  346MOL0     C47659   3.750   1.723   3.048 -0.2697 -0.1092  0.5334
  346MOL0     C47660   3.629   1.663   3.037  0.5430  0.0249 -0.8081
  346MOL0     N47661   3.028   1.707   2.709  0.5197 -0.3439  0.8488
  346MOL0     N47662   2.975   1.819   2.720  0.5235  0.2017  0.1113
  346MOL0     C47663   3.661   2.047   3.474 -0.0490  0.8481  0.1297
  346MOL0     C47664   3.789   2.110   3.495  0.6171 -0.3350  0.0833
  346MOL0     C47665   4.067   2.421   3.698 -0.9389 -0.7822  0.7383
  346MOL0     C47666   4.097   2.487   3.571 -0.3798  0.0331 -0.4392
  346MOL0     C47667   4.190   2.589   3.564  0.6800 -1.1162 -0.0472
  346MOL0     C47668   4.261   2.637   3.670  0.6858  0.0518 -0.0689
  346MOL0     O47669   4.360   2.726   3.650 -0.4509  0.3287  1.2177
  346MOL0     C47670   4.474   2.727   3.743  1.5341 -1.0862  0.4878
  346MOL0     C47671   4.585   2.827   3.706  0.3358 -0.4138  0.1264
  346MOL0     C47672   4.541   2.980   3.707 -0.7629 -0.2272 -0.1082
  346MOL0     C47673   4.517   3.033   3.849  0.6986  0.2650  0.2155
  346MOL0     C47674   4.436   3.152   3.864  0.1694  1.5042  0.2200
  346MOL0     C47675   4.384   3.256   3.889  1.3429 -0.1349 -0.3181
  346MOL0     C47676   4.230   2.576   3.798 -0.2906 -0.7927  0.5428
  346MOL0     C47677   4.134   2.479   3.810  0.0225  0.1660  0.1421
  346MOL0     C47678   4.092   2.440   3.956  0.7118 -0.3199  0.7212
  346MOL0     H47679   3.701   2.396   3.632  2.3111  1.6953 -4.1293
  346MOL0     H47680   3.466   2.294   3.595  1.4370  1.4531 -1.6084
  346MOL0     H47681   3.473   1.878   3.399 -0.6626 -0.4506 -1.7678
  346MOL0     H47682   3.385   2.002   3.291 -2.4145 -0.7541 -0.3739
  346MOL0     H47683   3.314   1.760   3.473 -2.0572 -0.4288  1.1612
  346MOL0     H47684   3.262   1.905   3.543  2.5410  4.4311 -0.3922
  346MOL0     H47685   3.206   1.847   3.246  0.6258 -0.3603 -0.0146
  346MOL0     H47686   3.103   1.761   3.363 -1.2798  0.8548  2.9462
  346MOL0     H47687   3.005   1.960   3.440  0.3445  0.4255  0.6102
  346MOL0     H47688   3.127   2.060   3.349  0.9143 -0.6015  0.4110
  346MOL0     H47689   2.896   2.054   3.224 -3.1389 -2.9161 -0.4985
  346MOL0     H47690   2.905   1.891   3.241  1.6466 -0.8567  0.5656
  346MOL0     H47691   3.131   2.060   3.122 -1.8807  2.2632 -0.0099
  346MOL0     H47692   3.103   1.890   3.063  1.2276  0.8497  0.3496
  346MOL0     H47693   2.952   2.142   3.009 -0.7219  0.0638 -1.3099
  346MOL0     H47694   2.876   1.986   2.976  0.8381 -2.8000 -1.4122
  346MOL0     H47695   2.975   2.090   2.780 -0.8280  2.5296  2.9126
  346MOL0     H47696   3.134   2.087   2.855 -0.1296  0.1969 -3.6777
  346MOL0     H47697   3.280   1.853   2.850  0.4530 -2.5237  0.9761
  346MOL0     H47698   3.358   1.624   2.729 -0.5322  1.9276 -0.8015
  346MOL0     H47699   3.239   1.532   2.641  1.4390  0.2846 -0.3033
  346MOL0     H47700   3.137   1.433   2.823 -0.9383  1.7146  0.8053
  346MOL0     H47701   3.312   1.419   2.841  0.2292 -0.2065  0.2025
  346MOL0     H47702   3.140   1.626   2.995 -0.9916 -0.7085 -0.0236
  346MOL0     H47703   3.156   1.467   3.053 -2.0213 -1.5685 -3.4881
  346MOL0     H47704   3.331   1.570   3.163  1.3003 -1.1145  0.2386
  346MOL0     H47705   3.427   1.488   3.029 -3.0004 -3.4086 -1.1221
  346MOL0     H47706   3.439   1.937   3.055 -0.2693 -0.9616  0.0384
  346MOL0     H47707   3.678   2.105   3.207 -0.6814 -2.4543  0.7018
  346MOL0     H47708   3.553   2.111   3.091 -1.0979 -1.4859  0.5758
  346MOL0     H47709   3.714   2.162   3.043  2.0811 -1.2541  0.6644
  346MOL0     H47710   4.112   1.955   2.898  0.3722 -1.5972 -1.1342
  346MOL0     H47711   4.368   2.057   2.914  1.7107 -0.8505 -0.2423
  346MOL0     H47712   4.561   2.027   2.892 -1.5818 -1.3907  0.8468
  346MOL0     H47713   4.588   2.154   3.009 -1.0565 -1.1715  0.4153
  346MOL0     H47714   4.804   2.043   3.086 -1.9363 -2.1936  2.4573
  346MOL0     H47715   4.752   1.906   3.025  1.3974  1.4511  4.3653
  346MOL0     H47716   4.849   2.150   2.865 -0.9996 -0.1717  0.7770
  346MOL0     H47717   4.774   2.022   2.782 -3.0975 -2.2278  1.6361
  346MOL0     H47718   5.018   2.000   2.970  0.6633 -1.4849 -0.9062
  346MOL0     H47719   5.027   2.016   2.795 -2.9829 -1.1032 -2.6025
  346MOL0     H47720   4.875   1.793   2.803  0.0888 -1.0538 -0.7276
  346MOL0     H47721   5.052   1.791   2.794 -1.3298  1.6717 -1.0263
  346MOL0     H47722   4.922   1.804   3.064  0.7409  0.2215 -0.7166
  346MOL0     H47723   5.081   1.744   3.020 -0.3860  1.0826  2.9172
  346MOL0     H47724   4.976   1.539   2.906 -1.5201 -3.3582  0.9899
  346MOL0     H47725   4.813   1.602   2.958  0.2848  1.3194 -0.4926
  346MOL0     H47726   4.917   1.412   3.101  1.6950 -0.4583  1.4170
  346MOL0     H47727   4.890   1.550   3.197 -0.2657  0.6276 -0.7426
  346MOL0     H47728   4.433   1.837   3.263 -0.3200 -0.4841  1.2760
  346MOL0     H47729   4.204   1.739   3.257  0.3613 -0.8384  0.2285
  346MOL0     H47730   3.827   1.646   3.050  2.3648  2.2771 -1.1037
  346MOL0     H47731   3.623   1.558   3.014  2.6915 -0.1159 -0.9279
  346MOL0     H47732   3.657   1.944   3.441 -2.4294  1.2596 -1.1160
  346MOL0     H47733   3.876   2.061   3.453  1.6613  0.9214  0.7358
  346MOL0     H47734   4.046   2.462   3.478 -1.0613  1.7812 -0.5724
  346MOL0     H47735   4.200   2.639   3.468 -2.1290  0.9005  0.5627
  346MOL0     H47736   4.426   2.758   3.836 -0.2861 -0.6078 -0.5543
  346MOL0     H47737   4.514   2.626   3.757 -1.0745 -2.1643  0.8752
  346MOL0     H47738   4.627   2.797   3.610  2.6868  1.5267  0.4415
  346MOL0     H47739   4.660   2.801   3.782  1.3675 -0.6098 -0.9337
  346MOL0     H47740   4.623   3.035   3.659 -0.5686  0.5535  1.0462
  346MOL0     H47741   4.454   2.992   3.643  0.1847 -2.7980 -2.0472
  346MOL0     H47742   4.610   3.053   3.903  0.0540  1.7801  0.8053
  346MOL0     H47743   4.462   2.960   3.910  4.2621 -1.9264  1.0979
  346MOL0     H47744   4.349   3.352   3.923  3.7385  0.0082  1.9916
  346MOL0     H47745   4.287   2.610   3.884  0.3262  2.2564 -0.9233
  346MOL0     H47746   4.177   2.467   4.018  2.1524  0.2411 -1.3801
  346MOL0     H47747   4.012   2.512   3.978  1.0233  1.1545 -2.4406
  346MOL0     H47748   4.066   2.335   3.969 -1.2055 -0.1193 -0.9429
  347MOL0     O47749  11.446   6.120   9.218 -0.1657  0.5812  0.3452
  347MOL0     C47750  11.328   6.149   9.222 -0.4586 -0.4775  0.3434
  347MOL0     O47751  11.231   6.062   9.219  0.0713  0.4218  0.2619
  347MOL0     C47752  11.234   5.934   9.182 -0.4988  0.1559 -0.0272
  347MOL0     C47753  11.110   5.874   9.161  0.5326 -1.0650  0.2051
  347MOL0     C47754  11.095   5.737   9.138 -0.1847  0.5718  0.4308
  347MOL0     C47755  11.213   5.655   9.132 -0.1246 -0.1292 -0.2367
  347MOL0     O47756  11.187   5.522   9.121 -0.2793 -0.1737 -0.2183
  347MOL0     C47757  11.297   5.428   9.130  0.6133  0.1986 -0.7057
  347MOL0     C47758  11.228   5.293   9.089  0.6993  0.4223 -0.3178
  347MOL0     C47759  11.228   5.253   8.938  0.0716 -0.2535 -0.0157
  347MOL0     C47760  11.178   5.106   8.928  0.0684 -0.7860  0.4499
  347MOL0     C47761  11.162   5.035   8.800  0.3512  0.4564  0.3756
  347MOL0     C47762  11.089   4.895   8.826 -0.8178  0.1657 -0.0953
  347MOL0     C47763  11.014   4.848   8.704 -0.0148  1.0587  0.9450
  347MOL0     C47764  10.898   4.758   8.744 -0.2900 -0.2354  0.1534
  347MOL0     N47765  10.829   4.720   8.624 -0.0414  0.9606  0.0417
  347MOL0     C47766  10.726   4.801   8.582  0.3634  0.3228 -0.0447
  347MOL0     C47767  10.708   4.766   8.456 -0.6982 -0.1709  0.0933
  347MOL0     C47768  10.616   4.827   8.357  0.6480  0.3569  0.4719
  347MOL0     C47769  10.640   4.798   8.205  0.0379 -0.8814  0.3323
  347MOL0     C47770  10.529   4.839   8.101 -0.2555  0.1783 -0.2112
  347MOL0     C47771  10.389   4.808   8.144 -1.2594  0.2972  0.6836
  347MOL0     O47772  10.386   4.664   8.181 -0.5686  0.0719  0.4359
  347MOL0     C47773  10.420   4.573   8.090  0.5101  0.6669 -0.5747
  347MOL0     C47774  10.379   4.566   7.955 -0.3227  0.4612  0.1564
  347MOL0     C47775  10.409   4.457   7.872  0.3662 -0.6015 -0.1774
  347MOL0     C47776  10.359   4.466   7.732  0.4133  0.4748 -0.0918
  347MOL0     C47777  10.491   4.354   7.928 -0.1099 -0.1943  1.1379
  347MOL0     C47778  10.530   4.230   7.852  0.0003 -0.6804  0.1435
  347MOL0     O47779  10.553   4.112   7.923 -0.2553 -0.3002  1.1395
  347MOL0     C47780  10.606   4.010   7.850  0.8526 -1.0386 -0.4468
  347MOL0     C47781  10.727   3.971   7.883  0.2722 -0.0343  0.2855
  347MOL0     C47782  10.793   3.859   7.817  0.1254 -0.9846 -0.5485
  347MOL0     C47783  10.717   3.790   7.714 -0.5550 -0.1363  0.3316
  347MOL0     O47784  10.776   3.685   7.649 -0.6705  0.0731 -0.2590
  347MOL0     C47785  10.913   3.660   7.657 -0.0430  0.1998  0.5482
  347MOL0     C47786  10.947   3.592   7.523 -0.1536  0.8239  0.8707
  347MOL0     C47787  11.074   3.502   7.534  0.6009  0.2379  0.1612
  347MOL0     C47788  11.193   3.597   7.553  0.1095 -1.0718  0.3044
  347MOL0     C47789  11.325   3.533   7.533 -0.0953  0.1384 -0.6300
  347MOL0     C47790  11.352   3.486   7.384  0.2483 -0.5741  0.2030
  347MOL0     C47791  11.508   3.448   7.368  0.2916 -0.2866  0.3183
  347MOL0     C47792  11.546   3.319   7.303  0.5545  0.4325  0.0541
  347MOL0    Cl47793  11.488   3.320   7.131 -0.4628 -0.0193  0.7236
  347MOL0     C47794  10.593   3.841   7.682 -0.7021 -0.0022 -0.2411
  347MOL0     C47795  10.550   3.954   7.744  0.5834  1.1118 -0.4824
  347MOL0     O47796  10.554   4.255   7.739 -0.1024 -0.6112  1.2142
  347MOL0     C47797  10.525   4.351   8.064 -0.0223  0.4655 -0.6997
  347MOL0     C47798  10.488   4.463   8.142  0.4824 -0.1114  0.6873
  347MOL0     N47799  10.790   4.657   8.426 -0.4473 -0.2329  0.5439
  347MOL0     N47800  10.867   4.640   8.520 -0.6721  0.8813  0.4343
  347MOL0     C47801  11.336   5.717   9.150 -0.3435  0.2428  0.1484
  347MOL0     C47802  11.349   5.849   9.177 -0.1344 -0.3446 -0.6665
  347MOL0     C47803  11.284   6.290   9.229  0.1521 -0.9893 -0.1685
  347MOL0     C47804  11.160   6.322   9.162 -0.3586  0.2569 -0.5032
  347MOL0     C47805  11.101   6.448   9.171 -0.9975 -0.4984  0.5464
  347MOL0     C47806  11.160   6.536   9.252 -0.5332 -0.3452 -0.3321
  347MOL0     O47807  11.076   6.645   9.280  0.7059 -0.3705  0.2770
  347MOL0     C47808  11.062   6.713   9.410 -0.2074  0.8116 -0.5132
  347MOL0     C47809  11.039   6.859   9.403 -0.5959 -0.4067 -0.6657
  347MOL0     C47810  11.120   6.936   9.294  0.5427 -0.2467  0.1975
  347MOL0     C47811  11.067   7.082   9.291 -0.1168  0.1303  0.1030
  347MOL0     C47812  11.103   7.145   9.156  0.6303  0.6218  0.2389
  347MOL0     C47813  11.114   7.212   9.057 -0.3281 -0.3708  0.1561
  347MOL0     C47814  11.295   6.519   9.313 -0.1376  0.7255 -0.2686
  347MOL0     C47815  11.353   6.395   9.303 -0.1068 -0.4377 -0.5448
  347MOL0     C47816  11.482   6.365   9.380  0.5107 -0.0577  0.6688
  347MOL0     H47817  11.016   5.926   9.178  2.3935  2.3152  0.8322
  347MOL0     H47818  11.006   5.679   9.119 -1.3269  2.7833 -1.4733
  347MOL0     H47819  11.337   5.422   9.232  1.4918  1.9605 -0.9136
  347MOL0     H47820  11.383   5.437   9.064 -1.7273 -2.6203 -4.5345
  347MOL0     H47821  11.282   5.213   9.142  2.4821  1.5246 -0.3757
  347MOL0     H47822  11.125   5.301   9.123  1.0591 -0.3510  1.0343
  347MOL0     H47823  11.167   5.326   8.884  3.4776  3.2442  0.4143
  347MOL0     H47824  11.327   5.242   8.891  0.7158 -4.0828  1.8082
  347MOL0     H47825  11.246   5.049   8.992  1.7263 -3.5620 -3.4334
  347MOL0     H47826  11.074   5.102   8.963 -0.6088  1.1528 -1.1570
  347MOL0     H47827  11.259   5.017   8.753  2.0730 -0.6114  3.9562
  347MOL0     H47828  11.089   5.097   8.747  1.8858  0.3679 -1.9290
  347MOL0     H47829  11.164   4.820   8.852  0.1593  0.6530 -1.4033
  347MOL0     H47830  11.020   4.911   8.908  3.0193  2.7185  2.9946
  347MOL0     H47831  11.082   4.797   8.634 -1.2775  0.4373  0.1192
  347MOL0     H47832  10.967   4.931   8.650 -1.2435  0.0510  0.4165
  347MOL0     H47833  10.936   4.664   8.787 -0.7131 -1.5814 -2.2106
  347MOL0     H47834  10.830   4.796   8.820 -1.4467 -0.1708 -0.8786
  347MOL0     H47835  10.679   4.881   8.638  0.3036  0.1435  0.1653
  347MOL0     H47836  10.622   4.934   8.379  5.8663 -0.1314  2.7422
  347MOL0     H47837  10.514   4.796   8.379  1.1727 -1.0281  1.0845
  347MOL0     H47838  10.726   4.846   8.158  1.4095 -4.3858 -1.0526
  347MOL0     H47839  10.667   4.693   8.192 -0.7406 -1.1169  0.5073
  347MOL0     H47840  10.525   4.945   8.077 -0.6740 -0.1093 -1.5148
  347MOL0     H47841  10.546   4.783   8.008  2.9113 -1.7693  1.3694
  347MOL0     H47842  10.365   4.850   8.242 -2.3209 -3.2232  2.1305
  347MOL0     H47843  10.312   4.843   8.075  0.6109  2.9818 -0.2242
  347MOL0     H47844  10.309   4.638   7.914 -0.6114  1.0095  1.5569
  347MOL0     H47845  10.432   4.483   7.652 -1.4322  1.6926 -1.6033
  347MOL0     H47846  10.289   4.549   7.723  0.0873  1.0404  4.8782
  347MOL0     H47847  10.305   4.374   7.712  1.5573 -0.1959 -0.1989
  347MOL0     H47848  10.782   4.035   7.951 -0.9468  2.2674 -0.7719
  347MOL0     H47849  10.895   3.837   7.849  0.0651  3.5459  4.0731
  347MOL0     H47850  10.973   3.749   7.676  0.9652  0.1569 -2.0494
  347MOL0     H47851  10.925   3.589   7.740  0.1859 -1.1052 -0.5740
  347MOL0     H47852  10.863   3.530   7.490 -1.7496  3.2992  0.0029
  347MOL0     H47853  10.951   3.677   7.455  0.6226 -0.2610 -0.5266
  347MOL0     H47854  11.094   3.456   7.437  3.4751 -0.2562  0.8937
  347MOL0     H47855  11.075   3.441   7.625  0.6882 -0.2876 -0.1879
  347MOL0     H47856  11.203   3.627   7.658  1.1354 -4.5211  1.3232
  347MOL0     H47857  11.176   3.673   7.476 -2.8240 -5.3345 -3.8045
  347MOL0     H47858  11.392   3.614   7.560  0.8283 -0.9596  0.4537
  347MOL0     H47859  11.337   3.452   7.606  0.0094  0.1051 -0.6838
  347MOL0     H47860  11.313   3.573   7.330 -0.8523  1.6413  4.1523
  347MOL0     H47861  11.300   3.398   7.346  0.1662 -1.4463  2.2176
  347MOL0     H47862  11.549   3.437   7.469 -0.1891 -1.6110  0.3934
  347MOL0     H47863  11.555   3.532   7.318 -1.1719 -0.5015 -1.5281
  347MOL0     H47864  11.491   3.242   7.359  2.9898 -1.7210 -0.3705
  347MOL0     H47865  11.655   3.317   7.308  0.6421  3.4914  2.0721
  347MOL0     H47866  10.531   3.793   7.607 -1.4351 -1.4884  1.2403
  347MOL0     H47867  10.464   3.987   7.686  0.1032 -2.1193 -1.7908
  347MOL0     H47868  10.583   4.274   8.115 -0.5843 -0.5208 -1.5042
  347MOL0     H47869  10.501   4.457   8.250 -1.0649 -1.0150  0.8555
  347MOL0     H47870  11.430   5.663   9.154  1.3169  2.4835 -3.5639
  347MOL0     H47871  11.445   5.892   9.203 -1.6662  2.7332  0.3973
  347MOL0     H47872  11.120   6.245   9.097 -0.4461  0.4272 -0.6504
  347MOL0     H47873  11.003   6.477   9.135 -0.3513  1.4661  0.2301
  347MOL0     H47874  10.987   6.667   9.476  1.0050 -2.6729 -1.3542
  347MOL0     H47875  11.156   6.688   9.459 -1.7939 -2.4460  1.1769
  347MOL0     H47876  11.056   6.897   9.504 -2.1244 -2.2065  0.3248
  347MOL0     H47877  10.935   6.882   9.380 -0.7717 -1.2631 -0.7679
  347MOL0     H47878  11.228   6.925   9.298  0.4884 -0.6096  2.5197
  347MOL0     H47879  11.084   6.894   9.200 -2.8974  0.7313  0.9297
  347MOL0     H47880  11.111   7.138   9.374  0.9688  0.7315 -0.8491
  347MOL0     H47881  10.958   7.083   9.300 -0.7369  0.3664 -4.6784
  347MOL0     H47882  11.140   7.262   8.966 -0.7320 -0.9515 -0.2815
  347MOL0     H47883  11.350   6.594   9.369 -1.5656 -0.0901  2.4525
  347MOL0     H47884  11.521   6.455   9.427 -0.7370  1.2947 -0.7581
  347MOL0     H47885  11.467   6.299   9.466  3.7188 -2.4490 -0.3934
  347MOL0     H47886  11.556   6.320   9.313 -0.7141 -2.7218  0.9526
  348MOL0     O47887   8.050   4.934   7.254 -0.3415  0.2487  0.2247
  348MOL0     C47888   8.022   4.857   7.161  0.4983 -0.2233 -0.0608
  348MOL0     O47889   8.109   4.782   7.084 -0.0334 -0.3888 -0.4698
  348MOL0     C47890   8.242   4.769   7.119 -0.6392 -0.5254 -0.5315
  348MOL0     C47891   8.335   4.874   7.108 -0.5188 -0.7214 -0.8660
  348MOL0     C47892   8.473   4.860   7.139  0.1535 -0.5235 -0.0410
  348MOL0     C47893   8.511   4.733   7.181 -0.1675  0.4110  0.0441
  348MOL0     O47894   8.635   4.679   7.193  0.1783 -0.1383 -0.6747
  348MOL0     C47895   8.732   4.777   7.216 -0.3767 -0.2385  0.4596
  348MOL0     C47896   8.873   4.720   7.239 -0.3466  0.1744  0.0672
  348MOL0     C47897   8.891   4.618   7.131  1.0096 -0.1380 -0.2921
  348MOL0     C47898   9.033   4.571   7.148  0.7171 -0.1500  0.4657
  348MOL0     C47899   9.075   4.475   7.042 -0.5363  0.3154  0.4383
  348MOL0     C47900   9.218   4.412   7.070 -0.4965  0.8819 -0.6314
  348MOL0     C47901   9.284   4.330   6.957  0.3156 -0.1927  0.4933
  348MOL0     C47902   9.429   4.326   6.984 -0.6240  0.7933  0.3154
  348MOL0     N47903   9.486   4.231   6.887  0.5242 -0.2187  0.7327
  348MOL0     C47904   9.517   4.263   6.752 -1.0122 -1.0432 -0.1512
  348MOL0     C47905   9.562   4.144   6.704 -0.0078 -0.6865  1.1745
  348MOL0     C47906   9.594   4.114   6.558  0.2657  0.0742 -0.9409
  348MOL0     C47907   9.729   4.055   6.528  0.2473 -0.1964 -0.4801
  348MOL0     C47908   9.752   4.017   6.379  0.3931  0.2651  0.7063
  348MOL0     C47909   9.794   4.145   6.301 -0.1685  0.1863 -0.6065
  348MOL0     O47910   9.938   4.148   6.297 -0.7865 -0.2701  0.2413
  348MOL0     C47911   9.984   4.278   6.274  0.6896 -0.2874 -0.3938
  348MOL0     C47912   9.992   4.334   6.143 -0.2778  0.3026 -0.6032
  348MOL0     C47913  10.035   4.463   6.118  0.7475 -0.2294  0.0459
  348MOL0     C47914   9.997   4.512   5.976  0.3898 -0.4055 -0.3133
  348MOL0     C47915  10.071   4.543   6.224 -0.6007  0.3651  0.1655
  348MOL0     C47916  10.116   4.678   6.206 -1.0986  0.1225 -0.7432
  348MOL0     O47917  10.073   4.778   6.293 -0.8364 -0.8818  0.6389
  348MOL0     C47918  10.145   4.899   6.287  0.7376 -1.2110  1.4346
  348MOL0     C47919  10.226   4.935   6.390  0.4387  0.7623  0.0057
  348MOL0     C47920  10.274   5.064   6.404 -0.4238  0.2075  0.5439
  348MOL0     C47921  10.248   5.164   6.299  0.1495  0.0842  0.1551
  348MOL0     O47922  10.297   5.289   6.306 -0.0114 -0.1976  0.2756
  348MOL0     C47923  10.277   5.364   6.433 -0.1031  1.1382  0.1180
  348MOL0     C47924  10.362   5.489   6.430  0.4583  0.0468  1.1566
  348MOL0     C47925  10.319   5.582   6.541 -0.1218 -0.3397 -0.3500
  348MOL0     C47926  10.184   5.648   6.525  0.8153 -0.1982 -0.8164
  348MOL0     C47927  10.139   5.741   6.640  0.0322  0.7401  0.7574
  348MOL0     C47928   9.993   5.772   6.624 -0.6277 -0.3020 -0.1099
  348MOL0     C47929   9.939   5.844   6.738  0.3514  0.0299 -0.3132
  348MOL0     C47930   9.795   5.897   6.727  0.3703  0.1097  0.2199
  348MOL0    Cl47931   9.774   6.018   6.599  0.0213  0.0062 -0.2790
  348MOL0     C47932  10.159   5.130   6.200 -0.1657 -0.2227 -0.5660
  348MOL0     C47933  10.120   5.000   6.186 -0.0931  0.9924 -0.4474
  348MOL0     O47934  10.207   4.688   6.123  0.6689  1.1603 -0.2620
  348MOL0     C47935  10.053   4.493   6.354 -1.0593 -1.1451  0.6070
  348MOL0     C47936  10.004   4.359   6.379 -0.0651 -0.1864  0.6438
  348MOL0     N47937   9.560   4.051   6.805 -0.5600  0.3403  0.1367
  348MOL0     N47938   9.504   4.100   6.907 -0.5414  0.0617 -0.0969
  348MOL0     C47939   8.425   4.624   7.204 -0.7126 -0.7035 -0.0871
  348MOL0     C47940   8.288   4.644   7.167 -0.9943 -0.2651  0.1865
  348MOL0     C47941   7.878   4.864   7.112 -0.5784 -0.2182 -0.2018
  348MOL0     C47942   7.818   4.753   7.066 -0.0291  0.2498 -0.3917
  348MOL0     C47943   7.684   4.747   7.023 -0.4452 -0.1567 -0.4150
  348MOL0     C47944   7.598   4.861   7.045 -0.9008  0.9975  0.5764
  348MOL0     O47945   7.471   4.838   6.987  0.5328 -0.4831  0.0865
  348MOL0     C47946   7.354   4.929   7.013  0.6801 -0.4367 -0.0592
  348MOL0     C47947   7.233   4.867   6.942 -0.0213 -0.2807 -0.8683
  348MOL0     C47948   7.105   4.950   6.972  0.0064  0.4142 -0.5186
  348MOL0     C47949   6.981   4.896   6.891  1.3198  0.0498  1.1728
  348MOL0     C47950   6.952   4.753   6.920 -0.1799 -0.1824  0.5870
  348MOL0     C47951   6.913   4.636   6.916 -0.8158  0.1673  0.7054
  348MOL0     C47952   7.655   4.973   7.102 -1.0419  0.3134  1.2140
  348MOL0     C47953   7.790   4.974   7.137  0.9513  0.6848 -0.4257
  348MOL0     C47954   7.830   5.106   7.214  0.9516  0.7239  0.0743
  348MOL0     H47955   8.287   4.963   7.069 -2.2943 -0.7786  0.9903
  348MOL0     H47956   8.551   4.934   7.125  1.2590 -1.1787  2.1311
  348MOL0     H47957   8.706   4.829   7.309 -0.2714 -2.3131  1.6926
  348MOL0     H47958   8.731   4.853   7.137 -0.0820  0.0549  0.7339
  348MOL0     H47959   8.952   4.796   7.243 -2.0162  2.2265 -2.2926
  348MOL0     H47960   8.869   4.666   7.334  0.7092 -1.9175 -1.0210
  348MOL0     H47961   8.812   4.544   7.139  0.4520  0.6586  3.9637
  348MOL0     H47962   8.880   4.672   7.036  0.5711  2.6729  1.2303
  348MOL0     H47963   9.093   4.663   7.148 -1.3505  1.2494  0.1644
  348MOL0     H47964   9.046   4.516   7.242 -0.6904 -1.0166  0.1733
  348MOL0     H47965   9.097   4.530   6.950  2.3002 -0.4807  0.5601
  348MOL0     H47966   9.001   4.398   7.021  1.4103 -1.7668  0.8447
  348MOL0     H47967   9.286   4.490   7.105  0.7744 -0.0269 -0.9891
  348MOL0     H47968   9.203   4.343   7.153  0.5622  0.0621 -1.0911
  348MOL0     H47969   9.259   4.372   6.859  2.0431  3.6020  1.4846
  348MOL0     H47970   9.234   4.233   6.965 -0.1409  0.1339  1.8161
  348MOL0     H47971   9.466   4.427   6.966 -0.4238  0.8605  1.0900
  348MOL0     H47972   9.448   4.285   7.083  1.3755  3.7096  1.2821
  348MOL0     H47973   9.499   4.356   6.698  0.9568 -1.7504 -2.1717
  348MOL0     H47974   9.588   4.209   6.503 -0.1951 -0.2850 -1.5308
  348MOL0     H47975   9.513   4.065   6.503 -0.7040  0.6312 -0.0667
  348MOL0     H47976   9.803   4.124   6.569  0.7263  0.4865 -2.3910
  348MOL0     H47977   9.729   3.956   6.576  0.5988 -1.3947 -2.8128
  348MOL0     H47978   9.828   3.940   6.360 -0.4973 -0.3461 -0.4676
  348MOL0     H47979   9.657   3.986   6.336  1.2558 -0.8761 -0.4410
  348MOL0     H47980   9.759   4.153   6.197  0.7287  2.0581 -0.8021
  348MOL0     H47981   9.759   4.238   6.346  1.1987  0.2186  0.4527
  348MOL0     H47982   9.964   4.264   6.065 -0.8596 -1.4352  1.0981
  348MOL0     H47983  10.071   4.473   5.906  1.6205 -1.5488  1.5306
  348MOL0     H47984   9.978   4.620   5.969 -2.6200 -0.6756  1.7633
  348MOL0     H47985   9.906   4.462   5.942 -0.7993  2.8378 -2.4484
  348MOL0     H47986  10.236   4.877   6.482 -2.4568 -0.5889 -0.4195
  348MOL0     H47987  10.351   5.093   6.475  0.5320 -0.9630  0.0200
  348MOL0     H47988  10.169   5.370   6.442 -0.0621 -0.1571  1.8729
  348MOL0     H47989  10.317   5.295   6.508  1.4434  2.5770  0.6776
  348MOL0     H47990  10.467   5.460   6.443  0.3224 -1.1026 -0.0858
  348MOL0     H47991  10.342   5.539   6.335 -2.1008  0.5022  1.8591
  348MOL0     H47992  10.392   5.663   6.548 -0.5958  0.1525 -1.0241
  348MOL0     H47993  10.321   5.534   6.639 -0.1369  0.0200 -0.1727
  348MOL0     H47994  10.109   5.571   6.503 -0.0404 -1.2227  4.4757
  348MOL0     H47995  10.187   5.708   6.433  0.9825  2.7683  0.9731
  348MOL0     H47996  10.152   5.691   6.736 -1.7649  0.9599  1.1439
  348MOL0     H47997  10.186   5.840   6.639 -1.6823  1.6088 -0.9024
  348MOL0     H47998   9.930   5.687   6.594 -0.2998 -1.2798  1.8127
  348MOL0     H47999   9.986   5.842   6.540  4.9971  0.1021 -0.5703
  348MOL0     H48000  10.010   5.925   6.757 -0.0314 -0.5625  5.3917
  348MOL0     H48001   9.944   5.776   6.824 -2.8698  0.2427  0.1416
  348MOL0     H48002   9.765   5.938   6.824  0.3950  0.8966 -0.0945
  348MOL0     H48003   9.743   5.802   6.710  0.5003  0.0219  0.3108
  348MOL0     H48004  10.121   5.203   6.129  3.2275 -2.4549 -5.2476
  348MOL0     H48005  10.057   4.968   6.103 -0.2352  0.5757 -0.1802
  348MOL0     H48006  10.096   4.555   6.432 -0.8169 -1.4110  0.6851
  348MOL0     H48007   9.982   4.315   6.476  1.6338 -0.5130  0.9070
  348MOL0     H48008   8.468   4.527   7.227  1.6724  0.2654 -0.1185
  348MOL0     H48009   8.221   4.560   7.174 -1.3080  0.0281  0.7134
  348MOL0     H48010   7.880   4.664   7.067 -1.2593 -0.7108 -2.5381
  348MOL0     H48011   7.633   4.662   6.980 -2.8879  0.3164  1.3037
  348MOL0     H48012   7.344   4.939   7.121 -0.8130 -1.8245 -0.0346
  348MOL0     H48013   7.364   5.028   6.967 -0.8025 -0.2041  0.0671
  348MOL0     H48014   7.230   4.763   6.973  2.3712 -0.4269 -0.9663
  348MOL0     H48015   7.252   4.872   6.834  3.2935 -0.8975 -0.4342
  348MOL0     H48016   7.092   4.954   7.080  1.8998 -0.4459 -0.2133
  348MOL0     H48017   7.120   5.056   6.949 -0.0997  0.9150  1.5701
  348MOL0     H48018   6.993   4.922   6.785  0.5182  4.0424  1.9181
  348MOL0     H48019   6.882   4.937   6.910  0.2560 -1.8844  0.1287
  348MOL0     H48020   6.882   4.534   6.926 -0.3522 -0.1999 -1.2593
  348MOL0     H48021   7.580   5.051   7.113 -2.3340 -1.0428  2.5117
  348MOL0     H48022   7.773   5.198   7.196 -1.0233 -0.6402 -1.0492
  348MOL0     H48023   7.827   5.078   7.320  2.5733 -3.3542 -0.7563
  348MOL0     H48024   7.935   5.120   7.187  0.9806  0.2333 -0.0812
  349MOL0     O48025   2.040   7.144  11.498 -0.9244  0.6145 -0.7211
  349MOL0     C48026   1.969   7.048  11.478 -0.2275  1.3432 -0.7320
  349MOL0     O48027   1.942   6.947  11.568 -0.3973  0.5456 -0.3500
  349MOL0     C48028   1.969   6.978  11.700 -0.4369 -0.1765  0.3265
  349MOL0     C48029   2.040   6.884  11.775 -0.2477  0.4376 -0.0856
  349MOL0     C48030   2.082   6.921  11.900  0.7024  0.2289 -0.0362
  349MOL0     C48031   2.050   7.040  11.965 -0.1502  0.3585  0.3710
  349MOL0     O48032   2.086   7.049  12.100  0.9527  0.1333  0.5371
  349MOL0     C48033   2.064   7.169  12.176  0.0929 -0.8197 -0.9095
  349MOL0     C48034   2.143   7.165  12.304 -0.0405  0.9942  0.6783
  349MOL0     C48035   2.290   7.129  12.284 -0.2365  0.4127  0.1752
  349MOL0     C48036   2.387   7.190  12.391  0.4067 -0.3378  0.3825
  349MOL0     C48037   2.500   7.097  12.450  0.0546  0.1121  0.4093
  349MOL0     C48038   2.599   7.062  12.334 -1.1120 -0.1585 -0.0912
  349MOL0     C48039   2.718   6.989  12.385  0.3627 -0.7691  0.0118
  349MOL0     C48040   2.762   6.893  12.273 -0.2621  0.5411 -0.1774
  349MOL0     N48041   2.904   6.849  12.296  0.1259  0.7542 -0.0047
  349MOL0     C48042   2.981   6.850  12.407  0.7591  0.8060 -0.0165
  349MOL0     C48043   3.089   6.778  12.375 -0.6075  0.2740  0.2186
  349MOL0     C48044   3.178   6.722  12.485 -0.7148  0.5197 -1.0355
  349MOL0     C48045   3.127   6.594  12.555 -0.2071  0.0173 -0.2931
  349MOL0     C48046   3.205   6.548  12.684  0.1148 -0.0793 -0.1321
  349MOL0     C48047   3.119   6.454  12.774 -0.0933  0.2048  0.9269
  349MOL0     O48048   3.044   6.543  12.856  0.1803  0.5832  1.1425
  349MOL0     C48049   2.964   6.492  12.956 -0.5410 -0.9728  0.3211
  349MOL0     C48050   2.955   6.363  12.997  1.1706 -0.2762  0.1312
  349MOL0     C48051   2.869   6.320  13.104 -0.4997  0.2654  0.0998
  349MOL0     C48052   2.875   6.170  13.142  0.2014 -0.8276 -0.0411
  349MOL0     C48053   2.768   6.408  13.152  0.0738 -0.1207  0.1873
  349MOL0     C48054   2.681   6.385  13.258 -0.4269 -0.1165 -0.0864
  349MOL0     O48055   2.576   6.474  13.276  1.2483 -0.2150 -0.2746
  349MOL0     C48056   2.479   6.457  13.371  1.3998  0.6552  0.4929
  349MOL0     C48057   2.410   6.579  13.407  0.3081  0.2873  0.7716
  349MOL0     C48058   2.297   6.588  13.483  1.0395  0.3077  0.8545
  349MOL0     C48059   2.239   6.473  13.537 -0.1919  0.9673  0.0290
  349MOL0     O48060   2.115   6.479  13.595  0.2339  0.4351 -0.3439
  349MOL0     C48061   2.045   6.361  13.624 -0.1298  0.4979  0.1511
  349MOL0     C48062   1.900   6.372  13.661  0.3931  0.0079 -0.0198
  349MOL0     C48063   1.823   6.457  13.561  0.0485 -0.7969 -0.2254
  349MOL0     C48064   1.680   6.484  13.602 -0.7685 -0.0671  1.1103
  349MOL0     C48065   1.604   6.572  13.502  0.1881 -0.0071  0.7358
  349MOL0     C48066   1.453   6.584  13.521 -0.6737  1.0635  0.1724
  349MOL0     C48067   1.381   6.685  13.432 -1.7741  0.1113 -0.7091
  349MOL0     C48068   1.241   6.685  13.481  0.0955  0.3979 -1.2812
  349MOL0    Cl48069   1.148   6.828  13.439  0.0297 -0.1075  0.1639
  349MOL0     C48070   2.308   6.348  13.507  0.7717 -0.2784 -0.0901
  349MOL0     C48071   2.425   6.339  13.420  0.1706  0.2550  0.5467
  349MOL0     O48072   2.702   6.287  13.333 -0.5974 -0.8834 -0.2356
  349MOL0     C48073   2.774   6.544  13.098 -0.2371 -0.7416 -0.3422
  349MOL0     C48074   2.876   6.586  13.017 -0.8003  0.8790  0.0893
  349MOL0     N48075   3.073   6.715  12.253  0.6140  0.0294  1.2397
  349MOL0     N48076   2.968   6.763  12.199 -0.2876 -0.4456 -0.3574
  349MOL0     C48077   1.962   7.129  11.895  0.6435  0.3241 -0.5577
  349MOL0     C48078   1.913   7.091  11.764  1.1015  0.2043 -0.5522
  349MOL0     C48079   1.914   7.031  11.342 -0.1192  0.5891  0.0561
  349MOL0     C48080   1.926   6.898  11.297 -0.1128 -0.5630 -0.3693
  349MOL0     C48081   1.879   6.856  11.174 -0.0272  0.1127  0.0484
  349MOL0     C48082   1.828   6.958  11.091 -0.9464  0.3237 -0.1056
  349MOL0     O48083   1.789   6.901  10.972  0.0344 -0.2591 -1.3543
  349MOL0     C48084   1.748   6.987  10.875 -0.3688 -0.3247  1.0306
  349MOL0     C48085   1.871   7.057  10.809 -0.2379  0.7077  0.1282
  349MOL0     C48086   1.981   6.950  10.771  0.2645 -0.1118 -0.3962
  349MOL0     C48087   2.095   7.015  10.688  0.4142  0.2855  0.6835
  349MOL0     C48088   2.180   6.900  10.659 -0.6503  0.5410 -0.8838
  349MOL0     C48089   2.257   6.816  10.623 -0.2017 -0.0958 -0.6775
  349MOL0     C48090   1.811   7.087  11.135  0.4234  0.1726  0.3925
  349MOL0     C48091   1.858   7.132  11.261  0.7030  0.3967 -0.5435
  349MOL0     C48092   1.852   7.279  11.308 -0.2548  0.0746  0.2949
  349MOL0     H48093   2.066   6.787  11.735  0.6353  1.8447 -3.3436
  349MOL0     H48094   2.152   6.856  11.951  2.4673  3.7036  2.3735
  349MOL0     H48095   1.956   7.176  12.194  0.0944  0.4428 -1.3190
  349MOL0     H48096   2.100   7.252  12.115 -0.1170 -1.9343 -2.6249
  349MOL0     H48097   2.112   7.258  12.353 -0.9694  1.3414 -0.5064
  349MOL0     H48098   2.099   7.080  12.357  1.7865 -0.6846 -0.3321
  349MOL0     H48099   2.318   7.024  12.271 -1.0862  0.3837 -1.8434
  349MOL0     H48100   2.335   7.162  12.190  1.7619  1.8706  1.5732
  349MOL0     H48101   2.439   7.275  12.346 -1.0663 -0.8305 -2.4936
  349MOL0     H48102   2.322   7.220  12.474 -1.0289 -2.2874  0.0456
  349MOL0     H48103   2.452   7.015  12.504 -2.8288  1.3427 -0.1001
  349MOL0     H48104   2.539   7.157  12.532 -4.7743  0.1896  3.0340
  349MOL0     H48105   2.550   7.007  12.253 -2.2154 -0.1661  0.5594
  349MOL0     H48106   2.633   7.155  12.289  0.3743 -1.7698 -2.5333
  349MOL0     H48107   2.692   6.933  12.475  0.3730  0.0911  0.5647
  349MOL0     H48108   2.797   7.064  12.398  0.0435 -0.4820  0.3086
  349MOL0     H48109   2.706   6.803  12.247  0.1355  0.0647  0.5897
  349MOL0     H48110   2.764   6.946  12.177 -2.1132  0.9486 -0.0493
  349MOL0     H48111   2.945   6.895  12.499 -0.0558  0.0545  0.0374
  349MOL0     H48112   3.178   6.801  12.561  0.1623 -0.4065 -0.0251
  349MOL0     H48113   3.282   6.712  12.455  0.3215  2.8786  1.3677
  349MOL0     H48114   3.028   6.625  12.588  0.1030 -1.7840  2.6991
  349MOL0     H48115   3.107   6.521  12.476  0.2507 -0.9106  0.4185
  349MOL0     H48116   3.301   6.504  12.657  1.5411  1.5421  1.9474
  349MOL0     H48117   3.236   6.633  12.745  1.4044 -0.1032 -0.7306
  349MOL0     H48118   3.061   6.393  12.704  2.3650 -2.2668  0.8770
  349MOL0     H48119   3.188   6.385  12.824  0.0976 -2.6087 -2.7718
  349MOL0     H48120   3.013   6.282  12.954  4.8620  1.8877  0.5814
  349MOL0     H48121   2.900   6.112  13.053 -1.2770  1.6413 -2.2141
  349MOL0     H48122   2.777   6.135  13.174 -0.3710 -0.0015 -0.8409
  349MOL0     H48123   2.954   6.149  13.214  2.2816  2.7141 -1.0397
  349MOL0     H48124   2.453   6.673  13.375 -0.1830  0.5806  0.9704
  349MOL0     H48125   2.233   6.674  13.499 -1.8411 -1.8067  1.4738
  349MOL0     H48126   2.058   6.295  13.538  0.9810  0.8766  0.0041
  349MOL0     H48127   2.098   6.310  13.705 -0.9581 -2.5541 -1.0989
  349MOL0     H48128   1.862   6.270  13.667  1.7057 -0.4597  0.6613
  349MOL0     H48129   1.897   6.424  13.758  0.3213  1.2482 -0.6573
  349MOL0     H48130   1.812   6.420  13.459 -1.3605 -0.9848 -0.0218
  349MOL0     H48131   1.877   6.553  13.558 -0.0495 -0.7591 -0.9523
  349MOL0     H48132   1.668   6.539  13.695 -1.7107  1.2632  0.2449
  349MOL0     H48133   1.626   6.391  13.620 -0.7464 -0.2683  0.1898
  349MOL0     H48134   1.651   6.671  13.500 -0.5156  0.3823 -2.3852
  349MOL0     H48135   1.629   6.535  13.402  1.5341  1.5069  0.4687
  349MOL0     H48136   1.442   6.617  13.625 -0.9992  1.0702  0.1370
  349MOL0     H48137   1.407   6.486  13.509 -0.9915  1.3187 -0.8388
  349MOL0     H48138   1.394   6.661  13.326 -1.5267 -0.8903 -0.4636
  349MOL0     H48139   1.437   6.773  13.465  3.3041 -2.9122 -0.1312
  349MOL0     H48140   1.245   6.672  13.590  1.5181  1.5060 -1.1738
  349MOL0     H48141   1.191   6.594  13.447  1.8057 -1.6763  1.3589
  349MOL0     H48142   2.287   6.253  13.554 -0.6186  0.9264  1.9096
  349MOL0     H48143   2.462   6.238  13.402  0.9624  0.7052 -0.4389
  349MOL0     H48144   2.694   6.605  13.137 -1.4845 -2.0810 -0.7323
  349MOL0     H48145   2.891   6.690  12.991  3.5696 -0.5787 -4.8564
  349MOL0     H48146   1.916   7.202  11.962 -0.7164 -2.0450  1.2582
  349MOL0     H48147   1.826   7.143  11.726  0.1678 -1.8731 -1.3912
  349MOL0     H48148   1.988   6.828  11.352  0.6477  1.7723  1.9689
  349MOL0     H48149   1.887   6.752  11.142  0.6095 -0.6384  2.4527
  349MOL0     H48150   1.700   6.932  10.793  0.2825  1.0649 -0.3175
  349MOL0     H48151   1.684   7.061  10.924  1.1413  2.2347 -0.6573
  349MOL0     H48152   1.914   7.130  10.879 -2.1861  0.0461  2.1051
  349MOL0     H48153   1.848   7.108  10.715  0.4754 -0.9300 -0.9817
  349MOL0     H48154   2.015   6.913  10.868 -1.4409  1.6922  0.9939
  349MOL0     H48155   1.941   6.862  10.721 -1.2188  0.6023 -0.5439
  349MOL0     H48156   2.149   7.085  10.753  1.3574  1.1153 -0.9372
  349MOL0     H48157   2.057   7.076  10.606  2.4426  0.1855 -0.4020
  349MOL0     H48158   2.337   6.756  10.584 -0.0926 -0.1973 -0.2975
  349MOL0     H48159   1.772   7.163  11.069 -0.4747  1.5589  2.4103
  349MOL0     H48160   1.800   7.295  11.403 -2.1759 -3.6799  0.0741
  349MOL0     H48161   1.952   7.324  11.303  0.5946 -1.5658  1.5036
  349MOL0     H48162   1.806   7.334  11.225 -0.4674  0.3005  0.5619
  350MOL0     O48163   5.485   3.624   8.038  0.8013 -0.0176  0.3839
  350MOL0     C48164   5.447   3.622   8.157  0.1492 -0.3029  0.0470
  350MOL0     O48165   5.311   3.653   8.190 -0.2345  0.4396 -0.8974
  350MOL0     C48166   5.222   3.671   8.092  0.0503 -0.0359  0.1951
  350MOL0     C48167   5.201   3.797   8.042 -0.3257 -0.1545  0.5177
  350MOL0     C48168   5.099   3.818   7.952 -0.6444  0.1687  0.9628
  350MOL0     C48169   5.016   3.717   7.907 -0.5923 -0.2034  0.2435
  350MOL0     O48170   4.898   3.748   7.845  0.1094 -0.6044  0.9081
  350MOL0     C48171   4.899   3.787   7.709 -0.3812  0.2976  0.1877
  350MOL0     C48172   4.772   3.774   7.630  0.0706  0.7582 -0.2657
  350MOL0     C48173   4.662   3.838   7.717  0.4316 -0.3733  0.6454
  350MOL0     C48174   4.522   3.856   7.642 -0.4746 -0.4136 -0.7350
  350MOL0     C48175   4.416   3.914   7.744 -0.2830  0.3666  0.0834
  350MOL0     C48176   4.268   3.919   7.687 -0.0467  0.2327  1.1332
  350MOL0     C48177   4.211   3.772   7.671  0.1460 -0.0035  0.8263
  350MOL0     C48178   4.095   3.752   7.772 -0.4768  0.0184  1.3252
  350MOL0     N48179   4.129   3.776   7.910 -0.2477 -0.7507 -0.7701
  350MOL0     C48180   4.087   3.872   7.997  0.0204 -0.3575 -0.5124
  350MOL0     C48181   4.172   3.863   8.103 -0.0601 -0.2057 -1.1462
  350MOL0     C48182   4.165   3.953   8.228  0.1721 -0.1671 -0.3430
  350MOL0     C48183   4.022   4.001   8.275  0.6301 -0.0615 -0.5119
  350MOL0     C48184   3.915   3.894   8.313 -1.2190  0.5740  0.1716
  350MOL0     C48185   3.776   3.946   8.358 -0.7595 -0.2075  0.0338
  350MOL0     O48186   3.800   4.009   8.490 -0.6071 -0.3471  0.7573
  350MOL0     C48187   3.809   3.934   8.598 -0.7948 -0.3038 -0.1122
  350MOL0     C48188   3.802   3.796   8.614 -0.3921  0.4252 -0.4441
  350MOL0     C48189   3.819   3.735   8.744 -0.5508 -0.4840  0.2150
  350MOL0     C48190   3.810   3.587   8.743 -0.2047  0.0155 -0.9337
  350MOL0     C48191   3.828   3.815   8.868  0.1646  0.0928  1.2089
  350MOL0     C48192   3.855   3.769   9.002 -0.0412  1.0775 -0.5824
  350MOL0     O48193   3.857   3.867   9.099 -0.1343 -0.2392 -0.0005
  350MOL0     C48194   3.875   3.855   9.228 -0.9699 -0.4317  0.5319
  350MOL0     C48195   3.802   3.938   9.311  0.9841 -0.3505  0.2307
  350MOL0     C48196   3.814   3.922   9.451  0.0209  0.1102  0.1813
  350MOL0     C48197   3.911   3.834   9.503  0.9618  0.0617  0.0041
  350MOL0     O48198   3.911   3.825   9.643 -0.0884  0.8667 -0.0636
  350MOL0     C48199   3.988   3.716   9.709 -0.4442 -0.5149  0.4044
  350MOL0     C48200   3.995   3.721   9.867  0.6922  0.2853  0.1931
  350MOL0     C48201   4.103   3.623   9.930  0.2480 -0.2869  0.7404
  350MOL0     C48202   4.073   3.617  10.076 -0.7582 -0.4352  0.1798
  350MOL0     C48203   4.183   3.537  10.148 -0.3335  1.1572 -0.5214
  350MOL0     C48204   4.148   3.522  10.300 -0.5394  0.2305 -0.3721
  350MOL0     C48205   4.266   3.457  10.383 -0.9706  0.7631  0.3770
  350MOL0     C48206   4.396   3.535  10.383 -0.2603  0.1897  0.9184
  350MOL0    Cl48207   4.538   3.470  10.470 -0.2927  0.0961 -0.1984
  350MOL0     C48208   3.978   3.743   9.417 -0.3128 -1.0524 -0.6529
  350MOL0     C48209   3.966   3.759   9.278 -0.4713 -0.4934  0.5647
  350MOL0     O48210   3.862   3.646   9.023 -0.2028  0.1256  1.0479
  350MOL0     C48211   3.816   3.947   8.847 -0.2984 -0.4146  0.0836
  350MOL0     C48212   3.814   4.002   8.717  0.3938  0.4656 -0.3884
  350MOL0     N48213   4.267   3.761   8.077  0.0160  0.5153 -0.0130
  350MOL0     N48214   4.227   3.697   7.969 -0.4338  0.1726 -0.4584
  350MOL0     C48215   5.039   3.590   7.950  0.5455 -0.2648  0.4950
  350MOL0     C48216   5.130   3.567   8.051 -0.0964 -0.4205 -0.0340
  350MOL0     C48217   5.549   3.582   8.259  0.5984 -0.4575 -1.3364
  350MOL0     C48218   5.683   3.567   8.218  1.2612 -0.3436  0.2325
  350MOL0     C48219   5.784   3.556   8.314  0.3414  0.1949  0.6569
  350MOL0     C48220   5.753   3.532   8.449 -0.2239  0.5368  0.5705
  350MOL0     O48221   5.837   3.502   8.548 -0.7303 -0.1517 -0.2900
  350MOL0     C48222   5.978   3.486   8.510 -0.1272  0.0386  0.1869
  350MOL0     C48223   6.063   3.434   8.625  0.3456  0.1268  0.3970
  350MOL0     C48224   5.991   3.322   8.714 -0.0588 -0.1758  0.1201
  350MOL0     C48225   6.077   3.295   8.845 -0.1560  0.9816  0.9560
  350MOL0     C48226   6.206   3.222   8.815  0.7573  0.1416  0.0879
  350MOL0     C48227   6.302   3.159   8.796 -0.9567  0.8703  0.1939
  350MOL0     C48228   5.624   3.550   8.496  0.8695 -0.1696 -0.4613
  350MOL0     C48229   5.522   3.573   8.402  0.2294  0.4764 -0.3946
  350MOL0     C48230   5.379   3.613   8.450 -0.7549  0.1008  0.3969
  350MOL0     H48231   5.258   3.879   8.083 -2.7896  2.4377 -0.9271
  350MOL0     H48232   5.089   3.915   7.905  0.5708 -1.0994 -2.2118
  350MOL0     H48233   4.980   3.736   7.656  1.3874  1.3029  1.8331
  350MOL0     H48234   4.921   3.894   7.705 -0.0478  0.2700  1.1222
  350MOL0     H48235   4.767   3.810   7.527 -1.5940 -4.6143 -2.3893
  350MOL0     H48236   4.755   3.668   7.615 -0.5452  1.1980 -3.1641
  350MOL0     H48237   4.637   3.778   7.805 -2.8935  0.1203  0.1946
  350MOL0     H48238   4.711   3.930   7.749 -1.1897  1.0483 -0.7669
  350MOL0     H48239   4.525   3.915   7.551  1.6541  0.2134 -0.3282
  350MOL0     H48240   4.485   3.755   7.622  1.0394 -1.1218 -0.1971
  350MOL0     H48241   4.446   4.010   7.788  0.2306 -0.5714  1.8845
  350MOL0     H48242   4.418   3.848   7.831 -1.4638 -0.1511 -0.2637
  350MOL0     H48243   4.209   3.983   7.753 -2.3281 -1.6474  1.0208
  350MOL0     H48244   4.272   3.960   7.585 -1.6001  2.7162  1.9687
  350MOL0     H48245   4.292   3.698   7.678  0.0259 -0.2640 -0.3289
  350MOL0     H48246   4.171   3.775   7.569 -0.8437  1.1256  1.2280
  350MOL0     H48247   4.013   3.820   7.747 -2.2496 -3.0541 -2.1238
  350MOL0     H48248   4.061   3.650   7.754  3.1736 -0.7843 -2.5002
  350MOL0     H48249   3.997   3.931   7.985  1.3842  1.6775 -1.4182
  350MOL0     H48250   4.222   4.042   8.203 -0.2831 -0.1323 -1.3143
  350MOL0     H48251   4.212   3.901   8.313  1.6547 -1.0357 -1.6293
  350MOL0     H48252   4.034   4.069   8.360  1.8332 -1.6257  0.6335
  350MOL0     H48253   3.983   4.051   8.186  0.8741  2.0944  0.5085
  350MOL0     H48254   3.896   3.818   8.237 -1.3146 -1.9230  2.5555
  350MOL0     H48255   3.953   3.842   8.400  0.0270 -3.0107 -2.2952
  350MOL0     H48256   3.736   4.021   8.289 -1.8338 -1.8553 -1.2248
  350MOL0     H48257   3.705   3.864   8.370 -0.3036 -0.9608 -2.0051
  350MOL0     H48258   3.801   3.742   8.520 -0.8683 -0.8712  0.2846
  350MOL0     H48259   3.780   3.552   8.643 -0.2415 -1.3420 -0.4695
  350MOL0     H48260   3.732   3.551   8.810 -0.0132  0.6030 -0.3866
  350MOL0     H48261   3.902   3.533   8.767 -1.3924 -2.1105 -0.9166
  350MOL0     H48262   3.750   4.025   9.272  2.9032  1.5241  1.6434
  350MOL0     H48263   3.762   4.000   9.506  3.0726  3.7657 -1.6658
  350MOL0     H48264   3.941   3.620   9.683  0.4312 -0.5714 -1.0944
  350MOL0     H48265   4.088   3.721   9.664 -2.0973 -0.8591 -3.7666
  350MOL0     H48266   4.006   3.828   9.884  2.9867  0.0025  0.8140
  350MOL0     H48267   3.898   3.689   9.906  0.7062  0.4550  0.3683
  350MOL0     H48268   4.195   3.680   9.913 -1.8695  3.6746  1.3040
  350MOL0     H48269   4.107   3.526   9.882 -1.9089 -0.0664 -0.0147
  350MOL0     H48270   3.988   3.549  10.092  0.5572 -1.7925  1.9779
  350MOL0     H48271   4.052   3.716  10.116  2.9948  0.4816  0.2410
  350MOL0     H48272   4.174   3.435  10.110 -2.3869  1.5804 -1.2539
  350MOL0     H48273   4.280   3.583  10.125  0.3957 -0.7380 -1.4217
  350MOL0     H48274   4.058   3.460  10.302 -0.3197 -0.0735  0.4835
  350MOL0     H48275   4.120   3.617  10.346  1.5412  0.8121 -0.2248
  350MOL0     H48276   4.283   3.353  10.352 -1.4943  0.1691  1.9244
  350MOL0     H48277   4.224   3.456  10.485 -1.8457  0.5157  0.0266
  350MOL0     H48278   4.382   3.639  10.412 -2.7996  0.8294 -2.0601
  350MOL0     H48279   4.423   3.548  10.278 -0.3084  1.2837  1.0356
  350MOL0     H48280   4.035   3.660   9.456 -0.8621 -0.9593  0.3884
  350MOL0     H48281   4.003   3.677   9.217  2.1126  0.9233  0.0704
  350MOL0     H48282   3.828   4.020   8.927  2.6984  0.3341 -0.9059
  350MOL0     H48283   3.810   4.110   8.711 -0.9828  0.4903  0.5291
  350MOL0     H48284   4.966   3.522   7.906  0.4428 -0.6495  1.2477
  350MOL0     H48285   5.143   3.465   8.087 -1.5044 -1.8157 -3.1517
  350MOL0     H48286   5.709   3.576   8.113  0.1455  0.5985  0.0046
  350MOL0     H48287   5.886   3.543   8.282 -0.6418 -2.2241 -1.8902
  350MOL0     H48288   5.990   3.414   8.429  5.3165  1.8405 -0.9823
  350MOL0     H48289   6.027   3.580   8.485 -0.7731  0.5072  0.6394
  350MOL0     H48290   6.082   3.525   8.683 -1.9428  0.8203  0.1782
  350MOL0     H48291   6.157   3.392   8.588 -0.9195 -1.5423 -1.1142
  350MOL0     H48292   5.900   3.371   8.748  0.6096  1.4380 -0.2766
  350MOL0     H48293   5.978   3.231   8.655  0.0235  1.1952 -2.1729
  350MOL0     H48294   6.022   3.228   8.911 -3.6655  3.3254  0.6693
  350MOL0     H48295   6.105   3.387   8.898 -1.4962  0.1835  3.2128
  350MOL0     H48296   6.385   3.093   8.808 -3.3277 -2.4167  0.0579
  350MOL0     H48297   5.599   3.553   8.602  3.1635 -0.1030  0.1299
  350MOL0     H48298   5.306   3.538   8.421 -0.0032 -0.4621 -0.0690
  350MOL0     H48299   5.368   3.606   8.559 -0.5739 -1.4458  0.3307
  350MOL0     H48300   5.367   3.722   8.440  4.1415  1.0444  2.0639
  351MOL0     O48301   4.281   1.791  10.598  0.0713  0.5982  0.0821
  351MOL0     C48302   4.301   1.715  10.697 -0.6255 -0.3661 -0.5380
  351MOL0     O48303   4.373   1.602  10.688 -0.2136  0.7473 -0.5601
  351MOL0     C48304   4.446   1.551  10.573 -0.0514 -0.9682 -0.3272
  351MOL0     C48305   4.569   1.489  10.587 -0.0249  0.3072 -0.2459
  351MOL0     C48306   4.632   1.434  10.472  0.1173  0.7430  0.4207
  351MOL0     C48307   4.560   1.423  10.353  0.2191 -0.4240 -0.1156
  351MOL0     O48308   4.629   1.362  10.254  0.0778  0.8449 -0.0505
  351MOL0     C48309   4.662   1.226  10.267 -0.2206  1.0476  0.4392
  351MOL0     C48310   4.649   1.154  10.135 -0.3021  0.7988  0.5177
  351MOL0     C48311   4.762   1.168  10.047  0.0145 -0.1806  0.4811
  351MOL0     C48312   4.747   1.092   9.917 -0.4451 -0.1404 -0.4001
  351MOL0     C48313   4.718   1.187   9.795  0.5492 -0.3884 -0.3734
  351MOL0     C48314   4.683   1.106   9.660  0.0489  0.3162  0.1020
  351MOL0     C48315   4.572   1.165   9.576 -0.2798  0.2515 -0.4710
  351MOL0     C48316   4.605   1.310   9.531  0.3843 -1.0819  0.1029
  351MOL0     N48317   4.506   1.343   9.428  0.1540  0.4551 -0.3762
  351MOL0     C48318   4.384   1.272   9.399 -0.0550 -0.3083 -0.0832
  351MOL0     C48319   4.335   1.347   9.293 -0.2156  0.3753 -0.4358
  351MOL0     C48320   4.211   1.319   9.218  0.0162  0.9441  0.3100
  351MOL0     C48321   4.075   1.375   9.264 -0.3575 -0.5330 -0.2353
  351MOL0     C48322   3.961   1.331   9.167  0.3226 -0.2894  0.5881
  351MOL0     C48323   3.821   1.346   9.230  0.1078 -1.0268  0.5668
  351MOL0     O48324   3.799   1.254   9.338  0.1726  0.2483  0.3376
  351MOL0     C48325   3.727   1.138   9.322 -0.7625 -0.9048 -1.6264
  351MOL0     C48326   3.685   1.088   9.201  0.3808 -0.3992  0.2952
  351MOL0     C48327   3.604   0.978   9.198 -0.0980  0.1102 -0.7173
  351MOL0     C48328   3.553   0.931   9.065 -0.6643 -1.0926 -0.6079
  351MOL0     C48329   3.596   0.901   9.315  0.0251 -0.1990 -0.0328
  351MOL0     C48330   3.533   0.767   9.307 -0.8309  0.0957 -1.1455
  351MOL0     O48331   3.621   0.660   9.334  0.3822 -0.2103  0.3474
  351MOL0     C48332   3.608   0.536   9.278  0.3961 -0.7344 -1.0693
  351MOL0     C48333   3.550   0.531   9.152 -0.4403 -0.0219 -0.0400
  351MOL0     C48334   3.562   0.414   9.076  0.1154 -0.5583 -0.6135
  351MOL0     C48335   3.637   0.306   9.113  0.5396  0.5703 -0.1656
  351MOL0     O48336   3.639   0.198   9.024  0.0086  0.4443  0.1951
  351MOL0     C48337   3.539   0.097   9.058  0.0177  0.4357  0.1160
  351MOL0     C48338   3.556  -0.024   8.968 -0.0364  0.2171  0.6296
  351MOL0     C48339   3.704  -0.078   8.986 -0.4731 -0.1160  1.2803
  351MOL0     C48340   3.738  -0.205   8.896 -0.4905  0.2102  0.9802
  351MOL0     C48341   3.669  -0.331   8.930 -0.4800  0.0252 -0.3837
  351MOL0     C48342   3.686  -0.379   9.080 -0.1407 -0.1721  0.6141
  351MOL0     C48343   3.637  -0.524   9.110 -0.3684 -0.8603 -0.0648
  351MOL0     C48344   3.705  -0.622   9.020  0.2634 -0.2270 -0.9232
  351MOL0    Cl48345   3.637  -0.787   9.073  0.1754 -0.1145  0.3596
  351MOL0     C48346   3.692   0.306   9.241  0.4043  0.6555 -0.3361
  351MOL0     C48347   3.676   0.420   9.324 -0.3858  0.4808 -0.5126
  351MOL0     O48348   3.411   0.756   9.292  0.0645 -1.5487  0.7482
  351MOL0     C48349   3.639   0.952   9.436 -0.1461  1.1715 -0.9328
  351MOL0     C48350   3.708   1.072   9.446  0.2863 -0.4607  1.0684
  351MOL0     N48351   4.421   1.449   9.260  0.0273 -1.4000 -1.1207
  351MOL0     N48352   4.521   1.453   9.346  0.1713 -0.1412  0.0729
  351MOL0     C48353   4.443   1.497  10.336  0.0607  0.0012 -0.9908
  351MOL0     C48354   4.383   1.559  10.443 -0.6904 -0.1218  0.2791
  351MOL0     C48355   4.264   1.757  10.823  0.0675  0.1568 -0.6461
  351MOL0     C48356   4.226   1.666  10.919 -0.5940  0.3521 -0.1966
  351MOL0     C48357   4.168   1.704  11.037 -0.2222  0.2659  0.0941
  351MOL0     C48358   4.154   1.841  11.067  0.2547  0.6261 -0.1906
  351MOL0     O48359   4.101   1.891  11.181  0.2077  0.2460 -0.5606
  351MOL0     C48360   4.100   1.820  11.306 -0.5445  0.6789 -0.0534
  351MOL0     C48361   4.251   1.808  11.352  0.5988  0.1444  0.4031
  351MOL0     C48362   4.264   1.719  11.483  0.5785 -0.2308 -1.0789
  351MOL0     C48363   4.400   1.648  11.473  0.8765 -1.0220 -0.1766
  351MOL0     C48364   4.516   1.736  11.498 -0.1760  0.8862  0.0887
  351MOL0     C48365   4.618   1.796  11.504  0.0104 -0.0668  0.1603
  351MOL0     C48366   4.201   1.931  10.982  0.1430 -0.9210  0.6356
  351MOL0     C48367   4.254   1.896  10.858  0.6322  0.2956 -0.0996
  351MOL0     C48368   4.315   2.012  10.781 -0.0846  0.0270 -0.0723
  351MOL0     H48369   4.612   1.486  10.687 -0.8384 -3.2554  0.1151
  351MOL0     H48370   4.728   1.384  10.481  1.3904  2.1572 -3.3571
  351MOL0     H48371   4.582   1.175  10.322 -0.4967  1.2602  0.2365
  351MOL0     H48372   4.752   1.199  10.322 -0.0776  0.6053 -0.0049
  351MOL0     H48373   4.633   1.047  10.145 -0.7100  0.7290 -0.7356
  351MOL0     H48374   4.556   1.187  10.089 -0.2812  1.1487  0.7245
  351MOL0     H48375   4.778   1.275  10.039 -0.0658 -0.1178  1.1088
  351MOL0     H48376   4.851   1.127  10.095  1.0440  1.4670  0.0354
  351MOL0     H48377   4.841   1.040   9.896  1.0463  2.1869  0.1357
  351MOL0     H48378   4.673   1.014   9.935 -0.1030 -0.1304  1.2521
  351MOL0     H48379   4.793   1.265   9.781 -1.4086  1.9705  1.3944
  351MOL0     H48380   4.626   1.240   9.818  0.5596 -1.1624  1.6667
  351MOL0     H48381   4.770   1.082   9.600  0.1749 -2.9034  1.3937
  351MOL0     H48382   4.647   1.007   9.689 -1.1011  0.7670  0.2815
  351MOL0     H48383   4.479   1.165   9.633 -0.4883  2.4308 -0.7201
  351MOL0     H48384   4.570   1.102   9.486  0.3609 -1.2551  0.5445
  351MOL0     H48385   4.587   1.385   9.608  2.6198  3.7342 -3.5214
  351MOL0     H48386   4.701   1.329   9.484 -0.9619  3.2377 -1.3667
  351MOL0     H48387   4.346   1.176   9.435 -1.2176 -0.0294 -0.5147
  351MOL0     H48388   4.206   1.210   9.227 -0.3632  1.1443  5.4111
  351MOL0     H48389   4.230   1.360   9.118  0.5059  1.0658  0.4526
  351MOL0     H48390   4.050   1.320   9.355  3.0771 -1.0915  0.5330
  351MOL0     H48391   4.080   1.482   9.288 -1.5931 -0.7906  1.2957
  351MOL0     H48392   3.972   1.398   9.082 -3.2552  0.5878  0.6725
  351MOL0     H48393   3.969   1.225   9.142  1.7620 -0.1162  0.2612
  351MOL0     H48394   3.822   1.445   9.278 -1.5420 -1.8723  2.4632
  351MOL0     H48395   3.738   1.344   9.158  0.9053 -0.8259 -0.3898
  351MOL0     H48396   3.719   1.142   9.112 -0.5172  2.6803  1.6905
  351MOL0     H48397   3.444   0.922   9.065 -0.8295 -0.0279 -2.9123
  351MOL0     H48398   3.595   0.830   9.056 -3.9039 -2.8695  1.9428
  351MOL0     H48399   3.589   0.989   8.979  1.9158 -0.4495  0.7943
  351MOL0     H48400   3.496   0.613   9.106  1.8781  2.7832  1.8511
  351MOL0     H48401   3.534   0.406   8.971 -3.7107  1.6449  0.0636
  351MOL0     H48402   3.548   0.077   9.165  0.3071 -0.6062 -0.0942
  351MOL0     H48403   3.444   0.145   9.032 -0.7000 -1.9353 -2.1394
  351MOL0     H48404   3.483  -0.102   8.990  0.9945 -0.6435  1.0837
  351MOL0     H48405   3.538  -0.001   8.862 -1.2195 -1.0853  0.5243
  351MOL0     H48406   3.737  -0.099   9.088  2.4510  3.2258  1.2070
  351MOL0     H48407   3.770   0.005   8.961 -0.8490 -0.3029 -0.4956
  351MOL0     H48408   3.845  -0.220   8.911 -0.0582  0.5179 -1.4407
  351MOL0     H48409   3.705  -0.174   8.797  0.8141 -0.1129  0.4252
  351MOL0     H48410   3.563  -0.333   8.905 -0.4821  1.3821 -0.5582
  351MOL0     H48411   3.724  -0.401   8.865 -2.2958 -1.9880  0.1482
  351MOL0     H48412   3.626  -0.312   9.143  0.4435  0.5881  0.3906
  351MOL0     H48413   3.790  -0.359   9.109  0.3852  0.0447 -1.2833
  351MOL0     H48414   3.530  -0.533   9.091 -0.7293  1.9821  0.2312
  351MOL0     H48415   3.647  -0.560   9.213 -1.1092  0.1058  0.3619
  351MOL0     H48416   3.812  -0.634   9.037 -0.0354 -1.3964  0.3739
  351MOL0     H48417   3.680  -0.604   8.915  0.7871 -0.9077 -1.1750
  351MOL0     H48418   3.752   0.221   9.271 -0.5531 -1.2928 -3.4610
  351MOL0     H48419   3.740   0.423   9.411  0.8634  0.2597 -1.3917
  351MOL0     H48420   3.627   0.892   9.526  1.0115  2.5749  0.1991
  351MOL0     H48421   3.745   1.122   9.535 -2.2537  1.0424  1.4063
  351MOL0     H48422   4.404   1.491  10.235  2.3621  4.3045 -2.3697
  351MOL0     H48423   4.279   1.592  10.435 -0.0288  2.5618  1.5037
  351MOL0     H48424   4.215   1.561  10.894 -5.0800 -0.0712  2.3786
  351MOL0     H48425   4.119   1.621  11.087  0.5624 -1.7652 -2.3011
  351MOL0     H48426   4.049   1.874  11.386 -1.2639 -0.8706  0.5846
  351MOL0     H48427   4.064   1.717  11.290 -0.5864  0.3013  2.1846
  351MOL0     H48428   4.279   1.913  11.366 -1.8347  1.1632 -1.4601
  351MOL0     H48429   4.306   1.759  11.271 -0.0035  1.5039 -0.8856
  351MOL0     H48430   4.246   1.781  11.571 -0.7632 -2.1352  0.0639
  351MOL0     H48431   4.184   1.644  11.477  0.8424 -0.6472  0.3507
  351MOL0     H48432   4.425   1.587  11.386  4.4178 -1.2535  0.8423
  351MOL0     H48433   4.422   1.567  11.542 -1.5993 -4.0957 -2.6362
  351MOL0     H48434   4.707   1.850  11.532  0.6693 -2.2941  2.8116
  351MOL0     H48435   4.183   2.038  10.991 -0.0859 -0.7110 -1.6653
  351MOL0     H48436   4.425   2.011  10.785 -0.1117  0.5570  2.9928
  351MOL0     H48437   4.277   2.021  10.679  0.0166  1.4261 -0.0072
  351MOL0     H48438   4.295   2.108  10.829  1.0128 -0.7865  2.1368
  352MOL0     O48439   9.066   1.175  11.445 -0.2972  0.9097  0.4449
  352MOL0     C48440   8.970   1.216  11.378 -0.0160  0.2587 -0.4557
  352MOL0     O48441   8.841   1.227  11.421  0.3175  0.9307  0.2553
  352MOL0     C48442   8.810   1.216  11.560  0.5418 -0.7270  0.6717
  352MOL0     C48443   8.688   1.151  11.593  0.1177  0.0639 -0.5784
  352MOL0     C48444   8.648   1.137  11.725 -0.2287 -0.9637  0.1347
  352MOL0     C48445   8.739   1.175  11.832 -0.5579 -0.1157 -0.7073
  352MOL0     O48446   8.697   1.150  11.960 -0.3122 -0.6191 -0.0720
  352MOL0     C48447   8.797   1.133  12.061  0.3604 -0.3866  0.4281
  352MOL0     C48448   8.719   1.073  12.184  0.3410 -0.0266  0.5533
  352MOL0     C48449   8.795   0.999  12.296 -0.4213  0.8520  0.8452
  352MOL0     C48450   8.851   1.093  12.404 -1.2579  0.3100 -0.4313
  352MOL0     C48451   8.868   1.025  12.546  0.4144  0.7867 -1.4462
  352MOL0     C48452   8.928   0.881  12.533 -0.3486 -0.8398 -1.0767
  352MOL0     C48453   9.053   0.878  12.446 -0.4094 -0.8189  0.3165
  352MOL0     C48454   9.148   0.766  12.491  0.3086 -0.4124 -0.5363
  352MOL0     N48455   9.263   0.764  12.411 -0.3398 -0.4470  0.1123
  352MOL0     C48456   9.401   0.762  12.446 -0.4156 -0.3220 -0.2513
  352MOL0     C48457   9.464   0.738  12.324 -0.3375  0.0670  0.0953
  352MOL0     C48458   9.618   0.731  12.293  0.1439 -0.3600 -0.2212
  352MOL0     C48459   9.678   0.619  12.379 -0.0804 -0.6898 -0.1482
  352MOL0     C48460   9.668   0.468  12.325 -0.5974 -0.0641 -0.7925
  352MOL0     C48461   9.597   0.384  12.435  0.1858 -0.2987 -0.6509
  352MOL0     O48462   9.666   0.404  12.562 -0.3853  0.0273 -0.3421
  352MOL0     C48463   9.783   0.338  12.595 -0.3422  0.7884  0.8750
  352MOL0     C48464   9.836   0.364  12.725 -0.6350  0.2214 -0.5521
  352MOL0     C48465   9.959   0.303  12.761  0.9552 -0.4103 -0.4282
  352MOL0     C48466   9.992   0.295  12.904 -0.3233  0.3020  0.3563
  352MOL0     C48467  10.041   0.231  12.670 -0.3013 -0.0388 -0.0545
  352MOL0     C48468  10.180   0.189  12.706 -0.7169  0.2084  0.6430
  352MOL0     O48469  10.204   0.058  12.715 -0.3822  0.1050  0.0882
  352MOL0     C48470  10.328   0.030  12.768  0.2052  1.1078 -0.1583
  352MOL0     C48471  10.431  -0.017  12.688 -0.3607 -0.3186  0.2697
  352MOL0     C48472  10.548  -0.066  12.746  0.3614 -0.6550 -0.0026
  352MOL0     C48473  10.568  -0.061  12.883 -0.3687 -0.5164  0.4223
  352MOL0     O48474  10.689  -0.106  12.933 -0.2244  0.2366  0.5407
  352MOL0     C48475  10.727  -0.059  13.061 -0.1832  1.1585  0.0581
  352MOL0     C48476  10.889  -0.074  13.069 -0.3691  0.2214 -0.8148
  352MOL0     C48477  10.951  -0.070  13.213  0.1216  0.0689 -0.7168
  352MOL0     C48478  11.100  -0.114  13.194 -0.6818  0.4703  0.1393
  352MOL0     C48479  11.183  -0.095  13.324  0.6579  0.9587  0.1502
  352MOL0     C48480  11.318  -0.156  13.324  0.7599  0.1027 -0.6973
  352MOL0     C48481  11.419  -0.114  13.225  0.4538  0.1806 -0.7778
  352MOL0     C48482  11.560  -0.172  13.244  0.0054 -0.1276  0.1004
  352MOL0    Cl48483  11.567  -0.351  13.210 -0.3655  0.1082 -0.0354
  352MOL0     C48484  10.466  -0.005  12.962  0.1708 -0.3804  0.0012
  352MOL0     C48485  10.342   0.027  12.906 -0.0521 -0.3536  0.3797
  352MOL0     O48486  10.263   0.279  12.704  0.2110 -0.0296 -0.1721
  352MOL0     C48487   9.982   0.205  12.549  1.2890 -0.3926  0.0254
  352MOL0     C48488   9.859   0.252  12.510  1.0786 -1.0538  0.8544
  352MOL0     N48489   9.367   0.721  12.226 -0.4438  0.5303 -0.5603
  352MOL0     N48490   9.250   0.732  12.279 -0.2531  0.6888 -0.4934
  352MOL0     C48491   8.868   1.230  11.801  0.2168  1.0383 -0.2280
  352MOL0     C48492   8.895   1.237  11.668  0.4482 -0.9207 -0.5082
  352MOL0     C48493   8.985   1.266  11.234 -0.7450 -0.7415 -0.9353
  352MOL0     C48494   8.878   1.343  11.180 -0.1857  0.8373 -0.3260
  352MOL0     C48495   8.879   1.400  11.054  0.7581  0.6008 -0.1046
  352MOL0     C48496   8.975   1.369  10.964  0.0309 -0.7458  0.0574
  352MOL0     O48497   8.955   1.411  10.836  0.0405 -0.6004  0.1853
  352MOL0     C48498   8.990   1.317  10.728  0.4738  0.5289  0.1635
  352MOL0     C48499   9.125   1.352  10.660 -0.1069 -0.4312 -0.5587
  352MOL0     C48500   9.168   1.504  10.684  0.1187  0.7418  0.5010
  352MOL0     C48501   9.289   1.539  10.582  0.5427  0.7801  0.2523
  352MOL0     C48502   9.241   1.566  10.447  0.6548 -0.3092 -0.5058
  352MOL0     C48503   9.202   1.570  10.334 -0.6686  0.3934  1.1656
  352MOL0     C48504   9.084   1.287  11.005  0.2172 -0.8555  0.3772
  352MOL0     C48505   9.095   1.241  11.141 -0.5237 -0.3764  0.4395
  352MOL0     C48506   9.216   1.160  11.179  0.1214  0.4003 -0.0369
  352MOL0     H48507   8.626   1.111  11.513 -0.3452  0.6743 -0.5305
  352MOL0     H48508   8.552   1.091  11.748 -0.5055 -1.0356 -1.0995
  352MOL0     H48509   8.856   1.223  12.080 -2.4812  1.6778  0.0739
  352MOL0     H48510   8.862   1.057  12.016 -1.3441 -1.5991 -0.0642
  352MOL0     H48511   8.655   1.146  12.235 -1.6283 -1.0257 -0.3808
  352MOL0     H48512   8.648   0.999  12.145  0.0923  0.0273  0.8966
  352MOL0     H48513   8.719   0.934  12.339  1.9721 -3.8469 -1.3020
  352MOL0     H48514   8.866   0.928  12.254 -2.9528 -0.4608 -1.5655
  352MOL0     H48515   8.943   1.147  12.377 -0.7256  1.6242  3.3251
  352MOL0     H48516   8.779   1.175  12.416 -3.3203 -0.9876 -2.9637
  352MOL0     H48517   8.770   1.032  12.595  0.4667 -0.0229 -1.1999
  352MOL0     H48518   8.938   1.082  12.606 -0.3749 -0.6951  1.0399
  352MOL0     H48519   8.958   0.847  12.632  3.3186  5.1826  0.4210
  352MOL0     H48520   8.858   0.816  12.480 -1.7043  0.0701 -0.4445
  352MOL0     H48521   9.112   0.968  12.468  1.3980 -2.1949  1.4363
  352MOL0     H48522   9.036   0.879  12.338  0.2739  1.7080  0.1826
  352MOL0     H48523   9.169   0.785  12.596 -0.6334 -4.2685  0.4968
  352MOL0     H48524   9.104   0.666  12.490 -0.4416 -0.0863 -1.0157
  352MOL0     H48525   9.441   0.776  12.545 -1.7759 -3.5821  0.8810
  352MOL0     H48526   9.662   0.824  12.329  1.1599 -1.5423  1.8036
  352MOL0     H48527   9.658   0.712  12.193  3.0643 -1.0745  0.9832
  352MOL0     H48528   9.785   0.639  12.374  0.2055 -2.1302 -0.0168
  352MOL0     H48529   9.632   0.622  12.479 -2.6463 -3.3489 -1.1048
  352MOL0     H48530   9.599   0.467  12.240  0.5455 -0.4504 -1.7401
  352MOL0     H48531   9.763   0.427  12.290 -1.0173 -2.4351  0.6294
  352MOL0     H48532   9.501   0.433  12.453  1.6843  2.1852  1.3608
  352MOL0     H48533   9.583   0.278  12.416  0.9643 -0.5467  0.0582
  352MOL0     H48534   9.779   0.430  12.790 -0.3720  0.2167 -0.3139
  352MOL0     H48535  10.039   0.206  12.948 -1.7657  0.5197  2.4755
  352MOL0     H48536   9.903   0.310  12.966  1.7771  0.9751  3.4680
  352MOL0     H48537  10.056   0.373  12.947  2.5752 -1.0885 -1.1360
  352MOL0     H48538  10.429  -0.042  12.582 -0.4500 -0.1539  0.2319
  352MOL0     H48539  10.604  -0.115  12.667 -0.4252  0.5652 -1.3761
  352MOL0     H48540  10.710   0.048  13.079  0.1344  1.3807 -0.8800
  352MOL0     H48541  10.666  -0.106  13.139  0.0490 -0.6797 -0.8245
  352MOL0     H48542  10.912  -0.174  13.029  0.2175  0.9251 -2.3131
  352MOL0     H48543  10.939  -0.005  13.001 -2.2016  2.0315 -0.4040
  352MOL0     H48544  10.901  -0.137  13.283  1.7950 -2.7109 -1.9967
  352MOL0     H48545  10.931   0.031  13.251 -2.6823 -1.5667  2.6911
  352MOL0     H48546  11.154  -0.077  13.107  0.0203 -1.4580 -0.2966
  352MOL0     H48547  11.099  -0.221  13.173 -0.3934  0.1746  1.5148
  352MOL0     H48548  11.205   0.011  13.342 -1.0201  1.2603  0.5266
  352MOL0     H48549  11.119  -0.141  13.399  1.4614  0.3006  0.4484
  352MOL0     H48550  11.300  -0.263  13.310  0.4103  0.2764 -1.6898
  352MOL0     H48551  11.357  -0.137  13.424  1.1428 -0.8108 -0.6669
  352MOL0     H48552  11.431  -0.006  13.240 -1.2369  0.0123  3.1048
  352MOL0     H48553  11.386  -0.149  13.127  2.7015  0.4574 -1.6966
  352MOL0     H48554  11.591  -0.167  13.349  0.2944  1.8040 -0.0392
  352MOL0     H48555  11.637  -0.120  13.186  0.9902  0.3333  1.7440
  352MOL0     H48556  10.475   0.014  13.069 -0.1865  2.3536 -0.3865
  352MOL0     H48557  10.254   0.069  12.953  0.5246 -0.3088  1.4422
  352MOL0     H48558  10.046   0.154  12.477 -0.8378  0.8223 -2.9334
  352MOL0     H48559   9.824   0.219  12.413 -3.5979 -2.8535  2.8283
  352MOL0     H48560   8.933   1.258  11.883  1.9110  0.1199 -1.2124
  352MOL0     H48561   8.993   1.283  11.660 -1.2813  2.8237 -2.4461
  352MOL0     H48562   8.783   1.338  11.232 -1.6590  0.2622 -2.8844
  352MOL0     H48563   8.794   1.463  11.027 -1.3366 -2.2866 -0.8093
  352MOL0     H48564   8.989   1.214  10.765  2.0451  0.0745 -0.9280
  352MOL0     H48565   8.906   1.309  10.658 -0.0396 -0.2664  0.8620
  352MOL0     H48566   9.104   1.333  10.554 -1.6643 -0.8479 -0.1989
  352MOL0     H48567   9.205   1.289  10.700  0.1010  0.1931  0.0263
  352MOL0     H48568   9.083   1.568  10.662 -1.5981 -2.1173 -2.0322
  352MOL0     H48569   9.211   1.525  10.782 -2.6675  3.7186  1.2336
  352MOL0     H48570   9.367   1.463  10.584  2.1807  2.4277  1.2428
  352MOL0     H48571   9.335   1.631  10.617 -0.8330  0.7885  2.1881
  352MOL0     H48572   9.155   1.568  10.237 -2.6090  2.5486  1.9684
  352MOL0     H48573   9.165   1.285  10.932  0.6716  0.5986  0.8070
  352MOL0     H48574   9.170   1.070  11.222 -0.7072  0.0783 -1.5405
  352MOL0     H48575   9.274   1.133  11.091 -0.5904 -0.5545 -0.2276
  352MOL0     H48576   9.281   1.211  11.251 -0.1149  0.7290 -0.0522
  353MOL0     O48577   8.486   5.995   2.322  0.8670  0.1627 -0.4351
  353MOL0     C48578   8.509   6.002   2.200  0.0640 -0.0606  0.5681
  353MOL0     O48579   8.617   5.954   2.138  0.2109  0.3823  0.2951
  353MOL0     C48580   8.679   5.846   2.203  0.2704  0.3287 -0.1672
  353MOL0     C48581   8.802   5.868   2.257 -0.1667 -1.3024 -0.2033
  353MOL0     C48582   8.859   5.782   2.343  0.4584 -0.2319 -0.1685
  353MOL0     C48583   8.806   5.651   2.356  0.8487 -0.4710  0.2263
  353MOL0     O48584   8.873   5.566   2.443 -0.2515  0.3116 -0.2745
  353MOL0     C48585   8.858   5.419   2.421  0.2834 -1.0471 -0.1468
  353MOL0     C48586   8.941   5.385   2.287  0.4279  0.6213  0.5291
  353MOL0     C48587   8.934   5.238   2.268  0.5173 -0.0010  0.2560
  353MOL0     C48588   8.817   5.188   2.179 -0.5248 -0.1930 -0.8495
  353MOL0     C48589   8.820   5.030   2.168  0.2554 -0.3647  0.4093
  353MOL0     C48590   8.717   4.960   2.077 -0.0364  0.0618  0.4377
  353MOL0     C48591   8.733   4.806   2.088  0.4495 -0.3084  0.1577
  353MOL0     C48592   8.852   4.759   2.003 -0.3159 -0.5348  0.0287
  353MOL0     N48593   8.882   4.621   2.038  0.2749  0.6173  0.4122
  353MOL0     C48594   8.994   4.572   2.098 -0.2042 -0.3403 -0.5079
  353MOL0     C48595   8.984   4.435   2.085  0.0230 -0.7449  0.0413
  353MOL0     C48596   9.084   4.336   2.140  0.3319  0.6241  0.5545
  353MOL0     C48597   9.106   4.238   2.030 -0.4255  0.2544 -0.7296
  353MOL0     C48598   8.996   4.123   2.037 -0.3870  0.3097  0.0400
  353MOL0     C48599   8.991   4.034   1.916 -0.5219  0.4421 -0.3362
  353MOL0     O48600   8.900   3.928   1.940 -0.0462 -0.0386  0.1084
  353MOL0     C48601   8.770   3.954   1.947  0.7444  0.1337  0.2227
  353MOL0     C48602   8.687   3.842   1.979 -0.1513  0.1656  0.9123
  353MOL0     C48603   8.551   3.851   1.970  0.0678 -0.2409  1.3370
  353MOL0     C48604   8.464   3.727   1.988 -0.0629  0.4543  0.6384
  353MOL0     C48605   8.491   3.972   1.931  0.5469 -1.2221  0.1653
  353MOL0     C48606   8.347   3.993   1.933 -0.3640  0.1171 -0.3114
  353MOL0     O48607   8.311   4.084   1.836  0.0672  0.2510  0.1034
  353MOL0     C48608   8.186   4.063   1.780  1.4393  0.9390  0.2659
  353MOL0     C48609   8.169   4.023   1.642 -0.8186 -0.2474  0.2317
  353MOL0     C48610   8.044   4.001   1.593  0.8744  0.6417  0.2548
  353MOL0     C48611   7.928   4.026   1.670 -0.0522 -0.3395  0.5229
  353MOL0     O48612   7.809   3.996   1.613 -0.6641 -0.6500  0.1231
  353MOL0     C48613   7.691   3.960   1.694 -0.5406  0.7351 -0.5807
  353MOL0     C48614   7.600   3.864   1.622 -0.4094  0.7732 -0.5618
  353MOL0     C48615   7.497   3.783   1.712 -0.3003  0.7212 -0.3296
  353MOL0     C48616   7.402   3.861   1.806  0.2078 -0.7551  0.9687
  353MOL0     C48617   7.301   3.783   1.890  0.0337 -0.3956  0.7930
  353MOL0     C48618   7.165   3.768   1.811 -0.7275 -0.8657  0.7895
  353MOL0     C48619   7.041   3.719   1.889 -0.3315 -0.7965  0.1179
  353MOL0     C48620   6.914   3.764   1.820  0.0265 -0.4059  0.3535
  353MOL0    Cl48621   6.889   3.945   1.845 -0.0205  0.0904 -0.6539
  353MOL0     C48622   7.941   4.067   1.796  0.3824  0.4894 -0.7603
  353MOL0     C48623   8.068   4.092   1.853  0.4035  0.0115  0.1549
  353MOL0     O48624   8.268   3.943   2.019 -1.5842  0.2088  0.7890
  353MOL0     C48625   8.563   4.082   1.912 -0.0964 -0.4499 -0.3952
  353MOL0     C48626   8.700   4.075   1.914 -0.1250 -1.0807  0.8026
  353MOL0     N48627   8.861   4.410   2.020  0.1257  0.2238 -0.2709
  353MOL0     N48628   8.806   4.519   1.995  0.2451  0.0636  0.0467
  353MOL0     C48629   8.679   5.630   2.299  0.0506  0.3815 -0.3936
  353MOL0     C48630   8.616   5.730   2.234 -0.0311 -0.1120 -0.4457
  353MOL0     C48631   8.424   6.094   2.121 -0.0080  0.7002  0.3550
  353MOL0     C48632   8.472   6.150   2.004  0.2023 -0.5019 -0.4504
  353MOL0     C48633   8.410   6.245   1.924 -0.1709 -0.2580  0.0722
  353MOL0     C48634   8.283   6.300   1.965 -1.0054  0.8913  1.0542
  353MOL0     O48635   8.220   6.400   1.898 -0.1020 -0.4791 -0.0179
  353MOL0     C48636   8.094   6.458   1.952  0.1222 -0.0199  0.3155
  353MOL0     C48637   8.053   6.574   1.855  0.1929  0.1155  0.0237
  353MOL0     C48638   8.124   6.704   1.876 -0.1292 -1.1759 -0.6235
  353MOL0     C48639   8.270   6.702   1.822 -0.2108  0.6148 -0.0893
  353MOL0     C48640   8.315   6.837   1.824 -0.7247 -0.8811  0.1420
  353MOL0     C48641   8.340   6.954   1.832 -0.1527  0.4012 -1.3711
  353MOL0     C48642   8.224   6.232   2.078 -0.2706  1.2339  0.1127
  353MOL0     C48643   8.289   6.128   2.150 -0.7732 -0.2770 -0.4688
  353MOL0     C48644   8.219   6.079   2.281  0.2049  1.0033 -0.2531
  353MOL0     H48645   8.843   5.968   2.247  0.9239 -1.7902 -0.8500
  353MOL0     H48646   8.957   5.816   2.378  1.2344  1.3955 -3.5600
  353MOL0     H48647   8.753   5.390   2.415  0.2027 -1.2612  1.6049
  353MOL0     H48648   8.909   5.377   2.508 -0.0355  3.4814  2.5465
  353MOL0     H48649   8.891   5.433   2.202  0.5496  2.6153  1.5370
  353MOL0     H48650   9.040   5.430   2.278  0.1707  1.4238  1.5115
  353MOL0     H48651   9.028   5.192   2.236 -0.4133  0.3920 -3.4181
  353MOL0     H48652   8.921   5.193   2.367 -0.8406  1.6458  0.8755
  353MOL0     H48653   8.724   5.216   2.229  1.1415  0.9912  1.7772
  353MOL0     H48654   8.821   5.231   2.078 -1.2107  1.0744 -0.3522
  353MOL0     H48655   8.815   4.990   2.270 -0.5778  2.4788  1.5718
  353MOL0     H48656   8.918   5.001   2.129 -1.0914 -1.7035 -2.2318
  353MOL0     H48657   8.619   4.969   2.124 -0.1576 -0.9981  0.4082
  353MOL0     H48658   8.720   4.989   1.972 -1.6677  0.5658  0.5063
  353MOL0     H48659   8.639   4.762   2.054 -0.0275  0.3226  0.6443
  353MOL0     H48660   8.750   4.793   2.195  0.0577  0.2176  0.2859
  353MOL0     H48661   8.820   4.764   1.898 -1.8444 -0.6398  0.4640
  353MOL0     H48662   8.935   4.830   2.006 -0.4779 -0.3292 -0.2923
  353MOL0     H48663   9.071   4.615   2.162 -0.3500  2.0222 -1.7727
  353MOL0     H48664   9.044   4.295   2.233  1.4780 -1.7486  0.0679
  353MOL0     H48665   9.182   4.375   2.168  0.1815 -0.9054  3.6365
  353MOL0     H48666   9.097   4.287   1.932 -0.0420  0.5884 -0.6033
  353MOL0     H48667   9.211   4.206   2.027 -0.2068  0.7564  0.5280
  353MOL0     H48668   9.015   4.054   2.120  2.1138  1.5312  0.5730
  353MOL0     H48669   8.901   4.175   2.053 -1.3003 -1.7679  1.8608
  353MOL0     H48670   8.966   4.090   1.825 -1.5569  0.6900  0.0856
  353MOL0     H48671   9.089   3.987   1.911 -0.5488  0.1064  1.6569
  353MOL0     H48672   8.730   3.754   2.026 -2.3519 -0.0512  2.7148
  353MOL0     H48673   8.367   3.741   1.941  0.3692 -0.9661 -0.7846
  353MOL0     H48674   8.453   3.694   2.092 -1.0536 -1.9725 -0.1620
  353MOL0     H48675   8.506   3.651   1.922 -1.4132 -0.2841  0.6003
  353MOL0     H48676   8.255   4.002   1.579  3.0129  0.7373  4.5660
  353MOL0     H48677   8.032   3.962   1.493 -1.5235 -0.8220  1.0354
  353MOL0     H48678   7.733   3.918   1.786 -0.0632  2.4837  0.0235
  353MOL0     H48679   7.637   4.053   1.716  1.0186  1.3856  0.6587
  353MOL0     H48680   7.551   3.924   1.544  0.6276  2.2238 -0.1429
  353MOL0     H48681   7.661   3.797   1.561 -1.2227  0.1857 -0.7525
  353MOL0     H48682   7.550   3.699   1.757 -0.1011  0.3120 -1.2932
  353MOL0     H48683   7.432   3.734   1.638  0.0627  0.0629 -0.2234
  353MOL0     H48684   7.344   3.927   1.741  0.8454  0.2662  1.4098
  353MOL0     H48685   7.454   3.938   1.863  1.2566 -1.1473  0.5694
  353MOL0     H48686   7.342   3.684   1.912  1.6028  0.2305  0.8575
  353MOL0     H48687   7.292   3.838   1.984  5.1680  0.1984  1.2502
  353MOL0     H48688   7.179   3.695   1.730 -1.4264  2.2302 -2.3469
  353MOL0     H48689   7.146   3.865   1.765  1.4355 -1.8859 -2.6090
  353MOL0     H48690   7.034   3.751   1.994 -2.5286  0.5746 -0.3874
  353MOL0     H48691   7.029   3.611   1.896 -1.9768 -0.7387 -1.1689
  353MOL0     H48692   6.825   3.709   1.854 -0.1512  0.1256  0.7542
  353MOL0     H48693   6.912   3.733   1.715 -2.8139 -1.5193  0.6299
  353MOL0     H48694   7.851   4.089   1.851  0.1790  2.0098 -1.6147
  353MOL0     H48695   8.075   4.118   1.958 -1.4648  1.1025  0.0574
  353MOL0     H48696   8.516   4.180   1.901  1.8304  0.9015  2.3200
  353MOL0     H48697   8.741   4.173   1.889  0.8435 -2.2332 -2.5940
  353MOL0     H48698   8.636   5.530   2.303 -3.3415  1.3575 -4.6825
  353MOL0     H48699   8.514   5.721   2.198  0.2799  2.5493 -2.2778
  353MOL0     H48700   8.571   6.122   1.969  1.1023  1.2892  0.5305
  353MOL0     H48701   8.442   6.269   1.823 -3.3327  2.2731 -0.4887
  353MOL0     H48702   8.012   6.386   1.945  1.2162 -1.4271  1.2953
  353MOL0     H48703   8.119   6.496   2.052  1.4663  2.7798 -0.9817
  353MOL0     H48704   7.947   6.587   1.877  0.6740  0.7196  2.1835
  353MOL0     H48705   8.061   6.551   1.748  1.3414 -1.0779  0.3294
  353MOL0     H48706   8.067   6.783   1.826  0.1797 -0.0075  0.7956
  353MOL0     H48707   8.135   6.731   1.981  3.0782 -0.7738 -0.9743
  353MOL0     H48708   8.264   6.669   1.718 -0.9318  0.3786  0.0168
  353MOL0     H48709   8.322   6.626   1.880  1.1651 -0.3177 -2.3935
  353MOL0     H48710   8.365   7.059   1.839 -2.3397  0.8525  1.5515
  353MOL0     H48711   8.139   6.278   2.128  1.4579  4.2947  0.4917
  353MOL0     H48712   8.237   5.974   2.307 -2.9011  0.4324 -0.0246
  353MOL0     H48713   8.250   6.136   2.368 -1.2700  0.4638  0.6743
  353MOL0     H48714   8.111   6.097   2.271 -0.0731  1.6422  2.8969
  354MOL0     O48715   0.263   6.258   8.954 -0.2338  0.5064 -0.3423
  354MOL0     C48716   0.263   6.219   8.839  0.7055  0.2036  0.8457
  354MOL0     O48717   0.354   6.250   8.744  0.1869 -0.4329  1.1719
  354MOL0     C48718   0.462   6.323   8.781  0.3081  0.2425  0.2376
  354MOL0     C48719   0.477   6.447   8.738  1.1970  0.7506  0.2252
  354MOL0     C48720   0.579   6.521   8.784 -0.1230 -0.6525 -0.2056
  354MOL0     C48721   0.661   6.480   8.883 -0.7983  0.5069 -0.1449
  354MOL0     O48722   0.761   6.557   8.933  0.4262 -0.3968  0.4912
  354MOL0     C48723   0.752   6.699   8.913 -0.1952  0.2369 -1.1972
  354MOL0     C48724   0.886   6.758   8.976  0.0311  0.0587  0.9957
  354MOL0     C48725   0.905   6.728   9.122  0.0202 -0.3426 -0.2779
  354MOL0     C48726   1.059   6.757   9.167 -0.2092 -0.6849 -0.0952
  354MOL0     C48727   1.082   6.753   9.328 -0.6497 -0.7289  0.8614
  354MOL0     C48728   1.077   6.606   9.377  0.6489  0.5221  1.0132
  354MOL0     C48729   1.085   6.589   9.519 -0.0078  0.7426 -0.6543
  354MOL0     C48730   1.120   6.444   9.564  0.0356  0.0282  0.4820
  354MOL0     N48731   1.146   6.428   9.704  0.8309 -0.4927 -0.2327
  354MOL0     C48732   1.279   6.409   9.761 -0.0151  1.2281 -0.9239
  354MOL0     C48733   1.265   6.413   9.890  0.1622 -0.3722 -0.3457
  354MOL0     C48734   1.369   6.386   9.994 -0.6771  0.6141 -0.5012
  354MOL0     C48735   1.432   6.512  10.049 -0.4936 -0.8988 -0.1399
  354MOL0     C48736   1.533   6.488  10.160 -0.5334  0.2363 -0.0003
  354MOL0     C48737   1.570   6.620  10.227 -0.2248 -0.0925  0.2747
  354MOL0     O48738   1.626   6.710  10.126 -0.0002  0.7595 -0.4737
  354MOL0     C48739   1.655   6.843  10.163 -0.0656 -0.8784  0.0827
  354MOL0     C48740   1.721   6.870  10.287 -1.1945 -0.3410  0.1626
  354MOL0     C48741   1.737   7.000  10.326  0.7205  0.5928 -0.1942
  354MOL0     C48742   1.797   7.015  10.464  0.8117 -0.8555 -0.1184
  354MOL0     C48743   1.698   7.107  10.246 -0.7187 -0.5402  0.5256
  354MOL0     C48744   1.707   7.245  10.277  0.3019 -0.8150  0.0294
  354MOL0     O48745   1.777   7.329  10.191  0.6773  0.1795 -0.5680
  354MOL0     C48746   1.823   7.448  10.239 -0.2223 -0.0243  0.1448
  354MOL0     C48747   1.918   7.455  10.338 -0.8828 -0.6132 -0.0472
  354MOL0     C48748   1.984   7.573  10.363 -0.7762  0.1006  0.4966
  354MOL0     C48749   1.956   7.689  10.305  1.0920 -0.1846  1.1467
  354MOL0     O48750   2.007   7.809  10.340 -0.8179  0.3240  0.0841
  354MOL0     C48751   2.123   7.818  10.431 -0.1855 -0.5577 -0.1730
  354MOL0     C48752   2.172   7.971  10.432  0.3566  0.2342  0.0068
  354MOL0     C48753   2.236   7.987  10.282  0.7615 -0.6443  0.8940
  354MOL0     C48754   2.327   8.117  10.297  0.1179  0.3746  0.7860
  354MOL0     C48755   2.408   8.139  10.174 -1.1037  0.0035  0.4939
  354MOL0     C48756   2.490   8.270  10.186  1.1311 -0.6292 -0.3116
  354MOL0     C48757   2.612   8.270  10.276 -0.7863 -0.1077 -0.1329
  354MOL0     C48758   2.608   8.382  10.371 -0.8617 -0.2340  0.4070
  354MOL0    Cl48759   2.596   8.546  10.275  0.1107  0.0250 -0.5619
  354MOL0     C48760   1.848   7.680  10.203 -0.1154 -0.8331 -0.2917
  354MOL0     C48761   1.793   7.561  10.166 -0.4404 -0.0261  0.2680
  354MOL0     O48762   1.649   7.284  10.387 -0.8512 -0.6242 -0.0368
  354MOL0     C48763   1.638   7.077  10.126  0.6901 -0.1516 -1.0625
  354MOL0     C48764   1.602   6.951  10.087  0.0692  0.3686 -0.3836
  354MOL0     N48765   1.136   6.452   9.912  0.2796 -0.1663 -0.1094
  354MOL0     N48766   1.061   6.453   9.813 -0.3128  0.8243  0.5058
  354MOL0     C48767   0.654   6.338   8.916 -0.6539  0.3102 -0.2347
  354MOL0     C48768   0.560   6.264   8.861  0.5383 -0.0531  0.1644
  354MOL0     C48769   0.150   6.124   8.809 -0.2358 -0.3499 -0.0593
  354MOL0     C48770   0.059   6.080   8.912 -1.2425 -0.3869 -0.8555
  354MOL0     C48771  -0.043   5.998   8.887  0.4662 -0.0095 -0.4137
  354MOL0     C48772  -0.064   5.943   8.755 -0.0238  0.6064  0.3483
  354MOL0     O48773  -0.179   5.864   8.742 -0.1302 -0.2626  0.0752
  354MOL0     C48774  -0.275   5.901   8.645  1.4261  1.2690  0.2360
  354MOL0     C48775  -0.355   6.022   8.695  0.7359 -0.3337  0.2409
  354MOL0     C48776  -0.426   5.996   8.829  0.2212  0.4131 -0.0704
  354MOL0     C48777  -0.581   6.015   8.840 -1.6425 -0.6232  0.4926
  354MOL0     C48778  -0.599   6.157   8.832  0.1284 -1.0772  0.4687
  354MOL0     C48779  -0.601   6.277   8.816 -0.2026  0.8690 -0.3540
  354MOL0     C48780   0.014   5.976   8.653 -0.7206 -0.2890 -0.0112
  354MOL0     C48781   0.126   6.065   8.680  0.6768 -0.0341 -0.7270
  354MOL0     C48782   0.215   6.077   8.569  0.0585  0.5112  0.0189
  354MOL0     H48783   0.404   6.487   8.668  0.2003 -1.0752  0.1629
  354MOL0     H48784   0.585   6.613   8.726 -4.1069 -0.3634 -0.3918
  354MOL0     H48785   0.665   6.745   8.961  1.0324  0.3997  0.9937
  354MOL0     H48786   0.754   6.726   8.807  2.0767 -0.0418 -1.2867
  354MOL0     H48787   0.972   6.715   8.925 -0.8081 -0.4111 -0.0674
  354MOL0     H48788   0.888   6.867   8.963  0.5627 -0.1359 -0.7833
  354MOL0     H48789   0.834   6.783   9.184  0.8189  2.8075 -1.9306
  354MOL0     H48790   0.889   6.625   9.153 -1.2626 -0.0021  0.2272
  354MOL0     H48791   1.127   6.684   9.123  2.0980  1.7013 -0.7243
  354MOL0     H48792   1.082   6.860   9.137  0.4194 -1.0940 -1.0305
  354MOL0     H48793   1.001   6.817   9.365 -0.8133  2.6702 -4.3117
  354MOL0     H48794   1.177   6.798   9.355  0.1301 -2.3991  1.0317
  354MOL0     H48795   0.977   6.577   9.342  1.7073 -1.4494 -0.5932
  354MOL0     H48796   1.156   6.555   9.321  1.4806 -0.8707  3.3029
  354MOL0     H48797   0.988   6.621   9.558 -0.2510 -1.2774  0.5530
  354MOL0     H48798   1.147   6.661   9.574 -1.8812  0.4841  1.9998
  354MOL0     H48799   1.041   6.376   9.532 -0.6676  1.5972 -1.2800
  354MOL0     H48800   1.209   6.409   9.512 -0.8297 -1.3447 -0.1130
  354MOL0     H48801   1.371   6.383   9.709 -0.5632 -1.8972 -0.5402
  354MOL0     H48802   1.457   6.335   9.953  1.8753  1.0916  3.8038
  354MOL0     H48803   1.316   6.328  10.071  0.0722  0.9117  0.2526
  354MOL0     H48804   1.479   6.571   9.970  1.4049  1.4303  2.5285
  354MOL0     H48805   1.350   6.571  10.091  1.0751  0.6743  0.8234
  354MOL0     H48806   1.475   6.432  10.234  0.0459  2.2874  2.1177
  354MOL0     H48807   1.628   6.439  10.134 -0.6581  1.6196 -3.5621
  354MOL0     H48808   1.476   6.660  10.266  0.1394  0.1365  0.9301
  354MOL0     H48809   1.644   6.607  10.306  0.1316 -0.4324 -0.1089
  354MOL0     H48810   1.765   6.789  10.343  1.3866  2.0579  1.9106
  354MOL0     H48811   1.723   7.044  10.539  3.1705  4.8030  0.4927
  354MOL0     H48812   1.862   7.102  10.451 -3.2817  2.3701 -1.1057
  354MOL0     H48813   1.861   6.934  10.500  0.1314 -1.0218  0.7408
  354MOL0     H48814   1.949   7.361  10.382 -1.7870 -0.0316  1.9592
  354MOL0     H48815   2.066   7.571  10.434 -1.1963 -1.4460  0.9972
  354MOL0     H48816   2.085   7.790  10.529 -0.2418  0.7209  0.1864
  354MOL0     H48817   2.209   7.750  10.426 -0.3052 -0.6675 -0.9198
  354MOL0     H48818   2.089   8.042  10.443 -0.9623 -1.4751  1.6952
  354MOL0     H48819   2.242   7.975  10.516 -2.2549 -1.8375  2.4844
  354MOL0     H48820   2.167   8.007  10.200 -0.6195  0.2786  2.2150
  354MOL0     H48821   2.287   7.892  10.261  0.9096  0.0513 -2.2694
  354MOL0     H48822   2.399   8.115  10.379 -1.2297  1.0041  2.0236
  354MOL0     H48823   2.279   8.213  10.315  3.9217  2.8000 -0.8234
  354MOL0     H48824   2.482   8.060  10.159 -1.5469 -0.8805  2.5279
  354MOL0     H48825   2.359   8.142  10.077  3.2790 -2.8249 -2.1414
  354MOL0     H48826   2.423   8.350  10.217 -0.9780 -1.4437 -2.4048
  354MOL0     H48827   2.508   8.294  10.081 -1.7131  0.3784 -0.6561
  354MOL0     H48828   2.701   8.275  10.212 -0.7388  1.2193  0.0102
  354MOL0     H48829   2.616   8.173  10.327  1.6560  0.7690  1.4929
  354MOL0     H48830   2.701   8.380  10.427  2.1949  2.7507 -3.8763
  354MOL0     H48831   2.516   8.363  10.428  0.1945 -1.0774  1.9023
  354MOL0     H48832   1.822   7.762  10.138  3.2210  0.4651 -0.2016
  354MOL0     H48833   1.721   7.547  10.086  0.0609  0.8105 -0.3425
  354MOL0     H48834   1.621   7.166  10.067  0.2993  0.1801 -0.4633
  354MOL0     H48835   1.547   6.926   9.997 -0.2005 -3.0745  0.5930
  354MOL0     H48836   0.730   6.295   8.981 -0.5974 -0.0593 -0.5416
  354MOL0     H48837   0.533   6.162   8.887 -0.9733  0.6706  1.6913
  354MOL0     H48838   0.092   6.091   9.015  0.7190 -3.1392 -1.0544
  354MOL0     H48839  -0.122   5.964   8.953 -0.3450 -1.1589 -1.9005
  354MOL0     H48840  -0.220   5.928   8.554  0.7169 -0.1414 -0.6426
  354MOL0     H48841  -0.346   5.824   8.615  2.5526 -0.7990  2.5767
  354MOL0     H48842  -0.431   6.041   8.619  0.1613 -0.2179  0.8331
  354MOL0     H48843  -0.285   6.105   8.705  0.1726 -0.0635  2.3982
  354MOL0     H48844  -0.396   5.893   8.848 -0.1146  0.1988 -0.6877
  354MOL0     H48845  -0.376   6.057   8.906  0.4220 -0.4153  0.4749
  354MOL0     H48846  -0.619   5.986   8.939 -1.4276  1.3837  1.2132
  354MOL0     H48847  -0.629   5.955   8.762 -3.7194 -1.0578  1.9970
  354MOL0     H48848  -0.589   6.383   8.802 -1.6518  1.1377  0.3153
  354MOL0     H48849  -0.010   5.937   8.555 -1.3268  2.7939 -1.2069
  354MOL0     H48850   0.191   6.173   8.522  0.0738  2.5710  3.8556
  354MOL0     H48851   0.322   6.084   8.593  0.0338 -0.9261  0.6464
  354MOL0     H48852   0.205   5.986   8.509 -2.0388 -0.9045  2.3498
  355MOL0     O48853   4.536   9.783   9.486  0.0777 -0.3569 -0.1775
  355MOL0     C48854   4.458   9.739   9.406  0.9397 -0.3050  1.7864
  355MOL0     O48855   4.329   9.724   9.421 -0.5864 -0.3044 -0.5561
  355MOL0     C48856   4.264   9.765   9.535  0.1638  0.0882 -0.5449
  355MOL0     C48857   4.180   9.679   9.613 -0.0289  0.3532 -0.8648
  355MOL0     C48858   4.117   9.722   9.726  1.1176  0.0345  0.1050
  355MOL0     C48859   4.122   9.857   9.764  0.6292 -1.0015  0.5149
  355MOL0     O48860   4.035   9.890   9.859  0.4906 -0.1216 -0.6566
  355MOL0     C48861   3.971  10.024   9.837  0.7649 -0.3227 -0.9253
  355MOL0     C48862   3.868  10.017   9.730  0.8805 -0.8808 -0.2433
  355MOL0     C48863   3.791  10.147   9.710  0.6981  0.3643  0.3374
  355MOL0     C48864   3.718  10.139   9.582  0.0456 -0.3385  0.2103
  355MOL0     C48865   3.601  10.242   9.575  0.7950  0.0561 -0.0591
  355MOL0     C48866   3.499  10.208   9.472  1.0335  0.2462 -0.1699
  355MOL0     C48867   3.422  10.335   9.447  1.5914 -0.4658 -0.1949
  355MOL0     C48868   3.305  10.311   9.365  0.2062  0.6135  0.6492
  355MOL0     N48869   3.344  10.270   9.232  0.3233 -0.3289  0.3436
  355MOL0     C48870   3.392  10.354   9.135 -0.7374 -0.6060  0.2658
  355MOL0     C48871   3.431  10.273   9.043  0.0215  0.3612  0.5335
  355MOL0     C48872   3.523  10.314   8.940 -0.1646 -1.1446 -0.4867
  355MOL0     C48873   3.651  10.380   8.992  0.7852  0.1173  0.3703
  355MOL0     C48874   3.746  10.309   9.096 -0.1023  1.3047  0.4976
  355MOL0     C48875   3.796  10.162   9.052 -0.2891  0.1889 -0.4089
  355MOL0     O48876   3.863  10.108   9.166  0.4640  0.7053 -0.0802
  355MOL0     C48877   3.803  10.003   9.245  1.0974 -0.2216  0.0497
  355MOL0     C48878   3.667   9.968   9.253  1.8077  0.7456  0.2245
  355MOL0     C48879   3.623   9.867   9.330 -0.4054 -0.6982 -0.3218
  355MOL0     C48880   3.469   9.845   9.324 -0.9737  0.8065 -0.3517
  355MOL0     C48881   3.713   9.791   9.408 -0.1975 -0.3396  1.1362
  355MOL0     C48882   3.677   9.686   9.508  0.2746 -0.1851 -0.2952
  355MOL0     O48883   3.759   9.579   9.519 -0.4835  0.4699  0.4123
  355MOL0     C48884   3.737   9.485   9.615 -0.8099 -0.7370 -0.9398
  355MOL0     C48885   3.730   9.515   9.747 -0.1241  0.5981 -0.4217
  355MOL0     C48886   3.707   9.412   9.843 -0.4221 -1.2499  0.4743
  355MOL0     C48887   3.692   9.277   9.803 -0.3028 -1.4018  0.2838
  355MOL0     O48888   3.703   9.185   9.903  0.1977  0.5075 -0.1156
  355MOL0     C48889   3.688   9.049   9.888  0.8037 -0.3123  0.2596
  355MOL0     C48890   3.574   9.004   9.971 -0.1878 -0.5534  0.5660
  355MOL0     C48891   3.618   8.960  10.113 -1.0686  0.5543 -0.0759
  355MOL0     C48892   3.508   8.955  10.206  0.6857 -1.2242  0.0018
  355MOL0     C48893   3.535   8.878  10.336  0.0043  0.5179  0.0809
  355MOL0     C48894   3.631   8.949  10.430  0.1744 -0.3714  0.6951
  355MOL0     C48895   3.590   9.084  10.489 -0.6583 -0.2183 -0.0057
  355MOL0     C48896   3.473   9.082  10.583  0.1699 -1.3794 -0.5489
  355MOL0    Cl48897   3.465   9.221  10.667 -0.8224  0.1435 -0.1519
  355MOL0     C48898   3.711   9.251   9.664  0.9820 -0.0760  0.3908
  355MOL0     C48899   3.731   9.353   9.573  0.5926 -0.3719  0.9208
  355MOL0     O48900   3.573   9.704   9.567 -0.1022  0.2436 -0.2798
  355MOL0     C48901   3.848   9.828   9.404  0.5332  0.3898 -0.1055
  355MOL0     C48902   3.897   9.930   9.319  0.0728  0.6068  0.1514
  355MOL0     N48903   3.399  10.138   9.069  0.1060 -0.1113 -0.2165
  355MOL0     N48904   3.342  10.136   9.183  0.4337  0.3929  0.4882
  355MOL0     C48905   4.208   9.948   9.689 -0.0412  0.4014 -0.1009
  355MOL0     C48906   4.280   9.900   9.584  0.5152  1.1338  0.2867
  355MOL0     C48907   4.504   9.706   9.268  0.2204 -0.0160 -0.2381
  355MOL0     C48908   4.414   9.736   9.160  0.6575  0.2183  0.2877
  355MOL0     C48909   4.463   9.731   9.033  0.5281 -0.3410  0.1547
  355MOL0     C48910   4.591   9.684   9.009 -0.0902 -0.3323  0.3477
  355MOL0     O48911   4.628   9.656   8.879 -0.0206  0.4907 -0.7849
  355MOL0     C48912   4.757   9.699   8.841 -0.0564  0.1473  0.3890
  355MOL0     C48913   4.747   9.825   8.743  0.1886 -0.0102 -0.6467
  355MOL0     C48914   4.660   9.794   8.617  0.7073 -0.0415 -0.1019
  355MOL0     C48915   4.672   9.915   8.519  0.2225  0.0700  0.2432
  355MOL0     C48916   4.601   9.896   8.391  0.9029 -0.1369  0.0655
  355MOL0     C48917   4.536   9.878   8.283 -0.4418 -0.5411  0.2808
  355MOL0     C48918   4.665   9.639   9.117  0.7183  0.9766  0.3071
  355MOL0     C48919   4.627   9.651   9.247 -0.2057  0.1126  0.0141
  355MOL0     C48920   4.715   9.585   9.353 -0.4876  0.6290 -0.5935
  355MOL0     H48921   4.170   9.574   9.586  2.7334 -0.8852  2.1909
  355MOL0     H48922   4.047   9.656   9.776 -0.4586 -1.5019 -3.7242
  355MOL0     H48923   4.052  10.093   9.810  1.3775  0.2060  1.9933
  355MOL0     H48924   3.926  10.071   9.924  1.7208  1.1550 -1.1971
  355MOL0     H48925   3.912   9.987   9.634 -1.3776 -2.0240 -0.9867
  355MOL0     H48926   3.805   9.931   9.752 -1.5007  0.7919 -0.1942
  355MOL0     H48927   3.718  10.146   9.792  0.7407 -0.9336  0.3818
  355MOL0     H48928   3.852  10.237   9.718  1.0837 -0.0386  2.4334
  355MOL0     H48929   3.776  10.160   9.492 -1.0619 -0.7971 -0.6297
  355MOL0     H48930   3.677  10.037   9.579 -2.2831  0.5365  0.0966
  355MOL0     H48931   3.643  10.340   9.547  2.4221 -0.8755 -1.0582
  355MOL0     H48932   3.555  10.262   9.672 -1.0213  1.7628 -1.2060
  355MOL0     H48933   3.556  10.191   9.380  0.9136 -1.1858  0.0050
  355MOL0     H48934   3.437  10.134   9.524  0.0784  3.4342  3.7177
  355MOL0     H48935   3.491  10.410   9.407  0.9172  0.7579  0.8511
  355MOL0     H48936   3.384  10.363   9.546  2.6742 -2.8093  0.9653
  355MOL0     H48937   3.250  10.234   9.419  1.9220 -0.5579  0.8103
  355MOL0     H48938   3.245  10.402   9.357 -1.6646 -0.7248 -1.4029
  355MOL0     H48939   3.408  10.461   9.137  0.9427 -0.8430  0.2770
  355MOL0     H48940   3.470  10.372   8.864  1.3689  0.9214 -0.0683
  355MOL0     H48941   3.547  10.228   8.876  0.7544 -0.5558 -0.9479
  355MOL0     H48942   3.707  10.408   8.902 -2.1996 -0.8058 -1.9548
  355MOL0     H48943   3.624  10.476   9.036  2.0812  0.0124  1.4574
  355MOL0     H48944   3.817  10.383   9.135 -1.4654  3.5520 -1.0251
  355MOL0     H48945   3.676  10.291   9.178 -0.2181  1.1473  0.3639
  355MOL0     H48946   3.719  10.103   9.003 -2.1806  0.4753  2.0050
  355MOL0     H48947   3.875  10.163   8.976  0.3105 -2.9819  0.0504
  355MOL0     H48948   3.596  10.038   9.210  2.0970  0.2277 -1.1480
  355MOL0     H48949   3.451   9.739   9.306  0.9478  0.0609  1.7325
  355MOL0     H48950   3.421   9.892   9.237 -2.3299 -1.3559 -0.8648
  355MOL0     H48951   3.420   9.892   9.410 -4.1373 -0.3236 -1.3927
  355MOL0     H48952   3.736   9.613   9.793  2.8955  0.4496 -0.3092
  355MOL0     H48953   3.744   9.432   9.943  1.1521 -4.1480  0.5896
  355MOL0     H48954   3.663   9.016   9.787  1.1578 -1.3226  0.4888
  355MOL0     H48955   3.780   8.995   9.912 -0.7561 -3.6009 -0.6432
  355MOL0     H48956   3.492   9.076   9.974 -2.4913 -3.0076  0.7603
  355MOL0     H48957   3.529   8.918   9.921  1.5637 -0.8120 -0.6551
  355MOL0     H48958   3.699   9.023  10.150 -1.0916 -0.3307  1.6021
  355MOL0     H48959   3.653   8.857  10.098 -4.5666 -0.5671 -1.6494
  355MOL0     H48960   3.426   8.904  10.154 -2.2826  3.5331 -0.6430
  355MOL0     H48961   3.470   9.055  10.229  4.3805  0.9513 -2.2926
  355MOL0     H48962   3.436   8.870  10.382 -1.1709  0.1243 -2.3175
  355MOL0     H48963   3.572   8.780  10.305 -0.1543  0.6784 -0.6443
  355MOL0     H48964   3.729   8.950  10.381 -1.5716  1.8173 -3.1524
  355MOL0     H48965   3.643   8.878  10.513  2.7534 -0.2802  0.4922
  355MOL0     H48966   3.566   9.150  10.405  0.0087 -2.3018 -1.9488
  355MOL0     H48967   3.681   9.112  10.542 -1.0009 -0.0458  0.4976
  355MOL0     H48968   3.484   8.991  10.642  0.6438 -1.1680 -0.3116
  355MOL0     H48969   3.376   9.070  10.533 -2.4112  0.8879  3.3282
  355MOL0     H48970   3.699   9.149   9.627  0.1617  0.7506 -1.7520
  355MOL0     H48971   3.754   9.339   9.468  2.8805  2.8771  0.8655
  355MOL0     H48972   3.913   9.781   9.477 -3.7066 -2.1452  2.4172
  355MOL0     H48973   4.003   9.950   9.308  0.5181 -1.9742 -1.0745
  355MOL0     H48974   4.234  10.046   9.728 -0.8879 -0.6587  3.4975
  355MOL0     H48975   4.354   9.961   9.533 -2.2401  3.8843 -0.7196
  355MOL0     H48976   4.313   9.770   9.183  1.1327  0.2332  2.6102
  355MOL0     H48977   4.404   9.771   8.952 -2.2700  0.3172  2.3584
  355MOL0     H48978   4.826   9.734   8.918 -0.6778  1.7304  0.2653
  355MOL0     H48979   4.793   9.612   8.785 -1.2803 -1.4292  1.9175
  355MOL0     H48980   4.850   9.851   8.718 -0.8664  2.4291 -2.8748
  355MOL0     H48981   4.710   9.912   8.798  2.9274  0.3575  0.8234
  355MOL0     H48982   4.697   9.709   8.558  0.8924 -1.4344  1.8857
  355MOL0     H48983   4.555   9.781   8.646  1.6768  0.9087  4.6356
  355MOL0     H48984   4.773   9.917   8.476 -0.8565  0.5827 -2.4428
  355MOL0     H48985   4.662  10.011   8.572 -0.2722 -1.7281  3.6754
  355MOL0     H48986   4.489   9.856   8.189  1.3914  0.3236 -0.8880
  355MOL0     H48987   4.753   9.580   9.092  0.4502  0.3226  0.8433
  355MOL0     H48988   4.649   9.513   9.402  1.4472 -0.0852  1.1275
  355MOL0     H48989   4.790   9.527   9.299 -3.2098 -1.7217 -2.1274
  355MOL0     H48990   4.754   9.645   9.436  0.9988  0.0669 -0.8502
  356MOL0     O48991   4.346   6.452   2.481  0.0405  0.6230 -0.0823
  356MOL0     C48992   4.229   6.457   2.520 -0.2800  0.2279 -0.8990
  356MOL0     O48993   4.120   6.398   2.466 -0.3229 -0.5309  0.2425
  356MOL0     C48994   4.149   6.297   2.374 -0.4957  0.4640 -0.1486
  356MOL0     C48995   4.215   6.179   2.412  0.1464 -0.4406 -0.0880
  356MOL0     C48996   4.224   6.079   2.313  0.7493 -0.3335  1.0325
  356MOL0     C48997   4.181   6.096   2.182  0.2210  0.4334 -0.5955
  356MOL0     O48998   4.190   5.986   2.094 -0.1784 -0.0799 -0.3561
  356MOL0     C48999   4.076   5.948   2.016  0.0102  0.5607  1.3637
  356MOL0     C49000   4.114   5.876   1.886 -0.1840  0.7814 -0.2053
  356MOL0     C49001   4.216   5.940   1.802 -0.2538 -0.7420  0.9371
  356MOL0     C49002   4.168   6.051   1.720  0.3119 -0.8744  0.4708
  356MOL0     C49003   4.275   6.150   1.669  0.2379 -0.2231 -0.8604
  356MOL0     C49004   4.237   6.168   1.526 -0.5712 -0.0648  0.2305
  356MOL0     C49005   4.374   6.216   1.459  0.6192  0.4180  0.1675
  356MOL0     C49006   4.347   6.290   1.329 -0.4235  0.3714 -0.5901
  356MOL0     N49007   4.342   6.188   1.222  0.3791  0.6189 -0.5027
  356MOL0     C49008   4.230   6.145   1.152  0.1301  0.2839 -1.1353
  356MOL0     C49009   4.272   6.060   1.049 -0.6420  0.0754 -0.1584
  356MOL0     C49010   4.212   6.019   0.923  0.7146 -0.7108 -0.1128
  356MOL0     C49011   4.239   6.117   0.810 -0.3989 -0.4108 -0.0421
  356MOL0     C49012   4.203   6.069   0.666  0.6680 -0.3365 -0.2273
  356MOL0     C49013   4.170   6.190   0.583 -0.0374  0.8560 -0.4423
  356MOL0     O49014   4.044   6.257   0.610  0.1993 -0.1300 -0.2769
  356MOL0     C49015   3.924   6.188   0.584  0.0276 -0.9544 -0.4123
  356MOL0     C49016   3.916   6.084   0.487  0.4482 -0.0731  0.8845
  356MOL0     C49017   3.797   6.020   0.457  0.4911  1.3933 -0.5336
  356MOL0     C49018   3.794   5.917   0.344 -0.3144  0.5904 -1.3495
  356MOL0     C49019   3.679   6.057   0.533  0.6248  0.2387  0.4585
  356MOL0     C49020   3.540   6.006   0.515 -0.5028  0.1933 -1.2357
  356MOL0     O49021   3.522   5.871   0.506 -0.3809 -0.4827  0.5386
  356MOL0     C49022   3.405   5.803   0.483  0.8650 -0.2811 -0.6491
  356MOL0     C49023   3.284   5.840   0.537 -0.3470  0.4086 -0.1730
  356MOL0     C49024   3.164   5.775   0.513 -0.1483 -1.0464 -0.0088
  356MOL0     C49025   3.157   5.647   0.443 -0.6405 -0.6354  0.0368
  356MOL0     O49026   3.045   5.566   0.432  0.2473 -0.1968  0.3353
  356MOL0     C49027   2.928   5.601   0.517 -0.6019  0.1020  0.4414
  356MOL0     C49028   2.836   5.678   0.418 -0.0641 -0.2011 -0.1454
  356MOL0     C49029   2.701   5.740   0.484 -0.8409  0.3267  0.3732
  356MOL0     C49030   2.720   5.865   0.561  0.2079  0.0879  0.2950
  356MOL0     C49031   2.587   5.938   0.584 -0.1248  0.3266 -0.0888
  356MOL0     C49032   2.617   6.080   0.622 -0.1602 -0.6334  1.1091
  356MOL0     C49033   2.492   6.156   0.671 -0.1474 -0.2529  0.4260
  356MOL0     C49034   2.404   6.083   0.774 -0.3608 -0.4386  0.0641
  356MOL0    Cl49035   2.248   6.165   0.782 -0.5261 -0.4425 -0.1228
  356MOL0     C49036   3.284   5.603   0.400 -0.1408  0.1543 -0.2002
  356MOL0     C49037   3.401   5.674   0.419  0.9219 -0.1425 -1.6161
  356MOL0     O49038   3.455   6.089   0.513 -0.7108 -0.6152  0.1253
  356MOL0     C49039   3.682   6.161   0.621  0.3259  0.2644 -0.1061
  356MOL0     C49040   3.804   6.227   0.645 -0.4507  0.5408 -0.8909
  356MOL0     N49041   4.410   6.047   1.068  0.1815 -0.2737 -0.9561
  356MOL0     N49042   4.446   6.120   1.175  0.2659  0.4080  0.8647
  356MOL0     C49043   4.141   6.225   2.143 -0.1413 -0.0536 -0.4690
  356MOL0     C49044   4.123   6.326   2.240  1.3027  0.8463  0.4863
  356MOL0     C49045   4.207   6.545   2.639  0.2769  0.6271  0.6962
  356MOL0     C49046   4.087   6.513   2.718 -0.0882 -0.1650 -0.3353
  356MOL0     C49047   4.063   6.571   2.848 -0.2163 -0.3619  0.0738
  356MOL0     C49048   4.150   6.672   2.883 -0.5834 -0.5467 -0.0435
  356MOL0     O49049   4.117   6.755   2.986  0.6626 -0.4166  0.2482
  356MOL0     C49050   3.979   6.788   3.000  0.1022  0.5732  0.0602
  356MOL0     C49051   3.953   6.905   2.900  0.1720  0.2339 -0.0211
  356MOL0     C49052   4.037   7.037   2.937  0.0025 -0.5720 -1.1946
  356MOL0     C49053   4.048   7.135   2.821  0.9037 -1.3762  0.2583
  356MOL0     C49054   4.146   7.073   2.717  1.2939  0.4865  1.0197
  356MOL0     C49055   4.207   7.017   2.622 -1.0253 -0.1039 -0.4019
  356MOL0     C49056   4.265   6.711   2.810  0.6807 -0.4537  0.0911
  356MOL0     C49057   4.286   6.649   2.685  0.0516 -0.0328 -0.1047
  356MOL0     C49058   4.399   6.707   2.600 -0.1591  0.2779  0.3293
  356MOL0     H49059   4.265   6.162   2.507 -2.3634 -1.8803  1.0808
  356MOL0     H49060   4.276   5.988   2.339  5.1504  1.5604 -0.1415
  356MOL0     H49061   4.004   6.029   2.003  0.6585  0.9172 -0.2011
  356MOL0     H49062   4.023   5.876   2.079  0.0392  1.7035  2.7541
  356MOL0     H49063   4.163   5.782   1.914  0.0967  1.0204  0.0977
  356MOL0     H49064   4.030   5.866   1.816 -1.9538  0.4362  1.8763
  356MOL0     H49065   4.279   5.983   1.881 -0.8175 -1.5789  1.8784
  356MOL0     H49066   4.266   5.882   1.724  3.7017  0.8864  2.0085
  356MOL0     H49067   4.110   6.002   1.642  1.3325 -1.1237 -0.1517
  356MOL0     H49068   4.099   6.119   1.770 -3.0863 -1.0491 -3.5088
  356MOL0     H49069   4.378   6.117   1.680  0.0396 -0.6492 -0.2137
  356MOL0     H49070   4.277   6.254   1.704  1.5679  0.2706 -2.2973
  356MOL0     H49071   4.202   6.078   1.475 -3.5462 -0.8877  3.3049
  356MOL0     H49072   4.161   6.244   1.508 -1.3123 -0.9402 -0.4092
  356MOL0     H49073   4.432   6.126   1.438  0.3865  0.4336 -0.5846
  356MOL0     H49074   4.428   6.286   1.523  2.4220  0.0712 -0.9153
  356MOL0     H49075   4.263   6.359   1.326 -0.5742  0.1827 -0.8044
  356MOL0     H49076   4.430   6.353   1.294  2.7312 -4.2734 -2.4527
  356MOL0     H49077   4.126   6.176   1.149  0.4338  2.1293  2.3533
  356MOL0     H49078   4.104   6.005   0.939  0.8750 -1.7424  0.1187
  356MOL0     H49079   4.241   5.918   0.894  2.3165 -1.1045  2.5345
  356MOL0     H49080   4.180   6.206   0.836  1.8275  1.2795 -0.4626
  356MOL0     H49081   4.338   6.163   0.817  0.2564 -1.8011  0.0955
  356MOL0     H49082   4.287   6.013   0.623  0.5555 -1.2934  0.7379
  356MOL0     H49083   4.110   6.012   0.653  0.6760 -0.5819  0.7096
  356MOL0     H49084   4.256   6.256   0.593  0.6711 -0.0592 -0.4422
  356MOL0     H49085   4.162   6.157   0.479  2.2101 -0.2463 -0.3234
  356MOL0     H49086   3.995   6.061   0.415 -0.9348  1.7398 -1.3720
  356MOL0     H49087   3.699   5.867   0.325  0.7174 -1.3444 -1.8006
  356MOL0     H49088   3.868   5.843   0.376  0.1679  1.9485  0.9129
  356MOL0     H49089   3.809   5.956   0.243  1.3806  2.1496 -0.5540
  356MOL0     H49090   3.284   5.928   0.600  0.8412 -0.3939  1.0057
  356MOL0     H49091   3.077   5.820   0.559  0.5148 -1.3163  1.5767
  356MOL0     H49092   2.881   5.514   0.563 -2.1712  0.1864 -0.8970
  356MOL0     H49093   2.958   5.664   0.601 -1.1994  1.5734 -0.4129
  356MOL0     H49094   2.894   5.757   0.369  1.0567 -0.8037  0.1954
  356MOL0     H49095   2.802   5.605   0.343 -0.2430 -2.4551  2.0118
  356MOL0     H49096   2.663   5.666   0.555  0.9168  1.5621  2.7290
  356MOL0     H49097   2.625   5.751   0.406  1.1987  2.4177 -1.4395
  356MOL0     H49098   2.787   5.930   0.504  0.6750 -2.7588 -2.7102
  356MOL0     H49099   2.779   5.845   0.651  2.0203  1.9725 -0.3925
  356MOL0     H49100   2.532   5.933   0.490  2.2707 -0.7292 -1.5425
  356MOL0     H49101   2.542   5.881   0.666  1.1068  2.4655  2.2329
  356MOL0     H49102   2.650   6.125   0.528 -0.4182 -1.0309  0.8239
  356MOL0     H49103   2.695   6.081   0.698 -3.1966 -2.4345  4.5980
  356MOL0     H49104   2.430   6.193   0.589  1.0453 -1.0313 -0.8780
  356MOL0     H49105   2.532   6.251   0.707 -0.4203  0.4390 -1.0154
  356MOL0     H49106   2.455   6.078   0.871  3.4123  1.5553 -1.5932
  356MOL0     H49107   2.392   5.980   0.738  1.7981 -0.9606  0.6865
  356MOL0     H49108   3.302   5.508   0.351  2.3877  0.1731  0.5069
  356MOL0     H49109   3.488   5.627   0.373  3.1509  0.3139  1.7722
  356MOL0     H49110   3.588   6.195   0.665  0.1553 -2.3838  1.7833
  356MOL0     H49111   3.801   6.305   0.720 -2.2686 -1.2504  1.0382
  356MOL0     H49112   4.133   6.254   2.038  4.8960 -1.3495 -1.4749
  356MOL0     H49113   4.075   6.419   2.211 -2.3119 -1.2270 -0.8351
  356MOL0     H49114   4.028   6.427   2.687  3.9105 -2.2351 -3.1818
  356MOL0     H49115   3.985   6.531   2.913  1.4211 -0.9136  1.8278
  356MOL0     H49116   3.909   6.704   3.000  0.4180  0.2709 -1.8048
  356MOL0     H49117   3.969   6.830   3.101 -1.4707  5.8731 -1.9486
  356MOL0     H49118   3.847   6.930   2.900 -0.2080 -1.2371 -1.0018
  356MOL0     H49119   3.971   6.863   2.800  4.1536 -0.5348  0.8317
  356MOL0     H49120   3.985   7.089   3.018  2.4773  1.7953 -0.9850
  356MOL0     H49121   4.137   7.012   2.975 -0.2582  1.7959  1.4276
  356MOL0     H49122   4.091   7.225   2.864 -0.1882  0.6151 -2.5317
  356MOL0     H49123   3.952   7.162   2.776  0.9606 -1.5513  0.0241
  356MOL0     H49124   4.254   6.986   2.531 -1.0352 -0.0077 -0.4398
  356MOL0     H49125   4.329   6.793   2.842  0.7256  0.2112 -1.5443
  356MOL0     H49126   4.430   6.805   2.639  2.3045 -0.9060  1.6068
  356MOL0     H49127   4.486   6.640   2.601  2.8022  3.7533  0.4792
  356MOL0     H49128   4.376   6.723   2.495 -3.0685  0.7475  0.9662
  357MOL0     O49129   5.885   5.091   5.327  0.1472  0.4036 -0.4069
  357MOL0     C49130   5.764   5.107   5.371 -0.0025 -0.3579  0.0581
  357MOL0     O49131   5.667   5.190   5.314  0.3438 -0.7801  0.3314
  357MOL0     C49132   5.696   5.281   5.210  0.2298 -0.3513 -0.6635
  357MOL0     C49133   5.578   5.339   5.160 -0.8305  0.9826 -0.8491
  357MOL0     C49134   5.575   5.417   5.047  0.5917  1.1449 -0.0174
  357MOL0     C49135   5.705   5.456   4.989  0.5106 -0.6641 -0.5461
  357MOL0     O49136   5.700   5.540   4.880 -0.0665  0.0180 -0.0607
  357MOL0     C49137   5.820   5.573   4.807  0.1214  0.0668  0.1065
  357MOL0     C49138   5.819   5.703   4.727  0.1773 -0.2088  0.0644
  357MOL0     C49139   5.774   5.815   4.815 -0.2845 -0.1081  0.1183
  357MOL0     C49140   5.828   5.957   4.785  0.0568 -0.3397 -0.0016
  357MOL0     C49141   5.784   6.058   4.887  0.1331 -0.2081 -0.1443
  357MOL0     C49142   5.803   6.207   4.860 -0.0745 -0.1420 -0.9296
  357MOL0     C49143   5.731   6.301   4.964 -0.4778  0.5012 -0.6887
  357MOL0     C49144   5.574   6.297   4.939 -1.0792 -0.1079 -0.5497
  357MOL0     N49145   5.519   6.402   5.029  1.1520  0.5432 -1.5337
  357MOL0     C49146   5.534   6.416   5.166  0.2858  0.3381 -0.1055
  357MOL0     C49147   5.449   6.518   5.208  0.0982  0.6044  0.3048
  357MOL0     C49148   5.409   6.556   5.347  0.0587 -0.3097  0.5843
  357MOL0     C49149   5.451   6.698   5.400  1.6108  0.5776 -0.5733
  357MOL0     C49150   5.419   6.826   5.324  0.3053  0.3661  0.4736
  357MOL0     C49151   5.460   6.955   5.394  0.7950 -0.7757 -0.0855
  357MOL0     O49152   5.340   7.033   5.433 -0.1480 -0.4177  0.4456
  357MOL0     C49153   5.367   7.164   5.472  0.5107 -0.2951  0.2627
  357MOL0     C49154   5.406   7.185   5.606 -0.6058  0.5511  0.1258
  357MOL0     C49155   5.417   7.308   5.662 -0.0594 -0.4572 -0.0257
  357MOL0     C49156   5.449   7.317   5.812 -0.9915 -0.7268  1.2256
  357MOL0     C49157   5.375   7.423   5.585 -0.1809 -0.2486 -0.3820
  357MOL0     C49158   5.379   7.565   5.637 -0.0993 -0.1100 -0.8865
  357MOL0     O49159   5.337   7.653   5.555  0.2393  0.4792 -0.1089
  357MOL0     C49160   5.353   7.787   5.563 -0.5229  0.1144  0.2558
  357MOL0     C49161   5.411   7.863   5.670  0.1676  0.9466  0.4789
  357MOL0     C49162   5.437   7.998   5.655 -0.0514  0.7251 -0.1357
  357MOL0     C49163   5.408   8.065   5.537  0.9275  0.8275 -0.9749
  357MOL0     O49164   5.429   8.199   5.529  0.4222 -0.3902  0.0151
  357MOL0     C49165   5.343   8.278   5.615  1.2285 -0.8221  0.0895
  357MOL0     C49166   5.347   8.423   5.550 -0.0150 -0.2355  0.0242
  357MOL0     C49167   5.273   8.538   5.623 -0.4780  0.1396  0.7690
  357MOL0     C49168   5.131   8.497   5.673  0.3146 -0.7563 -0.5136
  357MOL0     C49169   5.046   8.623   5.716  0.5683  0.2240  0.0998
  357MOL0     C49170   5.080   8.708   5.845  0.5097 -0.1539 -0.9340
  357MOL0     C49171   5.040   8.642   5.982 -0.8319  0.1582 -0.2622
  357MOL0     C49172   5.070   8.736   6.105  0.6714 -0.5042 -1.1459
  357MOL0    Cl49173   5.009   8.661   6.256  0.5200  0.0714  0.3056
  357MOL0     C49174   5.359   7.992   5.427 -1.1682  0.2558 -0.9436
  357MOL0     C49175   5.330   7.859   5.438  0.4684  0.1489  0.2641
  357MOL0     O49176   5.427   7.586   5.748 -0.8374 -0.5988 -0.8228
  357MOL0     C49177   5.342   7.402   5.451 -0.1753 -0.6499  0.8056
  357MOL0     C49178   5.343   7.274   5.394  1.2912 -0.2664 -0.5728
  357MOL0     N49179   5.402   6.577   5.092  0.9749 -0.5910 -0.0873
  357MOL0     N49180   5.441   6.505   4.995  0.3576  0.8005 -0.8378
  357MOL0     C49181   5.818   5.392   5.038  0.1226 -0.1650 -0.4566
  357MOL0     C49182   5.822   5.304   5.150  0.1711 -0.2925 -0.7370
  357MOL0     C49183   5.710   5.031   5.484  0.3871 -0.1405  0.4587
  357MOL0     C49184   5.621   5.104   5.575  0.4457 -0.1394 -0.4933
  357MOL0     C49185   5.571   5.037   5.691  0.5222  0.1051 -0.4451
  357MOL0     C49186   5.608   4.906   5.722 -0.0503  0.2173  0.2866
  357MOL0     O49187   5.582   4.851   5.848 -0.0473 -0.1121  0.1068
  357MOL0     C49188   5.441   4.832   5.875 -0.7271  1.1187  0.2257
  357MOL0     C49189   5.436   4.748   6.005  0.3992 -0.4639 -1.0175
  357MOL0     C49190   5.510   4.836   6.124  0.1635 -0.0913  0.0822
  357MOL0     C49191   5.454   4.800   6.261 -0.4089  0.2266  0.2480
  357MOL0     C49192   5.313   4.831   6.260  0.0064 -0.3884 -0.1306
  357MOL0     C49193   5.195   4.861   6.242  0.1631  0.6545  0.8292
  357MOL0     C49194   5.685   4.834   5.633 -0.2379  0.1224 -0.9109
  357MOL0     C49195   5.730   4.891   5.511  0.0355 -1.3277 -0.0995
  357MOL0     C49196   5.807   4.807   5.415  0.8438 -0.1039  1.1780
  357MOL0     H49197   5.497   5.312   5.227  0.1046 -0.2062 -0.1600
  357MOL0     H49198   5.489   5.462   5.000 -0.4675 -0.5213  0.2600
  357MOL0     H49199   5.851   5.492   4.740  0.8161 -0.4031  0.9715
  357MOL0     H49200   5.899   5.599   4.878 -1.9380  3.0089  1.5473
  357MOL0     H49201   5.920   5.723   4.689 -0.0299 -0.0316 -0.4029
  357MOL0     H49202   5.755   5.704   4.638  0.3294 -1.0326 -0.0691
  357MOL0     H49203   5.665   5.811   4.813 -0.5449  3.3396  1.6571
  357MOL0     H49204   5.818   5.778   4.908  2.3364 -1.6728 -1.5988
  357MOL0     H49205   5.934   5.950   4.758 -0.8962 -2.3359 -4.0355
  357MOL0     H49206   5.774   5.993   4.697  0.5859  1.8941  0.5140
  357MOL0     H49207   5.830   6.035   4.984 -0.3600 -0.0499  0.1314
  357MOL0     H49208   5.675   6.048   4.895 -0.3071 -1.0636 -4.5606
  357MOL0     H49209   5.911   6.227   4.852 -0.7428  4.9421 -0.5968
  357MOL0     H49210   5.756   6.230   4.764 -2.6918  1.3204  0.5684
  357MOL0     H49211   5.763   6.404   4.945 -4.1376  1.8539 -0.3003
  357MOL0     H49212   5.759   6.269   5.065 -1.4506 -3.2890 -1.4507
  357MOL0     H49213   5.555   6.333   4.837 -1.6864 -0.9159 -0.7320
  357MOL0     H49214   5.529   6.199   4.957 -1.1092 -0.1590 -0.8943
  357MOL0     H49215   5.590   6.342   5.223  1.9671  2.0814  0.5954
  357MOL0     H49216   5.441   6.484   5.423 -2.2733 -3.0874 -0.8704
  357MOL0     H49217   5.300   6.554   5.348 -0.0365 -3.7635  2.8545
  357MOL0     H49218   5.405   6.705   5.498 -1.9990  3.0310 -2.2380
  357MOL0     H49219   5.560   6.701   5.412  1.2965  0.3539  3.4125
  357MOL0     H49220   5.467   6.828   5.225 -0.9280  0.9454 -0.1268
  357MOL0     H49221   5.311   6.820   5.308  0.2317  1.2228  0.5948
  357MOL0     H49222   5.513   6.949   5.489  1.8427 -1.6792 -0.7046
  357MOL0     H49223   5.533   7.005   5.330 -2.2411  1.0986 -2.3869
  357MOL0     H49224   5.420   7.097   5.667  0.5777 -0.6665 -1.8253
  357MOL0     H49225   5.492   7.218   5.829 -1.1103 -0.9600  0.2106
  357MOL0     H49226   5.362   7.331   5.877 -1.0577 -0.8044  1.1547
  357MOL0     H49227   5.529   7.390   5.825  0.7641 -2.3532  0.0823
  357MOL0     H49228   5.433   7.806   5.760 -0.5083  1.5958  1.0704
  357MOL0     H49229   5.499   8.058   5.721 -1.5488  1.0052  1.0708
  357MOL0     H49230   5.243   8.240   5.638 -1.1229  3.6927 -1.3456
  357MOL0     H49231   5.397   8.282   5.711  0.9106 -4.7601  0.6148
  357MOL0     H49232   5.451   8.455   5.544 -0.6289  1.6052 -2.9665
  357MOL0     H49233   5.322   8.397   5.446 -0.3606  0.3643 -0.0516
  357MOL0     H49234   5.266   8.613   5.544 -0.4525  0.0186  0.6509
  357MOL0     H49235   5.334   8.586   5.700 -0.3078  1.4212 -0.1324
  357MOL0     H49236   5.136   8.435   5.763 -0.7613  2.5636  2.0482
  357MOL0     H49237   5.071   8.447   5.596 -4.1568 -0.7345  2.5490
  357MOL0     H49238   5.046   8.677   5.621  0.6282 -0.7344 -0.4526
  357MOL0     H49239   4.948   8.579   5.734  0.9646 -0.8094 -0.2173
  357MOL0     H49240   5.033   8.806   5.835 -1.8083 -1.2465 -1.2515
  357MOL0     H49241   5.188   8.727   5.846  0.4614  0.1584 -1.1621
  357MOL0     H49242   5.092   8.546   5.995 -1.4074  0.1546  2.6144
  357MOL0     H49243   4.934   8.616   5.979 -0.7417 -0.1644 -0.7292
  357MOL0     H49244   5.017   8.831   6.091 -2.9656 -2.2273 -0.3697
  357MOL0     H49245   5.179   8.742   6.112  0.5377 -0.1210  2.7104
  357MOL0     H49246   5.352   8.040   5.330 -0.4050 -0.3819 -1.3289
  357MOL0     H49247   5.285   7.804   5.355  1.2193 -2.2447  1.3697
  357MOL0     H49248   5.301   7.481   5.391  0.4697 -0.4483  0.6164
  357MOL0     H49249   5.310   7.275   5.291  2.3570  2.8849 -0.9796
  357MOL0     H49250   5.907   5.403   4.977 -1.4293  0.3706 -2.7737
  357MOL0     H49251   5.909   5.247   5.182 -0.5680 -0.2217  1.6333
  357MOL0     H49252   5.590   5.208   5.579  1.7317  0.2477  0.3530
  357MOL0     H49253   5.492   5.088   5.745 -2.6446 -0.4267 -4.0893
  357MOL0     H49254   5.389   4.928   5.884  0.7097  1.9539 -0.1293
  357MOL0     H49255   5.392   4.769   5.800 -0.3778 -1.0103  1.6773
  357MOL0     H49256   5.484   4.650   5.995 -1.9145 -1.5451 -2.2768
  357MOL0     H49257   5.329   4.743   6.028 -0.6575  3.6521 -3.8731
  357MOL0     H49258   5.617   4.814   6.112 -0.1000 -0.7855 -1.2153
  357MOL0     H49259   5.502   4.945   6.123 -0.3338 -0.1235  0.4288
  357MOL0     H49260   5.503   4.858   6.340 -0.7355  1.2118 -0.2593
  357MOL0     H49261   5.475   4.694   6.278  3.2793  1.0161  1.5009
  357MOL0     H49262   5.090   4.874   6.224 -0.4023 -3.4825  0.2124
  357MOL0     H49263   5.724   4.740   5.671  0.4834  0.3221 -1.1338
  357MOL0     H49264   5.911   4.790   5.446  1.1385  0.5871  0.5920
  357MOL0     H49265   5.767   4.705   5.421 -0.6361  0.4421  0.9552
  357MOL0     H49266   5.797   4.847   5.314 -0.4885 -0.3052  1.2141
  358MOL0     O49267   1.775   7.917   6.600  1.1474 -0.2113 -0.1670
  358MOL0     C49268   1.862   7.843   6.572  0.3282 -0.0115 -0.2364
  358MOL0     O49269   1.972   7.825   6.656  0.2486 -0.8042 -0.6718
  358MOL0     C49270   2.011   7.911   6.762  0.2285 -0.1132  0.3240
  358MOL0     C49271   1.917   7.932   6.866  1.4498 -0.3643 -0.2783
  358MOL0     C49272   1.955   8.001   6.988 -0.2101 -0.0721 -0.2354
  358MOL0     C49273   2.076   8.068   6.995 -0.0946  0.2444  0.2098
  358MOL0     O49274   2.108   8.159   7.089  0.3942  0.7244 -0.3569
  358MOL0     C49275   2.002   8.266   7.104 -0.9872 -0.6987 -0.8861
  358MOL0     C49276   2.057   8.376   7.193 -0.4636 -0.9328 -0.3183
  358MOL0     C49277   2.117   8.335   7.324 -0.7465  0.8996 -0.6313
  358MOL0     C49278   2.017   8.243   7.401 -0.0820 -0.3069 -0.2278
  358MOL0     C49279   2.061   8.222   7.549  0.2181 -0.2331 -0.5764
  358MOL0     C49280   1.968   8.122   7.619 -0.6604 -0.3675 -0.2567
  358MOL0     C49281   1.964   7.987   7.548 -0.9756  0.6198 -0.2265
  358MOL0     C49282   1.847   7.964   7.459 -0.3143  0.0681  0.4726
  358MOL0     N49283   1.737   7.916   7.535 -0.9894 -0.3958 -0.3734
  358MOL0     C49284   1.635   7.986   7.599  0.4317 -0.0014  0.7951
  358MOL0     C49285   1.553   7.885   7.640 -0.1846 -0.9638  0.4957
  358MOL0     C49286   1.416   7.898   7.702  0.5044 -0.3263  0.3254
  358MOL0     C49287   1.314   7.852   7.586 -0.3976 -0.0152 -0.6700
  358MOL0     C49288   1.180   7.856   7.644  0.1033  0.1424 -0.4313
  358MOL0     C49289   1.073   7.804   7.550 -1.0669  0.2471 -1.0244
  358MOL0     O49290   0.960   7.741   7.619  0.9597 -0.7772  0.4870
  358MOL0     C49291   0.896   7.814   7.715 -0.0890 -0.1289  0.7142
  358MOL0     C49292   0.858   7.740   7.832  0.9147 -0.4376  1.1169
  358MOL0     C49293   0.799   7.806   7.943 -0.1626  0.0467  0.0852
  358MOL0     C49294   0.771   7.721   8.063 -0.4948  0.4760 -0.3081
  358MOL0     C49295   0.778   7.947   7.936 -0.8168  0.3805 -0.6453
  358MOL0     C49296   0.718   8.027   8.052 -0.2936  0.0871  0.4425
  358MOL0     O49297   0.721   8.164   8.039  0.1109 -0.1269  0.0318
  358MOL0     C49298   0.742   8.235   8.158 -1.3000  0.0496 -0.1404
  358MOL0     C49299   0.861   8.208   8.226  0.0897  0.4857 -0.3495
  358MOL0     C49300   0.911   8.303   8.317 -0.2382 -0.1970  0.5327
  358MOL0     C49301   0.851   8.424   8.321 -0.4558 -1.0411 -0.3302
  358MOL0     O49302   0.906   8.516   8.407  0.9390  0.0777 -0.2011
  358MOL0     C49303   0.807   8.558   8.500  0.1630 -0.1803 -0.4531
  358MOL0     C49304   0.781   8.712   8.484 -0.4679  0.4431 -0.1448
  358MOL0     C49305   0.658   8.750   8.560 -1.8532  0.8055 -0.9716
  358MOL0     C49306   0.534   8.705   8.484  1.1626 -0.1015 -0.4189
  358MOL0     C49307   0.421   8.717   8.576  0.0935 -0.6359  0.2280
  358MOL0     C49308   0.281   8.715   8.503  0.5177  0.1861  0.5049
  358MOL0     C49309   0.162   8.749   8.596 -0.3616 -0.1962  0.9642
  358MOL0     C49310   0.022   8.763   8.524  0.5067 -1.2033 -0.7185
  358MOL0    Cl49311  -0.052   8.615   8.444  0.2195 -0.0782 -0.0895
  358MOL0     C49312   0.730   8.449   8.256 -0.6823  0.5590 -1.0668
  358MOL0     C49313   0.669   8.354   8.175  0.8359  0.1914 -0.6780
  358MOL0     O49314   0.664   7.966   8.146 -0.0349  0.0709  0.6207
  358MOL0     C49315   0.814   8.017   7.815  0.2403  0.2052 -0.0857
  358MOL0     C49316   0.872   7.952   7.705 -0.8164  0.5206 -0.8086
  358MOL0     N49317   1.607   7.766   7.600  0.5974  1.1391 -1.7988
  358MOL0     N49318   1.714   7.787   7.541 -0.8997 -0.7174  1.3378
  358MOL0     C49319   2.171   8.041   6.897 -0.6685 -0.7738 -0.0763
  358MOL0     C49320   2.142   7.963   6.786  0.6927  0.4719  0.2897
  358MOL0     C49321   1.848   7.739   6.462 -0.1521  0.1161 -0.2946
  358MOL0     C49322   1.946   7.640   6.459 -1.0121  0.4430  0.3416
  358MOL0     C49323   1.951   7.557   6.343  0.5210  0.1350 -0.1702
  358MOL0     C49324   1.855   7.561   6.245 -0.5922 -0.3534  0.4503
  358MOL0     O49325   1.868   7.468   6.141 -0.3255 -0.3929  0.8593
  358MOL0     C49326   1.809   7.490   6.015  0.6409  0.5500  0.7629
  358MOL0     C49327   1.658   7.467   5.989  0.0587  0.3981 -0.3606
  358MOL0     C49328   1.614   7.533   5.847  0.1375  0.4471  0.8823
  358MOL0     C49329   1.619   7.694   5.829 -0.0195 -0.1232 -0.9100
  358MOL0     C49330   1.539   7.755   5.931 -0.2006  0.7861 -0.1940
  358MOL0     C49331   1.453   7.815   5.998 -0.5923  0.4024  1.1247
  358MOL0     C49332   1.762   7.663   6.252 -0.4575 -0.1865 -0.3249
  358MOL0     C49333   1.756   7.756   6.353 -0.0242 -0.0038 -0.2268
  358MOL0     C49334   1.668   7.874   6.323 -0.1496  0.3097 -0.7258
  358MOL0     H49335   1.812   7.905   6.869  1.3233  0.1690  0.1651
  358MOL0     H49336   1.879   8.002   7.066 -1.0891  1.5319 -1.0541
  358MOL0     H49337   1.913   8.236   7.160 -1.6415  1.6354 -0.5888
  358MOL0     H49338   1.976   8.298   7.002  0.4145 -0.8404 -1.3099
  358MOL0     H49339   2.133   8.438   7.145 -0.6116 -2.3207 -2.4689
  358MOL0     H49340   1.979   8.451   7.214  1.3897  1.0034  0.0472
  358MOL0     H49341   2.197   8.263   7.305 -1.8370  0.0210 -2.1195
  358MOL0     H49342   2.149   8.422   7.382  0.7678 -0.2875  0.4245
  358MOL0     H49343   1.915   8.283   7.398 -0.3871 -1.0047  0.3349
  358MOL0     H49344   2.017   8.145   7.351  0.1647 -0.7694  0.6571
  358MOL0     H49345   2.055   8.323   7.590  1.9545 -0.0415 -0.7272
  358MOL0     H49346   2.165   8.188   7.541  0.9941  2.2587 -1.9860
  358MOL0     H49347   1.999   8.109   7.724  0.3014 -2.2804 -0.7311
  358MOL0     H49348   1.870   8.170   7.622 -1.8049 -1.6713 -6.0962
  358MOL0     H49349   1.963   7.900   7.614  1.9687 -2.1801 -3.4580
  358MOL0     H49350   2.062   7.967   7.503 -0.7531 -3.5015  1.6255
  358MOL0     H49351   1.821   8.059   7.413  1.7627 -0.1272 -1.2489
  358MOL0     H49352   1.878   7.892   7.382 -0.3623  0.5384  0.0096
  358MOL0     H49353   1.614   8.092   7.608 -0.9321 -0.2689  0.9853
  358MOL0     H49354   1.413   8.001   7.738  0.8978  0.5379 -1.9380
  358MOL0     H49355   1.413   7.824   7.783 -1.8745 -0.0010  0.6092
  358MOL0     H49356   1.332   7.915   7.499 -1.1693 -0.2645 -1.0210
  358MOL0     H49357   1.335   7.752   7.545  3.1927  1.0721 -1.8168
  358MOL0     H49358   1.169   7.784   7.725 -1.1176 -1.0512 -1.6232
  358MOL0     H49359   1.162   7.954   7.691  0.1820  1.3078 -2.6851
  358MOL0     H49360   1.028   7.883   7.488 -2.4338  0.0219 -0.3500
  358MOL0     H49361   1.116   7.746   7.467 -3.9077  1.4654 -3.5515
  358MOL0     H49362   0.871   7.633   7.823  0.1639 -0.4280 -0.6052
  358MOL0     H49363   0.663   7.720   8.079 -0.2490  2.3123  1.9488
  358MOL0     H49364   0.823   7.757   8.152 -0.6664 -4.5954  2.1229
  358MOL0     H49365   0.804   7.617   8.058 -3.4366 -0.6475  1.3619
  358MOL0     H49366   0.917   8.116   8.219  2.5242  1.7577  1.0744
  358MOL0     H49367   1.005   8.277   8.366  1.7115  1.7735 -1.8971
  358MOL0     H49368   0.713   8.503   8.491 -0.4063  0.4830  1.0803
  358MOL0     H49369   0.832   8.534   8.604  0.8193  0.3634 -0.4782
  358MOL0     H49370   0.866   8.753   8.539  2.0320 -3.4966 -0.6552
  358MOL0     H49371   0.785   8.749   8.381  4.3850 -2.6825 -1.4573
  358MOL0     H49372   0.664   8.859   8.571  1.7886  0.5061  2.0291
  358MOL0     H49373   0.652   8.706   8.660  0.2948  1.3396 -0.5439
  358MOL0     H49374   0.537   8.599   8.461 -3.1499 -1.2532  2.8964
  358MOL0     H49375   0.529   8.769   8.395 -0.3309 -0.5148 -0.6700
  358MOL0     H49376   0.431   8.650   8.662 -0.2159  2.4854  2.8827
  358MOL0     H49377   0.432   8.815   8.623 -0.8421 -1.6664  2.8489
  358MOL0     H49378   0.269   8.613   8.466  2.8726  0.9027 -2.6394
  358MOL0     H49379   0.277   8.784   8.418  2.6178 -0.1364  0.0928
  358MOL0     H49380   0.186   8.851   8.627  2.1877  0.0709 -1.4446
  358MOL0     H49381   0.165   8.679   8.679 -0.8033  0.7004  1.7541
  358MOL0     H49382   0.027   8.847   8.453 -0.4064  0.5464  1.1612
  358MOL0     H49383  -0.046   8.799   8.602  3.3259  0.5137  1.1611
  358MOL0     H49384   0.680   8.542   8.281  2.3629  1.3269  3.2490
  358MOL0     H49385   0.577   8.373   8.121  1.0958  2.2184 -0.4783
  358MOL0     H49386   0.787   8.122   7.805  0.4322  0.2990  0.3338
  358MOL0     H49387   0.890   8.003   7.610  0.5046 -0.4638 -1.1099
  358MOL0     H49388   2.268   8.088   6.910 -1.0530 -0.1902  0.8075
  358MOL0     H49389   2.221   7.954   6.712  1.5740 -0.7420  1.3278
  358MOL0     H49390   2.024   7.632   6.535  0.7775  3.0815 -1.0485
  358MOL0     H49391   2.025   7.480   6.327 -1.8511 -1.7616 -2.9781
  358MOL0     H49392   1.837   7.589   5.976  2.4114 -1.0823 -2.5051
  358MOL0     H49393   1.857   7.419   5.947 -1.0708  0.3691 -0.3173
  358MOL0     H49394   1.598   7.499   6.075 -2.2140 -2.4571 -0.7256
  358MOL0     H49395   1.637   7.360   5.989 -1.0146  0.5440  2.0010
  358MOL0     H49396   1.665   7.489   5.761 -1.2980  0.8007 -0.1693
  358MOL0     H49397   1.513   7.499   5.823  0.8411 -1.0639 -0.1308
  358MOL0     H49398   1.577   7.710   5.729 -0.3660 -3.2438 -1.3631
  358MOL0     H49399   1.723   7.728   5.830  0.3042 -1.0120  1.6804
  358MOL0     H49400   1.376   7.869   6.050 -1.2226 -0.3884  1.0228
  358MOL0     H49401   1.702   7.680   6.163 -0.0863 -1.9414 -0.9555
  358MOL0     H49402   1.567   7.832   6.321  1.3968 -3.9475 -0.0591
  358MOL0     H49403   1.672   7.955   6.397 -0.2290  0.5863 -1.0234
  358MOL0     H49404   1.697   7.914   6.226  2.8521  2.8362  1.0291
  359MOL0     O49405  11.065   7.403   4.023 -0.0495 -0.4584  0.0840
  359MOL0     C49406  11.153   7.489   4.025 -0.8958 -0.7063  0.5957
  359MOL0     O49407  11.263   7.503   3.935 -0.1306  0.5240  0.0623
  359MOL0     C49408  11.278   7.408   3.835 -0.3969 -0.4780  0.5180
  359MOL0     C49409  11.284   7.447   3.706  0.1953 -0.0640  0.6588
  359MOL0     C49410  11.293   7.352   3.596  0.6043  0.0976 -0.3295
  359MOL0     C49411  11.323   7.221   3.627  0.1156 -1.3268 -0.4426
  359MOL0     O49412  11.357   7.122   3.546  0.1111  1.2121  0.0447
  359MOL0     C49413  11.335   7.145   3.405  0.2359  0.0408 -0.4579
  359MOL0     C49414  11.459   7.187   3.334  0.3154  0.2373 -0.3520
  359MOL0     C49415  11.577   7.098   3.359 -0.0560  0.0266 -0.8521
  359MOL0     C49416  11.690   7.125   3.261  0.8869  0.0381 -0.5626
  359MOL0     C49417  11.824   7.058   3.263  0.8321 -0.2349  0.2831
  359MOL0     C49418  11.833   6.905   3.308  0.3476  0.1731  0.2907
  359MOL0     C49419  11.838   6.807   3.193  0.0040  0.4220 -0.2920
  359MOL0     C49420  11.826   6.665   3.252  0.8439  0.9816  0.0924
  359MOL0     N49421  11.950   6.629   3.320 -0.6331 -0.2430  0.0507
  359MOL0     C49422  12.067   6.595   3.257 -1.1028  0.1856  0.6371
  359MOL0     C49423  12.148   6.545   3.353 -0.3302 -0.1502  0.3173
  359MOL0     C49424  12.270   6.469   3.333 -0.5893 -0.2420 -0.6259
  359MOL0     C49425  12.336   6.486   3.206  0.3229 -0.6702  0.8092
  359MOL0     C49426  12.434   6.383   3.155 -0.2845 -1.0055  0.7366
  359MOL0     C49427  12.482   6.400   3.012 -0.3520 -0.5511  0.4693
  359MOL0     O49428  12.531   6.538   2.987 -0.2052  0.6431 -0.3133
  359MOL0     C49429  12.663   6.560   2.980 -0.2260  1.5041  0.2735
  359MOL0     C49430  12.770   6.477   3.031 -0.0561 -0.4833 -0.7475
  359MOL0     C49431  12.901   6.510   3.016 -0.4205  0.7050 -0.1765
  359MOL0     C49432  13.010   6.430   3.096  1.0261  0.2375  0.0218
  359MOL0     C49433  12.932   6.626   2.950 -0.7829  0.1425 -0.6549
  359MOL0     C49434  13.060   6.676   2.915 -0.1777  0.8489  0.0321
  359MOL0     O49435  13.081   6.717   2.788 -0.0298  0.1885 -0.1840
  359MOL0     C49436  13.204   6.717   2.731 -0.1011 -0.0709  0.2455
  359MOL0     C49437  13.324   6.660   2.783  0.5967 -0.7002  0.3776
  359MOL0     C49438  13.434   6.652   2.697 -0.1506 -0.5230 -0.5444
  359MOL0     C49439  13.449   6.711   2.571  1.1190 -1.0420 -0.2121
  359MOL0     O49440  13.564   6.702   2.496  0.2770  0.6740  0.1224
  359MOL0     C49441  13.592   6.569   2.453 -1.4553  0.3498  0.0909
  359MOL0     C49442  13.711   6.577   2.358  0.0662  0.6461  0.1606
  359MOL0     C49443  13.843   6.649   2.416 -0.1338  0.0620 -0.7269
  359MOL0     C49444  13.953   6.642   2.311  0.1111 -0.7740  0.2907
  359MOL0     C49445  14.077   6.727   2.351 -0.0413 -0.6854 -0.1635
  359MOL0     C49446  14.203   6.701   2.267 -0.8521  0.3402 -0.4594
  359MOL0     C49447  14.186   6.691   2.124  0.1065  0.9869 -0.4513
  359MOL0     C49448  14.309   6.650   2.055 -1.0436 -0.6327 -0.0950
  359MOL0    Cl49449  14.367   6.478   2.084  0.3319 -0.0966  0.6231
  359MOL0     C49450  13.328   6.778   2.530 -1.0679 -0.3622  0.0288
  359MOL0     C49451  13.209   6.763   2.598 -0.9990  0.0562 -0.0054
  359MOL0     O49452  13.138   6.695   3.012 -0.0937 -0.1817 -0.0074
  359MOL0     C49453  12.830   6.708   2.908  0.6835  0.5750 -0.4012
  359MOL0     C49454  12.695   6.680   2.926  0.0174  0.2566 -0.1250
  359MOL0     N49455  12.077   6.545   3.474  0.1208  0.0721  0.8302
  359MOL0     N49456  11.960   6.595   3.453  0.5701 -0.7772  0.1842
  359MOL0     C49457  11.324   7.182   3.768  0.2378  0.3295  1.3157
  359MOL0     C49458  11.293   7.275   3.863  1.1288  0.5884 -0.3207
  359MOL0     C49459  11.135   7.613   4.112  0.3751  0.9408 -0.3143
  359MOL0     C49460  11.053   7.604   4.214  0.2416  0.5138  0.1559
  359MOL0     C49461  11.008   7.710   4.304  0.1940 -0.3512  0.2750
  359MOL0     C49462  11.080   7.825   4.305  0.1103  0.8075  1.0610
  359MOL0     O49463  11.057   7.930   4.388  0.2000  0.3983 -1.3613
  359MOL0     C49464  10.922   7.968   4.425 -0.1200 -0.5543 -0.2459
  359MOL0     C49465  10.916   8.077   4.527 -0.7142 -0.1696  0.4676
  359MOL0     C49466  10.986   8.209   4.475 -0.5132  0.1745 -0.3700
  359MOL0     C49467  11.037   8.282   4.598  0.2014 -0.5786  0.4371
  359MOL0     C49468  10.937   8.334   4.693 -0.5544  0.5554  0.1273
  359MOL0     C49469  10.854   8.369   4.766  0.0032  0.2477  0.1737
  359MOL0     C49470  11.172   7.839   4.203  0.5173 -0.1208 -0.3448
  359MOL0     C49471  11.200   7.739   4.103 -0.0733 -0.2932  0.4133
  359MOL0     C49472  11.300   7.783   3.998 -0.3532  0.3587  0.3272
  359MOL0     H49473  11.268   7.551   3.679 -0.0448 -0.7899 -2.2335
  359MOL0     H49474  11.299   7.385   3.493 -0.3724 -2.2712 -1.2081
  359MOL0     H49475  11.251   7.212   3.382 -0.0442  0.5545  1.7803
  359MOL0     H49476  11.304   7.053   3.354 -2.3206  0.8262 -0.4514
  359MOL0     H49477  11.440   7.207   3.228  2.0729  2.9455 -0.2623
  359MOL0     H49478  11.480   7.285   3.377 -5.6454  1.2466  1.0797
  359MOL0     H49479  11.622   7.109   3.458  2.8364 -0.4347 -2.0216
  359MOL0     H49480  11.555   6.991   3.358  0.8477 -0.1800  0.0524
  359MOL0     H49481  11.641   7.084   3.172 -0.0586 -0.1812  0.0316
  359MOL0     H49482  11.697   7.231   3.238  5.5204 -0.7608 -4.4733
  359MOL0     H49483  11.891   7.122   3.321 -0.1755  0.5692  0.5934
  359MOL0     H49484  11.862   7.065   3.161 -0.8696 -0.0445 -0.3638
  359MOL0     H49485  11.928   6.898   3.361 -0.9964 -0.4399  2.7460
  359MOL0     H49486  11.751   6.885   3.377 -0.4810  0.2993 -0.6373
  359MOL0     H49487  11.937   6.817   3.148  1.6068  0.4636  2.9138
  359MOL0     H49488  11.759   6.823   3.120  0.4901  0.5841 -0.7846
  359MOL0     H49489  11.732   6.644   3.304 -0.0594  2.2140 -0.9716
  359MOL0     H49490  11.830   6.608   3.159 -0.3650  0.8960  0.0808
  359MOL0     H49491  12.074   6.589   3.149  0.6409 -2.1604  0.8115
  359MOL0     H49492  12.253   6.361   3.342  1.0020 -0.4751 -0.0889
  359MOL0     H49493  12.349   6.506   3.398  1.5245  1.0019 -3.6352
  359MOL0     H49494  12.254   6.478   3.134 -0.2412  1.4585  1.1612
  359MOL0     H49495  12.401   6.574   3.210  0.2756 -0.6150  0.3864
  359MOL0     H49496  12.516   6.381   3.228 -0.3747  1.1434  0.9586
  359MOL0     H49497  12.379   6.288   3.156 -0.4025 -1.0782 -2.6445
  359MOL0     H49498  12.553   6.323   2.982  0.4048  0.4239 -0.2953
  359MOL0     H49499  12.393   6.377   2.953 -2.0023 -5.3222  4.1545
  359MOL0     H49500  12.743   6.398   3.101  0.3563 -0.4919 -0.5956
  359MOL0     H49501  13.042   6.507   3.166 -0.4859  1.3327 -0.4441
  359MOL0     H49502  13.091   6.399   3.029  1.3631  2.1482 -0.5096
  359MOL0     H49503  12.976   6.337   3.143  2.1432  2.1562  5.2496
  359MOL0     H49504  13.323   6.614   2.881 -4.9872 -3.4181 -0.5404
  359MOL0     H49505  13.515   6.596   2.742 -0.8565 -0.6096  0.6419
  359MOL0     H49506  13.640   6.514   2.534 -0.7607  0.7894 -0.0150
  359MOL0     H49507  13.513   6.506   2.412 -0.2092 -0.2967 -1.4507
  359MOL0     H49508  13.741   6.481   2.315 -1.1188  1.1714 -2.0287
  359MOL0     H49509  13.675   6.632   2.270 -1.9336  2.6420  2.1007
  359MOL0     H49510  13.875   6.599   2.508 -0.0720 -2.2830 -1.9543
  359MOL0     H49511  13.828   6.756   2.435 -2.1738 -0.0302 -1.5264
  359MOL0     H49512  13.913   6.679   2.216  0.9570 -0.3046  0.1111
  359MOL0     H49513  13.989   6.540   2.293 -0.5191 -0.9027 -0.2866
  359MOL0     H49514  14.052   6.834   2.353 -2.3331 -1.1644 -0.4021
  359MOL0     H49515  14.105   6.706   2.455 -3.8382  2.3583  1.7471
  359MOL0     H49516  14.249   6.609   2.304  2.6054  1.4662 -1.5773
  359MOL0     H49517  14.280   6.774   2.295 -0.2791  0.0862 -1.3404
  359MOL0     H49518  14.134   6.776   2.078 -0.2354 -0.6418 -3.2478
  359MOL0     H49519  14.114   6.612   2.103  0.8920  0.3865 -0.9127
  359MOL0     H49520  14.392   6.718   2.078 -2.1079  0.2712  1.2451
  359MOL0     H49521  14.285   6.668   1.949  2.0421 -3.6307 -1.5039
  359MOL0     H49522  13.334   6.838   2.440 -0.7459  1.3092  1.1304
  359MOL0     H49523  13.121   6.799   2.545  0.1409  1.3690 -1.0923
  359MOL0     H49524  12.850   6.799   2.853  1.4947  1.5335  1.3989
  359MOL0     H49525  12.612   6.746   2.900 -1.2027 -1.5797 -1.1766
  359MOL0     H49526  11.344   7.077   3.788 -0.7327 -0.5842 -1.9961
  359MOL0     H49527  11.264   7.251   3.965 -0.4373  3.7727  0.1037
  359MOL0     H49528  10.992   7.514   4.221 -0.3822  0.8731 -0.4918
  359MOL0     H49529  10.929   7.680   4.373 -0.0684  0.4278  0.3282
  359MOL0     H49530  10.893   8.011   4.329 -1.5075 -2.1160 -0.5880
  359MOL0     H49531  10.863   7.880   4.453 -0.1470 -0.2923  0.5394
  359MOL0     H49532  10.974   8.053   4.617 -0.2714 -1.2602 -0.0894
  359MOL0     H49533  10.814   8.102   4.556 -2.7598 -3.6276 -2.8037
  359MOL0     H49534  11.069   8.186   4.408 -1.1847 -0.7763 -0.9020
  359MOL0     H49535  10.911   8.268   4.422 -1.1995 -2.5814 -2.7777
  359MOL0     H49536  11.098   8.362   4.556  1.0970 -1.4325  0.0595
  359MOL0     H49537  11.105   8.222   4.660  0.5973 -2.8836 -2.0106
  359MOL0     H49538  10.791   8.408   4.844 -2.4240 -0.9322 -1.0657
  359MOL0     H49539  11.232   7.929   4.197 -0.1003  0.2170 -2.2142
  359MOL0     H49540  11.392   7.727   4.017  0.0915  1.1003  0.4267
  359MOL0     H49541  11.256   7.749   3.904 -1.7140 -0.2682  1.1509
  359MOL0     H49542  11.323   7.890   4.001  2.4334 -0.0826 -1.7873
  360MOL0     O49543   7.606   7.171   2.921 -0.1258 -0.3263  0.3636
  360MOL0     C49544   7.546   7.263   2.965  0.4247 -0.2745 -0.5784
  360MOL0     O49545   7.587   7.324   3.083  0.2930 -0.4328 -0.1128
  360MOL0     C49546   7.711   7.346   3.121  0.6419 -0.0627 -0.0154
  360MOL0     C49547   7.729   7.411   3.245 -0.9274 -0.4965  0.4618
  360MOL0     C49548   7.853   7.469   3.291 -0.6742  0.6900 -0.3924
  360MOL0     C49549   7.967   7.460   3.208 -0.4396 -0.9604 -0.5857
  360MOL0     O49550   8.087   7.518   3.259 -0.2767  0.7856  0.0081
  360MOL0     C49551   8.193   7.500   3.178  0.1078 -0.7762  0.1134
  360MOL0     C49552   8.326   7.557   3.230  0.1874  0.1319  1.9839
  360MOL0     C49553   8.411   7.607   3.114  0.2135 -0.2241  0.6324
  360MOL0     C49554   8.558   7.548   3.135 -0.5020 -0.4494  0.2041
  360MOL0     C49555   8.627   7.579   2.997 -0.6906  0.3241  0.1532
  360MOL0     C49556   8.761   7.521   2.991 -0.6496 -0.8574 -0.0190
  360MOL0     C49557   8.833   7.527   2.857  0.2998  0.1293  0.5232
  360MOL0     C49558   8.880   7.667   2.810 -0.4454  0.2859 -1.1150
  360MOL0     N49559   8.972   7.660   2.700 -0.1527 -0.5419  0.7677
  360MOL0     C49560   9.050   7.561   2.634  0.0305  0.8720 -0.3166
  360MOL0     C49561   9.101   7.618   2.527 -0.2983  0.2858  0.4338
  360MOL0     C49562   9.205   7.551   2.432 -0.4002 -0.2844 -0.1712
  360MOL0     C49563   9.344   7.588   2.480  0.9088 -0.3499  1.0775
  360MOL0     C49564   9.417   7.719   2.418  0.0059 -0.3666 -0.0221
  360MOL0     C49565   9.492   7.683   2.286  0.7521 -0.5627  0.0586
  360MOL0     O49566   9.425   7.759   2.180  0.0155  0.6235  1.1095
  360MOL0     C49567   9.481   7.743   2.052  0.7133  0.4194  0.8027
  360MOL0     C49568   9.411   7.811   1.952  0.4447  0.3192 -0.5314
  360MOL0     C49569   9.450   7.802   1.814  0.5683  0.3562  1.4430
  360MOL0     C49570   9.373   7.877   1.709 -0.4563 -0.2156 -0.3935
  360MOL0     C49571   9.571   7.729   1.784 -0.2938  0.0536  0.4047
  360MOL0     C49572   9.640   7.713   1.640 -0.0356  0.1613 -1.1299
  360MOL0     O49573   9.767   7.656   1.643  0.7510 -0.2114 -0.2629
  360MOL0     C49574   9.863   7.676   1.544 -0.3903  0.3122  0.0722
  360MOL0     C49575   9.986   7.626   1.589  0.7709  0.3068 -0.4597
  360MOL0     C49576  10.104   7.648   1.514 -0.9850  0.9092 -0.6071
  360MOL0     C49577  10.099   7.708   1.392 -0.4760  0.1677  0.2408
  360MOL0     O49578  10.211   7.728   1.314 -0.1297 -0.2184  0.4994
  360MOL0     C49579  10.238   7.595   1.255 -0.1748  0.0076 -0.3944
  360MOL0     C49580  10.299   7.604   1.120 -0.1321 -0.2333 -0.0471
  360MOL0     C49581  10.343   7.466   1.060  0.0388  0.5119  0.8574
  360MOL0     C49582  10.234   7.358   1.027  0.7114  0.6746 -0.2785
  360MOL0     C49583  10.268   7.213   1.017  0.4230 -0.3804  0.1470
  360MOL0     C49584  10.344   7.181   0.891 -0.1600  0.8858 -0.2750
  360MOL0     C49585  10.408   7.042   0.889 -1.1602  0.3855  0.4662
  360MOL0     C49586  10.305   6.930   0.894 -0.1638  0.5924  0.4073
  360MOL0    Cl49587  10.248   6.910   0.722 -0.0747  0.2643 -0.1280
  360MOL0     C49588   9.970   7.759   1.350 -0.3433 -1.0085  0.0506
  360MOL0     C49589   9.859   7.743   1.424 -0.0816  0.8936 -0.0445
  360MOL0     O49590   9.568   7.710   1.548 -0.3068  0.3047  0.9695
  360MOL0     C49591   9.651   7.675   1.890 -0.1972  0.1230  0.1366
  360MOL0     C49592   9.603   7.674   2.019 -0.6350 -0.1226  0.0365
  360MOL0     N49593   9.049   7.745   2.523 -0.2420 -0.2175 -0.1449
  360MOL0     N49594   8.969   7.774   2.620 -0.0357  0.7438  0.2537
  360MOL0     C49595   7.943   7.405   3.082 -0.4754  0.1711  0.0796
  360MOL0     C49596   7.822   7.348   3.034 -0.0112  0.7958 -0.3347
  360MOL0     C49597   7.443   7.332   2.901 -0.3885  0.1401  1.0878
  360MOL0     C49598   7.328   7.354   2.971  0.2743  0.7528  0.1857
  360MOL0     C49599   7.220   7.430   2.936  0.4006 -1.0368  0.8276
  360MOL0     C49600   7.224   7.489   2.812  0.2776  0.2033  0.3132
  360MOL0     O49601   7.116   7.563   2.769 -0.2826  0.3455 -0.4240
  360MOL0     C49602   7.102   7.602   2.626  1.3750  0.2517  0.4380
  360MOL0     C49603   6.965   7.658   2.593  0.5898  0.3675  0.0306
  360MOL0     C49604   6.927   7.757   2.694 -0.5013 -0.3335 -0.6467
  360MOL0     C49605   6.783   7.804   2.668 -0.6412 -0.2746 -0.6578
  360MOL0     C49606   6.682   7.717   2.742  0.2073 -0.2362  1.0782
  360MOL0     C49607   6.600   7.657   2.797 -0.0821 -0.8202  0.9235
  360MOL0     C49608   7.333   7.466   2.728 -0.4516  0.7830  0.5224
  360MOL0     C49609   7.452   7.389   2.776  0.2277  0.3773  0.3024
  360MOL0     C49610   7.565   7.377   2.686 -0.4247 -0.2415 -0.2924
  360MOL0     H49611   7.644   7.417   3.312  0.4135 -2.1037  2.4570
  360MOL0     H49612   7.868   7.488   3.397  2.6127  1.3791 -0.8854
  360MOL0     H49613   8.170   7.544   3.080  0.5189 -4.0627 -1.5970
  360MOL0     H49614   8.215   7.393   3.176 -0.3768 -0.8786  0.0787
  360MOL0     H49615   8.303   7.634   3.304  1.5813  0.1857  2.3921
  360MOL0     H49616   8.376   7.473   3.279  0.5207  0.1393  1.6664
  360MOL0     H49617   8.363   7.580   3.020  3.2268 -0.7504 -0.8837
  360MOL0     H49618   8.412   7.717   3.119  0.6284 -0.0766 -1.6911
  360MOL0     H49619   8.610   7.592   3.221 -0.4041 -1.6444  0.7811
  360MOL0     H49620   8.542   7.441   3.147 -0.8001 -0.7665 -2.4813
  360MOL0     H49621   8.639   7.687   2.986  1.3501  0.1596  0.3611
  360MOL0     H49622   8.561   7.536   2.922 -0.9665  1.6878 -0.4016
  360MOL0     H49623   8.825   7.581   3.055 -0.8827  0.7981 -1.2665
  360MOL0     H49624   8.757   7.418   3.028  0.8197 -0.1759  2.1902
  360MOL0     H49625   8.783   7.475   2.774 -0.3544 -2.2172  2.2638
  360MOL0     H49626   8.921   7.464   2.872 -0.4127 -0.9639  0.2559
  360MOL0     H49627   8.787   7.710   2.772 -1.7363  1.6149  3.0432
  360MOL0     H49628   8.912   7.738   2.886 -0.8078  0.5671 -1.2241
  360MOL0     H49629   9.061   7.457   2.663 -2.6529 -0.3286 -2.9895
  360MOL0     H49630   9.186   7.592   2.333 -0.0383  0.5631  0.1023
  360MOL0     H49631   9.194   7.442   2.433  0.8059 -0.4220 -0.1329
  360MOL0     H49632   9.349   7.587   2.589 -0.8674 -1.8560  1.1898
  360MOL0     H49633   9.404   7.502   2.449 -0.1235 -0.7780  0.2109
  360MOL0     H49634   9.349   7.803   2.401  0.6501  0.3371  0.8244
  360MOL0     H49635   9.489   7.748   2.495  2.4589  2.3054 -3.0259
  360MOL0     H49636   9.600   7.696   2.293  0.6200  0.6156  0.2257
  360MOL0     H49637   9.472   7.578   2.263  3.3222 -1.2061  0.4391
  360MOL0     H49638   9.334   7.882   1.979  1.1265  1.1971 -0.8539
  360MOL0     H49639   9.326   7.813   1.634  1.0229 -0.6576 -0.9919
  360MOL0     H49640   9.434   7.948   1.652 -1.4516  0.2836 -0.8488
  360MOL0     H49641   9.290   7.937   1.746  0.5934  1.4510 -0.6202
  360MOL0     H49642   9.992   7.577   1.686  2.1655  1.7110  0.2064
  360MOL0     H49643  10.201   7.608   1.545 -0.9655  0.7216 -0.9077
  360MOL0     H49644  10.299   7.535   1.324 -2.2305 -0.4876  1.0641
  360MOL0     H49645  10.147   7.537   1.241  0.0871 -0.1335 -1.5967
  360MOL0     H49646  10.223   7.643   1.052 -1.1190 -0.5100  0.8754
  360MOL0     H49647  10.388   7.667   1.113 -0.1607 -0.2188 -0.2680
  360MOL0     H49648  10.408   7.430   1.140  0.5877  0.0711  0.2336
  360MOL0     H49649  10.399   7.479   0.966  1.3972 -0.8570  1.4309
  360MOL0     H49650  10.171   7.391   0.943  1.7921  2.4843 -0.4359
  360MOL0     H49651  10.180   7.354   1.122  2.3490 -2.7960  0.6343
  360MOL0     H49652  10.328   7.173   1.100  1.4506 -1.8070 -1.2342
  360MOL0     H49653  10.172   7.161   1.022  0.7513 -0.9165  1.4673
  360MOL0     H49654  10.421   7.259   0.883  1.7383 -0.5691  2.1877
  360MOL0     H49655  10.284   7.185   0.800 -0.0322 -1.2576 -0.5091
  360MOL0     H49656  10.482   7.038   0.970  0.0063 -2.7664 -0.5724
  360MOL0     H49657  10.463   7.033   0.794 -2.0115  0.2827 -0.0241
  360MOL0     H49658  10.225   6.963   0.962 -0.5915  1.6300 -0.5682
  360MOL0     H49659  10.358   6.847   0.941 -1.4010 -2.1071 -2.6489
  360MOL0     H49660   9.969   7.824   1.263 -2.5556  0.1760  0.8843
  360MOL0     H49661   9.771   7.805   1.424  1.3073  2.9667  0.1412
  360MOL0     H49662   9.746   7.623   1.882  0.5945  1.7509 -4.9434
  360MOL0     H49663   9.658   7.623   2.097 -0.0619  1.1363  0.4875
  360MOL0     H49664   8.029   7.397   3.017 -2.0680  0.6154 -2.1671
  360MOL0     H49665   7.825   7.301   2.936  0.2991 -1.4877  0.7164
  360MOL0     H49666   7.317   7.310   3.070  2.3679 -1.6573 -0.5376
  360MOL0     H49667   7.126   7.437   2.989 -0.2390  1.4016 -0.4549
  360MOL0     H49668   7.174   7.682   2.603  0.6663  0.6680 -0.3444
  360MOL0     H49669   7.133   7.533   2.547  1.5677 -0.1523  0.8587
  360MOL0     H49670   6.896   7.573   2.584  0.3359  0.7590 -2.4912
  360MOL0     H49671   6.961   7.704   2.494 -2.1745  0.1920 -0.0066
  360MOL0     H49672   6.945   7.714   2.793 -3.5203  2.0599  1.1224
  360MOL0     H49673   6.992   7.845   2.695 -0.2274 -0.4427  2.4124
  360MOL0     H49674   6.757   7.795   2.562 -2.6914 -0.8682 -0.1521
  360MOL0     H49675   6.780   7.907   2.703 -1.6685 -0.5949  0.2367
  360MOL0     H49676   6.525   7.595   2.842  1.9294 -2.5309  2.0997
  360MOL0     H49677   7.342   7.488   2.622 -2.1672  0.7194  0.3307
  360MOL0     H49678   7.540   7.445   2.604  0.6194  0.5606  0.0343
  360MOL0     H49679   7.659   7.418   2.724 -0.4593 -0.3575 -0.0824
  360MOL0     H49680   7.591   7.279   2.645  0.9501  0.6792 -1.7657
  361MOL0     O49681   9.333   7.556   9.173  0.0606 -0.1652  0.0016
  361MOL0     C49682   9.433   7.589   9.108  0.5743  0.1217 -0.0419
  361MOL0     O49683   9.532   7.663   9.158  0.8782 -0.0109  0.9253
  361MOL0     C49684   9.531   7.718   9.286  0.3938  0.7036  0.2384
  361MOL0     C49685   9.581   7.851   9.304 -0.0170  0.0885 -0.4461
  361MOL0     C49686   9.553   7.911   9.430 -0.6105  0.2218  0.1106
  361MOL0     C49687   9.501   7.840   9.538  0.0362 -0.1675 -0.2897
  361MOL0     O49688   9.486   7.909   9.664  0.7582  0.0198  0.0938
  361MOL0     C49689   9.346   7.909   9.707  0.0330  0.2985  0.4517
  361MOL0     C49690   9.253   7.993   9.628  0.8779 -1.1918  0.4589
  361MOL0     C49691   9.164   7.905   9.542 -0.4698 -0.2296 -0.8744
  361MOL0     C49692   9.061   7.982   9.455 -0.1148  0.3520 -0.8090
  361MOL0     C49693   8.957   7.877   9.383  0.0842  0.6076  1.0537
  361MOL0     C49694   9.021   7.794   9.279  0.5199  0.8553  0.1207
  361MOL0     C49695   8.924   7.760   9.165 -0.2832  0.1973  0.6060
  361MOL0     C49696   8.992   7.658   9.076  0.2024  0.1451 -0.7330
  361MOL0     N49697   8.932   7.636   8.944 -0.2297  0.2196  0.1267
  361MOL0     C49698   9.013   7.636   8.830 -0.3027 -0.4910 -0.8820
  361MOL0     C49699   8.947   7.577   8.728  1.2750 -0.8258  0.3214
  361MOL0     C49700   8.991   7.577   8.586 -0.1215 -0.1929 -0.0287
  361MOL0     C49701   9.004   7.437   8.528 -0.7484 -0.0729  0.1884
  361MOL0     C49702   9.116   7.347   8.586 -0.7061 -0.0449  0.1584
  361MOL0     C49703   9.146   7.210   8.520 -0.2335 -0.4642  0.4962
  361MOL0     O49704   9.281   7.169   8.560 -0.7187 -0.1342  0.2113
  361MOL0     C49705   9.302   7.038   8.541 -0.1090  0.4762 -0.0851
  361MOL0     C49706   9.291   6.941   8.643  1.3270 -0.1123  0.0284
  361MOL0     C49707   9.296   6.796   8.617 -0.7146 -0.2207 -0.6228
  361MOL0     C49708   9.334   6.719   8.744  0.4284  0.7158 -0.0359
  361MOL0     C49709   9.303   6.758   8.480  0.4109  0.2812  0.6783
  361MOL0     C49710   9.327   6.611   8.444 -0.1648  0.2751  0.7176
  361MOL0     O49711   9.307   6.521   8.539  0.0804 -0.2015 -0.6690
  361MOL0     C49712   9.368   6.402   8.539  0.6752  1.0738 -0.6511
  361MOL0     C49713   9.352   6.317   8.646 -0.7318 -0.3501 -0.1677
  361MOL0     C49714   9.408   6.189   8.657  0.1785 -0.0629  0.3388
  361MOL0     C49715   9.494   6.136   8.556 -0.3456  1.2155 -0.6143
  361MOL0     O49716   9.548   6.013   8.567  1.6001  0.3215  0.3450
  361MOL0     C49717   9.440   5.907   8.575  0.0297  0.4194 -0.1454
  361MOL0     C49718   9.471   5.758   8.606  0.0200 -0.7267 -0.6340
  361MOL0     C49719   9.568   5.688   8.508 -0.4566  0.5320  1.1265
  361MOL0     C49720   9.715   5.739   8.547  0.1216  0.4097 -0.0899
  361MOL0     C49721   9.820   5.649   8.484  0.5467  0.9146  0.0551
  361MOL0     C49722   9.836   5.687   8.337 -0.3592  0.4954 -0.6506
  361MOL0     C49723   9.923   5.583   8.265 -0.6945  0.5626 -0.9089
  361MOL0     C49724   9.874   5.582   8.122  0.0043 -0.4683  0.9389
  361MOL0    Cl49725  10.014   5.517   8.022  0.3050 -0.1083  0.0528
  361MOL0     C49726   9.492   6.209   8.433 -0.5223 -0.4568  0.3736
  361MOL0     C49727   9.431   6.335   8.430  0.7300 -0.4281  1.1563
  361MOL0     O49728   9.358   6.586   8.322  0.5290 -0.7231 -0.1392
  361MOL0     C49729   9.301   6.857   8.380 -0.3411  0.7539  0.8033
  361MOL0     C49730   9.309   6.989   8.409 -0.1835 -0.1891  0.3940
  361MOL0     N49731   8.833   7.523   8.793  0.4628  0.1869 -0.1151
  361MOL0     N49732   8.820   7.560   8.914  0.5486  0.0473  0.2848
  361MOL0     C49733   9.475   7.704   9.515 -0.4415  0.1601 -0.1590
  361MOL0     C49734   9.483   7.648   9.391  0.0428  0.2066 -0.1662
  361MOL0     C49735   9.449   7.518   8.980  0.7537  0.4011  0.0666
  361MOL0     C49736   9.565   7.547   8.913  0.7486  0.5067  0.7815
  361MOL0     C49737   9.613   7.464   8.803 -0.0030 -0.5824  0.3720
  361MOL0     C49738   9.543   7.356   8.749  0.1408 -0.3334 -0.2986
  361MOL0     O49739   9.608   7.285   8.647  0.5401 -1.0474  0.0824
  361MOL0     C49740   9.613   7.144   8.655 -0.9380  0.7835  0.4375
  361MOL0     C49741   9.670   7.088   8.521  0.4732  0.0979  0.9299
  361MOL0     C49742   9.666   6.937   8.515  0.2434 -0.7711 -0.0985
  361MOL0     C49743   9.733   6.879   8.393 -0.7865 -1.0963  0.7886
  361MOL0     C49744   9.643   6.897   8.271 -0.1946  0.3927  0.6881
  361MOL0     C49745   9.578   6.907   8.169 -1.2280  0.4886  0.3589
  361MOL0     C49746   9.423   7.320   8.822  0.5984  0.3519 -0.4893
  361MOL0     C49747   9.369   7.409   8.926 -0.4277  0.6320 -0.2780
  361MOL0     C49748   9.223   7.378   8.961  0.0430  0.1845  0.1165
  361MOL0     H49749   9.609   7.896   9.209 -0.5748 -2.5509 -1.9476
  361MOL0     H49750   9.571   8.016   9.450 -0.7932  0.0430  1.3147
  361MOL0     H49751   9.346   7.947   9.809 -0.9471  0.6884  0.3190
  361MOL0     H49752   9.313   7.804   9.709 -1.7686  0.6001 -3.6517
  361MOL0     H49753   9.195   8.047   9.704 -0.5559 -3.2007  0.8838
  361MOL0     H49754   9.307   8.069   9.571 -1.0155  0.4520  0.7359
  361MOL0     H49755   9.231   7.851   9.475 -3.0162 -1.6350 -2.4354
  361MOL0     H49756   9.114   7.836   9.610  5.6587 -2.3666  2.1831
  361MOL0     H49757   8.996   8.040   9.521 -1.1603 -1.5592 -0.0474
  361MOL0     H49758   9.116   8.038   9.379  2.1433  1.5201  1.5339
  361MOL0     H49759   8.882   7.938   9.332  0.3360 -1.0963 -1.5136
  361MOL0     H49760   8.903   7.817   9.457 -1.2255 -0.2115 -0.4993
  361MOL0     H49761   9.103   7.856   9.241 -1.4534  4.0692  0.7378
  361MOL0     H49762   9.058   7.703   9.326  0.8461  0.3150 -1.1393
  361MOL0     H49763   8.889   7.845   9.105  1.0609 -0.8315 -1.7739
  361MOL0     H49764   8.831   7.721   9.207  0.7206  0.9836  3.8222
  361MOL0     H49765   9.095   7.689   9.060  0.7093 -1.3149 -0.4902
  361MOL0     H49766   8.982   7.564   9.131 -1.0175 -0.9257 -2.6705
  361MOL0     H49767   9.110   7.685   8.822 -0.6336  1.5885  4.1322
  361MOL0     H49768   9.090   7.624   8.586  0.8829 -2.1628 -0.5006
  361MOL0     H49769   8.910   7.627   8.533 -1.2158 -0.8679  0.9570
  361MOL0     H49770   8.911   7.380   8.535  1.3233 -3.6156  1.3493
  361MOL0     H49771   9.026   7.448   8.422 -1.1461 -1.0414 -0.0055
  361MOL0     H49772   9.201   7.416   8.582 -0.8432  0.1775  0.8451
  361MOL0     H49773   9.097   7.319   8.690  2.9367 -0.2078  0.9090
  361MOL0     H49774   9.064   7.146   8.555 -3.0259  1.1923 -2.5183
  361MOL0     H49775   9.134   7.234   8.414 -0.5051  2.3536  1.1050
  361MOL0     H49776   9.292   6.980   8.744 -1.8442 -3.4895  1.6180
  361MOL0     H49777   9.437   6.682   8.749 -0.2255 -1.1952 -0.0626
  361MOL0     H49778   9.267   6.634   8.758  3.9165 -1.8600  2.9298
  361MOL0     H49779   9.325   6.787   8.830  1.6846  0.5165  0.2714
  361MOL0     H49780   9.280   6.351   8.720 -3.7071 -2.4259 -1.8549
  361MOL0     H49781   9.380   6.139   8.749  0.9726  0.6500  0.9832
  361MOL0     H49782   9.353   5.939   8.634 -0.8714 -0.5122 -0.9252
  361MOL0     H49783   9.405   5.898   8.472 -0.8030 -0.8389  0.2203
  361MOL0     H49784   9.500   5.754   8.712  0.3252  0.7537 -0.6444
  361MOL0     H49785   9.374   5.706   8.606 -2.7203  3.7915  0.0202
  361MOL0     H49786   9.555   5.701   8.400  6.8799  2.0883 -0.0773
  361MOL0     H49787   9.573   5.580   8.524  2.8523  0.5665  1.0222
  361MOL0     H49788   9.714   5.737   8.657 -3.2731  3.0327  0.0955
  361MOL0     H49789   9.723   5.844   8.518 -1.6010  1.2966  2.2900
  361MOL0     H49790   9.918   5.665   8.530  1.0243  0.7707 -0.8771
  361MOL0     H49791   9.793   5.543   8.486 -2.1018  1.4228 -2.3602
  361MOL0     H49792   9.897   5.778   8.332  2.6834 -1.4459 -2.0737
  361MOL0     H49793   9.743   5.723   8.292 -0.9556  0.3281  0.4219
  361MOL0     H49794   9.908   5.481   8.302 -0.7644  1.4865  1.7688
  361MOL0     H49795  10.024   5.622   8.278 -1.1919  1.0444  2.2184
  361MOL0     H49796   9.847   5.686   8.099  2.7937  0.5956  2.0639
  361MOL0     H49797   9.783   5.524   8.111 -0.4080  0.3242 -0.0313
  361MOL0     H49798   9.545   6.170   8.346  0.2906  2.3141 -0.4562
  361MOL0     H49799   9.441   6.387   8.335 -2.1798 -1.0473  0.3879
  361MOL0     H49800   9.288   6.822   8.278  0.6726  2.9640 -0.1463
  361MOL0     H49801   9.292   7.058   8.327 -4.4456 -1.9648 -0.4323
  361MOL0     H49802   9.418   7.637   9.578  0.4004 -1.9239 -1.5153
  361MOL0     H49803   9.428   7.554   9.384 -0.9939  0.8096 -0.3232
  361MOL0     H49804   9.621   7.635   8.942  0.0791  2.2487 -2.7590
  361MOL0     H49805   9.715   7.496   8.786  0.5134 -0.9972  2.4272
  361MOL0     H49806   9.671   7.107   8.740  1.3215  0.5198 -1.1381
  361MOL0     H49807   9.514   7.096   8.663 -0.5692  0.3336  4.4855
  361MOL0     H49808   9.767   7.128   8.491  1.3537 -2.6061 -0.1357
  361MOL0     H49809   9.595   7.106   8.443 -1.3018  0.2917  2.6078
  361MOL0     H49810   9.728   6.892   8.594  0.8117 -0.6420 -0.4607
  361MOL0     H49811   9.570   6.892   8.540  0.4582 -0.3628  1.6044
  361MOL0     H49812   9.758   6.773   8.405  0.8894 -1.1167 -1.9187
  361MOL0     H49813   9.830   6.929   8.378 -1.0876 -0.6928  0.1197
  361MOL0     H49814   9.529   6.931   8.077  1.5930  1.5656 -0.9730
  361MOL0     H49815   9.373   7.234   8.780  0.7975 -0.3097  0.5908
  361MOL0     H49816   9.228   7.300   9.037 -0.2895  0.6809  0.6573
  361MOL0     H49817   9.168   7.463   9.003 -1.0137 -1.4436  2.2965
  361MOL0     H49818   9.167   7.329   8.880  4.1209 -0.0656 -2.8519
  362MOL0     O49819  10.508  11.530   8.704  0.2255  0.6698  0.7219
  362MOL0     C49820  10.399  11.483   8.714  0.4326  0.2555 -1.0043
  362MOL0     O49821  10.310  11.518   8.807  0.3339 -0.1860  0.7617
  362MOL0     C49822  10.333  11.567   8.935  0.5626 -0.7719  0.7361
  362MOL0     C49823  10.248  11.662   8.991  0.3009 -0.0563  0.2749
  362MOL0     C49824  10.276  11.706   9.123  0.2624  0.5506 -0.0654
  362MOL0     C49825  10.384  11.665   9.188 -0.9492  0.3954  0.4329
  362MOL0     O49826  10.409  11.690   9.318 -0.4807 -0.0186  0.4024
  362MOL0     C49827  10.479  11.823   9.339  0.1108  0.9240  0.8620
  362MOL0     C49828  10.379  11.941   9.348  0.1098 -0.5415 -0.5649
  362MOL0     C49829  10.274  11.929   9.463  0.6326 -0.0494 -0.5723
  362MOL0     C49830  10.200  12.055   9.469  0.9376  0.6875  1.4053
  362MOL0     C49831  10.103  12.058   9.593  0.3077  0.3109  0.2069
  362MOL0     C49832  10.005  12.174   9.603  0.0004  1.8037 -0.4592
  362MOL0     C49833  10.082  12.298   9.630  0.3107  0.8314 -0.0180
  362MOL0     C49834  10.120  12.328   9.769 -0.5751  0.5340 -0.1745
  362MOL0     N49835  10.220  12.438   9.782  0.1157 -0.2594 -0.1782
  362MOL0     C49836  10.216  12.549   9.712 -0.2642 -0.1749 -0.3258
  362MOL0     C49837  10.288  12.641   9.785  0.2280 -0.5253  0.2821
  362MOL0     C49838  10.268  12.786   9.765  0.3450  0.2431  1.1720
  362MOL0     C49839  10.361  12.882   9.842 -0.0396 -0.0866  0.3046
  362MOL0     C49840  10.510  12.868   9.809 -0.2498  0.6614 -0.1162
  362MOL0     C49841  10.613  12.928   9.914 -0.1777  0.5384  0.2224
  362MOL0     O49842  10.634  13.066   9.892 -0.4612  1.0089  0.7120
  362MOL0     C49843  10.756  13.109   9.861 -0.2097 -0.6510  1.2810
  362MOL0     C49844  10.867  13.091   9.950 -0.0538  0.6988  0.4601
  362MOL0     C49845  10.997  13.108   9.910 -0.4925 -0.2170 -0.5879
  362MOL0     C49846  11.113  13.072  10.011  0.8961 -0.1835  0.3550
  362MOL0     C49847  11.019  13.176   9.787  0.9504  0.6931 -0.4217
  362MOL0     C49848  11.157  13.206   9.750  0.5152 -0.1648  0.5491
  362MOL0     O49849  11.182  13.344   9.726  0.1635 -0.1982 -0.5447
  362MOL0     C49850  11.305  13.405   9.698  1.0834 -0.2586 -0.6944
  362MOL0     C49851  11.425  13.333   9.677 -0.3945  0.8214 -0.0377
  362MOL0     C49852  11.539  13.411   9.638 -0.5195 -0.1001 -0.4770
  362MOL0     C49853  11.540  13.551   9.645 -0.2820 -0.2062  0.1588
  362MOL0     O49854  11.660  13.614   9.615  0.4959 -0.7135  0.3607
  362MOL0     C49855  11.680  13.753   9.621  0.4747 -0.7828 -0.4637
  362MOL0     C49856  11.829  13.780   9.642 -0.6846 -0.4700 -0.6441
  362MOL0     C49857  11.857  13.919   9.707 -0.0582 -0.0829 -0.4669
  362MOL0     C49858  11.783  14.035   9.635 -0.3936 -0.9871 -0.0324
  362MOL0     C49859  11.824  14.175   9.672  0.5379 -0.5178 -0.8033
  362MOL0     C49860  11.736  14.222   9.793  0.5374 -0.5040 -0.7212
  362MOL0     C49861  11.759  14.371   9.853 -0.1618  0.6444 -0.5850
  362MOL0     C49862  11.707  14.397   9.996  0.1360 -0.0594  0.0213
  362MOL0    Cl49863  11.528  14.365  10.021 -0.2747 -0.3608 -0.2660
  362MOL0     C49864  11.413  13.613   9.661  0.9004 -0.1113 -0.4426
  362MOL0     C49865  11.303  13.544   9.691  0.1957 -0.2825  0.3304
  362MOL0     O49866  11.237  13.111   9.757 -0.1188  0.4843 -0.1409
  362MOL0     C49867  10.912  13.214   9.707  0.2637 -0.3284 -0.1021
  362MOL0     C49868  10.783  13.166   9.739 -0.2698  0.2368  0.5154
  362MOL0     N49869  10.344  12.583   9.900  0.0701  0.3433  0.2907
  362MOL0     N49870  10.292  12.463   9.900  0.4152  0.3775 -0.3493
  362MOL0     C49871  10.479  11.581   9.126  0.2666 -0.2943 -0.1414
  362MOL0     C49872  10.446  11.526   9.006 -0.2892  0.1077 -0.8211
  362MOL0     C49873  10.353  11.362   8.638 -0.6707 -0.6354  0.1972
  362MOL0     C49874  10.222  11.354   8.605  0.5755  0.5744 -0.7009
  362MOL0     C49875  10.160  11.265   8.519 -0.3734 -0.0332  1.1429
  362MOL0     C49876  10.247  11.187   8.445  0.9155 -0.2833  0.6208
  362MOL0     O49877  10.185  11.102   8.350 -0.0718  0.4116  0.2132
  362MOL0     C49878  10.250  11.084   8.224  0.2212 -1.2909  0.6036
  362MOL0     C49879  10.251  11.226   8.147  0.6896  0.0727  0.5761
  362MOL0     C49880  10.339  11.216   8.037 -0.2446  0.3864 -0.3780
  362MOL0     C49881  10.484  11.260   8.063 -0.3847 -0.2605 -0.4474
  362MOL0     C49882  10.539  11.338   7.953  0.4259  0.7211  0.2599
  362MOL0     C49883  10.614  11.373   7.869 -0.1276 -0.0382 -0.5183
  362MOL0     C49884  10.378  11.199   8.462 -0.2575 -0.6689 -0.8946
  362MOL0     C49885  10.435  11.285   8.561  0.3060  0.7171 -0.7841
  362MOL0     C49886  10.582  11.271   8.577  0.6414 -0.5539  0.1991
  362MOL0     H49887  10.175  11.707   8.924  0.4841 -1.2053 -0.7384
  362MOL0     H49888  10.207  11.773   9.174 -1.0635  1.2587 -2.6282
  362MOL0     H49889  10.560  11.841   9.267  0.3554  0.4669  1.0219
  362MOL0     H49890  10.532  11.818   9.434 -0.0920  1.9764  1.0487
  362MOL0     H49891  10.437  12.032   9.361  0.8027 -0.7945 -1.7839
  362MOL0     H49892  10.325  11.942   9.253  2.6605 -1.7838 -2.1279
  362MOL0     H49893  10.214  11.837   9.460  1.1175 -0.3589 -0.8195
  362MOL0     H49894  10.335  11.929   9.554  0.7829 -0.3872 -0.6715
  362MOL0     H49895  10.254  12.150   9.465  1.9959  0.0732  0.5751
  362MOL0     H49896  10.131  12.070   9.386 -1.9626  3.5865  4.0627
  362MOL0     H49897  10.169  12.055   9.680  1.4030  1.9386 -0.5315
  362MOL0     H49898  10.038  11.970   9.597  0.0635  0.5139  0.8381
  362MOL0     H49899   9.954  12.187   9.507  0.4292 -3.0425 -1.6505
  362MOL0     H49900   9.942  12.154   9.689  0.9291 -1.1572 -0.3353
  362MOL0     H49901  10.008  12.374   9.603 -0.0017  1.1892  1.6856
  362MOL0     H49902  10.161  12.312   9.556 -1.6264  1.2076 -2.1371
  362MOL0     H49903  10.030  12.331   9.832 -1.6644  3.0105 -1.6825
  362MOL0     H49904  10.169  12.240   9.811 -2.7887 -0.4078  0.6442
  362MOL0     H49905  10.158  12.579   9.626 -0.1405  0.6534 -0.1244
  362MOL0     H49906  10.162  12.806   9.778  0.6139  2.6022  0.2236
  362MOL0     H49907  10.294  12.794   9.659  1.3710  0.9930  1.4566
  362MOL0     H49908  10.324  12.980   9.811 -1.6616 -0.8806 -0.4067
  362MOL0     H49909  10.353  12.880   9.951  1.4377  3.1916  0.6187
  362MOL0     H49910  10.537  12.762   9.815 -1.1901  0.4581  1.2822
  362MOL0     H49911  10.526  12.921   9.715  0.1489  1.6530  0.4942
  362MOL0     H49912  10.585  12.896  10.015 -0.5043  0.1690  0.0169
  362MOL0     H49913  10.710  12.877   9.914  0.9860  2.5355  2.5592
  362MOL0     H49914  10.847  13.051  10.049  1.1794 -2.1892 -0.3609
  362MOL0     H49915  11.098  13.102  10.115 -0.4693  0.5552 -0.0401
  362MOL0     H49916  11.216  13.105   9.992  2.9231 -4.3051  2.6433
  362MOL0     H49917  11.122  12.963  10.004  2.1476 -0.1231  0.6526
  362MOL0     H49918  11.439  13.227   9.694 -1.0065  0.4360 -1.8030
  362MOL0     H49919  11.635  13.360   9.634 -0.9757 -1.0031  0.0365
  362MOL0     H49920  11.640  13.804   9.533  1.4724  0.4919 -0.2101
  362MOL0     H49921  11.633  13.786   9.714  1.3096 -1.4342  0.2052
  362MOL0     H49922  11.867  13.698   9.703 -6.7470 -1.3163  2.8402
  362MOL0     H49923  11.861  13.769   9.538 -4.8176  0.3675 -2.2355
  362MOL0     H49924  11.964  13.936   9.693 -0.1047 -1.7340 -3.8185
  362MOL0     H49925  11.831  13.924   9.813 -0.7082 -1.4505 -0.5401
  362MOL0     H49926  11.674  14.021   9.642 -1.0928  3.7667  2.2771
  362MOL0     H49927  11.795  14.023   9.527 -0.3047 -1.7582  0.0591
  362MOL0     H49928  11.928  14.192   9.701 -0.0651  0.0892  1.1601
  362MOL0     H49929  11.797  14.240   9.589  0.6942  0.6599  0.0476
  362MOL0     H49930  11.747  14.146   9.871  0.7425 -0.1036 -0.3572
  362MOL0     H49931  11.627  14.221   9.784  0.3266  2.4227  0.5534
  362MOL0     H49932  11.718  14.445   9.784  2.1431  2.4681 -0.1429
  362MOL0     H49933  11.865  14.396   9.862 -0.2029  0.9099 -0.8154
  362MOL0     H49934  11.726  14.500  10.025 -0.7988 -0.8980  4.3277
  362MOL0     H49935  11.764  14.337  10.068 -0.7064  0.5949  1.2680
  362MOL0     H49936  11.409  13.721   9.648  2.1252  0.1292  0.7925
  362MOL0     H49937  11.204  13.580   9.718 -0.3109 -1.9399  0.8036
  362MOL0     H49938  10.927  13.271   9.616 -0.4778  0.9294  0.5255
  362MOL0     H49939  10.710  13.167   9.659 -1.0721  3.8104  1.1266
  362MOL0     H49940  10.564  11.557   9.188  0.9207  1.3354 -0.3597
  362MOL0     H49941  10.508  11.446   8.967  0.2266 -1.2727  2.5291
  362MOL0     H49942  10.148  11.408   8.664  0.5192  1.4035 -1.5042
  362MOL0     H49943  10.052  11.258   8.509 -0.4332 -3.3648  2.8560
  362MOL0     H49944  10.353  11.050   8.239  1.6897  2.0211 -0.8626
  362MOL0     H49945  10.208  10.998   8.171 -0.2365 -1.4540  1.2266
  362MOL0     H49946  10.278  11.306   8.215 -0.1582 -0.4371  1.5564
  362MOL0     H49947  10.147  11.245   8.119  1.2468  1.1196 -0.9106
  362MOL0     H49948  10.329  11.119   7.986  2.0444  1.5741 -3.3745
  362MOL0     H49949  10.299  11.289   7.966 -2.2200  4.2132  4.0966
  362MOL0     H49950  10.542  11.171   8.089 -2.0814 -1.2961 -0.0645
  362MOL0     H49951  10.492  11.322   8.153  0.6238  0.5609 -1.0843
  362MOL0     H49952  10.685  11.411   7.798  1.2096  2.4517  1.9643
  362MOL0     H49953  10.449  11.151   8.396  0.6492  2.5418 -2.4559
  362MOL0     H49954  10.607  11.315   8.674 -1.1437  2.3914 -0.5231
  362MOL0     H49955  10.620  11.169   8.571 -0.8144 -1.0890 -0.1306
  362MOL0     H49956  10.622  11.326   8.490  0.7254 -1.2203 -0.1864
  363MOL0     O49957   4.576   5.052   4.869 -0.6211  0.8723 -0.1380
  363MOL0     C49958   4.507   5.061   4.769 -0.4642  0.0762  0.2291
  363MOL0     O49959   4.475   4.959   4.684 -0.1134  0.0733  0.7826
  363MOL0     C49960   4.499   4.834   4.722 -0.6894  0.0564  0.2483
  363MOL0     C49961   4.411   4.730   4.675  0.7250 -0.1140  0.1388
  363MOL0     C49962   4.438   4.600   4.690  1.0196  0.4245 -0.1350
  363MOL0     C49963   4.544   4.561   4.784  0.6748  0.1208  0.5720
  363MOL0     O49964   4.571   4.440   4.838 -0.0998 -0.0572 -0.4057
  363MOL0     C49965   4.486   4.330   4.790 -0.0083  0.5140  0.4434
  363MOL0     C49966   4.354   4.322   4.861  0.6077 -0.0654  0.2600
  363MOL0     C49967   4.259   4.199   4.840 -0.1431 -0.0936 -0.8996
  363MOL0     C49968   4.270   4.136   4.703  0.3921  0.0557  0.0547
  363MOL0     C49969   4.170   4.018   4.687  0.2134 -0.3865  1.0771
  363MOL0     C49970   4.027   4.078   4.664 -0.0207  0.2668  0.5856
  363MOL0     C49971   3.913   3.974   4.670 -0.4014 -0.2764 -0.1615
  363MOL0     C49972   3.942   3.861   4.574 -0.5068 -0.3554 -0.5256
  363MOL0     N49973   3.933   3.911   4.438  0.2417 -0.5269 -0.8145
  363MOL0     C49974   4.037   3.897   4.347 -0.1131 -0.2325 -0.0520
  363MOL0     C49975   3.963   3.937   4.230  0.9626 -0.0670 -0.0817
  363MOL0     C49976   4.030   3.965   4.095  0.6580  0.8077  0.0845
  363MOL0     C49977   3.994   3.840   4.003 -0.0233 -0.6889  0.1161
  363MOL0     C49978   3.853   3.834   3.945 -0.2386  0.6367 -0.1829
  363MOL0     C49979   3.835   3.945   3.849  0.1387  0.2646  0.6386
  363MOL0     O49980   3.723   3.926   3.764 -0.2560  0.4121 -0.2372
  363MOL0     C49981   3.668   4.039   3.704  0.4357 -0.9441  0.4608
  363MOL0     C49982   3.720   4.168   3.697  0.1130 -0.4439 -1.1893
  363MOL0     C49983   3.646   4.275   3.647 -0.3430  0.4634  0.1177
  363MOL0     C49984   3.720   4.402   3.632  0.3528 -0.1266 -0.7137
  363MOL0     C49985   3.527   4.249   3.581  0.3672 -0.5059  0.5291
  363MOL0     C49986   3.445   4.355   3.504  0.2807 -0.2768  0.3941
  363MOL0     O49987   3.328   4.302   3.451  0.4477  0.4062 -0.1195
  363MOL0     C49988   3.247   4.378   3.367 -0.1917  0.3381 -0.1628
  363MOL0     C49989   3.296   4.479   3.274 -0.8516  0.3631 -0.8267
  363MOL0     C49990   3.215   4.575   3.218  0.2383 -0.4737  0.8453
  363MOL0     C49991   3.071   4.560   3.230  0.0193  0.2391 -0.2692
  363MOL0     O49992   2.969   4.618   3.157  0.6658 -0.4234 -0.7762
  363MOL0     C49993   2.985   4.744   3.095  0.3670  0.3024  0.3478
  363MOL0     C49994   2.896   4.737   2.979  1.0529 -0.6519 -0.1198
  363MOL0     C49995   2.924   4.632   2.862  0.8425  0.2001  0.2468
  363MOL0     C49996   2.804   4.531   2.855  0.2014 -0.2060  0.9244
  363MOL0     C49997   2.817   4.434   2.739  0.3864 -0.0502  0.6297
  363MOL0     C49998   2.702   4.339   2.730  0.8025  0.8249 -0.0461
  363MOL0     C49999   2.737   4.212   2.655  0.0547  0.5510  0.0052
  363MOL0     C50000   2.758   4.228   2.506 -0.3539 -0.0345 -0.0956
  363MOL0    Cl50001   2.772   4.067   2.429  0.1769 -0.1429  0.0171
  363MOL0     C50002   3.025   4.469   3.321 -0.0591 -0.8411  0.2502
  363MOL0     C50003   3.105   4.375   3.381 -0.0952  0.1728 -0.0376
  363MOL0     O50004   3.490   4.457   3.469  0.4353 -1.0076 -0.3648
  363MOL0     C50005   3.473   4.120   3.596 -0.2518  0.6015 -0.1221
  363MOL0     C50006   3.539   4.026   3.660 -0.4422  0.1132 -0.1888
  363MOL0     N50007   3.828   3.959   4.263  0.2516  0.2582  0.5457
  363MOL0     N50008   3.812   3.951   4.389 -0.9974 -0.0210  0.0135
  363MOL0     C50009   4.634   4.658   4.825  1.0616 -1.0329  0.6495
  363MOL0     C50010   4.610   4.795   4.801 -0.2854 -1.1153  0.7635
  363MOL0     C50011   4.470   5.204   4.722  0.4066  1.5985  0.7775
  363MOL0     C50012   4.386   5.210   4.606  0.1932 -0.8722  0.9340
  363MOL0     C50013   4.326   5.334   4.575  0.3679 -0.0604 -0.0532
  363MOL0     C50014   4.347   5.448   4.645 -0.0314  0.0703  0.1174
  363MOL0     O50015   4.291   5.570   4.602  0.8244  0.0582 -0.2949
  363MOL0     C50016   4.185   5.622   4.679  0.4900  0.0434 -0.0681
  363MOL0     C50017   4.214   5.766   4.707 -0.0409 -0.4836  0.1329
  363MOL0     C50018   4.331   5.790   4.786  0.0692 -0.6527  0.2636
  363MOL0     C50019   4.300   5.760   4.934 -0.5990 -0.3529 -0.6604
  363MOL0     C50020   4.343   5.867   5.026 -0.4756  0.4039 -0.4544
  363MOL0     C50021   4.382   5.948   5.114  0.5873 -0.0663 -0.3515
  363MOL0     C50022   4.434   5.445   4.756 -0.1879 -1.1312  0.0329
  363MOL0     C50023   4.495   5.326   4.797  0.1588 -0.1999 -0.1951
  363MOL0     C50024   4.599   5.336   4.910  0.2608  1.2528  0.0676
  363MOL0     H50025   4.318   4.761   4.628  2.1902 -1.3272 -4.0526
  363MOL0     H50026   4.363   4.532   4.650 -0.4728  3.3296 -2.6540
  363MOL0     H50027   4.547   4.241   4.808  0.5450  0.7621 -0.1527
  363MOL0     H50028   4.474   4.320   4.682  2.4505 -3.2039  0.3443
  363MOL0     H50029   4.374   4.328   4.969 -0.0271  0.4678  0.3581
  363MOL0     H50030   4.305   4.415   4.830  1.5340  1.8311  3.8906
  363MOL0     H50031   4.265   4.119   4.914 -0.0969 -0.7372 -1.5864
  363MOL0     H50032   4.157   4.236   4.856 -0.0814 -1.3749  4.2730
  363MOL0     H50033   4.245   4.217   4.633  1.6969  1.6316  1.3453
  363MOL0     H50034   4.369   4.094   4.686 -0.7945 -1.9172 -3.0149
  363MOL0     H50035   4.166   3.959   4.779 -0.3791  0.6367  1.7262
  363MOL0     H50036   4.196   3.969   4.593 -0.0302 -0.7757  1.2107
  363MOL0     H50037   3.990   4.156   4.731 -4.6372 -0.4255 -0.7507
  363MOL0     H50038   4.012   4.125   4.566  1.1107 -1.3871 -0.4487
  363MOL0     H50039   3.824   4.036   4.660 -1.3633 -1.6836 -0.5354
  363MOL0     H50040   3.913   3.926   4.769 -3.4045 -0.2930 -0.0883
  363MOL0     H50041   4.041   3.815   4.576 -0.4761 -0.3057 -0.8666
  363MOL0     H50042   3.860   3.789   4.582 -2.3344  1.5261 -1.2410
  363MOL0     H50043   4.141   3.872   4.363 -0.5539 -1.6427  0.8631
  363MOL0     H50044   4.139   3.959   4.104  0.5710  0.1497  0.7842
  363MOL0     H50045   4.004   4.060   4.046  0.1356  0.1056 -1.0573
  363MOL0     H50046   4.063   3.838   3.918 -2.6952 -1.3559 -2.2141
  363MOL0     H50047   4.030   3.751   4.057  0.3450  0.3606  1.6682
  363MOL0     H50048   3.850   3.740   3.889  0.0763  0.8747 -0.6088
  363MOL0     H50049   3.773   3.837   4.020 -0.5683  3.3202 -0.5503
  363MOL0     H50050   3.817   4.037   3.905  0.0159  1.2127 -0.9024
  363MOL0     H50051   3.924   3.965   3.788 -1.2046 -0.5212 -1.6955
  363MOL0     H50052   3.818   4.178   3.743 -0.9591 -2.6894  1.8972
  363MOL0     H50053   3.655   4.489   3.647 -1.5864 -1.5456 -0.4579
  363MOL0     H50054   3.776   4.403   3.538  3.2118  0.8655  0.8558
  363MOL0     H50055   3.796   4.413   3.710 -1.4287  3.7012  0.6898
  363MOL0     H50056   3.402   4.487   3.252 -1.1189  0.7156 -2.0455
  363MOL0     H50057   3.262   4.656   3.163 -0.1678  0.7850  2.2892
  363MOL0     H50058   2.956   4.829   3.158 -0.8693  0.3012 -0.1855
  363MOL0     H50059   3.091   4.753   3.069  0.6114 -1.5686  0.5760
  363MOL0     H50060   2.802   4.705   3.024  2.0078 -1.1122  1.6344
  363MOL0     H50061   2.882   4.839   2.943 -4.0100 -1.6454 -1.7639
  363MOL0     H50062   3.009   4.572   2.892 -1.9339 -4.2180  0.1730
  363MOL0     H50063   2.922   4.688   2.767 -3.0988 -0.7400 -0.4102
  363MOL0     H50064   2.716   4.595   2.843 -0.2138 -1.2389 -3.3221
  363MOL0     H50065   2.793   4.482   2.952 -0.6799 -0.3297  0.7721
  363MOL0     H50066   2.810   4.490   2.645  2.7188  2.4000  1.7515
  363MOL0     H50067   2.915   4.385   2.750  0.2166 -0.4021  0.5813
  363MOL0     H50068   2.620   4.399   2.689 -0.1163  0.8275  1.6745
  363MOL0     H50069   2.677   4.306   2.832  2.3022 -0.0947  0.0476
  363MOL0     H50070   2.648   4.149   2.659  0.7494 -0.4969 -0.6364
  363MOL0     H50071   2.824   4.161   2.698 -0.0433 -0.4077 -0.9131
  363MOL0     H50072   2.848   4.286   2.484  0.8807 -0.2988  3.6296
  363MOL0     H50073   2.666   4.277   2.474 -0.3466  1.0262  1.4315
  363MOL0     H50074   2.918   4.480   3.333  0.0383  2.3920 -0.8761
  363MOL0     H50075   3.063   4.297   3.443 -1.2285 -1.2128 -2.4271
  363MOL0     H50076   3.374   4.093   3.560  0.5344 -1.4087 -0.9372
  363MOL0     H50077   3.498   3.931   3.694 -2.1072  1.7689  2.9032
  363MOL0     H50078   4.719   4.617   4.880  2.0570  0.7680  0.5300
  363MOL0     H50079   4.689   4.859   4.839 -1.3368  0.7272 -0.0359
  363MOL0     H50080   4.363   5.118   4.554 -1.1868 -0.9296  1.6009
  363MOL0     H50081   4.278   5.350   4.479  0.7980 -0.6641 -0.3777
  363MOL0     H50082   4.093   5.614   4.621  0.5377  3.7243 -0.8800
  363MOL0     H50083   4.171   5.577   4.778  1.3122  1.9972  0.9787
  363MOL0     H50084   4.135   5.820   4.758  1.0640  0.4854  0.8726
  363MOL0     H50085   4.233   5.802   4.605 -0.2965 -2.1319 -0.5368
  363MOL0     H50086   4.415   5.731   4.748 -1.2523 -2.4137 -0.0526
  363MOL0     H50087   4.358   5.896   4.781 -2.6368  0.0681 -1.1181
  363MOL0     H50088   4.368   5.679   4.965  1.6176  2.8645  4.0988
  363MOL0     H50089   4.196   5.729   4.940 -2.1944  4.2869 -0.8737
  363MOL0     H50090   4.395   6.019   5.192  1.6236 -1.7948  1.1271
  363MOL0     H50091   4.443   5.534   4.818  0.3398 -1.7200  0.8225
  363MOL0     H50092   4.572   5.275   4.996  0.3175 -0.1449 -0.8666
  363MOL0     H50093   4.697   5.302   4.875  0.7912  1.1328  1.6185
  363MOL0     H50094   4.601   5.437   4.952 -1.7380  2.0614 -1.5920
  364MOL0     O50095   8.922   9.423   3.591 -0.4946 -0.1475 -0.3678
  364MOL0     C50096   8.860   9.346   3.520 -0.8231  0.1319  0.1824
  364MOL0     O50097   8.720   9.341   3.505 -0.2654  0.2116  0.0045
  364MOL0     C50098   8.647   9.433   3.587 -0.4026  0.3584 -0.0199
  364MOL0     C50099   8.640   9.409   3.724 -0.5596 -0.0995  0.1950
  364MOL0     C50100   8.559   9.490   3.807  0.3547 -0.9170  0.9382
  364MOL0     C50101   8.468   9.582   3.754  0.0224 -0.6775 -0.6276
  364MOL0     O50102   8.391   9.659   3.843  0.3663  0.4713  0.6091
  364MOL0     C50103   8.340   9.784   3.801  0.1979  0.1973  0.3683
  364MOL0     C50104   8.338   9.884   3.920 -0.6880 -0.8918 -0.5264
  364MOL0     C50105   8.287  10.027   3.864 -0.3123  0.9731 -0.0967
  364MOL0     C50106   8.295  10.135   3.973  0.2663 -0.7107 -0.6023
  364MOL0     C50107   8.243  10.274   3.931 -0.5457 -0.4137 -0.6425
  364MOL0     C50108   8.266  10.374   4.053 -0.1374 -0.7271 -0.0923
  364MOL0     C50109   8.152  10.479   4.083 -0.0917 -0.1196  0.0675
  364MOL0     C50110   8.128  10.579   3.965 -0.8877  0.3120  0.5717
  364MOL0     N50111   8.124  10.721   4.010 -0.6037 -0.0055  0.3505
  364MOL0     C50112   8.017  10.782   4.068 -0.1699 -0.1308 -0.7435
  364MOL0     C50113   8.076  10.899   4.118  0.2825 -0.2016  0.2034
  364MOL0     C50114   7.972  10.994   4.183 -0.2794  0.4903 -0.1541
  364MOL0     C50115   7.949  11.109   4.073 -0.0838  0.5394 -0.7608
  364MOL0     C50116   7.935  11.251   4.131 -0.3666 -0.5623  0.4250
  364MOL0     C50117   7.912  11.380   4.033 -0.1044  0.7224 -1.2418
  364MOL0     O50118   7.815  11.343   3.944  1.0102  0.0629  0.3838
  364MOL0     C50119   7.753  11.434   3.862 -0.7283  0.3044 -0.3432
  364MOL0     C50120   7.660  11.374   3.784  0.6496  1.0265  0.4360
  364MOL0     C50121   7.585  11.461   3.694 -0.3511  0.3791  0.6672
  364MOL0     C50122   7.481  11.386   3.622  0.2303 -0.3558 -0.0414
  364MOL0     C50123   7.602  11.596   3.689 -0.2248 -0.8424 -0.4582
  364MOL0     C50124   7.520  11.681   3.599  0.1298 -0.0436  0.0516
  364MOL0     O50125   7.458  11.777   3.667  0.1466  0.0369  0.0534
  364MOL0     C50126   7.384  11.861   3.594  0.5160  0.0256 -0.6854
  364MOL0     C50127   7.249  11.833   3.561  0.0523 -0.2211 -0.1518
  364MOL0     C50128   7.170  11.930   3.493 -0.0165  0.1529  0.7707
  364MOL0     C50129   7.225  12.052   3.447  0.1213 -0.2481  0.0303
  364MOL0     O50130   7.142  12.124   3.378 -0.1263 -0.2086  0.2683
  364MOL0     C50131   7.169  12.264   3.340 -0.3368  0.0324  0.4977
  364MOL0     C50132   7.051  12.355   3.336  0.0987 -0.3097  0.0148
  364MOL0     C50133   6.975  12.359   3.468  0.0744  0.3831  0.1252
  364MOL0     C50134   6.863  12.449   3.457  0.0054 -0.4564  0.1586
  364MOL0     C50135   6.794  12.456   3.595 -0.8607 -0.1502  0.7791
  364MOL0     C50136   6.682  12.562   3.586  0.4987 -0.1386  0.2772
  364MOL0     C50137   6.739  12.701   3.581  0.6410 -0.4434 -0.6028
  364MOL0     C50138   6.671  12.812   3.664  0.3087 -0.3364 -0.0319
  364MOL0    Cl50139   6.697  12.758   3.846  0.6898  0.3366 -0.0524
  364MOL0     C50140   7.358  12.072   3.472 -0.9825 -0.4753 -0.0477
  364MOL0     C50141   7.437  11.980   3.547  0.0168 -0.2634 -0.7896
  364MOL0     O50142   7.504  11.638   3.476  0.1889  0.0370 -0.2495
  364MOL0     C50143   7.709  11.657   3.766 -0.5055  0.4089  0.0450
  364MOL0     C50144   7.785  11.572   3.847  0.4183 -0.7830  0.7892
  364MOL0     N50145   8.210  10.916   4.088 -0.0112  0.0436  0.1810
  364MOL0     N50146   8.235  10.804   4.026 -0.4961  0.7261  0.0810
  364MOL0     C50147   8.464   9.593   3.613 -0.0850 -1.2612  0.2759
  364MOL0     C50148   8.557   9.520   3.530 -0.6292 -0.3456 -0.4152
  364MOL0     C50149   8.931   9.243   3.441 -0.0695  1.0871 -1.1318
  364MOL0     C50150   8.862   9.184   3.336  0.0219  0.5295  0.1264
  364MOL0     C50151   8.917   9.088   3.253 -0.4884  0.0301 -0.7137
  364MOL0     C50152   9.050   9.044   3.277 -0.0737  0.2850 -0.6542
  364MOL0     O50153   9.103   8.939   3.201 -0.4195  0.0659 -0.1609
  364MOL0     C50154   9.215   8.954   3.133 -0.2380  0.3180  0.4258
  364MOL0     C50155   9.180   8.990   2.989  0.0679  0.6181  0.1537
  364MOL0     C50156   9.164   8.861   2.908  1.1270 -0.0895  1.0711
  364MOL0     C50157   9.086   8.895   2.774 -0.2704  1.0480 -0.6504
  364MOL0     C50158   9.015   8.778   2.732 -0.4063  0.3888  0.5282
  364MOL0     C50159   8.960   8.672   2.691  0.3291  0.4627 -0.1254
  364MOL0     C50160   9.130   9.105   3.381  0.4955 -0.1590 -0.6721
  364MOL0     C50161   9.076   9.207   3.467 -0.6049 -1.0721 -0.1437
  364MOL0     C50162   9.170   9.261   3.565  0.7785  0.0588 -0.8784
  364MOL0     H50163   8.701   9.332   3.769  1.4161  0.2547 -1.7203
  364MOL0     H50164   8.558   9.489   3.916  0.0219 -0.5494  0.9429
  364MOL0     H50165   8.244   9.781   3.748  1.4634 -3.3275 -2.1786
  364MOL0     H50166   8.416   9.821   3.731  2.5746  2.1310  3.7142
  364MOL0     H50167   8.269   9.849   3.998  0.0032 -0.2066  0.4233
  364MOL0     H50168   8.438   9.898   3.963  1.3547  0.2821 -5.0668
  364MOL0     H50169   8.360  10.051   3.786  0.5926 -2.1499 -0.3576
  364MOL0     H50170   8.189  10.013   3.817 -0.3643 -1.1314  0.5434
  364MOL0     H50171   8.242  10.102   4.062  1.4292 -0.0565  0.3571
  364MOL0     H50172   8.401  10.149   3.998  0.0203 -0.3390  0.2527
  364MOL0     H50173   8.138  10.266   3.901 -0.2133 -1.1727 -1.6830
  364MOL0     H50174   8.313  10.292   3.849  0.2231 -1.9278 -0.3508
  364MOL0     H50175   8.258  10.314   4.144 -1.9267 -0.5633 -0.1158
  364MOL0     H50176   8.364  10.421   4.038 -0.5604 -0.3806 -2.0025
  364MOL0     H50177   8.185  10.540   4.167  3.7884 -0.7331 -0.8496
  364MOL0     H50178   8.066  10.420   4.117  1.4592 -2.4604  0.1539
  364MOL0     H50179   8.206  10.575   3.888  1.2560  1.0453  2.5944
  364MOL0     H50180   8.032  10.563   3.915  1.0194  2.0505 -4.2509
  364MOL0     H50181   7.918  10.739   4.079 -0.4075 -0.2999 -2.9938
  364MOL0     H50182   8.017  11.045   4.268  0.3494 -1.0946  0.4989
  364MOL0     H50183   7.881  10.952   4.224  0.4955 -1.1908 -0.0904
  364MOL0     H50184   8.034  11.112   4.004 -0.6498 -0.6635 -1.5257
  364MOL0     H50185   7.851  11.088   4.030  0.4446 -0.1966 -1.6314
  364MOL0     H50186   7.853  11.253   4.203 -2.9752 -0.5000 -2.3306
  364MOL0     H50187   8.032  11.274   4.176  1.4783 -2.1452 -2.4263
  364MOL0     H50188   7.875  11.469   4.085 -0.6709  1.1117 -2.2993
  364MOL0     H50189   8.011  11.408   3.996  0.9272 -2.6546 -1.3605
  364MOL0     H50190   7.650  11.269   3.809  1.9469  1.5616  3.5593
  364MOL0     H50191   7.384  11.437   3.625  1.4624  2.3421 -1.9685
  364MOL0     H50192   7.476  11.287   3.668  1.7273  0.7031  2.6575
  364MOL0     H50193   7.508  11.384   3.516 -1.7954  0.1784 -0.6262
  364MOL0     H50194   7.200  11.749   3.609 -0.7543  1.1942  1.6396
  364MOL0     H50195   7.070  11.898   3.469  0.1720  2.1102 -3.5418
  364MOL0     H50196   7.236  12.314   3.411  1.0609  0.9711 -1.3840
  364MOL0     H50197   7.221  12.267   3.243 -1.9373  1.6602 -0.3747
  364MOL0     H50198   7.071  12.457   3.302 -5.3992  0.9109 -0.3995
  364MOL0     H50199   6.989  12.295   3.269  1.3126 -0.9498 -0.5552
  364MOL0     H50200   7.050  12.376   3.545  1.6536 -5.6266  0.3911
  364MOL0     H50201   6.943  12.256   3.487 -1.3118  1.1955  2.8279
  364MOL0     H50202   6.795  12.427   3.374  2.8343 -0.6347 -2.2541
  364MOL0     H50203   6.909  12.546   3.433 -0.1643 -0.4410 -0.1131
  364MOL0     H50204   6.762  12.355   3.621  0.2459 -0.3597  1.3758
  364MOL0     H50205   6.868  12.488   3.669 -0.5257  0.3573  0.2423
  364MOL0     H50206   6.631  12.552   3.682 -0.9199  1.5915 -0.2492
  364MOL0     H50207   6.620  12.543   3.498  0.3952  1.5558 -0.0445
  364MOL0     H50208   6.730  12.745   3.481  0.8442  3.2037  0.8188
  364MOL0     H50209   6.843  12.711   3.614  0.8096 -0.0941 -1.2225
  364MOL0     H50210   6.568  12.823   3.630  0.4268  2.2377  0.2397
  364MOL0     H50211   6.708  12.913   3.641 -6.1482  2.3957 -0.6626
  364MOL0     H50212   7.413  12.164   3.457  0.5536 -1.6820 -2.3376
  364MOL0     H50213   7.543  12.003   3.555 -0.2476  1.0706 -0.9224
  364MOL0     H50214   7.724  11.764   3.753  0.4631  0.2783 -0.0073
  364MOL0     H50215   7.861  11.632   3.896 -0.1315  0.5456  0.0801
  364MOL0     H50216   8.382   9.656   3.579 -0.6806 -1.2786  1.5947
  364MOL0     H50217   8.540   9.525   3.423 -0.0827 -3.1781 -0.6856
  364MOL0     H50218   8.762   9.215   3.308 -0.0961  0.0123 -0.0480
  364MOL0     H50219   8.854   9.037   3.180  1.4132 -2.6658 -0.6033
  364MOL0     H50220   9.286   9.024   3.178 -0.9973  2.0284 -0.9091
  364MOL0     H50221   9.269   8.859   3.137  1.7518  1.3817  0.5478
  364MOL0     H50222   9.267   9.042   2.950 -1.8262  4.5521  0.6513
  364MOL0     H50223   9.096   9.060   2.988 -2.0446 -1.7687 -0.1602
  364MOL0     H50224   9.265   8.832   2.879  2.1928  3.9361  0.0723
  364MOL0     H50225   9.118   8.772   2.951 -1.4054 -0.7448 -2.5364
  364MOL0     H50226   9.154   8.917   2.691 -0.9939  3.8698 -0.6010
  364MOL0     H50227   9.010   8.972   2.791  0.8408  1.5869  2.5843
  364MOL0     H50228   8.917   8.574   2.677  3.0898 -1.0102  0.9847
  364MOL0     H50229   9.227   9.061   3.405  0.3000 -0.0208  0.4464
  364MOL0     H50230   9.269   9.214   3.564 -0.3020 -2.4175  0.1448
  364MOL0     H50231   9.182   9.370   3.556  0.1466  0.1585 -0.5428
  364MOL0     H50232   9.139   9.255   3.670  2.5795 -2.4229 -0.3973
  365MOL0     O50233   9.888   9.697   1.903 -0.8724  0.4511 -0.1462
  365MOL0     C50234   9.935   9.607   1.836 -1.7334 -0.3698 -0.1464
  365MOL0     O50235   9.866   9.512   1.766 -0.1982 -0.6586 -0.5545
  365MOL0     C50236   9.731   9.516   1.790 -0.4733 -0.2742 -0.5808
  365MOL0     C50237   9.632   9.530   1.684  0.7454 -0.1732 -0.4470
  365MOL0     C50238   9.497   9.543   1.702  0.1512 -1.3847  0.5808
  365MOL0     C50239   9.447   9.559   1.834  0.3360  0.8034  0.0679
  365MOL0     O50240   9.315   9.581   1.856 -0.6049 -0.2208  0.5611
  365MOL0     C50241   9.223   9.500   1.777 -0.6183  0.4803 -0.9613
  365MOL0     C50242   9.075   9.515   1.841  0.4702 -1.1168  0.2767
  365MOL0     C50243   9.023   9.663   1.820  1.1510 -0.4849  0.2294
  365MOL0     C50244   8.871   9.672   1.846 -0.3884  0.8383  0.8443
  365MOL0     C50245   8.818   9.814   1.806  0.9823 -0.8399  0.5921
  365MOL0     C50246   8.814   9.850   1.651 -0.3224 -0.1054  0.8235
  365MOL0     C50247   8.786   9.999   1.604  0.2952 -0.2867  0.4622
  365MOL0     C50248   8.665  10.062   1.679  0.8001  0.1579  0.4253
  365MOL0     N50249   8.624  10.188   1.613 -0.1600  0.3690  0.7014
  365MOL0     C50250   8.637  10.314   1.672 -0.5626  0.1886  0.6378
  365MOL0     C50251   8.568  10.385   1.585  0.6838 -0.8638  0.2341
  365MOL0     C50252   8.558  10.533   1.593 -0.4604  0.6965 -0.5854
  365MOL0     C50253   8.595  10.603   1.461  0.2736  0.1215 -0.4750
  365MOL0     C50254   8.469  10.631   1.379 -0.1105  1.1104 -0.1678
  365MOL0     C50255   8.377  10.744   1.443 -0.2835  0.3478  0.4404
  365MOL0     O50256   8.458  10.869   1.459 -0.3629 -0.1406  0.2357
  365MOL0     C50257   8.401  10.977   1.524 -0.3269 -0.3295  0.0635
  365MOL0     C50258   8.264  10.988   1.558 -0.4729  1.4216  0.8732
  365MOL0     C50259   8.206  11.102   1.609 -0.4366  1.5141 -0.0041
  365MOL0     C50260   8.067  11.085   1.669  0.0954  0.5774  0.9936
  365MOL0     C50261   8.286  11.212   1.636  0.3934  0.2200  1.3806
  365MOL0     C50262   8.229  11.332   1.690 -1.1701 -0.7692  0.5038
  365MOL0     O50263   8.095  11.363   1.654 -0.9892 -0.0917  0.2865
  365MOL0     C50264   8.029  11.468   1.698  0.9014  0.4972 -0.3186
  365MOL0     C50265   7.885  11.463   1.699  1.1305  0.2803 -0.2705
  365MOL0     C50266   7.803  11.567   1.743  0.2073  0.2517  0.2321
  365MOL0     C50267   7.856  11.690   1.791 -0.9210 -0.8746 -0.0240
  365MOL0     O50268   7.777  11.793   1.836 -0.3355 -0.5396 -0.8609
  365MOL0     C50269   7.842  11.916   1.882 -0.1939 -0.6191  0.6381
  365MOL0     C50270   7.748  12.031   1.901 -0.4388 -0.2947 -0.1142
  365MOL0     C50271   7.630  12.005   1.996 -0.7222 -0.5730  0.2740
  365MOL0     C50272   7.654  12.015   2.142 -0.1321  0.6730  0.1557
  365MOL0     C50273   7.528  12.002   2.219 -0.5134 -0.5069 -0.8382
  365MOL0     C50274   7.448  12.137   2.218  1.0712 -0.5494 -0.9299
  365MOL0     C50275   7.321  12.126   2.302 -0.6829  0.3579 -0.7511
  365MOL0     C50276   7.359  12.067   2.441  0.5015  0.0385  0.8883
  365MOL0    Cl50277   7.485  12.159   2.519  0.6028  0.3440 -0.1984
  365MOL0     C50278   8.000  11.694   1.794  0.5354  0.7316 -0.4005
  365MOL0     C50279   8.080  11.592   1.743 -1.0395 -0.0293 -0.4511
  365MOL0     O50280   8.304  11.406   1.752 -0.0027  1.0145 -0.5131
  365MOL0     C50281   8.415  11.210   1.591  0.2447  0.2067  0.6975
  365MOL0     C50282   8.474  11.091   1.534  0.1618  0.8201  0.3883
  365MOL0     N50283   8.516  10.314   1.485  0.0658  0.0155  0.0915
  365MOL0     N50284   8.549  10.196   1.505  0.3748  0.8021  0.7853
  365MOL0     C50285   9.535   9.543   1.936 -0.5842  0.6806 -0.4806
  365MOL0     C50286   9.669   9.521   1.918 -0.2292  0.3773 -0.1915
  365MOL0     C50287  10.090   9.602   1.833  0.8140  0.4254  0.1060
  365MOL0     C50288  10.167   9.719   1.872 -0.0881  1.0112  0.3399
  365MOL0     C50289  10.307   9.716   1.868 -0.3149 -0.1636 -0.3290
  365MOL0     C50290  10.372   9.599   1.837 -0.0707  0.5060  0.3691
  365MOL0     O50291  10.505   9.608   1.824 -0.1417 -0.2989  0.9691
  365MOL0     C50292  10.580   9.492   1.792 -0.2995 -0.1152 -0.2418
  365MOL0     C50293  10.733   9.529   1.768 -1.3539 -0.4736 -0.1041
  365MOL0     C50294  10.779   9.652   1.854  0.5885 -0.5289  0.1295
  365MOL0     C50295  10.925   9.682   1.846 -0.5242  0.2416  0.0498
  365MOL0     C50296  10.952   9.806   1.920  1.3983  1.1857  0.8208
  365MOL0     C50297  10.971   9.911   1.961 -0.0614  0.2942 -0.0386
  365MOL0     C50298  10.302   9.481   1.814  0.1897  0.0344  0.0546
  365MOL0     C50299  10.167   9.488   1.797  0.8915 -0.3481  0.0197
  365MOL0     C50300  10.105   9.351   1.731 -0.4755 -0.1801 -0.2707
  365MOL0     H50301   9.670   9.527   1.582  0.9608  0.7550 -0.4024
  365MOL0     H50302   9.429   9.560   1.619  0.1149  1.5962  1.1042
  365MOL0     H50303   9.234   9.393   1.797  2.7623  1.3285  3.1992
  365MOL0     H50304   9.216   9.536   1.674  0.2132  0.3481 -1.0671
  365MOL0     H50305   9.008   9.454   1.780 -0.8802 -0.3537  0.9474
  365MOL0     H50306   9.068   9.496   1.949 -2.5848  1.2071  0.6338
  365MOL0     H50307   9.094   9.727   1.872  1.3002 -0.5664  0.1271
  365MOL0     H50308   9.034   9.696   1.717  0.2958  3.0881  1.1236
  365MOL0     H50309   8.825   9.608   1.770 -0.8661  2.8753 -0.7017
  365MOL0     H50310   8.863   9.647   1.952  0.7508  1.7935  1.1815
  365MOL0     H50311   8.869   9.902   1.848  0.7252 -0.0329 -0.7194
  365MOL0     H50312   8.719   9.820   1.851  0.4579 -1.5395 -0.4442
  365MOL0     H50313   8.908   9.805   1.621  0.1495  0.2827  1.6694
  365MOL0     H50314   8.748   9.778   1.601  4.2994 -3.7111 -0.7462
  365MOL0     H50315   8.751   9.997   1.501  0.3140  0.9759  0.4178
  365MOL0     H50316   8.877  10.060   1.610 -0.7497  1.6011 -1.5548
  365MOL0     H50317   8.577   9.998   1.688  0.2451  1.1972  3.5086
  365MOL0     H50318   8.711  10.094   1.773  1.3464  0.1438  0.1674
  365MOL0     H50319   8.699  10.349   1.754 -1.2762  3.9965 -0.2827
  365MOL0     H50320   8.634  10.567   1.664  0.5065  0.7603 -1.6236
  365MOL0     H50321   8.458  10.561   1.626 -0.6106 -1.2190  0.7450
  365MOL0     H50322   8.661  10.689   1.476 -0.8564  1.0603 -0.7258
  365MOL0     H50323   8.661  10.543   1.398  0.2601  2.4200 -2.8441
  365MOL0     H50324   8.503  10.651   1.277 -2.4844  0.1925 -1.2030
  365MOL0     H50325   8.405  10.543   1.368 -0.0699  0.9590  0.7679
  365MOL0     H50326   8.289  10.764   1.381 -0.4198 -0.0486  0.5060
  365MOL0     H50327   8.337  10.719   1.542  4.4523 -1.1087  2.2914
  365MOL0     H50328   8.193  10.910   1.537  0.8574  0.5504 -0.6175
  365MOL0     H50329   7.992  11.102   1.591 -0.9935  0.5690  2.0081
  365MOL0     H50330   8.065  11.154   1.754  0.6064  2.4100 -0.4032
  365MOL0     H50331   8.049  10.984   1.706  2.7201 -0.1581  0.4225
  365MOL0     H50332   7.832  11.373   1.670  0.0189  1.1298 -0.9614
  365MOL0     H50333   7.697  11.546   1.731 -0.0958  2.2675 -1.1348
  365MOL0     H50334   7.893  11.902   1.977 -0.7550  3.9603  1.8657
  365MOL0     H50335   7.918  11.950   1.811 -0.7357  0.8817  0.7290
  365MOL0     H50336   7.816  12.107   1.940  1.9349 -2.6504  0.6176
  365MOL0     H50337   7.702  12.066   1.808 -2.1685 -1.1336  0.3799
  365MOL0     H50338   7.578  11.910   1.979  0.7996 -1.9811  2.9089
  365MOL0     H50339   7.563  12.085   1.961  3.6727  1.8214 -3.8101
  365MOL0     H50340   7.703  12.111   2.163 -3.0955  2.0680  1.1690
  365MOL0     H50341   7.725  11.939   2.176  0.7175  2.1115  1.7278
  365MOL0     H50342   7.463  11.917   2.199 -1.3381  0.0732 -0.6961
  365MOL0     H50343   7.570  11.980   2.318  1.9567  2.2525 -1.1068
  365MOL0     H50344   7.416  12.169   2.119 -0.1016  3.6732  0.5758
  365MOL0     H50345   7.520  12.215   2.246  0.5865 -0.6209  0.6131
  365MOL0     H50346   7.253  12.063   2.243 -0.0702 -0.4360 -0.6226
  365MOL0     H50347   7.279  12.225   2.320  2.2776  1.5085  0.5072
  365MOL0     H50348   7.402  11.967   2.439  2.5790  0.8002  2.6498
  365MOL0     H50349   7.274  12.065   2.509 -1.4969  0.6409 -1.4654
  365MOL0     H50350   8.043  11.780   1.845  0.7212 -1.2819  3.2028
  365MOL0     H50351   8.187  11.597   1.762 -1.6165 -2.1281  4.9521
  365MOL0     H50352   8.469  11.304   1.601  0.2137  0.9182 -3.9431
  365MOL0     H50353   8.573  11.089   1.491 -0.2767  1.5331 -0.7164
  365MOL0     H50354   9.496   9.560   2.036 -4.1712  1.4629 -1.8395
  365MOL0     H50355   9.728   9.520   2.010 -1.8662  3.0307  1.0223
  365MOL0     H50356  10.121   9.809   1.912  2.5561  1.9568  1.4574
  365MOL0     H50357  10.376   9.795   1.897  1.1783 -0.9052 -1.6701
  365MOL0     H50358  10.568   9.441   1.888 -0.6167  3.7881  1.9824
  365MOL0     H50359  10.541   9.449   1.700 -0.8928  0.9180 -0.4799
  365MOL0     H50360  10.725   9.557   1.663 -0.6693 -0.4270 -0.1497
  365MOL0     H50361  10.800   9.443   1.784 -1.8312 -1.2220 -1.9247
  365MOL0     H50362  10.714   9.731   1.819  2.5659  0.4669 -1.4814
  365MOL0     H50363  10.747   9.617   1.953  0.9098 -0.6688  0.1866
  365MOL0     H50364  10.951   9.689   1.740  1.2386  0.7237  0.4828
  365MOL0     H50365  10.987   9.599   1.881  4.8555  1.9029 -4.1466
  365MOL0     H50366  10.981  10.009   2.002 -1.1320  1.8856 -3.3010
  365MOL0     H50367  10.346   9.383   1.799 -1.9639 -0.4410 -5.5819
  365MOL0     H50368  10.187   9.279   1.737 -0.3160  0.0992  1.3001
  365MOL0     H50369  10.015   9.319   1.784 -0.1917  0.5302  0.6722
  365MOL0     H50370  10.075   9.365   1.626 -1.1781  3.0281  0.2461
  366MOL0     O50371   0.919  10.290   9.408 -0.2957 -0.1898 -0.5743
  366MOL0     C50372   0.856  10.190   9.367  0.0038 -0.3492  0.2441
  366MOL0     O50373   0.833  10.170   9.242 -0.1986  0.1857 -0.4985
  366MOL0     C50374   0.847  10.274   9.157  0.4653  0.3875 -0.3006
  366MOL0     C50375   0.726  10.322   9.105  0.1727 -0.2128  0.9265
  366MOL0     C50376   0.710  10.436   9.009  0.0389  0.7336  0.6357
  366MOL0     C50377   0.832  10.488   8.964 -0.2156  0.4277  0.8406
  366MOL0     O50378   0.834  10.573   8.856  0.5617  0.0931  0.2732
  366MOL0     C50379   0.720  10.656   8.825  0.1322 -0.1241 -0.5563
  366MOL0     C50380   0.743  10.720   8.692  0.5158  0.0858  0.2220
  366MOL0     C50381   0.620  10.803   8.635 -0.4561  0.2442 -0.6415
  366MOL0     C50382   0.658  10.887   8.503 -0.3299 -0.5179 -0.1015
  366MOL0     C50383   0.539  10.933   8.422 -0.5517 -0.3790  0.4136
  366MOL0     C50384   0.465  11.059   8.465 -1.1287 -0.0900 -0.1328
  366MOL0     C50385   0.365  11.108   8.363 -0.0100  0.0602  0.4142
  366MOL0     C50386   0.237  11.013   8.345 -0.0434 -0.0045  0.1540
  366MOL0     N50387   0.130  11.077   8.273 -0.2141 -0.8302 -0.2298
  366MOL0     C50388   0.130  11.122   8.144  0.7135 -0.2556  0.5583
  366MOL0     C50389   0.016  11.191   8.131 -0.4918 -0.3768  0.4138
  366MOL0     C50390  -0.018  11.276   8.002  0.1588 -0.2415 -0.1355
  366MOL0     C50391  -0.036  11.180   7.886 -0.1850 -0.0457  0.1100
  366MOL0     C50392  -0.028  11.237   7.743 -0.0991 -0.1813 -0.8950
  366MOL0     C50393   0.100  11.302   7.701  0.2015 -0.5336  0.0408
  366MOL0     O50394   0.198  11.199   7.649  0.0967  0.1666 -0.6268
  366MOL0     C50395   0.307  11.243   7.592 -0.2107  0.1872 -0.9909
  366MOL0     C50396   0.411  11.142   7.581  0.2956 -0.2322  0.0539
  366MOL0     C50397   0.538  11.182   7.551 -0.6566  0.5232  0.3060
  366MOL0     C50398   0.646  11.068   7.561 -0.1503  0.3281 -0.2656
  366MOL0     C50399   0.565  11.317   7.519  0.1172  0.0407  0.3581
  366MOL0     C50400   0.709  11.374   7.506  1.2789  0.7064  0.9777
  366MOL0     O50401   0.723  11.485   7.430 -1.1596  0.8341 -0.9638
  366MOL0     C50402   0.848  11.537   7.409 -0.7461  0.0356 -0.6391
  366MOL0     C50403   0.861  11.628   7.300  0.7799 -0.4065 -0.3552
  366MOL0     C50404   0.980  11.699   7.261  0.7463 -0.2001  0.8195
  366MOL0     C50405   1.097  11.667   7.331  0.1413  0.1478 -0.4845
  366MOL0     O50406   1.213  11.730   7.300  0.0974  0.1608  0.9569
  366MOL0     C50407   1.263  11.718   7.160 -0.8899  0.6330 -0.3036
  366MOL0     C50408   1.390  11.806   7.158  0.4804  0.1542  0.2032
  366MOL0     C50409   1.352  11.943   7.102 -0.4296  0.4406 -0.4643
  366MOL0     C50410   1.273  12.038   7.195  0.3227 -0.1585 -1.0883
  366MOL0     C50411   1.248  12.172   7.127  1.0674 -0.2059 -1.2277
  366MOL0     C50412   1.171  12.178   6.988 -0.7220  0.1359 -0.1756
  366MOL0     C50413   1.033  12.112   7.005  0.5781  0.3518  0.1387
  366MOL0     C50414   0.938  12.198   7.094  0.7560 -0.0946  0.6621
  366MOL0    Cl50415   0.796  12.096   7.139  0.9049 -0.1149  0.0175
  366MOL0     C50416   1.091  11.570   7.433 -0.7710 -0.5519  0.1497
  366MOL0     C50417   0.965  11.515   7.475  0.3420 -0.1112  1.3433
  366MOL0     O50418   0.797  11.317   7.566  0.0430  0.6821 -0.5736
  366MOL0     C50419   0.453  11.402   7.514 -0.8420  0.1455  0.4694
  366MOL0     C50420   0.328  11.375   7.547 -0.3940  0.7849  0.9701
  366MOL0     N50421  -0.057  11.187   8.250 -0.1535 -0.5994  0.1471
  366MOL0     N50422   0.014  11.122   8.337 -0.1276 -0.1126  0.5704
  366MOL0     C50423   0.956  10.442   9.013 -0.2769  0.4874 -0.1628
  366MOL0     C50424   0.965  10.340   9.109  0.1575  0.8220 -0.1722
  366MOL0     C50425   0.802  10.086   9.453 -1.0169  0.2121 -0.6134
  366MOL0     C50426   0.731   9.974   9.398  0.0076  0.4934  0.2780
  366MOL0     C50427   0.686   9.875   9.486  0.3575  0.3139  0.5031
  366MOL0     C50428   0.708   9.881   9.624 -0.2482 -0.0044  0.8245
  366MOL0     O50429   0.657   9.793   9.715 -0.5153  0.4521  0.0510
  366MOL0     C50430   0.571   9.688   9.662 -0.6725  0.0164 -0.7226
  366MOL0     C50431   0.528   9.607   9.784  0.5775 -0.0882 -0.3816
  366MOL0     C50432   0.480   9.692   9.902 -0.7932 -0.4855 -0.5247
  366MOL0     C50433   0.432   9.607  10.019  0.4394 -0.1062  1.4013
  366MOL0     C50434   0.389   9.690  10.134  0.2120  0.2893  1.0008
  366MOL0     C50435   0.350   9.750  10.223 -0.8077  0.1271 -0.2930
  366MOL0     C50436   0.766   9.993   9.676 -0.1552  0.6450 -0.1290
  366MOL0     C50437   0.809  10.097   9.598 -0.4565  0.2736  1.2522
  366MOL0     C50438   0.875  10.215   9.674 -0.6445 -0.0384 -0.1331
  366MOL0     H50439   0.638  10.271   9.144 -2.0802  2.0605 -0.8004
  366MOL0     H50440   0.615  10.467   8.966  0.5355  3.1867  1.1542
  366MOL0     H50441   0.709  10.736   8.899 -1.4012  1.1266 -2.0757
  366MOL0     H50442   0.624  10.606   8.816 -0.7426  1.8575 -3.3706
  366MOL0     H50443   0.827  10.786   8.718 -0.8732  1.6527  0.9054
  366MOL0     H50444   0.772  10.638   8.626 -3.0895 -3.6457  2.8261
  366MOL0     H50445   0.537  10.736   8.609  0.9258 -0.9343 -2.2256
  366MOL0     H50446   0.597  10.874   8.715  0.7310 -0.6420  0.5367
  366MOL0     H50447   0.734  10.963   8.524  0.5196 -1.8344  1.9131
  366MOL0     H50448   0.698  10.816   8.430  0.2616 -2.2337  1.7960
  366MOL0     H50449   0.471  10.847   8.425  1.8835 -2.3845  2.3643
  366MOL0     H50450   0.565  10.955   8.318 -0.9326  0.7030  0.5329
  366MOL0     H50451   0.412  11.035   8.558 -1.1431 -2.1540 -0.6278
  366MOL0     H50452   0.540  11.136   8.484  1.9157 -3.1211  1.2726
  366MOL0     H50453   0.412  11.122   8.265 -1.3637  0.1155 -0.2465
  366MOL0     H50454   0.328  11.207   8.389  1.2008  0.0205  2.5036
  366MOL0     H50455   0.265  10.919   8.296 -0.7607 -0.0676 -0.1458
  366MOL0     H50456   0.201  10.970   8.439  1.1030  0.3385  0.7671
  366MOL0     H50457   0.213  11.138   8.074  1.1067  4.8928  1.7578
  366MOL0     H50458   0.057  11.348   7.966  1.5248 -2.8125 -2.9213
  366MOL0     H50459  -0.112  11.332   8.008 -1.7373 -3.0105 -1.7702
  366MOL0     H50460   0.045  11.107   7.893 -0.9508 -1.1165 -1.5253
  366MOL0     H50461  -0.125  11.118   7.897  1.1301 -1.6268  2.6342
  366MOL0     H50462  -0.039  11.150   7.677 -1.6345 -0.4621 -0.3036
  366MOL0     H50463  -0.116  11.296   7.719  0.4757  1.5025  0.9505
  366MOL0     H50464   0.089  11.381   7.626  1.8035  0.1060  0.4309
  366MOL0     H50465   0.131  11.354   7.792  1.6549 -1.2297 -0.0366
  366MOL0     H50466   0.377  11.046   7.619  0.9986 -1.2455 -1.7161
  366MOL0     H50467   0.724  11.074   7.485 -1.4911  1.1988 -1.6590
  366MOL0     H50468   0.601  10.969   7.570  0.9294  0.0239  3.5750
  366MOL0     H50469   0.690  11.096   7.657 -0.9514  2.2909 -0.4088
  366MOL0     H50470   0.768  11.649   7.247  0.6633 -0.2477 -0.0850
  366MOL0     H50471   0.983  11.777   7.186  3.5404 -0.1715  0.8427
  366MOL0     H50472   1.278  11.615   7.127  1.7248 -0.1851  2.9103
  366MOL0     H50473   1.186  11.762   7.096 -1.6353 -2.5705 -1.7764
  366MOL0     H50474   1.438  11.824   7.254 -1.2203  2.3867  0.7205
  366MOL0     H50475   1.467  11.764   7.093  0.3329  3.5221 -2.3837
  366MOL0     H50476   1.305  11.919   7.007  2.6372 -3.3248 -1.2913
  366MOL0     H50477   1.443  11.996   7.069 -1.1570  1.1516 -1.3881
  366MOL0     H50478   1.340  12.052   7.280  0.1389  3.1381 -1.3718
  366MOL0     H50479   1.180  11.985   7.216  0.2840  0.2434 -0.2290
  366MOL0     H50480   1.184  12.231   7.194  0.2833 -1.7268 -0.5943
  366MOL0     H50481   1.337  12.235   7.120  0.4711  0.6216 -1.6013
  366MOL0     H50482   1.216  12.122   6.906 -0.9454 -2.5611  1.4209
  366MOL0     H50483   1.162  12.280   6.951  3.4071 -0.3946 -3.3312
  366MOL0     H50484   1.053  12.019   7.060 -0.5174 -0.9220 -1.5539
  366MOL0     H50485   0.986  12.081   6.912 -0.2867  0.4464  0.5343
  366MOL0     H50486   0.906  12.286   7.038  3.7592  1.2001  0.7618
  366MOL0     H50487   0.986  12.228   7.188  2.4469  1.8531 -0.7351
  366MOL0     H50488   1.192  11.542   7.460 -0.3071  0.5585 -0.3890
  366MOL0     H50489   0.965  11.464   7.571 -0.9005  1.1047  2.0181
  366MOL0     H50490   0.477  11.507   7.501 -0.1825 -0.2429 -1.7792
  366MOL0     H50491   0.261  11.460   7.554  0.2537  1.2068  2.3985
  366MOL0     H50492   1.045  10.477   8.962 -1.6880  3.1463 -0.9640
  366MOL0     H50493   1.058  10.296   9.143 -1.2510 -2.6503 -0.3072
  366MOL0     H50494   0.721   9.958   9.292  1.6816 -0.7169  0.2627
  366MOL0     H50495   0.620   9.804   9.437  2.4344 -0.4392 -1.3432
  366MOL0     H50496   0.481   9.736   9.624 -1.7069 -1.7743 -0.6215
  366MOL0     H50497   0.608   9.625   9.580 -0.5507 -4.4964  2.4034
  366MOL0     H50498   0.616   9.551   9.818  1.3224  0.2324 -1.6966
  366MOL0     H50499   0.448   9.538   9.756 -0.8859  0.8888  1.2098
  366MOL0     H50500   0.553   9.766   9.937 -0.4041 -0.8702 -0.5157
  366MOL0     H50501   0.401   9.756   9.862 -0.1461 -0.6096 -2.0754
  366MOL0     H50502   0.525   9.557  10.048  1.1580  0.6327  0.4239
  366MOL0     H50503   0.356   9.535   9.985 -1.0736  1.9757  0.1421
  366MOL0     H50504   0.323   9.818  10.301  3.0472 -0.2204  1.5947
  366MOL0     H50505   0.772  10.006   9.783  0.5691  1.7329 -0.2855
  366MOL0     H50506   0.975  10.210   9.630 -0.0923  1.4070  0.9026
  366MOL0     H50507   0.825  10.308   9.646 -2.8588 -0.7877  1.0624
  366MOL0     H50508   0.874  10.193   9.781 -1.2242 -1.8248 -0.4598
  367MOL0     O50509  10.274   5.440   9.628  0.6873  0.0675 -0.3755
  367MOL0     C50510  10.238   5.555   9.666 -0.3096 -0.3748  0.7815
  367MOL0     O50511  10.317   5.639   9.747  0.1050 -0.3016  0.5692
  367MOL0     C50512  10.425   5.567   9.796 -0.0618 -0.1881  0.6749
  367MOL0     C50513  10.540   5.536   9.718 -0.5018 -0.7943  0.0069
  367MOL0     C50514  10.652   5.476   9.778 -0.6434  0.6088 -0.5347
  367MOL0     C50515  10.640   5.434   9.912  0.2058  0.6377  0.0005
  367MOL0     O50516  10.748   5.364   9.961  0.5626 -0.5101  0.2382
  367MOL0     C50517  10.748   5.260  10.066 -0.0825  1.4186  0.0872
  367MOL0     C50518  10.767   5.114  10.026  0.5004 -0.8189 -0.1777
  367MOL0     C50519  10.651   5.029  10.055 -0.1536  0.7847 -0.8457
  367MOL0     C50520  10.537   5.044   9.950  0.0539 -0.0222 -0.1910
  367MOL0     C50521  10.419   4.963   9.999  0.6972  0.4259 -0.8358
  367MOL0     C50522  10.335   5.017  10.118  0.3923 -0.0621  0.3546
  367MOL0     C50523  10.218   4.922  10.135  0.2827  0.0455  0.2125
  367MOL0     C50524  10.107   4.952  10.025  0.4743  1.0518  0.1362
  367MOL0     N50525  10.060   5.096  10.024 -0.0231  0.2056 -1.1516
  367MOL0     C50526  10.099   5.204   9.948  0.2885  0.0662  0.3833
  367MOL0     C50527  10.039   5.318  10.001  0.6185  0.0399 -0.5141
  367MOL0     C50528  10.048   5.462   9.956 -0.4106  0.0901 -0.4180
  367MOL0     C50529   9.958   5.568  10.037 -0.2822  0.4498  0.2614
  367MOL0     C50530   9.817   5.599   9.972  0.1670  0.0430 -0.2511
  367MOL0     C50531   9.716   5.488  10.002 -1.6671 -0.1183  0.7437
  367MOL0     O50532   9.599   5.509   9.923 -0.2862 -0.5181 -0.0072
  367MOL0     C50533   9.594   5.484   9.784  0.2060  0.5029  1.2053
  367MOL0     C50534   9.697   5.409   9.717 -0.6261 -0.5102 -0.5607
  367MOL0     C50535   9.679   5.370   9.581 -0.0369  0.1154 -1.0602
  367MOL0     C50536   9.791   5.296   9.532  0.1073 -0.7017 -0.1968
  367MOL0     C50537   9.564   5.420   9.517  0.5190 -0.5144 -0.4931
  367MOL0     C50538   9.535   5.398   9.376  0.6968 -0.0939 -0.4477
  367MOL0     O50539   9.467   5.495   9.314  0.2447  0.9749 -0.3493
  367MOL0     C50540   9.414   5.465   9.190 -0.1617 -0.9136 -0.4102
  367MOL0     C50541   9.279   5.434   9.168 -0.0521  0.6116 -1.1785
  367MOL0     C50542   9.225   5.430   9.041  0.7177  0.0082 -0.0311
  367MOL0     C50543   9.302   5.460   8.932 -0.8485  0.9131  0.1049
  367MOL0     O50544   9.255   5.452   8.803  0.8038  0.6060 -0.6230
  367MOL0     C50545   9.310   5.352   8.721  0.2633 -0.5222  0.8269
  367MOL0     C50546   9.232   5.332   8.595 -0.6016 -0.3101 -0.2738
  367MOL0     C50547   9.256   5.445   8.485  1.6165  0.0073 -0.6074
  367MOL0     C50548   9.159   5.561   8.493  0.2763 -0.1281  0.6653
  367MOL0     C50549   9.167   5.654   8.371  0.7664 -0.4746  0.2853
  367MOL0     C50550   9.088   5.788   8.393 -0.2744 -0.5499  0.1101
  367MOL0     C50551   8.937   5.773   8.428 -0.1728  0.3542  0.9855
  367MOL0     C50552   8.868   5.913   8.395 -0.4325 -0.0117 -0.2985
  367MOL0    Cl50553   8.686   5.895   8.395  0.2019 -0.1134  0.3506
  367MOL0     C50554   9.436   5.501   8.952  0.1521 -0.8893  0.4466
  367MOL0     C50555   9.495   5.502   9.075 -0.1706  0.6799  0.6321
  367MOL0     O50556   9.581   5.298   9.317  0.4508  0.3060  0.3057
  367MOL0     C50557   9.463   5.497   9.579  0.5452  0.5875 -0.2716
  367MOL0     C50558   9.484   5.528   9.720  0.1432  0.9371  0.2785
  367MOL0     N50559   9.966   5.275  10.109  0.8100 -0.3104 -0.3678
  367MOL0     N50560   9.981   5.145  10.130 -0.3402 -0.0677  0.2115
  367MOL0     C50561  10.524   5.463   9.990 -0.5490 -0.4251 -0.2653
  367MOL0     C50562  10.417   5.531   9.930  0.3191  0.2906 -0.9977
  367MOL0     C50563  10.116   5.624   9.611  0.4567  0.1422  0.4249
  367MOL0     C50564  10.066   5.743   9.671 -0.2296  0.1248  0.2192
  367MOL0     C50565   9.948   5.803   9.634 -0.4981  0.3933  1.0391
  367MOL0     C50566   9.873   5.760   9.521 -0.5168  0.1951 -0.1699
  367MOL0     O50567   9.754   5.819   9.488  1.0931  0.2519  0.3953
  367MOL0     C50568   9.696   5.804   9.351  0.8984 -0.2789  0.4760
  367MOL0     C50569   9.649   5.942   9.300  0.0761  0.8104 -0.0929
  367MOL0     C50570   9.536   6.000   9.392  0.3507 -0.6189  0.3195
  367MOL0     C50571   9.410   5.912   9.416 -0.1295 -0.7558 -0.0108
  367MOL0     C50572   9.339   5.891   9.286  0.9024 -0.6911 -0.3719
  367MOL0     C50573   9.286   5.853   9.183  0.3653  0.0790  0.9288
  367MOL0     C50574   9.927   5.649   9.453 -0.6506 -0.7912 -0.1742
  367MOL0     C50575  10.043   5.579   9.496 -0.2011 -0.0005 -0.0171
  367MOL0     C50576  10.092   5.466   9.400  0.0363 -0.7590 -0.4953
  367MOL0     H50577  10.538   5.565   9.614  1.5621 -0.6323 -0.0174
  367MOL0     H50578  10.750   5.460   9.733  0.8825  0.0262  2.6807
  367MOL0     H50579  10.660   5.273  10.130  2.2829  0.9829  3.7587
  367MOL0     H50580  10.831   5.284  10.135  0.7173 -2.1823  0.5476
  367MOL0     H50581  10.791   5.098   9.920  1.7010 -0.8222  0.0772
  367MOL0     H50582  10.856   5.074  10.075  0.1987  0.8608  1.8582
  367MOL0     H50583  10.688   4.927  10.062 -2.0372  0.0717 -0.6658
  367MOL0     H50584  10.616   5.050  10.157  1.9724 -2.4870  0.7327
  367MOL0     H50585  10.515   5.151   9.949 -0.3258 -0.0920  0.2787
  367MOL0     H50586  10.571   5.011   9.851 -3.6217  0.2126 -1.6839
  367MOL0     H50587  10.444   4.858  10.018 -3.3420 -0.9966 -2.3098
  367MOL0     H50588  10.346   4.960   9.918 -2.3350  1.1747  1.6646
  367MOL0     H50589  10.384   5.027  10.216  2.1976 -0.8679 -0.4164
  367MOL0     H50590  10.312   5.120  10.089 -2.6234 -0.2003  1.9153
  367MOL0     H50591  10.176   4.941  10.234 -3.2442 -0.1720 -1.1226
  367MOL0     H50592  10.251   4.818  10.130  0.1366  0.0386 -0.8104
  367MOL0     H50593  10.156   4.919   9.933  2.7170 -0.6702  1.8086
  367MOL0     H50594  10.017   4.893  10.043  2.4330 -1.8635  1.0632
  367MOL0     H50595  10.163   5.193   9.861  0.1029 -2.7764  0.4978
  367MOL0     H50596  10.035   5.457   9.847  4.2541  1.7751 -1.2803
  367MOL0     H50597  10.150   5.499   9.970 -0.0696 -1.3242  1.1906
  367MOL0     H50598   9.960   5.559  10.146  1.7158  0.7948  0.2812
  367MOL0     H50599  10.013   5.662  10.032  1.6246 -0.4335  2.7636
  367MOL0     H50600   9.788   5.690  10.024  1.0906  0.0164  0.3347
  367MOL0     H50601   9.839   5.621   9.867  1.4279 -0.6953 -0.1598
  367MOL0     H50602   9.740   5.386   9.973 -1.5534  0.3685 -0.9680
  367MOL0     H50603   9.700   5.493  10.110  0.0614  0.3459  1.0100
  367MOL0     H50604   9.788   5.400   9.775 -2.5692 -2.3462  2.5120
  367MOL0     H50605   9.852   5.355   9.463 -3.9205  2.8868 -1.0940
  367MOL0     H50606   9.760   5.207   9.475  0.6896 -1.7995  1.1447
  367MOL0     H50607   9.859   5.254   9.607  1.2811 -0.4227 -1.0668
  367MOL0     H50608   9.217   5.410   9.254  1.0831 -2.0283 -0.9934
  367MOL0     H50609   9.123   5.394   9.030  0.9901 -0.3575 -1.6009
  367MOL0     H50610   9.411   5.385   8.696  0.0698 -0.5565 -0.0253
  367MOL0     H50611   9.319   5.251   8.763  2.3950 -1.2715 -1.2171
  367MOL0     H50612   9.271   5.240   8.551  0.6134 -0.8198  1.7399
  367MOL0     H50613   9.129   5.327   8.634  0.3017 -1.7476  2.1554
  367MOL0     H50614   9.247   5.398   8.386  2.5469 -2.8447  0.5883
  367MOL0     H50615   9.357   5.486   8.490  1.3016  0.7892 -0.5112
  367MOL0     H50616   9.175   5.617   8.585 -0.7822  1.1917  0.0873
  367MOL0     H50617   9.056   5.524   8.500  0.0238  0.8580  2.9339
  367MOL0     H50618   9.271   5.683   8.354  0.1659  1.4141 -0.4441
  367MOL0     H50619   9.140   5.600   8.280  0.9431 -0.9547  0.5107
  367MOL0     H50620   9.081   5.848   8.302 -1.6095  0.6322  0.9476
  367MOL0     H50621   9.142   5.843   8.471 -0.9303 -0.9175  0.8327
  367MOL0     H50622   8.945   5.742   8.533  1.6104 -4.4269 -0.2786
  367MOL0     H50623   8.894   5.698   8.362  1.7599  0.2586 -0.2483
  367MOL0     H50624   8.899   5.959   8.301 -1.4202 -1.8034 -1.5461
  367MOL0     H50625   8.901   5.979   8.476 -0.1829 -1.4995  0.8684
  367MOL0     H50626   9.487   5.547   8.868  0.4892  4.0460  2.9906
  367MOL0     H50627   9.600   5.523   9.090 -0.4413  3.7572 -1.0069
  367MOL0     H50628   9.375   5.537   9.530 -0.4263  0.9694  1.6819
  367MOL0     H50629   9.398   5.580   9.762 -0.9899  1.2803 -2.2475
  367MOL0     H50630  10.532   5.434  10.094  1.5868 -1.6044 -0.6998
  367MOL0     H50631  10.342   5.558  10.003  3.3761 -1.0815  3.0143
  367MOL0     H50632  10.124   5.781   9.755  0.9083  1.3414 -1.0558
  367MOL0     H50633   9.912   5.895   9.681  1.9520  2.2341 -0.4350
  367MOL0     H50634   9.770   5.767   9.279 -1.8757 -1.5346 -1.9176
  367MOL0     H50635   9.612   5.735   9.354  0.1433  0.4990 -1.4334
  367MOL0     H50636   9.618   5.928   9.196  0.2271  2.3980 -0.3815
  367MOL0     H50637   9.737   6.008   9.298  1.7666 -1.3452 -1.2885
  367MOL0     H50638   9.585   6.024   9.487  1.8420  1.0516 -0.8078
  367MOL0     H50639   9.494   6.094   9.355 -0.2571 -0.5987  1.0350
  367MOL0     H50640   9.348   5.969   9.487  0.8484  0.0498  0.2218
  367MOL0     H50641   9.436   5.817   9.464 -0.2070 -1.6044 -1.5914
  367MOL0     H50642   9.235   5.808   9.100  1.0093 -2.2317  1.7145
  367MOL0     H50643   9.869   5.616   9.367  0.8096 -0.1562 -1.4513
  367MOL0     H50644  10.091   5.364   9.441  1.0552 -1.1887 -1.4810
  367MOL0     H50645  10.036   5.459   9.307  0.6305 -3.2574 -0.7360
  367MOL0     H50646  10.193   5.491   9.367  0.9745 -2.2260  1.0380
  368MOL0     O50647   9.739   1.267   3.089 -0.0769 -0.1825  0.1744
  368MOL0     C50648   9.779   1.248   3.205  0.5154 -0.0203  0.1626
  368MOL0     O50649   9.783   1.128   3.274 -0.3360  0.0215  0.2343
  368MOL0     C50650   9.728   1.021   3.210 -0.0941  0.2181 -0.0449
  368MOL0     C50651   9.598   1.015   3.159  0.2857 -0.4287 -0.4403
  368MOL0     C50652   9.557   0.919   3.077 -0.4527  1.0101  0.2374
  368MOL0     C50653   9.647   0.824   3.032  0.5262  0.5752  0.4142
  368MOL0     O50654   9.617   0.734   2.937  1.1295 -0.5450 -0.0500
  368MOL0     C50655   9.697   0.711   2.823  0.9640 -0.0051  0.2649
  368MOL0     C50656   9.663   0.807   2.723 -0.2658  0.0180  0.8263
  368MOL0     C50657   9.747   0.796   2.600  0.8299 -0.3581  0.2303
  368MOL0     C50658   9.715   0.903   2.491  0.5020  0.5874 -0.5451
  368MOL0     C50659   9.794   0.880   2.360  0.4571  0.9347 -0.1001
  368MOL0     C50660   9.721   0.963   2.260 -0.5553 -0.2438  0.8604
  368MOL0     C50661   9.690   1.107   2.303  0.2048  0.5320  0.0537
  368MOL0     C50662   9.658   1.206   2.190 -0.5200  0.1938 -0.3954
  368MOL0     N50663   9.522   1.201   2.144  0.8892 -0.2681 -0.5495
  368MOL0     C50664   9.414   1.236   2.220 -0.2671 -0.7478  0.3198
  368MOL0     C50665   9.305   1.187   2.151  0.5542 -0.3125 -0.7626
  368MOL0     C50666   9.157   1.179   2.199 -0.2089 -0.1300 -0.6807
  368MOL0     C50667   9.097   1.321   2.243  0.4407 -0.2223 -0.0052
  368MOL0     C50668   9.103   1.428   2.136  0.3266 -0.4738 -0.0207
  368MOL0     C50669   9.007   1.552   2.145 -0.2845  0.6157 -0.5684
  368MOL0     O50670   8.874   1.520   2.122  0.2918 -0.5083  0.2827
  368MOL0     C50671   8.826   1.526   1.997  0.4412  0.8413  0.2076
  368MOL0     C50672   8.748   1.627   1.951  0.7954 -0.1631 -0.8584
  368MOL0     C50673   8.686   1.637   1.831  0.0228 -0.6208  0.1459
  368MOL0     C50674   8.619   1.768   1.803  0.0620 -0.3752 -0.3577
  368MOL0     C50675   8.722   1.530   1.731 -0.4391  0.2274  0.2100
  368MOL0     C50676   8.691   1.530   1.593 -0.0090 -0.0207 -0.3399
  368MOL0     O50677   8.777   1.467   1.509 -0.2071  0.7695  0.1654
  368MOL0     C50678   8.770   1.487   1.374  0.4188  0.1669  0.2475
  368MOL0     C50679   8.742   1.609   1.314 -0.0274 -1.2388 -0.6147
  368MOL0     C50680   8.749   1.621   1.179 -0.3609 -0.6754  0.0403
  368MOL0     C50681   8.786   1.500   1.098  0.3080 -0.6194 -0.1747
  368MOL0     O50682   8.812   1.501   0.962  0.9568 -0.1902  0.5132
  368MOL0     C50683   8.703   1.550   0.881 -0.1939  0.3480 -0.0535
  368MOL0     C50684   8.758   1.525   0.741 -0.2953 -0.4127 -0.0370
  368MOL0     C50685   8.650   1.590   0.639 -1.0579  0.6084 -0.2483
  368MOL0     C50686   8.632   1.492   0.524 -0.4378  0.2636  0.5062
  368MOL0     C50687   8.529   1.556   0.425  1.1059  0.4136  0.7449
  368MOL0     C50688   8.490   1.465   0.313 -0.2221  0.3717 -0.6469
  368MOL0     C50689   8.387   1.525   0.221  0.6930  0.2872  0.5333
  368MOL0     C50690   8.364   1.424   0.111 -0.0104  0.0888  0.7408
  368MOL0    Cl50691   8.514   1.412   0.019 -0.0732 -0.3670  0.1324
  368MOL0     C50692   8.812   1.382   1.171 -0.0957  0.1124  0.0736
  368MOL0     C50693   8.807   1.374   1.308 -0.0006  0.0191 -0.7848
  368MOL0     O50694   8.583   1.578   1.565 -0.5314 -0.2085  0.6990
  368MOL0     C50695   8.801   1.427   1.776 -0.3412  0.6150 -0.5708
  368MOL0     C50696   8.849   1.421   1.913 -0.4518 -0.4575 -0.1615
  368MOL0     N50697   9.352   1.112   2.039  0.4429 -0.2399 -0.2267
  368MOL0     N50698   9.478   1.134   2.032  0.1260 -0.1143 -0.6172
  368MOL0     C50699   9.770   0.813   3.098  0.5266  0.6150  0.4863
  368MOL0     C50700   9.812   0.915   3.182  0.4074 -0.3780 -0.2615
  368MOL0     C50701   9.852   1.355   3.267 -0.0122  0.5814  0.0593
  368MOL0     C50702   9.795   1.458   3.334  0.2950 -0.0345  0.1746
  368MOL0     C50703   9.865   1.579   3.371  1.2451  0.0652  0.9299
  368MOL0     C50704  10.006   1.579   3.362 -0.5848 -0.7163 -0.4549
  368MOL0     O50705  10.070   1.694   3.405  0.3687 -0.0217  1.1492
  368MOL0     C50706  10.182   1.674   3.496 -0.6967  0.4591 -0.9742
  368MOL0     C50707  10.125   1.627   3.633  0.1737  0.8499 -0.1705
  368MOL0     C50708  10.071   1.743   3.713 -0.0235  0.4218  0.0479
  368MOL0     C50709  10.040   1.720   3.861  0.1427  0.0319 -0.1043
  368MOL0     C50710  10.042   1.832   3.956  0.0240 -0.1370  1.5796
  368MOL0     C50711  10.073   1.929   4.021 -0.1519 -0.0599  0.6129
  368MOL0     C50712  10.069   1.472   3.304 -0.1341 -0.2882 -0.0097
  368MOL0     C50713   9.992   1.360   3.257 -0.8280  0.3072  0.1583
  368MOL0     C50714  10.094   1.251   3.204  0.0205 -0.2278  0.9238
  368MOL0     H50715   9.533   1.093   3.198  0.1676 -1.6293  1.9044
  368MOL0     H50716   9.451   0.922   3.053 -0.5599  1.1868  0.7169
  368MOL0     H50717   9.677   0.609   2.789 -0.2605 -0.8072  3.0892
  368MOL0     H50718   9.804   0.721   2.847  1.3876 -3.0768  0.0669
  368MOL0     H50719   9.556   0.803   2.698  0.4729 -3.4761 -2.7085
  368MOL0     H50720   9.685   0.907   2.762 -1.2737 -0.0909  1.7297
  368MOL0     H50721   9.853   0.799   2.626  1.9055  1.5487 -3.5084
  368MOL0     H50722   9.723   0.702   2.550  0.0112  1.0662 -2.2481
  368MOL0     H50723   9.607   0.893   2.475  0.7834 -0.8722 -1.8377
  368MOL0     H50724   9.734   1.003   2.530  0.7985  0.2947  0.0766
  368MOL0     H50725   9.792   0.774   2.333  1.0829  0.1642  2.5323
  368MOL0     H50726   9.899   0.910   2.370  0.3342  1.6561 -0.8673
  368MOL0     H50727   9.795   0.970   2.179 -0.0302  1.3641  1.4403
  368MOL0     H50728   9.632   0.908   2.229 -1.2293  2.5423 -2.8998
  368MOL0     H50729   9.784   1.134   2.352  1.6759 -3.2896 -0.2671
  368MOL0     H50730   9.609   1.107   2.377  0.8578  0.9822  0.7811
  368MOL0     H50731   9.686   1.306   2.225  1.4199  0.3823 -2.2778
  368MOL0     H50732   9.723   1.175   2.109  0.6546 -1.7706  1.2153
  368MOL0     H50733   9.401   1.290   2.313 -0.3579 -2.0660  1.0920
  368MOL0     H50734   9.151   1.123   2.293  3.0711  0.6515  0.1263
  368MOL0     H50735   9.095   1.129   2.124 -0.1537  0.1185 -0.8946
  368MOL0     H50736   8.995   1.297   2.274  0.5919  1.3959  1.9410
  368MOL0     H50737   9.156   1.357   2.328 -0.4222  0.2137  0.4202
  368MOL0     H50738   9.203   1.471   2.125 -0.6319  1.4052 -2.5365
  368MOL0     H50739   9.076   1.370   2.047  0.3507 -1.2134  0.4467
  368MOL0     H50740   9.041   1.600   2.237  1.4199  2.9328 -2.2534
  368MOL0     H50741   9.030   1.625   2.066  1.7665 -0.9345 -1.5295
  368MOL0     H50742   8.747   1.721   2.005 -0.6717  1.0770 -2.8943
  368MOL0     H50743   8.668   1.855   1.847 -4.4627  2.1748  0.2966
  368MOL0     H50744   8.512   1.765   1.826 -0.3097  3.9300 -0.7056
  368MOL0     H50745   8.617   1.796   1.697  2.0037 -1.6418 -0.7921
  368MOL0     H50746   8.714   1.694   1.375  3.2123 -1.7138  1.8433
  368MOL0     H50747   8.739   1.718   1.133  0.6677  0.4334  1.9875
  368MOL0     H50748   8.620   1.480   0.896  1.0137 -1.3224 -0.8826
  368MOL0     H50749   8.685   1.654   0.909  0.6087 -0.3956  3.8542
  368MOL0     H50750   8.850   1.582   0.730 -1.5240  1.9150  1.1394
  368MOL0     H50751   8.772   1.419   0.716  0.2721  0.0675 -1.9184
  368MOL0     H50752   8.676   1.691   0.607  1.2547  1.3614  3.4139
  368MOL0     H50753   8.553   1.603   0.687  0.5477  1.9600  2.9383
  368MOL0     H50754   8.590   1.396   0.554 -0.3140 -0.7948 -2.4248
  368MOL0     H50755   8.720   1.479   0.462 -3.9651 -3.3336 -4.4910
  368MOL0     H50756   8.444   1.586   0.487  0.6716  1.4281 -0.3132
  368MOL0     H50757   8.576   1.644   0.380  0.0134 -0.6199 -2.7451
  368MOL0     H50758   8.450   1.371   0.353  2.8623 -1.7865 -2.2350
  368MOL0     H50759   8.582   1.442   0.258  1.2444  3.3463  0.3156
  368MOL0     H50760   8.436   1.615   0.182 -0.1659  0.3154 -0.5283
  368MOL0     H50761   8.293   1.553   0.269 -1.5076  0.1591 -3.2935
  368MOL0     H50762   8.284   1.465   0.050  0.9572 -1.4917 -1.7620
  368MOL0     H50763   8.334   1.335   0.166 -1.7791  0.2495  0.0995
  368MOL0     H50764   8.843   1.288   1.127  0.4525  0.1194  0.4403
  368MOL0     H50765   8.832   1.279   1.355 -2.3641 -0.1728  0.2165
  368MOL0     H50766   8.832   1.341   1.718  0.7209  0.3189  0.3832
  368MOL0     H50767   8.902   1.337   1.956  0.6289  0.0346 -0.4941
  368MOL0     H50768   9.831   0.729   3.066 -1.7357 -0.8134 -0.3221
  368MOL0     H50769   9.898   0.902   3.246  1.6439  0.0809 -1.7621
  368MOL0     H50770   9.688   1.469   3.345  0.2184  2.5890 -1.9649
  368MOL0     H50771   9.818   1.670   3.405  2.5503  0.8982  0.5670
  368MOL0     H50772  10.253   1.594   3.472  1.7962  2.0147  0.7014
  368MOL0     H50773  10.241   1.764   3.514  3.2444 -2.5713  4.1728
  368MOL0     H50774  10.205   1.579   3.690 -0.8331  0.3630  0.8668
  368MOL0     H50775  10.052   1.546   3.628  0.7557  0.3602 -0.8157
  368MOL0     H50776  10.154   1.814   3.706  1.4738 -1.1712  0.8168
  368MOL0     H50777   9.979   1.780   3.667  0.9231  0.2659 -2.0744
  368MOL0     H50778  10.111   1.645   3.898  0.0980  0.2410  0.4192
  368MOL0     H50779   9.945   1.668   3.879 -0.7845  0.8982 -2.1500
  368MOL0     H50780  10.112   2.013   4.074  0.4039 -0.3620  0.6982
  368MOL0     H50781  10.172   1.496   3.282 -0.7272  1.7911 -0.6842
  368MOL0     H50782  10.047   1.203   3.117 -0.4253  2.6146 -0.5303
  368MOL0     H50783  10.187   1.292   3.165  0.9511 -3.3674 -0.5531
  368MOL0     H50784  10.122   1.172   3.275  2.6726 -0.3793 -0.1932
  369MOL0     O50785  11.066   5.524   3.434  0.1907 -0.0786 -0.0743
  369MOL0     C50786  11.084   5.516   3.316  0.2726 -0.9662  0.0996
  369MOL0     O50787  10.999   5.477   3.221  0.9709  0.2910  1.0966
  369MOL0     C50788  10.869   5.438   3.226  0.3636  0.1416 -0.7251
  369MOL0     C50789  10.784   5.431   3.340 -0.2224 -0.2853 -0.0123
  369MOL0     C50790  10.650   5.394   3.329  0.2334  0.1497 -0.3663
  369MOL0     C50791  10.588   5.364   3.212  0.1191  0.2041 -0.6627
  369MOL0     O50792  10.458   5.313   3.201  0.1630 -0.9356 -0.4612
  369MOL0     C50793  10.354   5.382   3.272  0.7216 -0.1786  0.2565
  369MOL0     C50794  10.353   5.523   3.226 -0.2213 -0.3032 -0.1602
  369MOL0     C50795  10.224   5.602   3.280 -0.2178  0.3483  0.4329
  369MOL0     C50796  10.094   5.571   3.216  0.5404 -0.2733 -0.2376
  369MOL0     C50797   9.962   5.583   3.299  0.5353 -0.8612 -0.0675
  369MOL0     C50798   9.913   5.733   3.318  0.1459 -0.4124  0.5986
  369MOL0     C50799   9.805   5.735   3.430 -0.3987  0.0616  0.3581
  369MOL0     C50800   9.727   5.861   3.432 -0.0070  0.3696  0.1841
  369MOL0     N50801   9.808   5.982   3.452  0.4791 -1.0146 -0.2850
  369MOL0     C50802   9.884   5.998   3.568 -0.0648  0.2614 -0.6990
  369MOL0     C50803   9.999   6.060   3.522 -0.0332  0.2542 -0.3464
  369MOL0     C50804  10.104   6.106   3.614 -0.0571 -1.1152 -0.0421
  369MOL0     C50805  10.235   6.037   3.580 -0.1230 -0.5930 -0.3114
  369MOL0     C50806  10.236   5.891   3.605 -0.3282  0.2055  1.5522
  369MOL0     C50807  10.368   5.833   3.561  0.2441  0.3401  0.8919
  369MOL0     O50808  10.362   5.687   3.572  0.8232  0.1421  1.2442
  369MOL0     C50809  10.466   5.604   3.609 -0.9418 -0.1513  0.5532
  369MOL0     C50810  10.426   5.480   3.641 -0.5001 -0.0497  0.1671
  369MOL0     C50811  10.515   5.381   3.676  0.6130  0.0779 -0.1245
  369MOL0     C50812  10.468   5.251   3.708 -0.1697  1.1053  0.6150
  369MOL0     C50813  10.656   5.417   3.694  0.7990 -0.7426 -0.4068
  369MOL0     C50814  10.760   5.322   3.737 -0.1734 -0.6445  0.4376
  369MOL0     O50815  10.732   5.236   3.834 -0.3919 -0.7553  0.3632
  369MOL0     C50816  10.830   5.140   3.861 -0.5561  0.0357  0.3107
  369MOL0     C50817  10.902   5.153   3.988 -0.0135  0.0184  0.7496
  369MOL0     C50818  10.981   5.037   4.018 -0.0502  0.4891 -0.4922
  369MOL0     C50819  11.003   4.931   3.916  1.4995 -0.2496 -0.5074
  369MOL0     O50820  11.081   4.824   3.942  0.2194 -0.3431  0.1082
  369MOL0     C50821  11.218   4.840   3.969 -0.1937 -0.5761  0.0359
  369MOL0     C50822  11.264   4.716   4.035  0.1736  0.5787 -0.2089
  369MOL0     C50823  11.412   4.712   4.051 -0.1044  0.5661  0.0125
  369MOL0     C50824  11.468   4.582   4.096  0.2641  0.8967 -0.0450
  369MOL0     C50825  11.447   4.550   4.248  0.0538  0.9079  0.2285
  369MOL0     C50826  11.565   4.453   4.291 -0.5103  0.0195  0.2726
  369MOL0     C50827  11.579   4.438   4.435  0.5476 -0.3520  0.2655
  369MOL0     C50828  11.684   4.531   4.503  0.3512 -0.3698  0.0206
  369MOL0    Cl50829  11.852   4.488   4.466  0.0658  0.2271 -0.2305
  369MOL0     C50830  10.932   4.936   3.799  0.5476 -0.3982 -1.2802
  369MOL0     C50831  10.846   5.034   3.769  0.0106 -0.7107  0.3704
  369MOL0     O50832  10.872   5.339   3.676  0.8919 -0.0619 -0.2340
  369MOL0     C50833  10.696   5.550   3.660  0.1360  0.4185  0.0118
  369MOL0     C50834  10.603   5.641   3.611  0.0088 -0.4382  1.1592
  369MOL0     N50835   9.992   6.069   3.386  0.0100  0.3334  0.0529
  369MOL0     N50836   9.877   6.034   3.342  0.2037 -0.2269 -0.3338
  369MOL0     C50837  10.676   5.355   3.100  0.6456  0.1753  0.2888
  369MOL0     C50838  10.814   5.381   3.109  0.0630  0.1879  0.9109
  369MOL0     C50839  11.212   5.574   3.273 -0.2841 -0.2595 -0.3004
  369MOL0     C50840  11.220   5.680   3.186  0.3003  0.2087  0.0147
  369MOL0     C50841  11.340   5.741   3.148 -0.0888  0.4653 -0.5770
  369MOL0     C50842  11.462   5.693   3.186 -0.4888  0.5511  0.2760
  369MOL0     O50843  11.576   5.756   3.134  1.0233  0.2169 -0.4403
  369MOL0     C50844  11.620   5.686   3.010  0.1173 -0.0349  0.2933
  369MOL0     C50845  11.671   5.539   3.032  0.5634 -0.3489 -0.2428
  369MOL0     C50846  11.731   5.469   2.913  0.5393  0.2456  0.2736
  369MOL0     C50847  11.862   5.404   2.949  0.6093 -0.1269 -0.0799
  369MOL0     C50848  11.905   5.303   2.844  0.3864 -1.1143 -0.1057
  369MOL0     C50849  11.922   5.235   2.750 -1.1936  0.4889  0.5208
  369MOL0     C50850  11.452   5.589   3.281 -0.2494  0.4454  0.6804
  369MOL0     C50851  11.336   5.535   3.329 -0.5089  0.4163  0.2048
  369MOL0     C50852  11.341   5.438   3.439 -0.2448  0.6878 -0.5185
  369MOL0     H50853  10.820   5.464   3.437 -0.8425  0.3174  0.0198
  369MOL0     H50854  10.586   5.418   3.414  0.5213  3.7716 -1.0399
  369MOL0     H50855  10.353   5.380   3.382 -1.2287  1.6131  0.3354
  369MOL0     H50856  10.263   5.331   3.238  0.4281  1.6298 -1.9034
  369MOL0     H50857  10.439   5.579   3.264 -0.6319  2.7774 -3.3384
  369MOL0     H50858  10.353   5.518   3.117  1.9401 -2.4402 -0.1318
  369MOL0     H50859  10.225   5.576   3.387 -1.6507 -2.2024 -0.0965
  369MOL0     H50860  10.233   5.711   3.274 -2.0141  0.5300  0.3543
  369MOL0     H50861  10.073   5.617   3.120 -0.4779  0.3143  0.2537
  369MOL0     H50862  10.097   5.469   3.175 -0.4370 -0.2018 -0.5181
  369MOL0     H50863   9.976   5.545   3.401  1.2459 -0.5083 -0.0321
  369MOL0     H50864   9.874   5.532   3.257  1.1758 -1.8857 -0.2030
  369MOL0     H50865   9.997   5.798   3.342 -0.6681  1.2112 -0.7458
  369MOL0     H50866   9.864   5.770   3.228 -2.3132 -3.3627  0.5391
  369MOL0     H50867   9.843   5.729   3.532 -2.7460 -0.3754  1.2638
  369MOL0     H50868   9.737   5.653   3.406 -2.3701  2.1572 -1.7062
  369MOL0     H50869   9.685   5.888   3.335  3.7197  2.7792 -0.9743
  369MOL0     H50870   9.652   5.866   3.511 -1.3453 -1.1416 -0.9239
  369MOL0     H50871   9.847   5.969   3.665  0.1043  1.3863 -0.2840
  369MOL0     H50872  10.089   6.106   3.722 -3.7104  2.9771 -0.3097
  369MOL0     H50873  10.103   6.212   3.591 -3.3648 -0.4719  2.3119
  369MOL0     H50874  10.252   6.059   3.474  0.6007  2.8717  0.3933
  369MOL0     H50875  10.317   6.088   3.632 -0.8431  0.3045 -0.0286
  369MOL0     H50876  10.219   5.881   3.713 -2.4820  3.3989  1.6492
  369MOL0     H50877  10.143   5.852   3.562  0.0451  0.6019  0.3475
  369MOL0     H50878  10.388   5.868   3.459 -1.1614 -1.9293 -0.2382
  369MOL0     H50879  10.450   5.875   3.621  1.4336 -1.5320  0.6775
  369MOL0     H50880  10.326   5.441   3.623  1.5218 -5.5823 -1.1534
  369MOL0     H50881  10.539   5.181   3.664 -0.7267  2.2943 -2.4182
  369MOL0     H50882  10.378   5.216   3.656  1.1964 -1.0327 -0.4578
  369MOL0     H50883  10.445   5.241   3.814  0.7375 -1.4378  0.6425
  369MOL0     H50884  10.899   5.231   4.063 -0.3327  2.4315 -1.6080
  369MOL0     H50885  11.028   5.036   4.115  0.9784  1.2571 -0.9591
  369MOL0     H50886  11.253   4.852   3.866 -2.9921  5.4130 -0.6945
  369MOL0     H50887  11.255   4.927   4.025  1.8628 -0.5521 -1.2623
  369MOL0     H50888  11.216   4.698   4.132  1.6384 -0.4184  0.3687
  369MOL0     H50889  11.227   4.635   3.972  0.0845 -0.0836  0.6766
  369MOL0     H50890  11.438   4.780   4.133  0.9145  0.2556 -0.0312
  369MOL0     H50891  11.461   4.742   3.958 -1.8904 -0.7795 -1.4466
  369MOL0     H50892  11.576   4.576   4.080  0.3497 -3.9801  0.7895
  369MOL0     H50893  11.433   4.495   4.040 -0.0085  0.9095  0.1053
  369MOL0     H50894  11.460   4.648   4.296  1.4141  1.5416 -1.3472
  369MOL0     H50895  11.352   4.508   4.282 -0.4003  1.8332  0.1489
  369MOL0     H50896  11.655   4.503   4.254 -0.7470 -0.0036 -0.3543
  369MOL0     H50897  11.547   4.357   4.242 -1.1237  1.3500 -2.3316
  369MOL0     H50898  11.612   4.338   4.463  0.4401  0.1232  2.2346
  369MOL0     H50899  11.480   4.463   4.473 -0.2805  2.3595 -3.1206
  369MOL0     H50900  11.662   4.514   4.609 -0.6057 -3.2954 -0.5313
  369MOL0     H50901  11.669   4.638   4.486 -0.4996 -0.3523  0.8587
  369MOL0     H50902  10.933   4.846   3.738 -2.5196  0.7055 -3.2018
  369MOL0     H50903  10.777   5.020   3.686 -3.1154  1.6142  2.3634
  369MOL0     H50904  10.800   5.575   3.643 -0.2857  1.5849 -0.9789
  369MOL0     H50905  10.630   5.736   3.566 -2.5759 -1.2811 -2.6731
  369MOL0     H50906  10.640   5.306   3.010  3.8916 -1.2180 -0.3971
  369MOL0     H50907  10.875   5.384   3.020 -1.7142  0.1269 -0.3482
  369MOL0     H50908  11.121   5.720   3.166 -0.9085 -2.7253 -0.3126
  369MOL0     H50909  11.336   5.817   3.070  0.8835  0.7164 -0.3895
  369MOL0     H50910  11.535   5.675   2.941  1.7573  0.9505 -2.0070
  369MOL0     H50911  11.686   5.747   2.947  0.6413 -1.2731 -0.3952
  369MOL0     H50912  11.589   5.476   3.067  0.0315  0.3810 -0.1587
  369MOL0     H50913  11.744   5.540   3.113  2.1095 -3.2390 -1.4205
  369MOL0     H50914  11.662   5.390   2.883  1.2841  0.3894 -1.9806
  369MOL0     H50915  11.746   5.531   2.825 -1.0285 -1.6653 -1.4376
  369MOL0     H50916  11.839   5.353   3.043 -1.2644  4.6833  2.4118
  369MOL0     H50917  11.933   5.485   2.966  3.3053 -2.9929  4.2486
  369MOL0     H50918  11.960   5.171   2.673  0.7809 -3.7678  4.5241
  369MOL0     H50919  11.544   5.560   3.331  0.2348  3.8903  2.0877
  369MOL0     H50920  11.436   5.413   3.487 -2.0804 -2.4262  1.9375
  369MOL0     H50921  11.280   5.470   3.524 -1.8741 -0.1329 -1.3287
  369MOL0     H50922  11.305   5.340   3.406  1.8956 -1.3705  2.6861
  370MOL0     O50923   6.515   1.226   7.762  0.6724  0.1907 -0.1721
  370MOL0     C50924   6.431   1.262   7.689  0.4009  0.3398  0.0118
  370MOL0     O50925   6.453   1.355   7.590 -0.2559 -1.3182  0.3729
  370MOL0     C50926   6.578   1.402   7.564  1.0020  0.1394 -0.1059
  370MOL0     C50927   6.682   1.317   7.529 -0.5187 -0.8909  0.0903
  370MOL0     C50928   6.822   1.373   7.533 -0.4807  0.2659  0.4908
  370MOL0     C50929   6.846   1.500   7.565  1.4194 -0.2438 -0.8843
  370MOL0     O50930   6.974   1.536   7.554  0.7442  0.3207  0.5387
  370MOL0     C50931   6.998   1.658   7.481 -0.3571  0.4319  0.8548
  370MOL0     C50932   7.146   1.684   7.449  0.1994 -0.2960 -0.9756
  370MOL0     C50933   7.229   1.566   7.416  0.2499  0.3872  0.1931
  370MOL0     C50934   7.295   1.493   7.537 -0.7846 -0.5585  0.3552
  370MOL0     C50935   7.440   1.450   7.494  0.5163 -0.0683  0.1513
  370MOL0     C50936   7.472   1.322   7.576 -0.6124  1.4878 -0.8783
  370MOL0     C50937   7.590   1.256   7.509 -0.6330  0.3649  0.9266
  370MOL0     C50938   7.599   1.105   7.559 -0.5541  0.2174 -0.4344
  370MOL0     N50939   7.700   1.024   7.505  0.7927  0.6675 -0.1434
  370MOL0     C50940   7.806   1.054   7.431  1.1427 -0.8200  0.1845
  370MOL0     C50941   7.856   0.935   7.384  0.3084 -0.2740  0.6925
  370MOL0     C50942   7.984   0.912   7.302 -0.1563 -0.7487 -0.5676
  370MOL0     C50943   7.962   0.905   7.153  0.2729 -0.2127  0.0345
  370MOL0     C50944   8.080   0.948   7.067 -0.2892  0.0358 -0.3454
  370MOL0     C50945   8.038   0.964   6.915 -0.9710 -0.1365 -0.3191
  370MOL0     O50946   8.053   0.834   6.864  0.0421 -0.0391  0.2492
  370MOL0     C50947   8.183   0.791   6.828  0.9996  1.2270 -0.1447
  370MOL0     C50948   8.184   0.662   6.782 -1.7765  0.4105  0.6195
  370MOL0     C50949   8.288   0.608   6.704  0.0580  0.5435  0.7516
  370MOL0     C50950   8.264   0.479   6.625  0.2058 -0.1357  0.5685
  370MOL0     C50951   8.399   0.688   6.686 -0.4478  0.0706  0.7654
  370MOL0     C50952   8.507   0.651   6.589  0.0128 -0.5242 -0.1320
  370MOL0     O50953   8.546   0.518   6.569 -0.1972 -0.8436 -0.0455
  370MOL0     C50954   8.644   0.493   6.478  0.3511 -1.1949 -0.3128
  370MOL0     C50955   8.598   0.413   6.372 -0.9493  0.4385  0.8156
  370MOL0     C50956   8.691   0.360   6.282  0.2705 -0.2664 -0.6729
  370MOL0     C50957   8.826   0.400   6.283 -0.1569  0.9142 -0.1400
  370MOL0     O50958   8.917   0.351   6.192  0.1052 -0.1243  0.5331
  370MOL0     C50959   9.018   0.448   6.147  0.6762  0.5694 -0.8527
  370MOL0     C50960   9.164   0.416   6.183 -0.3117 -0.6268 -0.2987
  370MOL0     C50961   9.194   0.271   6.195 -0.7880  0.2611 -0.1288
  370MOL0     C50962   9.342   0.248   6.145  0.4759 -0.1663  0.5890
  370MOL0     C50963   9.375   0.095   6.159 -0.4402 -0.2497  0.5339
  370MOL0     C50964   9.378   0.046   6.307 -0.4502  0.4967  0.7342
  370MOL0     C50965   9.452   0.127   6.418 -0.2477 -0.2373 -0.1171
  370MOL0     C50966   9.554   0.051   6.503 -0.6832  0.2836 -0.5749
  370MOL0    Cl50967   9.627   0.164   6.618 -0.0176  0.3669 -0.3308
  370MOL0     C50968   8.865   0.489   6.381  0.0257 -0.0454  0.5594
  370MOL0     C50969   8.771   0.533   6.480 -0.2060  0.5239 -0.4043
  370MOL0     O50970   8.558   0.754   6.534 -0.2276  0.3426 -0.1008
  370MOL0     C50971   8.405   0.817   6.748 -1.0931  0.1528 -0.1511
  370MOL0     C50972   8.293   0.866   6.811 -0.2963 -0.8497  0.0792
  370MOL0     N50973   7.764   0.833   7.418  0.5954 -0.4545  0.5500
  370MOL0     N50974   7.681   0.887   7.488  0.5516 -0.7700 -0.7725
  370MOL0     C50975   6.732   1.591   7.583  0.1661  0.5859  0.4149
  370MOL0     C50976   6.600   1.538   7.586 -0.2580  0.1356 -0.2287
  370MOL0     C50977   6.296   1.223   7.707 -0.4580  0.6259  0.5207
  370MOL0     C50978   6.208   1.226   7.600 -0.4454  0.0806  0.3878
  370MOL0     C50979   6.074   1.183   7.612 -1.2826 -0.0872 -0.1641
  370MOL0     C50980   6.020   1.134   7.733  0.0284 -0.0512  0.1765
  370MOL0     O50981   5.889   1.099   7.741  0.4621 -0.5487  0.1573
  370MOL0     C50982   5.838   1.080   7.880  0.5769 -0.2976 -0.7217
  370MOL0     C50983   5.815   1.195   7.976  0.7394  0.1697 -0.3851
  370MOL0     C50984   5.760   1.169   8.119 -0.2642 -0.5075  0.5642
  370MOL0     C50985   5.712   1.300   8.181  0.4103  0.4236 -0.3100
  370MOL0     C50986   5.701   1.282   8.329  0.3907  0.1684  1.1521
  370MOL0     C50987   5.685   1.264   8.447  0.3602 -1.1470 -0.1727
  370MOL0     C50988   6.116   1.125   7.835  0.7851 -0.4986 -0.5563
  370MOL0     C50989   6.250   1.170   7.830 -0.4445 -0.5927  0.0687
  370MOL0     C50990   6.325   1.155   7.964  0.2516  0.2205  0.4499
  370MOL0     H50991   6.668   1.211   7.511 -0.0911 -0.7538 -1.1655
  370MOL0     H50992   6.901   1.312   7.492  3.4017  3.7052  2.1772
  370MOL0     H50993   6.946   1.745   7.522 -2.3723 -1.2008  2.0325
  370MOL0     H50994   6.958   1.657   7.379  4.0215 -0.3683 -1.0765
  370MOL0     H50995   7.149   1.760   7.370 -0.3985 -1.3330 -2.0349
  370MOL0     H50996   7.188   1.737   7.534 -0.7778  2.0989 -1.9011
  370MOL0     H50997   7.169   1.498   7.355 -0.8963 -0.3390  2.0415
  370MOL0     H50998   7.306   1.603   7.348 -0.6081  1.6404 -0.1282
  370MOL0     H50999   7.295   1.567   7.617  3.4148  0.0682 -0.0428
  370MOL0     H51000   7.224   1.415   7.566 -1.5256  0.2862  0.8845
  370MOL0     H51001   7.501   1.536   7.523  1.3717 -1.7419  3.9383
  370MOL0     H51002   7.451   1.423   7.388  0.1279 -1.7823  0.5151
  370MOL0     H51003   7.510   1.343   7.677  0.4541  0.4608 -1.0431
  370MOL0     H51004   7.390   1.252   7.587 -0.1070  0.8379 -1.1835
  370MOL0     H51005   7.689   1.295   7.532  0.1463 -0.7134 -0.4674
  370MOL0     H51006   7.584   1.257   7.400 -0.6750  0.4402  0.9298
  370MOL0     H51007   7.619   1.092   7.666  0.1266  0.3926 -0.5398
  370MOL0     H51008   7.504   1.053   7.544 -0.0526 -1.4015  1.4790
  370MOL0     H51009   7.860   1.147   7.424  0.4507 -0.4728 -0.8116
  370MOL0     H51010   8.023   0.818   7.343 -0.8024 -0.6526  0.2740
  370MOL0     H51011   8.057   0.991   7.323  1.9955 -2.3369 -1.6387
  370MOL0     H51012   7.922   0.808   7.124  0.0846  0.0938 -0.7657
  370MOL0     H51013   7.880   0.971   7.122 -0.1495 -0.2756  0.9830
  370MOL0     H51014   8.123   1.038   7.110 -0.6977 -1.0036  2.4824
  370MOL0     H51015   8.155   0.868   7.068 -2.8846 -2.6420  2.3533
  370MOL0     H51016   7.933   0.994   6.908 -1.4743 -2.0086 -1.8953
  370MOL0     H51017   8.094   1.043   6.864 -0.7777  1.8308  2.6535
  370MOL0     H51018   8.096   0.600   6.797  0.0115 -1.6595  3.5703
  370MOL0     H51019   8.330   0.399   6.660 -1.3512 -2.6523 -1.8453
  370MOL0     H51020   8.288   0.499   6.520  0.9420 -0.6552  0.6237
  370MOL0     H51021   8.157   0.462   6.641  0.6030 -1.3026  2.2891
  370MOL0     H51022   8.492   0.397   6.358 -0.5808 -0.1955 -1.7819
  370MOL0     H51023   8.661   0.280   6.214 -0.2886 -0.1537 -0.5607
  370MOL0     H51024   9.015   0.443   6.038 -0.9035 -2.9142 -0.7672
  370MOL0     H51025   8.994   0.553   6.168 -0.8699  1.1258 -4.5931
  370MOL0     H51026   9.208   0.464   6.095 -1.0682 -0.5379 -0.6351
  370MOL0     H51027   9.198   0.463   6.276 -0.8831  0.7646 -0.7588
  370MOL0     H51028   9.129   0.211   6.131 -1.2673 -1.9650  2.2751
  370MOL0     H51029   9.172   0.246   6.300 -0.9973  0.8985 -0.0161
  370MOL0     H51030   9.416   0.301   6.207 -0.1388  2.2202 -0.6013
  370MOL0     H51031   9.355   0.289   6.045 -5.5297 -0.1023 -0.4758
  370MOL0     H51032   9.311   0.038   6.091  0.5980 -1.5435  0.5951
  370MOL0     H51033   9.478   0.092   6.122  0.2131  3.1786  1.7115
  370MOL0     H51034   9.431  -0.049   6.309 -0.9212  0.2127  3.0842
  370MOL0     H51035   9.273   0.025   6.331 -2.0960  2.9069 -3.2781
  370MOL0     H51036   9.368   0.160   6.481 -0.0995  2.0511 -1.0423
  370MOL0     H51037   9.507   0.211   6.376  1.0072 -0.5973  0.7507
  370MOL0     H51038   9.633   0.015   6.437 -0.5604  1.0888 -0.8746
  370MOL0     H51039   9.510  -0.030   6.562  1.2690  0.7586  1.6812
  370MOL0     H51040   8.970   0.512   6.396  1.0089 -1.5853 -2.8508
  370MOL0     H51041   8.802   0.597   6.562 -1.4361  2.7132 -1.5650
  370MOL0     H51042   8.480   0.892   6.724 -0.5983 -0.4262 -0.4461
  370MOL0     H51043   8.301   0.967   6.849  0.5656 -1.6178  2.0729
  370MOL0     H51044   6.742   1.699   7.589  0.4317  1.0413 -4.4660
  370MOL0     H51045   6.519   1.606   7.611 -0.3303 -1.2314  4.0543
  370MOL0     H51046   6.234   1.271   7.505 -4.5547  2.4938  0.1477
  370MOL0     H51047   6.003   1.200   7.532 -0.6900  2.0368 -0.3186
  370MOL0     H51048   5.748   1.018   7.888  0.1570  0.5172  2.0141
  370MOL0     H51049   5.913   1.016   7.927 -2.8961 -1.9057  3.2430
  370MOL0     H51050   5.741   1.260   7.929 -0.2852 -0.1112  0.7669
  370MOL0     H51051   5.911   1.246   7.989 -0.7447  2.5468  2.2903
  370MOL0     H51052   5.682   1.092   8.112  0.2740 -0.9802 -0.4314
  370MOL0     H51053   5.842   1.121   8.174  2.2244  1.1117 -1.5322
  370MOL0     H51054   5.615   1.338   8.147 -0.0297  0.6094  1.0821
  370MOL0     H51055   5.789   1.375   8.165 -0.6873  1.6585  0.0158
  370MOL0     H51056   5.665   1.260   8.552  0.2931  2.2627  0.0698
  370MOL0     H51057   6.102   1.078   7.931  0.1187  0.7729 -0.0162
  370MOL0     H51058   6.259   1.192   8.043  0.0722 -0.2543  0.5262
  370MOL0     H51059   6.353   1.050   7.971 -0.1451 -0.3343 -3.7982
  370MOL0     H51060   6.418   1.213   7.956  0.1480  0.2403 -0.8159
  371MOL0     O51061   0.547   4.064   5.870  0.1714 -0.1448  0.4119
  371MOL0     C51062   0.581   4.014   5.977 -0.6596  0.3543 -0.7878
  371MOL0     O51063   0.524   4.030   6.097  0.2433 -0.4010 -0.4366
  371MOL0     C51064   0.446   4.138   6.126  0.0457 -0.4403 -0.3850
  371MOL0     C51065   0.461   4.267   6.078 -0.3015 -0.2511  0.0502
  371MOL0     C51066   0.371   4.369   6.112  0.4482  0.4752 -0.5580
  371MOL0     C51067   0.271   4.347   6.217 -0.0667 -0.9709 -0.6227
  371MOL0     O51068   0.208   4.453   6.286  1.0987 -0.5708  0.7670
  371MOL0     C51069   0.128   4.421   6.396 -0.3946  0.1902  0.4702
  371MOL0     C51070   0.222   4.388   6.512 -0.3746  0.0895  0.3383
  371MOL0     C51071   0.164   4.442   6.644  0.2388  0.6746 -0.2984
  371MOL0     C51072   0.172   4.588   6.665  0.2219  0.2209 -1.1398
  371MOL0     C51073   0.141   4.609   6.815  0.2293 -0.1408  0.5983
  371MOL0     C51074   0.117   4.755   6.861  0.4153  0.0382  0.0678
  371MOL0     C51075   0.247   4.827   6.845 -0.1000  0.1967 -0.2991
  371MOL0     C51076   0.240   4.978   6.878 -0.2268 -0.6368 -0.2991
  371MOL0     N51077   0.369   5.026   6.932  0.7603  1.2154  0.4641
  371MOL0     C51078   0.475   5.049   6.845  0.8931 -0.4276 -0.2219
  371MOL0     C51079   0.582   5.070   6.922 -0.7695 -0.1689  0.8163
  371MOL0     C51080   0.722   5.102   6.880  0.7890  0.5955 -0.4080
  371MOL0     C51081   0.774   5.035   6.752  0.0697  1.0295  0.0478
  371MOL0     C51082   0.760   4.880   6.753 -0.2971 -0.1350 -0.4433
  371MOL0     C51083   0.841   4.814   6.638 -0.3044  1.1370  1.1395
  371MOL0     O51084   0.977   4.844   6.652 -0.5821 -0.2922 -0.4666
  371MOL0     C51085   1.071   4.792   6.555 -0.2989 -0.5145 -0.7478
  371MOL0     C51086   1.203   4.835   6.575  0.1066  0.3407 -0.4582
  371MOL0     C51087   1.314   4.785   6.505  0.3408 -0.3100 -0.0992
  371MOL0     C51088   1.452   4.817   6.532 -0.4736  0.0016  0.3386
  371MOL0     C51089   1.292   4.681   6.408  0.1890 -0.0127 -0.8136
  371MOL0     C51090   1.388   4.623   6.312 -0.3251  0.3678 -0.0690
  371MOL0     O51091   1.484   4.711   6.260  0.6937  0.4962 -0.3407
  371MOL0     C51092   1.598   4.653   6.209  0.2126  0.8025 -0.4281
  371MOL0     C51093   1.630   4.691   6.082  0.0590  0.3200  0.1632
  371MOL0     C51094   1.744   4.632   6.028 -0.1020  0.1159  0.6222
  371MOL0     C51095   1.839   4.568   6.106 -0.7519  0.0713 -0.0877
  371MOL0     O51096   1.954   4.516   6.062  0.5804 -0.0675 -1.1117
  371MOL0     C51097   2.023   4.563   5.943 -0.7379  0.3171 -0.3181
  371MOL0     C51098   2.062   4.458   5.836 -0.1463  0.5073 -0.9751
  371MOL0     C51099   1.941   4.390   5.771  0.9093 -0.1059 -0.1626
  371MOL0     C51100   1.965   4.347   5.634 -0.1373  0.7170 -0.5962
  371MOL0     C51101   1.853   4.272   5.566 -0.0817 -0.6998 -0.0911
  371MOL0     C51102   1.878   4.247   5.408 -0.1415 -0.4006  0.1795
  371MOL0     C51103   1.802   4.132   5.351  0.0212 -0.2256  0.4221
  371MOL0     C51104   1.777   4.114   5.204 -0.2722  0.1011  0.0515
  371MOL0    Cl51105   1.692   4.265   5.140 -0.2260 -0.0789 -0.1753
  371MOL0     C51106   1.809   4.541   6.246 -0.8862  0.0358  0.0133
  371MOL0     C51107   1.684   4.580   6.287 -0.0014 -0.2314 -1.0328
  371MOL0     O51108   1.372   4.506   6.285  0.3657 -0.4346 -0.7452
  371MOL0     C51109   1.155   4.639   6.390  0.4156 -0.6850 -0.3148
  371MOL0     C51110   1.053   4.698   6.461  0.1577  0.0571 -0.2880
  371MOL0     N51111   0.547   5.061   7.054  0.3851  0.1364 -0.1212
  371MOL0     N51112   0.422   5.026   7.056 -0.3612  0.2258  0.0876
  371MOL0     C51113   0.253   4.211   6.255  0.0997  0.2694  0.2249
  371MOL0     C51114   0.336   4.109   6.214 -0.6279  0.0851  0.7239
  371MOL0     C51115   0.684   3.902   5.962 -0.6469  0.5637 -0.1457
  371MOL0     C51116   0.662   3.782   6.028  0.6404  0.0764 -0.1556
  371MOL0     C51117   0.747   3.667   6.010 -0.8557 -0.7721  0.0926
  371MOL0     C51118   0.861   3.675   5.934 -0.3997 -0.0941  0.4403
  371MOL0     O51119   0.955   3.578   5.922 -0.2638 -0.1538  0.7462
  371MOL0     C51120   0.995   3.515   6.039  0.4496 -0.3625  0.1361
  371MOL0     C51121   1.138   3.460   6.028 -0.1024 -0.5205  0.3697
  371MOL0     C51122   1.242   3.570   5.998  0.6917  0.7075  0.0754
  371MOL0     C51123   1.304   3.613   6.135 -1.1377  0.3354 -0.1845
  371MOL0     C51124   1.449   3.661   6.135  0.2593 -0.0127  1.2445
  371MOL0     C51125   1.569   3.690   6.112 -0.7267 -0.4748  0.2591
  371MOL0     C51126   0.885   3.802   5.878  0.5712 -0.7253 -0.7599
  371MOL0     C51127   0.800   3.907   5.882  0.0260  0.0630 -0.0224
  371MOL0     C51128   0.846   4.033   5.806 -0.8774 -1.6665 -0.5229
  371MOL0     H51129   0.550   4.296   6.025 -0.3397  0.1023  0.1773
  371MOL0     H51130   0.383   4.469   6.071 -0.2506  1.3321  1.2038
  371MOL0     H51131   0.064   4.334   6.378 -1.2735  0.6341  1.3926
  371MOL0     H51132   0.062   4.501   6.430  2.1934  2.1000  1.4153
  371MOL0     H51133   0.232   4.279   6.508  1.1077  0.1770 -3.3175
  371MOL0     H51134   0.321   4.428   6.488 -1.4924  1.3725 -2.6244
  371MOL0     H51135   0.061   4.409   6.658  0.2960  1.7282  4.1283
  371MOL0     H51136   0.217   4.392   6.726  0.2111  1.5001  0.2372
  371MOL0     H51137   0.277   4.618   6.657  0.7273 -1.1330  0.1039
  371MOL0     H51138   0.106   4.637   6.593  1.5573  2.2773 -1.0634
  371MOL0     H51139   0.227   4.573   6.873  1.5487  1.1779 -0.4534
  371MOL0     H51140   0.052   4.550   6.841 -0.3036  1.8216  3.7001
  371MOL0     H51141   0.041   4.804   6.799  2.6921  2.1340 -1.2645
  371MOL0     H51142   0.079   4.758   6.963 -1.4212  0.6266 -0.5930
  371MOL0     H51143   0.293   4.816   6.747  3.0268  1.0597  0.9565
  371MOL0     H51144   0.318   4.783   6.916  0.5019  0.9681 -0.4182
  371MOL0     H51145   0.207   5.033   6.790  0.1955 -0.1191 -0.1397
  371MOL0     H51146   0.158   4.993   6.948  0.5785 -0.5054  0.6425
  371MOL0     H51147   0.464   5.046   6.737 -2.8902 -0.1400  0.0307
  371MOL0     H51148   0.783   5.068   6.965  0.8385  1.9170  0.1093
  371MOL0     H51149   0.726   5.211   6.871 -3.1084  0.6485 -4.8908
  371MOL0     H51150   0.719   5.071   6.664  0.8198  1.0181 -0.4391
  371MOL0     H51151   0.876   5.069   6.730  0.1041  1.0404  0.2284
  371MOL0     H51152   0.808   4.837   6.842  1.9531 -2.1622 -2.4808
  371MOL0     H51153   0.653   4.856   6.760 -0.3051 -0.2694 -1.0002
  371MOL0     H51154   0.841   4.708   6.664  0.3206  0.7524 -0.3191
  371MOL0     H51155   0.802   4.828   6.537 -1.4918 -2.1425  1.0238
  371MOL0     H51156   1.226   4.908   6.652  0.6473  0.3408 -0.6158
  371MOL0     H51157   1.497   4.722   6.562  0.8237 -0.1177 -1.7514
  371MOL0     H51158   1.465   4.896   6.606 -4.1550  1.0616  0.0591
  371MOL0     H51159   1.500   4.846   6.438 -1.3431 -1.6911 -0.6740
  371MOL0     H51160   1.552   4.746   6.031  0.1178  0.1622 -0.1007
  371MOL0     H51161   1.745   4.654   5.922  1.1064  2.5600  1.0766
  371MOL0     H51162   1.974   4.651   5.899 -1.1503 -0.4167 -1.3729
  371MOL0     H51163   2.125   4.594   5.968 -1.3098  1.5966  0.5062
  371MOL0     H51164   2.138   4.498   5.769 -2.7555  2.4371 -3.0057
  371MOL0     H51165   2.110   4.376   5.891 -3.1358 -0.6679  0.0948
  371MOL0     H51166   1.860   4.464   5.771 -1.4920 -2.5030  1.5552
  371MOL0     H51167   1.910   4.313   5.842  0.2341  0.2769 -0.0279
  371MOL0     H51168   2.049   4.278   5.643 -0.2803  0.6701  0.4836
  371MOL0     H51169   2.008   4.429   5.575 -1.3190  2.6398  1.0956
  371MOL0     H51170   1.844   4.176   5.619 -0.1176  0.0910  1.3675
  371MOL0     H51171   1.763   4.333   5.580 -0.5203 -1.3812  0.1130
  371MOL0     H51172   1.986   4.228   5.399 -0.6092 -2.1867 -2.3417
  371MOL0     H51173   1.854   4.337   5.351 -0.2732  0.7904  2.0228
  371MOL0     H51174   1.701   4.145   5.391 -0.1836  1.7348 -0.5936
  371MOL0     H51175   1.856   4.045   5.390  0.0305  0.7984  2.9019
  371MOL0     H51176   1.725   4.018   5.200 -0.6680  0.3274 -0.2388
  371MOL0     H51177   1.876   4.102   5.159 -1.0491 -0.3512 -1.6227
  371MOL0     H51178   1.871   4.489   6.319 -1.2306 -0.1193  0.1952
  371MOL0     H51179   1.641   4.542   6.379 -0.5969 -0.0527 -1.2377
  371MOL0     H51180   1.126   4.579   6.304 -1.9862  1.1999 -0.8934
  371MOL0     H51181   0.948   4.670   6.451  0.4997 -2.3399  1.7155
  371MOL0     H51182   0.188   4.169   6.330  0.7667 -1.1607  0.0393
  371MOL0     H51183   0.301   4.007   6.227 -3.1337  0.8883  0.8216
  371MOL0     H51184   0.576   3.774   6.094  0.5339  1.3731 -0.1250
  371MOL0     H51185   0.722   3.575   6.062  0.8479 -1.1596  0.2977
  371MOL0     H51186   1.004   3.586   6.122 -1.7307 -1.0770  1.0321
  371MOL0     H51187   0.928   3.434   6.065  1.6202 -0.9255  1.5074
  371MOL0     H51188   1.149   3.391   5.944  0.0797 -1.4935  1.1744
  371MOL0     H51189   1.160   3.404   6.120 -0.0121 -0.6399  0.2755
  371MOL0     H51190   1.324   3.550   5.928 -1.6461  0.9517 -2.9396
  371MOL0     H51191   1.191   3.656   5.955 -0.7611 -0.6357 -0.9840
  371MOL0     H51192   1.298   3.529   6.206  2.0838 -0.9845 -1.2604
  371MOL0     H51193   1.251   3.703   6.166 -5.2565 -1.2856 -1.8861
  371MOL0     H51194   1.664   3.732   6.086 -0.5089 -0.0559  1.6561
  371MOL0     H51195   0.984   3.819   5.837 -0.1170  1.9915 -1.5425
  371MOL0     H51196   0.851   4.008   5.700 -0.0475 -1.7897 -0.4604
  371MOL0     H51197   0.779   4.119   5.816  1.2926  0.0922 -0.2067
  371MOL0     H51198   0.944   4.071   5.836 -0.4641 -1.7071 -1.7427
  372MOL0     O51199   1.462   0.604   2.307 -0.3269  0.3159 -0.3298
  372MOL0     C51200   1.369   0.527   2.292 -0.3943 -0.4579 -0.5407
  372MOL0     O51201   1.379   0.394   2.248  0.1802 -0.4501  0.8560
  372MOL0     C51202   1.483   0.315   2.276  0.6277 -0.0533  0.2134
  372MOL0     C51203   1.590   0.336   2.364  0.5711 -1.1354 -0.6714
  372MOL0     C51204   1.698   0.245   2.369 -0.1684 -0.1822  0.3062
  372MOL0     C51205   1.697   0.125   2.293  0.3892 -0.2545 -0.0619
  372MOL0     O51206   1.804   0.039   2.311  0.3890  0.1879 -0.5834
  372MOL0     C51207   1.846  -0.041   2.196  0.3697 -0.4886 -0.0624
  372MOL0     C51208   1.922   0.055   2.099  0.4283  0.2518  0.3873
  372MOL0     C51209   2.008  -0.015   1.983 -0.6890 -1.2960 -0.2586
  372MOL0     C51210   2.123  -0.090   2.052  1.5681  0.5456 -0.3491
  372MOL0     C51211   2.222  -0.014   2.148 -0.6275 -0.7934  0.1338
  372MOL0     C51212   2.321   0.067   2.070 -0.1428 -1.0268 -0.0967
  372MOL0     C51213   2.422   0.154   2.147 -0.2607  0.4750 -1.1510
  372MOL0     C51214   2.516   0.067   2.244 -0.4294 -0.0783  0.2223
  372MOL0     N51215   2.637   0.138   2.271 -0.1323  0.4136 -0.2016
  372MOL0     C51216   2.728   0.094   2.361  0.8076  0.2280 -0.1711
  372MOL0     C51217   2.783   0.203   2.412  0.1963 -0.0270  0.2523
  372MOL0     C51218   2.889   0.188   2.513  0.4092  0.7080 -0.6322
  372MOL0     C51219   2.861   0.266   2.645  0.1099 -0.2455  0.2811
  372MOL0     C51220   2.781   0.198   2.759  0.5012  0.3750  0.0909
  372MOL0     C51221   2.634   0.157   2.721 -1.1760  0.1730  0.3146
  372MOL0     O51222   2.651   0.021   2.655  0.0931 -0.4340 -0.0876
  372MOL0     C51223   2.543  -0.042   2.602  0.0763 -0.9557  0.7534
  372MOL0     C51224   2.561  -0.170   2.543 -0.1458  0.3337 -0.1958
  372MOL0     C51225   2.451  -0.238   2.493  0.1181 -0.2081  0.5902
  372MOL0     C51226   2.494  -0.381   2.449  0.7812 -0.0879 -0.1337
  372MOL0     C51227   2.317  -0.179   2.492  0.2915 -0.0795 -0.4281
  372MOL0     C51228   2.198  -0.258   2.451 -1.0612 -0.1094  0.2550
  372MOL0     O51229   2.225  -0.360   2.374 -0.3069  0.3106  0.7154
  372MOL0     C51230   2.129  -0.434   2.329  1.0832  0.6686  0.0434
  372MOL0     C51231   2.062  -0.513   2.420  0.3441  0.0965  0.2701
  372MOL0     C51232   1.975  -0.621   2.382 -0.4435  0.1790  0.1301
  372MOL0     C51233   1.968  -0.658   2.242  0.0199 -0.7328  0.3315
  372MOL0     O51234   1.897  -0.764   2.186  0.9181 -1.0844  0.3805
  372MOL0     C51235   1.793  -0.829   2.259 -0.2298 -0.4233 -0.1501
  372MOL0     C51236   1.694  -0.886   2.162  0.8850 -0.0713  0.2503
  372MOL0     C51237   1.764  -0.992   2.063 -0.0308 -0.7456  0.4958
  372MOL0     C51238   1.803  -0.920   1.933  0.5720 -0.3703 -0.3375
  372MOL0     C51239   1.937  -0.982   1.892  0.0496  0.2184  0.1056
  372MOL0     C51240   1.979  -0.917   1.760  1.2206  0.6991 -0.1611
  372MOL0     C51241   2.107  -0.994   1.719 -0.0708 -0.4305 -1.0369
  372MOL0     C51242   2.182  -0.936   1.602  0.0868  0.0027 -0.4668
  372MOL0    Cl51243   2.297  -0.802   1.641 -0.0553 -0.3885 -0.2072
  372MOL0     C51244   2.043  -0.571   2.152 -0.4633 -0.2347 -1.3074
  372MOL0     C51245   2.115  -0.461   2.192 -0.1776 -0.3869  0.2744
  372MOL0     O51246   2.096  -0.213   2.482  0.4319 -0.2793 -0.2090
  372MOL0     C51247   2.310  -0.046   2.536 -0.1400  1.5331 -0.2843
  372MOL0     C51248   2.415   0.015   2.592 -0.3118  0.7237  0.4010
  372MOL0     N51249   2.728   0.319   2.359  0.2942  0.1457 -0.3778
  372MOL0     N51250   2.634   0.279   2.280 -0.2207  0.7493 -0.4927
  372MOL0     C51251   1.585   0.100   2.209  0.7749 -0.1061  0.1291
  372MOL0     C51252   1.484   0.195   2.200  0.7356  0.3684  0.3087
  372MOL0     C51253   1.232   0.573   2.326  0.6638  0.2894 -1.0659
  372MOL0     C51254   1.123   0.518   2.254  0.0617 -0.7787  1.5423
  372MOL0     C51255   0.994   0.536   2.292  0.3702 -0.5738 -0.4294
  372MOL0     C51256   0.956   0.607   2.398 -0.0415 -0.4203 -0.2899
  372MOL0     O51257   0.828   0.627   2.435 -0.2799  0.5298  0.0309
  372MOL0     C51258   0.746   0.734   2.383 -0.7463 -0.5102  0.7404
  372MOL0     C51259   0.598   0.701   2.385 -0.1621  0.6589 -0.5774
  372MOL0     C51260   0.514   0.772   2.274  0.5601 -0.4263  0.2100
  372MOL0     C51261   0.384   0.695   2.240  0.0873 -0.2928 -0.2411
  372MOL0     C51262   0.273   0.786   2.212  0.0563 -0.4689 -0.1893
  372MOL0     C51263   0.188   0.868   2.184  0.0267 -0.3500  0.8047
  372MOL0     C51264   1.062   0.662   2.468 -0.1230  0.0425  0.0280
  372MOL0     C51265   1.199   0.648   2.439  0.2231 -0.1059  1.5161
  372MOL0     C51266   1.301   0.703   2.537 -0.0111 -0.5806  0.1755
  372MOL0     H51267   1.579   0.425   2.424  1.5489 -1.0504 -0.5981
  372MOL0     H51268   1.782   0.274   2.432 -1.3229 -0.0069  1.8176
  372MOL0     H51269   1.761  -0.084   2.143 -0.3268 -1.8133  2.0049
  372MOL0     H51270   1.902  -0.129   2.230 -3.6998 -2.8091  1.3166
  372MOL0     H51271   1.857   0.121   2.041  0.3978 -2.4282 -3.0043
  372MOL0     H51272   1.989   0.117   2.158  3.6537 -1.2840 -1.3743
  372MOL0     H51273   1.950  -0.092   1.931 -0.6951 -0.3986 -1.6484
  372MOL0     H51274   2.040   0.054   1.904 -1.9511 -1.5259 -1.0073
  372MOL0     H51275   2.082  -0.173   2.111  2.8410 -0.1408 -0.4010
  372MOL0     H51276   2.176  -0.142   1.972 -1.7747 -1.4038 -1.5311
  372MOL0     H51277   2.278  -0.083   2.211 -2.8450 -0.3070  2.8217
  372MOL0     H51278   2.166   0.047   2.219 -2.1228 -2.4573  0.4492
  372MOL0     H51279   2.379   0.004   2.002  1.8074  3.8851 -3.4564
  372MOL0     H51280   2.275   0.130   1.994 -1.8672 -2.1286 -0.0179
  372MOL0     H51281   2.386   0.241   2.204  0.6186  0.3698 -0.4124
  372MOL0     H51282   2.491   0.205   2.079  0.2860  0.9354 -0.2771
  372MOL0     H51283   2.455   0.040   2.331 -0.7267 -3.3806 -0.8455
  372MOL0     H51284   2.541  -0.029   2.197 -3.0367 -0.3729 -0.7594
  372MOL0     H51285   2.735  -0.012   2.384  3.4792  0.3742  0.0527
  372MOL0     H51286   2.982   0.229   2.474  0.8472 -1.6305 -2.2334
  372MOL0     H51287   2.913   0.084   2.537 -0.8078  0.8876  1.6589
  372MOL0     H51288   2.955   0.317   2.669  0.4163  0.7863 -2.6770
  372MOL0     H51289   2.805   0.353   2.608  1.8107  0.6979 -0.1927
  372MOL0     H51290   2.834   0.109   2.794  1.2538  0.4195 -0.9071
  372MOL0     H51291   2.771   0.268   2.842 -1.0964 -0.3389  0.5458
  372MOL0     H51292   2.573   0.128   2.807 -3.2892 -1.1504 -1.5220
  372MOL0     H51293   2.583   0.230   2.659 -0.0423  0.6608 -0.0629
  372MOL0     H51294   2.660  -0.214   2.551 -0.0338  0.4798 -0.7383
  372MOL0     H51295   2.593  -0.408   2.487 -0.1207 -0.5055  2.1023
  372MOL0     H51296   2.492  -0.377   2.340 -0.1389 -3.8739 -0.3753
  372MOL0     H51297   2.424  -0.458   2.481  1.2057  0.2144  1.6146
  372MOL0     H51298   2.072  -0.477   2.522  2.7874  1.8616 -0.4971
  372MOL0     H51299   1.912  -0.675   2.452 -0.3382 -0.4798 -0.2734
  372MOL0     H51300   1.857  -0.898   2.315 -0.2947 -1.2346 -1.0436
  372MOL0     H51301   1.741  -0.761   2.327 -0.3099  1.5203 -2.0626
  372MOL0     H51302   1.614  -0.945   2.210 -1.1403  1.2413 -1.3446
  372MOL0     H51303   1.634  -0.814   2.105 -1.0693 -1.4217  0.4973
  372MOL0     H51304   1.709  -1.087   2.058 -3.4352  0.9179  2.6438
  372MOL0     H51305   1.853  -1.030   2.114  0.0246  1.1920  1.9455
  372MOL0     H51306   1.820  -0.814   1.951 -1.2430  0.2071 -1.7106
  372MOL0     H51307   1.728  -0.919   1.853  1.2636  1.6680 -1.0225
  372MOL0     H51308   2.008  -0.961   1.972 -2.3351 -1.3695  2.8457
  372MOL0     H51309   1.929  -1.091   1.892 -4.1736  0.2954 -2.2043
  372MOL0     H51310   1.995  -0.809   1.753  2.9198  0.4954  0.2282
  372MOL0     H51311   1.891  -0.952   1.706 -1.6959 -1.5322  5.1998
  372MOL0     H51312   2.075  -1.098   1.704  0.1427 -1.0035  1.8464
  372MOL0     H51313   2.174  -1.002   1.805 -0.6298 -0.5381 -0.6043
  372MOL0     H51314   2.102  -0.906   1.534  0.4414  0.0551 -0.8663
  372MOL0     H51315   2.228  -1.026   1.558 -2.6710 -1.5623 -0.3480
  372MOL0     H51316   2.034  -0.576   2.044 -2.0096 -1.3735 -1.1604
  372MOL0     H51317   2.155  -0.393   2.118 -1.4986  0.0620 -0.0598
  372MOL0     H51318   2.214   0.004   2.547  1.3722  4.2167  1.8203
  372MOL0     H51319   2.391   0.112   2.636 -4.0354  1.2091 -2.2600
  372MOL0     H51320   1.566   0.011   2.149  2.4000 -1.3232  1.3450
  372MOL0     H51321   1.401   0.174   2.133  0.3244 -0.2781  1.0007
  372MOL0     H51322   1.161   0.459   2.171  0.7370  3.3523 -1.3904
  372MOL0     H51323   0.910   0.487   2.245 -0.5340 -0.3166  0.8700
  372MOL0     H51324   0.738   0.827   2.441  1.7337 -1.4345  2.7304
  372MOL0     H51325   0.771   0.768   2.282  0.3078  2.0124  1.7528
  372MOL0     H51326   0.561   0.711   2.488 -4.3752  0.8456 -1.9259
  372MOL0     H51327   0.573   0.597   2.365  1.4625  0.5002 -1.9257
  372MOL0     H51328   0.494   0.877   2.298 -0.6893 -0.5071 -0.3905
  372MOL0     H51329   0.567   0.772   2.179 -1.5879  0.7688 -1.0805
  372MOL0     H51330   0.356   0.643   2.332 -0.0676 -2.0938 -1.2645
  372MOL0     H51331   0.411   0.628   2.158  1.1729 -0.0572 -0.0989
  372MOL0     H51332   0.123   0.947   2.152  3.2986  2.1852 -0.0923
  372MOL0     H51333   1.030   0.716   2.557 -0.8845 -5.3424  3.5366
  372MOL0     H51334   1.310   0.635   2.622 -0.5711 -2.0008 -0.8782
  372MOL0     H51335   1.402   0.712   2.495 -0.1270 -0.1628 -0.0241
  372MOL0     H51336   1.279   0.804   2.573 -0.2116 -1.3313  2.2923
  373MOL0     O51337   0.959  11.364  10.184 -0.7413  0.5665 -0.1958
  373MOL0     C51338   1.067  11.420  10.185 -0.2750 -0.3961  1.3437
  373MOL0     O51339   1.119  11.461  10.297 -0.0035  0.1276  0.2969
  373MOL0     C51340   1.172  11.369  10.390 -0.2678 -1.0186  0.3016
  373MOL0     C51341   1.308  11.387  10.421  0.2399  0.3565  0.0664
  373MOL0     C51342   1.362  11.315  10.527 -0.3397 -0.4884 -0.2713
  373MOL0     C51343   1.289  11.205  10.577 -0.4987 -0.5211 -0.7354
  373MOL0     O51344   1.344  11.118  10.676 -0.0145 -0.2845 -0.1853
  373MOL0     C51345   1.418  11.013  10.599  0.2637 -0.4249 -0.2777
  373MOL0     C51346   1.506  10.932  10.683 -0.0590  0.2295 -0.0806
  373MOL0     C51347   1.438  10.851  10.789  0.6025  0.4468  0.4972
  373MOL0     C51348   1.396  10.715  10.741 -0.1294 -0.0982 -0.0685
  373MOL0     C51349   1.307  10.637  10.836 -0.0535  0.1664 -0.3637
  373MOL0     C51350   1.379  10.586  10.950 -0.9156 -0.1288  0.2338
  373MOL0     C51351   1.287  10.506  11.050  0.2203 -0.0021  0.0644
  373MOL0     C51352   1.366  10.449  11.160  0.5881  0.1016 -0.0674
  373MOL0     N51353   1.280  10.360  11.251 -0.2769 -0.0044 -0.2827
  373MOL0     C51354   1.236  10.406  11.369  0.3062 -0.3868 -0.2209
  373MOL0     C51355   1.198  10.298  11.442 -0.2162 -0.2543  0.6847
  373MOL0     C51356   1.147  10.298  11.587  0.7544 -0.6461 -0.7184
  373MOL0     C51357   0.992  10.327  11.598 -0.5782  0.6951 -0.4474
  373MOL0     C51358   0.949  10.293  11.751  0.6986 -0.6197  0.5297
  373MOL0     C51359   1.060  10.334  11.854  0.8883  0.4365 -0.1566
  373MOL0     O51360   1.013  10.332  11.994 -0.5625 -0.1999  0.8709
  373MOL0     C51361   0.958  10.440  12.052  0.6219 -0.3331  1.2646
  373MOL0     C51362   0.892  10.537  11.982 -0.4882 -0.5469 -0.9972
  373MOL0     C51363   0.836  10.642  12.060 -0.2513 -0.7259  0.4198
  373MOL0     C51364   0.762  10.757  11.988 -0.2057 -0.2891 -0.7442
  373MOL0     C51365   0.842  10.644  12.210  0.7278 -0.0439  1.3182
  373MOL0     C51366   0.784  10.743  12.307  0.6268  0.0638  0.6423
  373MOL0     O51367   0.756  10.714  12.435  0.3741  0.0959 -0.3806
  373MOL0     C51368   0.762  10.800  12.542  0.9886  0.0866 -0.0576
  373MOL0     C51369   0.870  10.876  12.570 -0.8822 -0.7186  0.3899
  373MOL0     C51370   0.886  10.944  12.685 -0.3829 -0.1071  0.3480
  373MOL0     C51371   0.803  10.925  12.789  0.1913 -0.4239 -0.2254
  373MOL0     O51372   0.790  11.007  12.903 -0.2565 -0.1483  0.6700
  373MOL0     C51373   0.913  11.054  12.971 -0.2088 -0.3971 -0.3031
  373MOL0     C51374   0.922  11.011  13.118 -0.0208 -0.5451 -0.8440
  373MOL0     C51375   0.792  11.037  13.199 -0.3837 -0.1114  0.6817
  373MOL0     C51376   0.812  11.076  13.341  0.1990 -0.7601 -0.2508
  373MOL0     C51377   0.873  11.219  13.346  0.3275 -0.1736  0.3764
  373MOL0     C51378   0.966  11.228  13.470 -0.0397  0.2880 -0.6406
  373MOL0     C51379   0.886  11.245  13.601 -0.2764  0.4624 -0.6111
  373MOL0     C51380   0.879  11.396  13.646 -1.1492 -0.7530  0.8054
  373MOL0    Cl51381   0.752  11.490  13.555  0.4937 -0.5185  0.1549
  373MOL0     C51382   0.701  10.831  12.774 -0.3627 -0.2427 -0.3415
  373MOL0     C51383   0.685  10.764  12.650  0.4098  0.1980 -0.6989
  373MOL0     O51384   0.763  10.850  12.257 -0.4491 -0.3283 -0.9382
  373MOL0     C51385   0.912  10.537  12.266 -0.4469 -0.6834 -0.5487
  373MOL0     C51386   0.966  10.438  12.188  0.8242  0.1259 -0.1118
  373MOL0     N51387   1.207  10.181  11.353 -0.3612 -0.7842  0.0155
  373MOL0     N51388   1.257  10.223  11.239  0.0152 -0.1621 -0.9907
  373MOL0     C51389   1.155  11.187  10.536 -0.4831 -0.4084 -0.4137
  373MOL0     C51390   1.098  11.269  10.444 -0.4371 -0.7952  0.2169
  373MOL0     C51391   1.107  11.471  10.046  1.6849  0.0400 -0.1413
  373MOL0     C51392   1.029  11.432   9.938  0.0683  0.7713  0.2233
  373MOL0     C51393   1.045  11.465   9.800  0.4090 -0.7499 -0.6052
  373MOL0     C51394   1.167  11.544   9.775  0.0724 -0.3569 -0.1202
  373MOL0     O51395   1.184  11.567   9.641  0.5663 -0.1662  0.3476
  373MOL0     C51396   1.280  11.656   9.585 -0.5016 -0.4854 -0.8401
  373MOL0     C51397   1.231  11.799   9.605  0.3023 -0.3303 -0.2433
  373MOL0     C51398   1.110  11.838   9.516 -0.6983  0.4102 -1.1346
  373MOL0     C51399   0.982  11.836   9.590  0.5052  0.9045 -0.6870
  373MOL0     C51400   0.871  11.869   9.499 -0.1125  0.9946  0.1316
  373MOL0     C51401   0.781  11.879   9.422  0.6858 -0.6241  0.3693
  373MOL0     C51402   1.250  11.591   9.879  0.8831 -0.6065 -0.2585
  373MOL0     C51403   1.223  11.560  10.010  0.7607 -0.4667  0.2389
  373MOL0     C51404   1.299  11.628  10.117  0.4002 -0.2203  0.8782
  373MOL0     H51405   1.361  11.479  10.396 -1.2213  1.7664  1.8648
  373MOL0     H51406   1.458  11.352  10.561 -2.2258  4.4952  0.4832
  373MOL0     H51407   1.474  11.051  10.513  1.2176  0.3972  0.6747
  373MOL0     H51408   1.341  10.945  10.561  1.0833 -2.2037  1.0730
  373MOL0     H51409   1.564  10.864  10.620 -0.2499 -2.9002  2.8578
  373MOL0     H51410   1.574  10.996  10.740 -0.0132 -0.7623  1.0120
  373MOL0     H51411   1.508  10.821  10.868  0.0544  0.6499  1.0675
  373MOL0     H51412   1.353  10.907  10.828 -1.3280 -2.1064  0.1988
  373MOL0     H51413   1.338  10.725  10.648 -0.1488  0.7223  0.0182
  373MOL0     H51414   1.482  10.651  10.722 -0.3508 -0.2762 -0.5047
  373MOL0     H51415   1.267  10.553  10.781  0.5306 -0.2581 -0.1532
  373MOL0     H51416   1.222  10.697  10.871 -1.0807 -2.6733  2.5671
  373MOL0     H51417   1.464  10.523  10.921 -1.2696  0.3370 -1.9856
  373MOL0     H51418   1.424  10.671  11.003  2.4865 -1.4766 -0.1802
  373MOL0     H51419   1.226  10.426  11.007  1.4594 -0.9399  0.0080
  373MOL0     H51420   1.219  10.580  11.093 -0.6045 -0.8810  0.3111
  373MOL0     H51421   1.440  10.380  11.117  0.0160  0.0463 -0.9865
  373MOL0     H51422   1.414  10.526  11.220 -1.0381  2.1705 -1.3036
  373MOL0     H51423   1.239  10.513  11.385 -2.1062 -0.1380 -1.0096
  373MOL0     H51424   1.194  10.377  11.646 -0.9432 -1.0256  1.2434
  373MOL0     H51425   1.158  10.206  11.644  1.5368  1.0129  1.9911
  373MOL0     H51426   0.971  10.432  11.576  1.7906  1.6072  1.3226
  373MOL0     H51427   0.937  10.269  11.523 -0.6516 -0.8385  0.7486
  373MOL0     H51428   0.861  10.355  11.773  1.2725  1.2288 -1.8732
  373MOL0     H51429   0.914  10.191  11.772 -2.3487  0.6657  2.3579
  373MOL0     H51430   1.133  10.253  11.844  0.2374 -0.0611 -0.8844
  373MOL0     H51431   1.087  10.434  11.818  0.0217  0.0452 -1.9789
  373MOL0     H51432   0.870  10.534  11.876 -1.1392 -3.0970 -0.8527
  373MOL0     H51433   0.755  10.739  11.881  1.0718 -0.6314 -0.7873
  373MOL0     H51434   0.807  10.855  12.004 -1.4893  0.1296  0.5147
  373MOL0     H51435   0.660  10.764  12.028 -0.3458  0.3860 -1.2051
  373MOL0     H51436   0.949  10.895  12.498 -1.5110  2.6327  0.4031
  373MOL0     H51437   0.959  11.025  12.684 -0.9417  0.4428 -2.4578
  373MOL0     H51438   1.010  11.020  12.932  1.6511  1.8127  2.0388
  373MOL0     H51439   0.926  11.162  12.979 -0.9529 -0.3862  1.1216
  373MOL0     H51440   0.934  10.902  13.109  0.0992 -0.5901 -0.1712
  373MOL0     H51441   1.005  11.060  13.169 -1.3950 -1.6629  2.7560
  373MOL0     H51442   0.739  10.941  13.202 -0.5310 -0.0336  0.5326
  373MOL0     H51443   0.728  11.104  13.142  3.3753  1.8185 -1.7372
  373MOL0     H51444   0.870  11.003  13.398 -1.7989 -1.0041  1.5982
  373MOL0     H51445   0.714  11.079  13.389 -0.5393  0.5692 -1.7680
  373MOL0     H51446   0.932  11.240  13.256 -0.4422 -1.6585 -0.5094
  373MOL0     H51447   0.799  11.299  13.340 -1.5091 -1.8490 -0.2873
  373MOL0     H51448   1.022  11.318  13.443  1.4243 -1.2769 -3.2952
  373MOL0     H51449   1.041  11.150  13.486  2.2291  2.5658  0.6618
  373MOL0     H51450   0.937  11.181  13.673 -2.1863 -2.1550 -1.4280
  373MOL0     H51451   0.784  11.207  13.595 -0.4923 -0.1793  4.0263
  373MOL0     H51452   0.978  11.443  13.634 -1.2365 -0.7407  0.0905
  373MOL0     H51453   0.855  11.404  13.752 -4.7914  2.4063 -0.0296
  373MOL0     H51454   0.640  10.809  12.861 -1.7022 -1.9113 -1.6406
  373MOL0     H51455   0.604  10.693  12.641 -0.5711  1.3090 -0.9027
  373MOL0     H51456   0.912  10.541  12.375 -0.0056  6.5724 -0.3195
  373MOL0     H51457   1.009  10.354  12.242  2.7829  1.6419  0.7829
  373MOL0     H51458   1.107  11.097  10.572  0.2558 -1.0898 -1.0601
  373MOL0     H51459   0.996  11.250  10.409 -0.7269  3.3755 -1.8002
  373MOL0     H51460   0.935  11.384   9.962  2.4612 -2.7718  4.0540
  373MOL0     H51461   0.992  11.443   9.708  1.3463  0.9124 -1.6078
  373MOL0     H51462   1.374  11.637   9.638  2.5816  1.4320 -5.0144
  373MOL0     H51463   1.288  11.623   9.481  0.9703  0.3995 -1.0421
  373MOL0     H51464   1.311  11.871   9.584 -0.6663  1.5510  2.0883
  373MOL0     H51465   1.203  11.817   9.709  1.8962  2.8710 -0.2327
  373MOL0     H51466   1.121  11.941   9.480  0.6671  1.9900  3.0879
  373MOL0     H51467   1.094  11.767   9.435 -0.8953 -1.5593  0.5555
  373MOL0     H51468   0.970  11.895   9.681 -3.3791 -0.0365 -0.4059
  373MOL0     H51469   0.970  11.730   9.616 -0.5098  1.1828  0.0643
  373MOL0     H51470   0.697  11.864   9.358 -0.0978 -1.8078  1.6289
  373MOL0     H51471   1.335  11.656   9.857 -0.8018  1.5693 -0.6513
  373MOL0     H51472   1.348  11.718  10.078 -1.3878 -0.8288 -3.2827
  373MOL0     H51473   1.228  11.655  10.196 -0.9509 -3.5145  0.9243
  373MOL0     H51474   1.372  11.554  10.151 -2.0360 -3.3333 -0.2357
  374MOL0     O51475   8.208   3.077   3.218  0.2447 -0.1353  0.3406
  374MOL0     C51476   8.102   3.041   3.157  0.2834 -0.3756 -1.0297
  374MOL0     O51477   7.971   3.099   3.183  0.3689 -0.3689 -0.1465
  374MOL0     C51478   7.967   3.200   3.271 -0.7078 -0.5512  0.5607
  374MOL0     C51479   7.904   3.194   3.394  2.1392  0.3197 -0.8478
  374MOL0     C51480   7.909   3.309   3.478  0.7269 -0.5148  0.8711
  374MOL0     C51481   7.949   3.432   3.431  0.6294  0.1604 -0.5369
  374MOL0     O51482   7.920   3.541   3.519  0.0256 -0.1266 -0.2481
  374MOL0     C51483   7.919   3.673   3.478 -0.3479 -0.7291 -0.5830
  374MOL0     C51484   7.894   3.740   3.609  0.3782 -0.7909 -0.7834
  374MOL0     C51485   7.978   3.710   3.726  0.5292  0.2524 -0.2566
  374MOL0     C51486   7.968   3.809   3.843  0.6044  0.0652 -1.0779
  374MOL0     C51487   7.957   3.725   3.976  0.9138  0.4231  0.1596
  374MOL0     C51488   7.970   3.811   4.101  0.5637 -0.2211 -0.5855
  374MOL0     C51489   8.065   3.930   4.098  0.3460 -0.3574  1.1427
  374MOL0     C51490   8.004   4.072   4.049  0.5768 -0.1540 -0.2688
  374MOL0     N51491   7.890   4.115   4.133  0.3880 -0.5691  0.1114
  374MOL0     C51492   7.771   4.172   4.090  0.4697  0.3986  1.4744
  374MOL0     C51493   7.707   4.191   4.209 -0.1844 -0.0247  0.6651
  374MOL0     C51494   7.570   4.255   4.240 -0.2802  0.1156 -0.4450
  374MOL0     C51495   7.448   4.176   4.194  0.5175 -1.3631  0.3224
  374MOL0     C51496   7.410   4.216   4.051 -0.4912 -0.2255 -0.1333
  374MOL0     C51497   7.277   4.306   4.046 -0.8192 -0.3850  0.7352
  374MOL0     O51498   7.154   4.247   4.094  0.1975  0.5126 -0.3181
  374MOL0     C51499   7.091   4.170   4.006  0.5469  0.6893  0.1940
  374MOL0     C51500   7.056   4.042   4.048 -0.3970  0.2024  0.6047
  374MOL0     C51501   7.013   3.939   3.951  0.1350  0.1946  0.1793
  374MOL0     C51502   7.003   3.798   3.994 -1.3366 -0.3393  0.6172
  374MOL0     C51503   6.980   3.977   3.816  0.6601  0.1113  0.6314
  374MOL0     C51504   6.912   3.897   3.712  0.0215  0.0134  0.3466
  374MOL0     O51505   6.929   3.937   3.582 -0.4813  1.2198 -0.3496
  374MOL0     C51506   6.861   3.874   3.479 -0.0980 -0.3844  0.5010
  374MOL0     C51507   6.784   3.953   3.399 -0.4859 -0.4994  0.4059
  374MOL0     C51508   6.703   3.905   3.298  0.8081  0.3780 -0.3395
  374MOL0     C51509   6.684   3.765   3.277  0.2439 -0.2171 -0.8025
  374MOL0     O51510   6.611   3.712   3.171 -0.5654 -0.5009  0.0857
  374MOL0     C51511   6.486   3.775   3.147 -0.2885 -0.2267 -0.7155
  374MOL0     C51512   6.431   3.708   3.024  0.8772 -0.0751 -0.0004
  374MOL0     C51513   6.283   3.760   3.002 -0.8576 -0.4429  0.2917
  374MOL0     C51514   6.213   3.693   2.883  0.3178 -0.7380 -1.2552
  374MOL0     C51515   6.115   3.785   2.818 -0.2512  0.3301  0.7403
  374MOL0     C51516   6.009   3.840   2.905 -0.4654 -0.6277  0.6720
  374MOL0     C51517   5.906   3.920   2.812  1.2443  0.0462  0.4601
  374MOL0     C51518   5.781   3.964   2.900 -0.6436  0.5849 -0.2123
  374MOL0    Cl51519   5.826   4.038   3.066  0.1732  0.0479  0.8087
  374MOL0     C51520   6.765   3.684   3.361 -0.3106 -0.5337  0.0280
  374MOL0     C51521   6.860   3.744   3.448 -0.3578  0.1622  0.4107
  374MOL0     O51522   6.828   3.818   3.748  0.1809  0.0688  0.0183
  374MOL0     C51523   7.008   4.109   3.783  1.9087 -0.5297  0.2574
  374MOL0     C51524   7.065   4.207   3.882 -0.3505  0.4478  0.3592
  374MOL0     N51525   7.775   4.151   4.316 -0.3744  0.4915 -0.6779
  374MOL0     N51526   7.885   4.094   4.271 -0.7470  0.3186  0.0558
  374MOL0     C51527   8.006   3.442   3.300 -0.3612 -0.0645  0.7294
  374MOL0     C51528   8.027   3.327   3.226 -1.5074  0.0080  0.0777
  374MOL0     C51529   8.107   2.907   3.086  0.7394 -0.2706 -0.0741
  374MOL0     C51530   7.995   2.833   3.090 -0.5108  0.7760  0.0391
  374MOL0     C51531   7.979   2.718   3.013 -0.7587 -0.5646  0.7299
  374MOL0     C51532   8.092   2.665   2.942 -0.2068 -1.0114 -0.5985
  374MOL0     O51533   8.078   2.544   2.891 -0.0297 -0.3581  0.5878
  374MOL0     C51534   8.178   2.486   2.806  0.1141  0.4646  0.5598
  374MOL0     C51535   8.281   2.404   2.876 -0.0055  0.4432 -0.6640
  374MOL0     C51536   8.219   2.277   2.934 -0.4079  0.4457  0.3206
  374MOL0     C51537   8.332   2.215   3.019 -0.1312 -0.7716  0.7082
  374MOL0     C51538   8.304   2.073   3.037 -1.5291 -0.0407 -0.6997
  374MOL0     C51539   8.288   1.954   3.053 -0.3178  0.4459 -0.2253
  374MOL0     C51540   8.219   2.732   2.951  1.0997 -0.4386  1.7294
  374MOL0     C51541   8.221   2.854   3.017  0.5717 -0.1151  0.1529
  374MOL0     C51542   8.358   2.914   3.015 -0.6177 -0.4712  1.0227
  374MOL0     H51543   7.845   3.105   3.412 -2.9245  3.4311 -0.1036
  374MOL0     H51544   7.877   3.296   3.581  1.3392 -2.6932  0.8450
  374MOL0     H51545   7.843   3.699   3.403  0.0957 -1.6794 -1.3799
  374MOL0     H51546   8.018   3.706   3.447 -0.7217  2.4247  1.0962
  374MOL0     H51547   7.911   3.847   3.588 -1.4912 -0.5186 -1.0788
  374MOL0     H51548   7.787   3.732   3.630 -0.4217 -0.4304 -4.0671
  374MOL0     H51549   7.945   3.610   3.758 -3.3003  0.7114 -2.2828
  374MOL0     H51550   8.082   3.713   3.691  0.0949 -2.4190 -2.0787
  374MOL0     H51551   8.054   3.877   3.844  1.9032 -1.5151 -0.8520
  374MOL0     H51552   7.884   3.876   3.823 -0.9210 -1.5345 -0.2258
  374MOL0     H51553   8.046   3.661   3.972  0.1637 -0.5572 -2.1883
  374MOL0     H51554   7.869   3.661   3.983  2.0467 -1.1007  0.9920
  374MOL0     H51555   7.873   3.853   4.127  1.5018  1.6076  0.1958
  374MOL0     H51556   7.994   3.740   4.181  1.1542 -1.2844 -1.6634
  374MOL0     H51557   8.153   3.919   4.035 -0.1108  1.2199  0.1908
  374MOL0     H51558   8.097   3.958   4.199  1.2201  1.6828  0.3510
  374MOL0     H51559   8.084   4.146   4.040  1.9355 -1.3088  1.4703
  374MOL0     H51560   7.957   4.058   3.951 -0.1041 -0.7740  0.1302
  374MOL0     H51561   7.748   4.207   3.990  0.7795 -2.1542  0.4516
  374MOL0     H51562   7.569   4.362   4.218  0.1052  0.0795 -0.6445
  374MOL0     H51563   7.562   4.255   4.349 -0.2068 -1.2172 -0.4189
  374MOL0     H51564   7.488   4.075   4.180 -0.8976 -1.7016 -1.6914
  374MOL0     H51565   7.361   4.182   4.261  0.0203 -1.5097 -0.2998
  374MOL0     H51566   7.497   4.260   4.001  0.4955 -1.1708  0.7201
  374MOL0     H51567   7.389   4.119   4.006  2.2246  0.0893 -2.3872
  374MOL0     H51568   7.303   4.390   4.112  0.9650  0.6977 -1.2111
  374MOL0     H51569   7.266   4.342   3.944 -2.0063 -0.2334  0.9097
  374MOL0     H51570   7.083   4.004   4.146 -2.6952 -4.8383 -0.4039
  374MOL0     H51571   7.057   3.735   3.922  0.0094  0.7236  0.6454
  374MOL0     H51572   6.900   3.766   4.012 -1.7675  1.4683  1.6203
  374MOL0     H51573   7.060   3.791   4.087  2.5946  0.9185 -1.4220
  374MOL0     H51574   6.798   4.061   3.402  1.0860 -0.6844  0.4884
  374MOL0     H51575   6.648   3.976   3.237  2.7291  0.4957 -2.0610
  374MOL0     H51576   6.417   3.745   3.227  1.6257 -1.4827  0.5496
  374MOL0     H51577   6.486   3.884   3.156 -0.3418 -0.3601  1.6680
  374MOL0     H51578   6.486   3.709   2.929  0.2727 -0.0909 -0.3594
  374MOL0     H51579   6.409   3.601   3.038 -3.3230  0.2788 -2.2119
  374MOL0     H51580   6.289   3.867   2.979 -2.6247  0.1146  2.1259
  374MOL0     H51581   6.219   3.741   3.089 -0.7636 -1.2216  0.1981
  374MOL0     H51582   6.160   3.601   2.909 -1.4793  1.0595  2.1742
  374MOL0     H51583   6.287   3.667   2.807  2.0557 -1.6496  0.6510
  374MOL0     H51584   6.176   3.865   2.775  1.4950 -0.9813  0.6628
  374MOL0     H51585   6.068   3.728   2.737  0.8632 -0.7332  0.8077
  374MOL0     H51586   6.055   3.914   2.970 -2.5759  0.7480  0.6862
  374MOL0     H51587   5.966   3.757   2.961  0.0989 -2.4477 -1.4371
  374MOL0     H51588   5.870   3.858   2.729 -0.3413  2.9467 -1.1874
  374MOL0     H51589   5.937   4.014   2.765 -3.5553  1.4835 -0.3839
  374MOL0     H51590   5.729   3.869   2.918  0.0941 -0.0837 -1.4438
  374MOL0     H51591   5.726   4.031   2.835 -1.6641  1.3039  1.3369
  374MOL0     H51592   6.782   3.578   3.346 -0.7612 -0.2850 -2.8679
  374MOL0     H51593   6.925   3.677   3.502  1.7934 -1.0193 -3.3048
  374MOL0     H51594   6.985   4.149   3.685 -0.5107  0.5321  1.1704
  374MOL0     H51595   7.082   4.306   3.841  0.6771  0.0116 -0.2832
  374MOL0     H51596   8.064   3.525   3.261  1.4147 -1.2091  0.8191
  374MOL0     H51597   8.074   3.326   3.128  3.3622 -0.9508  2.1002
  374MOL0     H51598   7.907   2.861   3.147 -1.0309  0.7414 -0.7228
  374MOL0     H51599   7.894   2.651   3.019 -1.3672  0.1347  0.0209
  374MOL0     H51600   8.124   2.408   2.750 -0.3920 -0.1104  1.8232
  374MOL0     H51601   8.221   2.557   2.734 -0.2087  0.5113  0.4093
  374MOL0     H51602   8.330   2.464   2.953  0.0525  0.9607 -1.0988
  374MOL0     H51603   8.363   2.377   2.809  0.0440 -1.2287  0.0345
  374MOL0     H51604   8.131   2.294   2.996  0.4306 -1.1321  2.0434
  374MOL0     H51605   8.189   2.213   2.851 -0.2018  1.9114 -0.9233
  374MOL0     H51606   8.355   2.266   3.113 -1.8103  3.0077 -0.7014
  374MOL0     H51607   8.425   2.227   2.963 -0.4855  1.7136  0.5177
  374MOL0     H51608   8.273   1.849   3.067 -2.1790  0.6322 -0.6054
  374MOL0     H51609   8.310   2.707   2.897 -0.5409 -0.5306 -1.1962
  374MOL0     H51610   8.400   2.938   3.113  0.7405  0.0980  0.3236
  374MOL0     H51611   8.427   2.835   2.984 -3.4679 -2.9896  0.6873
  374MOL0     H51612   8.361   3.003   2.951 -2.4867  0.0315  1.5825
  375MOL0     O51613   6.812   2.107  10.698  0.3704  1.4835 -0.5723
  375MOL0     C51614   6.917   2.107  10.764  0.1389 -0.2889 -0.0998
  375MOL0     O51615   7.033   2.182  10.736  0.0584  0.1757 -0.5085
  375MOL0     C51616   7.028   2.271  10.628  0.8588  0.0702 -0.5423
  375MOL0     C51617   7.117   2.257  10.531  0.3457  0.3001  0.4144
  375MOL0     C51618   7.133   2.358  10.429  0.6906 -0.5126  0.2813
  375MOL0     C51619   7.046   2.470  10.414 -0.3834  0.2543 -1.4194
  375MOL0     O51620   7.063   2.569  10.322  0.1840  0.0611 -0.3517
  375MOL0     C51621   7.172   2.558  10.225  0.2129  0.6521  0.0040
  375MOL0     C51622   7.311   2.612  10.270 -0.7367 -0.1488 -0.3062
  375MOL0     C51623   7.322   2.766  10.292 -0.0793 -0.5705  0.0782
  375MOL0     C51624   7.438   2.809  10.373 -0.0746  0.5878  0.3879
  375MOL0     C51625   7.446   2.966  10.379 -0.4246  0.1998 -0.6255
  375MOL0     C51626   7.349   3.028  10.481  0.1093  0.1579 -0.6217
  375MOL0     C51627   7.376   2.991  10.631 -0.0297 -0.4064  0.1400
  375MOL0     C51628   7.523   3.021  10.677 -0.6292 -0.5312  0.0066
  375MOL0     N51629   7.543   3.003  10.821 -0.9083 -0.2649  0.4693
  375MOL0     C51630   7.504   2.895  10.885 -0.6372  0.2472  0.6367
  375MOL0     C51631   7.496   2.931  11.014  0.4925 -0.1196  0.0417
  375MOL0     C51632   7.483   2.835  11.134  0.4639 -0.1452  1.2396
  375MOL0     C51633   7.353   2.873  11.209  0.1052 -0.3947  0.7481
  375MOL0     C51634   7.321   2.743  11.284  0.8024  0.5158  0.4043
  375MOL0     C51635   7.224   2.766  11.399 -0.6368  0.0257 -1.5833
  375MOL0     O51636   7.119   2.851  11.353  0.1873  0.1288  0.1308
  375MOL0     C51637   7.012   2.764  11.313  0.1673 -0.2501 -0.2146
  375MOL0     C51638   6.986   2.747  11.173 -0.5549  0.1924  0.0682
  375MOL0     C51639   6.890   2.657  11.127 -1.4147  0.1258 -0.3557
  375MOL0     C51640   6.876   2.635  10.982 -0.6797 -0.6434  0.3627
  375MOL0     C51641   6.807   2.592  11.221 -0.1046  1.1333  0.9739
  375MOL0     C51642   6.714   2.477  11.174  0.0157 -0.6315  0.0776
  375MOL0     O51643   6.642   2.512  11.068  1.2533  0.5300  1.0393
  375MOL0     C51644   6.546   2.433  11.015  0.8046  0.5336 -0.2958
  375MOL0     C51645   6.467   2.340  11.081 -0.2358 -0.5619 -0.2734
  375MOL0     C51646   6.372   2.260  11.013 -0.0903 -0.4897  0.7065
  375MOL0     C51647   6.340   2.295  10.877 -1.1340 -0.1751 -0.1950
  375MOL0     O51648   6.225   2.251  10.826  0.6720  1.6036  0.6023
  375MOL0     C51649   6.151   2.137  10.875  0.2653 -0.7984  0.0084
  375MOL0     C51650   6.079   2.089  10.756 -0.0407 -0.3482 -0.2353
  375MOL0     C51651   5.983   1.971  10.784 -0.4178  0.6923  0.1663
  375MOL0     C51652   5.901   1.930  10.657  0.0075 -1.0090 -0.9423
  375MOL0     C51653   5.836   1.787  10.665  0.6440  0.4382  0.4710
  375MOL0     C51654   5.756   1.739  10.540 -0.5337  0.2280  0.7352
  375MOL0     C51655   5.834   1.680  10.424 -0.2091  0.3065  0.9176
  375MOL0     C51656   5.820   1.747  10.283  0.3423  0.1291 -0.1051
  375MOL0    Cl51657   5.943   1.700  10.159 -0.0004  0.0272 -0.0586
  375MOL0     C51658   6.423   2.379  10.808  0.7046 -0.1120  0.4856
  375MOL0     C51659   6.509   2.455  10.886 -0.0676  0.1711 -0.0532
  375MOL0     O51660   6.723   2.369  11.226  0.2351  0.4877  0.3022
  375MOL0     C51661   6.830   2.613  11.361  0.3076  0.5058 -0.3425
  375MOL0     C51662   6.933   2.698  11.406  1.6755 -0.2872 -0.3287
  375MOL0     N51663   7.533   3.054  11.036  1.1562 -0.4973 -0.5746
  375MOL0     N51664   7.548   3.104  10.919 -0.0565 -0.2186  0.4140
  375MOL0     C51665   6.942   2.476  10.507  0.9876 -0.8444 -0.0065
  375MOL0     C51666   6.937   2.379  10.615 -0.2607  0.6145  0.9178
  375MOL0     C51667   6.928   2.009  10.874  0.3616  0.3282 -0.5568
  375MOL0     C51668   7.059   1.976  10.910 -0.7525  0.7879 -0.6047
  375MOL0     C51669   7.091   1.886  11.019  0.7281 -0.0785  0.7379
  375MOL0     C51670   6.982   1.841  11.100 -1.4733  0.2993 -1.0613
  375MOL0     O51671   7.008   1.770  11.216  1.2189  0.2143  0.5354
  375MOL0     C51672   6.976   1.637  11.213  0.3534  0.0913 -0.2124
  375MOL0     C51673   7.051   1.560  11.319  0.4104 -0.0123  0.6637
  375MOL0     C51674   7.031   1.606  11.471  0.4935  0.1324  0.1063
  375MOL0     C51675   7.077   1.492  11.562  0.9445  0.1293  1.4471
  375MOL0     C51676   7.125   1.558  11.683 -0.1378  0.4231 -0.0092
  375MOL0     C51677   7.161   1.619  11.782 -0.3259  0.1827  0.2713
  375MOL0     C51678   6.855   1.873  11.072 -0.1947 -1.0489 -0.5728
  375MOL0     C51679   6.820   1.957  10.963  0.0840  0.3885  0.2010
  375MOL0     C51680   6.674   2.004  10.959  0.2052 -0.4363  1.5334
  375MOL0     H51681   7.180   2.168  10.528 -1.8971 -1.4214  0.9527
  375MOL0     H51682   7.218   2.350  10.362  0.3841 -1.1538 -0.0438
  375MOL0     H51683   7.134   2.617  10.141 -1.7876  0.3805  0.6756
  375MOL0     H51684   7.185   2.461  10.176  0.6129 -0.8179  2.8514
  375MOL0     H51685   7.330   2.558  10.363  3.5918  1.3184 -0.1293
  375MOL0     H51686   7.384   2.591  10.192  1.9941 -1.6945  2.4866
  375MOL0     H51687   7.334   2.801  10.188 -1.2269  0.6844  0.3353
  375MOL0     H51688   7.232   2.803  10.341  1.2231  0.7180  1.6293
  375MOL0     H51689   7.434   2.769  10.475 -0.2708 -1.0990 -0.2558
  375MOL0     H51690   7.527   2.765  10.329  0.1697  4.1670 -3.3941
  375MOL0     H51691   7.417   3.018  10.287  2.0738 -0.6973 -2.0001
  375MOL0     H51692   7.550   2.995  10.395 -0.5844 -0.7557  2.7845
  375MOL0     H51693   7.343   3.137  10.476  2.4120  0.2806 -1.5439
  375MOL0     H51694   7.246   3.007  10.450  0.3970  2.1958 -3.2683
  375MOL0     H51695   7.359   2.884  10.647  1.9404 -0.3914  3.1139
  375MOL0     H51696   7.305   3.051  10.688 -0.9625 -0.7804 -0.6015
  375MOL0     H51697   7.583   2.945  10.626 -1.2554 -1.2373  0.3090
  375MOL0     H51698   7.548   3.120  10.637 -1.6581 -0.8303 -1.4425
  375MOL0     H51699   7.487   2.796  10.843  0.5283  0.7566 -1.1127
  375MOL0     H51700   7.568   2.831  11.203  0.9160  0.3769  0.7228
  375MOL0     H51701   7.483   2.732  11.097  1.9521  0.3082 -0.1083
  375MOL0     H51702   7.379   2.957  11.273 -0.4153  0.8487 -0.6119
  375MOL0     H51703   7.268   2.889  11.143  0.8072 -0.9651 -0.3334
  375MOL0     H51704   7.282   2.671  11.212  6.4853 -1.5510 -1.1327
  375MOL0     H51705   7.411   2.690  11.317  0.2461 -0.8552 -0.1944
  375MOL0     H51706   7.195   2.666  11.433  1.6438  0.1528  1.1776
  375MOL0     H51707   7.275   2.818  11.481  0.1454  2.3466 -3.4291
  375MOL0     H51708   7.036   2.804  11.095 -5.4184  3.2348 -1.2139
  375MOL0     H51709   6.933   2.701  10.916 -0.9480 -0.6826  0.0915
  375MOL0     H51710   6.778   2.669  10.947 -0.6605 -2.8174 -2.0137
  375MOL0     H51711   6.882   2.536  10.937 -0.9127  0.4896 -2.3709
  375MOL0     H51712   6.482   2.308  11.184 -0.8770 -0.6217 -0.1905
  375MOL0     H51713   6.302   2.199  11.069 -0.7665 -1.1534 -0.8022
  375MOL0     H51714   6.220   2.067  10.922  4.5484  2.9881  0.0753
  375MOL0     H51715   6.089   2.173  10.958  2.0847 -0.2358  1.1760
  375MOL0     H51716   6.032   2.179  10.714  2.9138  0.5096 -1.9634
  375MOL0     H51717   6.152   2.059  10.681 -0.2920  1.9903 -1.5092
  375MOL0     H51718   5.914   1.995  10.866 -0.1538  0.5205  0.4457
  375MOL0     H51719   6.046   1.885  10.807 -2.4704 -1.1493 -0.7813
  375MOL0     H51720   5.956   1.937  10.562 -0.3839  2.0731 -1.0679
  375MOL0     H51721   5.820   2.002  10.640  0.0222 -0.6172  0.5418
  375MOL0     H51722   5.916   1.713  10.674  3.2983  2.9574 -0.7633
  375MOL0     H51723   5.762   1.794  10.745 -3.8635  0.8960 -3.3040
  375MOL0     H51724   5.701   1.828  10.508 -3.9596 -1.4944  1.3794
  375MOL0     H51725   5.673   1.670  10.559 -0.8917  0.7260  0.9913
  375MOL0     H51726   5.815   1.573  10.419 -1.9206  0.6512 -1.5456
  375MOL0     H51727   5.941   1.689  10.448 -0.5353  1.5368  2.0856
  375MOL0     H51728   5.825   1.856  10.291  0.2674  0.0241  1.7339
  375MOL0     H51729   5.718   1.721  10.252  0.1509 -0.3994  0.9236
  375MOL0     H51730   6.389   2.414  10.711  0.2865  2.9498  1.6295
  375MOL0     H51731   6.566   2.533  10.838  2.4089 -0.9614  0.8743
  375MOL0     H51732   6.767   2.570  11.438 -0.2722  2.1527  0.1443
  375MOL0     H51733   6.937   2.720  11.512 -0.9511  1.0247 -0.4341
  375MOL0     H51734   6.876   2.561  10.496 -0.4734 -1.9226  0.2300
  375MOL0     H51735   6.859   2.386  10.690 -1.0753 -2.8607  0.5392
  375MOL0     H51736   7.132   2.038  10.860 -4.6748  2.0300 -5.5975
  375MOL0     H51737   7.193   1.855  11.042  1.2468  0.8561 -0.2424
  375MOL0     H51738   6.867   1.637  11.225  0.3173 -1.4408 -0.3463
  375MOL0     H51739   7.009   1.600  11.116  2.9212  3.7945 -0.9840
  375MOL0     H51740   7.158   1.562  11.296 -0.0153  1.7983 -1.5387
  375MOL0     H51741   7.011   1.459  11.307  0.5740 -0.1433  1.1836
  375MOL0     H51742   7.081   1.701  11.491  0.7754 -0.0766  0.3990
  375MOL0     H51743   6.928   1.634  11.494  0.5227  1.2913 -1.0756
  375MOL0     H51744   7.163   1.436  11.523  0.9202 -0.7680  2.6278
  375MOL0     H51745   6.995   1.427  11.595 -0.4384  1.0169 -0.0890
  375MOL0     H51746   7.178   1.672  11.874  0.6045 -2.5878  1.8122
  375MOL0     H51747   6.781   1.833  11.141  0.5176 -0.6639  0.4339
  375MOL0     H51748   6.594   1.932  10.979 -3.0317  3.3164  3.6232
  375MOL0     H51749   6.673   2.076  11.041  0.7205  1.6701 -0.1854
  375MOL0     H51750   6.630   2.064  10.878 -0.2926  1.4563  3.1041
  376MOL0     O51751   3.033   0.379   3.388  0.3426 -0.1007  0.6854
  376MOL0     C51752   3.151   0.369   3.400  0.2816 -0.0964 -0.6024
  376MOL0     O51753   3.222   0.259   3.378 -0.6123 -0.1628 -0.1987
  376MOL0     C51754   3.160   0.144   3.334  0.1413 -1.0444 -0.3188
  376MOL0     C51755   3.060   0.079   3.402 -0.5416  0.1408  0.7215
  376MOL0     C51756   2.991  -0.026   3.346 -0.1477 -0.7670  0.3649
  376MOL0     C51757   3.036  -0.078   3.224 -0.1372  0.0494  0.0690
  376MOL0     O51758   2.988  -0.203   3.170  0.1813  0.0896 -0.6680
  376MOL0     C51759   2.862  -0.251   3.207  0.1010  0.2116 -0.8743
  376MOL0     C51760   2.839  -0.361   3.113  0.2631  0.9136 -0.6329
  376MOL0     C51761   2.721  -0.455   3.164 -0.5201 -0.6446  0.6188
  376MOL0     C51762   2.670  -0.551   3.061  0.3651  0.7376  0.9401
  376MOL0     C51763   2.775  -0.634   2.985  0.9864  0.6849 -0.5542
  376MOL0     C51764   2.712  -0.702   2.861 -0.5246  0.2785 -0.0786
  376MOL0     C51765   2.812  -0.758   2.755 -0.3570  0.3071  0.2821
  376MOL0     C51766   2.864  -0.904   2.784 -0.5672 -0.1435 -0.4448
  376MOL0     N51767   2.775  -1.009   2.741  0.6321  0.2491 -0.4459
  376MOL0     C51768   2.767  -1.060   2.616 -0.7945 -0.8221  0.1294
  376MOL0     C51769   2.659  -1.137   2.611 -0.0836 -0.2927 -0.2732
  376MOL0     C51770   2.598  -1.212   2.495  0.2257  0.4293  0.2560
  376MOL0     C51771   2.700  -1.266   2.381  0.9154  0.1066 -0.0705
  376MOL0     C51772   2.618  -1.289   2.260 -0.1121  0.0909  0.7060
  376MOL0     C51773   2.687  -1.355   2.135 -1.0426 -0.6878  0.5165
  376MOL0     O51774   2.773  -1.256   2.086 -0.3104 -0.4977 -0.2394
  376MOL0     C51775   2.887  -1.296   2.019 -1.3620  0.0844  0.3287
  376MOL0     C51776   2.994  -1.349   2.088  1.1748  0.3066 -0.1804
  376MOL0     C51777   3.115  -1.355   2.029  0.0256 -0.3442  0.3712
  376MOL0     C51778   3.233  -1.406   2.103 -0.1067  0.1359 -0.1037
  376MOL0     C51779   3.135  -1.314   1.888  0.4367  0.1124 -0.6249
  376MOL0     C51780   3.260  -1.337   1.820  0.4069 -0.1827 -0.1304
  376MOL0     O51781   3.280  -1.273   1.700 -0.2671 -0.1869 -0.1553
  376MOL0     C51782   3.394  -1.297   1.622 -0.3806 -0.0211 -0.0679
  376MOL0     C51783   3.404  -1.403   1.533  1.4679  0.1781 -0.7529
  376MOL0     C51784   3.519  -1.412   1.452  1.2502  0.1384  0.3159
  376MOL0     C51785   3.627  -1.319   1.467  0.3475  0.1072  0.0070
  376MOL0     O51786   3.740  -1.341   1.383 -0.7216 -0.2112 -0.3986
  376MOL0     C51787   3.812  -1.224   1.341  1.1567 -0.2859 -0.6050
  376MOL0     C51788   3.892  -1.251   1.208 -0.4237 -0.1641  0.3646
  376MOL0     C51789   4.037  -1.305   1.248  0.4257 -0.1878 -1.2478
  376MOL0     C51790   4.141  -1.333   1.137 -0.0177  0.6624  0.9562
  376MOL0     C51791   4.263  -1.407   1.199 -0.2159  0.5212  0.4901
  376MOL0     C51792   4.355  -1.335   1.294  0.7494  0.2163  0.7488
  376MOL0     C51793   4.403  -1.215   1.219 -0.3019 -0.8210 -0.2696
  376MOL0     C51794   4.524  -1.155   1.295  0.5230  0.4380 -0.8179
  376MOL0    Cl51795   4.571  -1.001   1.218  0.1789  0.2965  0.3249
  376MOL0     C51796   3.616  -1.225   1.567 -0.0409 -0.2831 -0.3454
  376MOL0     C51797   3.504  -1.215   1.649 -0.9533 -0.8779  0.5093
  376MOL0     O51798   3.343  -1.420   1.858  0.4791 -0.0956 -0.6431
  376MOL0     C51799   3.023  -1.257   1.828  0.4656  0.1144  0.0384
  376MOL0     C51800   2.901  -1.246   1.888  0.3112  1.0813  0.1278
  376MOL0     N51801   2.607  -1.128   2.741 -0.3032  0.5125  0.7723
  376MOL0     N51802   2.672  -1.053   2.819  0.2299  0.2594 -0.4305
  376MOL0     C51803   3.140  -0.022   3.154 -1.3118  1.1473 -0.4994
  376MOL0     C51804   3.201   0.088   3.212 -0.5051  0.9129 -0.6761
  376MOL0     C51805   3.233   0.495   3.433  0.1372 -0.1721 -0.1261
  376MOL0     C51806   3.362   0.470   3.494 -0.0412  0.0074  0.7289
  376MOL0     C51807   3.441   0.579   3.534 -0.0485 -0.9083 -0.3935
  376MOL0     C51808   3.394   0.712   3.515 -0.2444 -0.2426 -0.3853
  376MOL0     O51809   3.455   0.825   3.572  0.5170  0.1238  0.3511
  376MOL0     C51810   3.505   0.808   3.709 -0.1448 -0.2197 -0.5809
  376MOL0     C51811   3.651   0.795   3.710 -0.2770 -0.3283  0.1517
  376MOL0     C51812   3.707   0.754   3.844  1.2881  0.3178  0.1933
  376MOL0     C51813   3.856   0.757   3.846 -0.7886 -0.7633 -0.4728
  376MOL0     C51814   3.920   0.708   3.968  0.0681 -0.1575 -1.1012
  376MOL0     C51815   3.944   0.663   4.077 -0.2208 -0.3705 -0.7983
  376MOL0     C51816   3.269   0.731   3.468 -0.6213 -0.4247  0.1705
  376MOL0     C51817   3.189   0.625   3.414 -1.1493  0.5641 -1.4430
  376MOL0     C51818   3.068   0.656   3.337  0.8312  0.3115  0.1978
  376MOL0     H51819   3.038   0.132   3.494 -0.7391  1.5759 -0.1394
  376MOL0     H51820   2.907  -0.067   3.402  0.5079 -2.2867  0.2756
  376MOL0     H51821   2.792  -0.171   3.183 -0.5260 -0.7663 -2.4451
  376MOL0     H51822   2.864  -0.295   3.307 -0.4090 -0.3160 -1.0905
  376MOL0     H51823   2.793  -0.326   3.020 -4.1755 -1.8334  0.1796
  376MOL0     H51824   2.930  -0.420   3.107 -0.0053  0.6531 -3.3473
  376MOL0     H51825   2.759  -0.524   3.240 -0.7292 -2.8740 -1.1841
  376MOL0     H51826   2.633  -0.398   3.195 -1.7935 -1.8761 -0.5639
  376MOL0     H51827   2.588  -0.610   3.102  0.1235  0.1516 -0.3452
  376MOL0     H51828   2.618  -0.477   2.999  0.8918  0.1248 -0.2401
  376MOL0     H51829   2.812  -0.710   3.054  2.7518  2.3357  0.4148
  376MOL0     H51830   2.866  -0.580   2.959  1.2235  0.1724 -0.8246
  376MOL0     H51831   2.667  -0.792   2.901  1.9623 -1.6809 -1.4014
  376MOL0     H51832   2.635  -0.629   2.834 -1.0082 -1.2525 -3.2803
  376MOL0     H51833   2.903  -0.697   2.746 -0.0024 -0.3882 -1.1425
  376MOL0     H51834   2.768  -0.761   2.655  2.2339 -1.0992 -0.9275
  376MOL0     H51835   2.961  -0.902   2.735 -0.4744  2.8506 -0.2941
  376MOL0     H51836   2.890  -0.918   2.890 -2.0471  2.0838  0.2788
  376MOL0     H51837   2.827  -1.048   2.527 -4.7096  2.4787 -2.4381
  376MOL0     H51838   2.522  -1.156   2.440 -0.8607 -2.6503 -1.6426
  376MOL0     H51839   2.544  -1.290   2.548 -3.3009  2.5452  0.0840
  376MOL0     H51840   2.774  -1.190   2.353  0.3210  0.5450 -0.5004
  376MOL0     H51841   2.750  -1.354   2.423  0.9790  0.6572  1.0538
  376MOL0     H51842   2.545  -1.356   2.306  0.5931 -1.3465 -0.1677
  376MOL0     H51843   2.567  -1.194   2.240  1.7342  1.0153  0.0909
  376MOL0     H51844   2.739  -1.449   2.158  0.2308  0.4265  2.4942
  376MOL0     H51845   2.620  -1.360   2.049  0.7614  1.8787 -1.1907
  376MOL0     H51846   2.988  -1.387   2.189 -0.4080 -2.9882 -1.3851
  376MOL0     H51847   3.207  -1.411   2.210  2.1907 -2.5522  0.4385
  376MOL0     H51848   3.317  -1.335   2.099  0.6064 -0.6801  0.0124
  376MOL0     H51849   3.269  -1.505   2.076  0.7306 -0.3985  2.6522
  376MOL0     H51850   3.318  -1.466   1.522  2.8108 -2.4375  2.0886
  376MOL0     H51851   3.523  -1.477   1.366  2.9536 -0.1583  0.5772
  376MOL0     H51852   3.744  -1.139   1.326  1.7694  0.6920  1.6959
  376MOL0     H51853   3.885  -1.188   1.414  1.5238  1.7586 -1.8883
  376MOL0     H51854   3.840  -1.319   1.140  0.7850  0.8920 -1.7160
  376MOL0     H51855   3.908  -1.155   1.159  1.5182 -0.2770  0.7000
  376MOL0     H51856   4.034  -1.400   1.304  0.0029 -0.2521 -1.3750
  376MOL0     H51857   4.076  -1.243   1.329  1.2620 -0.8416 -1.1445
  376MOL0     H51858   4.158  -1.242   1.080 -0.2034 -0.0460 -0.2612
  376MOL0     H51859   4.101  -1.400   1.061  0.2038  1.2853  0.2768
  376MOL0     H51860   4.235  -1.496   1.256 -1.0042  1.3559  1.4355
  376MOL0     H51861   4.315  -1.443   1.109 -1.3792 -0.4031  0.1667
  376MOL0     H51862   4.428  -1.405   1.335 -0.3695 -0.9933  0.7320
  376MOL0     H51863   4.308  -1.305   1.388 -2.3073 -3.8153  0.7483
  376MOL0     H51864   4.331  -1.136   1.196 -0.2857 -0.7026  0.0687
  376MOL0     H51865   4.431  -1.244   1.118 -2.0835  0.9883 -1.3467
  376MOL0     H51866   4.609  -1.224   1.297  1.6351  1.7788  0.0734
  376MOL0     H51867   4.499  -1.132   1.398  0.0567  0.0264 -0.8354
  376MOL0     H51868   3.703  -1.163   1.585 -0.6150  0.3726  0.2424
  376MOL0     H51869   3.511  -1.131   1.718  3.4939 -0.1161 -0.5613
  376MOL0     H51870   3.023  -1.214   1.728  1.7535 -0.0231 -0.0353
  376MOL0     H51871   2.821  -1.186   1.846 -1.1704 -0.1064  1.1404
  376MOL0     H51872   3.160  -0.075   3.061 -0.0446  2.7373 -1.1797
  376MOL0     H51873   3.281   0.140   3.159 -0.1642 -0.0301 -1.1131
  376MOL0     H51874   3.396   0.367   3.496  1.1390  0.2496 -1.8694
  376MOL0     H51875   3.535   0.553   3.581  0.4151  0.8654 -0.2833
  376MOL0     H51876   3.483   0.897   3.768  2.1285  0.0692 -0.0761
  376MOL0     H51877   3.463   0.715   3.748 -0.6368 -0.4498 -1.6210
  376MOL0     H51878   3.682   0.896   3.682  2.5070 -1.2701 -0.4620
  376MOL0     H51879   3.680   0.725   3.631  2.2447  1.9233 -1.0901
  376MOL0     H51880   3.668   0.825   3.918  0.2955  0.0497 -0.0526
  376MOL0     H51881   3.672   0.659   3.887  0.6204  1.6167  2.7490
  376MOL0     H51882   3.890   0.861   3.844  1.3094 -1.3737  0.5185
  376MOL0     H51883   3.889   0.698   3.761  1.1320 -1.3489  0.6217
  376MOL0     H51884   3.964   0.631   4.177 -2.9267  1.2623  0.3868
  376MOL0     H51885   3.230   0.828   3.439 -3.7845 -2.0259 -1.3548
  376MOL0     H51886   2.974   0.618   3.378  1.8022 -2.4377  0.1388
  376MOL0     H51887   3.045   0.759   3.311 -0.1099  0.5465  1.8410
  376MOL0     H51888   3.078   0.611   3.238 -0.2008  1.6266 -0.5303
  377MOL0     O51889   5.666   5.156   9.967 -0.9641  1.0087  0.4034
  377MOL0     C51890   5.757   5.151  10.058  0.3558 -0.3701 -0.3935
  377MOL0     O51891   5.894   5.143  10.040 -0.1674 -0.3395  0.2649
  377MOL0     C51892   5.920   5.118   9.903 -0.5663 -1.0230  0.4516
  377MOL0     C51893   5.909   4.990   9.843 -0.0259  0.3166  0.6174
  377MOL0     C51894   5.954   4.974   9.712  0.4762 -1.1619 -0.1066
  377MOL0     C51895   6.005   5.081   9.638 -0.5708 -0.2311 -0.9558
  377MOL0     O51896   6.039   5.062   9.508 -0.7561  0.3363 -0.7766
  377MOL0     C51897   6.178   5.102   9.473 -1.3019 -0.6781  0.5053
  377MOL0     C51898   6.207   5.097   9.317  0.1576  0.0428  0.0693
  377MOL0     C51899   6.312   5.192   9.265 -0.4097 -0.0410 -0.2821
  377MOL0     C51900   6.429   5.195   9.362  0.0607  0.4823 -0.5174
  377MOL0     C51901   6.541   5.265   9.286 -0.5590 -1.4064  0.0508
  377MOL0     C51902   6.660   5.307   9.367  0.3799  0.2365  0.0155
  377MOL0     C51903   6.751   5.190   9.422 -0.2177  0.4144 -0.0738
  377MOL0     C51904   6.815   5.100   9.312 -0.4783 -0.7186  0.1607
  377MOL0     N51905   6.880   4.980   9.376 -0.0626  0.2467 -0.3030
  377MOL0     C51906   6.856   4.850   9.353  0.4384  0.1103 -0.2854
  377MOL0     C51907   6.925   4.775   9.450 -0.1262  1.0910  0.5381
  377MOL0     C51908   6.937   4.620   9.458  0.9856  0.0012 -0.1590
  377MOL0     C51909   6.894   4.552   9.327 -0.2830  0.3171 -1.0463
  377MOL0     C51910   6.896   4.399   9.326 -0.2774  0.4232  0.5125
  377MOL0     C51911   6.982   4.328   9.217  0.4154 -0.2135  0.1923
  377MOL0     O51912   6.905   4.311   9.099 -0.3297 -0.4522  0.6742
  377MOL0     C51913   6.974   4.262   8.993 -0.2407 -0.9057 -0.2381
  377MOL0     C51914   6.895   4.199   8.901  0.1098 -0.3242 -0.9152
  377MOL0     C51915   6.934   4.129   8.779  0.0658  0.4232  0.1294
  377MOL0     C51916   6.834   4.077   8.682  0.4021 -0.2943  0.0221
  377MOL0     C51917   7.075   4.119   8.767  1.1268 -0.0490 -0.4802
  377MOL0     C51918   7.141   4.037   8.664  0.6505 -1.1365 -0.0950
  377MOL0     O51919   7.165   3.905   8.696 -0.7626  0.4262 -0.1191
  377MOL0     C51920   7.216   3.822   8.602  0.1763 -0.5365  0.1660
  377MOL0     C51921   7.308   3.735   8.646 -0.2693 -0.0225 -0.8324
  377MOL0     C51922   7.355   3.639   8.563  0.2786 -0.3579  1.0957
  377MOL0     C51923   7.317   3.627   8.431 -0.0066  0.5096 -0.0122
  377MOL0     O51924   7.376   3.526   8.347 -0.0226  0.1721 -0.8955
  377MOL0     C51925   7.354   3.541   8.207  0.1445  0.0452  0.0452
  377MOL0     C51926   7.407   3.430   8.121 -0.3863  0.1035  0.5938
  377MOL0     C51927   7.559   3.395   8.155  0.9275 -0.1912  0.1223
  377MOL0     C51928   7.617   3.293   8.063 -0.1220 -0.3936  0.7878
  377MOL0     C51929   7.766   3.285   8.071  0.1111 -0.7078 -0.0110
  377MOL0     C51930   7.826   3.226   8.194  0.3978 -0.9447 -0.2133
  377MOL0     C51931   7.801   3.081   8.207  0.2990  0.3821 -0.7572
  377MOL0     C51932   7.881   3.014   8.317 -0.0745  0.5149 -0.3508
  377MOL0    Cl51933   8.051   3.040   8.310 -0.5813 -0.1323  0.5426
  377MOL0     C51934   7.219   3.717   8.387 -0.7149  0.2519  0.5958
  377MOL0     C51935   7.171   3.819   8.470 -0.0272  0.3966  0.4257
  377MOL0     O51936   7.167   4.094   8.555 -0.2561 -0.5417 -0.5411
  377MOL0     C51937   7.161   4.179   8.862  0.4125 -0.3451 -0.3828
  377MOL0     C51938   7.112   4.253   8.965 -1.4059  0.4798  0.4990
  377MOL0     N51939   7.006   4.867   9.515 -0.4729  0.2480  1.6140
  377MOL0     N51940   6.978   4.987   9.465 -0.0054 -0.3941 -0.1557
  377MOL0     C51941   6.015   5.207   9.700 -0.0402 -0.9221  0.2557
  377MOL0     C51942   5.978   5.226   9.835  0.4007 -0.4634  1.1554
  377MOL0     C51943   5.704   5.139  10.203  0.5283  0.0190 -0.2557
  377MOL0     C51944   5.575   5.196  10.221 -0.4343 -0.2618 -0.4960
  377MOL0     C51945   5.519   5.185  10.347 -0.7268 -0.2694 -0.2993
  377MOL0     C51946   5.578   5.113  10.450  0.3737 -1.8216  0.5399
  377MOL0     O51947   5.529   5.112  10.578 -0.3959 -0.2457  0.1262
  377MOL0     C51948   5.574   5.226  10.663 -0.1382  0.1932  0.6938
  377MOL0     C51949   5.461   5.331  10.681  0.0691 -0.5060 -0.2773
  377MOL0     C51950   5.515   5.465  10.729  0.1322 -0.1568 -0.6335
  377MOL0     C51951   5.561   5.467  10.873  0.6206  0.6590 -0.1339
  377MOL0     C51952   5.611   5.595  10.910  0.3191  0.6320  0.2817
  377MOL0     C51953   5.648   5.701  10.943 -0.1855  0.8428 -0.5546
  377MOL0     C51954   5.690   5.045  10.430 -0.1861 -0.2383  0.3304
  377MOL0     C51955   5.764   5.066  10.308 -0.4411 -0.2537  0.1504
  377MOL0     C51956   5.901   4.996  10.310 -0.5714 -0.0455 -0.1332
  377MOL0     H51957   5.866   4.905   9.894 -0.4736  0.0858 -0.1293
  377MOL0     H51958   5.948   4.881   9.657  1.7908 -1.0110 -0.5281
  377MOL0     H51959   6.250   5.043   9.530  1.4238  3.8397  2.3617
  377MOL0     H51960   6.203   5.205   9.502  0.8310 -1.1062  0.3262
  377MOL0     H51961   6.254   4.999   9.301  0.9599  0.3885  0.2881
  377MOL0     H51962   6.122   5.116   9.252  2.5013  0.8699 -2.9975
  377MOL0     H51963   6.330   5.170   9.159 -1.8388  2.9579 -1.2901
  377MOL0     H51964   6.266   5.292   9.261 -2.5570 -0.9973 -2.5245
  377MOL0     H51965   6.399   5.256   9.447 -1.6353  0.4585 -1.0598
  377MOL0     H51966   6.466   5.097   9.394 -2.4616 -1.4886 -3.1246
  377MOL0     H51967   6.491   5.359   9.262 -2.0534 -1.1976  3.4893
  377MOL0     H51968   6.571   5.213   9.195 -0.5152 -0.1026 -0.7112
  377MOL0     H51969   6.714   5.374   9.300  1.8424 -1.1979 -0.2912
  377MOL0     H51970   6.622   5.362   9.453 -0.4376 -0.6500  0.2474
  377MOL0     H51971   6.693   5.121   9.483  1.4250 -1.5547 -0.6493
  377MOL0     H51972   6.831   5.226   9.488 -0.1712  0.4022 -0.1238
  377MOL0     H51973   6.734   5.061   9.250 -1.1722 -1.1959  1.3182
  377MOL0     H51974   6.883   5.157   9.249 -1.1366 -1.5895 -1.3918
  377MOL0     H51975   6.783   4.819   9.278  0.2406  2.8329 -1.3139
  377MOL0     H51976   6.869   4.592   9.539  3.1315  0.0258  1.7639
  377MOL0     H51977   7.038   4.589   9.486  1.1815  0.5932 -0.1791
  377MOL0     H51978   6.791   4.587   9.314 -0.6441  0.8408  2.2893
  377MOL0     H51979   6.947   4.600   9.244 -3.1016  3.8862 -1.0237
  377MOL0     H51980   6.924   4.363   9.426 -2.9080  0.0942  1.1933
  377MOL0     H51981   6.799   4.350   9.322 -0.5884  0.9384  1.5050
  377MOL0     H51982   7.070   4.387   9.189 -0.5804  1.1880 -0.0779
  377MOL0     H51983   7.022   4.235   9.261 -0.8276 -0.5455  0.6731
  377MOL0     H51984   6.793   4.203   8.937  0.8067 -3.7886  1.9443
  377MOL0     H51985   6.748   4.040   8.739  0.1690  1.3023  0.7547
  377MOL0     H51986   6.874   4.004   8.611  2.1109  0.7038 -0.0774
  377MOL0     H51987   6.785   4.158   8.628 -0.2857 -0.1585  0.8237
  377MOL0     H51988   7.334   3.739   8.751  1.2080 -1.9825 -1.0680
  377MOL0     H51989   7.430   3.568   8.598  3.8230  2.6012  0.1471
  377MOL0     H51990   7.250   3.552   8.174  1.1297  2.3786 -2.7325
  377MOL0     H51991   7.401   3.633   8.172 -0.1577 -0.5615 -2.1058
  377MOL0     H51992   7.342   3.341   8.125  0.0598 -0.2017  1.3036
  377MOL0     H51993   7.403   3.460   8.016 -2.9667 -1.6852  0.0588
  377MOL0     H51994   7.580   3.370   8.259  3.3347 -3.7395 -1.0118
  377MOL0     H51995   7.619   3.482   8.127 -0.0701  0.3245 -0.4692
  377MOL0     H51996   7.582   3.326   7.965 -0.0402  0.6579  1.1028
  377MOL0     H51997   7.577   3.192   8.076 -2.4640  0.6145  1.8732
  377MOL0     H51998   7.802   3.219   7.992  2.5982  0.0577  0.4093
  377MOL0     H51999   7.813   3.383   8.079  0.9971 -1.2185  1.6533
  377MOL0     H52000   7.786   3.282   8.280 -0.1812  0.3784 -1.2964
  377MOL0     H52001   7.934   3.244   8.188  0.2290  0.3284  0.2112
  377MOL0     H52002   7.827   3.018   8.122  1.4463 -0.6431  0.3087
  377MOL0     H52003   7.696   3.070   8.236  0.8264  0.3113  1.2889
  377MOL0     H52004   7.853   2.909   8.325  1.3071  0.0850 -0.8494
  377MOL0     H52005   7.840   3.051   8.411 -1.0929  3.2735 -1.7692
  377MOL0     H52006   7.199   3.708   8.280  2.8560 -1.9118 -0.0382
  377MOL0     H52007   7.097   3.885   8.426  0.2591  0.2234 -0.3368
  377MOL0     H52008   7.267   4.168   8.843  0.7397  0.0423  1.1198
  377MOL0     H52009   7.190   4.300   9.023  0.4006 -0.4168 -1.1031
  377MOL0     H52010   6.044   5.295   9.643  3.2846 -0.8561  1.8007
  377MOL0     H52011   5.983   5.322   9.884 -3.0568 -0.3623  1.5455
  377MOL0     H52012   5.526   5.250  10.140 -2.0018 -1.0455 -0.1134
  377MOL0     H52013   5.432   5.246  10.371 -1.1767  0.2112 -2.8587
  377MOL0     H52014   5.612   5.191  10.759 -0.4886 -0.5071  0.5839
  377MOL0     H52015   5.648   5.272  10.596 -2.4143  0.9512 -1.4168
  377MOL0     H52016   5.392   5.295  10.759  1.6035 -0.5202  1.1289
  377MOL0     H52017   5.408   5.343  10.586  1.0799  0.9673 -0.6828
  377MOL0     H52018   5.603   5.504  10.676  1.4590  0.8778  2.1235
  377MOL0     H52019   5.434   5.534  10.705 -0.0994 -1.3101 -3.6622
  377MOL0     H52020   5.640   5.392  10.884  1.8990  1.4943 -2.7262
  377MOL0     H52021   5.481   5.438  10.941  0.6235 -2.5467 -1.3467
  377MOL0     H52022   5.684   5.798  10.970  1.0408  0.4443 -0.7011
  377MOL0     H52023   5.743   5.004  10.515 -0.9328  0.6726  1.2622
  377MOL0     H52024   5.927   4.978  10.415 -1.4160  1.9039  0.4473
  377MOL0     H52025   5.878   4.894  10.277 -0.6710 -1.3793  3.5510
  377MOL0     H52026   5.976   5.039  10.244  0.7530 -2.5798 -0.4120
  378MOL0     O52027   0.185   8.088   0.841 -0.2243 -0.2526  0.4256
  378MOL0     C52028   0.279   8.047   0.898 -0.3553 -0.4111  0.0717
  378MOL0     O52029   0.286   8.024   1.038 -0.1587  0.2869  0.1728
  378MOL0     C52030   0.177   8.021   1.121 -0.2464 -0.3571  0.3623
  378MOL0     C52031   0.187   8.083   1.243 -0.7423  1.0258 -0.6290
  378MOL0     C52032   0.096   8.061   1.342  0.0512  0.5085 -0.1131
  378MOL0     C52033  -0.026   7.986   1.325 -1.0836  0.1340  0.2739
  378MOL0     O52034  -0.115   7.980   1.431  0.0459 -0.8078  0.0809
  378MOL0     C52035  -0.255   7.959   1.400  0.1629 -0.5039  0.3989
  378MOL0     C52036  -0.315   8.091   1.355 -0.2337 -0.6741  0.4421
  378MOL0     C52037  -0.326   8.192   1.470 -1.1449 -0.0012 -0.6058
  378MOL0     C52038  -0.442   8.153   1.573 -0.2706 -0.7176 -0.5769
  378MOL0     C52039  -0.427   8.224   1.711  0.3143 -0.0942  1.3678
  378MOL0     C52040  -0.549   8.205   1.794  0.2216  0.3697  0.0600
  378MOL0     C52041  -0.539   8.227   1.946  0.1358 -0.9950 -0.9383
  378MOL0     C52042  -0.634   8.145   2.033 -0.2458 -0.0729  0.0026
  378MOL0     N52043  -0.616   7.994   2.037 -0.8029 -0.4256 -0.8443
  378MOL0     C52044  -0.495   7.925   2.067  0.4533  0.3837  0.1721
  378MOL0     C52045  -0.519   7.796   2.036 -0.0824  0.0583 -0.0699
  378MOL0     C52046  -0.415   7.699   2.065  0.3445 -0.3535  0.3705
  378MOL0     C52047  -0.365   7.607   1.955 -0.4676  0.7720  0.4114
  378MOL0     C52048  -0.482   7.510   1.915  0.3524  0.7589 -0.6054
  378MOL0     C52049  -0.522   7.402   2.019  0.0408 -0.1269 -0.4947
  378MOL0     O52050  -0.405   7.353   2.080 -0.6011  0.5463 -0.3077
  378MOL0     C52051  -0.374   7.226   2.034 -0.7850 -0.8453 -0.4310
  378MOL0     C52052  -0.323   7.209   1.905  0.1140  1.0364  0.3967
  378MOL0     C52053  -0.282   7.082   1.855 -0.2893 -0.2518  0.0479
  378MOL0     C52054  -0.231   7.069   1.717  1.1782 -0.6095 -0.2573
  378MOL0     C52055  -0.294   6.973   1.939 -0.4716 -0.9717  0.2956
  378MOL0     C52056  -0.262   6.837   1.898 -0.6276 -0.0790  0.0758
  378MOL0     O52057  -0.219   6.752   1.997 -0.7820  0.7076 -0.6386
  378MOL0     C52058  -0.216   6.620   1.975 -0.0510  0.5564  0.2186
  378MOL0     C52059  -0.226   6.546   2.091 -0.0611  1.2562 -0.5752
  378MOL0     C52060  -0.251   6.409   2.090 -0.3671 -1.1906  0.8618
  378MOL0     C52061  -0.255   6.343   1.967  0.1288  1.1325  0.3332
  378MOL0     O52062  -0.281   6.204   1.975  0.8549  0.8403  0.0614
  378MOL0     C52063  -0.284   6.113   1.863  0.3962 -0.2433  0.1935
  378MOL0     C52064  -0.290   5.971   1.911  0.4860  0.3766 -0.1248
  378MOL0     C52065  -0.415   5.946   1.982  0.1998  0.2578 -0.5495
  378MOL0     C52066  -0.464   5.797   1.985  0.5021  0.7249 -0.2586
  378MOL0     C52067  -0.596   5.795   2.049 -0.4260  0.3268 -0.1476
  378MOL0     C52068  -0.659   5.649   2.044  0.1898  1.2246 -0.5526
  378MOL0     C52069  -0.798   5.645   2.106  0.0576 -0.7413 -1.2139
  378MOL0     C52070  -0.913   5.718   2.027 -1.1765  0.2528 -0.3304
  378MOL0    Cl52071  -1.046   5.750   2.127  0.0097  0.3615  0.5253
  378MOL0     C52072  -0.210   6.411   1.852 -0.0209  0.2809  0.0727
  378MOL0     C52073  -0.205   6.549   1.851  0.4222 -0.0735 -0.3558
  378MOL0     O52074  -0.294   6.803   1.782 -0.3018  0.0016 -0.4580
  378MOL0     C52075  -0.326   6.990   2.077 -0.4695 -0.1354  0.5586
  378MOL0     C52076  -0.365   7.115   2.114  0.2206  0.4228 -0.5350
  378MOL0     N52077  -0.651   7.768   2.013  0.0270  0.2361  0.1701
  378MOL0     N52078  -0.706   7.891   2.020  0.1667 -0.5783  0.8482
  378MOL0     C52079  -0.038   7.921   1.193 -0.9910  0.1136 -0.2908
  378MOL0     C52080   0.066   7.937   1.097 -0.1117 -0.3666 -0.3341
  378MOL0     C52081   0.383   8.006   0.807  0.1387  0.4833 -0.2168
  378MOL0     C52082   0.464   7.896   0.854  0.1563  0.6596  1.0168
  378MOL0     C52083   0.571   7.853   0.777 -0.3841  0.1779  0.2891
  378MOL0     C52084   0.590   7.893   0.649  0.7785 -0.8816 -0.4835
  378MOL0     O52085   0.692   7.841   0.570  0.6780 -0.0323 -0.2656
  378MOL0     C52086   0.699   7.882   0.431  0.3842  0.6028 -0.0028
  378MOL0     C52087   0.762   7.763   0.367 -0.7841  0.7651 -0.1240
  378MOL0     C52088   0.802   7.763   0.223 -0.2485 -0.0593 -0.1424
  378MOL0     C52089   0.675   7.770   0.138 -0.0920  1.1288  0.2212
  378MOL0     C52090   0.716   7.782  -0.002  0.2724  1.4664 -0.2720
  378MOL0     C52091   0.734   7.812  -0.118  0.4557 -0.5716 -0.2884
  378MOL0     C52092   0.504   7.991   0.606  0.0674 -0.4458  0.7346
  378MOL0     C52093   0.404   8.056   0.677 -0.1187  0.3107 -0.1152
  378MOL0     C52094   0.333   8.159   0.595  0.9572 -0.3927  0.0513
  378MOL0     H52095   0.278   8.139   1.264 -0.9643  0.6763  1.5963
  378MOL0     H52096   0.092   8.117   1.435 -1.0457  0.0012  0.1549
  378MOL0     H52097  -0.303   7.934   1.495 -0.1279 -0.9000  0.1509
  378MOL0     H52098  -0.271   7.882   1.324 -1.5292 -0.6096  0.8188
  378MOL0     H52099  -0.247   8.137   1.283 -0.6272 -0.0507  0.4633
  378MOL0     H52100  -0.417   8.077   1.318  0.2885 -1.9180 -0.5888
  378MOL0     H52101  -0.231   8.197   1.522 -2.2286 -3.6624  2.1127
  378MOL0     H52102  -0.351   8.295   1.442  1.6784  0.4165 -1.9526
  378MOL0     H52103  -0.541   8.174   1.532 -0.4085  4.5485  1.6744
  378MOL0     H52104  -0.436   8.045   1.592 -0.4603 -1.0614 -2.2572
  378MOL0     H52105  -0.421   8.332   1.695 -0.8024 -0.2548 -0.4622
  378MOL0     H52106  -0.344   8.179   1.767  0.1484 -1.9728  0.1922
  378MOL0     H52107  -0.637   8.258   1.756  0.3676  1.2492  0.9164
  378MOL0     H52108  -0.577   8.099   1.784 -0.6540  0.7616 -2.0923
  378MOL0     H52109  -0.547   8.334   1.970 -0.0086 -0.6292 -2.4921
  378MOL0     H52110  -0.433   8.209   1.965  0.4369  2.2154  1.2473
  378MOL0     H52111  -0.636   8.199   2.128  1.7533  1.8477 -0.9730
  378MOL0     H52112  -0.731   8.159   1.983 -1.3645 -5.3776  0.0532
  378MOL0     H52113  -0.401   7.958   2.110  1.5095 -2.7418  0.5277
  378MOL0     H52114  -0.445   7.632   2.146  0.0415  0.2734  0.7855
  378MOL0     H52115  -0.330   7.761   2.095 -0.6541  1.9336 -1.2792
  378MOL0     H52116  -0.344   7.669   1.868  0.5508  2.8559  2.0359
  378MOL0     H52117  -0.275   7.552   1.984 -1.6481 -1.4134  0.0936
  378MOL0     H52118  -0.568   7.566   1.877  0.0443  1.0442  0.4616
  378MOL0     H52119  -0.449   7.450   1.830 -3.8366 -2.8295 -0.0511
  378MOL0     H52120  -0.580   7.430   2.108 -1.1133  0.8971 -1.5358
  378MOL0     H52121  -0.585   7.324   1.976 -3.9333  0.8353  2.9298
  378MOL0     H52122  -0.306   7.297   1.844 -0.6118  0.3431 -0.8523
  378MOL0     H52123  -0.132   7.023   1.710  0.9544 -1.4883  1.7379
  378MOL0     H52124  -0.224   7.163   1.662  0.7880 -1.3531 -1.6341
  378MOL0     H52125  -0.302   7.001   1.668  0.8370  0.4523 -1.2823
  378MOL0     H52126  -0.236   6.604   2.181 -0.9276  0.1232  0.0898
  378MOL0     H52127  -0.260   6.369   2.190  3.3864 -0.1104  1.8012
  378MOL0     H52128  -0.377   6.119   1.804  0.6909 -2.3664 -0.5900
  378MOL0     H52129  -0.201   6.134   1.794 -0.8674 -2.6247 -2.2554
  378MOL0     H52130  -0.283   5.909   1.822  0.3728 -2.5583  1.7623
  378MOL0     H52131  -0.206   5.946   1.976 -0.6820 -0.0603  1.3018
  378MOL0     H52132  -0.499   6.005   1.945  1.0756  1.4178 -0.7583
  378MOL0     H52133  -0.413   5.991   2.082  1.0762  0.4517 -0.6444
  378MOL0     H52134  -0.397   5.732   2.043  0.7811  1.6209  0.4478
  378MOL0     H52135  -0.476   5.756   1.884  1.9932 -1.1366  0.2470
  378MOL0     H52136  -0.592   5.837   2.150 -0.4845 -2.2811  1.0255
  378MOL0     H52137  -0.668   5.859   1.997 -1.1501 -0.1744  0.2256
  378MOL0     H52138  -0.586   5.596   2.106  0.1920  0.6739 -1.0239
  378MOL0     H52139  -0.659   5.609   1.943 -1.3764 -1.4999  0.4224
  378MOL0     H52140  -0.790   5.685   2.207 -2.5219 -0.6917 -0.9638
  378MOL0     H52141  -0.822   5.540   2.127  3.4769 -1.1546  1.5418
  378MOL0     H52142  -0.948   5.654   1.945 -0.0624  0.3528 -0.8991
  378MOL0     H52143  -0.894   5.816   1.983 -3.8307  1.4763  0.9786
  378MOL0     H52144  -0.198   6.351   1.762 -1.6599  3.0993 -2.1794
  378MOL0     H52145  -0.194   6.577   1.747  1.0564  0.5592 -0.1281
  378MOL0     H52146  -0.329   6.913   2.154  0.8240 -0.2033  0.5671
  378MOL0     H52147  -0.401   7.132   2.215 -0.4527  1.7383 -0.9634
  378MOL0     H52148  -0.125   7.856   1.183 -0.2175 -1.2888  1.5494
  378MOL0     H52149   0.058   7.875   1.008  0.5023 -0.9987  0.0388
  378MOL0     H52150   0.442   7.867   0.956 -0.2671  0.8487  0.9829
  378MOL0     H52151   0.635   7.772   0.809  2.2821  0.3548 -3.7793
  378MOL0     H52152   0.604   7.891   0.376  0.3958 -0.9703 -0.3363
  378MOL0     H52153   0.755   7.975   0.428  0.6017  0.6808  3.0832
  378MOL0     H52154   0.715   7.669   0.397  1.3997  0.3169  2.2164
  378MOL0     H52155   0.854   7.766   0.426 -1.0417  0.0355  0.3318
  378MOL0     H52156   0.878   7.839   0.210  1.2396 -0.5738  3.9375
  378MOL0     H52157   0.846   7.666   0.195 -1.4365 -1.0607  1.2628
  378MOL0     H52158   0.608   7.847   0.176 -3.5152 -1.6835  0.3959
  378MOL0     H52159   0.619   7.677   0.149  2.3005 -0.7204 -1.9956
  378MOL0     H52160   0.738   7.840  -0.221 -1.2119  4.7305  0.7612
  378MOL0     H52161   0.511   8.031   0.505 -0.6639  1.7959  1.5146
  378MOL0     H52162   0.417   8.228   0.582  2.2655 -2.0407 -0.5403
  378MOL0     H52163   0.329   8.108   0.499  1.6385 -3.1626  1.3989
  378MOL0     H52164   0.244   8.210   0.635  1.3216  1.7416 -1.6388
  379MOL0     O52165   9.508   2.304  10.015 -1.2219 -0.0553 -0.2952
  379MOL0     C52166   9.471   2.399  10.079  0.1485  0.6512 -0.4319
  379MOL0     O52167   9.397   2.504  10.029 -0.2778 -0.5857  0.3523
  379MOL0     C52168   9.308   2.493   9.921 -0.0460  0.5635 -0.4573
  379MOL0     C52169   9.266   2.616   9.879  0.6202  0.0255  0.1592
  379MOL0     C52170   9.165   2.615   9.778  0.2087 -1.7482  0.6003
  379MOL0     C52171   9.101   2.501   9.720  0.2598 -0.6798 -0.3214
  379MOL0     O52172   9.029   2.506   9.609  0.2994  0.4099  0.2158
  379MOL0     C52173   8.924   2.606   9.605  1.0437 -0.1192  0.1785
  379MOL0     C52174   8.808   2.545   9.530  0.5657  0.1237  0.6843
  379MOL0     C52175   8.724   2.425   9.595 -0.1002 -0.0371 -0.0134
  379MOL0     C52176   8.655   2.343   9.481 -0.2391 -0.1567 -1.0469
  379MOL0     C52177   8.541   2.256   9.548  0.0278  0.0784 -0.1010
  379MOL0     C52178   8.460   2.149   9.475 -0.6786 -0.3920 -0.3271
  379MOL0     C52179   8.328   2.126   9.548  0.5242 -0.2051  0.6047
  379MOL0     C52180   8.211   2.201   9.491 -0.3120 -0.1840  0.2823
  379MOL0     N52181   8.088   2.186   9.573  0.0691  0.5081 -0.0904
  379MOL0     C52182   8.063   2.257   9.688 -0.5314  0.3218  0.7404
  379MOL0     C52183   7.929   2.239   9.707 -0.5704  0.1588  0.0298
  379MOL0     C52184   7.842   2.303   9.812  0.2881 -0.3756 -0.5549
  379MOL0     C52185   7.846   2.245   9.950 -0.4403 -0.5234  0.2739
  379MOL0     C52186   7.773   2.130   9.957  0.4537 -0.1294  0.0286
  379MOL0     C52187   7.785   2.062  10.095  0.1895  0.8220  0.5617
  379MOL0     O52188   7.921   2.030  10.119 -0.1240 -0.7877  0.5933
  379MOL0     C52189   7.946   2.002  10.249  1.2510  0.6975 -0.0011
  379MOL0     C52190   7.899   1.881  10.296  0.5738 -0.1974 -0.3202
  379MOL0     C52191   7.930   1.840  10.425 -0.4452  1.0014  0.9259
  379MOL0     C52192   7.904   1.694  10.470  0.3606 -0.0058  0.1168
  379MOL0     C52193   8.016   1.927  10.496 -0.3917 -0.7895 -0.1382
  379MOL0     C52194   8.066   1.905  10.644 -0.4111  1.2109  0.9651
  379MOL0     O52195   8.155   2.001  10.697  0.4761 -0.7433  0.3601
  379MOL0     C52196   8.158   2.008  10.831 -0.2203  0.7861 -0.6345
  379MOL0     C52197   8.112   2.120  10.893 -0.4328 -0.4645  0.1714
  379MOL0     C52198   8.123   2.136  11.036  0.5957 -0.5279 -0.0098
  379MOL0     C52199   8.163   2.019  11.111  0.1737 -0.3078  0.0329
  379MOL0     O52200   8.169   2.029  11.247 -0.0834 -0.0739 -0.2492
  379MOL0     C52201   8.090   2.129  11.318 -0.0485  0.6808  0.3934
  379MOL0     C52202   8.189   2.229  11.394 -0.0177 -0.5383 -0.1514
  379MOL0     C52203   8.239   2.189  11.525 -0.2790  0.0423 -0.6323
  379MOL0     C52204   8.357   2.270  11.587 -0.7593 -0.0024  0.0669
  379MOL0     C52205   8.320   2.422  11.596  0.0443  0.2006  0.5784
  379MOL0     C52206   8.194   2.441  11.683 -0.2411 -0.3796  0.5969
  379MOL0     C52207   8.172   2.591  11.719  0.8628  0.4218 -0.7823
  379MOL0     C52208   8.095   2.610  11.853  0.6824  0.1969 -0.2266
  379MOL0    Cl52209   7.912   2.594  11.817  0.6248  0.3884  0.3749
  379MOL0     C52210   8.198   1.902  11.051  0.2194 -0.0498 -0.2073
  379MOL0     C52211   8.199   1.899  10.913  0.4727 -1.3105  0.1582
  379MOL0     O52212   8.011   1.812  10.711 -0.7563 -0.3834  0.5028
  379MOL0     C52213   8.060   2.041  10.439  0.5569 -1.0463  0.3437
  379MOL0     C52214   8.021   2.085  10.323  0.2828 -0.2174  0.5377
  379MOL0     N52215   7.877   2.147   9.619 -0.4540 -0.2690 -0.5490
  379MOL0     N52216   7.970   2.118   9.541  0.0369 -0.1599  0.2687
  379MOL0     C52217   9.153   2.378   9.765 -1.1109 -0.3080  0.3571
  379MOL0     C52218   9.250   2.377   9.864 -0.5413  0.3550  0.5799
  379MOL0     C52219   9.523   2.420  10.216  0.3055 -0.1006 -0.4592
  379MOL0     C52220   9.506   2.544  10.283  0.5449 -0.0398  0.6314
  379MOL0     C52221   9.552   2.570  10.411 -0.7084  0.1215 -0.0424
  379MOL0     C52222   9.623   2.473  10.480  0.6704  0.6912  0.3617
  379MOL0     O52223   9.680   2.513  10.599 -0.6205  0.0449  0.7103
  379MOL0     C52224   9.626   2.475  10.724 -0.3391 -0.2195 -0.3447
  379MOL0     C52225   9.638   2.596  10.819 -0.3364  0.4021 -0.4574
  379MOL0     C52226   9.622   2.555  10.963  0.1603 -1.0280 -0.5959
  379MOL0     C52227   9.688   2.644  11.067 -0.3696  0.2974  0.1382
  379MOL0     C52228   9.637   2.780  11.079  0.5240 -0.0263 -0.5817
  379MOL0     C52229   9.597   2.897  11.088 -0.1397  0.0398  0.2774
  379MOL0     C52230   9.631   2.345  10.422  0.2674 -0.3301  0.0807
  379MOL0     C52231   9.582   2.317  10.295 -0.3044 -0.3683 -0.5499
  379MOL0     C52232   9.618   2.175  10.243  0.1474 -0.8971  0.2930
  379MOL0     H52233   9.294   2.712   9.922  2.2812 -1.0525  1.6341
  379MOL0     H52234   9.134   2.714   9.746  4.2973 -0.2970  0.6518
  379MOL0     H52235   8.957   2.688   9.540 -2.0513 -0.4191 -1.9860
  379MOL0     H52236   8.878   2.650   9.694 -2.9306  2.4598 -2.7902
  379MOL0     H52237   8.733   2.622   9.510  3.5559  2.6733 -1.6864
  379MOL0     H52238   8.838   2.515   9.429  0.6904  0.5509  0.5930
  379MOL0     H52239   8.772   2.365   9.673 -1.8271  2.6357  3.3750
  379MOL0     H52240   8.649   2.478   9.654  0.6378  1.2826 -0.2280
  379MOL0     H52241   8.617   2.412   9.405  2.2311 -0.3062 -2.5332
  379MOL0     H52242   8.724   2.276   9.429  0.5038 -1.3079  1.3014
  379MOL0     H52243   8.461   2.328   9.571 -0.0940  0.7672 -2.4028
  379MOL0     H52244   8.578   2.193   9.629 -1.9360 -1.7271 -0.5384
  379MOL0     H52245   8.445   2.187   9.374 -0.1087 -2.5928 -1.2954
  379MOL0     H52246   8.520   2.058   9.472 -2.1035 -1.3394 -1.2008
  379MOL0     H52247   8.339   2.141   9.656  1.1640 -0.8802  0.6399
  379MOL0     H52248   8.314   2.018   9.552  2.7315 -0.5394  0.4566
  379MOL0     H52249   8.227   2.309   9.480 -2.0487 -0.0906 -1.9780
  379MOL0     H52250   8.178   2.161   9.395  1.5019  1.8440 -1.3043
  379MOL0     H52251   8.134   2.321   9.740  2.5213 -1.2532 -1.1520
  379MOL0     H52252   7.738   2.306   9.776  0.1764  2.4546 -0.2420
  379MOL0     H52253   7.865   2.410   9.819 -3.4142  0.4727  3.0271
  379MOL0     H52254   7.949   2.249   9.988 -0.6184  1.3931  0.6876
  379MOL0     H52255   7.793   2.319  10.009 -0.5636  0.0916 -0.5825
  379MOL0     H52256   7.668   2.154   9.938 -0.2210 -2.1524  0.8840
  379MOL0     H52257   7.805   2.071   9.870  3.2110  1.0184  0.1498
  379MOL0     H52258   7.735   2.116  10.177  2.3522 -0.9341  3.2154
  379MOL0     H52259   7.724   1.974  10.074  2.0878  0.2738 -3.6117
  379MOL0     H52260   7.829   1.829  10.232 -1.4130  2.7153 -0.7295
  379MOL0     H52261   7.992   1.635  10.498  0.4101 -1.6737 -3.1481
  379MOL0     H52262   7.858   1.637  10.389 -0.4126  0.8650 -0.0626
  379MOL0     H52263   7.832   1.705  10.552  0.8956  1.2796  0.4313
  379MOL0     H52264   8.077   2.204  10.834 -1.9432 -1.2717 -0.1474
  379MOL0     H52265   8.088   2.233  11.069 -1.8441 -1.2869 -0.1884
  379MOL0     H52266   8.015   2.174  11.252 -1.5550 -0.6767  1.1140
  379MOL0     H52267   8.019   2.079  11.385 -2.8840  0.5114 -2.4788
  379MOL0     H52268   8.278   2.247  11.333  0.5853 -0.1040  0.8349
  379MOL0     H52269   8.127   2.318  11.403 -1.3981 -1.4396 -0.4168
  379MOL0     H52270   8.278   2.090  11.501 -2.7824 -0.2828 -4.1337
  379MOL0     H52271   8.157   2.178  11.596 -0.1411 -0.5952 -0.5635
  379MOL0     H52272   8.441   2.269  11.517 -0.6171  2.6285  0.0835
  379MOL0     H52273   8.394   2.217  11.674  0.3750  2.0011  0.8798
  379MOL0     H52274   8.407   2.486  11.613  0.2313  0.7385 -1.9828
  379MOL0     H52275   8.284   2.466  11.503 -0.4773 -0.8941  0.2574
  379MOL0     H52276   8.221   2.375  11.767 -1.5543 -2.1305 -0.2876
  379MOL0     H52277   8.100   2.404  11.640 -1.9810  2.1991  1.9398
  379MOL0     H52278   8.113   2.641  11.641  2.0911  1.7420 -0.9190
  379MOL0     H52279   8.274   2.629  11.727  1.4781 -1.0113 -1.5433
  379MOL0     H52280   8.106   2.716  11.879 -0.5885  0.5991 -1.2370
  379MOL0     H52281   8.144   2.550  11.930  1.0204  2.8265  1.7536
  379MOL0     H52282   8.232   1.812  11.102  2.0959 -0.0916 -1.4416
  379MOL0     H52283   8.242   1.809  10.871  0.4094 -1.1463 -0.2673
  379MOL0     H52284   8.132   2.105  10.489  0.1135 -1.9074  2.1715
  379MOL0     H52285   8.055   2.179  10.279  1.2993 -0.6121  0.4537
  379MOL0     H52286   9.103   2.291   9.723  0.3556 -1.9422  1.8269
  379MOL0     H52287   9.264   2.275   9.898 -1.4887  0.6916  2.0702
  379MOL0     H52288   9.446   2.622  10.237 -0.4416 -1.2252 -0.1683
  379MOL0     H52289   9.533   2.660  10.469  1.0723  0.3583  0.2377
  379MOL0     H52290   9.519   2.452  10.725 -1.1498  3.0074  1.9410
  379MOL0     H52291   9.672   2.384  10.764 -2.1919 -2.5136 -3.0277
  379MOL0     H52292   9.560   2.669  10.795 -1.1231 -0.3091 -0.1152
  379MOL0     H52293   9.735   2.646  10.807  0.9814 -2.0916 -0.8532
  379MOL0     H52294   9.515   2.547  10.980 -0.2206  2.7588 -0.2987
  379MOL0     H52295   9.671   2.460  10.987 -1.1185 -0.9665  2.8130
  379MOL0     H52296   9.796   2.629  11.063 -0.3487 -0.5303  2.3997
  379MOL0     H52297   9.681   2.599  11.166  0.9605  1.8020  0.9645
  379MOL0     H52298   9.572   3.001  11.101 -3.7265 -0.8027  1.4294
  379MOL0     H52299   9.677   2.262  10.474  2.0213  2.1290  2.8148
  379MOL0     H52300   9.530   2.133  10.193 -0.7487 -0.7945  1.7256
  379MOL0     H52301   9.692   2.187  10.164 -1.0658  3.7668 -0.4061
  379MOL0     H52302   9.663   2.099  10.307  3.0487  2.0537  2.0364
  380MOL0     O52303   3.999   8.514   1.644 -0.3537 -0.7382  0.4164
  380MOL0     C52304   3.990   8.627   1.678 -0.7220 -0.6031  0.1919
  380MOL0     O52305   3.877   8.700   1.677  0.4123  0.5741  0.4322
  380MOL0     C52306   3.755   8.641   1.686  0.0662 -0.1136  0.1714
  380MOL0     C52307   3.655   8.706   1.622 -0.7258  0.2814 -0.4812
  380MOL0     C52308   3.521   8.654   1.611 -0.9581  1.1615 -0.4096
  380MOL0     C52309   3.488   8.529   1.673  0.6348 -0.1077  0.0722
  380MOL0     O52310   3.363   8.472   1.662  0.0582 -0.2056 -0.4405
  380MOL0     C52311   3.253   8.552   1.663 -0.5694 -0.1880  0.3034
  380MOL0     C52312   3.248   8.634   1.790 -0.2637  0.0335  0.2649
  380MOL0     C52313   3.252   8.550   1.912  0.1623 -0.1212 -1.9022
  380MOL0     C52314   3.344   8.598   2.021 -0.9301 -0.5267  0.5620
  380MOL0     C52315   3.307   8.513   2.142  0.3467 -1.3019 -0.1864
  380MOL0     C52316   3.316   8.354   2.124  0.1957 -0.3033  1.2972
  380MOL0     C52317   3.466   8.323   2.069  0.4520 -0.6228 -0.4701
  380MOL0     C52318   3.457   8.185   2.009  0.8734 -0.8660  0.3674
  380MOL0     N52319   3.582   8.121   1.991 -0.3472 -0.0801 -0.1769
  380MOL0     C52320   3.664   8.125   1.886  0.1669  0.0409 -0.2068
  380MOL0     C52321   3.784   8.100   1.935 -0.4799 -0.6882 -0.4677
  380MOL0     C52322   3.909   8.106   1.855  0.1535 -0.0414  1.2358
  380MOL0     C52323   3.885   7.998   1.739  0.1811  0.7072  0.4390
  380MOL0     C52324   3.978   8.015   1.620 -0.4734 -0.3512  0.9431
  380MOL0     C52325   3.952   8.145   1.533 -0.6904 -0.8688  0.0375
  380MOL0     O52326   3.821   8.120   1.493  0.4260 -0.6451  0.9809
  380MOL0     C52327   3.734   8.225   1.469 -0.1710 -0.0852  0.4235
  380MOL0     C52328   3.778   8.345   1.418 -0.1213  0.2120 -0.5880
  380MOL0     C52329   3.685   8.443   1.371  0.0104 -0.2942  0.0952
  380MOL0     C52330   3.754   8.570   1.321  0.0565 -0.0700 -0.0873
  380MOL0     C52331   3.548   8.416   1.366 -0.0585 -0.4822  0.2857
  380MOL0     C52332   3.449   8.509   1.308 -0.6852 -0.0407  0.6932
  380MOL0     O52333   3.497   8.626   1.247  0.0742 -0.8317  0.7003
  380MOL0     C52334   3.425   8.720   1.180  0.1582 -0.2103  0.5763
  380MOL0     C52335   3.480   8.844   1.160 -0.3048  0.2911 -0.2376
  380MOL0     C52336   3.408   8.951   1.095 -0.1712  0.2573 -0.5221
  380MOL0     C52337   3.282   8.929   1.053  0.1747 -0.3222  0.5647
  380MOL0     O52338   3.205   9.025   0.986  0.2793  0.0434 -0.5066
  380MOL0     C52339   3.125   9.118   1.066 -0.6332  0.1762 -1.2992
  380MOL0     C52340   3.179   9.258   1.059 -0.1173 -1.4768 -0.6815
  380MOL0     C52341   3.267   9.300   1.178 -0.8848  0.3246 -0.8467
  380MOL0     C52342   3.278   9.447   1.206  0.4022  0.1856  0.0087
  380MOL0     C52343   3.364   9.480   1.333  0.1204  0.3274  0.2437
  380MOL0     C52344   3.371   9.624   1.350 -1.0161 -0.3427  0.4783
  380MOL0     C52345   3.437   9.658   1.479 -0.9360 -1.1845 -1.0699
  380MOL0     C52346   3.460   9.813   1.489  0.2955  0.3115 -0.3430
  380MOL0    Cl52347   3.303   9.879   1.545 -0.0801  0.1087 -0.2217
  380MOL0     C52348   3.218   8.799   1.075  0.8524  0.5122  0.1734
  380MOL0     C52349   3.293   8.696   1.137  0.5252 -0.5192  0.9306
  380MOL0     O52350   3.330   8.476   1.311 -0.2013 -0.5915 -0.1686
  380MOL0     C52351   3.504   8.301   1.429  0.6802  0.0011  0.2761
  380MOL0     C52352   3.599   8.213   1.482  1.4049  0.3713 -0.3441
  380MOL0     N52353   3.771   8.064   2.066 -0.3710 -0.7192 -0.2500
  380MOL0     N52354   3.653   8.074   2.101 -0.5683  0.4191  0.7471
  380MOL0     C52355   3.590   8.456   1.738  0.2308  0.0106  0.6587
  380MOL0     C52356   3.728   8.519   1.749 -0.0611 -0.5160  0.0534
  380MOL0     C52357   4.112   8.716   1.707 -0.1523 -0.1162 -0.1027
  380MOL0     C52358   4.098   8.859   1.680 -0.3391  0.4568 -0.0687
  380MOL0     C52359   4.205   8.938   1.688 -0.8366 -0.4523  0.3592
  380MOL0     C52360   4.333   8.892   1.721 -0.0969  0.1835  0.1373
  380MOL0     O52361   4.425   8.985   1.713  0.4895 -0.4728  0.6708
  380MOL0     C52362   4.563   8.953   1.736 -0.5174 -0.2119  0.5878
  380MOL0     C52363   4.600   9.036   1.857  0.9950 -0.5967 -0.9828
  380MOL0     C52364   4.747   9.005   1.897 -1.0451 -0.0792 -0.0971
  380MOL0     C52365   4.849   9.018   1.781 -0.5650 -0.9969  0.6979
  380MOL0     C52366   4.853   9.152   1.718 -0.9083  0.7649  0.0958
  380MOL0     C52367   4.858   9.265   1.670  0.1730 -0.2013  0.2774
  380MOL0     C52368   4.350   8.755   1.746 -1.0751  0.0040 -0.0277
  380MOL0     C52369   4.238   8.665   1.740 -0.5749 -0.0985  0.4552
  380MOL0     C52370   4.253   8.538   1.803 -0.3508  0.2774 -0.9915
  380MOL0     H52371   3.690   8.802   1.583  0.0028  0.3675  0.3591
  380MOL0     H52372   3.440   8.700   1.555 -1.3982  1.8255  0.7255
  380MOL0     H52373   3.164   8.489   1.665 -0.8268  0.0998 -1.0740
  380MOL0     H52374   3.247   8.620   1.578 -1.8815 -1.4548 -0.6503
  380MOL0     H52375   3.329   8.707   1.796 -0.6195  0.3595  1.5043
  380MOL0     H52376   3.159   8.696   1.775 -0.3474 -0.7304 -3.1180
  380MOL0     H52377   3.149   8.542   1.949  0.1465  3.3958 -0.7494
  380MOL0     H52378   3.279   8.447   1.888  0.9416 -0.3166 -0.3012
  380MOL0     H52379   3.443   8.578   1.981 -1.9180 -1.2547 -1.7090
  380MOL0     H52380   3.340   8.705   2.044 -2.3107  0.5158 -3.5407
  380MOL0     H52381   3.206   8.538   2.174 -0.9560 -4.0672 -1.8385
  380MOL0     H52382   3.368   8.540   2.229 -3.0799  2.2686  1.4457
  380MOL0     H52383   3.279   8.312   2.217 -1.6397  0.8373  1.1453
  380MOL0     H52384   3.250   8.309   2.050  2.2187  2.7432 -2.7764
  380MOL0     H52385   3.530   8.333   2.157 -0.8129 -3.5916  0.9206
  380MOL0     H52386   3.496   8.382   1.982  1.3685  0.7779  0.7369
  380MOL0     H52387   3.392   8.119   2.067  2.3736 -4.2537 -1.5297
  380MOL0     H52388   3.417   8.189   1.908 -0.9586  1.2663  1.0794
  380MOL0     H52389   3.624   8.154   1.789 -1.6286 -0.7162  0.2810
  380MOL0     H52390   4.004   8.087   1.906  0.6476 -2.6816 -0.4516
  380MOL0     H52391   3.920   8.205   1.811  2.0500 -1.5526 -2.1222
  380MOL0     H52392   3.912   7.905   1.789  0.2291  0.8697  0.7209
  380MOL0     H52393   3.783   7.985   1.700  0.4749  0.2645 -0.1910
  380MOL0     H52394   4.076   8.028   1.667  1.0369  0.9184 -2.3117
  380MOL0     H52395   3.968   7.926   1.557 -1.6634  2.2881 -2.9527
  380MOL0     H52396   3.977   8.235   1.589  1.6423  0.0433 -2.2599
  380MOL0     H52397   4.018   8.142   1.445 -0.1842 -3.3282  0.4342
  380MOL0     H52398   3.885   8.357   1.412  0.0041 -1.3008 -1.7836
  380MOL0     H52399   3.701   8.654   1.365 -4.0124 -2.1576 -0.5424
  380MOL0     H52400   3.761   8.573   1.212  1.1303  0.5223 -0.0214
  380MOL0     H52401   3.859   8.579   1.352 -0.3656 -0.5928  1.5893
  380MOL0     H52402   3.574   8.871   1.206 -0.4227 -0.4251  0.4504
  380MOL0     H52403   3.448   9.051   1.082 -3.2093  1.3986 -1.8528
  380MOL0     H52404   3.020   9.124   1.037 -0.9585 -1.2708 -0.4931
  380MOL0     H52405   3.122   9.090   1.171 -1.9079 -1.2116 -1.6710
  380MOL0     H52406   3.230   9.277   0.965 -1.6505  0.5236 -1.1723
  380MOL0     H52407   3.091   9.322   1.065  1.3329  0.5675 -0.4622
  380MOL0     H52408   3.369   9.267   1.154  0.4010  2.4080  1.3417
  380MOL0     H52409   3.240   9.267   1.279  2.4908  3.7436  1.4511
  380MOL0     H52410   3.175   9.484   1.211 -0.5850 -1.9104 -2.5887
  380MOL0     H52411   3.310   9.496   1.113  0.9477  2.2967  1.2302
  380MOL0     H52412   3.326   9.420   1.416  2.6071 -4.2291 -1.5284
  380MOL0     H52413   3.461   9.445   1.297 -1.6234 -4.8693 -0.3516
  380MOL0     H52414   3.269   9.663   1.358 -2.0984 -2.2377 -2.3083
  380MOL0     H52415   3.418   9.670   1.262 -1.5562 -0.9818 -0.1620
  380MOL0     H52416   3.535   9.609   1.488 -0.9442 -0.8390  1.8621
  380MOL0     H52417   3.369   9.623   1.556 -2.0137 -0.2334 -1.5623
  380MOL0     H52418   3.508   9.856   1.400  0.1025 -0.4267 -0.8128
  380MOL0     H52419   3.524   9.836   1.575 -0.0045  1.0480 -0.3063
  380MOL0     H52420   3.126   8.779   1.021  2.0805 -2.8210 -0.9867
  380MOL0     H52421   3.241   8.601   1.143  0.9453 -0.6581  3.1354
  380MOL0     H52422   3.398   8.284   1.443  0.0850  1.1054 -2.2778
  380MOL0     H52423   3.553   8.124   1.524 -2.8456  3.0810  1.3778
  380MOL0     H52424   3.573   8.357   1.779 -1.9189  0.4393  0.9064
  380MOL0     H52425   3.804   8.467   1.806  2.0404 -0.8966 -2.8520
  380MOL0     H52426   4.000   8.897   1.655 -1.5865 -2.6189 -0.3737
  380MOL0     H52427   4.186   9.044   1.671 -1.9544 -0.2607  2.4370
  380MOL0     H52428   4.586   8.847   1.743 -0.4322 -0.1265  1.6958
  380MOL0     H52429   4.620   8.996   1.652  0.3906 -2.5202 -0.0537
  380MOL0     H52430   4.532   9.014   1.939  0.8216 -1.5201 -1.3636
  380MOL0     H52431   4.588   9.144   1.843  0.5043 -0.1299  2.4032
  380MOL0     H52432   4.771   9.066   1.984  2.9548 -1.6442  0.1008
  380MOL0     H52433   4.745   8.900   1.928  1.7662  0.0285  0.6777
  380MOL0     H52434   4.827   8.942   1.705  2.8618  0.1562 -1.6591
  380MOL0     H52435   4.939   8.975   1.825 -0.5814 -2.5797 -0.7025
  380MOL0     H52436   4.872   9.357   1.618 -1.5954 -1.0099 -1.8113
  380MOL0     H52437   4.452   8.724   1.766 -0.1497  1.9203 -1.4802
  380MOL0     H52438   4.342   8.537   1.867  0.8081 -0.6219 -2.5641
  380MOL0     H52439   4.172   8.514   1.873  1.7062  0.1955  1.5210
  380MOL0     H52440   4.262   8.453   1.735 -0.7594 -2.3661  1.9943
  381MOL0     O52441   9.877   3.001   3.172  0.4973  0.3424 -0.1851
  381MOL0     C52442   9.935   2.960   3.278 -0.2742  0.0467  0.3201
  381MOL0     O52443  10.033   3.011   3.345 -0.0443  0.0488  0.2305
  381MOL0     C52444  10.115   3.114   3.302 -0.0348  0.3404 -0.2409
  381MOL0     C52445  10.124   3.159   3.166 -0.4159 -0.4007  1.0005
  381MOL0     C52446  10.214   3.262   3.134  0.9016 -0.5362  0.3950
  381MOL0     C52447  10.288   3.317   3.232  0.2455 -0.4951 -0.5116
  381MOL0     O52448  10.380   3.415   3.191  0.3792  0.0967  0.5558
  381MOL0     C52449  10.471   3.465   3.285  0.5524 -0.0461 -0.1436
  381MOL0     C52450  10.555   3.580   3.225  0.6825  0.4825 -0.8598
  381MOL0     C52451  10.630   3.529   3.105 -0.8769 -0.3259 -0.8424
  381MOL0     C52452  10.671   3.641   3.012 -0.1128 -0.0209 -0.3439
  381MOL0     C52453  10.801   3.612   2.927 -0.6268 -0.4390  0.2822
  381MOL0     C52454  10.809   3.646   2.777  0.1993 -0.1486  0.3925
  381MOL0     C52455  10.800   3.793   2.736  0.5107 -0.4200  0.9774
  381MOL0     C52456  10.760   3.812   2.581 -1.4648 -0.9761 -0.7901
  381MOL0     N52457  10.811   3.934   2.514 -0.4190  0.5619  0.6469
  381MOL0     C52458  10.755   3.976   2.399  0.2374  0.4868 -0.2488
  381MOL0     C52459  10.830   4.076   2.360 -0.2508 -2.0607  0.1350
  381MOL0     C52460  10.806   4.165   2.227 -0.5264  0.0266  0.3232
  381MOL0     C52461  10.812   4.317   2.245 -1.1426 -0.1885 -1.3564
  381MOL0     C52462  10.796   4.396   2.117  0.0388 -0.5915 -0.0766
  381MOL0     C52463  10.661   4.391   2.060  0.5287  0.5910  0.8841
  381MOL0     O52464  10.646   4.510   1.979  0.5884 -0.2157 -0.9548
  381MOL0     C52465  10.536   4.526   1.902  0.0959 -0.4130  0.2607
  381MOL0     C52466  10.532   4.645   1.834  0.4013  1.1819  0.7065
  381MOL0     C52467  10.416   4.686   1.770 -0.2668 -0.0899 -0.0143
  381MOL0     C52468  10.423   4.826   1.708  0.4086 -0.5113 -0.1391
  381MOL0     C52469  10.297   4.605   1.764 -0.0827  0.1022  0.3313
  381MOL0     C52470  10.173   4.628   1.701  0.0503  0.3405  0.4218
  381MOL0     O52471  10.169   4.734   1.613 -0.0930 -0.3130  1.3094
  381MOL0     C52472  10.054   4.755   1.535  0.1762 -0.8341 -1.0217
  381MOL0     C52473   9.984   4.653   1.473 -0.6714  0.3691 -1.1784
  381MOL0     C52474   9.860   4.678   1.413 -0.5515  0.6954 -0.1224
  381MOL0     C52475   9.824   4.810   1.389  0.5568 -0.6411 -0.2746
  381MOL0     O52476   9.708   4.861   1.319 -0.1627 -0.1397 -0.4582
  381MOL0     C52477   9.662   4.788   1.202  0.0340 -0.5284  1.5600
  381MOL0     C52478   9.768   4.796   1.083  0.1656  0.8947 -0.8920
  381MOL0     C52479   9.759   4.938   1.015  0.2990 -0.1332  0.3961
  381MOL0     C52480   9.894   4.957   0.943  0.1039 -0.1146  0.7059
  381MOL0     C52481   9.930   5.090   0.880  0.6438  0.6029 -0.0420
  381MOL0     C52482   9.934   5.203   0.979  0.2370  0.2979 -0.4267
  381MOL0     C52483  10.006   5.166   1.115  0.3272  0.3561  0.7188
  381MOL0     C52484  10.032   5.306   1.186 -0.0900 -0.9753 -0.1555
  381MOL0    Cl52485  10.172   5.390   1.117 -0.2234 -0.1769  0.2285
  381MOL0     C52486   9.905   4.911   1.440 -0.4343 -0.1205 -0.6934
  381MOL0     C52487  10.021   4.888   1.506  0.2170  0.4800 -0.3559
  381MOL0     O52488  10.071   4.576   1.744 -0.2156  0.3086 -0.3230
  381MOL0     C52489  10.313   4.480   1.824  0.5840  0.2769  0.3941
  381MOL0     C52490  10.429   4.442   1.897  0.0423 -0.1372 -0.1765
  381MOL0     N52491  10.917   4.107   2.470  0.2797  0.9819  0.4988
  381MOL0     N52492  10.902   4.017   2.561 -0.0561  0.0143 -0.1877
  381MOL0     C52493  10.295   3.268   3.366 -0.3514 -0.5200  0.2976
  381MOL0     C52494  10.201   3.166   3.401  0.4973 -0.7510  0.5981
  381MOL0     C52495   9.868   2.845   3.334 -0.2758  0.2760  0.0301
  381MOL0     C52496   9.902   2.720   3.284 -0.2023 -0.1696 -0.9501
  381MOL0     C52497   9.842   2.606   3.338  0.3685 -0.1187 -0.3751
  381MOL0     C52498   9.748   2.613   3.445 -0.2866  0.4637  1.2008
  381MOL0     O52499   9.676   2.512   3.504  0.1336  0.1618  0.0869
  381MOL0     C52500   9.667   2.379   3.451 -0.9574 -0.1238 -0.4016
  381MOL0     C52501   9.539   2.309   3.502 -0.4328 -0.1692  0.6585
  381MOL0     C52502   9.522   2.273   3.653  0.4154 -0.5483 -0.6666
  381MOL0     C52503   9.457   2.384   3.733 -0.7722  0.3333  0.2389
  381MOL0     C52504   9.418   2.334   3.860 -0.2289  0.1241  0.3517
  381MOL0     C52505   9.404   2.293   3.971  0.5237  0.3918 -0.2626
  381MOL0     C52506   9.721   2.741   3.489  0.2413 -0.3963  0.1762
  381MOL0     C52507   9.761   2.858   3.422  0.5283 -0.9161  0.9256
  381MOL0     C52508   9.714   2.985   3.484  0.8560 -0.2412  0.5109
  381MOL0     H52509  10.047   3.129   3.095 -1.2481 -0.9117  2.0746
  381MOL0     H52510  10.212   3.302   3.033  1.8517  0.4085  0.7275
  381MOL0     H52511  10.553   3.398   3.313  0.4609 -0.8833 -1.7436
  381MOL0     H52512  10.412   3.494   3.372  0.1893 -0.1995 -0.3351
  381MOL0     H52513  10.484   3.657   3.193  0.3058 -0.7577 -3.2322
  381MOL0     H52514  10.609   3.627   3.308 -2.6474  0.3462  1.6186
  381MOL0     H52515  10.725   3.491   3.142  0.5054  2.1479 -1.5947
  381MOL0     H52516  10.571   3.448   3.061  0.2032 -0.6196 -1.7875
  381MOL0     H52517  10.582   3.651   2.949 -0.3652  0.7113  0.1170
  381MOL0     H52518  10.680   3.735   3.067  1.4907  1.5304 -3.0497
  381MOL0     H52519  10.830   3.507   2.936  4.4694  0.7984  1.7675
  381MOL0     H52520  10.880   3.668   2.977 -0.5629  0.2032 -0.5228
  381MOL0     H52521  10.907   3.618   2.737  0.3650  2.5853 -1.3670
  381MOL0     H52522  10.739   3.582   2.723 -1.3486  1.1948  0.7217
  381MOL0     H52523  10.893   3.841   2.767  1.3305 -2.2532  1.4957
  381MOL0     H52524  10.715   3.828   2.795  2.1278  3.1628  1.4836
  381MOL0     H52525  10.802   3.724   2.530  0.8158  0.9121 -2.3875
  381MOL0     H52526  10.652   3.804   2.569 -1.2870 -2.5637 -1.7571
  381MOL0     H52527  10.672   3.940   2.339 -0.2317  2.6419 -1.0086
  381MOL0     H52528  10.711   4.143   2.177  1.3121  0.1533 -3.5621
  381MOL0     H52529  10.876   4.122   2.155 -1.3708 -0.3348 -0.3017
  381MOL0     H52530  10.742   4.355   2.320  0.5572 -0.7723  0.6028
  381MOL0     H52531  10.909   4.339   2.290 -0.9603  0.3605 -1.9841
  381MOL0     H52532  10.815   4.502   2.141 -2.9695 -0.0217  0.1249
  381MOL0     H52533  10.869   4.358   2.045 -1.3819 -4.0128  0.1382
  381MOL0     H52534  10.636   4.307   1.994 -1.1647  0.4075  1.7163
  381MOL0     H52535  10.583   4.387   2.136 -0.8758 -1.3002 -0.5568
  381MOL0     H52536  10.623   4.703   1.822  1.5532 -0.9251 -1.8254
  381MOL0     H52537  10.395   4.822   1.602 -2.5340 -2.0774  0.5744
  381MOL0     H52538  10.525   4.864   1.716  0.7722 -0.9793 -2.0960
  381MOL0     H52539  10.349   4.892   1.753 -1.2663 -0.6121 -2.5561
  381MOL0     H52540  10.016   4.550   1.488 -1.0584  0.4583  0.4175
  381MOL0     H52541   9.807   4.593   1.372  1.0804 -0.1310 -0.6406
  381MOL0     H52542   9.653   4.681   1.220  0.0906 -0.7190  0.5309
  381MOL0     H52543   9.567   4.834   1.172  1.7415  3.1586  1.2196
  381MOL0     H52544   9.865   4.766   1.124 -1.4305  0.4332  2.9673
  381MOL0     H52545   9.729   4.718   1.017 -2.7128  2.1377 -0.8536
  381MOL0     H52546   9.739   5.010   1.095 -0.6319 -0.0472  0.1054
  381MOL0     H52547   9.671   4.936   0.949  1.3793  1.4935 -1.2125
  381MOL0     H52548   9.916   4.891   0.858 -0.4832  2.8093 -1.8851
  381MOL0     H52549   9.966   4.935   1.022  0.6263 -1.0793 -0.0184
  381MOL0     H52550  10.021   5.083   0.818  0.3423  0.3662 -0.4667
  381MOL0     H52551   9.853   5.117   0.807  1.4560 -3.6690 -2.8851
  381MOL0     H52552   9.829   5.225   0.998  0.3072 -1.0540  1.9649
  381MOL0     H52553   9.969   5.297   0.936 -0.0165 -0.1416 -1.6222
  381MOL0     H52554  10.104   5.117   1.106  0.8348  1.1738  1.5523
  381MOL0     H52555   9.937   5.102   1.169 -0.5485 -0.3722 -1.1607
  381MOL0     H52556  10.040   5.287   1.294 -6.4937 -0.8191  0.7223
  381MOL0     H52557   9.945   5.370   1.171  0.8446  0.5827  0.6906
  381MOL0     H52558   9.878   5.009   1.400 -2.7728 -0.0058  0.9530
  381MOL0     H52559  10.077   4.977   1.530  0.1977  0.2923  0.3910
  381MOL0     H52560  10.230   4.409   1.819 -0.8439  1.9765 -1.5115
  381MOL0     H52561  10.416   4.348   1.950 -3.7645 -1.6343 -3.3103
  381MOL0     H52562  10.372   3.279   3.441 -0.8878  1.8339  0.5929
  381MOL0     H52563  10.216   3.122   3.499  0.7363  1.0865  1.4206
  381MOL0     H52564   9.983   2.699   3.214  0.6690 -3.1292  0.7652
  381MOL0     H52565   9.855   2.514   3.284  1.4004 -0.1593 -0.0769
  381MOL0     H52566   9.671   2.388   3.342  1.6636 -1.6928 -0.5326
  381MOL0     H52567   9.750   2.314   3.481 -0.8717  1.5793  3.7001
  381MOL0     H52568   9.550   2.210   3.458 -0.4730 -0.9326  2.2759
  381MOL0     H52569   9.445   2.349   3.463 -2.8145 -2.3480  3.6550
  381MOL0     H52570   9.469   2.177   3.654  0.1124 -0.4104  1.5808
  381MOL0     H52571   9.615   2.260   3.708 -1.7687 -1.8063  3.1277
  381MOL0     H52572   9.368   2.416   3.677  0.3935 -0.3622 -2.1227
  381MOL0     H52573   9.534   2.457   3.761  1.4067 -1.7926  0.1124
  381MOL0     H52574   9.399   2.271   4.076  0.8562 -2.0130 -0.6918
  381MOL0     H52575   9.662   2.771   3.575  0.0907  1.8373 -0.6268
  381MOL0     H52576   9.802   3.022   3.537  0.1593  3.0715 -0.3999
  381MOL0     H52577   9.680   3.064   3.416 -4.0627 -0.2162  2.6062
  381MOL0     H52578   9.625   2.973   3.547  1.1180  1.2397  1.2333
  382MOL0     O52579   0.107  11.456   7.336  0.2732 -0.5578  0.1828
  382MOL0     C52580   0.159  11.364   7.275 -1.0606 -0.9986 -0.7163
  382MOL0     O52581   0.263  11.380   7.185  0.5243 -0.2838 -0.6219
  382MOL0     C52582   0.278  11.500   7.131  0.3098 -0.3096 -0.4225
  382MOL0     C52583   0.197  11.567   7.038 -0.3064  1.0301  0.6304
  382MOL0     C52584   0.230  11.700   7.007  0.3667 -0.9684 -0.4892
  382MOL0     C52585   0.345  11.769   7.045  0.2569  0.5735  0.1801
  382MOL0     O52586   0.353  11.892   7.004 -0.3459  0.4686 -0.1281
  382MOL0     C52587   0.471  11.969   7.025 -0.5121  0.0914  0.6153
  382MOL0     C52588   0.427  12.114   7.048  0.0101 -0.5684 -0.1348
  382MOL0     C52589   0.444  12.145   7.196 -0.0896 -0.4391 -0.8069
  382MOL0     C52590   0.382  12.274   7.241  0.0160  0.7617 -0.5464
  382MOL0     C52591   0.409  12.331   7.383  0.2018 -0.0269  0.6281
  382MOL0     C52592   0.535  12.408   7.380 -1.3375 -0.3802 -0.9963
  382MOL0     C52593   0.582  12.461   7.519  1.7098  0.5338  0.3488
  382MOL0     C52594   0.611  12.345   7.617  0.4794 -0.4148 -0.3375
  382MOL0     N52595   0.734  12.272   7.575 -0.5542  0.5302  0.1840
  382MOL0     C52596   0.719  12.144   7.533  0.4721 -0.5183 -0.5274
  382MOL0     C52597   0.844  12.103   7.518  0.1612  0.1017  0.5695
  382MOL0     C52598   0.887  11.969   7.483 -0.1060 -0.1391  0.0841
  382MOL0     C52599   0.983  11.903   7.579  0.4772 -0.9737  0.4058
  382MOL0     C52600   0.918  11.896   7.717 -1.1818 -0.4481  0.4276
  382MOL0     C52601   0.988  11.792   7.808  0.0377 -0.5214 -0.2331
  382MOL0     O52602   0.897  11.759   7.918  0.4821  0.3735 -0.6083
  382MOL0     C52603   0.883  11.829   8.038  0.1562 -0.5053  0.7854
  382MOL0     C52604   0.799  11.798   8.135 -0.1024 -0.7279 -0.5302
  382MOL0     C52605   0.772  11.875   8.256 -0.2424  0.0302  0.2277
  382MOL0     C52606   0.695  11.825   8.377 -0.5080 -0.0341 -0.5123
  382MOL0     C52607   0.850  11.999   8.276  0.0799  0.2801  0.0651
  382MOL0     C52608   0.836  12.088   8.404 -0.3692  0.4313  0.3392
  382MOL0     O52609   0.880  12.213   8.383 -0.2045 -0.3270 -0.7926
  382MOL0     C52610   0.861  12.318   8.473 -0.2300  0.6712  0.6703
  382MOL0     C52611   0.786  12.326   8.592 -0.2432 -0.7440 -0.4693
  382MOL0     C52612   0.772  12.446   8.663  0.6597 -0.5602  0.6581
  382MOL0     C52613   0.851  12.562   8.624  0.2797 -0.3983  0.7322
  382MOL0     O52614   0.848  12.673   8.708 -0.9261 -0.0020  0.3464
  382MOL0     C52615   0.719  12.733   8.737  0.3253 -0.7441  0.5775
  382MOL0     C52616   0.742  12.869   8.811  0.0383  0.8843 -0.3435
  382MOL0     C52617   0.815  12.855   8.936 -0.3447 -0.3659  1.0132
  382MOL0     C52618   0.723  12.847   9.056 -0.5935 -0.0429  0.6790
  382MOL0     C52619   0.810  12.797   9.171 -0.1391  0.0511  0.4657
  382MOL0     C52620   0.723  12.781   9.291  0.0467 -0.7118 -0.8868
  382MOL0     C52621   0.799  12.739   9.416 -0.0370  1.3983 -0.4205
  382MOL0     C52622   0.734  12.760   9.548  0.1004  0.3536  0.7292
  382MOL0    Cl52623   0.849  12.700   9.673  0.4897  0.0389 -0.4646
  382MOL0     C52624   0.935  12.555   8.515 -0.9881 -0.1173  0.3923
  382MOL0     C52625   0.930  12.438   8.436 -0.4779 -0.1922 -0.1077
  382MOL0     O52626   0.806  12.040   8.516 -1.5161  0.2716  0.4011
  382MOL0     C52627   0.947  12.025   8.181 -0.3748  0.3153 -0.1809
  382MOL0     C52628   0.955  11.942   8.074 -0.4165 -0.2409  0.4025
  382MOL0     N52629   0.923  12.209   7.552  0.2217  0.1566 -0.2042
  382MOL0     N52630   0.861  12.315   7.586 -0.8036 -0.2766  0.1136
  382MOL0     C52631   0.441  11.688   7.113 -1.0143 -0.5180 -0.1343
  382MOL0     C52632   0.400  11.566   7.160  0.0919  0.0798  0.3133
  382MOL0     C52633   0.122  11.228   7.306 -0.3110  0.2117 -0.0917
  382MOL0     C52634   0.223  11.127   7.301 -0.4210 -0.1523 -0.7345
  382MOL0     C52635   0.205  10.997   7.353 -0.5188 -0.0578 -0.1400
  382MOL0     C52636   0.086  10.962   7.404 -0.3091 -0.7173  0.4708
  382MOL0     O52637   0.044  10.835   7.417 -0.3937  0.4667  0.3745
  382MOL0     C52638   0.138  10.730   7.463  0.2491 -0.0664 -0.5713
  382MOL0     C52639   0.214  10.765   7.596  0.9863 -0.5868 -0.7074
  382MOL0     C52640   0.120  10.819   7.705 -0.1278 -0.4292 -1.3164
  382MOL0     C52641   0.149  10.793   7.843  1.7093 -0.2247  0.5875
  382MOL0     C52642   0.271  10.863   7.892 -0.4280  0.3622  0.1416
  382MOL0     C52643   0.369  10.933   7.914 -1.0259  0.1031  0.6029
  382MOL0     C52644  -0.018  11.059   7.413 -0.2023  0.4152  0.1280
  382MOL0     C52645  -0.003  11.188   7.364 -0.7472  0.2812 -0.2258
  382MOL0     C52646  -0.120  11.285   7.362  0.3711  0.2657  0.3453
  382MOL0     H52647   0.127  11.501   6.987 -0.9628  1.8152  0.5029
  382MOL0     H52648   0.159  11.763   6.955  1.0801  1.0114  0.7989
  382MOL0     H52649   0.534  11.955   6.937  2.5680 -0.6719  2.7709
  382MOL0     H52650   0.537  11.947   7.109  3.5124  2.0080 -1.7632
  382MOL0     H52651   0.482  12.182   6.984  0.1080 -1.4403 -1.0064
  382MOL0     H52652   0.322  12.134   7.023 -0.5966  0.1569  2.6238
  382MOL0     H52653   0.408  12.059   7.253  1.4457  0.4966  1.7282
  382MOL0     H52654   0.551  12.141   7.220 -0.0043 -2.2303 -1.3332
  382MOL0     H52655   0.403  12.350   7.164 -0.9329  0.1266 -1.4672
  382MOL0     H52656   0.275  12.256   7.237  0.4210 -3.0560  1.7448
  382MOL0     H52657   0.411  12.240   7.444  1.8278  0.5768  1.5474
  382MOL0     H52658   0.325  12.393   7.417  0.2955  1.7194 -2.0560
  382MOL0     H52659   0.623  12.361   7.336  0.1981 -1.0493  2.4564
  382MOL0     H52660   0.519  12.492   7.311 -1.4738  1.2995  0.9717
  382MOL0     H52661   0.498  12.517   7.562 -1.4531 -2.7276 -1.1118
  382MOL0     H52662   0.671  12.521   7.499  0.7383  2.0510  0.4432
  382MOL0     H52663   0.639  12.392   7.712  0.0229  1.2411 -0.9793
  382MOL0     H52664   0.524  12.281   7.630 -0.8876  1.2446 -0.8692
  382MOL0     H52665   0.634  12.077   7.538  0.8770 -1.1381 -1.6058
  382MOL0     H52666   0.947  11.978   7.392  0.7987  2.3111  0.8426
  382MOL0     H52667   0.805  11.900   7.460 -2.0167  2.1286 -0.3184
  382MOL0     H52668   1.001  11.811   7.522  1.2731 -0.9117  0.5398
  382MOL0     H52669   1.069  11.970   7.583 -0.6423  0.5517 -0.1622
  382MOL0     H52670   0.909  11.994   7.766  2.0263  0.0506  0.2397
  382MOL0     H52671   0.820  11.851   7.701 -0.2353 -2.6168  0.3650
  382MOL0     H52672   1.029  11.705   7.754  0.8221 -1.3873  1.6670
  382MOL0     H52673   1.079  11.845   7.836  0.0107  0.0546 -1.1991
  382MOL0     H52674   0.739  11.707   8.131 -2.7622  0.7505  2.1738
  382MOL0     H52675   0.653  11.727   8.356  1.9376 -1.6777  1.7067
  382MOL0     H52676   0.622  11.894   8.421 -0.2461 -1.3283  2.1241
  382MOL0     H52677   0.766  11.807   8.458  0.8424  0.4155 -1.5503
  382MOL0     H52678   0.721  12.243   8.622 -0.6316 -0.2192  0.1823
  382MOL0     H52679   0.705  12.447   8.748 -2.2009 -2.5687 -1.3613
  382MOL0     H52680   0.665  12.750   8.644  2.0473 -0.7504 -0.4681
  382MOL0     H52681   0.663  12.661   8.797 -0.2316 -1.0758 -0.3222
  382MOL0     H52682   0.797  12.932   8.740 -1.5754 -0.2541 -2.7536
  382MOL0     H52683   0.656  12.933   8.829 -1.7701 -1.4179 -0.3878
  382MOL0     H52684   0.875  12.946   8.948 -1.3220  0.2194  1.5104
  382MOL0     H52685   0.890  12.775   8.928  1.7448  1.5136  0.9557
  382MOL0     H52686   0.637  12.789   9.021 -0.7381  1.7640 -2.3036
  382MOL0     H52687   0.680  12.946   9.074  1.9342  1.2823 -0.1607
  382MOL0     H52688   0.859  12.702   9.153 -0.7511 -0.4370  1.2731
  382MOL0     H52689   0.885  12.873   9.194  2.5790 -3.0058  2.6567
  382MOL0     H52690   0.660  12.693   9.275  2.7442 -3.0030  0.4181
  382MOL0     H52691   0.661  12.872   9.292 -0.0776 -0.6742 -3.8554
  382MOL0     H52692   0.898  12.786   9.421  0.2642  0.7463 -0.2923
  382MOL0     H52693   0.821  12.633   9.408 -1.2564  1.0914  0.1272
  382MOL0     H52694   0.632  12.719   9.546  0.9623 -1.9628 -0.9874
  382MOL0     H52695   0.726  12.868   9.562  2.0838  0.6986 -0.3799
  382MOL0     H52696   1.000  12.636   8.485  0.2037 -1.1226  0.1832
  382MOL0     H52697   0.986  12.413   8.347 -1.2530 -3.8799  0.3037
  382MOL0     H52698   1.015  12.109   8.184  0.5206 -0.4353  2.1032
  382MOL0     H52699   1.035  11.968   8.004 -2.0373  1.5170 -0.8864
  382MOL0     H52700   0.545  11.708   7.136 -1.7747  1.7837  1.6119
  382MOL0     H52701   0.462  11.506   7.226 -2.2672 -1.9725  0.8273
  382MOL0     H52702   0.326  11.152   7.276 -0.1594  0.1609  0.5535
  382MOL0     H52703   0.288  10.927   7.353 -0.9617 -0.7061  2.6208
  382MOL0     H52704   0.060  10.656   7.481 -1.8877  2.3577  0.6505
  382MOL0     H52705   0.212  10.691   7.392 -1.7936  1.1225 -3.5477
  382MOL0     H52706   0.298  10.835   7.590 -1.1971  2.6691  2.4015
  382MOL0     H52707   0.260  10.673   7.635 -1.5566 -1.7034 -0.1435
  382MOL0     H52708   0.121  10.929   7.697 -1.3415 -0.3694 -0.8872
  382MOL0     H52709   0.017  10.787   7.683 -0.6246  1.7505 -2.4697
  382MOL0     H52710   0.167  10.685   7.846  1.3295 -0.4272 -1.9590
  382MOL0     H52711   0.064  10.826   7.902  0.1953  2.2793 -2.7225
  382MOL0     H52712   0.452  10.996   7.939  2.5278 -4.2815  1.0144
  382MOL0     H52713  -0.116  11.028   7.448  1.6536 -2.9665  2.9449
  382MOL0     H52714  -0.114  11.357   7.445  1.3455  2.0452 -1.1846
  382MOL0     H52715  -0.132  11.340   7.269 -0.2764  1.9189  1.3604
  382MOL0     H52716  -0.210  11.223   7.369 -0.9985  2.0697 -0.4214
  383MOL0     O52717   7.156  10.348  10.620 -0.4059 -0.0455 -0.6820
  383MOL0     C52718   7.139  10.429  10.720 -0.0259 -0.6570  0.7012
  383MOL0     O52719   7.075  10.555  10.713  0.5871  0.6574  0.3499
  383MOL0     C52720   7.068  10.612  10.587 -0.4696  0.2361  0.0423
  383MOL0     C52721   7.133  10.740  10.573  0.3725  0.4313 -0.2534
  383MOL0     C52722   7.109  10.808  10.456 -0.1006 -0.1514 -0.8607
  383MOL0     C52723   7.013  10.772  10.365 -0.6127  0.6805  0.3056
  383MOL0     O52724   6.971  10.867  10.281  0.4404  0.0167  0.3631
  383MOL0     C52725   6.966  10.838  10.146  0.1201 -0.3269  0.6902
  383MOL0     C52726   6.826  10.865  10.105 -0.1976  0.7823 -0.1072
  383MOL0     C52727   6.800  10.836   9.963 -0.0471 -0.4657 -0.4902
  383MOL0     C52728   6.656  10.851   9.918 -0.6454 -0.6110 -0.5759
  383MOL0     C52729   6.637  10.796   9.773  0.1291  0.1522 -0.1702
  383MOL0     C52730   6.744  10.867   9.682 -0.0484 -1.5340  0.1902
  383MOL0     C52731   6.701  10.850   9.536  0.0176  0.7811  0.8407
  383MOL0     C52732   6.664  10.970   9.443 -0.6647  0.2836  0.9048
  383MOL0     N52733   6.554  11.057   9.480 -0.5126 -0.7090 -0.4544
  383MOL0     C52734   6.549  11.120   9.601  0.3344 -0.6571  0.7993
  383MOL0     C52735   6.425  11.176   9.596 -0.2404  0.0919  0.3351
  383MOL0     C52736   6.372  11.293   9.683 -0.1393 -0.7060 -0.4807
  383MOL0     C52737   6.342  11.248   9.824  1.0666  0.5692 -0.4513
  383MOL0     C52738   6.207  11.168   9.812 -0.4299 -0.4054  0.7470
  383MOL0     C52739   6.225  11.022   9.787  0.9671  0.8007  0.7622
  383MOL0     O52740   6.304  10.966   9.888  0.8214  0.1603 -0.2258
  383MOL0     C52741   6.237  10.904   9.998  0.4282 -0.3953  0.2199
  383MOL0     C52742   6.100  10.878  10.019  0.0775 -0.6700  0.0877
  383MOL0     C52743   6.052  10.797  10.121 -0.2892 -0.7319 -0.4600
  383MOL0     C52744   5.900  10.770  10.139 -1.2843 -0.7072  0.5038
  383MOL0     C52745   6.140  10.749  10.224  0.2522 -0.0520 -0.1704
  383MOL0     C52746   6.104  10.654  10.322  0.3642 -0.8016  0.5356
  383MOL0     O52747   6.147  10.681  10.451 -0.3720  0.2033  0.3883
  383MOL0     C52748   6.094  10.588  10.542 -0.0316 -0.9366 -0.0723
  383MOL0     C52749   5.974  10.614  10.611 -0.1282  0.2341 -1.6057
  383MOL0     C52750   5.918  10.512  10.694 -1.5659 -0.1375 -0.0572
  383MOL0     C52751   5.996  10.401  10.723 -0.7553 -0.2896  0.6027
  383MOL0     O52752   5.946  10.306  10.804  0.3086 -0.5577 -0.4965
  383MOL0     C52753   5.838  10.220  10.755  0.1338 -0.3068  0.7355
  383MOL0     C52754   5.748  10.151  10.862 -0.0626 -0.0696 -0.2654
  383MOL0     C52755   5.817  10.022  10.905  0.1129 -0.2595 -0.6118
  383MOL0     C52756   5.961  10.031  10.971 -1.1413  0.0159 -0.9015
  383MOL0     C52757   6.029   9.891  10.959  1.0656  0.2462 -0.2801
  383MOL0     C52758   6.163   9.886  11.041  0.8081 -0.0773 -0.5651
  383MOL0     C52759   6.156   9.846  11.198 -0.2475 -0.5037 -0.0713
  383MOL0     C52760   6.288   9.844  11.265  0.5297 -0.2290  1.2713
  383MOL0    Cl52761   6.357  10.004  11.232 -0.3171  0.0910 -0.1750
  383MOL0     C52762   6.119  10.386  10.662 -0.3230  0.4456 -0.3648
  383MOL0     C52763   6.167  10.479  10.573 -0.4240  2.0991 -0.5746
  383MOL0     O52764   6.046  10.552  10.279  0.2557 -0.0175 -0.4040
  383MOL0     C52765   6.274  10.769  10.204 -0.5647  0.3569 -0.3004
  383MOL0     C52766   6.327  10.849  10.098 -0.6680  0.3195 -0.2595
  383MOL0     N52767   6.355  11.139   9.483 -0.4897  0.3677  0.0289
  383MOL0     N52768   6.436  11.076   9.406 -0.5319  0.9586 -0.2297
  383MOL0     C52769   6.953  10.643  10.383 -0.4637 -0.5170 -1.0867
  383MOL0     C52770   6.981  10.559  10.491 -0.2560 -0.5533  0.1281
  383MOL0     C52771   7.175  10.388  10.866  0.5207  0.3851 -0.2924
  383MOL0     C52772   7.177  10.479  10.965  1.1394 -0.3013  0.2495
  383MOL0     C52773   7.215  10.456  11.100 -0.5877 -0.2723 -0.6696
  383MOL0     C52774   7.261  10.322  11.128 -0.8762 -0.8696  0.0025
  383MOL0     O52775   7.280  10.301  11.260  0.4445  0.3031 -0.0676
  383MOL0     C52776   7.302  10.171  11.310 -0.6207 -0.6008 -0.0014
  383MOL0     C52777   7.450  10.126  11.290 -1.1678 -0.7151 -0.6341
  383MOL0     C52778   7.531  10.154  11.414  0.4775 -0.9918  0.0249
  383MOL0     C52779   7.549  10.300  11.446  0.7315 -0.2186 -0.2941
  383MOL0     C52780   7.460  10.326  11.561  0.5187 -0.2519  0.3037
  383MOL0     C52781   7.386  10.359  11.654  0.1741  1.6662 -0.1520
  383MOL0     C52782   7.268  10.229  11.029 -1.1283  0.1806  0.6998
  383MOL0     C52783   7.224  10.260  10.897 -0.9359  0.0426 -0.6326
  383MOL0     C52784   7.242  10.147  10.805 -0.1523 -0.4253  0.1546
  383MOL0     H52785   7.195  10.776  10.655  1.3230 -2.4019  0.3693
  383MOL0     H52786   7.154  10.905  10.436 -1.4565 -0.0074 -3.6268
  383MOL0     H52787   6.984  10.733  10.122 -1.5262 -0.0748 -2.1506
  383MOL0     H52788   7.046  10.890  10.094 -0.5771 -0.4684 -0.5711
  383MOL0     H52789   6.752  10.802  10.157 -0.6345  0.7142 -0.7954
  383MOL0     H52790   6.791  10.967  10.122 -2.3973 -0.1258  1.4095
  383MOL0     H52791   6.874  10.904   9.919  0.0924 -0.9446 -1.0110
  383MOL0     H52792   6.833  10.732   9.956  1.5855 -0.5490  4.2991
  383MOL0     H52793   6.577  10.798   9.972 -1.9761  1.2363 -0.6236
  383MOL0     H52794   6.629  10.957   9.925 -1.3124 -0.8515  1.1314
  383MOL0     H52795   6.533  10.818   9.746 -0.5178 -1.5676  0.7685
  383MOL0     H52796   6.647  10.687   9.775  1.8900  0.2366 -1.7237
  383MOL0     H52797   6.746  10.975   9.694 -0.0253 -1.2441 -2.0407
  383MOL0     H52798   6.845  10.827   9.695  0.7052 -0.1194 -1.0917
  383MOL0     H52799   6.625  10.772   9.524 -0.9298  1.9243 -1.2141
  383MOL0     H52800   6.793  10.806   9.496 -0.2205 -0.7586  1.9219
  383MOL0     H52801   6.756  11.028   9.430 -0.4234 -0.3807 -0.5578
  383MOL0     H52802   6.639  10.927   9.345 -1.4415  2.0284  0.2950
  383MOL0     H52803   6.619  11.150   9.678  0.8902  1.4817 -0.4602
  383MOL0     H52804   6.284  11.343   9.640  0.4567 -0.7735 -1.8260
  383MOL0     H52805   6.447  11.371   9.694 -1.2024  0.1624  1.0200
  383MOL0     H52806   6.415  11.201   9.891  0.2185  0.7897  0.6752
  383MOL0     H52807   6.322  11.339   9.882  2.8674 -0.2790  1.6592
  383MOL0     H52808   6.159  11.177   9.910 -3.3811 -0.3600 -0.6114
  383MOL0     H52809   6.149  11.218   9.735  0.8059  1.9921  1.2770
  383MOL0     H52810   6.125  10.987   9.763 -0.6088  5.1073  0.1086
  383MOL0     H52811   6.279  10.996   9.695 -2.1047  2.2045 -1.5929
  383MOL0     H52812   6.031  10.905   9.940  1.4925  0.0697 -0.9560
  383MOL0     H52813   5.845  10.798  10.049 -1.9990 -0.6420  0.9544
  383MOL0     H52814   5.865  10.838  10.217  1.1917  1.5560 -0.2165
  383MOL0     H52815   5.884  10.662  10.146  0.2306 -1.0420 -0.6201
  383MOL0     H52816   5.906  10.693  10.583 -2.8875 -1.1732  0.5276
  383MOL0     H52817   5.819  10.519  10.736 -1.1274 -1.2668  1.2387
  383MOL0     H52818   5.785  10.274  10.676  2.1826 -0.2854 -0.7019
  383MOL0     H52819   5.882  10.141  10.693 -0.5792  0.2861 -0.5474
  383MOL0     H52820   5.730  10.228  10.938  0.9576  0.7283 -0.8128
  383MOL0     H52821   5.650  10.121  10.824 -0.9228 -1.1239  2.5241
  383MOL0     H52822   5.826   9.950  10.824  2.5482  0.6282 -1.2017
  383MOL0     H52823   5.747   9.979  10.978  1.4615  0.0290  0.9222
  383MOL0     H52824   5.945  10.051  11.078 -0.1016 -1.9402 -0.3346
  383MOL0     H52825   6.029  10.103  10.924 -1.0540 -0.1634 -1.0477
  383MOL0     H52826   5.964   9.812  10.998 -0.8024  1.9670  0.2873
  383MOL0     H52827   6.051   9.879  10.853  2.1440 -0.0423 -0.0336
  383MOL0     H52828   6.216   9.980  11.026  0.0906 -0.1203 -4.3803
  383MOL0     H52829   6.219   9.801  11.001  0.1827 -0.5150 -0.5251
  383MOL0     H52830   6.091   9.761  11.220 -1.0101  0.3644  1.1378
  383MOL0     H52831   6.116   9.940  11.236 -1.1567 -0.4855 -1.0062
  383MOL0     H52832   6.352   9.766  11.223  0.1370  0.2216 -0.2498
  383MOL0     H52833   6.278   9.840  11.374 -1.8083  2.1793  1.2624
  383MOL0     H52834   6.183  10.305  10.696 -2.5365 -0.3774  2.1290
  383MOL0     H52835   6.259  10.456  10.521  0.5511 -2.2409  2.4672
  383MOL0     H52836   6.347  10.726  10.271 -2.3110 -2.6657 -0.1219
  383MOL0     H52837   6.428  10.887  10.105 -0.6176 -0.0709  1.8579
  383MOL0     H52838   6.895  10.624  10.293 -0.9081  1.6630 -1.3112
  383MOL0     H52839   6.917  10.477  10.524 -1.8555  0.3321 -0.6441
  383MOL0     H52840   7.139  10.577  10.938 -1.8680 -0.3908  3.3975
  383MOL0     H52841   7.206  10.529  11.180 -0.6592 -2.3383  1.3144
  383MOL0     H52842   7.267  10.175  11.414  2.9042  0.6192  1.2622
  383MOL0     H52843   7.242  10.102  11.250 -1.2195  0.1998 -0.3498
  383MOL0     H52844   7.496  10.173  11.203  1.1817  3.1610  2.3528
  383MOL0     H52845   7.457  10.022  11.258  0.0740 -0.2796 -1.8623
  383MOL0     H52846   7.484  10.112  11.504  2.7190 -1.0929  1.2356
  383MOL0     H52847   7.631  10.110  11.412 -0.1452 -2.4632 -0.4817
  383MOL0     H52848   7.540  10.361  11.355  3.4798 -0.0360 -0.5414
  383MOL0     H52849   7.648  10.325  11.486 -1.0423  3.1698  2.5022
  383MOL0     H52850   7.342  10.384  11.748  0.8873  2.1283  0.0727
  383MOL0     H52851   7.300  10.128  11.050  0.6977  0.9044  1.6094
  383MOL0     H52852   7.222  10.050  10.852  2.8832 -2.7162 -2.8185
  383MOL0     H52853   7.175  10.153  10.718 -2.0359  0.9410  1.6239
  383MOL0     H52854   7.349  10.152  10.785 -0.5011  1.9020 -1.6006
  384MOL0     O52855   5.944   9.594   1.263 -0.2362  0.2275 -0.1957
  384MOL0     C52856   5.934   9.477   1.300 -0.1464 -0.0035  0.6833
  384MOL0     O52857   6.033   9.390   1.308  0.6579 -0.2755  0.4304
  384MOL0     C52858   6.163   9.425   1.276  0.1246  0.9480 -0.2752
  384MOL0     C52859   6.277   9.370   1.345 -0.0926 -0.1242  0.1877
  384MOL0     C52860   6.408   9.390   1.301  0.1884 -0.1762  0.2612
  384MOL0     C52861   6.443   9.471   1.194 -0.0514  0.9464  0.2695
  384MOL0     O52862   6.574   9.501   1.158  0.4770  0.8912  0.5809
  384MOL0     C52863   6.592   9.628   1.093  0.2599 -0.1952  0.4611
  384MOL0     C52864   6.737   9.666   1.097  0.2221  0.1770  0.1042
  384MOL0     C52865   6.756   9.799   1.047 -0.4061 -0.6110  0.1794
  384MOL0     C52866   6.902   9.799   0.989  1.0067 -0.5367 -0.0361
  384MOL0     C52867   6.958   9.948   0.977  0.6582  0.3734  0.5251
  384MOL0     C52868   7.106   9.939   0.924  0.2862  0.6136 -0.6768
  384MOL0     C52869   7.170  10.077   0.899  0.4261  0.0477 -0.3341
  384MOL0     C52870   7.139  10.146   0.761 -0.2811  1.1507 -1.4923
  384MOL0     N52871   7.221  10.266   0.768  0.7258 -0.5141  0.5388
  384MOL0     C52872   7.195  10.385   0.837 -0.3070 -0.1365  0.4919
  384MOL0     C52873   7.306  10.462   0.804  0.9195  0.0911  0.1085
  384MOL0     C52874   7.318  10.611   0.835 -0.7496  0.5723  0.1033
  384MOL0     C52875   7.411  10.650   0.953 -0.4333  0.5618 -0.8989
  384MOL0     C52876   7.446  10.798   0.965  0.0676  0.0949 -0.7528
  384MOL0     C52877   7.514  10.827   1.103  0.2885  0.3127  0.5790
  384MOL0     O52878   7.416  10.801   1.208  0.7299 -0.7135 -0.2783
  384MOL0     C52879   7.439  10.853   1.336 -0.7795 -1.1309 -0.0182
  384MOL0     C52880   7.536  10.940   1.369 -0.0298 -0.4438  0.0311
  384MOL0     C52881   7.553  11.011   1.498 -0.3726 -0.7145  0.0062
  384MOL0     C52882   7.671  11.108   1.500  0.6988  1.0155 -0.4083
  384MOL0     C52883   7.459  10.977   1.603  0.1726  0.4330  1.2189
  384MOL0     C52884   7.460  11.040   1.748 -0.8117  0.6915 -0.5594
  384MOL0     O52885   7.352  10.998   1.830  0.3653 -0.2970  0.4063
  384MOL0     C52886   7.341  11.061   1.955  0.5120 -0.2056  0.4448
  384MOL0     C52887   7.423  11.003   2.061 -0.2901 -0.8150  0.0403
  384MOL0     C52888   7.409  11.049   2.188 -0.2252  0.1537 -0.3661
  384MOL0     C52889   7.340  11.162   2.217 -0.3226  0.6870 -0.5005
  384MOL0     O52890   7.342  11.191   2.349  0.1927 -0.8243  0.6361
  384MOL0     C52891   7.319  11.322   2.401 -0.7557  0.5789  0.3772
  384MOL0     C52892   7.333  11.320   2.546  0.2321 -1.2235  0.2186
  384MOL0     C52893   7.204  11.358   2.620 -0.7867  0.3779 -0.2771
  384MOL0     C52894   7.218  11.502   2.661 -0.7005  0.7440 -0.3247
  384MOL0     C52895   7.089  11.566   2.723 -0.2283  0.7920  0.2250
  384MOL0     C52896   6.959  11.558   2.641  0.1300  0.0879  0.1135
  384MOL0     C52897   6.823  11.577   2.706 -0.3332 -0.3608 -0.5967
  384MOL0     C52898   6.779  11.729   2.740  0.2567 -0.1577  0.1095
  384MOL0    Cl52899   6.605  11.706   2.787  0.3966 -0.1936  0.1456
  384MOL0     C52900   7.278  11.227   2.110  0.8984  0.0042 -0.4565
  384MOL0     C52901   7.278  11.177   1.978  0.1429 -0.3647  0.2909
  384MOL0     O52902   7.553  11.109   1.787  0.4867 -0.2877 -0.0996
  384MOL0     C52903   7.357  10.877   1.568  0.1042  0.1924  0.7256
  384MOL0     C52904   7.343  10.825   1.437 -0.2419  0.7102 -0.5212
  384MOL0     N52905   7.378  10.401   0.711 -0.4427 -0.9583 -0.2548
  384MOL0     N52906   7.340  10.277   0.691  0.4507 -0.3100 -0.2161
  384MOL0     C52907   6.329   9.531   1.126  0.6326 -0.4425 -0.7337
  384MOL0     C52908   6.197   9.489   1.154  0.5118  0.1007 -0.7689
  384MOL0     C52909   5.801   9.427   1.336  0.4112  0.3376  0.4187
  384MOL0     C52910   5.752   9.315   1.273  0.6990 -0.0718 -0.6955
  384MOL0     C52911   5.619   9.262   1.306 -0.6949 -0.2020  0.8151
  384MOL0     C52912   5.549   9.308   1.414 -0.4140 -0.2590 -0.5536
  384MOL0     O52913   5.434   9.245   1.444  0.2489 -0.9272  0.2533
  384MOL0     C52914   5.388   9.264   1.582  0.2573  0.3822  0.6927
  384MOL0     C52915   5.281   9.170   1.650 -0.8108 -1.0013 -0.1216
  384MOL0     C52916   5.332   9.025   1.646 -0.9239 -0.1973 -0.5451
  384MOL0     C52917   5.231   8.929   1.710  0.1152 -0.8326 -0.0841
  384MOL0     C52918   5.264   8.788   1.683 -0.0423  0.5988 -0.8479
  384MOL0     C52919   5.283   8.675   1.653 -0.2468  0.8167 -0.3710
  384MOL0     C52920   5.610   9.416   1.486 -0.5528 -0.4539 -0.0908
  384MOL0     C52921   5.731   9.482   1.441  0.7774  0.6926 -0.7715
  384MOL0     C52922   5.779   9.598   1.517 -0.4911  0.1894  0.3784
  384MOL0     H52923   6.254   9.333   1.444  2.2599 -0.9941  0.4587
  384MOL0     H52924   6.494   9.331   1.332  1.4515  0.7427 -1.2711
  384MOL0     H52925   6.539   9.709   1.146  1.3494  2.2643 -1.9761
  384MOL0     H52926   6.563   9.627   0.988  2.5407 -1.2965 -0.1964
  384MOL0     H52927   6.785   9.655   1.195 -0.6782 -1.5184  0.3926
  384MOL0     H52928   6.790   9.599   1.029  0.0810 -0.3225  0.4787
  384MOL0     H52929   6.680   9.828   0.973 -0.5654  3.4906  1.6878
  384MOL0     H52930   6.739   9.866   1.132 -3.6518 -0.6507 -0.2991
  384MOL0     H52931   6.964   9.749   1.064 -1.7786 -0.4610  2.5363
  384MOL0     H52932   6.905   9.747   0.893 -2.3491  1.9684 -1.7151
  384MOL0     H52933   6.953  10.002   1.072 -1.5087  4.3376 -1.5906
  384MOL0     H52934   6.901  10.007   0.904 -0.1266 -0.0325  0.8016
  384MOL0     H52935   7.171   9.884   0.993  2.1908  2.2087 -1.1044
  384MOL0     H52936   7.106   9.874   0.836  0.9162 -1.0408  0.4852
  384MOL0     H52937   7.279  10.065   0.893  0.8008  2.4782  0.2970
  384MOL0     H52938   7.145  10.142   0.984  2.7866  0.1336  0.3664
  384MOL0     H52939   7.165  10.084   0.676 -2.1574  0.0948 -1.3511
  384MOL0     H52940   7.033  10.174   0.770 -0.0552  1.5702  0.5392
  384MOL0     H52941   7.111  10.406   0.902  2.2530 -1.9551  4.7741
  384MOL0     H52942   7.211  10.632   0.845 -1.6049 -2.9253 -0.1704
  384MOL0     H52943   7.362  10.669   0.753  1.2883  0.0914  0.8084
  384MOL0     H52944   7.348  10.619   1.038  2.5414 -3.1273  0.2320
  384MOL0     H52945   7.501  10.588   0.954 -0.5482  0.3959 -0.1689
  384MOL0     H52946   7.512  10.837   0.887  0.5192  2.4139  0.6884
  384MOL0     H52947   7.351  10.852   0.972 -1.7683 -2.4543 -3.4925
  384MOL0     H52948   7.601  10.764   1.124  0.2008  0.1767  0.5442
  384MOL0     H52949   7.556  10.927   1.098  3.7701 -1.0840 -1.1734
  384MOL0     H52950   7.612  10.962   1.294  1.9205  0.8934  2.2575
  384MOL0     H52951   7.643  11.174   1.583 -3.4321 -0.3513 -0.4732
  384MOL0     H52952   7.671  11.155   1.402 -0.2283 -0.0709 -0.9535
  384MOL0     H52953   7.762  11.051   1.520 -0.3135 -1.3965 -2.1349
  384MOL0     H52954   7.489  10.921   2.036 -0.7987 -1.3390  0.3760
  384MOL0     H52955   7.469  11.003   2.266 -1.3575  0.5405  0.7774
  384MOL0     H52956   7.397  11.385   2.357 -1.7551 -1.1574 -4.5235
  384MOL0     H52957   7.219  11.357   2.374 -2.1892 -2.2080  1.6906
  384MOL0     H52958   7.365  11.221   2.581  0.0792 -1.1731  0.4972
  384MOL0     H52959   7.422  11.378   2.573 -1.5862  1.1822  1.3221
  384MOL0     H52960   7.203  11.296   2.710 -1.6647  2.1044  0.9766
  384MOL0     H52961   7.113  11.348   2.560  1.1692 -0.2570 -3.3784
  384MOL0     H52962   7.235  11.552   2.566 -1.2033  0.9350 -0.3119
  384MOL0     H52963   7.309  11.507   2.722 -2.0663  1.7243  1.7681
  384MOL0     H52964   7.081  11.504   2.813 -2.1754 -0.2305 -0.5967
  384MOL0     H52965   7.103  11.668   2.759 -1.9779  2.0185 -2.2675
  384MOL0     H52966   6.944  11.458   2.600 -0.8463  0.5601 -0.7095
  384MOL0     H52967   6.959  11.626   2.555 -0.0211 -2.5113 -2.0761
  384MOL0     H52968   6.823  11.525   2.802  0.0022  0.5950 -0.0657
  384MOL0     H52969   6.749  11.530   2.641  0.5145 -2.0170 -0.4021
  384MOL0     H52970   6.793  11.796   2.655  1.0073  1.2798  1.3181
  384MOL0     H52971   6.842  11.765   2.822  0.3547  1.1178 -0.5093
  384MOL0     H52972   7.218  11.314   2.130  2.6667  1.6876 -2.0280
  384MOL0     H52973   7.227  11.238   1.905 -1.2288  4.7227  4.8974
  384MOL0     H52974   7.269  10.870   1.631 -1.5309 -0.5548 -1.5379
  384MOL0     H52975   7.254  10.764   1.419  0.5661  0.3920 -4.1651
  384MOL0     H52976   6.335   9.588   1.034 -2.0485  1.2140 -0.0091
  384MOL0     H52977   6.114   9.521   1.092 -1.3464 -0.6282  1.2204
  384MOL0     H52978   5.825   9.277   1.202  2.1077  0.2648  0.5093
  384MOL0     H52979   5.606   9.172   1.248 -2.0537  0.9576 -0.7903
  384MOL0     H52980   5.468   9.255   1.656  0.6618  2.3232  0.5319
  384MOL0     H52981   5.353   9.367   1.587 -0.8634  0.2257 -2.1569
  384MOL0     H52982   5.198   9.175   1.578 -2.2818 -0.5849  1.5461
  384MOL0     H52983   5.256   9.216   1.746 -2.4792 -0.2171 -0.8771
  384MOL0     H52984   5.364   8.987   1.549  0.4040 -1.9993  0.5369
  384MOL0     H52985   5.429   9.027   1.696 -1.3328  0.3936  0.2492
  384MOL0     H52986   5.132   8.931   1.663  0.9693  1.1462 -1.9618
  384MOL0     H52987   5.218   8.944   1.817  3.3780  0.7970  0.2007
  384MOL0     H52988   5.278   8.575   1.614  1.8312  1.7213 -3.2596
  384MOL0     H52989   5.564   9.464   1.571  1.7777  3.0389 -0.6081
  384MOL0     H52990   5.739   9.689   1.472  0.6709  0.4264 -0.2034
  384MOL0     H52991   5.749   9.588   1.622  1.1231  2.1788  1.0815
  384MOL0     H52992   5.887   9.604   1.529 -0.8502  1.0146  4.8198
  385MOL0     O52993   3.202   7.887   9.356 -1.1624 -0.5591 -0.1899
  385MOL0     C52994   3.154   7.803   9.429 -0.1902 -0.5163  0.7825
  385MOL0     O52995   3.135   7.674   9.385 -0.3689 -0.5004 -0.5154
  385MOL0     C52996   3.188   7.636   9.265 -0.3883  0.0409 -0.5715
  385MOL0     C52997   3.320   7.646   9.220  0.5427  0.9821 -1.4293
  385MOL0     C52998   3.359   7.633   9.085 -0.4042 -0.0103  0.3136
  385MOL0     C52999   3.259   7.594   8.990  0.0021  0.1394 -0.8427
  385MOL0     O53000   3.265   7.592   8.852  0.1116 -0.5310 -0.1847
  385MOL0     C53001   3.385   7.654   8.798  0.2418 -0.3516  0.3602
  385MOL0     C53002   3.384   7.664   8.647 -0.4065  0.0104 -1.1851
  385MOL0     C53003   3.506   7.745   8.591  0.1562  0.4132 -0.3409
  385MOL0     C53004   3.488   7.763   8.441  0.8037  0.0651  0.2630
  385MOL0     C53005   3.597   7.835   8.370 -0.6956  0.9904 -1.2449
  385MOL0     C53006   3.559   7.866   8.222 -0.3980 -0.2628 -0.0511
  385MOL0     C53007   3.663   7.953   8.148 -0.5033  0.3754  0.0827
  385MOL0     C53008   3.799   7.879   8.138  1.3395 -0.0732 -0.1651
  385MOL0     N53009   3.890   7.958   8.049 -0.2384 -0.7067 -0.0356
  385MOL0     C53010   3.949   7.920   7.930  0.0977 -0.4534  0.3921
  385MOL0     C53011   4.017   8.018   7.877 -0.2254 -0.7937 -0.2366
  385MOL0     C53012   4.103   8.035   7.753 -0.0410 -0.3445 -0.0465
  385MOL0     C53013   4.143   7.894   7.694 -0.3583 -0.5695 -0.3012
  385MOL0     C53014   4.234   7.909   7.568 -1.4852  0.2749 -0.3060
  385MOL0     C53015   4.265   7.770   7.507  0.4835 -1.0118  0.3392
  385MOL0     O53016   4.372   7.772   7.409  0.1972  0.0047 -0.2709
  385MOL0     C53017   4.489   7.806   7.470 -0.4150 -0.1796 -0.3079
  385MOL0     C53018   4.578   7.859   7.373  0.3208 -0.9144  0.1369
  385MOL0     C53019   4.708   7.902   7.411  0.6605  1.0432  0.4940
  385MOL0     C53020   4.799   7.932   7.293 -0.3443 -0.1854 -0.6926
  385MOL0     C53021   4.748   7.889   7.548 -0.0366 -0.5795 -0.0564
  385MOL0     C53022   4.882   7.950   7.597  0.8740 -0.4989 -0.0167
  385MOL0     O53023   4.923   7.903   7.719 -0.1726 -0.3560 -0.9600
  385MOL0     C53024   5.029   7.974   7.774  0.1119  0.3078 -0.4378
  385MOL0     C53025   5.010   8.095   7.832  0.3398  0.1885 -0.6518
  385MOL0     C53026   5.122   8.172   7.884  0.6776  0.1615  0.5866
  385MOL0     C53027   5.261   8.132   7.861  0.3422 -0.7079  0.9132
  385MOL0     O53028   5.362   8.211   7.911 -0.1160 -0.3777 -0.5969
  385MOL0     C53029   5.493   8.175   7.872  0.6571 -0.5721 -0.2381
  385MOL0     C53030   5.566   8.305   7.877  0.0683  0.1527  0.6604
  385MOL0     C53031   5.720   8.284   7.862 -0.7621 -1.2221  0.4687
  385MOL0     C53032   5.776   8.433   7.877 -0.1539 -0.7481  0.5653
  385MOL0     C53033   5.927   8.442   7.860 -0.3050 -0.7602  0.8629
  385MOL0     C53034   6.002   8.550   7.938 -0.4849 -0.2099 -0.3140
  385MOL0     C53035   6.144   8.543   7.872  0.5552  0.0001  0.1969
  385MOL0     C53036   6.257   8.597   7.962  0.0505  0.4570  0.1777
  385MOL0    Cl53037   6.249   8.538   8.127 -0.0247 -0.4563  0.4013
  385MOL0     C53038   5.275   8.016   7.784 -0.3496  0.3343 -0.2634
  385MOL0     C53039   5.157   7.933   7.754 -0.9803  0.0605  0.8774
  385MOL0     O53040   4.934   8.041   7.537  0.6446  0.3884  0.2789
  385MOL0     C53041   4.666   7.828   7.638 -0.6503  0.2783  0.6661
  385MOL0     C53042   4.540   7.790   7.600  0.6514 -0.8921  0.6196
  385MOL0     N53043   4.021   8.118   7.978 -0.3284  0.9109  0.8740
  385MOL0     N53044   3.925   8.090   8.069  0.0192 -0.6160  0.8580
  385MOL0     C53045   3.128   7.574   9.037  0.3730  0.0411  0.4620
  385MOL0     C53046   3.086   7.588   9.166 -1.1435  0.7064 -0.1564
  385MOL0     C53047   3.130   7.841   9.569  0.3060  0.2052  0.0306
  385MOL0     C53048   3.141   7.974   9.610 -0.2943  0.0232  0.6057
  385MOL0     C53049   3.130   8.019   9.744 -0.1538  0.1095  0.7663
  385MOL0     C53050   3.104   7.927   9.853  0.1594  0.9716  0.8233
  385MOL0     O53051   3.092   7.964   9.986  0.2538 -0.1693  0.0935
  385MOL0     C53052   3.135   8.090  10.035 -0.4185  0.8797 -0.8762
  385MOL0     C53053   3.286   8.091  10.050 -1.0393  0.1465  0.0939
  385MOL0     C53054   3.329   7.996  10.167  1.7882 -1.3555  0.1794
  385MOL0     C53055   3.474   8.037  10.219  0.0778  0.9058  1.2454
  385MOL0     C53056   3.558   7.984  10.111 -0.1399  0.9043  0.0023
  385MOL0     C53057   3.639   7.948  10.020  0.9902 -0.8595 -0.4098
  385MOL0     C53058   3.087   7.794   9.812  0.3839  0.8772 -1.0659
  385MOL0     C53059   3.094   7.751   9.674  0.0733 -0.3452 -0.9547
  385MOL0     C53060   3.080   7.603   9.661 -0.3813  0.2853  0.4591
  385MOL0     H53061   3.390   7.673   9.299  3.4441 -1.1641 -3.0592
  385MOL0     H53062   3.461   7.661   9.058 -1.5074  1.3920 -2.9020
  385MOL0     H53063   3.459   7.580   8.829 -1.3531 -1.8142  0.8646
  385MOL0     H53064   3.398   7.752   8.845  1.1734 -1.3412  2.2754
  385MOL0     H53065   3.381   7.560   8.613 -1.0792  0.5992 -3.0665
  385MOL0     H53066   3.287   7.708   8.622 -1.1565 -0.1213  1.2301
  385MOL0     H53067   3.517   7.841   8.645  1.9638  0.7943 -1.3147
  385MOL0     H53068   3.600   7.693   8.612 -0.8764 -0.7703  1.7215
  385MOL0     H53069   3.469   7.664   8.399  0.1863  1.1702 -2.2448
  385MOL0     H53070   3.395   7.817   8.424  0.0617 -0.4912  2.2982
  385MOL0     H53071   3.685   7.770   8.371 -2.6937 -2.1886  3.6422
  385MOL0     H53072   3.622   7.916   8.438 -0.7750  1.8967 -2.2735
  385MOL0     H53073   3.541   7.780   8.157 -0.9306  0.4455 -0.8649
  385MOL0     H53074   3.463   7.918   8.215 -0.6394 -0.9079 -2.3929
  385MOL0     H53075   3.664   8.058   8.179  1.5234  0.2770  0.4852
  385MOL0     H53076   3.631   7.955   8.043 -1.1803  0.0227  0.2781
  385MOL0     H53077   3.840   7.860   8.238  2.2993 -0.5736 -0.6345
  385MOL0     H53078   3.767   7.781   8.102 -1.7183  0.8384 -0.1843
  385MOL0     H53079   3.934   7.822   7.886  2.8319  0.2596 -2.5565
  385MOL0     H53080   4.183   8.101   7.785  1.4660 -2.3559  0.5688
  385MOL0     H53081   4.042   8.089   7.681  0.1222  2.3932  1.7326
  385MOL0     H53082   4.189   7.830   7.770 -1.4047 -2.8156 -1.4702
  385MOL0     H53083   4.053   7.842   7.658 -0.6881  1.3117 -2.3462
  385MOL0     H53084   4.185   7.967   7.488  0.4593  1.4089 -0.7496
  385MOL0     H53085   4.321   7.964   7.605 -0.7652 -1.4400  0.6033
  385MOL0     H53086   4.300   7.710   7.592 -0.0012 -1.1895  0.4109
  385MOL0     H53087   4.173   7.729   7.466  1.9382 -0.8230 -3.6013
  385MOL0     H53088   4.564   7.841   7.267 -0.1918  2.6551 -0.5168
  385MOL0     H53089   4.749   7.961   7.200 -2.6015  0.1455  0.5549
  385MOL0     H53090   4.870   7.852   7.270 -0.4459 -0.3236 -0.5261
  385MOL0     H53091   4.862   8.021   7.306 -0.3111 -0.4955  1.6292
  385MOL0     H53092   4.908   8.123   7.857 -0.0381 -1.7952  0.1910
  385MOL0     H53093   5.104   8.272   7.922 -0.2191  0.0716  0.4231
  385MOL0     H53094   5.542   8.111   7.946 -2.0252  2.0436  4.2613
  385MOL0     H53095   5.504   8.127   7.774  0.5821 -0.0694 -0.4967
  385MOL0     H53096   5.533   8.355   7.785  1.6801 -0.0330 -0.0534
  385MOL0     H53097   5.534   8.351   7.971 -1.7613 -3.4270  1.9928
  385MOL0     H53098   5.744   8.243   7.763  0.6080 -0.3250  0.4046
  385MOL0     H53099   5.761   8.231   7.948 -0.3185 -2.1617 -0.3083
  385MOL0     H53100   5.755   8.477   7.975  1.9338 -0.3939  0.9209
  385MOL0     H53101   5.729   8.503   7.807  2.1544  1.6143  1.2037
  385MOL0     H53102   5.967   8.343   7.882  0.7765 -0.2400  1.3321
  385MOL0     H53103   5.937   8.461   7.753 -5.0234 -0.0262  0.3177
  385MOL0     H53104   6.003   8.533   8.046  0.4465  0.5119 -0.1972
  385MOL0     H53105   5.959   8.650   7.922 -1.0937 -0.6649 -1.6596
  385MOL0     H53106   6.135   8.607   7.784 -0.7510  1.0324  1.0382
  385MOL0     H53107   6.162   8.438   7.849 -4.1053 -0.7101 -1.2161
  385MOL0     H53108   6.259   8.706   7.968  0.9085  0.3518  3.4961
  385MOL0     H53109   6.349   8.565   7.913 -0.4548 -1.4864  0.4083
  385MOL0     H53110   5.373   7.984   7.752 -1.9757 -1.1493 -4.4953
  385MOL0     H53111   5.166   7.845   7.691  0.9691  1.1756 -0.4880
  385MOL0     H53112   4.701   7.821   7.740  2.6196  1.4073 -0.2377
  385MOL0     H53113   4.483   7.746   7.681  0.2181 -1.9777 -0.2505
  385MOL0     H53114   3.057   7.565   8.956  1.4410  0.6056 -0.5744
  385MOL0     H53115   2.987   7.560   9.198 -0.6036  0.5257  1.4357
  385MOL0     H53116   3.156   8.054   9.538 -0.0864  1.7578  2.4816
  385MOL0     H53117   3.140   8.123   9.774  0.9354 -0.3442  2.0503
  385MOL0     H53118   3.089   8.171   9.979  0.4934  0.3585 -2.4522
  385MOL0     H53119   3.095   8.095  10.137  0.2217  0.3427 -0.5930
  385MOL0     H53120   3.314   8.196  10.067 -2.4147  0.4982  0.2801
  385MOL0     H53121   3.336   8.066   9.956  0.2962  1.4610  0.4076
  385MOL0     H53122   3.260   8.015  10.249  0.1248 -0.2076 -1.3971
  385MOL0     H53123   3.299   7.895  10.138 -1.2107 -0.9118  1.3590
  385MOL0     H53124   3.489   7.977  10.309  0.3215 -2.6079 -0.9598
  385MOL0     H53125   3.484   8.144  10.242 -2.3635  1.7251 -0.8663
  385MOL0     H53126   3.704   7.912   9.942 -0.2508 -0.1812 -1.7919
  385MOL0     H53127   3.074   7.728   9.898  0.5661 -0.1350 -1.8064
  385MOL0     H53128   3.180   7.560   9.650 -0.4520  0.0271  0.8217
  385MOL0     H53129   3.043   7.552   9.750  0.6194 -2.3891 -0.5729
  385MOL0     H53130   3.007   7.577   9.584 -3.9435  0.6998  3.4392
  386MOL0     O53131   7.910   8.535   8.489  0.6510 -0.4558 -0.3491
  386MOL0     C53132   7.999   8.449   8.488  0.2659  0.3328 -0.1998
  386MOL0     O53133   7.985   8.316   8.489  0.5061 -0.2096 -0.2896
  386MOL0     C53134   7.870   8.258   8.529  0.4648  0.4557 -0.2518
  386MOL0     C53135   7.733   8.295   8.494 -0.2081  0.2676 -0.4348
  386MOL0     C53136   7.627   8.202   8.516 -0.2564 -0.1513  0.1902
  386MOL0     C53137   7.649   8.077   8.587  0.9549 -0.1422  0.0954
  386MOL0     O53138   7.537   8.002   8.604 -0.3465  0.8392  0.4323
  386MOL0     C53139   7.572   7.865   8.647  0.7765  0.5941 -0.3653
  386MOL0     C53140   7.433   7.804   8.679 -0.7804 -0.2915 -1.0879
  386MOL0     C53141   7.351   7.895   8.774  0.2290  0.9137 -0.7101
  386MOL0     C53142   7.203   7.891   8.778 -0.7749  0.8475  0.9603
  386MOL0     C53143   7.153   7.741   8.806 -0.1445 -0.0523  0.0699
  386MOL0     C53144   6.995   7.734   8.817 -0.5053  0.3765 -0.2031
  386MOL0     C53145   6.940   7.600   8.876 -0.1423 -0.5415  0.7122
  386MOL0     C53146   6.985   7.471   8.809 -0.5110  0.2035 -0.6309
  386MOL0     N53147   6.955   7.352   8.898 -0.8428 -0.4436  0.4080
  386MOL0     C53148   7.054   7.287   8.973  0.7365 -0.3992  0.2558
  386MOL0     C53149   6.989   7.223   9.075 -0.8617  0.1048  0.6851
  386MOL0     C53150   7.049   7.171   9.202  0.1180 -0.9970  0.8348
  386MOL0     C53151   7.149   7.264   9.275 -0.4197 -0.7035 -0.9198
  386MOL0     C53152   7.106   7.404   9.306  0.2773  0.7856 -0.5818
  386MOL0     C53153   7.008   7.406   9.417 -0.2170 -0.3706 -0.6223
  386MOL0     O53154   7.093   7.383   9.537 -0.1738  0.3886  0.4543
  386MOL0     C53155   7.037   7.412   9.662 -0.3680  0.5968 -0.3414
  386MOL0     C53156   6.910   7.462   9.682  0.6524  0.0906  0.2345
  386MOL0     C53157   6.845   7.489   9.803  0.0109 -0.0922  0.0319
  386MOL0     C53158   6.689   7.505   9.797  0.0461 -0.1742 -0.3787
  386MOL0     C53159   6.929   7.485   9.921  0.0316 -0.5794  0.9659
  386MOL0     C53160   6.889   7.533  10.057 -0.4263 -0.4474 -0.3835
  386MOL0     O53161   6.966   7.501  10.159 -0.7696 -0.0274 -0.3549
  386MOL0     C53162   6.920   7.541  10.284  0.0935 -0.7741  0.1700
  386MOL0     C53163   6.885   7.454  10.387 -0.2875 -0.9635  0.1948
  386MOL0     C53164   6.862   7.505  10.516  0.2949 -0.6305  0.0397
  386MOL0     C53165   6.858   7.640  10.546  0.1463 -0.7665  0.8172
  386MOL0     O53166   6.829   7.695  10.669 -0.3434 -0.1841 -0.5468
  386MOL0     C53167   6.872   7.618  10.789 -0.4817 -0.2775 -0.2274
  386MOL0     C53168   6.840   7.707  10.908  0.1649 -0.2652  0.7433
  386MOL0     C53169   6.893   7.658  11.048  0.2709 -0.7623 -0.5625
  386MOL0     C53170   6.852   7.518  11.066 -0.3519 -0.3245  0.0585
  386MOL0     C53171   6.888   7.469  11.212  0.8506  0.1333  0.3172
  386MOL0     C53172   7.039   7.438  11.216 -0.2882  0.1872  0.7085
  386MOL0     C53173   7.075   7.405  11.352 -0.1196  0.7346 -0.9400
  386MOL0     C53174   7.237   7.404  11.352 -0.1779 -0.1951  0.2698
  386MOL0    Cl53175   7.308   7.328  11.484 -0.2953 -0.1756 -0.0122
  386MOL0     C53176   6.891   7.728  10.442  0.3086 -0.6611 -0.2550
  386MOL0     C53177   6.916   7.686  10.315 -0.2039 -0.1354 -0.7787
  386MOL0     O53178   6.782   7.591  10.074  0.6748 -0.1094  0.2677
  386MOL0     C53179   7.052   7.423   9.897  0.0046  0.5490 -0.9313
  386MOL0     C53180   7.116   7.390   9.776  0.2480  1.2580 -0.6820
  386MOL0     N53181   6.858   7.225   9.039 -0.1086  0.3784 -0.0210
  386MOL0     N53182   6.837   7.317   8.943 -0.4127 -0.1824 -0.2386
  386MOL0     C53183   7.780   8.044   8.618  0.8862  0.1847 -0.5225
  386MOL0     C53184   7.888   8.130   8.589  0.1047 -0.3677 -0.2253
  386MOL0     C53185   8.143   8.489   8.494  0.1880 -0.6096 -0.8646
  386MOL0     C53186   8.199   8.569   8.398 -0.5606 -0.0728 -0.7044
  386MOL0     C53187   8.326   8.624   8.401 -0.5195 -0.4985 -1.1543
  386MOL0     C53188   8.419   8.586   8.509  0.6622 -0.2742  0.4293
  386MOL0     O53189   8.543   8.634   8.535  0.5346  0.8367 -0.1740
  386MOL0     C53190   8.560   8.768   8.599  0.5248 -0.4516 -0.6664
  386MOL0     C53191   8.565   8.751   8.756 -0.8208  0.2070 -0.9601
  386MOL0     C53192   8.671   8.651   8.796 -0.2748 -0.2138 -0.2264
  386MOL0     C53193   8.676   8.622   8.955  0.2894  0.5698 -0.2052
  386MOL0     C53194   8.809   8.628   9.017 -0.2244 -0.1548 -0.0491
  386MOL0     C53195   8.922   8.639   9.054 -0.6003  0.4275 -1.1907
  386MOL0     C53196   8.355   8.504   8.604 -0.5234 -1.2126  0.8209
  386MOL0     C53197   8.228   8.446   8.594  0.4837 -0.0794 -0.6969
  386MOL0     C53198   8.193   8.357   8.705  0.0245  0.7183  0.2069
  386MOL0     H53199   7.726   8.390   8.441  0.8324 -0.5521 -2.1182
  386MOL0     H53200   7.526   8.231   8.487 -0.9795 -1.9728  0.7306
  386MOL0     H53201   7.636   7.853   8.736 -0.5572  3.0337  1.0135
  386MOL0     H53202   7.613   7.809   8.562  1.3916  0.6580 -0.1202
  386MOL0     H53203   7.371   7.797   8.590  1.5567 -2.4979 -2.6935
  386MOL0     H53204   7.453   7.704   8.719  2.6396  0.6979  0.0675
  386MOL0     H53205   7.399   7.886   8.872  0.3334  0.0669 -0.8360
  386MOL0     H53206   7.363   8.002   8.752  4.0411  1.0207  1.0803
  386MOL0     H53207   7.185   7.939   8.875  1.1166  0.3232  1.6158
  386MOL0     H53208   7.160   7.946   8.694  0.0046  1.5628  1.0076
  386MOL0     H53209   7.200   7.694   8.894 -0.8094 -2.2126 -0.6572
  386MOL0     H53210   7.193   7.687   8.720  1.3914  1.6389 -0.3349
  386MOL0     H53211   6.959   7.814   8.882  1.1476  1.6143 -0.7502
  386MOL0     H53212   6.951   7.741   8.716  0.3622  1.3570 -0.5314
  386MOL0     H53213   6.831   7.604   8.879 -0.1751 -1.5135  3.2457
  386MOL0     H53214   6.980   7.594   8.978  2.5593  0.9200 -0.1929
  386MOL0     H53215   6.920   7.465   8.721 -3.2904 -0.6156  1.3526
  386MOL0     H53216   7.090   7.473   8.778  0.5825 -1.2830  2.5995
  386MOL0     H53217   7.161   7.300   8.958  0.3480 -0.0886 -2.8326
  386MOL0     H53218   7.096   7.074   9.187 -0.4323 -1.5305  2.3546
  386MOL0     H53219   6.963   7.161   9.268 -0.1305  1.2943  0.9483
  386MOL0     H53220   7.173   7.214   9.370 -0.5718  0.6110 -0.1706
  386MOL0     H53221   7.237   7.268   9.211  3.3555 -3.8720  3.3190
  386MOL0     H53222   7.194   7.466   9.327  1.0337 -0.9833  2.0798
  386MOL0     H53223   7.056   7.440   9.216 -1.2324 -1.6699 -0.8336
  386MOL0     H53224   6.964   7.504   9.433  2.1357  0.4439  1.6262
  386MOL0     H53225   6.927   7.333   9.408 -1.7661  1.1661  0.2820
  386MOL0     H53226   6.850   7.489   9.596  1.0514 -3.0540 -1.1808
  386MOL0     H53227   6.656   7.608   9.812  0.3478 -0.2196  0.7316
  386MOL0     H53228   6.654   7.426   9.865  0.9300  0.2893  0.6484
  386MOL0     H53229   6.662   7.495   9.692  2.3349 -2.2791 -0.8552
  386MOL0     H53230   6.899   7.349  10.363  1.2833 -0.4971 -1.2063
  386MOL0     H53231   6.850   7.433  10.595 -0.9465  1.1738  1.5956
  386MOL0     H53232   6.818   7.523  10.799  1.6579 -1.5884 -0.4206
  386MOL0     H53233   6.980   7.598  10.790 -0.1063  1.5467 -0.8798
  386MOL0     H53234   6.870   7.810  10.889 -0.1542 -0.1996  0.5717
  386MOL0     H53235   6.731   7.714  10.896  0.4891  0.5381 -3.1331
  386MOL0     H53236   6.857   7.731  11.121 -2.9644 -0.0196 -2.6928
  386MOL0     H53237   7.001   7.661  11.031  0.5864 -0.4111  1.2908
  386MOL0     H53238   6.914   7.456  11.000  0.9359  2.7381 -1.7968
  386MOL0     H53239   6.744   7.505  11.048 -0.7956 -2.7515  3.4910
  386MOL0     H53240   6.854   7.548  11.281 -0.3804 -0.6247  0.6166
  386MOL0     H53241   6.837   7.373  11.226  2.0549 -1.0723 -2.7587
  386MOL0     H53242   7.096   7.517  11.166 -2.0589  1.6881  0.9334
  386MOL0     H53243   7.053   7.349  11.154 -2.7135  0.6412 -0.6261
  386MOL0     H53244   7.034   7.309  11.384  1.7597  0.3596  0.5951
  386MOL0     H53245   7.036   7.475  11.427 -4.5482 -2.5259  0.2188
  386MOL0     H53246   7.272   7.507  11.356 -0.9383  0.1226 -0.7466
  386MOL0     H53247   7.278   7.348  11.268 -0.2899 -0.1662  0.1947
  386MOL0     H53248   6.875   7.835  10.457  0.1022 -0.7098 -0.1304
  386MOL0     H53249   6.940   7.760  10.239 -0.6966 -0.3689 -1.1733
  386MOL0     H53250   7.114   7.405   9.984 -2.1550  0.3990  0.6863
  386MOL0     H53251   7.216   7.348   9.775  0.3821  1.5539  0.0152
  386MOL0     H53252   7.799   7.954   8.674  0.1418  0.9645  1.0558
  386MOL0     H53253   7.991   8.107   8.613  1.0114  3.0647 -0.3644
  386MOL0     H53254   8.137   8.585   8.310 -2.5493 -0.3782  0.5760
  386MOL0     H53255   8.353   8.703   8.333  0.5711 -1.6849 -2.1646
  386MOL0     H53256   8.650   8.819   8.565 -0.2005  0.4494 -1.2833
  386MOL0     H53257   8.477   8.836   8.578  2.4743  2.5979  0.7667
  386MOL0     H53258   8.463   8.734   8.789 -0.4032 -0.1266  0.1882
  386MOL0     H53259   8.594   8.850   8.793  0.2111 -0.6076  0.4804
  386MOL0     H53260   8.655   8.553   8.749  0.4420 -0.3751 -0.1583
  386MOL0     H53261   8.765   8.692   8.760  1.8886  0.0773  4.8142
  386MOL0     H53262   8.637   8.520   8.960  4.6651 -1.5855 -3.4266
  386MOL0     H53263   8.605   8.684   9.010 -0.1100 -0.8828  0.9676
  386MOL0     H53264   9.017   8.637   9.104 -2.0982  0.8323  1.9158
  386MOL0     H53265   8.412   8.488   8.695 -3.4740 -0.9875  2.8399
  386MOL0     H53266   8.265   8.280   8.735  0.6711  1.2783  0.1018
  386MOL0     H53267   8.197   8.422   8.793  1.2033  1.5606 -0.4557
  386MOL0     H53268   8.101   8.297   8.708  0.2353  0.4200  1.0971
  387MOL0     O53269   7.153   1.804   4.636 -0.2692 -0.0900 -0.3959
  387MOL0     C53270   7.219   1.853   4.733  0.6846 -0.1082  0.7565
  387MOL0     O53271   7.191   1.975   4.782 -0.3506  0.2966 -0.4837
  387MOL0     C53272   7.060   2.006   4.787  0.2188  0.3776 -0.0959
  387MOL0     C53273   7.019   2.126   4.728  0.3819  0.1731  0.0791
  387MOL0     C53274   6.882   2.167   4.745  0.2484  0.0603 -0.2625
  387MOL0     C53275   6.787   2.089   4.818 -0.3959 -0.3473  0.0077
  387MOL0     O53276   6.660   2.134   4.831  0.5285 -0.2380  0.2055
  387MOL0     C53277   6.559   2.040   4.798 -0.0611 -0.3886  0.1142
  387MOL0     C53278   6.466   2.073   4.677 -0.0844 -0.4265  0.2044
  387MOL0     C53279   6.416   2.213   4.693  0.4467 -0.1871  0.5226
  387MOL0     C53280   6.362   2.291   4.567 -0.1712  0.6093 -0.1234
  387MOL0     C53281   6.244   2.394   4.606  0.1180 -0.1329 -0.7531
  387MOL0     C53282   6.204   2.452   4.468  0.6702 -0.0471  0.2055
  387MOL0     C53283   6.310   2.525   4.371 -0.6364  0.2599  0.3796
  387MOL0     C53284   6.236   2.607   4.267 -0.3194 -0.4861  0.5167
  387MOL0     N53285   6.153   2.517   4.184  0.1882  0.6380  0.5521
  387MOL0     C53286   6.199   2.432   4.078 -1.0587  1.2526  0.4794
  387MOL0     C53287   6.085   2.377   4.025  0.3094 -0.0751  0.8807
  387MOL0     C53288   6.077   2.272   3.916  0.5256  0.0556 -0.8332
  387MOL0     C53289   5.931   2.211   3.916  0.3275  0.5822 -0.1674
  387MOL0     C53290   5.916   2.120   3.797  0.7397 -0.4267 -0.6591
  387MOL0     C53291   6.014   2.000   3.797 -0.4030 -0.1156  0.1866
  387MOL0     O53292   5.957   1.892   3.876  0.8479 -0.9067 -0.0320
  387MOL0     C53293   6.034   1.778   3.894  0.4786  0.5122  0.2238
  387MOL0     C53294   6.153   1.739   3.835  0.5136 -0.0144  1.1132
  387MOL0     C53295   6.216   1.615   3.848 -0.5068  0.2653  0.3122
  387MOL0     C53296   6.360   1.605   3.787  1.1801  0.4966  0.2546
  387MOL0     C53297   6.157   1.508   3.920  1.1540 -0.2412 -0.1023
  387MOL0     C53298   6.195   1.363   3.930  0.3210 -0.4429 -0.3197
  387MOL0     O53299   6.314   1.328   3.876  0.3918  0.7872 -0.3395
  387MOL0     C53300   6.360   1.199   3.892  0.6300 -0.0883 -0.7671
  387MOL0     C53301   6.387   1.152   4.016  0.1982  0.5340 -0.1611
  387MOL0     C53302   6.411   1.024   4.042  0.1913  0.2257 -0.2032
  387MOL0     C53303   6.386   0.921   3.947  0.5047 -0.4325 -0.1446
  387MOL0     O53304   6.399   0.784   3.973 -0.3569 -0.2518 -0.7616
  387MOL0     C53305   6.386   0.690   3.867  0.1484  0.7556 -0.5083
  387MOL0     C53306   6.392   0.551   3.937 -0.4329  0.1815 -0.1503
  387MOL0     C53307   6.500   0.520   4.040 -1.3357 -0.0939  0.3937
  387MOL0     C53308   6.648   0.575   3.993  1.1037 -0.2847 -0.3127
  387MOL0     C53309   6.774   0.554   4.083  0.9467 -0.5439 -0.9559
  387MOL0     C53310   6.771   0.634   4.217 -0.9686  0.5962  0.3198
  387MOL0     C53311   6.745   0.776   4.179 -0.0436 -0.3073 -0.4077
  387MOL0     C53312   6.755   0.873   4.299 -0.1342  0.3221 -0.0496
  387MOL0    Cl53313   6.743   1.051   4.249 -0.0245  0.3573 -0.3564
  387MOL0     C53314   6.355   0.965   3.821  0.7931  0.0450 -0.1952
  387MOL0     C53315   6.342   1.103   3.792  0.8476 -0.6620 -1.0350
  387MOL0     O53316   6.106   1.281   3.966 -0.3104 -0.0190 -0.2574
  387MOL0     C53317   6.043   1.549   3.990 -0.3879 -0.2693 -0.7290
  387MOL0     C53318   5.982   1.674   3.973  1.2210 -0.2620 -0.2546
  387MOL0     N53319   5.974   2.441   4.089  0.3197 -1.0004 -0.0309
  387MOL0     N53320   6.013   2.519   4.183  0.5206  0.3458  0.3840
  387MOL0     C53321   6.825   1.968   4.877  0.3927 -0.4771  0.0808
  387MOL0     C53322   6.962   1.922   4.854  0.5699 -0.5621 -0.0028
  387MOL0     C53323   7.344   1.772   4.756  0.7942 -0.0966 -0.1151
  387MOL0     C53324   7.441   1.857   4.818 -0.4476 -0.2557  0.7611
  387MOL0     C53325   7.551   1.796   4.873  0.2218 -0.5256  0.1274
  387MOL0     C53326   7.564   1.659   4.867 -0.8594  0.4953 -0.2006
  387MOL0     O53327   7.688   1.621   4.902 -1.2421 -0.2071 -0.4944
  387MOL0     C53328   7.723   1.480   4.902 -0.5483 -0.1736 -0.2114
  387MOL0     C53329   7.854   1.463   4.971 -0.4862  0.3455  0.3843
  387MOL0     C53330   7.959   1.532   4.897  0.4402  0.1977  0.1338
  387MOL0     C53331   8.103   1.505   4.965 -0.3349  0.0127 -0.3054
  387MOL0     C53332   8.100   1.567   5.097 -0.4302  0.0067  0.1080
  387MOL0     C53333   8.113   1.599   5.220 -0.0673 -0.1160  0.7858
  387MOL0     C53334   7.468   1.572   4.823 -0.2949  1.1032  0.3816
  387MOL0     C53335   7.358   1.628   4.754 -0.0167 -0.6459  0.2519
  387MOL0     C53336   7.254   1.533   4.681  0.6242  0.2542 -0.1328
  387MOL0     H53337   7.098   2.181   4.678  1.4851 -1.7929 -0.4745
  387MOL0     H53338   6.857   2.261   4.696  2.4832  0.9020  0.1020
  387MOL0     H53339   6.499   2.029   4.889 -1.5913 -1.1852 -0.9394
  387MOL0     H53340   6.601   1.943   4.772 -0.9481 -0.3332 -1.7087
  387MOL0     H53341   6.520   2.051   4.584  0.5281 -2.4396  0.9837
  387MOL0     H53342   6.395   1.990   4.685  1.2484 -1.4217  2.8846
  387MOL0     H53343   6.337   2.206   4.768 -4.6300 -2.0366 -4.3205
  387MOL0     H53344   6.494   2.275   4.739  1.0803 -1.5170  1.3046
  387MOL0     H53345   6.443   2.344   4.517 -0.5506  0.3646 -1.0134
  387MOL0     H53346   6.320   2.215   4.500  0.8767 -1.1855  1.1831
  387MOL0     H53347   6.289   2.474   4.665 -1.1830 -0.7050  1.1123
  387MOL0     H53348   6.164   2.341   4.659 -1.4475 -0.9558 -3.7680
  387MOL0     H53349   6.154   2.367   4.419 -1.7817 -0.2165  2.7655
  387MOL0     H53350   6.124   2.524   4.483  0.0151 -0.7510  0.1782
  387MOL0     H53351   6.371   2.444   4.330 -0.4452  1.0613 -0.9600
  387MOL0     H53352   6.365   2.595   4.434  1.1706 -0.4563 -0.3438
  387MOL0     H53353   6.172   2.672   4.327  1.0154 -1.1631  2.7709
  387MOL0     H53354   6.312   2.669   4.218 -4.6725  5.0224 -0.2868
  387MOL0     H53355   6.305   2.421   4.062 -1.2239  1.5004 -0.8776
  387MOL0     H53356   6.144   2.192   3.949 -0.9050 -0.2086  1.7335
  387MOL0     H53357   6.102   2.325   3.824  2.4164  0.9940  0.1649
  387MOL0     H53358   5.914   2.154   4.008  0.0602  0.8695 -0.0350
  387MOL0     H53359   5.857   2.292   3.917 -2.1627 -1.5158 -1.2091
  387MOL0     H53360   5.814   2.080   3.800  1.1939 -1.5708  0.1846
  387MOL0     H53361   5.936   2.179   3.707  3.9208  1.3703  1.0323
  387MOL0     H53362   6.017   1.966   3.693 -1.0850 -0.1700  0.1836
  387MOL0     H53363   6.120   2.017   3.820 -0.5007 -0.3344  0.8035
  387MOL0     H53364   6.207   1.815   3.779  1.0540 -1.1034  0.1183
  387MOL0     H53365   6.429   1.551   3.852  2.2627  1.3294 -0.1840
  387MOL0     H53366   6.401   1.704   3.766  2.9941  0.5918  3.5956
  387MOL0     H53367   6.350   1.551   3.692 -0.9659  2.9286 -1.0371
  387MOL0     H53368   6.401   1.224   4.097 -2.9381 -0.2950  1.3011
  387MOL0     H53369   6.441   0.989   4.140  0.9615 -2.0390 -1.1824
  387MOL0     H53370   6.292   0.687   3.812  0.8146  0.9357 -1.6890
  387MOL0     H53371   6.470   0.706   3.798  0.2333  1.6497 -0.2136
  387MOL0     H53372   6.297   0.536   3.989 -0.3014 -0.6224 -0.1248
  387MOL0     H53373   6.385   0.479   3.854  0.6341 -1.2508  0.9620
  387MOL0     H53374   6.517   0.412   4.054  1.1810 -0.3023 -3.0636
  387MOL0     H53375   6.463   0.566   4.132 -0.6348  1.1881  0.0488
  387MOL0     H53376   6.635   0.679   3.960  2.1464  0.2709  0.9598
  387MOL0     H53377   6.685   0.529   3.901 -0.5157 -0.0767 -1.1115
  387MOL0     H53378   6.783   0.447   4.105  2.1563 -0.5135 -1.1797
  387MOL0     H53379   6.854   0.585   4.015  0.3827  0.4624 -1.1764
  387MOL0     H53380   6.867   0.622   4.269 -0.5164 -0.8933 -0.7736
  387MOL0     H53381   6.687   0.596   4.277  0.0007 -3.4179 -0.5470
  387MOL0     H53382   6.643   0.783   4.142 -1.1228  2.7555  2.5531
  387MOL0     H53383   6.818   0.788   4.098  2.1757 -4.7549  0.6331
  387MOL0     H53384   6.852   0.848   4.344  1.6416  1.2153 -3.1070
  387MOL0     H53385   6.679   0.854   4.375 -1.5591  4.2693 -0.2677
  387MOL0     H53386   6.336   0.896   3.740  4.9069  0.6729 -1.9661
  387MOL0     H53387   6.294   1.140   3.702  0.6426 -1.5551 -1.3021
  387MOL0     H53388   5.996   1.467   4.043 -0.1843  0.6718  0.9884
  387MOL0     H53389   5.895   1.691   4.035 -0.0861  3.3533 -2.7522
  387MOL0     H53390   6.755   1.897   4.921 -0.8617 -0.8196 -2.3045
  387MOL0     H53391   7.002   1.828   4.887  0.1381  0.0628  2.4613
  387MOL0     H53392   7.437   1.965   4.808 -0.0925 -0.2565  0.5720
  387MOL0     H53393   7.639   1.856   4.892  0.1948 -0.4453  0.0016
  387MOL0     H53394   7.644   1.416   4.944  0.3170 -0.3122  1.2677
  387MOL0     H53395   7.736   1.446   4.799  2.1401 -0.7568  0.2469
  387MOL0     H53396   7.886   1.358   4.968 -0.0548  0.4620  0.8931
  387MOL0     H53397   7.834   1.489   5.075  2.0938 -0.2415  1.0861
  387MOL0     H53398   7.962   1.475   4.804  0.7637  0.0034  0.2625
  387MOL0     H53399   7.944   1.636   4.866  1.6788 -0.1376 -1.7214
  387MOL0     H53400   8.185   1.549   4.908 -0.1529  0.7874  0.5210
  387MOL0     H53401   8.134   1.400   4.977 -1.6314 -0.2573  1.0579
  387MOL0     H53402   8.129   1.609   5.325 -2.3515 -0.0293  1.1798
  387MOL0     H53403   7.488   1.466   4.817 -1.8553  0.8708 -4.4451
  387MOL0     H53404   7.309   1.439   4.691  1.4087  0.7459  0.2450
  387MOL0     H53405   7.174   1.523   4.756  0.6904 -0.3531 -0.1374
  387MOL0     H53406   7.228   1.564   4.580  0.0868  0.0293 -0.0658
  388MOL0     O53407   5.446   4.799   1.646 -0.2202  0.1406 -0.5592
  388MOL0     C53408   5.407   4.799   1.530 -0.3543  0.2895  0.5668
  388MOL0     O53409   5.411   4.900   1.440  0.1543  0.1411 -0.2029
  388MOL0     C53410   5.499   5.009   1.468  0.3019 -0.5563  0.1834
  388MOL0     C53411   5.456   5.142   1.430  0.2043 -0.4782 -0.5484
  388MOL0     C53412   5.545   5.251   1.441 -0.3717  0.3245 -0.1350
  388MOL0     C53413   5.680   5.233   1.479  0.5128  0.5820  0.8162
  388MOL0     O53414   5.769   5.339   1.500 -0.3058  0.2091  0.5468
  388MOL0     C53415   5.873   5.361   1.397  0.8096 -1.5443  0.2037
  388MOL0     C53416   5.813   5.448   1.280 -0.0907 -0.1797  1.2320
  388MOL0     C53417   5.774   5.596   1.316 -0.9360  0.8148  0.2589
  388MOL0     C53418   5.730   5.687   1.200  0.4689 -0.5354  0.7744
  388MOL0     C53419   5.631   5.792   1.252 -0.1951 -0.4271 -0.4902
  388MOL0     C53420   5.610   5.913   1.171  0.1983 -0.0677 -0.3078
  388MOL0     C53421   5.567   5.897   1.028  0.8281  0.7227 -0.3993
  388MOL0     C53422   5.517   6.022   0.956  0.1930 -0.4340  0.0504
  388MOL0     N53423   5.515   6.007   0.808 -0.0701 -0.6167  0.2411
  388MOL0     C53424   5.628   5.989   0.734 -0.0739  0.4773 -0.1731
  388MOL0     C53425   5.579   5.971   0.607 -0.5196  0.0943 -0.4537
  388MOL0     C53426   5.665   5.937   0.485 -0.2340  0.2858  0.3238
  388MOL0     C53427   5.742   6.064   0.435 -0.6453 -1.0538  0.2343
  388MOL0     C53428   5.640   6.172   0.384  0.3200  0.3800 -0.0637
  388MOL0     C53429   5.696   6.294   0.312 -0.2361  0.3374  0.5894
  388MOL0     O53430   5.807   6.342   0.396  0.1561  0.1206 -0.6419
  388MOL0     C53431   5.869   6.460   0.359  0.1103 -0.3119  0.4431
  388MOL0     C53432   5.859   6.523   0.239  0.3949 -1.1368  0.2160
  388MOL0     C53433   5.901   6.656   0.216  0.5963 -0.9437 -0.1353
  388MOL0     C53434   5.885   6.715   0.071 -0.6100  0.3970 -0.3148
  388MOL0     C53435   5.954   6.741   0.330 -0.0625  0.4234  0.8438
  388MOL0     C53436   6.000   6.881   0.315  0.6717  0.5850  0.3324
  388MOL0     O53437   6.031   6.925   0.443  0.5592  0.5394  0.1490
  388MOL0     C53438   6.078   7.050   0.470  0.2699 -0.0911 -0.2964
  388MOL0     C53439   6.084   7.165   0.385 -0.7613 -0.5003  0.2274
  388MOL0     C53440   6.129   7.280   0.444  0.1085 -0.8227  0.0369
  388MOL0     C53441   6.164   7.292   0.574  0.1797 -0.9494 -0.7016
  388MOL0     O53442   6.199   7.423   0.608  0.2969  0.1124  0.2182
  388MOL0     C53443   6.190   7.458   0.747 -0.5271  0.2341  0.2785
  388MOL0     C53444   6.312   7.446   0.840  0.5920  0.6253 -0.4733
  388MOL0     C53445   6.450   7.498   0.793 -0.0965  0.2272  0.6356
  388MOL0     C53446   6.550   7.468   0.901 -0.3975 -0.3908 -0.4753
  388MOL0     C53447   6.690   7.520   0.838  0.5833  0.1953  0.5173
  388MOL0     C53448   6.803   7.508   0.938 -0.1816  0.3336  0.3026
  388MOL0     C53449   6.936   7.535   0.860  0.2807  0.0101 -0.1477
  388MOL0     C53450   7.050   7.594   0.947  0.9483  0.4485  0.5466
  388MOL0    Cl53451   7.067   7.760   0.894  0.1119  0.0370  0.0612
  388MOL0     C53452   6.170   7.177   0.658 -0.2277 -1.3620  0.7298
  388MOL0     C53453   6.127   7.061   0.602 -0.3735 -0.4909  0.4674
  388MOL0     O53454   5.988   6.948   0.207 -0.3978 -0.1349 -0.5632
  388MOL0     C53455   5.957   6.667   0.453  0.3354  0.2489 -0.2696
  388MOL0     C53456   5.933   6.526   0.460  0.0653 -0.0026 -0.4677
  388MOL0     N53457   5.436   5.980   0.608  0.3941  0.3159  0.1519
  388MOL0     N53458   5.405   6.001   0.732  0.3145 -0.4064 -0.5045
  388MOL0     C53459   5.717   5.100   1.518 -1.6600 -0.7373 -0.2972
  388MOL0     C53460   5.629   4.984   1.505 -0.5414 -0.2855  0.2448
  388MOL0     C53461   5.334   4.679   1.479 -0.0410 -0.0744  1.1163
  388MOL0     C53462   5.357   4.650   1.345 -0.1441 -0.1130 -0.1330
  388MOL0     C53463   5.300   4.551   1.281 -0.7331  0.6398  0.6530
  388MOL0     C53464   5.214   4.467   1.342  0.4553 -0.5812  0.2157
  388MOL0     O53465   5.150   4.371   1.262 -0.4321  0.1174  0.2905
  388MOL0     C53466   5.063   4.278   1.317 -0.4535 -0.9469 -0.1575
  388MOL0     C53467   5.036   4.161   1.224  0.5926 -0.7393 -0.4371
  388MOL0     C53468   4.942   4.054   1.287  0.3466 -0.9107  0.2221
  388MOL0     C53469   4.896   3.968   1.180 -0.1852  0.8022 -0.0223
  388MOL0     C53470   4.826   3.850   1.241 -0.1393 -0.6646 -0.4477
  388MOL0     C53471   4.748   3.765   1.266 -0.0127 -0.3546 -0.9420
  388MOL0     C53472   5.193   4.483   1.476  0.7325 -1.1318  0.4881
  388MOL0     C53473   5.254   4.589   1.552  0.2227  0.2005 -0.5161
  388MOL0     C53474   5.232   4.613   1.701 -0.2806  0.5568 -0.0162
  388MOL0     H53475   5.352   5.162   1.405 -0.5273 -2.0216  1.0734
  388MOL0     H53476   5.502   5.340   1.397  0.6191  0.1474 -1.5131
  388MOL0     H53477   5.895   5.264   1.351  1.0751 -0.7088 -1.5344
  388MOL0     H53478   5.953   5.412   1.451  0.8145  0.0489 -1.2204
  388MOL0     H53479   5.889   5.439   1.202  0.1059 -1.4608  1.5482
  388MOL0     H53480   5.717   5.408   1.247 -1.5234  4.2302 -0.7233
  388MOL0     H53481   5.688   5.588   1.384 -0.6806 -2.4257  0.3882
  388MOL0     H53482   5.854   5.640   1.376  3.0454 -1.9955 -2.4647
  388MOL0     H53483   5.814   5.726   1.142  0.4687 -0.5446  0.7675
  388MOL0     H53484   5.685   5.621   1.126  2.8004 -2.3146  0.8192
  388MOL0     H53485   5.671   5.832   1.345 -0.9394 -2.4919  0.7939
  388MOL0     H53486   5.536   5.753   1.290 -1.7577  3.0898 -0.4339
  388MOL0     H53487   5.537   5.970   1.229  2.6260  0.6261  2.3323
  388MOL0     H53488   5.702   5.972   1.173 -0.2271  0.5896  0.6702
  388MOL0     H53489   5.486   5.824   1.037  0.8029  0.3870 -2.8216
  388MOL0     H53490   5.646   5.851   0.968 -3.0789 -5.1660 -1.8938
  388MOL0     H53491   5.422   6.047   1.004  0.1061  0.1343 -0.4132
  388MOL0     H53492   5.587   6.104   0.977 -0.8556  0.3287  0.6482
  388MOL0     H53493   5.732   5.971   0.759 -0.6463 -1.3570  1.0759
  388MOL0     H53494   5.605   5.900   0.401 -2.9415 -2.8000  3.2836
  388MOL0     H53495   5.737   5.860   0.516 -0.5528  0.3220  1.1892
  388MOL0     H53496   5.801   6.105   0.517 -1.1231 -1.3631  0.7383
  388MOL0     H53497   5.800   6.049   0.343  2.9564  3.6182  1.3372
  388MOL0     H53498   5.579   6.112   0.316 -1.3020 -0.4090  1.9864
  388MOL0     H53499   5.575   6.199   0.467  0.7869  1.3146  0.0110
  388MOL0     H53500   5.731   6.261   0.213 -0.0233  0.8548  0.4899
  388MOL0     H53501   5.621   6.375   0.310 -2.9349 -2.0005  0.8948
  388MOL0     H53502   5.815   6.474   0.153  0.5712  1.8418 -1.7227
  388MOL0     H53503   5.831   6.810   0.071  1.6767  1.7676 -0.3151
  388MOL0     H53504   5.837   6.642   0.005 -1.5986 -1.1241  1.9443
  388MOL0     H53505   5.988   6.736   0.040 -0.0802 -0.5792  0.7183
  388MOL0     H53506   6.041   7.163   0.285  0.5230  0.6713 -0.3763
  388MOL0     H53507   6.127   7.378   0.398 -3.2570 -0.7142  0.1166
  388MOL0     H53508   6.157   7.561   0.728 -2.7361 -0.8042 -2.1087
  388MOL0     H53509   6.106   7.401   0.786 -0.6569  0.0047 -0.3302
  388MOL0     H53510   6.276   7.503   0.926 -1.5897 -1.5324  0.1646
  388MOL0     H53511   6.326   7.339   0.860 -1.9900 -0.3418 -2.9514
  388MOL0     H53512   6.446   7.607   0.785 -1.4504  0.0820 -1.3378
  388MOL0     H53513   6.481   7.448   0.701  2.0966  0.1778  1.3447
  388MOL0     H53514   6.553   7.361   0.920  2.1594 -0.7394 -2.3253
  388MOL0     H53515   6.521   7.531   0.986 -2.3279 -1.1392 -0.5267
  388MOL0     H53516   6.719   7.475   0.742  0.6686  3.5345 -1.1691
  388MOL0     H53517   6.684   7.625   0.808 -0.7996  0.2919  1.0895
  388MOL0     H53518   6.804   7.411   0.988  2.1958  0.8787  1.4147
  388MOL0     H53519   6.792   7.592   1.008  2.4649  1.5812 -0.6396
  388MOL0     H53520   6.930   7.577   0.759 -0.9768 -0.9635 -0.5180
  388MOL0     H53521   6.987   7.440   0.838  3.1549  1.4003  0.0510
  388MOL0     H53522   7.141   7.536   0.926  1.4393  1.5111 -0.3688
  388MOL0     H53523   7.019   7.595   1.051  2.3000  2.0787  0.9813
  388MOL0     H53524   6.212   7.168   0.758 -2.4618 -1.0104  1.7647
  388MOL0     H53525   6.123   6.969   0.659 -1.1423 -0.7388  0.0294
  388MOL0     H53526   5.993   6.716   0.543  2.9700 -0.3839 -0.8785
  388MOL0     H53527   5.929   6.482   0.560 -1.2382  4.3149  1.6468
  388MOL0     H53528   5.823   5.083   1.536 -0.9090  0.7426 -2.8094
  388MOL0     H53529   5.672   4.886   1.526 -0.9297 -1.2133 -2.7816
  388MOL0     H53530   5.397   4.716   1.269 -1.2455 -0.7932 -1.3584
  388MOL0     H53531   5.322   4.526   1.178  5.7346 -1.1730  2.0180
  388MOL0     H53532   5.107   4.229   1.405 -0.1694 -2.1774 -0.9680
  388MOL0     H53533   4.966   4.319   1.348 -0.9811 -2.1073 -0.2074
  388MOL0     H53534   5.132   4.110   1.214  1.0456 -0.0659  0.4174
  388MOL0     H53535   4.994   4.195   1.128 -1.3493 -1.3776  0.1315
  388MOL0     H53536   4.999   4.004   1.366  0.3236 -1.3235 -0.0212
  388MOL0     H53537   4.859   4.111   1.330  1.8136  1.6180 -0.0823
  388MOL0     H53538   4.986   3.939   1.126 -2.2485  0.0315 -3.3480
  388MOL0     H53539   4.822   4.003   1.108 -0.5977 -0.4813 -0.2457
  388MOL0     H53540   4.673   3.693   1.293 -0.1142  0.1828  0.2527
  388MOL0     H53541   5.120   4.425   1.531  0.0648  1.7084  2.8257
  388MOL0     H53542   5.145   4.563   1.745  0.6450 -2.1291 -1.0043
  388MOL0     H53543   5.326   4.566   1.734  0.5749  1.7076 -0.7356
  388MOL0     H53544   5.233   4.720   1.720 -3.7159  0.9027 -1.2141
  389MOL0     O53545   9.728   6.553  11.209 -0.5127  0.3351 -0.6739
  389MOL0     C53546   9.844   6.544  11.260  0.4550 -0.6551  0.1236
  389MOL0     O53547   9.908   6.654  11.317 -0.4347  0.6798  0.1818
  389MOL0     C53548   9.868   6.784  11.318  0.3754  0.9515 -0.5099
  389MOL0     C53549   9.730   6.825  11.312 -0.3485  0.3471 -0.1787
  389MOL0     C53550   9.705   6.961  11.274 -0.2528  0.9647  0.0233
  389MOL0     C53551   9.806   7.047  11.240 -1.1648 -0.1089 -0.1011
  389MOL0     O53552   9.776   7.175  11.201 -0.0022 -0.3237 -0.6233
  389MOL0     C53553   9.738   7.195  11.067  0.6437 -0.2450 -0.4951
  389MOL0     C53554   9.728   7.342  11.031 -0.1641 -0.7683  0.2315
  389MOL0     C53555   9.857   7.416  11.057  0.2616 -1.1846  0.7616
  389MOL0     C53556   9.850   7.559  11.007 -1.2524  0.3541 -0.1398
  389MOL0     C53557   9.959   7.596  10.920 -0.0057 -0.0472  0.4401
  389MOL0     C53558   9.957   7.540  10.768  0.5437 -0.0160 -0.1324
  389MOL0     C53559  10.041   7.636  10.682 -0.0586  1.3657 -0.1520
  389MOL0     C53560  10.189   7.602  10.701 -0.2049  0.5902 -0.4180
  389MOL0     N53561  10.287   7.663  10.600  0.0929 -0.0517 -0.3606
  389MOL0     C53562  10.381   7.760  10.633  0.3352 -0.2908  0.1353
  389MOL0     C53563  10.475   7.753  10.542 -0.1495 -0.0009  0.4453
  389MOL0     C53564  10.592   7.835  10.538 -0.4750  0.4426  0.2670
  389MOL0     C53565  10.566   7.984  10.588 -0.4681 -1.2228 -0.6723
  389MOL0     C53566  10.483   8.066  10.483  0.1813 -0.1517  0.1295
  389MOL0     C53567  10.478   8.213  10.533  0.4111 -0.4913 -0.7733
  389MOL0     O53568  10.403   8.296  10.444  1.2033  0.6080 -0.1706
  389MOL0     C53569  10.449   8.425  10.435 -0.0622 -0.1114 -0.1913
  389MOL0     C53570  10.455   8.475  10.308 -0.5392  0.3983  0.1642
  389MOL0     C53571  10.503   8.608  10.281  0.6467  0.5318  0.2301
  389MOL0     C53572  10.515   8.652  10.144 -0.3002  0.2668 -0.0092
  389MOL0     C53573  10.542   8.692  10.387  0.7190  0.1543  0.7923
  389MOL0     C53574  10.589   8.834  10.377 -0.6552 -0.6172 -0.7914
  389MOL0     O53575  10.667   8.869  10.486  0.1014 -0.7145  0.4996
  389MOL0     C53576  10.659   8.996  10.536 -0.5602 -0.4227 -0.5895
  389MOL0     C53577  10.546   9.057  10.579 -0.1364  0.3692 -0.4046
  389MOL0     C53578  10.552   9.200  10.624  0.7952 -0.4495 -0.2509
  389MOL0     C53579  10.678   9.269  10.624  0.9160  0.2729 -0.1764
  389MOL0     O53580  10.685   9.402  10.662 -0.7313 -0.7701  0.2854
  389MOL0     C53581  10.582   9.450  10.748  0.1908 -1.0088  1.0729
  389MOL0     C53582  10.617   9.580  10.817  0.5445  0.4796 -0.0083
  389MOL0     C53583  10.489   9.625  10.885 -0.5265  0.0395 -0.1631
  389MOL0     C53584  10.524   9.760  10.957 -0.4921 -1.1804  0.3584
  389MOL0     C53585  10.399   9.841  10.980 -0.3970 -0.1413 -0.5189
  389MOL0     C53586  10.446   9.974  11.041 -0.7268  0.3917  0.2897
  389MOL0     C53587  10.512   9.961  11.179  0.2347  0.0504 -0.0835
  389MOL0     C53588  10.527  10.101  11.252  0.1260  0.3511  0.0947
  389MOL0    Cl53589  10.604  10.053  11.408 -0.5159  0.0878  0.0175
  389MOL0     C53590  10.788   9.203  10.572 -0.3903  0.1888 -0.0750
  389MOL0     C53591  10.780   9.065  10.538  0.0768 -0.2844  0.5101
  389MOL0     O53592  10.565   8.902  10.278  0.3172  0.2952 -0.2727
  389MOL0     C53593  10.528   8.643  10.514  0.3302 -0.4878  0.8592
  389MOL0     C53594  10.478   8.513  10.543  0.2535 -0.2947 -0.0055
  389MOL0     N53595  10.432   7.667  10.447 -0.8195 -0.1106  0.5266
  389MOL0     N53596  10.331   7.608  10.483  0.6331 -0.0952  0.0163
  389MOL0     C53597   9.935   6.996  11.238 -0.5383 -0.7055 -0.5518
  389MOL0     C53598   9.966   6.869  11.278  0.6061  0.4736  0.7442
  389MOL0     C53599   9.905   6.409  11.275 -0.5536  0.3361 -0.0461
  389MOL0     C53600  10.040   6.397  11.323  0.4803 -0.9561  0.1782
  389MOL0     C53601  10.104   6.269  11.329 -0.5889 -0.0679  0.3394
  389MOL0     C53602  10.042   6.154  11.283  0.6595 -0.7076 -0.0231
  389MOL0     O53603  10.108   6.042  11.294  0.4710  0.1475 -0.3536
  389MOL0     C53604  10.074   5.931  11.215 -0.2591  0.9000  0.3264
  389MOL0     C53605  10.193   5.847  11.174 -0.2835  0.0217  0.3354
  389MOL0     C53606  10.264   5.766  11.290 -0.2885 -0.3583 -0.1584
  389MOL0     C53607  10.383   5.676  11.252 -1.0633  0.6969  0.4346
  389MOL0     C53608  10.497   5.756  11.204  0.9014  0.3744  0.2332
  389MOL0     C53609  10.595   5.820  11.161  0.2255  0.7573  0.3514
  389MOL0     C53610   9.907   6.158  11.249  0.4476 -0.2489  0.2358
  389MOL0     C53611   9.843   6.287  11.234 -0.5215 -0.1762  0.8449
  389MOL0     C53612   9.704   6.287  11.168  0.1851 -0.1551  0.9182
  389MOL0     H53613   9.647   6.757  11.326  0.7151 -0.9796 -0.1666
  389MOL0     H53614   9.609   7.011  11.269 -1.8094 -1.9772 -2.9022
  389MOL0     H53615   9.643   7.141  11.063 -0.1800  0.8795  1.8436
  389MOL0     H53616   9.812   7.149  11.001  1.6386  0.6258 -0.0237
  389MOL0     H53617   9.688   7.354  10.930 -0.7782 -1.3831  0.3922
  389MOL0     H53618   9.650   7.371  11.101  0.5168 -1.4333  1.3007
  389MOL0     H53619   9.880   7.404  11.164 -0.1549 -1.8968  0.7783
  389MOL0     H53620   9.936   7.354  11.015 -1.0852 -1.1923 -1.9386
  389MOL0     H53621   9.760   7.594  10.955 -0.7215  0.5442 -0.9578
  389MOL0     H53622   9.866   7.627  11.091  0.0495 -2.4952  2.0657
  389MOL0     H53623  10.052   7.565  10.968 -1.4896  0.5254  4.0091
  389MOL0     H53624   9.963   7.706  10.919  3.0398 -0.0125  2.5245
  389MOL0     H53625   9.981   7.433  10.764 -2.0238 -0.6960  1.0000
  389MOL0     H53626   9.853   7.550  10.735  0.8397  3.4430 -0.3382
  389MOL0     H53627  10.036   7.743  10.705  0.1821  1.0384  1.6478
  389MOL0     H53628  10.010   7.637  10.578  0.5092 -0.1008 -0.3615
  389MOL0     H53629  10.224   7.636  10.799 -0.7785  1.2897 -0.4442
  389MOL0     H53630  10.210   7.495  10.691  2.1955  0.8532  1.0085
  389MOL0     H53631  10.385   7.820  10.724 -1.2449 -2.7371  1.9681
  389MOL0     H53632  10.645   7.822  10.443 -0.8199 -0.5364  0.1978
  389MOL0     H53633  10.665   7.793  10.608 -0.4627  0.8868  0.5296
  389MOL0     H53634  10.507   7.983  10.680 -1.0537 -1.9413 -1.0504
  389MOL0     H53635  10.667   8.022  10.607 -1.3859  1.0289  0.1012
  389MOL0     H53636  10.529   8.057  10.384  0.6568  1.0869  0.2251
  389MOL0     H53637  10.380   8.028  10.484 -1.1010  3.0163 -0.0105
  389MOL0     H53638  10.426   8.211  10.629  1.0611  0.8013 -0.3719
  389MOL0     H53639  10.581   8.241  10.558  1.3866 -3.2608 -1.3945
  389MOL0     H53640  10.428   8.403  10.231  0.2228 -2.0718  2.0757
  389MOL0     H53641  10.468   8.750  10.127  1.1818  0.9598 -0.3067
  389MOL0     H53642  10.450   8.586  10.086 -1.2578 -2.4896  3.7534
  389MOL0     H53643  10.617   8.655  10.106  1.4583  0.7504  4.2161
  389MOL0     H53644  10.447   9.013  10.577  0.7878 -1.9298  0.9195
  389MOL0     H53645  10.460   9.251  10.651  0.7842 -1.1687  1.1706
  389MOL0     H53646  10.492   9.465  10.687  0.1896 -0.6879  1.1521
  389MOL0     H53647  10.566   9.371  10.822  1.7017 -1.3128  1.1042
  389MOL0     H53648  10.689   9.556  10.897  0.5519 -0.8685 -0.3861
  389MOL0     H53649  10.665   9.651  10.750  0.6793  1.6317  1.2516
  389MOL0     H53650  10.448   9.551  10.955 -2.0258  1.3783  0.4279
  389MOL0     H53651  10.418   9.636  10.803  1.1724 -3.8642 -2.4687
  389MOL0     H53652  10.600   9.826  10.915  0.8140 -1.2751  2.4414
  389MOL0     H53653  10.569   9.738  11.054  2.2471  0.0275 -0.5290
  389MOL0     H53654  10.368   9.856  10.876 -0.1091  0.0363 -0.5784
  389MOL0     H53655  10.323   9.775  11.023 -0.2614 -0.0794 -0.1864
  389MOL0     H53656  10.363  10.046  11.040 -0.9370  0.2967  2.8736
  389MOL0     H53657  10.519  10.020  10.974 -1.3100  0.6797 -0.1584
  389MOL0     H53658  10.605   9.902  11.179  2.6745  3.5414  1.6002
  389MOL0     H53659  10.444   9.904  11.244  2.3084 -0.3120  1.9061
  389MOL0     H53660  10.432  10.149  11.276  1.9372  2.8425  2.9934
  389MOL0     H53661  10.591  10.168  11.193  1.3149  0.4141  1.4081
  389MOL0     H53662  10.882   9.255  10.555  1.3770 -2.9333 -0.7219
  389MOL0     H53663  10.864   9.006  10.502 -2.3790 -4.1055  0.4695
  389MOL0     H53664  10.554   8.697  10.605  2.1606  1.9993 -0.9709
  389MOL0     H53665  10.470   8.486  10.648 -0.9585  0.0034 -0.0045
  389MOL0     H53666  10.018   7.055  11.200 -0.9363  1.6736  1.9880
  389MOL0     H53667  10.067   6.828  11.276 -0.0671 -1.4706  2.8663
  389MOL0     H53668  10.085   6.475  11.383  0.3810 -2.3582  2.1904
  389MOL0     H53669  10.202   6.256  11.374 -1.1277 -0.6586  1.3836
  389MOL0     H53670  10.015   5.864  11.277 -0.6734  1.4965  0.5859
  389MOL0     H53671  10.012   5.948  11.126 -1.4096 -1.0621  0.7017
  389MOL0     H53672  10.275   5.904  11.128  0.4217 -2.0071 -1.0105
  389MOL0     H53673  10.162   5.772  11.102  1.5603 -0.8150  0.3641
  389MOL0     H53674  10.296   5.837  11.366 -0.7594 -0.0344 -0.2588
  389MOL0     H53675  10.182   5.707  11.331  1.3354 -2.4552  0.1993
  389MOL0     H53676  10.352   5.596  11.184 -0.9693  0.4187  0.7162
  389MOL0     H53677  10.403   5.620  11.343 -3.3746  0.0962  0.6162
  389MOL0     H53678  10.673   5.877  11.116  0.0508  0.8796  0.2009
  389MOL0     H53679   9.854   6.066  11.229  2.6820 -1.3750 -0.8735
  389MOL0     H53680   9.631   6.335  11.234 -3.1760  1.0166 -3.2322
  389MOL0     H53681   9.686   6.338  11.073 -0.9528  0.6705  1.5464
  389MOL0     H53682   9.680   6.182  11.146 -2.5677 -0.2128  3.4476
  390MOL0     O53683   0.771   2.834   5.132 -0.4821 -0.5918 -0.4526
  390MOL0     C53684   0.785   2.894   5.027 -0.1366  0.8798 -0.1483
  390MOL0     O53685   0.792   2.828   4.900 -0.0693 -0.0517 -0.0121
  390MOL0     C53686   0.790   2.692   4.906 -0.0740  0.1327  0.1644
  390MOL0     C53687   0.711   2.638   4.806 -0.2461  0.3969  0.1652
  390MOL0     C53688   0.709   2.493   4.792 -0.3962 -0.5791  1.1981
  390MOL0     C53689   0.787   2.406   4.878  0.1704  0.3054  0.6001
  390MOL0     O53690   0.788   2.271   4.876  0.3527 -0.0868 -0.6310
  390MOL0     C53691   0.805   2.199   4.748 -0.9251  0.0750 -0.4910
  390MOL0     C53692   0.804   2.042   4.775 -0.2663  0.4684  0.3760
  390MOL0     C53693   0.680   1.986   4.856 -0.2363 -0.2142  1.0058
  390MOL0     C53694   0.705   1.998   5.007 -0.2489 -0.1066  0.2981
  390MOL0     C53695   0.630   1.894   5.085  0.0554 -0.5511  0.0636
  390MOL0     C53696   0.670   1.901   5.228 -0.3539 -0.5393 -0.1268
  390MOL0     C53697   0.782   1.801   5.277  0.8099 -0.9009 -0.1774
  390MOL0     C53698   0.820   1.841   5.424 -0.6949 -0.4268  0.0162
  390MOL0     N53699   0.721   1.796   5.521  0.4927 -0.0599 -0.0619
  390MOL0     C53700   0.688   1.859   5.635 -0.0558  0.0421  0.0661
  390MOL0     C53701   0.619   1.773   5.714 -0.1739  0.4082  0.4432
  390MOL0     C53702   0.579   1.773   5.856 -0.4266 -0.8561 -0.7352
  390MOL0     C53703   0.504   1.904   5.883  0.5742 -0.1521  0.8009
  390MOL0     C53704   0.454   1.888   6.031  0.0383  0.6233 -0.4200
  390MOL0     C53705   0.324   1.978   6.051 -0.4811 -0.0700  0.8070
  390MOL0     O53706   0.215   1.927   5.971 -0.5889 -0.0947 -0.5235
  390MOL0     C53707   0.091   1.932   6.032 -1.4143  0.5882  0.2284
  390MOL0     C53708   0.028   2.043   6.072  0.2489  0.8368 -0.0622
  390MOL0     C53709  -0.101   2.039   6.134  0.5791  0.3369 -0.9183
  390MOL0     C53710  -0.164   2.176   6.150 -0.4514  0.1434 -0.6669
  390MOL0     C53711  -0.159   1.904   6.163 -0.1280 -0.2237  0.0362
  390MOL0     C53712  -0.303   1.881   6.210 -0.2386 -0.1926  0.0550
  390MOL0     O53713  -0.351   1.759   6.198 -0.9048  0.2064 -0.1441
  390MOL0     C53714  -0.483   1.737   6.207 -0.4045  0.0657 -0.5738
  390MOL0     C53715  -0.526   1.687   6.329  0.1960  0.9359 -0.5851
  390MOL0     C53716  -0.665   1.671   6.347  0.1775 -0.1430 -0.4968
  390MOL0     C53717  -0.754   1.692   6.246  1.0535  0.5826 -0.0639
  390MOL0     O53718  -0.885   1.680   6.284 -0.2380 -0.1310 -0.6459
  390MOL0     C53719  -0.983   1.701   6.179 -0.6295 -0.1447  0.0204
  390MOL0     C53720  -1.102   1.776   6.235  0.8087 -0.1402  0.1270
  390MOL0     C53721  -1.173   1.698   6.340 -0.6166 -0.3798 -0.1842
  390MOL0     C53722  -1.306   1.767   6.371 -0.1580  0.9793 -0.4597
  390MOL0     C53723  -1.358   1.737   6.512  0.1441  0.7877  0.1782
  390MOL0     C53724  -1.432   1.863   6.560  0.3306  0.0629  0.2471
  390MOL0     C53725  -1.478   1.830   6.708 -0.3994  0.9103  0.8757
  390MOL0     C53726  -1.539   1.947   6.777 -0.5416 -0.8161 -0.6743
  390MOL0    Cl53727  -1.527   2.113   6.698 -0.3463  0.5223 -0.3647
  390MOL0     C53728  -0.705   1.718   6.110  0.1929 -1.0142 -0.5751
  390MOL0     C53729  -0.562   1.722   6.097  0.3793  0.3515  0.3238
  390MOL0     O53730  -0.371   1.983   6.225  0.3356  0.7438  0.0611
  390MOL0     C53731  -0.090   1.792   6.109 -0.6134  0.4175  0.0379
  390MOL0     C53732   0.032   1.809   6.043  0.3681  0.2196 -0.5222
  390MOL0     N53733   0.607   1.658   5.641 -0.0104 -0.4915 -0.4759
  390MOL0     N53734   0.651   1.673   5.518  0.0610 -0.5243  0.3090
  390MOL0     C53735   0.878   2.469   4.966 -0.2032 -0.4026  0.7270
  390MOL0     C53736   0.871   2.612   4.985  0.5740  0.1273  1.1223
  390MOL0     C53737   0.776   3.046   5.019  0.7549  0.2184  0.6385
  390MOL0     C53738   0.739   3.106   4.897 -0.4045 -0.1341  0.1916
  390MOL0     C53739   0.724   3.240   4.882 -0.1042 -0.3985 -0.2028
  390MOL0     C53740   0.713   3.320   4.992  0.6300 -0.3333 -0.0958
  390MOL0     O53741   0.675   3.442   4.970  0.2489 -0.8019 -0.1966
  390MOL0     C53742   0.681   3.538   5.082  1.1577  0.8685 -0.5412
  390MOL0     C53743   0.590   3.656   5.034 -0.4532 -0.0190 -0.1837
  390MOL0     C53744   0.442   3.617   5.027  1.2527  0.0256  0.1715
  390MOL0     C53745   0.359   3.749   4.993 -0.4168  0.1756  0.7388
  390MOL0     C53746   0.215   3.720   4.971 -0.7223 -0.0907  0.3392
  390MOL0     C53747   0.094   3.709   4.942 -0.1078  0.2219 -0.2211
  390MOL0     C53748   0.751   3.265   5.112  0.5868  0.7402 -0.8623
  390MOL0     C53749   0.767   3.124   5.135 -0.3052 -0.8567 -0.0544
  390MOL0     C53750   0.787   3.083   5.286 -0.2730  0.3888  2.1669
  390MOL0     H53751   0.640   2.690   4.743 -2.5195  0.4927  2.5932
  390MOL0     H53752   0.653   2.446   4.712  1.8478 -1.6089  0.1571
  390MOL0     H53753   0.893   2.238   4.698 -0.8169 -0.4204 -0.6968
  390MOL0     H53754   0.713   2.220   4.693 -1.3646 -0.1753  0.1256
  390MOL0     H53755   0.811   1.990   4.678 -2.4946  1.2738 -0.2809
  390MOL0     H53756   0.893   2.032   4.838 -0.8943  3.4205  1.9267
  390MOL0     H53757   0.591   2.044   4.828  1.6759  2.7023  0.5150
  390MOL0     H53758   0.664   1.883   4.823  2.8789 -0.5425  0.2241
  390MOL0     H53759   0.813   1.986   5.017 -0.1696  0.1173 -0.2368
  390MOL0     H53760   0.670   2.094   5.045  1.4360  0.0425  1.5821
  390MOL0     H53761   0.668   1.796   5.057 -1.0470 -1.8227  2.6403
  390MOL0     H53762   0.526   1.915   5.060  0.4701  0.3696 -0.9572
  390MOL0     H53763   0.688   2.004   5.261 -0.1294 -0.8006  0.5846
  390MOL0     H53764   0.582   1.874   5.288  0.0159  1.8378  1.6500
  390MOL0     H53765   0.869   1.813   5.211 -0.7904 -2.6236 -2.8136
  390MOL0     H53766   0.761   1.694   5.280 -1.2612 -0.5462 -0.3976
  390MOL0     H53767   0.912   1.789   5.453 -1.7881 -2.9136 -0.6697
  390MOL0     H53768   0.821   1.949   5.440 -1.1655 -0.7960  2.9765
  390MOL0     H53769   0.725   1.955   5.670  0.1212 -0.4170  1.1806
  390MOL0     H53770   0.661   1.760   5.928 -1.5481 -1.3918  0.4933
  390MOL0     H53771   0.518   1.684   5.874 -2.2057  0.6171  0.9464
  390MOL0     H53772   0.571   1.990   5.887 -2.2933  2.3193 -0.7267
  390MOL0     H53773   0.422   1.937   5.820  0.5443  1.1752  1.5136
  390MOL0     H53774   0.426   1.783   6.047  0.6780  0.6430  0.9910
  390MOL0     H53775   0.531   1.893   6.109  0.7393 -0.6273 -1.0161
  390MOL0     H53776   0.305   1.985   6.159  0.5003  2.2579  0.8893
  390MOL0     H53777   0.347   2.082   6.026  2.8069 -0.5635  1.3225
  390MOL0     H53778   0.066   2.144   6.062 -0.5901  0.9500 -2.8245
  390MOL0     H53779  -0.098   2.253   6.109 -1.3230  0.3512 -1.7157
  390MOL0     H53780  -0.200   2.191   6.252 -2.6668  0.9560 -1.5102
  390MOL0     H53781  -0.251   2.163   6.086 -1.4027 -0.1962  0.6487
  390MOL0     H53782  -0.454   1.686   6.410  0.2923  2.0861 -0.6379
  390MOL0     H53783  -0.692   1.647   6.450  0.4299 -2.0757 -0.8358
  390MOL0     H53784  -0.954   1.761   6.092 -0.3367  0.1312  0.3080
  390MOL0     H53785  -1.014   1.601   6.147 -1.6839 -0.3467  1.5615
  390MOL0     H53786  -1.090   1.880   6.263 -2.1486 -0.2570  2.2297
  390MOL0     H53787  -1.175   1.791   6.154  1.7505  0.7059 -0.5888
  390MOL0     H53788  -1.114   1.691   6.432  0.4104 -2.8301 -0.9326
  390MOL0     H53789  -1.200   1.599   6.303 -0.8379 -0.7746  0.9834
  390MOL0     H53790  -1.389   1.738   6.307 -1.5239  0.3594  1.5248
  390MOL0     H53791  -1.277   1.873   6.365  0.5499  1.0665  2.6725
  390MOL0     H53792  -1.424   1.650   6.517  1.0268  0.1787  2.8244
  390MOL0     H53793  -1.270   1.721   6.576 -0.1622  1.2337  0.7241
  390MOL0     H53794  -1.519   1.885   6.497  1.9471 -1.2407 -2.6630
  390MOL0     H53795  -1.364   1.946   6.543 -1.9984  2.1991  0.8691
  390MOL0     H53796  -1.389   1.798   6.763 -1.6744 -3.0973  0.9285
  390MOL0     H53797  -1.537   1.738   6.715  6.1490 -4.1337  0.3081
  390MOL0     H53798  -1.522   1.944   6.885  0.8720 -3.0786 -0.8936
  390MOL0     H53799  -1.644   1.917   6.765 -1.0403  0.5487  0.0957
  390MOL0     H53800  -0.771   1.731   6.024 -1.8884  0.8094  1.1775
  390MOL0     H53801  -0.517   1.740   6.000 -0.0853  0.2158  0.0800
  390MOL0     H53802  -0.127   1.692   6.130 -0.3823  0.5831  1.3106
  390MOL0     H53803   0.088   1.718   6.027 -0.3621 -0.5734  1.1276
  390MOL0     H53804   0.953   2.404   5.010 -1.1595 -1.3155  1.0671
  390MOL0     H53805   0.941   2.659   5.053  0.5031  0.0608  1.2412
  390MOL0     H53806   0.736   3.049   4.805 -1.5389 -1.0530  0.7655
  390MOL0     H53807   0.706   3.294   4.789  0.4985 -3.0219 -1.9637
  390MOL0     H53808   0.622   3.512   5.170  1.4584  0.8388 -0.3481
  390MOL0     H53809   0.782   3.571   5.110  1.7462 -0.1035 -1.4272
  390MOL0     H53810   0.624   3.664   4.930  1.7890 -1.2138  0.3738
  390MOL0     H53811   0.610   3.748   5.090 -2.0914  0.0289  0.3441
  390MOL0     H53812   0.419   3.553   4.942 -0.8638  0.2177  0.5330
  390MOL0     H53813   0.412   3.558   5.115  0.0560 -2.4448 -1.7649
  390MOL0     H53814   0.397   3.793   4.900 -0.9724  0.2864  0.5600
  390MOL0     H53815   0.381   3.819   5.074  3.0057 -1.0252  1.0344
  390MOL0     H53816  -0.004   3.695   4.901  0.3781  0.4971 -1.5279
  390MOL0     H53817   0.770   3.328   5.197  2.6161  1.8962 -2.1126
  390MOL0     H53818   0.831   3.159   5.352 -0.1022  1.0095  1.3540
  390MOL0     H53819   0.687   3.068   5.327 -0.3386  1.2770  2.3538
  390MOL0     H53820   0.856   2.998   5.286 -0.6754 -0.1225 -1.9853
  391MOL0     O53821   3.489   2.827   5.145 -0.6746 -0.1512  0.0716
  391MOL0     C53822   3.584   2.855   5.074  0.3781  0.8329  0.4449
  391MOL0     O53823   3.581   2.957   4.990  0.5374  0.2119 -0.0656
  391MOL0     C53824   3.469   3.037   4.993 -0.1131  0.2320 -0.9828
  391MOL0     C53825   3.346   3.007   4.933 -1.6697  0.2308  0.2098
  391MOL0     C53826   3.236   3.093   4.956 -0.2944  1.1383  0.1767
  391MOL0     C53827   3.248   3.217   5.010  1.1563 -1.0249  0.1211
  391MOL0     O53828   3.139   3.299   5.023  0.5241 -0.9330  0.2696
  391MOL0     C53829   3.137   3.439   5.069  0.0346 -0.1520 -0.4486
  391MOL0     C53830   2.986   3.473   5.075 -0.3188  0.1232 -0.3780
  391MOL0     C53831   2.973   3.629   5.077 -0.4359 -0.5001  0.2339
  391MOL0     C53832   2.819   3.680   5.115 -1.5465  0.7711  0.8889
  391MOL0     C53833   2.818   3.833   5.122 -0.4009 -0.1846 -0.9144
  391MOL0     C53834   2.685   3.890   5.149  0.0919 -0.0577  0.7672
  391MOL0     C53835   2.673   4.045   5.151 -0.2741 -0.2565 -1.2118
  391MOL0     C53836   2.747   4.111   5.265 -0.2586 -0.1203  0.2383
  391MOL0     N53837   2.734   4.256   5.254 -0.2592  0.4434 -0.5922
  391MOL0     C53838   2.671   4.332   5.355 -0.1587  0.2262 -0.6417
  391MOL0     C53839   2.675   4.452   5.300 -1.0422 -0.3225 -0.3013
  391MOL0     C53840   2.621   4.582   5.361 -0.9409  0.2716 -0.3211
  391MOL0     C53841   2.513   4.558   5.461  0.2277  0.1707  0.4612
  391MOL0     C53842   2.455   4.689   5.506 -0.4555 -0.1073 -0.4110
  391MOL0     C53843   2.331   4.678   5.607  1.3306 -0.0351 -0.0083
  391MOL0     O53844   2.371   4.626   5.731  0.0897  0.0018 -0.7123
  391MOL0     C53845   2.428   4.707   5.833 -0.2845  0.3541  0.5127
  391MOL0     C53846   2.474   4.675   5.957  1.3370 -0.8590 -0.4592
  391MOL0     C53847   2.540   4.761   6.053  0.2378  0.0450  0.5391
  391MOL0     C53848   2.574   4.707   6.194 -0.1366  0.2993 -0.6983
  391MOL0     C53849   2.574   4.892   6.011  0.2266 -0.0229  0.2744
  391MOL0     C53850   2.639   4.992   6.094 -0.2897  1.3893  0.6661
  391MOL0     O53851   2.714   5.089   6.034  0.6120  0.3006  0.6586
  391MOL0     C53852   2.755   5.202   6.107  0.4099 -0.3914  0.1055
  391MOL0     C53853   2.886   5.234   6.138 -1.3554  0.2298  0.5992
  391MOL0     C53854   2.925   5.349   6.205 -0.4589  0.2123  0.9828
  391MOL0     C53855   2.820   5.422   6.252 -0.5540  0.6769  0.7494
  391MOL0     O53856   2.848   5.540   6.318  0.3494 -0.1932  0.3467
  391MOL0     C53857   2.878   5.649   6.220 -0.7650  0.0520 -0.0431
  391MOL0     C53858   2.843   5.780   6.284 -0.1715 -0.3678 -0.1917
  391MOL0     C53859   2.878   5.802   6.435  0.3567  0.2625 -0.6374
  391MOL0     C53860   2.764   5.874   6.505 -0.4995  0.1369  0.0727
  391MOL0     C53861   2.804   5.925   6.639 -0.5551 -0.0862  0.2973
  391MOL0     C53862   2.683   5.975   6.718 -0.4958  0.0790 -0.5619
  391MOL0     C53863   2.724   6.027   6.866 -0.6444 -0.3761  0.7126
  391MOL0     C53864   2.619   6.116   6.928  0.3953  0.5308  0.7560
  391MOL0    Cl53865   2.473   6.031   6.969  0.4344  0.1192 -0.3280
  391MOL0     C53866   2.688   5.389   6.222 -0.1357 -0.3506  0.2858
  391MOL0     C53867   2.655   5.290   6.137  0.7283 -0.3236  0.6803
  391MOL0     O53868   2.618   4.982   6.212 -0.2076  0.7850  0.1020
  391MOL0     C53869   2.527   4.927   5.882  0.1054 -0.0283  0.2558
  391MOL0     C53870   2.447   4.845   5.807 -0.4971  1.7171  0.9565
  391MOL0     N53871   2.750   4.455   5.188 -0.3523  0.2781  0.9692
  391MOL0     N53872   2.780   4.330   5.154 -0.0295  0.2026 -0.0761
  391MOL0     C53873   3.377   3.271   5.047  0.5022  0.3012  0.0062
  391MOL0     C53874   3.481   3.170   5.041  0.8819 -0.7121 -0.3175
  391MOL0     C53875   3.699   2.768   5.067  1.4968  0.4994  0.7903
  391MOL0     C53876   3.678   2.644   5.128 -0.5249  0.4764  0.8879
  391MOL0     C53877   3.790   2.563   5.153 -0.4408  1.1072  0.1288
  391MOL0     C53878   3.920   2.590   5.098  1.1454 -1.6707  0.1277
  391MOL0     O53879   4.030   2.509   5.127  0.2641  0.3674  0.4387
  391MOL0     C53880   4.105   2.460   5.017  0.6134  0.3603 -0.1211
  391MOL0     C53881   4.032   2.357   4.925 -0.5438 -0.7352  0.0806
  391MOL0     C53882   3.954   2.246   5.009 -0.7629  0.2299  0.1808
  391MOL0     C53883   3.877   2.125   4.936  0.2885 -0.4750 -0.2160
  391MOL0     C53884   3.783   2.181   4.836 -0.9056 -0.1247 -0.3138
  391MOL0     C53885   3.707   2.217   4.746  0.2442 -0.5648 -0.2135
  391MOL0     C53886   3.937   2.712   5.032 -0.0959 -0.2985 -0.3789
  391MOL0     C53887   3.827   2.804   5.016 -0.1642  0.0004  0.0537
  391MOL0     C53888   3.853   2.937   4.943 -0.3672  0.4648 -0.8655
  391MOL0     H53889   3.322   2.914   4.883  3.6688 -0.1810 -2.3051
  391MOL0     H53890   3.142   3.050   4.924  1.8462 -3.4302 -0.8863
  391MOL0     H53891   3.184   3.513   5.004  2.2258  1.1342  2.3865
  391MOL0     H53892   3.189   3.440   5.165 -3.2359 -0.4687  1.4585
  391MOL0     H53893   2.929   3.420   4.999 -1.6990  0.9502  0.0478
  391MOL0     H53894   2.942   3.445   5.171  1.6109  0.2547  0.5877
  391MOL0     H53895   3.043   3.665   5.153 -0.9887 -1.6914  1.3448
  391MOL0     H53896   3.003   3.677   4.983 -1.2171  4.8796  2.4014
  391MOL0     H53897   2.760   3.652   5.027 -2.2852  3.7238  0.3503
  391MOL0     H53898   2.795   3.640   5.214  1.9932 -0.9816  1.2066
  391MOL0     H53899   2.851   3.876   5.027 -0.7236  0.2718 -0.8265
  391MOL0     H53900   2.879   3.867   5.206 -1.1590  1.6878 -1.0674
  391MOL0     H53901   2.621   3.858   5.066 -0.0308  1.6287  0.1725
  391MOL0     H53902   2.649   3.862   5.249 -0.0456  0.2732  0.8124
  391MOL0     H53903   2.568   4.075   5.155 -0.0972  0.3492  2.5573
  391MOL0     H53904   2.706   4.080   5.052 -1.3707  1.1998 -1.0968
  391MOL0     H53905   2.703   4.087   5.362 -4.3438  1.4949 -0.9916
  391MOL0     H53906   2.855   4.096   5.262 -0.4354 -1.4954 -0.1440
  391MOL0     H53907   2.631   4.303   5.451 -2.4414 -0.9428 -1.8564
  391MOL0     H53908   2.580   4.656   5.291  0.8284  2.0506  0.4316
  391MOL0     H53909   2.696   4.630   5.424 -3.6666  3.5656  0.7205
  391MOL0     H53910   2.431   4.503   5.414 -0.2409  3.3669 -2.9250
  391MOL0     H53911   2.557   4.498   5.542  3.0567  1.7167  0.2012
  391MOL0     H53912   2.540   4.738   5.554 -0.0541  0.1206 -1.3317
  391MOL0     H53913   2.412   4.740   5.419 -1.8160 -0.4447  0.0397
  391MOL0     H53914   2.279   4.772   5.628 -3.0801 -1.5060 -2.8946
  391MOL0     H53915   2.254   4.610   5.570  0.5142 -0.0224  1.5525
  391MOL0     H53916   2.459   4.571   5.986 -1.5694 -0.7177 -1.1124
  391MOL0     H53917   2.586   4.599   6.201  0.1469  0.3764  0.1233
  391MOL0     H53918   2.502   4.739   6.270 -0.0087 -0.6061 -0.1755
  391MOL0     H53919   2.675   4.742   6.219  0.0443  0.4530 -1.6005
  391MOL0     H53920   2.952   5.150   6.120 -1.2757 -0.4870  3.6819
  391MOL0     H53921   3.028   5.366   6.234 -0.3952  0.3287  0.6960
  391MOL0     H53922   2.984   5.643   6.195 -0.7968 -2.2005  0.0775
  391MOL0     H53923   2.811   5.638   6.134 -0.5309  0.2433 -0.2492
  391MOL0     H53924   2.908   5.858   6.243 -1.1875 -0.3793 -1.8653
  391MOL0     H53925   2.739   5.808   6.267  0.5352  2.9358  0.1913
  391MOL0     H53926   2.970   5.860   6.451 -0.5667  1.4826  0.3975
  391MOL0     H53927   2.892   5.699   6.470 -0.7453 -0.7147 -2.8572
  391MOL0     H53928   2.688   5.795   6.514  0.0081 -0.1849  2.1861
  391MOL0     H53929   2.726   5.962   6.453 -2.0676 -0.3242  0.3623
  391MOL0     H53930   2.860   5.853   6.700 -0.2291 -1.5163 -1.6160
  391MOL0     H53931   2.863   6.015   6.626 -0.8575  0.3486  1.7446
  391MOL0     H53932   2.629   5.883   6.740 -0.0096  0.4774  3.0177
  391MOL0     H53933   2.628   6.052   6.663 -1.9001  0.1984  0.9282
  391MOL0     H53934   2.825   6.069   6.865  0.3952 -2.6994 -1.5199
  391MOL0     H53935   2.733   5.937   6.927  0.0900 -3.4567 -3.5443
  391MOL0     H53936   2.601   6.187   6.848 -1.4024 -0.6396  0.0696
  391MOL0     H53937   2.671   6.160   7.014  1.0900 -1.3453  1.3619
  391MOL0     H53938   2.604   5.444   6.265  2.2030  2.9221  1.0682
  391MOL0     H53939   2.551   5.260   6.136  0.2472  1.2385 -0.6760
  391MOL0     H53940   2.553   5.028   5.851 -1.0119  0.8572  2.0448
  391MOL0     H53941   2.402   4.900   5.724 -0.7047  2.5130  1.5852
  391MOL0     H53942   3.399   3.369   5.089  0.0708 -0.2835  1.6933
  391MOL0     H53943   3.577   3.214   5.066  0.4715 -0.4555  0.8603
  391MOL0     H53944   3.580   2.616   5.166 -0.8580  0.7706  0.2621
  391MOL0     H53945   3.786   2.475   5.217 -1.0281  0.6453 -0.5198
  391MOL0     H53946   4.128   2.544   4.951 -1.2506  0.9157 -0.1450
  391MOL0     H53947   4.199   2.420   5.056  0.8035 -0.5542 -1.4435
  391MOL0     H53948   4.108   2.312   4.860  0.4241  0.9621 -0.0131
  391MOL0     H53949   3.968   2.409   4.853  1.3946 -0.3987 -1.4931
  391MOL0     H53950   4.028   2.202   5.076  0.9183 -0.9166 -2.2711
  391MOL0     H53951   3.886   2.303   5.073 -1.9449 -0.9486  0.0176
  391MOL0     H53952   3.824   2.081   5.021  2.2537  0.6155  1.6640
  391MOL0     H53953   3.948   2.053   4.893 -0.2025 -1.8051  1.1039
  391MOL0     H53954   3.644   2.226   4.660  0.7858  1.9990 -0.4431
  391MOL0     H53955   4.034   2.734   4.988 -0.3544 -2.3014 -2.0882
  391MOL0     H53956   3.833   3.019   5.012  1.4714  2.4848 -2.5424
  391MOL0     H53957   3.961   2.947   4.926  0.5554 -1.0994  3.0317
  391MOL0     H53958   3.810   2.945   4.842  2.9272 -0.3403 -2.4901
  392MOL0     O53959   5.181   7.309   9.959 -0.4291  0.0934 -0.3187
  392MOL0     C53960   5.192   7.264   9.849  0.7077 -0.2521  0.6201
  392MOL0     O53961   5.196   7.342   9.736  0.0810 -0.2493 -0.7810
  392MOL0     C53962   5.153   7.478   9.740 -0.6780  0.3655  0.4760
  392MOL0     C53963   5.217   7.587   9.805 -0.1898  0.9025 -1.0152
  392MOL0     C53964   5.159   7.714   9.795 -0.0943 -0.6364 -0.4546
  392MOL0     C53965   5.048   7.737   9.712 -0.3463  0.3563 -0.4055
  392MOL0     O53966   5.019   7.873   9.676 -0.1703  0.6950  0.4191
  392MOL0     C53967   5.030   7.974   9.773  0.1704  0.9397  0.2046
  392MOL0     C53968   4.936   8.089   9.734  0.2856 -0.1697 -0.3917
  392MOL0     C53969   4.991   8.175   9.625  0.5715 -1.2068  0.2016
  392MOL0     C53970   4.897   8.293   9.594  0.6182  1.1471 -0.5636
  392MOL0     C53971   4.942   8.380   9.477 -0.8556  0.3441  0.3351
  392MOL0     C53972   4.823   8.458   9.419  0.1046 -0.2412 -0.3095
  392MOL0     C53973   4.834   8.490   9.268  0.2799 -0.1821  0.3053
  392MOL0     C53974   4.981   8.551   9.240 -0.4268 -0.2211 -0.0450
  392MOL0     N53975   4.981   8.610   9.105  0.3488 -0.0547 -1.2243
  392MOL0     C53976   4.976   8.742   9.067 -0.6770  0.1303  0.2495
  392MOL0     C53977   4.987   8.731   8.932  0.0017 -0.2466  0.5173
  392MOL0     C53978   5.003   8.844   8.838 -0.4258 -0.4877 -0.5246
  392MOL0     C53979   5.147   8.851   8.763 -0.7633  0.0592  0.0003
  392MOL0     C53980   5.156   8.959   8.657  0.3309  0.1795 -0.8623
  392MOL0     C53981   5.304   8.957   8.603  0.6197  2.1260 -1.4356
  392MOL0     O53982   5.343   8.848   8.522 -0.7799 -0.5573  0.2257
  392MOL0     C53983   5.283   8.815   8.403  0.0667  0.4982 -0.0646
  392MOL0     C53984   5.282   8.684   8.375 -1.2839  1.0725 -1.0477
  392MOL0     C53985   5.210   8.628   8.272 -1.0081 -0.3040  1.2581
  392MOL0     C53986   5.230   8.481   8.227 -0.1699 -0.6317 -0.6740
  392MOL0     C53987   5.124   8.717   8.206  0.3012 -0.1506 -0.3687
  392MOL0     C53988   5.035   8.671   8.094  0.0234 -0.5360 -0.5628
  392MOL0     O53989   4.984   8.555   8.111  0.1545 -0.0690  0.2915
  392MOL0     C53990   4.916   8.490   8.016 -0.0320  0.7429  0.4251
  392MOL0     C53991   4.935   8.507   7.875 -0.5069 -0.2318  0.0979
  392MOL0     C53992   4.870   8.423   7.789  0.4033  0.7112  0.0397
  392MOL0     C53993   4.776   8.327   7.832  0.6252 -0.1653  0.0401
  392MOL0     O53994   4.704   8.261   7.736 -0.2613  0.4245 -0.0566
  392MOL0     C53995   4.566   8.249   7.747  0.9688 -0.2270  0.0594
  392MOL0     C53996   4.490   8.379   7.720  0.1493 -0.3433  0.5268
  392MOL0     C53997   4.461   8.396   7.571 -0.2098 -0.4084  0.6023
  392MOL0     C53998   4.342   8.309   7.529  0.6770 -0.2339  0.9555
  392MOL0     C53999   4.309   8.292   7.374 -0.6090  0.1594  0.3942
  392MOL0     C54000   4.438   8.252   7.280  0.1644  0.7529  0.1597
  392MOL0     C54001   4.403   8.209   7.133 -0.0133 -1.3023 -0.7650
  392MOL0     C54002   4.523   8.228   7.041  0.1195  0.4117  0.0033
  392MOL0    Cl54003   4.483   8.184   6.860  0.0152  0.1941 -0.4808
  392MOL0     C54004   4.754   8.310   7.970  0.5502  0.4530  0.4522
  392MOL0     C54005   4.820   8.394   8.057 -0.3468  0.8743  0.0880
  392MOL0     O54006   5.008   8.758   8.012  0.0008 -0.2964  0.6950
  392MOL0     C54007   5.125   8.857   8.230 -0.3097  0.0114  0.3412
  392MOL0     C54008   5.213   8.903   8.327 -0.7913 -0.5952  0.0912
  392MOL0     N54009   4.985   8.596   8.886 -0.1780 -0.1401  0.6532
  392MOL0     N54010   4.973   8.530   8.994  0.0066  0.4958  1.0043
  392MOL0     C54011   5.001   7.631   9.633 -0.2324  1.2935 -0.3783
  392MOL0     C54012   5.046   7.499   9.651  0.2392  0.5624  0.5913
  392MOL0     C54013   5.205   7.121   9.833 -0.7384 -0.6637  0.2244
  392MOL0     C54014   5.250   7.045   9.947  0.3444  0.5724 -0.1666
  392MOL0     C54015   5.286   6.913   9.940  0.1815 -1.1004  0.0968
  392MOL0     C54016   5.287   6.851   9.811 -0.4675 -0.3571 -1.0548
  392MOL0     O54017   5.347   6.730   9.787 -0.5472  0.6049  0.3098
  392MOL0     C54018   5.422   6.657   9.894  0.7015  1.4434 -0.4492
  392MOL0     C54019   5.574   6.697   9.894  0.3501 -0.1319  0.3816
  392MOL0     C54020   5.635   6.693   9.753  0.7605  0.4620  0.4117
  392MOL0     C54021   5.732   6.805   9.726 -0.1048  0.2936  0.7559
  392MOL0     C54022   5.669   6.936   9.736 -0.1951 -0.3341  0.3809
  392MOL0     C54023   5.631   7.048   9.724 -0.0012  0.2366 -0.0008
  392MOL0     C54024   5.235   6.916   9.706 -0.0222  0.0646 -0.1247
  392MOL0     C54025   5.192   7.048   9.709  0.3821  1.1425 -0.3592
  392MOL0     C54026   5.127   7.119   9.590  0.0703  0.1461 -0.4635
  392MOL0     H54027   5.304   7.566   9.866  0.0381 -0.1445 -1.6763
  392MOL0     H54028   5.216   7.793   9.843 -0.6685 -0.1760 -0.5267
  392MOL0     H54029   5.135   8.004   9.771  0.5368 -0.3117 -0.5127
  392MOL0     H54030   5.029   7.935   9.875 -2.1050 -0.2080 -0.2004
  392MOL0     H54031   4.840   8.039   9.718  0.4803 -1.4801  2.0421
  392MOL0     H54032   4.926   8.157   9.819  0.0924  1.2879 -1.5518
  392MOL0     H54033   5.083   8.220   9.662 -1.6403  2.8260  1.3565
  392MOL0     H54034   5.015   8.128   9.529  1.1419  0.0235 -0.2811
  392MOL0     H54035   4.803   8.239   9.578  0.3885  0.5551  2.2202
  392MOL0     H54036   4.890   8.360   9.681  0.3980  1.1525 -0.5847
  392MOL0     H54037   4.975   8.297   9.413 -0.4003 -0.6878  1.8479
  392MOL0     H54038   5.023   8.444   9.512 -1.9549  1.5921  0.6336
  392MOL0     H54039   4.732   8.398   9.421  0.0654 -0.2594 -1.7279
  392MOL0     H54040   4.811   8.556   9.466 -0.5445  1.7944 -4.2884
  392MOL0     H54041   4.762   8.566   9.236  2.3606  0.3552 -3.6584
  392MOL0     H54042   4.803   8.394   9.227  1.6488 -1.8000  2.7907
  392MOL0     H54043   5.001   8.632   9.311 -3.9953  1.0893 -0.3116
  392MOL0     H54044   5.062   8.479   9.249  0.8184  1.1219 -0.1355
  392MOL0     H54045   4.969   8.833   9.127  0.0200 -0.6792  1.6044
  392MOL0     H54046   4.986   8.938   8.891 -2.4178 -0.1878 -1.6208
  392MOL0     H54047   4.931   8.846   8.756  0.6109 -2.8554 -1.5941
  392MOL0     H54048   5.221   8.870   8.842 -1.2196  1.9737  0.0112
  392MOL0     H54049   5.174   8.753   8.724  1.3297 -0.7714  3.1549
  392MOL0     H54050   5.084   8.940   8.578 -0.8664 -4.2602  0.9881
  392MOL0     H54051   5.140   9.054   8.708 -0.9924 -0.2280 -0.4924
  392MOL0     H54052   5.321   9.050   8.549  3.3334  1.5898 -1.6536
  392MOL0     H54053   5.370   8.962   8.689 -0.3211 -0.9643 -0.4083
  392MOL0     H54054   5.333   8.610   8.435  0.5369  2.0245 -1.3503
  392MOL0     H54055   5.153   8.430   8.285 -1.6818  2.0764 -0.1487
  392MOL0     H54056   5.324   8.446   8.271 -1.5386 -3.5456  0.2150
  392MOL0     H54057   5.226   8.463   8.119 -1.5071 -0.6230 -0.6412
  392MOL0     H54058   5.011   8.577   7.843  1.2086 -1.6590  0.8332
  392MOL0     H54059   4.886   8.430   7.682 -4.6897 -4.7871 -1.6170
  392MOL0     H54060   4.527   8.171   7.681  0.1359 -2.1122  2.6146
  392MOL0     H54061   4.527   8.224   7.846 -3.4909  0.3529 -1.3378
  392MOL0     H54062   4.401   8.393   7.782  0.2897  0.8131  0.4987
  392MOL0     H54063   4.552   8.463   7.753  0.4152  1.1583 -3.3067
  392MOL0     H54064   4.550   8.374   7.512  0.0582  0.8305  0.5083
  392MOL0     H54065   4.436   8.501   7.553  0.7778 -0.2946 -0.1414
  392MOL0     H54066   4.255   8.341   7.588  0.8727  1.7080  0.2477
  392MOL0     H54067   4.355   8.207   7.566 -1.7863 -0.2520  2.0011
  392MOL0     H54068   4.231   8.216   7.365 -2.6991  2.0890  1.3802
  392MOL0     H54069   4.263   8.383   7.333 -2.0299 -0.2832  0.9511
  392MOL0     H54070   4.486   8.170   7.333  0.4645 -0.4770 -1.9048
  392MOL0     H54071   4.503   8.340   7.286 -1.9440  2.3565  1.7343
  392MOL0     H54072   4.314   8.265   7.102  0.2579 -2.2067 -3.3899
  392MOL0     H54073   4.377   8.104   7.121  2.6815 -2.3167  1.2269
  392MOL0     H54074   4.609   8.167   7.070  1.0510  2.3060  1.4267
  392MOL0     H54075   4.572   8.326   7.035  1.1038 -0.1599 -2.5523
  392MOL0     H54076   4.685   8.232   8.001 -0.2034  0.5121 -0.9728
  392MOL0     H54077   4.785   8.392   8.160 -2.2903  0.9931 -0.5442
  392MOL0     H54078   5.073   8.926   8.164 -0.1258  1.5241  1.7203
  392MOL0     H54079   5.215   9.012   8.328  1.2608 -0.5880 -0.5040
  392MOL0     H54080   4.942   7.663   9.548 -0.3721  2.3677  0.0999
  392MOL0     H54081   5.007   7.416   9.594  1.6235 -0.0585  0.5004
  392MOL0     H54082   5.260   7.098  10.041 -0.7177  1.7098 -0.6800
  392MOL0     H54083   5.332   6.866  10.027  0.6493  1.9977  1.6737
  392MOL0     H54084   5.370   6.652   9.990  0.5971 -0.6409 -0.5554
  392MOL0     H54085   5.424   6.550   9.869 -0.4758  1.4979 -0.8429
  392MOL0     H54086   5.623   6.632   9.967 -0.1233 -0.7703  0.1417
  392MOL0     H54087   5.596   6.791   9.945  3.6781 -0.5552 -0.0470
  392MOL0     H54088   5.684   6.596   9.739 -0.3543  0.0575 -0.8262
  392MOL0     H54089   5.557   6.699   9.677  0.7629  2.2685  0.4996
  392MOL0     H54090   5.756   6.808   9.619 -1.2176  1.0401  0.5001
  392MOL0     H54091   5.820   6.802   9.790  0.2007  0.5663  0.3528
  392MOL0     H54092   5.593   7.148   9.713 -3.0543 -1.0506 -2.8817
  392MOL0     H54093   5.226   6.865   9.611 -2.5187 -0.9658  0.5715
  392MOL0     H54094   5.196   7.184   9.536  1.6489  0.1993  1.4961
  392MOL0     H54095   5.076   7.050   9.522  0.4740  1.4416 -2.1235
  392MOL0     H54096   5.052   7.191   9.625 -1.3372 -0.7329 -1.5643
  393MOL0     O54097   6.306   4.352   5.323 -0.6993 -0.0242 -0.4051
  393MOL0     C54098   6.361   4.423   5.234 -0.0489  0.4372 -0.1973
  393MOL0     O54099   6.336   4.555   5.214  0.3938 -0.6115  0.2472
  393MOL0     C54100   6.307   4.622   5.330 -0.8870  0.5448  0.2022
  393MOL0     C54101   6.364   4.583   5.451 -0.2016  0.3490 -0.8948
  393MOL0     C54102   6.354   4.650   5.575 -1.0525 -1.0237 -0.3164
  393MOL0     C54103   6.275   4.759   5.571  0.1062 -0.3761 -0.4772
  393MOL0     O54104   6.255   4.808   5.697 -0.1586  0.6045  0.1807
  393MOL0     C54105   6.230   4.950   5.697 -0.4332 -0.1920 -0.4123
  393MOL0     C54106   6.235   5.005   5.841  0.1932  0.0603  0.2003
  393MOL0     C54107   6.213   5.166   5.817  0.0955 -0.0783 -0.2398
  393MOL0     C54108   6.209   5.250   5.947  0.4219 -0.7324  0.2937
  393MOL0     C54109   6.153   5.392   5.902 -1.1363  0.9140 -0.3215
  393MOL0     C54110   6.254   5.478   5.813  0.9626 -0.1070 -0.2891
  393MOL0     C54111   6.386   5.494   5.884  0.3295 -0.1425  0.4141
  393MOL0     C54112   6.463   5.606   5.819 -0.2622  0.8566 -0.2404
  393MOL0     N54113   6.582   5.650   5.891  0.4237 -0.0098  0.2597
  393MOL0     C54114   6.585   5.756   5.972 -0.1129 -0.4702 -0.1687
  393MOL0     C54115   6.715   5.767   6.006  0.7521  0.1700  0.3482
  393MOL0     C54116   6.771   5.881   6.072  0.0790  0.0236 -1.0965
  393MOL0     C54117   6.878   5.854   6.175 -0.0145  0.6522  0.4910
  393MOL0     C54118   6.822   5.842   6.325  0.0745  0.4371  0.6352
  393MOL0     C54119   6.921   5.837   6.448 -0.2209 -0.3502  0.3553
  393MOL0     O54120   7.002   5.957   6.457  0.2091 -0.6860 -0.4951
  393MOL0     C54121   7.096   5.954   6.551  0.3374 -0.4644  0.0458
  393MOL0     C54122   7.068   5.928   6.684  0.0990  0.2338 -0.3679
  393MOL0     C54123   7.175   5.913   6.780  0.0741  0.0403  0.0362
  393MOL0     C54124   7.126   5.883   6.916 -0.3090 -0.1194  0.1200
  393MOL0     C54125   7.310   5.936   6.743  1.2721  0.0374  0.2592
  393MOL0     C54126   7.414   5.925   6.839 -0.2784 -0.2856 -0.5518
  393MOL0     O54127   7.544   5.916   6.788  0.5228 -1.1593  0.2544
  393MOL0     C54128   7.642   5.938   6.880 -0.1943 -0.5650  0.9985
  393MOL0     C54129   7.734   5.841   6.906 -0.8853  0.5611 -0.1545
  393MOL0     C54130   7.841   5.858   6.991 -0.1703  0.6813  0.0383
  393MOL0     C54131   7.864   5.990   7.038  0.8141 -1.0248  0.3249
  393MOL0     O54132   7.959   6.015   7.133 -0.7089  0.5989 -0.0838
  393MOL0     C54133   8.049   5.903   7.168  0.1986  0.7358  1.5095
  393MOL0     C54134   8.155   5.930   7.275 -0.6934  0.0492  0.4626
  393MOL0     C54135   8.243   5.809   7.283  0.3124 -0.2500  0.3585
  393MOL0     C54136   8.352   5.834   7.387  0.4954  0.7819  0.3098
  393MOL0     C54137   8.451   5.719   7.389 -0.6685  0.1817  0.3032
  393MOL0     C54138   8.584   5.752   7.309  0.5262  1.2613  0.9257
  393MOL0     C54139   8.684   5.640   7.309 -0.4099 -1.0346 -0.7715
  393MOL0     C54140   8.746   5.622   7.451  0.0826 -0.2854  0.0025
  393MOL0    Cl54141   8.858   5.476   7.449 -0.1625  0.5739  0.1568
  393MOL0     C54142   7.769   6.090   7.016 -0.9131  0.1891  0.3904
  393MOL0     C54143   7.660   6.058   6.936 -0.1983  1.2504 -0.0229
  393MOL0     O54144   7.389   5.963   6.957 -0.7892  0.4177  1.1164
  393MOL0     C54145   7.331   5.954   6.608 -1.0220  0.6991 -0.6041
  393MOL0     C54146   7.232   5.967   6.515  0.6874 -0.6213 -0.0851
  393MOL0     N54147   6.793   5.669   5.943  1.1992 -0.1124  0.3975
  393MOL0     N54148   6.703   5.607   5.869 -0.9095  0.4654  0.4137
  393MOL0     C54149   6.206   4.798   5.454  0.2914  0.3387  0.1708
  393MOL0     C54150   6.225   4.728   5.337  0.6187 -0.9297  0.5204
  393MOL0     C54151   6.423   4.350   5.109 -0.2044 -0.7763 -0.3701
  393MOL0     C54152   6.444   4.410   4.986 -0.3085 -0.2640 -1.2327
  393MOL0     C54153   6.497   4.349   4.869 -0.3411  0.5548  0.0744
  393MOL0     C54154   6.534   4.220   4.874 -0.3799 -0.0861  0.5088
  393MOL0     O54155   6.595   4.160   4.770  0.5937  0.4907  0.0128
  393MOL0     C54156   6.639   4.237   4.655 -0.0203  0.4094 -0.4975
  393MOL0     C54157   6.719   4.153   4.556  0.2274  0.1404  0.0003
  393MOL0     C54158   6.803   4.238   4.463 -0.4564  0.3527  0.4266
  393MOL0     C54159   6.880   4.154   4.355  0.0417  0.0053 -0.0908
  393MOL0     C54160   7.016   4.121   4.378  0.5354 -0.0222  1.2573
  393MOL0     C54161   7.134   4.096   4.394  0.8364  1.2072 -0.1927
  393MOL0     C54162   6.522   4.157   4.996  1.0180 -0.0302 -0.2986
  393MOL0     C54163   6.463   4.218   5.113  0.0665  0.1314  0.0683
  393MOL0     C54164   6.473   4.145   5.237 -0.4460  0.1790  0.3842
  393MOL0     H54165   6.440   4.506   5.451 -2.8891 -2.5472 -0.4119
  393MOL0     H54166   6.404   4.616   5.665 -1.1058 -2.6138 -0.8590
  393MOL0     H54167   6.129   4.971   5.659 -0.4926 -1.6957 -1.1649
  393MOL0     H54168   6.311   4.991   5.637  2.7636 -4.0219  0.8542
  393MOL0     H54169   6.164   4.965   5.914  1.0742 -1.1546  0.4303
  393MOL0     H54170   6.333   4.982   5.885  0.1296  0.3565  0.5016
  393MOL0     H54171   6.287   5.199   5.744 -1.7283 -0.7120 -2.4874
  393MOL0     H54172   6.120   5.179   5.761  2.9241  1.3665 -5.2126
  393MOL0     H54173   6.141   5.213   6.024  2.4683 -2.9481  1.1686
  393MOL0     H54174   6.310   5.270   5.983  1.1199  1.8519 -2.6002
  393MOL0     H54175   6.139   5.440   5.999 -0.6783 -0.6740  0.5748
  393MOL0     H54176   6.057   5.383   5.850 -1.1637 -0.6358 -0.0604
  393MOL0     H54177   6.273   5.433   5.716  0.2493 -0.3409 -0.3253
  393MOL0     H54178   6.199   5.573   5.812  0.3015 -0.4842 -0.6382
  393MOL0     H54179   6.440   5.399   5.887 -1.5525 -1.4089 -2.1276
  393MOL0     H54180   6.354   5.525   5.984  1.9278  0.6638  0.6988
  393MOL0     H54181   6.492   5.573   5.719 -0.6194  3.4722 -1.2867
  393MOL0     H54182   6.401   5.695   5.812 -0.2903  0.9409  0.9175
  393MOL0     H54183   6.503   5.826   5.987  0.2687  0.6184 -2.6511
  393MOL0     H54184   6.687   5.942   6.109  1.3204  4.3408 -4.5064
  393MOL0     H54185   6.808   5.949   5.995 -0.3326  2.7290  0.9124
  393MOL0     H54186   6.931   5.761   6.152 -0.2526  0.4336  0.8052
  393MOL0     H54187   6.958   5.927   6.169  0.9097 -0.3799 -0.1421
  393MOL0     H54188   6.750   5.922   6.343 -0.1395  0.8603 -1.7465
  393MOL0     H54189   6.770   5.746   6.335 -0.9776  1.1789  3.3849
  393MOL0     H54190   6.865   5.814   6.539 -0.9230  2.2458  0.6718
  393MOL0     H54191   6.995   5.757   6.439  1.9911  1.7483 -1.5422
  393MOL0     H54192   6.970   5.912   6.728 -2.1692  1.6609 -4.4065
  393MOL0     H54193   7.196   5.811   6.959  2.9941  2.9683  0.4594
  393MOL0     H54194   7.028   5.836   6.925 -2.8722  4.3644 -1.2464
  393MOL0     H54195   7.131   5.970   6.983 -1.2632 -1.1232  1.5668
  393MOL0     H54196   7.708   5.750   6.853 -1.8090  2.2269 -2.7607
  393MOL0     H54197   7.893   5.769   7.027  3.5557  2.5176 -0.2681
  393MOL0     H54198   7.976   5.826   7.194 -2.4561  2.9332  0.9021
  393MOL0     H54199   8.088   5.873   7.070  0.5730  2.1693  1.2037
  393MOL0     H54200   8.216   6.014   7.241 -1.9720  0.5541 -0.6682
  393MOL0     H54201   8.117   5.957   7.374  2.8857  0.7152  1.7885
  393MOL0     H54202   8.295   5.789   7.189  1.5378 -2.9477  1.5153
  393MOL0     H54203   8.177   5.731   7.322  1.7800 -0.6198  2.2380
  393MOL0     H54204   8.318   5.842   7.490  0.8446  1.3702  0.3776
  393MOL0     H54205   8.401   5.931   7.377 -2.8222  2.8693  2.5823
  393MOL0     H54206   8.459   5.700   7.497 -1.6270  1.9539  0.7277
  393MOL0     H54207   8.407   5.634   7.337 -1.6064  0.5256  0.5091
  393MOL0     H54208   8.625   5.846   7.348 -0.1743  0.6654  3.2495
  393MOL0     H54209   8.561   5.750   7.202 -0.5728  1.5706  1.1416
  393MOL0     H54210   8.766   5.666   7.243  3.0178 -1.3649  2.9764
  393MOL0     H54211   8.652   5.542   7.274  2.5083 -1.2687 -3.1849
  393MOL0     H54212   8.669   5.609   7.528  1.9344 -0.7678  1.8799
  393MOL0     H54213   8.793   5.714   7.487 -4.1462  1.6194  1.2595
  393MOL0     H54214   7.776   6.193   7.049 -2.0867  1.7074 -3.5501
  393MOL0     H54215   7.595   6.138   6.900  1.5409  1.4362 -3.1066
  393MOL0     H54216   7.431   5.937   6.569 -1.0344 -1.5706  0.1945
  393MOL0     H54217   7.249   6.002   6.413  0.2621  2.0945  0.6914
  393MOL0     H54218   6.143   4.886   5.466  0.4270  0.2597  1.6995
  393MOL0     H54219   6.181   4.767   5.245 -1.9640  3.5625  3.2268
  393MOL0     H54220   6.432   4.516   4.968 -0.3971  0.2397  1.3363
  393MOL0     H54221   6.503   4.414   4.782 -1.7543 -1.6677 -1.7797
  393MOL0     H54222   6.548   4.284   4.616 -1.1268 -1.2016  0.0229
  393MOL0     H54223   6.708   4.314   4.692  1.7379 -0.9119 -0.8766
  393MOL0     H54224   6.651   4.081   4.509 -0.9239 -0.5517  2.5468
  393MOL0     H54225   6.792   4.092   4.611 -0.0966 -0.8294 -0.6051
  393MOL0     H54226   6.732   4.303   4.410  1.2772  2.9166  1.0726
  393MOL0     H54227   6.864   4.315   4.510 -3.4305  2.1713  1.6446
  393MOL0     H54228   6.895   4.227   4.275 -0.3437 -0.8220 -0.9302
  393MOL0     H54229   6.821   4.068   4.322 -1.6682  0.4183  1.6712
  393MOL0     H54230   7.237   4.070   4.409  1.4576  3.7179  0.4452
  393MOL0     H54231   6.563   4.057   4.993  2.5512  0.5824 -0.3952
  393MOL0     H54232   6.545   4.062   5.235 -1.1802 -0.4469 -0.5250
  393MOL0     H54233   6.516   4.204   5.318  1.1487 -2.4101  1.5700
  393MOL0     H54234   6.375   4.111   5.271  0.6821 -1.4271  2.2411
  394MOL0     O54235   1.801   9.890   4.714 -0.5264 -0.4262  0.0535
  394MOL0     C54236   1.709   9.946   4.659 -0.0619  0.6514 -1.0036
  394MOL0     O54237   1.633   9.898   4.561  0.7271 -0.4711 -0.2751
  394MOL0     C54238   1.635   9.763   4.533  0.0750 -0.6388  0.1205
  394MOL0     C54239   1.531   9.688   4.582  0.0212 -0.4621 -0.2299
  394MOL0     C54240   1.519   9.543   4.575  0.0119  0.9570 -0.3494
  394MOL0     C54241   1.634   9.473   4.528  1.0870 -0.6498  0.3913
  394MOL0     O54242   1.625   9.339   4.528 -0.5176 -0.2954  0.0768
  394MOL0     C54243   1.733   9.251   4.494 -0.5023 -0.9892  0.3471
  394MOL0     C54244   1.695   9.103   4.495 -0.2983  0.1143  0.1749
  394MOL0     C54245   1.623   9.050   4.619  0.1676  0.4467 -0.0595
  394MOL0     C54246   1.704   9.041   4.752  0.0810  0.5436 -0.5502
  394MOL0     C54247   1.658   8.929   4.842 -0.0962 -0.2603  0.8118
  394MOL0     C54248   1.710   8.798   4.779 -0.1369  0.3649  0.7555
  394MOL0     C54249   1.665   8.663   4.833  1.2984  0.3165 -0.6818
  394MOL0     C54250   1.521   8.644   4.867  0.0940 -0.8879 -0.3625
  394MOL0     N54251   1.419   8.659   4.759  0.3276  0.0684  0.8465
  394MOL0     C54252   1.293   8.723   4.769 -0.6361 -0.7558  0.2930
  394MOL0     C54253   1.242   8.705   4.650 -0.9542  0.1882 -0.1624
  394MOL0     C54254   1.121   8.767   4.566  0.5177 -0.0004 -0.5020
  394MOL0     C54255   1.078   8.646   4.471  0.3141 -0.7356  0.3704
  394MOL0     C54256   0.953   8.687   4.383  1.0488 -0.3806 -0.3104
  394MOL0     C54257   0.855   8.569   4.346 -0.3511 -0.1976  0.2130
  394MOL0     O54258   0.804   8.522   4.469 -0.0162  0.0344  1.0075
  394MOL0     C54259   0.801   8.383   4.492 -1.0235 -0.4710  0.4488
  394MOL0     C54260   0.810   8.279   4.396  0.1521 -0.0185  0.3052
  394MOL0     C54261   0.803   8.149   4.424  0.0210 -0.2640  0.2702
  394MOL0     C54262   0.798   8.050   4.305 -0.0911  0.1521 -0.2246
  394MOL0     C54263   0.767   8.109   4.556 -0.3640  0.2286 -0.4784
  394MOL0     C54264   0.743   7.962   4.608 -0.8438 -0.3837  0.3333
  394MOL0     O54265   0.721   7.939   4.745 -0.3829  1.0657  0.4997
  394MOL0     C54266   0.697   7.823   4.809 -0.2703  0.0321  0.7768
  394MOL0     C54267   0.574   7.779   4.851  0.2879  0.3298  0.5797
  394MOL0     C54268   0.559   7.657   4.909 -0.0933 -0.2414  0.4403
  394MOL0     C54269   0.672   7.571   4.930 -0.0951  0.2002 -0.3546
  394MOL0     O54270   0.669   7.448   4.988  0.7891  0.0639  0.3870
  394MOL0     C54271   0.542   7.382   5.003 -0.4792  0.1841  0.6362
  394MOL0     C54272   0.571   7.251   5.076 -0.4479 -1.2318  0.4621
  394MOL0     C54273   0.649   7.160   4.990 -1.1764 -0.3764  0.5480
  394MOL0     C54274   0.677   7.017   5.049  0.0196 -0.7559 -0.7257
  394MOL0     C54275   0.739   6.902   4.974 -0.0763  0.7430 -0.6481
  394MOL0     C54276   0.702   6.769   5.030 -0.4124  0.7013 -0.3377
  394MOL0     C54277   0.769   6.650   4.966  0.1333  0.0618  0.4848
  394MOL0     C54278   0.759   6.526   5.057 -0.0375 -0.1760  0.4794
  394MOL0    Cl54279   0.594   6.494   5.120  0.3266  0.1270 -0.2492
  394MOL0     C54280   0.805   7.625   4.912  0.3842  0.1947 -0.3324
  394MOL0     C54281   0.813   7.752   4.847  0.2635  0.1488  0.7149
  394MOL0     O54282   0.764   7.880   4.520 -0.1715 -1.0311  0.3039
  394MOL0     C54283   0.763   8.208   4.657  0.5334 -0.0581  0.3936
  394MOL0     C54284   0.780   8.343   4.626  0.6961  0.3351 -0.1196
  394MOL0     N54285   1.330   8.634   4.566  0.3900 -0.3519 -0.8397
  394MOL0     N54286   1.430   8.604   4.637 -0.0161 -0.6144 -0.7150
  394MOL0     C54287   1.748   9.545   4.477 -0.3473 -0.6475  0.2622
  394MOL0     C54288   1.743   9.690   4.476 -0.1184 -0.2550  0.2692
  394MOL0     C54289   1.679  10.077   4.705 -0.6675  0.7452  0.2204
  394MOL0     C54290   1.624  10.167   4.609 -0.1193 -0.9917 -0.0124
  394MOL0     C54291   1.599  10.297   4.653 -0.9590 -0.1237  0.1351
  394MOL0     C54292   1.603  10.346   4.775 -0.9495  0.3544  0.0387
  394MOL0     O54293   1.548  10.473   4.784  0.4015 -0.4850 -0.3068
  394MOL0     C54294   1.479  10.511   4.901  0.0684 -0.2770 -0.5141
  394MOL0     C54295   1.342  10.429   4.919 -0.0203  0.1408 -0.4966
  394MOL0     C54296   1.262  10.499   5.026 -1.7249 -0.2360  0.5997
  394MOL0     C54297   1.134  10.421   5.074 -0.9587 -0.4193  0.4252
  394MOL0     C54298   1.025  10.427   4.968  0.2417 -0.2676  0.2961
  394MOL0     C54299   0.932  10.429   4.889 -0.1463 -0.3429 -0.9402
  394MOL0     C54300   1.656  10.261   4.871  0.1325  0.0191  0.1899
  394MOL0     C54301   1.698  10.128   4.837 -0.5456  0.1122 -1.5763
  394MOL0     C54302   1.750  10.041   4.950  0.6060 -0.6735  0.4871
  394MOL0     H54303   1.460   9.750   4.636 -0.5963 -0.9634 -0.4582
  394MOL0     H54304   1.440   9.479   4.611  0.1535  1.8643  1.7184
  394MOL0     H54305   1.818   9.256   4.563  1.2487 -0.5046 -1.7476
  394MOL0     H54306   1.770   9.274   4.394 -2.6679 -0.1523 -0.3156
  394MOL0     H54307   1.609   9.098   4.429 -1.5747  0.3431  1.7573
  394MOL0     H54308   1.780   9.043   4.460  0.2551  0.0822  1.5140
  394MOL0     H54309   1.541   9.116   4.648 -0.5703 -1.4320  2.5382
  394MOL0     H54310   1.581   8.952   4.595  1.6760 -0.5711  1.2911
  394MOL0     H54311   1.810   9.031   4.727  0.2090  1.2747 -0.3394
  394MOL0     H54312   1.699   9.140   4.800 -0.0410  0.9427 -1.3589
  394MOL0     H54313   1.549   8.917   4.836 -0.4569  2.7711 -4.4483
  394MOL0     H54314   1.705   8.931   4.941  4.0917  0.5007 -0.9732
  394MOL0     H54315   1.673   8.790   4.677  2.8329  1.0261 -0.4973
  394MOL0     H54316   1.820   8.800   4.778 -0.0949  2.1100 -1.7614
  394MOL0     H54317   1.711   8.646   4.931 -0.2601 -1.5148 -0.2028
  394MOL0     H54318   1.699   8.580   4.770 -1.0849 -0.1160 -1.5079
  394MOL0     H54319   1.520   8.545   4.914  3.3548 -0.1219  1.6236
  394MOL0     H54320   1.497   8.707   4.954  0.3002  0.3517 -1.1801
  394MOL0     H54321   1.252   8.786   4.847 -0.6541 -0.5874  0.1487
  394MOL0     H54322   1.158   8.855   4.514 -0.3403 -0.0404 -1.1930
  394MOL0     H54323   1.049   8.784   4.647  1.9088  1.2997  0.5270
  394MOL0     H54324   1.156   8.622   4.398 -0.1111 -1.0681  0.0264
  394MOL0     H54325   1.072   8.554   4.530 -0.8618 -1.7499 -1.2583
  394MOL0     H54326   0.891   8.751   4.447 -1.4041 -1.0809 -1.8634
  394MOL0     H54327   0.984   8.747   4.297  3.3922 -0.0131  0.7182
  394MOL0     H54328   0.774   8.606   4.282 -1.4217 -1.0018  1.0649
  394MOL0     H54329   0.922   8.496   4.299 -1.8577 -2.3952  1.3027
  394MOL0     H54330   0.823   8.319   4.296 -2.5988  0.5970  0.1170
  394MOL0     H54331   0.834   8.095   4.212 -0.2490  1.1403  0.1764
  394MOL0     H54332   0.696   8.018   4.283  0.5809 -1.2854 -1.3798
  394MOL0     H54333   0.861   7.961   4.311 -1.0187 -0.7155 -2.3499
  394MOL0     H54334   0.486   7.840   4.833  1.5718  2.0319 -0.2562
  394MOL0     H54335   0.459   7.634   4.944 -1.9972  3.0763 -2.1947
  394MOL0     H54336   0.481   7.441   5.072  1.3505  1.6292  1.1133
  394MOL0     H54337   0.480   7.372   4.913  0.5670 -0.3689 -0.0477
  394MOL0     H54338   0.626   7.287   5.163 -3.3013  1.0097  1.4755
  394MOL0     H54339   0.482   7.201   5.115  0.3501 -2.6471  0.5568
  394MOL0     H54340   0.750   7.200   4.974 -0.7578  0.1978  3.8707
  394MOL0     H54341   0.608   7.153   4.889  2.6194  0.8487 -1.2697
  394MOL0     H54342   0.583   6.977   5.087  0.0558 -2.5718 -2.3815
  394MOL0     H54343   0.729   7.034   5.144 -2.8869 -0.1531  0.8553
  394MOL0     H54344   0.711   6.903   4.868  2.0420 -1.9749 -1.3540
  394MOL0     H54345   0.844   6.926   4.988  0.1526 -0.7616  0.4791
  394MOL0     H54346   0.593   6.757   5.031 -0.6203  2.2146  2.0250
  394MOL0     H54347   0.730   6.766   5.136 -1.5591 -1.0147 -0.0403
  394MOL0     H54348   0.873   6.679   4.956 -0.5436  1.9518 -1.6984
  394MOL0     H54349   0.728   6.642   4.865 -0.1618  2.1742  0.3958
  394MOL0     H54350   0.815   6.561   5.144  2.0974 -2.2845  0.0526
  394MOL0     H54351   0.807   6.438   5.015 -0.8301 -0.3304 -0.1325
  394MOL0     H54352   0.890   7.570   4.953  2.3184  3.8289  1.0001
  394MOL0     H54353   0.910   7.795   4.826 -0.4320 -0.1726 -4.3876
  394MOL0     H54354   0.732   8.184   4.758  0.9058  2.0985  1.0671
  394MOL0     H54355   0.758   8.405   4.712  2.2754  0.3769  0.2643
  394MOL0     H54356   1.826   9.481   4.438  0.9046 -0.0359  1.6270
  394MOL0     H54357   1.812   9.752   4.421  0.7049 -0.2670  1.2531
  394MOL0     H54358   1.627  10.146   4.502 -1.5533  3.5332 -1.1513
  394MOL0     H54359   1.555  10.364   4.580  1.4482 -0.2342 -1.5451
  394MOL0     H54360   1.545  10.508   4.989  3.9144 -0.3293 -3.1410
  394MOL0     H54361   1.458  10.614   4.870  2.4748  0.3420 -0.3291
  394MOL0     H54362   1.381  10.338   4.965  1.4114  1.5041  1.1651
  394MOL0     H54363   1.288  10.425   4.824 -1.7709  0.1204  0.4563
  394MOL0     H54364   1.334  10.501   5.108 -1.7633  1.8939  0.6298
  394MOL0     H54365   1.243  10.602   4.994  3.2538  0.4081 -1.1981
  394MOL0     H54366   1.100  10.471   5.165  2.4516  0.8320  1.1558
  394MOL0     H54367   1.158  10.316   5.090 -0.2413 -0.7562 -2.3385
  394MOL0     H54368   0.843  10.411   4.832  1.1443 -1.0341 -2.8307
  394MOL0     H54369   1.663  10.304   4.971  1.3884 -2.2655  1.1421
  394MOL0     H54370   1.743  10.078   5.053  4.0845 -2.0840  1.3770
  394MOL0     H54371   1.708   9.940   4.936  0.7738 -0.5105 -1.2884
  394MOL0     H54372   1.858  10.038   4.936  0.6103  2.7605 -1.1566
  395MOL0     O54373   4.134   1.284  10.760 -0.5100 -0.5206 -0.6502
  395MOL0     C54374   4.109   1.351  10.663 -0.5031  0.5374 -0.2335
  395MOL0     O54375   4.021   1.455  10.656  0.3102  0.4661  0.2453
  395MOL0     C54376   3.941   1.497  10.764  0.7034 -0.3074 -0.0599
  395MOL0     C54377   3.872   1.422  10.853 -0.4220  0.2018 -0.2416
  395MOL0     C54378   3.802   1.479  10.957 -0.1016  1.1020  0.2902
  395MOL0     C54379   3.798   1.616  10.980 -0.3672  0.1628  0.7768
  395MOL0     O54380   3.733   1.676  11.086  0.1940  0.1950  0.4604
  395MOL0     C54381   3.724   1.815  11.096  0.7963 -0.6788  0.1692
  395MOL0     C54382   3.627   1.850  11.210 -0.1619 -0.1347 -0.3790
  395MOL0     C54383   3.683   1.968  11.289  0.1531 -0.3119  0.6679
  395MOL0     C54384   3.678   2.101  11.220 -0.0987  0.1759 -0.0083
  395MOL0     C54385   3.706   2.199  11.338 -0.2947 -0.1106  0.5321
  395MOL0     C54386   3.842   2.219  11.401  0.0757 -0.0071 -0.0424
  395MOL0     C54387   3.817   2.309  11.528  0.3592 -0.4082  0.2899
  395MOL0     C54388   3.964   2.340  11.582 -0.2752  0.2245 -0.1059
  395MOL0     N54389   3.969   2.445  11.688  0.2145  1.0447  0.2633
  395MOL0     C54390   3.943   2.579  11.661  0.0366 -0.7478  0.6245
  395MOL0     C54391   3.995   2.642  11.772 -1.6055  0.3732 -0.2201
  395MOL0     C54392   3.996   2.790  11.787 -0.0355 -1.0535  0.0020
  395MOL0     C54393   4.135   2.843  11.792 -0.0768 -0.8681 -1.4425
  395MOL0     C54394   4.226   2.808  11.666 -0.6282 -0.1977  0.6281
  395MOL0     C54395   4.207   2.903  11.539 -0.1466  0.0493  0.5256
  395MOL0     O54396   4.064   2.914  11.494 -0.7091  0.7939 -0.2188
  395MOL0     C54397   4.004   2.822  11.414  0.4573 -0.2889 -0.7951
  395MOL0     C54398   4.072   2.718  11.349 -0.0556 -0.4294 -0.4671
  395MOL0     C54399   4.005   2.632  11.254 -0.6733  0.4643 -1.2454
  395MOL0     C54400   4.081   2.509  11.210  0.6250  0.2530  0.5297
  395MOL0     C54401   3.869   2.653  11.221  0.4357 -0.9171 -0.4561
  395MOL0     C54402   3.792   2.569  11.115  0.1070 -0.6843  0.5797
  395MOL0     O54403   3.653   2.600  11.119 -0.8309  0.6004 -0.3186
  395MOL0     C54404   3.574   2.577  11.004 -0.3377 -0.0333  0.5061
  395MOL0     C54405   3.506   2.682  10.939 -0.0077 -0.4264 -0.3703
  395MOL0     C54406   3.406   2.669  10.846 -0.9390 -0.1114  0.3343
  395MOL0     C54407   3.369   2.529  10.811  0.9010  0.1749  0.1809
  395MOL0     O54408   3.265   2.516  10.724  0.3149 -0.2040  0.3360
  395MOL0     C54409   3.182   2.401  10.720 -0.0984 -0.0517  0.3935
  395MOL0     C54410   3.045   2.442  10.651 -1.0222 -0.3412 -0.0582
  395MOL0     C54411   2.962   2.547  10.723 -0.6026 -0.4655 -0.8591
  395MOL0     C54412   3.012   2.688  10.713 -0.3381 -0.1954 -0.1146
  395MOL0     C54413   3.012   2.766  10.847 -0.1422  0.1672  0.0147
  395MOL0     C54414   3.059   2.908  10.824  0.2606  0.2025  0.3365
  395MOL0     C54415   3.037   3.000  10.948 -0.1308  0.4712  0.1084
  395MOL0     C54416   3.102   3.134  10.925  0.4191 -0.1892  0.2690
  395MOL0    Cl54417   2.984   3.235  10.834  0.3227  0.5093 -0.3599
  395MOL0     C54418   3.438   2.423  10.863 -0.7709 -0.8458 -0.9199
  395MOL0     C54419   3.540   2.448  10.965 -0.1963  0.2142  0.5675
  395MOL0     O54420   3.855   2.519  11.025  0.2503  0.0606 -0.3525
  395MOL0     C54421   3.804   2.762  11.278 -0.1609 -0.8690 -0.2961
  395MOL0     C54422   3.869   2.837  11.378  0.4059 -0.2913  0.6637
  395MOL0     N54423   4.057   2.549  11.853  0.0029 -0.8240 -0.3779
  395MOL0     N54424   4.037   2.437  11.804  0.1533  0.0136 -0.1281
  395MOL0     C54425   3.872   1.698  10.888 -0.1687  0.4816 -0.4372
  395MOL0     C54426   3.942   1.638  10.787  0.1628  0.7704  1.3104
  395MOL0     C54427   4.155   1.304  10.529 -0.2793  0.3721 -0.1596
  395MOL0     C54428   4.092   1.344  10.411 -0.0736 -0.5384  0.5166
  395MOL0     C54429   4.121   1.298  10.288  0.2811 -0.3065  0.3601
  395MOL0     C54430   4.223   1.200  10.264 -0.0633  0.4627 -0.6421
  395MOL0     O54431   4.265   1.145  10.148  0.4906  0.1350  0.4228
  395MOL0     C54432   4.222   1.205  10.020  0.1762 -0.0083  0.9660
  395MOL0     C54433   4.300   1.157   9.898  0.3707 -1.1827 -0.0993
  395MOL0     C54434   4.271   1.005   9.880 -0.0934 -0.2254 -0.0003
  395MOL0     C54435   4.298   0.954   9.743 -0.7463  0.3395  0.4778
  395MOL0     C54436   4.202   1.027   9.656  0.2662 -0.1697 -0.4764
  395MOL0     C54437   4.130   1.096   9.585 -0.1053 -0.2696 -0.2020
  395MOL0     C54438   4.301   1.170  10.378 -0.5304  0.1614 -0.9304
  395MOL0     C54439   4.272   1.211  10.511 -0.2482  0.0512  0.2175
  395MOL0     C54440   4.364   1.152  10.621  0.0111 -0.2288  0.2942
  395MOL0     H54441   3.864   1.315  10.835 -0.7240  0.7082 -3.6973
  395MOL0     H54442   3.735   1.418  11.016 -0.1044  0.9184  0.0984
  395MOL0     H54443   3.678   1.862  11.009  0.2697 -0.5580  0.5083
  395MOL0     H54444   3.820   1.862  11.120  0.1237  0.6570  0.3148
  395MOL0     H54445   3.528   1.867  11.168 -0.6033 -2.6123 -0.5018
  395MOL0     H54446   3.613   1.768  11.280  0.0538  0.2087  0.0682
  395MOL0     H54447   3.627   1.976  11.382  0.5621  4.0521  0.7250
  395MOL0     H54448   3.786   1.953  11.322  0.3432  0.5969  0.5037
  395MOL0     H54449   3.753   2.099  11.140 -1.8244  1.3194 -1.7606
  395MOL0     H54450   3.588   2.126  11.162 -0.5604 -3.5923 -1.2213
  395MOL0     H54451   3.624   2.185  11.408 -1.8288  1.4571 -0.8468
  395MOL0     H54452   3.679   2.289  11.283  3.6839  0.6495 -0.4951
  395MOL0     H54453   3.892   2.125  11.427  0.5370  0.4343  0.6910
  395MOL0     H54454   3.904   2.285  11.340 -2.0527 -0.0073 -2.3846
  395MOL0     H54455   3.754   2.248  11.594 -1.0434 -0.0353 -0.6481
  395MOL0     H54456   3.768   2.400  11.493  0.5313  0.0465  1.2065
  395MOL0     H54457   4.012   2.246  11.613  3.1255  0.9184 -2.6403
  395MOL0     H54458   4.035   2.385  11.512 -1.0587 -0.7900 -1.6154
  395MOL0     H54459   3.902   2.620  11.570  1.8103  0.8293  0.4734
  395MOL0     H54460   3.929   2.818  11.869 -0.2478  0.5477 -0.6675
  395MOL0     H54461   3.956   2.837  11.697  1.6254 -0.9796 -0.7401
  395MOL0     H54462   4.151   2.951  11.803 -0.8297 -0.6170 -2.5878
  395MOL0     H54463   4.181   2.802  11.882 -2.0480  1.2019  0.6439
  395MOL0     H54464   4.330   2.813  11.700 -0.2580  0.1109 -0.5143
  395MOL0     H54465   4.213   2.705  11.633  1.9358  0.0282 -1.4443
  395MOL0     H54466   4.235   3.007  11.558 -0.4846 -0.4198  4.4136
  395MOL0     H54467   4.268   2.875  11.453 -1.5422  2.6496 -1.4597
  395MOL0     H54468   4.175   2.704  11.380 -0.2186 -2.4623 -0.7196
  395MOL0     H54469   4.099   2.522  11.103  2.0908  2.0910  0.9450
  395MOL0     H54470   4.030   2.413  11.224 -1.0444  1.1782  1.0084
  395MOL0     H54471   4.182   2.497  11.249  1.5234 -0.1544 -1.7426
  395MOL0     H54472   3.521   2.780  10.986 -1.7563 -0.7438  0.9635
  395MOL0     H54473   3.357   2.753  10.799 -0.5348  0.0043  0.1119
  395MOL0     H54474   3.238   2.321  10.670  1.4252  2.3836 -2.0543
  395MOL0     H54475   3.169   2.358  10.820  5.3413 -4.6688 -0.3305
  395MOL0     H54476   3.067   2.490  10.555  1.2326  0.5946  0.8449
  395MOL0     H54477   2.998   2.344  10.646 -4.5432  1.2241 -0.4649
  395MOL0     H54478   2.962   2.514  10.827 -1.1898  3.1522  0.4159
  395MOL0     H54479   2.857   2.552  10.692 -0.3718  1.3815 -1.4749
  395MOL0     H54480   2.950   2.745  10.643  0.0977 -0.2562 -0.5531
  395MOL0     H54481   3.117   2.692  10.683 -0.2957  0.2981  0.0975
  395MOL0     H54482   2.912   2.769  10.891 -0.5839 -1.3227 -0.8414
  395MOL0     H54483   3.072   2.702  10.913 -3.7082 -0.5293  2.9226
  395MOL0     H54484   3.014   2.949  10.734  1.2401  0.1738 -0.1874
  395MOL0     H54485   3.167   2.892  10.814  0.0965 -1.8066  1.3569
  395MOL0     H54486   3.096   2.962  11.032 -2.2319  0.9477  1.8790
  395MOL0     H54487   2.935   3.024  10.980  1.3953  1.1026  5.3655
  395MOL0     H54488   3.198   3.130  10.873  2.4928  2.3285  3.4979
  395MOL0     H54489   3.116   3.179  11.024 -0.5276 -0.1880  0.4080
  395MOL0     H54490   3.406   2.323  10.835 -3.9384  0.1256 -1.0739
  395MOL0     H54491   3.590   2.367  11.016 -0.0961  0.6153  1.1184
  395MOL0     H54492   3.704   2.787  11.243 -1.0158  1.2516  3.2110
  395MOL0     H54493   3.826   2.931  11.412 -1.9725 -1.9486  2.5392
  395MOL0     H54494   3.873   1.806  10.894 -3.8952  0.7300 -1.6047
  395MOL0     H54495   3.992   1.694  10.709  1.2894 -0.0403  1.4210
  395MOL0     H54496   4.011   1.414  10.427  2.7662  2.7255  2.2184
  395MOL0     H54497   4.048   1.336  10.218 -0.1527  3.0243  2.4053
  395MOL0     H54498   4.118   1.178  10.004  0.6276 -2.8111  2.1979
  395MOL0     H54499   4.226   1.314  10.031  0.4348  0.1444 -0.5033
  395MOL0     H54500   4.407   1.179   9.909 -0.1898  1.9424  0.1555
  395MOL0     H54501   4.266   1.218   9.814 -0.5219  0.6798  1.5369
  395MOL0     H54502   4.334   0.947   9.947 -0.5830  0.9528  1.5464
  395MOL0     H54503   4.172   0.979   9.917  1.1957 -1.2900  2.9901
  395MOL0     H54504   4.271   0.847   9.746 -0.4628  0.2531  0.0691
  395MOL0     H54505   4.403   0.965   9.716 -1.0812  0.7651 -0.7130
  395MOL0     H54506   4.070   1.141   9.508 -0.3994 -2.0626 -1.0906
  395MOL0     H54507   4.397   1.120  10.367  0.8777  2.5796 -0.3861
  395MOL0     H54508   4.415   1.066  10.577  2.9542  2.1942 -1.4590
  395MOL0     H54509   4.444   1.223  10.644 -0.5988  0.2869  0.8430
  395MOL0     H54510   4.309   1.131  10.713  0.2540  2.0750  1.0386
  396MOL0     O54511   1.134   7.405   8.792 -0.4103 -0.0464 -0.4222
  396MOL0     C54512   1.213   7.310   8.791  0.6174  0.3271  0.3099
  396MOL0     O54513   1.181   7.185   8.740  0.2786  0.1532 -0.3453
  396MOL0     C54514   1.066   7.167   8.675  0.2831  0.2027 -0.0475
  396MOL0     C54515   1.033   7.233   8.555 -0.4663  0.2419 -0.0140
  396MOL0     C54516   0.912   7.213   8.490  0.2757  0.3779  0.1350
  396MOL0     C54517   0.819   7.119   8.549  0.0657  0.0620 -0.2005
  396MOL0     O54518   0.707   7.076   8.492  0.8864 -0.0655 -0.5140
  396MOL0     C54519   0.675   7.108   8.351  0.5563  0.4885 -1.0491
  396MOL0     C54520   0.591   7.242   8.331 -0.5106  0.6287 -0.1218
  396MOL0     C54521   0.444   7.217   8.362 -1.3817  0.3009  0.3378
  396MOL0     C54522   0.360   7.330   8.309 -0.7281  0.0337 -0.2269
  396MOL0     C54523   0.219   7.299   8.347  0.0344  0.4570  0.0533
  396MOL0     C54524   0.208   7.335   8.500  0.2875 -0.5255 -0.3039
  396MOL0     C54525   0.258   7.479   8.540 -0.9102 -0.6263  0.7592
  396MOL0     C54526   0.203   7.587   8.444 -0.5094  0.2936  0.9893
  396MOL0     N54527   0.255   7.711   8.499 -0.5051 -0.9302 -0.0404
  396MOL0     C54528   0.380   7.751   8.527 -0.3646 -0.2329  0.9198
  396MOL0     C54529   0.380   7.877   8.551 -0.2521 -0.2810  0.2306
  396MOL0     C54530   0.493   7.969   8.576  0.1293  0.0213 -0.2748
  396MOL0     C54531   0.607   7.910   8.665  0.8148 -0.2835  1.3433
  396MOL0     C54532   0.711   8.020   8.680 -0.4825  0.0305 -0.3085
  396MOL0     C54533   0.807   8.042   8.558 -0.8740 -0.4769 -0.5909
  396MOL0     O54534   0.918   7.956   8.565  0.1545 -0.6917  0.9541
  396MOL0     C54535   1.030   8.003   8.627  0.3882  0.7605 -0.3925
  396MOL0     C54536   1.063   8.134   8.672 -0.9874  0.7029  0.3277
  396MOL0     C54537   1.185   8.173   8.734 -0.9464 -0.8385 -0.1993
  396MOL0     C54538   1.211   8.316   8.779 -0.5219  0.3041 -0.6101
  396MOL0     C54539   1.294   8.073   8.744 -0.3216  0.6252 -0.0453
  396MOL0     C54540   1.439   8.085   8.777  0.8936  0.0862 -1.1657
  396MOL0     O54541   1.512   7.972   8.789  0.1852 -0.0767  0.2536
  396MOL0     C54542   1.614   7.952   8.883  0.0538  0.4519  0.1345
  396MOL0     C54543   1.651   8.044   8.981  0.6698  0.0742 -0.2071
  396MOL0     C54544   1.736   8.000   9.087 -0.2620 -1.2966 -0.2727
  396MOL0     C54545   1.806   7.878   9.084  0.5705 -0.0810 -0.8268
  396MOL0     O54546   1.899   7.829   9.172 -0.0209 -0.1516 -0.5164
  396MOL0     C54547   1.836   7.816   9.296 -0.1308 -0.5134 -0.1451
  396MOL0     C54548   1.932   7.825   9.412  0.4097  0.4937 -0.9390
  396MOL0     C54549   1.986   7.960   9.433 -0.7542  0.0144 -0.1745
  396MOL0     C54550   2.034   8.034   9.314  0.3768 -0.4549 -0.9274
  396MOL0     C54551   2.113   8.166   9.362  0.2281 -0.1402 -0.3908
  396MOL0     C54552   2.157   8.240   9.233 -0.3138 -1.4350 -0.5937
  396MOL0     C54553   2.223   8.371   9.264 -0.0080 -0.9141  0.2769
  396MOL0     C54554   2.200   8.470   9.152  0.3514  0.1024 -0.4753
  396MOL0    Cl54555   2.287   8.613   9.198 -0.0393 -0.5994 -0.0088
  396MOL0     C54556   1.774   7.798   8.977 -1.8071  0.7249  1.0477
  396MOL0     C54557   1.685   7.831   8.874  1.3671  0.4725 -1.6114
  396MOL0     O54558   1.491   8.195   8.767  0.4126  0.0692 -0.3281
  396MOL0     C54559   1.254   7.946   8.699  0.0916 -0.3901  0.2330
  396MOL0     C54560   1.139   7.908   8.638  0.1376  0.0872 -0.2069
  396MOL0     N54561   0.256   7.928   8.508  0.4644  0.0496 -0.2595
  396MOL0     N54562   0.177   7.832   8.489  0.7637  0.0672 -0.6678
  396MOL0     C54563   0.851   7.053   8.665 -0.6596  0.6139  0.4327
  396MOL0     C54564   0.976   7.072   8.729  1.0342  0.2371 -0.2365
  396MOL0     C54565   1.349   7.320   8.855 -0.7603 -0.3164  0.4556
  396MOL0     C54566   1.421   7.201   8.889 -0.5510  0.4036  0.7993
  396MOL0     C54567   1.550   7.205   8.936  0.2023 -0.4555 -0.4823
  396MOL0     C54568   1.617   7.323   8.951  0.0391  0.5398  0.0579
  396MOL0     O54569   1.737   7.315   9.004  0.6157 -0.4715 -0.2826
  396MOL0     C54570   1.848   7.381   8.952 -1.1295 -0.1401 -0.8776
  396MOL0     C54571   1.936   7.298   8.856  0.9341 -0.7932  0.7628
  396MOL0     C54572   2.055   7.369   8.792 -0.6566 -1.2922  0.2615
  396MOL0     C54573   2.116   7.260   8.692  0.5818 -0.4664 -0.7379
  396MOL0     C54574   2.163   7.141   8.752  0.7021  0.8468 -0.3481
  396MOL0     C54575   2.222   7.047   8.800  0.6250  0.1113 -0.2637
  396MOL0     C54576   1.549   7.436   8.936  0.2809 -0.5947  0.9477
  396MOL0     C54577   1.415   7.439   8.888 -0.2373  0.8777 -0.1357
  396MOL0     C54578   1.369   7.581   8.847  0.4121  1.0167 -0.7738
  396MOL0     H54579   1.110   7.302   8.524 -0.4731  0.6113  0.7689
  396MOL0     H54580   0.882   7.271   8.403 -1.8489 -4.4360 -2.7028
  396MOL0     H54581   0.622   7.026   8.303  0.8577 -1.3831  1.5959
  396MOL0     H54582   0.765   7.139   8.297  3.0543  0.4481  2.6929
  396MOL0     H54583   0.628   7.320   8.399  0.2751 -0.3294  0.5928
  396MOL0     H54584   0.609   7.285   8.232  0.2824  1.5870  0.4188
  396MOL0     H54585   0.415   7.130   8.302  1.0498 -0.1137 -0.3463
  396MOL0     H54586   0.439   7.196   8.469 -3.2199  1.0156  0.4172
  396MOL0     H54587   0.396   7.429   8.339 -1.9521  0.2255  0.7260
  396MOL0     H54588   0.355   7.337   8.200  0.9790 -0.6781 -0.3689
  396MOL0     H54589   0.201   7.193   8.328 -3.0825  0.6874  1.1523
  396MOL0     H54590   0.144   7.360   8.296  0.7007 -0.9517 -2.8006
  396MOL0     H54591   0.101   7.323   8.522  0.6703 -1.8022  1.0541
  396MOL0     H54592   0.254   7.258   8.562  0.1488 -1.7435 -1.6431
  396MOL0     H54593   0.367   7.477   8.545 -0.9646 -1.4078  4.2919
  396MOL0     H54594   0.225   7.517   8.638 -1.1037  1.2605  0.0002
  396MOL0     H54595   0.230   7.571   8.340 -1.4907 -1.0388  0.9097
  396MOL0     H54596   0.095   7.583   8.461 -0.1470  1.7815  4.7082
  396MOL0     H54597   0.465   7.684   8.532 -1.6025 -1.8966  0.4780
  396MOL0     H54598   0.443   8.053   8.625 -1.0876 -0.1591 -1.1428
  396MOL0     H54599   0.536   8.006   8.482  2.3945 -0.3055  0.5890
  396MOL0     H54600   0.550   7.891   8.757 -1.3066  2.4341  0.7285
  396MOL0     H54601   0.646   7.824   8.612  1.6889  2.0883 -2.2046
  396MOL0     H54602   0.673   8.117   8.715  2.0473  0.9212  0.2105
  396MOL0     H54603   0.761   7.982   8.769 -0.8153  0.3319  0.0106
  396MOL0     H54604   0.759   8.018   8.464 -0.3308  0.8896 -1.2472
  396MOL0     H54605   0.844   8.145   8.571 -1.8351 -0.5196  4.6046
  396MOL0     H54606   0.994   8.216   8.653 -2.4155 -0.3088  0.9766
  396MOL0     H54607   1.307   8.341   8.734 -0.3061 -1.7996 -1.4648
  396MOL0     H54608   1.196   8.331   8.886  0.7893 -0.4204 -0.3040
  396MOL0     H54609   1.133   8.377   8.732 -1.9778 -0.0170  1.2672
  396MOL0     H54610   1.603   8.141   8.992 -2.0174 -1.0878 -0.8901
  396MOL0     H54611   1.747   8.075   9.165 -0.4629 -2.4304  0.8711
  396MOL0     H54612   1.759   7.892   9.316 -0.7276 -1.5200  1.5684
  396MOL0     H54613   1.775   7.726   9.307 -0.9578  0.3115  2.9490
  396MOL0     H54614   1.880   7.790   9.502  0.5057  0.8607 -0.7434
  396MOL0     H54615   2.010   7.748   9.401 -0.0554 -0.8936  3.5139
  396MOL0     H54616   2.073   7.951   9.500  0.2751 -0.9392 -1.5616
  396MOL0     H54617   1.904   8.023   9.467 -1.6057 -1.4295  0.5254
  396MOL0     H54618   1.960   8.074   9.244  0.7767  2.5168  0.1938
  396MOL0     H54619   2.100   7.971   9.253 -1.1297 -0.6777 -2.4118
  396MOL0     H54620   2.044   8.224   9.424 -2.5667 -3.9323  0.4163
  396MOL0     H54621   2.193   8.133   9.429 -0.4118 -2.9544 -0.8572
  396MOL0     H54622   2.069   8.269   9.175  0.5615 -1.3042 -1.8904
  396MOL0     H54623   2.225   8.175   9.178 -0.7230 -2.4686  0.0849
  396MOL0     H54624   2.328   8.342   9.258  1.3158  2.9517  1.3658
  396MOL0     H54625   2.209   8.423   9.359  2.2364 -0.3109  0.3350
  396MOL0     H54626   2.094   8.493   9.140  0.5273  0.9746 -0.3784
  396MOL0     H54627   2.236   8.427   9.058  0.9687  0.8768 -0.5985
  396MOL0     H54628   1.812   7.697   8.975  1.9150  1.9686  1.0473
  396MOL0     H54629   1.668   7.771   8.785 -0.6343 -0.3606 -0.7222
  396MOL0     H54630   1.324   7.864   8.705  0.5558 -0.0297 -0.1170
  396MOL0     H54631   1.116   7.805   8.615  1.7086 -1.2575  3.4275
  396MOL0     H54632   0.780   6.984   8.708  0.2421  0.5544  1.8953
  396MOL0     H54633   0.996   7.024   8.824  1.8345  2.3186  0.7067
  396MOL0     H54634   1.373   7.105   8.871 -0.0271  0.4133 -0.8208
  396MOL0     H54635   1.593   7.106   8.948  1.2696 -0.1776 -1.8443
  396MOL0     H54636   1.824   7.482   8.916  2.9887  1.8396  1.1667
  396MOL0     H54637   1.914   7.399   9.038 -0.1853  1.8472 -1.9413
  396MOL0     H54638   1.863   7.280   8.777 -0.4835  0.9864  1.6040
  396MOL0     H54639   1.941   7.199   8.903 -2.4385 -0.6564  1.6793
  396MOL0     H54640   2.012   7.451   8.734 -2.1366 -0.2064  2.7511
  396MOL0     H54641   2.124   7.409   8.867  1.3889  3.5446 -3.5942
  396MOL0     H54642   2.205   7.311   8.653 -0.8865  2.4535 -0.5380
  396MOL0     H54643   2.054   7.231   8.606  2.7490 -2.3645 -1.7862
  396MOL0     H54644   2.259   6.955   8.840  0.5322  0.1543 -0.0740
  396MOL0     H54645   1.609   7.526   8.947  0.1593 -0.3877 -0.0523
  396MOL0     H54646   1.292   7.627   8.910 -1.0880 -1.1130 -0.9562
  396MOL0     H54647   1.460   7.640   8.836  2.1727 -1.6415 -1.4437
  396MOL0     H54648   1.329   7.569   8.746 -1.7718  1.4465 -0.0172
  397MOL0     O54649   0.839   2.689   7.656 -0.2513 -1.0148 -0.5095
  397MOL0     C54650   0.941   2.671   7.723 -0.0912 -0.5613 -0.4865
  397MOL0     O54651   1.047   2.757   7.734 -0.0018 -0.6297 -0.5893
  397MOL0     C54652   1.052   2.879   7.673 -0.6193 -0.7856 -0.9416
  397MOL0     C54653   0.993   2.905   7.546 -0.1757 -0.2493 -0.2076
  397MOL0     C54654   0.981   3.037   7.495  0.5845  0.4186  0.0771
  397MOL0     C54655   1.037   3.152   7.565 -0.9893  0.6550  0.8161
  397MOL0     O54656   1.024   3.272   7.512  0.0195 -0.3950  1.0402
  397MOL0     C54657   1.086   3.302   7.387 -0.2466  1.2738  0.2563
  397MOL0     C54658   1.070   3.457   7.370 -0.4383  0.5449 -0.0337
  397MOL0     C54659   0.931   3.503   7.316  0.1355  0.3773  0.1855
  397MOL0     C54660   0.810   3.548   7.415 -0.4626 -0.7659  0.3948
  397MOL0     C54661   0.849   3.645   7.521  0.9497 -0.4086 -0.8401
  397MOL0     C54662   0.880   3.785   7.457 -0.4585 -0.8676 -0.4519
  397MOL0     C54663   0.904   3.884   7.577  1.2260  0.0223  0.2005
  397MOL0     C54664   0.989   3.996   7.545  0.2124  0.9030 -0.2319
  397MOL0     N54665   1.010   4.074   7.666  0.0483 -0.0848  0.5416
  397MOL0     C54666   0.928   4.168   7.719 -0.2944 -0.0873 -1.2568
  397MOL0     C54667   0.995   4.210   7.832  0.4176 -0.1876 -1.0498
  397MOL0     C54668   0.959   4.313   7.927 -0.2684 -0.0691 -0.0567
  397MOL0     C54669   0.925   4.436   7.831  0.2657  0.7693  0.7214
  397MOL0     C54670   0.876   4.558   7.910  0.4680 -0.0633  0.1729
  397MOL0     C54671   0.725   4.564   7.955 -0.1311  0.3199 -0.1478
  397MOL0     O54672   0.639   4.624   7.849  0.8714 -0.2079  0.0721
  397MOL0     C54673   0.521   4.675   7.897  0.0389 -0.1688 -0.1457
  397MOL0     C54674   0.469   4.652   8.024 -0.4463 -0.2030  0.0542
  397MOL0     C54675   0.366   4.729   8.079 -0.0509  0.9421 -0.1726
  397MOL0     C54676   0.328   4.681   8.213  0.6071 -0.0455 -0.6126
  397MOL0     C54677   0.318   4.835   8.015  1.0791 -0.5266 -0.5253
  397MOL0     C54678   0.205   4.923   8.068 -0.9285 -0.1117  0.1107
  397MOL0     O54679   0.107   4.966   7.980 -0.5481  0.0596 -0.2672
  397MOL0     C54680   0.040   5.079   8.041 -0.6674 -0.7575 -0.0860
  397MOL0     C54681  -0.075   5.051   8.124 -0.2480  0.3611 -0.5918
  397MOL0     C54682  -0.175   5.138   8.143  0.2241 -0.0360  0.0458
  397MOL0     C54683  -0.148   5.267   8.102  0.4920  0.2233  0.1164
  397MOL0     O54684  -0.233   5.371   8.139 -0.8248  0.3842  0.0350
  397MOL0     C54685  -0.160   5.483   8.196  0.8186  0.0186 -0.2089
  397MOL0     C54686  -0.246   5.602   8.248  0.6164  0.3605  1.3823
  397MOL0     C54687  -0.362   5.645   8.156 -0.1947  0.5637  0.2903
  397MOL0     C54688  -0.395   5.794   8.161  1.4395 -1.3279 -0.1638
  397MOL0     C54689  -0.424   5.832   8.300 -0.6577  0.2763 -0.4461
  397MOL0     C54690  -0.484   5.972   8.333 -0.7319 -0.0518  0.0338
  397MOL0     C54691  -0.612   5.999   8.262 -0.2589  0.3360  0.2090
  397MOL0     C54692  -0.691   6.103   8.329  0.9430 -1.2680  0.5251
  397MOL0    Cl54693  -0.858   6.118   8.258  0.2479  0.1724 -0.4004
  397MOL0     C54694  -0.032   5.304   8.031 -0.7668 -0.4825 -0.1745
  397MOL0     C54695   0.060   5.204   7.988 -0.7530 -0.4824 -0.9948
  397MOL0     O54696   0.209   4.953   8.185 -0.1898  0.1310 -0.6309
  397MOL0     C54697   0.357   4.857   7.881 -0.5028  0.2265 -0.2844
  397MOL0     C54698   0.466   4.778   7.819 -0.7911  0.2490  0.1602
  397MOL0     N54699   1.110   4.132   7.847  0.0968  0.2214 -0.0497
  397MOL0     N54700   1.122   4.052   7.748 -0.3637 -0.0739  0.1806
  397MOL0     C54701   1.102   3.121   7.683  0.9004  0.1601 -0.2739
  397MOL0     C54702   1.105   2.993   7.740 -0.0558 -0.0725  0.6031
  397MOL0     C54703   0.954   2.539   7.798 -0.5848  0.2696 -0.2759
  397MOL0     C54704   1.042   2.529   7.914 -0.2148  0.6540 -0.1063
  397MOL0     C54705   1.035   2.422   8.006  0.4410  0.1740  0.5755
  397MOL0     C54706   0.955   2.310   7.985  0.4254  0.3051  0.2522
  397MOL0     O54707   0.953   2.199   8.063  0.1526  0.3509  0.7552
  397MOL0     C54708   1.071   2.165   8.137 -0.1182  0.4259 -0.0305
  397MOL0     C54709   1.069   2.191   8.293 -1.6766 -0.2266  0.4931
  397MOL0     C54710   0.960   2.116   8.353 -0.1448  0.3846  0.2237
  397MOL0     C54711   1.005   1.967   8.384 -1.0581 -0.1826  0.1298
  397MOL0     C54712   1.030   1.956   8.530 -0.2147 -0.1652  0.5733
  397MOL0     C54713   1.052   1.947   8.649  0.0210 -0.3614 -0.4727
  397MOL0     C54714   0.881   2.302   7.866  0.2839 -0.4848  0.7546
  397MOL0     C54715   0.869   2.414   7.777 -0.2174  0.0873  0.1959
  397MOL0     C54716   0.789   2.385   7.660  1.1348 -0.9833 -0.1595
  397MOL0     H54717   0.932   2.832   7.493 -0.8869  1.2763 -1.5910
  397MOL0     H54718   0.932   3.044   7.398  2.9523  1.4161 -1.1217
  397MOL0     H54719   1.047   3.245   7.302  3.8762  2.7749 -3.0007
  397MOL0     H54720   1.191   3.276   7.401 -0.0199  1.1298 -1.4799
  397MOL0     H54721   1.094   3.514   7.460  3.2953 -2.1085  0.8782
  397MOL0     H54722   1.144   3.507   7.307 -0.8741  1.8264  0.4416
  397MOL0     H54723   0.949   3.594   7.257  1.9788 -0.0341  0.0265
  397MOL0     H54724   0.895   3.434   7.238  1.4465  0.2037 -0.2980
  397MOL0     H54725   0.734   3.589   7.348 -0.8245 -3.2245 -0.8193
  397MOL0     H54726   0.764   3.465   7.471 -0.7917 -1.0445 -0.2858
  397MOL0     H54727   0.936   3.621   7.583 -1.1342 -0.3256  2.3537
  397MOL0     H54728   0.775   3.648   7.602  0.3930  1.4909 -1.3621
  397MOL0     H54729   0.965   3.781   7.388  0.5428  0.5126  0.6526
  397MOL0     H54730   0.796   3.824   7.400 -2.2808  1.2078  3.3157
  397MOL0     H54731   0.952   3.837   7.663  3.5272  2.8324  0.6126
  397MOL0     H54732   0.810   3.938   7.597  0.2521 -0.7464 -2.0117
  397MOL0     H54733   1.085   3.970   7.500  0.3825  3.5481 -1.5772
  397MOL0     H54734   0.940   4.061   7.472  2.4988  1.0986 -1.7183
  397MOL0     H54735   0.830   4.197   7.682  0.0929  1.2530 -1.2763
  397MOL0     H54736   1.047   4.339   7.987  0.7302  0.0179 -1.5139
  397MOL0     H54737   0.870   4.302   7.990 -0.3748 -1.3041 -0.3920
  397MOL0     H54738   1.016   4.461   7.777 -1.9625  1.4939 -3.0864
  397MOL0     H54739   0.854   4.422   7.749  0.2722  1.6645  0.5521
  397MOL0     H54740   0.942   4.546   7.996  0.5008 -1.6381 -0.0306
  397MOL0     H54741   0.893   4.653   7.859 -0.8766  0.9007  1.4493
  397MOL0     H54742   0.697   4.460   7.977  2.1154 -0.7756 -1.9460
  397MOL0     H54743   0.713   4.621   8.048  0.8511 -0.8011  0.7090
  397MOL0     H54744   0.517   4.569   8.076  1.5961  0.4899 -0.6090
  397MOL0     H54745   0.368   4.750   8.287  0.1404  0.0619 -0.4569
  397MOL0     H54746   0.370   4.584   8.243  2.7097  1.1621  0.5950
  397MOL0     H54747   0.219   4.684   8.215  0.6029 -0.0902  1.9496
  397MOL0     H54748  -0.093   4.947   8.149  2.3241 -0.0027  0.0899
  397MOL0     H54749  -0.270   5.114   8.189 -1.3917 -1.2326 -3.5666
  397MOL0     H54750  -0.111   5.453   8.289  2.8577  0.7326 -0.9912
  397MOL0     H54751  -0.092   5.532   8.125  1.6582 -0.9999 -0.1337
  397MOL0     H54752  -0.292   5.581   8.345 -0.5850  0.6760  0.9090
  397MOL0     H54753  -0.164   5.671   8.267  4.2731 -2.8105 -1.3567
  397MOL0     H54754  -0.443   5.581   8.192  0.4961 -0.7807 -0.4808
  397MOL0     H54755  -0.347   5.609   8.054 -0.1478 -0.0137  0.4973
  397MOL0     H54756  -0.473   5.808   8.086  0.7798  0.9866  0.8571
  397MOL0     H54757  -0.309   5.848   8.120  0.1142 -0.0588 -1.4145
  397MOL0     H54758  -0.495   5.755   8.330 -0.8062  0.5325 -0.1378
  397MOL0     H54759  -0.333   5.808   8.357 -2.6480 -1.1437  2.3353
  397MOL0     H54760  -0.409   6.047   8.308  1.3205 -2.9979 -3.5868
  397MOL0     H54761  -0.492   5.984   8.442  2.0737  4.0985 -0.0008
  397MOL0     H54762  -0.677   5.912   8.250 -0.0836  0.3606 -1.0789
  397MOL0     H54763  -0.588   6.013   8.156  0.6710 -1.4778  0.1555
  397MOL0     H54764  -0.638   6.199   8.317  3.5124 -2.2809  2.6930
  397MOL0     H54765  -0.707   6.091   8.437 -0.0538 -0.7332  0.4432
  397MOL0     H54766  -0.032   5.399   7.978 -0.7557 -0.1775  0.3642
  397MOL0     H54767   0.137   5.222   7.914  0.3297 -0.1764  0.1581
  397MOL0     H54768   0.317   4.936   7.818  0.0272 -2.8948 -5.1333
  397MOL0     H54769   0.498   4.783   7.715 -5.1047  1.3749 -1.3439
  397MOL0     H54770   1.138   3.210   7.733  3.5163 -1.0162  0.1210
  397MOL0     H54771   1.157   2.989   7.836 -1.0184  0.2028  1.1518
  397MOL0     H54772   1.116   2.604   7.941 -0.8834  1.3939 -0.2825
  397MOL0     H54773   1.105   2.421   8.089  0.1101  0.0258  0.8540
  397MOL0     H54774   1.092   2.058   8.127  1.1528  0.6445  0.1161
  397MOL0     H54775   1.156   2.225   8.103  0.9336 -1.0044 -0.0216
  397MOL0     H54776   1.069   2.300   8.297  1.0418  0.2138 -4.0864
  397MOL0     H54777   1.162   2.145   8.328  0.3551  0.8866 -2.9640
  397MOL0     H54778   0.913   2.170   8.435  2.2778 -1.0708  2.7325
  397MOL0     H54779   0.876   2.110   8.283 -0.3373  0.2155  0.4728
  397MOL0     H54780   1.095   1.931   8.333 -1.2219  1.5355 -1.4735
  397MOL0     H54781   0.927   1.906   8.338 -0.1883 -2.1942  1.2101
  397MOL0     H54782   1.082   1.936   8.751  4.6669 -3.4393 -1.8456
  397MOL0     H54783   0.821   2.214   7.845 -0.5515 -0.1740  1.7527
  397MOL0     H54784   0.826   2.434   7.569  0.9715 -1.5538 -0.5373
  397MOL0     H54785   0.798   2.279   7.637  0.1655 -0.7424 -1.9251
  397MOL0     H54786   0.683   2.415   7.668  1.2041 -0.1260 -1.9408
  398MOL0     O54787  10.240   3.082   0.305 -0.4584  0.2697 -0.1163
  398MOL0     C54788  10.348   3.035   0.271  0.2712 -0.3815  0.0476
  398MOL0     O54789  10.377   2.953   0.163  0.4405  0.8814 -0.1653
  398MOL0     C54790  10.296   2.914   0.059 -0.4460 -0.5216  0.9695
  398MOL0     C54791  10.362   2.859  -0.055 -0.3163 -0.1302 -0.5503
  398MOL0     C54792  10.295   2.837  -0.177  0.2772  0.7501  0.4773
  398MOL0     C54793  10.158   2.865  -0.191 -0.5357 -0.4780 -0.5405
  398MOL0     O54794  10.099   2.845  -0.316 -0.5490 -0.1075 -0.1789
  398MOL0     C54795   9.998   2.935  -0.361 -0.4833 -0.7806  0.0844
  398MOL0     C54796  10.063   3.058  -0.408 -0.0120 -0.2751 -0.1650
  398MOL0     C54797   9.970   3.157  -0.469 -1.1155  0.1171 -0.1616
  398MOL0     C54798   9.858   3.201  -0.382 -0.3257 -0.4311  0.1835
  398MOL0     C54799   9.901   3.295  -0.271  0.4291  1.0034 -0.3854
  398MOL0     C54800   9.772   3.351  -0.199  0.1288  0.8468  0.1503
  398MOL0     C54801   9.804   3.446  -0.077  0.8256 -0.4714  1.5381
  398MOL0     C54802   9.696   3.442   0.033  0.2859  1.1137 -0.0350
  398MOL0     N54803   9.697   3.582   0.093  0.0200 -0.3343 -0.5433
  398MOL0     C54804   9.595   3.672   0.084  0.6127  0.1003 -0.6936
  398MOL0     C54805   9.632   3.780   0.156  0.7907  0.2212 -0.5900
  398MOL0     C54806   9.549   3.903   0.189  0.4271 -0.0443 -0.4909
  398MOL0     C54807   9.585   4.023   0.094  1.0717  0.5270  0.4707
  398MOL0     C54808   9.481   4.136   0.088 -0.0795 -0.4336 -0.3847
  398MOL0     C54809   9.436   4.187   0.231  0.4272  0.8680  0.1637
  398MOL0     O54810   9.363   4.313   0.228  0.5692 -0.6965 -0.1239
  398MOL0     C54811   9.248   4.310   0.315  0.8185 -1.3636 -0.0011
  398MOL0     C54812   9.124   4.349   0.260  0.1854 -0.1017 -0.7392
  398MOL0     C54813   9.005   4.356   0.331  0.8743 -0.8643 -0.5547
  398MOL0     C54814   8.875   4.392   0.261 -0.1964 -0.1981 -1.0148
  398MOL0     C54815   9.013   4.354   0.472  1.0199 -0.0579  0.5889
  398MOL0     C54816   8.907   4.403   0.566 -0.1442  0.9023 -0.7783
  398MOL0     O54817   8.942   4.401   0.703  0.2433  0.0882 -0.7247
  398MOL0     C54818   8.860   4.456   0.797  0.5617  0.4824 -0.4234
  398MOL0     C54819   8.772   4.370   0.866 -0.5305 -0.0785  1.1790
  398MOL0     C54820   8.690   4.425   0.952  0.6026  0.2338 -0.5124
  398MOL0     C54821   8.679   4.568   0.975  0.0695  0.4992  0.8897
  398MOL0     O54822   8.585   4.627   1.053 -0.2440  0.9843 -0.4039
  398MOL0     C54823   8.446   4.573   1.035 -0.1399 -1.0125  0.0987
  398MOL0     C54824   8.369   4.634   0.913  0.1813 -0.0018 -0.0662
  398MOL0     C54825   8.371   4.790   0.920 -0.3253  0.9808  0.5408
  398MOL0     C54826   8.285   4.844   0.816 -0.5932 -1.3400 -0.6694
  398MOL0     C54827   8.345   4.816   0.675 -0.2935 -0.5551 -0.2598
  398MOL0     C54828   8.272   4.878   0.558 -0.4126 -0.5078  1.2024
  398MOL0     C54829   8.327   4.827   0.422 -0.0694 -0.5305 -0.4303
  398MOL0     C54830   8.222   4.765   0.330  1.3020  0.0696 -0.6713
  398MOL0    Cl54831   8.082   4.878   0.290 -0.1711  0.1436  0.2022
  398MOL0     C54832   8.762   4.651   0.909  0.4095  0.0373  0.2189
  398MOL0     C54833   8.847   4.594   0.816  0.0844  0.2663  0.1748
  398MOL0     O54834   8.802   4.457   0.524 -0.3800 -0.0803  0.4343
  398MOL0     C54835   9.135   4.313   0.533  1.2606 -0.0434 -0.2145
  398MOL0     C54836   9.251   4.290   0.451  0.8986  0.7989 -0.3881
  398MOL0     N54837   9.759   3.752   0.206  0.5463 -0.7833  0.4742
  398MOL0     N54838   9.800   3.631   0.171  0.2518  0.2050 -0.6239
  398MOL0     C54839  10.088   2.911  -0.077  0.1869  0.6956 -0.6545
  398MOL0     C54840  10.156   2.930   0.052 -0.3906  0.1934  0.1345
  398MOL0     C54841  10.458   3.054   0.363  1.0385  1.0354  0.8808
  398MOL0     C54842  10.540   2.945   0.386  0.0041  0.1122  0.7565
  398MOL0     C54843  10.632   2.947   0.489  0.1651 -0.7454  0.2628
  398MOL0     C54844  10.664   3.064   0.553  0.3323 -0.5310 -0.7490
  398MOL0     O54845  10.755   3.062   0.658  0.8640  0.7326  0.2163
  398MOL0     C54846  10.809   3.175   0.730  1.1840  0.0359  0.6110
  398MOL0     C54847  10.716   3.215   0.844 -0.3170 -0.4921  0.7321
  398MOL0     C54848  10.659   3.091   0.919  0.6608 -0.1953 -0.4033
  398MOL0     C54849  10.757   2.994   0.982 -0.7648  0.0357 -0.2480
  398MOL0     C54850  10.861   3.051   1.061 -0.5838  0.2408 -0.7198
  398MOL0     C54851  10.941   3.110   1.136 -0.0050 -0.1034  0.3958
  398MOL0     C54852  10.587   3.182   0.516 -0.7467  0.2160  0.1592
  398MOL0     C54853  10.482   3.174   0.419 -0.3295 -0.9682  0.5096
  398MOL0     C54854  10.409   3.300   0.377  0.0929 -0.0593 -0.4552
  398MOL0     H54855  10.468   2.843  -0.043 -0.5169 -0.0492  1.9109
  398MOL0     H54856  10.360   2.803  -0.257  1.8963  4.1169  0.1721
  398MOL0     H54857   9.920   2.936  -0.284  0.1733 -0.4177  0.7625
  398MOL0     H54858   9.966   2.881  -0.450  0.8975 -0.5409 -0.5899
  398MOL0     H54859  10.132   3.102  -0.335 -0.3033  0.8349 -0.5347
  398MOL0     H54860  10.126   3.014  -0.486 -1.6817 -1.2231 -1.0291
  398MOL0     H54861  10.022   3.242  -0.513 -0.0363 -0.1516  0.5532
  398MOL0     H54862   9.907   3.108  -0.544 -1.1509  0.0891 -0.1133
  398MOL0     H54863   9.787   3.258  -0.443 -1.3983 -0.9124  0.9488
  398MOL0     H54864   9.790   3.122  -0.349  0.2301 -0.5427  1.0854
  398MOL0     H54865   9.965   3.371  -0.315  0.6428  1.1413  0.1494
  398MOL0     H54866   9.971   3.253  -0.198  1.6489  2.7629 -0.4733
  398MOL0     H54867   9.704   3.405  -0.266 -0.8293 -0.6126 -0.0827
  398MOL0     H54868   9.728   3.264  -0.149  0.8930 -0.6644 -1.7050
  398MOL0     H54869   9.813   3.542  -0.128  2.1078 -0.7183  1.2699
  398MOL0     H54870   9.896   3.425  -0.022  2.9577  1.2339 -1.1322
  398MOL0     H54871   9.596   3.416  -0.004  0.6501  0.7692 -0.8006
  398MOL0     H54872   9.720   3.367   0.109  0.0673 -1.3087 -2.2351
  398MOL0     H54873   9.499   3.660   0.035  1.1646 -1.7297 -1.4320
  398MOL0     H54874   9.559   3.933   0.294 -1.5417  0.0311 -0.2734
  398MOL0     H54875   9.445   3.873   0.171  0.0880  1.4927 -1.3062
  398MOL0     H54876   9.679   4.072   0.123  0.7826 -0.8076  4.2363
  398MOL0     H54877   9.598   3.992  -0.010 -0.2943 -1.8358  0.9492
  398MOL0     H54878   9.525   4.214   0.025 -3.7155 -0.4272 -3.2609
  398MOL0     H54879   9.391   4.102   0.037 -3.1452  3.9756  1.4745
  398MOL0     H54880   9.384   4.105   0.281  2.8521 -2.6698 -2.5410
  398MOL0     H54881   9.525   4.194   0.295  0.1143  3.0776  0.4185
  398MOL0     H54882   9.122   4.381   0.156 -0.2774 -2.3681 -1.4908
  398MOL0     H54883   8.791   4.349   0.315 -2.0415  0.9632 -2.8372
  398MOL0     H54884   8.869   4.336   0.168 -4.2444 -2.0083  0.1396
  398MOL0     H54885   8.861   4.500   0.246  2.3488 -0.1103 -3.8586
  398MOL0     H54886   8.772   4.263   0.849  2.1817  0.2444 -1.9242
  398MOL0     H54887   8.626   4.376   1.025 -0.9402  0.5610 -1.5879
  398MOL0     H54888   8.444   4.464   1.022 -1.5389 -0.8019 -1.8019
  398MOL0     H54889   8.389   4.594   1.126 -0.0472  0.6415 -0.1932
  398MOL0     H54890   8.415   4.605   0.818  0.4090  1.7089 -0.5118
  398MOL0     H54891   8.275   4.579   0.908  1.5339 -2.3600 -2.9923
  398MOL0     H54892   8.471   4.832   0.905 -0.1845  0.6210  0.4348
  398MOL0     H54893   8.335   4.806   1.022 -0.3024  1.1084  0.5288
  398MOL0     H54894   8.275   4.950   0.842  2.9299 -1.9240  4.7117
  398MOL0     H54895   8.181   4.812   0.827 -2.1174  3.5541  1.6531
  398MOL0     H54896   8.449   4.847   0.683 -0.5141 -0.3037  5.5580
  398MOL0     H54897   8.352   4.708   0.659  3.1191 -0.0201 -4.1247
  398MOL0     H54898   8.275   4.986   0.544 -2.7189 -0.6903 -1.5731
  398MOL0     H54899   8.164   4.863   0.558 -0.3385 -1.2256 -0.4189
  398MOL0     H54900   8.399   4.746   0.429  2.1858  1.4471  0.9362
  398MOL0     H54901   8.387   4.907   0.377  1.5355  0.2246  2.7508
  398MOL0     H54902   8.179   4.675   0.375  0.8473  1.7520  2.5463
  398MOL0     H54903   8.267   4.723   0.240  6.2104 -1.6177  2.1171
  398MOL0     H54904   8.740   4.757   0.921 -0.6304 -0.0266 -0.8388
  398MOL0     H54905   8.913   4.660   0.761  1.5630 -2.2427 -1.2641
  398MOL0     H54906   9.154   4.313   0.640 -1.0898 -0.5454  0.2519
  398MOL0     H54907   9.349   4.290   0.498  1.2673  2.7218 -1.0966
  398MOL0     H54908   9.980   2.924  -0.077 -0.4124 -2.7551  1.9948
  398MOL0     H54909  10.099   2.969   0.136  0.4896 -0.7815  1.2377
  398MOL0     H54910  10.530   2.848   0.337 -0.3094  0.7864 -0.5673
  398MOL0     H54911  10.689   2.862   0.522  1.6879  0.4849  0.9337
  398MOL0     H54912  10.909   3.146   0.765  2.0179  2.8177  0.8143
  398MOL0     H54913  10.825   3.257   0.660  1.6030  0.0326  0.6977
  398MOL0     H54914  10.632   3.265   0.795 -0.0755  1.7075  2.4100
  398MOL0     H54915  10.754   3.289   0.915  0.6473  0.1773 -0.4437
  398MOL0     H54916  10.596   3.139   0.994  0.4347 -0.5142 -0.3884
  398MOL0     H54917  10.592   3.034   0.854 -2.1742 -0.5515  2.5760
  398MOL0     H54918  10.799   2.945   0.894 -1.9476  1.0813 -1.4328
  398MOL0     H54919  10.714   2.920   1.050  1.6335  0.2690  1.7091
  398MOL0     H54920  11.003   3.145   1.216  0.5640 -1.5706  0.6288
  398MOL0     H54921  10.612   3.269   0.577 -1.0445 -0.0923  0.7361
  398MOL0     H54922  10.438   3.381   0.444 -0.7346 -0.9522  1.0290
  398MOL0     H54923  10.452   3.334   0.282  3.0394 -1.4118  0.2516
  398MOL0     H54924  10.300   3.292   0.379  0.1197 -0.3744  1.4989
  399MOL0     O54925   8.004   7.143  10.766 -0.0547 -0.2513  0.0216
  399MOL0     C54926   8.117   7.140  10.725  0.4676  0.4848 -0.7004
  399MOL0     O54927   8.175   7.252  10.692  0.5713 -0.1898 -0.6445
  399MOL0     C54928   8.098   7.365  10.693 -0.6232  0.8741 -1.0636
  399MOL0     C54929   8.130   7.450  10.799  0.5369  0.0098  0.0567
  399MOL0     C54930   8.068   7.573  10.803  0.7790 -0.3282  0.1535
  399MOL0     C54931   7.969   7.611  10.714  0.2167  0.4829 -0.8637
  399MOL0     O54932   7.909   7.731  10.712 -0.2021 -0.4855  0.4980
  399MOL0     C54933   7.845   7.795  10.827 -1.2826 -0.8797  0.9604
  399MOL0     C54934   7.831   7.948  10.807  0.2376  0.0739 -1.0083
  399MOL0     C54935   7.703   7.984  10.730  0.1093 -1.1051  0.5562
  399MOL0     C54936   7.710   7.939  10.584 -0.7488  0.2146  0.0863
  399MOL0     C54937   7.581   7.989  10.520 -0.8749 -0.4808  0.2923
  399MOL0     C54938   7.559   7.954  10.375 -0.2093  0.1205 -0.2115
  399MOL0     C54939   7.652   8.015  10.271 -0.8162  0.1562  0.4895
  399MOL0     C54940   7.652   8.169  10.270  0.0834 -0.7189  0.3227
  399MOL0     N54941   7.734   8.236  10.371  0.1292  0.4529 -0.5944
  399MOL0     C54942   7.867   8.199  10.402  0.6796 -0.2891 -0.8070
  399MOL0     C54943   7.893   8.285  10.501  0.8126 -0.2981 -0.2417
  399MOL0     C54944   8.023   8.300  10.562  0.9684 -1.7313 -0.6248
  399MOL0     C54945   8.060   8.451  10.575 -0.4278 -0.1729 -0.4561
  399MOL0     C54946   8.078   8.512  10.436  0.6474 -0.1399 -0.5904
  399MOL0     C54947   8.211   8.475  10.372  0.2772 -0.8517  0.5793
  399MOL0     O54948   8.231   8.574  10.274  0.1413  1.1146  0.5220
  399MOL0     C54949   8.366   8.579  10.228  1.0733 -0.3925 -1.4859
  399MOL0     C54950   8.407   8.701  10.191  0.5295 -0.3119 -0.3979
  399MOL0     C54951   8.532   8.718  10.128 -0.0074  0.1711  0.7198
  399MOL0     C54952   8.567   8.860  10.083 -0.2951  0.3122  0.7219
  399MOL0     C54953   8.611   8.604  10.093  0.5763 -0.6381 -0.0979
  399MOL0     C54954   8.752   8.614  10.039  0.0283 -0.7968 -0.3154
  399MOL0     O54955   8.783   8.520   9.943 -1.3718  0.6382 -0.7867
  399MOL0     C54956   8.914   8.504   9.890 -0.4073 -0.1522  0.1443
  399MOL0     C54957   8.925   8.392   9.807  0.4321 -1.5301  0.1122
  399MOL0     C54958   9.057   8.361   9.751 -0.1892  0.1384  0.3356
  399MOL0     C54959   9.172   8.428   9.777 -0.5272 -0.7642  0.3196
  399MOL0     O54960   9.294   8.396   9.720  0.7427  0.8837 -0.6692
  399MOL0     C54961   9.382   8.324   9.810  0.5328  0.1812  0.4285
  399MOL0     C54962   9.503   8.249   9.750  0.6145 -0.7202 -0.5603
  399MOL0     C54963   9.623   8.348   9.740  0.5167  0.2820  0.3704
  399MOL0     C54964   9.752   8.281   9.694  0.1680  0.0549 -0.4258
  399MOL0     C54965   9.798   8.177   9.793  0.4886 -0.5758 -0.3169
  399MOL0     C54966   9.957   8.133   9.790  0.1257  0.5183 -0.1160
  399MOL0     C54967   9.989   8.101   9.641 -0.1825  0.4021  0.2530
  399MOL0     C54968  10.035   8.210   9.539  0.3522  0.2529  0.3686
  399MOL0    Cl54969  10.190   8.273   9.584  0.1019  0.1210 -0.1547
  399MOL0     C54970   9.155   8.541   9.851 -0.2598 -0.6326 -0.4057
  399MOL0     C54971   9.034   8.576   9.909 -0.0706  0.0558 -0.4166
  399MOL0     O54972   8.828   8.700  10.093 -0.5248 -0.1512  0.6774
  399MOL0     C54973   8.556   8.480  10.131 -0.1469  0.2597 -0.7651
  399MOL0     C54974   8.430   8.464  10.194  0.3578  0.4563  0.3436
  399MOL0     N54975   7.783   8.365  10.540 -0.2579  0.3082  0.4871
  399MOL0     N54976   7.696   8.344  10.451  0.5840  0.0835  0.5322
  399MOL0     C54977   7.953   7.527  10.603  0.3776 -0.9601 -0.3262
  399MOL0     C54978   8.016   7.406  10.594  0.0737  0.2296  0.1427
  399MOL0     C54979   8.192   7.012  10.701  0.3345 -0.7437 -0.5495
  399MOL0     C54980   8.330   7.028  10.674 -0.7034 -0.6850  0.6118
  399MOL0     C54981   8.412   6.919  10.671  1.0571  0.7541  0.1084
  399MOL0     C54982   8.362   6.784  10.684  0.5356 -0.9128 -1.0161
  399MOL0     O54983   8.454   6.680  10.672 -0.3942  0.2978  0.2912
  399MOL0     C54984   8.427   6.543  10.710  0.1932 -0.0627  0.2007
  399MOL0     C54985   8.542   6.499  10.797 -0.1338  0.2103  0.2274
  399MOL0     C54986   8.523   6.356  10.835  0.6429  0.3952 -0.4060
  399MOL0     C54987   8.523   6.246  10.731 -0.4687 -0.4525 -0.1577
  399MOL0     C54988   8.653   6.228  10.667 -1.0281 -0.6505  0.5106
  399MOL0     C54989   8.756   6.223  10.600  0.4563 -0.4350 -0.7098
  399MOL0     C54990   8.228   6.772  10.710 -0.3200 -0.5931 -0.1338
  399MOL0     C54991   8.142   6.881  10.709  0.3718  0.5129  0.7243
  399MOL0     C54992   7.989   6.848  10.732  0.3789  0.7648  0.0779
  399MOL0     H54993   8.217   7.430  10.861  0.2518 -0.4897  0.3011
  399MOL0     H54994   8.099   7.639  10.884  2.0312 -3.4341  2.4057
  399MOL0     H54995   7.917   7.778  10.907 -0.3517 -1.8782 -0.0586
  399MOL0     H54996   7.747   7.755  10.854 -1.7323  0.4834  1.4161
  399MOL0     H54997   7.819   7.987  10.908  0.8524 -1.0884 -0.4630
  399MOL0     H54998   7.928   7.986  10.774 -0.0268 -0.3736 -2.3625
  399MOL0     H54999   7.610   7.938  10.767 -1.1123 -0.0566 -1.0550
  399MOL0     H55000   7.708   8.093  10.729 -0.5141 -1.0713 -0.2129
  399MOL0     H55001   7.803   7.975  10.539 -0.7699  0.7141  0.4340
  399MOL0     H55002   7.724   7.830  10.580  4.1928  0.4726  2.2600
  399MOL0     H55003   7.581   8.099  10.522 -0.3494 -0.3264 -3.0789
  399MOL0     H55004   7.503   7.943  10.581 -1.2134  1.0711  1.1066
  399MOL0     H55005   7.546   7.846  10.366 -1.3485  0.2210  0.0538
  399MOL0     H55006   7.463   7.987  10.334  0.3660 -1.1665 -2.8314
  399MOL0     H55007   7.638   7.967  10.174  1.9592 -0.1555  0.1722
  399MOL0     H55008   7.754   7.981  10.294  0.3726  3.3444  0.3743
  399MOL0     H55009   7.671   8.220  10.175 -2.0124  1.6339  1.0779
  399MOL0     H55010   7.555   8.207  10.301  0.8634  1.5049  0.1962
  399MOL0     H55011   7.936   8.132  10.352 -3.1621 -2.9235 -3.0940
  399MOL0     H55012   8.095   8.245  10.501  0.5008 -0.8492 -2.0288
  399MOL0     H55013   8.015   8.257  10.662  2.5174  1.4074  0.9826
  399MOL0     H55014   7.980   8.506  10.626  1.9729  0.2466  3.2831
  399MOL0     H55015   8.153   8.464  10.632 -1.2923 -1.2331  1.2826
  399MOL0     H55016   7.995   8.491  10.368  0.5264 -0.1883 -0.4249
  399MOL0     H55017   8.075   8.620  10.455 -0.6193 -0.3679  0.6383
  399MOL0     H55018   8.285   8.475  10.453 -0.4476 -0.0221  1.2740
  399MOL0     H55019   8.200   8.374  10.333  1.5433  1.0881 -6.0974
  399MOL0     H55020   8.356   8.794  10.212 -1.2225 -1.7085  2.0147
  399MOL0     H55021   8.477   8.918  10.061 -0.6789 -0.7495 -0.6032
  399MOL0     H55022   8.629   8.862   9.992  0.9825 -1.6890  1.4928
  399MOL0     H55023   8.627   8.910  10.160  2.6785  0.6063 -1.5879
  399MOL0     H55024   8.836   8.331   9.795  0.1082 -1.5978  2.3806
  399MOL0     H55025   9.072   8.268   9.697  0.4778  1.4535 -1.8119
  399MOL0     H55026   9.419   8.400   9.879 -0.5923 -0.1297  1.4057
  399MOL0     H55027   9.329   8.253   9.875  2.9800  0.0434  2.4242
  399MOL0     H55028   9.518   8.177   9.831  1.2902 -0.8959 -0.8351
  399MOL0     H55029   9.467   8.216   9.652 -0.7057  0.8376 -0.6527
  399MOL0     H55030   9.627   8.406   9.833  0.8479  1.5302 -0.4102
  399MOL0     H55031   9.604   8.426   9.667 -0.9316  1.0267  1.4818
  399MOL0     H55032   9.819   8.366   9.706 -0.1282 -0.0035  2.1544
  399MOL0     H55033   9.738   8.234   9.596 -2.5166 -0.7475  0.2421
  399MOL0     H55034   9.779   8.196   9.899  3.3170 -3.1365  0.8060
  399MOL0     H55035   9.744   8.084   9.770  1.3380 -0.9485 -0.8606
  399MOL0     H55036   9.966   8.039   9.845  2.0741  2.3686  2.9926
  399MOL0     H55037  10.024   8.203   9.840  0.1544  2.6200 -2.8331
  399MOL0     H55038   9.903   8.055   9.590  1.8451 -2.4030 -0.9433
  399MOL0     H55039  10.070   8.028   9.640  0.9454  1.5198 -2.7276
  399MOL0     H55040   9.956   8.285   9.528 -3.2506 -3.0855  1.2362
  399MOL0     H55041  10.037   8.167   9.438  0.4777  4.2645 -1.5334
  399MOL0     H55042   9.240   8.605   9.873  0.5760 -1.4435 -1.1728
  399MOL0     H55043   9.040   8.662   9.974  0.2743 -1.5204  1.7674
  399MOL0     H55044   8.611   8.388  10.110 -0.5780  0.6102 -3.9263
  399MOL0     H55045   8.385   8.366  10.204 -1.0921  0.8832 -1.4783
  399MOL0     H55046   7.889   7.555  10.520 -1.4549 -0.1415  1.2882
  399MOL0     H55047   8.016   7.353  10.500 -2.3436 -0.2763  0.3835
  399MOL0     H55048   8.382   7.123  10.666 -1.0673 -0.6010 -1.5513
  399MOL0     H55049   8.518   6.938  10.654  1.4476 -1.0157  0.3865
  399MOL0     H55050   8.330   6.543  10.759  0.1590  1.2303  0.1676
  399MOL0     H55051   8.414   6.478  10.624 -0.1537 -1.2337  1.1175
  399MOL0     H55052   8.542   6.561  10.887  0.4938  1.6188 -0.7122
  399MOL0     H55053   8.632   6.511  10.737 -2.3660  0.4800 -3.3412
  399MOL0     H55054   8.588   6.326  10.918  0.0153  1.4050  0.4900
  399MOL0     H55055   8.423   6.356  10.880  1.0291 -0.3592  0.4798
  399MOL0     H55056   8.439   6.260  10.663 -1.1867 -2.5458  0.2260
  399MOL0     H55057   8.507   6.153  10.786 -4.1452  0.3828  0.4399
  399MOL0     H55058   8.840   6.242  10.537  1.5841 -0.4828  0.7499
  399MOL0     H55059   8.186   6.674  10.693  0.8927 -1.5288  1.9878
  399MOL0     H55060   7.947   6.780  10.658 -0.2401  2.3016 -1.0526
  399MOL0     H55061   7.962   6.816  10.833  0.5398  0.3225 -0.0197
  399MOL0     H55062   7.931   6.938  10.708 -1.2251 -0.3924 -0.4951
  400MOL0     O55063   3.335  10.832   2.995 -0.6881  1.0112  0.0335
  400MOL0     C55064   3.251  10.879   2.913 -0.0619  0.0061  0.1520
  400MOL0     O55065   3.146  10.970   2.951  0.3140 -0.6211  0.0438
  400MOL0     C55066   3.156  11.007   3.084  0.4533 -0.1782 -0.4311
  400MOL0     C55067   3.219  11.128   3.124 -0.2682  0.3049  1.0643
  400MOL0     C55068   3.223  11.157   3.262 -0.4012  0.1780 -0.6146
  400MOL0     C55069   3.176  11.068   3.363 -0.1050  0.1313 -0.7279
  400MOL0     O55070   3.194  11.080   3.500  0.5152 -0.1091  0.5196
  400MOL0     C55071   3.255  11.186   3.568 -0.6693 -0.3748  0.1709
  400MOL0     C55072   3.161  11.301   3.581  0.2358  0.4744  0.5218
  400MOL0     C55073   3.205  11.386   3.706  0.4184  0.1253 -0.2203
  400MOL0     C55074   3.094  11.488   3.736 -0.1969 -0.5580  0.3270
  400MOL0     C55075   3.121  11.560   3.865 -0.9482 -0.1059 -0.2110
  400MOL0     C55076   3.222  11.680   3.845 -0.4740 -0.0981  0.1597
  400MOL0     C55077   3.176  11.808   3.913 -0.4928 -0.1370 -0.6023
  400MOL0     C55078   3.241  11.935   3.878 -0.4495 -0.1489 -0.6094
  400MOL0     N55079   3.392  11.933   3.904  1.0002  0.5244  0.0652
  400MOL0     C55080   3.463  11.879   4.016  0.1709  0.3917  0.3520
  400MOL0     C55081   3.581  11.934   4.014  0.3826  0.1164 -0.2738
  400MOL0     C55082   3.691  11.905   4.108  0.0212 -0.4562 -0.0327
  400MOL0     C55083   3.657  11.997   4.235 -0.2020  0.3015  0.2387
  400MOL0     C55084   3.748  11.975   4.359  0.0580  1.3032 -0.1887
  400MOL0     C55085   3.676  11.874   4.458 -0.1767 -0.4431 -0.1461
  400MOL0     O55086   3.608  11.764   4.392 -0.1318 -0.1545  0.0087
  400MOL0     C55087   3.540  11.674   4.476  0.1013  0.6144 -0.6887
  400MOL0     C55088   3.478  11.567   4.415 -0.3253  0.1036 -0.5289
  400MOL0     C55089   3.407  11.465   4.488  0.1011 -0.4975 -0.3464
  400MOL0     C55090   3.336  11.357   4.414  0.5846  0.2395  0.3569
  400MOL0     C55091   3.392  11.470   4.631  0.1742  0.6024  0.8075
  400MOL0     C55092   3.307  11.389   4.710 -0.1820 -0.2938  0.8747
  400MOL0     O55093   3.332  11.395   4.838 -0.1785  0.4305 -0.9153
  400MOL0     C55094   3.229  11.367   4.919 -0.1048  1.1087 -0.1122
  400MOL0     C55095   3.265  11.293   5.032  0.2861 -0.3184  0.3879
  400MOL0     C55096   3.173  11.274   5.138 -1.0739 -0.5097  0.0608
  400MOL0     C55097   3.043  11.318   5.127  0.0032 -0.2907  0.9384
  400MOL0     O55098   2.954  11.295   5.220  0.3091  0.4956 -0.1535
  400MOL0     C55099   2.870  11.178   5.190  0.2602 -0.4282  0.7245
  400MOL0     C55100   2.783  11.158   5.318  0.3108  0.6879 -0.5346
  400MOL0     C55101   2.859  11.135   5.452  0.4760  0.0840  0.7063
  400MOL0     C55102   2.769  11.123   5.575 -0.5246  0.7105  0.3343
  400MOL0     C55103   2.869  11.108   5.703 -0.5087  0.6694  1.0213
  400MOL0     C55104   2.785  11.096   5.835 -0.0425  0.1936 -0.1829
  400MOL0     C55105   2.854  11.088   5.978  0.0367 -1.0164  1.1202
  400MOL0     C55106   2.914  11.224   6.038 -0.1262  0.5389 -0.5959
  400MOL0    Cl55107   2.788  11.354   6.030  0.0864 -0.6403  0.0939
  400MOL0     C55108   3.003  11.390   5.015 -0.2091  0.3633 -0.2734
  400MOL0     C55109   3.093  11.411   4.906 -0.3212 -0.1942  0.6080
  400MOL0     O55110   3.211  11.336   4.654 -0.6254 -0.0431 -0.5136
  400MOL0     C55111   3.467  11.574   4.692  0.5056  0.3113  1.3855
  400MOL0     C55112   3.538  11.676   4.614  0.3322  0.7027 -0.1034
  400MOL0     N55113   3.598  12.009   3.906 -0.6268 -0.3636 -0.1518
  400MOL0     N55114   3.487  12.010   3.841  0.4931  0.0816 -0.5737
  400MOL0     C55115   3.104  10.957   3.320  0.1498  0.1433  0.5983
  400MOL0     C55116   3.100  10.929   3.180 -0.7026  0.3202 -0.5218
  400MOL0     C55117   3.254  10.828   2.770 -0.6378  0.1118  0.4075
  400MOL0     C55118   3.165  10.883   2.675 -1.5184  0.0735  0.5392
  400MOL0     C55119   3.145  10.819   2.547 -0.1293  0.0470 -0.5776
  400MOL0     C55120   3.225  10.712   2.506 -0.2981 -0.0451 -0.1034
  400MOL0     O55121   3.213  10.625   2.399  0.0551 -0.9516  0.2992
  400MOL0     C55122   3.078  10.619   2.334  0.0712 -0.4773  0.2635
  400MOL0     C55123   3.083  10.727   2.223 -0.4387  0.2941 -0.8272
  400MOL0     C55124   2.944  10.762   2.175  0.1759  0.0554  0.4278
  400MOL0     C55125   2.937  10.902   2.130  0.1173  0.4124 -0.0066
  400MOL0     C55126   2.929  10.989   2.248 -0.0668  0.6744  0.5823
  400MOL0     C55127   2.917  11.067   2.336  0.1444  0.3069  1.0727
  400MOL0     C55128   3.313  10.660   2.603  1.0643 -0.2959  1.0308
  400MOL0     C55129   3.328  10.708   2.735  0.5190 -0.0471  0.6837
  400MOL0     C55130   3.443  10.648   2.814  0.3959  0.2285  0.4436
  400MOL0     H55131   3.264  11.184   3.043 -0.3016 -0.8506  0.2281
  400MOL0     H55132   3.271  11.253   3.275  0.3365  0.0620 -2.2436
  400MOL0     H55133   3.341  11.212   3.507 -1.9000  1.9434 -0.7215
  400MOL0     H55134   3.280  11.166   3.673 -0.1443  1.2914  0.4025
  400MOL0     H55135   3.159  11.363   3.491 -1.1246  1.0166  0.9082
  400MOL0     H55136   3.063  11.254   3.592  1.2762 -1.4914  1.9929
  400MOL0     H55137   3.204  11.314   3.788  0.3855  1.5622  1.0982
  400MOL0     H55138   3.303  11.431   3.689  0.3817 -0.2947 -1.7050
  400MOL0     H55139   3.084  11.565   3.659  0.7362  2.4853  3.0302
  400MOL0     H55140   3.001  11.431   3.752 -0.4022  0.1787  1.9681
  400MOL0     H55141   3.168  11.487   3.931 -0.6520 -1.0753 -1.4538
  400MOL0     H55142   3.040  11.606   3.922 -0.1203 -0.0103  0.9336
  400MOL0     H55143   3.325  11.648   3.864 -1.6100 -2.3930  3.3103
  400MOL0     H55144   3.215  11.706   3.739  1.4494 -0.0359  0.0107
  400MOL0     H55145   3.198  11.802   4.020  1.1052  0.3336 -0.8802
  400MOL0     H55146   3.069  11.823   3.893 -0.9840 -3.6628 -1.2370
  400MOL0     H55147   3.221  11.975   3.779  0.3702  1.7721 -0.0380
  400MOL0     H55148   3.199  12.002   3.954 -1.8516 -1.3007 -0.3173
  400MOL0     H55149   3.427  11.809   4.091  0.0656 -0.6005 -0.6035
  400MOL0     H55150   3.768  11.953   4.047 -1.7447  1.8106 -0.6005
  400MOL0     H55151   3.711  11.805   4.148  0.9021 -0.3140 -0.0990
  400MOL0     H55152   3.676  12.099   4.202 -1.8238  0.7090  0.4525
  400MOL0     H55153   3.553  11.986   4.269 -0.5714 -1.0716 -1.2210
  400MOL0     H55154   3.841  11.936   4.318 -0.0758  0.5343  0.2205
  400MOL0     H55155   3.768  12.064   4.420 -3.2962  0.8943  1.7803
  400MOL0     H55156   3.745  11.825   4.527 -0.5854 -0.2122  0.4395
  400MOL0     H55157   3.607  11.932   4.521 -0.4402 -2.0960  1.1598
  400MOL0     H55158   3.467  11.572   4.307 -0.0004  0.3902 -0.5525
  400MOL0     H55159   3.356  11.255   4.449  0.5344 -0.5042 -1.6593
  400MOL0     H55160   3.354  11.354   4.306  2.1473 -3.6239  0.5640
  400MOL0     H55161   3.229  11.354   4.437  0.7000  0.8768  1.0113
  400MOL0     H55162   3.366  11.272   5.065  1.7576  1.9708 -2.1696
  400MOL0     H55163   3.196  11.208   5.221  0.1772 -3.2032 -2.2512
  400MOL0     H55164   2.816  11.200   5.097  1.2206  1.1313  0.5146
  400MOL0     H55165   2.927  11.087   5.171 -0.0959 -0.3703 -0.7525
  400MOL0     H55166   2.716  11.243   5.332 -0.3214 -0.2191  2.5843
  400MOL0     H55167   2.722  11.069   5.301  0.9964 -0.0608  0.7391
  400MOL0     H55168   2.914  11.229   5.461  1.8951 -0.7518  1.1012
  400MOL0     H55169   2.928  11.050   5.452  1.4219  0.8310  1.1194
  400MOL0     H55170   2.698  11.041   5.561  1.5967 -1.1602  0.0675
  400MOL0     H55171   2.724  11.223   5.574  3.5980  2.7909 -2.0953
  400MOL0     H55172   2.931  11.018   5.689 -0.0374  0.6886  2.7181
  400MOL0     H55173   2.938  11.192   5.711 -0.7943  1.5079 -2.9498
  400MOL0     H55174   2.736  11.000   5.813  0.5587 -0.1814  0.0750
  400MOL0     H55175   2.714  11.177   5.854 -0.2846 -0.5406  2.6362
  400MOL0     H55176   2.928  11.008   5.973  0.3994 -0.6424  0.2586
  400MOL0     H55177   2.771  11.058   6.043 -6.4959  0.9413 -4.9777
  400MOL0     H55178   2.997  11.254   5.973  0.2973  0.5712 -0.0572
  400MOL0     H55179   2.943  11.220   6.144  0.1310  0.4385 -0.6690
  400MOL0     H55180   2.902  11.431   5.008  0.0177  1.0833  0.4721
  400MOL0     H55181   3.059  11.464   4.818  0.0696 -0.3494  0.3615
  400MOL0     H55182   3.464  11.594   4.798  0.2658 -2.9804  2.1053
  400MOL0     H55183   3.593  11.751   4.671  0.9450 -1.4877  2.4045
  400MOL0     H55184   3.063  10.895   3.399  3.0541 -1.6032  0.8594
  400MOL0     H55185   3.060  10.832   3.152  3.1943 -1.7245  0.1782
  400MOL0     H55186   3.118  10.979   2.695 -3.4413 -0.4333 -1.2155
  400MOL0     H55187   3.071  10.862   2.481 -0.5182  0.1819 -0.0570
  400MOL0     H55188   3.057  10.526   2.281 -1.6777 -0.3989  0.7471
  400MOL0     H55189   3.001  10.632   2.410  1.3284 -0.4944  1.5943
  400MOL0     H55190   3.134  10.691   2.133 -0.0234  3.1603 -1.8548
  400MOL0     H55191   3.140  10.814   2.257  0.8374  0.1785 -2.5224
  400MOL0     H55192   2.922  10.698   2.089  0.9286 -0.6895  0.7789
  400MOL0     H55193   2.860  10.755   2.244 -1.5653  5.4658 -0.6440
  400MOL0     H55194   2.853  10.917   2.061  0.1391 -0.1234 -0.1497
  400MOL0     H55195   3.025  10.927   2.070  0.6955  1.2575  1.1574
  400MOL0     H55196   2.878  11.115   2.423 -5.9149 -0.8738 -0.5216
  400MOL0     H55197   3.369  10.570   2.578  1.2747 -0.1548  0.9923
  400MOL0     H55198   3.395  10.604   2.902  3.3363 -0.3555  1.8766
  400MOL0     H55199   3.510  10.586   2.753 -1.6091  0.5687 -2.3489
  400MOL0     H55200   3.510  10.728   2.845 -2.1607  2.5878  0.2249
  401MOL0     O55201   0.153   1.001   0.861  0.8653  0.8641 -0.3399
  401MOL0     C55202   0.174   1.044   0.973  0.1471  0.0686 -0.8741
  401MOL0     O55203   0.098   1.010   1.084  0.1547 -0.5585  0.6366
  401MOL0     C55204   0.027   0.893   1.075 -0.2578  1.3158 -0.6250
  401MOL0     C55205  -0.094   0.874   0.999  0.3092 -0.4903  0.1539
  401MOL0     C55206  -0.170   0.753   1.005  0.1135 -0.6132  0.8809
  401MOL0     C55207  -0.135   0.652   1.103  0.4476 -0.6591 -0.1772
  401MOL0     O55208  -0.194   0.524   1.117  0.0546 -1.3765 -0.2784
  401MOL0     C55209  -0.287   0.488   1.009  0.2968  0.4434  0.2199
  401MOL0     C55210  -0.428   0.484   1.079 -1.1397  0.5271  0.3272
  401MOL0     C55211  -0.482   0.612   1.145  0.2220  0.3150 -0.2137
  401MOL0     C55212  -0.575   0.701   1.070 -0.0494  0.8458  0.8891
  401MOL0     C55213  -0.627   0.822   1.136 -0.1990 -0.6696 -0.2702
  401MOL0     C55214  -0.732   0.880   1.038  0.0821  0.2697  0.0834
  401MOL0     C55215  -0.779   1.020   1.077  0.4078  0.0126  0.1366
  401MOL0     C55216  -0.828   1.051   1.220 -0.0046  0.8184  0.3166
  401MOL0     N55217  -0.764   1.150   1.305  0.2646  0.5224 -0.6720
  401MOL0     C55218  -0.798   1.291   1.309  0.7597 -1.1127  0.7641
  401MOL0     C55219  -0.715   1.329   1.410 -0.9321  0.4360  0.5696
  401MOL0     C55220  -0.710   1.463   1.473  0.3779 -0.1117  0.2646
  401MOL0     C55221  -0.580   1.488   1.546  0.6910  0.9253  0.4463
  401MOL0     C55222  -0.567   1.622   1.609 -0.5879 -0.0764 -0.2150
  401MOL0     C55223  -0.577   1.734   1.510  0.4594 -0.1157 -0.6497
  401MOL0     O55224  -0.465   1.826   1.504  0.7803 -0.0912 -0.3897
  401MOL0     C55225  -0.442   1.911   1.605  0.0367 -0.2371  0.3334
  401MOL0     C55226  -0.535   1.938   1.706 -0.1205  1.2728 -0.4194
  401MOL0     C55227  -0.493   2.012   1.818  0.9701  0.6662  0.4077
  401MOL0     C55228  -0.581   2.015   1.927 -0.4748 -0.2892 -0.1553
  401MOL0     C55229  -0.365   2.064   1.829  0.2542  1.4077 -0.2446
  401MOL0     C55230  -0.302   2.111   1.957 -0.8413 -0.0712 -0.0143
  401MOL0     O55231  -0.173   2.074   1.979 -0.3700 -0.1929 -0.3017
  401MOL0     C55232  -0.106   2.116   2.092 -0.3286 -0.8220 -0.6651
  401MOL0     C55233   0.028   2.161   2.069 -0.5089  0.5890 -0.4000
  401MOL0     C55234   0.106   2.196   2.174 -0.0625  0.4716 -0.7928
  401MOL0     C55235   0.051   2.205   2.306 -0.1124  0.6693  0.1984
  401MOL0     O55236   0.118   2.252   2.417  0.3932 -0.6784  0.0379
  401MOL0     C55237   0.262   2.250   2.430  0.5622  0.7793  0.8356
  401MOL0     C55238   0.325   2.305   2.564  0.0796  0.3542 -0.8323
  401MOL0     C55239   0.261   2.443   2.594  0.4939  0.5204 -0.6563
  401MOL0     C55240   0.305   2.504   2.717 -1.1045 -0.3710 -1.1409
  401MOL0     C55241   0.278   2.650   2.745  0.5983  0.9950  0.3059
  401MOL0     C55242   0.294   2.699   2.894 -0.4381 -0.3565  1.2340
  401MOL0     C55243   0.262   2.835   2.933  0.0077 -0.4192  1.1159
  401MOL0     C55244   0.344   2.938   2.846 -0.9509 -0.1328 -0.4039
  401MOL0    Cl55245   0.520   2.931   2.890 -0.3406  0.2777  0.1647
  401MOL0     C55246  -0.083   2.176   2.323 -1.6527 -0.2272  0.4601
  401MOL0     C55247  -0.162   2.127   2.216  0.4734 -1.3945  0.3260
  401MOL0     O55248  -0.366   2.192   2.028 -0.5365 -0.2712  0.1769
  401MOL0     C55249  -0.274   2.043   1.725 -0.3850  0.0130 -0.2086
  401MOL0     C55250  -0.313   1.971   1.612  0.5433 -0.5477  1.2132
  401MOL0     N55251  -0.646   1.221   1.461  0.8709  0.1304  0.1760
  401MOL0     N55252  -0.669   1.116   1.398 -0.3454  0.4907 -0.2820
  401MOL0     C55253  -0.021   0.673   1.182  0.3010 -1.0505 -0.0036
  401MOL0     C55254   0.053   0.794   1.167 -0.1192 -0.1725 -0.1394
  401MOL0     C55255   0.299   1.113   0.995 -0.2430  0.1265 -0.1893
  401MOL0     C55256   0.360   1.090   1.118 -1.0709 -0.9291  0.2981
  401MOL0     C55257   0.491   1.143   1.140 -0.4092  0.1238 -0.1423
  401MOL0     C55258   0.542   1.228   1.041 -1.0298  0.6232  0.1260
  401MOL0     O55259   0.661   1.302   1.041 -0.0683  0.4287  0.7087
  401MOL0     C55260   0.730   1.303   1.165  0.0013 -0.0040  1.2598
  401MOL0     C55261   0.853   1.394   1.152 -0.5677  1.1509 -0.6853
  401MOL0     C55262   0.820   1.537   1.111 -0.0347  0.4063  0.5508
  401MOL0     C55263   0.868   1.561   0.967 -0.0186 -0.7559 -0.1753
  401MOL0     C55264   1.010   1.524   0.940 -0.2347 -0.5786 -0.2782
  401MOL0     C55265   1.117   1.500   0.895 -0.6165 -1.0013  0.0469
  401MOL0     C55266   0.486   1.251   0.912 -0.4763  0.3081 -0.1071
  401MOL0     C55267   0.356   1.203   0.893 -0.1601 -1.5799  0.2427
  401MOL0     C55268   0.299   1.222   0.751  0.4981 -0.6819  0.1775
  401MOL0     H55269  -0.110   0.962   0.937  0.4325 -0.3982  0.2520
  401MOL0     H55270  -0.257   0.755   0.941 -0.4254  0.6612  1.6095
  401MOL0     H55271  -0.269   0.384   0.980 -2.1749 -0.1075  0.4854
  401MOL0     H55272  -0.278   0.548   0.918 -1.9245  0.0714 -0.2928
  401MOL0     H55273  -0.498   0.420   1.023  1.0434 -3.2129  1.4624
  401MOL0     H55274  -0.408   0.425   1.169  0.3612  1.3529  0.5542
  401MOL0     H55275  -0.550   0.582   1.225 -2.2902  1.3399 -1.8496
  401MOL0     H55276  -0.398   0.675   1.175  0.3447  0.3717 -0.6637
  401MOL0     H55277  -0.509   0.736   0.990  0.1395  0.3883  0.8438
  401MOL0     H55278  -0.660   0.638   1.043 -0.7169  1.1452  2.2108
  401MOL0     H55279  -0.547   0.896   1.147  0.2403 -1.3703  1.6234
  401MOL0     H55280  -0.657   0.793   1.237  1.5462  0.3341  0.5881
  401MOL0     H55281  -0.689   0.887   0.937  0.3469  1.2496  0.2582
  401MOL0     H55282  -0.819   0.814   1.029 -0.3491  1.0825 -2.5907
  401MOL0     H55283  -0.851   1.054   1.002  3.2413 -0.3812 -3.0171
  401MOL0     H55284  -0.693   1.084   1.054 -0.2689  0.5165 -1.1567
  401MOL0     H55285  -0.936   1.067   1.211 -0.3400 -0.9672  0.7913
  401MOL0     H55286  -0.826   0.953   1.268 -2.7098  0.0188 -0.9816
  401MOL0     H55287  -0.864   1.355   1.251  0.0614 -1.9015  0.6788
  401MOL0     H55288  -0.802   1.463   1.532 -0.1506 -0.1134 -0.5431
  401MOL0     H55289  -0.735   1.531   1.391 -1.4119 -0.6769  0.2902
  401MOL0     H55290  -0.562   1.417   1.627  0.7129  0.0855 -0.2826
  401MOL0     H55291  -0.498   1.461   1.478 -0.7229 -3.2841  0.0977
  401MOL0     H55292  -0.649   1.621   1.681  0.2030 -2.9468  0.7797
  401MOL0     H55293  -0.466   1.629   1.650  0.3730 -3.2993 -1.6875
  401MOL0     H55294  -0.599   1.693   1.411 -0.8890 -1.8589  0.3019
  401MOL0     H55295  -0.673   1.783   1.533  0.1218 -1.1132  0.1452
  401MOL0     H55296  -0.631   1.888   1.712  1.0403 -1.1777 -0.8330
  401MOL0     H55297  -0.681   1.977   1.901 -2.3270  3.2790  1.1208
  401MOL0     H55298  -0.614   2.117   1.949  0.3790 -0.6460  3.4666
  401MOL0     H55299  -0.537   1.958   2.009  2.5617  0.9360 -0.8135
  401MOL0     H55300   0.075   2.153   1.972 -2.2795 -0.6608 -1.1820
  401MOL0     H55301   0.212   2.215   2.159  0.3162 -0.2178  0.7170
  401MOL0     H55302   0.305   2.151   2.416 -1.1768  0.1821 -0.6857
  401MOL0     H55303   0.306   2.309   2.349  2.3705 -1.4931  0.0516
  401MOL0     H55304   0.316   2.241   2.653 -0.0218 -0.1916 -1.2300
  401MOL0     H55305   0.430   2.315   2.537  0.2791 -1.3405 -0.8279
  401MOL0     H55306   0.152   2.437   2.605  0.0813 -0.8527 -4.3237
  401MOL0     H55307   0.280   2.506   2.507  3.8030  0.7676  0.1315
  401MOL0     H55308   0.415   2.504   2.713 -1.1361 -0.5252 -2.3027
  401MOL0     H55309   0.275   2.442   2.802  0.1114 -1.7223 -1.6491
  401MOL0     H55310   0.345   2.702   2.676 -2.4771  0.5641 -3.3260
  401MOL0     H55311   0.178   2.683   2.715 -1.2359 -1.4806  3.0794
  401MOL0     H55312   0.401   2.679   2.906 -0.2068 -0.1099 -0.2237
  401MOL0     H55313   0.240   2.626   2.955 -0.8857 -0.7269  0.4107
  401MOL0     H55314   0.295   2.841   3.037  3.3137 -0.1257  0.1546
  401MOL0     H55315   0.155   2.851   2.921 -0.3677 -0.8653  3.3167
  401MOL0     H55316   0.297   3.037   2.857 -6.3549 -2.2498 -1.3148
  401MOL0     H55317   0.324   2.911   2.742 -1.7833 -0.4570 -0.1666
  401MOL0     H55318  -0.117   2.175   2.426 -0.2374 -1.3235  0.9547
  401MOL0     H55319  -0.265   2.097   2.236 -1.7588  3.3763 -2.1970
  401MOL0     H55320  -0.173   2.078   1.743  0.5782 -2.7685  0.2768
  401MOL0     H55321  -0.240   1.956   1.533  1.7924  1.1838  1.9817
  401MOL0     H55322   0.014   0.601   1.255  0.9734 -0.9329 -0.2014
  401MOL0     H55323   0.149   0.803   1.217 -0.6950  0.8495  0.8224
  401MOL0     H55324   0.305   1.045   1.200  0.1246 -0.1805  1.5463
  401MOL0     H55325   0.551   1.115   1.226 -1.8825  0.3390  0.9948
  401MOL0     H55326   0.666   1.339   1.246 -0.8357 -1.5709  1.3495
  401MOL0     H55327   0.757   1.200   1.191 -0.6133 -1.2861 -2.4797
  401MOL0     H55328   0.930   1.334   1.102 -0.7473  0.6635 -0.3904
  401MOL0     H55329   0.892   1.391   1.255 -1.2288 -1.1061 -0.4452
  401MOL0     H55330   0.711   1.548   1.105 -0.1826 -1.3498 -3.6519
  401MOL0     H55331   0.861   1.610   1.182  4.7082 -0.3869 -0.9938
  401MOL0     H55332   0.852   1.667   0.944 -1.6132 -0.6503  1.2197
  401MOL0     H55333   0.805   1.508   0.895  2.1253 -1.5304 -1.5833
  401MOL0     H55334   1.207   1.475   0.842 -1.8206 -2.7847 -1.2864
  401MOL0     H55335   0.548   1.306   0.842 -0.7965  0.6690 -0.1121
  401MOL0     H55336   0.381   1.263   0.690  1.2369  1.3821  2.3911
  401MOL0     H55337   0.246   1.135   0.712 -1.5939 -0.2104  1.8123
  401MOL0     H55338   0.226   1.302   0.739  1.2004 -0.4576 -4.0266
  402MOL0     O55339   6.986  11.039   7.886 -0.5821  0.1876  0.5641
  402MOL0     C55340   6.889  11.033   7.962 -0.3545 -0.2692 -0.1745
  402MOL0     O55341   6.892  10.953   8.074 -0.6271 -0.1606  0.1999
  402MOL0     C55342   7.013  10.909   8.121 -0.0309  0.1827 -0.5654
  402MOL0     C55343   7.053  10.780   8.114  0.4950  0.8593  0.8981
  402MOL0     C55344   7.188  10.744   8.138  0.7413 -0.0311 -0.5908
  402MOL0     C55345   7.285  10.845   8.168  0.1387  0.6782 -0.1035
  402MOL0     O55346   7.417  10.812   8.187 -1.2004 -0.3655  0.2135
  402MOL0     C55347   7.495  10.875   8.292  1.0254 -0.4132 -0.1392
  402MOL0     C55348   7.427  10.872   8.429  0.8035 -0.3932 -1.4762
  402MOL0     C55349   7.531  10.891   8.548 -0.9625  0.2389  0.0572
  402MOL0     C55350   7.580  11.035   8.553  0.0896  1.4567 -0.7107
  402MOL0     C55351   7.673  11.042   8.678  0.0228 -0.3536  0.1783
  402MOL0     C55352   7.747  11.173   8.679 -0.1325 -0.0126 -0.2233
  402MOL0     C55353   7.845  11.202   8.788 -0.6246 -0.6346 -0.6151
  402MOL0     C55354   7.879  11.351   8.791  0.4802 -1.2685  0.9403
  402MOL0     N55355   7.980  11.386   8.889 -0.0553  0.0580 -0.2508
  402MOL0     C55356   8.090  11.314   8.927  0.1157  0.1421  0.6496
  402MOL0     C55357   8.157  11.400   9.009  0.1656  0.4971 -0.3432
  402MOL0     C55358   8.300  11.373   9.070  0.1728  0.7243  0.4492
  402MOL0     C55359   8.411  11.486   9.051  0.3778  0.5032 -0.4339
  402MOL0     C55360   8.378  11.619   9.128 -0.5402 -1.2243 -0.7406
  402MOL0     C55361   8.402  11.602   9.286 -1.1122 -0.3180 -0.0285
  402MOL0     O55362   8.492  11.495   9.314 -0.5644 -0.4640  0.1379
  402MOL0     C55363   8.630  11.507   9.317 -0.7146 -0.1885 -0.0321
  402MOL0     C55364   8.708  11.618   9.337  0.7664  0.1913 -0.9182
  402MOL0     C55365   8.847  11.611   9.347  0.7141  0.7116 -0.0751
  402MOL0     C55366   8.918  11.746   9.344 -0.4412 -0.8282 -0.5367
  402MOL0     C55367   8.915  11.476   9.339  0.4510 -0.6547 -0.4923
  402MOL0     C55368   9.064  11.448   9.331 -0.0071 -0.3012 -0.8473
  402MOL0     O55369   9.098  11.326   9.364  1.1635 -0.3510 -0.2509
  402MOL0     C55370   9.230  11.289   9.354  0.6608 -0.3301  0.7727
  402MOL0     C55371   9.284  11.262   9.229 -0.6211  0.2717 -0.2455
  402MOL0     C55372   9.424  11.244   9.213  0.1610 -0.2787 -0.6293
  402MOL0     C55373   9.505  11.254   9.327 -0.5694 -0.1687 -0.4435
  402MOL0     O55374   9.627  11.203   9.328 -0.2235  0.4694 -0.0194
  402MOL0     C55375   9.726  11.259   9.238 -0.2105  0.3711  0.2418
  402MOL0     C55376   9.807  11.359   9.318 -0.2969  0.1268 -0.4389
  402MOL0     C55377   9.963  11.369   9.300 -0.0597 -0.1712  0.0733
  402MOL0     C55378  10.038  11.229   9.327  0.1587 -0.1955 -0.4534
  402MOL0     C55379  10.187  11.231   9.347 -0.2282 -0.7811  0.1484
  402MOL0     C55380  10.232  11.313   9.468 -0.0368 -0.9416 -0.2594
  402MOL0     C55381  10.224  11.249   9.608 -0.3412 -0.5278 -0.1837
  402MOL0     C55382  10.328  11.147   9.633 -0.3423  0.5849 -0.8222
  402MOL0    Cl55383  10.340  11.121   9.811  0.4306 -0.3549  0.1294
  402MOL0     C55384   9.451  11.292   9.454  1.2786  0.6377  1.2493
  402MOL0     C55385   9.305  11.299   9.465 -0.1198 -0.2477 -1.2866
  402MOL0     O55386   9.141  11.530   9.287 -0.5069 -1.1025  0.3992
  402MOL0     C55387   8.829  11.369   9.320  0.0037 -0.5085 -0.3633
  402MOL0     C55388   8.691  11.382   9.309  1.0730 -0.5633  0.4608
  402MOL0     N55389   8.086  11.518   9.018 -0.6616  0.8431  0.8501
  402MOL0     N55390   7.993  11.515   8.935 -0.1553 -0.6656  0.4047
  402MOL0     C55391   7.246  10.979   8.184 -0.2325  0.1163 -0.6884
  402MOL0     C55392   7.110  11.003   8.161 -0.3253  0.3290  0.6526
  402MOL0     C55393   6.774  11.113   7.921 -0.4934 -0.0448  0.4608
  402MOL0     C55394   6.779  11.181   7.794 -0.1407 -0.5701  0.0184
  402MOL0     C55395   6.677  11.267   7.754  1.1465 -0.1279 -0.8770
  402MOL0     C55396   6.569  11.289   7.841 -0.6536  0.6246 -1.0645
  402MOL0     O55397   6.469  11.372   7.810  0.7782  0.0422 -0.1691
  402MOL0     C55398   6.502  11.508   7.780  0.0656  0.8891 -0.8217
  402MOL0     C55399   6.463  11.545   7.636 -0.4031 -0.4661 -0.7152
  402MOL0     C55400   6.354  11.458   7.573 -0.4596 -0.7359 -0.1493
  402MOL0     C55401   6.355  11.490   7.423 -0.5721  0.0405 -0.6096
  402MOL0     C55402   6.319  11.628   7.397  0.6963 -0.2687 -0.4093
  402MOL0     C55403   6.291  11.735   7.351  0.0093 -1.3941  0.6774
  402MOL0     C55404   6.563  11.225   7.964  0.5317  0.4022 -0.1433
  402MOL0     C55405   6.660  11.138   8.004  0.0925 -0.1729 -1.1534
  402MOL0     C55406   6.621  11.072   8.147 -0.6045  0.1530  0.4043
  402MOL0     H55407   6.982  10.708   8.076  2.9916 -0.5744 -1.4734
  402MOL0     H55408   7.220  10.640   8.137  1.7964  0.1959  1.7412
  402MOL0     H55409   7.511  10.977   8.255 -1.2891 -1.2519 -4.0476
  402MOL0     H55410   7.592  10.824   8.290  0.4988 -1.7791  3.1722
  402MOL0     H55411   7.359  10.958   8.437  2.4632  0.7914  1.7982
  402MOL0     H55412   7.370  10.779   8.435 -0.2761  0.0329 -3.8869
  402MOL0     H55413   7.475  10.867   8.639 -0.5804 -1.3543 -0.1054
  402MOL0     H55414   7.610  10.817   8.539 -1.3099 -0.3564  1.6202
  402MOL0     H55415   7.628  11.060   8.459  0.6168  0.5191 -0.7063
  402MOL0     H55416   7.488  11.094   8.566 -0.5841 -0.0821  3.0693
  402MOL0     H55417   7.739  10.955   8.684 -1.5461 -1.5505  0.9969
  402MOL0     H55418   7.600  11.030   8.759 -0.0891  0.7591  0.2629
  402MOL0     H55419   7.788  11.204   8.583 -1.6771  2.6406 -0.1210
  402MOL0     H55420   7.677  11.254   8.700 -2.0927 -0.8588 -2.9266
  402MOL0     H55421   7.939  11.147   8.786 -0.8625 -1.5396  3.6572
  402MOL0     H55422   7.800  11.186   8.887 -0.6396  1.5704 -0.2107
  402MOL0     H55423   7.902  11.386   8.690 -0.8527  1.7161  1.5942
  402MOL0     H55424   7.794  11.411   8.824  1.1089  2.0962 -2.8061
  402MOL0     H55425   8.109  11.208   8.910  1.4690  0.4261  0.2871
  402MOL0     H55426   8.349  11.287   9.023  1.6792  2.0898 -0.6259
  402MOL0     H55427   8.293  11.363   9.178  1.6010 -1.2634  0.4221
  402MOL0     H55428   8.503  11.440   9.086  0.2899  2.6610  3.0991
  402MOL0     H55429   8.427  11.502   8.944  1.7576 -0.7283 -0.4437
  402MOL0     H55430   8.447  11.700   9.100 -3.4815  2.3521  1.3264
  402MOL0     H55431   8.280  11.657   9.097  1.0214  1.9226 -2.2742
  402MOL0     H55432   8.429  11.686   9.351 -0.7279 -1.5886  1.5133
  402MOL0     H55433   8.308  11.563   9.324 -0.5487  0.8250  2.8135
  402MOL0     H55434   8.667  11.718   9.349  2.8367  1.5173 -3.8155
  402MOL0     H55435   8.997  11.771   9.416 -1.8856  1.9244  0.2517
  402MOL0     H55436   8.849  11.831   9.354 -0.8176 -0.6838 -3.4860
  402MOL0     H55437   8.964  11.741   9.245  3.5743  2.4576  0.8787
  402MOL0     H55438   9.222  11.265   9.141 -1.0206 -4.1320 -0.3600
  402MOL0     H55439   9.443  11.223   9.108 -3.7764 -0.7674 -1.3737
  402MOL0     H55440   9.797  11.189   9.194  2.3310  1.9185  1.6433
  402MOL0     H55441   9.677  11.312   9.156 -1.3459  1.6858  1.6982
  402MOL0     H55442   9.752  11.452   9.308 -0.2628  0.1697 -0.2183
  402MOL0     H55443   9.801  11.333   9.424  0.7106  0.5779 -0.2659
  402MOL0     H55444   9.996  11.445   9.371  1.4826  0.6587 -1.4785
  402MOL0     H55445   9.990  11.393   9.197  3.2241 -2.3765  0.2554
  402MOL0     H55446  10.033  11.168   9.237  4.0520 -2.5050  0.6956
  402MOL0     H55447   9.990  11.167   9.403  1.1065  0.1518  0.4373
  402MOL0     H55448  10.213  11.125   9.360  0.1304 -0.8354 -0.9457
  402MOL0     H55449  10.226  11.284   9.260 -1.7541  1.4233  0.7283
  402MOL0     H55450  10.174  11.406   9.468  0.1856 -0.7993 -0.6052
  402MOL0     H55451  10.337  11.340   9.449 -1.0744  2.2006 -2.3923
  402MOL0     H55452  10.127  11.210   9.641 -1.2180 -0.4184 -2.4940
  402MOL0     H55453  10.248  11.333   9.674  0.9138  0.7114 -2.1428
  402MOL0     H55454  10.417  11.189   9.584 -1.7268 -0.4610 -4.5329
  402MOL0     H55455  10.311  11.046   9.595  0.4704 -0.8202  2.1955
  402MOL0     H55456   9.524  11.296   9.535  3.1306  3.8375 -0.4049
  402MOL0     H55457   9.268  11.317   9.565  4.8927  2.0574  0.4795
  402MOL0     H55458   8.861  11.269   9.293 -0.6092 -0.9764  0.6013
  402MOL0     H55459   8.623  11.300   9.292 -1.6539  1.1930  2.1157
  402MOL0     H55460   7.326  11.052   8.193  3.0964 -3.4816  5.5288
  402MOL0     H55461   7.088  11.109   8.165  1.5132  0.8960 -1.7185
  402MOL0     H55462   6.862  11.180   7.724 -1.1008  1.4092 -1.2443
  402MOL0     H55463   6.689  11.319   7.660 -0.9849  2.9052  0.3383
  402MOL0     H55464   6.432  11.571   7.835  0.1025 -1.9097  2.7910
  402MOL0     H55465   6.607  11.531   7.801  0.6256 -1.7465 -0.4275
  402MOL0     H55466   6.553  11.539   7.575 -0.5867 -0.2881 -1.0048
  402MOL0     H55467   6.442  11.652   7.643  0.2385 -0.4432  1.5929
  402MOL0     H55468   6.372  11.354   7.602  2.4570 -0.8139 -1.8557
  402MOL0     H55469   6.260  11.483   7.623 -1.1979 -3.9494  0.3046
  402MOL0     H55470   6.284  11.427   7.370 -0.7675  0.8241 -1.2946
  402MOL0     H55471   6.452  11.460   7.383  0.5443 -1.3295  2.7508
  402MOL0     H55472   6.256  11.825   7.304 -1.2367 -2.4210 -0.4100
  402MOL0     H55473   6.477  11.239   8.028 -1.7650 -2.7022 -2.2999
  402MOL0     H55474   6.593  11.161   8.205 -0.1200  1.3099 -1.0537
  402MOL0     H55475   6.534  11.011   8.122 -0.2489 -1.3429  2.6194
  402MOL0     H55476   6.699  11.024   8.207 -0.1968 -0.1049 -0.3137
  403MOL0     O55477   9.977   1.045   1.902 -0.4709  0.4335 -0.6144
  403MOL0     C55478  10.003   0.924   1.915  0.6369 -0.4540  0.0457
  403MOL0     O55479  10.116   0.872   1.964  0.4039  0.0055  0.4485
  403MOL0     C55480  10.191   0.936   2.063  0.3133  0.1826 -0.0511
  403MOL0     C55481  10.327   0.923   2.065  0.8200 -0.1962  0.2121
  403MOL0     C55482  10.408   0.990   2.161  1.6346  1.0985  0.2526
  403MOL0     C55483  10.349   1.059   2.270 -0.4489 -0.4707 -0.0201
  403MOL0     O55484  10.435   1.122   2.364  0.2608  0.4514 -0.6859
  403MOL0     C55485  10.397   1.209   2.466  0.3686  0.0495 -0.3841
  403MOL0     C55486  10.490   1.185   2.584  0.9063 -0.1275 -0.6718
  403MOL0     C55487  10.502   1.300   2.685  0.0956  0.1928 -0.4661
  403MOL0     C55488  10.368   1.346   2.741  0.0782  0.1349 -0.2936
  403MOL0     C55489  10.374   1.444   2.863  0.0588 -0.4001 -0.4755
  403MOL0     C55490  10.252   1.545   2.862  1.3920  0.2364  0.6688
  403MOL0     C55491  10.139   1.498   2.951  0.9601 -0.7185 -0.3255
  403MOL0     C55492  10.054   1.619   2.997 -0.5682  0.1092 -0.5551
  403MOL0     N55493  10.000   1.694   2.891 -0.6408 -0.5482  0.3081
  403MOL0     C55494   9.929   1.653   2.777 -0.1313  0.5085  0.2450
  403MOL0     C55495   9.937   1.748   2.683  0.0006 -0.2030 -1.4184
  403MOL0     C55496   9.882   1.752   2.549  0.0061  0.6335  0.3310
  403MOL0     C55497  10.001   1.739   2.447 -0.2751 -0.0993 -0.9997
  403MOL0     C55498   9.966   1.754   2.308  0.4432  0.2403 -0.2159
  403MOL0     C55499  10.097   1.773   2.224 -0.3748  0.4298  0.8536
  403MOL0     O55500  10.147   1.897   2.172 -0.0203 -0.2907  0.0413
  403MOL0     C55501  10.249   1.914   2.081 -0.0536  1.0036 -0.6390
  403MOL0     C55502  10.277   2.036   2.021  0.1524 -0.4196  0.1460
  403MOL0     C55503  10.380   2.061   1.928 -0.7358 -0.1294 -0.0554
  403MOL0     C55504  10.373   2.201   1.868 -0.0203 -0.3517 -0.4240
  403MOL0     C55505  10.478   1.957   1.904  0.7016 -0.2958  0.2096
  403MOL0     C55506  10.593   1.979   1.819 -0.2265 -0.4505  0.4740
  403MOL0     O55507  10.634   2.112   1.801  1.2929 -0.1955 -0.0454
  403MOL0     C55508  10.739   2.147   1.722 -0.5137 -0.8858 -0.3709
  403MOL0     C55509  10.775   2.090   1.597  0.7874  0.3873 -0.0793
  403MOL0     C55510  10.882   2.148   1.525 -0.0318 -0.4840  0.3200
  403MOL0     C55511  10.957   2.251   1.565  0.2358 -0.5285 -0.4032
  403MOL0     O55512  11.070   2.269   1.492 -0.7060  0.0079  0.3590
  403MOL0     C55513  11.118   2.399   1.451 -0.4448 -0.9074 -0.2310
  403MOL0     C55514  11.265   2.386   1.427  0.7700 -0.6688 -0.5378
  403MOL0     C55515  11.349   2.517   1.452  0.3482  0.2187 -0.1597
  403MOL0     C55516  11.498   2.478   1.467  0.6863  0.0340 -0.1796
  403MOL0     C55517  11.572   2.611   1.476  0.1218 -0.6315  0.0305
  403MOL0     C55518  11.720   2.585   1.512  0.4053 -0.6617 -0.7711
  403MOL0     C55519  11.793   2.726   1.520 -0.4035 -0.7475 -0.0474
  403MOL0     C55520  11.793   2.808   1.394 -0.4508  0.9674  0.6159
  403MOL0    Cl55521  11.902   2.947   1.409 -0.0948  0.1994  0.0334
  403MOL0     C55522  10.926   2.309   1.686 -0.1256  0.1091  0.0485
  403MOL0     C55523  10.802   2.269   1.749 -0.3959 -0.9530  0.0531
  403MOL0     O55524  10.654   1.878   1.774  0.1410 -0.6438  0.2093
  403MOL0     C55525  10.444   1.825   1.963 -0.2495  0.6306 -0.2649
  403MOL0     C55526  10.327   1.801   2.044 -1.0028 -0.6810  0.1811
  403MOL0     N55527  10.008   1.850   2.742  0.1332 -0.2631 -1.0496
  403MOL0     N55528  10.054   1.819   2.863 -0.3901 -0.0248 -0.0667
  403MOL0     C55529  10.212   1.067   2.272 -0.8377 -0.1709 -0.3019
  403MOL0     C55530  10.141   0.997   2.173 -0.9549 -0.4335  0.3281
  403MOL0     C55531   9.907   0.824   1.860  0.6052  0.5653  0.0486
  403MOL0     C55532   9.957   0.699   1.816  0.2769  0.1234  0.4463
  403MOL0     C55533   9.878   0.585   1.785  0.2232  0.6413  0.0131
  403MOL0     C55534   9.733   0.601   1.797  0.5740 -0.6722  0.7876
  403MOL0     O55535   9.637   0.507   1.771  0.1831  0.3424  0.7110
  403MOL0     C55536   9.674   0.380   1.733  0.0036 -0.3743 -1.2127
  403MOL0     C55537   9.739   0.302   1.847  0.0401  0.8687 -0.1535
  403MOL0     C55538   9.637   0.258   1.960 -0.6780  0.2395  0.5268
  403MOL0     C55539   9.562   0.123   1.931  0.5097  0.1178  1.1051
  403MOL0     C55540   9.461   0.136   1.828  0.5719 -0.2615 -0.6879
  403MOL0     C55541   9.361   0.121   1.763  0.3562  0.9549 -0.0037
  403MOL0     C55542   9.677   0.719   1.838 -1.2153 -0.2704 -0.3998
  403MOL0     C55543   9.763   0.827   1.854  0.3245  0.2008  0.3334
  403MOL0     C55544   9.686   0.968   1.861 -0.2304 -0.2888 -0.3405
  403MOL0     H55545  10.374   0.859   1.990  0.8157  1.4027 -1.2142
  403MOL0     H55546  10.515   0.982   2.149  1.7171  1.2787  0.8073
  403MOL0     H55547  10.290   1.202   2.488  0.2117 -1.3081 -1.4025
  403MOL0     H55548  10.403   1.316   2.446 -1.5327 -0.2811 -3.1264
  403MOL0     H55549  10.450   1.096   2.633 -3.5316  2.5411  1.1167
  403MOL0     H55550  10.582   1.171   2.525 -0.5441 -1.7383 -2.7355
  403MOL0     H55551  10.580   1.275   2.758 -0.5368 -2.1182 -0.5177
  403MOL0     H55552  10.532   1.394   2.638 -0.1283  0.2025 -0.5922
  403MOL0     H55553  10.312   1.391   2.658 -2.8721 -2.2705  0.2264
  403MOL0     H55554  10.315   1.254   2.767 -1.3141  1.5116  2.1594
  403MOL0     H55555  10.450   1.522   2.852 -1.9679  1.9190  0.8254
  403MOL0     H55556  10.389   1.387   2.955  1.8185 -0.7782 -0.9747
  403MOL0     H55557  10.286   1.645   2.890 -0.7067  2.3019 -3.3366
  403MOL0     H55558  10.221   1.553   2.758  1.5402 -2.1107  0.3878
  403MOL0     H55559  10.199   1.455   3.031  1.3759 -0.0442 -0.2672
  403MOL0     H55560  10.089   1.414   2.902  2.7213  0.4803 -4.6432
  403MOL0     H55561   9.972   1.578   3.055 -0.0753  0.1758  0.2094
  403MOL0     H55562  10.121   1.689   3.048  0.5430 -0.7953 -0.7163
  403MOL0     H55563   9.879   1.559   2.758  2.0619 -0.4890 -0.9185
  403MOL0     H55564   9.815   1.838   2.534  1.5984  1.8368 -0.0921
  403MOL0     H55565   9.810   1.671   2.532  0.8847  0.1330 -1.2377
  403MOL0     H55566  10.075   1.815   2.472 -2.2616  2.0526 -1.2754
  403MOL0     H55567  10.037   1.637   2.458 -0.8501 -0.0536  2.5062
  403MOL0     H55568   9.904   1.669   2.278  0.3379  0.3150 -0.2143
  403MOL0     H55569   9.897   1.838   2.292  0.5417  0.0524 -1.7847
  403MOL0     H55570  10.170   1.721   2.288 -1.6346 -1.2459  0.9874
  403MOL0     H55571  10.080   1.709   2.137 -0.1805 -2.2107  2.6353
  403MOL0     H55572  10.205   2.107   2.058 -0.1561 -0.3184 -0.6451
  403MOL0     H55573  10.378   2.200   1.759  1.2473 -0.4972 -0.3790
  403MOL0     H55574  10.460   2.245   1.917  0.0230  1.7910 -2.3039
  403MOL0     H55575  10.279   2.247   1.899  0.6360 -0.5915  2.1529
  403MOL0     H55576  10.717   2.012   1.549  1.0066 -0.8415  1.5598
  403MOL0     H55577  10.907   2.101   1.431  1.4336 -3.4650  2.0381
  403MOL0     H55578  11.070   2.448   1.366  1.6459  0.2337 -0.8141
  403MOL0     H55579  11.089   2.467   1.532  1.0831  0.0644 -0.4513
  403MOL0     H55580  11.297   2.306   1.495 -0.4051 -0.4217  0.3499
  403MOL0     H55581  11.281   2.338   1.330  1.1306 -0.4903 -0.5654
  403MOL0     H55582  11.309   2.564   1.542  2.4774  1.6721  0.1064
  403MOL0     H55583  11.331   2.584   1.368 -1.3635  0.8672  0.6687
  403MOL0     H55584  11.529   2.415   1.383  1.8866  1.8527 -1.1635
  403MOL0     H55585  11.510   2.412   1.554 -1.4782 -1.5926 -1.0062
  403MOL0     H55586  11.583   2.648   1.374 -0.1017  1.4648  0.7202
  403MOL0     H55587  11.527   2.680   1.548 -0.0664  0.2533 -0.9113
  403MOL0     H55588  11.781   2.528   1.441  1.8028 -0.0893 -0.0803
  403MOL0     H55589  11.722   2.534   1.609  0.8424 -3.5186 -2.1939
  403MOL0     H55590  11.895   2.728   1.559 -0.7003  3.2909  0.9712
  403MOL0     H55591  11.733   2.787   1.588 -0.7084 -1.6579  0.5067
  403MOL0     H55592  11.689   2.833   1.370 -1.6549  1.1337  5.0482
  403MOL0     H55593  11.834   2.742   1.317 -3.0233 -0.1105  0.0778
  403MOL0     H55594  10.989   2.394   1.711 -1.4976  2.2106 -2.9416
  403MOL0     H55595  10.769   2.324   1.837  3.1644  0.3728  0.7146
  403MOL0     H55596  10.514   1.743   1.950 -1.4509 -0.3192 -0.9420
  403MOL0     H55597  10.315   1.703   2.088  0.2207 -1.4537 -1.1400
  403MOL0     H55598  10.156   1.136   2.335  1.0198  0.4914  0.7071
  403MOL0     H55599  10.037   1.026   2.161 -0.6482  0.6082  0.1116
  403MOL0     H55600  10.065   0.689   1.810  0.4473 -0.2733  3.1379
  403MOL0     H55601   9.915   0.487   1.757  0.9603  1.6778 -3.0168
  403MOL0     H55602   9.585   0.323   1.703  1.6631 -2.9476 -1.5767
  403MOL0     H55603   9.726   0.386   1.637  0.2494  1.6903 -0.9859
  403MOL0     H55604   9.816   0.360   1.898 -0.8109  0.5153  1.6054
  403MOL0     H55605   9.793   0.214   1.810  0.6297  0.8228  0.7796
  403MOL0     H55606   9.696   0.241   2.051  1.0433  7.0102  1.1973
  403MOL0     H55607   9.568   0.342   1.968  1.2063  1.6921  3.0175
  403MOL0     H55608   9.510   0.092   2.023 -0.9104 -1.1554 -0.0723
  403MOL0     H55609   9.629   0.043   1.899 -1.5341 -1.1687 -0.1946
  403MOL0     H55610   9.273   0.091   1.711  1.4801 -0.0256 -1.3880
  403MOL0     H55611   9.572   0.732   1.861 -0.7400 -1.0112  2.6011
  403MOL0     H55612   9.696   1.029   1.771  1.2622  3.1605  1.9513
  403MOL0     H55613   9.577   0.967   1.861 -0.2581 -2.2386 -1.2983
  403MOL0     H55614   9.718   1.016   1.954 -1.4640 -1.1552  0.5601
  404MOL0     O55615   7.088   7.878   6.354  0.4659 -0.4250  0.4694
  404MOL0     C55616   7.026   7.775   6.332  0.0354 -0.5268 -0.6069
  404MOL0     O55617   6.923   7.758   6.241  0.4405 -0.3201 -0.0197
  404MOL0     C55618   6.874   7.862   6.175 -0.1252  0.3294  0.3656
  404MOL0     C55619   6.957   7.927   6.086  0.0393  0.2044 -1.0702
  404MOL0     C55620   6.902   8.031   6.008 -0.2253  0.2499 -0.1898
  404MOL0     C55621   6.768   8.070   6.018 -0.0453 -0.3027  0.3919
  404MOL0     O55622   6.742   8.176   5.940  0.1504 -0.4537 -0.0496
  404MOL0     C55623   6.619   8.184   5.877 -0.4354  0.0054  0.8846
  404MOL0     C55624   6.611   8.293   5.770 -0.2594  1.0089  0.3223
  404MOL0     C55625   6.649   8.435   5.812  0.4714  0.1556 -1.3191
  404MOL0     C55626   6.808   8.440   5.795  0.1764  0.5381  0.7489
  404MOL0     C55627   6.871   8.574   5.828 -1.2839 -0.1796 -0.6764
  404MOL0     C55628   6.891   8.589   5.983 -0.1067 -0.2480  0.3591
  404MOL0     C55629   6.957   8.728   6.023  0.3556  0.8724 -0.5452
  404MOL0     C55630   6.978   8.743   6.173  0.0386  0.4802  0.2603
  404MOL0     N55631   7.040   8.871   6.215 -0.1647  0.2668 -0.5314
  404MOL0     C55632   6.978   8.989   6.172  0.0145  0.9081 -0.3842
  404MOL0     C55633   7.031   9.076   6.253 -0.3841  0.0474  0.3268
  404MOL0     C55634   7.007   9.226   6.226 -0.5383  0.1193  0.4067
  404MOL0     C55635   7.075   9.268   6.098 -0.1844  0.4446 -0.4934
  404MOL0     C55636   7.112   9.422   6.106  0.4446 -0.4871  0.2276
  404MOL0     C55637   7.175   9.475   5.979  0.6415  0.4576 -0.0477
  404MOL0     O55638   7.094   9.515   5.870  0.0312  1.6015  0.3182
  404MOL0     C55639   7.017   9.633   5.877 -0.1653  0.3744 -0.5449
  404MOL0     C55640   6.918   9.651   5.785 -1.1026 -0.5662  0.2020
  404MOL0     C55641   6.836   9.767   5.789 -0.6971  0.3110  0.1116
  404MOL0     C55642   6.724   9.770   5.681 -0.3448  0.0183  0.0375
  404MOL0     C55643   6.856   9.873   5.888 -0.1095 -0.0074 -0.2281
  404MOL0     C55644   6.778   9.996   5.882  0.5651  0.1074  0.0107
  404MOL0     O55645   6.647   9.990   5.860 -0.6096 -0.1892  0.3835
  404MOL0     C55646   6.559  10.100   5.830  0.1342  0.9716 -0.3435
  404MOL0     C55647   6.427  10.059   5.838  0.4365 -0.1790  0.1916
  404MOL0     C55648   6.329  10.165   5.832 -0.1180  0.0753  0.1089
  404MOL0     C55649   6.369  10.296   5.793  0.6119  0.3444 -0.3664
  404MOL0     O55650   6.275  10.395   5.779 -0.0891  0.7794  0.4367
  404MOL0     C55651   6.151  10.359   5.831 -0.1737 -1.8838 -0.3682
  404MOL0     C55652   6.061  10.481   5.793  0.3067  0.5196 -0.1912
  404MOL0     C55653   6.104  10.617   5.848 -0.1469  0.1799  0.0730
  404MOL0     C55654   6.034  10.717   5.756 -0.0295 -1.0809  0.6092
  404MOL0     C55655   6.088  10.857   5.775 -0.6807  0.7930 -0.5845
  404MOL0     C55656   6.225  10.874   5.720  0.4782 -0.8079 -0.1435
  404MOL0     C55657   6.257  11.022   5.711 -0.1468 -0.3288 -0.3026
  404MOL0     C55658   6.411  11.033   5.719 -0.3031 -0.6283 -0.2308
  404MOL0    Cl55659   6.461  11.026   5.891 -0.0903  0.1204  0.6796
  404MOL0     C55660   6.505  10.328   5.771 -0.0224 -0.2295  0.2649
  404MOL0     C55661   6.601  10.235   5.801 -0.2100  0.4090 -0.8951
  404MOL0     O55662   6.840  10.097   5.916 -0.2239  0.9786  0.0269
  404MOL0     C55663   6.966   9.853   5.980 -0.0423  1.2906 -0.3562
  404MOL0     C55664   7.044   9.736   5.975 -0.7750 -0.7436 -0.6763
  404MOL0     N55665   7.124   9.011   6.338 -0.3145 -0.2036 -0.7670
  404MOL0     N55666   7.123   8.880   6.329 -0.0232  0.6559  1.3183
  404MOL0     C55667   6.691   8.010   6.113 -0.7897 -0.9290  0.6235
  404MOL0     C55668   6.747   7.906   6.190 -0.2755  0.0820  0.9438
  404MOL0     C55669   7.058   7.662   6.421 -0.1085 -0.0863 -0.6757
  404MOL0     C55670   6.952   7.585   6.469 -0.3908 -0.6017  0.4977
  404MOL0     C55671   6.968   7.471   6.540  0.0191 -0.3853 -0.2940
  404MOL0     C55672   7.095   7.436   6.583 -0.6658  0.3097 -0.5666
  404MOL0     O55673   7.118   7.318   6.658 -0.4260 -0.2827  0.5780
  404MOL0     C55674   7.013   7.224   6.706  0.1454  1.1564  0.3570
  404MOL0     C55675   7.079   7.089   6.742  0.4425 -0.8576 -0.3173
  404MOL0     C55676   6.966   6.990   6.788 -0.6970  0.4924 -0.6224
  404MOL0     C55677   6.956   6.995   6.944 -0.1531 -0.7722  1.8944
  404MOL0     C55678   7.035   6.887   7.010  0.3862  0.1919  0.0428
  404MOL0     C55679   7.091   6.799   7.072 -0.7625  0.7340  0.0133
  404MOL0     C55680   7.202   7.509   6.530 -0.0686 -0.1305  0.4301
  404MOL0     C55681   7.188   7.619   6.445 -0.2472 -0.3296  0.0610
  404MOL0     C55682   7.312   7.689   6.398 -0.1925 -0.3821 -0.4151
  404MOL0     H55683   7.060   7.895   6.070  1.3676  2.5402  1.8307
  404MOL0     H55684   6.959   8.089   5.937 -3.4692  3.1519 -0.6468
  404MOL0     H55685   6.538   8.196   5.950  0.9970  0.5825  2.4280
  404MOL0     H55686   6.596   8.092   5.823  1.0655  0.6512 -0.9599
  404MOL0     H55687   6.692   8.271   5.700  1.0133  1.8147  1.4870
  404MOL0     H55688   6.510   8.286   5.729 -0.8341 -0.6365  1.8976
  404MOL0     H55689   6.606   8.514   5.749  0.3222  0.0031 -1.4111
  404MOL0     H55690   6.624   8.443   5.918  0.2800 -0.7426 -1.2902
  404MOL0     H55691   6.870   8.361   5.837  1.4635  1.6860  1.0571
  404MOL0     H55692   6.818   8.421   5.687 -0.4359 -3.2235  1.2213
  404MOL0     H55693   6.834   8.670   5.791  1.2437  1.3350  0.5046
  404MOL0     H55694   6.975   8.571   5.796  0.4190  3.3602  3.5023
  404MOL0     H55695   6.794   8.588   6.033  0.1246  4.4697  1.3366
  404MOL0     H55696   6.955   8.507   6.017 -1.7178 -1.0488  1.6274
  404MOL0     H55697   6.888   8.804   5.987 -0.8658 -0.2025 -0.5526
  404MOL0     H55698   7.055   8.746   5.978  1.1123  2.7361  1.6280
  404MOL0     H55699   6.880   8.730   6.221  0.1152 -3.7090 -0.3315
  404MOL0     H55700   7.045   8.665   6.211  0.2222  0.0268 -0.9516
  404MOL0     H55701   6.915   9.005   6.085  1.1141 -2.0486 -1.8473
  404MOL0     H55702   7.052   9.284   6.307  2.3759  0.5384 -1.3885
  404MOL0     H55703   6.899   9.246   6.230 -0.0752  2.9864  2.0231
  404MOL0     H55704   7.155   9.196   6.078 -2.4027 -2.6939  1.0764
  404MOL0     H55705   7.002   9.246   6.020  0.1512  0.5726 -0.8510
  404MOL0     H55706   7.023   9.482   6.127  0.0401 -0.8678 -0.3686
  404MOL0     H55707   7.178   9.430   6.193  4.1337 -2.0837 -2.2087
  404MOL0     H55708   7.237   9.563   5.996 -0.5656  1.2939  0.1714
  404MOL0     H55709   7.241   9.392   5.951 -0.9155 -0.1820 -2.0161
  404MOL0     H55710   6.901   9.574   5.711  0.4193 -0.1091 -0.6685
  404MOL0     H55711   6.711   9.871   5.642  1.4026 -0.4215 -1.8209
  404MOL0     H55712   6.629   9.728   5.715  0.9205 -0.8627  2.8159
  404MOL0     H55713   6.754   9.713   5.593 -2.5735 -0.3162 -0.5728
  404MOL0     H55714   6.398   9.956   5.858 -2.2637 -0.3209 -3.4745
  404MOL0     H55715   6.226  10.139   5.850 -1.1316  3.8350  0.6997
  404MOL0     H55716   6.099  10.266   5.805  0.9752 -2.4140 -0.8364
  404MOL0     H55717   6.169  10.365   5.939 -2.0325  1.4496 -0.1132
  404MOL0     H55718   6.042  10.480   5.686 -0.8593 -0.5026  0.0009
  404MOL0     H55719   5.956  10.464   5.819  0.5813 -0.3396  0.4259
  404MOL0     H55720   6.210  10.643   5.847 -0.1555  0.2579 -1.1995
  404MOL0     H55721   6.073  10.626   5.952  0.6414  1.7197  0.1953
  404MOL0     H55722   5.925  10.706   5.767 -0.1839  2.0342  4.9340
  404MOL0     H55723   6.052  10.697   5.650  0.9487 -2.7643  1.0579
  404MOL0     H55724   6.015  10.925   5.730 -2.9538 -1.1502 -0.0101
  404MOL0     H55725   6.080  10.877   5.882 -3.6979 -3.0476  0.1045
  404MOL0     H55726   6.227  10.827   5.621 -0.9790  1.1866 -1.1956
  404MOL0     H55727   6.292  10.823   5.789 -1.1277  0.1566  2.2504
  404MOL0     H55728   6.217  11.086   5.790 -1.2709  0.9554 -1.8414
  404MOL0     H55729   6.218  11.053   5.613  4.5709 -0.4786 -2.5206
  404MOL0     H55730   6.466  11.112   5.668  2.8265 -1.7367  1.1769
  404MOL0     H55731   6.442  10.934   5.685 -1.3900 -1.3239  0.7151
  404MOL0     H55732   6.531  10.433   5.760  1.4984 -0.7365 -1.2903
  404MOL0     H55733   6.705  10.267   5.805  0.2263 -0.8801 -1.4079
  404MOL0     H55734   6.983   9.938   6.046  0.8311 -1.7161  3.6904
  404MOL0     H55735   7.130   9.726   6.041 -0.6141 -1.5459 -0.9922
  404MOL0     H55736   6.583   8.021   6.123 -0.5406  1.9872  1.1353
  404MOL0     H55737   6.685   7.863   6.268 -0.9861  1.8999  1.4391
  404MOL0     H55738   6.850   7.617   6.449 -0.5547 -0.7143  1.1507
  404MOL0     H55739   6.882   7.407   6.557  1.5515 -2.7377 -0.9370
  404MOL0     H55740   6.957   7.260   6.793 -1.4811 -1.4809  0.5338
  404MOL0     H55741   6.939   7.214   6.626  1.0970 -0.7011 -0.3569
  404MOL0     H55742   7.143   7.102   6.830 -3.2181  1.1819  2.2964
  404MOL0     H55743   7.139   7.043   6.663 -0.2796  0.0538 -1.4158
  404MOL0     H55744   6.874   7.025   6.740 -0.2354 -0.0547 -1.9864
  404MOL0     H55745   6.979   6.885   6.760 -0.8165  0.1583  0.5551
  404MOL0     H55746   6.851   6.978   6.966 -0.9533  0.4260 -0.5862
  404MOL0     H55747   6.985   7.096   6.977 -1.6147  1.0824 -1.9154
  404MOL0     H55748   7.147   6.719   7.116 -1.2224 -0.3053 -1.2128
  404MOL0     H55749   7.300   7.474   6.560 -0.5698  0.2951  2.7162
  404MOL0     H55750   7.400   7.652   6.451 -1.4328 -1.8444  0.7050
  404MOL0     H55751   7.318   7.663   6.292  0.9927  2.2494 -1.0915
  404MOL0     H55752   7.299   7.795   6.422  0.0931 -0.9918  2.8839
  405MOL0     O55753   4.630   9.251   4.698  0.6552 -0.4779 -0.6836
  405MOL0     C55754   4.580   9.144   4.735 -1.1428  0.6945  0.3573
  405MOL0     O55755   4.559   9.033   4.655 -0.0712 -0.5597  0.2595
  405MOL0     C55756   4.589   9.040   4.516  0.6776  0.4172 -0.3023
  405MOL0     C55757   4.490   9.096   4.431 -0.0235  0.3016  0.3399
  405MOL0     C55758   4.512   9.112   4.294  0.4923 -0.7101  1.0368
  405MOL0     C55759   4.642   9.095   4.243 -0.3248  0.3118  0.0502
  405MOL0     O55760   4.669   9.130   4.112 -0.4988  0.1555 -0.6084
  405MOL0     C55761   4.740   9.029   4.035  0.5926  0.2206 -0.3074
  405MOL0     C55762   4.629   8.935   3.980 -0.4266  0.1236  0.3599
  405MOL0     C55763   4.551   9.000   3.873  0.1846 -0.0178 -0.2997
  405MOL0     C55764   4.443   8.913   3.809  0.3246  0.1867  0.7261
  405MOL0     C55765   4.343   8.999   3.719 -1.0906  0.3459 -0.7387
  405MOL0     C55766   4.408   9.077   3.607 -0.1037 -0.9118 -0.0863
  405MOL0     C55767   4.299   9.172   3.541 -0.5090  0.5530 -0.8706
  405MOL0     C55768   4.350   9.259   3.433 -0.3500 -0.2222  0.1870
  405MOL0     N55769   4.447   9.367   3.484  0.3580 -0.2595  0.2200
  405MOL0     C55770   4.435   9.501   3.470  0.5233 -0.6510  0.0022
  405MOL0     C55771   4.551   9.549   3.526 -0.5785  0.4777 -0.3726
  405MOL0     C55772   4.577   9.698   3.542 -1.1805 -1.2308  0.6900
  405MOL0     C55773   4.582   9.786   3.415 -0.0714  0.7263 -0.2776
  405MOL0     C55774   4.620   9.926   3.446  0.2351 -0.9353  0.9015
  405MOL0     C55775   4.769   9.955   3.425  0.5492 -0.3071  0.0952
  405MOL0     O55776   4.841   9.855   3.494  0.7382 -0.1628 -0.1840
  405MOL0     C55777   4.960   9.830   3.442 -0.2204 -0.4325  0.0646
  405MOL0     C55778   5.041   9.922   3.373 -0.3747  1.0826 -1.1138
  405MOL0     C55779   5.167   9.879   3.320  0.9756  0.2768  0.8062
  405MOL0     C55780   5.265   9.983   3.262 -0.7899 -0.0403 -0.4524
  405MOL0     C55781   5.199   9.743   3.334 -0.3273 -0.7447 -0.0935
  405MOL0     C55782   5.317   9.669   3.278  0.5421  0.7162 -0.0287
  405MOL0     O55783   5.341   9.541   3.325 -0.6379 -0.6924 -0.6985
  405MOL0     C55784   5.441   9.466   3.272 -0.0912  0.2585  0.1852
  405MOL0     C55785   5.571   9.464   3.333 -0.0707 -1.2823 -0.2422
  405MOL0     C55786   5.672   9.387   3.279 -0.4093  1.1968  0.3090
  405MOL0     C55787   5.640   9.298   3.181 -0.2164 -0.6813  0.6572
  405MOL0     O55788   5.723   9.190   3.151  0.2026  0.2290 -0.1246
  405MOL0     C55789   5.829   9.140   3.242  0.5885 -0.9595  0.2254
  405MOL0     C55790   5.959   9.210   3.196 -0.4596  0.2294  0.2060
  405MOL0     C55791   6.037   9.127   3.094 -0.2772  0.6300 -0.2816
  405MOL0     C55792   6.081   8.987   3.135 -0.0027  0.4136 -0.8229
  405MOL0     C55793   6.183   8.994   3.245 -0.8410  0.9100 -0.8081
  405MOL0     C55794   6.252   8.863   3.303  0.6400 -0.6750 -0.4492
  405MOL0     C55795   6.236   8.738   3.211 -0.9054 -0.0907 -0.4482
  405MOL0     C55796   6.287   8.610   3.283  0.0930 -0.5818  0.6166
  405MOL0    Cl55797   6.459   8.617   3.284 -0.0368 -0.2867  0.1029
  405MOL0     C55798   5.521   9.308   3.113 -0.7094 -0.2026  0.0998
  405MOL0     C55799   5.422   9.401   3.155  0.6167 -0.0035  0.0127
  405MOL0     O55800   5.382   9.722   3.191  0.0907  0.4253  0.7042
  405MOL0     C55801   5.118   9.656   3.409  0.2526  0.2544 -0.1661
  405MOL0     C55802   4.996   9.696   3.455  0.0050 -0.0798  0.2947
  405MOL0     N55803   4.628   9.452   3.579 -1.1465 -0.8818 -0.3574
  405MOL0     N55804   4.569   9.343   3.540 -0.3589  0.6198 -0.7696
  405MOL0     C55805   4.734   9.041   4.327 -0.9299 -0.7955  0.1174
  405MOL0     C55806   4.717   9.016   4.456 -0.6326  0.1511  0.0666
  405MOL0     C55807   4.521   9.138   4.871  0.7064 -0.6816  0.0852
  405MOL0     C55808   4.427   9.039   4.900  0.8948  0.0817 -0.6409
  405MOL0     C55809   4.346   9.031   5.014 -0.0135 -0.4709 -0.3291
  405MOL0     C55810   4.357   9.140   5.099 -0.4225 -0.0576  0.1809
  405MOL0     O55811   4.274   9.164   5.208 -1.2380 -0.3585  0.4627
  405MOL0     C55812   4.146   9.102   5.215 -0.9606 -1.2956  0.1429
  405MOL0     C55813   4.152   8.977   5.286 -0.0119  0.0996 -0.5866
  405MOL0     C55814   4.040   8.952   5.382  0.0894 -0.1949  0.3681
  405MOL0     C55815   3.899   8.905   5.332 -0.3629  0.5152  0.1461
  405MOL0     C55816   3.819   9.007   5.257  0.0848 -0.6523 -0.8531
  405MOL0     C55817   3.746   9.099   5.224 -0.6704 -0.0216 -0.2275
  405MOL0     C55818   4.462   9.232   5.077  0.5336 -0.1362 -0.3549
  405MOL0     C55819   4.553   9.233   4.969  0.3843 -0.2565  0.2743
  405MOL0     C55820   4.660   9.338   4.962  0.7406  0.4239 -0.8827
  405MOL0     H55821   4.397   9.130   4.477  0.1370 -0.8763  1.6178
  405MOL0     H55822   4.431   9.142   4.228 -0.0698 -1.7966  1.2036
  405MOL0     H55823   4.805   8.958   4.086 -1.4193 -0.2768  1.7796
  405MOL0     H55824   4.781   9.078   3.946 -0.5500 -0.2824 -1.1322
  405MOL0     H55825   4.676   8.840   3.950 -1.2970  0.2210 -1.4737
  405MOL0     H55826   4.576   8.900   4.069  3.0015 -1.4272  1.9833
  405MOL0     H55827   4.496   9.085   3.913  2.3920  0.8724  1.0524
  405MOL0     H55828   4.612   9.024   3.785  0.3136 -5.2869 -1.9905
  405MOL0     H55829   4.486   8.834   3.746 -0.1663  0.7905 -0.4079
  405MOL0     H55830   4.394   8.859   3.890  0.3036 -1.6440 -0.4359
  405MOL0     H55831   4.291   9.066   3.789  0.3257 -2.2068  3.0510
  405MOL0     H55832   4.267   8.932   3.676 -1.5616 -0.3104  1.0508
  405MOL0     H55833   4.483   9.146   3.647 -2.9691  1.5167  1.5272
  405MOL0     H55834   4.450   9.010   3.531 -2.4599 -2.6457  0.0402
  405MOL0     H55835   4.262   9.236   3.622  3.0656  1.6988  0.0417
  405MOL0     H55836   4.227   9.104   3.495  0.8791 -0.7443 -1.2046
  405MOL0     H55837   4.403   9.195   3.362  0.9582  0.2471  0.7037
  405MOL0     H55838   4.265   9.311   3.387 -0.4340  0.8483  1.4992
  405MOL0     H55839   4.346   9.557   3.443  2.7361  1.8872 -2.7238
  405MOL0     H55840   4.677   9.692   3.587 -0.8454 -0.3660  0.0844
  405MOL0     H55841   4.516   9.749   3.617  0.5253  0.3532  1.0913
  405MOL0     H55842   4.647   9.745   3.337  0.9006 -1.0301  1.3940
  405MOL0     H55843   4.484   9.797   3.366 -0.6840  1.2372  1.0317
  405MOL0     H55844   4.568   9.990   3.373  1.4726 -0.6076  0.2813
  405MOL0     H55845   4.584   9.955   3.546  1.9223  0.6962  1.0872
  405MOL0     H55846   4.796   9.953   3.319  1.1306  0.0081  0.2339
  405MOL0     H55847   4.790  10.056   3.463  2.6180 -0.1864 -1.1969
  405MOL0     H55848   5.001  10.021   3.354 -2.4527  0.9564  1.8181
  405MOL0     H55849   5.284  10.052   3.344  0.5188  1.8768 -2.2448
  405MOL0     H55850   5.217  10.034   3.178 -1.0182  0.5468  0.0307
  405MOL0     H55851   5.363   9.944   3.233  0.6167  0.7740  2.8306
  405MOL0     H55852   5.605   9.520   3.420  0.9940  0.5160 -1.7490
  405MOL0     H55853   5.760   9.377   3.342 -3.7522 -1.1013  5.2823
  405MOL0     H55854   5.808   9.171   3.345 -3.1613 -2.8206  0.1849
  405MOL0     H55855   5.819   9.032   3.250 -2.6871 -0.7269  0.8291
  405MOL0     H55856   5.932   9.308   3.154 -0.0774 -0.4147 -1.6175
  405MOL0     H55857   6.017   9.234   3.285 -2.3008  1.7987  1.0719
  405MOL0     H55858   6.132   9.173   3.067  1.8135 -3.2508 -0.2285
  405MOL0     H55859   5.976   9.128   3.003  0.0777 -1.6547 -0.5847
  405MOL0     H55860   6.118   8.961   3.035  3.0800  0.1716  0.2863
  405MOL0     H55861   5.999   8.918   3.158 -0.4860  1.5177  0.9603
  405MOL0     H55862   6.263   9.061   3.212  1.1838 -0.5717  0.7697
  405MOL0     H55863   6.139   9.047   3.329  3.4771  1.0690  1.6566
  405MOL0     H55864   6.195   8.841   3.393 -0.5840 -1.5148 -1.4045
  405MOL0     H55865   6.355   8.878   3.336  0.8691 -2.9949  0.0500
  405MOL0     H55866   6.294   8.756   3.121 -2.0941  3.4782 -0.6286
  405MOL0     H55867   6.131   8.718   3.185 -1.3518  0.1810  1.0313
  405MOL0     H55868   6.255   8.515   3.239 -1.2111 -0.7165  1.7931
  405MOL0     H55869   6.241   8.605   3.382 -2.2442  0.0141 -0.3682
  405MOL0     H55870   5.504   9.229   3.040  3.1168 -1.1267 -0.0106
  405MOL0     H55871   5.320   9.405   3.117  0.2149  0.4555  1.0992
  405MOL0     H55872   5.143   9.551   3.418 -0.5682 -0.1209 -1.8365
  405MOL0     H55873   4.923   9.632   3.503  1.6111 -0.8484  1.8037
  405MOL0     H55874   4.836   9.014   4.303 -1.4319 -3.1241  0.3316
  405MOL0     H55875   4.785   8.965   4.523 -2.2643  0.0771  1.7410
  405MOL0     H55876   4.408   8.966   4.822  1.5803 -0.5788 -0.2105
  405MOL0     H55877   4.277   8.949   5.030  1.3813 -1.3729  1.5276
  405MOL0     H55878   4.076   9.161   5.276  0.1091 -0.7697  0.8929
  405MOL0     H55879   4.093   9.101   5.120 -1.3358  4.8462 -0.1505
  405MOL0     H55880   4.247   8.972   5.339  0.5559 -2.0140 -1.7167
  405MOL0     H55881   4.164   8.895   5.215  2.0244 -1.0459  0.9955
  405MOL0     H55882   4.066   8.870   5.450  1.2897  1.2290  1.7026
  405MOL0     H55883   4.026   9.043   5.441  1.4646 -0.2083  0.7468
  405MOL0     H55884   3.845   8.879   5.423 -2.9053  2.8766 -0.5701
  405MOL0     H55885   3.919   8.816   5.271  1.4253  1.3190 -0.4955
  405MOL0     H55886   3.679   9.182   5.219  0.0421  0.6702  1.2257
  405MOL0     H55887   4.470   9.315   5.146 -0.5669  0.0645 -0.4568
  405MOL0     H55888   4.661   9.399   5.053  1.2765  0.9113 -1.2106
  405MOL0     H55889   4.753   9.282   4.950  0.5065 -0.1858 -0.0048
  405MOL0     H55890   4.644   9.406   4.878 -2.6586  0.3280 -0.4670
  406MOL0     O55891   1.599   7.709  11.527 -0.1007 -0.1830 -0.1705
  406MOL0     C55892   1.622   7.677  11.412 -0.1696 -0.1353  0.0754
  406MOL0     O55893   1.681   7.752  11.321 -0.1404 -0.1236  0.3670
  406MOL0     C55894   1.724   7.887  11.336  0.4355  0.3379  0.1292
  406MOL0     C55895   1.683   7.981  11.432 -0.0883  0.1521 -0.4501
  406MOL0     C55896   1.737   8.108  11.445 -0.1789  0.3129  0.9755
  406MOL0     C55897   1.806   8.156  11.338  0.0345 -0.6068  0.5940
  406MOL0     O55898   1.880   8.274  11.332 -0.0026  0.0531 -0.9306
  406MOL0     C55899   1.857   8.386  11.409  0.4338 -0.7854  0.1745
  406MOL0     C55900   1.900   8.522  11.364  0.0216 -0.5276 -0.3456
  406MOL0     C55901   2.051   8.530  11.368 -0.3938  0.1483 -0.2477
  406MOL0     C55902   2.113   8.632  11.281  1.6698 -0.1431  0.3917
  406MOL0     C55903   2.264   8.639  11.304  0.4880 -0.1226 -0.8217
  406MOL0     C55904   2.322   8.741  11.204  1.2771 -0.7597  0.5281
  406MOL0     C55905   2.474   8.781  11.226 -0.6732 -0.1897 -0.0416
  406MOL0     C55906   2.508   8.926  11.161 -0.1504 -0.5375 -0.3329
  406MOL0     N55907   2.649   8.952  11.189  0.3909  0.0991  1.0491
  406MOL0     C55908   2.704   9.066  11.245  0.5115  0.6105  0.5347
  406MOL0     C55909   2.836   9.052  11.228 -0.2154 -0.0215 -0.6136
  406MOL0     C55910   2.926   9.161  11.268  1.3847 -0.3704  0.2695
  406MOL0     C55911   2.947   9.166  11.417 -0.1086  0.5401  0.1105
  406MOL0     C55912   3.028   9.039  11.463  0.3220  0.5411  1.0539
  406MOL0     C55913   3.176   9.055  11.436 -0.1149 -0.2201  0.2760
  406MOL0     O55914   3.233   9.170  11.494  0.2457 -0.4588  0.6285
  406MOL0     C55915   3.273   9.276  11.416  0.3624  0.5066  0.0080
  406MOL0     C55916   3.285   9.283  11.272 -0.7105 -0.0298 -0.4668
  406MOL0     C55917   3.321   9.403  11.204 -0.8984  0.5032 -0.2016
  406MOL0     C55918   3.353   9.398  11.057 -0.6565  0.1307  0.7009
  406MOL0     C55919   3.344   9.520  11.283  0.1958  0.5178  0.8143
  406MOL0     C55920   3.381   9.654  11.223  0.4119  0.4673 -0.4593
  406MOL0     O55921   3.483   9.645  11.130  0.2017 -0.6371  1.1290
  406MOL0     C55922   3.495   9.741  11.030 -0.0699 -0.3736 -0.2477
  406MOL0     C55923   3.396   9.787  10.940  1.0046 -1.4190 -0.2909
  406MOL0     C55924   3.416   9.885  10.843  1.0180  0.2053  0.5971
  406MOL0     C55925   3.547   9.927  10.810 -0.4852  0.4064 -0.7891
  406MOL0     O55926   3.562  10.013  10.708 -0.1702 -0.2322  0.1141
  406MOL0     C55927   3.657  10.120  10.726 -0.4021  0.0875 -0.0263
  406MOL0     C55928   3.571  10.248  10.750 -0.8990 -0.2118  0.0151
  406MOL0     C55929   3.506  10.244  10.886 -0.1906 -1.6833  0.1579
  406MOL0     C55930   3.611  10.269  10.988 -0.9749  0.2947  0.5618
  406MOL0     C55931   3.553  10.272  11.137  0.2638 -0.4854 -0.6740
  406MOL0     C55932   3.515  10.136  11.191  0.3213  1.0055  1.8037
  406MOL0     C55933   3.529  10.118  11.331 -0.0321 -0.6643 -1.0397
  406MOL0     C55934   3.570   9.984  11.371  0.1175  2.0808 -0.2353
  406MOL0    Cl55935   3.748   9.989  11.361  0.0666  0.0118  0.2602
  406MOL0     C55936   3.651   9.881  10.898  1.3035  0.0142 -0.6586
  406MOL0     C55937   3.626   9.788  11.006  0.2565 -0.0307 -0.0462
  406MOL0     O55938   3.322   9.754  11.256  0.4873  0.4199  0.0226
  406MOL0     C55939   3.327   9.513  11.419 -0.0979  0.2185 -0.0726
  406MOL0     C55940   3.289   9.393  11.482 -0.9258  0.1726 -0.1667
  406MOL0     N55941   2.867   8.934  11.161 -0.3041  0.3660  0.6180
  406MOL0     N55942   2.758   8.881  11.137  0.1914  0.0743 -0.9995
  406MOL0     C55943   1.836   8.069  11.231  0.0343  0.0427 -0.2786
  406MOL0     C55944   1.795   7.937  11.229 -0.5007  0.3664 -1.2271
  406MOL0     C55945   1.579   7.537  11.366  0.4142 -0.7778 -0.0077
  406MOL0     C55946   1.554   7.442  11.471  0.4388  0.3698  0.5514
  406MOL0     C55947   1.526   7.306  11.434  0.3755 -0.4136 -0.6233
  406MOL0     C55948   1.508   7.275  11.304  0.3009  0.2959 -0.3119
  406MOL0     O55949   1.492   7.144  11.273  0.0619  0.1382 -0.1743
  406MOL0     C55950   1.347   7.110  11.251 -0.3532  0.0337 -0.5378
  406MOL0     C55951   1.344   6.959  11.207 -0.0059  0.3288 -0.1635
  406MOL0     C55952   1.401   6.958  11.060  0.5535  1.0850  0.3443
  406MOL0     C55953   1.433   6.812  11.028 -0.6082 -0.2254 -1.0407
  406MOL0     C55954   1.323   6.715  11.022  0.0247 -0.5796 -0.5409
  406MOL0     C55955   1.255   6.618  11.009 -0.0580 -0.0177  0.4546
  406MOL0     C55956   1.513   7.374  11.206 -1.2836  0.5238  0.7064
  406MOL0     C55957   1.551   7.502  11.237 -0.0083 -0.4715  0.1962
  406MOL0     C55958   1.564   7.600  11.121 -0.2857 -1.2878  0.0680
  406MOL0     H55959   1.608   7.936  11.497  1.4068 -6.1311 -2.4302
  406MOL0     H55960   1.717   8.165  11.535 -2.4556 -1.6266  1.8035
  406MOL0     H55961   1.902   8.365  11.506  0.9394 -0.8703 -0.0757
  406MOL0     H55962   1.748   8.388  11.419  0.2023 -1.4897 -1.8017
  406MOL0     H55963   1.861   8.534  11.263  0.1236 -0.0275 -0.3252
  406MOL0     H55964   1.862   8.601  11.429  0.9816 -2.5446  2.9668
  406MOL0     H55965   2.083   8.534  11.473 -1.1177 -0.9626  0.0262
  406MOL0     H55966   2.088   8.440  11.317  0.5912  1.5331 -2.0905
  406MOL0     H55967   2.084   8.622  11.176  0.7092  1.3305  0.4819
  406MOL0     H55968   2.074   8.729  11.314  0.6276 -1.0200  1.8996
  406MOL0     H55969   2.313   8.542  11.288  0.4429 -0.3342  0.2023
  406MOL0     H55970   2.289   8.671  11.406  1.2386  2.4318 -1.7555
  406MOL0     H55971   2.303   8.702  11.103 -3.2482 -0.4449  1.0301
  406MOL0     H55972   2.250   8.821  11.220  1.7686 -0.5720  1.8637
  406MOL0     H55973   2.539   8.707  11.178 -0.8153 -0.9330  0.8797
  406MOL0     H55974   2.489   8.775  11.334 -2.1434 -2.9204  0.0940
  406MOL0     H55975   2.478   8.961  11.061 -1.5164  0.5448  0.4201
  406MOL0     H55976   2.450   8.992  11.225 -0.6840  0.4717 -1.8008
  406MOL0     H55977   2.656   9.153  11.290 -1.5714 -0.6319  0.8360
  406MOL0     H55978   2.872   9.246  11.225  2.1431 -1.4551 -3.1752
  406MOL0     H55979   3.024   9.154  11.219  0.9694  1.7274 -1.0057
  406MOL0     H55980   3.005   9.252  11.454 -1.3345  0.3514  2.6834
  406MOL0     H55981   2.852   9.167  11.471 -0.0883  2.0707  0.1688
  406MOL0     H55982   3.017   9.022  11.570 -1.2544 -0.1326  0.8025
  406MOL0     H55983   3.000   8.945  11.415 -2.2972  1.2677  1.0214
  406MOL0     H55984   3.231   8.974  11.483 -0.5648  0.1937  1.5634
  406MOL0     H55985   3.197   9.042  11.329 -0.7339  3.5467 -0.4630
  406MOL0     H55986   3.262   9.194  11.215 -3.0758 -1.6390  2.6952
  406MOL0     H55987   3.301   9.322  10.998  0.1930  1.1314 -1.4452
  406MOL0     H55988   3.455   9.367  11.036 -1.0597 -0.4223 -0.5064
  406MOL0     H55989   3.331   9.498  11.018  1.3524 -0.3410 -1.8352
  406MOL0     H55990   3.292   9.764  10.964 -0.0627  2.9909  0.0851
  406MOL0     H55991   3.342   9.923  10.773  2.6435 -1.2942 -2.1277
  406MOL0     H55992   3.731  10.115  10.807  2.1173  0.6312 -2.1481
  406MOL0     H55993   3.715  10.120  10.634  1.0135 -1.5516  0.8058
  406MOL0     H55994   3.621  10.343  10.728 -0.8709 -0.3751 -0.6560
  406MOL0     H55995   3.499  10.241  10.668 -0.0631  0.3152 -0.7879
  406MOL0     H55996   3.446  10.153  10.900 -2.0959 -0.6462 -0.8962
  406MOL0     H55997   3.427  10.318  10.900  2.9242  1.6062  2.0592
  406MOL0     H55998   3.667  10.363  10.978 -3.8980  2.1095  0.2022
  406MOL0     H55999   3.686  10.189  10.989 -0.2304  0.9703  1.1139
  406MOL0     H56000   3.636  10.312  11.197 -0.2711 -0.8883  0.3479
  406MOL0     H56001   3.460  10.330  11.130 -0.2054 -1.3846 -2.2543
  406MOL0     H56002   3.601  10.079  11.154  0.7880 -1.3432  5.9428
  406MOL0     H56003   3.419  10.109  11.147  2.6578  0.9804 -4.2947
  406MOL0     H56004   3.435  10.141  11.381  0.2745 -2.6670  0.6096
  406MOL0     H56005   3.602  10.191  11.366  1.6509 -1.5835 -2.4216
  406MOL0     H56006   3.535   9.910  11.299  1.6569  2.4779 -1.4437
  406MOL0     H56007   3.536   9.968  11.473  1.2101  0.2049 -0.1191
  406MOL0     H56008   3.756   9.906  10.884  1.8518 -1.7979 -0.0186
  406MOL0     H56009   3.702   9.751  11.073 -1.2387 -1.9646  0.6651
  406MOL0     H56010   3.347   9.599  11.482 -1.3876 -0.6073  1.5400
  406MOL0     H56011   3.291   9.387  11.590 -1.0504  0.6970 -0.1324
  406MOL0     H56012   1.881   8.130  11.153  2.7151 -0.0383  1.0645
  406MOL0     H56013   1.827   7.864  11.155  1.7460 -2.5575  2.2641
  406MOL0     H56014   1.557   7.470  11.576  1.0942  4.1911 -0.3364
  406MOL0     H56015   1.534   7.229  11.510 -1.2069 -0.8353 -0.8616
  406MOL0     H56016   1.301   7.123  11.349  2.2217  1.6050  0.5433
  406MOL0     H56017   1.310   7.167  11.165 -1.3622 -2.9120 -2.1953
  406MOL0     H56018   1.238   6.932  11.199 -0.2818  0.8879  1.3661
  406MOL0     H56019   1.394   6.911  11.291 -0.6934 -0.0867  0.0152
  406MOL0     H56020   1.329   6.997  10.987 -3.4636 -1.4725  2.5991
  406MOL0     H56021   1.498   7.007  11.048  0.9271  1.0315  2.7560
  406MOL0     H56022   1.502   6.782  11.107  0.4752 -1.3527 -2.3669
  406MOL0     H56023   1.484   6.809  10.932 -3.2441  1.7950 -2.6226
  406MOL0     H56024   1.205   6.525  10.993 -0.3980  0.3897 -1.0109
  406MOL0     H56025   1.527   7.333  11.107  2.8291 -0.9032  1.6938
  406MOL0     H56026   1.493   7.681  11.142  1.3669 -0.2583  2.0773
  406MOL0     H56027   1.662   7.632  11.086 -0.7486 -2.2549 -2.3189
  406MOL0     H56028   1.517   7.550  11.036  1.4531 -1.1723 -0.9935
  407MOL0     O56029   6.219  10.527   6.156  0.1094 -0.6008 -0.6209
  407MOL0     C56030   6.335  10.553   6.195  0.1011  0.0703 -0.1510
  407MOL0     O56031   6.375  10.672   6.245  0.3638 -0.7000  0.2016
  407MOL0     C56032   6.294  10.785   6.263 -0.6270  0.2351  0.4093
  407MOL0     C56033   6.213  10.805   6.379 -0.3236 -0.4908  0.2463
  407MOL0     C56034   6.143  10.930   6.381 -0.8337 -0.7422  0.2312
  407MOL0     C56035   6.142  11.025   6.280  0.2702 -0.2686  0.7650
  407MOL0     O56036   6.088  11.150   6.313 -0.5846  0.0331  0.3467
  407MOL0     C56037   6.079  11.253   6.219  0.2289  1.0470  0.0360
  407MOL0     C56038   6.031  11.377   6.287  0.6599 -0.4549  0.4696
  407MOL0     C56039   5.926  11.355   6.387 -0.6152 -0.0387  0.5173
  407MOL0     C56040   5.881  11.494   6.432  0.6207 -0.0791  0.0914
  407MOL0     C56041   5.877  11.501   6.591 -0.2259 -0.2447 -0.4506
  407MOL0     C56042   6.014  11.528   6.658  0.0402  0.8418 -0.1630
  407MOL0     C56043   6.018  11.529   6.815  0.1019 -0.3435  0.8281
  407MOL0     C56044   5.919  11.630   6.873  0.3013 -0.9818 -0.2076
  407MOL0     N56045   5.933  11.634   7.023  0.4657 -0.1491  0.4504
  407MOL0     C56046   5.904  11.537   7.113  0.1741  0.2344 -0.1853
  407MOL0     C56047   5.939  11.589   7.233  0.5644 -0.1729 -0.7577
  407MOL0     C56048   5.948  11.521   7.367  0.3384 -1.2802  1.0238
  407MOL0     C56049   5.864  11.605   7.466 -0.3274  0.7665  0.0228
  407MOL0     C56050   5.855  11.539   7.602 -0.8347 -0.2763 -0.6677
  407MOL0     C56051   5.976  11.553   7.701 -0.1216 -0.5150  0.1462
  407MOL0     O56052   5.931  11.498   7.832 -0.3516  0.6395  0.1560
  407MOL0     C56053   6.026  11.488   7.933 -0.1010 -0.1418 -0.3207
  407MOL0     C56054   5.983  11.449   8.065  0.6186 -0.0423  0.2482
  407MOL0     C56055   6.068  11.420   8.164  0.0712  0.1932  0.5056
  407MOL0     C56056   6.013  11.388   8.297 -0.0886  0.8824 -0.2067
  407MOL0     C56057   6.205  11.428   8.144 -0.4307  0.7546 -1.1045
  407MOL0     C56058   6.315  11.389   8.236  0.3267  1.0690  0.6882
  407MOL0     O56059   6.295  11.258   8.283 -1.0754  0.1080 -0.6981
  407MOL0     C56060   6.384  11.213   8.379  0.3935  0.2979 -0.0108
  407MOL0     C56061   6.443  11.291   8.484 -1.1748 -0.1837  0.0656
  407MOL0     C56062   6.532  11.239   8.579  0.0223  0.5632 -0.5042
  407MOL0     C56063   6.564  11.098   8.582 -0.1644 -1.6686  1.1995
  407MOL0     O56064   6.650  11.039   8.674 -0.4936  0.2310 -0.2972
  407MOL0     C56065   6.684  11.132   8.782  0.8398 -0.5487 -1.2741
  407MOL0     C56066   6.747  11.067   8.905 -0.6007 -0.5823 -0.0115
  407MOL0     C56067   6.800  11.173   9.004 -0.6681  0.1552 -0.0044
  407MOL0     C56068   6.694  11.266   9.058 -0.3731  0.0058  0.5153
  407MOL0     C56069   6.714  11.313   9.196 -0.2296  0.1429 -0.0081
  407MOL0     C56070   6.601  11.411   9.239 -0.2422  0.5374  0.6048
  407MOL0     C56071   6.612  11.465   9.384  0.6307  0.0449  0.5101
  407MOL0     C56072   6.545  11.605   9.389  0.1838  0.7831 -0.2615
  407MOL0    Cl56073   6.367  11.589   9.356 -0.1935  0.1458 -0.2946
  407MOL0     C56074   6.493  11.024   8.482 -0.5041 -0.6339  0.4581
  407MOL0     C56075   6.404  11.074   8.388  0.3222  0.5596 -0.9153
  407MOL0     O56076   6.406  11.464   8.258 -1.2385 -0.0728  1.4101
  407MOL0     C56077   6.246  11.487   8.028  0.9082 -0.3420 -0.0351
  407MOL0     C56078   6.162  11.520   7.921 -0.5674 -0.1561  0.8608
  407MOL0     N56079   5.982  11.719   7.220 -0.4746  0.4528  0.2804
  407MOL0     N56080   5.985  11.745   7.088 -0.5848 -0.4908  0.3381
  407MOL0     C56081   6.209  10.993   6.163  0.3586 -0.3748  0.3493
  407MOL0     C56082   6.287  10.876   6.156 -0.1019  0.6205  0.2331
  407MOL0     C56083   6.429  10.442   6.202 -0.5077 -0.0494 -0.4832
  407MOL0     C56084   6.395  10.322   6.140  0.3040  0.0333  1.1068
  407MOL0     C56085   6.470  10.210   6.139 -0.0312 -0.3375  0.3799
  407MOL0     C56086   6.588  10.205   6.212 -1.1583  0.7003  0.5464
  407MOL0     O56087   6.664  10.099   6.220 -1.1480 -0.1017  0.3153
  407MOL0     C56088   6.594   9.974   6.237 -0.2408 -0.5131  0.3657
  407MOL0     C56089   6.680   9.862   6.246 -0.0127 -1.0277  0.0261
  407MOL0     C56090   6.786   9.874   6.352 -0.0192 -0.6214 -1.1356
  407MOL0     C56091   6.872   9.752   6.376 -0.5886  0.1553 -0.6149
  407MOL0     C56092   6.802   9.621   6.397 -0.4971 -0.8220  1.2131
  407MOL0     C56093   6.749   9.513   6.413  0.2502  0.1985  0.3738
  407MOL0     C56094   6.638  10.318   6.269  0.3262 -0.4169 -0.2329
  407MOL0     C56095   6.559  10.440   6.276  0.6644 -0.6770  0.3952
  407MOL0     C56096   6.617  10.558   6.352 -0.4188  0.3694 -1.3157
  407MOL0     H56097   6.218  10.745   6.469  0.1454 -0.3074  0.3470
  407MOL0     H56098   6.095  10.934   6.478  1.0839 -1.9863  1.3043
  407MOL0     H56099   6.015  11.222   6.137  1.3571 -0.4475 -0.3223
  407MOL0     H56100   6.178  11.265   6.174  0.4821  1.7235  0.7381
  407MOL0     H56101   6.115  11.423   6.340  0.1049 -1.3389  2.1712
  407MOL0     H56102   5.996  11.438   6.203  0.3250 -2.1495 -0.6860
  407MOL0     H56103   5.850  11.292   6.341 -0.2401 -3.4695  4.0249
  407MOL0     H56104   5.979  11.307   6.470  0.6625  1.4454  0.5985
  407MOL0     H56105   5.945  11.576   6.398  0.2852 -0.1910 -0.8506
  407MOL0     H56106   5.779  11.493   6.391  0.9524 -0.0548 -0.7567
  407MOL0     H56107   5.839  11.414   6.644 -1.7412  2.6876  3.8310
  407MOL0     H56108   5.821  11.593   6.611  1.1017  0.4615  0.1373
  407MOL0     H56109   6.086  11.453   6.625  1.7073  1.4598  1.8635
  407MOL0     H56110   6.051  11.620   6.612  2.3243  1.0665  1.9621
  407MOL0     H56111   6.123  11.544   6.843  0.9524 -2.8398 -0.6764
  407MOL0     H56112   5.994  11.430   6.856 -0.7232 -0.7300 -0.5146
  407MOL0     H56113   5.923  11.723   6.816 -2.5672 -1.1513 -0.8460
  407MOL0     H56114   5.819  11.589   6.855  0.0608 -0.1384 -0.8286
  407MOL0     H56115   5.863  11.439   7.095 -0.0095  0.3545 -0.4202
  407MOL0     H56116   6.050  11.509   7.404  1.0485 -2.7655 -1.2049
  407MOL0     H56117   5.910  11.420   7.350  0.0608 -0.6808 -2.8949
  407MOL0     H56118   5.915  11.700   7.486  1.8897 -1.1982  6.0657
  407MOL0     H56119   5.762  11.614   7.428 -0.6932 -2.1262  0.0791
  407MOL0     H56120   5.763  11.570   7.652 -0.7383 -1.0418 -0.0017
  407MOL0     H56121   5.846  11.430   7.603  3.6535 -0.8922  2.8013
  407MOL0     H56122   6.059  11.496   7.660  0.9681  0.7062  0.6033
  407MOL0     H56123   6.008  11.658   7.706  2.6572 -1.0236 -3.4402
  407MOL0     H56124   5.878  11.444   8.088  1.3831 -3.5832  3.9375
  407MOL0     H56125   6.057  11.452   8.374  1.8582 -0.9241  0.2556
  407MOL0     H56126   6.038  11.287   8.328 -2.0599  0.4102 -0.0215
  407MOL0     H56127   5.904  11.398   8.300 -0.2095 -0.5334  0.5943
  407MOL0     H56128   6.425  11.398   8.492  1.9785  0.3409  1.3851
  407MOL0     H56129   6.589  11.315   8.631 -0.3890  1.7390 -1.7067
  407MOL0     H56130   6.743  11.216   8.745  2.2764 -0.3995  1.1557
  407MOL0     H56131   6.587  11.164   8.821  2.2297 -0.5394  2.6411
  407MOL0     H56132   6.675  11.004   8.958 -0.8869  0.7313  1.2082
  407MOL0     H56133   6.835  11.017   8.863  0.0880 -0.6860  1.4979
  407MOL0     H56134   6.865  11.232   8.939 -1.3061 -0.5554 -1.3309
  407MOL0     H56135   6.840  11.118   9.090  1.1143  0.8845 -0.3356
  407MOL0     H56136   6.595  11.221   9.047 -0.0512 -1.9722  4.2180
  407MOL0     H56137   6.695  11.354   8.992 -2.6308  1.7827  2.6586
  407MOL0     H56138   6.729  11.227   9.262 -3.5117 -1.1010 -0.7112
  407MOL0     H56139   6.804  11.374   9.205 -0.9850  1.5450 -1.5084
  407MOL0     H56140   6.501  11.366   9.239 -0.1173  0.2565  0.9080
  407MOL0     H56141   6.591  11.481   9.156  1.0066 -1.6025 -1.4615
  407MOL0     H56142   6.719  11.466   9.405  1.2450  1.1280 -2.2446
  407MOL0     H56143   6.562  11.398   9.455 -0.0551 -1.4490 -1.2927
  407MOL0     H56144   6.606  11.672   9.326  1.8425  1.8855  2.3400
  407MOL0     H56145   6.549  11.650   9.488 -0.4465  2.9764 -1.1630
  407MOL0     H56146   6.508  10.919   8.462  0.2314 -0.3647 -0.5261
  407MOL0     H56147   6.358  11.003   8.320 -4.4021 -0.3677  2.7550
  407MOL0     H56148   6.351  11.506   8.009 -0.2206  3.9138 -3.8457
  407MOL0     H56149   6.200  11.560   7.827  1.0115 -2.4779  0.4232
  407MOL0     H56150   6.204  11.060   6.078 -0.0644 -1.4973 -0.5330
  407MOL0     H56151   6.342  10.846   6.068  0.2686  2.0169 -0.0413
  407MOL0     H56152   6.306  10.327   6.079  0.9815  4.7024  0.1447
  407MOL0     H56153   6.424  10.122   6.094 -0.6993 -1.2619  2.6916
  407MOL0     H56154   6.531   9.983   6.326 -0.8851  0.5880 -0.1758
  407MOL0     H56155   6.524   9.963   6.154 -0.1802  0.8337  0.1178
  407MOL0     H56156   6.734   9.824   6.159  2.5766  0.3633  0.9067
  407MOL0     H56157   6.619   9.774   6.269 -0.8240 -1.0374 -1.9472
  407MOL0     H56158   6.858   9.952   6.329 -1.1023  0.9998  0.7202
  407MOL0     H56159   6.739   9.904   6.446  1.3021  0.4529 -0.7852
  407MOL0     H56160   6.934   9.767   6.466 -1.5765 -2.6322  0.6279
  407MOL0     H56161   6.943   9.732   6.295  0.4729  0.6744  0.1541
  407MOL0     H56162   6.717   9.418   6.450 -0.8398  0.7492  0.9030
  407MOL0     H56163   6.731  10.313   6.325 -1.2957 -2.5870  2.5454
  407MOL0     H56164   6.722  10.552   6.380 -0.7978  1.1679  0.4364
  407MOL0     H56165   6.596  10.651   6.300 -3.0895 -0.3405 -1.6839
  407MOL0     H56166   6.559  10.566   6.445 -1.8778 -2.0775 -1.9075
  408MOL0     O56167   3.317   6.402   6.811 -0.8778 -0.1667  0.8287
  408MOL0     C56168   3.316   6.394   6.935 -0.3889  0.3524  0.8610
  408MOL0     O56169   3.215   6.462   7.007  0.3082  0.8236 -0.6261
  408MOL0     C56170   3.167   6.588   6.959  0.1573 -0.1348  0.2606
  408MOL0     C56171   3.043   6.646   7.014  0.0280  0.2415 -0.2676
  408MOL0     C56172   2.984   6.758   6.953 -0.5691 -0.5420 -0.4836
  408MOL0     C56173   3.056   6.826   6.857 -0.2776 -0.8458  0.9081
  408MOL0     O56174   3.004   6.944   6.812 -0.6066 -0.4913  0.3992
  408MOL0     C56175   3.008   6.962   6.670 -0.4081  0.1672  0.2655
  408MOL0     C56176   2.892   6.871   6.613 -0.1678  0.5819  0.6118
  408MOL0     C56177   2.953   6.768   6.514 -0.5671  0.2992 -0.3655
  408MOL0     C56178   2.829   6.675   6.458  1.1453  0.5281  0.2735
  408MOL0     C56179   2.746   6.749   6.352 -0.7635 -0.2915 -0.1648
  408MOL0     C56180   2.655   6.658   6.271  0.6185 -0.1479  0.0149
  408MOL0     C56181   2.545   6.729   6.182 -0.8941 -0.6175 -0.4735
  408MOL0     C56182   2.600   6.819   6.073  0.3371 -0.8439  0.1989
  408MOL0     N56183   2.491   6.896   6.005  0.0978 -0.5948 -0.8527
  408MOL0     C56184   2.400   6.973   6.075 -0.5653  0.3172 -1.1707
  408MOL0     C56185   2.331   7.035   5.975  0.5438  0.0800  0.3845
  408MOL0     C56186   2.220   7.140   5.984  0.6138 -0.1259 -0.2350
  408MOL0     C56187   2.178   7.149   6.137 -0.0577  0.0164  0.0203
  408MOL0     C56188   2.049   7.219   6.166 -0.5733  0.1810  1.0367
  408MOL0     C56189   1.998   7.200   6.305  0.1203 -0.6700  0.4033
  408MOL0     O56190   1.960   7.073   6.334  0.1212 -0.1541 -0.3059
  408MOL0     C56191   1.833   7.028   6.332  1.0779 -0.5559  0.3074
  408MOL0     C56192   1.737   7.070   6.241  0.8399 -0.2862  1.4109
  408MOL0     C56193   1.604   7.020   6.246 -0.1964  0.9538  0.1922
  408MOL0     C56194   1.520   7.036   6.119  0.3173 -1.1648 -0.0809
  408MOL0     C56195   1.571   6.932   6.352 -0.4479  0.4184 -0.5724
  408MOL0     C56196   1.445   6.853   6.360 -0.8970  0.1234 -0.1142
  408MOL0     O56197   1.405   6.811   6.480 -0.5123  0.2813 -0.1252
  408MOL0     C56198   1.320   6.897   6.544 -0.1408  1.3043  0.5114
  408MOL0     C56199   1.227   6.978   6.479 -0.0846 -0.5962  0.3234
  408MOL0     C56200   1.127   7.038   6.559  0.3943 -0.2129  0.6908
  408MOL0     C56201   1.114   7.031   6.694 -0.1799 -0.4230 -0.3069
  408MOL0     O56202   1.019   7.108   6.757 -0.4162 -0.4716  0.1630
  408MOL0     C56203   1.008   7.104   6.908  0.8939 -0.3927 -0.8340
  408MOL0     C56204   0.902   7.213   6.939 -0.3416 -0.1281 -0.0219
  408MOL0     C56205   0.758   7.183   6.889 -0.0570 -1.3313  1.2047
  408MOL0     C56206   0.690   7.315   6.833  0.4315 -0.2860  0.1695
  408MOL0     C56207   0.588   7.272   6.730 -0.1642 -0.1924 -0.0047
  408MOL0     C56208   0.540   7.391   6.646  0.9471 -0.8471  0.0451
  408MOL0     C56209   0.413   7.376   6.557 -0.1730  0.0525 -0.3090
  408MOL0     C56210   0.296   7.318   6.628 -0.3406  0.3433  0.0706
  408MOL0    Cl56211   0.217   7.436   6.741  0.0471  0.0463 -0.0247
  408MOL0     C56212   1.212   6.961   6.753 -0.4421  0.5266 -0.4550
  408MOL0     C56213   1.306   6.888   6.681 -0.2702 -1.2107 -0.6016
  408MOL0     O56214   1.384   6.826   6.256 -0.5123 -0.3990  0.3842
  408MOL0     C56215   1.667   6.898   6.448 -0.6544 -0.0542  1.0512
  408MOL0     C56216   1.801   6.942   6.428  0.5228  0.1071  0.5242
  408MOL0     N56217   2.382   7.002   5.852  0.3212 -0.2888  0.0353
  408MOL0     N56218   2.478   6.919   5.871 -0.2109  0.2038  0.3802
  408MOL0     C56219   3.186   6.788   6.831 -0.3872  1.0281  0.8743
  408MOL0     C56220   3.230   6.666   6.862 -0.2960  1.1515  0.1598
  408MOL0     C56221   3.396   6.282   6.999  0.2112 -0.3156  0.0633
  408MOL0     C56222   3.432   6.173   6.920  0.1079 -0.3899  0.5991
  408MOL0     C56223   3.499   6.058   6.969  0.0321  0.4428  0.3787
  408MOL0     C56224   3.542   6.060   7.096  0.4212 -0.1354 -1.1590
  408MOL0     O56225   3.617   5.957   7.142 -0.0729 -0.2065  0.2927
  408MOL0     C56226   3.702   5.976   7.253 -0.3075 -0.5086  0.1602
  408MOL0     C56227   3.817   6.068   7.209 -0.5625 -1.0881 -0.1450
  408MOL0     C56228   3.906   6.107   7.331  1.0988  0.6160  0.7175
  408MOL0     C56229   3.873   6.243   7.390  1.3055  0.3426 -0.6869
  408MOL0     C56230   3.864   6.346   7.284 -0.9510  0.2621  0.1992
  408MOL0     C56231   3.840   6.423   7.201  0.9664  0.7622  0.2074
  408MOL0     C56232   3.512   6.177   7.181  0.2943 -1.0557  0.7780
  408MOL0     C56233   3.445   6.288   7.135  0.1371 -0.8995 -0.1978
  408MOL0     C56234   3.419   6.411   7.226 -0.0181  0.6384 -0.9666
  408MOL0     H56235   2.972   6.592   7.077 -1.8687  1.2875 -1.4140
  408MOL0     H56236   2.881   6.785   6.972 -1.5510 -3.5450 -0.9369
  408MOL0     H56237   3.102   6.938   6.620  0.4399 -1.2706  2.3943
  408MOL0     H56238   2.986   7.069   6.667  2.1438  0.8125  1.5895
  408MOL0     H56239   2.831   6.811   6.680 -1.8432  2.3647  0.7822
  408MOL0     H56240   2.828   6.944   6.563 -1.6093 -2.1125 -1.7605
  408MOL0     H56241   3.013   6.803   6.429  0.0554 -1.3206 -0.6328
  408MOL0     H56242   3.022   6.703   6.570 -0.9382  0.3957  0.2205
  408MOL0     H56243   2.873   6.581   6.423  2.4182 -0.7516  4.6056
  408MOL0     H56244   2.767   6.650   6.545  0.4928 -1.8958 -0.8284
  408MOL0     H56245   2.811   6.790   6.275 -1.0844  2.9737  1.1669
  408MOL0     H56246   2.699   6.839   6.393  0.6811  0.3868  0.0534
  408MOL0     H56247   2.713   6.588   6.210  2.2526 -0.4310  1.7702
  408MOL0     H56248   2.611   6.588   6.343  3.9380 -1.2708  1.1578
  408MOL0     H56249   2.471   6.788   6.236 -0.9990  0.6652 -1.9448
  408MOL0     H56250   2.483   6.647   6.143 -1.6956 -0.3480  0.2029
  408MOL0     H56251   2.668   6.889   6.122 -1.9615  2.3800 -0.9129
  408MOL0     H56252   2.664   6.770   5.999  1.0838  0.6478 -0.1702
  408MOL0     H56253   2.376   6.970   6.181 -4.1606 -1.5129 -1.8632
  408MOL0     H56254   2.144   7.108   5.913  1.1667  2.1282 -1.9498
  408MOL0     H56255   2.254   7.238   5.950 -0.8367  0.9746  1.3002
  408MOL0     H56256   2.166   7.046   6.174  0.1940 -0.5863 -1.5246
  408MOL0     H56257   2.252   7.202   6.199 -0.9431  0.8958  0.3397
  408MOL0     H56258   2.065   7.325   6.146 -1.6930  0.4556  1.4865
  408MOL0     H56259   1.972   7.190   6.093 -0.1099 -4.1224  2.0031
  408MOL0     H56260   2.077   7.224   6.377  0.9181 -1.3618 -0.2265
  408MOL0     H56261   1.921   7.277   6.306 -1.8859 -2.5789 -0.2366
  408MOL0     H56262   1.751   7.135   6.155  1.5720  1.6676  2.9262
  408MOL0     H56263   1.413   7.035   6.138  0.2368  5.0255  2.2445
  408MOL0     H56264   1.550   6.958   6.048  1.4202  0.3917 -1.4101
  408MOL0     H56265   1.540   7.136   6.079  0.8768 -2.1462 -2.4267
  408MOL0     H56266   1.216   7.009   6.375 -2.0980  1.2701  1.0255
  408MOL0     H56267   1.058   7.103   6.505  2.7223 -1.3581 -4.3014
  408MOL0     H56268   0.971   7.011   6.953  0.0496  0.5130  0.4025
  408MOL0     H56269   1.106   7.129   6.948 -0.5529  0.1529  2.7390
  408MOL0     H56270   0.909   7.252   7.041  2.1675  2.0178 -0.8800
  408MOL0     H56271   0.952   7.299   6.892  0.9576  0.8856  2.9933
  408MOL0     H56272   0.696   7.138   6.967 -1.6124  2.3413  2.3391
  408MOL0     H56273   0.771   7.117   6.803 -0.9938  0.8082 -0.7009
  408MOL0     H56274   0.766   7.372   6.778 -0.4986 -0.9584 -1.9487
  408MOL0     H56275   0.641   7.386   6.900 -2.4918 -1.6086 -0.3906
  408MOL0     H56276   0.624   7.194   6.662 -0.2480 -1.1314  1.0021
  408MOL0     H56277   0.499   7.224   6.770 -2.1483  1.7040 -1.8450
  408MOL0     H56278   0.629   7.421   6.589  1.3779 -1.3463  0.4490
  408MOL0     H56279   0.519   7.484   6.699  0.4676 -0.2539 -1.1440
  408MOL0     H56280   0.433   7.301   6.480 -0.5790  0.5099 -0.8704
  408MOL0     H56281   0.392   7.469   6.504 -1.5834 -1.1832 -2.0726
  408MOL0     H56282   0.326   7.222   6.671  0.9760 -0.1521 -1.8063
  408MOL0     H56283   0.223   7.286   6.554 -1.4099  1.1277  0.7612
  408MOL0     H56284   1.228   6.948   6.859 -0.1215 -0.8350 -0.6538
  408MOL0     H56285   1.375   6.833   6.744  2.9058  0.0435 -2.7196
  408MOL0     H56286   1.652   6.841   6.540 -0.9321 -0.3009  0.8580
  408MOL0     H56287   1.882   6.916   6.495 -0.1590 -0.2486  1.2300
  408MOL0     H56288   3.236   6.852   6.759  2.2050  0.8803  2.4336
  408MOL0     H56289   3.329   6.641   6.824 -0.0704  1.1862  0.7016
  408MOL0     H56290   3.393   6.170   6.819  3.4085  0.5608 -0.8460
  408MOL0     H56291   3.511   5.968   6.910  2.3406  0.9127  0.0294
  408MOL0     H56292   3.648   5.999   7.345  0.4915  1.1615  0.2447
  408MOL0     H56293   3.750   5.881   7.279  4.0416  1.3458 -0.3507
  408MOL0     H56294   3.769   6.156   7.165  1.1326 -0.4477 -0.8066
  408MOL0     H56295   3.878   6.017   7.133  0.1222 -4.0057  2.1710
  408MOL0     H56296   3.902   6.023   7.401 -0.2523  1.6762  1.9808
  408MOL0     H56297   4.005   6.120   7.285  0.2410  0.5032 -1.2312
  408MOL0     H56298   3.959   6.274   7.452  3.2960 -2.0795 -2.0638
  408MOL0     H56299   3.781   6.236   7.449  1.5990  0.7656 -0.1681
  408MOL0     H56300   3.813   6.505   7.137  1.5894  0.9801  0.2166
  408MOL0     H56301   3.543   6.200   7.282  1.1962  2.7592 -0.2094
  408MOL0     H56302   3.317   6.417   7.264 -0.0883 -0.8260 -0.8889
  408MOL0     H56303   3.490   6.424   7.308  0.1788  2.5881 -1.3920
  408MOL0     H56304   3.446   6.497   7.163 -0.9632  0.8889 -1.0467
  409MOL0     O56305   1.753   1.924  10.284 -0.2062  0.7538  0.7535
  409MOL0     C56306   1.852   1.926  10.214  0.7027 -0.4165 -0.2406
  409MOL0     O56307   1.897   1.832  10.129  0.0583 -0.2752  0.5919
  409MOL0     C56308   1.816   1.732  10.091 -0.8722  0.8260 -0.2005
  409MOL0     C56309   1.756   1.731   9.967 -0.1829 -0.8847 -0.4113
  409MOL0     C56310   1.663   1.633   9.945  0.1407  0.6282  0.2722
  409MOL0     C56311   1.636   1.533  10.041 -0.2247 -0.5447 -0.2222
  409MOL0     O56312   1.548   1.430  10.018  0.2576  0.2630  1.1990
  409MOL0     C56313   1.488   1.400   9.890 -0.1669 -0.7838 -0.9407
  409MOL0     C56314   1.391   1.275   9.897 -0.3393 -0.4198  0.7402
  409MOL0     C56315   1.311   1.257   9.762 -0.7548  0.1615 -0.2458
  409MOL0     C56316   1.385   1.195   9.650  0.1471  0.1614 -0.5109
  409MOL0     C56317   1.294   1.152   9.537  0.2157  0.3106  0.4739
  409MOL0     C56318   1.369   1.165   9.407  0.0130  0.3548 -0.5705
  409MOL0     C56319   1.282   1.116   9.293  0.1148 -0.8004  0.6414
  409MOL0     C56320   1.347   1.105   9.157 -0.6322 -0.3076  0.9037
  409MOL0     N56321   1.399   1.231   9.109 -0.7217  0.2525 -0.4002
  409MOL0     C56322   1.318   1.315   9.045 -0.4971  0.3590 -0.7417
  409MOL0     C56323   1.393   1.427   9.017 -0.6358  0.0085  0.1314
  409MOL0     C56324   1.357   1.555   8.950  0.8301 -0.3078 -1.9665
  409MOL0     C56325   1.391   1.674   9.049  0.8400 -0.9849 -0.3886
  409MOL0     C56326   1.327   1.811   9.023 -0.3357 -0.8071  0.7930
  409MOL0     C56327   1.368   1.885   8.892 -0.6636  0.5456 -0.6204
  409MOL0     O56328   1.339   1.816   8.775  0.0566  0.6133  0.0466
  409MOL0     C56329   1.387   1.862   8.656 -0.5207 -0.8875  0.2000
  409MOL0     C56330   1.400   2.000   8.631 -0.2609  0.2590  0.2380
  409MOL0     C56331   1.428   2.049   8.504  0.4511 -0.5526  0.0248
  409MOL0     C56332   1.459   2.197   8.487  0.6656  0.3258  0.5498
  409MOL0     C56333   1.414   1.970   8.390 -1.2028  0.5463  0.6311
  409MOL0     C56334   1.434   2.006   8.251 -0.5839  0.0410 -0.3291
  409MOL0     O56335   1.477   1.904   8.164  0.4372 -0.0556 -0.1839
  409MOL0     C56336   1.518   1.946   8.044  0.0424  0.1646 -0.0073
  409MOL0     C56337   1.485   1.861   7.938 -0.1375  0.9338  0.1218
  409MOL0     C56338   1.522   1.887   7.805  0.0035  0.8873  0.3725
  409MOL0     C56339   1.594   2.007   7.779 -0.2224  0.1920  0.0412
  409MOL0     O56340   1.639   2.046   7.655  0.3802  0.4830 -0.5093
  409MOL0     C56341   1.579   2.158   7.603  0.0609 -0.7083 -0.1547
  409MOL0     C56342   1.661   2.237   7.505  0.5664 -0.0257  0.7824
  409MOL0     C56343   1.593   2.343   7.414 -0.8060  0.1901 -1.9821
  409MOL0     C56344   1.698   2.416   7.344 -0.2180  1.0091  0.0760
  409MOL0     C56345   1.654   2.516   7.241 -0.5052  0.7123 -0.1027
  409MOL0     C56346   1.775   2.613   7.203  0.0884  1.1730  0.2648
  409MOL0     C56347   1.913   2.541   7.183  0.4568 -0.0830  0.2672
  409MOL0     C56348   2.022   2.622   7.116  0.6448  1.0313  0.2371
  409MOL0    Cl56349   2.076   2.754   7.220  0.2779 -0.1469 -0.0729
  409MOL0     C56350   1.626   2.092   7.878 -0.0963 -1.3089 -1.4544
  409MOL0     C56351   1.591   2.064   8.019 -0.5912 -0.1066  0.0220
  409MOL0     O56352   1.410   2.123   8.222 -0.1846 -0.5073  0.3781
  409MOL0     C56353   1.391   1.834   8.413  0.9129 -1.1644 -0.2340
  409MOL0     C56354   1.394   1.781   8.542  0.5648 -0.6122 -0.1753
  409MOL0     N56355   1.515   1.410   9.078 -0.4383 -0.5195 -0.3601
  409MOL0     N56356   1.515   1.296   9.141 -0.3503  0.0857 -0.2137
  409MOL0     C56357   1.700   1.535  10.167  0.0410  0.0061  0.9724
  409MOL0     C56358   1.786   1.636  10.191 -0.2542 -0.5763  0.1082
  409MOL0     C56359   1.929   2.050  10.204  0.2045 -0.2943 -0.2050
  409MOL0     C56360   2.049   2.058  10.273  0.6339 -0.7624 -1.1991
  409MOL0     C56361   2.146   2.148  10.234  1.0011  0.8921 -0.2177
  409MOL0     C56362   2.134   2.239  10.131  1.2645 -0.6341 -0.9459
  409MOL0     O56363   2.246   2.319  10.105 -0.0411 -0.4507  0.1989
  409MOL0     C56364   2.235   2.395   9.986 -0.3724  0.3542  0.0052
  409MOL0     C56365   2.371   2.456   9.937 -0.0029  1.1168  0.0991
  409MOL0     C56366   2.368   2.610   9.948  0.5177  0.7524  0.0821
  409MOL0     C56367   2.505   2.670   9.958  1.3837  0.2738  0.2704
  409MOL0     C56368   2.568   2.647   9.827 -0.2991 -1.3972 -0.6665
  409MOL0     C56369   2.642   2.636   9.732  0.2814  0.5062 -0.1472
  409MOL0     C56370   2.000   2.254  10.084  0.4637  0.2628 -0.0062
  409MOL0     C56371   1.907   2.152  10.107  0.8081  0.8559  0.5273
  409MOL0     C56372   1.772   2.149  10.031 -0.6080  0.3080 -0.1175
  409MOL0     H56373   1.779   1.808   9.894  1.1959 -1.9167 -1.1315
  409MOL0     H56374   1.628   1.627   9.842  0.9276  0.0179  0.0252
  409MOL0     H56375   1.557   1.378   9.808 -1.7743 -0.8179 -2.3390
  409MOL0     H56376   1.432   1.492   9.872  1.0556  0.7902  2.4226
  409MOL0     H56377   1.449   1.183   9.912  1.9730  0.6338 -1.0549
  409MOL0     H56378   1.316   1.292   9.975  1.0965 -0.5260  2.2208
  409MOL0     H56379   1.228   1.193   9.794  1.4737 -1.1066  3.5452
  409MOL0     H56380   1.264   1.348   9.722 -0.7203 -0.2046 -1.1532
  409MOL0     H56381   1.469   1.260   9.626  1.0871 -0.7582  0.1943
  409MOL0     H56382   1.441   1.111   9.691  1.4413  1.9960  1.6822
  409MOL0     H56383   1.203   1.212   9.536  0.2168  0.3558  1.8014
  409MOL0     H56384   1.263   1.048   9.546 -3.3781  0.7317 -3.5143
  409MOL0     H56385   1.406   1.264   9.377 -0.1164  0.9091  0.9639
  409MOL0     H56386   1.463   1.109   9.417 -0.7354 -0.6897  0.8768
  409MOL0     H56387   1.187   1.170   9.281  0.1073 -0.9065  0.2072
  409MOL0     H56388   1.250   1.017   9.326  1.7423 -1.5660 -0.0131
  409MOL0     H56389   1.429   1.033   9.159  1.7374  2.0154 -2.4938
  409MOL0     H56390   1.274   1.065   9.086 -0.5796  1.8795 -0.4833
  409MOL0     H56391   1.212   1.298   9.037 -0.3053 -0.2108 -2.3455
  409MOL0     H56392   1.254   1.566   8.917  0.6474  1.1792 -0.9641
  409MOL0     H56393   1.422   1.570   8.863 -0.2589  2.4691 -2.3790
  409MOL0     H56394   1.356   1.663   9.152 -1.4632  0.7085 -0.9003
  409MOL0     H56395   1.498   1.692   9.036  0.8935 -1.7766 -1.1019
  409MOL0     H56396   1.220   1.797   9.039 -0.8522  0.0518 -1.5525
  409MOL0     H56397   1.361   1.876   9.105 -2.3047  2.5059 -0.8189
  409MOL0     H56398   1.329   1.987   8.901  2.9675  1.8849  2.9753
  409MOL0     H56399   1.476   1.900   8.889 -0.6870  0.6859 -0.7965
  409MOL0     H56400   1.400   2.070   8.714 -2.3325  1.5893 -0.8229
  409MOL0     H56401   1.550   2.214   8.430 -0.3855 -2.0177 -2.0349
  409MOL0     H56402   1.471   2.243   8.585  0.9428  0.5322  0.4190
  409MOL0     H56403   1.379   2.254   8.439  0.4812 -0.4634 -0.1067
  409MOL0     H56404   1.427   1.774   7.968  3.6208 -1.3202  1.5667
  409MOL0     H56405   1.493   1.818   7.726  2.0596  2.7076 -2.1516
  409MOL0     H56406   1.489   2.135   7.545 -2.6640  0.6259  3.2101
  409MOL0     H56407   1.538   2.230   7.674  1.2051 -0.0663 -0.1109
  409MOL0     H56408   1.735   2.286   7.569  3.6857 -2.7777 -0.3904
  409MOL0     H56409   1.722   2.174   7.440  0.5609  1.8402 -1.1115
  409MOL0     H56410   1.535   2.419   7.468  0.1248  0.1414 -0.8809
  409MOL0     H56411   1.519   2.284   7.358 -2.0143 -0.7703  0.4732
  409MOL0     H56412   1.769   2.346   7.301  0.0054  1.1899  0.1465
  409MOL0     H56413   1.744   2.483   7.418  2.1781 -0.1252 -0.2801
  409MOL0     H56414   1.622   2.465   7.150  0.9788 -0.2494 -0.1173
  409MOL0     H56415   1.564   2.570   7.274 -0.1110  1.3505 -0.0572
  409MOL0     H56416   1.783   2.686   7.284  0.1059 -0.0554  1.4075
  409MOL0     H56417   1.756   2.672   7.113  2.0530 -1.2193 -1.8835
  409MOL0     H56418   1.896   2.458   7.113  2.2668 -3.0386  3.0418
  409MOL0     H56419   1.954   2.507   7.278  3.2013  0.5684 -0.5749
  409MOL0     H56420   1.990   2.666   7.021  2.9882  0.8635 -0.6978
  409MOL0     H56421   2.106   2.555   7.097  0.3173  1.4118 -3.0861
  409MOL0     H56422   1.677   2.185   7.855  0.3762 -1.8630 -2.7546
  409MOL0     H56423   1.636   2.120   8.100  0.7236 -0.3586 -0.4997
  409MOL0     H56424   1.373   1.767   8.329 -0.3372 -3.9487  2.0529
  409MOL0     H56425   1.366   1.676   8.555  0.6715 -0.7273 -0.8331
  409MOL0     H56426   1.688   1.456  10.241 -0.0225 -0.0780  0.8731
  409MOL0     H56427   1.843   1.643  10.282  0.8910 -0.3468 -0.6051
  409MOL0     H56428   2.084   1.976  10.336  1.5661  1.1396  0.8916
  409MOL0     H56429   2.237   2.142  10.291  1.1057  2.1233 -0.2147
  409MOL0     H56430   2.196   2.321   9.916  2.0777 -1.6721  0.6342
  409MOL0     H56431   2.158   2.470  10.005 -0.9165 -1.0555  4.2981
  409MOL0     H56432   2.383   2.422   9.834 -1.8830 -0.0142  0.2080
  409MOL0     H56433   2.457   2.419   9.994  0.3081  0.3745 -0.8329
  409MOL0     H56434   2.318   2.646   9.858 -1.5342 -0.3681  0.6939
  409MOL0     H56435   2.307   2.643  10.033 -0.4019 -0.5191 -0.0484
  409MOL0     H56436   2.565   2.633  10.042  1.8299 -0.6548 -0.4394
  409MOL0     H56437   2.499   2.776   9.985 -0.6675  0.0409  0.9040
  409MOL0     H56438   2.693   2.636   9.638 -2.3225  0.9738 -1.6559
  409MOL0     H56439   1.978   2.330  10.010 -1.0699  0.6382  0.7807
  409MOL0     H56440   1.767   2.066   9.960  0.0950  2.0289 -2.3027
  409MOL0     H56441   1.687   2.136  10.098 -0.5034  0.7531  0.1071
  409MOL0     H56442   1.768   2.236   9.965  0.7623  0.0970 -0.5064
  410MOL0     O56443  10.471   3.556  10.527 -0.0384  0.2297 -0.1526
  410MOL0     C56444  10.452   3.433  10.531  0.4346 -0.0428  0.8477
  410MOL0     O56445  10.544   3.330  10.502  0.4391  0.4128  0.6820
  410MOL0     C56446  10.672   3.364  10.543 -0.8253 -0.3591 -0.1791
  410MOL0     C56447  10.692   3.405  10.674 -1.1272  0.6559 -0.7712
  410MOL0     C56448  10.832   3.430  10.712  0.3801  0.0022  0.3830
  410MOL0     C56449  10.941   3.418  10.624  0.4891  0.2702  0.5862
  410MOL0     O56450  11.072   3.466  10.640 -0.1585  0.3478  0.3101
  410MOL0     C56451  11.101   3.570  10.732 -0.1812  0.0121  1.0057
  410MOL0     C56452  11.241   3.575  10.784 -1.4545  0.8878 -0.5256
  410MOL0     C56453  11.323   3.693  10.731 -1.1154 -0.8212  0.7250
  410MOL0     C56454  11.469   3.684  10.732  1.0210 -1.6300  0.8502
  410MOL0     C56455  11.535   3.796  10.639  0.0222 -0.6114 -0.7391
  410MOL0     C56456  11.527   3.752  10.493 -0.4487 -0.6764  0.0874
  410MOL0     C56457  11.633   3.836  10.422  0.1617 -0.8717  0.3553
  410MOL0     C56458  11.681   3.772  10.301  0.6244  0.0294  0.5936
  410MOL0     N56459  11.763   3.657  10.329  0.9039  0.2729 -0.9379
  410MOL0     C56460  11.714   3.536  10.318  0.1635  0.6614 -1.1227
  410MOL0     C56461  11.807   3.452  10.369  1.6259  0.3811 -0.7614
  410MOL0     C56462  11.788   3.305  10.396  0.0946 -0.2094  0.5131
  410MOL0     C56463  11.863   3.220  10.295  0.0360 -0.3887  0.0544
  410MOL0     C56464  11.858   3.068  10.324  0.2263 -1.5960  0.0538
  410MOL0     C56465  11.712   3.022  10.324  0.3955  0.4378  0.3885
  410MOL0     O56466  11.660   2.997  10.451  0.1690  0.3507  0.2233
  410MOL0     C56467  11.708   2.886  10.524 -0.0057  0.3356  0.5463
  410MOL0     C56468  11.813   2.802  10.483 -0.0987 -0.0812 -0.9697
  410MOL0     C56469  11.887   2.723  10.577  1.1864  0.2969 -0.1951
  410MOL0     C56470  12.030   2.685  10.532  0.3661  0.5436  0.0309
  410MOL0     C56471  11.837   2.701  10.704  0.7147 -0.1487 -0.1450
  410MOL0     C56472  11.902   2.618  10.812  0.5886 -1.0432  0.5103
  410MOL0     O56473  11.884   2.676  10.936 -0.0944 -0.5203 -0.0436
  410MOL0     C56474  11.955   2.630  11.044  0.4742  0.2310 -0.4527
  410MOL0     C56475  11.956   2.494  11.092 -0.3207  0.6012 -0.2668
  410MOL0     C56476  12.025   2.468  11.211 -0.2621 -0.5638  0.2350
  410MOL0     C56477  12.089   2.561  11.285  1.1504  0.4162 -0.0556
  410MOL0     O56478  12.172   2.530  11.389  0.5584 -0.0545 -0.2687
  410MOL0     C56479  12.130   2.434  11.487 -0.0913  0.2741 -0.3597
  410MOL0     C56480  12.250   2.385  11.582  0.8060 -1.3035 -0.4391
  410MOL0     C56481  12.201   2.307  11.699 -0.1401  0.2908  0.2060
  410MOL0     C56482  12.154   2.163  11.648  0.4620 -0.1906  0.2872
  410MOL0     C56483  12.113   2.077  11.766  1.1868  0.8086  0.0149
  410MOL0     C56484  11.991   2.128  11.847  1.5984  0.0019  0.4263
  410MOL0     C56485  11.980   2.060  11.980  0.6721  0.1865 -0.6309
  410MOL0     C56486  11.832   2.057  12.024  0.0312  0.3520 -0.6435
  410MOL0    Cl56487  11.750   2.220  12.002  0.4390  0.2623 -0.0011
  410MOL0     C56488  12.070   2.693  11.241 -0.6536  0.0280  0.4565
  410MOL0     C56489  12.007   2.734  11.122  0.5925 -0.2165 -0.8516
  410MOL0     O56490  11.978   2.529  10.786 -0.4850  0.3304 -0.0491
  410MOL0     C56491  11.728   2.790  10.739 -0.3577 -0.8193 -0.2148
  410MOL0     C56492  11.672   2.883  10.655 -0.6614  0.2992  0.6095
  410MOL0     N56493  11.912   3.525  10.406  0.5013  0.0119  0.9233
  410MOL0     N56494  11.885   3.646  10.376 -0.4128  0.6303  0.0770
  410MOL0     C56495  10.902   3.399  10.486  0.2673  0.1874 -0.3911
  410MOL0     C56496  10.771   3.357  10.442 -0.1696 -0.9574 -0.2538
  410MOL0     C56497  10.312   3.394  10.515 -0.0987 -0.7684 -0.3405
  410MOL0     C56498  10.235   3.400  10.635 -0.1924 -1.2913 -0.2126
  410MOL0     C56499  10.097   3.393  10.620  0.4434 -1.0972 -1.0039
  410MOL0     C56500  10.038   3.384  10.495 -1.1531  0.8640 -0.6646
  410MOL0     O56501   9.908   3.368  10.499 -0.0829 -0.0569  0.7445
  410MOL0     C56502   9.844   3.290  10.394  0.0901 -0.1006 -0.6391
  410MOL0     C56503   9.702   3.242  10.435  0.1247  0.4157 -0.3532
  410MOL0     C56504   9.717   3.150  10.554 -0.5320 -0.6428 -0.7358
  410MOL0     C56505   9.595   3.066  10.600 -0.6522  0.4165 -0.6094
  410MOL0     C56506   9.537   2.991  10.497 -0.0088 -0.4258 -0.2302
  410MOL0     C56507   9.480   2.939  10.403 -1.1119  0.3870  0.2987
  410MOL0     C56508  10.122   3.368  10.381 -0.7830 -0.7449 -1.0143
  410MOL0     C56509  10.254   3.377  10.395 -0.1233 -0.2546 -0.3438
  410MOL0     C56510  10.331   3.359  10.268  0.7503  0.8922 -1.1230
  410MOL0     H56511  10.621   3.400  10.756  2.4180  1.9091  2.6607
  410MOL0     H56512  10.845   3.459  10.815  0.4370 -0.4564  0.5069
  410MOL0     H56513  11.043   3.555  10.824  1.6767  0.7341  2.3355
  410MOL0     H56514  11.060   3.658  10.681 -2.6887 -0.9525  1.1749
  410MOL0     H56515  11.249   3.571  10.893  1.9581 -1.8871 -0.7033
  410MOL0     H56516  11.296   3.491  10.740 -0.3173  2.0414 -1.3820
  410MOL0     H56517  11.293   3.709  10.627  2.0650  0.2218 -0.1536
  410MOL0     H56518  11.293   3.784  10.784 -1.0691 -0.0153 -0.5998
  410MOL0     H56519  11.495   3.710  10.835  3.2059 -1.7612  0.3725
  410MOL0     H56520  11.500   3.585  10.698 -0.8348 -0.9923 -3.5243
  410MOL0     H56521  11.640   3.808  10.669 -0.8879  0.1814  2.4456
  410MOL0     H56522  11.490   3.896  10.647  1.2464 -0.0345 -0.7986
  410MOL0     H56523  11.545   3.645  10.484  0.1969 -0.5731  0.0814
  410MOL0     H56524  11.427   3.777  10.456 -0.3208  2.6754  1.6100
  410MOL0     H56525  11.722   3.858  10.481  1.1241  0.9240 -1.6446
  410MOL0     H56526  11.594   3.938  10.406  0.2530 -1.0763 -1.2572
  410MOL0     H56527  11.594   3.740  10.243 -3.9745  2.6288  5.2420
  410MOL0     H56528  11.738   3.846  10.244 -0.1725 -0.9750 -1.6058
  410MOL0     H56529  11.621   3.498  10.276 -0.9560 -1.3550  2.7255
  410MOL0     H56530  11.680   3.290  10.401 -0.0948  1.3540  2.9122
  410MOL0     H56531  11.827   3.288  10.497  1.6909 -0.1453 -0.0616
  410MOL0     H56532  11.826   3.243  10.195 -0.9336  0.5534  0.6136
  410MOL0     H56533  11.964   3.261  10.289 -0.2709  0.5698  1.0857
  410MOL0     H56534  11.919   3.023  10.245  2.3182  1.5885 -0.3318
  410MOL0     H56535  11.902   3.052  10.423  0.7658 -4.1886 -0.5412
  410MOL0     H56536  11.655   3.099  10.271  2.0428 -1.4154 -4.6481
  410MOL0     H56537  11.696   2.927  10.271 -0.4279 -0.0030  1.3947
  410MOL0     H56538  11.844   2.816  10.380 -0.0101  2.0582 -0.6988
  410MOL0     H56539  12.048   2.583  10.565  2.2896  1.3124  1.5169
  410MOL0     H56540  12.102   2.753  10.578 -1.0153  0.4475  2.5207
  410MOL0     H56541  12.044   2.685  10.423  0.5578 -4.9879 -0.2415
  410MOL0     H56542  11.915   2.407  11.041 -1.7442  0.4528  1.0671
  410MOL0     H56543  12.036   2.362  11.232  1.7115 -0.3961  0.2578
  410MOL0     H56544  12.046   2.476  11.545 -1.7119 -0.5674 -2.0122
  410MOL0     H56545  12.088   2.350  11.432 -0.1033  0.8290 -1.2167
  410MOL0     H56546  12.323   2.324  11.528  3.7002 -0.4884  2.2793
  410MOL0     H56547  12.305   2.476  11.608  1.8598 -1.8965 -0.5202
  410MOL0     H56548  12.127   2.367  11.752  0.5455 -1.4024  3.3705
  410MOL0     H56549  12.278   2.301  11.776 -1.6967 -1.5671  1.7182
  410MOL0     H56550  12.241   2.121  11.595 -1.1149 -2.3595 -0.7011
  410MOL0     H56551  12.073   2.173  11.575  1.3462  1.5023 -0.5376
  410MOL0     H56552  12.097   1.976  11.727  0.5062 -0.5198  3.4265
  410MOL0     H56553  12.204   2.087  11.825 -0.4303  4.8844  2.2065
  410MOL0     H56554  11.914   2.096  11.776  4.0460 -0.6960 -2.1029
  410MOL0     H56555  11.985   2.236  11.860 -2.9937 -0.0416  0.1685
  410MOL0     H56556  12.045   2.110  12.053 -0.4731 -0.2775  0.7732
  410MOL0     H56557  12.022   1.959  11.983 -0.8032 -0.4330  0.8681
  410MOL0     H56558  11.815   2.026  12.127 -2.6984  0.2728 -1.0413
  410MOL0     H56559  11.781   1.990  11.954  2.0725 -0.7020 -1.2054
  410MOL0     H56560  12.136   2.764  11.289  0.3024 -0.6095  0.1074
  410MOL0     H56561  12.020   2.837  11.089  0.0563  1.0716  2.5764
  410MOL0     H56562  11.709   2.795  10.846 -1.7767 -2.2661 -0.3614
  410MOL0     H56563  11.597   2.955  10.686  0.4160  0.9107  1.8563
  410MOL0     H56564  10.970   3.396  10.401 -2.6718  0.6402 -2.9546
  410MOL0     H56565  10.740   3.335  10.340 -1.2346  0.8584 -0.3669
  410MOL0     H56566  10.286   3.418  10.729 -1.5023  3.2579 -0.1285
  410MOL0     H56567  10.023   3.392  10.700 -0.5351  0.8853 -1.8243
  410MOL0     H56568   9.827   3.347  10.302  1.4234 -0.7806 -1.3321
  410MOL0     H56569   9.917   3.214  10.365  1.3885  0.5505  0.8302
  410MOL0     H56570   9.668   3.180  10.352 -0.2245 -0.0627  0.1362
  410MOL0     H56571   9.628   3.319  10.459 -0.9031 -0.7412  0.3301
  410MOL0     H56572   9.795   3.076  10.538 -1.3901 -0.9845 -4.2197
  410MOL0     H56573   9.761   3.212  10.632 -0.0965  0.8168 -2.0863
  410MOL0     H56574   9.522   3.128  10.653 -0.3459 -1.4597  2.2073
  410MOL0     H56575   9.626   2.994  10.676 -1.3408  1.8026  1.0483
  410MOL0     H56576   9.440   2.880  10.322  0.2297 -0.3129  0.1058
  410MOL0     H56577  10.092   3.362  10.277  0.2039 -0.9755 -1.2903
  410MOL0     H56578  10.323   3.456  10.219 -2.5548 -0.5843 -3.9133
  410MOL0     H56579  10.436   3.337  10.292  1.2115  1.1987 -2.7429
  410MOL0     H56580  10.291   3.277  10.208 -1.6819  0.0011  1.4546
  411MOL0     O56581   6.805   0.601   4.962 -0.4173  0.0623  0.5608
  411MOL0     C56582   6.692   0.600   4.911  0.2285  0.3229  0.5115
  411MOL0     O56583   6.614   0.716   4.901  0.2619 -0.7447 -0.0299
  411MOL0     C56584   6.668   0.845   4.911  0.1347  0.3071 -0.9558
  411MOL0     C56585   6.779   0.892   4.995 -0.3796  0.3775 -0.4462
  411MOL0     C56586   6.820   1.025   4.990 -1.1676 -0.4661 -0.4521
  411MOL0     C56587   6.740   1.120   4.933 -0.3184 -0.5618  0.7397
  411MOL0     O56588   6.760   1.255   4.935 -0.0603  0.8216  0.0281
  411MOL0     C56589   6.902   1.286   4.944  0.5667 -0.6195 -0.3915
  411MOL0     C56590   6.920   1.441   4.915  0.5115  0.4416  0.5012
  411MOL0     C56591   6.864   1.484   4.775 -0.4542  0.2663  0.4116
  411MOL0     C56592   6.732   1.565   4.791 -0.8013  0.2707  0.2539
  411MOL0     C56593   6.664   1.625   4.676  0.9225  0.2108 -0.1714
  411MOL0     C56594   6.750   1.712   4.584 -0.3675 -0.4337 -0.3495
  411MOL0     C56595   6.685   1.790   4.474 -0.4129 -0.2529 -0.1190
  411MOL0     C56596   6.789   1.834   4.369 -0.1361 -0.5854  0.1707
  411MOL0     N56597   6.763   1.955   4.293 -0.3659  0.6430 -0.4984
  411MOL0     C56598   6.644   2.029   4.277 -0.1033  0.4871 -0.6980
  411MOL0     C56599   6.682   2.140   4.212  0.2106  0.0484  0.7699
  411MOL0     C56600   6.609   2.254   4.155 -0.1158 -0.0519  1.5704
  411MOL0     C56601   6.538   2.235   4.021 -0.5284  0.6411 -0.3837
  411MOL0     C56602   6.642   2.191   3.913 -0.1392 -1.3022 -0.8133
  411MOL0     C56603   6.573   2.156   3.783 -0.5245 -0.4332 -0.0372
  411MOL0     O56604   6.492   2.040   3.803 -0.2270  0.1105  0.6621
  411MOL0     C56605   6.448   1.986   3.690  0.0411  0.3948  0.8227
  411MOL0     C56606   6.337   2.043   3.625 -0.7483 -0.0175 -0.3284
  411MOL0     C56607   6.304   1.992   3.499  0.4189  0.3725  0.4820
  411MOL0     C56608   6.162   2.033   3.436  0.1592 -1.0665 -0.5910
  411MOL0     C56609   6.383   1.890   3.431  0.3056 -0.2825  0.2061
  411MOL0     C56610   6.347   1.841   3.293 -0.2259  0.0442  0.1182
  411MOL0     O56611   6.374   1.704   3.263  0.3947  0.0641 -0.0639
  411MOL0     C56612   6.384   1.680   3.134 -1.0683 -0.1482 -0.7197
  411MOL0     C56613   6.501   1.713   3.075 -0.8662  0.1210 -0.5271
  411MOL0     C56614   6.530   1.696   2.936 -0.6805  0.2946 -0.5526
  411MOL0     C56615   6.434   1.648   2.854 -0.8898  0.4118 -0.0058
  411MOL0     O56616   6.459   1.624   2.725 -0.2167 -0.4232 -0.5255
  411MOL0     C56617   6.601   1.601   2.688 -0.0256 -0.3204 -0.2924
  411MOL0     C56618   6.616   1.512   2.559 -0.1908  0.1332 -0.1797
  411MOL0     C56619   6.739   1.565   2.474 -0.2467 -0.2806 -0.5016
  411MOL0     C56620   6.757   1.465   2.359  0.6524  0.2837  0.6921
  411MOL0     C56621   6.869   1.500   2.267 -0.6255  0.1400 -0.8620
  411MOL0     C56622   7.002   1.462   2.324  0.1363  0.0013 -0.0248
  411MOL0     C56623   7.115   1.509   2.229 -0.2974  0.1324  0.1917
  411MOL0     C56624   7.250   1.490   2.296  1.0109 -0.0030 -0.3454
  411MOL0    Cl56625   7.385   1.569   2.201 -0.1794 -0.3458 -0.0761
  411MOL0     C56626   6.312   1.605   2.917 -0.2890 -0.9178 -0.4009
  411MOL0     C56627   6.294   1.618   3.052 -0.4707  0.5237 -0.0279
  411MOL0     O56628   6.306   1.923   3.209 -0.1945  0.6904 -0.8302
  411MOL0     C56629   6.500   1.847   3.494  0.1479 -0.5346 -0.3046
  411MOL0     C56630   6.526   1.888   3.628 -0.6970 -0.1228  0.0267
  411MOL0     N56631   6.821   2.140   4.194 -0.4292  0.9689  0.1794
  411MOL0     N56632   6.867   2.030   4.249  0.3344  0.3949  0.3663
  411MOL0     C56633   6.627   1.077   4.860  0.2163 -0.5737  1.2270
  411MOL0     C56634   6.589   0.948   4.855  0.4149 -0.3096  0.4163
  411MOL0     C56635   6.628   0.475   4.863  0.1780 -0.5356  0.3798
  411MOL0     C56636   6.489   0.467   4.887 -0.1767  1.8918 -0.0474
  411MOL0     C56637   6.434   0.338   4.833  0.2486 -0.2129 -0.6354
  411MOL0     C56638   6.500   0.235   4.772 -0.3311 -0.3527  0.3910
  411MOL0     O56639   6.426   0.120   4.745 -0.7201  0.3447 -0.2395
  411MOL0     C56640   6.424   0.075   4.607 -0.6948  0.9314  0.3505
  411MOL0     C56641   6.411  -0.076   4.600  0.3650 -0.8206  0.2912
  411MOL0     C56642   6.443  -0.112   4.443 -0.0722 -0.7352 -1.3866
  411MOL0     C56643   6.356  -0.235   4.394 -1.2938  0.2968 -0.2424
  411MOL0     C56644   6.215  -0.209   4.401  0.2903  0.1320  1.0582
  411MOL0     C56645   6.094  -0.197   4.416  0.3600 -0.3889  0.4112
  411MOL0     C56646   6.641   0.257   4.766 -0.2548 -0.6041  0.0546
  411MOL0     C56647   6.702   0.376   4.802 -1.0298  0.1158  0.0378
  411MOL0     C56648   6.854   0.381   4.764 -0.0376 -0.0844 -1.0246
  411MOL0     H56649   6.836   0.827   5.060 -1.6516 -0.3589 -0.0413
  411MOL0     H56650   6.905   1.051   5.053 -0.0347 -1.7871 -1.3576
  411MOL0     H56651   6.961   1.217   4.883  2.7067  0.4951  0.3210
  411MOL0     H56652   6.935   1.278   5.048  0.0447  3.7757  0.2696
  411MOL0     H56653   6.872   1.505   4.989  0.6376  0.4034  0.6178
  411MOL0     H56654   7.030   1.448   4.919  0.4010  2.1675  2.0127
  411MOL0     H56655   6.937   1.544   4.720  0.4650 -0.4222  0.8637
  411MOL0     H56656   6.859   1.389   4.721  2.8934 -1.3131  2.5653
  411MOL0     H56657   6.652   1.505   4.834 -2.0226  1.0914 -0.7845
  411MOL0     H56658   6.743   1.646   4.864  3.2951 -0.1689  0.3754
  411MOL0     H56659   6.584   1.686   4.719  2.5296  1.3613  1.3177
  411MOL0     H56660   6.618   1.552   4.609  1.9591 -3.3664  2.6857
  411MOL0     H56661   6.795   1.787   4.650  0.3804 -1.8851  0.8544
  411MOL0     H56662   6.829   1.653   4.536  0.7179  0.7030 -0.0144
  411MOL0     H56663   6.624   1.872   4.514 -1.3696 -1.0305  0.0757
  411MOL0     H56664   6.615   1.721   4.426  0.0148 -0.9764  0.2806
  411MOL0     H56665   6.881   1.847   4.426 -0.2974  1.9377 -0.0620
  411MOL0     H56666   6.800   1.744   4.308 -0.6709 -1.2456  1.0235
  411MOL0     H56667   6.547   1.989   4.304  0.4010  1.1912  2.5644
  411MOL0     H56668   6.684   2.333   4.144  1.3272 -1.1512  3.0186
  411MOL0     H56669   6.529   2.288   4.222 -0.9914  2.0923 -0.4221
  411MOL0     H56670   6.462   2.157   4.033 -0.2424 -0.0849 -2.6678
  411MOL0     H56671   6.481   2.320   3.981 -0.8422 -0.3723 -2.2491
  411MOL0     H56672   6.717   2.266   3.886 -0.2254  0.2672  2.7175
  411MOL0     H56673   6.691   2.101   3.952 -0.2891 -1.3663 -0.7700
  411MOL0     H56674   6.515   2.245   3.753  3.5193  2.7918  0.8321
  411MOL0     H56675   6.641   2.137   3.699 -0.0522 -1.7219  0.6262
  411MOL0     H56676   6.275   2.111   3.682  1.4180  3.3582 -1.6570
  411MOL0     H56677   6.108   1.955   3.382 -1.5198  1.6048 -3.1223
  411MOL0     H56678   6.169   2.109   3.358 -2.0275 -1.0744 -0.8457
  411MOL0     H56679   6.110   2.089   3.515  0.6110 -0.1369 -0.9301
  411MOL0     H56680   6.579   1.750   3.142  1.0331  0.6190 -2.8845
  411MOL0     H56681   6.621   1.740   2.897 -0.7762  2.3217  1.2753
  411MOL0     H56682   6.632   1.704   2.665 -3.2999  1.3667  2.0339
  411MOL0     H56683   6.664   1.557   2.765  0.3167  0.8607  0.1222
  411MOL0     H56684   6.623   1.411   2.601  1.6665 -0.4934 -1.8355
  411MOL0     H56685   6.523   1.528   2.504 -0.8114 -1.5449  0.3134
  411MOL0     H56686   6.829   1.571   2.536  1.2768  1.0883 -2.6972
  411MOL0     H56687   6.721   1.668   2.444 -3.1369  0.2230  2.4776
  411MOL0     H56688   6.676   1.476   2.286  2.5045 -2.6055 -2.0175
  411MOL0     H56689   6.747   1.362   2.393  0.2770 -0.2089 -0.8575
  411MOL0     H56690   6.852   1.438   2.179 -3.6162  0.6298 -0.7434
  411MOL0     H56691   6.862   1.606   2.241 -1.2649 -0.0142 -1.3448
  411MOL0     H56692   7.013   1.354   2.341 -1.3961  0.2313  3.0607
  411MOL0     H56693   7.013   1.516   2.418 -1.7346  1.8020 -0.7773
  411MOL0     H56694   7.113   1.615   2.200  3.0037 -0.3698 -2.6012
  411MOL0     H56695   7.114   1.458   2.132 -0.1354 -1.9503  1.2340
  411MOL0     H56696   7.263   1.382   2.311 -2.9451 -0.5042  0.5321
  411MOL0     H56697   7.257   1.535   2.395  2.7769  2.5825 -1.5361
  411MOL0     H56698   6.224   1.584   2.858 -0.4857  2.4972 -1.5506
  411MOL0     H56699   6.195   1.586   3.083 -0.6142  0.6763 -0.3308
  411MOL0     H56700   6.561   1.763   3.461 -2.5816 -2.5925 -0.4285
  411MOL0     H56701   6.612   1.847   3.681 -1.9378 -4.1107 -0.6730
  411MOL0     H56702   6.562   1.146   4.807  1.5105 -0.5721 -0.4365
  411MOL0     H56703   6.493   0.931   4.808  0.2922  1.1613  0.0968
  411MOL0     H56704   6.422   0.539   4.932 -1.2003  0.6173  0.5249
  411MOL0     H56705   6.330   0.319   4.856  0.7386 -0.2267  1.9105
  411MOL0     H56706   6.359   0.125   4.535  1.3807  0.9979 -1.5998
  411MOL0     H56707   6.521   0.101   4.562 -0.4028 -0.3809  0.1812
  411MOL0     H56708   6.310  -0.107   4.631  1.1475 -2.6040  1.2135
  411MOL0     H56709   6.493  -0.125   4.653  1.6594 -0.6569 -1.4981
  411MOL0     H56710   6.421  -0.025   4.381  2.8408  1.6862  0.6832
  411MOL0     H56711   6.551  -0.133   4.438  0.3523  1.4697 -2.2297
  411MOL0     H56712   6.399  -0.328   4.432 -3.9450 -1.0190 -0.2825
  411MOL0     H56713   6.370  -0.248   4.286  0.7375 -1.5180  0.1604
  411MOL0     H56714   5.987  -0.194   4.430  0.0816  1.0079 -1.6908
  411MOL0     H56715   6.694   0.170   4.729 -1.9166 -2.1735  1.2332
  411MOL0     H56716   6.856   0.440   4.672  0.7142  4.8089  1.8189
  411MOL0     H56717   6.914   0.436   4.836  0.9514 -1.8346 -0.4468
  411MOL0     H56718   6.889   0.279   4.742  0.6602 -0.1030  0.0898
  412MOL0     O56719   8.404   4.197   0.935  0.3025 -0.4277 -0.3471
  412MOL0     C56720   8.293   4.251   0.965 -0.8074  0.4062  0.7823
  412MOL0     O56721   8.205   4.299   0.876 -0.2040  0.2450 -0.0986
  412MOL0     C56722   8.237   4.303   0.740  1.0922  0.1377 -0.1198
  412MOL0     C56723   8.136   4.285   0.640  1.1341 -1.1723 -0.9161
  412MOL0     C56724   8.169   4.294   0.502 -0.5939 -0.0959  0.9687
  412MOL0     C56725   8.294   4.350   0.464  0.4406  0.4195 -0.6412
  412MOL0     O56726   8.319   4.364   0.334  0.1351  0.2970 -0.0393
  412MOL0     C56727   8.445   4.308   0.291  0.6161  1.0550 -0.4039
  412MOL0     C56728   8.434   4.306   0.145 -0.3178  0.9038  0.5867
  412MOL0     C56729   8.375   4.173   0.100 -0.5171 -0.0239  0.5459
  412MOL0     C56730   8.223   4.158   0.100 -0.7268  0.3876  0.3419
  412MOL0     C56731   8.163   4.046   0.022  0.2025 -0.6656 -0.6979
  412MOL0     C56732   8.011   4.074   0.005  0.9266 -1.0523 -0.3280
  412MOL0     C56733   7.921   4.049   0.127  0.3401  0.0710  0.2931
  412MOL0     C56734   7.905   3.902   0.164 -0.4766  0.5708 -1.4041
  412MOL0     N56735   7.842   3.828   0.053  0.5067  0.1200  0.1828
  412MOL0     C56736   7.913   3.789  -0.058 -0.5202 -0.0518 -0.0999
  412MOL0     C56737   7.829   3.755  -0.157  0.5229 -0.9528  0.2040
  412MOL0     C56738   7.890   3.731  -0.290 -1.7480 -0.2714 -0.4209
  412MOL0     C56739   7.945   3.591  -0.307 -1.1457  0.7211  0.3190
  412MOL0     C56740   8.004   3.564  -0.449  0.8418  0.7727  0.4075
  412MOL0     C56741   8.077   3.434  -0.459 -0.4511 -0.1389 -1.3617
  412MOL0     O56742   7.981   3.328  -0.444  1.2017 -0.3523  0.4532
  412MOL0     C56743   7.976   3.229  -0.538 -0.8221  0.0573  0.1110
  412MOL0     C56744   8.058   3.203  -0.649 -0.4916 -1.1701  0.8310
  412MOL0     C56745   8.067   3.076  -0.709  0.6791 -0.3316  0.2039
  412MOL0     C56746   8.176   3.045  -0.813  0.2387 -0.0665 -0.3376
  412MOL0     C56747   7.965   2.980  -0.685 -0.8848 -0.1982  0.3624
  412MOL0     C56748   7.954   2.840  -0.744  0.2504  0.5972 -0.2997
  412MOL0     O56749   7.879   2.747  -0.666  0.2183  0.1770  0.1079
  412MOL0     C56750   7.840   2.621  -0.709 -0.1358 -0.0391  0.8401
  412MOL0     C56751   7.737   2.569  -0.633  0.4467  0.6290  0.4774
  412MOL0     C56752   7.696   2.431  -0.646  0.0583 -0.0453  0.5135
  412MOL0     C56753   7.763   2.359  -0.743  0.2951  1.3073 -0.2171
  412MOL0     O56754   7.728   2.226  -0.752  0.1018  0.1323 -0.2109
  412MOL0     C56755   7.774   2.139  -0.860 -0.2185  1.0144  0.4479
  412MOL0     C56756   7.696   2.005  -0.854  0.2101 -0.8530  0.3246
  412MOL0     C56757   7.742   1.914  -0.747  0.8633 -0.3380 -0.1056
  412MOL0     C56758   7.668   1.774  -0.742  0.0425 -0.3804  0.0529
  412MOL0     C56759   7.752   1.681  -0.658  0.9001 -0.5872 -0.4237
  412MOL0     C56760   7.675   1.543  -0.664  0.2056 -0.0728  0.1745
  412MOL0     C56761   7.757   1.425  -0.598  0.2263 -0.5455 -0.5150
  412MOL0     C56762   7.881   1.449  -0.505 -0.2256  0.1960 -0.3087
  412MOL0    Cl56763   8.030   1.486  -0.606  0.1496 -0.1684 -0.6207
  412MOL0     C56764   7.865   2.414  -0.823 -0.0111 -0.3285 -0.2099
  412MOL0     C56765   7.901   2.546  -0.808  0.0621  0.2547 -0.6751
  412MOL0     O56766   7.999   2.817  -0.855 -0.8334  0.0962  0.8077
  412MOL0     C56767   7.878   3.014  -0.577 -0.6954 -0.9885  0.1869
  412MOL0     C56768   7.880   3.134  -0.510 -0.1527  0.1229  0.6780
  412MOL0     N56769   7.703   3.781  -0.106  0.8176  0.7575  0.9928
  412MOL0     N56770   7.715   3.821   0.016  0.7943  0.5688 -0.2137
  412MOL0     C56771   8.376   4.396   0.567 -0.0374  0.6422  0.6251
  412MOL0     C56772   8.354   4.365   0.695  1.1775  0.2932 -0.3321
  412MOL0     C56773   8.272   4.270   1.110  0.2817 -0.0811  0.1382
  412MOL0     C56774   8.380   4.251   1.210  0.7718  0.2221 -0.5706
  412MOL0     C56775   8.347   4.254   1.349  0.4345  0.2563  0.1632
  412MOL0     C56776   8.229   4.318   1.389 -0.0177  0.2391 -0.1157
  412MOL0     O56777   8.196   4.347   1.529  0.2969 -1.0206  0.6578
  412MOL0     C56778   8.308   4.363   1.618 -1.0316 -0.5972 -0.2560
  412MOL0     C56779   8.404   4.483   1.583 -0.1248 -0.6484 -1.5830
  412MOL0     C56780   8.330   4.617   1.563 -0.6968 -0.2540  0.6565
  412MOL0     C56781   8.322   4.703   1.679  0.0682 -0.5131 -0.5585
  412MOL0     C56782   8.446   4.768   1.707 -0.2977  0.0203 -0.2917
  412MOL0     C56783   8.557   4.811   1.714 -0.4077 -0.6707 -0.1568
  412MOL0     C56784   8.132   4.346   1.294 -0.5250 -0.0347  0.2286
  412MOL0     C56785   8.145   4.315   1.161 -0.2485 -0.5695 -0.5531
  412MOL0     C56786   8.014   4.328   1.075 -0.7470 -0.2343 -0.6613
  412MOL0     H56787   8.041   4.243   0.673  1.2535 -0.2118  0.7629
  412MOL0     H56788   8.105   4.259   0.421  0.4287  3.1858 -1.5100
  412MOL0     H56789   8.458   4.205   0.325 -2.5032  1.3526  2.2146
  412MOL0     H56790   8.523   4.373   0.331  1.5948  0.7875 -1.8265
  412MOL0     H56791   8.373   4.384   0.100 -1.1074 -0.9845 -1.8672
  412MOL0     H56792   8.537   4.318   0.111 -0.1053  3.8028  1.9597
  412MOL0     H56793   8.402   4.178  -0.005  2.7348 -2.8410  1.0570
  412MOL0     H56794   8.420   4.078   0.130 -2.5386 -1.0155  0.6216
  412MOL0     H56795   8.195   4.152   0.205 -3.8726 -1.0677 -0.4614
  412MOL0     H56796   8.194   4.254   0.057 -1.6270 -1.2151 -2.9352
  412MOL0     H56797   8.187   3.949   0.066 -0.8647 -0.5815  0.0928
  412MOL0     H56798   8.198   4.053  -0.082 -2.4869  3.6411 -1.5695
  412MOL0     H56799   7.986   4.179  -0.013 -4.8110 -1.9003  0.7727
  412MOL0     H56800   7.964   4.027  -0.082 -0.4555 -1.2793  0.5107
  412MOL0     H56801   7.817   4.080   0.108  0.7718  0.8363 -0.9636
  412MOL0     H56802   7.956   4.089   0.222  1.4762 -1.2049  0.4295
  412MOL0     H56803   7.998   3.848   0.180 -0.7480 -0.2114 -2.3866
  412MOL0     H56804   7.848   3.903   0.257  3.3406  0.8809  1.1835
  412MOL0     H56805   8.021   3.787  -0.063 -0.4681 -3.8290 -0.1385
  412MOL0     H56806   7.952   3.817  -0.318  0.1804 -0.9731  1.3806
  412MOL0     H56807   7.805   3.744  -0.358 -3.0379  1.5611  1.4372
  412MOL0     H56808   8.030   3.583  -0.238 -1.2431  2.3073  0.6623
  412MOL0     H56809   7.871   3.514  -0.284 -1.1074  0.6832  0.3131
  412MOL0     H56810   7.932   3.564  -0.531 -0.0737  1.4452  1.1915
  412MOL0     H56811   8.081   3.637  -0.475 -0.8767  2.8204  0.7566
  412MOL0     H56812   8.120   3.451  -0.558 -3.0143  0.5876 -2.4352
  412MOL0     H56813   8.154   3.422  -0.381 -0.0216  1.6203 -1.4791
  412MOL0     H56814   8.142   3.268  -0.672 -2.0129  0.5112 -0.2621
  412MOL0     H56815   8.131   3.033  -0.912 -0.7428  2.0868 -0.2326
  412MOL0     H56816   8.213   2.945  -0.790 -4.6322 -1.6875  1.7942
  412MOL0     H56817   8.260   3.113  -0.797  2.0217 -2.1723 -0.4175
  412MOL0     H56818   7.704   2.632  -0.550 -0.9185 -0.3967  0.7580
  412MOL0     H56819   7.621   2.395  -0.577  0.1626 -0.2464  0.5255
  412MOL0     H56820   7.752   2.186  -0.957  1.2625 -1.3990 -1.1788
  412MOL0     H56821   7.883   2.138  -0.864 -0.1717 -2.0071  0.0325
  412MOL0     H56822   7.591   2.032  -0.840  0.3412 -0.2636  0.1985
  412MOL0     H56823   7.701   1.960  -0.954 -1.4303  1.3506 -0.8503
  412MOL0     H56824   7.722   1.962  -0.651 -3.0054  1.0421 -1.4047
  412MOL0     H56825   7.848   1.889  -0.756  0.0823 -3.3223 -4.7948
  412MOL0     H56826   7.660   1.729  -0.841 -0.3016 -0.9051  0.3149
  412MOL0     H56827   7.567   1.793  -0.706 -0.1322  2.0260 -1.4221
  412MOL0     H56828   7.856   1.676  -0.692  1.3928  0.3817  0.8763
  412MOL0     H56829   7.759   1.709  -0.553 -0.2616 -0.1072 -0.4518
  412MOL0     H56830   7.651   1.523  -0.769  2.0394  1.0020 -0.4965
  412MOL0     H56831   7.583   1.536  -0.605 -1.0220 -2.1371 -1.8255
  412MOL0     H56832   7.788   1.356  -0.676 -0.7163 -1.1855 -0.3358
  412MOL0     H56833   7.687   1.374  -0.530  0.7239  0.3584  0.7184
  412MOL0     H56834   7.897   1.362  -0.441 -0.3027  1.4422  1.4551
  412MOL0     H56835   7.869   1.526  -0.429  4.6106 -0.2697  1.2256
  412MOL0     H56836   7.912   2.344  -0.891 -1.6776  0.9225 -2.7967
  412MOL0     H56837   7.988   2.592  -0.854  1.4923  0.9412  2.4580
  412MOL0     H56838   7.800   2.943  -0.553 -0.4437 -1.1881  0.4208
  412MOL0     H56839   7.820   3.137  -0.419 -1.0281 -0.1078  0.1144
  412MOL0     H56840   8.458   4.467   0.558  1.2655 -0.4755  2.7908
  412MOL0     H56841   8.432   4.396   0.764  0.2747  1.0592  0.3746
  412MOL0     H56842   8.470   4.192   1.199  0.5668 -0.1326 -0.3590
  412MOL0     H56843   8.424   4.236   1.424  0.7595  0.0353 -0.2215
  412MOL0     H56844   8.273   4.410   1.711  1.0582  0.0485  0.2736
  412MOL0     H56845   8.356   4.267   1.638  1.8855  0.5240 -1.2468
  412MOL0     H56846   8.469   4.467   1.496  1.7311  2.4792 -0.9231
  412MOL0     H56847   8.492   4.502   1.646  0.2037 -1.8411 -1.6563
  412MOL0     H56848   8.401   4.657   1.490 -0.9509 -0.5855  0.2236
  412MOL0     H56849   8.235   4.606   1.510 -1.2663 -0.9507  1.7797
  412MOL0     H56850   8.299   4.642   1.767 -1.0192  1.9427  0.9703
  412MOL0     H56851   8.245   4.775   1.650  0.5219 -0.0931 -0.7436
  412MOL0     H56852   8.657   4.850   1.717 -0.3839 -0.7730  0.7154
  412MOL0     H56853   8.044   4.398   1.330  0.2549  0.5626  1.3283
  412MOL0     H56854   8.010   4.241   1.007 -1.3663 -2.1484  1.6839
  412MOL0     H56855   7.924   4.326   1.137 -1.8465 -0.5174 -2.1966
  412MOL0     H56856   8.024   4.420   1.016  1.7132 -0.4498 -0.6935
  413MOL0     O56857   0.281   8.271   5.451  0.2596  0.1827  0.2974
  413MOL0     C56858   0.243   8.177   5.378  0.1103  0.3872 -0.0420
  413MOL0     O56859   0.276   8.047   5.404 -0.1363 -0.1665  0.3052
  413MOL0     C56860   0.355   8.015   5.511  0.2820  0.2317  0.5558
  413MOL0     C56861   0.466   7.931   5.488 -0.1073 -0.1471  0.2441
  413MOL0     C56862   0.541   7.868   5.583  0.2031 -0.4086 -0.2651
  413MOL0     C56863   0.518   7.888   5.720  0.3857 -0.2840 -0.2586
  413MOL0     O56864   0.572   7.806   5.824  0.2405 -1.1422  0.3617
  413MOL0     C56865   0.635   7.680   5.784 -0.5155 -0.9061 -0.1497
  413MOL0     C56866   0.679   7.606   5.915 -0.1249  0.7625 -0.5923
  413MOL0     C56867   0.734   7.470   5.883  0.0634  0.2876 -0.4556
  413MOL0     C56868   0.631   7.353   5.873 -0.3485 -1.1359 -1.3317
  413MOL0     C56869   0.693   7.215   5.897  0.6184 -1.0698 -0.3442
  413MOL0     C56870   0.595   7.100   5.867 -0.3219 -0.2440 -0.5807
  413MOL0     C56871   0.611   6.976   5.950 -0.2371  0.4709 -1.1395
  413MOL0     C56872   0.511   6.874   5.920 -0.2442 -0.1631  0.5656
  413MOL0     N56873   0.519   6.762   6.012  0.2425  0.2401  0.5897
  413MOL0     C56874   0.521   6.625   5.970 -0.6667 -0.3625 -0.5559
  413MOL0     C56875   0.541   6.564   6.095 -0.3107 -0.1230  0.8248
  413MOL0     C56876   0.563   6.420   6.117 -0.6505 -0.9996  0.5173
  413MOL0     C56877   0.586   6.345   5.989 -0.6410 -1.1502 -1.0985
  413MOL0     C56878   0.640   6.201   6.012  0.6771 -0.0932  0.0968
  413MOL0     C56879   0.656   6.134   5.874  0.6521 -0.8381  0.3143
  413MOL0     O56880   0.648   5.992   5.880  0.9473  0.9086  0.2591
  413MOL0     C56881   0.663   5.903   5.773 -0.1451  0.1209  0.1070
  413MOL0     C56882   0.692   5.948   5.645  0.0456 -0.9993  0.4581
  413MOL0     C56883   0.714   5.865   5.534 -0.3549  0.1573 -0.0269
  413MOL0     C56884   0.710   5.942   5.395 -0.1033 -0.0297 -0.7190
  413MOL0     C56885   0.738   5.722   5.561 -0.2856 -0.0161 -0.1992
  413MOL0     C56886   0.775   5.622   5.449 -0.4922  0.8393  0.2469
  413MOL0     O56887   0.800   5.492   5.496 -0.2057  1.0568  0.2557
  413MOL0     C56888   0.855   5.397   5.407 -0.0238 -0.4526  0.3916
  413MOL0     C56889   0.772   5.314   5.330  0.9914  0.3626  0.1369
  413MOL0     C56890   0.827   5.217   5.259 -0.5160  0.4709  0.3546
  413MOL0     C56891   0.962   5.186   5.275  0.2941  1.4667  1.4990
  413MOL0     O56892   1.043   5.092   5.205 -0.0440 -0.0374  1.4188
  413MOL0     C56893   0.981   4.985   5.141  0.2507  0.4881  0.0271
  413MOL0     C56894   1.051   4.848   5.171 -0.2306 -0.4091 -0.3518
  413MOL0     C56895   1.175   4.816   5.090  0.2271 -0.5054  0.5350
  413MOL0     C56896   1.201   4.673   5.096 -0.2991  0.8608 -1.6468
  413MOL0     C56897   1.293   4.622   4.991  0.2208  0.2229 -0.3438
  413MOL0     C56898   1.368   4.484   5.001 -0.2245  0.6916 -0.1446
  413MOL0     C56899   1.469   4.451   4.893  0.4684 -0.7630  0.2381
  413MOL0     C56900   1.585   4.546   4.856 -0.3874  0.8258  1.0969
  413MOL0    Cl56901   1.636   4.630   4.996  0.5117  0.0422  0.6320
  413MOL0     C56902   1.044   5.262   5.357  0.2536 -0.3110  0.2399
  413MOL0     C56903   0.989   5.372   5.421  0.2881  1.5480  0.5952
  413MOL0     O56904   0.785   5.661   5.325  0.3529 -0.8469 -0.5115
  413MOL0     C56905   0.726   5.677   5.698  0.6000 -0.8831  0.1124
  413MOL0     C56906   0.676   5.763   5.804 -0.5923 -0.3109  0.0386
  413MOL0     N56907   0.527   6.657   6.199  0.3652 -0.1497 -0.1928
  413MOL0     N56908   0.512   6.772   6.148  0.5241  0.0054  0.1854
  413MOL0     C56909   0.416   7.985   5.748  0.0059  0.0906 -0.1551
  413MOL0     C56910   0.326   8.029   5.649 -0.3569 -0.6179  0.7282
  413MOL0     C56911   0.166   8.208   5.254 -0.1461 -0.8287  0.8552
  413MOL0     C56912   0.083   8.098   5.219  0.9609  1.2207 -0.6370
  413MOL0     C56913  -0.019   8.101   5.130  0.3401  0.5557 -0.1076
  413MOL0     C56914  -0.034   8.226   5.065 -0.4611  0.1117  0.2815
  413MOL0     O56915  -0.126   8.233   4.960  0.7492 -0.6522  0.2999
  413MOL0     C56916  -0.106   8.338   4.862 -0.1693  0.5089 -0.9019
  413MOL0     C56917  -0.189   8.312   4.740  0.8529 -0.2202 -0.5660
  413MOL0     C56918  -0.144   8.365   4.612 -0.3822  0.1702  0.0216
  413MOL0     C56919  -0.020   8.298   4.535  0.9005 -0.8390 -0.1006
  413MOL0     C56920  -0.072   8.183   4.443  0.8021 -0.5299 -0.7444
  413MOL0     C56921  -0.104   8.110   4.358  1.4661  0.0816 -0.0222
  413MOL0     C56922   0.045   8.337   5.096 -0.2974  0.4555  0.2558
  413MOL0     C56923   0.148   8.337   5.198  0.6018  0.3979  0.0706
  413MOL0     C56924   0.233   8.462   5.233 -0.2661  0.9821 -0.0672
  413MOL0     H56925   0.499   7.909   5.387  1.8375 -0.5527  0.9310
  413MOL0     H56926   0.621   7.801   5.555 -1.2413 -2.0144 -0.7782
  413MOL0     H56927   0.729   7.694   5.730 -0.6921 -0.4634 -0.3523
  413MOL0     H56928   0.572   7.621   5.717  0.7272 -0.2657 -1.9716
  413MOL0     H56929   0.757   7.660   5.970  1.5248 -2.3235  0.3518
  413MOL0     H56930   0.593   7.596   5.982 -0.9545  1.5806 -1.4958
  413MOL0     H56931   0.789   7.470   5.789 -0.5432  2.9297 -0.8733
  413MOL0     H56932   0.809   7.439   5.957 -0.0507  3.3026  1.0739
  413MOL0     H56933   0.554   7.370   5.948 -0.3948 -1.6141 -1.2667
  413MOL0     H56934   0.587   7.355   5.773  1.6592  2.0551 -2.3211
  413MOL0     H56935   0.724   7.215   6.002 -2.0995  1.4564  0.5870
  413MOL0     H56936   0.766   7.207   5.816 -1.3511  0.5913 -2.4121
  413MOL0     H56937   0.491   7.129   5.883 -0.1830 -0.3096  0.5171
  413MOL0     H56938   0.616   7.076   5.762  3.0495  0.9555 -0.2903
  413MOL0     H56939   0.589   7.006   6.053 -0.5274  1.1844 -1.3983
  413MOL0     H56940   0.712   6.934   5.955 -0.2229  0.6404  0.5084
  413MOL0     H56941   0.417   6.930   5.923 -0.0316  0.4306 -2.0211
  413MOL0     H56942   0.509   6.836   5.818 -1.5735 -0.3987  0.6551
  413MOL0     H56943   0.522   6.588   5.868  0.7568 -0.9522 -0.3488
  413MOL0     H56944   0.483   6.367   6.170  1.2014 -4.2679  0.3309
  413MOL0     H56945   0.657   6.407   6.171  1.2074 -0.6229 -2.3794
  413MOL0     H56946   0.492   6.343   5.934 -1.8754  3.0338  0.5287
  413MOL0     H56947   0.659   6.401   5.929  0.6237 -1.8139 -0.2310
  413MOL0     H56948   0.733   6.191   6.068  0.7256  0.9869  0.2296
  413MOL0     H56949   0.567   6.151   6.076 -0.4876  2.5523  1.0106
  413MOL0     H56950   0.579   6.169   5.804  0.0310 -0.1246  1.3307
  413MOL0     H56951   0.754   6.155   5.831 -1.1022  3.7644 -2.2049
  413MOL0     H56952   0.686   6.054   5.624  0.3613 -0.1132  4.2040
  413MOL0     H56953   0.673   6.042   5.416  0.1506 -0.2549  0.9664
  413MOL0     H56954   0.645   5.884   5.328  0.1790 -0.9012 -0.2644
  413MOL0     H56955   0.806   5.957   5.346 -0.6447  1.7553 -1.2953
  413MOL0     H56956   0.665   5.331   5.318  0.4736  0.5284  3.8065
  413MOL0     H56957   0.764   5.156   5.194 -0.8398 -0.4622  1.5230
  413MOL0     H56958   0.880   4.965   5.177  0.7224 -3.8486 -0.4996
  413MOL0     H56959   0.976   5.013   5.035  3.8503  2.1019  0.1458
  413MOL0     H56960   1.075   4.852   5.278  0.7636  3.5525 -0.5875
  413MOL0     H56961   0.974   4.774   5.146  0.1725 -0.8505 -0.2959
  413MOL0     H56962   1.268   4.867   5.117  0.2456 -0.2358 -0.0244
  413MOL0     H56963   1.165   4.850   4.987  1.8734 -1.7290 -0.0707
  413MOL0     H56964   1.110   4.613   5.086  1.2661 -1.9873 -0.1952
  413MOL0     H56965   1.238   4.657   5.198 -2.2891 -0.5135 -1.0883
  413MOL0     H56966   1.226   4.614   4.905 -0.6674  0.2682  0.3221
  413MOL0     H56967   1.376   4.692   4.980  1.3243 -1.1464 -1.1239
  413MOL0     H56968   1.298   4.399   5.000 -0.8600  0.9726 -5.1065
  413MOL0     H56969   1.420   4.483   5.097  0.4389  0.2998 -0.5063
  413MOL0     H56970   1.418   4.414   4.804 -0.7125 -1.9302  1.3506
  413MOL0     H56971   1.515   4.358   4.927  1.1765 -0.3205  0.5107
  413MOL0     H56972   1.531   4.613   4.788 -0.8443 -1.0559 -0.5018
  413MOL0     H56973   1.656   4.480   4.807 -2.2683 -0.5551  0.0864
  413MOL0     H56974   1.150   5.240   5.360  1.2452  3.7415  0.7547
  413MOL0     H56975   1.059   5.427   5.484 -0.0837  3.4573 -0.5865
  413MOL0     H56976   0.737   5.570   5.713 -1.1647 -1.2635 -1.0196
  413MOL0     H56977   0.655   5.725   5.903  1.5695 -1.8106  0.0056
  413MOL0     H56978   0.407   7.987   5.856  1.0826 -0.2989 -0.0493
  413MOL0     H56979   0.235   8.086   5.666 -0.9202 -1.0836 -0.6185
  413MOL0     H56980   0.102   8.001   5.263  1.5409  0.5035 -2.3696
  413MOL0     H56981  -0.089   8.022   5.107  2.5137 -0.8961 -2.1954
  413MOL0     H56982  -0.140   8.433   4.906 -0.1308  1.6138 -3.1065
  413MOL0     H56983   0.002   8.341   4.841 -0.1330 -1.3889 -1.1462
  413MOL0     H56984  -0.284   8.361   4.763  0.1389 -0.4771 -2.7466
  413MOL0     H56985  -0.209   8.205   4.735  0.6472 -0.2856  1.2939
  413MOL0     H56986  -0.231   8.388   4.550  0.3468 -4.4992 -3.3098
  413MOL0     H56987  -0.107   8.463   4.640  3.5765 -0.9637 -0.5787
  413MOL0     H56988   0.051   8.261   4.609  1.3568 -1.3479 -0.7725
  413MOL0     H56989   0.027   8.379   4.479 -3.0028  1.9431  0.2387
  413MOL0     H56990  -0.134   8.046   4.276  1.4959 -0.8395  0.6668
  413MOL0     H56991   0.027   8.432   5.047  0.8218 -0.3926 -1.9100
  413MOL0     H56992   0.211   8.546   5.167  0.5013 -0.9281 -2.9798
  413MOL0     H56993   0.225   8.494   5.337  1.9661  0.3485  0.3569
  413MOL0     H56994   0.338   8.437   5.218 -0.3144  0.8393 -0.1764
  414MOL0     O56995  11.513   8.610   3.253 -0.0105 -0.8266 -0.6098
  414MOL0     C56996  11.603   8.598   3.172 -0.3519 -0.5212  0.8691
  414MOL0     O56997  11.632   8.481   3.112 -0.9482 -0.0765 -0.4481
  414MOL0     C56998  11.556   8.363   3.124  0.2529 -0.1660 -0.4773
  414MOL0     C56999  11.414   8.362   3.104 -0.0003 -0.2848  0.1099
  414MOL0     C57000  11.343   8.239   3.089 -0.2481  0.1186  0.6589
  414MOL0     C57001  11.417   8.119   3.107 -0.2808  0.1780  0.5982
  414MOL0     O57002  11.353   8.002   3.069 -0.3009  0.3287  0.2478
  414MOL0     C57003  11.286   7.996   2.936 -0.3268  0.3109  0.2819
  414MOL0     C57004  11.266   7.856   2.890  0.1339  0.5993  0.8701
  414MOL0     C57005  11.251   7.756   3.014  0.3009 -0.6503 -0.2147
  414MOL0     C57006  11.255   7.612   2.958  0.5524  0.2275  0.1847
  414MOL0     C57007  11.233   7.515   3.071 -0.0989  0.3218 -0.7191
  414MOL0     C57008  11.209   7.363   3.037  0.2658  0.0262  0.3802
  414MOL0     C57009  11.085   7.338   2.941 -0.3071  0.5446 -0.4145
  414MOL0     C57010  10.945   7.390   2.986  0.4677  0.1306 -0.2650
  414MOL0     N57011  10.916   7.354   3.129  0.5816  0.0148  0.9705
  414MOL0     C57012  10.928   7.225   3.171  0.0117  0.4221  0.0889
  414MOL0     C57013  10.925   7.229   3.301 -0.8523 -0.8520 -0.2670
  414MOL0     C57014  10.955   7.115   3.398  0.3881  0.2798  0.3988
  414MOL0     C57015  10.923   7.166   3.539  0.0440 -0.9016  0.3573
  414MOL0     C57016  10.985   7.078   3.646 -0.7045 -0.1674 -0.3407
  414MOL0     C57017  10.945   7.123   3.790 -0.0939  0.6536  1.2806
  414MOL0     O57018  10.973   7.022   3.889  0.5439  0.4090 -0.6891
  414MOL0     C57019  10.913   7.017   4.015 -0.5590  0.7249  0.5781
  414MOL0     C57020  10.815   7.110   4.045 -0.3139 -0.6319 -0.1540
  414MOL0     C57021  10.730   7.105   4.154 -0.1824  1.3198 -0.1468
  414MOL0     C57022  10.624   7.203   4.178  0.0496 -0.8018  0.0181
  414MOL0     C57023  10.748   6.993   4.234  0.0821 -0.0875  0.7381
  414MOL0     C57024  10.651   6.969   4.339  0.8159  0.0112 -0.7675
  414MOL0     O57025  10.702   6.953   4.460  0.2266  0.6290  0.5381
  414MOL0     C57026  10.631   6.916   4.580 -0.1439  0.6284  0.0605
  414MOL0     C57027  10.704   6.849   4.679  0.3315  0.6132  0.0441
  414MOL0     C57028  10.641   6.805   4.800 -0.1952 -0.3850  0.5589
  414MOL0     C57029  10.510   6.841   4.824 -0.1169  1.0036 -0.7706
  414MOL0     O57030  10.455   6.802   4.940  0.3237  0.0430  0.2391
  414MOL0     C57031  10.357   6.878   5.019  0.4390  1.3545  0.9125
  414MOL0     C57032  10.377   6.865   5.161  0.2203  0.7857 -0.1375
  414MOL0     C57033  10.274   6.934   5.261  0.4801 -1.5180  0.7326
  414MOL0     C57034  10.250   7.080   5.227 -0.0364  0.7697 -0.0046
  414MOL0     C57035  10.188   7.167   5.340 -0.3791 -0.4959  1.1552
  414MOL0     C57036  10.210   7.316   5.296  0.1591  1.2180 -0.1886
  414MOL0     C57037  10.139   7.418   5.390 -0.0419 -0.0958 -0.0941
  414MOL0     C57038  10.230   7.444   5.506 -0.6314  0.4126 -0.8729
  414MOL0    Cl57039  10.369   7.551   5.471  0.2561 -0.1394 -0.0003
  414MOL0     C57040  10.433   6.906   4.725  0.3680 -0.6214  0.3046
  414MOL0     C57041  10.493   6.942   4.602 -0.3755  0.2777  0.3446
  414MOL0     O57042  10.535   6.938   4.306 -0.2656  0.0146  0.0138
  414MOL0     C57043  10.847   6.895   4.211  0.0046  0.1159 -0.6286
  414MOL0     C57044  10.928   6.907   4.100  0.6856  0.3348  0.2720
  414MOL0     N57045  10.908   7.363   3.330  0.1719  1.1876 -0.9825
  414MOL0     N57046  10.904   7.441   3.232 -0.1844 -0.5771  0.7437
  414MOL0     C57047  11.548   8.125   3.157 -0.1378  0.1287 -0.3857
  414MOL0     C57048  11.619   8.246   3.148 -0.4859 -0.4085 -0.6693
  414MOL0     C57049  11.677   8.720   3.116  0.0355  0.1160 -0.2120
  414MOL0     C57050  11.659   8.836   3.195  0.0136  0.7094 -0.2084
  414MOL0     C57051  11.714   8.956   3.160 -0.0499 -0.5577  0.6449
  414MOL0     C57052  11.798   8.969   3.049  0.1988  0.2622 -0.5665
  414MOL0     O57053  11.828   9.100   3.010 -0.2006  0.0295 -0.9773
  414MOL0     C57054  11.846   9.124   2.870  0.2037  0.3705  0.1087
  414MOL0     C57055  11.858   9.273   2.836 -0.2507 -0.4648  0.5652
  414MOL0     C57056  11.828   9.305   2.691  0.6600  0.8482  0.6306
  414MOL0     C57057  11.949   9.286   2.599 -1.6391  0.1831 -0.1712
  414MOL0     C57058  11.910   9.286   2.457  0.1588 -0.0188 -0.1314
  414MOL0     C57059  11.864   9.305   2.344 -0.3387  0.1678 -0.7254
  414MOL0     C57060  11.837   8.846   2.989 -0.0204 -0.0813 -0.1662
  414MOL0     C57061  11.767   8.721   3.014 -0.2317 -0.3713  0.7234
  414MOL0     C57062  11.782   8.609   2.907  0.3524 -0.5666  1.0206
  414MOL0     H57063  11.354   8.452   3.104  0.5982  0.2032 -2.8766
  414MOL0     H57064  11.240   8.228   3.056  0.5368 -6.0448 -0.9473
  414MOL0     H57065  11.340   8.042   2.853 -2.4033  1.3419 -0.5561
  414MOL0     H57066  11.186   8.040   2.940  0.6277  2.8839 -1.5450
  414MOL0     H57067  11.181   7.846   2.821  2.5767  2.9085 -2.8188
  414MOL0     H57068  11.350   7.815   2.833 -1.2138 -3.7620  1.5790
  414MOL0     H57069  11.332   7.771   3.086 -1.1510  3.3102  0.8364
  414MOL0     H57070  11.156   7.791   3.057  0.9915  1.2056 -0.0975
  414MOL0     H57071  11.189   7.605   2.870  0.0095  1.5281  0.4665
  414MOL0     H57072  11.356   7.589   2.924  1.1075 -2.0741  2.9379
  414MOL0     H57073  11.161   7.549   3.147  2.2071  3.8469  0.1296
  414MOL0     H57074  11.329   7.527   3.122 -1.2615  3.2848  1.0897
  414MOL0     H57075  11.296   7.324   2.983 -0.9301 -1.0967 -0.7834
  414MOL0     H57076  11.205   7.297   3.125  2.1854 -1.2305 -0.4090
  414MOL0     H57077  11.073   7.230   2.933  0.3563  0.4168  0.1470
  414MOL0     H57078  11.114   7.382   2.845  1.8298 -0.4375 -0.2727
  414MOL0     H57079  10.932   7.498   2.989 -0.2518  0.0381  0.1617
  414MOL0     H57080  10.867   7.356   2.918 -3.0113  3.4288  1.6952
  414MOL0     H57081  10.942   7.144   3.100  0.4045 -0.1378  0.8027
  414MOL0     H57082  11.056   7.074   3.393 -0.5668 -2.0530 -0.8646
  414MOL0     H57083  10.887   7.033   3.375  2.0303 -1.1622  0.4800
  414MOL0     H57084  10.957   7.270   3.550 -0.6551 -0.8186  2.0674
  414MOL0     H57085  10.815   7.172   3.556 -0.6700 -0.3681 -3.4153
  414MOL0     H57086  10.945   6.978   3.627 -0.5652 -0.9342  2.8927
  414MOL0     H57087  11.094   7.071   3.651 -0.6790  0.3536 -0.1231
  414MOL0     H57088  10.996   7.211   3.829  1.7525 -0.2335  0.9781
  414MOL0     H57089  10.836   7.127   3.782 -0.1926 -2.3969 -1.2927
  414MOL0     H57090  10.794   7.195   3.981  2.7818 -2.4837 -4.0664
  414MOL0     H57091  10.534   7.141   4.187  0.3931 -1.0153  2.9540
  414MOL0     H57092  10.602   7.284   4.109 -0.4135  0.9585  2.1172
  414MOL0     H57093  10.649   7.244   4.276  1.0210 -1.5409  0.0883
  414MOL0     H57094  10.804   6.813   4.656  0.3895  1.1675 -0.6007
  414MOL0     H57095  10.700   6.750   4.873  0.8831  0.5031  0.3887
  414MOL0     H57096  10.382   6.984   5.004 -0.4906  1.4557 -0.0154
  414MOL0     H57097  10.261   6.841   4.982  1.6169 -2.8978  1.5885
  414MOL0     H57098  10.378   6.760   5.192  0.0760 -0.6834 -4.4069
  414MOL0     H57099  10.481   6.898   5.172 -0.1439  2.0969 -0.5015
  414MOL0     H57100  10.309   6.931   5.364  1.4183  2.4491  0.7217
  414MOL0     H57101  10.185   6.871   5.260 -0.4332 -0.2942 -0.3481
  414MOL0     H57102  10.171   7.090   5.153 -0.5175 -0.0627  0.3834
  414MOL0     H57103  10.339   7.139   5.203 -0.9940  1.4725 -2.0271
  414MOL0     H57104  10.083   7.151   5.365 -1.1096  1.5951 -0.3047
  414MOL0     H57105  10.252   7.148   5.427  2.2056  0.3554 -0.4378
  414MOL0     H57106  10.168   7.317   5.195  0.5442 -0.4813 -0.3997
  414MOL0     H57107  10.316   7.339   5.293  0.1412  1.9550  2.3300
  414MOL0     H57108  10.042   7.381   5.426  0.0611  0.2143  0.5241
  414MOL0     H57109  10.129   7.513   5.336  0.8125 -0.0564 -0.1927
  414MOL0     H57110  10.268   7.348   5.544  0.4705  0.6333 -1.3608
  414MOL0     H57111  10.162   7.478   5.584 -0.8679 -2.0178  0.0612
  414MOL0     H57112  10.326   6.914   4.737  0.2891 -1.2950  0.0963
  414MOL0     H57113  10.437   6.998   4.528 -0.9525 -1.6529 -0.7448
  414MOL0     H57114  10.851   6.822   4.291 -0.3411  2.4354  1.6496
  414MOL0     H57115  10.995   6.824   4.077 -0.1782  0.1675 -1.8474
  414MOL0     H57116  11.595   8.028   3.170 -1.2052 -0.3393  0.1350
  414MOL0     H57117  11.726   8.262   3.154 -0.3513 -0.3888 -2.4688
  414MOL0     H57118  11.605   8.843   3.289  1.7846 -2.4741  1.1996
  414MOL0     H57119  11.691   9.043   3.221 -0.5038 -2.3913  3.2340
  414MOL0     H57120  11.928   9.065   2.828  0.1505 -0.0993  0.6462
  414MOL0     H57121  11.759   9.084   2.817  0.9870  2.1902 -2.7712
  414MOL0     H57122  11.960   9.301   2.864 -1.0440  2.8384  0.5179
  414MOL0     H57123  11.800   9.338   2.902  0.4797  1.2854 -0.4387
  414MOL0     H57124  11.755   9.235   2.650  0.8067  1.1810 -0.2048
  414MOL0     H57125  11.783   9.403   2.669 -1.5071  0.3844  2.5302
  414MOL0     H57126  11.998   9.189   2.612  0.8245  0.2048 -6.0286
  414MOL0     H57127  12.034   9.351   2.623 -2.5076  1.0398  0.6515
  414MOL0     H57128  11.821   9.319   2.247  0.5092  1.3427 -0.9462
  414MOL0     H57129  11.895   8.855   2.898 -0.1246  0.3960 -0.1910
  414MOL0     H57130  11.693   8.580   2.850 -0.0918 -0.2468  1.5516
  414MOL0     H57131  11.851   8.646   2.830 -0.6063  2.6843  1.5826
  414MOL0     H57132  11.811   8.518   2.960 -0.5411 -0.4596  1.7186
  415MOL0     O57133   3.305   4.733   8.837  0.8432  0.5310 -0.0269
  415MOL0     C57134   3.384   4.754   8.749  0.5067 -0.5262  0.9964
  415MOL0     O57135   3.514   4.784   8.758  0.5489 -0.3292 -0.7707
  415MOL0     C57136   3.560   4.864   8.855 -0.0736  0.0727  0.1212
  415MOL0     C57137   3.591   5.002   8.843 -0.8184 -0.0007  0.4600
  415MOL0     C57138   3.603   5.075   8.961 -0.4082  0.4328 -0.1530
  415MOL0     C57139   3.617   5.015   9.089  0.2798  0.3226 -0.0720
  415MOL0     O57140   3.669   5.088   9.196  0.3422 -0.1711 -0.8663
  415MOL0     C57141   3.610   5.055   9.327  0.6439  0.0045  0.7388
  415MOL0     C57142   3.626   5.148   9.451  0.3646 -0.3822  0.2095
  415MOL0     C57143   3.749   5.229   9.435  0.0785  0.8590 -0.0139
  415MOL0     C57144   3.813   5.269   9.569  0.0471  0.5542 -0.5163
  415MOL0     C57145   3.943   5.349   9.558  0.5545 -0.9495  0.0655
  415MOL0     C57146   3.996   5.372   9.708  0.4650 -0.4535  0.9733
  415MOL0     C57147   4.045   5.255   9.795  0.1141 -1.0276 -0.1629
  415MOL0     C57148   4.099   5.301   9.930  0.3603  0.7770 -0.5214
  415MOL0     N57149   4.031   5.414   9.996 -0.6190  0.2891 -0.4637
  415MOL0     C57150   4.092   5.511  10.062 -0.1473 -1.1834 -1.3211
  415MOL0     C57151   4.001   5.577  10.137  0.4626 -0.4952  0.2332
  415MOL0     C57152   4.010   5.709  10.227 -0.5691 -0.0259  0.8823
  415MOL0     C57153   3.963   5.837  10.146 -0.1513  0.2259 -0.0278
  415MOL0     C57154   4.084   5.878  10.056 -0.5035 -0.1486  0.3506
  415MOL0     C57155   4.038   5.983   9.956  0.1065 -0.9204 -0.4749
  415MOL0     O57156   3.970   6.078  10.029  0.5336 -0.1615  0.2416
  415MOL0     C57157   3.888   6.176   9.988  0.6365 -0.0000  1.2662
  415MOL0     C57158   3.870   6.209   9.851  0.3528 -0.2829 -0.3352
  415MOL0     C57159   3.784   6.316   9.815  0.4642 -0.0345 -0.7144
  415MOL0     C57160   3.778   6.361   9.674  0.4083 -0.6366  0.5671
  415MOL0     C57161   3.705   6.368   9.923  0.3273 -0.0805 -0.6233
  415MOL0     C57162   3.604   6.470   9.900 -0.5176 -0.3319  0.1862
  415MOL0     O57163   3.508   6.466  10.002 -0.3674  0.1654 -1.2291
  415MOL0     C57164   3.382   6.526   9.995 -0.4741 -0.5401 -0.0446
  415MOL0     C57165   3.311   6.561   9.880 -0.9514  0.6728  0.7772
  415MOL0     C57166   3.180   6.610   9.881  0.1780 -0.7630  0.1861
  415MOL0     C57167   3.127   6.642  10.006 -0.6080 -0.8581  0.6369
  415MOL0     O57168   2.999   6.695  10.023  0.0212 -0.5424 -0.0804
  415MOL0     C57169   3.017   6.838  10.023 -0.1325 -0.6686  0.6320
  415MOL0     C57170   2.883   6.928  10.026  0.2702  0.1530 -0.7200
  415MOL0     C57171   2.790   6.862   9.921  0.4376 -0.6334 -0.5322
  415MOL0     C57172   2.657   6.949   9.928  0.0086 -0.3675 -0.1935
  415MOL0     C57173   2.572   6.875   9.819  0.3151  0.1622 -0.4127
  415MOL0     C57174   2.455   6.964   9.766 -0.4025  0.3136 -0.3491
  415MOL0     C57175   2.505   7.049   9.647 -0.4722  0.4535 -0.2905
  415MOL0     C57176   2.545   6.974   9.525 -0.9157 -0.0498 -1.5322
  415MOL0    Cl57177   2.415   6.887   9.451  0.3660  0.1852 -0.7359
  415MOL0     C57178   3.184   6.595  10.127 -0.1805  1.1394  0.0149
  415MOL0     C57179   3.312   6.534  10.117 -1.3351  0.7000  0.6617
  415MOL0     O57180   3.599   6.544   9.796  0.0020 -0.1878 -0.7839
  415MOL0     C57181   3.735   6.339  10.059  0.9009 -0.0913 -0.4066
  415MOL0     C57182   3.824   6.241  10.092  0.2791 -0.5434  0.3034
  415MOL0     N57183   3.878   5.510  10.116 -0.6703 -1.0293  0.3692
  415MOL0     N57184   3.901   5.408  10.035  0.5221  0.2799 -0.3070
  415MOL0     C57185   3.597   4.875   9.096  0.2019 -0.1533 -0.8322
  415MOL0     C57186   3.566   4.806   8.981  0.9063 -0.5964 -0.1672
  415MOL0     C57187   3.321   4.718   8.620  0.3790  0.1662  0.0428
  415MOL0     C57188   3.178   4.699   8.606 -0.8188  0.7007 -0.4346
  415MOL0     C57189   3.123   4.684   8.477  0.5572 -0.3885  0.2956
  415MOL0     C57190   3.204   4.677   8.363  0.4575 -0.0869 -0.4620
  415MOL0     O57191   3.130   4.661   8.249  0.1598  0.0004  0.0959
  415MOL0     C57192   3.164   4.553   8.164  0.5927  0.6390  0.6493
  415MOL0     C57193   3.137   4.426   8.247 -0.1338 -0.6161  0.0431
  415MOL0     C57194   2.980   4.385   8.242  0.6530 -0.4360  0.4760
  415MOL0     C57195   2.960   4.248   8.304  0.0524  1.2809  0.0609
  415MOL0     C57196   2.822   4.203   8.288  0.3698 -0.3267 -0.2586
  415MOL0     C57197   2.704   4.174   8.265  0.8704 -0.0378  0.5503
  415MOL0     C57198   3.340   4.689   8.369  0.2410 -0.6479  0.7033
  415MOL0     C57199   3.402   4.720   8.499  0.0273 -0.9096  0.1483
  415MOL0     C57200   3.542   4.781   8.482 -0.8062 -0.6809  0.4614
  415MOL0     H57201   3.581   5.046   8.745  0.9982  0.6033  0.5134
  415MOL0     H57202   3.640   5.177   8.955 -3.7197  1.6480 -3.0248
  415MOL0     H57203   3.646   4.956   9.358  1.7760  1.0152  2.9176
  415MOL0     H57204   3.502   5.045   9.316  0.9153 -0.2789 -2.4985
  415MOL0     H57205   3.544   5.219   9.458 -0.9512 -1.9124  1.1040
  415MOL0     H57206   3.635   5.093   9.546  1.3377 -1.1703 -0.3129
  415MOL0     H57207   3.823   5.184   9.367 -1.1642  0.1392 -0.9293
  415MOL0     H57208   3.728   5.316   9.373  1.4423  0.7578 -0.6539
  415MOL0     H57209   3.739   5.330   9.622 -2.9576 -3.5435  0.5554
  415MOL0     H57210   3.835   5.177   9.624  0.4604  1.4022  0.7711
  415MOL0     H57211   3.929   5.449   9.517 -0.2749 -0.5106  1.3678
  415MOL0     H57212   4.012   5.297   9.492  0.3163  1.0732 -1.8829
  415MOL0     H57213   4.081   5.441   9.705 -1.6366  2.3232  1.1532
  415MOL0     H57214   3.914   5.422   9.760 -0.2677  1.2162 -1.5900
  415MOL0     H57215   4.113   5.198   9.731  0.1199 -1.6105  0.3550
  415MOL0     H57216   3.949   5.204   9.807 -1.1766  1.7552  2.8927
  415MOL0     H57217   4.084   5.224  10.006 -0.4138  1.3098 -0.1216
  415MOL0     H57218   4.206   5.322   9.922  0.4745 -0.3483 -2.7838
  415MOL0     H57219   4.192   5.551  10.050 -0.9639  1.6023  0.2846
  415MOL0     H57220   4.114   5.722  10.255  0.6050 -0.7910 -2.6037
  415MOL0     H57221   3.955   5.704  10.321 -0.8548 -1.9052  0.6659
  415MOL0     H57222   3.878   5.814  10.081 -0.5292  0.0147  0.5255
  415MOL0     H57223   3.927   5.907  10.222 -1.4132 -2.3896  1.9382
  415MOL0     H57224   4.158   5.913  10.129  0.5440 -1.7148  0.0920
  415MOL0     H57225   4.122   5.793   9.999 -3.3503 -2.7666  2.0270
  415MOL0     H57226   4.124   6.033   9.911  1.5618 -0.1344  2.8712
  415MOL0     H57227   3.972   5.935   9.883 -1.2040 -0.1350  0.1526
  415MOL0     H57228   3.919   6.152   9.774 -2.8709 -1.4994 -1.6592
  415MOL0     H57229   3.818   6.463   9.667 -0.3436 -0.2801  1.3809
  415MOL0     H57230   3.672   6.350   9.648  0.6406  1.0842 -1.3662
  415MOL0     H57231   3.841   6.302   9.607  0.8256  0.3383  0.0690
  415MOL0     H57232   3.372   6.541   9.792  0.3195 -2.0207  2.1547
  415MOL0     H57233   3.121   6.651   9.800  2.4212  2.6465  0.0627
  415MOL0     H57234   3.093   6.864  10.098  2.0130 -1.3653 -1.1866
  415MOL0     H57235   3.069   6.862   9.929  1.3404  0.1523  1.6128
  415MOL0     H57236   2.843   6.923  10.128  1.9598  1.1911  0.0497
  415MOL0     H57237   2.895   7.033   9.998 -3.0282  0.6597 -0.6327
  415MOL0     H57238   2.778   6.754   9.937  1.8772 -0.8946 -1.0594
  415MOL0     H57239   2.839   6.874   9.824  2.8694 -2.8065  0.3138
  415MOL0     H57240   2.672   7.055   9.903 -0.5778  0.1133  1.3477
  415MOL0     H57241   2.603   6.951  10.023 -0.3902 -2.0462 -0.3717
  415MOL0     H57242   2.632   6.835   9.737  2.5369  0.7071  0.8558
  415MOL0     H57243   2.526   6.792   9.873 -1.7165  0.6698 -1.2775
  415MOL0     H57244   2.423   7.032   9.846  1.1453 -0.1640  0.7229
  415MOL0     H57245   2.376   6.900   9.725  0.7764 -1.0787 -0.5132
  415MOL0     H57246   2.595   7.102   9.680  0.8920  0.7577 -4.0629
  415MOL0     H57247   2.440   7.129   9.611 -0.7114 -0.3231 -1.6904
  415MOL0     H57248   2.624   6.904   9.554 -2.5060 -1.3162 -0.1312
  415MOL0     H57249   2.590   7.055   9.466  0.8402 -1.2459 -1.9355
  415MOL0     H57250   3.139   6.611  10.225 -0.5072  1.5794 -0.2057
  415MOL0     H57251   3.365   6.489  10.200  0.8097  1.3937 -0.2559
  415MOL0     H57252   3.692   6.399  10.139 -0.6086  0.7489 -1.7761
  415MOL0     H57253   3.856   6.222  10.194  1.1481  1.2400  0.4047
  415MOL0     H57254   3.606   4.809   9.182 -1.5588 -0.2252 -0.6741
  415MOL0     H57255   3.524   4.705   8.986 -1.7378  0.3549 -1.2530
  415MOL0     H57256   3.113   4.692   8.692  0.1316  0.1490  0.2638
  415MOL0     H57257   3.015   4.685   8.465  0.6291 -3.0454 -1.3499
  415MOL0     H57258   3.092   4.549   8.082 -0.1034 -0.4566  1.2799
  415MOL0     H57259   3.269   4.543   8.136  0.2505  2.0188 -1.2320
  415MOL0     H57260   3.158   4.439   8.354 -0.2881  2.0679 -0.1669
  415MOL0     H57261   3.201   4.353   8.198  1.9733  0.5692  0.8808
  415MOL0     H57262   2.917   4.465   8.282 -0.2482 -1.1968  0.6039
  415MOL0     H57263   2.958   4.379   8.136 -2.2579 -1.4751  1.0516
  415MOL0     H57264   2.986   4.246   8.410 -2.9088  3.1917  0.9316
  415MOL0     H57265   3.029   4.179   8.252 -1.3084 -1.2976  1.4807
  415MOL0     H57266   2.607   4.154   8.226 -0.0385  0.7813  2.2662
  415MOL0     H57267   3.398   4.688   8.277 -0.6873 -2.0190  0.1091
  415MOL0     H57268   3.619   4.738   8.547  2.3010  3.7381  0.1201
  415MOL0     H57269   3.578   4.786   8.379 -0.8814 -3.0156  0.2669
  415MOL0     H57270   3.541   4.882   8.526  1.4971  0.3775 -1.7060
  416MOL0     O57271   2.119   0.209   7.796  0.0295  0.3210  0.3948
  416MOL0     C57272   2.157   0.134   7.883  0.1212  1.2743  0.2094
  416MOL0     O57273   2.106   0.013   7.903 -0.0133  0.4574 -0.2594
  416MOL0     C57274   1.975  -0.017   7.856 -0.5123 -0.9373  0.5115
  416MOL0     C57275   1.873   0.081   7.853 -0.4418 -1.4187 -0.6020
  416MOL0     C57276   1.749   0.052   7.799 -1.4102 -0.4382 -0.3953
  416MOL0     C57277   1.719  -0.083   7.768 -0.5329 -0.7892  0.3164
  416MOL0     O57278   1.598  -0.134   7.736  0.0583 -0.8620 -0.6084
  416MOL0     C57279   1.484  -0.051   7.724 -0.3993 -0.8166 -0.9244
  416MOL0     C57280   1.369  -0.144   7.668  0.4204 -0.5432 -0.8712
  416MOL0     C57281   1.301  -0.196   7.788  0.3501 -0.6213  0.4369
  416MOL0     C57282   1.167  -0.272   7.759 -0.2447  0.0477  0.1471
  416MOL0     C57283   1.183  -0.423   7.789 -0.5136 -0.1632 -0.7858
  416MOL0     C57284   1.058  -0.492   7.749  0.6233  0.5824  0.4989
  416MOL0     C57285   1.071  -0.647   7.742  0.6654 -0.1047 -0.5611
  416MOL0     C57286   1.101  -0.717   7.874 -0.3615  0.1801 -0.4057
  416MOL0     N57287   0.987  -0.749   7.961  0.0325 -0.0421  0.8944
  416MOL0     C57288   0.954  -0.876   8.002  0.2696 -0.6593  0.3787
  416MOL0     C57289   0.877  -0.866   8.110 -0.2821  0.0648  0.0593
  416MOL0     C57290   0.812  -0.981   8.199 -0.8030 -0.6137 -0.0903
  416MOL0     C57291   0.664  -0.987   8.169 -0.1698 -0.0671  0.4976
  416MOL0     C57292   0.606  -1.122   8.213 -0.0375  0.7102 -0.1140
  416MOL0     C57293   0.459  -1.106   8.221  0.4793  0.0143 -0.2242
  416MOL0     O57294   0.392  -1.233   8.242 -0.2370 -0.2574  0.3632
  416MOL0     C57295   0.374  -1.289   8.370 -0.5157 -0.0615  0.2472
  416MOL0     C57296   0.410  -1.225   8.500  0.3964 -0.1016  1.0963
  416MOL0     C57297   0.387  -1.296   8.615 -0.6175 -0.0558 -0.5304
  416MOL0     C57298   0.412  -1.225   8.746 -0.1992  0.3303  0.1519
  416MOL0     C57299   0.329  -1.427   8.608 -0.4678 -0.8837 -0.1442
  416MOL0     C57300   0.290  -1.503   8.729 -0.3877 -0.6074 -0.0805
  416MOL0     O57301   0.182  -1.580   8.713 -0.0030  0.1158  0.0117
  416MOL0     C57302   0.153  -1.659   8.825  0.5132 -0.3535  0.5793
  416MOL0     C57303   0.162  -1.795   8.793 -0.0921 -0.7449 -0.2172
  416MOL0     C57304   0.114  -1.893   8.883 -0.6040 -0.2606 -0.0728
  416MOL0     C57305   0.044  -1.858   9.000 -0.4111 -0.1557  0.7347
  416MOL0     O57306  -0.005  -1.965   9.075 -0.8674  0.0338 -0.3872
  416MOL0     C57307  -0.078  -1.936   9.193  0.0454 -0.0398  0.3769
  416MOL0     C57308  -0.073  -2.042   9.302 -0.4566 -0.1741  1.3197
  416MOL0     C57309   0.065  -2.063   9.376 -0.6685  0.6654 -0.4693
  416MOL0     C57310   0.065  -2.183   9.472 -1.0209  0.6477 -0.1989
  416MOL0     C57311   0.209  -2.214   9.537 -0.9991 -0.1921 -0.0939
  416MOL0     C57312   0.223  -2.356   9.601 -1.0715 -0.0572  0.2441
  416MOL0     C57313   0.368  -2.376   9.644  0.3854 -0.2788  0.6416
  416MOL0     C57314   0.381  -2.480   9.758 -0.0975  0.0278 -0.8242
  416MOL0    Cl57315   0.320  -2.399   9.919  0.0537  0.1054 -0.3943
  416MOL0     C57316   0.056  -1.724   9.047 -1.5132 -0.0727  0.4971
  416MOL0     C57317   0.096  -1.620   8.950  0.1487  0.3824 -0.7237
  416MOL0     O57318   0.365  -1.492   8.828  0.1146 -0.0248 -0.1776
  416MOL0     C57319   0.271  -1.467   8.487 -0.2015  0.7403 -0.4495
  416MOL0     C57320   0.315  -1.410   8.372 -1.1499 -0.3597 -0.2193
  416MOL0     N57321   0.875  -0.731   8.137  1.0949 -0.1764 -0.0287
  416MOL0     N57322   0.937  -0.664   8.049  0.0489 -0.9009 -0.8741
  416MOL0     C57323   1.818  -0.186   7.792 -0.1746 -0.9145 -0.4832
  416MOL0     C57324   1.945  -0.149   7.825  0.2379  0.3625  0.5951
  416MOL0     C57325   2.269   0.188   7.961 -0.4772 -0.3060  0.3474
  416MOL0     C57326   2.299   0.325   7.940 -0.4138 -0.9312  0.0291
  416MOL0     C57327   2.371   0.398   8.035  0.6803  0.1393 -0.3243
  416MOL0     C57328   2.426   0.328   8.142 -0.7742 -0.1578 -1.2686
  416MOL0     O57329   2.496   0.382   8.249  0.2551 -0.1153 -0.1751
  416MOL0     C57330   2.534   0.521   8.246 -0.3748 -0.1055 -0.2749
  416MOL0     C57331   2.412   0.596   8.302 -0.6609 -0.0054  0.3441
  416MOL0     C57332   2.413   0.597   8.450 -0.4047 -1.1578  0.5739
  416MOL0     C57333   2.285   0.657   8.505 -0.4483 -0.3113  0.1459
  416MOL0     C57334   2.232   0.779   8.441  0.2029  0.3230 -0.1590
  416MOL0     C57335   2.172   0.861   8.373  0.3723 -0.2050 -0.5879
  416MOL0     C57336   2.406   0.192   8.158 -0.1250  0.4349 -0.1804
  416MOL0     C57337   2.335   0.118   8.066  0.0414  0.5681  0.7688
  416MOL0     C57338   2.317  -0.031   8.095 -0.7386  0.5269  0.0430
  416MOL0     H57339   1.889   0.176   7.901  0.3672 -1.7233 -0.2513
  416MOL0     H57340   1.674   0.128   7.780 -2.0495 -1.7224 -3.6653
  416MOL0     H57341   1.508   0.029   7.654  0.0878 -1.8689 -1.9769
  416MOL0     H57342   1.452  -0.010   7.821 -1.3394 -2.9221 -0.2857
  416MOL0     H57343   1.297  -0.067   7.637  0.7838  0.6369  1.1018
  416MOL0     H57344   1.404  -0.213   7.590 -1.1858 -1.5048 -0.8000
  416MOL0     H57345   1.379  -0.249   7.844  1.3834  1.9195  1.5521
  416MOL0     H57346   1.267  -0.114   7.853  0.1226 -0.4024  0.0457
  416MOL0     H57347   1.085  -0.236   7.822 -0.6141 -3.3507  1.8277
  416MOL0     H57348   1.125  -0.252   7.660  0.0115  1.3363  0.2743
  416MOL0     H57349   1.198  -0.447   7.895 -1.1621  0.9858 -0.4236
  416MOL0     H57350   1.269  -0.459   7.731  1.2826  1.9432  0.4106
  416MOL0     H57351   0.972  -0.448   7.802 -1.0349  0.2155 -1.7655
  416MOL0     H57352   1.034  -0.462   7.647  3.9097  1.5348 -0.0939
  416MOL0     H57353   1.158  -0.670   7.680  1.8915  1.1315  0.6077
  416MOL0     H57354   0.988  -0.703   7.699  0.0279 -0.7156  1.3437
  416MOL0     H57355   1.174  -0.796   7.855 -1.2771 -0.4699 -1.3268
  416MOL0     H57356   1.153  -0.642   7.933 -0.8259 -0.1440  0.4276
  416MOL0     H57357   0.992  -0.963   7.948 -2.8347 -0.9566 -1.5988
  416MOL0     H57358   0.835  -0.968   8.305  0.0104  2.2703 -0.5212
  416MOL0     H57359   0.858  -1.074   8.165  0.3074 -0.4839  0.9823
  416MOL0     H57360   0.612  -0.898   8.205  1.0850  1.3746 -1.0513
  416MOL0     H57361   0.651  -0.984   8.060 -2.7924 -2.4226  0.6425
  416MOL0     H57362   0.632  -1.193   8.134 -0.8844  1.1511 -0.8107
  416MOL0     H57363   0.646  -1.171   8.302 -1.3008  1.7020  1.0405
  416MOL0     H57364   0.438  -1.050   8.313  1.2163 -0.4694  0.2537
  416MOL0     H57365   0.434  -1.062   8.125  2.5288  0.5930 -0.5553
  416MOL0     H57366   0.453  -1.125   8.499 -1.8674  0.9872 -1.9274
  416MOL0     H57367   0.513  -1.249   8.780  0.6887 -0.0193 -2.4987
  416MOL0     H57368   0.354  -1.245   8.836 -3.3690  0.9038 -1.6223
  416MOL0     H57369   0.398  -1.118   8.728 -0.4920  0.8773  3.1017
  416MOL0     H57370   0.197  -1.818   8.693 -1.9590  1.3838 -1.4602
  416MOL0     H57371   0.103  -1.998   8.858  1.8372 -0.5858 -0.0382
  416MOL0     H57372  -0.037  -1.847   9.241  1.7606 -1.5558  1.8977
  416MOL0     H57373  -0.184  -1.933   9.167 -0.2102 -1.5776  1.1157
  416MOL0     H57374  -0.146  -2.015   9.379  0.8555 -1.0737  2.9789
  416MOL0     H57375  -0.105  -2.142   9.269  0.3610 -0.3467  1.0218
  416MOL0     H57376   0.093  -1.970   9.424  1.1985 -0.3947  0.6079
  416MOL0     H57377   0.153  -2.083   9.315 -0.7606 -0.8155 -0.1663
  416MOL0     H57378   0.036  -2.274   9.419 -1.3942  0.9942 -0.6033
  416MOL0     H57379  -0.014  -2.174   9.547 -0.1872 -1.8033  1.0736
  416MOL0     H57380   0.279  -2.174   9.463 -2.1424  2.7115  0.2702
  416MOL0     H57381   0.217  -2.139   9.616  0.3853  0.7756 -1.0964
  416MOL0     H57382   0.203  -2.435   9.528  1.0532  0.3127 -0.8271
  416MOL0     H57383   0.162  -2.362   9.691 -2.3129  1.1765 -0.4676
  416MOL0     H57384   0.405  -2.279   9.679  0.9579 -0.3257  0.1773
  416MOL0     H57385   0.427  -2.399   9.556 -2.3265  1.8300 -1.9576
  416MOL0     H57386   0.484  -2.514   9.770 -0.5202 -1.6763 -1.7918
  416MOL0     H57387   0.323  -2.571   9.743  1.1543 -0.9665  0.0685
  416MOL0     H57388   0.028  -1.689   9.146  2.3242 -1.6902  2.3601
  416MOL0     H57389   0.081  -1.516   8.977 -0.1644  0.5239 -1.4114
  416MOL0     H57390   0.208  -1.554   8.471  2.1830 -1.0498 -0.5973
  416MOL0     H57391   0.286  -1.463   8.282 -0.6174  0.1647 -0.7078
  416MOL0     H57392   1.784  -0.288   7.773 -0.4487 -0.7819 -0.7158
  416MOL0     H57393   2.012  -0.229   7.855  4.3212  2.6151 -1.5339
  416MOL0     H57394   2.267   0.383   7.853  0.3303  0.8485  0.8925
  416MOL0     H57395   2.382   0.506   8.033 -1.1489  0.3383 -1.3807
  416MOL0     H57396   2.618   0.538   8.313 -0.9444  0.3988  0.3235
  416MOL0     H57397   2.562   0.569   8.151  0.7174  0.8945  0.5274
  416MOL0     H57398   2.319   0.555   8.260  0.7388 -1.9808 -1.0016
  416MOL0     H57399   2.422   0.698   8.262 -0.3557  0.9448  2.6806
  416MOL0     H57400   2.439   0.497   8.488  0.1680 -2.0428 -1.9626
  416MOL0     H57401   2.491   0.664   8.490  1.3513 -0.6253 -3.3192
  416MOL0     H57402   2.279   0.651   8.614 -1.0883 -1.7177  0.0460
  416MOL0     H57403   2.213   0.578   8.480  0.9936 -2.6253  2.7497
  416MOL0     H57404   2.138   0.928   8.296  1.5231 -0.5993 -1.4716
  416MOL0     H57405   2.458   0.152   8.244  1.1855  0.6822 -0.8247
  416MOL0     H57406   2.288  -0.093   8.009  0.2374 -0.5654  0.4789
  416MOL0     H57407   2.421  -0.060   8.109 -0.7400 -0.0851 -1.1243
  416MOL0     H57408   2.265  -0.063   8.185 -0.2561  0.1769  0.2007
  417MOL0     O57409  11.363   5.625   1.572 -1.0297 -0.2175  0.2320
  417MOL0     C57410  11.488   5.632   1.579  0.3731 -0.1349  0.1398
  417MOL0     O57411  11.552   5.705   1.482 -0.1648 -0.0029 -0.7346
  417MOL0     C57412  11.484   5.766   1.386  0.0421  0.4822  0.2164
  417MOL0     C57413  11.488   5.902   1.381  0.3315 -0.1142 -0.1205
  417MOL0     C57414  11.443   5.966   1.267  0.2894 -0.4903 -0.7786
  417MOL0     C57415  11.359   5.904   1.173 -0.2171 -0.0184  0.1341
  417MOL0     O57416  11.297   5.965   1.063 -0.0594  0.1925 -0.0958
  417MOL0     C57417  11.314   6.100   1.053 -0.6299 -0.6740 -0.5902
  417MOL0     C57418  11.214   6.134   0.939 -1.5908  0.4618  0.3053
  417MOL0     C57419  11.204   6.280   0.936  0.4042 -0.6707 -0.6655
  417MOL0     C57420  11.092   6.331   0.838 -0.4354 -0.4217 -0.6435
  417MOL0     C57421  11.048   6.466   0.883 -0.2067  0.3616 -0.6546
  417MOL0     C57422  11.168   6.562   0.868  0.0761 -0.6279 -0.4170
  417MOL0     C57423  11.136   6.710   0.856  0.3231 -0.0057  0.3672
  417MOL0     C57424  11.258   6.801   0.814 -0.1594  0.3444 -0.3016
  417MOL0     N57425  11.227   6.939   0.806  0.4777 -1.1297 -0.6144
  417MOL0     C57426  11.165   7.016   0.902  1.3691 -0.3552 -0.1295
  417MOL0     C57427  11.163   7.144   0.856 -0.0302 -0.5009  0.7876
  417MOL0     C57428  11.116   7.266   0.926 -0.4524  0.8240  0.1592
  417MOL0     C57429  11.008   7.330   0.852  0.1760  0.0620 -0.0277
  417MOL0     C57430  11.055   7.462   0.802 -0.6917 -0.4926  0.0067
  417MOL0     C57431  10.936   7.546   0.750  0.5477 -0.7739  0.7464
  417MOL0     O57432  10.800   7.512   0.798 -0.6259 -0.7990 -0.5795
  417MOL0     C57433  10.723   7.617   0.839  0.3431  0.4828 -0.1737
  417MOL0     C57434  10.772   7.717   0.922  0.5256 -0.5494  0.2014
  417MOL0     C57435  10.681   7.812   0.976 -0.0610  0.3126 -0.5949
  417MOL0     C57436  10.757   7.916   1.062  0.6720 -0.9297 -0.4677
  417MOL0     C57437  10.545   7.813   0.951  0.3249 -0.0415  0.1216
  417MOL0     C57438  10.446   7.905   1.013 -0.6530 -0.4154  0.5330
  417MOL0     O57439  10.328   7.910   0.958  0.4517 -0.3160  0.1121
  417MOL0     C57440  10.248   8.015   0.989  0.7452  0.1041 -0.0336
  417MOL0     C57441  10.269   8.139   0.938 -0.0901 -0.8535  0.2088
  417MOL0     C57442  10.197   8.255   0.961 -0.2875  0.0293 -0.6298
  417MOL0     C57443  10.083   8.233   1.039 -0.3684  0.0224  0.9045
  417MOL0     O57444  10.023   8.340   1.088  0.1517 -0.5146 -0.5213
  417MOL0     C57445   9.925   8.385   0.999  0.0279 -0.1820 -0.4989
  417MOL0     C57446   9.826   8.484   1.069  0.9824  0.1990  0.8343
  417MOL0     C57447   9.740   8.414   1.168  0.5538  0.4510 -0.4052
  417MOL0     C57448   9.673   8.294   1.109  0.7737 -0.6685 -0.2469
  417MOL0     C57449   9.580   8.234   1.215 -0.1320 -0.9523  0.3126
  417MOL0     C57450   9.510   8.111   1.155  0.4247 -0.7589  0.0532
  417MOL0     C57451   9.416   8.058   1.258  0.3664 -0.5050  0.0060
  417MOL0     C57452   9.360   7.921   1.207 -0.9461 -1.0032 -0.0334
  417MOL0    Cl57453   9.225   7.853   1.316  0.0529  0.8936  0.3328
  417MOL0     C57454  10.055   8.113   1.088 -0.1068  0.1074 -0.3405
  417MOL0     C57455  10.135   7.998   1.062  0.0338 -0.1057  0.0489
  417MOL0     O57456  10.482   7.972   1.111  0.0296  0.3904  0.4010
  417MOL0     C57457  10.498   7.725   0.851  0.9160 -0.3840  0.0462
  417MOL0     C57458  10.589   7.620   0.814  0.3018 -0.2761  0.5769
  417MOL0     N57459  11.251   7.146   0.745 -0.2542 -0.6681 -0.4051
  417MOL0     N57460  11.289   7.020   0.716  0.0862  0.0248  0.5852
  417MOL0     C57461  11.346   5.760   1.181  0.0682  0.4829 -0.5593
  417MOL0     C57462  11.419   5.696   1.282  0.2174 -0.5117 -0.3622
  417MOL0     C57463  11.563   5.542   1.667  0.1896 -0.4205  0.5491
  417MOL0     C57464  11.689   5.497   1.618 -0.3232  0.5320  0.1443
  417MOL0     C57465  11.768   5.402   1.691 -0.3977  0.6514  0.1533
  417MOL0     C57466  11.721   5.340   1.803 -0.2832 -0.2037 -0.7198
  417MOL0     O57467  11.811   5.262   1.877  0.9419 -0.0197  0.7197
  417MOL0     C57468  11.772   5.201   2.005 -0.6725 -0.2404 -0.0711
  417MOL0     C57469  11.813   5.301   2.118  0.1691  0.9338 -0.5690
  417MOL0     C57470  11.794   5.247   2.253  0.3370  0.5772 -0.6618
  417MOL0     C57471  11.786   5.368   2.355 -0.3596  0.4125  0.6045
  417MOL0     C57472  11.906   5.454   2.356  0.2462  0.8062 -0.6578
  417MOL0     C57473  12.015   5.507   2.372 -0.0528 -0.1911  0.2026
  417MOL0     C57474  11.589   5.376   1.840  0.2074 -0.2557 -0.0492
  417MOL0     C57475  11.507   5.477   1.782  0.3403 -0.1508 -0.7746
  417MOL0     C57476  11.372   5.529   1.845  0.1164  0.0137  0.4384
  417MOL0     H57477  11.548   5.960   1.450 -0.8077  1.9239 -0.7509
  417MOL0     H57478  11.458   6.074   1.263 -1.8383 -0.1732 -1.5842
  417MOL0     H57479  11.409   6.138   1.016 -0.9911  2.7973  1.6234
  417MOL0     H57480  11.286   6.146   1.148  1.7922 -0.4166  0.0573
  417MOL0     H57481  11.228   6.094   0.838  1.4484  1.1656  0.3466
  417MOL0     H57482  11.124   6.079   0.967  0.2085 -3.4859 -0.8825
  417MOL0     H57483  11.167   6.298   1.038  1.9500  0.3258 -0.2391
  417MOL0     H57484  11.300   6.333   0.935  0.7337 -1.1986  0.5302
  417MOL0     H57485  11.124   6.334   0.734 -3.1638  2.2503 -1.5682
  417MOL0     H57486  11.006   6.264   0.833 -3.1088  2.8314 -2.8490
  417MOL0     H57487  11.006   6.457   0.984  0.1692  0.3562 -0.4957
  417MOL0     H57488  10.974   6.517   0.821 -1.0533  1.7790  1.4153
  417MOL0     H57489  11.223   6.557   0.962  1.5666 -1.6509 -1.2978
  417MOL0     H57490  11.221   6.545   0.774 -3.1659 -2.5086 -2.0826
  417MOL0     H57491  11.079   6.750   0.940 -1.8419 -0.9812 -0.5702
  417MOL0     H57492  11.068   6.711   0.770 -2.5774  1.2099  2.5069
  417MOL0     H57493  11.336   6.796   0.891  1.7998  0.3629 -2.2030
  417MOL0     H57494  11.300   6.754   0.725 -2.2381 -1.4739 -0.4056
  417MOL0     H57495  11.107   6.978   0.985 -0.6315  5.0297  1.3324
  417MOL0     H57496  11.200   7.334   0.943  0.6574 -0.2411 -0.8391
  417MOL0     H57497  11.083   7.222   1.021 -1.9086  0.4152 -0.5168
  417MOL0     H57498  10.966   7.271   0.770 -1.7665  0.6254  0.4988
  417MOL0     H57499  10.929   7.346   0.926 -2.6748  1.4644 -3.0938
  417MOL0     H57500  11.102   7.516   0.885 -2.6782 -1.5289  1.9310
  417MOL0     H57501  11.131   7.455   0.724  0.5435 -1.5165  1.2433
  417MOL0     H57502  10.962   7.651   0.762 -0.1633 -0.7955  2.7805
  417MOL0     H57503  10.941   7.518   0.644  1.0235  1.1470  0.2212
  417MOL0     H57504  10.871   7.696   0.961  0.0476 -0.2561  1.6238
  417MOL0     H57505  10.710   8.013   1.044  0.6729 -1.0887 -1.3906
  417MOL0     H57506  10.863   7.928   1.039  0.3791  1.8647 -0.6676
  417MOL0     H57507  10.744   7.899   1.169 -0.9003 -0.8981 -0.6358
  417MOL0     H57508  10.356   8.149   0.875 -1.3190  1.8199 -1.2517
  417MOL0     H57509  10.242   8.349   0.931  0.8963  0.1366  1.3085
  417MOL0     H57510   9.972   8.426   0.910  2.8894  0.8339  1.3366
  417MOL0     H57511   9.870   8.300   0.957 -0.2420 -1.2955  1.9106
  417MOL0     H57512   9.871   8.569   1.123 -1.4817  1.0336  1.7168
  417MOL0     H57513   9.764   8.524   0.989 -1.8068 -0.6076  2.4585
  417MOL0     H57514   9.656   8.470   1.209  0.8801  0.6525 -0.0005
  417MOL0     H57515   9.793   8.387   1.260 -5.2582 -0.3367  3.2150
  417MOL0     H57516   9.737   8.211   1.080 -2.1276 -3.8753  1.7323
  417MOL0     H57517   9.606   8.324   1.028 -1.4975 -0.0402  1.7412
  417MOL0     H57518   9.639   8.201   1.301  0.0289 -2.7074 -0.4371
  417MOL0     H57519   9.512   8.317   1.238  0.9684  0.2067 -0.5095
  417MOL0     H57520   9.584   8.039   1.120  0.7033  0.4645 -1.9983
  417MOL0     H57521   9.451   8.134   1.066  2.1824 -2.4423 -1.6450
  417MOL0     H57522   9.333   8.127   1.273  2.1360  1.4663  1.0910
  417MOL0     H57523   9.467   8.034   1.351 -0.2778 -2.0092  0.0152
  417MOL0     H57524   9.448   7.857   1.216  0.2841  0.5699 -0.4865
  417MOL0     H57525   9.325   7.926   1.104 -1.0105 -0.1252  0.0224
  417MOL0     H57526   9.967   8.095   1.149 -0.8893  3.0960 -0.4382
  417MOL0     H57527  10.121   7.896   1.096  1.3862 -0.6600 -0.9690
  417MOL0     H57528  10.395   7.706   0.825  1.3922  0.6224 -2.9695
  417MOL0     H57529  10.547   7.539   0.754 -0.6596  0.1557  0.6450
  417MOL0     H57530  11.310   5.703   1.096  2.3678 -2.1954  0.1022
  417MOL0     H57531  11.415   5.588   1.277 -6.0145 -0.6022 -2.1269
  417MOL0     H57532  11.741   5.551   1.540  3.4259 -0.4895  1.7035
  417MOL0     H57533  11.873   5.391   1.667 -0.3252 -0.1524  0.8169
  417MOL0     H57534  11.664   5.191   2.001 -1.4178  5.0372 -4.4059
  417MOL0     H57535  11.818   5.101   2.003  2.6047  1.1244 -2.4286
  417MOL0     H57536  11.746   5.388   2.110 -3.4978 -1.4032  1.7230
  417MOL0     H57537  11.916   5.332   2.102 -0.5788  2.5036 -3.0242
  417MOL0     H57538  11.701   5.190   2.266  1.7495 -1.1030  4.8424
  417MOL0     H57539  11.873   5.174   2.277  1.9773  2.1810 -0.9975
  417MOL0     H57540  11.751   5.337   2.454 -1.5955 -1.0210 -0.2582
  417MOL0     H57541  11.700   5.425   2.320 -0.6062 -0.9511 -1.1501
  417MOL0     H57542  12.117   5.540   2.380  0.3246 -1.2989  0.1014
  417MOL0     H57543  11.558   5.331   1.934 -0.5335  1.0288  0.3490
  417MOL0     H57544  11.337   5.479   1.936  0.1599 -1.1426 -0.1578
  417MOL0     H57545  11.382   5.634   1.873 -2.6248  0.7308 -0.9278
  417MOL0     H57546  11.296   5.542   1.767  0.4310 -2.2210 -0.3333
  418MOL0     O57547   0.100   5.016   6.560  0.2555  0.3630 -0.0315
  418MOL0     C57548   0.155   5.125   6.555 -0.4759 -0.9039 -0.4863
  418MOL0     O57549   0.084   5.243   6.565 -0.7452  0.1501  0.4070
  418MOL0     C57550  -0.040   5.239   6.616  0.3052 -1.4676  0.1698
  418MOL0     C57551  -0.057   5.283   6.748  0.6508  0.7966 -0.4148
  418MOL0     C57552  -0.180   5.322   6.800 -0.9294  1.2680  0.2366
  418MOL0     C57553  -0.298   5.292   6.725  0.3869  0.5010 -0.2950
  418MOL0     O57554  -0.430   5.314   6.771 -0.1165 -0.4530 -0.2318
  418MOL0     C57555  -0.464   5.310   6.913 -0.4851 -0.0746  0.2327
  418MOL0     C57556  -0.593   5.368   6.956 -0.5710  1.0799 -0.1629
  418MOL0     C57557  -0.707   5.276   6.905  0.5426  0.7360  0.0738
  418MOL0     C57558  -0.842   5.298   6.971  0.6101 -0.3203 -0.5176
  418MOL0     C57559  -0.902   5.441   6.939  0.3995 -0.1065  0.0522
  418MOL0     C57560  -1.062   5.439   6.956  0.2998  1.0868  1.4974
  418MOL0     C57561  -1.112   5.531   7.065  0.2699  0.2800 -0.3702
  418MOL0     C57562  -1.128   5.680   7.025 -0.2086  1.0551 -0.1634
  418MOL0     N57563  -1.168   5.762   7.133  0.2917  0.0104  0.4170
  418MOL0     C57564  -1.255   5.731   7.239  1.2866  0.0476  0.6421
  418MOL0     C57565  -1.295   5.843   7.297 -0.8005  0.5791  0.4090
  418MOL0     C57566  -1.402   5.860   7.410 -0.9819  0.5626 -0.0297
  418MOL0     C57567  -1.452   5.720   7.472  0.6679 -0.8982 -0.2862
  418MOL0     C57568  -1.544   5.751   7.586  0.1522 -0.7973  0.3702
  418MOL0     C57569  -1.624   5.629   7.622  0.6124  0.1375  0.9388
  418MOL0     O57570  -1.549   5.524   7.680  0.6273 -0.1347  0.6589
  418MOL0     C57571  -1.613   5.409   7.707  0.3358  0.1567  0.2162
  418MOL0     C57572  -1.754   5.381   7.690  0.0641 -0.2794  0.1330
  418MOL0     C57573  -1.812   5.259   7.724 -0.1129 -0.5159 -1.0197
  418MOL0     C57574  -1.964   5.246   7.694 -0.6093  0.3915  0.3571
  418MOL0     C57575  -1.726   5.153   7.766  0.1790  0.1236  0.2744
  418MOL0     C57576  -1.762   5.008   7.775 -0.0260  0.4128 -0.8180
  418MOL0     O57577  -1.664   4.922   7.812  0.3164  0.1666 -0.1825
  418MOL0     C57578  -1.672   4.783   7.803 -0.8702 -0.8526  0.9860
  418MOL0     C57579  -1.584   4.725   7.888  0.1054 -0.4716 -0.5542
  418MOL0     C57580  -1.576   4.589   7.899 -0.1152  1.1714  0.0781
  418MOL0     C57581  -1.671   4.510   7.847 -0.6014  0.0646  0.1136
  418MOL0     O57582  -1.684   4.371   7.868  0.2586  0.9734  0.4805
  418MOL0     C57583  -1.599   4.296   7.961  0.1271  0.2502  0.4684
  418MOL0     C57584  -1.590   4.143   7.947  0.6809  0.1923 -0.4607
  418MOL0     C57585  -1.469   4.088   8.015 -0.0293  0.3288  0.1443
  418MOL0     C57586  -1.456   3.935   8.016 -1.1235 -0.0235  0.1594
  418MOL0     C57587  -1.311   3.877   8.027  0.6784 -0.1594  0.4340
  418MOL0     C57588  -1.248   3.916   8.158  0.0412 -0.5391  0.3330
  418MOL0     C57589  -1.153   3.811   8.202 -0.7155 -0.4587  0.1550
  418MOL0     C57590  -1.082   3.818   8.336  0.4542  0.0578  0.3065
  418MOL0    Cl57591  -0.993   3.978   8.358  0.1646 -0.5186 -0.7910
  418MOL0     C57592  -1.757   4.564   7.771  1.2671 -0.4172  0.2093
  418MOL0     C57593  -1.768   4.702   7.742 -0.9593 -0.2882  0.8783
  418MOL0     O57594  -1.878   4.978   7.762  0.2880  0.2257  0.1528
  418MOL0     C57595  -1.592   5.180   7.784 -0.3985  0.6945  0.0006
  418MOL0     C57596  -1.529   5.309   7.756  0.3919  0.8485 -0.0491
  418MOL0     N57597  -1.231   5.938   7.227 -0.5670 -0.1653  0.5549
  418MOL0     N57598  -1.148   5.897   7.146  0.4526  0.4614 -0.1105
  418MOL0     C57599  -0.277   5.243   6.591 -0.9531 -0.1594 -1.1067
  418MOL0     C57600  -0.150   5.216   6.541 -0.5403 -0.7812 -1.0296
  418MOL0     C57601   0.301   5.137   6.524 -0.5034  1.2734 -0.9638
  418MOL0     C57602   0.364   5.261   6.541  0.8296 -0.4198 -0.2259
  418MOL0     C57603   0.497   5.275   6.515  0.5461 -0.4751 -1.5269
  418MOL0     C57604   0.580   5.181   6.461  0.2910  0.3626 -0.6898
  418MOL0     O57605   0.721   5.200   6.444  0.3794  0.5756 -0.4968
  418MOL0     C57606   0.783   5.167   6.318  0.6935 -0.1442  0.4269
  418MOL0     C57607   0.883   5.058   6.341 -0.1441  0.6366 -0.0024
  418MOL0     C57608   0.952   5.019   6.205  0.0725  0.1325  0.3318
  418MOL0     C57609   1.030   4.886   6.200 -0.1891 -0.0271  0.2556
  418MOL0     C57610   1.107   4.882   6.075  0.1499 -0.4268  0.1263
  418MOL0     C57611   1.155   4.885   5.962  0.8394 -1.5967 -0.2028
  418MOL0     C57612   0.520   5.059   6.431 -0.4310 -0.2345  0.7365
  418MOL0     C57613   0.383   5.038   6.457 -0.5394  0.4451  0.1711
  418MOL0     C57614   0.328   4.897   6.422  0.0509  0.1326  0.7160
  418MOL0     H57615   0.026   5.316   6.810  0.8505 -1.9219  0.8921
  418MOL0     H57616  -0.182   5.365   6.900 -0.9523 -1.2832  1.4126
  418MOL0     H57617  -0.385   5.362   6.967  0.8852 -1.4522 -0.3723
  418MOL0     H57618  -0.455   5.206   6.946  1.0994 -1.7831 -4.7628
  418MOL0     H57619  -0.602   5.384   7.064  3.5548  3.5273  0.0372
  418MOL0     H57620  -0.594   5.466   6.906 -0.6389 -0.0343 -2.4522
  418MOL0     H57621  -0.722   5.303   6.800  3.0127  0.7188 -0.3320
  418MOL0     H57622  -0.689   5.169   6.922 -3.7830 -0.1901 -0.1022
  418MOL0     H57623  -0.924   5.246   6.921  0.4266 -2.4742  1.7808
  418MOL0     H57624  -0.850   5.280   7.079 -1.3537 -0.5135 -0.6636
  418MOL0     H57625  -0.887   5.464   6.833 -0.3612 -3.9066 -1.0168
  418MOL0     H57626  -0.870   5.528   6.997 -0.0466 -0.7102  1.2266
  418MOL0     H57627  -1.100   5.480   6.862  0.8413 -3.6778 -1.1429
  418MOL0     H57628  -1.106   5.341   6.976  0.0663  0.1408 -2.7314
  418MOL0     H57629  -1.050   5.529   7.155 -2.0692  0.0564  1.3230
  418MOL0     H57630  -1.212   5.496   7.093  0.7673 -1.2924 -0.4588
  418MOL0     H57631  -1.037   5.717   6.977 -0.4675 -1.0119 -2.4870
  418MOL0     H57632  -1.199   5.685   6.942  0.4832  2.0241 -0.7269
  418MOL0     H57633  -1.287   5.632   7.269 -1.0173  0.6928  0.5042
  418MOL0     H57634  -1.482   5.909   7.355 -1.8075 -1.8318 -1.0772
  418MOL0     H57635  -1.366   5.922   7.493 -0.6918  2.1417 -1.2938
  418MOL0     H57636  -1.511   5.676   7.391 -3.9900  1.2072  1.6094
  418MOL0     H57637  -1.372   5.648   7.490  1.3302 -0.2109 -0.3799
  418MOL0     H57638  -1.485   5.772   7.675  0.7270  1.6721 -0.5196
  418MOL0     H57639  -1.616   5.829   7.563  0.0290 -1.0614 -0.1597
  418MOL0     H57640  -1.712   5.662   7.679 -0.0951 -0.0235 -0.0221
  418MOL0     H57641  -1.661   5.587   7.528 -0.1836 -0.4368  1.4884
  418MOL0     H57642  -1.820   5.462   7.663 -0.1223  0.5998  2.9429
  418MOL0     H57643  -2.021   5.188   7.768 -1.0885  0.2596 -0.1048
  418MOL0     H57644  -1.980   5.195   7.599  1.1761  0.7749 -0.1788
  418MOL0     H57645  -2.018   5.340   7.676 -1.0478  0.0565 -0.1104
  418MOL0     H57646  -1.521   4.790   7.947  1.0801 -0.5959 -1.4246
  418MOL0     H57647  -1.504   4.559   7.974  0.3458 -0.5625 -0.9948
  418MOL0     H57648  -1.497   4.336   7.963  1.1622 -2.1568 -0.2125
  418MOL0     H57649  -1.653   4.320   8.053 -0.1964  0.9073  0.1132
  418MOL0     H57650  -1.682   4.090   7.975 -0.8771  2.4501 -1.0103
  418MOL0     H57651  -1.582   4.134   7.838 -1.9442 -0.5935 -0.6629
  418MOL0     H57652  -1.442   4.128   8.113 -1.1319 -0.7399  0.9116
  418MOL0     H57653  -1.388   4.115   7.946 -0.5814 -0.7741 -0.9889
  418MOL0     H57654  -1.495   3.878   7.931 -0.6687 -0.4613  0.2443
  418MOL0     H57655  -1.514   3.900   8.102  0.7763 -0.7651  1.1750
  418MOL0     H57656  -1.316   3.768   8.026 -2.1545 -0.1136 -0.3069
  418MOL0     H57657  -1.252   3.910   7.940  1.9047 -4.3687 -0.5316
  418MOL0     H57658  -1.317   3.922   8.243  0.9703  1.5066  1.0234
  418MOL0     H57659  -1.212   4.019   8.154  0.9485 -0.8047  1.2346
  418MOL0     H57660  -1.076   3.812   8.124 -2.9206 -0.4100 -2.1662
  418MOL0     H57661  -1.190   3.710   8.187  2.3351 -1.6119 -0.3161
  418MOL0     H57662  -1.013   3.736   8.353 -0.5563 -0.5344  1.7140
  418MOL0     H57663  -1.158   3.812   8.415 -1.6681  4.3710 -1.0646
  418MOL0     H57664  -1.822   4.509   7.704 -0.6869  2.7840 -0.7414
  418MOL0     H57665  -1.830   4.743   7.663  0.6534  1.3955  0.4163
  418MOL0     H57666  -1.522   5.098   7.798 -0.2366  0.4222 -2.0063
  418MOL0     H57667  -1.421   5.311   7.754  0.4234  0.9070  1.0930
  418MOL0     H57668  -0.367   5.240   6.530 -0.6567 -2.6970 -1.4967
  418MOL0     H57669  -0.146   5.187   6.436 -1.6996 -1.8072 -0.8186
  418MOL0     H57670   0.316   5.345   6.589 -0.9674 -1.7738  0.4767
  418MOL0     H57671   0.541   5.373   6.534 -0.9168  0.1840 -1.4215
  418MOL0     H57672   0.710   5.137   6.242  2.0164  0.4668 -1.1555
  418MOL0     H57673   0.822   5.265   6.288 -2.8409  0.9965 -1.0234
  418MOL0     H57674   0.833   4.972   6.387 -1.0892  1.6832  0.9732
  418MOL0     H57675   0.964   5.095   6.404  0.5958 -2.7820  1.2469
  418MOL0     H57676   0.881   5.034   6.123 -2.0931 -1.0038  1.9063
  418MOL0     H57677   1.021   5.102   6.187  2.1909 -1.7634 -0.7445
  418MOL0     H57678   0.968   4.796   6.210  1.4659 -1.3542 -0.8427
  418MOL0     H57679   1.112   4.875   6.271  1.2252 -1.6342 -1.5124
  418MOL0     H57680   1.193   4.910   5.866  2.5373 -1.2916  0.5240
  418MOL0     H57681   0.575   4.975   6.392  0.0691  0.6982 -0.6595
  418MOL0     H57682   0.256   4.899   6.339 -1.1354 -0.1245  1.7144
  418MOL0     H57683   0.405   4.823   6.397 -1.9855 -2.2751  1.0847
  418MOL0     H57684   0.271   4.860   6.508  2.1888 -0.4922  1.9524
  419MOL0     O57685   1.950  10.255   3.430  0.3239 -0.5401  0.2310
  419MOL0     C57686   1.922  10.349   3.353 -0.5679  0.1724 -0.5259
  419MOL0     O57687   1.978  10.471   3.349  0.4468 -0.3657 -0.2037
  419MOL0     C57688   2.041  10.519   3.456 -0.9278 -0.5410 -1.0155
  419MOL0     C57689   2.169  10.565   3.422  0.0364  0.3610  0.4205
  419MOL0     C57690   2.247  10.628   3.520  0.1873 -0.8845 -0.1252
  419MOL0     C57691   2.202  10.647   3.652  0.3042 -0.7081 -0.5696
  419MOL0     O57692   2.279  10.723   3.738  0.5096 -0.2808 -0.4639
  419MOL0     C57693   2.242  10.715   3.876 -0.3142  0.6731 -0.3138
  419MOL0     C57694   2.337  10.795   3.952  0.1116 -0.5910 -0.5077
  419MOL0     C57695   2.335  10.947   3.917  0.4467  0.1874  0.2886
  419MOL0     C57696   2.204  11.016   3.939  0.9320  0.2025  0.4818
  419MOL0     C57697   2.211  11.170   3.916  0.5384 -0.0135 -0.1707
  419MOL0     C57698   2.292  11.254   4.013 -0.3691 -0.1564  0.0703
  419MOL0     C57699   2.245  11.250   4.158 -1.4454  0.2334  0.2703
  419MOL0     C57700   2.313  11.363   4.233 -0.1288  0.0588  0.2231
  419MOL0     N57701   2.285  11.355   4.372 -0.4587  0.4316  0.5630
  419MOL0     C57702   2.168  11.387   4.436 -0.4502 -0.3811  0.1562
  419MOL0     C57703   2.184  11.374   4.569 -0.5185  0.5285 -0.2061
  419MOL0     C57704   2.084  11.394   4.674  0.2683 -0.3047 -0.3573
  419MOL0     C57705   1.986  11.286   4.691  0.0450  0.8780 -1.2590
  419MOL0     C57706   2.028  11.142   4.663 -0.6755  0.0750  1.1023
  419MOL0     C57707   2.143  11.107   4.768 -0.1683 -1.0450 -0.6328
  419MOL0     O57708   2.074  11.084   4.888 -0.0196  0.0112 -0.0013
  419MOL0     C57709   2.147  11.056   4.998 -0.1304 -0.2385 -0.2890
  419MOL0     C57710   2.080  11.036   5.111 -0.6967 -0.2880  0.4143
  419MOL0     C57711   2.148  10.995   5.233  0.5765  0.0060  0.8317
  419MOL0     C57712   2.068  10.950   5.346  0.4713 -0.0918  0.3258
  419MOL0     C57713   2.292  10.991   5.242  0.4328 -0.0820  0.4214
  419MOL0     C57714   2.377  10.962   5.365  0.6021 -0.4847  0.0689
  419MOL0     O57715   2.328  10.868   5.447  0.1630  0.7089 -0.2013
  419MOL0     C57716   2.397  10.833   5.556 -1.2205  0.1782 -0.1771
  419MOL0     C57717   2.529  10.785   5.539  0.7266 -0.1032 -0.2589
  419MOL0     C57718   2.599  10.759   5.659 -0.0923  0.1391  1.0472
  419MOL0     C57719   2.547  10.770   5.789 -0.5837  0.9325  1.0833
  419MOL0     O57720   2.635  10.735   5.899  0.9699 -0.9955  0.3501
  419MOL0     C57721   2.573  10.721   6.022 -0.5899  0.0763  0.5361
  419MOL0     C57722   2.693  10.693   6.113  0.0517  0.3509  0.6286
  419MOL0     C57723   2.649  10.656   6.252 -0.4467 -0.0719 -0.7910
  419MOL0     C57724   2.756  10.654   6.368 -0.1734 -0.1880  0.0410
  419MOL0     C57725   2.822  10.784   6.407  0.6241  0.0425 -0.0733
  419MOL0     C57726   2.709  10.886   6.448  0.3618 -0.2904  0.9508
  419MOL0     C57727   2.775  11.022   6.471 -0.5258  0.0070 -0.6676
  419MOL0     C57728   2.670  11.127   6.478  0.9583 -0.4495 -0.5519
  419MOL0    Cl57729   2.738  11.289   6.460  0.2046 -0.1087  0.3747
  419MOL0     C57730   2.415  10.813   5.795 -0.4504  0.1278 -1.0664
  419MOL0     C57731   2.344  10.846   5.683  0.0469 -0.0460  1.0717
  419MOL0     O57732   2.476  11.034   5.382  1.2711 -0.1076  0.0613
  419MOL0     C57733   2.350  11.020   5.121 -1.0154 -0.0269 -0.0567
  419MOL0     C57734   2.287  11.041   4.997  0.1006  0.7985 -0.3069
  419MOL0     N57735   2.317  11.335   4.584  0.6546 -0.1233 -0.0208
  419MOL0     N57736   2.373  11.330   4.471  0.3132  0.5118  0.6681
  419MOL0     C57737   2.076  10.595   3.687 -0.0006 -0.3076 -0.4387
  419MOL0     C57738   1.993  10.537   3.591  0.3266  0.4635  0.3247
  419MOL0     C57739   1.817  10.314   3.249 -0.3300 -0.6177 -0.3155
  419MOL0     C57740   1.810  10.177   3.214  0.5945  0.2703  0.7030
  419MOL0     C57741   1.722  10.142   3.111 -0.9052 -0.0533  0.3277
  419MOL0     C57742   1.642  10.230   3.042  0.8741 -0.7186 -0.2873
  419MOL0     O57743   1.561  10.201   2.938  0.3610 -0.6867 -0.2342
  419MOL0     C57744   1.648  10.176   2.827 -0.0388 -0.5241  0.0086
  419MOL0     C57745   1.571  10.088   2.729  0.4931 -0.2443 -0.2317
  419MOL0     C57746   1.543   9.950   2.779 -0.9862 -0.4075  0.0188
  419MOL0     C57747   1.442   9.894   2.696 -0.2411  0.0759  0.1917
  419MOL0     C57748   1.493   9.878   2.555  0.0600  0.9367 -0.1633
  419MOL0     C57749   1.524   9.884   2.438 -0.4871 -0.0014 -0.2987
  419MOL0     C57750   1.645  10.363   3.097  0.4003 -0.6545  0.3773
  419MOL0     C57751   1.737  10.412   3.193  0.5217  0.6242  0.8922
  419MOL0     C57752   1.715  10.552   3.240 -0.3676 -0.5534  0.0074
  419MOL0     H57753   2.193  10.535   3.320 -2.5176  0.0832 -0.1825
  419MOL0     H57754   2.338  10.673   3.483 -0.9615  0.1094 -1.9012
  419MOL0     H57755   2.247  10.610   3.907 -2.5204 -0.2873 -2.7704
  419MOL0     H57756   2.142  10.760   3.887  0.8784  3.7428 -1.1249
  419MOL0     H57757   2.299  10.796   4.054 -1.1705  0.8140 -0.9536
  419MOL0     H57758   2.439  10.756   3.948  0.2872 -0.3643  1.2007
  419MOL0     H57759   2.407  11.001   3.979 -1.4767  0.6347  2.2547
  419MOL0     H57760   2.351  10.945   3.809  1.3605 -4.4107  0.3185
  419MOL0     H57761   2.138  10.975   3.862 -0.7029  3.4429  0.0033
  419MOL0     H57762   2.177  10.991   4.042  0.9385  1.6799  0.8574
  419MOL0     H57763   2.110  11.210   3.925 -0.3491 -1.7778 -1.5029
  419MOL0     H57764   2.248  11.187   3.814 -2.5113 -0.8255 -1.5040
  419MOL0     H57765   2.397  11.226   4.008 -1.2465 -4.0926  0.5032
  419MOL0     H57766   2.278  11.357   3.981 -0.8871 -0.3931 -0.4895
  419MOL0     H57767   2.257  11.149   4.198 -2.3645  1.0511  2.7873
  419MOL0     H57768   2.137  11.271   4.156 -1.2642  1.2412 -1.5314
  419MOL0     H57769   2.421  11.354   4.221 -0.1495 -0.7115  0.5902
  419MOL0     H57770   2.272  11.456   4.192 -0.1358  0.1127  0.3543
  419MOL0     H57771   2.074  11.409   4.387 -0.6399 -2.0799 -0.3398
  419MOL0     H57772   2.024  11.481   4.646 -0.0977 -0.8985 -1.4882
  419MOL0     H57773   2.140  11.405   4.767  1.7484 -4.9204 -0.4403
  419MOL0     H57774   1.936  11.286   4.788  5.3143  0.2573  1.8253
  419MOL0     H57775   1.924  11.306   4.603  0.7581 -2.0785 -2.5959
  419MOL0     H57776   1.939  11.080   4.678 -0.5084  0.3390  3.7069
  419MOL0     H57777   2.068  11.133   4.562  1.0418 -0.2254  1.7896
  419MOL0     H57778   2.186  11.013   4.732  1.3799  0.1562 -2.0995
  419MOL0     H57779   2.217  11.185   4.786  0.7343 -2.0098 -0.0578
  419MOL0     H57780   1.973  11.054   5.100 -0.4729  0.0389 -1.5774
  419MOL0     H57781   2.103  11.026   5.415  3.9336  0.7006 -2.0491
  419MOL0     H57782   2.090  10.849   5.381 -0.5069  0.4086  2.5056
  419MOL0     H57783   1.962  10.974   5.330  0.4017  0.7111  1.7894
  419MOL0     H57784   2.570  10.766   5.441 -2.1069  0.7243 -1.7250
  419MOL0     H57785   2.701  10.724   5.661  0.4152  1.4140 -0.4725
  419MOL0     H57786   2.534  10.811   6.070  1.5463 -0.1090  2.7564
  419MOL0     H57787   2.504  10.637   6.028  1.1349 -1.5154 -0.7714
  419MOL0     H57788   2.754  10.611   6.074  1.8810  0.8138  2.3617
  419MOL0     H57789   2.754  10.783   6.121  2.2618 -0.9609 -0.4069
  419MOL0     H57790   2.621  10.551   6.254  0.8127 -0.4168  0.2602
  419MOL0     H57791   2.557  10.711   6.275 -1.9664 -2.1983 -1.4838
  419MOL0     H57792   2.841  10.587   6.353  1.7391  0.8407  4.6423
  419MOL0     H57793   2.703  10.616   6.455 -2.1771 -0.3090 -1.1530
  419MOL0     H57794   2.884  10.767   6.496 -0.5421 -0.9459  0.5912
  419MOL0     H57795   2.884  10.822   6.325  1.6939  1.0380  1.1523
  419MOL0     H57796   2.662  10.873   6.546 -1.5434 -1.1935 -0.0280
  419MOL0     H57797   2.624  10.897   6.380  1.2068 -4.1228 -1.0101
  419MOL0     H57798   2.831  11.039   6.378  0.3525 -1.1847 -0.3892
  419MOL0     H57799   2.840  11.021   6.559  0.0020  1.0179 -1.0196
  419MOL0     H57800   2.607  11.123   6.568  1.7076  0.4079  0.0364
  419MOL0     H57801   2.592  11.116   6.403  0.0014  2.8718 -0.2167
  419MOL0     H57802   2.371  10.820   5.894 -0.7023  0.3678 -1.1961
  419MOL0     H57803   2.243  10.887   5.683  0.1414  0.3845 -2.1563
  419MOL0     H57804   2.458  11.006   5.120 -0.5730  2.2216 -4.1712
  419MOL0     H57805   2.345  11.042   4.905 -1.7988  0.5353 -1.5691
  419MOL0     H57806   2.045  10.604   3.790  1.7415 -2.2312  0.3131
  419MOL0     H57807   1.890  10.509   3.610 -1.4034  3.2934 -3.4926
  419MOL0     H57808   1.880  10.106   3.257 -1.4492 -0.1157  3.7365
  419MOL0     H57809   1.723  10.039   3.076 -2.3999  0.1815 -0.4853
  419MOL0     H57810   1.668  10.277   2.788 -0.4218  1.1112  3.6406
  419MOL0     H57811   1.746  10.134   2.848  1.1233  0.6617 -2.5558
  419MOL0     H57812   1.631  10.075   2.638 -1.1810 -1.9510 -1.1539
  419MOL0     H57813   1.479  10.141   2.706  0.6915 -0.0258 -0.5296
  419MOL0     H57814   1.641   9.901   2.775 -0.7784  0.0355 -0.4606
  419MOL0     H57815   1.512   9.957   2.883  2.1009 -1.4545  1.1184
  419MOL0     H57816   1.342   9.939   2.699 -1.0313 -1.2996 -2.4247
  419MOL0     H57817   1.414   9.794   2.731  0.0478  0.1565  0.6698
  419MOL0     H57818   1.550   9.868   2.336  1.2228  1.0705 -0.0685
  419MOL0     H57819   1.570  10.431   3.057  1.5735 -0.6625 -1.9572
  419MOL0     H57820   1.680  10.559   3.343  1.7215  1.3400  0.6666
  419MOL0     H57821   1.813  10.601   3.234 -1.4514  1.6812 -0.4890
  419MOL0     H57822   1.644  10.604   3.174  0.0966 -1.6187 -1.3689
  420MOL0     O57823   1.858   6.686   4.011  0.3618 -0.7112  0.1515
  420MOL0     C57824   1.821   6.797   3.975  0.3058 -0.6432  0.1217
  420MOL0     O57825   1.869   6.864   3.868  0.1104 -0.7932 -0.5111
  420MOL0     C57826   1.993   6.836   3.830 -0.3429  0.1289 -0.3897
  420MOL0     C57827   2.095   6.784   3.905 -0.1992 -0.2425  1.0728
  420MOL0     C57828   2.222   6.771   3.842 -0.9627  0.4860 -0.0874
  420MOL0     C57829   2.249   6.823   3.713 -0.1787 -0.3583 -0.3467
  420MOL0     O57830   2.358   6.795   3.642 -1.0569  0.4990 -0.3866
  420MOL0     C57831   2.480   6.765   3.718  0.4311  0.2323  0.0317
  420MOL0     C57832   2.601   6.759   3.625 -0.3968  0.2082  0.4123
  420MOL0     C57833   2.728   6.810   3.689  0.0438 -0.8416  0.3175
  420MOL0     C57834   2.856   6.813   3.600 -0.1677 -0.5147  0.2175
  420MOL0     C57835   2.899   6.957   3.572  0.5338 -0.6207 -0.3061
  420MOL0     C57836   2.792   7.025   3.486  0.7422  0.1382 -0.1786
  420MOL0     C57837   2.811   7.179   3.485  0.5991 -0.1556 -1.1102
  420MOL0     C57838   2.952   7.232   3.475 -0.7392  0.3625  1.3049
  420MOL0     N57839   2.947   7.373   3.445  0.4538 -0.5029  0.0858
  420MOL0     C57840   2.942   7.430   3.316  0.4547  0.8002 -0.0233
  420MOL0     C57841   2.976   7.564   3.345  0.9772  0.0444 -0.5450
  420MOL0     C57842   2.986   7.670   3.236 -0.3947  0.6753  0.7987
  420MOL0     C57843   3.111   7.763   3.244  0.0443 -1.0833  0.4375
  420MOL0     C57844   3.133   7.825   3.097 -0.3212  0.0322 -0.2419
  420MOL0     C57845   3.012   7.894   3.035 -0.5016 -0.0509 -0.7945
  420MOL0     O57846   3.049   7.955   2.915 -0.5200 -0.7591 -0.1096
  420MOL0     C57847   2.945   8.006   2.840 -0.5343  0.6247 -0.9585
  420MOL0     C57848   2.804   8.013   2.868  0.0840 -0.5880  0.1710
  420MOL0     C57849   2.723   8.091   2.787 -0.1545  0.5058  1.1272
  420MOL0     C57850   2.574   8.093   2.819 -0.2561  0.0423 -0.8054
  420MOL0     C57851   2.775   8.159   2.677  0.0864  0.6695  0.8294
  420MOL0     C57852   2.699   8.277   2.618  0.1890  0.0958 -0.4589
  420MOL0     O57853   2.686   8.289   2.490  0.5068  0.0967  0.0578
  420MOL0     C57854   2.620   8.398   2.438  0.0508 -0.2781 -0.7782
  420MOL0     C57855   2.671   8.528   2.428  0.1674 -1.4306  0.9722
  420MOL0     C57856   2.589   8.639   2.377  0.3045  0.4141  0.4165
  420MOL0     C57857   2.451   8.622   2.338  0.2891  0.3789 -0.3886
  420MOL0     O57858   2.373   8.728   2.302  0.0388 -0.2649  0.1089
  420MOL0     C57859   2.284   8.701   2.188 -1.3781 -0.7559  0.5740
  420MOL0     C57860   2.363   8.753   2.063  0.0510  0.0749  0.6608
  420MOL0     C57861   2.436   8.638   1.998  0.1205  0.4286  0.7166
  420MOL0     C57862   2.463   8.677   1.849 -0.7637  0.4582  0.1297
  420MOL0     C57863   2.337   8.694   1.765  0.0543 -0.3940  0.2743
  420MOL0     C57864   2.361   8.686   1.617  0.3388  0.4983  0.8142
  420MOL0     C57865   2.454   8.800   1.570  0.0087 -0.6685 -0.4429
  420MOL0     C57866   2.472   8.809   1.418  0.4842 -0.2819 -1.0543
  420MOL0    Cl57867   2.312   8.834   1.334 -0.3121  0.1044  0.2708
  420MOL0     C57868   2.408   8.488   2.345  0.5443  0.3134 -0.0315
  420MOL0     C57869   2.484   8.386   2.398 -0.6581  0.4150  0.0364
  420MOL0     O57870   2.674   8.371   2.694 -0.2447  0.1447 -0.1986
  420MOL0     C57871   2.915   8.141   2.647 -0.3845  0.3596 -0.0431
  420MOL0     C57872   2.992   8.063   2.724 -1.4880 -0.3847  0.9135
  420MOL0     N57873   2.977   7.591   3.485  0.2500  0.7467 -0.1024
  420MOL0     N57874   2.969   7.470   3.534 -0.6740 -0.7318  0.2368
  420MOL0     C57875   2.153   6.885   3.646  0.1603  0.2531 -0.2739
  420MOL0     C57876   2.028   6.896   3.705  0.5164  0.7948  0.6840
  420MOL0     C57877   1.699   6.859   4.045  0.2212 -0.2516  0.3601
  420MOL0     C57878   1.696   7.003   4.027 -0.3489  1.0063  0.1088
  420MOL0     C57879   1.588   7.061   4.094 -0.7892 -0.4209 -0.9423
  420MOL0     C57880   1.492   6.999   4.179 -0.2328 -0.0850 -0.2011
  420MOL0     O57881   1.398   7.078   4.244 -0.2897  0.8017  0.0338
  420MOL0     C57882   1.277   7.029   4.300 -0.4739 -0.7898  0.1137
  420MOL0     C57883   1.192   7.167   4.319  0.7120 -0.1554 -0.4178
  420MOL0     C57884   1.167   7.238   4.181 -0.1099 -0.0778 -0.1061
  420MOL0     C57885   1.017   7.244   4.144 -0.5885 -0.3639 -0.9869
  420MOL0     C57886   0.968   7.102   4.145  0.1086 -0.3112  0.3043
  420MOL0     C57887   0.917   6.991   4.120  0.3038  1.1351 -0.0345
  420MOL0     C57888   1.500   6.861   4.187  0.0554 -0.2220  0.2278
  420MOL0     C57889   1.600   6.790   4.122 -0.7986  0.2181  0.4625
  420MOL0     C57890   1.599   6.640   4.137  0.0782 -1.3088  0.2847
  420MOL0     H57891   2.096   6.752   4.009 -1.5832  0.4965  1.3375
  420MOL0     H57892   2.309   6.733   3.895  1.2206  1.5824 -2.6743
  420MOL0     H57893   2.471   6.668   3.769 -0.3499  0.4011  0.2280
  420MOL0     H57894   2.501   6.843   3.791  3.3048 -1.8459  1.6362
  420MOL0     H57895   2.616   6.660   3.581 -1.6222  0.9420 -1.7782
  420MOL0     H57896   2.570   6.820   3.540 -3.1550  2.2659  2.6919
  420MOL0     H57897   2.710   6.911   3.725 -2.0748 -0.9784 -0.1738
  420MOL0     H57898   2.734   6.741   3.774 -1.9901  0.6594  1.7710
  420MOL0     H57899   2.939   6.770   3.657 -0.4223 -1.1860  0.0856
  420MOL0     H57900   2.853   6.754   3.508 -4.3803  0.3630 -0.4309
  420MOL0     H57901   2.990   6.966   3.512 -1.5633  1.5499 -3.4761
  420MOL0     H57902   2.913   7.017   3.662 -0.0018 -1.7406  0.5473
  420MOL0     H57903   2.805   6.993   3.383 -1.9934  0.3188 -0.6483
  420MOL0     H57904   2.685   7.010   3.504  0.7767  0.0727 -0.0255
  420MOL0     H57905   2.785   7.214   3.585 -0.3302 -1.4013 -0.8959
  420MOL0     H57906   2.746   7.214   3.404 -1.2840 -1.9265 -0.4324
  420MOL0     H57907   2.999   7.220   3.573 -0.1101  1.0905  1.1042
  420MOL0     H57908   3.019   7.182   3.404  1.3715  2.1943  1.8890
  420MOL0     H57909   2.944   7.391   3.215 -0.2641 -2.7384  1.1794
  420MOL0     H57910   2.904   7.740   3.253  1.5238  2.5544  3.3526
  420MOL0     H57911   2.979   7.634   3.133  0.1829  3.1069 -0.1571
  420MOL0     H57912   3.086   7.844   3.313 -2.7968  0.7196 -2.3924
  420MOL0     H57913   3.195   7.707   3.284  1.1165  1.6467  2.3089
  420MOL0     H57914   3.211   7.901   3.100  0.0196 -0.1880 -2.2630
  420MOL0     H57915   3.175   7.745   3.035 -0.1665 -1.2650  1.4438
  420MOL0     H57916   2.929   7.825   3.022 -0.1282 -0.7432  0.3974
  420MOL0     H57917   2.980   7.976   3.101 -1.3711  0.8915 -2.3320
  420MOL0     H57918   2.770   7.965   2.960 -2.1818  0.0846 -0.2555
  420MOL0     H57919   2.516   8.173   2.771  2.0628  2.2045 -0.2281
  420MOL0     H57920   2.566   8.098   2.928  3.8537  0.2860 -0.3550
  420MOL0     H57921   2.536   7.997   2.782  0.3555 -0.3892 -0.3519
  420MOL0     H57922   2.770   8.549   2.467 -1.4136  2.8787  3.4203
  420MOL0     H57923   2.632   8.737   2.359  0.1377  0.1581 -1.6068
  420MOL0     H57924   2.246   8.600   2.169  1.1831 -1.4270 -1.5053
  420MOL0     H57925   2.194   8.762   2.203 -1.4984 -1.2236  1.8715
  420MOL0     H57926   2.285   8.783   1.992 -1.3251  1.0291  2.5149
  420MOL0     H57927   2.428   8.836   2.091 -0.7251  0.9343 -0.0328
  420MOL0     H57928   2.379   8.546   2.011  0.1469 -0.1185 -2.2720
  420MOL0     H57929   2.526   8.618   2.058  0.3581  1.9974  0.9261
  420MOL0     H57930   2.539   8.620   1.795  1.5035  2.4874  0.9998
  420MOL0     H57931   2.504   8.778   1.845 -0.4009  0.3014 -0.1364
  420MOL0     H57932   2.264   8.620   1.799 -0.6283  0.7500  1.3618
  420MOL0     H57933   2.283   8.786   1.789 -0.1683 -0.7257  1.0768
  420MOL0     H57934   2.263   8.696   1.569 -0.8994  0.1475  3.1605
  420MOL0     H57935   2.421   8.599   1.589  2.5526  0.8549  3.9543
  420MOL0     H57936   2.557   8.784   1.601  1.5687  2.9605 -2.9940
  420MOL0     H57937   2.413   8.898   1.595  2.7168  0.6468 -0.8153
  420MOL0     H57938   2.512   8.720   1.369  2.3856 -0.2541  0.3404
  420MOL0     H57939   2.530   8.899   1.396 -0.2804  0.2884 -0.7915
  420MOL0     H57940   2.303   8.469   2.322  0.8738 -5.0200  1.5602
  420MOL0     H57941   2.427   8.294   2.407 -2.3496  1.1391 -2.3567
  420MOL0     H57942   2.949   8.191   2.557  3.7901  3.0791  2.6745
  420MOL0     H57943   3.092   8.027   2.702 -1.9816 -3.2081  2.7273
  420MOL0     H57944   2.179   6.919   3.546  3.0245  2.4533  1.0733
  420MOL0     H57945   1.958   6.948   3.640  2.0523  3.7323  1.2061
  420MOL0     H57946   1.767   7.064   3.973 -2.6206  2.2339 -1.6771
  420MOL0     H57947   1.587   7.167   4.117  3.2911 -0.7616  1.9435
  420MOL0     H57948   1.235   6.952   4.235 -0.2932  0.2075 -1.2333
  420MOL0     H57949   1.294   6.975   4.393 -2.2859 -1.5159  0.0614
  420MOL0     H57950   1.255   7.235   4.378  0.4085  0.7283 -1.1024
  420MOL0     H57951   1.109   7.142   4.385  0.0869 -1.6774 -1.7223
  420MOL0     H57952   1.200   7.341   4.198 -1.2216 -0.3032  4.9326
  420MOL0     H57953   1.215   7.182   4.101 -0.9386 -1.6507  0.4531
  420MOL0     H57954   0.996   7.292   4.048  1.6690  4.3806  0.5971
  420MOL0     H57955   0.972   7.307   4.221 -0.1095 -0.2477 -0.7978
  420MOL0     H57956   0.864   6.903   4.090  0.3772  1.0454  0.0968
  420MOL0     H57957   1.428   6.803   4.244  2.4173 -0.8031  2.8922
  420MOL0     H57958   1.664   6.611   4.220  0.8146 -2.3528 -0.6337
  420MOL0     H57959   1.498   6.601   4.153  0.3759 -1.9178  0.7043
  420MOL0     H57960   1.642   6.582   4.055  1.5626  1.2583 -0.8558
  421MOL0     O57961   0.435   6.813   4.597 -0.5132 -0.0509  0.7639
  421MOL0     C57962   0.416   6.890   4.686  0.3885 -0.0681  0.2077
  421MOL0     O57963   0.449   7.011   4.683 -0.4660 -0.4612  0.2673
  421MOL0     C57964   0.490   7.070   4.568  0.2986 -0.8757  0.8594
  421MOL0     C57965   0.392   7.102   4.473 -1.0888  0.5055 -0.4624
  421MOL0     C57966   0.424   7.164   4.353 -0.1162  0.5445 -0.5019
  421MOL0     C57967   0.560   7.200   4.326  0.3559 -0.2953  0.3065
  421MOL0     O57968   0.611   7.259   4.215 -0.4058  0.5738 -1.4370
  421MOL0     C57969   0.535   7.248   4.103  0.4209 -0.0534  0.1915
  421MOL0     C57970   0.623   7.312   3.992  0.7473 -0.4957  0.7165
  421MOL0     C57971   0.650   7.459   3.996  0.9371 -0.1066  0.4720
  421MOL0     C57972   0.534   7.549   3.937  0.5320  0.3545 -0.4150
  421MOL0     C57973   0.573   7.695   3.962  1.5342 -0.7116  0.0367
  421MOL0     C57974   0.480   7.794   3.894 -1.6260  0.4721  0.3860
  421MOL0     C57975   0.497   7.931   3.957 -0.0124  0.2249 -1.1460
  421MOL0     C57976   0.429   8.036   3.863  0.0336  0.7944 -0.7047
  421MOL0     N57977   0.495   8.166   3.870 -0.5651 -0.9120 -0.3067
  421MOL0     C57978   0.502   8.251   3.979  0.2632 -0.2592  0.3533
  421MOL0     C57979   0.552   8.367   3.931  0.3320  0.2745 -1.1919
  421MOL0     C57980   0.596   8.485   4.019  0.3644 -0.6225 -0.6775
  421MOL0     C57981   0.465   8.561   4.047 -0.4754 -0.8019 -0.7202
  421MOL0     C57982   0.442   8.668   3.930  0.1685  1.0510 -0.4230
  421MOL0     C57983   0.295   8.714   3.927 -0.8020 -0.7553 -1.1230
  421MOL0     O57984   0.223   8.629   3.840 -0.1105 -0.3217  0.4788
  421MOL0     C57985   0.185   8.505   3.884 -0.3416  0.4138  0.3170
  421MOL0     C57986   0.082   8.483   3.971  0.0940 -0.3529 -0.3928
  421MOL0     C57987   0.039   8.354   4.007  0.5040  0.9049  0.1008
  421MOL0     C57988  -0.083   8.352   4.098  0.0106  0.9081 -0.9202
  421MOL0     C57989   0.084   8.239   3.928  0.3096 -0.9953 -0.5120
  421MOL0     C57990   0.049   8.099   3.956  0.5491 -0.2903  0.3649
  421MOL0     O57991   0.075   8.016   3.847  0.8393 -0.4248  0.2023
  421MOL0     C57992   0.054   7.882   3.848  0.6234  0.1240 -0.5111
  421MOL0     C57993  -0.014   7.816   3.748 -0.2933  0.6050  0.3849
  421MOL0     C57994  -0.049   7.682   3.762 -0.2160  0.1683 -0.6426
  421MOL0     C57995  -0.004   7.604   3.861  0.5290 -0.2719  0.4097
  421MOL0     O57996  -0.027   7.466   3.854  0.0208  0.1510  0.6012
  421MOL0     C57997   0.074   7.382   3.902 -0.3332 -0.1195 -0.5546
  421MOL0     C57998   0.202   7.388   3.825  0.7242  0.2223 -0.8305
  421MOL0     C57999   0.183   7.324   3.683  0.0639 -0.0772  0.5071
  421MOL0     C58000   0.293   7.369   3.583 -0.4692 -0.5099 -0.5923
  421MOL0     C58001   0.415   7.278   3.581 -1.3960 -0.0851 -0.2523
  421MOL0     C58002   0.532   7.332   3.477 -0.1592  0.7227  0.3400
  421MOL0     C58003   0.492   7.304   3.330  0.2277  0.1921  0.0120
  421MOL0     C58004   0.587   7.369   3.237 -0.0937  0.7352 -0.4363
  421MOL0    Cl58005   0.557   7.536   3.250 -0.3140  0.3221  0.2498
  421MOL0     C58006   0.072   7.666   3.969  0.2482  0.4720  0.0451
  421MOL0     C58007   0.101   7.804   3.963 -0.6019  0.6936 -1.8376
  421MOL0     O58008   0.025   8.062   4.072  0.1506 -1.3892  0.1550
  421MOL0     C58009   0.168   8.264   3.823 -0.0097  0.3645 -0.1727
  421MOL0     C58010   0.227   8.388   3.806 -0.4857  0.4257 -0.4991
  421MOL0     N58011   0.575   8.358   3.791  0.5395 -0.2252 -0.2683
  421MOL0     N58012   0.541   8.242   3.765  0.4224 -0.3020  0.6183
  421MOL0     C58013   0.657   7.175   4.418  0.0975  0.2604 -0.9439
  421MOL0     C58014   0.615   7.110   4.540 -0.6568  0.0673 -1.0015
  421MOL0     C58015   0.339   6.848   4.804  0.3101  0.0605 -0.4134
  421MOL0     C58016   0.287   6.948   4.890 -0.8042 -0.2084  0.5961
  421MOL0     C58017   0.227   6.910   5.011 -0.8744 -0.0676  0.2441
  421MOL0     C58018   0.224   6.781   5.052 -0.1883  0.8446  0.9000
  421MOL0     O58019   0.172   6.748   5.178  0.3556 -1.3510  0.0821
  421MOL0     C58020   0.023   6.754   5.176 -0.6377  0.0487 -0.2967
  421MOL0     C58021  -0.047   6.639   5.241  0.0634 -0.6236 -0.8910
  421MOL0     C58022  -0.174   6.590   5.187  0.0873  0.4153  0.6607
  421MOL0     C58023  -0.199   6.448   5.247  0.1318 -0.4176  0.2699
  421MOL0     C58024  -0.322   6.398   5.193 -0.4025 -0.5318  0.2850
  421MOL0     C58025  -0.431   6.358   5.148 -0.6724 -0.3695  0.3670
  421MOL0     C58026   0.280   6.684   4.976 -0.1704 -0.1688 -0.1308
  421MOL0     C58027   0.345   6.719   4.859  0.3513  0.3350 -0.2611
  421MOL0     C58028   0.421   6.611   4.794 -0.1880  0.6513 -0.4361
  421MOL0     H58029   0.290   7.073   4.499 -0.5854 -2.4027 -1.2724
  421MOL0     H58030   0.347   7.185   4.279  0.3551 -0.0550 -1.1731
  421MOL0     H58031   0.445   7.310   4.111 -0.0956 -0.8650  0.8784
  421MOL0     H58032   0.518   7.145   4.071  0.4183  0.7664 -2.8036
  421MOL0     H58033   0.719   7.261   3.997  1.7688  0.0488 -5.4811
  421MOL0     H58034   0.569   7.299   3.897  0.9260  1.6677  0.2748
  421MOL0     H58035   0.666   7.494   4.099  1.5022  0.2804  0.2586
  421MOL0     H58036   0.749   7.475   3.951  0.0521 -1.4020 -2.1256
  421MOL0     H58037   0.505   7.529   3.833 -0.1511 -1.1532  0.0420
  421MOL0     H58038   0.441   7.533   3.992  1.3905  1.1990  1.3561
  421MOL0     H58039   0.664   7.705   3.902 -0.4507 -2.3263 -3.5619
  421MOL0     H58040   0.586   7.708   4.070  2.0518 -0.7023 -0.0237
  421MOL0     H58041   0.497   7.789   3.786 -2.5358  0.6710  0.2256
  421MOL0     H58042   0.375   7.764   3.902 -1.7686 -0.1295 -2.5754
  421MOL0     H58043   0.603   7.957   3.958  1.1187 -3.6480  1.1604
  421MOL0     H58044   0.470   7.918   4.062  3.0717 -4.9397 -0.6301
  421MOL0     H58045   0.428   7.993   3.762 -1.0798 -2.4705  0.5789
  421MOL0     H58046   0.322   8.034   3.886  0.0722 -2.0573 -0.4024
  421MOL0     H58047   0.458   8.222   4.074  0.0817 -2.9166 -0.4552
  421MOL0     H58048   0.674   8.543   3.969 -0.4559  1.8881  0.7728
  421MOL0     H58049   0.646   8.445   4.108  2.7558  0.4097 -1.4768
  421MOL0     H58050   0.382   8.491   4.058 -2.3250  1.4383  0.6153
  421MOL0     H58051   0.478   8.629   4.132 -1.6436 -0.3230 -0.8916
  421MOL0     H58052   0.514   8.749   3.945  1.5114 -0.2948  0.6636
  421MOL0     H58053   0.460   8.621   3.833  1.5146 -1.4453  0.9210
  421MOL0     H58054   0.252   8.719   4.028 -2.9189 -0.0761 -2.0079
  421MOL0     H58055   0.300   8.821   3.909  2.4228 -0.1711  2.1525
  421MOL0     H58056   0.034   8.576   4.002 -0.1315 -1.2769  2.2542
  421MOL0     H58057  -0.164   8.281   4.076  0.5570 -1.2916  3.2035
  421MOL0     H58058  -0.138   8.446   4.091 -4.9543 -1.4794  1.0859
  421MOL0     H58059  -0.063   8.349   4.205  2.0953  2.0164 -1.2414
  421MOL0     H58060  -0.038   7.863   3.653 -0.4444  0.5312  0.3860
  421MOL0     H58061  -0.079   7.635   3.669  1.5945  0.0755 -1.2320
  421MOL0     H58062   0.092   7.399   4.008 -2.4463 -3.7704  0.5794
  421MOL0     H58063   0.041   7.277   3.904  1.2226 -0.6135  0.4021
  421MOL0     H58064   0.237   7.492   3.823 -1.4256  0.9976 -1.2610
  421MOL0     H58065   0.275   7.325   3.877 -1.3513 -1.1691  0.5867
  421MOL0     H58066   0.088   7.354   3.639  1.4667  0.6342 -2.2674
  421MOL0     H58067   0.166   7.218   3.704 -1.3781 -0.7979 -3.5274
  421MOL0     H58068   0.328   7.469   3.610  3.4683 -1.6212 -1.0174
  421MOL0     H58069   0.239   7.368   3.488 -1.7212  0.6238  0.0543
  421MOL0     H58070   0.471   7.284   3.674  0.6567  3.7947 -1.4983
  421MOL0     H58071   0.391   7.176   3.548  1.5203 -1.2862  0.9866
  421MOL0     H58072   0.625   7.278   3.498 -0.9014  0.0245  2.0407
  421MOL0     H58073   0.546   7.440   3.487  4.2185  0.3760 -0.2520
  421MOL0     H58074   0.395   7.343   3.297 -1.0278 -1.7605  1.1964
  421MOL0     H58075   0.501   7.196   3.312  2.0012  0.4491 -0.7470
  421MOL0     H58076   0.566   7.336   3.135  2.7696 -0.3319 -0.7819
  421MOL0     H58077   0.686   7.331   3.264 -0.0899  1.1988  0.2429
  421MOL0     H58078   0.102   7.610   4.057  0.6156 -0.8303 -0.8711
  421MOL0     H58079   0.156   7.856   4.041 -2.3730  1.3416 -0.9642
  421MOL0     H58080   0.212   8.201   3.745  1.3509  2.2602 -1.0179
  421MOL0     H58081   0.311   8.392   3.736 -1.5744  2.1087 -1.7839
  421MOL0     H58082   0.759   7.205   4.397  0.9258  0.9758  3.1467
  421MOL0     H58083   0.685   7.098   4.622 -2.5305 -0.1340  0.6735
  421MOL0     H58084   0.302   7.053   4.867 -0.8801 -0.2115  0.5322
  421MOL0     H58085   0.195   6.986   5.082  2.5557  1.9256 -0.1238
  421MOL0     H58086  -0.006   6.843   5.232 -1.3922  0.2295 -0.9758
  421MOL0     H58087  -0.015   6.763   5.074  3.7789  4.5755 -1.9312
  421MOL0     H58088  -0.079   6.685   5.335  1.5822  1.1514 -1.1860
  421MOL0     H58089   0.027   6.560   5.261  0.1123 -0.9336 -2.2105
  421MOL0     H58090  -0.254   6.662   5.206 -1.7759 -0.9521 -1.5124
  421MOL0     H58091  -0.186   6.583   5.079 -2.5157  2.9042  0.6635
  421MOL0     H58092  -0.217   6.465   5.354 -1.6840  1.8860 -0.3258
  421MOL0     H58093  -0.117   6.385   5.213 -1.5936 -0.9003 -3.5540
  421MOL0     H58094  -0.528   6.324   5.117 -1.9155  1.1654  2.3055
  421MOL0     H58095   0.284   6.582   5.013 -0.6145 -1.7947 -3.9912
  421MOL0     H58096   0.511   6.650   4.745  0.3418 -0.1636 -0.1342
  421MOL0     H58097   0.456   6.549   4.877 -0.0432  0.3073 -0.7511
  421MOL0     H58098   0.355   6.551   4.731  2.0793 -0.9754 -1.3769
  422MOL0     O58099   7.133   6.379   5.836 -0.2067  0.4840  0.2592
  422MOL0     C58100   7.133   6.288   5.921 -1.0978 -0.3497  0.2986
  422MOL0     O58101   7.170   6.299   6.052  0.3121 -0.1903  0.3441
  422MOL0     C58102   7.209   6.420   6.099  0.2765 -0.0231  0.1393
  422MOL0     C58103   7.323   6.489   6.051  0.8512  0.4329  0.0419
  422MOL0     C58104   7.357   6.620   6.102 -0.3512 -0.3637  0.6785
  422MOL0     C58105   7.275   6.681   6.189 -0.3383 -0.0512  0.5166
  422MOL0     O58106   7.297   6.807   6.239 -0.6234 -0.5081 -0.4470
  422MOL0     C58107   7.392   6.891   6.172 -0.4082 -0.8370 -0.3025
  422MOL0     C58108   7.409   7.033   6.234  0.9667 -0.0254  0.4832
  422MOL0     C58109   7.289   7.127   6.208  0.2588  0.1959 -1.1431
  422MOL0     C58110   7.197   7.136   6.334 -0.1678 -0.9442 -0.4302
  422MOL0     C58111   7.072   7.222   6.321 -0.2111 -0.6441  0.3024
  422MOL0     C58112   6.960   7.156   6.248 -0.7989 -0.5636  0.0277
  422MOL0     C58113   6.834   7.250   6.235 -0.2603  1.4077 -0.3585
  422MOL0     C58114   6.853   7.338   6.110  0.4189 -0.5517  0.2590
  422MOL0     N58115   6.722   7.402   6.073  0.5614 -0.0339  0.4851
  422MOL0     C58116   6.704   7.540   6.056  0.1444 -0.0605 -0.1137
  422MOL0     C58117   6.573   7.554   6.012 -0.0674 -0.3475 -0.1259
  422MOL0     C58118   6.512   7.685   5.984  0.1948 -0.0516 -0.5775
  422MOL0     C58119   6.413   7.722   6.096 -0.2670 -0.4621 -0.1507
  422MOL0     C58120   6.318   7.832   6.055 -0.8234  0.1463  1.2080
  422MOL0     C58121   6.240   7.869   6.182 -1.1781 -0.4164  0.3180
  422MOL0     O58122   6.302   7.968   6.262  0.4740 -0.1606  0.6754
  422MOL0     C58123   6.332   8.095   6.220  0.5413 -0.0521  0.0958
  422MOL0     C58124   6.406   8.171   6.304 -0.9366 -0.1686 -0.6382
  422MOL0     C58125   6.420   8.310   6.284  0.1337  0.4814 -0.3499
  422MOL0     C58126   6.496   8.385   6.401  0.5226 -0.3450 -0.1816
  422MOL0     C58127   6.375   8.377   6.170 -0.1423 -0.0270  0.3972
  422MOL0     C58128   6.381   8.522   6.138 -0.2192  0.3445 -1.4894
  422MOL0     O58129   6.504   8.576   6.175 -0.4891 -0.6808 -0.0720
  422MOL0     C58130   6.547   8.702   6.142 -0.5150 -0.3981  1.8347
  422MOL0     C58131   6.554   8.747   6.012 -1.0208 -0.3181 -0.0233
  422MOL0     C58132   6.594   8.877   5.995  1.0579 -0.2240  1.0241
  422MOL0     C58133   6.643   8.965   6.094  0.5837  0.0186  0.5556
  422MOL0     O58134   6.674   9.093   6.076 -0.2672  0.0513 -0.1473
  422MOL0     C58135   6.638   9.154   5.956 -0.3658  0.8134  0.2038
  422MOL0     C58136   6.656   9.300   5.957  0.2115 -0.3837 -0.4124
  422MOL0     C58137   6.596   9.375   6.078  0.0543 -1.0002  0.0627
  422MOL0     C58138   6.608   9.532   6.063 -0.9157  0.0626 -0.9673
  422MOL0     C58139   6.485   9.588   5.993  1.8840 -0.4092  0.3232
  422MOL0     C58140   6.373   9.651   6.083 -0.2606  0.2858 -0.1334
  422MOL0     C58141   6.249   9.707   5.998  0.5502 -0.9662  0.1380
  422MOL0     C58142   6.187   9.828   6.068 -0.4121 -0.6856 -0.1494
  422MOL0    Cl58143   6.060   9.895   5.960 -0.1109  0.2847  0.5059
  422MOL0     C58144   6.653   8.910   6.227  0.0384  0.6315  0.5286
  422MOL0     C58145   6.603   8.779   6.252 -0.8911  0.1348  0.9695
  422MOL0     O58146   6.295   8.576   6.075  0.1248  0.3833 -0.1275
  422MOL0     C58147   6.300   8.290   6.079  0.3706  0.2319 -0.9503
  422MOL0     C58148   6.275   8.155   6.104  0.6289  0.7392 -0.0827
  422MOL0     N58149   6.512   7.425   6.023 -0.2205  0.3082 -0.3607
  422MOL0     N58150   6.601   7.334   6.059  0.1458  0.3634  0.5601
  422MOL0     C58151   7.161   6.601   6.233 -0.2833 -0.0979  0.7448
  422MOL0     C58152   7.139   6.470   6.204 -0.7201  0.3081 -0.0990
  422MOL0     C58153   7.115   6.145   5.871 -1.2610 -0.3812 -0.4607
  422MOL0     C58154   7.220   6.050   5.890  1.4425 -0.1556 -1.0038
  422MOL0     C58155   7.201   5.916   5.847  0.3591 -0.3459  0.1725
  422MOL0     C58156   7.084   5.870   5.791 -0.0848 -0.9983 -0.0432
  422MOL0     O58157   7.090   5.743   5.746  0.9630 -1.1374 -0.4321
  422MOL0     C58158   6.994   5.716   5.641 -0.4092  0.2488 -0.4687
  422MOL0     C58159   7.037   5.578   5.589  0.5709  0.5714 -0.3899
  422MOL0     C58160   7.165   5.583   5.505 -0.7987  0.5472  1.1809
  422MOL0     C58161   7.286   5.554   5.587  0.1929  0.2732  0.9115
  422MOL0     C58162   7.406   5.539   5.504  0.5248  0.4861 -1.3137
  422MOL0     C58163   7.510   5.522   5.445  1.2039 -1.0094  0.1598
  422MOL0     C58164   6.989   5.970   5.757  0.3741  0.2453  0.7541
  422MOL0     C58165   6.991   6.103   5.806  0.3950 -0.7413 -0.2819
  422MOL0     C58166   6.870   6.196   5.788  0.1984  1.2851 -0.1311
  422MOL0     H58167   7.370   6.438   5.967 -2.0754 -0.1727 -1.3524
  422MOL0     H58168   7.443   6.674   6.062 -1.0945  0.2010 -0.1982
  422MOL0     H58169   7.362   6.896   6.066 -1.0634  0.2152 -0.0772
  422MOL0     H58170   7.489   6.844   6.187  1.2246  3.1271  3.4875
  422MOL0     H58171   7.437   7.017   6.339 -1.8294 -0.2176  1.2850
  422MOL0     H58172   7.497   7.072   6.182  1.1324 -0.2103  0.6209
  422MOL0     H58173   7.318   7.227   6.175 -0.4837  0.7409 -0.1913
  422MOL0     H58174   7.223   7.096   6.127 -2.6998 -1.9996  1.8280
  422MOL0     H58175   7.169   7.035   6.365 -4.8777  1.0408  2.9080
  422MOL0     H58176   7.260   7.168   6.417 -1.2376 -0.4876  0.2250
  422MOL0     H58177   7.097   7.309   6.261 -3.6251  0.8028  0.7460
  422MOL0     H58178   7.036   7.254   6.419  0.9324 -0.8963  0.8267
  422MOL0     H58179   6.981   7.130   6.143 -0.8011 -0.3505 -0.0255
  422MOL0     H58180   6.955   7.061   6.301 -1.0432 -1.5249 -1.6364
  422MOL0     H58181   6.821   7.309   6.326  0.8759  1.2654 -0.0957
  422MOL0     H58182   6.747   7.183   6.229 -0.6110  1.8958 -0.8906
  422MOL0     H58183   6.931   7.412   6.130 -0.3217  0.2749  0.1796
  422MOL0     H58184   6.889   7.273   6.031 -0.4031 -2.3554  1.3095
  422MOL0     H58185   6.764   7.630   6.066 -1.7720  1.4239 -1.2336
  422MOL0     H58186   6.457   7.661   5.892  0.2137 -4.3054  0.2961
  422MOL0     H58187   6.580   7.766   5.956 -1.5010  1.0316 -1.7406
  422MOL0     H58188   6.350   7.641   6.132  1.3364 -0.1326  3.8420
  422MOL0     H58189   6.476   7.755   6.179  0.0135 -1.8933  0.2282
  422MOL0     H58190   6.381   7.913   6.018 -2.5882  0.8081 -0.5641
  422MOL0     H58191   6.254   7.803   5.971 -0.5397 -0.0001  1.0404
  422MOL0     H58192   6.141   7.905   6.150 -0.8069 -0.2439 -0.6516
  422MOL0     H58193   6.221   7.775   6.235  1.6540 -0.5348  1.2753
  422MOL0     H58194   6.452   8.121   6.388 -0.1885  0.2136 -0.8068
  422MOL0     H58195   6.477   8.493   6.405  0.1976 -0.4178  2.8035
  422MOL0     H58196   6.604   8.377   6.385  0.9509 -1.1975  2.6032
  422MOL0     H58197   6.456   8.346   6.495  0.1994 -0.2931 -0.2970
  422MOL0     H58198   6.528   8.677   5.933 -0.5684 -2.0777  1.2967
  422MOL0     H58199   6.593   8.904   5.890 -1.8841 -3.1872  0.1416
  422MOL0     H58200   6.691   9.101   5.877 -1.9619 -3.7858  1.8757
  422MOL0     H58201   6.534   9.124   5.937  0.1343 -1.6056  0.8947
  422MOL0     H58202   6.762   9.322   5.949 -0.5263  3.9112 -0.5296
  422MOL0     H58203   6.608   9.348   5.871 -3.2878 -0.2263  1.4300
  422MOL0     H58204   6.648   9.337   6.166 -0.2156  0.3558  0.8302
  422MOL0     H58205   6.488   9.362   6.090 -0.5744  3.4755  0.7415
  422MOL0     H58206   6.700   9.546   6.005 -1.9383 -0.5103 -2.8330
  422MOL0     H58207   6.628   9.566   6.165  1.2786 -1.8277 -0.6914
  422MOL0     H58208   6.521   9.669   5.929 -1.6295  0.1966 -1.0908
  422MOL0     H58209   6.453   9.508   5.925 -0.5652 -0.3871  1.3649
  422MOL0     H58210   6.429   9.732   6.131  1.2493 -0.0667 -1.2009
  422MOL0     H58211   6.342   9.573   6.153 -1.8092  1.3057  0.3708
  422MOL0     H58212   6.180   9.623   5.989  0.8354 -1.1890 -0.0017
  422MOL0     H58213   6.279   9.731   5.896 -0.5604  1.5993  0.3434
  422MOL0     H58214   6.259   9.905   6.095  2.4866 -3.5678  1.0750
  422MOL0     H58215   6.134   9.803   6.160 -1.7219 -0.7041 -0.8863
  422MOL0     H58216   6.683   8.979   6.305  0.6376  1.8025 -0.6990
  422MOL0     H58217   6.605   8.736   6.352 -0.3799 -0.4741  0.7054
  422MOL0     H58218   6.263   8.330   5.985 -1.3066  1.2887  0.1082
  422MOL0     H58219   6.209   8.107   6.033 -1.4917  2.1430  0.8587
  422MOL0     H58220   7.102   6.658   6.304  0.3709  1.3359  0.1769
  422MOL0     H58221   7.052   6.427   6.253  1.9270 -5.3610  0.3873
  422MOL0     H58222   7.312   6.065   5.947  0.6019 -3.1703  1.4400
  422MOL0     H58223   7.281   5.846   5.867 -0.0173 -0.8716 -0.1048
  422MOL0     H58224   6.887   5.711   5.665 -1.4240  2.8875 -3.5885
  422MOL0     H58225   7.003   5.778   5.551 -1.0535 -2.1658 -2.2906
  422MOL0     H58226   6.957   5.552   5.519 -0.3967 -0.5093  1.0589
  422MOL0     H58227   7.038   5.500   5.665 -2.0058 -0.7949 -1.6217
  422MOL0     H58228   7.156   5.508   5.426 -2.9350 -0.2844  2.1052
  422MOL0     H58229   7.169   5.684   5.463  0.6134  0.2096  0.4529
  422MOL0     H58230   7.279   5.448   5.613 -2.8623  0.6735  2.2332
  422MOL0     H58231   7.308   5.615   5.675  5.8363  0.3936 -0.2143
  422MOL0     H58232   7.607   5.526   5.399  1.8660 -4.8669  0.8835
  422MOL0     H58233   6.899   5.926   5.714  1.7059 -1.6753 -0.2575
  422MOL0     H58234   6.909   6.287   5.741  0.0866  1.1053 -0.5825
  422MOL0     H58235   6.785   6.161   5.729 -0.3803  0.1570  1.2963
  422MOL0     H58236   6.827   6.221   5.885 -1.7192 -2.3172  0.1250
  423MOL0     O58237   8.692   7.129   6.019  0.2143 -0.8265 -0.4755
  423MOL0     C58238   8.608   7.119   6.108  0.1993 -1.1247  0.0248
  423MOL0     O58239   8.504   7.209   6.141  0.6457 -0.7553  0.0198
  423MOL0     C58240   8.503   7.333   6.091  0.4259 -0.3257  0.3202
  423MOL0     C58241   8.625   7.409   6.075  0.3351 -0.3191 -1.5437
  423MOL0     C58242   8.621   7.547   6.050  0.1536 -0.5608 -0.1423
  423MOL0     C58243   8.495   7.610   6.041 -0.4998  0.3327  0.2786
  423MOL0     O58244   8.487   7.741   5.988  0.3827  0.6801 -0.1809
  423MOL0     C58245   8.451   7.843   6.085  0.2474  0.1346  0.2571
  423MOL0     C58246   8.473   7.978   6.014 -0.0606 -0.2583  1.2150
  423MOL0     C58247   8.480   8.099   6.104  0.1033 -0.5723 -0.0501
  423MOL0     C58248   8.469   8.234   6.037 -0.4096  0.2981 -0.2784
  423MOL0     C58249   8.533   8.332   6.139  0.4726 -0.1618  0.3425
  423MOL0     C58250   8.451   8.345   6.274 -0.1252  0.7915  0.8925
  423MOL0     C58251   8.510   8.458   6.356 -1.5098  0.3885 -1.1877
  423MOL0     C58252   8.458   8.465   6.497  0.2974  0.4190 -0.4023
  423MOL0     N58253   8.307   8.478   6.511 -0.9697  0.0044  0.4728
  423MOL0     C58254   8.245   8.596   6.479 -0.5063  0.3811 -0.0496
  423MOL0     C58255   8.117   8.563   6.469  0.0699 -0.0905  0.6591
  423MOL0     C58256   8.010   8.666   6.432 -1.3682 -0.3837 -0.2032
  423MOL0     C58257   7.979   8.675   6.283  0.1872  0.2035 -0.3385
  423MOL0     C58258   8.019   8.803   6.210  0.2940 -0.7036  0.2323
  423MOL0     C58259   7.925   8.916   6.257  0.2725  0.2867  1.1067
  423MOL0     O58260   7.929   9.017   6.160  0.0738  0.2856  0.1118
  423MOL0     C58261   7.839   9.118   6.158 -0.0938  0.3209 -0.1702
  423MOL0     C58262   7.751   9.146   6.253 -0.1168  0.3216 -0.2612
  423MOL0     C58263   7.655   9.242   6.243 -1.2099  0.6044  0.5973
  423MOL0     C58264   7.559   9.247   6.354  0.1305 -0.3547  0.9551
  423MOL0     C58265   7.658   9.335   6.134  0.2919 -0.3807 -0.8248
  423MOL0     C58266   7.556   9.444   6.121 -0.4295 -0.9996  0.3667
  423MOL0     O58267   7.487   9.490   6.229  1.2249 -0.9200  1.5110
  423MOL0     C58268   7.411   9.612   6.215 -0.4790  0.1681  0.0691
  423MOL0     C58269   7.430   9.721   6.123 -0.1304 -0.8039  0.0809
  423MOL0     C58270   7.355   9.843   6.152  0.8873 -0.3071 -0.3259
  423MOL0     C58271   7.274   9.854   6.271  0.7000  0.6735  0.9342
  423MOL0     O58272   7.177   9.957   6.283  0.2272 -0.3522  0.1289
  423MOL0     C58273   7.193  10.078   6.208  0.5113  0.1383 -1.2994
  423MOL0     C58274   7.082  10.169   6.261 -0.4513 -0.2168 -0.0547
  423MOL0     C58275   7.106  10.303   6.193  0.6472  0.0301 -0.1902
  423MOL0     C58276   6.987  10.400   6.213  0.6105 -0.2190  0.5085
  423MOL0     C58277   7.010  10.531   6.137 -0.3606  0.0747  0.8250
  423MOL0     C58278   6.891  10.625   6.114  0.1890  0.7914 -0.1460
  423MOL0     C58279   6.783  10.569   6.022  0.8779  0.9019 -0.4348
  423MOL0     C58280   6.764  10.653   5.902  0.6850  0.5538 -0.0024
  423MOL0    Cl58281   6.899  10.671   5.786  0.2508 -0.2281 -0.1080
  423MOL0     C58282   7.253   9.737   6.346 -0.1385  0.1286  0.4934
  423MOL0     C58283   7.319   9.624   6.323  1.3006 -0.0313 -0.9687
  423MOL0     O58284   7.535   9.478   6.003  0.5138 -0.0848  0.5062
  423MOL0     C58285   7.765   9.325   6.050 -0.1726  0.0130  0.2135
  423MOL0     C58286   7.847   9.214   6.057 -0.2715  0.5991  0.2774
  423MOL0     N58287   8.102   8.429   6.499  0.2011  0.6976  1.1665
  423MOL0     N58288   8.222   8.374   6.514  0.7377 -0.4785 -0.1013
  423MOL0     C58289   8.382   7.537   6.055 -0.5253  0.2052  1.0239
  423MOL0     C58290   8.382   7.396   6.087 -0.4993 -0.7024  0.5874
  423MOL0     C58291   8.631   6.986   6.192  0.4718 -0.5559 -0.2587
  423MOL0     C58292   8.593   6.990   6.325 -0.2514  0.2219 -0.7073
  423MOL0     C58293   8.596   6.870   6.405  0.8263 -0.4486 -0.2005
  423MOL0     C58294   8.656   6.761   6.361  0.2754  0.4067  0.3960
  423MOL0     O58295   8.668   6.658   6.444 -0.2821  0.4186  0.0508
  423MOL0     C58296   8.729   6.532   6.415  0.2904 -0.0759  0.3828
  423MOL0     C58297   8.835   6.511   6.524  0.0955 -0.2135  0.3408
  423MOL0     C58298   8.929   6.400   6.484  0.7080 -1.3392  0.0268
  423MOL0     C58299   8.862   6.258   6.474 -0.9285 -0.8732  0.9468
  423MOL0     C58300   8.972   6.170   6.428 -0.8177  0.3139  0.9464
  423MOL0     C58301   9.057   6.086   6.399 -0.7285 -0.1489 -0.5528
  423MOL0     C58302   8.679   6.757   6.218 -0.3453  0.3623  0.1938
  423MOL0     C58303   8.667   6.864   6.138 -0.4102 -1.1255  0.8225
  423MOL0     C58304   8.686   6.855   5.987  0.5359 -0.9798 -0.2980
  423MOL0     H58305   8.723   7.367   6.097 -0.5224 -0.5045  3.0247
  423MOL0     H58306   8.711   7.600   6.019  0.2595  1.1947  2.7389
  423MOL0     H58307   8.514   7.843   6.174  0.7989  1.2117 -0.1185
  423MOL0     H58308   8.348   7.834   6.121  1.0635 -0.9676  2.4798
  423MOL0     H58309   8.567   7.968   5.959  0.6421 -1.2249  2.5319
  423MOL0     H58310   8.392   7.987   5.941  0.9421 -1.2624 -0.0780
  423MOL0     H58311   8.401   8.098   6.180  0.8796  1.5505  0.8562
  423MOL0     H58312   8.575   8.097   6.158  0.6828  0.7553 -0.9684
  423MOL0     H58313   8.521   8.230   5.941  1.3898 -3.5537  0.6967
  423MOL0     H58314   8.363   8.262   6.032 -0.5899 -0.0356  1.3096
  423MOL0     H58315   8.539   8.432   6.095  1.1029 -0.5562 -0.5102
  423MOL0     H58316   8.637   8.301   6.148  0.3419 -2.3191 -3.3396
  423MOL0     H58317   8.347   8.377   6.260 -0.5417 -1.2703 -1.5042
  423MOL0     H58318   8.467   8.254   6.332  5.5496  0.3034 -0.8978
  423MOL0     H58319   8.495   8.558   6.315  0.6980  0.8739 -0.9367
  423MOL0     H58320   8.615   8.432   6.364 -1.6008  0.5113  1.5701
  423MOL0     H58321   8.482   8.368   6.542  1.7400 -0.6530 -3.2400
  423MOL0     H58322   8.515   8.542   6.549  0.2798  0.4960 -0.4967
  423MOL0     H58323   8.288   8.693   6.457  0.5776 -0.2318 -0.7275
  423MOL0     H58324   8.048   8.765   6.460  1.0105 -1.0021 -1.0291
  423MOL0     H58325   7.924   8.637   6.494  1.2151 -2.1731  2.8983
  423MOL0     H58326   8.039   8.597   6.236 -3.4618 -1.2826 -2.9632
  423MOL0     H58327   7.874   8.648   6.264 -0.0142  1.5842 -1.2978
  423MOL0     H58328   8.123   8.831   6.230 -0.2882  0.6932  1.4853
  423MOL0     H58329   8.010   8.788   6.102  0.7324  1.6807 -0.2003
  423MOL0     H58330   7.819   8.889   6.252 -0.6086  3.5853 -0.8819
  423MOL0     H58331   7.954   8.959   6.353  1.1661  1.7957  0.1900
  423MOL0     H58332   7.748   9.077   6.337  3.1345 -0.0551 -0.3043
  423MOL0     H58333   7.559   9.163   6.423 -0.3443  0.3220  1.7946
  423MOL0     H58334   7.462   9.242   6.304  0.2065  1.0396  0.6157
  423MOL0     H58335   7.562   9.339   6.413 -0.7690  0.6317 -0.4544
  423MOL0     H58336   7.504   9.715   6.045  0.7806  0.9463  0.7546
  423MOL0     H58337   7.356   9.928   6.085 -2.3717  1.6108  1.8253
  423MOL0     H58338   7.295  10.116   6.215  0.5232 -0.2215  1.3307
  423MOL0     H58339   7.168  10.063   6.102 -0.8005 -3.0953 -0.6699
  423MOL0     H58340   6.981  10.130   6.243 -0.5709  0.5536 -1.1627
  423MOL0     H58341   7.093  10.182   6.369  1.4211  1.5607 -0.3961
  423MOL0     H58342   7.109  10.289   6.084 -0.5818  2.1090 -0.5491
  423MOL0     H58343   7.198  10.351   6.227 -0.0536  0.3539  1.3598
  423MOL0     H58344   6.969  10.407   6.320  1.2910 -3.2172  0.9225
  423MOL0     H58345   6.894  10.358   6.173  0.1441 -1.9759  3.1594
  423MOL0     H58346   7.084  10.582   6.199  0.3889 -1.4112  1.2059
  423MOL0     H58347   7.050  10.508   6.038 -0.9604  3.4903 -0.3499
  423MOL0     H58348   6.917  10.720   6.067 -6.5924  3.5188  0.4795
  423MOL0     H58349   6.850  10.654   6.211 -2.0097 -4.0865  0.6767
  423MOL0     H58350   6.688  10.569   6.077  0.1126 -0.5106 -1.6929
  423MOL0     H58351   6.800  10.469   5.981  1.9483  0.7436  0.3456
  423MOL0     H58352   6.731  10.752   5.932 -0.2129  0.2236  0.1164
  423MOL0     H58353   6.682  10.608   5.845  1.3922 -2.7327  1.3391
  423MOL0     H58354   7.177   9.752   6.422  3.7036  1.8599  4.4429
  423MOL0     H58355   7.319   9.543   6.395  4.7176  1.6319  1.1605
  423MOL0     H58356   7.775   9.389   5.964 -3.3402  0.0783 -0.2299
  423MOL0     H58357   7.899   9.191   5.965 -2.4972 -2.4503 -0.3735
  423MOL0     H58358   8.284   7.585   6.060 -1.6180 -1.8149  0.3981
  423MOL0     H58359   8.285   7.349   6.099 -1.6641  1.3435 -0.2438
  423MOL0     H58360   8.549   7.083   6.361  1.2923  2.0273 -3.1180
  423MOL0     H58361   8.550   6.891   6.502  0.3473 -1.0994 -0.2806
  423MOL0     H58362   8.662   6.445   6.419  2.4045 -1.8933 -0.9524
  423MOL0     H58363   8.788   6.535   6.323  2.5642  4.0869  1.6913
  423MOL0     H58364   8.805   6.488   6.627  3.3473 -2.6319  0.8856
  423MOL0     H58365   8.899   6.596   6.550  0.9734 -1.1887  1.4457
  423MOL0     H58366   8.970   6.436   6.389 -0.5064 -0.9646 -0.3712
  423MOL0     H58367   9.010   6.393   6.557  1.1949  6.2720  0.9874
  423MOL0     H58368   8.786   6.251   6.396 -0.1153 -4.6651  0.2920
  423MOL0     H58369   8.828   6.236   6.576  0.6661 -0.5917  1.5762
  423MOL0     H58370   9.133   6.013   6.379  2.1556  2.0325  1.6828
  423MOL0     H58371   8.706   6.663   6.173 -0.7455 -1.5251  3.5426
  423MOL0     H58372   8.686   6.749   5.957  3.2057 -0.3805 -2.9041
  423MOL0     H58373   8.606   6.903   5.931  1.3583  0.4152 -0.3115
  423MOL0     H58374   8.780   6.895   5.949 -0.6855 -0.2287 -2.7552
  424MOL0     O58375   4.796   1.977   3.941  0.6769  0.0905 -0.8363
  424MOL0     C58376   4.750   1.932   3.836 -0.7836 -0.5183 -0.5174
  424MOL0     O58377   4.688   1.811   3.818 -0.6730 -0.9112  0.1713
  424MOL0     C58378   4.632   1.748   3.930  0.1170  0.1774 -0.3326
  424MOL0     C58379   4.651   1.610   3.941 -0.2828  0.2877 -0.3748
  424MOL0     C58380   4.578   1.534   4.044 -0.5795  0.6072  0.9934
  424MOL0     C58381   4.513   1.605   4.140  0.2681  0.4145 -0.4082
  424MOL0     O58382   4.455   1.556   4.250  0.1951  0.3031  0.0301
  424MOL0     C58383   4.514   1.433   4.300 -0.3083 -0.8982  0.9311
  424MOL0     C58384   4.466   1.397   4.442 -0.3256  0.5446 -0.1421
  424MOL0     C58385   4.543   1.282   4.502  0.3336 -0.6337 -0.1854
  424MOL0     C58386   4.656   1.329   4.585  0.0294  0.1315  0.4719
  424MOL0     C58387   4.615   1.363   4.724  0.3674  0.5297  0.2187
  424MOL0     C58388   4.740   1.380   4.814  0.1565  0.1705 -0.0861
  424MOL0     C58389   4.798   1.258   4.874 -0.7518 -0.0154  0.2053
  424MOL0     C58390   4.931   1.277   4.942  0.6618  0.8479  0.0320
  424MOL0     N58391   5.047   1.270   4.862  0.4631  0.0577  0.0552
  424MOL0     C58392   5.070   1.203   4.738  0.2959 -0.0269 -0.1916
  424MOL0     C58393   5.176   1.262   4.685 -0.6838  0.2049 -0.5178
  424MOL0     C58394   5.235   1.204   4.566 -0.4821  0.2572  0.1469
  424MOL0     C58395   5.155   1.256   4.441 -0.4296 -0.1591  0.6244
  424MOL0     C58396   5.127   1.412   4.444 -0.4789 -0.2430 -0.0452
  424MOL0     C58397   5.053   1.459   4.309 -0.4910 -0.2847  0.1496
  424MOL0     O58398   4.929   1.392   4.276  0.3331 -0.7976  0.3179
  424MOL0     C58399   4.907   1.353   4.148 -0.0382  1.1933 -0.6613
  424MOL0     C58400   4.791   1.281   4.125 -0.0829  0.4271  0.3146
  424MOL0     C58401   4.740   1.241   3.997 -0.0764  0.2640 -0.6255
  424MOL0     C58402   4.617   1.148   4.017  0.6094  0.4536  0.3017
  424MOL0     C58403   4.809   1.282   3.882  0.1393 -0.0668 -0.2056
  424MOL0     C58404   4.770   1.256   3.745 -0.3791 -0.2910  0.1164
  424MOL0     O58405   4.846   1.313   3.650  0.9900 -0.1945 -0.1126
  424MOL0     C58406   4.796   1.322   3.524  0.3209 -0.2241 -0.1367
  424MOL0     C58407   4.795   1.218   3.432 -0.2821 -0.7572 -0.1910
  424MOL0     C58408   4.735   1.236   3.307  0.5280 -0.3266  0.9758
  424MOL0     C58409   4.667   1.358   3.271 -0.2146  0.4654 -0.3109
  424MOL0     O58410   4.633   1.365   3.140 -0.4929 -0.3165  0.1203
  424MOL0     C58411   4.570   1.482   3.095  0.2165  1.3474 -0.1053
  424MOL0     C58412   4.532   1.476   2.938  0.2092  0.0960 -0.3833
  424MOL0     C58413   4.485   1.616   2.887  0.0123  0.4296  0.1756
  424MOL0     C58414   4.501   1.614   2.730  0.4197 -0.0105 -0.8135
  424MOL0     C58415   4.404   1.543   2.645  0.4902  0.4928 -0.5094
  424MOL0     C58416   4.438   1.569   2.491 -0.2040  0.2213 -1.5475
  424MOL0     C58417   4.334   1.510   2.400 -0.0923 -0.0638 -0.5601
  424MOL0     C58418   4.357   1.539   2.249 -0.4880 -0.0718 -0.0423
  424MOL0    Cl58419   4.520   1.483   2.194 -0.1003 -0.6889 -0.2820
  424MOL0     C58420   4.663   1.464   3.360 -0.5201  0.0574 -0.4503
  424MOL0     C58421   4.720   1.438   3.487 -0.4244  0.4649 -1.0479
  424MOL0     O58422   4.663   1.195   3.733 -0.2146 -0.3762 -0.9787
  424MOL0     C58423   4.926   1.361   3.906 -0.1745 -1.0008  0.5199
  424MOL0     C58424   4.969   1.398   4.031  0.6144 -0.6126 -0.5651
  424MOL0     N58425   5.226   1.362   4.774  1.2063 -0.2274  0.0369
  424MOL0     N58426   5.141   1.367   4.875 -0.4173 -0.1576 -0.2325
  424MOL0     C58427   4.497   1.745   4.130  0.5356  1.0751  0.2789
  424MOL0     C58428   4.555   1.816   4.027  0.1102  0.5626 -0.8010
  424MOL0     C58429   4.751   2.021   3.712  0.6525  0.0779  0.5903
  424MOL0     C58430   4.653   2.001   3.606  0.4591 -0.9652 -0.0408
  424MOL0     C58431   4.666   2.071   3.491  0.5721  0.0180  0.5344
  424MOL0     C58432   4.753   2.178   3.473  0.6118 -0.9585 -0.8582
  424MOL0     O58433   4.756   2.262   3.362 -0.4724 -0.1349 -0.6000
  424MOL0     C58434   4.855   2.372   3.354 -0.0049 -0.5641  1.0013
  424MOL0     C58435   4.817   2.454   3.231  0.1170  0.6397 -0.7914
  424MOL0     C58436   4.920   2.549   3.175  0.8209 -0.6787  1.9608
  424MOL0     C58437   4.924   2.689   3.221  0.7316 -0.4977  0.8533
  424MOL0     C58438   5.038   2.757   3.153  0.1407  0.7603 -0.8941
  424MOL0     C58439   5.142   2.803   3.113 -0.2390 -0.2382 -0.2200
  424MOL0     C58440   4.839   2.214   3.582  0.8551 -0.9416  0.8146
  424MOL0     C58441   4.843   2.130   3.699 -0.3338 -0.8842 -0.3346
  424MOL0     C58442   4.965   2.150   3.790  0.9109  0.2028 -0.1953
  424MOL0     H58443   4.722   1.566   3.872  0.6804 -1.8392  1.8547
  424MOL0     H58444   4.579   1.426   4.034 -2.1754  0.6793 -0.4194
  424MOL0     H58445   4.623   1.447   4.296 -0.5805  1.2159 -0.3948
  424MOL0     H58446   4.494   1.355   4.227 -0.7773 -0.2877  0.3924
  424MOL0     H58447   4.457   1.483   4.509  1.0290  0.0433  0.7099
  424MOL0     H58448   4.364   1.361   4.427 -0.2694  0.3355 -0.0251
  424MOL0     H58449   4.479   1.216   4.561 -1.2297 -1.6232 -2.7758
  424MOL0     H58450   4.594   1.226   4.423 -0.2487  2.3218 -2.8766
  424MOL0     H58451   4.728   1.247   4.589  0.4584  0.5466  1.5193
  424MOL0     H58452   4.705   1.411   4.533 -3.1202  1.1103 -1.2304
  424MOL0     H58453   4.549   1.289   4.771 -0.6614  1.7206  0.7072
  424MOL0     H58454   4.562   1.458   4.722  0.3057  0.4828 -1.9677
  424MOL0     H58455   4.810   1.441   4.756  0.0740 -1.3562 -1.8687
  424MOL0     H58456   4.712   1.439   4.902  1.1647  1.8290 -0.8242
  424MOL0     H58457   4.806   1.197   4.783 -0.1920  0.6538 -0.2110
  424MOL0     H58458   4.721   1.199   4.925 -0.1701 -1.9233 -1.0296
  424MOL0     H58459   4.923   1.367   5.003  3.0599  0.0698  1.6188
  424MOL0     H58460   4.956   1.198   5.014 -0.6351  1.4342  1.1622
  424MOL0     H58461   5.010   1.127   4.689 -0.7746  0.3651  0.4693
  424MOL0     H58462   5.216   1.097   4.575  0.4935  0.0703  0.1354
  424MOL0     H58463   5.344   1.217   4.568 -0.4519  0.5515 -1.6168
  424MOL0     H58464   5.192   1.223   4.344 -2.3099 -0.0258 -0.1883
  424MOL0     H58465   5.053   1.217   4.446 -1.1822  1.4767 -0.8400
  424MOL0     H58466   5.057   1.438   4.524 -2.0709  0.2473 -1.5356
  424MOL0     H58467   5.219   1.467   4.464  0.7967 -2.6725  1.1927
  424MOL0     H58468   5.038   1.563   4.339  1.4168  0.6048 -1.6612
  424MOL0     H58469   5.132   1.466   4.234 -0.4256  0.0922  0.2491
  424MOL0     H58470   4.730   1.252   4.210  0.9664 -0.1164  0.9003
  424MOL0     H58471   4.628   1.060   3.953  0.3007  0.5554  0.1052
  424MOL0     H58472   4.537   1.213   3.981  0.7755  2.8420  3.7468
  424MOL0     H58473   4.601   1.120   4.122  1.4928 -1.2364  0.0209
  424MOL0     H58474   4.846   1.123   3.439  3.7716  0.9236 -3.1661
  424MOL0     H58475   4.758   1.161   3.231 -2.6219 -2.4544  1.9298
  424MOL0     H58476   4.477   1.497   3.151  0.4892  0.7956  0.5223
  424MOL0     H58477   4.624   1.573   3.122  0.2741  1.0477  0.8445
  424MOL0     H58478   4.617   1.442   2.878  2.7314  2.7583  1.3902
  424MOL0     H58479   4.454   1.400   2.937 -1.7997  2.0046  1.3251
  424MOL0     H58480   4.553   1.697   2.911 -1.6606  2.0966 -0.4498
  424MOL0     H58481   4.389   1.638   2.936  1.9455 -0.4650  4.9482
  424MOL0     H58482   4.602   1.582   2.704  2.1106  2.8016  1.5497
  424MOL0     H58483   4.493   1.716   2.690 -2.2493 -0.0010 -0.4127
  424MOL0     H58484   4.395   1.437   2.670 -0.4521  0.2632 -1.6969
  424MOL0     H58485   4.304   1.580   2.669 -0.3586 -1.3019 -1.0974
  424MOL0     H58486   4.534   1.518   2.481 -0.2873 -1.1597  2.5510
  424MOL0     H58487   4.433   1.676   2.469  1.4711  0.7872  0.4484
  424MOL0     H58488   4.243   1.555   2.440 -0.2799 -1.9609  1.3169
  424MOL0     H58489   4.320   1.402   2.411  3.2228 -0.6929 -1.3842
  424MOL0     H58490   4.359   1.646   2.223  4.0389 -0.3271 -1.5043
  424MOL0     H58491   4.280   1.495   2.185 -1.2148  4.2369 -2.5390
  424MOL0     H58492   4.594   1.545   3.340  0.0014  1.5025  2.8510
  424MOL0     H58493   4.715   1.504   3.573  3.5886 -1.3346  0.8379
  424MOL0     H58494   4.980   1.386   3.815 -3.0621  0.3448 -0.9636
  424MOL0     H58495   5.052   1.467   4.037  0.3976 -0.4373  0.6635
  424MOL0     H58496   4.444   1.800   4.208  2.7278  3.7126  0.0711
  424MOL0     H58497   4.533   1.923   4.024  1.0980  0.7666 -1.3561
  424MOL0     H58498   4.576   1.924   3.613  1.6820 -2.1709  0.7100
  424MOL0     H58499   4.594   2.058   3.410  0.9934 -1.0151  0.3197
  424MOL0     H58500   4.856   2.445   3.436 -0.4413  2.6492 -1.5994
  424MOL0     H58501   4.951   2.328   3.325 -1.0518 -2.0455 -0.3523
  424MOL0     H58502   4.716   2.493   3.243 -0.1193  1.0692 -3.5808
  424MOL0     H58503   4.812   2.377   3.154  3.2166  0.1850 -0.6803
  424MOL0     H58504   5.024   2.515   3.183  1.6987  1.3754  0.2875
  424MOL0     H58505   4.911   2.569   3.068  1.6760  0.2115  2.0345
  424MOL0     H58506   4.933   2.686   3.330  1.5131  0.8114  0.8396
  424MOL0     H58507   4.828   2.735   3.198  1.8730  1.3322 -0.5278
  424MOL0     H58508   5.242   2.825   3.081 -0.4556  0.7131 -0.2748
  424MOL0     H58509   4.917   2.289   3.575 -1.9581  2.0880 -0.6082
  424MOL0     H58510   5.031   2.063   3.784  0.6865  0.0511 -0.5356
  424MOL0     H58511   5.006   2.248   3.763  2.3098 -1.0955 -3.3289
  424MOL0     H58512   4.929   2.156   3.893 -2.2600  0.2108 -1.2091
  425MOL0     O58513   2.983   0.665   6.408 -1.0696 -0.0174 -0.2383
  425MOL0     C58514   2.979   0.749   6.496 -0.7778 -0.1906  0.4816
  425MOL0     O58515   3.059   0.864   6.492  0.3415 -0.2924 -0.5136
  425MOL0     C58516   3.165   0.861   6.406 -0.2138  0.2397  0.7137
  425MOL0     C58517   3.146   0.889   6.267 -0.0509  0.3443 -0.4590
  425MOL0     C58518   3.250   0.904   6.177  0.5917  0.0710  0.5424
  425MOL0     C58519   3.383   0.912   6.216  0.6500  0.3202 -0.1537
  425MOL0     O58520   3.489   0.952   6.136 -0.0090  1.0966  0.0183
  425MOL0     C58521   3.451   0.958   5.999 -0.8427 -0.9852 -0.0343
  425MOL0     C58522   3.577   0.968   5.914 -0.1299 -0.2906  0.0357
  425MOL0     C58523   3.537   0.991   5.768 -0.6652 -0.2008  0.1108
  425MOL0     C58524   3.667   0.990   5.687 -0.3674  0.1653 -0.3645
  425MOL0     C58525   3.634   0.990   5.537  0.3327 -0.0897 -1.5824
  425MOL0     C58526   3.600   1.117   5.457 -0.3865  0.3956  0.4778
  425MOL0     C58527   3.617   1.091   5.301  0.1375  0.8692 -0.6059
  425MOL0     C58528   3.594   1.216   5.223  0.8167  0.4593 -0.4041
  425MOL0     N58529   3.642   1.207   5.082  0.0655  0.2607  0.6595
  425MOL0     C58530   3.565   1.154   4.981 -1.0426 -0.0031 -0.7518
  425MOL0     C58531   3.648   1.163   4.878  0.1012 -0.6202 -0.0574
  425MOL0     C58532   3.617   1.126   4.728  0.9667  0.5077  0.0296
  425MOL0     C58533   3.583   1.270   4.660  0.8778 -0.2866  0.2775
  425MOL0     C58534   3.518   1.260   4.525 -0.0506 -0.2206  0.7196
  425MOL0     C58535   3.562   1.136   4.453 -0.3082  0.2880  0.1045
  425MOL0     O58536   3.527   1.138   4.311 -0.1305  0.5755 -0.6696
  425MOL0     C58537   3.407   1.133   4.264  0.4865 -0.4964  0.8856
  425MOL0     C58538   3.386   1.152   4.128  0.1953 -0.9471  0.5653
  425MOL0     C58539   3.258   1.160   4.077 -0.7839 -1.3314  0.0399
  425MOL0     C58540   3.249   1.196   3.924  0.3534  0.1275  0.1323
  425MOL0     C58541   3.150   1.142   4.162  0.1685 -0.0230 -0.5497
  425MOL0     C58542   3.013   1.145   4.113 -0.1545 -1.2978  0.5704
  425MOL0     O58543   2.948   1.263   4.060 -0.8259  0.4883  1.1328
  425MOL0     C58544   2.819   1.252   4.015 -0.0524  0.5505  0.9968
  425MOL0     C58545   2.797   1.210   3.876  0.2653 -0.7629 -0.1046
  425MOL0     C58546   2.664   1.209   3.826  0.7915 -0.5266 -0.4635
  425MOL0     C58547   2.548   1.228   3.908 -0.1247  0.1546 -0.1639
  425MOL0     O58548   2.417   1.217   3.856  0.3305  0.6490 -0.5698
  425MOL0     C58549   2.327   1.153   3.950 -1.2506  0.9231  0.9715
  425MOL0     C58550   2.226   1.084   3.859  0.1357  0.2005 -0.7624
  425MOL0     C58551   2.157   1.183   3.760 -0.7969 -0.2730 -0.0486
  425MOL0     C58552   2.007   1.154   3.717 -0.3228 -0.6810  0.2112
  425MOL0     C58553   1.995   1.017   3.638 -0.0031  0.0925 -0.8986
  425MOL0     C58554   2.075   1.019   3.509 -0.5208  0.0171  0.5056
  425MOL0     C58555   2.026   0.904   3.411  0.3520 -0.5240  1.2452
  425MOL0     C58556   2.006   0.774   3.477 -0.1014 -0.1621  0.0342
  425MOL0    Cl58557   2.167   0.682   3.514  0.4687  0.0188 -0.4878
  425MOL0     C58558   2.575   1.265   4.040  0.0217  0.7435  1.5999
  425MOL0     C58559   2.707   1.281   4.084  0.0277 -0.2692 -0.0705
  425MOL0     O58560   2.970   1.034   4.107  0.2615 -0.5313  0.1095
  425MOL0     C58561   3.167   1.125   4.301 -0.1564  0.1558 -0.4040
  425MOL0     C58562   3.299   1.114   4.348 -0.2487 -0.3744 -0.0312
  425MOL0     N58563   3.770   1.215   4.923 -0.1358 -0.0857 -0.1286
  425MOL0     N58564   3.771   1.253   5.042  0.6624 -0.0624 -0.2754
  425MOL0     C58565   3.407   0.891   6.358 -0.3345  0.8275  0.7265
  425MOL0     C58566   3.303   0.856   6.448 -0.4845  0.2614 -0.1539
  425MOL0     C58567   2.899   0.725   6.619 -0.4757 -1.4442 -0.5354
  425MOL0     C58568   2.874   0.840   6.701 -0.9243 -0.0537  0.1487
  425MOL0     C58569   2.824   0.838   6.829 -0.5359  0.5268  0.1066
  425MOL0     C58570   2.796   0.718   6.884  0.0639  0.6398 -0.3109
  425MOL0     O58571   2.748   0.709   7.010  0.6137  0.9499 -0.4619
  425MOL0     C58572   2.793   0.600   7.088 -0.6966 -0.5326 -0.5302
  425MOL0     C58573   2.948   0.609   7.098 -0.5677  1.0297 -0.3653
  425MOL0     C58574   3.011   0.507   7.196  1.8640  0.0130 -0.0797
  425MOL0     C58575   2.993   0.361   7.164 -1.0832 -0.1034  0.2258
  425MOL0     C58576   3.042   0.338   7.017 -0.1031  0.5384  0.2486
  425MOL0     C58577   3.089   0.309   6.907  0.5420  0.5665  0.3920
  425MOL0     C58578   2.813   0.606   6.808 -0.4382 -0.3396 -0.2842
  425MOL0     C58579   2.865   0.605   6.675 -0.0826  0.5246 -0.1451
  425MOL0     C58580   2.883   0.470   6.607 -0.3086  0.0438  0.2701
  425MOL0     H58581   3.041   0.900   6.244 -0.3781 -0.8132  0.4014
  425MOL0     H58582   3.217   0.918   6.074  5.3675 -0.5488 -1.3453
  425MOL0     H58583   3.390   1.048   5.991 -0.1851 -0.5058  0.2271
  425MOL0     H58584   3.395   0.872   5.961  0.4925 -0.5435 -3.3428
  425MOL0     H58585   3.639   1.053   5.944  0.2653 -0.4402 -0.3519
  425MOL0     H58586   3.634   0.874   5.916 -4.3260 -3.1429  2.6200
  425MOL0     H58587   3.480   0.905   5.731 -1.3902  0.1598  0.3761
  425MOL0     H58588   3.496   1.092   5.758  1.4988  0.6373 -0.9765
  425MOL0     H58589   3.736   1.072   5.710  1.6266 -1.4225 -0.4867
  425MOL0     H58590   3.725   0.900   5.705 -1.5393 -0.3889  0.7792
  425MOL0     H58591   3.557   0.915   5.517  0.7112 -1.0283  0.2501
  425MOL0     H58592   3.727   0.952   5.493  1.9185  0.8721  0.7324
  425MOL0     H58593   3.500   1.159   5.468 -2.3829 -2.5929 -3.4253
  425MOL0     H58594   3.661   1.204   5.484  0.9002  0.3196 -1.8455
  425MOL0     H58595   3.549   1.012   5.268  1.1882 -1.2734  1.9693
  425MOL0     H58596   3.711   1.037   5.291 -1.6107 -2.7237  0.6617
  425MOL0     H58597   3.486   1.234   5.224  0.4544 -1.1881 -2.3822
  425MOL0     H58598   3.647   1.291   5.282  1.3942 -0.6246  0.5028
  425MOL0     H58599   3.458   1.135   4.989 -1.0698  0.8276  3.8411
  425MOL0     H58600   3.530   1.061   4.714  0.7554  0.4222  1.5623
  425MOL0     H58601   3.705   1.079   4.683 -0.2709  0.0041 -1.9797
  425MOL0     H58602   3.507   1.313   4.726 -3.1416 -0.4364 -3.7725
  425MOL0     H58603   3.663   1.344   4.651 -2.0192  3.0511  0.2082
  425MOL0     H58604   3.411   1.277   4.532 -0.2972 -0.8788 -1.0178
  425MOL0     H58605   3.557   1.339   4.460  2.6444 -2.9089 -1.2495
  425MOL0     H58606   3.672   1.138   4.454 -0.2487  0.5386  3.5111
  425MOL0     H58607   3.525   1.037   4.480  0.2237 -0.7117 -2.5038
  425MOL0     H58608   3.470   1.162   4.060 -2.2271 -0.4133 -2.6133
  425MOL0     H58609   3.227   1.105   3.867  1.4994 -1.0850  1.5206
  425MOL0     H58610   3.344   1.233   3.886 -0.2882  1.6656 -0.0551
  425MOL0     H58611   3.164   1.262   3.904 -0.2829 -0.2831  1.3146
  425MOL0     H58612   2.877   1.189   3.806 -0.9780 -2.8776 -0.9841
  425MOL0     H58613   2.644   1.204   3.720 -1.6549 -1.9353 -0.0068
  425MOL0     H58614   2.377   1.087   4.022 -1.9909  1.8577  2.3932
  425MOL0     H58615   2.294   1.238   4.011  1.5535  0.8037  2.8892
  425MOL0     H58616   2.259   1.000   3.798 -0.7350  0.5120 -1.7023
  425MOL0     H58617   2.143   1.051   3.922  1.0547  3.7150  2.6905
  425MOL0     H58618   2.228   1.207   3.680  0.3370 -1.7802  0.4556
  425MOL0     H58619   2.158   1.274   3.821  2.0525 -2.0557  2.8773
  425MOL0     H58620   1.968   1.233   3.652 -3.8462 -0.5560  2.2269
  425MOL0     H58621   1.952   1.146   3.811  1.2598  2.2010  1.5059
  425MOL0     H58622   2.046   0.937   3.692  2.4256  2.1586  0.1149
  425MOL0     H58623   1.891   0.994   3.617  0.5474 -2.9468 -0.7020
  425MOL0     H58624   2.179   0.996   3.534 -0.2774 -2.5427 -2.3762
  425MOL0     H58625   2.063   1.117   3.461  0.4645  0.8410  1.8620
  425MOL0     H58626   2.088   0.892   3.322  1.4259  0.8677  1.7605
  425MOL0     H58627   1.926   0.922   3.371  0.4662 -1.8455  0.3014
  425MOL0     H58628   1.942   0.711   3.414  1.2299 -1.0397 -0.4832
  425MOL0     H58629   1.953   0.767   3.573  0.2193 -1.8206  0.1156
  425MOL0     H58630   2.491   1.283   4.107  1.5508 -0.2627  3.8927
  425MOL0     H58631   2.711   1.316   4.186  1.7146 -0.3961 -0.0705
  425MOL0     H58632   3.084   1.105   4.367  0.4147  0.1701  0.3280
  425MOL0     H58633   3.306   1.081   4.452  0.0851 -0.9206 -0.2219
  425MOL0     H58634   3.507   0.890   6.399 -0.3102 -3.0415  0.9231
  425MOL0     H58635   3.325   0.854   6.554 -1.4441  0.4103  0.0530
  425MOL0     H58636   2.892   0.936   6.653 -0.2681 -0.0267  0.4433
  425MOL0     H58637   2.801   0.930   6.882  0.8491  0.7959  0.2782
  425MOL0     H58638   2.740   0.618   7.183  0.3170 -0.0759 -0.0434
  425MOL0     H58639   2.766   0.499   7.057 -4.1857  1.5335 -5.5078
  425MOL0     H58640   2.967   0.704   7.148  0.7710 -0.1252  1.4355
  425MOL0     H58641   2.997   0.601   7.001 -0.3119 -0.3772 -0.1407
  425MOL0     H58642   3.118   0.532   7.192  1.7299  0.8916  1.1862
  425MOL0     H58643   2.973   0.522   7.298 -1.6058 -4.8917 -0.3258
  425MOL0     H58644   2.889   0.328   7.177 -0.4523 -2.1140  0.4453
  425MOL0     H58645   3.061   0.305   7.228 -0.2266  1.7914  1.0627
  425MOL0     H58646   3.108   0.288   6.803  0.9449  4.1804 -0.3871
  425MOL0     H58647   2.794   0.513   6.859  1.8984 -1.8091 -1.8738
  425MOL0     H58648   2.982   0.432   6.632  0.6565  0.7205 -2.1449
  425MOL0     H58649   2.815   0.396   6.651 -0.4261  0.7296  1.2669
  425MOL0     H58650   2.885   0.468   6.497  1.7967  2.4378  0.1643
  426MOL0     O58651  11.094   4.065   1.547 -0.1132 -0.2554 -0.3010
  426MOL0     C58652  11.172   4.109   1.626 -0.9101 -0.3579  0.9477
  426MOL0     O58653  11.165   4.239   1.684  0.4062  0.3860  0.3504
  426MOL0     C58654  11.057   4.307   1.644 -0.4953 -0.4420 -1.1456
  426MOL0     C58655  10.953   4.314   1.734  0.2903  1.1652 -0.4739
  426MOL0     C58656  10.837   4.386   1.701 -0.4452 -0.2297 -0.6133
  426MOL0     C58657  10.823   4.440   1.572  0.1344  0.3704 -0.1194
  426MOL0     O58658  10.710   4.499   1.554  0.8126 -0.8386 -0.1975
  426MOL0     C58659  10.643   4.430   1.456  0.9074 -0.1384  0.2023
  426MOL0     C58660  10.519   4.515   1.416  0.3391 -0.0530  0.2855
  426MOL0     C58661  10.415   4.420   1.350 -0.7617  0.0516 -0.4616
  426MOL0     C58662  10.305   4.487   1.259  0.0840 -1.3896 -0.0319
  426MOL0     C58663  10.210   4.377   1.208 -0.0518  0.5244 -1.1000
  426MOL0     C58664  10.119   4.305   1.312 -0.4017 -0.4539 -0.6866
  426MOL0     C58665  10.062   4.176   1.250  0.2465  0.5786 -0.4991
  426MOL0     C58666   9.967   4.193   1.128 -0.3605  0.6870  0.4274
  426MOL0     N58667   9.830   4.231   1.148  0.2739 -0.7502  0.2396
  426MOL0     C58668   9.714   4.169   1.097 -0.0488  0.3179 -0.1896
  426MOL0     C58669   9.606   4.227   1.161 -0.4109  1.4093 -0.0853
  426MOL0     C58670   9.460   4.177   1.164  0.5968 -0.1130  0.1069
  426MOL0     C58671   9.424   4.119   1.297 -0.3030  0.5525 -0.3984
  426MOL0     C58672   9.295   4.027   1.291  0.0049 -0.0792  0.3957
  426MOL0     C58673   9.288   3.916   1.175 -0.2694  0.0719 -0.1648
  426MOL0     O58674   9.164   3.854   1.180 -0.3269 -0.1526  0.2912
  426MOL0     C58675   9.133   3.741   1.115  0.1858  0.4356  0.3765
  426MOL0     C58676   9.228   3.662   1.059  0.5804  0.8409 -0.1604
  426MOL0     C58677   9.184   3.555   0.979 -0.6967  0.4706 -0.7578
  426MOL0     C58678   9.292   3.475   0.899 -0.1713  0.8464  0.0239
  426MOL0     C58679   9.051   3.515   0.974 -0.2700  0.7680  0.5111
  426MOL0     C58680   8.987   3.389   0.912 -0.8731 -0.2269  0.3776
  426MOL0     O58681   9.067   3.310   0.840  0.0023 -0.0043  0.2162
  426MOL0     C58682   9.048   3.177   0.810 -0.2402  0.1740 -0.1815
  426MOL0     C58683   9.164   3.102   0.823 -0.2905 -1.3319  0.1696
  426MOL0     C58684   9.153   2.965   0.806 -0.1136 -0.7099  0.1285
  426MOL0     C58685   9.039   2.900   0.752 -0.1388 -0.4974 -0.1924
  426MOL0     O58686   9.052   2.766   0.723 -0.0662 -0.4368  0.3857
  426MOL0     C58687   8.933   2.691   0.729 -0.1614  0.4997  0.2327
  426MOL0     C58688   8.882   2.673   0.591 -0.8669 -0.7344 -0.6210
  426MOL0     C58689   8.979   2.581   0.515  0.9414 -0.1226  0.1530
  426MOL0     C58690   8.894   2.490   0.414 -1.3944 -1.0192 -0.1637
  426MOL0     C58691   8.987   2.412   0.324 -0.2934  0.6275  0.1956
  426MOL0     C58692   9.098   2.482   0.240  0.0193 -0.2525  0.2271
  426MOL0     C58693   9.042   2.565   0.123  0.6515 -0.7139 -0.0850
  426MOL0     C58694   9.159   2.631   0.046  1.0115 -0.1060  0.0218
  426MOL0    Cl58695   9.271   2.723   0.153 -0.2484 -0.7151 -0.2426
  426MOL0     C58696   8.922   2.982   0.739 -0.4074  0.8469 -0.3148
  426MOL0     C58697   8.931   3.116   0.771  0.2134 -0.1223  0.0054
  426MOL0     O58698   8.869   3.374   0.935 -0.6194 -0.7897  0.3385
  426MOL0     C58699   8.959   3.602   1.033  0.3297  0.9120 -0.2419
  426MOL0     C58700   8.998   3.717   1.104 -0.5149 -0.3641  0.9319
  426MOL0     N58701   9.654   4.323   1.247  0.6286  0.1980  0.7679
  426MOL0     N58702   9.782   4.324   1.234 -0.0880 -0.7777 -0.7706
  426MOL0     C58703  10.925   4.440   1.482 -0.0162 -0.2458  0.1930
  426MOL0     C58704  11.049   4.379   1.522  0.2319 -0.1631 -0.1753
  426MOL0     C58705  11.284   4.026   1.670 -0.7973  0.4221  0.6804
  426MOL0     C58706  11.309   4.015   1.810  0.1690 -0.5256  0.6377
  426MOL0     C58707  11.408   3.935   1.859  0.6565 -0.7631 -0.4579
  426MOL0     C58708  11.485   3.871   1.767  0.9284 -0.1533 -0.5390
  426MOL0     O58709  11.588   3.792   1.820 -0.7905  0.1345  0.0052
  426MOL0     C58710  11.717   3.861   1.809 -0.3563  0.0239 -0.0975
  426MOL0     C58711  11.806   3.754   1.755 -0.2094 -0.4256 -0.0344
  426MOL0     C58712  11.943   3.805   1.726 -0.6605  0.2663  0.2498
  426MOL0     C58713  12.024   3.849   1.852 -0.7771  0.1298 -0.1439
  426MOL0     C58714  12.008   3.988   1.880 -0.1178 -0.1835  0.3024
  426MOL0     C58715  11.972   4.103   1.892  0.3347 -0.5920  0.2810
  426MOL0     C58716  11.464   3.887   1.634 -0.1038 -0.6109 -0.3553
  426MOL0     C58717  11.361   3.960   1.582 -0.4798 -0.7798 -1.2236
  426MOL0     C58718  11.339   3.959   1.429 -0.7697 -0.4027  0.2541
  426MOL0     H58719  10.948   4.272   1.834 -5.4620 -1.2505 -1.3822
  426MOL0     H58720  10.753   4.392   1.769 -0.8971  1.0063 -1.2572
  426MOL0     H58721  10.614   4.330   1.488  0.2023  0.5482  1.8390
  426MOL0     H58722  10.697   4.416   1.362 -0.1784 -0.7797 -0.3434
  426MOL0     H58723  10.495   4.553   1.516 -1.8930  2.1268 -0.9583
  426MOL0     H58724  10.552   4.596   1.350  0.8346 -1.2498 -0.9645
  426MOL0     H58725  10.467   4.347   1.288  1.0478 -0.7823  1.8440
  426MOL0     H58726  10.385   4.368   1.442  0.0060  2.5459  1.3200
  426MOL0     H58727  10.246   4.564   1.311 -2.2057 -2.7797 -0.4402
  426MOL0     H58728  10.358   4.533   1.176  1.2874  4.8884  3.5538
  426MOL0     H58729  10.270   4.307   1.148  2.8077  0.3923  1.6595
  426MOL0     H58730  10.151   4.428   1.131  1.1943  1.2128 -1.6251
  426MOL0     H58731  10.170   4.302   1.409 -0.7453 -0.8413 -0.5176
  426MOL0     H58732  10.035   4.370   1.337 -0.3521 -1.0695  1.2072
  426MOL0     H58733  10.001   4.143   1.335  5.6383  0.1789  3.7752
  426MOL0     H58734  10.147   4.107   1.251  0.9136  1.3850 -0.1039
  426MOL0     H58735  10.021   4.252   1.054  0.1248  1.8697  1.6798
  426MOL0     H58736   9.964   4.091   1.089 -2.2515  1.2130 -0.9545
  426MOL0     H58737   9.718   4.078   1.038  0.1483  0.1644  0.0562
  426MOL0     H58738   9.441   4.102   1.087  0.5700 -0.5809  0.5548
  426MOL0     H58739   9.397   4.265   1.154 -0.9549 -1.0872  0.9747
  426MOL0     H58740   9.502   4.052   1.336 -1.1011  0.3926  1.0199
  426MOL0     H58741   9.417   4.199   1.372 -0.2288  1.1006 -0.9729
  426MOL0     H58742   9.301   3.982   1.390  1.8306 -0.5210  0.1268
  426MOL0     H58743   9.205   4.089   1.289 -1.3101 -1.8950 -1.0654
  426MOL0     H58744   9.286   3.972   1.082 -0.9477  0.3639  0.0169
  426MOL0     H58745   9.376   3.851   1.169 -0.1574 -0.0539  1.9506
  426MOL0     H58746   9.335   3.674   1.067  1.0910 -1.7039 -1.9288
  426MOL0     H58747   9.320   3.393   0.966 -3.3606  0.7288  1.3978
  426MOL0     H58748   9.384   3.530   0.878  1.7675 -1.4073  1.9906
  426MOL0     H58749   9.256   3.436   0.803  0.5716 -2.1384  0.8563
  426MOL0     H58750   9.259   3.147   0.849  0.7645 -2.5960 -1.2669
  426MOL0     H58751   9.244   2.906   0.805 -0.3055 -1.0233 -1.4451
  426MOL0     H58752   8.951   2.596   0.780  1.2421  1.7557  2.2001
  426MOL0     H58753   8.849   2.726   0.789 -2.1463 -3.0358 -0.2074
  426MOL0     H58754   8.782   2.629   0.600 -1.1352  0.0552  0.3739
  426MOL0     H58755   8.874   2.766   0.533  0.7381 -0.5262 -0.5571
  426MOL0     H58756   9.010   2.507   0.589  1.2166 -1.2733 -1.0729
  426MOL0     H58757   9.065   2.643   0.489 -1.2070  2.8085 -0.6106
  426MOL0     H58758   8.851   2.556   0.338 -0.7847  0.2705  0.5758
  426MOL0     H58759   8.818   2.429   0.464 -1.6213  1.2606  2.5702
  426MOL0     H58760   9.034   2.342   0.393  3.0090  1.8071 -0.6713
  426MOL0     H58761   8.925   2.348   0.261  0.3136 -0.2709  0.4939
  426MOL0     H58762   9.167   2.410   0.194  1.0026  0.0710  1.1633
  426MOL0     H58763   9.153   2.553   0.302 -0.4903  2.0594 -1.7987
  426MOL0     H58764   8.979   2.648   0.156  0.0740 -0.8606 -0.8244
  426MOL0     H58765   8.994   2.508   0.044 -0.0870 -0.7329  0.3708
  426MOL0     H58766   9.120   2.699  -0.030 -1.3588 -0.3263  0.9507
  426MOL0     H58767   9.231   2.561   0.003 -0.5456 -1.4380 -0.5350
  426MOL0     H58768   8.827   2.937   0.709 -1.0120  0.8235  1.5223
  426MOL0     H58769   8.839   3.174   0.769  0.1294 -0.2156  0.7802
  426MOL0     H58770   8.852   3.585   1.030 -0.4633  4.6271  0.9193
  426MOL0     H58771   8.926   3.784   1.150  1.2480  1.7790  0.7397
  426MOL0     H58772  10.915   4.475   1.380  3.2578 -0.9701 -0.4747
  426MOL0     H58773  11.124   4.370   1.444  3.5185 -0.4525  2.7826
  426MOL0     H58774  11.245   4.073   1.875 -0.5774 -2.8435  2.0832
  426MOL0     H58775  11.426   3.923   1.965 -1.0603  3.6131  0.5117
  426MOL0     H58776  11.704   3.950   1.746 -0.2908  0.5335  0.5945
  426MOL0     H58777  11.758   3.888   1.907  1.2974 -3.2399  0.2432
  426MOL0     H58778  11.749   3.713   1.671 -2.6417 -1.1802  1.8649
  426MOL0     H58779  11.825   3.666   1.817 -0.9395 -0.0930  0.6865
  426MOL0     H58780  11.989   3.715   1.683 -0.2569 -0.2103  1.6513
  426MOL0     H58781  11.951   3.879   1.645 -3.5496 -2.1929 -2.5606
  426MOL0     H58782  12.130   3.834   1.830 -0.3580  1.1403  1.1073
  426MOL0     H58783  12.014   3.789   1.942  2.4697  1.5303  1.2984
  426MOL0     H58784  11.944   4.205   1.914 -1.1445 -0.9478  0.1776
  426MOL0     H58785  11.533   3.828   1.573  2.3879 -0.6478  2.2782
  426MOL0     H58786  11.323   4.062   1.398  2.3413  0.3978  1.0085
  426MOL0     H58787  11.431   3.938   1.373  0.8245 -0.4369  2.7219
  426MOL0     H58788  11.273   3.881   1.389 -0.1051 -1.1070  0.4970
  427MOL0     O58789   8.707   7.779   0.676  0.1960  0.5720  0.5168
  427MOL0     C58790   8.706   7.788   0.796  0.6889  0.6673  0.2137
  427MOL0     O58791   8.657   7.694   0.880  0.3036  0.0617 -0.2000
  427MOL0     C58792   8.645   7.567   0.839 -0.9129  1.1476  0.5237
  427MOL0     C58793   8.525   7.497   0.876 -0.6478  0.0306  0.7963
  427MOL0     C58794   8.523   7.357   0.859 -0.0264 -0.2551  0.7921
  427MOL0     C58795   8.632   7.290   0.797 -0.4312  0.4468  0.2966
  427MOL0     O58796   8.617   7.150   0.785  0.3811  0.0149 -0.5125
  427MOL0     C58797   8.723   7.076   0.720  0.1050  0.5068  0.3679
  427MOL0     C58798   8.665   6.934   0.748 -0.3402  0.8258  0.1413
  427MOL0     C58799   8.744   6.824   0.673  0.5246 -0.5511  0.1382
  427MOL0     C58800   8.894   6.805   0.723  0.3789 -0.6302 -0.2189
  427MOL0     C58801   8.915   6.674   0.800 -0.1090 -0.4131  0.1658
  427MOL0     C58802   8.985   6.564   0.721 -0.6530 -0.9077  0.5199
  427MOL0     C58803   9.003   6.445   0.812  0.5023 -0.1575  0.4636
  427MOL0     C58804   8.868   6.382   0.869  0.6522  0.0135 -1.0501
  427MOL0     N58805   8.761   6.344   0.771  0.3332  0.2843 -0.6316
  427MOL0     C58806   8.663   6.434   0.725 -0.5226 -0.7479 -0.0106
  427MOL0     C58807   8.623   6.381   0.603  0.9147 -0.4326 -0.6019
  427MOL0     C58808   8.535   6.448   0.502  0.0238 -0.6798 -0.8186
  427MOL0     C58809   8.407   6.376   0.479 -0.1320  0.6751  0.1347
  427MOL0     C58810   8.306   6.469   0.408 -0.4158  0.1724  0.5856
  427MOL0     C58811   8.361   6.505   0.264  0.3085  0.3908 -1.1847
  427MOL0     O58812   8.452   6.407   0.201  0.1974 -0.1491 -0.9881
  427MOL0     C58813   8.509   6.445   0.085  0.2838  0.0700 -0.1679
  427MOL0     C58814   8.487   6.570   0.027 -0.0971  1.2326  0.4216
  427MOL0     C58815   8.549   6.606  -0.094  0.9417  0.3118 -0.3065
  427MOL0     C58816   8.511   6.738  -0.156  0.5898  0.1387 -0.4483
  427MOL0     C58817   8.650   6.525  -0.150  0.0550  0.0242  0.4571
  427MOL0     C58818   8.696   6.534  -0.287  0.3469  1.1390 -0.2718
  427MOL0     O58819   8.809   6.482  -0.313 -0.1573  0.0700  1.0495
  427MOL0     C58820   8.862   6.494  -0.437 -0.1669  0.7221  0.4833
  427MOL0     C58821   8.952   6.597  -0.466 -0.6673  0.8853  0.4851
  427MOL0     C58822   8.986   6.618  -0.598  0.0808 -0.2422  0.6656
  427MOL0     C58823   8.951   6.524  -0.697  0.3955  0.0432 -0.3119
  427MOL0     O58824   8.988   6.520  -0.828 -0.4287 -0.3419 -0.5403
  427MOL0     C58825   9.107   6.594  -0.871 -0.1153 -0.1630 -0.3221
  427MOL0     C58826   9.210   6.484  -0.908  0.7764  0.2181  0.1915
  427MOL0     C58827   9.305   6.515  -1.020 -0.6462 -0.2390 -0.0712
  427MOL0     C58828   9.420   6.586  -0.961  0.5314  0.4565 -0.6605
  427MOL0     C58829   9.529   6.613  -1.064  0.6303  0.7971  0.3158
  427MOL0     C58830   9.589   6.489  -1.120 -0.2554  0.5300 -0.0053
  427MOL0     C58831   9.707   6.534  -1.210  0.0524  0.1699  0.6424
  427MOL0     C58832   9.734   6.433  -1.321  0.1224  0.8261  0.4072
  427MOL0    Cl58833   9.811   6.294  -1.246 -0.0142 -0.1497  0.2336
  427MOL0     C58834   8.877   6.413  -0.658 -0.0500 -0.0485  0.4579
  427MOL0     C58835   8.822   6.400  -0.533 -0.0954 -0.7751 -0.9086
  427MOL0     O58836   8.612   6.575  -0.370  0.3900  0.2192 -0.4602
  427MOL0     C58837   8.677   6.401  -0.091  0.6768 -0.0021 -0.1148
  427MOL0     C58838   8.604   6.361   0.025 -0.0978  0.5500  0.0944
  427MOL0     N58839   8.691   6.261   0.581  0.3031 -0.3890 -0.8931
  427MOL0     N58840   8.774   6.238   0.681  0.1785 -0.5381  0.3957
  427MOL0     C58841   8.741   7.365   0.759  0.6575  0.5580  0.2089
  427MOL0     C58842   8.750   7.503   0.778  0.1962  0.9531 -0.1819
  427MOL0     C58843   8.774   7.900   0.857 -0.1698 -0.1110 -0.2398
  427MOL0     C58844   8.870   7.890   0.962 -0.4863 -0.4332  1.2322
  427MOL0     C58845   8.935   8.000   1.019 -0.3530  0.0142  1.1128
  427MOL0     C58846   8.900   8.126   0.975  0.0366 -0.3826  0.4196
  427MOL0     O58847   8.965   8.241   1.015  0.7306  0.6686  0.2186
  427MOL0     C58848   9.041   8.231   1.139 -0.7257 -0.6821 -1.5691
  427MOL0     C58849   9.099   8.376   1.156 -0.2040 -0.6138 -0.2824
  427MOL0     C58850   9.138   8.398   1.304  0.4923 -0.4218  0.4406
  427MOL0     C58851   9.142   8.553   1.329 -0.6288  0.6961  0.3292
  427MOL0     C58852   9.232   8.627   1.247  0.4989 -0.4584 -0.2272
  427MOL0     C58853   9.294   8.708   1.188  0.0800 -0.1984 -0.1062
  427MOL0     C58854   8.804   8.151   0.879  0.0093  0.1559 -0.0276
  427MOL0     C58855   8.739   8.039   0.826 -0.2087  1.3460  0.5711
  427MOL0     C58856   8.628   8.062   0.724  0.4923  0.3263  0.1540
  427MOL0     H58857   8.436   7.551   0.905 -2.8784 -2.1543 -1.4154
  427MOL0     H58858   8.443   7.286   0.876  0.6589 -1.3538 -0.3411
  427MOL0     H58859   8.816   7.102   0.772 -1.5408  1.4138  3.0626
  427MOL0     H58860   8.730   7.101   0.614 -0.5468 -3.1510 -0.6872
  427MOL0     H58861   8.669   6.922   0.857 -0.1241 -3.2959 -0.1875
  427MOL0     H58862   8.563   6.918   0.713 -0.8767 -1.9308  2.5728
  427MOL0     H58863   8.677   6.738   0.670  0.4921 -0.5052 -2.4503
  427MOL0     H58864   8.757   6.857   0.570  0.3973  1.9291  0.8543
  427MOL0     H58865   8.950   6.803   0.629  2.0933 -3.8578  0.7161
  427MOL0     H58866   8.922   6.892   0.784 -1.5332  0.7044 -1.1468
  427MOL0     H58867   8.823   6.633   0.844 -0.5893 -0.9252 -1.2631
  427MOL0     H58868   8.976   6.697   0.887  0.6442 -3.0986  0.4543
  427MOL0     H58869   8.924   6.540   0.634 -2.5389 -1.3660  1.9105
  427MOL0     H58870   9.086   6.595   0.692 -1.1056 -2.2907 -2.9154
  427MOL0     H58871   9.066   6.460   0.901 -0.7447 -3.2228  2.0065
  427MOL0     H58872   9.049   6.360   0.761 -2.0219 -3.7095  3.5243
  427MOL0     H58873   8.894   6.289   0.921 -0.9414  1.2353  2.2615
  427MOL0     H58874   8.819   6.437   0.950  3.1051 -2.8707  2.7787
  427MOL0     H58875   8.640   6.529   0.772  1.6355 -0.4107  0.4607
  427MOL0     H58876   8.591   6.458   0.409 -2.2368 -1.6380 -2.3935
  427MOL0     H58877   8.522   6.545   0.552  1.1368 -1.4689  1.0775
  427MOL0     H58878   8.420   6.289   0.414 -0.3713  2.7335 -2.8845
  427MOL0     H58879   8.378   6.342   0.579  3.0909 -0.2225  0.8670
  427MOL0     H58880   8.217   6.412   0.380  1.2401 -1.8211 -0.9997
  427MOL0     H58881   8.286   6.564   0.458  0.1966  0.3653  0.4736
  427MOL0     H58882   8.275   6.546   0.211  0.8407  2.4224 -0.5609
  427MOL0     H58883   8.422   6.593   0.286 -1.0322  1.7399 -2.6313
  427MOL0     H58884   8.414   6.637   0.071  1.2937  4.7564 -2.1398
  427MOL0     H58885   8.460   6.789  -0.074  2.6370 -1.4438  1.9614
  427MOL0     H58886   8.438   6.719  -0.235 -1.7610 -0.3287  1.7188
  427MOL0     H58887   8.594   6.802  -0.188 -0.2168  0.9102 -1.0440
  427MOL0     H58888   9.008   6.651  -0.391 -0.4986  0.5732  0.5876
  427MOL0     H58889   9.050   6.704  -0.614  0.5609 -0.6386  0.4654
  427MOL0     H58890   9.084   6.659  -0.956  1.0078 -0.5424 -0.9455
  427MOL0     H58891   9.150   6.665  -0.799 -0.1191  0.6231 -1.0723
  427MOL0     H58892   9.258   6.443  -0.818  2.5781 -0.0227 -0.8524
  427MOL0     H58893   9.150   6.402  -0.949 -2.3172  2.8028 -0.8660
  427MOL0     H58894   9.258   6.572  -1.101  0.7964 -2.4005 -2.6026
  427MOL0     H58895   9.337   6.420  -1.064  1.7345  0.3627  0.2758
  427MOL0     H58896   9.459   6.528  -0.877 -0.2514 -0.5406 -0.9644
  427MOL0     H58897   9.379   6.677  -0.917 -0.1675  0.6415 -1.6601
  427MOL0     H58898   9.491   6.686  -1.136 -0.1686 -0.9883 -1.1580
  427MOL0     H58899   9.613   6.662  -1.015  1.4742  0.4580 -0.7366
  427MOL0     H58900   9.521   6.434  -1.187  1.0994 -0.4721 -0.6123
  427MOL0     H58901   9.612   6.414  -1.044 -1.0732  0.5511  0.2771
  427MOL0     H58902   9.807   6.539  -1.164  0.0229  0.3076  0.6912
  427MOL0     H58903   9.678   6.623  -1.265 -1.0860  0.0387  1.0170
  427MOL0     H58904   9.785   6.478  -1.406 -0.2613 -0.9811 -0.8350
  427MOL0     H58905   9.639   6.395  -1.360  0.0846  0.5649  0.7496
  427MOL0     H58906   8.843   6.325  -0.712 -0.4055 -1.7184  3.1948
  427MOL0     H58907   8.751   6.321  -0.508 -2.9725  2.0189  0.5378
  427MOL0     H58908   8.741   6.322  -0.129  0.3478  0.1017 -0.8968
  427MOL0     H58909   8.633   6.264   0.063  0.5522  0.8106  0.2733
  427MOL0     H58910   8.816   7.307   0.706  1.1935  0.5363  0.9739
  427MOL0     H58911   8.840   7.558   0.753 -0.7919  3.1973  0.9555
  427MOL0     H58912   8.890   7.792   1.005 -2.2242 -1.4641 -0.1548
  427MOL0     H58913   9.014   7.982   1.091  1.5880 -2.6509 -1.4688
  427MOL0     H58914   8.961   8.210   1.210  1.0610  0.9485  1.1126
  427MOL0     H58915   9.129   8.166   1.142  1.2644  1.8555 -0.8076
  427MOL0     H58916   9.015   8.440   1.128 -1.6424 -2.7280 -1.0399
  427MOL0     H58917   9.194   8.386   1.101  0.8104 -0.3650  1.4218
  427MOL0     H58918   9.067   8.369   1.381  0.2747  0.0998  0.4406
  427MOL0     H58919   9.232   8.352   1.337  1.2311  1.3072  0.9009
  427MOL0     H58920   9.175   8.569   1.432 -1.3207  0.1088  0.6518
  427MOL0     H58921   9.042   8.594   1.314 -0.3154  1.6066  0.6618
  427MOL0     H58922   9.333   8.788   1.129 -2.7656 -0.8675 -3.2273
  427MOL0     H58923   8.779   8.245   0.831 -2.0925  0.2992  1.2061
  427MOL0     H58924   8.565   7.973   0.711  0.7241  0.1647  0.1459
  427MOL0     H58925   8.553   8.135   0.757  0.0519 -0.2446  0.4545
  427MOL0     H58926   8.652   8.091   0.622  1.5876  1.3535  0.6904
  428MOL0     O58927   4.899   1.405   5.339 -0.4053 -0.1695 -0.3180
  428MOL0     C58928   4.896   1.288   5.357  0.2961 -0.2655 -0.4965
  428MOL0     O58929   4.800   1.202   5.298 -0.5087  0.7005 -0.3373
  428MOL0     C58930   4.683   1.252   5.259  1.2024 -0.2503  0.1161
  428MOL0     C58931   4.611   1.180   5.163 -0.8654 -1.0127  0.8734
  428MOL0     C58932   4.493   1.223   5.114  0.7774  0.3188 -0.4930
  428MOL0     C58933   4.427   1.333   5.169  0.1400 -0.7429  0.0106
  428MOL0     O58934   4.294   1.360   5.141 -0.6946 -0.2380 -0.5631
  428MOL0     C58935   4.285   1.390   5.000  0.1472 -0.4988  0.5936
  428MOL0     C58936   4.195   1.499   4.972  0.0689 -0.8697  0.1265
  428MOL0     C58937   4.047   1.471   5.016 -0.5573  0.7759 -0.0723
  428MOL0     C58938   3.948   1.568   4.956  0.0562 -0.8292  0.3623
  428MOL0     C58939   3.933   1.557   4.805 -0.4755  0.3624 -0.2644
  428MOL0     C58940   3.805   1.614   4.738  0.4884 -0.4865  0.3494
  428MOL0     C58941   3.793   1.769   4.777 -0.5410  1.5717 -0.2551
  428MOL0     C58942   3.682   1.843   4.701 -0.8814 -0.5692  0.5642
  428MOL0     N58943   3.689   1.834   4.552  0.2531  0.3070  0.6283
  428MOL0     C58944   3.614   1.733   4.479 -0.2351  0.1310 -0.1296
  428MOL0     C58945   3.647   1.767   4.354  0.5506 -1.1566 -0.4572
  428MOL0     C58946   3.605   1.696   4.232 -0.1929 -0.0637 -0.1730
  428MOL0     C58947   3.681   1.560   4.215  0.5965 -0.7414  0.1925
  428MOL0     C58948   3.630   1.492   4.092  0.6379  0.4288  0.5566
  428MOL0     C58949   3.716   1.370   4.051  1.1583  0.2704  0.3915
  428MOL0     O58950   3.811   1.416   3.954  0.1965  0.1204 -0.2871
  428MOL0     C58951   3.786   1.412   3.819 -0.1086 -0.7501 -0.4062
  428MOL0     C58952   3.865   1.487   3.734 -0.1194 -0.8107 -0.0405
  428MOL0     C58953   3.844   1.490   3.594 -0.1243  0.9312 -0.2178
  428MOL0     C58954   3.923   1.594   3.523  0.0107 -0.5708  1.1067
  428MOL0     C58955   3.761   1.391   3.535  0.2913  0.2761  0.5394
  428MOL0     C58956   3.749   1.367   3.386 -1.0994  1.3904  0.6736
  428MOL0     O58957   3.690   1.253   3.342 -0.2743  1.4952 -0.0660
  428MOL0     C58958   3.684   1.228   3.205  0.7344  0.3914  0.6161
  428MOL0     C58959   3.560   1.230   3.139 -0.4972  0.0645  0.3171
  428MOL0     C58960   3.546   1.192   3.000 -0.5698 -0.8779  0.4060
  428MOL0     C58961   3.658   1.133   2.933 -0.4726 -1.2191 -0.3027
  428MOL0     O58962   3.658   1.096   2.808 -1.1640 -0.0840  0.4552
  428MOL0     C58963   3.554   1.019   2.763  0.8907  0.2862  0.3180
  428MOL0     C58964   3.597   0.948   2.633 -0.1953  0.9002 -0.9245
  428MOL0     C58965   3.740   0.901   2.638  0.0374 -1.6849  0.4139
  428MOL0     C58966   3.763   0.768   2.698  0.0815  0.5402 -0.0538
  428MOL0     C58967   3.907   0.752   2.759  1.3653 -0.2546 -0.9788
  428MOL0     C58968   3.953   0.866   2.856  1.1200 -0.7035  0.2862
  428MOL0     C58969   4.072   0.809   2.935  0.0995 -0.2168  0.1953
  428MOL0     C58970   4.112   0.924   3.036  0.4079 -0.1411  0.3559
  428MOL0    Cl58971   4.281   0.941   3.093 -0.2628 -0.4910  0.2376
  428MOL0     C58972   3.775   1.135   3.007  1.1117 -0.0352 -1.0770
  428MOL0     C58973   3.793   1.180   3.133  1.0666 -0.1566 -0.0289
  428MOL0     O58974   3.788   1.453   3.310 -0.2612  0.7532 -0.1199
  428MOL0     C58975   3.691   1.307   3.616  0.6769  0.1734  0.4574
  428MOL0     C58976   3.693   1.317   3.753  0.4678 -0.4323 -0.3665
  428MOL0     N58977   3.749   1.864   4.357  0.6152 -0.0571  0.0129
  428MOL0     N58978   3.773   1.911   4.478 -0.1227 -0.5706 -0.2656
  428MOL0     C58979   4.490   1.402   5.282 -0.3673  0.0895  0.3526
  428MOL0     C58980   4.623   1.366   5.323  0.4362  0.8720  0.5319
  428MOL0     C58981   5.002   1.225   5.449  0.2079  1.2147  0.2735
  428MOL0     C58982   5.044   1.091   5.423  1.0543 -0.7647  0.9475
  428MOL0     C58983   5.145   1.034   5.509 -0.1920  0.3893  0.3888
  428MOL0     C58984   5.187   1.097   5.621 -0.3352  0.3989  0.2993
  428MOL0     O58985   5.280   1.044   5.706  0.0353  0.2031 -0.0383
  428MOL0     C58986   5.223   0.999   5.830 -0.2782 -0.6339  0.0206
  428MOL0     C58987   5.216   0.841   5.833 -0.6554  0.6970  1.0130
  428MOL0     C58988   5.147   0.764   5.950  0.0166  0.2980  0.4546
  428MOL0     C58989   5.176   0.618   5.948 -0.2060  0.3947  0.1568
  428MOL0     C58990   5.122   0.555   5.821  0.6816 -0.7534 -0.1235
  428MOL0     C58991   5.090   0.509   5.710 -0.2906 -0.3292  0.5428
  428MOL0     C58992   5.136   1.228   5.658 -0.5070  0.6342  0.4809
  428MOL0     C58993   5.058   1.291   5.562  0.6824  0.3880 -0.6057
  428MOL0     C58994   5.010   1.431   5.608  0.0585  1.0787 -0.4207
  428MOL0     H58995   4.669   1.108   5.106 -1.2902  2.1451 -4.1153
  428MOL0     H58996   4.450   1.182   5.023 -0.8996 -0.5945  0.6643
  428MOL0     H58997   4.258   1.293   4.959  0.1716  0.6790 -2.4285
  428MOL0     H58998   4.384   1.417   4.961 -0.6207  1.6598  0.0287
  428MOL0     H58999   4.223   1.592   5.023  1.1986 -1.1921  0.1229
  428MOL0     H59000   4.207   1.504   4.863  1.9527 -1.6594  0.2557
  428MOL0     H59001   4.021   1.369   4.985  0.5517  0.8282 -1.2542
  428MOL0     H59002   4.036   1.478   5.124 -2.4030 -0.6857 -0.1063
  428MOL0     H59003   3.852   1.550   5.004  0.7360 -1.6056  1.4717
  428MOL0     H59004   3.977   1.670   4.984  1.2865 -1.7740  2.7620
  428MOL0     H59005   3.944   1.451   4.779 -3.6823 -0.0418 -0.2961
  428MOL0     H59006   4.018   1.613   4.763  1.4676 -1.7485  0.5969
  428MOL0     H59007   3.822   1.608   4.630  0.3687  0.9804  0.2193
  428MOL0     H59008   3.712   1.562   4.762 -0.4713  0.5374 -0.9724
  428MOL0     H59009   3.888   1.820   4.759  0.7686 -1.6553 -4.2862
  428MOL0     H59010   3.780   1.771   4.885 -0.5640 -3.1839  0.0291
  428MOL0     H59011   3.583   1.801   4.726 -0.5563  0.3538  3.8142
  428MOL0     H59012   3.686   1.944   4.742 -0.7755 -1.1253  1.9983
  428MOL0     H59013   3.548   1.658   4.521  1.6004 -0.4157  1.9766
  428MOL0     H59014   3.638   1.753   4.145  0.6588 -1.2733 -0.6620
  428MOL0     H59015   3.496   1.695   4.220 -0.1759 -0.0723 -0.3307
  428MOL0     H59016   3.788   1.583   4.207 -0.0404  2.6949 -0.1319
  428MOL0     H59017   3.656   1.499   4.302 -1.6208  1.5319  1.2741
  428MOL0     H59018   3.531   1.457   4.123  1.1650  0.1705  2.0422
  428MOL0     H59019   3.625   1.565   4.011  2.4719 -0.1295 -0.1251
  428MOL0     H59020   3.755   1.332   4.146  0.6286 -1.2536  0.0187
  428MOL0     H59021   3.648   1.290   4.021  0.2239  0.9236  0.6844
  428MOL0     H59022   3.921   1.564   3.787 -3.7271  0.7559  1.8457
  428MOL0     H59023   3.978   1.653   3.597 -1.1978  2.3019 -0.1245
  428MOL0     H59024   3.860   1.661   3.463  2.7767 -0.5723 -2.0956
  428MOL0     H59025   3.990   1.553   3.446  0.2027 -0.7707  1.3777
  428MOL0     H59026   3.465   1.251   3.186 -2.3807 -0.9455 -2.7356
  428MOL0     H59027   3.446   1.192   2.957  0.3218 -2.3742 -1.8545
  428MOL0     H59028   3.523   0.935   2.825 -1.1500 -0.2803 -1.3467
  428MOL0     H59029   3.458   1.071   2.750  1.8148  1.8457 -0.5437
  428MOL0     H59030   3.529   0.864   2.617  0.0831 -0.5751  3.9951
  428MOL0     H59031   3.578   1.002   2.540 -0.4628  0.7076 -0.9810
  428MOL0     H59032   3.809   0.976   2.679  1.7799 -0.6678 -3.8596
  428MOL0     H59033   3.768   0.909   2.533  0.6558  0.2305  0.6782
  428MOL0     H59034   3.754   0.697   2.615 -0.2562 -0.3486  0.7388
  428MOL0     H59035   3.686   0.743   2.772 -0.8865 -2.1819 -1.8090
  428MOL0     H59036   3.908   0.657   2.813 -1.8127  0.2199  0.1377
  428MOL0     H59037   3.968   0.732   2.670  0.3698 -1.3737 -1.4336
  428MOL0     H59038   3.870   0.891   2.922  1.1935  1.0016 -0.2303
  428MOL0     H59039   3.980   0.954   2.796 -6.1966  1.2859 -1.0294
  428MOL0     H59040   4.161   0.780   2.878 -1.7017  0.9641 -3.4778
  428MOL0     H59041   4.037   0.720   2.988 -3.5208 -1.0399 -3.1495
  428MOL0     H59042   4.055   0.890   3.124  0.8146 -4.0329 -0.6728
  428MOL0     H59043   4.072   1.019   2.999 -1.1512 -0.6764  0.5692
  428MOL0     H59044   3.858   1.090   2.953  3.1153  2.6263 -0.4596
  428MOL0     H59045   3.894   1.181   3.173  1.6503  1.1660 -1.4484
  428MOL0     H59046   3.618   1.246   3.564  1.2445  0.3155 -0.5352
  428MOL0     H59047   3.617   1.270   3.815 -0.5341 -1.1201 -2.0634
  428MOL0     H59048   4.444   1.489   5.327 -3.3941 -2.5301  2.7783
  428MOL0     H59049   4.667   1.431   5.398  0.2793 -0.4840  1.8489
  428MOL0     H59050   5.019   1.043   5.329  0.0798  1.2724  0.1243
  428MOL0     H59051   5.195   0.946   5.471  0.2014  2.0135 -3.3448
  428MOL0     H59052   5.292   1.034   5.907  0.1998 -0.4891 -0.4623
  428MOL0     H59053   5.127   1.045   5.854  1.1399  1.2244  2.6844
  428MOL0     H59054   5.317   0.798   5.835 -1.7110 -1.9992  3.0324
  428MOL0     H59055   5.173   0.812   5.737  1.7435 -0.2241  0.1369
  428MOL0     H59056   5.163   0.802   6.051 -0.1830 -5.0634  2.8827
  428MOL0     H59057   5.042   0.775   5.924 -0.2243 -0.2805  1.1402
  428MOL0     H59058   5.133   0.573   6.038 -0.7461 -0.1204 -0.3472
  428MOL0     H59059   5.284   0.606   5.941  0.2126  3.3869  0.0268
  428MOL0     H59060   5.057   0.472   5.615 -3.3300  1.5872  0.7348
  428MOL0     H59061   5.172   1.288   5.742 -1.5212  0.7876  0.8119
  428MOL0     H59062   5.071   1.463   5.693 -0.6801  0.7443  0.2489
  428MOL0     H59063   5.008   1.505   5.528 -0.3638  2.9115  1.1889
  428MOL0     H59064   4.905   1.417   5.634 -0.1669 -3.9124 -2.8300
  429MOL0     O59065   9.328   3.397  11.474 -0.6071 -0.6632  0.0831
  429MOL0     C59066   9.297   3.501  11.418  0.2243 -0.6745  0.4862
  429MOL0     O59067   9.306   3.533  11.282 -0.6597 -0.0696  0.6359
  429MOL0     C59068   9.316   3.414  11.206 -1.3113 -0.0993 -0.3484
  429MOL0     C59069   9.436   3.354  11.185  0.8112  0.5190 -0.0676
  429MOL0     C59070   9.449   3.249  11.096  0.3413 -0.4206  0.8407
  429MOL0     C59071   9.339   3.208  11.025 -0.7242  1.1260  0.8077
  429MOL0     O59072   9.359   3.124  10.914  0.7576  0.2774  0.8266
  429MOL0     C59073   9.244   3.049  10.860  0.1067  0.6519  0.0825
  429MOL0     C59074   9.301   2.945  10.762  0.2292 -0.4372 -0.0667
  429MOL0     C59075   9.196   2.853  10.705 -0.8614 -0.0867  0.4358
  429MOL0     C59076   9.174   2.753  10.816 -0.4304  0.0140 -0.2221
  429MOL0     C59077   9.087   2.642  10.762 -0.7884  0.5326  0.2609
  429MOL0     C59078   9.094   2.520  10.851 -0.5911 -0.4554  1.0158
  429MOL0     C59079   8.964   2.468  10.876 -0.5915 -0.0788 -0.6826
  429MOL0     C59080   8.948   2.322  10.931  0.3330 -0.4318 -0.6629
  429MOL0     N59081   9.023   2.233  10.837 -0.3752 -0.5962 -0.0310
  429MOL0     C59082   8.984   2.200  10.711 -0.0881 -0.7243 -0.1063
  429MOL0     C59083   9.065   2.100  10.667  0.2844  0.1504 -0.5824
  429MOL0     C59084   9.068   2.021  10.536 -0.6101  0.2912  0.0467
  429MOL0     C59085   9.211   2.034  10.474 -0.7067  0.5471  0.2594
  429MOL0     C59086   9.262   2.176  10.446  0.6778 -0.1701 -0.3099
  429MOL0     C59087   9.157   2.261  10.367  0.2449 -0.2438 -0.6094
  429MOL0     O59088   9.204   2.395  10.363  0.1260 -0.1292 -0.9788
  429MOL0     C59089   9.131   2.478  10.283  0.7281 -0.5153  0.5801
  429MOL0     C59090   9.140   2.613  10.306  0.0198 -0.8877  0.4331
  429MOL0     C59091   9.090   2.717  10.223  0.6738 -0.0429  0.3797
  429MOL0     C59092   9.117   2.864  10.269 -0.2657 -0.0503 -0.8222
  429MOL0     C59093   9.008   2.680  10.117  0.0536 -0.0593  0.2746
  429MOL0     C59094   8.957   2.780  10.020  0.0062  0.5189 -0.5958
  429MOL0     O59095   9.009   2.908   9.998  0.2872 -0.2768  0.5882
  429MOL0     C59096   8.932   2.987   9.920 -0.8590 -0.6805 -0.1021
  429MOL0     C59097   8.882   3.098   9.971  0.3388 -0.0068 -1.2307
  429MOL0     C59098   8.823   3.194   9.888 -0.6333 -0.4564  0.6189
  429MOL0     C59099   8.791   3.167   9.755  0.1636 -0.1446  0.1974
  429MOL0     O59100   8.731   3.242   9.661  0.0729 -0.1193  0.0299
  429MOL0     C59101   8.663   3.358   9.691 -0.4409 -1.2343 -0.9353
  429MOL0     C59102   8.550   3.396   9.601 -0.4222  0.6057  0.4603
  429MOL0     C59103   8.539   3.551   9.563 -0.6322 -0.8505 -0.7778
  429MOL0     C59104   8.399   3.573   9.499  0.1382  0.0657  1.0044
  429MOL0     C59105   8.369   3.729   9.497 -0.8674  0.3713 -0.8928
  429MOL0     C59106   8.231   3.733   9.422  0.3255  0.9679  0.5694
  429MOL0     C59107   8.185   3.883   9.423  0.4222  0.1162 -0.3697
  429MOL0     C59108   8.090   3.925   9.316  0.2922 -0.4761 -0.4914
  429MOL0    Cl59109   8.100   4.100   9.325 -0.0425  0.6359 -0.1408
  429MOL0     C59110   8.826   3.043   9.707 -0.2746 -0.5383 -0.4917
  429MOL0     C59111   8.905   2.959   9.790 -1.0500 -0.5674  0.5411
  429MOL0     O59112   8.874   2.723   9.951  0.2062 -0.1157  0.9768
  429MOL0     C59113   8.997   2.541  10.088  0.3375 -0.5765  0.4945
  429MOL0     C59114   9.057   2.442  10.165  0.3273 -0.2143  0.1718
  429MOL0     N59115   9.138   2.061  10.783  0.4484  0.1262  0.0713
  429MOL0     N59116   9.108   2.145  10.882  0.1631  0.1653  0.1847
  429MOL0     C59117   9.211   3.258  11.060  0.0361  0.4184 -0.3503
  429MOL0     C59118   9.200   3.369  11.143 -0.5579 -1.1281  0.7178
  429MOL0     C59119   9.262   3.608  11.515 -0.3815  0.6379  0.2516
  429MOL0     C59120   9.257   3.741  11.467  0.0464 -0.2099  0.1041
  429MOL0     C59121   9.215   3.852  11.543 -0.9944  0.9759  0.5658
  429MOL0     C59122   9.171   3.829  11.669  0.2707  0.0528 -0.1545
  429MOL0     O59123   9.133   3.941  11.739 -0.1225 -0.0573 -0.1272
  429MOL0     C59124   9.085   3.928  11.874  0.8846 -0.4034  0.1192
  429MOL0     C59125   8.930   3.939  11.865  0.7083  0.9378  1.1414
  429MOL0     C59126   8.877   3.990  11.991  1.3874  0.0493  0.5037
  429MOL0     C59127   8.720   4.021  11.987 -0.6133 -0.4842  0.6340
  429MOL0     C59128   8.666   4.092  12.104  0.7706 -0.4313  0.4232
  429MOL0     C59129   8.609   4.152  12.192  0.8072  0.1203 -0.4243
  429MOL0     C59130   9.173   3.694  11.715 -0.1625  0.7371  0.6298
  429MOL0     C59131   9.226   3.591  11.646  0.9212  0.6326  0.0039
  429MOL0     C59132   9.236   3.450  11.713 -0.6637 -0.7771  1.1511
  429MOL0     H59133   9.523   3.397  11.234 -0.5556  0.1789  2.8505
  429MOL0     H59134   9.542   3.204  11.063  0.3221 -1.5184  2.1597
  429MOL0     H59135   9.167   3.119  10.826  1.2184  1.5290 -0.7151
  429MOL0     H59136   9.213   2.994  10.949 -0.0654 -1.6867 -1.3435
  429MOL0     H59137   9.330   3.009  10.678 -1.7896  1.3902  0.5348
  429MOL0     H59138   9.394   2.896  10.792  2.0246  1.8410 -1.4819
  429MOL0     H59139   9.095   2.896  10.703 -1.0638 -0.5108  1.2371
  429MOL0     H59140   9.230   2.820  10.607 -0.0320 -1.4736  1.1752
  429MOL0     H59141   9.273   2.712  10.841 -0.0943  2.3738  2.8382
  429MOL0     H59142   9.138   2.805  10.905  0.9373 -0.6267  0.7497
  429MOL0     H59143   9.143   2.629  10.669 -2.9884  0.3323 -1.1342
  429MOL0     H59144   8.985   2.675  10.739 -1.3874 -2.3468 -1.8341
  429MOL0     H59145   9.152   2.442  10.801  1.6579  1.3361  0.6316
  429MOL0     H59146   9.152   2.538  10.942  0.5963  4.5825 -0.3880
  429MOL0     H59147   8.907   2.489  10.785 -1.4431 -0.3544 -0.2239
  429MOL0     H59148   8.920   2.530  10.954  0.8165  0.8526 -0.5830
  429MOL0     H59149   8.986   2.320  11.033  0.3025  4.3645 -0.3578
  429MOL0     H59150   8.844   2.290  10.929 -1.0638  3.4705  0.2247
  429MOL0     H59151   8.912   2.253  10.649  2.3044  2.7278 -0.2144
  429MOL0     H59152   8.997   2.035  10.454  1.8145 -1.5596 -2.6342
  429MOL0     H59153   9.040   1.917  10.554 -1.4926  0.8128  1.8244
  429MOL0     H59154   9.285   1.974  10.529 -1.3814 -1.0448 -0.5138
  429MOL0     H59155   9.191   1.993  10.375 -0.0649  2.3527 -0.6617
  429MOL0     H59156   9.280   2.225  10.543  0.9573  0.8582 -0.8626
  429MOL0     H59157   9.359   2.178  10.396  2.7832 -1.4395  3.3120
  429MOL0     H59158   9.140   2.216  10.268 -0.6350 -2.7898  0.6247
  429MOL0     H59159   9.065   2.264  10.426  1.2947  1.1341  1.0321
  429MOL0     H59160   9.188   2.646  10.398 -1.3301  1.6658  0.2954
  429MOL0     H59161   9.024   2.922  10.271 -0.6514 -0.6478 -1.0057
  429MOL0     H59162   9.187   2.915  10.203  0.9941 -0.3648  0.2289
  429MOL0     H59163   9.164   2.876  10.367 -4.1317  1.8997  1.0516
  429MOL0     H59164   8.896   3.126  10.075  1.9008  1.5671 -1.8182
  429MOL0     H59165   8.818   3.288   9.942 -1.0162 -0.1191  0.0099
  429MOL0     H59166   8.615   3.354   9.789 -1.3086  1.2516 -1.1982
  429MOL0     H59167   8.732   3.442   9.693 -3.2849  1.2524 -0.5291
  429MOL0     H59168   8.561   3.333   9.512  0.5106 -1.7779  2.1394
  429MOL0     H59169   8.453   3.368   9.641 -1.3348  0.3306 -1.8275
  429MOL0     H59170   8.618   3.584   9.495 -1.5217  1.6993 -0.6797
  429MOL0     H59171   8.558   3.616   9.649 -1.2853 -2.6736  0.8151
  429MOL0     H59172   8.328   3.527   9.569  0.4211 -1.8400  0.0991
  429MOL0     H59173   8.394   3.531   9.398 -0.3547  4.9747 -1.2900
  429MOL0     H59174   8.362   3.764   9.600 -1.4750 -2.1951 -0.0046
  429MOL0     H59175   8.449   3.783   9.445 -0.5155  0.0224 -0.7122
  429MOL0     H59176   8.174   3.673   9.493  1.9999 -0.5120  0.7395
  429MOL0     H59177   8.230   3.682   9.325  0.9190  2.4206 -0.2349
  429MOL0     H59178   8.271   3.950   9.431  0.9805 -0.8422  3.6715
  429MOL0     H59179   8.133   3.888   9.519 -1.0253  0.3981 -1.1303
  429MOL0     H59180   7.992   3.892   9.349  0.6216 -0.7362  0.2374
  429MOL0     H59181   8.105   3.880   9.217  0.2939 -1.5359 -0.0160
  429MOL0     H59182   8.789   3.023   9.607 -0.2501  2.9275 -1.3146
  429MOL0     H59183   8.943   2.862   9.758  0.5605 -0.1049  0.9445
  429MOL0     H59184   8.946   2.509   9.997 -1.0474 -0.4447  1.1990
  429MOL0     H59185   9.052   2.341  10.127  0.3959 -0.5968  1.1478
  429MOL0     H59186   9.125   3.217  11.008  1.0596  0.2454 -1.9932
  429MOL0     H59187   9.101   3.399  11.176 -1.0298 -1.1739 -0.5764
  429MOL0     H59188   9.300   3.767  11.371 -0.3763  3.4578  0.7858
  429MOL0     H59189   9.216   3.956  11.511  0.7773  0.1732 -2.4087
  429MOL0     H59190   9.111   3.838  11.931  0.4046 -0.2026  0.6697
  429MOL0     H59191   9.125   4.017  11.924  3.3533 -0.9960 -0.6616
  429MOL0     H59192   8.894   3.842  11.829  0.3404  1.5193 -0.1182
  429MOL0     H59193   8.886   4.010  11.795  1.5274 -0.2609 -0.6559
  429MOL0     H59194   8.902   3.921  12.072  0.7971 -1.0323 -0.2090
  429MOL0     H59195   8.940   4.073  12.025  4.2143 -2.7145  2.5697
  429MOL0     H59196   8.667   3.927  11.971 -1.1238  0.2858 -2.9379
  429MOL0     H59197   8.690   4.082  11.901  1.7358  0.0680  0.1480
  429MOL0     H59198   8.568   4.199  12.279  1.5289  1.4680 -0.7917
  429MOL0     H59199   9.114   3.667  11.802 -0.8325 -0.7009 -0.2433
  429MOL0     H59200   9.169   3.382  11.660 -1.1795  0.2457  0.4761
  429MOL0     H59201   9.342   3.420  11.710  0.2110  2.0937 -1.9330
  429MOL0     H59202   9.223   3.462  11.821  5.6626  2.6565  2.0089
  430MOL0     O59203   1.419   2.200   7.112 -0.5969  0.2130 -0.2392
  430MOL0     C59204   1.399   2.113   7.198  0.0845  0.0834 -0.6987
  430MOL0     O59205   1.295   2.117   7.285  0.4146 -0.1960  0.8689
  430MOL0     C59206   1.196   2.214   7.265 -0.1327  0.8142 -0.0851
  430MOL0     C59207   1.058   2.180   7.262 -0.0454  0.8341  0.5942
  430MOL0     C59208   0.957   2.272   7.252 -0.1883  0.2145  0.0768
  430MOL0     C59209   0.980   2.408   7.235  0.1417  0.0633 -0.4571
  430MOL0     O59210   0.878   2.500   7.223  0.4401 -0.6495 -0.1278
  430MOL0     C59211   0.746   2.470   7.181  0.8719 -0.1549 -0.5163
  430MOL0     C59212   0.659   2.600   7.200 -0.0566  0.0295  0.5332
  430MOL0     C59213   0.712   2.733   7.136  0.4518  0.8260  0.1362
  430MOL0     C59214   0.600   2.837   7.160  0.8523  0.0144 -0.0068
  430MOL0     C59215   0.638   2.981   7.108 -0.4680  0.3870  0.0280
  430MOL0     C59216   0.638   2.980   6.952  0.2346 -0.5287 -0.4558
  430MOL0     C59217   0.707   3.102   6.890 -0.3966 -0.6436 -0.0186
  430MOL0     C59218   0.662   3.245   6.952  0.3753 -0.4404 -0.2383
  430MOL0     N59219   0.764   3.349   6.918 -0.2104 -0.3753  0.5030
  430MOL0     C59220   0.736   3.477   6.910 -0.1076  0.4518 -0.3672
  430MOL0     C59221   0.852   3.545   6.929  0.1047  0.8488  0.4353
  430MOL0     C59222   0.879   3.687   6.973 -0.3145  0.1638 -0.3417
  430MOL0     C59223   0.980   3.775   6.890 -0.1378 -0.9665  0.3828
  430MOL0     C59224   0.948   3.786   6.738  0.4969 -0.0052  0.8921
  430MOL0     C59225   1.082   3.753   6.659 -0.4276 -1.0958  0.3703
  430MOL0     O59226   1.200   3.812   6.716  1.1266  0.5078 -0.1711
  430MOL0     C59227   1.311   3.809   6.640  0.2146 -0.1474  0.2639
  430MOL0     C59228   1.320   3.886   6.524 -0.0965  0.6344 -0.0796
  430MOL0     C59229   1.445   3.905   6.464  0.0017 -0.5199 -0.2536
  430MOL0     C59230   1.443   4.007   6.357  0.1406  0.0700 -0.3820
  430MOL0     C59231   1.561   3.840   6.508  0.2537 -0.1374  0.6935
  430MOL0     C59232   1.697   3.864   6.444  0.6642  0.6304  0.4537
  430MOL0     O59233   1.714   3.924   6.328 -0.1169  0.0340 -0.0345
  430MOL0     C59234   1.845   3.948   6.274 -0.3072 -0.7202  0.2960
  430MOL0     C59235   1.953   3.870   6.300  0.0833 -0.1387 -0.0551
  430MOL0     C59236   2.082   3.904   6.255  0.5815  0.2355 -0.6591
  430MOL0     C59237   2.108   4.005   6.157  1.3020 -0.0540 -0.2538
  430MOL0     O59238   2.240   4.028   6.117  0.1653  0.3355 -0.4040
  430MOL0     C59239   2.266   4.080   5.992 -0.4805 -0.5973  0.1235
  430MOL0     C59240   2.323   3.970   5.914  0.4460 -0.3963  0.5850
  430MOL0     C59241   2.274   4.003   5.772 -0.4943 -0.2316 -0.1530
  430MOL0     C59242   2.346   4.128   5.709 -0.7599  0.6965 -0.5589
  430MOL0     C59243   2.317   4.147   5.554 -0.9158 -0.2976 -0.8758
  430MOL0     C59244   2.359   4.032   5.476  0.0091  1.1557  0.6458
  430MOL0     C59245   2.356   4.077   5.333 -0.3904  0.2945  0.6643
  430MOL0     C59246   2.225   4.130   5.290 -0.3735 -0.0753  0.0237
  430MOL0    Cl59247   2.204   4.098   5.119  0.2267  0.2162  0.3878
  430MOL0     C59248   1.994   4.082   6.124  0.1905 -0.8801 -0.1818
  430MOL0     C59249   1.869   4.055   6.190  0.5961 -0.8961  0.3112
  430MOL0     O59250   1.787   3.844   6.529 -0.0438  0.7596  1.6659
  430MOL0     C59251   1.550   3.748   6.620 -0.4147  0.9004 -0.1601
  430MOL0     C59252   1.425   3.737   6.685  0.1893  0.2017  0.1201
  430MOL0     N59253   0.955   3.456   6.925  0.7941 -0.5934  0.0228
  430MOL0     N59254   0.898   3.337   6.918 -0.5007  0.0014 -0.7383
  430MOL0     C59255   1.121   2.441   7.249  0.0598 -0.2655  0.8888
  430MOL0     C59256   1.221   2.350   7.260  0.1173 -0.2137 -0.2036
  430MOL0     C59257   1.494   1.996   7.210 -0.2530 -1.1566 -0.0138
  430MOL0     C59258   1.615   1.992   7.130  0.4634  0.1485  0.1589
  430MOL0     C59259   1.712   1.888   7.132 -0.2564  0.1022 -0.4429
  430MOL0     C59260   1.700   1.795   7.230  0.0559 -0.3611  1.0179
  430MOL0     O59261   1.802   1.704   7.242 -0.1556 -0.5719  0.3466
  430MOL0     C59262   1.860   1.686   7.373  0.4049 -0.2996 -0.4710
  430MOL0     C59263   1.991   1.755   7.383  0.0221  0.6201 -0.2370
  430MOL0     C59264   1.987   1.902   7.414 -0.0428 -0.0711 -0.8759
  430MOL0     C59265   2.134   1.960   7.439  0.4504  0.0277 -0.9881
  430MOL0     C59266   2.189   2.023   7.315 -0.1407  0.3050 -0.2952
  430MOL0     C59267   2.215   2.081   7.209  0.4543  0.4753 -0.1670
  430MOL0     C59268   1.592   1.795   7.313 -0.3937  0.2956  0.3309
  430MOL0     C59269   1.496   1.892   7.314 -0.2397  0.0198  0.6250
  430MOL0     C59270   1.371   1.865   7.410  0.1421  0.8458  0.0504
  430MOL0     H59271   1.034   2.075   7.256  1.4370  0.5059 -0.2801
  430MOL0     H59272   0.857   2.243   7.222 -0.7352  1.2899  0.8142
  430MOL0     H59273   0.694   2.387   7.229  2.1429 -2.1403 -2.3472
  430MOL0     H59274   0.746   2.445   7.074  1.0683  0.2392 -0.6125
  430MOL0     H59275   0.563   2.576   7.153 -0.6073  1.1280  1.0719
  430MOL0     H59276   0.639   2.621   7.305  1.1189  3.0393  0.2488
  430MOL0     H59277   0.810   2.758   7.178  1.3732  0.2493 -1.5677
  430MOL0     H59278   0.729   2.709   7.030  3.2467  0.0473  0.6794
  430MOL0     H59279   0.504   2.813   7.113  1.5416  0.4394 -1.7027
  430MOL0     H59280   0.596   2.840   7.270 -0.5424 -3.1893  0.1452
  430MOL0     H59281   0.739   3.007   7.142 -0.1774  1.8510 -1.7861
  430MOL0     H59282   0.572   3.057   7.150 -2.1261 -0.4094 -1.0459
  430MOL0     H59283   0.681   2.891   6.905 -1.7497 -1.2107 -1.0820
  430MOL0     H59284   0.536   3.001   6.918 -0.2810 -2.8325 -0.5073
  430MOL0     H59285   0.686   3.099   6.783 -0.8145  1.5842 -0.0567
  430MOL0     H59286   0.815   3.092   6.901 -0.4711 -1.6340 -0.1711
  430MOL0     H59287   0.564   3.275   6.912 -1.0479 -0.9219  2.6133
  430MOL0     H59288   0.653   3.235   7.060 -1.3150  1.5033 -0.1173
  430MOL0     H59289   0.639   3.520   6.934 -0.0147  1.5527 -1.7830
  430MOL0     H59290   0.909   3.683   7.078  1.3498  0.0624 -0.7807
  430MOL0     H59291   0.789   3.748   6.979  1.7842  3.8885 -2.5205
  430MOL0     H59292   0.967   3.874   6.934  1.2827 -1.3030  1.6293
  430MOL0     H59293   1.080   3.737   6.915  1.0204  1.2875 -0.5952
  430MOL0     H59294   0.870   3.720   6.698 -0.2846  2.6310 -2.3522
  430MOL0     H59295   0.925   3.889   6.711  0.8828  0.4807  2.3118
  430MOL0     H59296   1.085   3.644   6.663 -1.5805 -1.1412  0.3813
  430MOL0     H59297   1.066   3.790   6.557  0.6450 -1.1098  0.1815
  430MOL0     H59298   1.232   3.941   6.494  0.0533  0.5766 -0.6515
  430MOL0     H59299   1.353   4.068   6.369 -0.2052  0.2853 -3.4468
  430MOL0     H59300   1.444   3.961   6.258 -0.0439 -1.9794  0.5266
  430MOL0     H59301   1.526   4.077   6.342  3.9612 -4.0797 -0.5158
  430MOL0     H59302   1.946   3.790   6.372  3.4818 -0.0549  0.5223
  430MOL0     H59303   2.169   3.850   6.290  0.0274  0.8744  1.9216
  430MOL0     H59304   2.175   4.122   5.950 -0.7939 -1.4605 -0.0795
  430MOL0     H59305   2.340   4.161   6.001  1.7210 -2.6825  2.4416
  430MOL0     H59306   2.430   3.953   5.930  0.4788  2.1120  4.3431
  430MOL0     H59307   2.272   3.873   5.924  2.1479 -1.2256  1.6703
  430MOL0     H59308   2.165   4.014   5.776 -1.0944 -4.6949  1.7242
  430MOL0     H59309   2.281   3.923   5.698 -5.9460  1.6211 -3.2035
  430MOL0     H59310   2.454   4.113   5.714 -0.8085  0.6354  0.7151
  430MOL0     H59311   2.332   4.218   5.770 -2.2650  0.9262 -1.2004
  430MOL0     H59312   2.211   4.171   5.538 -0.3421  4.0920  0.6744
  430MOL0     H59313   2.375   4.235   5.529  2.7732 -2.3664 -0.2652
  430MOL0     H59314   2.282   3.954   5.486  1.7696 -0.9233 -1.0019
  430MOL0     H59315   2.458   3.992   5.500  0.9971  2.4010 -1.1038
  430MOL0     H59316   2.388   3.996   5.266 -0.2604 -0.0848  1.1835
  430MOL0     H59317   2.435   4.150   5.315 -0.4415  0.2723  0.3377
  430MOL0     H59318   2.227   4.238   5.306  2.1237 -0.0403 -0.0748
  430MOL0     H59319   2.147   4.079   5.347 -1.4923  1.3311 -0.1983
  430MOL0     H59320   1.994   4.168   6.058  0.9463 -2.4471 -2.3523
  430MOL0     H59321   1.770   4.101   6.189 -1.2688 -4.4052  2.4687
  430MOL0     H59322   1.635   3.698   6.665  0.8310  1.4087 -1.8427
  430MOL0     H59323   1.416   3.692   6.783  1.7760 -0.8848 -0.2058
  430MOL0     H59324   1.162   2.540   7.233  2.3218 -1.4148 -1.0337
  430MOL0     H59325   1.322   2.388   7.275 -0.0654 -0.2029  1.1542
  430MOL0     H59326   1.629   2.068   7.054  0.8851 -0.6056 -0.5403
  430MOL0     H59327   1.795   1.892   7.062  2.4555  0.4970  2.5443
  430MOL0     H59328   1.797   1.701   7.461 -1.0347 -3.3055 -0.8579
  430MOL0     H59329   1.886   1.580   7.377  1.4545 -0.0159  2.4748
  430MOL0     H59330   2.050   1.746   7.291  1.8684 -0.1151  0.9691
  430MOL0     H59331   2.055   1.711   7.460 -2.2048  1.2843  2.1335
  430MOL0     H59332   1.949   1.948   7.322  1.6160 -1.9167 -2.6013
  430MOL0     H59333   1.910   1.920   7.489 -1.0247 -0.5573 -1.7457
  430MOL0     H59334   2.202   1.886   7.482  0.4676  1.1995  1.1120
  430MOL0     H59335   2.131   2.037   7.517  2.8024  2.6194 -3.2416
  430MOL0     H59336   2.239   2.140   7.123 -3.2769  2.5482 -0.0020
  430MOL0     H59337   1.577   1.704   7.370  2.0338 -0.2728  0.1841
  430MOL0     H59338   1.346   1.957   7.464 -1.0508  0.2090  0.6153
  430MOL0     H59339   1.283   1.826   7.358 -0.5693  0.9541  1.1503
  430MOL0     H59340   1.404   1.798   7.490 -0.6226  0.1559 -0.2031
  431MOL0     O59341   9.745   9.921   0.310  0.2865  0.3370  0.0586
  431MOL0     C59342   9.791   9.848   0.396  0.4103  0.1488  0.8510
  431MOL0     O59343   9.767   9.719   0.413  0.3683 -0.8781  0.0981
  431MOL0     C59344   9.658   9.669   0.339 -0.6592 -0.5264 -0.0870
  431MOL0     C59345   9.573   9.595   0.413  0.6336  0.2196 -0.6594
  431MOL0     C59346   9.464   9.534   0.348  0.1292  0.4016 -0.1380
  431MOL0     C59347   9.449   9.538   0.208  0.2181  0.6639 -0.2410
  431MOL0     O59348   9.343   9.477   0.144  0.4000  0.5211 -0.9886
  431MOL0     C59349   9.301   9.543   0.026  0.1206 -0.3450  0.4031
  431MOL0     C59350   9.146   9.555   0.017 -1.0487  0.0726  0.5949
  431MOL0     C59351   9.092   9.412  -0.031 -0.3800 -1.1236 -0.2734
  431MOL0     C59352   8.965   9.438  -0.115 -0.2841 -0.5317 -0.8256
  431MOL0     C59353   8.876   9.309  -0.142 -0.0489 -0.4294 -0.0756
  431MOL0     C59354   8.944   9.242  -0.265  0.0595 -0.0632  0.3968
  431MOL0     C59355   8.892   9.101  -0.284  0.0297  0.1003  0.1626
  431MOL0     C59356   8.926   8.992  -0.174  0.4442 -0.3511 -0.1003
  431MOL0     N59357   8.804   8.933  -0.114 -0.6917 -0.7274  0.2748
  431MOL0     C59358   8.714   8.875  -0.199 -0.2734 -0.0493 -0.1368
  431MOL0     C59359   8.619   8.821  -0.118  0.4674 -0.1693  0.6047
  431MOL0     C59360   8.499   8.747  -0.175 -0.2533 -0.1620  0.4097
  431MOL0     C59361   8.518   8.595  -0.161 -0.8125  1.0862  0.4197
  431MOL0     C59362   8.405   8.514  -0.217  0.3579 -0.9243 -0.1008
  431MOL0     C59363   8.423   8.366  -0.200  0.9223  0.6651  0.8842
  431MOL0     O59364   8.288   8.307  -0.193  0.9176 -0.5091 -0.4070
  431MOL0     C59365   8.251   8.236  -0.083  0.3708 -0.0215 -0.4682
  431MOL0     C59366   8.114   8.246  -0.038  0.5724 -0.3906  0.0423
  431MOL0     C59367   8.071   8.174   0.078  0.0510  0.8647  0.2355
  431MOL0     C59368   7.933   8.184   0.122 -0.1804 -0.0976  0.5579
  431MOL0     C59369   8.162   8.090   0.148  0.5349 -0.0779  0.4715
  431MOL0     C59370   8.137   8.023   0.278  0.1529 -0.1192  0.5209
  431MOL0     O59371   8.250   8.019   0.358  0.2490 -0.1166  0.3256
  431MOL0     C59372   8.238   7.983   0.491 -0.1647  0.2735 -0.3414
  431MOL0     C59373   8.208   8.091   0.576 -0.0687  0.8090 -0.5212
  431MOL0     C59374   8.205   8.078   0.718 -0.5102 -0.5346  0.3923
  431MOL0     C59375   8.224   7.947   0.770  0.0028  0.5937  1.3840
  431MOL0     O59376   8.216   7.916   0.902  0.0736 -0.3505 -0.2209
  431MOL0     C59377   8.179   8.030   0.982  0.9415  0.5089 -0.6084
  431MOL0     C59378   8.140   7.984   1.128  0.0418 -0.3502 -0.2572
  431MOL0     C59379   8.269   7.966   1.209 -0.1863 -0.3858  0.0516
  431MOL0     C59380   8.370   7.876   1.151 -0.4257 -0.5254 -1.2204
  431MOL0     C59381   8.445   7.790   1.261  0.7773  0.4725  0.5129
  431MOL0     C59382   8.534   7.687   1.192  0.7694 -0.4273  0.3634
  431MOL0     C59383   8.622   7.609   1.288 -0.1346  0.3450  0.2064
  431MOL0     C59384   8.706   7.499   1.216 -0.3705 -0.5843  1.0975
  431MOL0    Cl59385   8.826   7.440   1.327  0.1344  0.3707  0.0129
  431MOL0     C59386   8.262   7.835   0.685  0.3195  0.5806 -0.8772
  431MOL0     C59387   8.269   7.863   0.544  0.4614 -0.7821  0.6691
  431MOL0     O59388   8.027   7.981   0.306  0.3403 -0.1177 -0.0840
  431MOL0     C59389   8.293   8.081   0.091  0.0192  0.0291 -0.9208
  431MOL0     C59390   8.337   8.145  -0.019 -0.0965 -1.1671  0.0332
  431MOL0     N59391   8.647   8.862   0.013  0.0646 -0.2214 -0.1670
  431MOL0     N59392   8.761   8.919   0.008 -0.3668 -1.1431  0.3447
  431MOL0     C59393   9.555   9.608   0.136  0.5633  0.3821  0.2245
  431MOL0     C59394   9.656   9.673   0.203  0.5029  0.0587 -0.2362
  431MOL0     C59395   9.901   9.884   0.475  0.0694  0.1315 -0.1517
  431MOL0     C59396   9.924   9.814   0.599 -0.2034  0.1078  0.3725
  431MOL0     C59397  10.045   9.835   0.666  0.9405  0.2142  0.1049
  431MOL0     C59398  10.123   9.943   0.639 -1.2315  0.2598 -0.2904
  431MOL0     O59399  10.197   9.970   0.747 -1.3299 -0.5369 -0.4041
  431MOL0     C59400  10.273  10.092   0.739  1.5990  0.4386 -0.8138
  431MOL0     C59401  10.358  10.112   0.865 -0.3596  0.0323  0.1557
  431MOL0     C59402  10.273  10.113   0.999 -0.9943 -0.2020  1.0761
  431MOL0     C59403  10.372  10.132   1.120  0.0642  0.6155  0.8184
  431MOL0     C59404  10.467  10.017   1.140 -0.2236 -0.6713  0.3637
  431MOL0     C59405  10.549   9.931   1.158  0.2159  0.0522 -0.2780
  431MOL0     C59406  10.107  10.016   0.525  0.2604 -0.4304  0.4518
  431MOL0     C59407   9.996   9.996   0.440  0.6115  0.1491 -1.0379
  431MOL0     C59408   9.973  10.081   0.326  0.1751 -0.9103  0.0723
  431MOL0     H59409   9.598   9.608   0.517 -0.5843  1.2318 -0.4672
  431MOL0     H59410   9.400   9.483   0.419  3.7146 -4.2328  0.2809
  431MOL0     H59411   9.337   9.497  -0.066 -0.0694 -2.7277  1.4428
  431MOL0     H59412   9.342   9.645   0.026 -3.5575  1.3008  0.4793
  431MOL0     H59413   9.110   9.579   0.118  0.9343  0.0206  1.3562
  431MOL0     H59414   9.110   9.628  -0.056 -3.3657 -0.5978  0.9575
  431MOL0     H59415   9.178   9.362  -0.077  1.5356  0.5259  1.2866
  431MOL0     H59416   9.071   9.365   0.065  2.1798  1.6173  1.8270
  431MOL0     H59417   8.894   9.499  -0.058 -2.2092 -2.3942 -1.1189
  431MOL0     H59418   8.998   9.483  -0.209 -0.2553  1.1525 -0.0495
  431MOL0     H59419   8.774   9.337  -0.167 -0.3934 -2.7749 -1.5562
  431MOL0     H59420   8.869   9.240  -0.057 -1.8171  1.3822  1.3447
  431MOL0     H59421   8.913   9.308  -0.346  2.1797  0.3414 -0.1544
  431MOL0     H59422   9.053   9.243  -0.272 -0.0097  1.7558 -1.2371
  431MOL0     H59423   8.936   9.073  -0.380  2.7569  3.1321  0.3843
  431MOL0     H59424   8.783   9.109  -0.290  0.0782  1.5946  1.0910
  431MOL0     H59425   8.998   8.914  -0.200  1.5873  0.6563 -0.0038
  431MOL0     H59426   8.981   9.036  -0.090  1.6039  0.0312 -1.0510
  431MOL0     H59427   8.714   8.883  -0.307 -2.3421 -0.1349 -0.1766
  431MOL0     H59428   8.478   8.769  -0.280  2.9335  0.1266 -0.2717
  431MOL0     H59429   8.412   8.769  -0.112 -1.4259  0.2557 -1.2986
  431MOL0     H59430   8.606   8.567  -0.219 -1.4262  0.1949 -0.1140
  431MOL0     H59431   8.535   8.551  -0.063  1.2606 -4.6430 -2.0495
  431MOL0     H59432   8.315   8.554  -0.168 -0.4135  0.1811 -2.2964
  431MOL0     H59433   8.387   8.535  -0.322  1.3927 -2.7508 -0.6791
  431MOL0     H59434   8.480   8.321  -0.282 -1.0999  0.6033 -0.5665
  431MOL0     H59435   8.477   8.347  -0.107  0.2957  0.0571  1.1367
  431MOL0     H59436   8.049   8.324  -0.077  0.5730  0.2094  1.1968
  431MOL0     H59437   7.874   8.247   0.054  0.2904 -2.1815 -1.9123
  431MOL0     H59438   7.930   8.233   0.220 -2.5049  1.5573 -0.2342
  431MOL0     H59439   7.877   8.092   0.108  0.7883 -0.5017 -0.8420
  431MOL0     H59440   8.180   8.187   0.534  0.7808  1.7657  1.0343
  431MOL0     H59441   8.175   8.163   0.778 -0.7281 -0.7889  0.6464
  431MOL0     H59442   8.264   8.098   0.993  2.0707 -0.8771 -0.4109
  431MOL0     H59443   8.092   8.090   0.953  1.3982  1.2524 -0.4529
  431MOL0     H59444   8.090   8.069   1.176  2.0110  0.4549  0.4472
  431MOL0     H59445   8.081   7.892   1.119  4.7031 -3.6055 -0.7507
  431MOL0     H59446   8.242   7.941   1.312 -1.2465  3.0775  0.7248
  431MOL0     H59447   8.333   8.051   1.233  1.3296 -0.3909 -3.4243
  431MOL0     H59448   8.443   7.939   1.100  0.9356 -1.4982 -0.5307
  431MOL0     H59449   8.327   7.804   1.081 -0.2245  0.0052 -1.9010
  431MOL0     H59450   8.508   7.845   1.331  1.3649 -2.0317  2.0361
  431MOL0     H59451   8.362   7.731   1.301  1.8510 -0.7267  1.0108
  431MOL0     H59452   8.593   7.737   1.115 -0.5901  0.8871  0.1301
  431MOL0     H59453   8.460   7.623   1.143 -0.2791  0.8008  0.3040
  431MOL0     H59454   8.557   7.558   1.359  0.1128  0.1578  0.2997
  431MOL0     H59455   8.689   7.676   1.344 -3.2775  2.7975  1.3395
  431MOL0     H59456   8.756   7.548   1.132 -1.7640  1.0728  1.1986
  431MOL0     H59457   8.643   7.422   1.170  0.7067  1.3396 -4.3306
  431MOL0     H59458   8.269   7.734   0.725 -2.6292  0.5066 -0.3397
  431MOL0     H59459   8.286   7.776   0.481 -3.9403 -1.3886 -0.0055
  431MOL0     H59460   8.365   8.004   0.119  0.1479  0.5643  0.2640
  431MOL0     H59461   8.443   8.135  -0.041 -0.5395  0.9321 -4.2163
  431MOL0     H59462   9.565   9.605   0.028  1.6108  2.5644  0.2170
  431MOL0     H59463   9.727   9.735   0.149 -0.3999  3.1755  1.9084
  431MOL0     H59464   9.859   9.743   0.649 -0.1015 -1.2147 -1.2976
  431MOL0     H59465  10.066   9.781   0.758 -0.1962  1.1546  0.9618
  431MOL0     H59466  10.340  10.089   0.653  0.1393  3.2219 -2.2001
  431MOL0     H59467  10.203  10.176   0.726  2.0079  1.1995  1.4476
  431MOL0     H59468  10.405  10.210   0.855  3.7897 -1.9238 -2.0648
  431MOL0     H59469  10.437  10.037   0.862  0.7893  1.2386 -2.0061
  431MOL0     H59470  10.210  10.202   1.004  0.0718  0.5904  0.7584
  431MOL0     H59471  10.214  10.020   1.004 -1.6884  0.0926 -0.9168
  431MOL0     H59472  10.312  10.136   1.211  2.0845  0.2075  2.2535
  431MOL0     H59473  10.426  10.226   1.106 -0.9827  0.9403 -1.7609
  431MOL0     H59474  10.617   9.861   1.202  0.4432  0.6391  0.3201
  431MOL0     H59475  10.184  10.088   0.499  2.5149 -3.0467 -0.6705
  431MOL0     H59476   9.987  10.021   0.236  0.4704  0.2692 -0.6891
  431MOL0     H59477   9.875  10.129   0.322  1.8177  3.2745  2.6862
  431MOL0     H59478  10.046  10.162   0.317 -2.3080  1.2933 -1.6139
  432MOL0     O59479   5.625   0.780   0.479  0.4119 -0.0038 -0.4401
  432MOL0     C59480   5.677   0.671   0.445 -0.4720  0.5788  0.6358
  432MOL0     O59481   5.620   0.551   0.446  0.3067 -0.5367  0.6091
  432MOL0     C59482   5.491   0.556   0.493 -0.5493  0.8498  0.8460
  432MOL0     C59483   5.374   0.579   0.410 -0.5120  0.1452  0.2511
  432MOL0     C59484   5.247   0.595   0.454  0.1422 -0.2839 -0.0086
  432MOL0     C59485   5.220   0.584   0.585  0.1685  0.0425 -0.3169
  432MOL0     O59486   5.092   0.600   0.636  0.3671 -0.5318 -0.0623
  432MOL0     C59487   5.049   0.495   0.721 -0.4489  1.0645  0.4470
  432MOL0     C59488   4.897   0.495   0.736 -0.0410 -0.5745 -1.0412
  432MOL0     C59489   4.817   0.509   0.601 -0.6946 -0.9202 -0.0626
  432MOL0     C59490   4.864   0.410   0.488 -0.0113 -0.0463  0.4359
  432MOL0     C59491   4.793   0.427   0.349  0.5860 -0.5849 -0.2394
  432MOL0     C59492   4.853   0.338   0.242 -0.7351  1.0069 -0.3553
  432MOL0     C59493   5.001   0.363   0.220 -0.5950  0.2471 -0.1679
  432MOL0     C59494   5.052   0.260   0.116 -0.4391  0.0984 -0.7134
  432MOL0     N59495   5.197   0.273   0.109  0.3041 -0.1009 -0.4700
  432MOL0     C59496   5.284   0.167   0.106  0.7435  0.3932  1.0486
  432MOL0     C59497   5.403   0.217   0.113 -0.2390  0.6856 -0.4170
  432MOL0     C59498   5.523   0.127   0.132 -0.5055 -0.0862 -0.5532
  432MOL0     C59499   5.645   0.212   0.102 -0.8679 -0.2367  0.4195
  432MOL0     C59500   5.788   0.155   0.133 -0.3473 -0.3876  0.0328
  432MOL0     C59501   5.888   0.197   0.019  0.4524  0.3190 -0.0127
  432MOL0     O59502   5.840   0.134  -0.104 -0.5561  0.3890 -0.6318
  432MOL0     C59503   5.906   0.160  -0.223 -0.4510  0.1507 -0.1289
  432MOL0     C59504   6.031   0.109  -0.251  0.2553 -0.5860 -0.1475
  432MOL0     C59505   6.105   0.138  -0.373 -0.2349  0.8491  1.1005
  432MOL0     C59506   6.252   0.085  -0.381 -0.2489 -0.6893 -0.0845
  432MOL0     C59507   6.041   0.207  -0.482 -0.1266  0.4192 -1.3352
  432MOL0     C59508   6.090   0.228  -0.619 -0.1935 -0.4751  0.3442
  432MOL0     O59509   6.205   0.168  -0.662  0.0843  0.9068 -0.2673
  432MOL0     C59510   6.260   0.193  -0.785  0.3965  0.0212 -0.0827
  432MOL0     C59511   6.183   0.166  -0.899  0.3184  0.1541  0.0800
  432MOL0     C59512   6.228   0.198  -1.030  1.8748  1.2494 -0.1922
  432MOL0     C59513   6.358   0.242  -1.041  0.1602  0.6356 -0.2415
  432MOL0     O59514   6.422   0.266  -1.164 -0.1705 -1.0866  1.0036
  432MOL0     C59515   6.400   0.176  -1.276 -0.4178 -0.6511 -0.8815
  432MOL0     C59516   6.529   0.123  -1.333  0.1186 -0.6144  0.5912
  432MOL0     C59517   6.518   0.041  -1.460 -0.2508 -0.5553 -0.8978
  432MOL0     C59518   6.497   0.118  -1.595  0.0879 -0.3881  0.7860
  432MOL0     C59519   6.496   0.015  -1.709  0.7169  0.1467  0.1557
  432MOL0     C59520   6.409   0.078  -1.824 -1.2797  0.9712  0.5508
  432MOL0     C59521   6.262   0.054  -1.797  0.8309 -0.0744 -0.3494
  432MOL0     C59522   6.193   0.120  -1.918  0.6346  0.4868  1.0412
  432MOL0    Cl59523   6.028   0.056  -1.925  0.3794  0.0939 -0.0796
  432MOL0     C59524   6.435   0.262  -0.921  1.0670 -0.5276  1.0110
  432MOL0     C59525   6.387   0.238  -0.794 -0.3652 -0.9473 -0.4050
  432MOL0     O59526   6.036   0.320  -0.680  0.6043 -0.4354 -0.0104
  432MOL0     C59527   5.916   0.260  -0.443  0.2744 -1.0467  0.0290
  432MOL0     C59528   5.861   0.242  -0.317 -0.3188 -0.0582  1.4299
  432MOL0     N59529   5.390   0.358   0.117 -0.1777  0.2127  0.7748
  432MOL0     N59530   5.268   0.391   0.114 -0.4825 -0.5804 -0.0619
  432MOL0     C59531   5.324   0.555   0.669  0.4716  0.8891 -0.5309
  432MOL0     C59532   5.451   0.536   0.624 -0.3504 -0.6277  0.0730
  432MOL0     C59533   5.825   0.677   0.408 -0.5591  0.7916  0.0034
  432MOL0     C59534   5.869   0.566   0.327 -0.3911 -0.8457 -0.8599
  432MOL0     C59535   5.993   0.562   0.280 -2.0212  0.0663  0.1019
  432MOL0     C59536   6.076   0.681   0.302 -0.1078 -0.0011  0.2293
  432MOL0     O59537   6.203   0.690   0.250 -0.3157  0.1912  0.2202
  432MOL0     C59538   6.260   0.593   0.165 -0.6327  0.5332  0.1546
  432MOL0     C59539   6.409   0.628   0.114  0.9029 -0.1987 -0.4376
  432MOL0     C59540   6.396   0.747   0.007  0.1871  0.8100 -0.9067
  432MOL0     C59541   6.538   0.775  -0.050 -0.4411  0.4523 -0.2973
  432MOL0     C59542   6.623   0.838   0.049  0.4397 -0.6426  0.1406
  432MOL0     C59543   6.696   0.897   0.127  1.4420  0.1695  0.4787
  432MOL0     C59544   6.034   0.788   0.376  0.1276  0.0530 -0.9269
  432MOL0     C59545   5.909   0.787   0.432 -0.6675 -0.3156  0.5493
  432MOL0     C59546   5.858   0.918   0.487  0.6078  0.8031  0.0998
  432MOL0     H59547   5.380   0.571   0.302 -4.8900 -0.6132 -0.1095
  432MOL0     H59548   5.174   0.600   0.374  1.0744  3.7718 -0.8311
  432MOL0     H59549   5.085   0.522   0.821  2.7133  1.4213 -0.6916
  432MOL0     H59550   5.099   0.406   0.683  2.7089  1.9949  2.0758
  432MOL0     H59551   4.866   0.405   0.789 -0.0822 -0.4026 -0.7731
  432MOL0     H59552   4.871   0.575   0.806  2.2452 -0.5281 -0.1577
  432MOL0     H59553   4.711   0.488   0.619 -1.2139  0.8946 -0.7931
  432MOL0     H59554   4.804   0.611   0.563  2.3617 -0.4713 -0.1724
  432MOL0     H59555   4.967   0.440   0.472 -0.2050  0.7160  0.5925
  432MOL0     H59556   4.874   0.307   0.525  2.2119 -1.2793 -3.1104
  432MOL0     H59557   4.775   0.533   0.330 -3.7560 -0.5082  2.8206
  432MOL0     H59558   4.690   0.390   0.354  0.2701  0.2220 -0.5457
  432MOL0     H59559   4.833   0.233   0.264  1.4769  1.0154  2.1688
  432MOL0     H59560   4.814   0.362   0.142  3.3292 -1.1897 -2.7540
  432MOL0     H59561   5.062   0.347   0.310  1.4630 -1.0283 -1.7077
  432MOL0     H59562   5.013   0.467   0.190 -3.4086  0.6018 -0.4134
  432MOL0     H59563   5.036   0.159   0.155  3.1491 -1.1614 -2.0846
  432MOL0     H59564   5.000   0.267   0.020  2.1137  2.0107 -2.0675
  432MOL0     H59565   5.256   0.063   0.118  0.8319  0.5714  3.0570
  432MOL0     H59566   5.533   0.046   0.059  0.3714 -1.1629  0.7237
  432MOL0     H59567   5.531   0.081   0.231  0.1450  2.1679  0.4997
  432MOL0     H59568   5.633   0.238  -0.004 -1.2956 -3.0685 -0.3102
  432MOL0     H59569   5.631   0.308   0.152  1.8707  1.1077 -1.1831
  432MOL0     H59570   5.825   0.201   0.226  0.9585  1.5777 -1.3556
  432MOL0     H59571   5.792   0.046   0.134  1.2770 -0.4109 -1.8765
  432MOL0     H59572   5.894   0.306   0.008  2.2834  0.2945  0.4174
  432MOL0     H59573   5.988   0.166   0.051  1.4130  1.5877 -1.5786
  432MOL0     H59574   6.069   0.035  -0.182  2.5869  0.1245 -0.5845
  432MOL0     H59575   6.289   0.041  -0.288 -1.0477  0.9635  1.0725
  432MOL0     H59576   6.325   0.161  -0.408 -0.4987 -0.0994  0.8708
  432MOL0     H59577   6.242  -0.000  -0.449 -3.9681 -1.5838  1.3125
  432MOL0     H59578   6.081   0.131  -0.887  0.5561 -0.2796  0.9051
  432MOL0     H59579   6.168   0.186  -1.119  0.0479 -1.7085  1.2662
  432MOL0     H59580   6.347   0.087  -1.244  3.0687 -1.8449  2.2885
  432MOL0     H59581   6.349   0.228  -1.358 -1.5972 -0.5032 -0.0788
  432MOL0     H59582   6.588   0.215  -1.333 -1.1360  0.2153  0.8626
  432MOL0     H59583   6.583   0.065  -1.258 -0.3569  2.3376  3.4574
  432MOL0     H59584   6.430  -0.024  -1.452  0.2224 -0.9975  1.2685
  432MOL0     H59585   6.600  -0.032  -1.466 -1.0990 -1.4198 -3.8173
  432MOL0     H59586   6.586   0.181  -1.599 -0.6377  0.6698  0.6469
  432MOL0     H59587   6.416   0.191  -1.589  2.8200  2.7284  4.4856
  432MOL0     H59588   6.597  -0.006  -1.745  0.0716 -1.4506 -0.8606
  432MOL0     H59589   6.448  -0.075  -1.670  1.0839  0.1396  0.5953
  432MOL0     H59590   6.445   0.036  -1.919  1.2623  1.5905  1.1971
  432MOL0     H59591   6.435   0.184  -1.815  0.8073  0.4715  0.8775
  432MOL0     H59592   6.228   0.104  -1.705 -2.7745 -1.5412 -0.7193
  432MOL0     H59593   6.231  -0.051  -1.796  1.3177 -0.2939 -2.8287
  432MOL0     H59594   6.238   0.090  -2.013 -1.3310 -2.0096  0.7745
  432MOL0     H59595   6.193   0.229  -1.914 -2.7425  0.7883 -1.9011
  432MOL0     H59596   6.543   0.274  -0.920  1.1982 -1.5320  2.4757
  432MOL0     H59597   6.446   0.267  -0.708  2.3263 -4.1652 -0.9523
  432MOL0     H59598   5.856   0.313  -0.517 -1.1719 -1.1886  1.0732
  432MOL0     H59599   5.768   0.299  -0.313 -2.8886 -2.7076 -5.2246
  432MOL0     H59600   5.303   0.555   0.776 -1.0924  0.7795 -0.8089
  432MOL0     H59601   5.534   0.519   0.692 -0.4586 -1.6500 -0.0471
  432MOL0     H59602   5.802   0.485   0.300 -5.6362  1.6272  2.9174
  432MOL0     H59603   6.040   0.483   0.222  5.4037  2.2730  2.0204
  432MOL0     H59604   6.264   0.501   0.224 -0.2967  0.0776 -0.5557
  432MOL0     H59605   6.194   0.569   0.082  1.8953  2.4179 -2.6297
  432MOL0     H59606   6.452   0.541   0.063  0.7486 -0.7733  0.3974
  432MOL0     H59607   6.476   0.659   0.194 -1.0654  1.6852  0.5774
  432MOL0     H59608   6.326   0.720  -0.073 -0.9756 -4.1486  1.3624
  432MOL0     H59609   6.354   0.839   0.050  0.1852  0.4712 -0.1692
  432MOL0     H59610   6.543   0.862  -0.116  2.0012 -0.3798 -1.3275
  432MOL0     H59611   6.578   0.687  -0.103  1.5503 -0.0357  1.8751
  432MOL0     H59612   6.746   0.971   0.186 -1.2967  2.3412  0.2866
  432MOL0     H59613   6.100   0.871   0.399 -1.1213  0.0669  3.5268
  432MOL0     H59614   5.790   0.972   0.419 -0.6887  1.6707  1.9938
  432MOL0     H59615   5.819   0.917   0.589 -2.9797  1.5854 -1.0925
  432MOL0     H59616   5.944   0.986   0.483  0.3821  1.2062  1.5717
  433MOL0     O59617   6.989   9.259   0.483  0.1827  0.1934 -0.1688
  433MOL0     C59618   7.006   9.208   0.378  0.5527  0.7723 -0.7005
  433MOL0     O59619   7.097   9.239   0.297 -0.2420  0.5893 -0.1958
  433MOL0     C59620   7.198   9.331   0.320 -0.1984 -0.4558 -0.3554
  433MOL0     C59621   7.219   9.422   0.429 -0.1170  0.0823  0.9258
  433MOL0     C59622   7.320   9.525   0.431 -0.1645 -0.0164  0.7960
  433MOL0     C59623   7.413   9.540   0.323  0.7881 -0.8002 -0.6901
  433MOL0     O59624   7.526   9.614   0.340 -0.3041 -0.4103 -0.2417
  433MOL0     C59625   7.575   9.658   0.466 -0.5368  0.4175 -0.5657
  433MOL0     C59626   7.720   9.693   0.467 -0.0424 -0.6380  1.3568
  433MOL0     C59627   7.813   9.561   0.443  0.5790 -0.2385  0.3015
  433MOL0     C59628   7.944   9.624   0.499 -0.2862  1.1465  0.5902
  433MOL0     C59629   8.044   9.518   0.517 -0.4787 -0.2724 -0.5677
  433MOL0     C59630   8.195   9.559   0.532  1.0453  0.2184  0.2572
  433MOL0     C59631   8.269   9.435   0.592 -0.2788  0.4663 -0.3223
  433MOL0     C59632   8.422   9.402   0.549 -0.9781  0.2620 -0.0957
  433MOL0     N59633   8.510   9.380   0.665  1.0026 -0.4872 -0.1969
  433MOL0     C59634   8.595   9.465   0.733  0.5739  0.6694  0.3224
  433MOL0     C59635   8.659   9.398   0.826 -0.3218  0.5161 -0.4314
  433MOL0     C59636   8.781   9.450   0.906 -0.1377  0.2716 -0.5744
  433MOL0     C59637   8.904   9.442   0.805 -0.2505  0.2564 -0.4271
  433MOL0     C59638   9.034   9.502   0.873  0.2427 -0.7359 -0.3207
  433MOL0     C59639   9.149   9.514   0.772  0.0751 -0.1552 -0.9231
  433MOL0     O59640   9.255   9.580   0.833 -0.6771 -0.1226  0.3339
  433MOL0     C59641   9.312   9.695   0.781 -0.1961  0.1986  0.4498
  433MOL0     C59642   9.311   9.730   0.634 -0.2782 -0.9495  0.1602
  433MOL0     C59643   9.368   9.848   0.578 -0.4866 -0.7693 -0.1677
  433MOL0     C59644   9.340   9.888   0.438  0.1673  0.2598 -0.0457
  433MOL0     C59645   9.425   9.940   0.670  0.1441 -0.2568  0.0231
  433MOL0     C59646   9.471  10.075   0.629 -0.4276 -0.1484  0.1254
  433MOL0     O59647   9.401  10.149   0.538 -0.0048 -0.6158  0.5459
  433MOL0     C59648   9.453  10.258   0.470 -0.0183 -0.2489 -0.3905
  433MOL0     C59649   9.353  10.328   0.413 -0.0689  0.9263 -0.2172
  433MOL0     C59650   9.385  10.445   0.337 -0.4146 -0.0287 -0.3801
  433MOL0     C59651   9.517  10.497   0.341  0.7342 -0.2396 -0.0558
  433MOL0     O59652   9.545  10.613   0.270 -0.9812  0.4717 -0.3743
  433MOL0     C59653   9.666  10.690   0.288 -0.0109  0.2749  0.0990
  433MOL0     C59654   9.634  10.843   0.270 -0.7262  0.0432 -0.3316
  433MOL0     C59655   9.762  10.927   0.303 -0.1241  0.1679 -0.6494
  433MOL0     C59656   9.726  11.080   0.312 -0.4223 -0.4762 -0.3506
  433MOL0     C59657   9.838  11.162   0.374  0.1060 -1.3408 -0.6191
  433MOL0     C59658   9.789  11.309   0.392 -0.0510 -0.3631 -0.7191
  433MOL0     C59659   9.913  11.397   0.425 -0.1708 -0.9413 -0.4926
  433MOL0     C59660   9.925  11.453   0.571 -1.2180 -0.1383  0.2019
  433MOL0    Cl59661   9.801  11.572   0.600 -0.4550 -0.3953  0.4413
  433MOL0     C59662   9.619  10.423   0.402 -0.5750 -0.6884 -0.5113
  433MOL0     C59663   9.586  10.298   0.453  0.4785  0.5256  0.7438
  433MOL0     O59664   9.569  10.117   0.694  0.1763 -0.4442  0.0428
  433MOL0     C59665   9.426   9.906   0.809 -0.5162 -0.7304 -0.0016
  433MOL0     C59666   9.370   9.787   0.863  0.6112 -0.6540  0.4657
  433MOL0     N59667   8.607   9.269   0.828 -0.1760 -0.7099  0.2597
  433MOL0     N59668   8.522   9.259   0.728  0.2434 -1.0463  0.2809
  433MOL0     C59669   7.395   9.444   0.218  0.2952 -0.0790  0.1992
  433MOL0     C59670   7.291   9.342   0.220  0.3376 -0.8163 -0.0736
  433MOL0     C59671   6.938   9.090   0.351 -0.4182 -0.8683  0.2783
  433MOL0     C59672   6.996   8.981   0.276  1.3448  0.0861  0.8267
  433MOL0     C59673   6.954   8.841   0.280 -0.5323 -0.5834  0.1162
  433MOL0     C59674   6.832   8.816   0.332  0.3143 -0.1266  0.5177
  433MOL0     O59675   6.778   8.687   0.336  0.2666  0.1984 -0.2377
  433MOL0     C59676   6.856   8.577   0.302  0.8531  0.1767  0.4732
  433MOL0     C59677   6.794   8.446   0.345  0.8467  0.7165 -0.1459
  433MOL0     C59678   6.669   8.404   0.269 -0.3647 -0.1289  0.3776
  433MOL0     C59679   6.589   8.277   0.314 -0.0897 -0.4003 -0.3245
  433MOL0     C59680   6.496   8.223   0.223  0.2439 -0.9381 -0.0223
  433MOL0     C59681   6.424   8.157   0.146 -0.2537  0.6074  0.5576
  433MOL0     C59682   6.753   8.920   0.382  0.2666  0.5720 -1.1766
  433MOL0     C59683   6.802   9.057   0.397 -0.0262 -0.5975 -0.0704
  433MOL0     C59684   6.710   9.164   0.459  0.0558  0.4989 -0.3709
  433MOL0     H59685   7.157   9.418   0.518  0.6278  3.2648  1.7092
  433MOL0     H59686   7.306   9.595   0.513  0.6629  0.3221  0.6520
  433MOL0     H59687   7.572   9.566   0.525 -0.2889  0.0352 -1.1426
  433MOL0     H59688   7.519   9.739   0.515  0.8369  1.8550 -1.2813
  433MOL0     H59689   7.728   9.779   0.400 -2.6848 -0.1013  1.6079
  433MOL0     H59690   7.743   9.737   0.565  0.8185  0.5069  0.6606
  433MOL0     H59691   7.780   9.487   0.516 -1.0562  0.4411  0.2861
  433MOL0     H59692   7.823   9.525   0.341  2.1387  2.8577 -0.7714
  433MOL0     H59693   7.980   9.700   0.429 -2.8341  1.8262 -0.1200
  433MOL0     H59694   7.928   9.667   0.598 -0.6533  1.3478  0.4489
  433MOL0     H59695   8.049   9.443   0.438  4.4544 -1.4609  0.5592
  433MOL0     H59696   8.017   9.460   0.607 -1.3140 -2.6119 -2.2195
  433MOL0     H59697   8.237   9.582   0.434 -0.3084 -1.0535 -0.6633
  433MOL0     H59698   8.203   9.648   0.595  1.1134 -0.3315  1.0444
  433MOL0     H59699   8.210   9.347   0.566 -0.6275 -0.0395  1.9882
  433MOL0     H59700   8.257   9.444   0.700 -3.3782  1.9944 -0.6817
  433MOL0     H59701   8.426   9.310   0.491  0.7482 -0.1475  0.6200
  433MOL0     H59702   8.473   9.473   0.482 -1.8396 -0.4015 -1.4862
  433MOL0     H59703   8.619   9.568   0.707 -1.9297  0.8629 -1.5436
  433MOL0     H59704   8.800   9.389   0.994  2.4794 -2.3249 -2.7448
  433MOL0     H59705   8.768   9.552   0.945  0.1013 -0.2316  0.8567
  433MOL0     H59706   8.934   9.340   0.779  3.4131  0.6687  1.5627
  433MOL0     H59707   8.875   9.508   0.722 -0.5969 -2.3221 -2.5104
  433MOL0     H59708   9.018   9.596   0.925 -0.3600 -1.6124  1.1429
  433MOL0     H59709   9.057   9.432   0.953  2.0080  2.0468  1.7654
  433MOL0     H59710   9.191   9.414   0.760  2.9530 -0.0508  4.8056
  433MOL0     H59711   9.114   9.561   0.680 -0.4439  3.4239  0.9287
  433MOL0     H59712   9.255   9.669   0.565 -1.0172 -1.3546  1.0935
  433MOL0     H59713   9.403   9.969   0.399  1.4338 -0.2683  0.8232
  433MOL0     H59714   9.237   9.920   0.422  0.2254 -1.0510 -4.2230
  433MOL0     H59715   9.366   9.804   0.372  1.5013  0.3105  0.3927
  433MOL0     H59716   9.256  10.283   0.425  0.9249 -1.6798 -1.2619
  433MOL0     H59717   9.301  10.498   0.295 -0.7902 -1.3700 -1.3839
  433MOL0     H59718   9.714  10.666   0.383 -0.7471 -2.4244 -0.1249
  433MOL0     H59719   9.742  10.658   0.217 -1.2831 -0.7582 -0.8517
  433MOL0     H59720   9.617  10.840   0.162  1.4738  0.7879 -0.7462
  433MOL0     H59721   9.547  10.869   0.331 -0.4589 -0.0222  0.0822
  433MOL0     H59722   9.845  10.922   0.231  1.2001 -5.4097  0.7768
  433MOL0     H59723   9.799  10.889   0.398  0.1438  3.3846  0.6609
  433MOL0     H59724   9.640  11.079   0.379  0.2452 -3.2025  0.5801
  433MOL0     H59725   9.696  11.104   0.209 -1.9946 -1.6394 -0.2001
  433MOL0     H59726   9.877  11.115   0.464 -1.3398 -1.2435  0.0783
  433MOL0     H59727   9.915  11.176   0.297 -0.3850  0.6065 -0.8235
  433MOL0     H59728   9.714  11.303   0.472 -1.8337  0.5291 -2.2407
  433MOL0     H59729   9.728  11.353   0.312 -1.7897  1.5805  1.4920
  433MOL0     H59730   9.908  11.488   0.364  0.8963  0.3329  1.2112
  433MOL0     H59731  10.012  11.351   0.422  1.5853  2.4737 -0.1369
  433MOL0     H59732  10.027  11.488   0.588 -0.6343 -1.2079 -0.9644
  433MOL0     H59733   9.910  11.379   0.651 -1.1675  2.6092  2.9310
  433MOL0     H59734   9.724  10.451   0.395 -0.5259 -1.2224 -2.3702
  433MOL0     H59735   9.660  10.227   0.488 -2.6283 -3.0575  0.6933
  433MOL0     H59736   9.468   9.978   0.878  3.2283 -2.3404 -0.3838
  433MOL0     H59737   9.375   9.768   0.970 -0.8413 -0.0689  0.6635
  433MOL0     H59738   7.465   9.454   0.136 -0.8900  1.2508 -0.6797
  433MOL0     H59739   7.274   9.290   0.127 -0.0818  2.7497 -2.1558
  433MOL0     H59740   7.081   9.016   0.219 -0.1536  1.7540 -0.5342
  433MOL0     H59741   7.024   8.778   0.225  0.0972  0.0821  0.1436
  433MOL0     H59742   6.858   8.572   0.193 -1.9993 -1.6856  0.3924
  433MOL0     H59743   6.954   8.592   0.348  1.2011 -1.1278  0.2056
  433MOL0     H59744   6.776   8.457   0.452  0.9756  1.8653 -0.2337
  433MOL0     H59745   6.872   8.371   0.330 -1.0108 -1.9965  2.5722
  433MOL0     H59746   6.598   8.487   0.263  0.4079  0.5089  0.0555
  433MOL0     H59747   6.707   8.387   0.168 -0.7523 -4.1204  0.7139
  433MOL0     H59748   6.535   8.316   0.402  0.4982 -0.6146  0.1386
  433MOL0     H59749   6.655   8.196   0.346  0.2925  0.0608  0.0631
  433MOL0     H59750   6.392   8.082   0.076  1.4868 -0.2941  0.6747
  433MOL0     H59751   6.649   8.899   0.405  0.2586  1.0011 -0.7959
  433MOL0     H59752   6.731   9.256   0.404  1.7922  0.2572 -0.1917
  433MOL0     H59753   6.606   9.136   0.443 -0.0612  2.5619 -4.5646
  433MOL0     H59754   6.737   9.186   0.563 -2.2767  5.4845 -0.5457
  434MOL0     O59755  10.641   1.821   0.528 -0.1784  0.7416 -0.5290
  434MOL0     C59756  10.632   1.911   0.608 -0.9638  0.3804 -0.5256
  434MOL0     O59757  10.521   1.981   0.639 -0.1468  0.1714 -0.3083
  434MOL0     C59758  10.390   1.951   0.609 -0.2144  0.5149  0.2025
  434MOL0     C59759  10.294   2.016   0.688  0.5672 -0.0220  1.1414
  434MOL0     C59760  10.159   1.977   0.677 -0.5495 -0.7647  0.9292
  434MOL0     C59761  10.116   1.885   0.571 -0.2930 -0.1427  1.0174
  434MOL0     O59762   9.989   1.847   0.555  0.0622 -0.1994 -0.3492
  434MOL0     C59763   9.954   1.715   0.606  0.4806 -1.0081 -0.3420
  434MOL0     C59764   9.928   1.722   0.764  0.0070  0.0477  0.4031
  434MOL0     C59765   9.865   1.593   0.824 -0.1606 -0.9513  0.1846
  434MOL0     C59766   9.852   1.590   0.977 -0.4232 -0.5835 -0.2079
  434MOL0     C59767   9.878   1.450   1.046 -0.7558 -0.1079 -0.0728
  434MOL0     C59768   9.842   1.447   1.193  0.2361 -0.1385  0.3599
  434MOL0     C59769   9.697   1.441   1.241  0.4828  0.1289 -0.9054
  434MOL0     C59770   9.675   1.426   1.392 -0.0474 -0.1697  0.6731
  434MOL0     N59771   9.727   1.293   1.435 -0.4482 -0.5755  0.1578
  434MOL0     C59772   9.856   1.264   1.473  0.0471  0.4768  0.1193
  434MOL0     C59773   9.859   1.130   1.480 -0.1898 -0.1441 -0.1963
  434MOL0     C59774   9.992   1.046   1.512 -0.1945 -0.1543  0.0667
  434MOL0     C59775   9.987   0.895   1.536  0.7254  0.2429 -0.1047
  434MOL0     C59776   9.935   0.803   1.422  0.4146 -0.2191 -1.3057
  434MOL0     C59777  10.047   0.701   1.395  0.6531 -0.2847  0.0314
  434MOL0     O59778  10.158   0.771   1.327 -0.0762  0.7426 -0.2836
  434MOL0     C59779  10.283   0.703   1.325 -0.2540 -0.5490 -0.3349
  434MOL0     C59780  10.314   0.588   1.393  0.2516  0.6507  0.7697
  434MOL0     C59781  10.445   0.531   1.394 -0.3156 -0.2730  0.7991
  434MOL0     C59782  10.452   0.400   1.472 -0.3275 -0.2949 -0.5243
  434MOL0     C59783  10.557   0.602   1.336  0.6983  0.1899 -0.7438
  434MOL0     C59784  10.697   0.560   1.356  0.0721 -0.0739 -0.6007
  434MOL0     O59785  10.718   0.449   1.429 -0.2727 -0.3473  0.2258
  434MOL0     C59786  10.839   0.389   1.445 -0.5784 -0.6133 -0.5823
  434MOL0     C59787  10.918   0.347   1.347  1.4100  0.8045  0.3314
  434MOL0     C59788  11.037   0.272   1.364 -0.8558  0.2610  0.7669
  434MOL0     C59789  11.098   0.291   1.495 -0.0649 -0.8308 -0.0472
  434MOL0     O59790  11.230   0.268   1.535 -0.4020  0.5580 -0.1869
  434MOL0     C59791  11.325   0.363   1.473 -0.4189 -1.1456 -0.5635
  434MOL0     C59792  11.457   0.336   1.547  0.5447  0.1328  0.5050
  434MOL0     C59793  11.559   0.451   1.538 -0.0718  0.4278 -0.3644
  434MOL0     C59794  11.684   0.419   1.620  0.9362  0.5500  0.3733
  434MOL0     C59795  11.814   0.508   1.584 -0.0878  0.2240  0.2405
  434MOL0     C59796  11.883   0.561   1.715 -0.0040 -0.3729  0.1287
  434MOL0     C59797  11.947   0.449   1.798 -0.5982  0.1551 -0.3798
  434MOL0     C59798  11.881   0.438   1.942 -0.6201 -0.2239 -0.5152
  434MOL0    Cl59799  12.004   0.363   2.044  0.1773  0.0289  0.6540
  434MOL0     C59800  11.009   0.347   1.591 -0.4845  0.5061  1.5404
  434MOL0     C59801  10.881   0.390   1.572 -0.2860  0.4343  0.7578
  434MOL0     O59802  10.787   0.614   1.289  1.0051 -0.6360 -0.0969
  434MOL0     C59803  10.527   0.722   1.264  0.0944 -0.4319 -0.2688
  434MOL0     C59804  10.390   0.768   1.252  0.9077  0.6980 -0.2223
  434MOL0     N59805   9.725   1.077   1.455 -0.4719 -0.5819  0.2641
  434MOL0     N59806   9.649   1.185   1.433 -0.1087  1.3280 -0.6155
  434MOL0     C59807  10.218   1.828   0.494  0.5673 -0.3887 -0.4147
  434MOL0     C59808  10.351   1.867   0.512  0.2717  0.6655  0.1940
  434MOL0     C59809  10.754   1.960   0.682  0.7323  1.4567 -0.5493
  434MOL0     C59810  10.761   2.099   0.717  0.0561 -0.0620  0.3647
  434MOL0     C59811  10.880   2.134   0.787 -0.9570 -1.2073  0.3775
  434MOL0     C59812  10.978   2.046   0.817 -0.5952  0.8215 -0.0834
  434MOL0     O59813  11.097   2.070   0.880  0.2797 -0.6950 -0.5042
  434MOL0     C59814  11.099   2.160   0.993  0.3051  0.6322  0.6170
  434MOL0     C59815  11.040   2.102   1.128 -0.1104 -0.2760  0.1460
  434MOL0     C59816  11.122   1.984   1.196  1.4292 -1.2640  0.8704
  434MOL0     C59817  11.130   1.856   1.109  0.2711 -0.2240 -0.2942
  434MOL0     C59818  11.196   1.746   1.185  0.4525  0.4584  0.3697
  434MOL0     C59819  11.265   1.668   1.248  0.4300  0.5277  0.3025
  434MOL0     C59820  10.973   1.916   0.780  0.4479  0.9587  0.5314
  434MOL0     C59821  10.864   1.868   0.707 -0.0517 -0.2808  0.5308
  434MOL0     C59822  10.864   1.722   0.670  0.3901  0.1820  0.9404
  434MOL0     H59823  10.311   2.096   0.758  3.0839  0.7984 -0.2483
  434MOL0     H59824  10.091   2.037   0.738  1.5989 -0.9198  3.6774
  434MOL0     H59825  10.030   1.643   0.576  2.1729  0.4684  0.2652
  434MOL0     H59826   9.860   1.692   0.555  0.1316  0.3339 -0.3364
  434MOL0     H59827  10.020   1.759   0.812  0.9609 -0.8243 -0.6928
  434MOL0     H59828   9.855   1.802   0.780 -0.0699 -0.0398  0.4855
  434MOL0     H59829   9.761   1.580   0.791 -0.6579 -1.5575  1.8773
  434MOL0     H59830   9.919   1.505   0.789  0.9935 -0.6138  1.0791
  434MOL0     H59831   9.934   1.653   1.012  3.1261 -4.8112 -0.1258
  434MOL0     H59832   9.749   1.618   1.001 -0.1618 -0.0759  0.3401
  434MOL0     H59833   9.983   1.421   1.034 -0.8325 -1.5215  2.1854
  434MOL0     H59834   9.819   1.374   0.994 -0.2359 -1.0379  0.6788
  434MOL0     H59835   9.885   1.357   1.237 -2.5571 -0.5639  2.5173
  434MOL0     H59836   9.893   1.536   1.232 -2.7852  2.8526 -1.9309
  434MOL0     H59837   9.644   1.353   1.205  1.4823 -1.8346  2.0795
  434MOL0     H59838   9.656   1.541   1.219  2.2043  1.2630  0.7091
  434MOL0     H59839   9.719   1.505   1.454 -1.1932 -0.2313  1.5975
  434MOL0     H59840   9.569   1.444   1.409  0.5634  4.7118  0.6914
  434MOL0     H59841   9.933   1.339   1.490  0.0241  1.0510 -2.0544
  434MOL0     H59842  10.025   1.081   1.610 -2.0003 -3.3200  2.0078
  434MOL0     H59843  10.065   1.067   1.433 -1.5944 -0.6360 -1.3974
  434MOL0     H59844  10.088   0.864   1.564  1.2039  1.9854  0.2161
  434MOL0     H59845   9.915   0.880   1.617 -0.1373  1.1450 -0.6737
  434MOL0     H59846   9.855   0.737   1.458  3.1206 -2.6835  0.6653
  434MOL0     H59847   9.902   0.859   1.334  4.1043  1.1178 -2.0311
  434MOL0     H59848  10.087   0.665   1.490  4.1477  0.6574 -0.9324
  434MOL0     H59849  10.009   0.622   1.331  0.4491  0.2407 -0.5026
  434MOL0     H59850  10.229   0.541   1.442 -3.3190  2.9112 -2.6527
  434MOL0     H59851  10.532   0.396   1.547 -0.9828 -1.8273  0.1347
  434MOL0     H59852  10.480   0.319   1.404  0.7198  1.0549 -1.7677
  434MOL0     H59853  10.357   0.374   1.518 -1.1358  1.5761 -1.0651
  434MOL0     H59854  10.873   0.373   1.252  2.7435 -0.3238 -0.6559
  434MOL0     H59855  11.084   0.228   1.277 -1.0114 -1.4005  1.4820
  434MOL0     H59856  11.345   0.338   1.368  1.2575 -2.7259  0.0810
  434MOL0     H59857  11.308   0.471   1.479  2.4249 -0.5220 -1.8871
  434MOL0     H59858  11.430   0.331   1.653  5.3442 -1.9949  1.8948
  434MOL0     H59859  11.497   0.237   1.523 -0.9781 -0.7292  1.3401
  434MOL0     H59860  11.508   0.545   1.561 -2.3216 -1.1060  1.3067
  434MOL0     H59861  11.597   0.473   1.437  1.5011  1.1985  0.3584
  434MOL0     H59862  11.703   0.313   1.601 -2.2842 -0.3525  1.4710
  434MOL0     H59863  11.674   0.425   1.729 -1.1461 -1.6324  0.3866
  434MOL0     H59864  11.875   0.447   1.517 -1.3984 -1.0914  0.1716
  434MOL0     H59865  11.786   0.587   1.514 -0.6800  0.2224  0.4644
  434MOL0     H59866  11.813   0.607   1.784 -0.2662  0.1519 -0.4824
  434MOL0     H59867  11.963   0.631   1.690 -0.4903 -0.1387 -0.7698
  434MOL0     H59868  12.052   0.469   1.817 -1.0166  1.3794  0.7555
  434MOL0     H59869  11.944   0.348   1.754 -0.8760  0.4979 -1.1674
  434MOL0     H59870  11.782   0.393   1.956 -2.7235  4.6500  3.2048
  434MOL0     H59871  11.855   0.536   1.982  1.0615 -0.4575  1.2808
  434MOL0     H59872  11.045   0.351   1.694  1.0848  0.6668  1.0044
  434MOL0     H59873  10.813   0.441   1.639 -1.9093 -0.6549 -0.0066
  434MOL0     H59874  10.609   0.783   1.229  1.4680 -1.1914  1.4523
  434MOL0     H59875  10.376   0.846   1.179 -0.1586  0.3268 -0.4341
  434MOL0     H59876  10.196   1.748   0.425  1.5940 -2.0137  1.0499
  434MOL0     H59877  10.421   1.798   0.467  1.1925  2.7633 -1.7452
  434MOL0     H59878  10.682   2.172   0.698  0.0728  0.9145  3.5449
  434MOL0     H59879  10.882   2.237   0.821 -1.3186 -1.6329  1.7702
  434MOL0     H59880  11.202   2.193   1.010 -0.1763  2.5078  0.0947
  434MOL0     H59881  11.040   2.246   0.961 -0.4001 -0.5249 -1.4011
  434MOL0     H59882  10.937   2.068   1.112  0.2276  0.2598 -4.6182
  434MOL0     H59883  11.034   2.185   1.200  2.6746  0.4852 -0.4030
  434MOL0     H59884  11.225   2.015   1.215  0.3589  1.8162  2.3489
  434MOL0     H59885  11.065   1.973   1.289  2.4564 -0.6770  1.5912
  434MOL0     H59886  11.184   1.882   1.018 -1.0848  2.3739 -0.4450
  434MOL0     H59887  11.034   1.828   1.066 -0.6590 -0.0102  1.5428
  434MOL0     H59888  11.322   1.591   1.295  1.0265 -0.8086 -2.3973
  434MOL0     H59889  11.052   1.846   0.806  2.5895  1.3326 -3.9130
  434MOL0     H59890  10.866   1.710   0.562  3.3787  1.9030  0.7133
  434MOL0     H59891  10.955   1.667   0.697  0.0072 -0.3620  1.1427
  434MOL0     H59892  10.779   1.673   0.719 -1.0830 -0.4669 -2.0684
  435MOL0     O59893   8.354   9.947  11.391  0.3163 -0.1555  0.4214
  435MOL0     C59894   8.436   9.972  11.478 -0.3694 -0.1135 -0.7944
  435MOL0     O59895   8.536   9.880  11.522 -0.3089  0.1669 -0.1908
  435MOL0     C59896   8.555   9.774  11.435  0.0617  0.6431  0.2203
  435MOL0     C59897   8.444   9.686  11.440 -0.0946  0.3654 -0.1455
  435MOL0     C59898   8.455   9.570  11.364  0.0355  0.6027 -0.7613
  435MOL0     C59899   8.571   9.526  11.307  0.2196 -0.4408 -0.7710
  435MOL0     O59900   8.585   9.395  11.261 -0.8618 -0.4978 -0.3787
  435MOL0     C59901   8.602   9.372  11.121  0.1899  0.6517 -0.6038
  435MOL0     C59902   8.547   9.479  11.032  1.1280 -0.0351 -0.4472
  435MOL0     C59903   8.390   9.479  11.021  0.4267  0.9227 -0.6800
  435MOL0     C59904   8.345   9.601  10.948  0.3971  0.0060 -0.2137
  435MOL0     C59905   8.191   9.623  10.933  0.3357 -0.1258  0.0918
  435MOL0     C59906   8.151   9.736  10.835 -0.1523 -0.5451  0.3515
  435MOL0     C59907   8.182   9.879  10.884  0.5971  0.4860 -0.8432
  435MOL0     C59908   8.139   9.924  11.024 -0.7800 -0.2363  1.3848
  435MOL0     N59909   7.992   9.925  11.041 -0.0010 -0.3403 -0.1071
  435MOL0     C59910   7.903   9.970  10.952  0.7898 -0.0404  0.2602
  435MOL0     C59911   7.778   9.970  11.012 -0.5805 -0.4504 -0.1782
  435MOL0     C59912   7.643  10.006  10.951 -0.6727  0.3407 -0.5936
  435MOL0     C59913   7.541   9.898  10.955  0.2270  0.5254 -0.6027
  435MOL0     C59914   7.488   9.865  10.811  0.2683 -0.4419 -0.1788
  435MOL0     C59915   7.598   9.786  10.735  0.6122  0.1293 -1.1859
  435MOL0     O59916   7.653   9.884  10.647 -0.0991 -0.3922 -0.1323
  435MOL0     C59917   7.787   9.869  10.613  0.1783 -0.8524  0.0915
  435MOL0     C59918   7.859   9.988  10.601  0.5153  0.7533  1.1097
  435MOL0     C59919   7.993   9.983  10.552 -0.6072  0.6455  0.0897
  435MOL0     C59920   8.066  10.119  10.551 -0.1540  0.5918 -0.3700
  435MOL0     C59921   8.051   9.855  10.534  0.6429  0.1927 -0.7682
  435MOL0     C59922   8.199   9.842  10.498  1.0058 -0.8044  1.1229
  435MOL0     O59923   8.230   9.716  10.473 -0.9403  0.8317 -1.0228
  435MOL0     C59924   8.362   9.698  10.420 -0.3454 -0.2555 -0.4782
  435MOL0     C59925   8.387   9.699  10.276  0.6169 -0.0044 -0.4687
  435MOL0     C59926   8.520   9.689  10.230 -0.7872 -0.2747 -0.0148
  435MOL0     C59927   8.621   9.665  10.315  1.1179 -0.1603  0.9969
  435MOL0     O59928   8.754   9.654  10.273 -0.0960  0.8247 -0.1575
  435MOL0     C59929   8.787   9.540  10.184 -0.0656 -0.6750  0.8673
  435MOL0     C59930   8.812   9.412  10.255 -0.8119 -0.3691 -0.0669
  435MOL0     C59931   8.707   9.354  10.345 -0.5197  0.6306  1.0986
  435MOL0     C59932   8.759   9.248  10.441 -0.3990 -0.1092 -0.1052
  435MOL0     C59933   8.798   9.121  10.363  0.8194 -0.4499 -0.7485
  435MOL0     C59934   8.853   9.014  10.460 -0.4239 -0.0669  0.4766
  435MOL0     C59935   8.866   8.882  10.391  0.2627  0.0457 -0.5694
  435MOL0     C59936   8.975   8.873  10.285  0.6751 -0.0365  0.4544
  435MOL0    Cl59937   9.137   8.939  10.332  0.1336  0.8480  0.0629
  435MOL0     C59938   8.599   9.671  10.459 -0.5081 -0.3737 -0.8928
  435MOL0     C59939   8.472   9.697  10.509  0.7255  1.8898 -0.5403
  435MOL0     O59940   8.265   9.943  10.471  0.4646 -0.5787  0.1368
  435MOL0     C59941   7.967   9.739  10.540  0.7820  0.5764 -0.2284
  435MOL0     C59942   7.834   9.750  10.576  0.7430 -0.3913 -0.4127
  435MOL0     N59943   7.806   9.919  11.135 -0.1512  0.5474 -0.8770
  435MOL0     N59944   7.932   9.900  11.158  0.5257  0.1869 -0.3342
  435MOL0     C59945   8.681   9.614  11.318 -0.1828  0.6637  0.8240
  435MOL0     C59946   8.668   9.732  11.383  0.1562 -0.4930  0.4843
  435MOL0     C59947   8.429  10.097  11.550  0.1450 -1.0319  0.1229
  435MOL0     C59948   8.479  10.099  11.682  0.4328 -0.5266  0.4384
  435MOL0     C59949   8.498  10.218  11.764  0.0353  0.2611  0.6331
  435MOL0     C59950   8.455  10.338  11.713 -0.1425  0.6130  0.9505
  435MOL0     O59951   8.478  10.452  11.781  0.1178  0.6462  0.1268
  435MOL0     C59952   8.359  10.523  11.831 -0.0965 -0.4120  0.6121
  435MOL0     C59953   8.321  10.637  11.741  0.5357  0.4668 -1.1458
  435MOL0     C59954   8.431  10.753  11.738  0.3342  0.3518 -0.0404
  435MOL0     C59955   8.383  10.882  11.660 -0.9285  1.2294  0.1158
  435MOL0     C59956   8.491  10.989  11.649  0.7357 -0.5074 -0.7563
  435MOL0     C59957   8.556  11.088  11.664 -0.3556  0.3797  0.8678
  435MOL0     C59958   8.391  10.331  11.587  0.5867 -0.8158 -0.4532
  435MOL0     C59959   8.382  10.225  11.506 -0.0966 -0.0874  0.3501
  435MOL0     C59960   8.335  10.246  11.361 -0.7830  0.8401 -0.1239
  435MOL0     H59961   8.366   9.698  11.515 -0.7449 -1.0563 -0.5570
  435MOL0     H59962   8.381   9.492  11.375 -0.4842  1.2871  0.8095
  435MOL0     H59963   8.545   9.279  11.119 -2.6301  2.1139  2.2861
  435MOL0     H59964   8.706   9.356  11.090  0.0227  0.7515 -1.2369
  435MOL0     H59965   8.581   9.576  11.071 -1.6970  1.0909 -0.5849
  435MOL0     H59966   8.581   9.460  10.930  1.0313 -1.5817 -0.2149
  435MOL0     H59967   8.361   9.385  10.975  1.1869  0.5026 -0.3173
  435MOL0     H59968   8.350   9.480  11.123 -0.6722  3.0353 -1.0728
  435MOL0     H59969   8.383   9.686  11.005  3.4020 -1.3385 -0.0119
  435MOL0     H59970   8.394   9.602  10.850  1.8629  3.9527  0.3751
  435MOL0     H59971   8.136   9.634  11.028  1.4747  0.5231  0.6924
  435MOL0     H59972   8.163   9.532  10.879 -1.3867  1.0904 -1.1627
  435MOL0     H59973   8.205   9.723  10.741 -2.7615 -1.8190 -1.0856
  435MOL0     H59974   8.046   9.732  10.806  0.0301  0.8559 -0.5781
  435MOL0     H59975   8.149   9.951  10.808 -0.9442  2.3505  1.4416
  435MOL0     H59976   8.290   9.894  10.886  0.6585  0.2125 -1.8745
  435MOL0     H59977   8.204   9.870  11.094  2.9684 -1.3898 -2.5011
  435MOL0     H59978   8.171  10.028  11.024 -2.4683  0.3289 -0.1016
  435MOL0     H59979   7.938  10.003  10.855  1.5929 -1.2594  0.1156
  435MOL0     H59980   7.663  10.052  10.854 -0.9527  1.4803 -0.1269
  435MOL0     H59981   7.600  10.081  11.018 -0.6108 -1.0092  1.0365
  435MOL0     H59982   7.585   9.808  11.001 -2.3326  0.2766  1.5791
  435MOL0     H59983   7.455   9.932  11.012 -0.3268 -1.1409 -0.3729
  435MOL0     H59984   7.392   9.813  10.820 -0.1828 -0.0730 -2.3275
  435MOL0     H59985   7.465   9.955  10.754  1.1394 -0.3092 -0.3383
  435MOL0     H59986   7.670   9.765  10.814 -2.3612 -2.0841  1.1902
  435MOL0     H59987   7.548   9.700  10.689 -2.2809  0.7612  0.5049
  435MOL0     H59988   7.804  10.079  10.625  1.9509  2.8387 -2.6957
  435MOL0     H59989   8.089  10.140  10.446  1.8660 -1.1111 -0.3257
  435MOL0     H59990   8.157  10.115  10.612 -1.1372  1.5636  1.2293
  435MOL0     H59991   8.011  10.206  10.589  2.5099  2.4506 -0.4603
  435MOL0     H59992   8.301   9.717  10.213  0.4722  3.4382  0.4760
  435MOL0     H59993   8.552   9.707  10.128  4.5145 -1.7165  1.0854
  435MOL0     H59994   8.716   9.523  10.103 -0.6155  2.5076  0.5487
  435MOL0     H59995   8.876   9.571  10.127 -0.0863 -1.2402  0.5195
  435MOL0     H59996   8.855   9.343  10.181  2.8465  1.6710 -0.1135
  435MOL0     H59997   8.893   9.438  10.325 -0.9122 -0.9745  0.2832
  435MOL0     H59998   8.634   9.311  10.276 -0.1113 -0.3982  1.2885
  435MOL0     H59999   8.652   9.433  10.396 -2.8307  1.4786 -2.4173
  435MOL0     H60000   8.686   9.227  10.520 -2.7166 -2.5881 -2.6594
  435MOL0     H60001   8.854   9.277  10.486 -0.3802 -0.7782  0.3069
  435MOL0     H60002   8.702   9.082  10.326  0.0308  1.6219 -0.9948
  435MOL0     H60003   8.876   9.140  10.289  3.8532 -0.9183  2.0729
  435MOL0     H60004   8.786   8.982  10.539 -0.7122 -1.1774 -0.1971
  435MOL0     H60005   8.950   9.042  10.501 -0.2394  2.3962 -1.3810
  435MOL0     H60006   8.774   8.840  10.348  0.0700  1.0438 -1.1451
  435MOL0     H60007   8.889   8.805  10.465 -0.5912 -0.7256 -1.0744
  435MOL0     H60008   8.935   8.934  10.203  2.5351  2.2820  1.1701
  435MOL0     H60009   8.987   8.765  10.270  0.6387  0.1590 -1.2715
  435MOL0     H60010   8.678   9.667  10.533 -1.5543 -0.6250  0.2450
  435MOL0     H60011   8.449   9.725  10.612 -2.5577 -0.2931 -0.5064
  435MOL0     H60012   8.012   9.643  10.516  0.3207  0.6047 -1.2903
  435MOL0     H60013   7.765   9.666  10.583  0.7048 -0.2671  1.2044
  435MOL0     H60014   8.777   9.587  11.274 -0.6570 -0.5301  0.4959
  435MOL0     H60015   8.750   9.803  11.387  0.4782 -0.7064 -1.5161
  435MOL0     H60016   8.509  10.002  11.722  2.1062 -0.7861 -1.3442
  435MOL0     H60017   8.547  10.209  11.860 -0.5154  1.2530  1.0286
  435MOL0     H60018   8.282  10.447  11.850 -0.4722 -0.3235 -0.5303
  435MOL0     H60019   8.394  10.550  11.931  0.6228 -1.1727  0.5774
  435MOL0     H60020   8.226  10.672  11.782  1.2617  0.1884  0.9026
  435MOL0     H60021   8.301  10.590  11.645  0.6997 -3.7375  0.6529
  435MOL0     H60022   8.461  10.778  11.840 -1.1011 -0.6042  0.6623
  435MOL0     H60023   8.517  10.722  11.679  0.2972  0.2570 -0.0439
  435MOL0     H60024   8.295  10.919  11.713 -1.9580 -0.3788 -0.4213
  435MOL0     H60025   8.370  10.848  11.557 -1.3504  1.6246  0.0351
  435MOL0     H60026   8.611  11.179  11.683 -2.1027  1.3478  1.5213
  435MOL0     H60027   8.355  10.429  11.558 -1.7671 -1.5530 -0.1667
  435MOL0     H60028   8.233  10.212  11.340 -0.7903  0.7623  0.0361
  435MOL0     H60029   8.344  10.352  11.333  1.0829  0.8483  0.3516
  435MOL0     H60030   8.411  10.197  11.300  1.3654  2.1516  1.3337
  436MOL0     O60031   3.338   0.359  11.265  0.4261  0.1983  0.4607
  436MOL0     C60032   3.447   0.412  11.243 -0.6335  0.5861 -0.1032
  436MOL0     O60033   3.569   0.354  11.294 -0.0707  0.3473 -0.6285
  436MOL0     C60034   3.554   0.253  11.385 -0.1409 -0.4419  0.0344
  436MOL0     C60035   3.513   0.278  11.515 -0.1825  0.7660 -0.2064
  436MOL0     C60036   3.497   0.173  11.612  0.2656  0.0844  0.0788
  436MOL0     C60037   3.526   0.043  11.575  0.2727  0.7052 -0.9129
  436MOL0     O60038   3.509  -0.063  11.665 -0.1121 -0.8991  0.4395
  436MOL0     C60039   3.501  -0.200  11.622  0.0031  0.1045  1.0398
  436MOL0     C60040   3.369  -0.271  11.644  0.2957 -0.7564  0.8567
  436MOL0     C60041   3.239  -0.199  11.601 -0.0640  0.0183  0.1618
  436MOL0     C60042   3.121  -0.276  11.652 -0.1689  0.7057 -0.7628
  436MOL0     C60043   2.986  -0.215  11.617 -0.3201 -0.3214 -0.8724
  436MOL0     C60044   2.881  -0.317  11.612  0.3400 -0.2556  0.0085
  436MOL0     C60045   2.828  -0.332  11.759 -0.9059  0.2207 -0.1930
  436MOL0     C60046   2.677  -0.355  11.751 -1.5323  0.0336 -1.0068
  436MOL0     N60047   2.636  -0.423  11.871  0.5199  1.0568 -0.5031
  436MOL0     C60048   2.542  -0.520  11.859  0.0251  0.2538  0.0431
  436MOL0     C60049   2.516  -0.563  11.985  0.0021  0.6046  0.6767
  436MOL0     C60050   2.427  -0.675  12.021  0.3581  0.3378  0.4500
  436MOL0     C60051   2.307  -0.706  11.940 -0.1264  0.1366  0.5410
  436MOL0     C60052   2.194  -0.605  11.941 -0.0622  0.6693  0.9770
  436MOL0     C60053   2.176  -0.532  11.814 -0.3671  0.2009  0.8775
  436MOL0     O60054   2.138  -0.629  11.705  0.2512  0.4243 -0.0428
  436MOL0     C60055   2.104  -0.589  11.583  0.1247 -0.9327  0.0407
  436MOL0     C60056   2.125  -0.455  11.545 -0.0673 -0.5179 -0.3231
  436MOL0     C60057   2.071  -0.409  11.420  0.1970 -0.3550  0.2795
  436MOL0     C60058   2.111  -0.263  11.371 -0.0129  0.4957  0.5610
  436MOL0     C60059   2.000  -0.489  11.338 -0.2863  1.1075  0.0933
  436MOL0     C60060   1.955  -0.448  11.198 -0.7980  1.0053  0.4276
  436MOL0     O60061   1.901  -0.323  11.184  0.6818 -0.1691 -0.1447
  436MOL0     C60062   1.867  -0.286  11.053 -0.3447 -1.0292  0.5583
  436MOL0     C60063   1.973  -0.243  10.971  0.5225  0.7554  0.4849
  436MOL0     C60064   1.953  -0.190  10.843 -0.0581  0.2264  0.8078
  436MOL0     C60065   1.823  -0.187  10.793 -1.1058  0.0956  0.5395
  436MOL0     O60066   1.788  -0.150  10.669 -0.3205 -0.7209  0.3327
  436MOL0     C60067   1.883  -0.171  10.562  0.3831 -0.7435 -0.9380
  436MOL0     C60068   1.806  -0.191  10.435  0.0088 -0.4956  0.5028
  436MOL0     C60069   1.895  -0.192  10.304 -0.8973  0.3038 -1.5907
  436MOL0     C60070   1.819  -0.255  10.183 -0.0654 -0.3065  0.0558
  436MOL0     C60071   1.676  -0.205  10.163 -0.5092  0.9787  0.5855
  436MOL0     C60072   1.620  -0.239  10.029  1.8293  0.0379 -0.2234
  436MOL0     C60073   1.595  -0.389  10.015  0.6023 -0.2753 -0.1749
  436MOL0     C60074   1.549  -0.426   9.877 -0.3685 -1.3072  0.4684
  436MOL0    Cl60075   1.674  -0.415   9.750  0.1625 -0.1392 -0.3568
  436MOL0     C60076   1.718  -0.227  10.876 -0.4759 -0.7292 -0.2289
  436MOL0     C60077   1.737  -0.268  11.014 -1.0875  0.3526  0.8331
  436MOL0     O60078   1.951  -0.539  11.110  0.5545  0.8061 -0.2081
  436MOL0     C60079   1.976  -0.624  11.382 -0.6403 -0.5496  0.2711
  436MOL0     C60080   2.034  -0.673  11.495  0.0067 -1.0068 -0.0084
  436MOL0     N60081   2.602  -0.493  12.066  0.1922 -0.3333 -0.3703
  436MOL0     N60082   2.673  -0.406  12.002  0.5315 -0.5801  0.0472
  436MOL0     C60083   3.578   0.025  11.439  0.4801 -0.1209  0.1232
  436MOL0     C60084   3.586   0.128  11.348  0.0730  0.3097 -0.2747
  436MOL0     C60085   3.458   0.538  11.155 -0.3388  0.3584 -0.3208
  436MOL0     C60086   3.590   0.585  11.127  0.8885  0.7604  0.6452
  436MOL0     C60087   3.608   0.695  11.028  0.3555  1.0858  0.5816
  436MOL0     C60088   3.501   0.777  10.983 -0.2002  0.0721 -0.4089
  436MOL0     O60089   3.505   0.897  10.907 -0.7399  0.3590 -0.4693
  436MOL0     C60090   3.629   0.925  10.835  0.1644  0.2480 -0.2137
  436MOL0     C60091   3.643   1.082  10.798  0.3142  0.5177  0.1874
  436MOL0     C60092   3.491   1.144  10.773  0.3216  0.3751  0.7267
  436MOL0     C60093   3.508   1.299  10.762  0.2223  0.5238  0.0849
  436MOL0     C60094   3.391   1.348  10.691 -0.1317 -0.6571 -0.6161
  436MOL0     C60095   3.287   1.383  10.639  0.4022 -0.1255 -0.6457
  436MOL0     C60096   3.382   0.732  11.025  0.6898  0.0467 -0.6233
  436MOL0     C60097   3.354   0.615  11.106  0.2074 -0.2367  0.3527
  436MOL0     C60098   3.212   0.574  11.130 -0.0963 -0.1683 -0.5168
  436MOL0     H60099   3.503   0.377  11.558  4.9024 -0.2770  4.6502
  436MOL0     H60100   3.455   0.194  11.710  0.8841  2.3294 -0.0798
  436MOL0     H60101   3.571  -0.265  11.675 -1.2109 -1.3776  0.8900
  436MOL0     H60102   3.520  -0.216  11.515 -1.7372 -2.1752  1.0036
  436MOL0     H60103   3.367  -0.377  11.619 -0.8533 -1.2705  2.8543
  436MOL0     H60104   3.347  -0.277  11.751  3.7559  1.3865  1.8415
  436MOL0     H60105   3.237  -0.095  11.633 -1.7075  0.4099 -1.1113
  436MOL0     H60106   3.246  -0.197  11.492  0.5882 -0.2378  0.1926
  436MOL0     H60107   3.136  -0.376  11.611 -0.0599 -0.2859  1.5841
  436MOL0     H60108   3.122  -0.287  11.760  0.6529  0.1515 -0.8167
  436MOL0     H60109   3.002  -0.182  11.514  4.0281 -2.1935 -0.9997
  436MOL0     H60110   2.974  -0.126  11.679  3.3055 -0.3556  0.1036
  436MOL0     H60111   2.800  -0.294  11.542 -0.4639 -1.5492  0.4803
  436MOL0     H60112   2.923  -0.409  11.572  0.3320 -0.6684  0.9207
  436MOL0     H60113   2.839  -0.237  11.813  1.0832  0.4290 -0.8866
  436MOL0     H60114   2.883  -0.414  11.808 -0.7437 -0.1228 -0.9456
  436MOL0     H60115   2.638  -0.255  11.730  0.0193  0.1940 -3.3860
  436MOL0     H60116   2.654  -0.413  11.661 -2.3099  0.0062 -0.7970
  436MOL0     H60117   2.501  -0.568  11.771  0.5101 -0.7129  0.3339
  436MOL0     H60118   2.409  -0.647  12.126  0.6940  2.4946 -0.0230
  436MOL0     H60119   2.478  -0.772  12.028 -3.1789 -1.5941  1.7652
  436MOL0     H60120   2.348  -0.732  11.842 -2.8323 -0.3282 -0.5630
  436MOL0     H60121   2.269  -0.804  11.968  0.3349 -0.3162 -0.3837
  436MOL0     H60122   2.108  -0.669  11.966 -0.4664  0.7869 -0.0622
  436MOL0     H60123   2.191  -0.535  12.025 -1.4331  1.5719  0.2163
  436MOL0     H60124   2.095  -0.460  11.823  1.9650  3.1482 -0.0783
  436MOL0     H60125   2.265  -0.473  11.788 -0.4439 -0.9355 -2.4293
  436MOL0     H60126   2.178  -0.383  11.606  0.1759 -1.3219  0.4276
  436MOL0     H60127   2.146  -0.272  11.268 -1.4830  1.2245 -0.0389
  436MOL0     H60128   2.198  -0.225  11.425 -1.1382  2.0532  1.3808
  436MOL0     H60129   2.033  -0.186  11.373  1.1845  2.0989 -3.5517
  436MOL0     H60130   2.073  -0.235  11.010  0.1395  0.9554  1.4520
  436MOL0     H60131   2.042  -0.154  10.792 -1.1443  1.1924 -0.4650
  436MOL0     H60132   1.961  -0.094  10.564 -0.5499  0.2135 -0.3102
  436MOL0     H60133   1.943  -0.260  10.582  0.4419 -0.2921  1.1342
  436MOL0     H60134   1.748  -0.283  10.428  1.1156 -1.2306  0.6952
  436MOL0     H60135   1.738  -0.105  10.430 -1.5760 -1.5472  2.6995
  436MOL0     H60136   1.984  -0.253  10.315  2.2321  4.6381 -0.2104
  436MOL0     H60137   1.935  -0.092  10.285  0.9618  0.2824  1.5026
  436MOL0     H60138   1.827  -0.363  10.172 -1.0069 -0.2621 -1.3507
  436MOL0     H60139   1.882  -0.213  10.104  1.0470  0.7689  1.4574
  436MOL0     H60140   1.612  -0.255  10.236 -0.0583 -0.5657 -0.0437
  436MOL0     H60141   1.664  -0.096  10.171 -2.6018  1.2368 -3.5037
  436MOL0     H60142   1.690  -0.199   9.955 -0.0393  1.1939 -1.4506
  436MOL0     H60143   1.525  -0.191  10.004  3.1664  1.4758 -3.0475
  436MOL0     H60144   1.518  -0.420  10.085 -0.0745  2.1901  0.2593
  436MOL0     H60145   1.680  -0.455  10.036  0.4067 -0.0760  1.2972
  436MOL0     H60146   1.470  -0.360   9.839 -0.6151 -2.0434 -0.3255
  436MOL0     H60147   1.514  -0.529   9.875  0.0593 -1.4409 -0.7129
  436MOL0     H60148   1.617  -0.211  10.840 -1.3655 -1.0823  1.9485
  436MOL0     H60149   1.664  -0.298  11.089 -0.2511 -2.1703  0.7443
  436MOL0     H60150   1.938  -0.694  11.309 -3.9320 -0.1321  1.4270
  436MOL0     H60151   2.021  -0.777  11.523 -3.6561 -0.3927  1.0960
  436MOL0     H60152   3.620  -0.071  11.411  0.7771 -0.8242  2.6979
  436MOL0     H60153   3.622   0.108  11.248  0.3422  0.5080 -0.2193
  436MOL0     H60154   3.679   0.528  11.149  1.4638  1.5534  0.4106
  436MOL0     H60155   3.712   0.711  11.001  0.2142  0.0463 -0.7317
  436MOL0     H60156   3.722   0.893  10.883 -0.5748 -5.8322 -2.0415
  436MOL0     H60157   3.621   0.876  10.738 -2.5436 -1.1656  0.6405
  436MOL0     H60158   3.709   1.089  10.711  0.2840  0.3150  0.1461
  436MOL0     H60159   3.692   1.131  10.882  2.5519 -1.2673  0.0228
  436MOL0     H60160   3.466   1.105  10.674  3.6667  0.1404 -0.1780
  436MOL0     H60161   3.420   1.108  10.847  0.8079 -3.2183 -0.3659
  436MOL0     H60162   3.603   1.326  10.714 -0.2000  2.3700  0.1927
  436MOL0     H60163   3.502   1.348  10.860  1.7264  0.6706  0.1281
  436MOL0     H60164   3.198   1.431  10.604  0.7127  0.9438 -0.0328
  436MOL0     H60165   3.302   0.800  10.997  0.1568 -0.8014 -1.1768
  436MOL0     H60166   3.184   0.482  11.078  1.5259  1.5262 -4.8712
  436MOL0     H60167   3.197   0.567  11.238 -0.3160  0.0987 -0.5305
  436MOL0     H60168   3.148   0.654  11.091  0.6798  1.1091  0.7765
  437MOL0     O60169   3.660   5.197   7.880 -0.6962 -0.1407 -0.7084
  437MOL0     C60170   3.642   5.300   7.818 -0.0437 -0.8468  0.7518
  437MOL0     O60171   3.705   5.413   7.838  0.6266 -1.3025 -0.5129
  437MOL0     C60172   3.804   5.420   7.934  0.5893 -0.7003 -0.1767
  437MOL0     C60173   3.926   5.477   7.906  0.2747 -0.5592  0.8480
  437MOL0     C60174   4.024   5.508   8.007 -1.0999  0.7467 -0.0519
  437MOL0     C60175   3.992   5.480   8.140 -0.3335  0.3253  0.5678
  437MOL0     O60176   4.073   5.517   8.241 -0.3275 -0.3664 -0.3089
  437MOL0     C60177   4.154   5.633   8.222 -0.0134 -0.5831  0.1674
  437MOL0     C60178   4.212   5.658   8.360  0.7119  0.4122  0.4951
  437MOL0     C60179   4.291   5.541   8.417 -0.3200  0.4151 -0.6396
  437MOL0     C60180   4.340   5.588   8.547 -0.8109 -0.3904 -0.6466
  437MOL0     C60181   4.377   5.470   8.635 -0.1054  0.4006 -0.3249
  437MOL0     C60182   4.428   5.519   8.777  0.4841 -1.2678 -0.0052
  437MOL0     C60183   4.322   5.610   8.859 -0.0355  0.3476  0.4927
  437MOL0     C60184   4.378   5.659   8.991  0.5697 -0.1643 -0.0207
  437MOL0     N60185   4.518   5.692   8.995  0.6590 -0.2433 -0.1150
  437MOL0     C60186   4.618   5.627   9.051  0.3790 -0.4262  0.0705
  437MOL0     C60187   4.731   5.700   9.023  0.8477 -0.6468  0.7347
  437MOL0     C60188   4.863   5.652   9.060 -1.1468  0.1681  0.0535
  437MOL0     C60189   4.975   5.741   8.996  1.4250  0.4027 -0.0688
  437MOL0     C60190   5.104   5.735   9.065 -0.5435  0.3420  0.6412
  437MOL0     C60191   5.182   5.605   9.071  0.0390 -0.0522 -0.5035
  437MOL0     O60192   5.183   5.559   9.207 -0.6317  0.0127 -0.4041
  437MOL0     C60193   5.185   5.422   9.236  0.2544  0.5040 -0.5767
  437MOL0     C60194   5.197   5.318   9.149 -0.3277 -0.5613 -0.0503
  437MOL0     C60195   5.193   5.184   9.193 -0.4691  0.6800 -0.0185
  437MOL0     C60196   5.212   5.070   9.090  0.3033  0.8450 -0.1040
  437MOL0     C60197   5.172   5.156   9.329  0.4657  0.4469 -0.5018
  437MOL0     C60198   5.154   5.027   9.394  0.1349  0.9172  0.3980
  437MOL0     O60199   5.255   4.928   9.366  0.6875 -0.6749  0.1867
  437MOL0     C60200   5.221   4.794   9.391  0.1577  1.3297 -0.2890
  437MOL0     C60201   5.158   4.746   9.506  0.0310  0.5893 -0.5769
  437MOL0     C60202   5.139   4.607   9.535 -0.2563  0.1009  0.2996
  437MOL0     C60203   5.194   4.518   9.450  0.1802 -0.7712 -0.7717
  437MOL0     O60204   5.197   4.386   9.486 -0.5438 -0.5239  0.4609
  437MOL0     C60205   5.190   4.289   9.379 -0.9500  0.0869 -0.2543
  437MOL0     C60206   5.050   4.307   9.305  0.0411  0.1028 -0.3528
  437MOL0     C60207   4.940   4.217   9.356  0.0634  0.0019  0.7881
  437MOL0     C60208   4.797   4.262   9.294  0.0352 -0.1574 -0.5030
  437MOL0     C60209   4.810   4.264   9.140  0.0296  0.3530  0.2833
  437MOL0     C60210   4.818   4.127   9.066  0.0995 -0.9107 -0.6491
  437MOL0     C60211   4.775   4.127   8.918  1.1005  0.5046  0.2648
  437MOL0     C60212   4.849   4.223   8.834 -0.4550 -0.1398 -0.2137
  437MOL0    Cl60213   5.024   4.215   8.840 -0.5696  0.3999 -0.2464
  437MOL0     C60214   5.267   4.564   9.337  1.0247 -0.8289  0.9444
  437MOL0     C60215   5.275   4.695   9.303  0.0595 -0.2856 -0.2058
  437MOL0     O60216   5.053   5.017   9.469 -0.1554  0.5925  0.0200
  437MOL0     C60217   5.155   5.264   9.417 -1.2916  0.4876  0.9316
  437MOL0     C60218   5.171   5.395   9.372 -0.7571 -0.2555  0.8520
  437MOL0     N60219   4.680   5.818   8.954  0.1377  0.3081 -0.3714
  437MOL0     N60220   4.553   5.807   8.936  0.0106  0.0384 -0.0974
  437MOL0     C60221   3.873   5.405   8.161 -0.7794  0.3818  0.3016
  437MOL0     C60222   3.789   5.377   8.066  0.5005  0.2079  0.1968
  437MOL0     C60223   3.532   5.303   7.725  0.9511  0.1638 -0.3472
  437MOL0     C60224   3.466   5.427   7.715 -0.3936  0.3155  0.1888
  437MOL0     C60225   3.359   5.455   7.638 -0.1649 -0.3488  0.8570
  437MOL0     C60226   3.298   5.346   7.570 -0.2741  1.0312  0.6088
  437MOL0     O60227   3.182   5.379   7.500 -0.1457  0.0358 -0.1492
  437MOL0     C60228   3.152   5.289   7.389 -0.2332 -1.1269  0.1881
  437MOL0     C60229   3.058   5.173   7.405  0.2664  0.2149 -0.0485
  437MOL0     C60230   2.920   5.238   7.434 -0.9258 -0.1771  0.1922
  437MOL0     C60231   2.828   5.122   7.467  0.4303  0.5536 -0.3342
  437MOL0     C60232   2.686   5.159   7.467 -0.5821 -0.6642 -0.2724
  437MOL0     C60233   2.573   5.177   7.464  0.1001 -0.2940 -0.0698
  437MOL0     C60234   3.361   5.215   7.578  0.3771  1.0657  0.1325
  437MOL0     C60235   3.468   5.190   7.657 -0.6217 -0.5253 -0.8028
  437MOL0     C60236   3.530   5.055   7.651  0.7580  0.3099 -0.3159
  437MOL0     H60237   3.944   5.524   7.810 -0.0399  1.8416  1.9024
  437MOL0     H60238   4.122   5.546   7.980 -0.0203 -0.9534  1.2767
  437MOL0     H60239   4.088   5.713   8.184  1.3316  0.3348 -0.3030
  437MOL0     H60240   4.235   5.610   8.153 -0.8616 -0.1448 -1.0153
  437MOL0     H60241   4.280   5.742   8.346  3.1057 -1.1877  1.7343
  437MOL0     H60242   4.130   5.670   8.432 -0.3427 -0.6438 -0.4854
  437MOL0     H60243   4.229   5.452   8.431  2.4453 -1.7465 -1.2408
  437MOL0     H60244   4.374   5.508   8.354 -0.4305 -2.0893  0.4168
  437MOL0     H60245   4.414   5.668   8.533  0.6912 -1.7105 -0.4979
  437MOL0     H60246   4.260   5.640   8.600 -0.8464  1.2522 -2.1901
  437MOL0     H60247   4.452   5.409   8.582 -2.3977 -0.5657 -2.6678
  437MOL0     H60248   4.286   5.410   8.647  0.1812  0.2804  1.4188
  437MOL0     H60249   4.465   5.436   8.839 -0.4465 -1.2942  0.5308
  437MOL0     H60250   4.522   5.572   8.761  3.0809 -4.7223  2.2250
  437MOL0     H60251   4.239   5.545   8.888  2.4916 -4.6448 -2.2394
  437MOL0     H60252   4.288   5.698   8.803  1.6663  0.0517 -1.0980
  437MOL0     H60253   4.312   5.741   9.020 -1.2951 -1.3696 -0.6260
  437MOL0     H60254   4.364   5.576   9.061  0.6500 -1.5893 -1.6144
  437MOL0     H60255   4.600   5.537   9.109 -0.9984 -0.2327 -0.0346
  437MOL0     H60256   4.863   5.549   9.025 -1.3171 -1.0986  3.4423
  437MOL0     H60257   4.886   5.643   9.167  0.7257 -1.3191 -0.4216
  437MOL0     H60258   4.980   5.736   8.886  0.2245  0.8065 -0.1585
  437MOL0     H60259   4.947   5.844   9.019 -0.0040  0.1198 -0.4353
  437MOL0     H60260   5.175   5.799   9.011  1.0996 -1.1187  0.9822
  437MOL0     H60261   5.106   5.779   9.165  2.9775  1.1037  0.3662
  437MOL0     H60262   5.143   5.531   9.001 -0.8297  0.2238 -0.3258
  437MOL0     H60263   5.285   5.626   9.038  0.6340  0.3195  1.4687
  437MOL0     H60264   5.187   5.330   9.042 -2.8529 -1.5732 -0.0079
  437MOL0     H60265   5.284   5.000   9.134  1.1117 -0.7610 -3.6297
  437MOL0     H60266   5.267   5.107   9.003 -1.1325  3.1763 -0.1117
  437MOL0     H60267   5.116   5.026   9.064 -0.3555  0.2292  2.9989
  437MOL0     H60268   5.115   4.809   9.583  0.5227  0.7663 -0.4430
  437MOL0     H60269   5.086   4.588   9.628 -2.5470  0.8585 -0.7778
  437MOL0     H60270   5.274   4.298   9.309 -1.0271  0.2904 -0.3209
  437MOL0     H60271   5.189   4.185   9.414 -0.4292  0.1672  0.0154
  437MOL0     H60272   5.022   4.411   9.287  0.6852  0.0323 -1.9424
  437MOL0     H60273   5.066   4.279   9.200  3.5055  2.5790 -0.6705
  437MOL0     H60274   4.941   4.214   9.465 -1.1057  3.6383  1.0314
  437MOL0     H60275   4.966   4.116   9.322  1.3253 -0.0007  1.6757
  437MOL0     H60276   4.763   4.364   9.315  0.6520  1.2948 -5.3948
  437MOL0     H60277   4.719   4.196   9.334 -0.1420  0.1099 -0.4037
  437MOL0     H60278   4.720   4.315   9.105 -0.1548  0.4608  0.8972
  437MOL0     H60279   4.890   4.331   9.108 -0.3167  0.4591 -0.3677
  437MOL0     H60280   4.746   4.069   9.123  0.4324 -0.2440  0.4732
  437MOL0     H60281   4.919   4.085   9.062  0.2176 -0.5390 -2.0983
  437MOL0     H60282   4.668   4.147   8.903  0.0441 -3.7245  0.9305
  437MOL0     H60283   4.789   4.023   8.887 -0.7661  0.4709 -0.6315
  437MOL0     H60284   4.805   4.319   8.862 -0.5746 -0.4681  0.7355
  437MOL0     H60285   4.819   4.195   8.732  1.1803 -0.3902 -0.6570
  437MOL0     H60286   5.318   4.486   9.282 -2.1666 -1.2891 -1.6342
  437MOL0     H60287   5.321   4.732   9.212 -0.5972 -1.6088 -1.1143
  437MOL0     H60288   5.140   5.241   9.522  0.1967 -0.5290  0.9496
  437MOL0     H60289   5.178   5.475   9.445 -4.7297  1.7830 -0.6675
  437MOL0     H60290   3.862   5.383   8.267 -3.1502 -0.5895 -0.0965
  437MOL0     H60291   3.695   5.337   8.104 -0.2443  1.4397 -0.2740
  437MOL0     H60292   3.498   5.506   7.782 -1.4550  0.9475 -0.0119
  437MOL0     H60293   3.312   5.553   7.633 -0.7882 -0.5109  2.7290
  437MOL0     H60294   3.101   5.357   7.320 -0.7088 -0.9206  0.7317
  437MOL0     H60295   3.242   5.265   7.333 -0.7185  1.1473 -1.7289
  437MOL0     H60296   3.088   5.114   7.493  0.4311 -1.9573 -1.4855
  437MOL0     H60297   3.065   5.113   7.314  0.0448  0.9630 -0.5640
  437MOL0     H60298   2.927   5.304   7.521  4.1655 -0.5987  0.4122
  437MOL0     H60299   2.887   5.285   7.340  1.7121 -0.9345 -1.2032
  437MOL0     H60300   2.843   5.078   7.567 -0.4939  3.4349  1.1680
  437MOL0     H60301   2.856   5.048   7.391  2.1452  1.4044 -0.5917
  437MOL0     H60302   2.468   5.188   7.479  0.3898  3.0581  0.0889
  437MOL0     H60303   3.296   5.136   7.544 -0.1154  0.6181  2.0057
  437MOL0     H60304   3.493   4.993   7.569  3.7820 -2.9727  0.5503
  437MOL0     H60305   3.638   5.067   7.635  0.5435  1.7102 -0.8417
  437MOL0     H60306   3.516   4.996   7.742 -1.1367  3.0941  1.3653
  438MOL0     O60307   5.127   4.715  10.252 -1.2645 -0.3107 -0.4618
  438MOL0     C60308   5.174   4.819  10.216 -0.3016 -0.0859 -0.0079
  438MOL0     O60309   5.298   4.871  10.257 -0.4899 -0.5251 -0.1675
  438MOL0     C60310   5.392   4.778  10.297 -0.3854 -0.1640 -0.7588
  438MOL0     C60311   5.418   4.653  10.243  0.6451 -0.1005 -0.2914
  438MOL0     C60312   5.504   4.558  10.308 -0.0377  0.6305  0.2825
  438MOL0     C60313   5.567   4.591  10.426 -0.1984 -0.1681 -0.1930
  438MOL0     O60314   5.638   4.486  10.486 -1.0396  0.3150 -0.4707
  438MOL0     C60315   5.668   4.495  10.628  0.1268  0.7923 -0.0411
  438MOL0     C60316   5.717   4.361  10.691  0.9495  0.1197  0.1446
  438MOL0     C60317   5.616   4.243  10.695 -0.0326 -0.5736 -0.8841
  438MOL0     C60318   5.693   4.127  10.769  0.1881  0.8788 -0.3070
  438MOL0     C60319   5.609   4.007  10.808 -0.0824  0.8512 -0.5101
  438MOL0     C60320   5.558   3.915  10.688 -0.1702  0.2453 -0.2676
  438MOL0     C60321   5.473   3.798  10.719  1.2925  1.1591  0.4883
  438MOL0     C60322   5.522   3.711  10.834  0.0437  0.5681  0.2267
  438MOL0     N60323   5.454   3.585  10.847 -0.2788  0.0323 -0.3002
  438MOL0     C60324   5.502   3.467  10.905 -0.2266  0.6728  0.2347
  438MOL0     C60325   5.397   3.378  10.896 -0.6894 -0.1724  0.6921
  438MOL0     C60326   5.404   3.237  10.943  0.2925 -0.2597 -0.1551
  438MOL0     C60327   5.461   3.224  11.078  0.2416 -0.3494  1.1551
  438MOL0     C60328   5.400   3.095  11.143  0.6301  0.2628 -0.8216
  438MOL0     C60329   5.461   3.061  11.272  0.3984 -1.0264 -1.1683
  438MOL0     O60330   5.401   2.940  11.326  0.1594 -0.1173  0.6836
  438MOL0     C60331   5.472   2.863  11.417 -0.7864 -0.4678 -0.8063
  438MOL0     C60332   5.426   2.737  11.444 -0.2090  0.4504  0.2575
  438MOL0     C60333   5.461   2.664  11.562 -0.7605 -0.2366  0.1943
  438MOL0     C60334   5.408   2.519  11.576 -0.7909 -0.4340 -0.1420
  438MOL0     C60335   5.558   2.715  11.655  0.0704  0.3316  0.0581
  438MOL0     C60336   5.603   2.648  11.790  0.6778 -0.7393  1.1166
  438MOL0     O60337   5.684   2.735  11.854  0.4505  0.4836 -1.2469
  438MOL0     C60338   5.771   2.703  11.952  0.6017  0.4167  0.1930
  438MOL0     C60339   5.773   2.590  12.035  0.1677 -0.6427  0.2896
  438MOL0     C60340   5.865   2.588  12.142  0.4889 -0.4312  0.7611
  438MOL0     C60341   5.953   2.694  12.168 -0.2574  0.8481  0.3084
  438MOL0     O60342   6.042   2.684  12.270  0.4853  0.0892 -0.3648
  438MOL0     C60343   5.987   2.733  12.390  0.3941 -1.4097  0.6121
  438MOL0     C60344   6.037   2.656  12.506 -0.0998 -0.5800 -0.4549
  438MOL0     C60345   5.976   2.518  12.514 -0.3766 -0.0358 -0.3706
  438MOL0     C60346   5.829   2.524  12.540  0.0821  0.1382 -0.5238
  438MOL0     C60347   5.748   2.389  12.527 -0.0962  0.2804  0.1717
  438MOL0     C60348   5.625   2.405  12.614  0.7828  0.5857  1.1409
  438MOL0     C60349   5.653   2.422  12.764 -0.0459  0.6768  0.3902
  438MOL0     C60350   5.560   2.527  12.819 -0.2079  0.4268  0.1154
  438MOL0    Cl60351   5.630   2.686  12.789  0.0409  0.6929 -0.1514
  438MOL0     C60352   5.946   2.803  12.093  0.4276  0.8338  0.2312
  438MOL0     C60353   5.868   2.804  11.975  0.5799 -0.1146  0.2063
  438MOL0     O60354   5.579   2.533  11.823 -0.4241 -0.7341  0.6858
  438MOL0     C60355   5.613   2.837  11.613 -0.1533  0.5151 -0.4375
  438MOL0     C60356   5.568   2.915  11.507 -0.1692  1.0052 -0.1333
  438MOL0     N60357   5.295   3.441  10.842  1.1655 -0.1541  0.4275
  438MOL0     N60358   5.321   3.566  10.811 -0.4089 -0.7437 -0.1484
  438MOL0     C60359   5.545   4.715  10.479 -0.0904  0.2940 -0.1453
  438MOL0     C60360   5.463   4.810  10.421  0.6270  1.6091  0.4448
  438MOL0     C60361   5.103   4.912  10.119 -0.1681 -0.1896 -0.2704
  438MOL0     C60362   5.161   5.044  10.089  0.7166 -1.0738  0.3185
  438MOL0     C60363   5.090   5.134  10.002 -0.8163  0.2860  0.0124
  438MOL0     C60364   4.969   5.100   9.945  0.6715 -0.5166 -0.0357
  438MOL0     O60365   4.898   5.185   9.864 -0.4186  0.3384  0.4606
  438MOL0     C60366   4.903   5.147   9.722  0.1293  0.1788  0.0195
  438MOL0     C60367   4.815   5.248   9.645 -0.7005  0.4961 -0.3120
  438MOL0     C60368   4.855   5.396   9.660  0.5886 -0.6452 -1.4541
  438MOL0     C60369   4.765   5.470   9.762  0.2608  0.1000 -0.2670
  438MOL0     C60370   4.772   5.609   9.738  0.1231 -0.6788 -0.3788
  438MOL0     C60371   4.778   5.731   9.738  0.1821  0.7447  0.9918
  438MOL0     C60372   4.914   4.974   9.965  0.1582 -0.3049 -1.4833
  438MOL0     C60373   4.980   4.885  10.052  0.0670  0.2687 -0.9670
  438MOL0     C60374   4.910   4.747  10.055  0.0113  0.4569 -0.2141
  438MOL0     H60375   5.361   4.626  10.154 -0.3753  1.3215 -0.1156
  438MOL0     H60376   5.529   4.459  10.271 -2.6596 -0.3194  0.8477
  438MOL0     H60377   5.575   4.531  10.671  0.4324 -0.1383  1.4740
  438MOL0     H60378   5.754   4.561  10.645  0.4580 -0.3173  3.3155
  438MOL0     H60379   5.809   4.338  10.637  1.8104  2.2290  0.6096
  438MOL0     H60380   5.742   4.390  10.793 -1.0398  0.7313  0.5028
  438MOL0     H60381   5.524   4.270  10.748 -0.1413 -3.3329  0.4998
  438MOL0     H60382   5.590   4.213  10.593  0.1165 -1.3236 -0.7049
  438MOL0     H60383   5.770   4.095  10.698 -0.5866  0.9899 -1.2191
  438MOL0     H60384   5.751   4.160  10.856  3.9222  0.2986 -2.4015
  438MOL0     H60385   5.519   4.042  10.859  1.8627  2.7393  1.8943
  438MOL0     H60386   5.664   3.945  10.879 -1.0064  1.1978  0.5193
  438MOL0     H60387   5.507   3.973  10.610 -0.8300 -0.2008 -0.1702
  438MOL0     H60388   5.649   3.882  10.638 -0.8337 -0.1043 -1.2646
  438MOL0     H60389   5.455   3.739  10.629  0.6120 -0.9892  1.9588
  438MOL0     H60390   5.375   3.832  10.755  1.4869  4.5406 -1.6792
  438MOL0     H60391   5.629   3.691  10.823 -0.2545 -1.1665  0.1696
  438MOL0     H60392   5.496   3.769  10.923  0.3005  0.1482  0.5782
  438MOL0     H60393   5.593   3.453  10.962  1.1685  0.7619 -1.8915
  438MOL0     H60394   5.451   3.182  10.861 -2.3524 -1.3571 -1.0483
  438MOL0     H60395   5.300   3.202  10.944  0.4908 -0.9014 -0.7665
  438MOL0     H60396   5.567   3.199  11.066 -0.7271 -4.1026 -1.2577
  438MOL0     H60397   5.440   3.318  11.130 -3.3886  0.4742 -1.4318
  438MOL0     H60398   5.292   3.093  11.158  0.9132 -0.8441  1.5931
  438MOL0     H60399   5.427   3.014  11.074 -2.1980 -2.3981  0.9264
  438MOL0     H60400   5.567   3.040  11.258  0.7901  1.7552 -3.0708
  438MOL0     H60401   5.441   3.143  11.343 -1.3385 -4.9532  3.4689
  438MOL0     H60402   5.348   2.704  11.376  1.1472  0.0386 -1.1397
  438MOL0     H60403   5.483   2.446  11.544  1.2503  2.2207 -1.8388
  438MOL0     H60404   5.330   2.499  11.501 -0.7501 -3.0662  0.4048
  438MOL0     H60405   5.361   2.500  11.673 -1.0923 -0.3731 -0.2754
  438MOL0     H60406   5.697   2.514  12.028 -0.4871 -0.1413  1.7039
  438MOL0     H60407   5.860   2.496  12.199 -0.1851 -0.6479  0.3668
  438MOL0     H60408   6.017   2.838  12.392 -3.4991  0.0633 -2.9888
  438MOL0     H60409   5.879   2.742  12.382  0.6684  2.6262 -4.4960
  438MOL0     H60410   6.146   2.660  12.503 -0.0350  5.2704 -1.4909
  438MOL0     H60411   6.000   2.713  12.592  0.4743  3.8545 -2.8496
  438MOL0     H60412   6.018   2.457  12.594 -1.1543  2.6585  2.2728
  438MOL0     H60413   5.989   2.483  12.411 -0.3658  1.9874 -1.1093
  438MOL0     H60414   5.781   2.602  12.480  0.1773  3.5968  3.4133
  438MOL0     H60415   5.813   2.564  12.641  1.3416  0.8253 -0.5778
  438MOL0     H60416   5.720   2.384  12.421 -2.0885  1.7509  0.5704
  438MOL0     H60417   5.797   2.298  12.564 -1.0378 -0.1694  0.3362
  438MOL0     H60418   5.563   2.315  12.604 -1.7202  2.3719 -0.5158
  438MOL0     H60419   5.572   2.493  12.578 -2.9059 -0.3489  3.7554
  438MOL0     H60420   5.758   2.446  12.783  0.0378  1.5951 -1.0738
  438MOL0     H60421   5.638   2.329  12.819  1.7531 -0.8212 -1.4904
  438MOL0     H60422   5.551   2.512  12.927  0.0243  0.6758  0.1691
  438MOL0     H60423   5.465   2.508  12.768 -0.6424  0.2322  0.9725
  438MOL0     H60424   6.019   2.880  12.118  3.2629 -0.7365 -2.4981
  438MOL0     H60425   5.875   2.893  11.914 -1.4574  0.7057  1.0736
  438MOL0     H60426   5.700   2.880  11.661 -0.9015 -0.2017  1.6944
  438MOL0     H60427   5.617   3.012  11.499 -0.3544  1.1281  0.2062
  438MOL0     H60428   5.608   4.739  10.564  0.4922 -2.7125  0.4113
  438MOL0     H60429   5.438   4.912  10.449  0.5522  1.7797 -0.2413
  438MOL0     H60430   5.258   5.078  10.123  0.0114  0.7626  0.6206
  438MOL0     H60431   5.147   5.226   9.995  3.0322 -1.8822 -0.1074
  438MOL0     H60432   5.010   5.144   9.701 -0.1938  2.5107 -2.5787
  438MOL0     H60433   4.883   5.041   9.706  1.7836  0.0952 -1.8745
  438MOL0     H60434   4.715   5.230   9.686  0.1542 -2.7927  0.6416
  438MOL0     H60435   4.813   5.226   9.538 -1.0050 -1.0071 -0.0171
  438MOL0     H60436   4.961   5.399   9.688  0.4660 -2.2252 -0.6480
  438MOL0     H60437   4.844   5.442   9.561 -2.5458  1.7380 -0.1509
  438MOL0     H60438   4.806   5.453   9.862  1.9187  0.0612 -0.9165
  438MOL0     H60439   4.662   5.434   9.753 -0.8118  2.9517 -0.4977
  438MOL0     H60440   4.797   5.836   9.732 -3.2935  1.4305 -3.4634
  438MOL0     H60441   4.819   4.939   9.925  0.1721 -2.2728  0.0836
  438MOL0     H60442   4.988   4.670  10.061 -0.7631 -0.2965  0.4270
  438MOL0     H60443   4.849   4.736  10.145  4.1413 -1.3549  2.6774
  438MOL0     H60444   4.853   4.733   9.962 -0.8040 -1.6971  0.5409
  439MOL0     O60445   3.623   1.649   8.391 -0.1279 -0.7759  0.2190
  439MOL0     C60446   3.567   1.546   8.351 -0.7711  0.7444  0.7134
  439MOL0     O60447   3.617   1.418   8.366 -0.2641  0.0413 -0.3028
  439MOL0     C60448   3.718   1.401   8.458 -0.2954 -0.0268 -0.0566
  439MOL0     C60449   3.688   1.407   8.602  0.5624 -0.7241  1.3062
  439MOL0     C60450   3.790   1.390   8.689 -0.0924 -0.3134  0.9108
  439MOL0     C60451   3.931   1.373   8.650  0.0261 -0.5092 -0.0046
  439MOL0     O60452   4.011   1.321   8.758 -0.0189  0.0314 -0.2047
  439MOL0     C60453   4.150   1.304   8.728 -0.3508 -0.5404  0.5245
  439MOL0     C60454   4.204   1.192   8.821 -0.3803 -0.8893  1.0123
  439MOL0     C60455   4.343   1.177   8.797  0.6583  0.3609 -0.2829
  439MOL0     C60456   4.409   1.047   8.852  0.8403 -0.3885 -0.1990
  439MOL0     C60457   4.548   1.032   8.783 -0.0739 -0.2790 -0.5197
  439MOL0     C60458   4.627   0.919   8.844  0.2464  0.1328  0.3680
  439MOL0     C60459   4.614   0.794   8.761 -0.0399 -0.0290  0.3312
  439MOL0     C60460   4.712   0.683   8.804  0.2696 -0.2244  0.5099
  439MOL0     N60461   4.666   0.617   8.925 -0.6999 -0.0467  0.0846
  439MOL0     C60462   4.662   0.483   8.939 -0.1381  0.9310  0.6048
  439MOL0     C60463   4.569   0.444   9.027  0.5264 -0.7142  0.4849
  439MOL0     C60464   4.530   0.304   9.066 -1.0453 -0.0661  0.1900
  439MOL0     C60465   4.549   0.292   9.220  0.7284  0.3418  0.7925
  439MOL0     C60466   4.688   0.321   9.260 -0.1682  0.1233  0.0894
  439MOL0     C60467   4.708   0.309   9.413 -0.3571 -0.0582  0.3507
  439MOL0     O60468   4.683   0.172   9.451 -0.6445 -0.0400 -0.6165
  439MOL0     C60469   4.569   0.136   9.519  0.1950 -0.1569  0.5428
  439MOL0     C60470   4.451   0.210   9.543  0.1527  0.4330  0.1897
  439MOL0     C60471   4.348   0.154   9.627  0.5732 -0.4010  0.2988
  439MOL0     C60472   4.235   0.248   9.646  0.4208  0.4927 -0.0165
  439MOL0     C60473   4.364   0.031   9.691  0.5201  0.3613 -0.1910
  439MOL0     C60474   4.270  -0.033   9.787 -0.3049  0.7581 -0.8483
  439MOL0     O60475   4.299  -0.158   9.817  0.7072 -0.4964 -0.7562
  439MOL0     C60476   4.287  -0.205   9.943  0.2776  0.6961  0.7209
  439MOL0     C60477   4.260  -0.334   9.967 -0.0536  0.1387 -0.0209
  439MOL0     C60478   4.256  -0.384  10.101  0.4506 -0.1862  1.0278
  439MOL0     C60479   4.257  -0.295  10.204  0.0815  0.4105  0.1771
  439MOL0     O60480   4.216  -0.332  10.327  0.0975  0.0879  0.0820
  439MOL0     C60481   4.328  -0.343  10.414  0.4511  0.7716  0.6582
  439MOL0     C60482   4.300  -0.438  10.528  0.0806  1.4056  0.7859
  439MOL0     C60483   4.299  -0.585  10.492 -0.4854 -0.4304 -0.0427
  439MOL0     C60484   4.294  -0.656  10.627 -0.2060  0.7588 -0.2800
  439MOL0     C60485   4.156  -0.672  10.675  0.1616  0.1014 -1.4964
  439MOL0     C60486   4.140  -0.749  10.801 -0.1634  0.7690  0.4107
  439MOL0     C60487   4.016  -0.718  10.882  0.3457  1.0347 -0.1554
  439MOL0     C60488   3.871  -0.757  10.827  0.8536  0.5746  0.1631
  439MOL0    Cl60489   3.763  -0.776  10.973  0.1212 -0.5256  0.2929
  439MOL0     C60490   4.299  -0.165  10.181  0.1445 -1.0695  1.2826
  439MOL0     C60491   4.318  -0.124  10.053 -0.0441  0.5966 -0.3258
  439MOL0     O60492   4.174   0.024   9.823  0.5144 -0.6902 -0.1153
  439MOL0     C60493   4.485  -0.037   9.661 -0.8100  0.9852 -0.8645
  439MOL0     C60494   4.577   0.009   9.573 -0.2498  0.3316 -0.1605
  439MOL0     N60495   4.517   0.567   9.068  0.6943  0.4836  0.0654
  439MOL0     N60496   4.567   0.663   8.999 -0.3985 -0.2142 -0.7904
  439MOL0     C60497   3.954   1.387   8.514  0.4330 -0.0877 -1.2427
  439MOL0     C60498   3.848   1.384   8.419  0.0991 -0.9273  0.6420
  439MOL0     C60499   3.440   1.576   8.276  0.0635 -0.3948 -0.3988
  439MOL0     C60500   3.347   1.475   8.249  0.2614  0.2261 -0.2922
  439MOL0     C60501   3.220   1.506   8.209 -0.7325 -0.2206  0.5498
  439MOL0     C60502   3.191   1.627   8.162  0.5446  0.0807 -0.5956
  439MOL0     O60503   3.061   1.633   8.108  0.5828 -0.5585  0.1655
  439MOL0     C60504   3.026   1.767   8.070 -0.0822  0.8700  0.8815
  439MOL0     C60505   2.917   1.764   7.962 -0.4929 -0.2649  0.5922
  439MOL0     C60506   2.799   1.659   7.965 -0.8513  0.3643  0.2649
  439MOL0     C60507   2.697   1.703   8.062 -0.1018 -0.3343 -1.0340
  439MOL0     C60508   2.618   1.586   8.107  0.4220  0.2791  0.5273
  439MOL0     C60509   2.561   1.485   8.134 -0.5249  0.4432  0.1503
  439MOL0     C60510   3.285   1.727   8.168 -0.3744 -0.1634  0.6155
  439MOL0     C60511   3.416   1.707   8.215  0.3841  0.6817 -0.0831
  439MOL0     C60512   3.506   1.824   8.213 -0.4590 -1.2891  0.2133
  439MOL0     H60513   3.586   1.417   8.640  0.0667 -1.5039  0.2550
  439MOL0     H60514   3.757   1.387   8.792 -5.0972 -2.5363 -0.4300
  439MOL0     H60515   4.204   1.398   8.740  0.1175 -0.8263  0.7241
  439MOL0     H60516   4.160   1.284   8.621  1.9788  3.2477 -0.1416
  439MOL0     H60517   4.192   1.221   8.926  4.1493  1.8400  1.0640
  439MOL0     H60518   4.159   1.095   8.801  0.5415 -0.8656 -1.5348
  439MOL0     H60519   4.355   1.168   8.688 -1.0045 -0.8967 -0.3990
  439MOL0     H60520   4.402   1.264   8.826 -0.3020  1.4296 -1.4009
  439MOL0     H60521   4.407   1.064   8.960  2.1280  0.8503 -0.3314
  439MOL0     H60522   4.353   0.956   8.833 -1.5184  0.7830  0.7482
  439MOL0     H60523   4.609   1.119   8.807 -0.4536 -0.0358 -0.4410
  439MOL0     H60524   4.554   1.019   8.674  2.7932  0.5274 -0.5439
  439MOL0     H60525   4.732   0.951   8.837 -0.6037  3.4426  0.7269
  439MOL0     H60526   4.611   0.924   8.952 -0.5263 -1.7782  0.3779
  439MOL0     H60527   4.626   0.829   8.658 -1.7168  0.7394  0.3488
  439MOL0     H60528   4.508   0.765   8.763  0.1494 -0.8664 -0.6796
  439MOL0     H60529   4.713   0.610   8.723  1.0203  1.1822 -0.8096
  439MOL0     H60530   4.813   0.723   8.810 -0.1227  0.9191 -0.0532
  439MOL0     H60531   4.724   0.410   8.887 -0.3609 -2.2713  4.3222
  439MOL0     H60532   4.602   0.234   9.024 -0.3686  0.3686  0.6004
  439MOL0     H60533   4.428   0.282   9.033 -0.3805 -2.5953 -0.4024
  439MOL0     H60534   4.482   0.368   9.260  1.2136  0.8296  0.6915
  439MOL0     H60535   4.512   0.193   9.247 -0.9760 -0.2993 -3.2011
  439MOL0     H60536   4.750   0.245   9.211 -0.2208 -0.5438  1.0392
  439MOL0     H60537   4.714   0.421   9.224 -3.1100 -0.1500 -3.3882
  439MOL0     H60538   4.810   0.344   9.432 -0.2090 -1.7235  3.2890
  439MOL0     H60539   4.636   0.374   9.463 -2.5555 -1.2440 -1.1246
  439MOL0     H60540   4.427   0.308   9.503  3.4183  1.3019  0.0891
  439MOL0     H60541   4.144   0.188   9.633 -0.7787  2.7751 -3.2596
  439MOL0     H60542   4.229   0.320   9.564 -0.9498  0.9275  0.4384
  439MOL0     H60543   4.240   0.301   9.741 -1.6333  1.0772 -0.1802
  439MOL0     H60544   4.237  -0.404   9.888  1.2316  0.3656 -0.6053
  439MOL0     H60545   4.238  -0.490  10.109  0.4645 -1.3765 -6.7686
  439MOL0     H60546   4.416  -0.375  10.358  2.0046 -0.3084  3.5355
  439MOL0     H60547   4.363  -0.248  10.454 -1.6277  1.3454  1.2549
  439MOL0     H60548   4.377  -0.412  10.601  1.6106  0.5709 -0.4701
  439MOL0     H60549   4.206  -0.415  10.579  0.4605  2.6913  0.9318
  439MOL0     H60550   4.395  -0.609  10.445 -0.2940  1.4421 -0.6783
  439MOL0     H60551   4.208  -0.602  10.433 -2.1437 -0.2989  2.3086
  439MOL0     H60552   4.352  -0.601  10.702 -3.2111  1.5606  1.6440
  439MOL0     H60553   4.328  -0.759  10.614 -0.5133  0.5316  0.6111
  439MOL0     H60554   4.113  -0.573  10.690  0.1186 -0.0810 -0.3351
  439MOL0     H60555   4.098  -0.727  10.599 -1.7173 -0.4515  0.2520
  439MOL0     H60556   4.222  -0.727  10.870 -2.2449 -0.0435  3.3425
  439MOL0     H60557   4.139  -0.855  10.774 -2.4973  1.2955 -2.0451
  439MOL0     H60558   4.002  -0.611  10.900 -1.1281  1.2003 -1.9772
  439MOL0     H60559   4.029  -0.779  10.972 -1.4898  2.1665  0.9519
  439MOL0     H60560   3.883  -0.857  10.782 -1.5617 -0.1688  1.0199
  439MOL0     H60561   3.819  -0.691  10.757 -2.6152  0.3785  2.3678
  439MOL0     H60562   4.304  -0.088  10.258 -1.3642  2.7604 -2.1119
  439MOL0     H60563   4.338  -0.018  10.037  0.3388  0.4135 -1.1102
  439MOL0     H60564   4.508  -0.135   9.703  2.5833  0.1224 -4.1241
  439MOL0     H60565   4.658  -0.052   9.535 -1.1038 -1.8383  1.3324
  439MOL0     H60566   4.053   1.413   8.478  0.1029  2.8439 -0.3104
  439MOL0     H60567   3.868   1.380   8.312  0.5738  0.4311  0.6628
  439MOL0     H60568   3.367   1.372   8.275 -0.6478 -0.6128 -2.6166
  439MOL0     H60569   3.158   1.421   8.181  0.1151 -0.7569  0.2648
  439MOL0     H60570   3.010   1.837   8.152 -0.9401  3.9653 -1.7378
  439MOL0     H60571   3.109   1.816   8.018 -0.1522  1.2392  1.1190
  439MOL0     H60572   2.960   1.760   7.861 -4.9915  3.7090 -1.9231
  439MOL0     H60573   2.879   1.864   7.982 -2.0920 -1.0525  1.6438
  439MOL0     H60574   2.755   1.642   7.866  0.6669 -4.4050  0.1512
  439MOL0     H60575   2.838   1.563   7.999  2.0261  2.7166  4.5222
  439MOL0     H60576   2.628   1.783   8.031  0.5784  2.1284  3.0933
  439MOL0     H60577   2.758   1.745   8.143  0.1034  1.0175 -1.8457
  439MOL0     H60578   2.504   1.394   8.137  1.2359 -0.6841  2.2674
  439MOL0     H60579   3.273   1.829   8.133  2.2073  0.6465  1.8159
  439MOL0     H60580   3.603   1.800   8.167  0.2323  1.2364  0.1663
  439MOL0     H60581   3.464   1.906   8.154  1.3671  1.6102  2.6400
  439MOL0     H60582   3.518   1.859   8.316 -0.2985 -0.7152  0.0031
  440MOL0     O60583   4.756  11.424   9.745 -0.8218  0.2004  0.2180
  440MOL0     C60584   4.767  11.316   9.800 -0.5549  0.5771 -0.3524
  440MOL0     O60585   4.737  11.198   9.743 -0.3750 -0.4011 -0.2635
  440MOL0     C60586   4.623  11.210   9.667 -0.2173 -0.0560 -0.6761
  440MOL0     C60587   4.642  11.231   9.536  0.0162 -0.6918  0.2545
  440MOL0     C60588   4.540  11.231   9.453  0.2117 -0.4482  1.0938
  440MOL0     C60589   4.405  11.221   9.497  0.3458  0.4316  0.2472
  440MOL0     O60590   4.301  11.215   9.407 -0.1945  0.1064  0.8215
  440MOL0     C60591   4.204  11.319   9.408  0.6788  0.2015 -1.3742
  440MOL0     C60592   4.201  11.392   9.278  0.7854  0.2913  1.0031
  440MOL0     C60593   4.101  11.513   9.278  0.2999  0.8742  0.7781
  440MOL0     C60594   4.177  11.645   9.270  0.2305  0.0489 -1.1255
  440MOL0     C60595   4.090  11.773   9.274 -0.6314 -0.6571 -0.0950
  440MOL0     C60596   4.181  11.887   9.224  0.7308  0.0893 -0.1895
  440MOL0     C60597   4.110  12.022   9.197 -0.3673  0.2197 -0.0222
  440MOL0     C60598   3.999  12.036   9.089  0.1467  0.3894  0.6488
  440MOL0     N60599   4.047  12.025   8.948 -0.0224 -0.2981 -0.0639
  440MOL0     C60600   4.107  12.110   8.865  0.9302  0.2208  1.6247
  440MOL0     C60601   4.115  12.045   8.747  0.1412  0.0328 -0.4949
  440MOL0     C60602   4.157  12.096   8.616 -0.2140  0.0991 -0.1229
  440MOL0     C60603   4.279  12.022   8.550  1.0711 -0.3051 -0.0406
  440MOL0     C60604   4.408  12.046   8.620 -0.3107 -0.1994 -0.0721
  440MOL0     C60605   4.497  11.916   8.598  0.0066 -0.0999 -0.3919
  440MOL0     O60606   4.626  11.968   8.630 -0.5256 -0.1320 -0.0824
  440MOL0     C60607   4.736  11.885   8.609 -0.5372 -0.5427 -0.8024
  440MOL0     C60608   4.807  11.908   8.486 -0.3058  0.2556 -0.2585
  440MOL0     C60609   4.918  11.834   8.457  0.2349  0.1043  0.2979
  440MOL0     C60610   4.994  11.852   8.336 -0.9131 -0.5107  1.0253
  440MOL0     C60611   4.949  11.731   8.551 -0.2635  1.3123 -0.0335
  440MOL0     C60612   5.055  11.631   8.523  0.1222 -0.9763 -0.6136
  440MOL0     O60613   5.035  11.500   8.507 -0.1498  0.6703 -0.3162
  440MOL0     C60614   4.918  11.463   8.450  0.4817  0.1161  0.3450
  440MOL0     C60615   4.796  11.419   8.521 -0.3569 -0.0967  0.4018
  440MOL0     C60616   4.677  11.385   8.455 -0.3353 -0.1158  0.2906
  440MOL0     C60617   4.675  11.389   8.317 -0.2903 -0.3740 -0.4266
  440MOL0     O60618   4.567  11.342   8.258  0.1977  0.5987 -0.1550
  440MOL0     C60619   4.567  11.196   8.263 -0.4076 -0.0195 -0.1392
  440MOL0     C60620   4.507  11.140   8.132 -0.1422 -0.1567  0.0226
  440MOL0     C60621   4.589  11.187   8.010 -0.6298 -0.0413 -0.6596
  440MOL0     C60622   4.547  11.132   7.875 -0.3997 -0.3722 -0.4884
  440MOL0     C60623   4.500  10.981   7.892  0.6871 -0.0004 -0.3531
  440MOL0     C60624   4.459  10.911   7.754  0.6064 -0.7028 -0.6313
  440MOL0     C60625   4.586  10.898   7.670 -0.6043  0.2108  1.2288
  440MOL0     C60626   4.549  10.845   7.521  0.4543  1.1745 -1.2658
  440MOL0    Cl60627   4.488  10.974   7.417  0.0760 -0.4543  0.1946
  440MOL0     C60628   4.788  11.439   8.247 -0.4739 -1.3062 -0.4261
  440MOL0     C60629   4.911  11.471   8.309 -0.3323  0.6267 -0.2683
  440MOL0     O60630   5.160  11.689   8.534 -0.0797  0.4522 -0.3405
  440MOL0     C60631   4.890  11.710   8.680  0.1692 -0.1861  1.0015
  440MOL0     C60632   4.781  11.791   8.706 -0.3082  0.2997 -0.0543
  440MOL0     N60633   4.079  11.912   8.771 -0.4574  0.0728 -0.3243
  440MOL0     N60634   4.038  11.904   8.885  0.2010 -0.6587 -0.3653
  440MOL0     C60635   4.380  11.186   9.631 -0.6378  0.2894  0.3458
  440MOL0     C60636   4.495  11.190   9.717 -0.3176  0.4269 -0.4590
  440MOL0     C60637   4.831  11.298   9.927  0.0797 -0.5143 -0.6224
  440MOL0     C60638   4.935  11.207   9.952  0.3490  0.5173  0.2123
  440MOL0     C60639   4.989  11.185  10.074  0.2753  1.7738  0.3133
  440MOL0     C60640   4.948  11.257  10.174  0.0192 -0.1442  0.0793
  440MOL0     O60641   5.012  11.261  10.298  0.5786  0.2384  0.2307
  440MOL0     C60642   5.135  11.201  10.321 -0.5371 -0.5372 -0.5765
  440MOL0     C60643   5.189  11.207  10.463 -0.2781  0.8674  0.2803
  440MOL0     C60644   5.108  11.118  10.561 -0.2927  0.4162  0.1070
  440MOL0     C60645   5.196  11.077  10.682 -0.4557  0.4775 -0.3117
  440MOL0     C60646   5.107  11.043  10.793 -0.8400  0.6166 -0.5402
  440MOL0     C60647   5.018  11.049  10.872 -0.6973 -0.0895  0.2037
  440MOL0     C60648   4.844  11.352  10.155  0.7348 -0.6614  0.0846
  440MOL0     C60649   4.782  11.373  10.032  0.0868  0.1781  1.1310
  440MOL0     C60650   4.665  11.471  10.026  0.1592  0.6438 -0.2391
  440MOL0     H60651   4.739  11.261   9.497 -1.0704 -0.0562 -2.1388
  440MOL0     H60652   4.569  11.238   9.348  1.6969  0.7951  1.5474
  440MOL0     H60653   4.233  11.405   9.470  0.5037  0.9261 -2.2720
  440MOL0     H60654   4.108  11.285   9.449  2.2903 -0.4584  2.2337
  440MOL0     H60655   4.300  11.431   9.252  0.0262  0.5499 -1.7848
  440MOL0     H60656   4.178  11.314   9.205 -0.5508 -0.6218  2.3244
  440MOL0     H60657   4.041  11.506   9.187  0.2714  0.5222  0.8210
  440MOL0     H60658   4.030  11.494   9.359  0.2177 -0.6124  0.3907
  440MOL0     H60659   4.227  11.649   9.367 -0.7186  1.4010 -0.6612
  440MOL0     H60660   4.253  11.648   9.191 -3.3372  1.7174 -4.8503
  440MOL0     H60661   4.055  11.803   9.373  2.1194  5.1857 -0.5053
  440MOL0     H60662   4.010  11.757   9.201  0.8957  0.3061 -2.0869
  440MOL0     H60663   4.257  11.900   9.301 -0.9829 -0.5363  1.6759
  440MOL0     H60664   4.227  11.862   9.128 -0.3155 -2.0912 -0.1819
  440MOL0     H60665   4.192  12.089   9.170  1.5334 -0.7257  2.9767
  440MOL0     H60666   4.068  12.061   9.290 -0.0920 -0.9297  0.6081
  440MOL0     H60667   3.927  11.955   9.109 -2.7551  3.0627  1.8919
  440MOL0     H60668   3.942  12.127   9.107  0.4140  0.6697  0.0750
  440MOL0     H60669   4.126  12.217   8.877 -3.6417  1.4841 -0.2366
  440MOL0     H60670   4.188  12.198   8.638 -0.2447  0.3883 -1.3422
  440MOL0     H60671   4.072  12.101   8.547 -3.0268 -1.4808  2.9580
  440MOL0     H60672   4.257  11.915   8.557  3.4116 -1.0564 -2.5395
  440MOL0     H60673   4.279  12.047   8.444 -0.1539 -1.1125 -0.2531
  440MOL0     H60674   4.455  12.138   8.586  1.1928 -1.2340 -0.8966
  440MOL0     H60675   4.398  12.052   8.729 -1.7903 -1.4074 -0.0897
  440MOL0     H60676   4.473  11.836   8.668 -1.1453  2.2709  2.1063
  440MOL0     H60677   4.498  11.877   8.495  1.0576 -0.3391 -0.3072
  440MOL0     H60678   4.765  11.983   8.419 -0.4338 -0.3498 -0.8656
  440MOL0     H60679   5.081  11.788   8.316 -1.0408 -0.1836 -0.7561
  440MOL0     H60680   5.039  11.952   8.341 -1.8600  0.0860 -1.4023
  440MOL0     H60681   4.942  11.844   8.240  0.8493  1.6831 -0.2222
  440MOL0     H60682   4.791  11.418   8.630  2.3428  0.0842  0.6109
  440MOL0     H60683   4.591  11.344   8.507  0.1489  1.2768  2.2959
  440MOL0     H60684   4.664  11.148   8.277 -0.9536 -0.9932  0.4177
  440MOL0     H60685   4.510  11.173   8.354 -0.8466  0.3500 -0.3181
  440MOL0     H60686   4.514  11.032   8.148 -1.5907 -0.4422 -1.0490
  440MOL0     H60687   4.403  11.168   8.114  0.3339  1.3169 -0.5351
  440MOL0     H60688   4.696  11.168   8.021 -0.9031 -0.3731  2.2683
  440MOL0     H60689   4.577  11.296   8.002 -1.9867 -0.2379 -1.6349
  440MOL0     H60690   4.630  11.152   7.807  0.2037  0.6410  0.5165
  440MOL0     H60691   4.467  11.188   7.825 -1.9341 -0.5727  1.5988
  440MOL0     H60692   4.576  10.915   7.934 -0.2388 -0.8071  0.1119
  440MOL0     H60693   4.417  10.988   7.964 -1.6382  0.4968 -2.8941
  440MOL0     H60694   4.373  10.960   7.709  0.4143 -0.5461 -0.1041
  440MOL0     H60695   4.418  10.812   7.777 -0.4846 -0.8737 -3.0423
  440MOL0     H60696   4.664  10.843   7.723 -0.3754  0.6015  1.3007
  440MOL0     H60697   4.635  10.992   7.645  0.9563 -1.0846 -0.9834
  440MOL0     H60698   4.461  10.780   7.525  1.0204  0.2234 -3.0342
  440MOL0     H60699   4.628  10.801   7.459  0.3110 -0.3661 -0.4166
  440MOL0     H60700   4.780  11.448   8.139  2.1956  0.6400 -0.5602
  440MOL0     H60701   5.004  11.506   8.265 -0.4322 -0.3427 -1.3031
  440MOL0     H60702   4.914  11.630   8.748 -0.9585 -2.4476 -1.1060
  440MOL0     H60703   4.733  11.765   8.800 -0.5036 -0.2105 -0.2890
  440MOL0     H60704   4.275  11.177   9.659 -0.8133  0.9370 -0.0828
  440MOL0     H60705   4.482  11.172   9.823  0.3144 -3.6711 -0.9163
  440MOL0     H60706   4.967  11.137   9.875  2.5966  2.0216 -0.3228
  440MOL0     H60707   5.074  11.118  10.074 -0.9888  0.0971 -0.7981
  440MOL0     H60708   5.144  11.101  10.279  2.2083  0.4277 -2.6085
  440MOL0     H60709   5.208  11.253  10.258  0.3939 -3.5397 -2.1897
  440MOL0     H60710   5.184  11.311  10.497 -2.2767  0.8091  0.2635
  440MOL0     H60711   5.292  11.171  10.468 -0.4099  0.6231  1.6760
  440MOL0     H60712   5.014  11.158  10.601  0.4867  1.0083  1.4056
  440MOL0     H60713   5.074  11.033  10.501 -3.2541  0.8151  1.0183
  440MOL0     H60714   5.254  11.160  10.723 -1.1534  1.0822 -0.5025
  440MOL0     H60715   5.258  10.993  10.651 -1.5650 -1.0064  1.3041
  440MOL0     H60716   4.924  11.063  10.922 -1.2308  0.5571 -0.9306
  440MOL0     H60717   4.803  11.400  10.244 -3.0526  2.5775 -3.0405
  440MOL0     H60718   4.675  11.575   9.994 -0.9950  1.4114  1.6940
  440MOL0     H60719   4.578  11.430   9.973  0.1146  1.9247 -1.2015
  440MOL0     H60720   4.647  11.485  10.133  0.5677  1.4973 -0.2755
  441MOL0     O60721   2.436   0.659   4.150  0.1982 -0.1403 -0.6975
  441MOL0     C60722   2.317   0.708   4.168  0.2609  0.3658  0.5143
  441MOL0     O60723   2.201   0.679   4.095 -0.3101 -0.0340 -0.2611
  441MOL0     C60724   2.210   0.613   3.969  0.6625  0.4022  0.1176
  441MOL0     C60725   2.285   0.489   3.965  0.0314 -0.1031  0.0764
  441MOL0     C60726   2.285   0.413   3.855 -0.1880  0.3754 -0.1533
  441MOL0     C60727   2.186   0.442   3.754 -0.2750  0.3613  0.1744
  441MOL0     O60728   2.167   0.356   3.644 -0.4056  0.7970 -0.4991
  441MOL0     C60729   2.290   0.308   3.587 -0.6177  0.6582  1.3520
  441MOL0     C60730   2.251   0.233   3.459  0.1293  0.4309 -0.1604
  441MOL0     C60731   2.369   0.191   3.370 -0.2891  0.0511  0.3904
  441MOL0     C60732   2.309   0.125   3.245 -0.6966 -0.2407 -0.4954
  441MOL0     C60733   2.278  -0.023   3.272  0.7104 -0.3324 -0.3761
  441MOL0     C60734   2.235  -0.106   3.143  0.7800  1.0983  0.4886
  441MOL0     C60735   2.357  -0.143   3.054 -0.2939  0.5921 -0.2325
  441MOL0     C60736   2.318  -0.154   2.899  0.2608 -0.1156  1.1407
  441MOL0     N60737   2.246  -0.282   2.881  0.5303 -0.8322 -0.9499
  441MOL0     C60738   2.301  -0.403   2.896 -0.3230  0.1027 -1.3742
  441MOL0     C60739   2.201  -0.491   2.864 -0.0943  0.0509  1.3891
  441MOL0     C60740   2.222  -0.635   2.849  0.0770 -0.4638  0.2053
  441MOL0     C60741   2.308  -0.672   2.730 -0.8266  0.4798  0.1357
  441MOL0     C60742   2.370  -0.810   2.732  0.6645  0.4167 -0.4715
  441MOL0     C60743   2.269  -0.921   2.718 -0.2958 -0.6992  0.1689
  441MOL0     O60744   2.191  -0.930   2.593 -0.2009  0.4050  0.1174
  441MOL0     C60745   2.181  -1.036   2.508 -0.2305 -0.0500 -1.0569
  441MOL0     C60746   2.245  -1.158   2.529  0.5320  0.3705  0.0913
  441MOL0     C60747   2.226  -1.264   2.434 -0.8581  0.3715  1.4982
  441MOL0     C60748   2.283  -1.400   2.483  1.0017 -0.5433 -0.4619
  441MOL0     C60749   2.167  -1.234   2.305 -0.0937  0.7115 -0.7890
  441MOL0     C60750   2.146  -1.332   2.202 -0.3142 -0.1649  0.9294
  441MOL0     O60751   2.260  -1.410   2.167  0.5369  0.2855 -0.1200
  441MOL0     C60752   2.303  -1.418   2.033  0.2582 -0.1541  0.5199
  441MOL0     C60753   2.385  -1.535   2.003 -0.7590  0.1857 -0.5400
  441MOL0     C60754   2.459  -1.547   1.887 -0.5071 -0.7708 -0.1703
  441MOL0     C60755   2.446  -1.444   1.786 -0.2820  0.7462 -0.5033
  441MOL0     O60756   2.518  -1.443   1.666  0.8165  0.3155  0.2843
  441MOL0     C60757   2.649  -1.396   1.684  0.6477 -0.6124 -0.4187
  441MOL0     C60758   2.708  -1.345   1.553  0.2163  0.1663 -0.0685
  441MOL0     C60759   2.602  -1.262   1.485  0.3938  0.2321 -0.6337
  441MOL0     C60760   2.659  -1.137   1.422  0.0396  0.4589 -0.4648
  441MOL0     C60761   2.556  -1.028   1.403 -0.2490 -1.0079 -0.4640
  441MOL0     C60762   2.453  -1.072   1.299  0.3152  0.9215 -0.8562
  441MOL0     C60763   2.398  -0.953   1.223  0.1127 -0.0504  0.4291
  441MOL0     C60764   2.313  -1.008   1.098 -1.3643  0.0116 -0.7866
  441MOL0    Cl60765   2.179  -1.109   1.162 -0.0429  0.4611 -0.0032
  441MOL0     C60766   2.365  -1.338   1.817 -0.4805 -1.1929  0.9678
  441MOL0     C60767   2.293  -1.313   1.937 -0.2799 -0.0199 -0.4425
  441MOL0     O60768   2.045  -1.321   2.131  0.3497 -0.1974  0.6566
  441MOL0     C60769   2.126  -1.103   2.285  0.4744 -0.0945  1.0700
  441MOL0     C60770   2.120  -1.005   2.382  0.0286  0.5368  0.5248
  441MOL0     N60771   2.087  -0.416   2.848  0.4462  0.0661  0.2385
  441MOL0     N60772   2.116  -0.285   2.848  0.2252  0.6408 -0.0931
  441MOL0     C60773   2.105   0.551   3.777  0.2029 -0.1018  0.7731
  441MOL0     C60774   2.128   0.646   3.866 -0.3093 -0.2960  0.1033
  441MOL0     C60775   2.303   0.808   4.267  0.5940 -0.7787 -0.0395
  441MOL0     C60776   2.169   0.825   4.318  0.1462 -0.2552 -0.4414
  441MOL0     C60777   2.141   0.914   4.420 -0.7032  0.0703  0.3144
  441MOL0     C60778   2.255   0.969   4.484  0.8493 -0.1382 -0.0192
  441MOL0     O60779   2.236   1.045   4.599 -0.2690  0.1225  0.3286
  441MOL0     C60780   2.111   1.079   4.655 -0.3609  0.8009 -0.3085
  441MOL0     C60781   2.147   1.172   4.775  0.8782  0.7804 -0.6016
  441MOL0     C60782   2.223   1.109   4.887  0.4136 -0.3093  0.0879
  441MOL0     C60783   2.117   1.021   4.963 -1.2037  0.4422 -0.0410
  441MOL0     C60784   2.091   1.059   5.103  0.3915  0.6630  1.1421
  441MOL0     C60785   2.045   1.057   5.218  1.3204  0.1194  0.7149
  441MOL0     C60786   2.377   0.955   4.435 -0.4046  0.0516  0.2762
  441MOL0     C60787   2.404   0.886   4.323 -1.1874  0.1819  0.2346
  441MOL0     C60788   2.546   0.900   4.263  0.3588  0.2775  0.4377
  441MOL0     H60789   2.342   0.460   4.052 -0.9526  0.3919  0.9067
  441MOL0     H60790   2.365   0.343   3.834  1.7549  2.9510 -1.9559
  441MOL0     H60791   2.337   0.227   3.643  0.7258 -1.6293 -2.7166
  441MOL0     H60792   2.371   0.380   3.571 -0.3373  0.9012  3.4966
  441MOL0     H60793   2.194   0.144   3.488 -1.9547  1.5956 -0.4098
  441MOL0     H60794   2.179   0.301   3.411  0.3626  0.5087 -0.4016
  441MOL0     H60795   2.435   0.274   3.343  1.6411 -1.8464 -1.0757
  441MOL0     H60796   2.420   0.121   3.436 -1.6206  0.7830  2.2990
  441MOL0     H60797   2.223   0.173   3.198  0.4148  1.6189 -0.7584
  441MOL0     H60798   2.381   0.128   3.162 -4.0263 -3.2655 -3.8497
  441MOL0     H60799   2.203  -0.025   3.352  2.7577 -2.4977  1.6548
  441MOL0     H60800   2.369  -0.074   3.304  1.0202  0.4010 -0.0848
  441MOL0     H60801   2.180  -0.193   3.183 -0.2988  1.8057  0.5865
  441MOL0     H60802   2.163  -0.054   3.079  1.5683 -1.1180 -2.4421
  441MOL0     H60803   2.408  -0.232   3.092  0.3095  2.0455  2.5492
  441MOL0     H60804   2.436  -0.068   3.056  2.8997 -2.4968  0.6240
  441MOL0     H60805   2.252  -0.070   2.875 -0.4365  0.3136  4.1050
  441MOL0     H60806   2.402  -0.146   2.830 -0.2950 -2.0525  0.1654
  441MOL0     H60807   2.407  -0.417   2.914 -0.5605  0.3184  0.3104
  441MOL0     H60808   2.123  -0.682   2.845 -0.5219  0.7954 -0.2629
  441MOL0     H60809   2.271  -0.657   2.944  0.1732 -0.6323  0.1161
  441MOL0     H60810   2.240  -0.662   2.645 -2.7568  1.9047  1.7418
  441MOL0     H60811   2.384  -0.594   2.722 -3.2212  2.7860 -2.2073
  441MOL0     H60812   2.458  -0.815   2.666  0.9485 -0.3749 -0.0439
  441MOL0     H60813   2.414  -0.830   2.829  0.4051 -0.1918 -0.4740
  441MOL0     H60814   2.327  -1.012   2.734  0.8176 -0.8253 -3.4842
  441MOL0     H60815   2.186  -0.905   2.786 -2.6045  2.8533 -3.0662
  441MOL0     H60816   2.296  -1.186   2.620 -0.3041 -0.3463  0.3435
  441MOL0     H60817   2.326  -1.397   2.584  0.9783  0.3057 -0.4698
  441MOL0     H60818   2.357  -1.450   2.420 -1.0209 -1.4726 -2.2473
  441MOL0     H60819   2.206  -1.478   2.483 -1.8722  1.8257  3.9225
  441MOL0     H60820   2.393  -1.611   2.079  3.0691  1.1287  0.2015
  441MOL0     H60821   2.514  -1.640   1.885  0.4905 -0.2125  0.5008
  441MOL0     H60822   2.654  -1.315   1.756  1.1041  0.7493 -1.9214
  441MOL0     H60823   2.717  -1.473   1.722 -0.5051 -1.8708 -0.8157
  441MOL0     H60824   2.801  -1.291   1.575 -0.5625  1.7010 -0.4388
  441MOL0     H60825   2.736  -1.425   1.483 -1.2712  2.7858 -3.9764
  441MOL0     H60826   2.525  -1.229   1.555  1.9181 -2.9259  2.8822
  441MOL0     H60827   2.558  -1.322   1.405  1.3773 -2.6261  0.8310
  441MOL0     H60828   2.712  -1.163   1.329  3.3586  0.5391  1.2500
  441MOL0     H60829   2.742  -1.102   1.484  1.0298 -1.1168 -0.8245
  441MOL0     H60830   2.515  -0.999   1.500  2.9034 -1.1858  1.0604
  441MOL0     H60831   2.608  -0.934   1.382  1.2143 -1.1573  2.1498
  441MOL0     H60832   2.372  -1.116   1.358  0.3028  0.7563 -0.9951
  441MOL0     H60833   2.502  -1.146   1.234  0.5815  0.4054 -0.0771
  441MOL0     H60834   2.471  -0.881   1.184  0.3601 -0.9623 -0.8733
  441MOL0     H60835   2.347  -0.902   1.306  0.3644 -2.4341  2.1662
  441MOL0     H60836   2.369  -1.066   1.024  2.3262 -2.2166  3.2926
  441MOL0     H60837   2.260  -0.923   1.053 -0.9502  0.1593 -0.9987
  441MOL0     H60838   2.366  -1.257   1.744  3.1333 -1.4472  0.5512
  441MOL0     H60839   2.248  -1.217   1.960 -0.7475  0.1613 -1.9782
  441MOL0     H60840   2.090  -1.090   2.183 -2.9094 -0.2321  2.1291
  441MOL0     H60841   2.071  -0.911   2.358  2.4621  2.0220  1.0739
  441MOL0     H60842   2.029   0.563   3.700  0.4521 -3.3464 -0.1321
  441MOL0     H60843   2.060   0.729   3.883  1.0661  0.2951  3.6577
  441MOL0     H60844   2.095   0.752   4.287  1.1418 -1.2802 -0.4704
  441MOL0     H60845   2.049   0.921   4.476 -0.8945  2.1397 -0.1630
  441MOL0     H60846   2.049   1.145   4.593  1.2091  2.0204 -0.6471
  441MOL0     H60847   2.063   0.985   4.680  1.7535  0.1246  1.5328
  441MOL0     H60848   2.054   1.215   4.812 -2.3364 -3.0464 -3.3049
  441MOL0     H60849   2.213   1.248   4.732  0.9941  0.4094 -1.0882
  441MOL0     H60850   2.308   1.051   4.851  0.0696  0.0932 -1.4365
  441MOL0     H60851   2.262   1.189   4.951 -3.9260 -0.0676  2.8539
  441MOL0     H60852   2.164   0.923   4.954 -1.0610  0.5998 -1.0881
  441MOL0     H60853   2.016   1.015   4.922 -1.1055  1.5360 -0.4922
  441MOL0     H60854   1.993   1.061   5.312 -1.2360  0.3922 -0.6162
  441MOL0     H60855   2.455   1.004   4.493 -2.6920  2.2896  1.6785
  441MOL0     H60856   2.594   0.802   4.261  1.7301  0.9153  1.1781
  441MOL0     H60857   2.550   0.925   4.157 -3.2756 -3.0831 -0.7301
  441MOL0     H60858   2.613   0.959   4.325  2.2776 -1.7037  0.3536
  442MOL0     O60859   2.341   6.225   6.477  0.0453  0.5198 -0.8986
  442MOL0     C60860   2.238   6.159   6.467  0.2250  0.7591  0.6587
  442MOL0     O60861   2.147   6.159   6.368 -0.6864 -0.0872  0.5850
  442MOL0     C60862   2.173   6.241   6.270 -0.6455 -0.2673  0.9288
  442MOL0     C60863   2.052   6.324   6.238 -1.3293  0.4189  0.8232
  442MOL0     C60864   2.070   6.422   6.140 -0.2481  0.1407  0.8538
  442MOL0     C60865   2.185   6.437   6.059  1.0921  0.1478  0.2548
  442MOL0     O60866   2.191   6.511   5.944  0.6128 -0.2745 -0.1008
  442MOL0     C60867   2.160   6.649   5.941  0.1109 -0.3859 -0.2424
  442MOL0     C60868   2.161   6.695   5.795 -0.6684 -0.6208 -0.0746
  442MOL0     C60869   2.070   6.603   5.710  0.2706 -0.4449  0.3141
  442MOL0     C60870   2.122   6.575   5.572  0.7106 -0.3627  1.0741
  442MOL0     C60871   2.146   6.701   5.487  0.4036  0.0546  0.0159
  442MOL0     C60872   2.232   6.665   5.361  0.3443 -0.7643 -0.0187
  442MOL0     C60873   2.287   6.786   5.284 -0.1774  0.1407  0.2025
  442MOL0     C60874   2.376   6.872   5.378  0.2045 -0.2139 -0.4299
  442MOL0     N60875   2.497   6.802   5.428 -0.7361  0.0609 -0.1041
  442MOL0     C60876   2.505   6.729   5.548 -0.4122  0.7323  0.2061
  442MOL0     C60877   2.639   6.722   5.557 -0.5183 -0.2418  1.4317
  442MOL0     C60878   2.715   6.664   5.675  0.1064  0.3522 -0.8737
  442MOL0     C60879   2.750   6.516   5.669  0.0340 -1.0460  0.3781
  442MOL0     C60880   2.652   6.419   5.612 -0.4109 -0.3169 -0.4075
  442MOL0     C60881   2.535   6.380   5.703  0.3671 -0.2230  0.1669
  442MOL0     O60882   2.431   6.314   5.623 -0.2837  0.2780  0.9752
  442MOL0     C60883   2.366   6.215   5.696 -0.7071 -0.4090  0.1379
  442MOL0     C60884   2.249   6.223   5.761  0.5487  0.3624 -0.6059
  442MOL0     C60885   2.197   6.120   5.842  0.3914 -0.9199 -0.4777
  442MOL0     C60886   2.081   6.159   5.918  0.1707  0.3945 -1.1262
  442MOL0     C60887   2.261   6.000   5.847  0.4393  0.0008  0.5654
  442MOL0     C60888   2.221   5.886   5.942 -0.2582 -0.4822 -0.7724
  442MOL0     O60889   2.086   5.876   5.977 -0.6758  0.2890  0.1300
  442MOL0     C60890   2.050   5.809   6.089  1.0090 -0.9303 -0.0637
  442MOL0     C60891   2.107   5.852   6.212 -0.1565  0.4349  1.0839
  442MOL0     C60892   2.056   5.811   6.329  0.5947 -0.2395  0.2231
  442MOL0     C60893   1.963   5.702   6.331 -0.4758  0.3992  0.2573
  442MOL0     O60894   1.914   5.666   6.459 -0.2277 -1.6042  0.8197
  442MOL0     C60895   1.817   5.557   6.457  0.9987  0.5959 -0.1161
  442MOL0     C60896   1.801   5.500   6.597 -0.1019  0.3788 -0.4571
  442MOL0     C60897   1.694   5.393   6.617  0.6467 -0.9157 -0.1266
  442MOL0     C60898   1.701   5.323   6.756 -0.6255  0.4989 -0.4670
  442MOL0     C60899   1.676   5.177   6.761  0.2297 -0.1046 -0.0808
  442MOL0     C60900   1.591   5.135   6.890 -0.6289 -0.4768  0.6660
  442MOL0     C60901   1.441   5.173   6.888  0.7437 -0.0082 -0.5191
  442MOL0     C60902   1.385   5.084   6.995 -0.1221 -0.0865 -1.0850
  442MOL0    Cl60903   1.228   5.143   7.040  0.1371 -0.2556 -0.3937
  442MOL0     C60904   1.904   5.658   6.208 -0.0872  0.6723  0.0624
  442MOL0     C60905   1.949   5.713   6.091 -0.1679  0.4366  0.2877
  442MOL0     O60906   2.305   5.811   5.989 -0.1206  0.5384  0.1456
  442MOL0     C60907   2.376   5.989   5.763 -0.4442  0.0755 -0.7080
  442MOL0     C60908   2.426   6.093   5.684  0.5798 -1.0433 -0.2645
  442MOL0     N60909   2.709   6.778   5.449  0.1605 -1.3078  0.1178
  442MOL0     N60910   2.623   6.829   5.373  0.2470 -0.3054  0.2289
  442MOL0     C60911   2.293   6.365   6.095 -0.0798  0.6298 -0.6084
  442MOL0     C60912   2.291   6.264   6.196 -1.1381 -0.8576  0.1359
  442MOL0     C60913   2.208   6.084   6.585  0.2072 -0.3423 -0.4503
  442MOL0     C60914   2.102   6.128   6.667  1.0167  0.1097  0.4326
  442MOL0     C60915   2.074   6.062   6.786  0.3605 -0.7400  0.0701
  442MOL0     C60916   2.148   5.958   6.824  0.3150  0.3141 -0.4971
  442MOL0     O60917   2.140   5.889   6.943  0.9101  0.4615 -0.1130
  442MOL0     C60918   2.057   5.930   7.053  0.5993 -0.0098  0.5018
  442MOL0     C60919   2.145   6.006   7.145 -0.5281 -0.2775  1.0459
  442MOL0     C60920   2.109   5.977   7.285 -0.2856  0.2317  0.2079
  442MOL0     C60921   2.186   6.075   7.376  0.0933  0.1908 -0.4522
  442MOL0     C60922   2.168   6.040   7.518 -0.3848  0.0982 -0.4405
  442MOL0     C60923   2.163   5.993   7.632 -0.3931 -0.6404  0.3192
  442MOL0     C60924   2.248   5.912   6.741  0.9018 -0.1292  0.0648
  442MOL0     C60925   2.282   5.970   6.618  1.1554 -0.0661 -0.1984
  442MOL0     C60926   2.381   5.912   6.535  0.3262  0.1955  0.5326
  442MOL0     H60927   1.962   6.309   6.297 -0.0226 -1.5826  2.4690
  442MOL0     H60928   1.987   6.492   6.130 -0.1419  0.1279 -0.2159
  442MOL0     H60929   2.234   6.701   6.003  1.1916  0.2395 -1.9851
  442MOL0     H60930   2.062   6.658   5.988  0.3419  0.4630  0.0999
  442MOL0     H60931   2.135   6.801   5.790  3.3216  0.6416  1.9143
  442MOL0     H60932   2.261   6.698   5.751 -1.5016  0.4827 -2.0113
  442MOL0     H60933   2.047   6.507   5.756 -1.1255 -1.1753 -1.7894
  442MOL0     H60934   1.969   6.644   5.706 -1.0872 -2.8394  4.2574
  442MOL0     H60935   2.219   6.526   5.578  1.7942  0.9585 -2.9132
  442MOL0     H60936   2.054   6.503   5.526 -0.3050  1.4380 -0.3696
  442MOL0     H60937   2.206   6.775   5.541  2.1094  1.5277 -3.5699
  442MOL0     H60938   2.053   6.756   5.467  0.4360  0.6481  1.3886
  442MOL0     H60939   2.318   6.601   5.381  0.4554 -1.9343 -3.4918
  442MOL0     H60940   2.174   6.607   5.289  0.2206 -0.2418 -0.3433
  442MOL0     H60941   2.211   6.858   5.253  1.6145  2.0268 -0.0854
  442MOL0     H60942   2.343   6.749   5.198 -1.0694  0.5642 -0.5802
  442MOL0     H60943   2.416   6.961   5.328 -0.5719  0.8743  0.8208
  442MOL0     H60944   2.310   6.917   5.453  0.4123  2.0744 -1.5168
  442MOL0     H60945   2.436   6.694   5.624 -2.2687  0.1976 -1.6266
  442MOL0     H60946   2.652   6.691   5.760 -0.9723  1.3595 -1.9469
  442MOL0     H60947   2.811   6.717   5.680  2.5502 -3.7818  1.9069
  442MOL0     H60948   2.842   6.498   5.613 -0.4794  1.2535 -1.3501
  442MOL0     H60949   2.776   6.498   5.774  2.6926 -1.8935 -0.3670
  442MOL0     H60950   2.625   6.452   5.511 -2.0941 -2.1540 -0.6094
  442MOL0     H60951   2.709   6.327   5.596  1.6240  1.2499 -3.0208
  442MOL0     H60952   2.575   6.332   5.794  0.3517  0.7410  0.6966
  442MOL0     H60953   2.503   6.480   5.732  0.8142 -0.3306  1.0823
  442MOL0     H60954   2.186   6.311   5.757 -4.2412 -2.6645 -0.9441
  442MOL0     H60955   2.107   6.157   6.024 -1.8357  0.2971 -0.5927
  442MOL0     H60956   2.013   6.073   5.911  0.4511 -0.1251  1.4207
  442MOL0     H60957   2.062   6.259   5.879  2.1023  0.6353 -1.5058
  442MOL0     H60958   2.196   5.912   6.228 -0.8440  1.6131  0.6711
  442MOL0     H60959   2.097   5.842   6.425 -1.4785  5.7573 -0.3905
  442MOL0     H60960   1.717   5.589   6.425  0.0262 -0.8398  1.3451
  442MOL0     H60961   1.853   5.479   6.389 -0.9196  2.3158 -3.3732
  442MOL0     H60962   1.896   5.456   6.628  1.1069  3.0411 -0.0724
  442MOL0     H60963   1.786   5.588   6.660  0.6455  2.2066 -2.6631
  442MOL0     H60964   1.699   5.303   6.556 -0.9059 -0.6302 -0.7152
  442MOL0     H60965   1.596   5.441   6.613  2.9212  4.4985 -1.1716
  442MOL0     H60966   1.633   5.378   6.822 -0.1362  2.4267 -1.5162
  442MOL0     H60967   1.804   5.334   6.791 -0.7250  1.6049 -0.5058
  442MOL0     H60968   1.606   5.160   6.678  1.6170 -2.7734 -0.8191
  442MOL0     H60969   1.768   5.121   6.741 -0.2412 -1.2469  0.8390
  442MOL0     H60970   1.644   5.195   6.965  0.3344  2.1621 -1.9404
  442MOL0     H60971   1.600   5.027   6.905 -1.1335 -0.7239 -0.6522
  442MOL0     H60972   1.391   5.147   6.794  2.6313 -0.4607 -1.4610
  442MOL0     H60973   1.426   5.276   6.920 -2.0987 -0.1595 -1.1109
  442MOL0     H60974   1.456   5.092   7.078  0.0219  1.0968 -1.3082
  442MOL0     H60975   1.372   4.981   6.960  0.1579 -0.6960  0.5019
  442MOL0     H60976   1.826   5.586   6.189 -1.9238  3.0326 -2.0216
  442MOL0     H60977   1.922   5.661   6.000  1.3741 -2.4956  1.3687
  442MOL0     H60978   2.420   5.890   5.765 -0.5527  0.0287  0.7626
  442MOL0     H60979   2.509   6.105   5.615  0.1298  3.7902 -0.2521
  442MOL0     H60980   2.381   6.372   6.031  1.6134  4.0249  1.8231
  442MOL0     H60981   2.374   6.195   6.205  0.3264  0.8104  0.0549
  442MOL0     H60982   2.032   6.207   6.641  0.0819 -0.4700  1.1176
  442MOL0     H60983   2.016   6.123   6.854 -2.7155 -2.6165 -0.6417
  442MOL0     H60984   1.974   5.994   7.021 -0.6380 -0.7220  2.1063
  442MOL0     H60985   2.007   5.840   7.092 -2.3086  0.9810 -0.6715
  442MOL0     H60986   2.132   6.112   7.122  1.5553 -0.6731 -2.7702
  442MOL0     H60987   2.250   5.981   7.126 -0.5983  1.3898 -2.2325
  442MOL0     H60988   2.002   5.991   7.298  0.0107  5.1622 -0.7998
  442MOL0     H60989   2.135   5.877   7.323  0.7932  1.2441  2.3007
  442MOL0     H60990   2.147   6.177   7.363 -0.2239  0.1362  0.0810
  442MOL0     H60991   2.292   6.064   7.347 -0.2255  0.4771 -1.8288
  442MOL0     H60992   2.175   5.939   7.724 -2.0375 -3.4623 -0.9775
  442MOL0     H60993   2.301   5.828   6.785  0.9873  1.2837  2.8382
  442MOL0     H60994   2.477   5.965   6.535 -0.1452  1.1030  1.9471
  442MOL0     H60995   2.395   5.810   6.570 -0.5638 -0.7289 -1.6735
  442MOL0     H60996   2.351   5.891   6.433  3.1084 -1.6407 -0.0198
  443MOL0     O60997   5.505   6.868   7.730 -0.2032 -0.6814 -0.4314
  443MOL0     C60998   5.517   6.860   7.848 -0.4585  0.3973  0.2848
  443MOL0     O60999   5.590   6.946   7.930 -0.2314 -0.3480  0.2473
  443MOL0     C61000   5.590   7.076   7.895  1.0176 -0.4489  0.3504
  443MOL0     C61001   5.466   7.144   7.876 -0.4230  0.0611 -0.8110
  443MOL0     C61002   5.467   7.281   7.843  0.5402 -0.7308 -0.6436
  443MOL0     C61003   5.589   7.351   7.817  0.3414  0.8749 -0.1487
  443MOL0     O61004   5.597   7.486   7.784  0.3982  0.2085 -0.4532
  443MOL0     C61005   5.556   7.506   7.646 -1.1005  0.4577  0.2275
  443MOL0     C61006   5.655   7.454   7.541 -0.8516 -0.6170  0.8612
  443MOL0     C61007   5.791   7.537   7.549 -0.2837  0.1811 -0.3887
  443MOL0     C61008   5.899   7.474   7.461  1.3494  1.0951 -0.5357
  443MOL0     C61009   6.028   7.556   7.475 -0.6287 -0.0990  0.9641
  443MOL0     C61010   6.021   7.707   7.450 -0.1894 -0.8263  0.6602
  443MOL0     C61011   6.008   7.736   7.298 -0.1723  0.3360 -0.3529
  443MOL0     C61012   6.013   7.879   7.270 -0.3043 -0.1825 -0.3784
  443MOL0     N61013   6.007   7.913   7.132  0.4103 -0.1937 -0.2460
  443MOL0     C61014   5.900   7.958   7.060 -0.1269  0.9108  0.5254
  443MOL0     C61015   5.958   8.002   6.940 -0.2253  0.0178 -0.9149
  443MOL0     C61016   5.892   8.065   6.819  0.0852 -0.2597  0.1926
  443MOL0     C61017   5.804   8.184   6.837  0.2646  0.3413  0.2972
  443MOL0     C61018   5.741   8.242   6.710 -0.4690  0.7631  0.2985
  443MOL0     C61019   5.654   8.149   6.622  0.0185  0.3773 -0.1797
  443MOL0     O61020   5.527   8.122   6.678  0.4040 -0.4518  0.0125
  443MOL0     C61021   5.493   7.992   6.652 -0.4238  0.2027  0.1036
  443MOL0     C61022   5.375   7.984   6.592 -0.1688  0.0533 -0.1500
  443MOL0     C61023   5.316   7.861   6.566  0.4695 -0.2458  0.4750
  443MOL0     C61024   5.182   7.865   6.481 -1.1609 -0.0463 -0.3301
  443MOL0     C61025   5.373   7.741   6.611  0.0288 -0.0327 -0.2653
  443MOL0     C61026   5.315   7.605   6.610  0.8521 -0.4682  0.1846
  443MOL0     O61027   5.404   7.504   6.633  0.2308 -0.0627  0.0475
  443MOL0     C61028   5.358   7.374   6.644 -1.0572 -0.4302 -0.5912
  443MOL0     C61029   5.237   7.342   6.709  0.4386  0.2734  0.8872
  443MOL0     C61030   5.207   7.205   6.736  0.0197 -0.3285  0.8310
  443MOL0     C61031   5.287   7.105   6.689  0.2102 -0.4581  0.2820
  443MOL0     O61032   5.251   6.979   6.730  0.6588 -0.7013  0.7636
  443MOL0     C61033   5.208   6.904   6.608 -1.1287 -0.1307 -0.3115
  443MOL0     C61034   5.174   6.768   6.666  0.2177 -0.4554 -0.6840
  443MOL0     C61035   5.046   6.762   6.752  0.1390  0.1867  0.7675
  443MOL0     C61036   5.031   6.626   6.826 -1.2983  0.7556 -0.1019
  443MOL0     C61037   4.900   6.586   6.896  1.3410  1.0161  0.7047
  443MOL0     C61038   4.893   6.447   6.968 -0.8546 -0.6605  0.4246
  443MOL0     C61039   4.937   6.331   6.883  0.5056  0.1082  0.3002
  443MOL0     C61040   4.882   6.315   6.740  0.2518 -0.1124 -0.9899
  443MOL0    Cl61041   4.709   6.342   6.741 -0.2729 -0.0883 -0.2254
  443MOL0     C61042   5.409   7.139   6.629  0.3966  0.4153  0.1933
  443MOL0     C61043   5.440   7.272   6.599 -0.8224  0.3053 -0.6302
  443MOL0     O61044   5.206   7.590   6.556 -0.0274  0.5029  0.2818
  443MOL0     C61045   5.506   7.748   6.660 -0.6823 -0.7310 -0.0485
  443MOL0     C61046   5.565   7.875   6.683  0.1141  0.5960 -0.1408
  443MOL0     N61047   6.097   7.984   6.938  0.2431  0.5623 -0.3264
  443MOL0     N61048   6.118   7.915   7.051  0.0467 -0.2619  0.4259
  443MOL0     C61049   5.703   7.280   7.848  0.2172 -0.4912 -0.0157
  443MOL0     C61050   5.710   7.149   7.888 -0.2716 -0.4034 -0.3633
  443MOL0     C61051   5.476   6.724   7.907  1.0349  0.1442  0.2860
  443MOL0     C61052   5.353   6.669   7.866  0.4442 -0.1630  0.1870
  443MOL0     C61053   5.293   6.552   7.926 -0.5298  0.0174  0.2997
  443MOL0     C61054   5.372   6.497   8.027  0.2699 -0.0701  0.9813
  443MOL0     O61055   5.324   6.390   8.094 -0.2072  0.0059 -0.4231
  443MOL0     C61056   5.401   6.271   8.113  0.3168  0.1240 -0.2913
  443MOL0     C61057   5.313   6.151   8.144  0.3561  0.0156 -0.8349
  443MOL0     C61058   5.369   6.016   8.096 -0.3455 -0.6262  0.1814
  443MOL0     C61059   5.268   5.895   8.134 -0.7688 -0.2451  0.3911
  443MOL0     C61060   5.329   5.766   8.108  0.1514  0.0771 -0.0332
  443MOL0     C61061   5.378   5.655   8.085  0.1552 -0.9351  1.0048
  443MOL0     C61062   5.495   6.547   8.064 -0.2959  0.3725  0.0927
  443MOL0     C61063   5.553   6.659   8.005  0.0321  0.2144  0.0916
  443MOL0     C61064   5.692   6.693   8.057 -0.1308 -0.2076  0.1216
  443MOL0     H61065   5.372   7.092   7.894 -0.4058  0.7878  1.7092
  443MOL0     H61066   5.375   7.335   7.821  2.1240  2.2137 -0.4907
  443MOL0     H61067   5.549   7.612   7.621  1.0132  0.0583 -2.6093
  443MOL0     H61068   5.464   7.449   7.628 -0.1607 -1.5126  1.3891
  443MOL0     H61069   5.669   7.347   7.557  0.1380 -0.6161  0.1077
  443MOL0     H61070   5.625   7.476   7.438  3.3121 -1.3564 -0.7189
  443MOL0     H61071   5.764   7.638   7.519  1.8413  2.3747  4.1202
  443MOL0     H61072   5.846   7.528   7.644  1.4962 -1.4880 -1.4915
  443MOL0     H61073   5.928   7.375   7.498  0.9149 -0.0177 -3.0184
  443MOL0     H61074   5.869   7.460   7.357  0.8811  1.5325 -0.4615
  443MOL0     H61075   6.100   7.515   7.404 -1.8647 -3.2149  1.3297
  443MOL0     H61076   6.070   7.540   7.575  0.0424  0.8406  0.8409
  443MOL0     H61077   5.937   7.753   7.504 -0.9379 -2.9553  1.4201
  443MOL0     H61078   6.113   7.749   7.491  0.4481 -1.4947 -0.0351
  443MOL0     H61079   5.908   7.703   7.269 -0.5849 -0.1345  1.5131
  443MOL0     H61080   6.090   7.679   7.252  0.0748 -0.2565  0.7710
  443MOL0     H61081   5.923   7.920   7.318 -0.3131 -1.3005  0.6046
  443MOL0     H61082   6.104   7.926   7.310  0.3876 -1.9549  0.2071
  443MOL0     H61083   5.794   7.974   7.079 -0.1398  0.0337  1.2330
  443MOL0     H61084   5.842   7.982   6.770 -2.1452 -0.6387  2.8694
  443MOL0     H61085   5.966   8.088   6.741  2.4561  0.1359  2.4408
  443MOL0     H61086   5.722   8.147   6.899 -0.2369 -0.5370 -0.8641
  443MOL0     H61087   5.859   8.263   6.890  3.0558  0.9375 -3.1536
  443MOL0     H61088   5.692   8.339   6.721  0.9986  2.0630 -3.1115
  443MOL0     H61089   5.818   8.266   6.636 -2.8918 -0.9063 -3.0216
  443MOL0     H61090   5.634   8.191   6.523  2.9013 -1.9278 -1.9050
  443MOL0     H61091   5.714   8.060   6.601  1.2576  1.1282  0.0470
  443MOL0     H61092   5.325   8.077   6.566 -0.6672 -0.7926 -2.5074
  443MOL0     H61093   5.104   7.814   6.537  0.8808 -1.3244  1.5163
  443MOL0     H61094   5.204   7.812   6.388 -2.1809 -0.4871 -0.3232
  443MOL0     H61095   5.152   7.968   6.459  0.2445  0.2351 -1.0737
  443MOL0     H61096   5.174   7.424   6.743 -1.4700 -1.4195  1.6079
  443MOL0     H61097   5.115   7.187   6.792 -0.1038  2.2577  1.5792
  443MOL0     H61098   5.129   6.959   6.555 -0.6645 -0.1354 -1.0166
  443MOL0     H61099   5.291   6.895   6.538 -0.2127 -0.8332  0.8235
  443MOL0     H61100   5.169   6.707   6.575 -0.4398  0.7534 -1.4850
  443MOL0     H61101   5.257   6.722   6.721  1.0403 -0.5280 -1.9185
  443MOL0     H61102   4.960   6.771   6.685 -0.7001 -2.6625  1.3307
  443MOL0     H61103   5.039   6.843   6.825  0.6403  1.5179 -0.6076
  443MOL0     H61104   5.109   6.610   6.901 -2.5563  1.9732  1.5378
  443MOL0     H61105   5.060   6.552   6.751 -0.7435  2.4192 -1.6084
  443MOL0     H61106   4.882   6.663   6.972  0.9950  1.7562 -0.0962
  443MOL0     H61107   4.814   6.597   6.830  1.6748  2.2089  0.4421
  443MOL0     H61108   4.790   6.417   6.992 -0.2446 -0.3246  3.9206
  443MOL0     H61109   4.951   6.447   7.060  0.3050  1.0461 -0.2530
  443MOL0     H61110   4.906   6.240   6.936  1.3116 -0.6349 -0.4608
  443MOL0     H61111   5.045   6.314   6.870  0.6569  1.2740 -0.0516
  443MOL0     H61112   4.893   6.213   6.701  0.7834 -0.7195  0.6872
  443MOL0     H61113   4.924   6.385   6.667  2.4927  0.4110  0.6929
  443MOL0     H61114   5.473   7.052   6.612  1.8578  1.5386 -0.3011
  443MOL0     H61115   5.535   7.290   6.550 -0.8976  3.9004  0.3062
  443MOL0     H61116   5.575   7.669   6.687 -1.1582 -1.7492 -1.6531
  443MOL0     H61117   5.658   7.882   6.738  0.7486 -0.6391 -1.0161
  443MOL0     H61118   5.787   7.349   7.839  0.7606 -0.6903  2.6895
  443MOL0     H61119   5.808   7.105   7.906 -0.7735 -2.2275 -1.8008
  443MOL0     H61120   5.298   6.716   7.785  2.0653  2.7016  0.5990
  443MOL0     H61121   5.191   6.520   7.910 -0.3183  0.0307 -1.2034
  443MOL0     H61122   5.455   6.250   8.020 -1.7476 -1.1281 -1.2899
  443MOL0     H61123   5.473   6.271   8.195  0.3198 -1.8604 -0.2455
  443MOL0     H61124   5.220   6.171   8.091  0.9162 -1.7776 -2.6642
  443MOL0     H61125   5.303   6.148   8.252  4.1662 -0.6165 -0.3547
  443MOL0     H61126   5.378   6.022   7.988 -1.0010 -1.6738  0.0602
  443MOL0     H61127   5.467   6.005   8.144 -0.4420 -0.3164  0.4565
  443MOL0     H61128   5.175   5.900   8.077  0.2727  0.3669 -1.3322
  443MOL0     H61129   5.258   5.914   8.241  1.6832  0.2863  0.5817
  443MOL0     H61130   5.410   5.555   8.067  2.5842 -0.0250 -0.2310
  443MOL0     H61131   5.543   6.511   8.154 -0.4311  1.7506  0.7393
  443MOL0     H61132   5.696   6.779   8.125 -0.9094 -0.0800  0.0208
  443MOL0     H61133   5.730   6.603   8.107  0.5129 -0.1357 -0.2285
  443MOL0     H61134   5.752   6.707   7.967 -2.3251 -0.9751 -1.5638
  444MOL0     O61135   0.040   5.620   4.761  0.3724  0.6688  0.5209
  444MOL0     C61136   0.132   5.569   4.686  0.1607 -0.3787 -0.4053
  444MOL0     O61137   0.115   5.545   4.549 -1.2275  0.6136  0.4445
  444MOL0     C61138  -0.000   5.543   4.476 -0.2832 -1.0845  0.3106
  444MOL0     C61139  -0.129   5.499   4.524 -0.0437  0.1058 -0.3804
  444MOL0     C61140  -0.237   5.487   4.442  0.8000  0.4246 -0.6591
  444MOL0     C61141  -0.233   5.517   4.305  0.2088  0.2829 -0.8321
  444MOL0     O61142  -0.347   5.501   4.234 -0.2723  0.1972  0.2591
  444MOL0     C61143  -0.360   5.583   4.125 -0.5715 -1.0164  0.1159
  444MOL0     C61144  -0.504   5.586   4.073 -0.3342 -0.2221 -0.3295
  444MOL0     C61145  -0.596   5.670   4.150  0.7135 -0.0953 -0.9061
  444MOL0     C61146  -0.640   5.607   4.282  0.4499 -1.7883  0.1743
  444MOL0     C61147  -0.762   5.680   4.340  0.1914  0.0030  0.4588
  444MOL0     C61148  -0.723   5.817   4.384  0.2106 -0.2347 -1.0955
  444MOL0     C61149  -0.833   5.889   4.456 -0.3582  0.3739  1.3909
  444MOL0     C61150  -0.828   6.045   4.455  0.4703  1.0277  0.8994
  444MOL0     N61151  -0.940   6.106   4.525 -0.5083 -0.2108 -0.7815
  444MOL0     C61152  -0.957   6.096   4.662 -0.9212  0.2651 -0.4094
  444MOL0     C61153  -1.080   6.157   4.678  0.2788  0.6608 -0.3332
  444MOL0     C61154  -1.139   6.185   4.813 -0.2437  0.2569 -0.6849
  444MOL0     C61155  -1.125   6.334   4.836 -0.1391 -0.0612  0.2844
  444MOL0     C61156  -1.165   6.395   4.971  0.7061  0.5093 -0.0193
  444MOL0     C61157  -1.302   6.472   4.962 -0.6756  0.2660 -0.7943
  444MOL0     O61158  -1.413   6.390   4.982 -0.1095 -0.2269 -0.3835
  444MOL0     C61159  -1.449   6.371   5.114 -0.9140  0.9715  0.8222
  444MOL0     C61160  -1.476   6.470   5.204 -0.3775 -0.3506  0.3853
  444MOL0     C61161  -1.522   6.451   5.331  0.4937 -0.1603  0.0620
  444MOL0     C61162  -1.544   6.572   5.421  0.2374 -0.3773 -0.0288
  444MOL0     C61163  -1.526   6.313   5.381  0.3908  1.0106  1.4242
  444MOL0     C61164  -1.565   6.264   5.521 -0.8385 -0.5994  0.2844
  444MOL0     O61165  -1.597   6.134   5.536  0.0958 -0.2128 -0.2188
  444MOL0     C61166  -1.623   6.080   5.657  0.8608  0.0318 -0.4610
  444MOL0     C61167  -1.557   5.959   5.701  0.0133  0.6947  0.3451
  444MOL0     C61168  -1.584   5.885   5.819 -0.4738 -0.3319  0.1680
  444MOL0     C61169  -1.682   5.933   5.902 -1.4208 -0.2106 -0.2354
  444MOL0     O61170  -1.711   5.863   6.011  0.0915 -1.2793 -0.0612
  444MOL0     C61171  -1.709   5.936   6.132 -0.3083  0.4121 -0.2672
  444MOL0     C61172  -1.644   5.849   6.239  0.7976  0.2066  0.3838
  444MOL0     C61173  -1.710   5.711   6.259  0.1206  0.2892  0.2738
  444MOL0     C61174  -1.662   5.600   6.162 -1.0348 -1.1772  0.2418
  444MOL0     C61175  -1.750   5.480   6.136  0.1517  0.5582  0.3844
  444MOL0     C61176  -1.724   5.406   6.002  0.7949 -0.2211 -0.2264
  444MOL0     C61177  -1.776   5.489   5.881 -0.8235  0.8147 -0.3228
  444MOL0     C61178  -1.689   5.446   5.765 -0.4209  0.1196  0.2050
  444MOL0    Cl61179  -1.514   5.501   5.793 -0.4603  0.3034  0.0424
  444MOL0     C61180  -1.742   6.055   5.862 -0.0192 -0.2188 -0.5624
  444MOL0     C61181  -1.711   6.126   5.749 -0.0394 -0.7370 -0.1745
  444MOL0     O61182  -1.556   6.349   5.611 -0.1829  0.4927  0.0578
  444MOL0     C61183  -1.499   6.209   5.282  0.0251  0.7203  0.6680
  444MOL0     C61184  -1.470   6.239   5.155 -0.7584 -0.4524  0.5840
  444MOL0     N61185  -1.133   6.206   4.554  0.5253  0.1650 -0.0215
  444MOL0     N61186  -1.045   6.178   4.468 -0.0187 -0.6303 -0.1324
  444MOL0     C61187  -0.114   5.565   4.256  0.9689 -0.2441 -0.0070
  444MOL0     C61188   0.008   5.565   4.337  0.1862 -0.6372  0.0097
  444MOL0     C61189   0.257   5.562   4.743  0.1336  0.7867 -0.5659
  444MOL0     C61190   0.364   5.610   4.666 -1.0195 -0.7428 -0.4712
  444MOL0     C61191   0.494   5.594   4.710  0.1708  0.4782  0.1710
  444MOL0     C61192   0.529   5.537   4.829  1.0602  1.1064 -0.0031
  444MOL0     O61193   0.664   5.512   4.869 -0.3830 -0.3214 -0.0199
  444MOL0     C61194   0.747   5.626   4.859  0.1117 -0.1774  0.4034
  444MOL0     C61195   0.870   5.625   4.944  1.0199  0.2098  1.1268
  444MOL0     C61196   0.991   5.549   4.888 -0.1897 -0.1068 -0.2626
  444MOL0     C61197   0.954   5.415   4.816 -0.2110  0.2838 -0.5212
  444MOL0     C61198   1.065   5.336   4.767 -0.1268 -0.5711  1.0577
  444MOL0     C61199   1.134   5.254   4.717 -0.7453 -0.0775  0.0791
  444MOL0     C61200   0.419   5.497   4.914  0.5500  0.4432  0.4368
  444MOL0     C61201   0.287   5.511   4.869 -0.7323  0.2105 -1.0821
  444MOL0     C61202   0.182   5.462   4.965  1.4499 -0.3024 -0.4539
  444MOL0     H61203  -0.140   5.475   4.629  0.2686 -1.6081 -0.6987
  444MOL0     H61204  -0.327   5.441   4.480  2.6388 -3.1318 -0.1914
  444MOL0     H61205  -0.286   5.557   4.049 -1.1898 -3.2876  0.2148
  444MOL0     H61206  -0.329   5.684   4.153  0.5817 -0.7882 -1.7993
  444MOL0     H61207  -0.519   5.615   3.969 -1.2206 -2.0453 -0.7374
  444MOL0     H61208  -0.542   5.484   4.076 -0.1335 -0.3194 -0.9397
  444MOL0     H61209  -0.546   5.766   4.168 -0.5385  0.9237 -2.5902
  444MOL0     H61210  -0.682   5.703   4.091  0.7298 -0.3048 -1.0478
  444MOL0     H61211  -0.667   5.502   4.267 -2.8829 -1.0647  0.2382
  444MOL0     H61212  -0.558   5.605   4.354 -1.4346 -2.7995  2.4447
  444MOL0     H61213  -0.794   5.629   4.432 -1.7352 -1.3918 -0.9071
  444MOL0     H61214  -0.847   5.684   4.272  0.9090  0.5279 -0.4416
  444MOL0     H61215  -0.638   5.805   4.451 -1.3490 -1.6532  0.7102
  444MOL0     H61216  -0.697   5.876   4.295 -0.2292  2.6766  0.5940
  444MOL0     H61217  -0.828   5.852   4.559  3.3779  1.2413  1.6600
  444MOL0     H61218  -0.924   5.858   4.405 -0.2198  1.7435  0.2496
  444MOL0     H61219  -0.728   6.071   4.491  0.6503  1.3107  0.2136
  444MOL0     H61220  -0.813   6.085   4.354 -0.6334  1.7035  0.9903
  444MOL0     H61221  -0.888   6.054   4.735  0.1365  2.4424 -0.0971
  444MOL0     H61222  -1.094   6.126   4.893  0.6564 -0.5542 -1.7477
  444MOL0     H61223  -1.247   6.170   4.809 -0.3090  0.6326 -0.3381
  444MOL0     H61224  -1.026   6.376   4.812 -1.9287  2.5440 -3.4468
  444MOL0     H61225  -1.186   6.378   4.757  0.9102 -1.5401 -1.4401
  444MOL0     H61226  -1.156   6.314   5.044 -0.1201 -0.6849 -1.1988
  444MOL0     H61227  -1.085   6.467   4.991 -0.5429  2.3185 -1.1948
  444MOL0     H61228  -1.279   6.542   5.043  0.4423 -3.4277  2.3981
  444MOL0     H61229  -1.307   6.536   4.874  2.0417  1.0747 -0.4746
  444MOL0     H61230  -1.472   6.574   5.170  2.1789  1.3096  4.9175
  444MOL0     H61231  -1.478   6.566   5.508 -2.1892 -0.9335  1.8898
  444MOL0     H61232  -1.649   6.551   5.441  0.5351 -1.2103  0.7396
  444MOL0     H61233  -1.542   6.666   5.365 -2.6548 -0.6643 -0.7466
  444MOL0     H61234  -1.492   5.918   5.624  0.7530  0.8937  0.8670
  444MOL0     H61235  -1.525   5.794   5.828 -1.5499 -1.3465 -2.2342
  444MOL0     H61236  -1.658   6.033   6.122 -1.3807  0.9175 -1.2239
  444MOL0     H61237  -1.810   5.972   6.157  1.1260  3.3703  1.9670
  444MOL0     H61238  -1.538   5.842   6.214  0.4706  2.9302 -2.1573
  444MOL0     H61239  -1.668   5.891   6.337  1.6284 -1.1297  1.2010
  444MOL0     H61240  -1.820   5.710   6.256  0.1342 -1.2122 -1.9182
  444MOL0     H61241  -1.687   5.676   6.360 -2.7023  0.8654  1.2076
  444MOL0     H61242  -1.573   5.564   6.214  1.3433  1.0475 -1.9994
  444MOL0     H61243  -1.613   5.648   6.077 -2.9171  0.2150 -0.1434
  444MOL0     H61244  -1.744   5.407   6.218 -2.0735  0.0471  0.1697
  444MOL0     H61245  -1.857   5.502   6.144 -0.5865 -2.8155  1.7279
  444MOL0     H61246  -1.775   5.309   5.998 -0.1387  0.2918 -3.1725
  444MOL0     H61247  -1.617   5.386   5.992  0.7341  0.0807 -1.6040
  444MOL0     H61248  -1.777   5.596   5.902  2.9035  0.2871  3.9374
  444MOL0     H61249  -1.881   5.464   5.862 -1.0433  1.2857  0.2431
  444MOL0     H61250  -1.722   5.495   5.673 -0.6632 -5.6454 -3.2515
  444MOL0     H61251  -1.684   5.337   5.754 -1.0877  0.1397 -0.2868
  444MOL0     H61252  -1.824   6.098   5.918 -0.8847  2.9531 -3.8942
  444MOL0     H61253  -1.746   6.226   5.723  1.6034 -0.2977 -0.7882
  444MOL0     H61254  -1.506   6.103   5.302 -0.9799  0.9759  1.7659
  444MOL0     H61255  -1.451   6.156   5.087  1.5717 -0.4505  1.1254
  444MOL0     H61256  -0.109   5.579   4.148 -1.3268 -3.0360 -0.6096
  444MOL0     H61257   0.106   5.586   4.296 -0.3311  1.6210 -0.1543
  444MOL0     H61258   0.350   5.640   4.563  1.3123  0.2812 -0.5480
  444MOL0     H61259   0.573   5.628   4.645  0.1368  3.3720  1.4554
  444MOL0     H61260   0.787   5.640   4.758 -3.2201  0.5543 -0.9581
  444MOL0     H61261   0.687   5.711   4.893  0.7149 -0.4923  2.3376
  444MOL0     H61262   0.840   5.572   5.035 -1.2763 -0.7965 -0.1443
  444MOL0     H61263   0.909   5.724   4.971 -1.1868  1.5374 -0.2889
  444MOL0     H61264   1.028   5.614   4.809 -2.4987  2.4186  0.5621
  444MOL0     H61265   1.071   5.533   4.960  1.8698  1.3179 -2.1303
  444MOL0     H61266   0.882   5.423   4.734 -3.0997 -0.0195  1.7906
  444MOL0     H61267   0.908   5.357   4.897 -0.0299  0.5262 -0.2454
  444MOL0     H61268   1.183   5.172   4.669 -1.9875 -0.4290 -0.6441
  444MOL0     H61269   0.439   5.444   5.006  1.5478 -0.5363 -0.3239
  444MOL0     H61270   0.148   5.549   5.022 -0.1527 -0.6518 -0.8296
  444MOL0     H61271   0.096   5.428   4.907 -0.0381  0.7761  1.0083
  444MOL0     H61272   0.219   5.388   5.038 -0.9893 -2.1063 -0.9037
  445MOL0     O61273   0.456   4.608   3.571  0.0580  0.7213  0.1315
  445MOL0     C61274   0.455   4.692   3.652  0.3954 -0.1937  0.0422
  445MOL0     O61275   0.430   4.663   3.788  0.5036  0.0719  0.1310
  445MOL0     C61276   0.332   4.571   3.810 -0.1102 -0.8746  1.6175
  445MOL0     C61277   0.197   4.593   3.779  0.8387 -0.3027  0.7298
  445MOL0     C61278   0.101   4.491   3.792 -0.1033 -0.3227 -0.6163
  445MOL0     C61279   0.139   4.377   3.841  0.2117  0.1783  0.2149
  445MOL0     O61280   0.045   4.287   3.867 -0.5776  0.5356  0.0630
  445MOL0     C61281   0.044   4.218   3.994  0.2967  0.3055 -0.2008
  445MOL0     C61282   0.092   4.072   3.977  0.1712  0.2843  0.0557
  445MOL0     C61283   0.042   3.975   4.088  0.2643  0.6479  0.1133
  445MOL0     C61284   0.067   3.828   4.056 -0.6866 -0.2964  0.2133
  445MOL0     C61285   0.023   3.736   4.166 -0.4736  0.2595 -0.2471
  445MOL0     C61286   0.037   3.586   4.128 -1.2576 -0.5624  0.5674
  445MOL0     C61287  -0.011   3.517   4.255  0.3300  0.4579 -0.1132
  445MOL0     C61288  -0.010   3.367   4.253  0.4430  0.0902 -0.2065
  445MOL0     N61289  -0.125   3.318   4.175  1.0752 -0.2300  0.5256
  445MOL0     C61290  -0.248   3.300   4.230 -0.7077  0.4182 -0.6070
  445MOL0     C61291  -0.326   3.250   4.128 -0.1238 -0.2361 -0.4566
  445MOL0     C61292  -0.472   3.214   4.130  0.2278  0.0129  0.5945
  445MOL0     C61293  -0.555   3.331   4.147  1.0759 -0.5417  0.4299
  445MOL0     C61294  -0.698   3.317   4.094 -0.8638  0.6271 -0.1002
  445MOL0     C61295  -0.784   3.440   4.103 -0.5279 -0.1395  0.0496
  445MOL0     O61296  -0.741   3.524   4.213  0.2974 -0.5840  0.0252
  445MOL0     C61297  -0.795   3.650   4.212 -0.2074  1.2003  0.2755
  445MOL0     C61298  -0.919   3.693   4.151 -0.0126  0.7704  0.9224
  445MOL0     C61299  -0.975   3.823   4.165  0.4950 -0.1881 -0.4321
  445MOL0     C61300  -1.117   3.859   4.101 -0.4253 -0.0523 -0.7395
  445MOL0     C61301  -0.898   3.920   4.249 -0.1791  0.3172 -0.2035
  445MOL0     C61302  -0.940   4.063   4.263 -0.3982 -0.5643  0.0297
  445MOL0     O61303  -1.072   4.093   4.278 -0.5016  0.3856 -0.7573
  445MOL0     C61304  -1.125   4.209   4.313  0.1511 -0.7602  0.3551
  445MOL0     C61305  -1.074   4.340   4.320 -0.5490 -0.7764 -0.0537
  445MOL0     C61306  -1.134   4.443   4.384  1.3482 -1.2031 -1.0750
  445MOL0     C61307  -1.260   4.424   4.435  0.4609 -0.9708  0.5947
  445MOL0     O61308  -1.345   4.530   4.462 -0.1467 -1.0061 -0.1901
  445MOL0     C61309  -1.462   4.515   4.553  0.1248 -0.2486  0.0909
  445MOL0     C61310  -1.513   4.651   4.597  0.4082 -1.6258 -0.7554
  445MOL0     C61311  -1.424   4.739   4.688 -0.3319 -0.3549  0.4920
  445MOL0     C61312  -1.473   4.888   4.687 -0.2957  0.7859  0.2580
  445MOL0     C61313  -1.573   4.914   4.781 -0.7044  0.4949 -0.7599
  445MOL0     C61314  -1.645   5.042   4.735 -0.5339 -0.7013 -0.5362
  445MOL0     C61315  -1.765   5.085   4.822  0.8191 -1.0075  0.1276
  445MOL0     C61316  -1.823   5.213   4.773 -0.0600 -0.8993 -0.0798
  445MOL0    Cl61317  -2.007   5.257   4.825 -0.3716 -0.1643  0.1645
  445MOL0     C61318  -1.324   4.294   4.443 -0.1291  0.3560 -1.3570
  445MOL0     C61319  -1.256   4.194   4.378  0.2113  0.0786 -0.0456
  445MOL0     O61320  -0.844   4.145   4.251  0.1446 -0.1653 -0.6814
  445MOL0     C61321  -0.771   3.881   4.297  0.4788  0.7771  0.5132
  445MOL0     C61322  -0.730   3.747   4.288 -0.2525 -0.7107  0.2571
  445MOL0     N61323  -0.238   3.236   4.021  0.0605  0.1231 -0.9618
  445MOL0     N61324  -0.119   3.271   4.039 -0.1991 -0.0878  0.1681
  445MOL0     C61325   0.266   4.352   3.867 -0.4028  0.0986 -0.7174
  445MOL0     C61326   0.360   4.450   3.872  0.3462  0.2614  0.9700
  445MOL0     C61327   0.518   4.824   3.630  0.2643  0.2957  0.1321
  445MOL0     C61328   0.607   4.866   3.736  1.3611 -0.7929  1.0955
  445MOL0     C61329   0.666   4.992   3.718 -0.5491 -0.8838 -0.7500
  445MOL0     C61330   0.650   5.065   3.605 -0.5621 -0.9713  0.2646
  445MOL0     O61331   0.720   5.181   3.609 -0.0185 -0.6132  0.6552
  445MOL0     C61332   0.718   5.272   3.513 -0.0383 -0.6182 -0.3483
  445MOL0     C61333   0.652   5.410   3.565 -0.0548  0.1193  0.0961
  445MOL0     C61334   0.713   5.462   3.700  0.3094 -0.3144  0.1042
  445MOL0     C61335   0.664   5.615   3.724 -0.5499 -0.2362 -0.4695
  445MOL0     C61336   0.520   5.636   3.710 -0.1754  0.2356  0.1983
  445MOL0     C61337   0.399   5.659   3.710  1.3209  0.6601 -0.4906
  445MOL0     C61338   0.558   5.021   3.508 -0.0589  0.4829  0.1841
  445MOL0     C61339   0.487   4.902   3.519 -0.0955 -0.6874  0.5791
  445MOL0     C61340   0.376   4.857   3.428  0.5159  0.4539 -1.1646
  445MOL0     H61341   0.163   4.692   3.749  1.3597  0.6401  3.0410
  445MOL0     H61342   0.003   4.525   3.760  1.0183  1.8118 -2.0219
  445MOL0     H61343  -0.057   4.217   4.036  0.5908 -5.6969  1.2149
  445MOL0     H61344   0.108   4.265   4.069  1.0245  1.0016 -1.2249
  445MOL0     H61345   0.071   4.041   3.874  1.5245  3.2867 -1.2528
  445MOL0     H61346   0.201   4.075   3.991 -0.0181 -2.1594  3.2090
  445MOL0     H61347   0.083   4.005   4.185 -1.3834  2.4318  0.3168
  445MOL0     H61348  -0.064   3.997   4.104  0.3408  1.2121 -0.1101
  445MOL0     H61349   0.024   3.807   3.958  0.1631 -0.6608 -0.0884
  445MOL0     H61350   0.175   3.830   4.039 -0.3760  0.1818  2.0060
  445MOL0     H61351  -0.085   3.758   4.172 -0.9683 -1.9462 -0.2979
  445MOL0     H61352   0.075   3.758   4.259  1.0207  1.9431 -1.4108
  445MOL0     H61353  -0.021   3.568   4.037  1.5013  2.0911 -1.9200
  445MOL0     H61354   0.136   3.550   4.100 -1.7698  0.3983 -2.9992
  445MOL0     H61355  -0.107   3.555   4.291 -0.1610  0.0247 -0.9553
  445MOL0     H61356   0.060   3.546   4.333 -0.0691 -1.3463  0.9747
  445MOL0     H61357   0.080   3.328   4.204 -0.3249 -1.0478 -0.7538
  445MOL0     H61358  -0.006   3.328   4.355 -1.5450 -0.4134 -0.2780
  445MOL0     H61359  -0.285   3.335   4.327  3.6256  0.8435  1.1401
  445MOL0     H61360  -0.503   3.151   4.214  1.1361 -1.9414 -0.4730
  445MOL0     H61361  -0.494   3.157   4.039 -0.1475  3.8127 -1.9266
  445MOL0     H61362  -0.563   3.349   4.254  2.8364  1.7921  0.2375
  445MOL0     H61363  -0.505   3.411   4.092 -2.0177 -0.3187 -2.4044
  445MOL0     H61364  -0.690   3.276   3.993 -4.0438 -2.0782  0.5608
  445MOL0     H61365  -0.759   3.239   4.140 -3.2312  1.7729 -1.1085
  445MOL0     H61366  -0.768   3.488   4.006  0.2405 -0.9341 -0.2295
  445MOL0     H61367  -0.891   3.417   4.110 -0.8477  0.5220 -2.0904
  445MOL0     H61368  -0.975   3.616   4.099 -0.6701  1.0813  1.1590
  445MOL0     H61369  -1.113   3.956   4.050 -1.8961  0.1058 -0.6112
  445MOL0     H61370  -1.185   3.859   4.187 -0.6822 -0.6977 -0.9364
  445MOL0     H61371  -1.151   3.781   4.032  1.6332 -0.6980 -1.0820
  445MOL0     H61372  -0.976   4.365   4.280 -1.0725  0.1546 -0.8050
  445MOL0     H61373  -1.106   4.548   4.387  0.3719 -0.9552  0.5344
  445MOL0     H61374  -1.543   4.464   4.501  0.8981  0.2250 -1.6467
  445MOL0     H61375  -1.444   4.461   4.646 -1.8089  2.2339  2.0391
  445MOL0     H61376  -1.525   4.712   4.507  4.0864 -3.2271 -2.5434
  445MOL0     H61377  -1.610   4.645   4.647  1.5480  0.5524  1.9637
  445MOL0     H61378  -1.322   4.740   4.651 -0.5948 -2.2480 -0.4313
  445MOL0     H61379  -1.419   4.704   4.791  2.5435  0.5681  0.7569
  445MOL0     H61380  -1.502   4.917   4.585  1.8014  0.5661 -0.4387
  445MOL0     H61381  -1.388   4.950   4.718  1.9547 -2.3685  0.8717
  445MOL0     H61382  -1.642   4.830   4.770  1.2882 -2.0425  3.4768
  445MOL0     H61383  -1.532   4.916   4.882 -0.7018 -0.4514 -0.7370
  445MOL0     H61384  -1.668   5.033   4.629  3.7067 -1.5183 -1.5810
  445MOL0     H61385  -1.575   5.125   4.749 -2.0550  0.8922 -1.8829
  445MOL0     H61386  -1.729   5.095   4.925  0.4712  2.1221  0.0360
  445MOL0     H61387  -1.834   5.005   4.793 -0.7501  1.0625 -2.2694
  445MOL0     H61388  -1.810   5.236   4.667 -1.3782  1.5479  0.2088
  445MOL0     H61389  -1.750   5.292   4.793 -1.4845  1.6220 -3.6875
  445MOL0     H61390  -1.420   4.269   4.487  2.3175 -3.1054  2.9201
  445MOL0     H61391  -1.304   4.099   4.357  1.7769  0.0359 -4.8490
  445MOL0     H61392  -0.702   3.954   4.338 -1.2469  2.9183 -0.1635
  445MOL0     H61393  -0.638   3.723   4.339 -1.4412 -1.3722  2.2223
  445MOL0     H61394   0.292   4.253   3.904 -0.1406  0.3676 -0.1765
  445MOL0     H61395   0.463   4.426   3.898  0.5230  1.5829  1.5304
  445MOL0     H61396   0.620   4.831   3.838 -0.5947 -1.7172  1.0678
  445MOL0     H61397   0.724   5.035   3.799 -1.1308  1.9441 -1.6940
  445MOL0     H61398   0.823   5.288   3.485  0.5711 -2.0068  0.9822
  445MOL0     H61399   0.646   5.246   3.435 -1.1966  0.8930  0.1649
  445MOL0     H61400   0.542   5.404   3.562 -0.0121 -4.2161  0.9953
  445MOL0     H61401   0.675   5.489   3.493 -0.7087  3.0448  2.8407
  445MOL0     H61402   0.692   5.405   3.791  1.6421 -2.4585 -0.8529
  445MOL0     H61403   0.821   5.464   3.682  0.2418  1.7925 -0.2689
  445MOL0     H61404   0.713   5.692   3.665 -1.2534 -0.1671 -0.9735
  445MOL0     H61405   0.693   5.630   3.829 -1.4943 -2.5593  0.1865
  445MOL0     H61406   0.294   5.676   3.724  1.1802 -0.7419  0.3866
  445MOL0     H61407   0.536   5.082   3.421 -2.6460 -0.1024  0.3358
  445MOL0     H61408   0.368   4.927   3.344  1.0689  0.5885 -1.1101
  445MOL0     H61409   0.405   4.758   3.393  0.9953 -0.6763  2.1655
  445MOL0     H61410   0.284   4.852   3.488  3.5890 -3.3688  3.9815
  446MOL0     O61411  10.767   1.638   4.181 -0.4881  0.0866  0.7092
  446MOL0     C61412  10.681   1.726   4.188  0.1805  0.0143 -0.9357
  446MOL0     O61413  10.556   1.711   4.237  0.3945 -0.5916  0.2097
  446MOL0     C61414  10.527   1.591   4.304 -0.6090  0.1836 -0.8115
  446MOL0     C61415  10.404   1.523   4.296 -0.6849 -0.2581 -0.1660
  446MOL0     C61416  10.370   1.428   4.382  0.7222 -0.1250 -0.2137
  446MOL0     C61417  10.456   1.386   4.478 -0.4449 -0.3399 -0.4275
  446MOL0     O61418  10.428   1.294   4.578  0.3858 -0.5712  0.7499
  446MOL0     C61419  10.474   1.163   4.552  0.2154  0.4310  0.4181
  446MOL0     C61420  10.385   1.066   4.634  0.1570 -0.2462 -0.1390
  446MOL0     C61421  10.466   0.938   4.653 -0.6259 -0.0954 -0.1329
  446MOL0     C61422  10.416   0.839   4.744 -0.4404 -0.1513 -0.5667
  446MOL0     C61423  10.521   0.721   4.738  1.1018 -0.8152 -0.7484
  446MOL0     C61424  10.474   0.609   4.823  1.2734 -0.2243  0.5508
  446MOL0     C61425  10.344   0.553   4.779  0.2897  0.5525  0.7501
  446MOL0     C61426  10.342   0.403   4.794  0.3013 -0.9548 -0.2690
  446MOL0     N61427  10.380   0.363   4.933 -0.7339  0.3997 -0.9340
  446MOL0     C61428  10.301   0.331   5.037 -0.2691  0.3434 -0.2232
  446MOL0     C61429  10.380   0.272   5.139 -0.5641 -0.0321  0.8278
  446MOL0     C61430  10.349   0.229   5.280 -0.1750 -0.2939  1.0965
  446MOL0     C61431  10.463   0.228   5.384 -0.5757 -0.0114 -0.6127
  446MOL0     C61432  10.415   0.211   5.532  1.0402 -1.3253  1.3665
  446MOL0     C61433  10.511   0.254   5.639 -0.1305  0.4031  0.1644
  446MOL0     O61434  10.647   0.221   5.602 -0.4507  0.0713 -0.1014
  446MOL0     C61435  10.724   0.183   5.701 -0.6006 -1.2124 -0.4415
  446MOL0     C61436  10.764   0.051   5.707 -0.2293  0.5566  0.0687
  446MOL0     C61437  10.849   0.000   5.799 -0.3813  0.0409  0.5804
  446MOL0     C61438  10.885  -0.147   5.796  0.2518 -0.1522 -0.3123
  446MOL0     C61439  10.900   0.089   5.905 -0.1573 -0.7389 -0.5360
  446MOL0     C61440  10.996   0.061   6.014 -0.7091  0.4040  0.9269
  446MOL0     O61441  11.050   0.167   6.099  0.0597 -0.5423  0.0200
  446MOL0     C61442  11.141   0.135   6.197 -0.6457 -0.7250 -0.4567
  446MOL0     C61443  11.233   0.233   6.246  0.6658 -0.1170  0.1923
  446MOL0     C61444  11.339   0.200   6.336 -0.3673 -0.2644  1.2147
  446MOL0     C61445  11.331   0.084   6.406  0.0345  0.4203 -0.4783
  446MOL0     O61446  11.436   0.041   6.490  0.0240 -0.9123  0.4399
  446MOL0     C61447  11.541  -0.027   6.432  0.6955 -0.7234 -0.0718
  446MOL0     C61448  11.617  -0.076   6.550 -0.3060 -0.1539  0.3168
  446MOL0     C61449  11.537  -0.200   6.609  0.5778  0.2698 -0.2153
  446MOL0     C61450  11.574  -0.215   6.754 -0.8307  0.6379 -0.2775
  446MOL0     C61451  11.528  -0.351   6.811 -0.4121 -0.3350  0.0403
  446MOL0     C61452  11.607  -0.380   6.938 -0.6815 -0.4946 -0.1933
  446MOL0     C61453  11.609  -0.521   6.996  0.2423 -0.2916 -0.5182
  446MOL0     C61454  11.476  -0.588   6.989  0.0063 -0.7030  0.2235
  446MOL0    Cl61455  11.507  -0.762   7.013 -0.1528 -0.1344 -0.3523
  446MOL0     C61456  11.222   0.001   6.384 -0.3539 -0.5843  0.1668
  446MOL0     C61457  11.134   0.027   6.280  1.2016  0.2004  0.7277
  446MOL0     O61458  11.038  -0.054   5.998 -0.2323 -0.2255  0.0393
  446MOL0     C61459  10.859   0.226   5.893  0.1186 -1.2989  0.0240
  446MOL0     C61460  10.783   0.278   5.788 -0.1176  0.2258  0.5132
  446MOL0     N61461  10.510   0.272   5.091 -0.0020  1.3326 -0.1782
  446MOL0     N61462  10.513   0.317   4.969  0.2743 -0.2699  0.7628
  446MOL0     C61463  10.581   1.449   4.484 -0.1890 -0.2692 -0.6238
  446MOL0     C61464  10.613   1.552   4.403  0.0543  0.0531  0.0969
  446MOL0     C61465  10.709   1.848   4.113 -0.5646 -0.0749  0.0482
  446MOL0     C61466  10.772   1.842   3.979 -0.0453  0.1692  0.3826
  446MOL0     C61467  10.803   1.967   3.921  0.2543  0.0830 -0.8543
  446MOL0     C61468  10.757   2.087   3.972  0.6362 -0.3309 -0.2202
  446MOL0     O61469  10.789   2.186   3.888 -0.9432 -0.0703  0.5091
  446MOL0     C61470  10.744   2.322   3.927  0.5079  0.1004  0.3811
  446MOL0     C61471  10.832   2.396   4.020 -0.0854 -0.6382 -0.1793
  446MOL0     C61472  10.775   2.534   4.063 -0.3310 -0.1933 -0.8565
  446MOL0     C61473  10.839   2.594   4.188 -0.4784  0.1520  0.1208
  446MOL0     C61474  10.777   2.536   4.310 -0.5504  0.7597 -0.2285
  446MOL0     C61475  10.728   2.498   4.412  0.3756 -0.8391  0.1725
  446MOL0     C61476  10.695   2.093   4.097 -0.2499  0.0040 -0.6289
  446MOL0     C61477  10.667   1.976   4.169  0.0291  0.0984  0.2064
  446MOL0     C61478  10.610   1.992   4.310  0.2553 -0.0108  0.8229
  446MOL0     H61479  10.335   1.551   4.217  0.0045 -0.3645 -0.8175
  446MOL0     H61480  10.267   1.399   4.367 -0.0402  2.6697 -0.9886
  446MOL0     H61481  10.573   1.167   4.599 -0.1982 -0.3069  1.3692
  446MOL0     H61482  10.488   1.132   4.448  1.1217 -2.4500  1.3140
  446MOL0     H61483  10.352   1.114   4.726 -2.0938  0.3475 -1.1707
  446MOL0     H61484  10.293   1.050   4.576 -1.1156 -4.5260  2.5779
  446MOL0     H61485  10.484   0.885   4.558  2.7856 -1.1771  0.9728
  446MOL0     H61486  10.570   0.960   4.678 -0.2735 -0.9443 -0.7626
  446MOL0     H61487  10.416   0.877   4.847 -1.3886 -1.3035 -0.1202
  446MOL0     H61488  10.314   0.811   4.718 -1.3625  3.3484 -1.1509
  446MOL0     H61489  10.619   0.749   4.778  1.2731  0.1102 -1.7622
  446MOL0     H61490  10.532   0.695   4.632 -2.8225 -0.7056 -1.3286
  446MOL0     H61491  10.552   0.533   4.827 -0.3827 -2.0607 -0.0561
  446MOL0     H61492  10.460   0.643   4.926  0.1834  2.9611 -0.5035
  446MOL0     H61493  10.327   0.568   4.672 -0.5009 -1.3904  0.5739
  446MOL0     H61494  10.260   0.604   4.827  0.5399  2.5211 -0.7662
  446MOL0     H61495  10.236   0.378   4.786  0.2594 -0.6986 -0.5036
  446MOL0     H61496  10.414   0.351   4.730  0.9810 -0.3314 -0.0253
  446MOL0     H61497  10.194   0.346   5.042 -0.5590 -1.1530 -1.1731
  446MOL0     H61498  10.304   0.130   5.270 -0.5907 -0.2969  2.6988
  446MOL0     H61499  10.271   0.298   5.314 -1.5989 -1.0175 -0.5760
  446MOL0     H61500  10.535   0.153   5.349 -2.3229 -2.0014 -0.1749
  446MOL0     H61501  10.519   0.321   5.393  1.7816 -1.4884  1.1285
  446MOL0     H61502  10.324   0.272   5.543  0.1171 -2.8145  2.2522
  446MOL0     H61503  10.395   0.105   5.546  0.8348 -1.4648  0.1536
  446MOL0     H61504  10.507   0.363   5.648  2.5481  0.4706  1.3684
  446MOL0     H61505  10.478   0.205   5.731 -0.1954  0.4255  0.1532
  446MOL0     H61506  10.719  -0.022   5.640  1.1311 -4.0163  3.6041
  446MOL0     H61507  10.840  -0.205   5.877 -1.5131  1.9190  0.3077
  446MOL0     H61508  10.994  -0.154   5.785 -0.1073 -3.2690 -3.5166
  446MOL0     H61509  10.845  -0.187   5.702  1.8252 -1.1260 -0.6144
  446MOL0     H61510  11.222   0.328   6.196  2.5499 -1.7345 -3.7443
  446MOL0     H61511  11.433   0.253   6.346  1.5768 -3.5522  1.9906
  446MOL0     H61512  11.516  -0.106   6.360 -0.6054 -1.1199  0.7737
  446MOL0     H61513  11.599   0.052   6.383  0.6809 -0.4574  0.3374
  446MOL0     H61514  11.716  -0.089   6.505 -1.9658 -0.0012 -3.8234
  446MOL0     H61515  11.626   0.006   6.623 -0.5569  0.1121  0.0494
  446MOL0     H61516  11.559  -0.297   6.564 -2.0859 -0.1674 -0.6988
  446MOL0     H61517  11.429  -0.193   6.599  0.1749 -2.4291  1.4107
  446MOL0     H61518  11.538  -0.135   6.819 -1.8447  0.6852 -0.8755
  446MOL0     H61519  11.683  -0.210   6.754 -0.6389 -2.0367 -0.2016
  446MOL0     H61520  11.422  -0.354   6.838 -1.0977 -1.7369 -2.4871
  446MOL0     H61521  11.563  -0.431   6.746 -0.3443 -2.8378  2.9225
  446MOL0     H61522  11.568  -0.315   7.017  0.1453 -0.0989 -0.1003
  446MOL0     H61523  11.712  -0.348   6.932 -0.1194 -2.0999  0.3561
  446MOL0     H61524  11.643  -0.521   7.100  0.6177  2.2112 -0.5683
  446MOL0     H61525  11.685  -0.581   6.944  0.2434 -0.2285 -0.5899
  446MOL0     H61526  11.430  -0.574   6.890  0.4582 -0.3350  0.0636
  446MOL0     H61527  11.404  -0.543   7.059 -0.9148  0.0424 -1.1424
  446MOL0     H61528  11.215  -0.085   6.449 -0.6056 -0.1485  0.7236
  446MOL0     H61529  11.074  -0.063   6.280  1.7771 -0.1894  0.0925
  446MOL0     H61530  10.894   0.298   5.967  1.8970 -0.9514 -1.1025
  446MOL0     H61531  10.748   0.379   5.767 -4.3597 -1.3080 -0.7588
  446MOL0     H61532  10.653   1.410   4.555  0.2303 -2.2209 -2.0241
  446MOL0     H61533  10.708   1.604   4.408 -0.8128  1.7176  0.0156
  446MOL0     H61534  10.805   1.751   3.930  2.5702 -0.0117  2.2480
  446MOL0     H61535  10.851   1.980   3.825  0.3811  0.6352 -0.7240
  446MOL0     H61536  10.726   2.377   3.834  0.6338  0.6260  0.6660
  446MOL0     H61537  10.645   2.320   3.973 -0.9619 -0.6632 -2.5405
  446MOL0     H61538  10.922   2.427   3.965 -0.0681 -1.4071 -0.6050
  446MOL0     H61539  10.864   2.345   4.111  0.4438  0.3531  0.2067
  446MOL0     H61540  10.778   2.591   3.970  1.4829 -1.3424 -1.5537
  446MOL0     H61541  10.668   2.516   4.083 -0.0901 -3.7038 -1.8845
  446MOL0     H61542  10.826   2.703   4.185  4.9823  1.1644  0.9585
  446MOL0     H61543  10.948   2.581   4.183 -0.1489  2.4604  0.1692
  446MOL0     H61544  10.666   2.473   4.496 -0.5831  0.0478 -0.2375
  446MOL0     H61545  10.661   2.188   4.137 -1.0975 -0.6702  0.2859
  446MOL0     H61546  10.642   2.085   4.358 -3.1329  1.7574 -0.0501
  446MOL0     H61547  10.502   1.981   4.316 -0.1140  3.2624  2.7061
  446MOL0     H61548  10.659   1.916   4.373  4.5872  1.9564  0.1645
  447MOL0     O61549   7.153   2.913   8.856 -1.2346  0.4236 -0.3866
  447MOL0     C61550   7.050   2.980   8.863 -0.3009  0.0061 -0.2765
  447MOL0     O61551   7.021   3.075   8.960  0.4561 -0.1421  0.3705
  447MOL0     C61552   7.113   3.088   9.056 -0.0223 -0.6429 -0.9742
  447MOL0     C61553   7.095   3.047   9.187  0.6308  0.7693  0.0456
  447MOL0     C61554   7.191   3.071   9.285  0.7887  0.6918  0.6411
  447MOL0     C61555   7.315   3.133   9.258 -1.1387  0.4029 -0.1593
  447MOL0     O61556   7.412   3.157   9.354  0.1714 -0.2156 -0.5181
  447MOL0     C61557   7.452   3.045   9.435  0.1454 -0.8224 -0.2894
  447MOL0     C61558   7.377   3.028   9.577  0.2907  0.2643 -0.7774
  447MOL0     C61559   7.399   2.881   9.621 -0.6088  0.8247  0.6741
  447MOL0     C61560   7.300   2.850   9.734 -0.8147 -0.5476 -0.6890
  447MOL0     C61561   7.347   2.720   9.817  0.2436  0.0959  0.4963
  447MOL0     C61562   7.303   2.582   9.762  0.0884  0.3431  0.8775
  447MOL0     C61563   7.321   2.478   9.867  0.2367  0.5705  0.5894
  447MOL0     C61564   7.323   2.334   9.804  0.0493 -0.1407 -0.1701
  447MOL0     N61565   7.286   2.239   9.912  0.9526 -0.2563  0.1383
  447MOL0     C61566   7.177   2.155   9.913 -0.5268 -0.2078  1.4300
  447MOL0     C61567   7.158   2.125  10.044 -0.1831  0.5574  0.5997
  447MOL0     C61568   7.038   2.053  10.094  0.7509  0.5452  0.0057
  447MOL0     C61569   6.944   2.155  10.176  0.6193  0.6684 -0.1688
  447MOL0     C61570   6.797   2.108  10.201 -0.1730 -0.4027  0.2003
  447MOL0     C61571   6.706   2.180  10.100 -0.1069 -0.0625  1.0696
  447MOL0     O61572   6.730   2.143   9.967 -0.7201  0.2991  0.0069
  447MOL0     C61573   6.793   2.228   9.871  0.1422  0.5638  0.8090
  447MOL0     C61574   6.799   2.171   9.743 -0.5597 -0.3021  0.0770
  447MOL0     C61575   6.861   2.241   9.642 -0.1701 -0.9075 -0.6493
  447MOL0     C61576   6.871   2.168   9.509 -0.7492  0.4326 -0.6164
  447MOL0     C61577   6.914   2.369   9.662  0.3351  0.8212  0.5914
  447MOL0     C61578   7.001   2.438   9.567  1.4119  0.7737 -0.4685
  447MOL0     O61579   7.094   2.369   9.487  0.4806 -0.4346  0.1331
  447MOL0     C61580   7.202   2.430   9.439  1.0849  0.1120  1.1539
  447MOL0     C61581   7.213   2.564   9.396 -0.5913 -0.4584 -0.4019
  447MOL0     C61582   7.339   2.598   9.355 -1.0194 -0.4090  0.2470
  447MOL0     C61583   7.447   2.520   9.344  0.2596  0.6783  0.7657
  447MOL0     O61584   7.578   2.580   9.319 -0.0172  0.6627 -1.1222
  447MOL0     C61585   7.670   2.500   9.238 -0.6532  0.8449  0.8865
  447MOL0     C61586   7.618   2.456   9.095  0.0172 -0.2621 -0.9041
  447MOL0     C61587   7.558   2.567   9.013  0.0518 -0.2718  0.4194
  447MOL0     C61588   7.664   2.605   8.909 -0.8263 -0.3754 -0.8835
  447MOL0     C61589   7.630   2.742   8.845  1.0734 -0.6360 -0.5734
  447MOL0     C61590   7.609   2.711   8.698  0.3235 -0.0265  0.5510
  447MOL0     C61591   7.559   2.821   8.605 -0.2163 -0.2739 -0.1252
  447MOL0     C61592   7.495   2.770   8.477  1.5387  0.5143 -0.9633
  447MOL0    Cl61593   7.459   2.902   8.367  0.8762 -0.0312 -0.0585
  447MOL0     C61594   7.430   2.389   9.390  0.9751 -0.1125 -0.5102
  447MOL0     C61595   7.308   2.339   9.426  0.3262 -0.1161  0.7232
  447MOL0     O61596   6.979   2.557   9.562  0.0163  0.3473 -0.6521
  447MOL0     C61597   6.910   2.413   9.790  0.7433 -0.9842  0.2923
  447MOL0     C61598   6.850   2.349   9.899  0.3226  0.4958  0.2127
  447MOL0     N61599   7.247   2.191  10.118 -0.8024 -0.2129 -0.5630
  447MOL0     N61600   7.336   2.249  10.037  0.4353 -0.2356  0.3341
  447MOL0     C61601   7.337   3.158   9.126 -0.4081  0.2003 -1.1735
  447MOL0     C61602   7.242   3.149   9.023  0.2515 -0.1514 -0.2132
  447MOL0     C61603   6.948   2.969   8.756 -0.4558  0.8328  0.5561
  447MOL0     C61604   6.834   3.060   8.750 -0.0408  0.8242  0.3772
  447MOL0     C61605   6.739   3.044   8.650 -0.3794 -0.4511 -0.2865
  447MOL0     C61606   6.750   2.959   8.551 -0.0322  0.4737  0.3294
  447MOL0     O61607   6.667   2.946   8.440 -0.8758 -0.1451 -0.1111
  447MOL0     C61608   6.595   2.827   8.430  0.0789 -0.0945  0.1138
  447MOL0     C61609   6.510   2.840   8.294 -0.0741 -0.0930 -0.7620
  447MOL0     C61610   6.384   2.926   8.327 -0.2554 -0.0819  0.2923
  447MOL0     C61611   6.320   2.981   8.197  0.3825 -0.9525  1.0089
  447MOL0     C61612   6.191   3.040   8.226 -0.0153 -0.3753  0.4428
  447MOL0     C61613   6.078   3.066   8.255  0.2704 -0.1179  0.5931
  447MOL0     C61614   6.858   2.866   8.554  0.2620  0.1757 -0.5898
  447MOL0     C61615   6.959   2.870   8.649  0.6260 -0.1345 -0.5085
  447MOL0     C61616   7.070   2.766   8.635 -0.6088 -0.4002 -0.0832
  447MOL0     H61617   7.007   2.990   9.215  0.7934  0.1876 -0.6187
  447MOL0     H61618   7.165   3.039   9.386  0.9771  0.4182  0.6029
  447MOL0     H61619   7.558   3.057   9.463  0.0474 -0.2458 -0.1574
  447MOL0     H61620   7.448   2.954   9.375  1.3479 -1.5786  0.7137
  447MOL0     H61621   7.416   3.097   9.653  2.1269 -0.3555 -1.0996
  447MOL0     H61622   7.271   3.049   9.562 -0.0104 -1.4177 -1.1567
  447MOL0     H61623   7.384   2.812   9.538 -0.0535  1.7306 -0.1929
  447MOL0     H61624   7.503   2.871   9.654  0.0453 -0.3977 -1.5851
  447MOL0     H61625   7.300   2.940   9.796  0.8037  0.7728 -2.5082
  447MOL0     H61626   7.205   2.826   9.685 -0.6327  0.5246 -1.6062
  447MOL0     H61627   7.288   2.733   9.908 -1.1410 -0.8077 -0.2308
  447MOL0     H61628   7.455   2.721   9.831  0.1770  2.1587  1.0822
  447MOL0     H61629   7.195   2.590   9.747  0.2871  0.5099 -0.6512
  447MOL0     H61630   7.347   2.555   9.666  0.0864 -1.0123  1.2338
  447MOL0     H61631   7.237   2.481   9.937 -0.0648  1.4611  0.2037
  447MOL0     H61632   7.413   2.494   9.922 -0.2357  1.5912  1.0969
  447MOL0     H61633   7.248   2.322   9.725 -0.1405 -1.3287  0.1804
  447MOL0     H61634   7.424   2.303   9.774 -0.4502 -3.0445  0.8847
  447MOL0     H61635   7.113   2.122   9.832 -1.9316  1.2876  1.8664
  447MOL0     H61636   7.068   1.971  10.161 -1.8777 -0.9984 -0.5455
  447MOL0     H61637   6.982   2.011  10.010  0.0541  0.7193  0.3718
  447MOL0     H61638   6.992   2.177  10.272  0.8118 -1.6133  0.3030
  447MOL0     H61639   6.934   2.253  10.128 -1.1268  0.3035 -0.6223
  447MOL0     H61640   6.791   1.999  10.193  0.0457 -0.4118  0.1597
  447MOL0     H61641   6.757   2.137  10.299 -2.8359  2.0701 -1.4586
  447MOL0     H61642   6.614   2.131  10.132 -1.6684  0.6826 -1.9335
  447MOL0     H61643   6.702   2.288  10.113 -4.2466  0.6131 -3.2009
  447MOL0     H61644   6.759   2.072   9.723 -0.5654 -0.0165 -1.3907
  447MOL0     H61645   6.772   2.133   9.476 -1.5531  0.7028  1.3719
  447MOL0     H61646   6.929   2.078   9.528 -0.9664  0.9673  3.5253
  447MOL0     H61647   6.906   2.234   9.429 -2.7459  0.5547 -1.4619
  447MOL0     H61648   7.140   2.642   9.416 -0.3551 -0.1539 -0.6938
  447MOL0     H61649   7.355   2.701   9.327 -0.1805  0.4537  3.4520
  447MOL0     H61650   7.769   2.543   9.219 -0.4771 -0.3613 -1.1754
  447MOL0     H61651   7.706   2.408   9.284  0.5758  1.0537  0.3703
  447MOL0     H61652   7.688   2.394   9.038 -1.5381 -2.1183 -0.9045
  447MOL0     H61653   7.533   2.390   9.114 -0.1635  0.6985  2.1517
  447MOL0     H61654   7.540   2.656   9.073 -0.8781 -0.5525  0.5679
  447MOL0     H61655   7.461   2.537   8.972 -0.0267  0.8216 -0.2266
  447MOL0     H61656   7.665   2.518   8.843  1.4204 -0.2831 -1.0348
  447MOL0     H61657   7.767   2.610   8.946 -0.5367  1.9531 -1.8363
  447MOL0     H61658   7.537   2.775   8.892  2.6835 -1.7439  3.9479
  447MOL0     H61659   7.712   2.814   8.858 -0.1960  0.5965  1.2573
  447MOL0     H61660   7.530   2.635   8.696  0.3206 -0.0141 -0.0771
  447MOL0     H61661   7.698   2.667   8.654  2.0622  1.3338  2.5303
  447MOL0     H61662   7.642   2.877   8.561 -0.3397  0.1894  0.2191
  447MOL0     H61663   7.494   2.892   8.658 -1.4423 -1.7506  0.4220
  447MOL0     H61664   7.410   2.705   8.499  0.0810  2.4551 -0.5712
  447MOL0     H61665   7.565   2.707   8.422  0.7931 -1.0140 -0.2211
  447MOL0     H61666   7.517   2.324   9.396  1.4057  0.2370 -2.2413
  447MOL0     H61667   7.284   2.239   9.460 -0.3557  0.8890  3.3982
  447MOL0     H61668   6.944   2.510   9.827  2.8368 -1.2762 -0.7254
  447MOL0     H61669   6.846   2.387  10.000 -0.1143 -2.7870  1.5713
  447MOL0     H61670   7.432   3.207   9.109 -0.4571  0.0680 -1.8601
  447MOL0     H61671   7.277   3.188   8.929 -0.4667 -0.7534 -0.7413
  447MOL0     H61672   6.825   3.150   8.809 -2.6662  0.5290  0.5551
  447MOL0     H61673   6.645   3.098   8.654 -0.9434 -1.3471 -1.1395
  447MOL0     H61674   6.673   2.751   8.421  0.4503  0.3911 -0.9563
  447MOL0     H61675   6.525   2.803   8.510 -1.8223  2.7227 -0.5747
  447MOL0     H61676   6.486   2.739   8.258  0.9383  0.2988 -2.6640
  447MOL0     H61677   6.569   2.887   8.215  2.2197 -0.6839  0.5087
  447MOL0     H61678   6.317   2.854   8.375  2.2166 -1.5779  1.7289
  447MOL0     H61679   6.412   3.006   8.396  2.4228  0.8108 -1.6618
  447MOL0     H61680   6.305   2.905   8.120 -0.5925  0.1554  0.0645
  447MOL0     H61681   6.393   3.051   8.154 -1.9276 -0.2042 -2.1009
  447MOL0     H61682   5.977   3.086   8.284  0.2176  2.0389 -0.8359
  447MOL0     H61683   6.865   2.790   8.477 -1.2847  0.1093 -0.6796
  447MOL0     H61684   7.171   2.807   8.625 -0.7887  0.5564  1.6728
  447MOL0     H61685   7.066   2.711   8.730  0.8064  0.1465  0.3241
  447MOL0     H61686   7.042   2.700   8.553 -0.5919  2.4950 -2.5750
  448MOL0     O61687  10.780   6.880   6.385  0.0786  0.6845 -0.1270
  448MOL0     C61688  10.874   6.954   6.423 -1.1022 -0.6237  0.3301
  448MOL0     O61689  10.856   7.084   6.473  0.1242 -0.5663  0.5448
  448MOL0     C61690  10.733   7.136   6.502 -0.0493 -0.0648 -0.8768
  448MOL0     C61691  10.645   7.072   6.589  0.5854 -0.4536  0.4395
  448MOL0     C61692  10.512   7.128   6.607 -0.2043 -1.0808 -0.2989
  448MOL0     C61693  10.481   7.248   6.539 -0.4387  0.8242  0.5054
  448MOL0     O61694  10.356   7.312   6.552  0.2488 -0.1376  0.6232
  448MOL0     C61695  10.368   7.404   6.663 -0.7793 -0.3329 -0.0744
  448MOL0     C61696  10.299   7.338   6.780 -0.5017  0.4425 -0.1495
  448MOL0     C61697  10.269   7.429   6.897 -0.1030 -0.1934  0.2238
  448MOL0     C61698  10.388   7.487   6.959 -0.8741 -0.1686 -0.1527
  448MOL0     C61699  10.347   7.588   7.071 -0.7244  0.5499 -1.3071
  448MOL0     C61700  10.459   7.649   7.155  0.6788  0.0892  0.1600
  448MOL0     C61701  10.570   7.715   7.071  0.0266 -0.2112 -0.5866
  448MOL0     C61702  10.698   7.762   7.159  0.1760 -0.3479 -0.0875
  448MOL0     N61703  10.798   7.834   7.082  0.7188 -1.2986 -0.3829
  448MOL0     C61704  10.933   7.827   7.088  0.2045 -0.4851 -0.2379
  448MOL0     C61705  10.975   7.905   6.982 -0.5831 -0.4593 -0.8594
  448MOL0     C61706  11.111   7.911   6.923 -0.3268 -0.7560 -0.6824
  448MOL0     C61707  11.223   7.981   7.005 -0.1229  0.8848 -0.3384
  448MOL0     C61708  11.357   7.939   6.955 -0.1484 -1.2125  0.2860
  448MOL0     C61709  11.398   7.999   6.815 -0.0660  0.3351  1.2914
  448MOL0     O61710  11.416   8.141   6.819  0.1149 -0.4277  0.8547
  448MOL0     C61711  11.508   8.180   6.732  0.6748  0.0885  0.5271
  448MOL0     C61712  11.467   8.236   6.611 -0.4551  0.2886 -0.2450
  448MOL0     C61713  11.551   8.311   6.526 -0.0187  0.6685 -0.9327
  448MOL0     C61714  11.473   8.390   6.428 -0.1063 -0.5697  0.1558
  448MOL0     C61715  11.690   8.317   6.557  0.2865  0.3058  0.3241
  448MOL0     C61716  11.796   8.365   6.463 -0.0039  0.1179 -0.5722
  448MOL0     O61717  11.921   8.407   6.514  0.2644  0.1890  0.3269
  448MOL0     C61718  11.994   8.477   6.427 -0.5169 -0.8123 -0.7191
  448MOL0     C61719  12.005   8.619   6.450 -0.4921  0.4109 -0.0292
  448MOL0     C61720  12.110   8.682   6.377 -0.8767 -0.6829  0.6740
  448MOL0     C61721  12.177   8.621   6.273  0.0098 -0.0835 -0.1328
  448MOL0     O61722  12.264   8.698   6.206  0.5891 -0.3914  0.3714
  448MOL0     C61723  12.300   8.654   6.071 -1.1712 -0.3624  0.5099
  448MOL0     C61724  12.343   8.772   5.987 -0.3151 -0.5736  0.5467
  448MOL0     C61725  12.364   8.723   5.849 -0.3115 -0.0972 -0.8049
  448MOL0     C61726  12.399   8.840   5.757  0.2528 -0.9427 -0.2626
  448MOL0     C61727  12.402   8.795   5.611  0.9977  0.0193  0.3195
  448MOL0     C61728  12.492   8.892   5.533  0.0900 -0.7864 -0.0592
  448MOL0     C61729  12.633   8.842   5.531 -0.5162  0.6871 -0.7634
  448MOL0     C61730  12.740   8.930   5.480 -0.0744  0.5542 -0.1390
  448MOL0    Cl61731  12.681   8.982   5.314  0.0114  0.0115 -0.3506
  448MOL0     C61732  12.155   8.481   6.251 -0.2014 -0.0907  0.2049
  448MOL0     C61733  12.074   8.407   6.337 -0.8844 -0.8512  0.2870
  448MOL0     O61734  11.758   8.359   6.348 -0.5394  0.4366 -0.1861
  448MOL0     C61735  11.727   8.268   6.680  0.2244  0.6675 -0.2702
  448MOL0     C61736  11.638   8.205   6.771 -1.3729 -1.1744 -0.3616
  448MOL0     N61737  10.862   7.949   6.911 -0.6710  0.3970 -0.7346
  448MOL0     N61738  10.756   7.923   6.989 -0.9621  0.3818  0.5001
  448MOL0     C61739  10.573   7.304   6.455 -1.2667 -0.3338  0.1485
  448MOL0     C61740  10.698   7.256   6.434 -0.0745  0.2717  0.2448
  448MOL0     C61741  11.013   6.912   6.424  0.3008 -1.0014  0.7422
  448MOL0     C61742  11.026   6.767   6.429 -0.1238 -0.0728 -0.2474
  448MOL0     C61743  11.158   6.710   6.444 -0.3451 -0.7857 -0.1572
  448MOL0     C61744  11.267   6.784   6.438 -0.9466 -1.0707  0.8845
  448MOL0     O61745  11.387   6.717   6.429 -0.1143 -0.1475  0.1838
  448MOL0     C61746  11.495   6.768   6.508  0.3992 -0.7408 -0.8226
  448MOL0     C61747  11.607   6.653   6.511  0.0969  0.2812 -0.4001
  448MOL0     C61748  11.560   6.499   6.489  0.5506 -1.1845  0.6430
  448MOL0     C61749  11.442   6.435   6.572  0.1278  0.3020  0.0656
  448MOL0     C61750  11.476   6.295   6.590  0.1356  0.1051 -0.2095
  448MOL0     C61751  11.512   6.177   6.601  0.1371 -0.4633  0.1806
  448MOL0     C61752  11.256   6.925   6.422  0.6851  0.9446  0.1528
  448MOL0     C61753  11.132   6.991   6.412 -0.3754 -0.5648 -0.0652
  448MOL0     C61754  11.140   7.137   6.384 -0.0266 -0.2723 -0.6028
  448MOL0     H61755  10.679   6.982   6.639 -0.6786 -1.1969  0.0124
  448MOL0     H61756  10.437   7.090   6.676 -0.6883  0.3342 -0.0233
  448MOL0     H61757  10.319   7.499   6.642  1.7480  1.1455  0.3423
  448MOL0     H61758  10.474   7.431   6.671 -1.1968  1.8154 -1.2119
  448MOL0     H61759  10.196   7.307   6.763  0.0744 -3.0457  1.7258
  448MOL0     H61760  10.344   7.246   6.818 -0.1112  1.0303  0.8418
  448MOL0     H61761  10.206   7.507   6.852 -0.1954 -1.1827 -1.4371
  448MOL0     H61762  10.201   7.378   6.966 -0.4374  1.5604  1.2520
  448MOL0     H61763  10.459   7.409   6.989 -2.1292 -0.2092  3.0849
  448MOL0     H61764  10.427   7.554   6.882 -0.1118 -0.7687 -0.2986
  448MOL0     H61765  10.267   7.537   7.126  0.7487  0.9459  1.3887
  448MOL0     H61766  10.295   7.670   7.020 -0.4151  2.0352  0.6363
  448MOL0     H61767  10.404   7.729   7.207 -1.7966 -0.3939 -1.5310
  448MOL0     H61768  10.498   7.578   7.228  1.2045  0.1199 -0.0904
  448MOL0     H61769  10.522   7.800   7.022 -1.9896  0.8993  2.9614
  448MOL0     H61770  10.612   7.652   6.992  0.8144 -2.3200  1.3946
  448MOL0     H61771  10.653   7.826   7.235  0.6281 -0.9886  0.7286
  448MOL0     H61772  10.741   7.676   7.210 -0.8745  0.8024  2.9721
  448MOL0     H61773  10.996   7.769   7.154  0.7907  2.2630  1.8116
  448MOL0     H61774  11.109   7.954   6.822 -1.0212 -1.2445 -0.8885
  448MOL0     H61775  11.146   7.809   6.901  0.0191 -0.8670  0.3424
  448MOL0     H61776  11.205   8.087   6.985  4.6735  1.9304 -0.2821
  448MOL0     H61777  11.226   7.966   7.114  1.3504  0.7007 -0.3907
  448MOL0     H61778  11.431   7.966   7.031 -2.2425 -0.9155  2.3240
  448MOL0     H61779  11.352   7.829   6.950 -0.2288 -1.1825 -0.5768
  448MOL0     H61780  11.484   7.935   6.795 -2.3043 -1.9242 -2.3889
  448MOL0     H61781  11.320   7.983   6.739  1.4889  0.8376 -0.4888
  448MOL0     H61782  11.362   8.227   6.585  0.0200 -0.9645 -1.8967
  448MOL0     H61783  11.498   8.496   6.426 -3.1141  0.2152  0.0471
  448MOL0     H61784  11.367   8.385   6.452 -0.0005 -0.7760  0.6165
  448MOL0     H61785  11.497   8.351   6.329 -1.3942 -1.1685  0.0712
  448MOL0     H61786  11.953   8.664   6.534  1.1386  0.4506  0.9870
  448MOL0     H61787  12.122   8.788   6.397 -0.1179 -0.5494 -0.4175
  448MOL0     H61788  12.376   8.576   6.065  0.3242  1.1360 -2.1889
  448MOL0     H61789  12.212   8.609   6.025 -1.3021 -1.0828  1.4590
  448MOL0     H61790  12.258   8.839   5.971  0.4072  0.2237 -0.0183
  448MOL0     H61791  12.434   8.823   6.021  0.4464 -2.4592  1.4965
  448MOL0     H61792  12.270   8.683   5.810 -2.0524  3.2034 -0.4181
  448MOL0     H61793  12.445   8.650   5.851 -1.4865 -1.4103 -0.3145
  448MOL0     H61794  12.494   8.888   5.783 -0.7020  0.1107  1.5098
  448MOL0     H61795  12.320   8.915   5.768 -1.9825 -2.9882 -1.3807
  448MOL0     H61796  12.426   8.688   5.605  1.4978  0.1348  0.2876
  448MOL0     H61797  12.303   8.793   5.564  1.1925 -2.6664 -0.1733
  448MOL0     H61798  12.486   8.989   5.583 -3.8927  0.2622 -2.1560
  448MOL0     H61799  12.449   8.903   5.433  0.4280 -1.2866 -0.2618
  448MOL0     H61800  12.657   8.750   5.478  1.0965  0.3495  0.5068
  448MOL0     H61801  12.661   8.825   5.635 -0.1015  1.8008 -0.6793
  448MOL0     H61802  12.830   8.867   5.474 -0.4475  0.1873 -3.9370
  448MOL0     H61803  12.745   9.014   5.550  1.7788 -1.8684  2.9493
  448MOL0     H61804  12.205   8.421   6.176 -1.1906  0.4807 -0.9376
  448MOL0     H61805  12.076   8.298   6.331  0.5393 -0.8372  0.0672
  448MOL0     H61806  11.833   8.283   6.698 -0.3216  1.5493  2.6702
  448MOL0     H61807  11.680   8.179   6.868 -2.6888  0.5808  0.7367
  448MOL0     H61808  10.554   7.391   6.394 -1.0209 -0.8290 -0.6431
  448MOL0     H61809  10.764   7.300   6.360  4.7703 -3.4378  1.8136
  448MOL0     H61810  10.941   6.701   6.445  2.1942 -3.0352  0.9053
  448MOL0     H61811  11.174   6.604   6.461  0.1195 -0.6274  0.3971
  448MOL0     H61812  11.526   6.850   6.442  1.5257 -0.2539  0.2739
  448MOL0     H61813  11.466   6.809   6.605 -0.4904 -0.2317 -1.2934
  448MOL0     H61814  11.646   6.657   6.613  1.6751  0.2552 -0.9848
  448MOL0     H61815  11.687   6.679   6.441 -0.5231  1.5171 -0.6724
  448MOL0     H61816  11.547   6.491   6.380  2.6590  0.7230  0.1900
  448MOL0     H61817  11.649   6.442   6.514  1.9400  0.8769  0.6355
  448MOL0     H61818  11.343   6.427   6.527 -0.4331 -0.8445  1.4250
  448MOL0     H61819  11.442   6.465   6.677  1.4797 -3.4562  1.3310
  448MOL0     H61820  11.545   6.076   6.588 -4.0449 -1.9642 -0.3224
  448MOL0     H61821  11.352   6.973   6.407  1.6669 -0.3061  2.1361
  448MOL0     H61822  11.092   7.196   6.463  1.8368  0.2413  0.2055
  448MOL0     H61823  11.243   7.174   6.386  0.5881 -1.7518 -2.2883
  448MOL0     H61824  11.085   7.162   6.294 -1.1121  2.3046  0.6921
  449MOL0     O61825   9.341   5.012   6.428 -0.8339  0.9017  0.3479
  449MOL0     C61826   9.308   5.114   6.485 -0.2897 -0.0472 -0.3026
  449MOL0     O61827   9.272   5.234   6.419 -0.1582  0.6594  0.2231
  449MOL0     C61828   9.237   5.242   6.285 -0.5959  0.6179  0.4312
  449MOL0     C61829   9.296   5.176   6.177 -0.2828  0.5175  0.2404
  449MOL0     C61830   9.248   5.210   6.054 -1.2674 -0.7999 -0.6098
  449MOL0     C61831   9.162   5.319   6.035  0.5012 -1.0067 -0.0630
  449MOL0     O61832   9.124   5.355   5.905 -0.4400 -0.0893  0.4037
  449MOL0     C61833   9.058   5.250   5.829 -0.5841  0.1777 -1.2031
  449MOL0     C61834   8.994   5.294   5.693 -0.6192  0.2990  0.6326
  449MOL0     C61835   9.073   5.403   5.609 -0.0391  0.6810 -0.1051
  449MOL0     C61836   9.182   5.330   5.528 -0.5972 -0.2168 -0.9004
  449MOL0     C61837   9.252   5.426   5.422  0.5013 -0.5350 -0.9749
  449MOL0     C61838   9.169   5.485   5.307 -0.6556 -0.8050  0.3654
  449MOL0     C61839   9.106   5.394   5.205  0.6107  1.3008  0.1014
  449MOL0     C61840   9.202   5.305   5.130  0.2613  0.5681  0.1176
  449MOL0     N61841   9.140   5.218   5.032 -0.0535 -0.3849  0.6445
  449MOL0     C61842   9.005   5.164   5.044 -0.9580  0.2070 -0.1730
  449MOL0     C61843   8.993   5.103   4.927 -0.4477  0.8455 -0.2401
  449MOL0     C61844   8.866   5.041   4.865  0.1807  0.1348 -0.7291
  449MOL0     C61845   8.764   5.148   4.822  0.7157  0.7762  0.5257
  449MOL0     C61846   8.618   5.116   4.872  0.5955  0.1230  0.5568
  449MOL0     C61847   8.560   4.982   4.830 -0.5568 -0.2019 -0.4583
  449MOL0     O61848   8.426   4.956   4.881  0.1319  0.0251  0.9225
  449MOL0     C61849   8.324   4.937   4.793 -0.2559  0.0080 -1.1377
  449MOL0     C61850   8.326   4.826   4.708  0.2487 -0.1729 -0.3075
  449MOL0     C61851   8.216   4.792   4.627  0.0211 -0.1072  0.1316
  449MOL0     C61852   8.245   4.676   4.533  0.4456 -0.5960 -0.3935
  449MOL0     C61853   8.096   4.865   4.639 -0.4906  0.5393 -0.4008
  449MOL0     C61854   7.974   4.838   4.558  0.1672 -0.2116  0.3477
  449MOL0     O61855   7.942   4.722   4.489 -0.4465  0.2037 -0.2815
  449MOL0     C61856   7.820   4.701   4.436 -0.1240  0.3337  0.2093
  449MOL0     C61857   7.789   4.570   4.468 -0.0352 -0.3590  1.0157
  449MOL0     C61858   7.667   4.529   4.447  0.4965 -0.2358  0.2453
  449MOL0     C61859   7.572   4.606   4.378  0.4811  1.0983 -0.9844
  449MOL0     O61860   7.451   4.545   4.363 -0.1405  0.7462 -0.8220
  449MOL0     C61861   7.347   4.639   4.327  0.0685  0.2726  0.6035
  449MOL0     C61862   7.209   4.576   4.347  0.1500 -0.0847  0.5497
  449MOL0     C61863   7.191   4.516   4.494 -0.3924 -0.6819  0.5456
  449MOL0     C61864   7.191   4.618   4.611  0.2412 -0.5701  0.1060
  449MOL0     C61865   7.194   4.564   4.754 -0.4635  0.6337 -0.3758
  449MOL0     C61866   7.158   4.656   4.862  0.3733 -0.6753  0.4320
  449MOL0     C61867   7.289   4.737   4.889  0.9096  0.4926 -0.3370
  449MOL0     C61868   7.251   4.866   4.966 -0.4748  0.0104  0.5206
  449MOL0    Cl61869   7.224   5.015   4.861  0.0579  0.3098  0.6134
  449MOL0     C61870   7.615   4.730   4.330  0.6555 -0.0723  0.0768
  449MOL0     C61871   7.739   4.786   4.365  0.2584 -1.0780  0.4145
  449MOL0     O61872   7.899   4.935   4.556 -0.1948 -0.1667 -1.2508
  449MOL0     C61873   8.099   4.975   4.725 -0.7932 -0.3832  0.3348
  449MOL0     C61874   8.203   5.014   4.807  0.1823  0.2678  1.1762
  449MOL0     N61875   9.115   5.089   4.868 -0.6329  0.0104 -0.2917
  449MOL0     N61876   9.205   5.175   4.925 -0.4932  0.1262  0.0480
  449MOL0     C61877   9.110   5.388   6.145 -1.2847  0.1344 -0.5847
  449MOL0     C61878   9.152   5.344   6.269 -0.1591  0.2129 -0.5146
  449MOL0     C61879   9.305   5.125   6.628  0.5530  0.6801 -0.3144
  449MOL0     C61880   9.380   5.039   6.709 -0.6416 -0.9823  0.0823
  449MOL0     C61881   9.390   5.063   6.843 -0.9088  0.6551 -0.0760
  449MOL0     C61882   9.320   5.166   6.904  0.3890  0.0241  0.0365
  449MOL0     O61883   9.315   5.171   7.043 -0.1949  0.0888  0.3443
  449MOL0     C61884   9.412   5.256   7.112 -0.3371 -0.4256  0.5752
  449MOL0     C61885   9.479   5.155   7.205 -0.2874  0.7728 -0.8387
  449MOL0     C61886   9.590   5.217   7.277  0.4612 -0.0011  0.0052
  449MOL0     C61887   9.693   5.119   7.326  0.7964 -0.5412  0.5728
  449MOL0     C61888   9.772   5.071   7.212 -0.2223 -0.4642  0.6341
  449MOL0     C61889   9.828   5.040   7.112 -0.3361  0.1677  0.1105
  449MOL0     C61890   9.231   5.239   6.825 -0.5675  0.3447 -0.0716
  449MOL0     C61891   9.213   5.219   6.688  0.6687 -0.3595 -0.9161
  449MOL0     C61892   9.098   5.289   6.625  0.3401  0.5585 -1.0298
  449MOL0     H61893   9.371   5.099   6.191  1.4181  1.4438 -2.9700
  449MOL0     H61894   9.281   5.156   5.966  3.2894 -0.1186  0.4562
  449MOL0     H61895   8.980   5.189   5.877 -1.7266  0.4982 -2.5787
  449MOL0     H61896   9.138   5.183   5.797  0.2276  1.5054 -2.0395
  449MOL0     H61897   8.983   5.207   5.629 -0.7536  1.2197 -0.6355
  449MOL0     H61898   8.893   5.334   5.704 -0.3980  1.4874 -1.1838
  449MOL0     H61899   9.004   5.443   5.534  0.5969 -2.1569 -2.3919
  449MOL0     H61900   9.124   5.480   5.666  0.5471  1.3482 -1.4813
  449MOL0     H61901   9.262   5.305   5.598  1.4338  2.8887 -1.9064
  449MOL0     H61902   9.139   5.239   5.484 -4.4056  0.6089  0.7279
  449MOL0     H61903   9.327   5.373   5.363 -1.9609 -2.0527 -2.9530
  449MOL0     H61904   9.295   5.513   5.472  2.9361 -1.4490 -1.3799
  449MOL0     H61905   9.092   5.552   5.345  0.5491  0.9280 -0.1358
  449MOL0     H61906   9.245   5.552   5.266 -2.1044  1.3402  0.9979
  449MOL0     H61907   9.048   5.456   5.136  1.6037  0.0221 -1.9800
  449MOL0     H61908   9.037   5.322   5.251  1.5987  0.3204  0.0664
  449MOL0     H61909   9.285   5.358   5.082  1.2524 -0.5406  0.5627
  449MOL0     H61910   9.255   5.242   5.202  1.7399  0.4732 -1.0024
  449MOL0     H61911   8.932   5.179   5.123  1.0047  3.2342  1.2574
  449MOL0     H61912   8.815   4.963   4.923  2.4594 -0.9935 -0.1191
  449MOL0     H61913   8.900   4.989   4.775  3.8197  0.0838  0.5235
  449MOL0     H61914   8.780   5.242   4.875 -1.5603  0.0594  2.6693
  449MOL0     H61915   8.771   5.155   4.713  1.1762 -0.0674  0.4952
  449MOL0     H61916   8.618   5.123   4.981 -2.4390 -0.5273  0.6867
  449MOL0     H61917   8.546   5.189   4.835  1.0449  1.1883  1.7101
  449MOL0     H61918   8.563   4.970   4.721 -0.8541  0.1544 -0.5094
  449MOL0     H61919   8.630   4.909   4.871  0.3698  1.1582  0.4338
  449MOL0     H61920   8.418   4.768   4.707  0.0709 -0.6883  2.6091
  449MOL0     H61921   8.212   4.587   4.587 -2.8290  0.0719 -1.0690
  449MOL0     H61922   8.345   4.665   4.488  0.5144  2.3014 -1.1763
  449MOL0     H61923   8.175   4.693   4.451  2.1083 -1.1312 -2.0019
  449MOL0     H61924   7.867   4.519   4.524  1.2265  0.1686 -0.1925
  449MOL0     H61925   7.633   4.434   4.489  2.3115 -0.4953  1.2261
  449MOL0     H61926   7.339   4.724   4.396 -1.9518  2.0453 -1.6206
  449MOL0     H61927   7.366   4.666   4.222 -0.3517  1.6721  0.8691
  449MOL0     H61928   7.130   4.644   4.315 -1.0338 -1.4369  0.4782
  449MOL0     H61929   7.207   4.488   4.282  0.9625 -0.9731  1.6802
  449MOL0     H61930   7.281   4.461   4.523  0.2154 -0.0811 -0.1706
  449MOL0     H61931   7.099   4.456   4.497 -2.2024  1.8635 -0.6124
  449MOL0     H61932   7.097   4.674   4.606  0.1939 -0.6504  0.1020
  449MOL0     H61933   7.268   4.696   4.598  0.5597 -0.7419  0.9329
  449MOL0     H61934   7.132   4.474   4.752  0.0893  0.0171  3.3572
  449MOL0     H61935   7.295   4.532   4.779 -1.4247 -0.2795  2.7972
  449MOL0     H61936   7.127   4.606   4.954  1.2270 -1.0689  0.5176
  449MOL0     H61937   7.077   4.722   4.832 -0.7948 -2.1957  0.1049
  449MOL0     H61938   7.331   4.762   4.792 -2.2423 -1.4481 -2.3784
  449MOL0     H61939   7.351   4.676   4.956 -3.8610 -1.5524  2.8080
  449MOL0     H61940   7.336   4.888   5.030  0.7445  0.4343 -1.1725
  449MOL0     H61941   7.162   4.840   5.025 -0.2199  2.0567  1.9056
  449MOL0     H61942   7.543   4.776   4.263 -0.5127 -4.3029 -1.8497
  449MOL0     H61943   7.765   4.884   4.328  0.8227 -1.2351  0.3971
  449MOL0     H61944   8.009   5.036   4.734 -2.3542 -2.6383  1.0234
  449MOL0     H61945   8.203   5.093   4.882 -0.3216  1.3550  0.0672
  449MOL0     H61946   9.041   5.472   6.146 -1.9754 -0.4233  0.1122
  449MOL0     H61947   9.118   5.405   6.352 -2.9173  1.4851 -2.4115
  449MOL0     H61948   9.464   4.982   6.671 -0.6460  0.2917 -2.0245
  449MOL0     H61949   9.456   4.998   6.900  1.7070  3.6637  0.6121
  449MOL0     H61950   9.484   5.302   7.043 -1.0548  0.5034  0.4310
  449MOL0     H61951   9.376   5.343   7.168 -0.0991 -1.3184  2.1899
  449MOL0     H61952   9.516   5.072   7.143 -0.3220  1.3214 -1.6033
  449MOL0     H61953   9.402   5.123   7.275  1.2272  1.9361  1.4776
  449MOL0     H61954   9.648   5.291   7.221 -0.8021  3.9449  3.3991
  449MOL0     H61955   9.550   5.260   7.369  0.3194 -1.6867  0.7697
  449MOL0     H61956   9.645   5.034   7.376  0.6212 -2.5599 -2.7270
  449MOL0     H61957   9.759   5.177   7.391  2.3549 -0.9196 -0.6087
  449MOL0     H61958   9.881   5.007   7.025  1.0000 -0.7653  1.2251
  449MOL0     H61959   9.164   5.300   6.886 -2.1158 -2.2040  0.9384
  449MOL0     H61960   9.031   5.318   6.707  0.4418  0.0906 -0.7776
  449MOL0     H61961   9.125   5.375   6.564  0.3233  0.6534 -0.9041
  449MOL0     H61962   9.045   5.218   6.561 -2.0970  0.8135  0.5945
  450MOL0     O61963  11.418   3.782   8.366 -0.2323 -0.4935 -0.2021
  450MOL0     C61964  11.435   3.904   8.393  0.6475  0.2822 -0.0837
  450MOL0     O61965  11.552   3.970   8.401 -0.5242  0.4827  0.6170
  450MOL0     C61966  11.669   3.893   8.405 -0.6736  0.0764 -0.6233
  450MOL0     C61967  11.757   3.929   8.507 -1.5593  0.3796 -0.8175
  450MOL0     C61968  11.874   3.856   8.522 -0.4157  0.2852  0.3631
  450MOL0     C61969  11.910   3.763   8.421  0.2034  0.3208 -1.2824
  450MOL0     O61970  12.035   3.699   8.429  0.4511 -0.0252  0.0367
  450MOL0     C61971  12.033   3.558   8.394 -0.3085 -0.4702 -0.3503
  450MOL0     C61972  12.188   3.518   8.403 -0.1696 -0.1652  0.5343
  450MOL0     C61973  12.189   3.361   8.374 -0.1374  0.3725  0.2178
  450MOL0     C61974  12.250   3.283   8.486  0.5607 -1.1730  0.3978
  450MOL0     C61975  12.234   3.130   8.464  0.4600  0.7735  0.1366
  450MOL0     C61976  12.296   3.073   8.330  0.2191 -0.3974  0.6414
  450MOL0     C61977  12.433   3.116   8.305  0.3709 -0.5762 -0.3924
  450MOL0     C61978  12.474   3.085   8.168 -0.2839  0.1423  0.7197
  450MOL0     N61979  12.605   3.150   8.131 -0.0461 -0.3779  0.0066
  450MOL0     C61980  12.639   3.277   8.112  0.1119 -0.6096  1.3161
  450MOL0     C61981  12.772   3.280   8.083 -0.0242  0.2369  0.8351
  450MOL0     C61982  12.841   3.400   8.052 -0.0652 -1.0445 -0.1277
  450MOL0     C61983  12.872   3.413   7.905  0.1063  0.3388 -0.7111
  450MOL0     C61984  12.890   3.559   7.841 -0.6426  0.8089 -0.6128
  450MOL0     C61985  13.011   3.637   7.893  0.0188  0.3282 -0.0762
  450MOL0     O61986  12.989   3.684   8.032 -0.2516  0.8406 -0.6639
  450MOL0     C61987  13.001   3.823   8.058 -0.5219  0.3178  0.6297
  450MOL0     C61988  12.993   3.866   8.188 -1.0888 -0.2874  0.3646
  450MOL0     C61989  13.004   3.999   8.219 -0.2134 -1.2260 -0.9039
  450MOL0     C61990  13.037   4.024   8.371  0.2680  0.4991  0.1304
  450MOL0     C61991  13.005   4.100   8.122 -0.6754  0.0816  0.5372
  450MOL0     C61992  13.015   4.248   8.131 -0.3527 -0.7482 -0.2644
  450MOL0     O61993  12.992   4.325   8.022 -0.4707  0.2248 -1.5845
  450MOL0     C61994  12.970   4.457   8.021  0.4718 -0.8065 -0.2007
  450MOL0     C61995  13.061   4.537   7.946  0.8764 -0.3534  0.4251
  450MOL0     C61996  13.043   4.667   7.906 -0.6683 -0.4720 -0.2409
  450MOL0     C61997  12.931   4.732   7.958  0.4115 -0.6439 -0.4107
  450MOL0     O61998  12.931   4.874   7.928 -0.4060 -0.1570 -0.4567
  450MOL0     C61999  12.797   4.928   7.910  0.2547  0.7097 -1.3312
  450MOL0     C62000  12.804   5.033   7.805 -0.2298 -0.3016  0.9591
  450MOL0     C62001  12.842   4.982   7.659 -0.0868  0.0978 -0.5106
  450MOL0     C62002  12.717   4.940   7.572 -0.3867  0.1167  0.0019
  450MOL0     C62003  12.784   4.898   7.437 -0.3324  0.0476  0.2012
  450MOL0     C62004  12.796   4.759   7.414  0.4693  0.2212 -0.0168
  450MOL0     C62005  12.880   4.734   7.290  0.0586  0.4042  0.2312
  450MOL0     C62006  12.904   4.586   7.284  0.0240  1.1634 -0.2255
  450MOL0    Cl62007  13.008   4.546   7.149  0.9186 -0.1455  0.4788
  450MOL0     C62008  12.838   4.664   8.043  0.0760  0.3859 -0.0129
  450MOL0     C62009  12.862   4.527   8.077 -0.1328 -0.1778 -0.2036
  450MOL0     O62010  13.058   4.294   8.238  0.0497  0.2838 -0.8107
  450MOL0     C62011  12.988   4.057   7.989  0.2292 -0.3292  0.6242
  450MOL0     C62012  12.991   3.915   7.956  0.5174 -0.0418  0.4026
  450MOL0     N62013  12.818   3.160   8.065  0.7168  0.7651  0.5282
  450MOL0     N62014  12.715   3.083   8.094 -0.5984  0.1945  0.1660
  450MOL0     C62015  11.821   3.741   8.316 -0.6757 -0.3934 -0.8481
  450MOL0     C62016  11.694   3.800   8.313  0.5635  0.3614  0.2002
  450MOL0     C62017  11.303   3.967   8.432 -1.1504 -0.0323  0.0494
  450MOL0     C62018  11.308   4.110   8.440  0.5951  0.7557  0.3629
  450MOL0     C62019  11.197   4.182   8.459  0.4987 -0.7322  0.3582
  450MOL0     C62020  11.070   4.114   8.481 -0.8495 -0.7608  0.2464
  450MOL0     O62021  10.949   4.169   8.514 -0.8610  0.2592 -0.6699
  450MOL0     C62022  10.936   4.313   8.551 -0.5875 -0.7509  0.6778
  450MOL0     C62023  10.994   4.338   8.693  0.9107 -0.8057  0.3208
  450MOL0     C62024  10.922   4.259   8.804 -0.3905 -1.0008 -0.3490
  450MOL0     C62025  10.773   4.299   8.827 -0.9303 -0.4102  1.1335
  450MOL0     C62026  10.722   4.269   8.962  0.1609  0.2538  0.4786
  450MOL0     C62027  10.655   4.228   9.051  0.1405  0.8069 -0.3682
  450MOL0     C62028  11.066   3.971   8.465 -0.7128 -0.1777 -0.4690
  450MOL0     C62029  11.177   3.899   8.445 -0.0476 -0.1167 -0.5201
  450MOL0     C62030  11.158   3.749   8.450 -0.4481  0.4527 -0.6034
  450MOL0     H62031  11.735   4.017   8.567  1.9277  0.3324  0.7709
  450MOL0     H62032  11.948   3.868   8.600  1.4402 -0.6819 -1.1802
  450MOL0     H62033  11.998   3.539   8.292 -2.3915  1.5311 -0.0800
  450MOL0     H62034  11.986   3.504   8.476 -0.0715  0.6255  0.5296
  450MOL0     H62035  12.237   3.589   8.336  2.2286 -0.8980  1.4037
  450MOL0     H62036  12.230   3.541   8.501  0.5805  1.9438 -0.2425
  450MOL0     H62037  12.088   3.324   8.354  1.0102 -1.4503 -3.1647
  450MOL0     H62038  12.236   3.339   8.277 -2.1288  2.7715 -1.4126
  450MOL0     H62039  12.353   3.311   8.508 -0.0029 -0.0773  1.7737
  450MOL0     H62040  12.196   3.301   8.579  0.8874 -0.5942  0.4794
  450MOL0     H62041  12.130   3.099   8.469  0.0909  1.9689  0.2274
  450MOL0     H62042  12.298   3.101   8.548  0.2570  2.4093  0.8920
  450MOL0     H62043  12.291   2.965   8.349 -0.8685 -1.0607 -2.7991
  450MOL0     H62044  12.232   3.091   8.244 -0.2672 -1.9596  0.6375
  450MOL0     H62045  12.495   3.083   8.389 -0.0041  0.7741  0.4345
  450MOL0     H62046  12.442   3.224   8.315  0.2055 -0.6126  0.2268
  450MOL0     H62047  12.464   2.977   8.153 -0.0424  0.4052 -1.9353
  450MOL0     H62048  12.404   3.140   8.104  1.8260  2.8192  0.5140
  450MOL0     H62049  12.562   3.353   8.111 -1.9979 -2.6286  1.8951
  450MOL0     H62050  12.941   3.409   8.096 -1.0554  0.4249  1.9760
  450MOL0     H62051  12.797   3.490   8.096  2.5845  0.7425 -0.8655
  450MOL0     H62052  12.961   3.349   7.894  1.3650  1.9821 -0.5351
  450MOL0     H62053  12.787   3.375   7.848 -0.8261 -0.0445  0.8825
  450MOL0     H62054  12.900   3.545   7.733 -3.0355  1.4403 -0.9683
  450MOL0     H62055  12.796   3.612   7.855 -0.2044  2.1154 -2.3463
  450MOL0     H62056  13.105   3.580   7.896  0.6731  1.3330 -0.8694
  450MOL0     H62057  13.024   3.719   7.822  0.0540  0.4555  0.0775
  450MOL0     H62058  12.983   3.793   8.268 -1.0727  0.0376  0.6669
  450MOL0     H62059  13.066   4.127   8.395  1.4663  0.6198 -1.6772
  450MOL0     H62060  13.111   3.953   8.408 -1.2367 -0.1121  2.1262
  450MOL0     H62061  12.949   4.005   8.433  0.2955 -2.1526 -0.5582
  450MOL0     H62062  13.148   4.485   7.907  0.1979 -1.4801  0.3744
  450MOL0     H62063  13.109   4.719   7.837 -0.2480 -0.0355  0.4759
  450MOL0     H62064  12.718   4.854   7.894 -0.9840  1.4391  0.8959
  450MOL0     H62065  12.776   4.980   8.004 -3.2788 -0.0071 -1.5981
  450MOL0     H62066  12.715   5.094   7.787  0.4953  0.2757 -0.8562
  450MOL0     H62067  12.885   5.098   7.840  0.8667 -2.3811  2.5099
  450MOL0     H62068  12.917   4.904   7.648 -0.3591  0.0881 -2.8927
  450MOL0     H62069  12.895   5.060   7.603 -0.4205  0.8170  0.1544
  450MOL0     H62070  12.652   5.025   7.549 -1.5721 -0.6757  0.3522
  450MOL0     H62071  12.657   4.859   7.613  0.0184  0.7159  1.8507
  450MOL0     H62072  12.707   4.922   7.362  0.9471  0.5071 -1.0025
  450MOL0     H62073  12.874   4.957   7.422 -1.4656  2.3662  1.8776
  450MOL0     H62074  12.704   4.700   7.415 -1.6535  3.2903  0.3332
  450MOL0     H62075  12.849   4.729   7.505 -1.2594  0.5353  1.1482
  450MOL0     H62076  12.971   4.790   7.315  1.3904 -1.3800 -0.4614
  450MOL0     H62077  12.827   4.788   7.211  1.8273  1.5166 -0.2664
  450MOL0     H62078  12.815   4.523   7.288  2.6584 -3.3439 -2.7947
  450MOL0     H62079  12.972   4.562   7.366 -0.0047  0.2342 -0.4613
  450MOL0     H62080  12.758   4.709   8.101  1.3508 -0.9153  3.0040
  450MOL0     H62081  12.785   4.471   8.128 -1.2069  0.6316 -0.9000
  450MOL0     H62082  12.984   4.126   7.905 -0.0228 -2.0289 -0.8432
  450MOL0     H62083  12.969   3.896   7.851 -1.1424  0.7449  0.5740
  450MOL0     H62084  11.861   3.673   8.242  1.6812 -1.4849  1.2711
  450MOL0     H62085  11.629   3.780   8.228 -0.3431  3.5676 -0.0156
  450MOL0     H62086  11.404   4.160   8.435  1.1561 -0.4187 -3.2643
  450MOL0     H62087  11.190   4.290   8.450  0.6588 -0.8613 -1.9372
  450MOL0     H62088  10.995   4.376   8.484  1.3117 -0.4304  2.5466
  450MOL0     H62089  10.830   4.338   8.541 -0.1528  0.2271 -2.7264
  450MOL0     H62090  10.990   4.443   8.723 -1.4927 -1.3382  2.2986
  450MOL0     H62091  11.101   4.316   8.690  1.1431  0.0682  1.4650
  450MOL0     H62092  10.934   4.152   8.784 -2.3370 -1.1473 -0.9272
  450MOL0     H62093  10.979   4.290   8.892 -0.5049  4.3517 -1.8220
  450MOL0     H62094  10.701   4.264   8.753  0.7867  2.6811 -2.3350
  450MOL0     H62095  10.757   4.407   8.814 -3.4176 -1.1255 -4.2918
  450MOL0     H62096  10.615   4.202   9.147 -0.1845 -0.5562 -0.8494
  450MOL0     H62097  10.968   3.928   8.483 -0.4312 -0.0694  1.5330
  450MOL0     H62098  11.149   3.696   8.355  1.5528  1.0682 -1.1990
  450MOL0     H62099  11.226   3.697   8.518 -3.7740 -1.6653  1.3323
  450MOL0     H62100  11.065   3.739   8.505  1.1012 -0.9926  1.9449
  451MOL0     O62101   2.801   9.442   3.791  0.6082  0.1956  0.0892
  451MOL0     C62102   2.856   9.406   3.894  0.1542 -0.9274  0.1871
  451MOL0     O62103   2.827   9.457   4.012  0.3461  0.5841 -0.2947
  451MOL0     C62104   2.798   9.594   3.999 -0.2424 -0.8427 -0.0557
  451MOL0     C62105   2.667   9.636   4.017 -0.3645 -0.6273  0.2772
  451MOL0     C62106   2.641   9.776   4.010  1.3920  1.1920  0.0736
  451MOL0     C62107   2.745   9.867   4.003 -1.2291 -0.2982 -0.1439
  451MOL0     O62108   2.739  10.002   4.002 -0.2092  0.8311  0.6083
  451MOL0     C62109   2.618  10.064   3.957 -0.2067 -0.9439  0.7159
  451MOL0     C62110   2.665  10.205   3.921  0.4250 -0.0420  0.3450
  451MOL0     C62111   2.797  10.220   3.836  0.5984 -0.1168 -0.7419
  451MOL0     C62112   2.822  10.366   3.821 -0.1711  0.5922 -0.3174
  451MOL0     C62113   2.968  10.407   3.765  0.2161 -0.5204  0.2435
  451MOL0     C62114   3.053  10.493   3.859  0.1263  0.4878 -0.2054
  451MOL0     C62115   3.026  10.647   3.847  0.3021 -1.3156 -0.2639
  451MOL0     C62116   3.106  10.722   3.962  0.2370 -0.1219  0.4154
  451MOL0     N62117   3.251  10.733   3.921  0.2658 -0.6471  0.1219
  451MOL0     C62118   3.292  10.807   3.813 -0.1617  0.0982 -0.0936
  451MOL0     C62119   3.419  10.750   3.785 -1.3406 -0.9009  0.1927
  451MOL0     C62120   3.508  10.821   3.688 -0.0115  0.5388  0.7441
  451MOL0     C62121   3.460  10.841   3.544  0.9360  0.7799  0.4397
  451MOL0     C62122   3.555  10.930   3.473 -0.1811  0.1199 -1.1298
  451MOL0     C62123   3.543  10.949   3.324 -0.4043  0.7534 -0.6405
  451MOL0     O62124   3.548  10.814   3.262  1.2684 -0.9844  0.4954
  451MOL0     C62125   3.669  10.753   3.275  0.1400 -0.0896 -0.1413
  451MOL0     C62126   3.669  10.621   3.231  0.8680  1.0592 -0.1200
  451MOL0     C62127   3.788  10.550   3.218  0.5327  0.3611 -0.9497
  451MOL0     C62128   3.768  10.406   3.173  0.7536 -0.4987  0.4212
  451MOL0     C62129   3.913  10.604   3.262  1.0442  0.2740  0.0396
  451MOL0     C62130   4.047  10.529   3.278  0.0691  0.1838  0.9650
  451MOL0     O62131   4.150  10.594   3.353  0.9912  0.1508  0.1025
  451MOL0     C62132   4.259  10.520   3.392  0.0381 -0.4177 -0.4716
  451MOL0     C62133   4.260  10.497   3.527  0.1760  0.8740 -0.3157
  451MOL0     C62134   4.368  10.427   3.579 -0.6324  0.5171 -0.4883
  451MOL0     C62135   4.470  10.375   3.495  1.2976  1.1123  0.4177
  451MOL0     O62136   4.570  10.304   3.551  0.4633 -0.6923  0.5832
  451MOL0     C62137   4.567  10.265   3.689  0.1342  0.8869 -0.3346
  451MOL0     C62138   4.466  10.161   3.733 -0.0672 -0.1937 -0.4346
  451MOL0     C62139   4.485  10.126   3.885  0.0992  0.7068  1.5329
  451MOL0     C62140   4.615  10.096   3.949 -0.7637 -0.1952  0.9252
  451MOL0     C62141   4.669   9.973   3.882  0.1059  0.2758  0.0257
  451MOL0     C62142   4.801   9.923   3.933 -0.3701  0.1988  1.6557
  451MOL0     C62143   4.908  10.032   3.920 -1.3170 -0.4900  0.5697
  451MOL0     C62144   5.039   9.980   3.994 -1.0695 -0.2849  0.5727
  451MOL0    Cl62145   5.185  10.075   3.950  0.3258 -0.4365  0.0073
  451MOL0     C62146   4.463  10.399   3.363  0.1186 -0.2070 -0.3560
  451MOL0     C62147   4.367  10.477   3.301 -0.2535  0.3587 -0.1263
  451MOL0     O62148   4.063  10.419   3.218 -0.8053  0.1671 -0.3057
  451MOL0     C62149   3.909  10.732   3.312  0.5513  0.1626  0.0950
  451MOL0     C62150   3.792  10.810   3.302 -0.2444 -0.3879  0.4262
  451MOL0     N62151   3.451  10.662   3.882  0.3729 -0.4330 -0.8692
  451MOL0     N62152   3.351  10.639   3.960 -0.3800  0.2615  0.0841
  451MOL0     C62153   2.870   9.824   3.971 -0.1733 -0.2381 -0.0156
  451MOL0     C62154   2.899   9.689   3.967 -0.6364 -0.6830  0.4465
  451MOL0     C62155   2.945   9.284   3.884  0.7776  0.4001  0.0760
  451MOL0     C62156   3.060   9.274   3.961  0.2426 -0.5874 -0.3855
  451MOL0     C62157   3.144   9.157   3.951  0.9414  0.2842  0.0108
  451MOL0     C62158   3.115   9.052   3.869  0.5103 -0.2818  0.5980
  451MOL0     O62159   3.205   8.952   3.843  0.6957 -0.7721 -1.2685
  451MOL0     C62160   3.233   8.893   3.972 -0.7905  0.8011  0.2108
  451MOL0     C62161   3.385   8.899   3.971  0.4827  0.2531  0.2120
  451MOL0     C62162   3.445   8.851   4.106 -0.3743 -0.2775 -0.0050
  451MOL0     C62163   3.593   8.873   4.089 -0.6438 -0.4201  0.0217
  451MOL0     C62164   3.634   9.019   4.108  0.2071 -0.6564  0.1464
  451MOL0     C62165   3.685   9.129   4.124  0.2151  1.0226 -0.3636
  451MOL0     C62166   3.002   9.072   3.783 -0.6789 -0.1412 -0.1170
  451MOL0     C62167   2.913   9.179   3.797  0.1807 -0.0362  0.2175
  451MOL0     C62168   2.784   9.174   3.712 -0.8304 -0.4589 -0.3877
  451MOL0     H62169   2.594   9.561   4.044  0.8571 -0.9257  3.0906
  451MOL0     H62170   2.540   9.807   4.032  1.4920  2.4770 -1.1499
  451MOL0     H62171   2.546  10.072   4.039 -0.9855  0.0640 -0.0451
  451MOL0     H62172   2.576  10.011   3.871 -2.5265  0.1829  1.0872
  451MOL0     H62173   2.590  10.253   3.857  0.4335 -0.8723 -0.2932
  451MOL0     H62174   2.659  10.256   4.018  2.1354  0.4419  0.2366
  451MOL0     H62175   2.883  10.180   3.891 -0.4834  2.4528  3.3172
  451MOL0     H62176   2.791  10.171   3.739 -1.7565 -0.3159 -0.5511
  451MOL0     H62177   2.746  10.409   3.755 -0.9012  1.5559  1.1023
  451MOL0     H62178   2.806  10.416   3.917  1.6106  3.3754 -1.3575
  451MOL0     H62179   2.954  10.474   3.680  0.6231 -0.2229  0.4078
  451MOL0     H62180   3.007  10.312   3.728 -0.3063 -1.7529  2.6232
  451MOL0     H62181   3.038  10.469   3.965 -0.0308  1.7727  0.0849
  451MOL0     H62182   3.156  10.462   3.837  0.5944  0.0349  2.2583
  451MOL0     H62183   2.920  10.666   3.864 -0.0270 -4.1325  1.5315
  451MOL0     H62184   3.054  10.672   3.744 -3.3907 -1.3565 -1.4182
  451MOL0     H62185   3.075  10.826   3.979  3.6420  0.8200  1.6503
  451MOL0     H62186   3.105  10.669   4.058 -2.5644 -0.6467  0.1952
  451MOL0     H62187   3.238  10.866   3.741  1.2779 -1.3219 -2.4736
  451MOL0     H62188   3.611  10.783   3.685 -0.2391 -0.1884 -2.6919
  451MOL0     H62189   3.500  10.917   3.740 -2.1599 -0.6282  2.7539
  451MOL0     H62190   3.452  10.741   3.500  1.3246  2.5715 -4.2505
  451MOL0     H62191   3.357  10.877   3.543 -0.3174 -2.4231 -1.3009
  451MOL0     H62192   3.558  11.026   3.526 -2.0091 -0.4549  0.0874
  451MOL0     H62193   3.655  10.897   3.502  1.2737  4.0163 -1.0444
  451MOL0     H62194   3.445  10.986   3.290 -0.4871  1.2209  0.0797
  451MOL0     H62195   3.624  11.012   3.286  0.4180 -1.4759 -2.8627
  451MOL0     H62196   3.569  10.588   3.208  1.1445  2.2030 -3.5836
  451MOL0     H62197   3.795  10.332   3.249  0.3717  1.2088  2.2928
  451MOL0     H62198   3.834  10.388   3.088  0.2384 -1.5833  0.2360
  451MOL0     H62199   3.668  10.400   3.127 -0.1732 -1.2834  2.4173
  451MOL0     H62200   4.172  10.530   3.582 -0.2520 -0.8545  0.1150
  451MOL0     H62201   4.372  10.421   3.688  5.0632 -1.2426 -0.4839
  451MOL0     H62202   4.668  10.233   3.717  0.8243  2.4156 -0.9457
  451MOL0     H62203   4.547  10.347   3.758 -0.1576  1.4849 -1.1133
  451MOL0     H62204   4.361  10.187   3.718 -0.4694 -0.4639  1.6661
  451MOL0     H62205   4.481  10.070   3.675 -0.4555 -0.9794  0.6911
  451MOL0     H62206   4.422  10.041   3.914 -0.0351  0.2296 -0.0674
  451MOL0     H62207   4.450  10.218   3.933 -0.0567  0.5223  1.7819
  451MOL0     H62208   4.584  10.083   4.053 -1.2607 -2.2989  0.5676
  451MOL0     H62209   4.691  10.174   3.944 -2.0875  1.3711  3.2695
  451MOL0     H62210   4.597   9.894   3.903  1.0213 -0.9644 -1.2959
  451MOL0     H62211   4.664   9.983   3.773  0.3427 -2.8923 -0.3750
  451MOL0     H62212   4.829   9.840   3.868 -1.3768  0.3926  0.9489
  451MOL0     H62213   4.786   9.897   4.038  0.2480  1.9627  2.2148
  451MOL0     H62214   4.884  10.128   3.966  1.7666  0.9643 -0.5620
  451MOL0     H62215   4.940  10.058   3.819  1.7572  0.1574  1.5890
  451MOL0     H62216   5.063   9.875   3.977 -0.2135 -0.1428  0.8692
  451MOL0     H62217   5.040   9.986   4.104  1.1166  1.8156  0.5071
  451MOL0     H62218   4.548  10.363   3.306 -1.1194  2.0106 -3.9139
  451MOL0     H62219   4.380  10.482   3.193 -0.4801  0.7230 -0.1384
  451MOL0     H62220   3.998  10.786   3.343  1.5665  0.5948 -3.2072
  451MOL0     H62221   3.792  10.914   3.331 -0.2265  0.1431 -1.3632
  451MOL0     H62222   2.942   9.900   3.942 -2.2346  1.6227 -0.4720
  451MOL0     H62223   3.000   9.663   3.938  0.2576  3.0220 -0.2134
  451MOL0     H62224   3.085   9.339   4.044 -0.0910 -1.5783  0.5132
  451MOL0     H62225   3.238   9.169   4.004  1.5772  1.5579 -1.3443
  451MOL0     H62226   3.198   8.942   4.062 -0.6854 -3.3391  2.7716
  451MOL0     H62227   3.185   8.795   3.967 -2.5090  1.6423 -0.3485
  451MOL0     H62228   3.399   9.006   3.952  0.7282 -0.0061 -1.1968
  451MOL0     H62229   3.423   8.844   3.885 -1.5610  0.3619 -0.8255
  451MOL0     H62230   3.412   8.925   4.180  0.1238  0.3627 -0.4128
  451MOL0     H62231   3.438   8.748   4.140  0.0235  0.1723  1.5298
  451MOL0     H62232   3.623   8.833   3.991 -2.4741 -3.5135  0.5867
  451MOL0     H62233   3.639   8.806   4.162  0.1731 -1.5385 -1.4404
  451MOL0     H62234   3.739   9.222   4.130  0.5532  0.7693  0.6931
  451MOL0     H62235   2.977   8.986   3.721 -1.6545 -0.3410  0.5351
  451MOL0     H62236   2.726   9.266   3.699  0.5445  1.5030  4.9159
  451MOL0     H62237   2.807   9.123   3.618 -1.0533 -3.0114  0.8741
  451MOL0     H62238   2.707   9.114   3.761 -0.5028 -0.6316 -0.0822
  452MOL0     O62239   5.594   4.421   6.264 -0.7068 -0.5029  0.2040
  452MOL0     C62240   5.608   4.302   6.228  0.2760 -0.4294 -0.0528
  452MOL0     O62241   5.506   4.209   6.223  0.5981  0.0313  0.1610
  452MOL0     C62242   5.400   4.256   6.292  0.6872  0.7940  0.5092
  452MOL0     C62243   5.310   4.346   6.228  0.1003 -0.0931  0.4850
  452MOL0     C62244   5.211   4.386   6.307  0.1393  0.3457  0.7547
  452MOL0     C62245   5.181   4.329   6.434 -0.3613 -0.7094  0.1466
  452MOL0     O62246   5.066   4.364   6.501 -0.4841 -0.0124 -0.0730
  452MOL0     C62247   5.048   4.497   6.549  0.6969  0.1657  0.2547
  452MOL0     C62248   5.121   4.519   6.674  0.5153  0.1464 -0.1811
  452MOL0     C62249   5.058   4.451   6.787  0.1205  0.3965 -0.7332
  452MOL0     C62250   5.094   4.495   6.928 -0.7519 -0.4614 -0.3174
  452MOL0     C62251   5.245   4.515   6.949 -0.6681  0.0650 -0.8295
  452MOL0     C62252   5.314   4.406   7.040  0.1401  0.1541 -0.4199
  452MOL0     C62253   5.456   4.452   7.065 -0.0151 -0.0939 -0.7567
  452MOL0     C62254   5.546   4.435   6.940  1.1325  0.9232  0.3616
  452MOL0     N62255   5.558   4.293   6.903 -0.2008  0.0127  0.2186
  452MOL0     C62256   5.484   4.231   6.803  1.0685  0.6499  0.0346
  452MOL0     C62257   5.466   4.106   6.844 -0.0716  0.2293 -0.0801
  452MOL0     C62258   5.369   4.007   6.790  0.4773 -0.1555 -0.5048
  452MOL0     C62259   5.225   4.029   6.820  0.1562 -0.5593 -0.5017
  452MOL0     C62260   5.199   4.026   6.977 -0.9664  0.8716  0.4059
  452MOL0     C62261   5.218   3.887   7.037  0.8729  0.6335  0.3376
  452MOL0     O62262   5.194   3.884   7.176 -0.0768 -0.0110  0.0921
  452MOL0     C62263   5.292   3.912   7.268 -0.8760 -0.2182  0.2133
  452MOL0     C62264   5.429   3.926   7.241  0.0273  0.0724  0.3603
  452MOL0     C62265   5.524   3.955   7.351 -0.2134  0.0877 -0.1724
  452MOL0     C62266   5.657   3.990   7.315  0.4409  0.3435 -0.2240
  452MOL0     C62267   5.476   3.941   7.484 -0.4810 -0.0072  0.3222
  452MOL0     C62268   5.558   3.963   7.609  0.0161  0.3676 -0.2632
  452MOL0     O62269   5.493   3.974   7.727 -0.0617 -0.3772 -0.8703
  452MOL0     C62270   5.572   4.010   7.828  0.6261 -0.3078 -0.0588
  452MOL0     C62271   5.609   4.143   7.860 -0.8706 -0.6977  0.0771
  452MOL0     C62272   5.689   4.175   7.973 -0.3847 -0.6916  1.1220
  452MOL0     C62273   5.731   4.077   8.060 -0.4663 -0.3064 -0.9175
  452MOL0     O62274   5.803   4.114   8.172  0.2940  0.2092  0.0483
  452MOL0     C62275   5.733   4.187   8.279 -0.4422  0.0836 -0.0460
  452MOL0     C62276   5.673   4.104   8.387 -1.3240 -0.4927  0.9969
  452MOL0     C62277   5.786   4.023   8.453  0.1377  0.2637  0.1959
  452MOL0     C62278   5.710   3.933   8.559 -0.2619  1.0266 -0.4629
  452MOL0     C62279   5.815   3.880   8.653  0.9430  0.2256 -0.6751
  452MOL0     C62280   5.811   3.967   8.778  0.3553  0.2696  0.0541
  452MOL0     C62281   5.939   3.933   8.867  0.3293  0.0887  0.7524
  452MOL0     C62282   5.928   4.025   8.997 -0.6772 -0.4082  0.0173
  452MOL0    Cl62283   5.981   4.194   8.960  0.5163  0.2477  0.2070
  452MOL0     C62284   5.700   3.947   8.036  0.5409 -0.1536  0.3695
  452MOL0     C62285   5.630   3.916   7.921 -0.5130  0.2547  0.7110
  452MOL0     O62286   5.674   3.976   7.593  0.5035  0.2452  0.5115
  452MOL0     C62287   5.346   3.904   7.505  0.5351  0.2489  1.0363
  452MOL0     C62288   5.256   3.895   7.399 -0.0355 -1.0568 -0.1412
  452MOL0     N62289   5.548   4.086   6.957  0.3246  0.4381 -0.3371
  452MOL0     N62290   5.599   4.198   6.988 -0.8185 -0.1301  0.0410
  452MOL0     C62291   5.272   4.250   6.493  1.1004  0.7223  0.0994
  452MOL0     C62292   5.377   4.206   6.421  0.2041  0.3406 -0.0508
  452MOL0     C62293   5.738   4.257   6.172 -0.4457 -0.5250  0.1934
  452MOL0     C62294   5.741   4.148   6.082 -0.4365 -0.8111  0.3065
  452MOL0     C62295   5.864   4.107   6.024  0.3886 -0.6221  0.6389
  452MOL0     C62296   5.989   4.161   6.064  0.4805 -0.8608 -0.0753
  452MOL0     O62297   6.116   4.129   6.025  0.5151 -0.5122 -0.0247
  452MOL0     C62298   6.166   4.018   6.098 -0.4553 -0.9909 -0.6581
  452MOL0     C62299   6.156   3.874   6.047  0.3409  0.8842 -0.4800
  452MOL0     C62300   6.199   3.859   5.898  0.3909  0.3646 -1.0788
  452MOL0     C62301   6.345   3.877   5.870 -0.3500  0.7507  0.9482
  452MOL0     C62302   6.360   3.882   5.722  0.0618  1.2752 -0.4903
  452MOL0     C62303   6.358   3.859   5.605  0.0098  0.1537 -0.1318
  452MOL0     C62304   5.979   4.260   6.173 -0.2127  1.0258  0.0385
  452MOL0     C62305   5.861   4.311   6.221 -0.4026  0.5662 -0.9562
  452MOL0     C62306   5.890   4.442   6.303  0.6208 -0.2736 -0.9893
  452MOL0     H62307   5.329   4.401   6.136 -0.4044  1.4863  1.2855
  452MOL0     H62308   5.151   4.471   6.275 -3.0604 -1.7575  0.7366
  452MOL0     H62309   4.939   4.502   6.561  0.4065 -2.9571 -0.1727
  452MOL0     H62310   5.070   4.583   6.485 -2.7680  0.1399 -1.2066
  452MOL0     H62311   5.221   4.475   6.672  0.0620 -0.8918 -0.4100
  452MOL0     H62312   5.119   4.623   6.707  3.6440  0.1438  0.3293
  452MOL0     H62313   4.949   4.454   6.778  0.0053  0.9908  0.5815
  452MOL0     H62314   5.080   4.346   6.770 -0.8235  0.0405  0.1429
  452MOL0     H62315   5.050   4.595   6.936  0.1353 -0.1405  0.7846
  452MOL0     H62316   5.047   4.427   7.001  1.2752 -0.6915  0.8554
  452MOL0     H62317   5.248   4.610   7.003  1.4362  0.7163 -1.9803
  452MOL0     H62318   5.305   4.522   6.858  0.5759  0.1002 -0.0330
  452MOL0     H62319   5.253   4.397   7.130 -1.1022  1.1851 -1.1438
  452MOL0     H62320   5.329   4.304   7.002  1.8306  0.4377 -0.5984
  452MOL0     H62321   5.499   4.390   7.145 -3.2152 -1.3706  0.1063
  452MOL0     H62322   5.460   4.553   7.107  3.3742 -1.2915  2.3513
  452MOL0     H62323   5.497   4.479   6.853  1.0783  0.0482 -0.0667
  452MOL0     H62324   5.650   4.467   6.946  1.8663 -1.3557  0.8263
  452MOL0     H62325   5.435   4.266   6.713 -1.1003 -2.2199 -0.0538
  452MOL0     H62326   5.405   3.913   6.833  0.4651  0.3369  0.6407
  452MOL0     H62327   5.372   4.006   6.681 -0.7987  3.6903 -0.7390
  452MOL0     H62328   5.193   4.128   6.788 -6.0047 -0.9444  2.8541
  452MOL0     H62329   5.164   3.962   6.759 -0.9349 -0.2827  0.2627
  452MOL0     H62330   5.270   4.093   7.026  2.1927 -1.2711 -0.9719
  452MOL0     H62331   5.097   4.062   6.998 -1.4232 -0.5207  0.6832
  452MOL0     H62332   5.145   3.812   7.004  0.9037 -0.4680  2.5434
  452MOL0     H62333   5.314   3.843   7.009 -0.6601 -1.1370 -2.6449
  452MOL0     H62334   5.466   3.931   7.139  1.4138  0.3302  0.8513
  452MOL0     H62335   5.673   3.984   7.207  1.5456  0.0009 -0.0574
  452MOL0     H62336   5.726   3.913   7.351  1.2397  1.6677  1.2185
  452MOL0     H62337   5.688   4.086   7.357  1.5894  0.0091 -0.2645
  452MOL0     H62338   5.592   4.242   7.819  1.8446  1.1437  2.9444
  452MOL0     H62339   5.711   4.281   7.971  0.8063 -0.9294 -1.0357
  452MOL0     H62340   5.808   4.256   8.321  0.2278 -1.5619  1.5811
  452MOL0     H62341   5.648   4.236   8.230 -1.0925 -0.1053  0.8537
  452MOL0     H62342   5.629   4.173   8.459  2.8773  0.2178  3.1703
  452MOL0     H62343   5.595   4.039   8.345  0.1553 -1.6801 -0.0065
  452MOL0     H62344   5.856   4.078   8.517  2.3380 -0.9370 -1.0558
  452MOL0     H62345   5.848   3.964   8.385 -0.0322 -0.5951  0.7835
  452MOL0     H62346   5.667   3.853   8.497  3.7172 -0.5053 -1.6093
  452MOL0     H62347   5.635   3.994   8.609  0.0590  0.2287  1.0309
  452MOL0     H62348   5.785   3.780   8.687 -0.2887  1.4342  2.1207
  452MOL0     H62349   5.918   3.884   8.617  0.7376  0.3144 -1.2547
  452MOL0     H62350   5.715   3.963   8.831  2.0358 -2.4639  3.2722
  452MOL0     H62351   5.831   4.071   8.750  1.2713  0.4421  1.2874
  452MOL0     H62352   6.031   3.952   8.811 -0.5515 -2.4659 -1.7591
  452MOL0     H62353   5.947   3.828   8.898  3.3376  1.0023  3.7470
  452MOL0     H62354   5.999   3.989   9.072 -0.7949 -0.4775  0.0967
  452MOL0     H62355   5.823   4.023   9.030 -2.0635  0.3341 -3.7452
  452MOL0     H62356   5.739   3.877   8.109  1.2977 -1.0286 -0.8294
  452MOL0     H62357   5.608   3.810   7.918  1.7238 -0.2549  0.2868
  452MOL0     H62358   5.311   3.874   7.604 -0.5986 -2.9868 -0.1944
  452MOL0     H62359   5.150   3.876   7.413 -1.2488  4.1894  0.0564
  452MOL0     H62360   5.250   4.216   6.594 -0.2563  1.8708  0.2187
  452MOL0     H62361   5.447   4.135   6.466 -0.6410 -1.1464 -1.0104
  452MOL0     H62362   5.653   4.100   6.042 -2.0793 -0.8664  3.5968
  452MOL0     H62363   5.872   4.045   5.936 -1.7177 -0.3657  0.2348
  452MOL0     H62364   6.273   4.037   6.110 -0.0689 -3.3296  0.0254
  452MOL0     H62365   6.123   4.017   6.199  1.5830  1.6339  0.3538
  452MOL0     H62366   6.052   3.842   6.059  0.8834 -0.3374  1.3882
  452MOL0     H62367   6.218   3.808   6.108  1.9902  0.2830 -2.6508
  452MOL0     H62368   6.175   3.757   5.866 -1.0506  0.7079 -1.1433
  452MOL0     H62369   6.140   3.929   5.838  0.2710  0.3544 -0.9723
  452MOL0     H62370   6.400   3.794   5.915 -3.7699 -1.4178  1.4927
  452MOL0     H62371   6.371   3.975   5.911  0.6770  1.6657 -1.7018
  452MOL0     H62372   6.362   3.837   5.500  0.6122 -0.9751  0.1041
  452MOL0     H62373   6.068   4.306   6.215 -0.2279  1.5692 -0.5143
  452MOL0     H62374   5.844   4.532   6.259  0.0692 -0.3781 -0.6376
  452MOL0     H62375   5.856   4.430   6.406  2.1135  0.3659 -0.3933
  452MOL0     H62376   5.998   4.456   6.301  0.7256 -0.7573  0.2472
  453MOL0     O62377   9.242   3.129   5.297 -0.3121 -0.2418 -0.4769
  453MOL0     C62378   9.270   3.169   5.411  0.0777  0.1381  0.6129
  453MOL0     O62379   9.187   3.226   5.497  0.0621  0.0787  0.4303
  453MOL0     C62380   9.056   3.237   5.459  0.0067  0.7973  0.5964
  453MOL0     C62381   8.974   3.125   5.477 -0.1952 -0.0991  0.1688
  453MOL0     C62382   8.837   3.134   5.447  0.9369 -0.1997  0.2464
  453MOL0     C62383   8.779   3.252   5.392 -0.6769 -0.3139 -0.5770
  453MOL0     O62384   8.650   3.254   5.349 -0.4304 -0.1035  0.5931
  453MOL0     C62385   8.628   3.165   5.232  0.2964  0.8318 -0.9855
  453MOL0     C62386   8.535   3.052   5.275  0.3348  0.0575  0.8850
  453MOL0     C62387   8.459   3.003   5.157  1.3156  0.2523  0.4180
  453MOL0     C62388   8.325   3.082   5.130  1.1893 -0.1913 -0.5460
  453MOL0     C62389   8.201   3.052   5.218  0.4357  0.6471 -0.4726
  453MOL0     C62390   8.122   2.920   5.177  0.2635 -0.4100 -0.8462
  453MOL0     C62391   7.999   2.912   5.278 -0.4869  0.2278  0.0550
  453MOL0     C62392   7.861   2.880   5.215  0.6310 -0.3824 -0.0971
  453MOL0     N62393   7.761   2.954   5.293 -0.0909  0.3484 -0.2111
  453MOL0     C62394   7.707   3.078   5.279  0.4939 -0.6946  0.0230
  453MOL0     C62395   7.620   3.090   5.382 -0.0253  0.2443  0.3969
  453MOL0     C62396   7.563   3.216   5.424 -0.3474 -0.3800  0.2455
  453MOL0     C62397   7.421   3.215   5.380 -0.1275  0.5905 -0.2274
  453MOL0     C62398   7.337   3.126   5.480 -1.1204 -0.4142  0.4743
  453MOL0     C62399   7.193   3.113   5.436 -0.5142 -0.2517 -0.5461
  453MOL0     O62400   7.142   3.248   5.407  0.0023 -0.3914 -0.0789
  453MOL0     C62401   7.005   3.278   5.396  0.0245  0.1512 -0.2699
  453MOL0     C62402   6.909   3.178   5.399 -0.5459  0.0528  0.0865
  453MOL0     C62403   6.771   3.189   5.380  0.4358  0.8683 -0.2390
  453MOL0     C62404   6.692   3.059   5.392 -0.1454  0.2154  0.6175
  453MOL0     C62405   6.727   3.312   5.331  1.2047 -0.4962  0.6327
  453MOL0     C62406   6.590   3.330   5.281  0.3275 -0.5993 -0.1506
  453MOL0     O62407   6.566   3.462   5.252 -0.6079  0.4040  0.4022
  453MOL0     C62408   6.441   3.508   5.239  0.0887 -0.2927 -0.0835
  453MOL0     C62409   6.319   3.439   5.232  0.6188  0.1876  0.4372
  453MOL0     C62410   6.193   3.497   5.221 -1.2281 -1.3964 -0.0834
  453MOL0     C62411   6.185   3.638   5.211 -1.0159  0.0227 -0.0840
  453MOL0     O62412   6.067   3.702   5.206  0.4343  1.1207 -0.0248
  453MOL0     C62413   5.947   3.642   5.269  0.0213 -0.4687 -0.9081
  453MOL0     C62414   5.856   3.754   5.321  1.0450  1.2421  1.0026
  453MOL0     C62415   5.894   3.850   5.436 -0.6550  0.3125  0.4333
  453MOL0     C62416   5.852   3.991   5.395 -0.0231  1.0644  0.3200
  453MOL0     C62417   5.872   4.083   5.506  0.8376 -0.0547 -0.3872
  453MOL0     C62418   6.018   4.074   5.571  0.1840 -0.3566 -0.2175
  453MOL0     C62419   6.032   4.206   5.647 -0.2971  0.3700 -0.3741
  453MOL0     C62420   6.085   4.317   5.550 -0.2491 -0.4087 -0.3760
  453MOL0    Cl62421   6.037   4.464   5.622 -0.6678  0.0623 -0.2099
  453MOL0     C62422   6.305   3.707   5.222 -1.0307 -0.9299  0.8137
  453MOL0     C62423   6.434   3.650   5.231  0.3346 -0.6376 -0.2407
  453MOL0     O62424   6.512   3.240   5.261  0.5680  0.1726 -0.3747
  453MOL0     C62425   6.822   3.420   5.320  0.6519  0.3761  0.0488
  453MOL0     C62426   6.951   3.400   5.366 -1.4451 -0.0216 -0.3599
  453MOL0     N62427   7.620   2.968   5.454  0.2059  0.3779  0.0672
  453MOL0     N62428   7.699   2.884   5.393  0.7701 -0.6463  0.2619
  453MOL0     C62429   8.869   3.357   5.374  1.0647  0.0929 -0.2219
  453MOL0     C62430   9.004   3.358   5.410 -0.5651 -0.8707 -0.0511
  453MOL0     C62431   9.413   3.160   5.447 -0.4652  0.8789 -0.3329
  453MOL0     C62432   9.508   3.129   5.347  0.6861 -0.4919  0.1344
  453MOL0     C62433   9.647   3.116   5.376 -0.2519  0.1587 -0.0235
  453MOL0     C62434   9.688   3.128   5.511 -0.1969  0.2301  0.3842
  453MOL0     O62435   9.812   3.109   5.561 -0.5449  1.1209  0.3472
  453MOL0     C62436   9.925   3.128   5.472  0.5480  0.2745 -1.5151
  453MOL0     C62437  10.007   3.249   5.504  0.0377  0.5844  0.1475
  453MOL0     C62438   9.950   3.381   5.442  0.7938  0.6688  0.5850
  453MOL0     C62439   9.978   3.507   5.521 -0.2244  0.2320  0.2136
  453MOL0     C62440  10.120   3.520   5.521  0.3475 -0.9749 -0.1775
  453MOL0     C62441  10.239   3.534   5.501  0.9195 -0.1347 -0.6303
  453MOL0     C62442   9.589   3.154   5.606  0.2450 -0.0958 -0.6270
  453MOL0     C62443   9.455   3.168   5.578  0.2868 -0.0886 -0.1800
  453MOL0     C62444   9.367   3.192   5.701 -0.5520 -0.0313 -0.3453
  453MOL0     H62445   9.018   3.036   5.522  0.1297  0.9936  2.1527
  453MOL0     H62446   8.784   3.046   5.482  0.5504  0.2522  0.7886
  453MOL0     H62447   8.727   3.128   5.202  1.1836  1.0221  1.3986
  453MOL0     H62448   8.582   3.224   5.153 -1.4843 -0.1153 -0.7031
  453MOL0     H62449   8.596   2.974   5.321  1.4374  1.1568  1.3324
  453MOL0     H62450   8.473   3.084   5.359  0.3300  0.4747  0.7248
  453MOL0     H62451   8.519   2.992   5.066 -0.4665 -4.2622 -0.4934
  453MOL0     H62452   8.430   2.898   5.171  2.4985 -0.3466 -1.1936
  453MOL0     H62453   8.338   3.190   5.134 -0.3780 -0.0188  0.9333
  453MOL0     H62454   8.297   3.062   5.026  0.0596 -0.5358 -0.1859
  453MOL0     H62455   8.127   3.131   5.206 -2.4013 -1.6646  0.7049
  453MOL0     H62456   8.225   3.039   5.324 -0.6833  1.2422 -0.1321
  453MOL0     H62457   8.090   2.928   5.073 -1.4512 -0.2169 -0.3331
  453MOL0     H62458   8.199   2.843   5.169  0.0298 -0.4767 -3.4356
  453MOL0     H62459   7.976   3.015   5.308  0.1397  1.4006 -3.0942
  453MOL0     H62460   8.019   2.850   5.366 -0.5207  1.8061  1.2273
  453MOL0     H62461   7.860   2.907   5.109 -0.5898 -0.4357 -0.1189
  453MOL0     H62462   7.847   2.772   5.224 -0.4483 -0.3889 -1.6411
  453MOL0     H62463   7.740   3.144   5.200 -2.6840 -1.8473 -2.5194
  453MOL0     H62464   7.612   3.306   5.387  0.4135 -1.2391 -0.9074
  453MOL0     H62465   7.561   3.232   5.532  0.7108  2.0620 -0.0350
  453MOL0     H62466   7.390   3.319   5.397  3.4670  1.4158  2.5221
  453MOL0     H62467   7.410   3.181   5.277  1.0506 -2.1607  0.4763
  453MOL0     H62468   7.365   3.020   5.472  1.4691  0.3271 -1.8652
  453MOL0     H62469   7.329   3.160   5.583 -0.9480  2.0377 -0.2602
  453MOL0     H62470   7.175   3.050   5.349  1.4616 -0.4332 -0.8701
  453MOL0     H62471   7.130   3.077   5.518 -0.7208  1.2611  0.0043
  453MOL0     H62472   6.951   3.078   5.397  3.0177  1.3943 -0.1474
  453MOL0     H62473   6.755   2.984   5.439  0.3416  1.4931  2.0662
  453MOL0     H62474   6.654   3.018   5.298 -1.5047  0.2790  1.1083
  453MOL0     H62475   6.609   3.084   5.459  0.7128 -0.6304  2.0183
  453MOL0     H62476   6.308   3.333   5.254 -0.1266  0.5315  1.8172
  453MOL0     H62477   6.099   3.444   5.228 -1.9691 -0.2354 -0.8861
  453MOL0     H62478   5.903   3.577   5.192 -0.2992 -0.1516 -0.9924
  453MOL0     H62479   5.972   3.579   5.355  2.5893  0.6215 -0.7786
  453MOL0     H62480   5.852   3.812   5.228 -2.2265 -2.5309 -1.5519
  453MOL0     H62481   5.760   3.704   5.335  1.9799 -0.6452  0.9488
  453MOL0     H62482   6.001   3.832   5.452 -1.0315 -2.6524  0.0477
  453MOL0     H62483   5.837   3.816   5.522 -0.2232 -2.7933 -0.3948
  453MOL0     H62484   5.748   3.995   5.361  0.6181 -1.8415 -2.5483
  453MOL0     H62485   5.912   4.037   5.316  0.2453  1.3938  0.7191
  453MOL0     H62486   5.843   4.188   5.495  1.6472  0.4021  1.4693
  453MOL0     H62487   5.797   4.051   5.579  0.3023  0.4253 -0.7111
  453MOL0     H62488   6.100   4.062   5.499  0.4885  1.1739 -0.1567
  453MOL0     H62489   6.025   3.996   5.647 -0.6776 -0.2150  0.0125
  453MOL0     H62490   6.098   4.192   5.734  1.8028 -1.5547 -2.1556
  453MOL0     H62491   5.934   4.233   5.689  0.5980 -0.0809  2.2189
  453MOL0     H62492   6.049   4.307   5.447  3.1729 -1.5281 -1.6214
  453MOL0     H62493   6.194   4.323   5.538 -0.3354 -0.7267 -1.4350
  453MOL0     H62494   6.307   3.815   5.230  0.2963 -0.5264 -3.0205
  453MOL0     H62495   6.524   3.707   5.255  0.9481 -1.9011  0.5565
  453MOL0     H62496   6.797   3.521   5.291  3.2879  0.7554 -1.1550
  453MOL0     H62497   7.024   3.479   5.384  3.3203 -4.4709  3.0676
  453MOL0     H62498   8.828   3.441   5.318 -0.7259 -0.3187  0.4145
  453MOL0     H62499   9.066   3.444   5.390 -0.5581 -0.3931  1.8865
  453MOL0     H62500   9.489   3.134   5.240  1.8099 -1.9847 -0.1733
  453MOL0     H62501   9.725   3.100   5.302  1.4486 -2.7656  2.1822
  453MOL0     H62502   9.990   3.045   5.499  2.7094  2.3182 -0.0068
  453MOL0     H62503   9.916   3.122   5.363  2.1519  0.9586 -1.7136
  453MOL0     H62504  10.107   3.241   5.461 -0.4019 -3.2041 -0.5863
  453MOL0     H62505  10.012   3.238   5.612  0.2028 -2.9349 -0.0875
  453MOL0     H62506   9.978   3.393   5.337 -1.9240  1.2137 -0.1496
  453MOL0     H62507   9.841   3.373   5.451  0.9961 -0.7912  2.3266
  453MOL0     H62508   9.930   3.501   5.619  2.8279  0.8107  1.9002
  453MOL0     H62509   9.931   3.595   5.478 -0.7265 -0.3019 -0.3496
  453MOL0     H62510  10.344   3.546   5.484  0.8935  2.2491  0.5978
  453MOL0     H62511   9.630   3.172   5.705 -0.6901 -0.0649 -0.2332
  453MOL0     H62512   9.279   3.128   5.690 -0.3870 -0.7897  2.0985
  453MOL0     H62513   9.424   3.160   5.789 -0.6772  2.2625  0.6305
  453MOL0     H62514   9.350   3.299   5.713 -0.7923  0.1326 -1.9193
  454MOL0     O62515   1.111   8.420   0.471 -0.3595  0.5107 -0.3388
  454MOL0     C62516   1.133   8.436   0.594 -0.1957  0.8888  0.7867
  454MOL0     O62517   1.248   8.401   0.658 -0.4964 -0.7219  0.5255
  454MOL0     C62518   1.343   8.341   0.576 -0.6855 -0.5679  0.1107
  454MOL0     C62519   1.445   8.416   0.523 -0.2692 -0.0819  0.1775
  454MOL0     C62520   1.543   8.365   0.441  0.1937 -0.5569 -0.1063
  454MOL0     C62521   1.552   8.228   0.413  0.6028  0.1183  0.8700
  454MOL0     O62522   1.661   8.184   0.341 -0.1053 -0.4311 -0.3355
  454MOL0     C62523   1.649   8.055   0.299 -0.0624  0.8230 -0.1342
  454MOL0     C62524   1.753   8.018   0.191  0.8631 -0.1571  0.1064
  454MOL0     C62525   1.893   8.002   0.239  0.6769 -0.0117  0.6030
  454MOL0     C62526   1.974   7.974   0.118 -0.7996 -0.2075  0.0359
  454MOL0     C62527   2.034   8.098   0.065  0.8403  0.7565  0.2124
  454MOL0     C62528   2.120   8.070  -0.061 -0.8552  0.0190 -0.3589
  454MOL0     C62529   2.189   8.198  -0.097 -0.0498 -0.4123  0.1753
  454MOL0     C62530   2.258   8.180  -0.231 -0.3449  0.9076  0.0223
  454MOL0     N62531   2.365   8.076  -0.228 -0.8707 -0.8731 -0.7422
  454MOL0     C62532   2.363   7.957  -0.290 -1.0295  0.1326  0.4350
  454MOL0     C62533   2.496   7.908  -0.289  0.4100 -0.6476 -0.0174
  454MOL0     C62534   2.533   7.771  -0.339  0.1680 -0.0526 -0.4339
  454MOL0     C62535   2.486   7.667  -0.235  0.2511  0.0357 -0.2723
  454MOL0     C62536   2.559   7.535  -0.249 -0.5250 -0.1713  0.0904
  454MOL0     C62537   2.490   7.405  -0.188  0.0313  0.2186  0.5179
  454MOL0     O62538   2.569   7.283  -0.202  0.3787 -0.7015  0.1757
  454MOL0     C62539   2.509   7.162  -0.174  0.0458 -0.3746  0.6242
  454MOL0     C62540   2.604   7.060  -0.173  0.2755  0.2620  0.8304
  454MOL0     C62541   2.572   6.919  -0.156  0.9512 -0.7010 -0.7014
  454MOL0     C62542   2.672   6.811  -0.171  0.0304  0.3958  0.5484
  454MOL0     C62543   2.436   6.883  -0.138  0.5497  0.2076 -0.2669
  454MOL0     C62544   2.382   6.738  -0.125 -0.3244 -0.7867 -0.1357
  454MOL0     O62545   2.281   6.711  -0.029  0.6511  0.5532  0.3337
  454MOL0     C62546   2.272   6.583   0.022 -0.0906  0.5107 -0.0262
  454MOL0     C62547   2.144   6.538   0.054  0.1567  0.0674  0.4087
  454MOL0     C62548   2.128   6.417   0.123  0.5180 -0.6477  0.7009
  454MOL0     C62549   2.234   6.343   0.165 -0.0131 -0.1218  0.5576
  454MOL0     O62550   2.201   6.218   0.227  1.2520  0.0651  0.5946
  454MOL0     C62551   2.297   6.173   0.318 -0.2484  0.1404 -0.0322
  454MOL0     C62552   2.241   6.045   0.369  0.6097  0.1614  0.1606
  454MOL0     C62553   2.122   6.048   0.478 -0.7104 -0.6365  1.1736
  454MOL0     C62554   2.105   5.921   0.544  0.5625  0.2584 -0.0736
  454MOL0     C62555   1.990   5.928   0.638 -0.7027  0.2223 -0.6938
  454MOL0     C62556   1.975   5.787   0.699  0.0868 -0.0598 -0.0174
  454MOL0     C62557   1.868   5.799   0.796 -0.0339  0.0691  0.2919
  454MOL0     C62558   1.788   5.670   0.828  0.5067  0.2814  0.1166
  454MOL0    Cl62559   1.670   5.690   0.961 -0.1968 -0.3036  0.1627
  454MOL0     C62560   2.364   6.387   0.123 -0.3457 -0.0291  0.0256
  454MOL0     C62561   2.380   6.506   0.067 -0.4570  0.5778 -0.4377
  454MOL0     O62562   2.421   6.653  -0.204 -0.0477  0.1392 -0.6926
  454MOL0     C62563   2.343   6.999  -0.131  0.5405  0.0879 -0.2291
  454MOL0     C62564   2.384   7.137  -0.141 -0.7665  0.2103  0.3728
  454MOL0     N62565   2.580   8.004  -0.223 -0.0814  0.4037  0.0752
  454MOL0     N62566   2.495   8.100  -0.185 -0.5198  0.7657 -0.5180
  454MOL0     C62567   1.459   8.148   0.479 -0.4789 -0.3067 -0.3841
  454MOL0     C62568   1.349   8.201   0.549 -0.3662 -0.1429 -0.9758
  454MOL0     C62569   1.041   8.529   0.677  1.0067  0.1853 -0.1857
  454MOL0     C62570   0.952   8.617   0.618 -0.3473  0.4663 -0.7044
  454MOL0     C62571   0.873   8.703   0.692 -0.9643  0.7508 -0.7066
  454MOL0     C62572   0.865   8.701   0.831  0.8871  0.0278 -0.2000
  454MOL0     O62573   0.790   8.783   0.908  0.1255 -0.6052 -0.3669
  454MOL0     C62574   0.688   8.864   0.853 -0.4597  0.5261 -0.0022
  454MOL0     C62575   0.750   8.978   0.774 -0.0478  0.6343 -0.1689
  454MOL0     C62576   0.642   9.047   0.688  0.6017  0.1637 -0.7964
  454MOL0     C62577   0.574   8.973   0.575 -1.0399  0.0764 -0.2301
  454MOL0     C62578   0.678   8.946   0.471 -0.3225  0.2400  0.2043
  454MOL0     C62579   0.750   8.909   0.375  0.0083 -0.8195 -0.4959
  454MOL0     C62580   0.965   8.625   0.895  0.7619  0.4399 -0.2273
  454MOL0     C62581   1.050   8.542   0.818  0.8389  0.1668  0.7719
  454MOL0     C62582   1.128   8.449   0.906 -0.2275 -0.8089  0.3235
  454MOL0     H62583   1.440   8.523   0.539 -0.8847 -0.3235  1.8493
  454MOL0     H62584   1.620   8.424   0.392  1.1294 -3.1422 -1.9193
  454MOL0     H62585   1.551   8.054   0.250  0.5832  2.7775 -1.5740
  454MOL0     H62586   1.661   7.982   0.379  1.1372 -0.4977 -1.4423
  454MOL0     H62587   1.711   7.927   0.148 -1.2383 -0.0787  1.8114
  454MOL0     H62588   1.754   8.098   0.116 -0.5796 -0.2104  0.0055
  454MOL0     H62589   1.937   8.084   0.298  3.4706 -2.1320  1.6759
  454MOL0     H62590   1.892   7.907   0.294 -0.6807 -1.0361 -1.0957
  454MOL0     H62591   2.054   7.900   0.128 -1.1785 -0.4525  1.5360
  454MOL0     H62592   1.907   7.917   0.053 -0.9937 -2.6294  2.1927
  454MOL0     H62593   2.095   8.135   0.148 -0.8461  0.9022  1.4362
  454MOL0     H62594   1.955   8.173   0.056  0.9082  0.7196 -0.8425
  454MOL0     H62595   2.194   7.990  -0.048  0.4959  1.3281  0.2380
  454MOL0     H62596   2.059   8.034  -0.144  1.2516  3.0143 -3.4575
  454MOL0     H62597   2.256   8.221  -0.013 -0.6441 -0.5871  0.7042
  454MOL0     H62598   2.109   8.272  -0.099  0.8372  0.8065  3.2590
  454MOL0     H62599   2.176   8.162  -0.300 -1.3659 -1.9175  1.8322
  454MOL0     H62600   2.313   8.269  -0.265  0.7536  0.1839 -0.1278
  454MOL0     H62601   2.288   7.906  -0.351  0.2655 -0.8143 -0.4116
  454MOL0     H62602   2.642   7.771  -0.349  0.2218 -0.1137  0.1288
  454MOL0     H62603   2.475   7.763  -0.432  0.1019  1.3224 -0.5197
  454MOL0     H62604   2.512   7.710  -0.138 -2.1163 -2.9044  1.8128
  454MOL0     H62605   2.380   7.652  -0.253  0.3777  0.7948 -1.8216
  454MOL0     H62606   2.560   7.511  -0.356  0.4231 -2.6123  0.5830
  454MOL0     H62607   2.665   7.540  -0.222  0.7586 -3.1294 -3.4186
  454MOL0     H62608   2.469   7.422  -0.082  0.7759  3.0850  0.2723
  454MOL0     H62609   2.391   7.394  -0.233  1.0789 -1.6973 -1.5037
  454MOL0     H62610   2.705   7.099  -0.175  0.2342  0.5456  2.7616
  454MOL0     H62611   2.771   6.857  -0.164 -0.1537  0.5504  3.3742
  454MOL0     H62612   2.668   6.756  -0.266 -0.2270  0.7070  0.3782
  454MOL0     H62613   2.664   6.741  -0.086  4.3758 -1.4429 -0.2912
  454MOL0     H62614   2.063   6.593   0.008  1.2306  1.5426  0.1926
  454MOL0     H62615   2.024   6.388   0.138  0.9171 -1.8601  1.2789
  454MOL0     H62616   2.395   6.160   0.272 -0.4786  0.6577 -0.6842
  454MOL0     H62617   2.307   6.237   0.407 -1.1814 -0.4605  0.5238
  454MOL0     H62618   2.219   5.976   0.287 -0.0171 -1.1395  1.3929
  454MOL0     H62619   2.314   6.003   0.438 -1.7236 -4.0328  0.3708
  454MOL0     H62620   2.031   6.084   0.430  0.4735  0.1299 -0.6070
  454MOL0     H62621   2.144   6.127   0.551 -1.4473 -0.1617  0.8918
  454MOL0     H62622   2.200   5.911   0.596  0.2715 -2.7959  0.0339
  454MOL0     H62623   2.100   5.847   0.463 -3.2470  1.5101 -1.2283
  454MOL0     H62624   2.013   6.001   0.716  0.0400 -1.6772  0.9464
  454MOL0     H62625   1.902   5.952   0.578 -1.0351  1.5185  0.2523
  454MOL0     H62626   2.065   5.744   0.744  0.6722  1.9624  0.8478
  454MOL0     H62627   1.936   5.717   0.624 -0.5949  2.5957 -2.2981
  454MOL0     H62628   1.801   5.883   0.774  0.2995 -0.0395 -1.2584
  454MOL0     H62629   1.920   5.841   0.883 -2.4701  3.4550  0.3146
  454MOL0     H62630   1.854   5.585   0.846  2.8422  2.2439  1.4855
  454MOL0     H62631   1.731   5.649   0.737 -2.4477  3.7520  0.9381
  454MOL0     H62632   2.443   6.316   0.145 -2.4559 -2.8903 -1.0205
  454MOL0     H62633   2.473   6.561   0.058 -0.2797  0.0451 -2.2494
  454MOL0     H62634   2.235   6.986  -0.128  0.5999 -1.4325 -2.2312
  454MOL0     H62635   2.300   7.205  -0.135  0.4406  1.7869  0.0803
  454MOL0     H62636   1.459   8.042   0.453  1.3629 -0.5453  0.5091
  454MOL0     H62637   1.273   8.129   0.577  0.5938 -0.7852  0.1285
  454MOL0     H62638   0.961   8.628   0.511  0.7291  2.7528 -0.4305
  454MOL0     H62639   0.796   8.747   0.630 -0.5767 -2.7341 -3.9931
  454MOL0     H62640   0.622   8.810   0.785  1.8263 -0.6219 -1.4435
  454MOL0     H62641   0.626   8.907   0.933 -1.1482  0.9500 -0.7543
  454MOL0     H62642   0.841   8.959   0.716 -1.4611  1.4468 -2.7877
  454MOL0     H62643   0.790   9.050   0.847  1.7798  0.1442 -0.6160
  454MOL0     H62644   0.552   9.067   0.746  0.7029  0.2390 -0.6635
  454MOL0     H62645   0.689   9.139   0.649  2.4404  0.2046  1.3124
  454MOL0     H62646   0.490   9.032   0.537  2.2286  2.6803 -4.2952
  454MOL0     H62647   0.528   8.884   0.618 -1.8670  1.1809  1.3063
  454MOL0     H62648   0.780   8.875   0.278 -2.5614  0.7853 -1.9620
  454MOL0     H62649   0.974   8.629   1.003  1.7569 -1.0704 -0.2219
  454MOL0     H62650   1.230   8.488   0.915  0.2404 -2.3070  2.2654
  454MOL0     H62651   1.087   8.433   1.007 -1.0426  0.0035  0.1375
  454MOL0     H62652   1.133   8.349   0.863 -3.1479 -0.8712 -0.0283
  455MOL0     O62653   9.222   4.202   8.706  0.1148  0.1481 -0.3259
  455MOL0     C62654   9.299   4.225   8.611  1.1234  0.0473 -0.1193
  455MOL0     O62655   9.293   4.146   8.491  0.0644  0.1533 -0.8351
  455MOL0     C62656   9.183   4.071   8.464 -0.2341  0.1635  0.0802
  455MOL0     C62657   9.054   4.129   8.474 -1.1095 -0.4922 -0.5272
  455MOL0     C62658   8.939   4.047   8.458 -0.1665 -0.6914  1.0729
  455MOL0     C62659   8.956   3.915   8.419  1.2625 -0.3198  0.2934
  455MOL0     O62660   8.849   3.846   8.381  0.1183 -0.1492  0.1485
  455MOL0     C62661   8.713   3.900   8.369 -0.1448  0.2349 -0.3020
  455MOL0     C62662   8.615   3.789   8.336  0.3496  0.2346 -0.1697
  455MOL0     C62663   8.468   3.813   8.334  0.0255  0.1481 -0.2936
  455MOL0     C62664   8.435   3.948   8.266  0.9083  0.3708  0.2291
  455MOL0     C62665   8.288   3.955   8.212  1.0904 -0.4033 -0.0838
  455MOL0     C62666   8.246   3.844   8.109  0.0439  0.3251  0.2338
  455MOL0     C62667   8.313   3.861   7.975  0.4415 -0.1325  0.4483
  455MOL0     C62668   8.266   3.758   7.870  1.4695  0.6366 -0.3771
  455MOL0     N62669   8.316   3.622   7.881 -0.3347 -0.1060  1.3622
  455MOL0     C62670   8.419   3.583   7.963 -0.2317  0.0384 -0.5280
  455MOL0     C62671   8.414   3.448   7.976  0.1768  0.5724 -1.2343
  455MOL0     C62672   8.505   3.345   8.046  1.0448 -0.4202 -0.4936
  455MOL0     C62673   8.543   3.392   8.189 -0.0706  0.9658  0.6490
  455MOL0     C62674   8.426   3.428   8.281 -0.6755 -1.1004  0.0681
  455MOL0     C62675   8.333   3.316   8.314 -0.1185 -0.4290 -0.2877
  455MOL0     O62676   8.225   3.380   8.389  0.0737 -0.4178 -0.3907
  455MOL0     C62677   8.125   3.434   8.321  0.5725 -1.1625 -0.6530
  455MOL0     C62678   8.027   3.506   8.388 -0.5243  0.0691  0.8788
  455MOL0     C62679   7.935   3.596   8.321 -0.5365 -0.1628  0.3854
  455MOL0     C62680   7.848   3.681   8.416 -0.2544 -0.5537 -0.1968
  455MOL0     C62681   7.932   3.608   8.187  0.4571  0.6253 -0.3583
  455MOL0     C62682   7.843   3.697   8.109  1.0417 -0.5377 -0.5839
  455MOL0     O62683   7.710   3.717   8.157  0.4949 -0.3477  0.1193
  455MOL0     C62684   7.620   3.789   8.076 -0.2880 -0.8098  0.2034
  455MOL0     C62685   7.623   3.792   7.937  0.3664  0.2163  0.3433
  455MOL0     C62686   7.552   3.893   7.869 -0.1118  0.6834  1.3209
  455MOL0     C62687   7.465   3.989   7.943 -0.3487 -0.1361  0.1998
  455MOL0     O62688   7.381   4.080   7.877  0.6319 -0.5069 -1.2909
  455MOL0     C62689   7.333   4.043   7.749  0.2716 -0.0825 -0.1249
  455MOL0     C62690   7.201   4.119   7.731 -0.1852  0.7288 -0.0829
  455MOL0     C62691   7.127   4.096   7.598 -0.2796  0.4691 -1.2707
  455MOL0     C62692   6.988   4.163   7.621 -0.0335  0.3804  0.0013
  455MOL0     C62693   6.913   4.210   7.501 -0.1595 -0.0657  0.8928
  455MOL0     C62694   6.845   4.094   7.424  0.0429 -0.9044 -0.1953
  455MOL0     C62695   6.804   4.121   7.278 -0.5184  0.1833 -0.3586
  455MOL0     C62696   6.702   4.010   7.236 -0.7658  0.5146  0.3246
  455MOL0    Cl62697   6.589   3.966   7.371 -0.1953  0.3301  0.6332
  455MOL0     C62698   7.463   3.988   8.078  0.1616  0.5962  0.1187
  455MOL0     C62699   7.545   3.888   8.143 -0.7765  0.2296 -0.0283
  455MOL0     O62700   7.890   3.741   8.005 -1.1337  0.1428  0.3157
  455MOL0     C62701   8.023   3.523   8.125  0.0224 -0.4007  0.5610
  455MOL0     C62702   8.118   3.446   8.189  0.0696 -1.3200 -0.7973
  455MOL0     N62703   8.302   3.417   7.904  0.1402 -0.4682  0.2667
  455MOL0     N62704   8.242   3.515   7.842 -0.7770  0.2401  1.0354
  455MOL0     C62705   9.083   3.859   8.394 -0.1146  0.5764  0.0275
  455MOL0     C62706   9.194   3.937   8.415  0.6801  0.2969  0.0683
  455MOL0     C62707   9.386   4.342   8.606 -0.2509  0.4233 -0.3977
  455MOL0     C62708   9.457   4.373   8.485 -1.2403 -1.0205  0.0242
  455MOL0     C62709   9.521   4.497   8.470 -0.8160  0.3709  0.3033
  455MOL0     C62710   9.528   4.592   8.572 -0.5918 -0.2556  0.1292
  455MOL0     O62711   9.589   4.716   8.552 -0.8490  0.5237  0.4072
  455MOL0     C62712   9.601   4.799   8.672 -0.2360 -0.1621  0.0723
  455MOL0     C62713   9.663   4.923   8.623 -0.6181  0.6510  0.6923
  455MOL0     C62714   9.641   5.020   8.740  0.2113  0.2322  0.0659
  455MOL0     C62715   9.697   5.163   8.709 -0.4528  0.7530  0.0025
  455MOL0     C62716   9.639   5.230   8.600 -0.4988 -0.2707  0.2664
  455MOL0     C62717   9.608   5.294   8.502 -0.9534  0.4185 -0.6126
  455MOL0     C62718   9.468   4.547   8.702 -0.1055 -0.6326 -0.4157
  455MOL0     C62719   9.410   4.425   8.718  0.2816  0.0614 -0.1992
  455MOL0     C62720   9.382   4.387   8.864  1.3316  0.4345 -0.5262
  455MOL0     H62721   9.043   4.230   8.511  1.8622 -0.6524  1.0612
  455MOL0     H62722   8.844   4.100   8.460  1.2367  1.9850  0.6434
  455MOL0     H62723   8.699   3.976   8.292 -0.8089 -0.7161 -1.1591
  455MOL0     H62724   8.679   3.937   8.466 -0.2265 -1.1655  0.2292
  455MOL0     H62725   8.643   3.741   8.241  1.7606  1.6571 -0.5169
  455MOL0     H62726   8.627   3.716   8.416 -2.3912 -0.2666 -0.1015
  455MOL0     H62727   8.424   3.729   8.280  2.4026 -2.0187  0.9264
  455MOL0     H62728   8.442   3.808   8.440  0.6763  0.4372 -0.1140
  455MOL0     H62729   8.450   4.032   8.334  0.2975  0.9168 -0.2985
  455MOL0     H62730   8.503   3.962   8.181  2.7623 -0.9589  1.3927
  455MOL0     H62731   8.260   4.055   8.175 -2.7866  0.3640  3.9692
  455MOL0     H62732   8.230   3.935   8.302 -0.7304  1.2944 -0.7992
  455MOL0     H62733   8.280   3.753   8.159  0.8450  2.1887  3.3734
  455MOL0     H62734   8.138   3.834   8.099 -0.5025  2.9211  2.2167
  455MOL0     H62735   8.422   3.852   7.987  0.5418  0.4451 -0.0087
  455MOL0     H62736   8.299   3.959   7.930  0.5309  0.7201  2.2174
  455MOL0     H62737   8.157   3.764   7.879  1.5496  0.9131  0.4305
  455MOL0     H62738   8.291   3.795   7.770  0.7310 -1.4344 -1.4008
  455MOL0     H62739   8.491   3.648   8.012  0.1935 -0.5263 -0.3908
  455MOL0     H62740   8.590   3.311   7.985  0.0255 -2.0852 -1.0593
  455MOL0     H62741   8.439   3.258   8.051 -1.1089  0.8487 -3.4518
  455MOL0     H62742   8.590   3.303   8.230 -0.0013  0.5845 -0.2393
  455MOL0     H62743   8.623   3.466   8.198 -0.6255  2.3571 -3.4845
  455MOL0     H62744   8.484   3.450   8.372 -1.2797 -0.2968  0.2743
  455MOL0     H62745   8.374   3.519   8.249 -2.6189 -2.2081 -0.0926
  455MOL0     H62746   8.287   3.248   8.241 -1.5252 -0.4789  0.6118
  455MOL0     H62747   8.377   3.248   8.388 -0.6241 -1.0122 -0.5120
  455MOL0     H62748   8.014   3.485   8.494 -0.9390  3.6665  1.6669
  455MOL0     H62749   7.839   3.784   8.382 -2.0608 -0.7399 -0.3865
  455MOL0     H62750   7.895   3.664   8.514  0.3559 -4.0979 -0.9422
  455MOL0     H62751   7.747   3.640   8.422 -1.0771  1.2324 -1.3460
  455MOL0     H62752   7.689   3.737   7.871 -1.2293 -2.4543  0.8246
  455MOL0     H62753   7.562   3.909   7.763  1.3531 -0.3011  1.2820
  455MOL0     H62754   7.412   4.063   7.676  1.1340 -0.7606  0.6147
  455MOL0     H62755   7.296   3.941   7.739  1.3685 -0.3948 -1.1949
  455MOL0     H62756   7.142   4.097   7.821  1.9156 -0.5715  1.0480
  455MOL0     H62757   7.237   4.223   7.737  2.0247 -0.0088  0.3166
  455MOL0     H62758   7.117   3.989   7.578  0.3347  0.0243  0.5737
  455MOL0     H62759   7.183   4.148   7.520 -1.3418 -0.4979 -2.7089
  455MOL0     H62760   7.003   4.253   7.681 -0.3697  0.7215 -0.4140
  455MOL0     H62761   6.924   4.098   7.682 -2.0712  0.1649 -2.1786
  455MOL0     H62762   6.847   4.288   7.539 -0.3198 -0.2156  0.9203
  455MOL0     H62763   6.989   4.257   7.437  1.2619 -0.6292  2.1008
  455MOL0     H62764   6.765   4.061   7.490  2.3106 -2.1140  2.1553
  455MOL0     H62765   6.924   4.019   7.411  0.7544 -0.2487  0.2378
  455MOL0     H62766   6.893   4.112   7.215 -0.8351 -0.1635 -0.7633
  455MOL0     H62767   6.760   4.220   7.267  1.0544  0.7155 -2.4430
  455MOL0     H62768   6.756   3.921   7.200 -1.6813  1.0007 -2.4492
  455MOL0     H62769   6.640   4.031   7.149 -1.4387  1.1358  0.9395
  455MOL0     H62770   7.380   4.041   8.123 -1.2447 -1.3817 -0.0061
  455MOL0     H62771   7.551   3.880   8.251  2.5737 -1.1315 -0.1850
  455MOL0     H62772   8.023   3.517   8.017 -1.7262 -2.2652  0.6060
  455MOL0     H62773   8.190   3.391   8.130  0.2618 -1.9288 -0.0256
  455MOL0     H62774   9.088   3.760   8.350 -0.5890  0.4608  0.2306
  455MOL0     H62775   9.296   3.901   8.404  0.7197  0.1020  0.9816
  455MOL0     H62776   9.459   4.308   8.399 -1.7837 -2.5612  1.1267
  455MOL0     H62777   9.567   4.511   8.373 -1.3669  0.1382  0.0028
  455MOL0     H62778   9.503   4.819   8.716 -0.0939  1.6187 -0.3310
  455MOL0     H62779   9.657   4.741   8.746  0.5064  0.4123 -0.0197
  455MOL0     H62780   9.609   4.958   8.535 -0.8129  1.1756  1.0141
  455MOL0     H62781   9.767   4.894   8.604 -0.1279 -0.8724  4.6952
  455MOL0     H62782   9.533   5.028   8.752 -0.3209 -2.0163 -2.3098
  455MOL0     H62783   9.684   4.987   8.835  3.0395  3.0084 -0.0579
  455MOL0     H62784   9.800   5.140   8.682 -1.7277 -1.7557 -3.3174
  455MOL0     H62785   9.695   5.235   8.792  3.9561  0.1476  0.8949
  455MOL0     H62786   9.594   5.350   8.412  1.5243  0.8080 -0.8452
  455MOL0     H62787   9.487   4.605   8.791  1.1738 -0.9768 -0.4406
  455MOL0     H62788   9.383   4.277   8.860 -1.8327  0.3252 -0.5548
  455MOL0     H62789   9.466   4.418   8.926 -0.9505  1.3778  2.2544
  455MOL0     H62790   9.284   4.419   8.901  0.2493 -4.2688  1.4425
  456MOL0     O62791   1.762  11.263   2.036 -0.5032  0.0194 -0.7704
  456MOL0     C62792   1.643  11.283   2.012  1.2536 -0.2025  0.4067
  456MOL0     O62793   1.592  11.296   1.884  0.2081  0.0200 -0.3067
  456MOL0     C62794   1.660  11.236   1.785 -0.2847  0.9062  0.5140
  456MOL0     C62795   1.670  11.093   1.786 -0.3349  0.6227  0.4917
  456MOL0     C62796   1.743  11.025   1.681 -0.4571 -0.6553  0.5421
  456MOL0     C62797   1.808  11.104   1.575 -0.0244 -0.7539 -0.5305
  456MOL0     O62798   1.873  11.052   1.470 -0.5629 -1.0950  0.8242
  456MOL0     C62799   1.945  10.938   1.491 -0.8446  0.0320 -0.3340
  456MOL0     C62800   1.996  10.892   1.352  0.3491 -1.1781 -0.8105
  456MOL0     C62801   1.883  10.800   1.297 -0.1135 -0.6127  0.9509
  456MOL0     C62802   1.905  10.751   1.159  0.3984 -0.2228  0.0805
  456MOL0     C62803   1.782  10.692   1.086  0.9434 -0.1568 -0.2170
  456MOL0     C62804   1.829  10.655   0.943 -0.7250 -0.7643 -0.1168
  456MOL0     C62805   1.708  10.644   0.853  0.3539 -0.6205  0.6020
  456MOL0     C62806   1.749  10.606   0.712 -0.0037 -0.2220 -0.1050
  456MOL0     N62807   1.648  10.630   0.612  0.0361 -0.7160  0.5104
  456MOL0     C62808   1.552  10.546   0.549  0.3400  0.3981 -1.4746
  456MOL0     C62809   1.509  10.619   0.447  1.1097 -0.2170 -0.0252
  456MOL0     C62810   1.408  10.571   0.346  0.6420  0.8661 -0.5054
  456MOL0     C62811   1.275  10.657   0.353 -0.2962 -0.5810  0.4696
  456MOL0     C62812   1.293  10.811   0.315  0.4799  0.5382  0.1685
  456MOL0     C62813   1.169  10.884   0.281  0.8020 -0.0381  0.8837
  456MOL0     O62814   1.191  11.021   0.245 -0.2408  0.9064  0.3358
  456MOL0     C62815   1.117  11.079   0.151  0.0238 -1.0326  0.3667
  456MOL0     C62816   0.981  11.041   0.110 -0.0031  1.1251 -0.4783
  456MOL0     C62817   0.920  11.112  -0.006 -0.0163  0.2373  0.2431
  456MOL0     C62818   0.766  11.091  -0.033 -0.6693 -0.9669  0.6697
  456MOL0     C62819   0.994  11.208  -0.074 -0.3774 -0.1600  0.3715
  456MOL0     C62820   0.948  11.268  -0.200  0.0164  0.2012  0.3105
  456MOL0     O62821   0.848  11.209  -0.268 -0.0822  0.2118 -0.4483
  456MOL0     C62822   0.801  11.247  -0.393  0.0955  0.6940 -0.6407
  456MOL0     C62823   0.857  11.342  -0.474  0.0670  0.3509  0.2663
  456MOL0     C62824   0.790  11.368  -0.603 -0.4705  0.1982  0.0380
  456MOL0     C62825   0.684  11.292  -0.651  0.5939  0.3303 -0.2322
  456MOL0     O62826   0.615  11.302  -0.769 -0.2481 -0.5814 -0.7940
  456MOL0     C62827   0.677  11.286  -0.892 -0.6370  0.3834  0.8244
  456MOL0     C62828   0.637  11.149  -0.956 -0.5120 -0.0494 -1.1572
  456MOL0     C62829   0.492  11.117  -0.930 -0.6965 -0.3888 -0.4030
  456MOL0     C62830   0.462  10.985  -1.007  1.4711  0.2100 -0.0698
  456MOL0     C62831   0.542  10.871  -0.968  0.1553  0.7526  0.4371
  456MOL0     C62832   0.514  10.743  -1.045 -0.8958 -0.1570 -0.3688
  456MOL0     C62833   0.589  10.617  -0.998  0.1365 -0.1687 -0.1181
  456MOL0     C62834   0.560  10.507  -1.096 -0.4879 -0.0565  0.6179
  456MOL0    Cl62835   0.669  10.375  -1.040  0.1551 -0.6301  0.5050
  456MOL0     C62836   0.632  11.195  -0.562  0.1896 -0.2091 -0.2244
  456MOL0     C62837   0.686  11.175  -0.430  1.6603 -0.3067  0.1871
  456MOL0     O62838   1.007  11.370  -0.234  0.6736 -0.1415 -0.3975
  456MOL0     C62839   1.128  11.246  -0.029 -0.1560 -1.0329  0.0956
  456MOL0     C62840   1.188  11.180   0.085 -0.4546 -0.1903 -0.5332
  456MOL0     N62841   1.571  10.738   0.445 -0.3853 -0.3251 -0.1042
  456MOL0     N62842   1.645  10.744   0.542  0.9157  0.0263 -0.2689
  456MOL0     C62843   1.788  11.245   1.580 -0.0378  0.0761  0.4010
  456MOL0     C62844   1.723  11.303   1.687  1.4603 -0.1626  0.4994
  456MOL0     C62845   1.559  11.304   2.134  0.2492  1.0183 -0.5803
  456MOL0     C62846   1.430  11.352   2.118 -0.4625 -0.7657 -0.0109
  456MOL0     C62847   1.340  11.362   2.224  0.5534 -0.0603  0.1082
  456MOL0     C62848   1.370  11.325   2.354  0.1959 -1.6031 -0.1362
  456MOL0     O62849   1.265  11.342   2.446 -0.3893 -0.0885  0.1043
  456MOL0     C62850   1.301  11.316   2.586 -0.5067  0.5240 -0.6167
  456MOL0     C62851   1.180  11.344   2.673 -0.6075 -0.0470  0.4685
  456MOL0     C62852   1.143  11.492   2.648 -0.2977 -0.7200  0.2824
  456MOL0     C62853   0.990  11.515   2.684 -1.0116  0.0390 -0.7870
  456MOL0     C62854   0.906  11.458   2.579 -0.0643 -0.0498  0.8095
  456MOL0     C62855   0.848  11.402   2.484 -1.2078  0.2517  0.4438
  456MOL0     C62856   1.507  11.286   2.366 -0.4068 -0.3468 -1.1758
  456MOL0     C62857   1.600  11.270   2.268 -0.8855  0.4507 -0.0178
  456MOL0     C62858   1.734  11.195   2.301  0.1593 -0.4019  0.7352
  456MOL0     H62859   1.624  11.033   1.864 -1.8492  1.8726  0.6181
  456MOL0     H62860   1.752  10.917   1.671  3.2610 -0.2618 -2.0237
  456MOL0     H62861   1.881  10.867   1.544 -4.0663  2.0593 -1.1745
  456MOL0     H62862   2.029  10.957   1.558 -1.1122 -1.3149  0.4020
  456MOL0     H62863   1.998  10.980   1.286  0.1287 -0.5488  0.0077
  456MOL0     H62864   2.094  10.846   1.362  1.0570  0.4837  0.3114
  456MOL0     H62865   1.863  10.717   1.366 -1.9929  0.1108  1.3161
  456MOL0     H62866   1.796  10.865   1.293  1.2461  1.8056  5.1539
  456MOL0     H62867   1.943  10.833   1.099  0.0210  0.9198  1.3515
  456MOL0     H62868   1.979  10.669   1.158 -0.7898 -1.3279 -1.4970
  456MOL0     H62869   1.696  10.759   1.097 -1.6192 -3.3055  0.4204
  456MOL0     H62870   1.755  10.601   1.140 -0.3246  0.3870  0.1102
  456MOL0     H62871   1.888  10.742   0.912 -0.8868 -1.8576 -4.0325
  456MOL0     H62872   1.901  10.573   0.933  0.9808  0.8520 -1.7408
  456MOL0     H62873   1.662  10.742   0.837 -0.0174 -0.8812  0.0792
  456MOL0     H62874   1.631  10.571   0.879 -0.7892  0.4418  0.3348
  456MOL0     H62875   1.836  10.668   0.689  0.8150 -1.6668 -1.0842
  456MOL0     H62876   1.772  10.500   0.696 -1.9957 -0.3135 -3.2784
  456MOL0     H62877   1.517  10.444   0.566 -1.4413  1.4227  1.6798
  456MOL0     H62878   1.375  10.469   0.366  1.4608  0.6512 -0.2259
  456MOL0     H62879   1.451  10.574   0.246  2.1879  1.0063  0.1344
  456MOL0     H62880   1.197  10.620   0.286 -1.5589  1.3441  0.7950
  456MOL0     H62881   1.246  10.659   0.459  0.3717  0.0733  0.6488
  456MOL0     H62882   1.329  10.870   0.400  1.3916 -0.9447  0.8435
  456MOL0     H62883   1.360  10.827   0.230  0.4367 -3.0096 -0.6625
  456MOL0     H62884   1.104  10.827   0.214  0.2623 -1.1082  2.2862
  456MOL0     H62885   1.107  10.881   0.370  0.3192  3.0362  0.7815
  456MOL0     H62886   0.927  10.970   0.171  1.7185  0.4238  0.2913
  456MOL0     H62887   0.709  11.184  -0.030 -1.3397 -1.3770  1.1175
  456MOL0     H62888   0.731  11.023   0.046 -0.6554 -1.7511  0.0158
  456MOL0     H62889   0.752  11.046  -0.132  1.8819 -2.3806  0.8753
  456MOL0     H62890   0.953  11.391  -0.456  0.4713  0.0808 -1.0410
  456MOL0     H62891   0.814  11.446  -0.674 -0.0953 -2.9279 -3.5979
  456MOL0     H62892   0.654  11.368  -0.961  0.8642  3.3411  3.5643
  456MOL0     H62893   0.786  11.283  -0.879 -0.4669  0.3665 -0.4133
  456MOL0     H62894   0.654  11.135  -1.063  1.6587 -0.6441 -0.7889
  456MOL0     H62895   0.710  11.078  -0.917 -0.7596  1.3239  2.1220
  456MOL0     H62896   0.435  11.201  -0.969 -0.9433  0.6215  1.9886
  456MOL0     H62897   0.478  11.103  -0.822  1.9242 -1.2937 -0.1199
  456MOL0     H62898   0.461  11.002  -1.115 -2.0185  2.2555  0.1316
  456MOL0     H62899   0.355  10.962  -0.998  1.1800  0.7299 -1.7413
  456MOL0     H62900   0.647  10.895  -0.981  0.1656  1.2424  1.3582
  456MOL0     H62901   0.520  10.853  -0.862 -2.7619  1.1971 -0.0044
  456MOL0     H62902   0.543  10.771  -1.146 -1.0403  2.9515  0.3335
  456MOL0     H62903   0.408  10.720  -1.043 -0.5001 -2.2170  1.6378
  456MOL0     H62904   0.553  10.584  -0.900  2.5631 -1.1915  0.4926
  456MOL0     H62905   0.698  10.625  -0.998  0.1340 -0.0396 -0.9695
  456MOL0     H62906   0.591  10.543  -1.194 -2.0457 -0.4285 -0.0466
  456MOL0     H62907   0.453  10.483  -1.098 -0.6551  0.6706  0.4982
  456MOL0     H62908   0.540  11.138  -0.573 -3.1408  3.9928  2.2010
  456MOL0     H62909   0.659  11.102  -0.355  0.8404  0.5938  0.7884
  456MOL0     H62910   1.196  11.317  -0.075  2.7659 -0.4142  4.7529
  456MOL0     H62911   1.291  11.194   0.118 -0.5863 -0.7501  0.1273
  456MOL0     H62912   1.825  11.299   1.494 -1.2625 -1.1660 -0.9612
  456MOL0     H62913   1.733  11.411   1.690 -2.8272  0.5635 -2.2203
  456MOL0     H62914   1.403  11.379   2.017  3.9346  2.2987 -0.6597
  456MOL0     H62915   1.237  11.392   2.209  0.6981  1.1844  1.4182
  456MOL0     H62916   1.325  11.209   2.587 -0.4357  0.5324  1.2277
  456MOL0     H62917   1.393  11.368   2.615 -0.2498 -1.3755  2.4638
  456MOL0     H62918   1.198  11.310   2.775 -0.3699 -0.9465  0.1355
  456MOL0     H62919   1.105  11.274   2.636 -0.0161 -0.2534 -0.3727
  456MOL0     H62920   1.208  11.558   2.707  0.9172 -1.2529 -0.4123
  456MOL0     H62921   1.155  11.525   2.544 -1.9774  0.8851  0.5408
  456MOL0     H62922   0.960  11.618   2.707 -1.0069 -0.4795  1.8444
  456MOL0     H62923   0.958  11.455   2.769  0.1192 -0.1040 -0.4556
  456MOL0     H62924   0.797  11.354   2.402 -0.0718  3.3074 -2.2919
  456MOL0     H62925   1.528  11.264   2.470  0.8608  0.9401 -1.1418
  456MOL0     H62926   1.733  11.155   2.402  0.8203  2.7010  2.0800
  456MOL0     H62927   1.739  11.113   2.229  2.3686 -0.9933  1.4969
  456MOL0     H62928   1.820  11.262   2.291  0.3752 -0.5439  1.6060
  457MOL0     O62929   9.980   3.210   9.963 -0.3908 -0.1705 -0.7529
  457MOL0     C62930   9.982   3.185   9.838 -0.6935 -0.5868 -0.3563
  457MOL0     O62931  10.096   3.148   9.774 -0.8514  0.5270 -0.0572
  457MOL0     C62932  10.213   3.183   9.836  0.4847  0.8872  0.7005
  457MOL0     C62933  10.264   3.302   9.786  0.0433  1.1379 -0.2956
  457MOL0     C62934  10.369   3.366   9.855 -0.1906  1.4924  0.6179
  457MOL0     C62935  10.451   3.296   9.952 -0.4848 -0.2118 -0.0096
  457MOL0     O62936  10.563   3.339  10.011 -0.3966  0.9958 -0.2262
  457MOL0     C62937  10.627   3.466   9.985  0.1129  0.5434 -0.0608
  457MOL0     C62938  10.746   3.482  10.081 -0.7642 -0.1340 -0.3561
  457MOL0     C62939  10.869   3.389  10.038  0.3176 -0.1299  0.7327
  457MOL0     C62940  10.880   3.251  10.106 -0.3105  0.2004 -0.7673
  457MOL0     C62941  10.947   3.143  10.012 -0.5928 -0.0438  0.5139
  457MOL0     C62942  10.885   3.096   9.891  0.3020  0.4398 -0.3287
  457MOL0     C62943  10.985   3.016   9.801 -0.5356 -0.4026 -0.2872
  457MOL0     C62944  11.066   3.100   9.704 -0.0848  0.5302 -0.0636
  457MOL0     N62945  10.989   3.164   9.602 -0.1974 -0.1830  1.1491
  457MOL0     C62946  10.960   3.108   9.478  0.1737  0.4750  1.2353
  457MOL0     C62947  10.921   3.216   9.396 -0.3274  0.3302  0.1541
  457MOL0     C62948  10.867   3.206   9.251  0.3098 -0.0502 -0.1684
  457MOL0     C62949  10.957   3.274   9.145 -0.0462  0.5052  0.4903
  457MOL0     C62950  10.898   3.266   9.006  0.0338  0.3931  0.4613
  457MOL0     C62951  10.903   3.123   8.934  0.0098  0.2372  1.0845
  457MOL0     O62952  10.824   3.129   8.811  0.5082  0.0180 -0.4159
  457MOL0     C62953  10.826   3.015   8.740  0.2654 -0.0659  0.3522
  457MOL0     C62954  10.913   2.902   8.752  1.1850  0.4549 -0.6264
  457MOL0     C62955  10.923   2.796   8.662  0.6983 -0.2267  0.3627
  457MOL0     C62956  11.005   2.674   8.692  0.1202  0.1545  0.2024
  457MOL0     C62957  10.847   2.811   8.543 -0.0646  0.1296  0.9146
  457MOL0     C62958  10.861   2.716   8.435 -0.1073 -0.2195 -0.3477
  457MOL0     O62959  10.758   2.631   8.414  0.2740 -0.1346  0.3042
  457MOL0     C62960  10.783   2.534   8.325  0.4404  0.6025 -0.5100
  457MOL0     C62961  10.714   2.523   8.205  0.3648 -0.9152  0.0606
  457MOL0     C62962  10.733   2.418   8.123  0.9681  0.8906 -0.4091
  457MOL0     C62963  10.795   2.298   8.181  0.5252 -0.7389 -0.4092
  457MOL0     O62964  10.788   2.178   8.122 -0.2132 -0.1241  0.7253
  457MOL0     C62965  10.904   2.127   8.071  0.3476  0.5502  0.0196
  457MOL0     C62966  10.853   2.031   7.957  0.5499 -0.3470 -0.2381
  457MOL0     C62967  10.818   2.089   7.817  1.1349 -0.1636  0.0788
  457MOL0     C62968  10.773   1.977   7.717 -0.0751 -0.2651 -0.1810
  457MOL0     C62969  10.715   2.038   7.587  0.6538  0.4842 -0.2573
  457MOL0     C62970  10.813   2.122   7.504 -0.5787 -0.5307  0.0177
  457MOL0     C62971  10.763   2.138   7.355 -0.2820 -0.0927 -0.6652
  457MOL0     C62972  10.821   2.255   7.287  0.2716 -0.7147 -0.4273
  457MOL0    Cl62973  10.746   2.282   7.120 -0.8141 -0.2426 -0.2077
  457MOL0     C62974  10.858   2.307   8.311 -0.6528 -0.6949 -0.2440
  457MOL0     C62975  10.850   2.425   8.380 -0.0557  0.5540 -0.9490
  457MOL0     O62976  10.972   2.721   8.374 -0.2617  1.4754  0.0113
  457MOL0     C62977  10.761   2.913   8.519  0.9214  0.0279  0.0671
  457MOL0     C62978  10.754   3.013   8.614  0.4842  0.3350 -0.8739
  457MOL0     N62979  10.936   3.327   9.485  0.3641 -0.4718 -0.0357
  457MOL0     N62980  10.959   3.294   9.607 -1.0726 -0.2146  0.9756
  457MOL0     C62981  10.410   3.170   9.979  1.4194  1.4386 -0.8033
  457MOL0     C62982  10.279   3.115   9.934 -0.1746 -1.0146  0.2200
  457MOL0     C62983   9.852   3.179   9.764 -0.6012  0.7131  0.3313
  457MOL0     C62984   9.846   3.096   9.651 -0.0304  0.8368 -0.3620
  457MOL0     C62985   9.730   3.084   9.580  1.0911  0.3072 -0.1414
  457MOL0     C62986   9.610   3.151   9.618 -0.0618 -0.6384  1.1341
  457MOL0     O62987   9.496   3.137   9.537 -0.0481  0.3041 -0.2118
  457MOL0     C62988   9.367   3.191   9.575  0.4651 -0.4077  0.2372
  457MOL0     C62989   9.290   3.086   9.648 -0.1532  0.4507  0.4350
  457MOL0     C62990   9.341   3.053   9.797  0.5385 -0.8053  0.3249
  457MOL0     C62991   9.274   3.142   9.898 -0.4612 -1.1197 -0.2016
  457MOL0     C62992   9.361   3.156  10.017 -0.2277 -0.4188 -1.3368
  457MOL0     C62993   9.424   3.156  10.120  0.1802  0.2452 -0.7758
  457MOL0     C62994   9.614   3.249   9.717  0.0659  0.3960  0.0307
  457MOL0     C62995   9.735   3.259   9.792 -0.4034 -0.3755  0.1420
  457MOL0     C62996   9.723   3.358   9.906  0.1924 -0.3684  0.2733
  457MOL0     H62997  10.212   3.360   9.711  2.4046  0.7033 -2.4298
  457MOL0     H62998  10.383   3.471   9.834  1.5916  1.8961  3.3282
  457MOL0     H62999  10.559   3.547  10.011  1.5427  1.8235 -0.1699
  457MOL0     H63000  10.663   3.471   9.882 -4.2702 -0.3919 -1.8705
  457MOL0     H63001  10.789   3.583  10.079  0.4996 -0.6397  0.1907
  457MOL0     H63002  10.725   3.465  10.187  2.7922 -1.2900  0.3012
  457MOL0     H63003  10.872   3.368   9.931  3.3347  2.5741  0.1309
  457MOL0     H63004  10.963   3.443  10.056 -0.1447  0.0665  2.7868
  457MOL0     H63005  10.945   3.263  10.194  0.1221  0.6538 -1.1457
  457MOL0     H63006  10.785   3.210  10.141 -0.1985  0.4031 -0.2144
  457MOL0     H63007  10.962   3.054  10.074 -2.7062  0.1358  1.3804
  457MOL0     H63008  11.043   3.190   9.987  0.8269 -3.0418 -0.1365
  457MOL0     H63009  10.801   3.035   9.924  3.1523 -2.0542  3.0937
  457MOL0     H63010  10.845   3.183   9.839  1.7873  0.0517 -2.2238
  457MOL0     H63011  10.924   2.948   9.740 -0.8572  1.7187 -2.5061
  457MOL0     H63012  11.056   2.970   9.870 -0.7546  0.0336  0.2276
  457MOL0     H63013  11.121   3.177   9.759 -0.5229  0.3248  0.6845
  457MOL0     H63014  11.133   3.036   9.647 -2.5550  0.2562 -2.9084
  457MOL0     H63015  10.979   3.005   9.452  1.9554  0.8965  0.7067
  457MOL0     H63016  10.770   3.257   9.248  1.1600  1.6186 -1.9089
  457MOL0     H63017  10.858   3.100   9.228  1.4724 -0.4938  1.2604
  457MOL0     H63018  10.968   3.378   9.177  0.7408  0.9296 -1.0800
  457MOL0     H63019  11.051   3.220   9.156  1.0547  2.0228 -0.8977
  457MOL0     H63020  10.797   3.307   9.001 -0.7505 -1.5855 -1.6977
  457MOL0     H63021  10.966   3.331   8.950 -1.3448  0.1588 -1.5779
  457MOL0     H63022  11.009   3.107   8.913  0.8128  3.0923  2.3815
  457MOL0     H63023  10.869   3.045   9.003 -1.4512 -0.7767 -0.7056
  457MOL0     H63024  10.976   2.885   8.838  1.9285  1.7341 -0.8919
  457MOL0     H63025  11.044   2.627   8.601  0.1015  1.7350 -0.6441
  457MOL0     H63026  10.934   2.606   8.741  0.4286 -0.0594  0.3571
  457MOL0     H63027  11.093   2.696   8.754  0.5275  1.7661 -0.8900
  457MOL0     H63028  10.664   2.615   8.177 -1.1906 -1.8859 -0.4627
  457MOL0     H63029  10.673   2.398   8.035  0.9193 -2.1419  0.1741
  457MOL0     H63030  10.975   2.207   8.046 -0.4953  2.4344  3.0662
  457MOL0     H63031  10.954   2.067   8.148  0.8484  2.3018  1.1157
  457MOL0     H63032  10.936   1.962   7.942  0.3095 -0.4062 -1.3517
  457MOL0     H63033  10.770   1.975   8.001 -0.9539  1.6641 -0.3838
  457MOL0     H63034  10.899   2.149   7.773  2.0183 -0.3247  1.4425
  457MOL0     H63035  10.728   2.147   7.840  0.8840 -0.9542  1.1241
  457MOL0     H63036  10.691   1.919   7.761  0.1490 -0.3643  0.1128
  457MOL0     H63037  10.849   1.907   7.683  0.7088  0.8020 -0.6824
  457MOL0     H63038  10.681   1.955   7.526  0.8616 -1.3008  1.9305
  457MOL0     H63039  10.625   2.096   7.611  1.3056  1.6740 -0.5572
  457MOL0     H63040  10.921   2.101   7.504 -0.5395 -0.4920  1.6747
  457MOL0     H63041  10.808   2.217   7.557 -2.5032 -2.2147  3.2021
  457MOL0     H63042  10.654   2.147   7.351 -0.1812  1.7604 -0.1043
  457MOL0     H63043  10.795   2.044   7.308 -0.8752 -1.0365  0.7541
  457MOL0     H63044  10.927   2.238   7.268  0.4911  1.2780 -1.1679
  457MOL0     H63045  10.825   2.350   7.341  1.6385 -1.6490  1.1781
  457MOL0     H63046  10.908   2.226   8.364  1.9317  0.9212 -0.0199
  457MOL0     H63047  10.885   2.447   8.480  3.5477  1.7584 -2.3068
  457MOL0     H63048  10.694   2.910   8.433  1.1329  2.4566 -0.2380
  457MOL0     H63049  10.687   3.098   8.605 -0.0446 -0.1068 -1.1430
  457MOL0     H63050  10.461   3.110  10.054  3.0221  3.7837  0.1173
  457MOL0     H63051  10.239   3.019   9.966 -0.8132 -0.8226  0.0324
  457MOL0     H63052   9.936   3.046   9.617 -0.9213 -0.1044 -1.4167
  457MOL0     H63053   9.719   3.027   9.489 -1.4598  0.9133 -0.2832
  457MOL0     H63054   9.382   3.285   9.628 -2.5489 -1.3671  3.0694
  457MOL0     H63055   9.313   3.216   9.483 -0.2339 -1.7859  0.2461
  457MOL0     H63056   9.290   2.995   9.588 -0.0560  0.4053  0.5015
  457MOL0     H63057   9.185   3.111   9.660  0.3335  2.7596  0.2489
  457MOL0     H63058   9.300   2.952   9.813 -3.3730  0.1784 -1.9635
  457MOL0     H63059   9.449   3.064   9.809  0.5638  1.8739 -1.4707
  457MOL0     H63060   9.172   3.118   9.929 -1.1773  0.7366 -0.9619
  457MOL0     H63061   9.265   3.242   9.854  1.7784 -0.1787  1.3152
  457MOL0     H63062   9.475   3.152  10.214 -0.6354  0.7246 -0.3016
  457MOL0     H63063   9.527   3.298   9.759 -0.3057 -0.3586  0.1558
  457MOL0     H63064   9.820   3.409   9.906  2.0299 -3.5557  0.8713
  457MOL0     H63065   9.641   3.429   9.892 -0.3882 -1.3808 -1.9337
  457MOL0     H63066   9.716   3.312  10.005  1.0549  1.2120  1.1080
  458MOL0     O63067   5.099   8.763   9.512  0.3755  0.2518  0.1085
  458MOL0     C63068   5.173   8.846   9.556 -0.6894 -0.5130  0.7914
  458MOL0     O63069   5.131   8.960   9.620  0.2346  0.3663 -0.2976
  458MOL0     C63070   4.997   8.986   9.623 -0.0141 -0.3319 -0.2800
  458MOL0     C63071   4.900   8.906   9.690 -0.0478  0.0639 -0.5336
  458MOL0     C63072   4.763   8.930   9.666  0.6747  0.0385  0.4717
  458MOL0     C63073   4.725   9.048   9.610 -0.2010  0.1225 -0.7798
  458MOL0     O63074   4.600   9.099   9.623 -0.4620  0.2619  0.0423
  458MOL0     C63075   4.564   9.170   9.742  0.5954 -0.1010  0.3463
  458MOL0     C63076   4.517   9.303   9.683  0.6053 -0.1807 -0.5258
  458MOL0     C63077   4.422   9.377   9.777 -0.1070  0.1421 -0.1314
  458MOL0     C63078   4.487   9.386   9.914 -0.8094 -0.0766 -0.7291
  458MOL0     C63079   4.386   9.468  10.007  0.4625  0.2713 -0.0670
  458MOL0     C63080   4.339   9.614   9.969 -1.0494 -0.1511 -0.6916
  458MOL0     C63081   4.462   9.698   9.957  0.5228  0.1800  0.6134
  458MOL0     C63082   4.434   9.838   9.910 -0.5271 -0.5701  0.5258
  458MOL0     N63083   4.550   9.930   9.909  0.0220 -0.2572 -0.2254
  458MOL0     C63084   4.632   9.949   9.805 -0.1205  0.4312  1.0935
  458MOL0     C63085   4.737  10.025   9.860  0.4649  0.6164 -0.0847
  458MOL0     C63086   4.852  10.062   9.775 -0.1122  0.5284 -0.8921
  458MOL0     C63087   4.911  10.192   9.820 -0.2869 -0.1535  0.1597
  458MOL0     C63088   4.950  10.284   9.702  0.0406  0.6639 -1.3363
  458MOL0     C63089   5.037  10.221   9.598  0.8472  0.0939 -0.5253
  458MOL0     O63090   5.137  10.308   9.545 -0.0134 -0.5534 -0.0645
  458MOL0     C63091   5.112  10.411   9.459  0.9701 -0.2293 -1.3206
  458MOL0     C63092   4.986  10.427   9.396  0.1529 -0.5222  1.1578
  458MOL0     C63093   4.966  10.538   9.312  0.2549 -0.4799  0.3620
  458MOL0     C63094   4.846  10.547   9.224 -1.2404  0.6988 -0.3019
  458MOL0     C63095   5.070  10.638   9.302  0.2759  1.0681 -1.0137
  458MOL0     C63096   5.074  10.752   9.206  0.1618 -0.0863  0.3807
  458MOL0     O63097   5.193  10.775   9.160 -0.3098  0.9381  0.9394
  458MOL0     C63098   5.234  10.870   9.073  0.4302  0.3201 -0.7069
  458MOL0     C63099   5.363  10.922   9.095 -0.2008 -0.7821  0.7767
  458MOL0     C63100   5.407  11.033   9.017 -0.2351 -0.3021  1.2735
  458MOL0     C63101   5.325  11.082   8.911 -0.1137  0.0208  0.0357
  458MOL0     O63102   5.369  11.167   8.812  0.6335 -0.2617 -0.7309
  458MOL0     C63103   5.359  11.306   8.842 -0.4381 -1.2948 -0.2031
  458MOL0     C63104   5.217  11.356   8.837  1.2280  0.5041  0.3202
  458MOL0     C63105   5.205  11.507   8.827  0.1844  0.4173 -1.1251
  458MOL0     C63106   5.224  11.586   8.956  0.0096  0.5771 -1.4715
  458MOL0     C63107   5.169  11.731   8.944  0.0018 -0.1178  0.2563
  458MOL0     C63108   5.144  11.795   9.079 -0.6684  0.1977  1.0240
  458MOL0     C63109   5.132  11.942   9.071  0.6803  0.3162  0.2755
  458MOL0     C63110   5.000  11.990   9.016  0.1350  0.7815 -1.3092
  458MOL0    Cl63111   5.009  12.172   9.030  0.0522 -0.6969  0.0698
  458MOL0     C63112   5.201  11.021   8.900  0.0043  0.1935  0.8247
  458MOL0     C63113   5.150  10.926   8.978 -0.1308  0.6996  0.0369
  458MOL0     O63114   4.978  10.822   9.177 -0.9740  0.0935  0.3630
  458MOL0     C63115   5.191  10.620   9.369 -0.4263  0.2419  0.6526
  458MOL0     C63116   5.211  10.504   9.447  0.7307 -1.4323 -1.0047
  458MOL0     N63117   4.717  10.039  10.002 -0.5608  0.4774 -0.0345
  458MOL0     N63118   4.608   9.983  10.022  0.2539 -0.7649  0.4963
  458MOL0     C63119   4.818   9.138   9.563 -0.2188 -0.7928 -0.0586
  458MOL0     C63120   4.950   9.108   9.561  0.0789 -0.4224 -1.2157
  458MOL0     C63121   5.319   8.814   9.546  0.0443  0.4555 -0.5042
  458MOL0     C63122   5.400   8.911   9.607 -0.3049 -0.0348 -0.0254
  458MOL0     C63123   5.543   8.900   9.615  0.8995  0.1848  0.5530
  458MOL0     C63124   5.603   8.788   9.555 -0.0255 -0.2143 -0.0484
  458MOL0     O63125   5.735   8.765   9.568  0.7451  0.7157  0.3702
  458MOL0     C63126   5.800   8.799   9.695  0.4227 -0.2082 -1.2167
  458MOL0     C63127   5.730   8.706   9.800 -0.6608 -0.5250 -1.3264
  458MOL0     C63128   5.808   8.731   9.937  0.4411  0.9076  0.1773
  458MOL0     C63129   5.872   8.605   9.990 -0.1755 -0.1978  0.0561
  458MOL0     C63130   5.777   8.492   9.988 -0.3149  1.2532  0.0932
  458MOL0     C63131   5.712   8.391   9.998 -0.6849  0.3816  0.5828
  458MOL0     C63132   5.525   8.699   9.490  1.4082  0.3626  0.2927
  458MOL0     C63133   5.384   8.710   9.473  0.1857 -0.2661  0.3524
  458MOL0     C63134   5.313   8.608   9.387  0.1217 -0.4522  0.9528
  458MOL0     H63135   4.928   8.809   9.731 -0.1828  0.9016  1.6656
  458MOL0     H63136   4.690   8.859   9.705 -1.3923 -0.7617 -4.1382
  458MOL0     H63137   4.654   9.197   9.798  0.3260  1.3562  0.1010
  458MOL0     H63138   4.492   9.110   9.799 -1.0543 -0.0276 -1.5514
  458MOL0     H63139   4.597   9.377   9.675 -1.3360  2.0085 -0.5007
  458MOL0     H63140   4.476   9.282   9.584  1.7616  1.5607 -1.4251
  458MOL0     H63141   4.410   9.471   9.722  1.6397 -1.0699 -2.8308
  458MOL0     H63142   4.333   9.314   9.776 -0.1561  0.2114 -0.1334
  458MOL0     H63143   4.506   9.285   9.951 -2.1799 -0.4220 -0.9267
  458MOL0     H63144   4.584   9.437   9.919  0.5667 -2.0380 -3.9160
  458MOL0     H63145   4.420   9.464  10.111  0.0548  1.7323  0.1518
  458MOL0     H63146   4.291   9.416  10.018  0.2044  1.2686  5.7527
  458MOL0     H63147   4.291   9.608   9.871  1.1026  1.3958 -1.9178
  458MOL0     H63148   4.265   9.639  10.046 -0.0247  0.1729  0.2113
  458MOL0     H63149   4.543   9.657   9.895 -0.6904  0.9055 -1.5547
  458MOL0     H63150   4.509   9.697  10.056 -1.2290 -2.5960  1.5358
  458MOL0     H63151   4.389   9.837   9.811  1.5630 -2.0339 -0.4962
  458MOL0     H63152   4.365   9.881   9.983 -0.8247  2.2578 -1.2977
  458MOL0     H63153   4.613   9.913   9.704 -0.3360 -1.1164  1.6719
  458MOL0     H63154   4.817  10.079   9.673 -1.9617 -3.0764 -1.0054
  458MOL0     H63155   4.908   9.969   9.787  0.1624  0.7159 -0.6857
  458MOL0     H63156   4.845  10.247   9.888  1.1281 -1.1218  2.4667
  458MOL0     H63157   4.994  10.156   9.882 -1.7953 -3.5372  0.4049
  458MOL0     H63158   4.856  10.301   9.648 -2.4523  0.8366  2.5690
  458MOL0     H63159   4.990  10.374   9.750 -1.6134  0.1372  1.2478
  458MOL0     H63160   5.084  10.139   9.653  0.1797 -0.1600 -0.3221
  458MOL0     H63161   4.977  10.169   9.523  0.9621  1.1760 -1.3893
  458MOL0     H63162   4.905  10.355   9.402 -1.4923  1.2593  1.2110
  458MOL0     H63163   4.785  10.634   9.247 -0.7113  0.4905  2.1929
  458MOL0     H63164   4.795  10.450   9.230 -1.8302  0.8716 -2.0251
  458MOL0     H63165   4.886  10.555   9.122 -3.5331 -1.5743 -1.5151
  458MOL0     H63166   5.436  10.886   9.166  1.0634  0.2516  0.0584
  458MOL0     H63167   5.502  11.086   9.027 -0.5951  0.5994  0.0557
  458MOL0     H63168   5.411  11.326   8.936  1.1381  0.0239 -1.2876
  458MOL0     H63169   5.412  11.364   8.765 -1.1172 -0.1653  0.1644
  458MOL0     H63170   5.173  11.323   8.742 -1.9076  0.5925  1.5966
  458MOL0     H63171   5.154  11.312   8.916 -1.2105  0.1553 -1.6961
  458MOL0     H63172   5.105  11.529   8.790 -1.2423 -0.2069  2.0764
  458MOL0     H63173   5.275  11.551   8.755  0.3465  1.0813 -0.5580
  458MOL0     H63174   5.326  11.580   8.994 -0.4780 -1.3154 -0.3243
  458MOL0     H63175   5.167  11.537   9.035  1.7035 -0.4550 -0.8513
  458MOL0     H63176   5.245  11.789   8.889 -1.2725  1.3364 -0.0526
  458MOL0     H63177   5.078  11.735   8.883  1.3059 -0.5746 -1.7944
  458MOL0     H63178   5.229  11.772   9.144 -0.2107  2.4483  1.2921
  458MOL0     H63179   5.065  11.745   9.136  0.5556 -0.9042  1.8167
  458MOL0     H63180   5.201  11.992   9.003  1.5333 -0.9887  0.1495
  458MOL0     H63181   5.150  11.984   9.170  1.8865  3.4833 -1.1735
  458MOL0     H63182   4.914  11.958   9.076  0.9870  0.6570 -0.1090
  458MOL0     H63183   4.984  11.952   8.915  0.9749 -1.6792 -0.5804
  458MOL0     H63184   5.147  11.075   8.822  4.9468  1.3909 -2.2415
  458MOL0     H63185   5.049  10.896   8.950  0.1127 -0.2912  0.1906
  458MOL0     H63186   5.268  10.696   9.374  0.2155 -0.1117 -2.2532
  458MOL0     H63187   5.298  10.500   9.511  0.1663  1.2857  0.0946
  458MOL0     H63188   4.791   9.231   9.513 -0.7140  0.1718  1.8835
  458MOL0     H63189   5.019   9.173   9.508 -1.8132  1.8223 -1.0314
  458MOL0     H63190   5.348   9.000   9.641 -1.0882 -1.4536  2.8026
  458MOL0     H63191   5.605   8.968   9.671 -0.8658  2.2230  0.1478
  458MOL0     H63192   5.901   8.757   9.686 -0.5346 -2.8197 -0.8301
  458MOL0     H63193   5.800   8.907   9.712  1.7598 -0.4535  0.7076
  458MOL0     H63194   5.733   8.602   9.766 -2.4242 -0.8990 -0.4858
  458MOL0     H63195   5.625   8.735   9.813  0.3766  3.8373 -1.2929
  458MOL0     H63196   5.878   8.815   9.937 -0.0161  1.3386  2.2023
  458MOL0     H63197   5.725   8.752  10.005 -0.3159 -2.2967  0.4307
  458MOL0     H63198   5.907   8.610  10.093 -0.3429  0.7504  0.0719
  458MOL0     H63199   5.950   8.582   9.916 -0.8475 -0.6452 -0.5383
  458MOL0     H63200   5.640   8.314  10.020 -4.5628  2.5081 -3.2285
  458MOL0     H63201   5.583   8.617   9.449  4.4824  1.2204  2.4695
  458MOL0     H63202   5.249   8.661   9.315 -1.0723 -1.9494  0.8534
  458MOL0     H63203   5.381   8.546   9.328  1.6261  0.7782  1.3178
  458MOL0     H63204   5.257   8.548   9.459  0.4112  1.1498  2.5985
  459MOL0     O63205   7.429   8.020   5.617  0.4053 -0.0511  0.0370
  459MOL0     C63206   7.505   8.007   5.713 -0.2220  0.2328 -1.5470
  459MOL0     O63207   7.576   8.114   5.763 -0.4921  1.2816  0.5847
  459MOL0     C63208   7.594   8.229   5.679  0.1722  0.2432 -0.7072
  459MOL0     C63209   7.599   8.342   5.762  0.6787  0.3628  0.4269
  459MOL0     C63210   7.614   8.469   5.705  0.4449  0.1433  0.9271
  459MOL0     C63211   7.645   8.484   5.571  0.1559  0.9160 -0.2503
  459MOL0     O63212   7.693   8.606   5.542 -0.0706 -0.5625  0.8100
  459MOL0     C63213   7.658   8.669   5.417 -0.0820 -0.1752 -0.3829
  459MOL0     C63214   7.523   8.737   5.430  0.9536 -0.5407 -0.3603
  459MOL0     C63215   7.475   8.787   5.303  0.3062 -0.0225 -0.1515
  459MOL0     C63216   7.575   8.893   5.227 -0.0661  0.1695  0.5023
  459MOL0     C63217   7.492   8.978   5.121  0.4495 -0.7204  0.4211
  459MOL0     C63218   7.415   8.901   5.003  0.6998 -0.0975 -0.2921
  459MOL0     C63219   7.521   8.843   4.906 -0.4768  0.3368  0.0435
  459MOL0     C63220   7.463   8.710   4.846 -0.3816 -0.4513  1.1748
  459MOL0     N63221   7.459   8.590   4.939  0.0102  0.6296  0.0547
  459MOL0     C63222   7.345   8.533   4.977  0.3192 -0.2556 -0.5797
  459MOL0     C63223   7.382   8.434   5.050 -0.7709  0.0138 -0.2729
  459MOL0     C63224   7.292   8.353   5.141  0.3000 -0.1093 -0.6042
  459MOL0     C63225   7.334   8.339   5.285 -0.1617 -0.4964  0.5859
  459MOL0     C63226   7.226   8.264   5.363 -0.0261 -0.8424  0.0066
  459MOL0     C63227   7.097   8.346   5.406 -0.4497  0.1463 -0.4597
  459MOL0     O63228   7.120   8.484   5.449  0.4767 -0.1062 -0.2247
  459MOL0     C63229   7.165   8.504   5.580 -0.0763  0.4188  1.2705
  459MOL0     C63230   7.162   8.409   5.682 -0.7560  0.5101  0.1936
  459MOL0     C63231   7.211   8.429   5.813 -0.0985 -1.0872  0.4697
  459MOL0     C63232   7.228   8.309   5.913 -0.5665 -0.5858 -0.5136
  459MOL0     C63233   7.257   8.563   5.844 -0.8454 -0.0574  0.1635
  459MOL0     C63234   7.310   8.596   5.977 -1.0197  1.1137 -0.1247
  459MOL0     O63235   7.416   8.678   5.979 -0.2933 -0.7357  0.4039
  459MOL0     C63236   7.461   8.733   6.096 -0.1011 -0.4790  0.0710
  459MOL0     C63237   7.557   8.665   6.163 -0.0290  0.1375 -0.6224
  459MOL0     C63238   7.614   8.715   6.289  0.4835 -0.1852  0.2238
  459MOL0     C63239   7.572   8.838   6.341 -0.4436  1.0229  0.1295
  459MOL0     O63240   7.616   8.904   6.455 -0.2167 -0.0425  0.2639
  459MOL0     C63241   7.513   8.913   6.555  1.2104  0.0883 -0.5418
  459MOL0     C63242   7.593   8.896   6.685  0.6338  0.2606 -0.0393
  459MOL0     C63243   7.643   9.034   6.746  0.5776  0.1935  0.4204
  459MOL0     C63244   7.517   9.111   6.782  0.2348 -0.9365  0.1294
  459MOL0     C63245   7.535   9.219   6.893 -0.4167  0.4351  0.5420
  459MOL0     C63246   7.641   9.328   6.861  0.6565  0.6001  0.7213
  459MOL0     C63247   7.615   9.450   6.948  0.5652  0.0733  0.5978
  459MOL0     C63248   7.684   9.568   6.900  0.0557  0.8866  0.2201
  459MOL0    Cl63249   7.742   9.684   7.023 -0.9002  0.2315  0.3925
  459MOL0     C63250   7.476   8.905   6.260  1.2767 -0.6197  0.2647
  459MOL0     C63251   7.422   8.854   6.142  0.7267  0.5917  0.0031
  459MOL0     O63252   7.258   8.551   6.080  0.2017 -0.1185  0.9958
  459MOL0     C63253   7.266   8.664   5.733 -0.0206 -0.3381 -0.3440
  459MOL0     C63254   7.208   8.633   5.608 -0.6857  0.3043  0.7107
  459MOL0     N63255   7.517   8.424   5.045 -0.2735  0.3722 -0.1145
  459MOL0     N63256   7.571   8.531   4.992  0.5559 -0.0660 -0.5933
  459MOL0     C63257   7.642   8.365   5.486 -0.1274 -0.5639  0.0509
  459MOL0     C63258   7.614   8.240   5.542  0.4272 -0.2138  0.2356
  459MOL0     C63259   7.476   7.887   5.791 -0.6090 -0.8639  0.4715
  459MOL0     C63260   7.461   7.904   5.929 -0.2447  0.5259  0.5439
  459MOL0     C63261   7.435   7.783   6.003 -0.2359 -0.2037 -0.0524
  459MOL0     C63262   7.432   7.658   5.945 -0.0919  0.6776 -0.1425
  459MOL0     O63263   7.406   7.542   6.015 -0.7279 -0.0678 -0.1407
  459MOL0     C63264   7.267   7.529   6.043  0.2205 -0.5894  0.0168
  459MOL0     C63265   7.204   7.465   5.921 -0.4259  0.9210  1.2828
  459MOL0     C63266   7.259   7.320   5.888  0.5540 -0.5423  0.2681
  459MOL0     C63267   7.212   7.267   5.751 -0.0132  0.2015  0.8240
  459MOL0     C63268   7.074   7.281   5.721 -0.5445 -0.7999 -0.2219
  459MOL0     C63269   6.953   7.308   5.725  0.7210  0.4998 -0.0122
  459MOL0     C63270   7.465   7.643   5.814 -0.6994 -1.0146  0.9445
  459MOL0     C63271   7.478   7.759   5.726 -0.8651 -1.4165 -0.1574
  459MOL0     C63272   7.511   7.726   5.573 -0.3928  0.1627 -0.1094
  459MOL0     H63273   7.589   8.334   5.870 -0.3753 -2.0531  0.2161
  459MOL0     H63274   7.613   8.558   5.767 -1.8171  0.1549  0.9474
  459MOL0     H63275   7.647   8.592   5.340 -0.6020 -0.8944  0.3881
  459MOL0     H63276   7.740   8.737   5.389  0.8855  1.0436  4.4890
  459MOL0     H63277   7.451   8.657   5.447  1.0642 -0.3497  1.1955
  459MOL0     H63278   7.512   8.815   5.506 -2.3599  1.8751 -3.0186
  459MOL0     H63279   7.450   8.701   5.241 -0.3335 -0.2219  0.3772
  459MOL0     H63280   7.389   8.851   5.322  0.7582  0.3162  0.8095
  459MOL0     H63281   7.631   8.971   5.280  2.5192  0.5075 -2.4570
  459MOL0     H63282   7.655   8.837   5.178  0.1668  0.4444  0.5604
  459MOL0     H63283   7.557   9.053   5.075  0.7259  0.3150  2.3980
  459MOL0     H63284   7.420   9.040   5.175 -1.2162 -1.0694 -1.3164
  459MOL0     H63285   7.373   8.809   5.044  2.0841 -1.5125 -1.8870
  459MOL0     H63286   7.358   8.971   4.941  3.0009  3.7146  1.4823
  459MOL0     H63287   7.614   8.825   4.961 -0.0345  0.5812 -0.6201
  459MOL0     H63288   7.535   8.903   4.816 -0.1673 -2.4563 -1.9087
  459MOL0     H63289   7.371   8.752   4.803  0.6407  1.0326  0.3191
  459MOL0     H63290   7.526   8.680   4.762  2.0242 -2.9600  3.6710
  459MOL0     H63291   7.242   8.566   4.968 -0.3767 -0.7795  3.6387
  459MOL0     H63292   7.282   8.256   5.093  1.2573  0.6622 -2.4359
  459MOL0     H63293   7.194   8.402   5.142  0.7684  0.8552 -0.7249
  459MOL0     H63294   7.428   8.283   5.279 -1.4181 -2.7342  0.7937
  459MOL0     H63295   7.353   8.436   5.330 -0.1645 -0.6733  0.9701
  459MOL0     H63296   7.199   8.174   5.307 -1.3903  0.1208 -0.9430
  459MOL0     H63297   7.262   8.216   5.455  0.6665  0.0827  0.2341
  459MOL0     H63298   7.040   8.349   5.312 -0.6605 -4.1078 -0.6972
  459MOL0     H63299   7.022   8.301   5.471 -2.0478 -0.3262 -2.5027
  459MOL0     H63300   7.121   8.309   5.670  2.3766 -0.8193 -0.5220
  459MOL0     H63301   7.326   8.304   5.962 -1.0271 -0.1331  0.4759
  459MOL0     H63302   7.194   8.223   5.854 -1.3353  0.3049 -1.3827
  459MOL0     H63303   7.160   8.319   5.999  3.1610 -0.0996  2.6798
  459MOL0     H63304   7.603   8.579   6.116  3.6836 -0.0701  2.8987
  459MOL0     H63305   7.686   8.648   6.336  1.9095  2.5296  2.1892
  459MOL0     H63306   7.484   9.018   6.552  1.2472  0.0703 -2.1103
  459MOL0     H63307   7.436   8.837   6.538  1.4672 -1.1166  2.7972
  459MOL0     H63308   7.524   8.851   6.758 -0.0421  0.6633 -0.4206
  459MOL0     H63309   7.676   8.826   6.675  2.2322  1.9104  1.1602
  459MOL0     H63310   7.713   9.082   6.677  0.7000 -0.6153 -0.0269
  459MOL0     H63311   7.696   9.018   6.840  1.0221  1.3907  0.3989
  459MOL0     H63312   7.427   9.052   6.805 -1.3679  0.7975 -1.3259
  459MOL0     H63313   7.483   9.166   6.694  1.4394 -0.3768  0.0045
  459MOL0     H63314   7.433   9.259   6.889 -1.4147 -1.9670 -0.2338
  459MOL0     H63315   7.551   9.175   6.991  1.3787 -2.8581 -1.0748
  459MOL0     H63316   7.620   9.370   6.762  1.1890 -0.2691  0.2286
  459MOL0     H63317   7.747   9.302   6.864  1.1672  2.0825 -1.6052
  459MOL0     H63318   7.647   9.433   7.052 -3.8209 -0.4965  2.0869
  459MOL0     H63319   7.508   9.468   6.963  0.0804 -1.8980 -0.1228
  459MOL0     H63320   7.633   9.602   6.810 -0.5555 -0.0679  0.1907
  459MOL0     H63321   7.777   9.534   6.853 -1.4738 -1.4753 -1.3580
  459MOL0     H63322   7.432   8.990   6.312  0.8502 -1.8370  2.0065
  459MOL0     H63323   7.349   8.907   6.083  2.7617 -0.0423 -3.3485
  459MOL0     H63324   7.306   8.761   5.758 -2.6305  0.1091  2.8211
  459MOL0     H63325   7.195   8.706   5.529 -1.3919  0.2443  0.7703
  459MOL0     H63326   7.667   8.370   5.381  0.0158  2.0286  0.1366
  459MOL0     H63327   7.618   8.148   5.484 -0.7627  0.3768 -0.8336
  459MOL0     H63328   7.441   7.998   5.980 -0.6700  1.1259 -0.7021
  459MOL0     H63329   7.421   7.792   6.111 -4.2096  1.8002 -0.5486
  459MOL0     H63330   7.255   7.460   6.128 -0.1194  0.0269  0.4799
  459MOL0     H63331   7.216   7.620   6.077  1.5775 -0.8339  3.0650
  459MOL0     H63332   7.221   7.521   5.828 -1.6051 -0.7736 -0.0263
  459MOL0     H63333   7.096   7.459   5.931 -0.6750  1.2012 -0.7081
  459MOL0     H63334   7.368   7.319   5.891  0.6060  1.4687  3.1183
  459MOL0     H63335   7.232   7.253   5.970  1.3622 -3.7105 -1.8578
  459MOL0     H63336   7.229   7.159   5.754 -0.2331  0.0910 -0.9988
  459MOL0     H63337   7.268   7.324   5.677  0.7215  0.9999  1.9692
  459MOL0     H63338   6.848   7.329   5.727  0.5741 -0.2726  0.9085
  459MOL0     H63339   7.447   7.549   5.763  0.4092  0.8412 -3.3346
  459MOL0     H63340   7.602   7.664   5.571 -1.4274 -1.4148 -0.4771
  459MOL0     H63341   7.420   7.678   5.537  0.1862  0.2385 -1.7442
  459MOL0     H63342   7.523   7.810   5.504  0.4850 -2.0799 -2.9052
  460MOL0     O63343   2.117   2.880   6.354 -0.5702 -0.3658 -0.1635
  460MOL0     C63344   2.104   2.878   6.481 -0.1356 -0.1863 -0.7146
  460MOL0     O63345   2.188   2.943   6.561  0.2324  0.5762 -0.3887
  460MOL0     C63346   2.289   3.018   6.505  0.5654 -0.7941  0.6828
  460MOL0     C63347   2.273   3.155   6.475  0.8823 -0.1928  0.1127
  460MOL0     C63348   2.376   3.223   6.408  0.0489  0.2627  0.0654
  460MOL0     C63349   2.504   3.164   6.395 -1.0914  0.0060  0.3251
  460MOL0     O63350   2.612   3.234   6.343  0.5389  0.5187 -0.4143
  460MOL0     C63351   2.600   3.380   6.343 -0.7011 -0.2863  0.0251
  460MOL0     C63352   2.727   3.429   6.272 -0.8904 -0.0615 -0.0009
  460MOL0     C63353   2.858   3.359   6.332 -1.0998 -0.4557  0.6483
  460MOL0     C63354   2.979   3.384   6.237 -0.6373  0.1404 -0.3294
  460MOL0     C63355   3.101   3.289   6.260 -0.5125 -0.3506  0.4971
  460MOL0     C63356   3.171   3.325   6.388 -0.3978 -0.0381 -0.4843
  460MOL0     C63357   3.293   3.249   6.410 -0.2421  0.8397  0.3145
  460MOL0     C63358   3.384   3.301   6.519 -0.0935  0.3574 -0.4135
  460MOL0     N63359   3.355   3.246   6.643  0.1058 -0.0951 -1.1113
  460MOL0     C63360   3.384   3.120   6.689  0.2712  0.2823  0.2142
  460MOL0     C63361   3.336   3.115   6.813 -0.4570  0.3380  0.2447
  460MOL0     C63362   3.343   3.003   6.905  0.1628  0.2258 -0.5301
  460MOL0     C63363   3.485   3.004   6.968 -0.2543 -0.8645  0.5653
  460MOL0     C63364   3.512   2.886   7.056 -0.5897  0.4738  0.9404
  460MOL0     C63365   3.417   2.888   7.176  0.1290 -1.0276  0.1512
  460MOL0     O63366   3.458   2.815   7.296  0.4445 -0.0767  0.2541
  460MOL0     C63367   3.369   2.760   7.386  0.2101  0.3174 -1.4640
  460MOL0     C63368   3.409   2.681   7.495  0.9277 -0.2088 -0.0329
  460MOL0     C63369   3.326   2.648   7.603 -0.4995 -0.9719  0.1082
  460MOL0     C63370   3.391   2.568   7.714  0.2474 -0.3096  1.2474
  460MOL0     C63371   3.193   2.687   7.594  0.2819  0.0995  1.2283
  460MOL0     C63372   3.093   2.652   7.697  0.6752  0.2450  0.0867
  460MOL0     O63373   3.127   2.573   7.798  1.0076  0.5022  0.1654
  460MOL0     C63374   3.076   2.581   7.927  0.4814  0.3065 -0.1319
  460MOL0     C63375   2.933   2.592   7.959 -0.4623  0.6316  0.0905
  460MOL0     C63376   2.889   2.594   8.095  0.8423 -0.1015  0.5725
  460MOL0     C63377   2.983   2.595   8.201  0.3157 -0.0473 -0.0606
  460MOL0     O63378   2.923   2.601   8.322  0.4646  0.2855  0.0655
  460MOL0     C63379   2.988   2.567   8.439 -1.1188  0.4669 -0.2560
  460MOL0     C63380   2.934   2.650   8.561  0.3762 -0.7924 -0.7392
  460MOL0     C63381   2.949   2.564   8.697  0.4616  1.5456  0.0746
  460MOL0     C63382   3.101   2.572   8.752 -0.0711  0.1942 -0.9093
  460MOL0     C63383   3.091   2.609   8.900  0.8491 -0.3660 -0.5930
  460MOL0     C63384   3.222   2.624   8.984 -0.3797  0.6983 -0.2975
  460MOL0     C63385   3.330   2.514   8.982 -1.3454  0.6034 -0.4767
  460MOL0     C63386   3.477   2.559   8.968  0.3511 -0.4164 -0.3240
  460MOL0    Cl63387   3.503   2.624   8.794  0.0642 -0.3512 -0.6233
  460MOL0     C63388   3.118   2.593   8.172 -0.2183  0.0510  0.2128
  460MOL0     C63389   3.163   2.590   8.035 -0.1226 -0.3640  0.1280
  460MOL0     O63390   2.976   2.696   7.680 -0.1084 -0.8698 -1.2188
  460MOL0     C63391   3.148   2.758   7.482  0.3683 -0.1332  0.2540
  460MOL0     C63392   3.232   2.789   7.379 -0.4450 -0.4366  0.1399
  460MOL0     N63393   3.271   3.236   6.849  0.1820  0.2309 -0.0039
  460MOL0     N63394   3.279   3.306   6.741 -0.4590 -0.9148  0.2518
  460MOL0     C63395   2.520   3.033   6.428 -0.5724  0.2916  0.7137
  460MOL0     C63396   2.412   2.958   6.480 -0.6548  1.0137  0.5221
  460MOL0     C63397   1.983   2.813   6.549  0.6933  0.6411  0.3652
  460MOL0     C63398   1.940   2.692   6.486 -0.4118 -1.4034  0.4630
  460MOL0     C63399   1.843   2.616   6.535 -0.1547 -0.4738  0.3157
  460MOL0     C63400   1.776   2.648   6.654  1.3937 -0.8329 -0.6004
  460MOL0     O63401   1.674   2.582   6.714  0.3247 -0.2860 -0.8940
  460MOL0     C63402   1.625   2.447   6.686  0.4894  0.5112  0.5282
  460MOL0     C63403   1.718   2.336   6.733 -0.4686 -0.1887  0.0458
  460MOL0     C63404   1.748   2.293   6.880 -1.0487  0.1968  0.7937
  460MOL0     C63405   1.856   2.184   6.903 -0.0845  0.3326  0.5588
  460MOL0     C63406   1.886   2.190   7.044  0.4934 -0.7954  0.5067
  460MOL0     C63407   1.905   2.182   7.167  0.0272 -0.2358 -0.5202
  460MOL0     C63408   1.815   2.769   6.714 -0.6577  0.7407  0.5924
  460MOL0     C63409   1.920   2.849   6.670 -0.6457  1.2437 -0.7594
  460MOL0     C63410   1.955   2.974   6.754 -0.8606 -0.2934 -0.7833
  460MOL0     H63411   2.182   3.214   6.474 -0.0490 -1.5588 -1.4743
  460MOL0     H63412   2.361   3.328   6.385 -1.4979  0.1496  0.4125
  460MOL0     H63413   2.590   3.425   6.442  1.3268 -2.2300  1.1904
  460MOL0     H63414   2.516   3.420   6.284  0.2302 -1.7729 -2.4985
  460MOL0     H63415   2.716   3.396   6.168 -0.6309  0.8979 -0.3381
  460MOL0     H63416   2.726   3.538   6.263 -0.8764 -0.0046  0.6483
  460MOL0     H63417   2.893   3.387   6.432  0.2307 -1.2771  0.4411
  460MOL0     H63418   2.852   3.251   6.342  1.3236 -0.6233  0.9362
  460MOL0     H63419   2.948   3.367   6.134 -0.1035 -1.1704 -0.2960
  460MOL0     H63420   3.013   3.488   6.249  2.2758 -0.8220  0.7494
  460MOL0     H63421   3.167   3.275   6.174 -1.1524 -1.7105  0.2060
  460MOL0     H63422   3.062   3.193   6.292  0.5834 -1.0928 -0.3153
  460MOL0     H63423   3.188   3.432   6.400 -1.6881  0.1147  0.1776
  460MOL0     H63424   3.104   3.297   6.470  2.6473 -0.6712  1.9488
  460MOL0     H63425   3.346   3.273   6.317 -1.9486 -1.4668 -1.3565
  460MOL0     H63426   3.277   3.142   6.421 -1.4603  1.0183  0.4677
  460MOL0     H63427   3.487   3.286   6.484 -0.8665 -0.6940 -2.3826
  460MOL0     H63428   3.364   3.408   6.527  0.6129  0.3605  2.5320
  460MOL0     H63429   3.447   3.046   6.639 -0.2346  0.0983 -0.1566
  460MOL0     H63430   3.318   2.917   6.843 -1.5270  0.9037 -0.8475
  460MOL0     H63431   3.269   3.014   6.984  1.1294  1.1735  0.2855
  460MOL0     H63432   3.556   3.005   6.884  0.0982  0.3587  0.8481
  460MOL0     H63433   3.502   3.097   7.023  0.3438 -0.5447 -0.1334
  460MOL0     H63434   3.491   2.798   6.994  0.4801  1.9401 -1.6480
  460MOL0     H63435   3.617   2.898   7.083  0.8288  1.3864 -3.9201
  460MOL0     H63436   3.390   2.991   7.203  0.9108 -1.0617  1.1005
  460MOL0     H63437   3.324   2.845   7.136 -0.5050 -2.4393  2.9141
  460MOL0     H63438   3.513   2.650   7.487  0.5422 -1.2468 -1.4823
  460MOL0     H63439   3.364   2.463   7.698  2.5161 -0.7622 -0.0320
  460MOL0     H63440   3.363   2.608   7.812 -0.1132  0.4904  0.8290
  460MOL0     H63441   3.499   2.567   7.697  0.1449 -3.5794  0.0670
  460MOL0     H63442   2.856   2.594   7.883  0.3995  3.3775 -0.8142
  460MOL0     H63443   2.781   2.582   8.093  0.8262 -0.9415  3.0519
  460MOL0     H63444   2.972   2.461   8.463  0.6873  0.2836  0.2790
  460MOL0     H63445   3.097   2.565   8.428 -1.2450 -1.6455 -1.9226
  460MOL0     H63446   2.982   2.747   8.574  1.3051 -1.3923  0.5082
  460MOL0     H63447   2.830   2.677   8.543  0.9548  0.6491 -2.1551
  460MOL0     H63448   2.919   2.459   8.695 -0.4352  1.7712  0.8020
  460MOL0     H63449   2.884   2.619   8.767 -0.5784 -1.5327  1.7254
  460MOL0     H63450   3.162   2.644   8.696  1.8411 -2.3834 -2.3463
  460MOL0     H63451   3.143   2.473   8.731 -0.3317 -0.1891  0.3239
  460MOL0     H63452   3.034   2.701   8.907 -1.3774 -1.4698 -2.9001
  460MOL0     H63453   3.024   2.538   8.951  0.4860 -1.6751 -2.7930
  460MOL0     H63454   3.187   2.658   9.082 -1.8836  0.3609 -0.6960
  460MOL0     H63455   3.269   2.712   8.938 -1.0362  0.9151 -0.5601
  460MOL0     H63456   3.306   2.455   8.893 -3.0866 -0.4347  0.6068
  460MOL0     H63457   3.324   2.462   9.078  1.5169 -0.6900 -0.9007
  460MOL0     H63458   3.546   2.475   8.985  0.7551  0.0384  0.3386
  460MOL0     H63459   3.509   2.628   9.046 -1.4499  1.8042 -1.4518
  460MOL0     H63460   3.192   2.595   8.251 -1.3876  0.9470  1.3297
  460MOL0     H63461   3.270   2.599   8.020  0.0352 -1.4247  0.4970
  460MOL0     H63462   3.044   2.790   7.476  0.8948  2.0952  1.9156
  460MOL0     H63463   3.187   2.844   7.297 -5.1686 -2.4124  1.0956
  460MOL0     H63464   2.612   2.976   6.433 -0.9367 -0.2025  4.4306
  460MOL0     H63465   2.430   2.855   6.510 -4.1633  0.8815  2.7856
  460MOL0     H63466   1.987   2.661   6.393 -0.7706  0.5913 -0.4284
  460MOL0     H63467   1.816   2.537   6.466  1.2375  0.3511 -1.2364
  460MOL0     H63468   1.539   2.418   6.747 -0.1637  0.3168 -0.4597
  460MOL0     H63469   1.585   2.429   6.585  2.7459 -0.6405 -0.2127
  460MOL0     H63470   1.814   2.355   6.684 -0.2806  0.9219  0.8072
  460MOL0     H63471   1.684   2.246   6.682 -0.8704  1.9118 -3.7309
  460MOL0     H63472   1.776   2.383   6.934  0.6013  0.4495 -0.4079
  460MOL0     H63473   1.653   2.264   6.926 -2.7421  1.2748 -1.7502
  460MOL0     H63474   1.942   2.208   6.839 -0.6135  0.8201  0.0192
  460MOL0     H63475   1.820   2.089   6.863  1.2839  0.2254 -0.5163
  460MOL0     H63476   1.929   2.174   7.271  2.6023  2.6488 -0.7316
  460MOL0     H63477   1.744   2.797   6.791 -1.0157  2.1327 -0.2168
  460MOL0     H63478   1.924   2.967   6.859  0.4156 -3.3383 -0.5027
  460MOL0     H63479   2.063   2.992   6.758 -1.2116  2.1029 -0.4448
  460MOL0     H63480   1.918   3.065   6.705 -1.1559  1.0189  1.6786
  461MOL0     O63481   7.597   0.091   0.389  0.3802 -0.0597 -0.6295
  461MOL0     C63482   7.580   0.134   0.509  0.1138  0.3383  0.0230
  461MOL0     O63483   7.572   0.059   0.623 -0.3196 -0.7112 -0.0155
  461MOL0     C63484   7.577  -0.078   0.615  0.9701 -0.0061 -0.6215
  461MOL0     C63485   7.669  -0.139   0.701  0.1420 -0.1297 -0.4845
  461MOL0     C63486   7.687  -0.279   0.704 -0.1426 -0.2809 -0.8758
  461MOL0     C63487   7.616  -0.360   0.618  0.0927 -0.3418 -0.1130
  461MOL0     O63488   7.616  -0.505   0.629 -0.4926 -0.2235  0.0226
  461MOL0     C63489   7.683  -0.557   0.515  0.1760  0.0097  0.0388
  461MOL0     C63490   7.727  -0.696   0.564  0.3229  0.5307  0.4387
  461MOL0     C63491   7.619  -0.792   0.592  0.3502  0.3331  0.8951
  461MOL0     C63492   7.645  -0.949   0.575 -0.5719  0.5381  0.8196
  461MOL0     C63493   7.762  -1.003   0.654  0.1455  0.3857 -0.0651
  461MOL0     C63494   7.833  -1.121   0.581  1.3243 -0.7713 -0.8729
  461MOL0     C63495   7.744  -1.228   0.515 -0.0683 -0.7777 -0.1797
  461MOL0     C63496   7.821  -1.346   0.447 -0.2805 -0.4714  0.0251
  461MOL0     N63497   7.713  -1.451   0.419 -0.8392 -0.7030  0.1622
  461MOL0     C63498   7.640  -1.441   0.310 -0.1973  0.3526 -0.8024
  461MOL0     C63499   7.542  -1.533   0.330  1.3067  0.9209 -0.3811
  461MOL0     C63500   7.427  -1.566   0.233 -0.8449  0.5032  1.0815
  461MOL0     C63501   7.301  -1.519   0.282 -0.5437 -0.3722  0.2372
  461MOL0     C63502   7.202  -1.551   0.177  0.4631 -0.1751 -0.2198
  461MOL0     C63503   7.072  -1.480   0.214 -0.3631 -0.1196  0.4082
  461MOL0     O63504   7.080  -1.342   0.225 -0.1661 -0.0159  0.1482
  461MOL0     C63505   6.961  -1.275   0.250  1.0855 -0.3139 -0.6468
  461MOL0     C63506   6.972  -1.135   0.258  0.1139  0.4681  0.1378
  461MOL0     C63507   6.868  -1.048   0.295  1.3764  0.1769  0.2639
  461MOL0     C63508   6.899  -0.903   0.298  0.8297  0.8312 -0.2745
  461MOL0     C63509   6.740  -1.111   0.318  0.1977  0.7159 -0.0395
  461MOL0     C63510   6.624  -1.036   0.355 -0.0908  1.1650  0.5731
  461MOL0     O63511   6.535  -1.088   0.451 -1.1923 -0.0840 -0.2859
  461MOL0     C63512   6.435  -1.007   0.501  0.4495  0.5799  1.3145
  461MOL0     C63513   6.322  -1.071   0.557 -0.6664  0.1928 -0.4965
  461MOL0     C63514   6.227  -1.009   0.632  0.0092  0.3577 -0.1293
  461MOL0     C63515   6.249  -0.873   0.658  0.7893  0.2502  0.1203
  461MOL0     O63516   6.167  -0.791   0.732  0.5083  0.0345  0.2200
  461MOL0     C63517   6.019  -0.799   0.718  1.2285  0.2900 -0.0701
  461MOL0     C63518   5.969  -0.661   0.694 -0.2395 -0.5006  0.6416
  461MOL0     C63519   5.812  -0.657   0.668 -0.0147 -0.1757  0.1312
  461MOL0     C63520   5.720  -0.707   0.780 -0.6182  0.7615  0.3620
  461MOL0     C63521   5.764  -0.693   0.926  0.1022 -0.6647 -0.6448
  461MOL0     C63522   5.666  -0.743   1.037  0.4043  0.6723  0.9090
  461MOL0     C63523   5.717  -0.742   1.178  0.0478  0.1060  0.6538
  461MOL0     C63524   5.828  -0.643   1.210  0.0034 -0.8011  0.3860
  461MOL0    Cl63525   5.768  -0.478   1.200  0.3775 -0.0645 -0.0147
  461MOL0     C63526   6.363  -0.803   0.621 -0.0329 -0.0736  0.0396
  461MOL0     C63527   6.449  -0.869   0.537  0.1331  0.7672  0.2887
  461MOL0     O63528   6.607  -0.933   0.301  0.2381  0.7676 -0.2768
  461MOL0     C63529   6.736  -1.250   0.301  0.2392  0.1054 -0.2658
  461MOL0     C63530   6.838  -1.331   0.274 -0.2088 -0.1114  0.6355
  461MOL0     N63531   7.572  -1.609   0.440 -0.4430  1.0995  0.1395
  461MOL0     N63532   7.668  -1.557   0.500  0.2988 -0.0164  0.4959
  461MOL0     C63533   7.518  -0.301   0.526 -0.3935 -0.5324 -0.4766
  461MOL0     C63534   7.506  -0.161   0.522 -0.2673 -0.4605  0.0426
  461MOL0     C63535   7.547   0.274   0.529 -0.1107  1.0076  0.9664
  461MOL0     C63536   7.434   0.302   0.607 -0.8136 -0.4285  0.5292
  461MOL0     C63537   7.383   0.433   0.599  0.2552  0.6612 -0.0903
  461MOL0     C63538   7.440   0.531   0.530 -0.2110 -0.2468  0.2476
  461MOL0     O63539   7.395   0.664   0.518 -0.5597 -0.1410  1.1347
  461MOL0     C63540   7.361   0.714   0.647 -0.6558 -0.6461  0.0798
  461MOL0     C63541   7.337   0.864   0.649 -0.3109 -0.6304 -1.4320
  461MOL0     C63542   7.466   0.950   0.644 -0.1054  0.7506  0.4558
  461MOL0     C63543   7.447   1.089   0.598  0.4569  0.5187  0.0842
  461MOL0     C63544   7.379   1.181   0.690 -0.9576  0.3722 -0.7314
  461MOL0     C63545   7.348   1.258   0.774  0.1156 -0.9726 -0.5033
  461MOL0     C63546   7.558   0.504   0.469 -0.9154 -0.1614 -0.4757
  461MOL0     C63547   7.619   0.382   0.468 -0.0343  0.0887  0.5327
  461MOL0     C63548   7.743   0.347   0.382 -0.5405  1.1064  0.1561
  461MOL0     H63549   7.730  -0.069   0.757 -1.2490  1.7011 -1.1241
  461MOL0     H63550   7.748  -0.341   0.770 -1.5200 -0.8367 -0.0836
  461MOL0     H63551   7.768  -0.496   0.481 -0.5503  1.6755  1.0552
  461MOL0     H63552   7.620  -0.576   0.428  0.3386 -1.9846  0.3058
  461MOL0     H63553   7.796  -0.749   0.498  2.5682  3.0105  0.6274
  461MOL0     H63554   7.785  -0.698   0.657 -2.5621 -3.7792  2.4616
  461MOL0     H63555   7.607  -0.774   0.699  1.4016  0.6331  0.9794
  461MOL0     H63556   7.536  -0.767   0.526  2.0564  2.8050 -0.5133
  461MOL0     H63557   7.554  -0.997   0.611 -0.1195  0.2038  1.5395
  461MOL0     H63558   7.663  -0.973   0.470 -0.4728  1.7230  0.5441
  461MOL0     H63559   7.716  -1.060   0.736 -3.0480 -1.6488 -2.9793
  461MOL0     H63560   7.832  -0.924   0.682 -1.3346  1.0583  1.9223
  461MOL0     H63561   7.885  -1.068   0.500 -3.2017  4.4385 -0.9463
  461MOL0     H63562   7.903  -1.165   0.652  1.7071  0.9350 -0.1379
  461MOL0     H63563   7.677  -1.185   0.439 -1.4907  0.2741  1.6006
  461MOL0     H63564   7.683  -1.266   0.597 -0.8070  0.1810 -0.2681
  461MOL0     H63565   7.884  -1.335   0.358  0.5375 -2.4720  0.3072
  461MOL0     H63566   7.899  -1.381   0.514  3.0554  2.6902 -1.8778
  461MOL0     H63567   7.642  -1.371   0.226  0.2111  0.3028 -0.8367
  461MOL0     H63568   7.427  -1.674   0.221 -1.3511  0.4898  1.2169
  461MOL0     H63569   7.457  -1.524   0.136 -0.6059 -2.2167 -0.1220
  461MOL0     H63570   7.272  -1.564   0.378  0.7878 -4.4965 -1.1417
  461MOL0     H63571   7.311  -1.410   0.296  0.6753 -0.6777  2.1226
  461MOL0     H63572   7.229  -1.516   0.077  1.4269 -1.7353 -0.5248
  461MOL0     H63573   7.191  -1.660   0.174  3.9024 -0.5932 -1.3381
  461MOL0     H63574   6.988  -1.514   0.152  0.6220 -3.5008  0.6979
  461MOL0     H63575   7.045  -1.500   0.317 -1.1142  1.0055  0.4451
  461MOL0     H63576   7.072  -1.095   0.252  1.9633 -3.6639 -0.4754
  461MOL0     H63577   7.002  -0.881   0.268  2.2678 -3.0994  1.1947
  461MOL0     H63578   6.876  -0.867   0.398  0.1622  1.0603 -0.5028
  461MOL0     H63579   6.843  -0.833   0.235 -0.3604 -0.3116 -0.5211
  461MOL0     H63580   6.333  -1.173   0.520  5.6309  0.6897 -1.0599
  461MOL0     H63581   6.140  -1.068   0.659  0.2136  0.1289  0.0375
  461MOL0     H63582   5.993  -0.870   0.640  0.4347 -2.0373  2.1706
  461MOL0     H63583   5.972  -0.843   0.807 -1.9461 -0.6132 -2.0554
  461MOL0     H63584   5.988  -0.602   0.784 -1.6214  1.2619 -0.1611
  461MOL0     H63585   6.009  -0.617   0.602 -4.0330 -0.0430 -0.9638
  461MOL0     H63586   5.788  -0.705   0.573  1.3219  2.8644 -1.9202
  461MOL0     H63587   5.789  -0.553   0.642  0.1131 -0.1517  0.1099
  461MOL0     H63588   5.714  -0.814   0.761  0.7186  0.2813  2.3571
  461MOL0     H63589   5.619  -0.666   0.772 -0.2551  1.7291  0.4920
  461MOL0     H63590   5.865  -0.734   0.936  1.5921  2.5155 -1.3681
  461MOL0     H63591   5.778  -0.586   0.939 -3.4174 -0.2662  1.0094
  461MOL0     H63592   5.646  -0.846   1.006  0.4860  0.8257  0.3399
  461MOL0     H63593   5.585  -0.670   1.039 -0.2043  0.7891 -5.9706
  461MOL0     H63594   5.752  -0.837   1.219  0.2670  0.1756  0.6329
  461MOL0     H63595   5.643  -0.721   1.256  2.7207 -0.1902  3.4706
  461MOL0     H63596   5.920  -0.655   1.152  1.4461 -0.7228  2.5859
  461MOL0     H63597   5.855  -0.643   1.315 -0.0019  1.8911  0.4404
  461MOL0     H63598   6.379  -0.700   0.649  0.4702 -0.3456  0.7657
  461MOL0     H63599   6.531  -0.804   0.510  1.4069 -1.3138 -1.1037
  461MOL0     H63600   6.646  -1.307   0.324  1.1211 -1.2675 -0.0636
  461MOL0     H63601   6.823  -1.437   0.261  0.3803 -0.0469 -0.6946
  461MOL0     H63602   7.450  -0.363   0.469 -1.7294  0.0596  0.4185
  461MOL0     H63603   7.432  -0.116   0.456 -2.0898  1.3718  3.0496
  461MOL0     H63604   7.384   0.232   0.673 -1.3757  0.9810  1.6627
  461MOL0     H63605   7.291   0.444   0.655  0.8636  1.2719  0.8309
  461MOL0     H63606   7.276   0.659   0.688  0.8529 -0.6727  3.5569
  461MOL0     H63607   7.439   0.685   0.718 -2.2610 -1.9585  1.3900
  461MOL0     H63608   7.306   0.874   0.753  3.5342  3.3072 -0.3734
  461MOL0     H63609   7.253   0.890   0.583 -1.4939  0.9279  0.5762
  461MOL0     H63610   7.483   0.956   0.752  1.7515 -2.0916  0.4328
  461MOL0     H63611   7.554   0.907   0.595  0.4859  0.5732  1.6210
  461MOL0     H63612   7.413   1.080   0.494 -1.5925 -2.2298  0.8853
  461MOL0     H63613   7.547   1.130   0.583 -0.7151  3.2194 -1.1049
  461MOL0     H63614   7.293   1.299   0.857 -0.3311 -3.2691  0.4318
  461MOL0     H63615   7.597   0.587   0.410 -0.3182  0.7723  1.1736
  461MOL0     H63616   7.704   0.297   0.293  0.4354 -0.1004  0.3649
  461MOL0     H63617   7.794   0.441   0.357  1.4113 -0.3969 -2.0170
  461MOL0     H63618   7.807   0.278   0.438  0.0443  1.6272  0.1451
  462MOL0     O63619   2.775   4.355   3.552 -0.2971  0.0409  0.2466
  462MOL0     C63620   2.700   4.448   3.535 -0.4959  0.1548  0.2686
  462MOL0     O63621   2.721   4.577   3.566 -1.0219 -0.3124 -0.4924
  462MOL0     C63622   2.652   4.664   3.480  0.7816 -0.5144  0.1153
  462MOL0     C63623   2.521   4.707   3.517  0.4656 -0.1085 -0.2929
  462MOL0     C63624   2.453   4.800   3.437  0.2193 -0.5091  0.4437
  462MOL0     C63625   2.506   4.853   3.322 -0.2142 -0.2873 -0.1581
  462MOL0     O63626   2.416   4.913   3.245 -0.6633 -0.7839  0.1959
  462MOL0     C63627   2.443   4.942   3.109  0.1044 -0.6145 -0.8615
  462MOL0     C63628   2.437   4.821   3.017 -0.6980  0.3994  0.1477
  462MOL0     C63629   2.294   4.761   3.020 -0.2817 -1.0111  0.9540
  462MOL0     C63630   2.280   4.651   2.925 -0.7835 -0.4797 -0.1450
  462MOL0     C63631   2.336   4.520   2.988 -0.1722  0.1417 -0.6881
  462MOL0     C63632   2.274   4.390   2.931  0.2177  0.2131 -0.2602
  462MOL0     C63633   2.303   4.377   2.783 -0.4640  0.8253 -0.8593
  462MOL0     C63634   2.231   4.250   2.727 -0.9815  0.0492 -0.2986
  462MOL0     N63635   2.312   4.126   2.744 -0.5858 -0.6157 -0.5469
  462MOL0     C63636   2.387   4.058   2.644  0.2645 -0.7090 -0.7527
  462MOL0     C63637   2.424   3.944   2.713  0.2551 -0.5054 -0.2372
  462MOL0     C63638   2.522   3.834   2.675  0.6963  0.9759 -0.8432
  462MOL0     C63639   2.650   3.857   2.761  1.1367  1.0722 -0.2898
  462MOL0     C63640   2.751   3.760   2.698 -0.2657  0.2477  0.3975
  462MOL0     C63641   2.878   3.745   2.782  0.8368 -0.4060 -0.1593
  462MOL0     O63642   2.822   3.668   2.884  0.4992 -0.3018  0.1868
  462MOL0     C63643   2.901   3.625   2.987  0.3750 -1.2996  0.2001
  462MOL0     C63644   2.818   3.595   3.087  0.0785  0.0471 -0.4038
  462MOL0     C63645   2.865   3.535   3.205 -0.1701  0.2671 -0.5524
  462MOL0     C63646   2.772   3.516   3.311 -0.0050 -0.8060 -0.3927
  462MOL0     C63647   3.004   3.489   3.211  0.1643  0.3458 -0.4114
  462MOL0     C63648   3.064   3.432   3.331 -0.1340  0.0162  0.2579
  462MOL0     O63649   3.195   3.457   3.356 -0.7132 -0.0541  0.5975
  462MOL0     C63650   3.256   3.414   3.471 -0.5061 -0.0506 -0.4911
  462MOL0     C63651   3.390   3.386   3.464 -0.9323  1.0992 -0.2648
  462MOL0     C63652   3.451   3.313   3.567  0.2611  0.2324 -0.0982
  462MOL0     C63653   3.378   3.301   3.692  0.0411 -0.1153  0.0365
  462MOL0     O63654   3.445   3.229   3.781 -0.5129  1.0378 -0.1980
  462MOL0     C63655   3.374   3.181   3.900  0.2005  0.3772  0.5780
  462MOL0     C63656   3.373   3.293   4.012 -0.5829  0.0713  0.1288
  462MOL0     C63657   3.361   3.240   4.150 -0.1249  0.0214 -0.9514
  462MOL0     C63658   3.232   3.154   4.192 -0.6937 -1.0317 -1.3138
  462MOL0     C63659   3.276   3.087   4.333  0.4883  0.6398 -0.6991
  462MOL0     C63660   3.153   3.062   4.416 -1.0450 -0.3869 -0.5201
  462MOL0     C63661   3.189   2.987   4.550 -0.6539  0.0417  0.0335
  462MOL0     C63662   3.080   2.927   4.640  0.3224 -0.5929 -0.0589
  462MOL0    Cl63663   3.006   2.788   4.557 -0.3529 -0.2683 -0.3262
  462MOL0     C63664   3.252   3.364   3.709 -0.3238  0.1346 -0.3289
  462MOL0     C63665   3.191   3.409   3.595 -0.5045  0.6042 -0.1583
  462MOL0     O63666   2.995   3.351   3.390 -0.4958 -0.0612  0.1527
  462MOL0     C63667   3.085   3.513   3.096  0.4439  0.1344 -0.3052
  462MOL0     C63668   3.036   3.588   2.988 -1.6818  0.1435 -0.8852
  462MOL0     N63669   2.373   3.951   2.839 -0.5977  0.3914  0.0591
  462MOL0     N63670   2.313   4.059   2.860 -0.3119  0.0664 -0.7929
  462MOL0     C63671   2.644   4.823   3.296 -0.7056 -0.9412 -0.1800
  462MOL0     C63672   2.714   4.741   3.380 -0.8958  0.1466  0.8186
  462MOL0     C63673   2.557   4.400   3.509 -1.4215 -0.2379 -0.1707
  462MOL0     C63674   2.471   4.374   3.617  0.5178 -0.0389 -0.3205
  462MOL0     C63675   2.341   4.326   3.591 -0.0192 -0.4332 -0.2668
  462MOL0     C63676   2.295   4.296   3.468  0.7700  0.1105  0.8495
  462MOL0     O63677   2.170   4.239   3.457 -0.7347  0.0770  0.1531
  462MOL0     C63678   2.087   4.312   3.363 -0.0534 -0.1300 -0.3850
  462MOL0     C63679   2.065   4.217   3.243 -0.3113 -0.4222 -0.1720
  462MOL0     C63680   1.966   4.276   3.143  0.6066 -0.0439  0.4345
  462MOL0     C63681   1.933   4.177   3.029 -0.2759 -0.1532  0.5416
  462MOL0     C63682   1.874   4.251   2.918 -0.0981 -0.3512  0.8624
  462MOL0     C63683   1.825   4.332   2.840  0.0182 -0.5501 -0.2264
  462MOL0     C63684   2.382   4.325   3.359  0.7682  0.1846  0.6531
  462MOL0     C63685   2.507   4.385   3.377  0.3399 -0.0528  0.2942
  462MOL0     C63686   2.600   4.400   3.266  0.3907 -0.0843 -0.4177
  462MOL0     H63687   2.470   4.655   3.598 -2.6260  1.6671 -0.9608
  462MOL0     H63688   2.358   4.836   3.473  0.4179  2.6180 -1.7430
  462MOL0     H63689   2.537   4.999   3.100 -0.4638  1.2541  2.9073
  462MOL0     H63690   2.367   5.014   3.076 -1.4853 -1.4945  0.7216
  462MOL0     H63691   2.469   4.853   2.918  1.2590 -1.7700 -0.0109
  462MOL0     H63692   2.515   4.749   3.044  0.9936  2.3160  0.6955
  462MOL0     H63693   2.264   4.738   3.123 -3.1160 -0.6778  0.2691
  462MOL0     H63694   2.229   4.839   2.981  3.8179  1.8244 -1.0131
  462MOL0     H63695   2.174   4.646   2.898  0.1639 -0.8405 -4.5154
  462MOL0     H63696   2.314   4.668   2.823 -1.4891  0.2445 -0.2763
  462MOL0     H63697   2.320   4.523   3.096  0.5535 -0.3563 -0.5626
  462MOL0     H63698   2.444   4.518   2.969  0.2228 -5.2564  0.5601
  462MOL0     H63699   2.330   4.311   2.982 -0.8255  0.8437  1.9795
  462MOL0     H63700   2.165   4.391   2.946  0.1377 -1.3808 -0.5278
  462MOL0     H63701   2.410   4.364   2.762 -0.7223 -1.5504 -1.0343
  462MOL0     H63702   2.258   4.462   2.732 -2.0376  0.2927 -0.4439
  462MOL0     H63703   2.138   4.230   2.781 -0.4228  0.6176  0.9199
  462MOL0     H63704   2.210   4.266   2.621  1.3815  2.1055 -0.5305
  462MOL0     H63705   2.415   4.086   2.543 -0.7381 -0.5387 -0.9871
  462MOL0     H63706   2.548   3.833   2.569  4.5571 -0.3279 -0.0384
  462MOL0     H63707   2.487   3.733   2.696  0.7292  0.2719 -3.7666
  462MOL0     H63708   2.689   3.959   2.750 -1.0154  1.9897  0.1051
  462MOL0     H63709   2.634   3.840   2.868  0.2881  0.2132 -0.5370
  462MOL0     H63710   2.708   3.661   2.680  1.8038 -0.2211 -2.6419
  462MOL0     H63711   2.780   3.788   2.596 -0.3838  1.1695  0.6065
  462MOL0     H63712   2.953   3.686   2.727  1.4846 -2.5923  2.7968
  462MOL0     H63713   2.916   3.842   2.814 -1.6603  0.4115  0.5054
  462MOL0     H63714   2.713   3.618   3.074 -0.4128 -1.2075  1.0083
  462MOL0     H63715   2.813   3.552   3.406  0.0018  1.1014 -1.0690
  462MOL0     H63716   2.753   3.410   3.330  0.7332 -0.7952  0.5021
  462MOL0     H63717   2.675   3.565   3.299 -0.8168 -0.2672  5.5034
  462MOL0     H63718   3.429   3.408   3.366 -0.8280 -0.8070 -0.6873
  462MOL0     H63719   3.545   3.263   3.548 -0.3370  0.3919 -4.5379
  462MOL0     H63720   3.271   3.155   3.873 -0.4872  3.1538  0.2450
  462MOL0     H63721   3.436   3.095   3.926  1.2812  1.2410  0.9143
  462MOL0     H63722   3.464   3.352   3.995 -1.3059  0.6295 -2.1079
  462MOL0     H63723   3.287   3.356   3.989 -0.5361  0.3360  0.6701
  462MOL0     H63724   3.391   3.324   4.213 -0.1824  0.1771 -1.1326
  462MOL0     H63725   3.444   3.168   4.149 -0.1862 -0.0698 -0.2195
  462MOL0     H63726   3.221   3.074   4.119 -2.0234 -0.3723 -1.8732
  462MOL0     H63727   3.142   3.216   4.206 -0.2350 -0.6103 -0.0413
  462MOL0     H63728   3.329   2.994   4.314  0.2730  0.6446 -1.3729
  462MOL0     H63729   3.340   3.148   4.397 -1.7113 -0.8316  3.2938
  462MOL0     H63730   3.086   3.004   4.351 -1.4787  0.1220 -0.5357
  462MOL0     H63731   3.094   3.147   4.451 -0.0615  0.7630 -1.5379
  462MOL0     H63732   3.248   3.053   4.614 -1.2165  1.5654 -0.9597
  462MOL0     H63733   3.250   2.906   4.510 -2.0162  0.2098 -2.5872
  462MOL0     H63734   2.999   2.999   4.659  0.9586 -0.4799  2.7197
  462MOL0     H63735   3.126   2.900   4.735 -1.9736 -0.0442  1.2982
  462MOL0     H63736   3.197   3.340   3.799  0.5612 -1.8571 -0.2730
  462MOL0     H63737   3.085   3.430   3.610 -0.4239 -0.0324  1.4217
  462MOL0     H63738   3.180   3.462   3.103 -1.2391 -3.0595  3.2688
  462MOL0     H63739   3.088   3.595   2.893 -0.6028 -0.7969 -0.3756
  462MOL0     H63740   2.702   4.862   3.213 -0.2254 -1.9241 -0.3193
  462MOL0     H63741   2.812   4.707   3.350 -1.4019 -0.5900 -0.0843
  462MOL0     H63742   2.508   4.368   3.719  3.0742 -3.1466 -1.2704
  462MOL0     H63743   2.293   4.292   3.683 -0.9135 -2.9836 -1.5897
  462MOL0     H63744   1.994   4.339   3.414 -0.5016 -3.4950  0.7994
  462MOL0     H63745   2.130   4.405   3.325 -1.4166  0.3889 -0.6983
  462MOL0     H63746   2.021   4.121   3.273 -0.2101 -0.8117 -1.2032
  462MOL0     H63747   2.157   4.189   3.190 -0.3232  0.5266 -0.7134
  462MOL0     H63748   1.874   4.317   3.186 -0.8708 -2.4842 -0.1944
  462MOL0     H63749   2.004   4.367   3.097 -4.3988  0.8787 -2.6364
  462MOL0     H63750   1.855   4.111   3.070 -0.0473 -0.6756  0.1464
  462MOL0     H63751   2.015   4.114   2.993 -1.8737 -1.3654 -1.1721
  462MOL0     H63752   1.783   4.401   2.770  2.8520  0.9681 -0.5976
  462MOL0     H63753   2.349   4.275   3.268  2.7422 -1.4152  0.7567
  462MOL0     H63754   2.673   4.320   3.247 -1.1221 -1.4017 -0.8612
  462MOL0     H63755   2.546   4.404   3.171 -0.3581  1.3153  0.0361
  462MOL0     H63756   2.647   4.499   3.266  0.2040  0.2324 -5.3210
  463MOL0     O63757   5.178   3.890  11.552 -0.5764  0.3724  0.0328
  463MOL0     C63758   5.083   3.882  11.634  1.1595  0.5728  0.1108
  463MOL0     O63759   5.029   3.781  11.698 -0.0118  0.5959 -0.2739
  463MOL0     C63760   5.076   3.659  11.665 -0.0429  0.5392  0.2023
  463MOL0     C63761   5.204   3.613  11.666 -0.7575  0.5650  0.4449
  463MOL0     C63762   5.234   3.480  11.638  0.1045 -1.4446  0.1245
  463MOL0     C63763   5.135   3.389  11.611 -0.0099  0.9089 -0.5287
  463MOL0     O63764   5.170   3.253  11.592 -0.5143  0.2335 -0.3900
  463MOL0     C63765   5.282   3.208  11.671  0.0401  0.2102 -0.2087
  463MOL0     C63766   5.281   3.060  11.656  0.5213 -1.1773  0.2039
  463MOL0     C63767   5.156   2.990  11.694  0.0292  0.3758  0.8513
  463MOL0     C63768   5.176   2.837  11.701  0.4646  0.1399  0.3515
  463MOL0     C63769   5.045   2.766  11.699  0.3032 -0.4984  0.5056
  463MOL0     C63770   5.068   2.609  11.699  0.4414 -0.6296 -0.2345
  463MOL0     C63771   5.096   2.537  11.834  0.5968  0.0448  0.2380
  463MOL0     C63772   5.107   2.384  11.820  0.3060  1.2454 -0.5190
  463MOL0     N63773   5.152   2.311  11.939  0.0460  0.0368  0.1596
  463MOL0     C63774   5.277   2.283  11.981  0.0552 -0.5121 -0.0163
  463MOL0     C63775   5.263   2.185  12.079 -0.1848 -0.6338  0.4346
  463MOL0     C63776   5.364   2.121  12.168 -0.1981  0.3197  0.1740
  463MOL0     C63777   5.305   1.999  12.242 -0.2555  0.5931  0.2594
  463MOL0     C63778   5.309   1.876  12.152  0.2243 -0.1454 -0.6994
  463MOL0     C63779   5.409   1.760  12.200 -0.6761 -1.0529 -0.6102
  463MOL0     O63780   5.382   1.644  12.128  0.0473 -0.4879 -0.3167
  463MOL0     C63781   5.258   1.592  12.126 -0.3545  0.5503 -0.0730
  463MOL0     C63782   5.158   1.611  12.225 -0.6028  0.5740  0.4634
  463MOL0     C63783   5.040   1.539  12.208  0.3044  0.4246  1.0360
  463MOL0     C63784   4.937   1.551  12.315  0.3970 -0.1295  0.0659
  463MOL0     C63785   5.003   1.454  12.093 -0.9476 -0.3912 -0.2411
  463MOL0     C63786   4.878   1.385  12.079 -0.8389 -0.4274  0.7528
  463MOL0     O63787   4.845   1.371  11.941  0.3211 -0.8503  0.1247
  463MOL0     C63788   4.730   1.316  11.899  0.1330  0.5891 -0.2218
  463MOL0     C63789   4.749   1.227  11.788  0.1877  0.6891 -0.4019
  463MOL0     C63790   4.650   1.147  11.720  0.4934  0.5515  0.2593
  463MOL0     C63791   4.524   1.159  11.769  0.5045 -0.3313  0.2147
  463MOL0     O63792   4.432   1.074  11.717  0.2600 -0.7006 -0.1437
  463MOL0     C63793   4.288   1.104  11.705  0.2584 -0.1152  0.3674
  463MOL0     C63794   4.227   0.993  11.627  1.0745 -0.5793  0.1855
  463MOL0     C63795   4.078   1.020  11.629 -0.5121 -0.3144  0.4195
  463MOL0     C63796   3.966   0.922  11.587 -0.6366 -0.8099  0.3171
  463MOL0     C63797   3.840   1.005  11.598  0.0163  0.7832 -1.2255
  463MOL0     C63798   3.709   0.935  11.563 -0.5011 -0.2290  0.1266
  463MOL0     C63799   3.687   0.881  11.412  0.0507 -0.7134  0.0333
  463MOL0     C63800   3.534   0.834  11.382 -0.2523  0.2417  0.0588
  463MOL0    Cl63801   3.480   0.695  11.464  0.4464  0.3272 -0.2259
  463MOL0     C63802   4.492   1.263  11.862  0.1791  0.6585 -0.2292
  463MOL0     C63803   4.588   1.344  11.924 -0.5417  0.2418  0.7676
  463MOL0     O63804   4.840   1.321  12.172 -0.0767 -0.0962  0.1394
  463MOL0     C63805   5.107   1.451  11.997  0.6038  0.5917 -0.6138
  463MOL0     C63806   5.229   1.519  12.012  0.1471  0.8548  0.0425
  463MOL0     N63807   5.128   2.172  12.097  0.2649 -0.1794 -1.2506
  463MOL0     N63808   5.066   2.245  12.018 -0.5910 -0.8440 -0.0456
  463MOL0     C63809   5.001   3.424  11.616 -0.1955  0.3787 -0.7529
  463MOL0     C63810   4.968   3.559  11.654 -0.4694 -0.7776  0.5148
  463MOL0     C63811   5.006   4.005  11.651  0.6217 -0.1054  0.4913
  463MOL0     C63812   5.081   4.120  11.688  0.6836 -0.3992 -0.6486
  463MOL0     C63813   5.017   4.245  11.716 -0.5135  0.6589  1.7078
  463MOL0     C63814   4.879   4.256  11.706 -1.2069  0.2119  0.1399
  463MOL0     O63815   4.817   4.368  11.751  0.3623  0.2519  0.1738
  463MOL0     C63816   4.750   4.355  11.880  0.1656 -0.5432  0.1582
  463MOL0     C63817   4.608   4.336  11.869 -0.7850  1.0760  0.4811
  463MOL0     C63818   4.516   4.463  11.849  1.3164 -0.1129 -0.5110
  463MOL0     C63819   4.392   4.465  11.950 -0.1250  0.5533 -0.0532
  463MOL0     C63820   4.424   4.460  12.098  0.2620 -0.3149  0.6135
  463MOL0     C63821   4.475   4.460  12.213 -0.0679 -0.0150 -0.6096
  463MOL0     C63822   4.804   4.132  11.686 -0.6511  0.0098 -0.0291
  463MOL0     C63823   4.871   4.012  11.658 -0.9434 -0.2858 -0.1762
  463MOL0     C63824   4.760   3.911  11.635  0.8791  0.4544 -0.4106
  463MOL0     H63825   5.285   3.681  11.689  1.2746 -1.8485  0.8485
  463MOL0     H63826   5.342   3.466  11.643  0.4421  0.3851 -0.8428
  463MOL0     H63827   5.252   3.243  11.771 -1.6548  2.4234 -1.3872
  463MOL0     H63828   5.377   3.255  11.646 -0.3678  1.5107  0.5673
  463MOL0     H63829   5.304   3.024  11.555  2.0692 -3.8377  1.4075
  463MOL0     H63830   5.362   3.028  11.721  0.6239 -1.9189 -0.2758
  463MOL0     H63831   5.103   3.024  11.783 -1.5129 -1.1215  0.5464
  463MOL0     H63832   5.073   2.986  11.623  0.3104  0.5427  0.5125
  463MOL0     H63833   5.237   2.803  11.617 -0.3979 -0.4806 -0.0351
  463MOL0     H63834   5.225   2.825  11.798  0.5841  3.8992  0.9040
  463MOL0     H63835   5.000   2.785  11.601 -0.6153  1.4711  1.2499
  463MOL0     H63836   4.970   2.808  11.767 -0.9103  0.4280 -1.3274
  463MOL0     H63837   4.977   2.566  11.657  0.4880  0.6329 -1.6908
  463MOL0     H63838   5.153   2.587  11.634  0.4095 -0.4917 -0.3209
  463MOL0     H63839   5.015   2.544  11.907 -0.4418  0.6265 -0.9424
  463MOL0     H63840   5.185   2.579  11.881  0.5500 -0.8924  1.2219
  463MOL0     H63841   5.010   2.344  11.791  0.1745  1.2617 -0.1005
  463MOL0     H63842   5.190   2.359  11.752  0.4840 -4.6164  1.3238
  463MOL0     H63843   5.371   2.332  11.954  0.1041 -0.2648  0.5799
  463MOL0     H63844   5.418   2.192  12.232  1.8113  2.1101 -3.2185
  463MOL0     H63845   5.439   2.089  12.095 -0.5361  2.2157 -1.0860
  463MOL0     H63846   5.375   1.975  12.322  1.2220  1.3812 -0.7339
  463MOL0     H63847   5.207   2.013  12.289 -0.5759  4.3084 -1.1788
  463MOL0     H63848   5.204   1.846  12.155  0.5609 -1.7205 -2.4538
  463MOL0     H63849   5.331   1.914  12.052 -2.1927  1.5298 -0.6991
  463MOL0     H63850   5.501   1.799  12.155 -0.0931  0.3241  1.6088
  463MOL0     H63851   5.433   1.753  12.307  0.8817  1.0603 -0.7498
  463MOL0     H63852   5.170   1.636  12.330 -1.1082  2.2534  0.1486
  463MOL0     H63853   4.936   1.463  12.379 -1.6094 -1.2710 -1.4319
  463MOL0     H63854   4.832   1.561  12.284  0.6356 -0.8950 -1.0495
  463MOL0     H63855   4.960   1.638  12.377 -0.9199 -0.0115  0.4246
  463MOL0     H63856   4.852   1.233  11.754  1.5206  0.5484  3.1796
  463MOL0     H63857   4.690   1.082  11.643  3.8528  3.9173 -1.1075
  463MOL0     H63858   4.240   1.136  11.798  0.9898 -0.1267  0.7621
  463MOL0     H63859   4.265   1.185  11.636 -2.2694 -0.9717  0.0803
  463MOL0     H63860   4.264   0.986  11.524 -0.5348 -3.6583 -0.3067
  463MOL0     H63861   4.251   0.904  11.687 -0.4839 -3.5493 -3.2464
  463MOL0     H63862   4.073   1.109  11.565 -1.6293 -2.4475 -2.7026
  463MOL0     H63863   4.043   1.037  11.731 -1.6549  1.0971 -0.1728
  463MOL0     H63864   3.975   0.831  11.648  2.1802 -3.1326 -3.1519
  463MOL0     H63865   3.983   0.884  11.486  1.2398  0.3831  0.1558
  463MOL0     H63866   3.828   1.051  11.696  1.3570 -1.7530  0.2258
  463MOL0     H63867   3.853   1.079  11.518 -3.1070 -0.5791 -3.2129
  463MOL0     H63868   3.633   1.013  11.579 -0.6539 -0.3870  0.1746
  463MOL0     H63869   3.677   0.856  11.631 -5.0188 -0.1437 -1.5821
  463MOL0     H63870   3.747   0.791  11.395 -0.8105 -1.0070 -1.6754
  463MOL0     H63871   3.719   0.960  11.344 -4.4941  2.2112  0.8565
  463MOL0     H63872   3.516   0.808  11.277 -2.9264  2.3199 -0.1133
  463MOL0     H63873   3.468   0.917  11.409  1.8961  1.4778  1.8536
  463MOL0     H63874   4.395   1.286  11.904  1.8033  5.3134  1.5415
  463MOL0     H63875   4.574   1.417  12.003 -1.3523  2.3691 -1.2454
  463MOL0     H63876   5.074   1.421  11.898  3.3942  0.5142 -1.6217
  463MOL0     H63877   5.305   1.521  11.934 -0.6744  4.2950 -0.8189
  463MOL0     H63878   4.934   3.339  11.604  1.9994 -1.3452 -1.4604
  463MOL0     H63879   4.865   3.591  11.645 -0.8229 -1.8686  0.5501
  463MOL0     H63880   5.188   4.121  11.706  0.2228 -1.2386  2.8085
  463MOL0     H63881   5.071   4.331  11.755  3.1301 -1.4406  1.6902
  463MOL0     H63882   4.796   4.275  11.938  0.3138 -1.9011 -1.7092
  463MOL0     H63883   4.770   4.445  11.939  3.7087  1.0529 -3.0266
  463MOL0     H63884   4.595   4.293  11.969 -1.4157 -0.3006 -0.1676
  463MOL0     H63885   4.562   4.256  11.810 -2.7062 -0.8595  4.2755
  463MOL0     H63886   4.579   4.551  11.860 -1.8429  2.1181  1.3236
  463MOL0     H63887   4.483   4.452  11.745  1.3041  2.0222 -0.7692
  463MOL0     H63888   4.328   4.378  11.931 -1.0397  0.8465  1.4644
  463MOL0     H63889   4.314   4.536  11.922 -1.0854 -0.5460 -0.2404
  463MOL0     H63890   4.527   4.457  12.306 -1.1046  1.5723  0.0520
  463MOL0     H63891   4.696   4.140  11.700 -0.6535  1.8668 -0.8142
  463MOL0     H63892   4.806   3.814  11.614  1.8421  1.2984 -2.6320
  463MOL0     H63893   4.686   3.909  11.715 -2.3036  2.6184 -3.0410
  463MOL0     H63894   4.714   3.934  11.538 -1.0925  4.9310  1.2783
  464MOL0     O63895   4.840   0.839  11.524  0.6878 -0.0598 -0.2911
  464MOL0     C63896   4.804   0.777  11.628  0.1310  0.6018 -0.2971
  464MOL0     O63897   4.882   0.749  11.733  0.6590 -0.6716 -0.2888
  464MOL0     C63898   4.995   0.819  11.741 -0.7581 -0.1415  0.0228
  464MOL0     C63899   4.995   0.956  11.733  0.8826  0.4955 -0.5994
  464MOL0     C63900   5.106   1.033  11.747 -0.1644 -0.2802  0.3804
  464MOL0     C63901   5.233   0.976  11.771  1.0018  0.7725  1.1905
  464MOL0     O63902   5.338   1.059  11.774 -0.6968  0.3300 -0.5289
  464MOL0     C63903   5.423   1.036  11.888 -0.0436  0.4908 -0.4316
  464MOL0     C63904   5.553   1.117  11.879 -0.1702 -0.0223 -0.6440
  464MOL0     C63905   5.522   1.272  11.900 -0.2807  0.2761 -0.2292
  464MOL0     C63906   5.651   1.366  11.869  0.7481  0.3107 -0.2122
  464MOL0     C63907   5.644   1.506  11.931  0.1089  0.2172  0.6179
  464MOL0     C63908   5.767   1.593  11.890 -0.6961 -0.4918  0.9805
  464MOL0     C63909   5.811   1.700  11.992 -1.3690  0.6657 -0.7679
  464MOL0     C63910   5.942   1.771  11.945  0.1276  0.3874  0.6348
  464MOL0     N63911   6.054   1.670  11.944  0.3251 -0.4300  0.7896
  464MOL0     C63912   6.168   1.667  11.855  0.3905 -0.4765 -0.2425
  464MOL0     C63913   6.256   1.580  11.914 -0.3620 -1.1128  0.1972
  464MOL0     C63914   6.398   1.561  11.872 -0.2366 -0.2607 -0.0436
  464MOL0     C63915   6.500   1.647  11.937  0.7852  0.0164  0.8247
  464MOL0     C63916   6.629   1.601  11.880  0.1308  0.1015  1.0744
  464MOL0     C63917   6.746   1.691  11.929  0.3033 -1.3494 -0.5060
  464MOL0     O63918   6.738   1.713  12.073  0.0844 -0.0320 -0.4057
  464MOL0     C63919   6.866   1.720  12.132  0.7671 -0.1411 -0.3038
  464MOL0     C63920   6.948   1.605  12.132 -0.7280  0.1736  0.2836
  464MOL0     C63921   7.076   1.613  12.175  0.1736 -0.0132  0.0210
  464MOL0     C63922   7.152   1.482  12.132 -1.1224 -0.7883  0.2890
  464MOL0     C63923   7.132   1.736  12.214 -0.2099 -0.0872  0.0445
  464MOL0     C63924   7.275   1.750  12.255  0.1790  0.8255  0.4889
  464MOL0     O63925   7.336   1.872  12.254  0.1457 -0.0136  0.3184
  464MOL0     C63926   7.430   1.890  12.353  0.0149 -0.5036  0.6489
  464MOL0     C63927   7.557   1.834  12.339 -0.2743 -0.8011  0.0153
  464MOL0     C63928   7.657   1.865  12.436 -0.3159 -0.4147 -0.2956
  464MOL0     C63929   7.628   1.941  12.550 -0.4077  0.1998  0.4410
  464MOL0     O63930   7.723   1.974  12.647 -1.1809  1.0807  0.3779
  464MOL0     C63931   7.778   1.862  12.718 -0.6077  0.4465  0.8531
  464MOL0     C63932   7.916   1.809  12.686  0.0065 -0.6996  0.2034
  464MOL0     C63933   7.951   1.692  12.776  0.1310 -0.0560 -0.0514
  464MOL0     C63934   8.096   1.657  12.773 -0.3139 -0.7102  0.6092
  464MOL0     C63935   8.123   1.526  12.837 -0.5031  0.7438  0.3110
  464MOL0     C63936   8.278   1.504  12.849  0.5635  0.2900 -0.1900
  464MOL0     C63937   8.304   1.377  12.919  1.4230 -0.2815  0.0702
  464MOL0     C63938   8.451   1.361  12.933 -0.2347  0.0919 -0.0582
  464MOL0    Cl63939   8.479   1.206  13.019  0.2302 -0.4304 -0.2484
  464MOL0     C63940   7.497   1.989  12.562  0.5394  0.3143  0.3717
  464MOL0     C63941   7.405   1.962  12.463  0.7372  0.0619 -1.7633
  464MOL0     O63942   7.328   1.646  12.294  0.3060  0.1766 -0.2453
  464MOL0     C63943   7.045   1.847  12.222  0.9586 -0.2824  0.2151
  464MOL0     C63944   6.912   1.835  12.187 -0.1100 -0.0301  0.4584
  464MOL0     N63945   6.201   1.532  12.027 -0.3887  0.9919 -0.9167
  464MOL0     N63946   6.074   1.579  12.045 -0.2009 -0.1688  0.2725
  464MOL0     C63947   5.235   0.835  11.777  0.0919  0.2868 -0.0060
  464MOL0     C63948   5.123   0.752  11.747  0.2728 -0.6844 -0.7326
  464MOL0     C63949   4.663   0.731  11.635 -0.5664 -0.1329 -0.8336
  464MOL0     C63950   4.615   0.668  11.519  0.1768 -0.2707 -0.4685
  464MOL0     C63951   4.484   0.617  11.516  0.0688  0.5091 -0.9250
  464MOL0     C63952   4.400   0.633  11.629  0.2451  0.3247  0.3102
  464MOL0     O63953   4.272   0.580  11.622 -0.8185  0.7042  0.1738
  464MOL0     C63954   4.192   0.560  11.741 -1.1924 -0.1781  0.5988
  464MOL0     C63955   4.255   0.478  11.855 -0.9731  0.3529  0.2428
  464MOL0     C63956   4.293   0.330  11.815  0.6836  0.1794 -0.5643
  464MOL0     C63957   4.329   0.256  11.947 -0.4539  1.0897  0.4242
  464MOL0     C63958   4.218   0.172  12.000 -0.6866  0.4881 -0.3014
  464MOL0     C63959   4.149   0.078  12.039 -0.2312  0.4362 -0.8507
  464MOL0     C63960   4.450   0.710  11.732 -0.8141  0.2481 -0.9657
  464MOL0     C63961   4.581   0.753  11.749 -0.0348 -0.5607 -0.3190
  464MOL0     C63962   4.620   0.824  11.881  0.5293  0.0990  0.0400
  464MOL0     H63963   4.896   0.999  11.721  1.0118  0.9996  0.0740
  464MOL0     H63964   5.089   1.140  11.739 -1.6119 -0.5725 -0.9453
  464MOL0     H63965   5.459   0.933  11.893  1.4169  1.0314  2.0974
  464MOL0     H63966   5.372   1.062  11.982  2.1152  0.8765  0.6974
  464MOL0     H63967   5.613   1.089  11.966  0.8966  1.7669 -0.7536
  464MOL0     H63968   5.612   1.098  11.790 -0.7099 -1.2591 -0.7497
  464MOL0     H63969   5.434   1.307  11.844 -1.8780 -1.5687  1.0062
  464MOL0     H63970   5.489   1.294  12.002 -1.6467 -2.2546 -0.0271
  464MOL0     H63971   5.738   1.312  11.907  0.6760 -0.3459 -0.9419
  464MOL0     H63972   5.672   1.379  11.762 -1.1714  3.4443 -0.3199
  464MOL0     H63973   5.632   1.509  12.039 -2.9509  1.4330  0.3509
  464MOL0     H63974   5.550   1.560  11.912  0.6254  1.6570  1.9780
  464MOL0     H63975   5.842   1.516  11.906  2.3924  2.3260  1.1423
  464MOL0     H63976   5.759   1.625  11.785 -2.1327 -1.3992  0.7791
  464MOL0     H63977   5.830   1.645  12.084 -3.0333 -2.4743 -2.1569
  464MOL0     H63978   5.731   1.770  12.018 -0.4557  2.1246 -1.7214
  464MOL0     H63979   5.928   1.825  11.851 -1.5057  0.7614  1.0618
  464MOL0     H63980   5.952   1.849  12.021 -2.5739  3.1690 -1.6050
  464MOL0     H63981   6.176   1.746  11.781 -0.4228 -1.1888 -1.1178
  464MOL0     H63982   6.396   1.580  11.764  0.3599  0.6109  0.0883
  464MOL0     H63983   6.424   1.457  11.895  2.3834 -0.3469 -2.7421
  464MOL0     H63984   6.485   1.755  11.928  0.6798 -0.0483  0.1892
  464MOL0     H63985   6.497   1.618  12.042  1.5215 -0.9047  0.6080
  464MOL0     H63986   6.650   1.494  11.893 -0.2795 -0.3223 -1.3037
  464MOL0     H63987   6.633   1.628  11.774 -0.4742  0.7944  1.2202
  464MOL0     H63988   6.847   1.657  11.903  0.9493 -0.4447  0.7400
  464MOL0     H63989   6.736   1.790  11.885  3.7536  1.1603  3.6301
  464MOL0     H63990   6.896   1.515  12.101  2.0988 -1.9619  1.3039
  464MOL0     H63991   7.261   1.495  12.134 -1.2397  0.5747 -0.8524
  464MOL0     H63992   7.128   1.450  12.030 -0.8127  2.2682 -0.8390
  464MOL0     H63993   7.125   1.406  12.206  0.9041 -0.4742  1.4267
  464MOL0     H63994   7.585   1.763  12.261 -0.8094 -0.9985 -0.0012
  464MOL0     H63995   7.759   1.831  12.423  0.0725 -0.0801  1.5543
  464MOL0     H63996   7.786   1.894  12.822  2.7379  2.3777  0.1293
  464MOL0     H63997   7.712   1.775  12.703  0.4317  0.1118 -2.7803
  464MOL0     H63998   7.920   1.775  12.582  1.8097 -0.6346  0.2229
  464MOL0     H63999   7.990   1.889  12.700  0.2471 -1.2386  2.3394
  464MOL0     H64000   7.886   1.610  12.743  0.4621  0.1599 -1.2625
  464MOL0     H64001   7.926   1.723  12.878  3.8722  0.4373  0.8438
  464MOL0     H64002   8.151   1.741  12.816 -0.4948 -0.1066 -0.2990
  464MOL0     H64003   8.126   1.634  12.670 -1.0587 -1.0006  0.4485
  464MOL0     H64004   8.083   1.528  12.939  0.1017 -1.4848  0.6462
  464MOL0     H64005   8.069   1.453  12.776  2.4801 -0.1896 -1.3987
  464MOL0     H64006   8.324   1.581  12.912  0.3949  0.1141  0.1494
  464MOL0     H64007   8.331   1.505  12.754  0.5680 -1.1305 -0.2286
  464MOL0     H64008   8.273   1.291  12.859  5.2418 -0.5064 -1.9159
  464MOL0     H64009   8.250   1.390  13.013  1.7094  2.5643 -0.0922
  464MOL0     H64010   8.499   1.438  12.994 -1.6463  0.1529  1.0529
  464MOL0     H64011   8.495   1.352  12.833 -3.0604 -0.2258 -1.3720
  464MOL0     H64012   7.470   2.049  12.648  2.9519 -0.3339  1.6633
  464MOL0     H64013   7.305   1.995  12.491  0.0372 -3.0143 -0.1987
  464MOL0     H64014   7.073   1.943  12.264  0.7926  0.3572 -1.0857
  464MOL0     H64015   6.831   1.904  12.208  0.1448 -0.7139  4.4692
  464MOL0     H64016   5.325   0.780  11.802 -1.5841 -2.1289  1.2707
  464MOL0     H64017   5.127   0.643  11.748 -0.2733 -0.7012 -0.0320
  464MOL0     H64018   4.678   0.669  11.431  2.6456  1.3240  1.2101
  464MOL0     H64019   4.459   0.565  11.425  2.4791  1.8193 -2.4676
  464MOL0     H64020   4.179   0.659  11.784 -2.5799  1.0769 -2.4325
  464MOL0     H64021   4.089   0.531  11.717 -1.4481  1.2608 -0.1345
  464MOL0     H64022   4.180   0.474  11.935 -1.7080  1.1763 -0.3800
  464MOL0     H64023   4.349   0.527  11.882 -0.6694  0.8502 -1.6150
  464MOL0     H64024   4.210   0.291  11.757 -2.4059  2.0618  2.2471
  464MOL0     H64025   4.389   0.333  11.763  1.6940  0.7799  1.2327
  464MOL0     H64026   4.355   0.326  12.026 -1.2922  0.3986  1.3376
  464MOL0     H64027   4.415   0.189  11.937 -1.5694 -0.2768 -0.4051
  464MOL0     H64028   4.096  -0.012  12.062  4.4486 -2.4141  0.1428
  464MOL0     H64029   4.385   0.738  11.814  0.2370 -0.8208  0.2552
  464MOL0     H64030   4.708   0.888  11.876  0.8956 -0.4341 -0.4469
  464MOL0     H64031   4.536   0.887  11.914  1.5188  2.7300 -2.0439
  464MOL0     H64032   4.636   0.767  11.972  1.2861  2.3339  1.3748
  465MOL0     O64033   9.364   2.404   0.477  0.1129  0.1508 -0.3247
  465MOL0     C64034   9.435   2.353   0.563  1.2976  0.9576  0.9586
  465MOL0     O64035   9.505   2.418   0.655  0.1188 -0.0221 -0.1555
  465MOL0     C64036   9.500   2.554   0.679  0.2057  0.7490  1.1890
  465MOL0     C64037   9.557   2.598   0.803  0.2893  0.7577  0.3581
  465MOL0     C64038   9.588   2.730   0.830 -0.5843  0.2531 -0.1014
  465MOL0     C64039   9.566   2.821   0.726  0.0642 -0.4942 -0.6824
  465MOL0     O64040   9.601   2.956   0.720  0.4036 -0.0584 -0.1595
  465MOL0     C64041   9.695   3.021   0.819  0.6377 -0.2024 -0.7917
  465MOL0     C64042   9.620   3.101   0.924  0.2495 -0.5914 -0.2359
  465MOL0     C64043   9.592   3.248   0.875 -0.5145 -0.2847 -0.5061
  465MOL0     C64044   9.643   3.338   0.984 -0.2546  0.9738  0.2645
  465MOL0     C64045   9.798   3.345   0.988 -0.4855  0.7958  0.3726
  465MOL0     C64046   9.847   3.425   1.104  0.7043  0.0135 -0.4975
  465MOL0     C64047  10.003   3.412   1.106  0.3151 -0.4790  0.0683
  465MOL0     C64048  10.068   3.484   1.214 -0.1970 -0.3270 -0.1862
  465MOL0     N64049  10.089   3.623   1.177 -0.2130 -0.9279  0.4838
  465MOL0     C64050  10.183   3.664   1.087 -0.3178 -0.0152 -0.6994
  465MOL0     C64051  10.146   3.798   1.071 -0.0376  0.8310 -0.2447
  465MOL0     C64052  10.219   3.897   0.976 -1.0260 -0.5552 -0.6030
  465MOL0     C64053  10.226   3.837   0.831  0.1071  0.0344  0.7546
  465MOL0     C64054  10.289   3.933   0.723  0.7314 -1.1838  0.2635
  465MOL0     C64055  10.182   4.005   0.641  0.7443  0.9780  0.4617
  465MOL0     O64056  10.104   4.099   0.721 -0.0779 -0.0933  0.0167
  465MOL0     C64057  10.134   4.234   0.751 -0.3225  0.3653  0.3484
  465MOL0     C64058  10.027   4.315   0.795 -0.5739 -0.4279 -0.5097
  465MOL0     C64059  10.036   4.455   0.827  0.3268  0.2094  0.1610
  465MOL0     C64060   9.918   4.524   0.884  0.7213  0.7707  0.2346
  465MOL0     C64061  10.158   4.509   0.801 -0.4831 -0.4190  0.8820
  465MOL0     C64062  10.172   4.651   0.803 -0.5001 -1.7866  0.1698
  465MOL0     O64063  10.229   4.699   0.910 -0.5505  0.0441  0.2317
  465MOL0     C64064  10.270   4.836   0.909  1.0440 -0.2755  0.3975
  465MOL0     C64065  10.333   4.906   0.801 -0.0276  0.0338  0.1300
  465MOL0     C64066  10.384   5.037   0.837 -0.4744  0.8922 -1.3123
  465MOL0     C64067  10.377   5.094   0.960  0.1742 -0.3646 -0.2012
  465MOL0     O64068  10.410   5.233   0.983  0.1378 -0.2183  0.0811
  465MOL0     C64069  10.518   5.295   0.921 -1.7623 -1.4032  0.1033
  465MOL0     C64070  10.650   5.210   0.935 -0.7264 -0.0878 -0.3505
  465MOL0     C64071  10.773   5.278   0.881 -0.4276 -0.5485  0.4927
  465MOL0     C64072  10.881   5.172   0.908 -0.0819 -0.4254 -0.1784
  465MOL0     C64073  11.006   5.205   0.829 -0.0261 -0.9328  0.1262
  465MOL0     C64074  11.040   5.355   0.820  0.1520 -0.8017  0.2484
  465MOL0     C64075  11.185   5.366   0.782  0.3422 -0.1120 -0.7845
  465MOL0     C64076  11.229   5.511   0.761 -0.7249  0.5024 -0.3737
  465MOL0    Cl64077  11.185   5.563   0.598 -0.2261  0.2286 -0.0895
  465MOL0     C64078  10.321   5.023   1.058 -0.4025 -0.2544 -1.4263
  465MOL0     C64079  10.264   4.896   1.033  0.3432 -0.5934  0.7955
  465MOL0     O64080  10.125   4.718   0.708  0.0800  0.2298 -0.5016
  465MOL0     C64081  10.271   4.430   0.764  0.0216 -0.7419  0.0931
  465MOL0     C64082  10.262   4.296   0.722  0.0613 -0.4427 -0.3295
  465MOL0     N64083  10.050   3.831   1.153 -0.2147  0.0205  0.5384
  465MOL0     N64084  10.017   3.726   1.222 -0.2297 -0.4842  0.4141
  465MOL0     C64085   9.483   2.784   0.618  0.3302  0.5579 -0.6361
  465MOL0     C64086   9.449   2.657   0.597  0.1087  1.0096  0.7314
  465MOL0     C64087   9.462   2.210   0.528 -0.1396  0.7840  0.0029
  465MOL0     C64088   9.598   2.165   0.550 -0.4616 -0.0369  1.3024
  465MOL0     C64089   9.634   2.029   0.545 -0.6292  0.6462  0.1050
  465MOL0     C64090   9.533   1.940   0.499  0.0813 -0.0952  0.6385
  465MOL0     O64091   9.561   1.803   0.492  0.7613  0.2551 -0.0799
  465MOL0     C64092   9.550   1.739   0.362 -0.0033 -0.7991  1.3497
  465MOL0     C64093   9.502   1.589   0.390 -0.0175 -0.2298 -0.2931
  465MOL0     C64094   9.612   1.515   0.453 -0.0781  0.2228  0.6692
  465MOL0     C64095   9.583   1.360   0.462 -0.1541 -0.3086  0.8095
  465MOL0     C64096   9.657   1.306   0.573 -0.6469  0.5938 -0.0619
  465MOL0     C64097   9.731   1.255   0.654  0.5800 -0.3714 -0.6115
  465MOL0     C64098   9.406   1.985   0.461 -0.8387  0.4978  0.3015
  465MOL0     C64099   9.363   2.113   0.488 -0.9189  0.2411 -0.1107
  465MOL0     C64100   9.218   2.152   0.456  0.2848  0.7860 -0.4134
  465MOL0     H64101   9.603   2.530   0.874  0.4903 -1.2485 -1.6182
  465MOL0     H64102   9.621   2.766   0.927 -1.8102  0.0989  0.3972
  465MOL0     H64103   9.774   3.075   0.766  0.4461  0.6464 -0.2107
  465MOL0     H64104   9.752   2.943   0.869 -1.3971 -0.5229  1.1856
  465MOL0     H64105   9.523   3.056   0.947  0.0899 -0.1176  0.0252
  465MOL0     H64106   9.676   3.092   1.018 -1.1918  2.6258  1.0841
  465MOL0     H64107   9.642   3.267   0.780 -0.0488  1.8010  0.1036
  465MOL0     H64108   9.485   3.266   0.881 -0.4659 -0.2177  0.3114
  465MOL0     H64109   9.595   3.436   0.972 -1.8497  0.1095 -0.7945
  465MOL0     H64110   9.605   3.292   1.076  0.6088 -0.1377  0.0784
  465MOL0     H64111   9.832   3.374   0.888 -0.8251 -0.0950 -0.0059
  465MOL0     H64112   9.839   3.243   0.994 -0.7059  0.7360  0.8927
  465MOL0     H64113   9.815   3.530   1.098 -0.1782 -0.0374  2.2725
  465MOL0     H64114   9.808   3.389   1.199  0.0423  2.6396  0.2992
  465MOL0     H64115  10.049   3.451   1.015  1.0971  4.0883  2.1419
  465MOL0     H64116  10.026   3.305   1.117  1.2141 -0.5073 -1.7569
  465MOL0     H64117  10.006   3.487   1.304 -1.4749  2.4463 -1.0515
  465MOL0     H64118  10.161   3.432   1.237  0.9264  1.5568 -0.2195
  465MOL0     H64119  10.255   3.600   1.037 -2.0412 -2.6430 -0.0004
  465MOL0     H64120  10.319   3.929   1.006 -0.1365 -3.2839 -0.3154
  465MOL0     H64121  10.152   3.983   0.986 -1.2091 -0.8362  0.8883
  465MOL0     H64122  10.278   3.741   0.834  2.7921  1.3792 -0.0181
  465MOL0     H64123  10.123   3.815   0.803 -0.9418  1.4935  3.0986
  465MOL0     H64124  10.366   4.002   0.760 -1.0229  1.3322 -0.4915
  465MOL0     H64125  10.355   3.884   0.651  0.6848 -1.6079  0.5099
  465MOL0     H64126  10.240   4.056   0.563 -1.0403  2.0202 -0.2568
  465MOL0     H64127  10.124   3.934   0.582  4.2776 -0.3022 -1.8477
  465MOL0     H64128   9.935   4.260   0.810  0.0015 -1.5751 -0.9882
  465MOL0     H64129   9.873   4.586   0.806 -1.1448 -1.5792 -0.6995
  465MOL0     H64130   9.934   4.582   0.975 -3.2725  0.9493  0.9717
  465MOL0     H64131   9.845   4.448   0.912  1.8635 -0.6649 -0.5092
  465MOL0     H64132  10.343   4.877   0.697  4.6521  1.5949 -0.0668
  465MOL0     H64133  10.427   5.094   0.756  0.6836  1.5552 -0.2650
  465MOL0     H64134  10.504   5.317   0.815  6.5402 -0.8247 -1.5646
  465MOL0     H64135  10.545   5.393   0.962 -1.1298 -1.1691 -0.8427
  465MOL0     H64136  10.659   5.185   1.041 -2.4383 -0.2228 -0.2111
  465MOL0     H64137  10.642   5.119   0.875 -1.0416 -0.4664  0.2647
  465MOL0     H64138  10.779   5.370   0.941 -2.7456  0.8480 -1.2596
  465MOL0     H64139  10.762   5.307   0.777  3.0627  1.9041  0.6458
  465MOL0     H64140  10.855   5.066   0.902 -3.9797  0.4553 -1.5993
  465MOL0     H64141  10.904   5.183   1.014  0.3501 -2.2739 -0.0321
  465MOL0     H64142  11.077   5.140   0.880 -1.6089 -3.3603 -0.5974
  465MOL0     H64143  10.999   5.167   0.727  0.5516 -4.0260  1.1287
  465MOL0     H64144  11.024   5.395   0.921 -1.2668 -6.2603  2.5536
  465MOL0     H64145  10.971   5.403   0.751 -4.6143 -4.6483  1.7596
  465MOL0     H64146  11.205   5.308   0.691 -0.2555  0.0056 -0.9944
  465MOL0     H64147  11.252   5.336   0.864 -0.3871  2.0254  0.6699
  465MOL0     H64148  11.338   5.503   0.764 -0.7999 -0.5698 -0.0207
  465MOL0     H64149  11.182   5.585   0.826 -4.5419  2.6392 -4.9727
  465MOL0     H64150  10.312   5.055   1.161  1.3147  1.7590 -1.8487
  465MOL0     H64151  10.223   4.850   1.123  1.4107 -0.4324  1.3925
  465MOL0     H64152  10.358   4.492   0.745  1.0580 -2.4745 -1.1429
  465MOL0     H64153  10.352   4.245   0.688 -0.4672  0.3463 -3.2044
  465MOL0     H64154   9.463   2.865   0.549 -0.0569 -0.0907 -1.3091
  465MOL0     H64155   9.408   2.638   0.498 -1.0992  3.9207  0.5562
  465MOL0     H64156   9.669   2.240   0.582  0.8481 -1.1500  1.0934
  465MOL0     H64157   9.726   1.977   0.568 -1.9000 -2.4396 -1.2270
  465MOL0     H64158   9.476   1.787   0.297  0.7648 -2.7351 -1.1150
  465MOL0     H64159   9.642   1.747   0.305 -1.4010 -1.2236 -1.0990
  465MOL0     H64160   9.479   1.530   0.301  3.2797  0.0312 -1.4374
  465MOL0     H64161   9.410   1.575   0.448 -2.3127 -1.2911 -3.8869
  465MOL0     H64162   9.705   1.525   0.397 -0.7410 -1.6128 -0.8639
  465MOL0     H64163   9.634   1.555   0.553  1.0043 -2.6750  1.7024
  465MOL0     H64164   9.625   1.320   0.369 -2.7125  1.0448 -1.0391
  465MOL0     H64165   9.478   1.335   0.479  0.1058 -0.5139  2.2202
  465MOL0     H64166   9.798   1.220   0.729 -0.3709  0.4522  0.6686
  465MOL0     H64167   9.329   1.911   0.439  0.6570 -1.5479  1.5748
  465MOL0     H64168   9.178   2.125   0.358  0.0044  1.6992 -0.5622
  465MOL0     H64169   9.155   2.107   0.533  1.0136 -1.2812 -0.9611
  465MOL0     H64170   9.210   2.261   0.454  1.0720  0.8438 -0.8076
  466MOL0     O64171  10.985   4.280   6.385 -0.3521  0.0386  0.8118
  466MOL0     C64172  10.895   4.201   6.372  0.0721  0.1822 -1.0839
  466MOL0     O64173  10.872   4.120   6.262  0.6941  0.1353  0.2308
  466MOL0     C64174  10.965   4.130   6.152  0.6858  0.3166  0.8172
  466MOL0     C64175  11.042   4.024   6.104 -0.4240  1.0729 -0.1684
  466MOL0     C64176  11.128   4.039   5.990  0.1673  0.7918  0.3120
  466MOL0     C64177  11.112   4.154   5.916  0.3167 -0.0758 -0.0323
  466MOL0     O64178  11.182   4.173   5.801  0.5878 -0.1556  0.4524
  466MOL0     C64179  11.242   4.294   5.762  0.6914  0.0103 -0.8233
  466MOL0     C64180  11.395   4.281   5.717  1.1298  1.2391 -0.3004
  466MOL0     C64181  11.408   4.192   5.586  0.4758 -0.3156 -1.2824
  466MOL0     C64182  11.551   4.196   5.523  0.4022 -0.2102 -0.4480
  466MOL0     C64183  11.636   4.085   5.576 -0.2736 -0.0946 -0.9493
  466MOL0     C64184  11.786   4.075   5.521  0.7597  1.0852 -0.0739
  466MOL0     C64185  11.810   4.118   5.381  0.0903 -1.3661 -0.2387
  466MOL0     C64186  11.954   4.143   5.358  0.0880 -0.1157 -0.3599
  466MOL0     N64187  12.058   4.047   5.370  0.8371 -0.4887 -0.3830
  466MOL0     C64188  12.106   4.015   5.497  1.0118  1.5259  0.0713
  466MOL0     C64189  12.155   3.892   5.477  0.0668 -0.3991 -0.9889
  466MOL0     C64190  12.232   3.798   5.567  0.3199 -0.7747  0.0315
  466MOL0     C64191  12.172   3.655   5.579 -0.4686  0.6592 -0.0764
  466MOL0     C64192  12.025   3.650   5.636 -0.1421  0.3102 -0.4336
  466MOL0     C64193  12.014   3.715   5.773 -0.5407 -0.6515  0.5351
  466MOL0     O64194  11.906   3.670   5.861  0.8378 -0.0501 -0.4150
  466MOL0     C64195  11.817   3.760   5.911 -0.7293  0.9978  0.3185
  466MOL0     C64196  11.694   3.704   5.949 -0.2740  1.3501  0.3065
  466MOL0     C64197  11.583   3.776   5.995 -0.6573  0.0950 -0.8016
  466MOL0     C64198  11.438   3.717   5.991  0.0023  0.8110 -0.0900
  466MOL0     C64199  11.602   3.914   6.017 -1.3930 -1.1667  0.0107
  466MOL0     C64200  11.501   4.016   6.068  0.6496 -0.6656  0.1252
  466MOL0     O64201  11.525   4.155   6.073  0.4840 -0.3622 -0.0322
  466MOL0     C64202  11.453   4.257   6.134  0.2770 -0.4261  0.2721
  466MOL0     C64203  11.317   4.248   6.189  0.5114  0.4532  0.1414
  466MOL0     C64204  11.251   4.367   6.210 -1.1041  0.0852 -0.3381
  466MOL0     C64205  11.302   4.497   6.176 -0.4287 -0.2283  0.2470
  466MOL0     O64206  11.248   4.622   6.197  0.6996  0.6797  0.1242
  466MOL0     C64207  11.124   4.617   6.282 -1.3668 -0.1083 -0.2950
  466MOL0     C64208  11.059   4.762   6.283 -0.0112 -0.8353 -0.6285
  466MOL0     C64209  11.144   4.868   6.355 -0.6206  1.0701  0.2201
  466MOL0     C64210  11.132   5.015   6.298 -0.5913  0.4397 -0.1459
  466MOL0     C64211  11.188   5.028   6.157 -0.2236  0.7340  0.0107
  466MOL0     C64212  11.335   5.049   6.164 -1.4870 -0.0036 -0.4164
  466MOL0     C64213  11.404   5.003   6.034 -0.6107  0.2735  0.5697
  466MOL0     C64214  11.557   4.980   6.052  0.7749 -0.6478 -0.5193
  466MOL0    Cl64215  11.652   5.121   6.105  0.1637 -0.1615  0.4029
  466MOL0     C64216  11.431   4.502   6.133 -0.0365  0.3996 -0.1727
  466MOL0     C64217  11.506   4.385   6.109 -0.6584  0.8156  0.7086
  466MOL0     O64218  11.413   3.964   6.138 -0.6239  0.1754 -0.3836
  466MOL0     C64219  11.729   3.973   5.989  0.4078 -0.3047 -0.0196
  466MOL0     C64220  11.833   3.888   5.946 -1.0578 -0.3270  0.3181
  466MOL0     N64221  12.132   3.865   5.347 -0.3310  0.6634 -0.3217
  466MOL0     N64222  12.072   3.957   5.284  0.8909  0.0482  0.4450
  466MOL0     C64223  11.030   4.264   5.965 -1.4612  0.0597  0.4020
  466MOL0     C64224  10.959   4.249   6.083 -0.2596  0.4160  0.4613
  466MOL0     C64225  10.814   4.186   6.502  0.9487 -0.7040 -1.0393
  466MOL0     C64226  10.737   4.060   6.518 -0.3978  0.0297  0.2289
  466MOL0     C64227  10.659   4.035   6.629 -1.0194  0.0250  0.1595
  466MOL0     C64228  10.647   4.129   6.727 -0.7504 -0.1963  0.6187
  466MOL0     O64229  10.566   4.098   6.831  1.0014 -0.2423  0.1762
  466MOL0     C64230  10.550   4.183   6.947 -0.8133 -0.3589 -0.1530
  466MOL0     C64231  10.656   4.147   7.052 -0.0535 -0.5129 -1.0508
  466MOL0     C64232  10.685   4.261   7.155  0.0525 -0.6477  0.3135
  466MOL0     C64233  10.638   4.238   7.295  0.4210  0.3165 -0.6314
  466MOL0     C64234  10.707   4.131   7.376 -0.8785 -0.2209 -0.0617
  466MOL0     C64235  10.761   4.049   7.438 -0.1588  1.1029  0.6611
  466MOL0     C64236  10.721   4.253   6.719  0.4628  0.5452  0.5459
  466MOL0     C64237  10.809   4.283   6.609 -0.1681 -0.3228 -0.2838
  466MOL0     C64238  10.878   4.423   6.601  0.3888  0.8400  1.0177
  466MOL0     H64239  11.047   3.928   6.154 -2.4805  1.1702  0.2859
  466MOL0     H64240  11.194   3.964   5.949 -0.4678  0.0867  0.5361
  466MOL0     H64241  11.260   4.361   5.846  2.8818 -1.4827  0.0217
  466MOL0     H64242  11.175   4.349   5.696 -2.2399 -1.9979  0.2896
  466MOL0     H64243  11.437   4.379   5.688  5.6062 -0.3619 -0.0181
  466MOL0     H64244  11.462   4.242   5.794  1.0835  0.6800 -0.5401
  466MOL0     H64245  11.375   4.089   5.602 -0.5885  0.5070  3.0045
  466MOL0     H64246  11.338   4.226   5.509 -1.2876  1.2436  0.8730
  466MOL0     H64247  11.537   4.175   5.416 -0.8554  0.5217 -0.4576
  466MOL0     H64248  11.584   4.300   5.532  3.0433 -1.1566  2.3509
  466MOL0     H64249  11.600   3.988   5.541  4.6351 -2.9103  0.8202
  466MOL0     H64250  11.638   4.102   5.684  0.0354  2.2601 -1.2577
  466MOL0     H64251  11.853   4.131   5.587  0.9924  0.1337  0.5291
  466MOL0     H64252  11.818   3.970   5.525  2.4049  1.5911  1.7734
  466MOL0     H64253  11.762   4.215   5.362  0.6641  0.0323  4.2576
  466MOL0     H64254  11.761   4.052   5.309 -2.6660 -2.3465  2.2915
  466MOL0     H64255  11.944   4.166   5.251 -1.0346  1.3349  0.0302
  466MOL0     H64256  11.980   4.241   5.398 -0.1544  0.1357 -0.8067
  466MOL0     H64257  12.090   4.067   5.591 -3.6333  1.8612 -0.6445
  466MOL0     H64258  12.215   3.845   5.664 -0.0503  0.0649 -0.4274
  466MOL0     H64259  12.336   3.812   5.536 -0.2103  2.0878 -0.7923
  466MOL0     H64260  12.169   3.603   5.483 -3.1916  0.6044 -0.0531
  466MOL0     H64261  12.233   3.586   5.637  0.8459  1.8856  0.0363
  466MOL0     H64262  11.955   3.702   5.569  0.9066  3.1062  0.4999
  466MOL0     H64263  11.999   3.545   5.653 -1.4695  0.7053  0.0776
  466MOL0     H64264  12.114   3.704   5.817  2.0846 -0.1520 -4.5027
  466MOL0     H64265  11.998   3.820   5.748  0.4177  0.2422  3.3449
  466MOL0     H64266  11.689   3.597   5.932  0.3314  1.3321  0.2206
  466MOL0     H64267  11.387   3.772   5.912 -3.0191  0.5994  1.5697
  466MOL0     H64268  11.383   3.743   6.082 -1.7248 -4.1416  0.5614
  466MOL0     H64269  11.437   3.609   5.977 -4.2244  0.3166  2.4924
  466MOL0     H64270  11.267   4.153   6.205 -0.9548  1.3205  0.8743
  466MOL0     H64271  11.144   4.374   6.223 -0.7120  2.7655  2.4452
  466MOL0     H64272  11.050   4.555   6.230 -0.7880  1.3289 -2.9906
  466MOL0     H64273  11.151   4.576   6.380  1.6772  1.4846 -0.3642
  466MOL0     H64274  11.058   4.801   6.181  1.4098  0.6892 -0.1091
  466MOL0     H64275  10.959   4.756   6.327  1.9515  0.0336  4.6194
  466MOL0     H64276  11.246   4.830   6.352 -1.6250 -1.9500  0.5928
  466MOL0     H64277  11.120   4.859   6.461  0.3033 -0.8543  0.3114
  466MOL0     H64278  11.176   5.089   6.366  1.4311 -1.6909  1.0149
  466MOL0     H64279  11.024   5.028   6.304 -0.5955  0.1892  0.4159
  466MOL0     H64280  11.167   4.938   6.100 -1.0198  1.0881 -0.2669
  466MOL0     H64281  11.146   5.120   6.115 -0.2478 -0.0162 -1.6780
  466MOL0     H64282  11.370   5.000   6.255 -1.5595  2.1824  0.8542
  466MOL0     H64283  11.364   5.152   6.187  1.7550 -0.8834 -0.0975
  466MOL0     H64284  11.400   5.084   5.960 -1.9134 -0.0116  0.3156
  466MOL0     H64285  11.354   4.915   5.994  2.7370 -1.4947 -0.1294
  466MOL0     H64286  11.599   4.933   5.962 -0.9537 -1.1345 -1.1193
  466MOL0     H64287  11.560   4.903   6.130 -2.5768 -1.1876 -0.7479
  466MOL0     H64288  11.469   4.599   6.102 -1.0598  0.0464 -2.8077
  466MOL0     H64289  11.606   4.394   6.066 -0.8900 -1.1354 -0.3292
  466MOL0     H64290  11.739   4.078   6.013 -2.7922 -0.7894  4.8077
  466MOL0     H64291  11.932   3.928   5.926 -1.2607 -0.8985 -2.2184
  466MOL0     H64292  11.024   4.359   5.912 -0.1125  0.0635  0.2103
  466MOL0     H64293  10.913   4.342   6.114 -2.1428 -0.7516  1.3322
  466MOL0     H64294  10.749   3.978   6.447 -0.0581 -0.8886  1.3233
  466MOL0     H64295  10.609   3.939   6.633 -2.4570  0.7722  0.6538
  466MOL0     H64296  10.560   4.287   6.914  4.2744  0.4814  2.8988
  466MOL0     H64297  10.450   4.173   6.990 -1.0855 -2.9837 -1.2159
  466MOL0     H64298  10.751   4.117   7.008 -2.0891 -3.8243 -3.6280
  466MOL0     H64299  10.610   4.065   7.109  0.5510  0.8582  1.5986
  466MOL0     H64300  10.794   4.268   7.142 -0.1450 -0.4670 -1.5075
  466MOL0     H64301  10.652   4.356   7.111  0.5421  0.2812  1.8365
  466MOL0     H64302  10.531   4.215   7.291  0.4506  0.1739 -0.6091
  466MOL0     H64303  10.655   4.327   7.357  2.0610 -0.1246 -0.3985
  466MOL0     H64304  10.818   3.982   7.498 -0.3672  0.8725  0.6024
  466MOL0     H64305  10.709   4.323   6.801 -4.5477  0.5773  0.0803
  466MOL0     H64306  10.854   4.471   6.696 -0.9604 -0.8359  1.5668
  466MOL0     H64307  10.986   4.423   6.584 -0.0546 -1.6287 -3.2059
  466MOL0     H64308  10.830   4.468   6.514 -2.2357 -1.0167  1.3960
  467MOL0     O64309   6.705   2.544   7.116  0.7176  0.0469  0.1939
  467MOL0     C64310   6.744   2.601   7.015  0.3024  0.3980  0.0934
  467MOL0     O64311   6.664   2.634   6.906  0.0261 -0.6178  0.4821
  467MOL0     C64312   6.531   2.616   6.913 -0.0351  0.3779  0.3686
  467MOL0     C64313   6.472   2.560   6.799  0.0739 -0.1549 -0.4704
  467MOL0     C64314   6.331   2.568   6.782 -0.6528 -0.2276  0.4549
  467MOL0     C64315   6.253   2.624   6.888 -0.4047 -0.3048  0.3685
  467MOL0     O64316   6.114   2.632   6.895 -0.2272 -0.1506  0.1323
  467MOL0     C64317   6.030   2.558   6.801 -0.0408 -0.6242  0.2479
  467MOL0     C64318   5.894   2.570   6.868  0.1331  0.5101 -0.2840
  467MOL0     C64319   5.772   2.513   6.782 -0.4764  0.4657 -0.7651
  467MOL0     C64320   5.641   2.503   6.844 -0.1697  0.2206 -0.4426
  467MOL0     C64321   5.515   2.457   6.760  0.1687 -1.0426 -0.9089
  467MOL0     C64322   5.515   2.309   6.736  0.2273  1.4797 -0.1120
  467MOL0     C64323   5.454   2.239   6.847  0.0187 -0.4178  0.0797
  467MOL0     C64324   5.426   2.092   6.797 -0.2791  0.4714  0.6507
  467MOL0     N64325   5.549   2.010   6.790  0.2944  0.3178 -0.4812
  467MOL0     C64326   5.586   1.925   6.890 -0.9112 -0.3555  0.0706
  467MOL0     C64327   5.667   1.834   6.824  0.8646  1.2253 -0.0458
  467MOL0     C64328   5.732   1.710   6.878  0.5425 -0.5502 -0.6618
  467MOL0     C64329   5.867   1.773   6.951 -0.0810 -0.6326 -0.0715
  467MOL0     C64330   5.987   1.700   6.877  0.1385 -0.2475  0.3554
  467MOL0     C64331   6.035   1.788   6.766 -0.0194 -0.2282  0.6022
  467MOL0     O64332   6.158   1.728   6.716 -0.0416 -0.8081  0.0751
  467MOL0     C64333   6.264   1.806   6.660 -0.6544 -0.1082 -0.1032
  467MOL0     C64334   6.249   1.939   6.616  0.1950  0.0893  0.8514
  467MOL0     C64335   6.347   2.005   6.539 -0.8191 -0.9580  0.6301
  467MOL0     C64336   6.304   2.141   6.496  0.7551  0.5569  0.3688
  467MOL0     C64337   6.476   1.937   6.527 -0.0080  0.4495 -0.6051
  467MOL0     C64338   6.584   2.000   6.447 -0.4403  0.3102 -0.0140
  467MOL0     O64339   6.704   1.999   6.507 -0.0099 -0.1395 -0.1249
  467MOL0     C64340   6.794   2.090   6.458  0.8796  0.6181  0.3600
  467MOL0     C64341   6.913   2.048   6.420  0.1435 -0.2327 -0.4448
  467MOL0     C64342   7.017   2.130   6.371 -0.3986 -0.5856 -0.1832
  467MOL0     C64343   7.000   2.273   6.370  0.4177 -1.2204 -0.4376
  467MOL0     O64344   7.083   2.375   6.334 -0.0106  0.3011  0.3669
  467MOL0     C64345   7.196   2.330   6.256  0.3547  0.6920 -0.4010
  467MOL0     C64346   7.317   2.305   6.356 -0.4779  0.0711 -0.4937
  467MOL0     C64347   7.356   2.446   6.418 -1.1582  0.2027  0.0559
  467MOL0     C64348   7.473   2.426   6.516  0.2305 -0.4439  1.0761
  467MOL0     C64349   7.541   2.549   6.570  0.2391  1.2897  0.5413
  467MOL0     C64350   7.638   2.604   6.468 -0.8785 -0.2078  0.4549
  467MOL0     C64351   7.694   2.730   6.520  0.8562 -0.7174  0.2011
  467MOL0     C64352   7.715   2.824   6.402  0.6438 -0.3361 -0.0121
  467MOL0    Cl64353   7.547   2.877   6.356 -0.0787 -0.2426 -0.4108
  467MOL0     C64354   6.881   2.318   6.411 -0.4415  1.2888  0.8485
  467MOL0     C64355   6.774   2.228   6.456  0.5101  0.9529 -1.0283
  467MOL0     O64356   6.557   2.053   6.338  0.5969  0.0837 -0.1895
  467MOL0     C64357   6.501   1.818   6.598  0.2255  0.6378 -0.4925
  467MOL0     C64358   6.397   1.749   6.657 -0.0472 -0.4943 -0.0307
  467MOL0     N64359   5.676   1.876   6.696 -0.1681  0.2503  0.4426
  467MOL0     N64360   5.599   1.977   6.668  0.2585 -0.5567 -0.4438
  467MOL0     C64361   6.310   2.680   6.995  0.1862 -0.1838 -0.3846
  467MOL0     C64362   6.455   2.679   7.007  0.0780  0.1509  0.0290
  467MOL0     C64363   6.882   2.617   6.993  0.1252  0.2491 -0.1328
  467MOL0     C64364   6.933   2.629   6.862  0.2858 -0.0302  0.3196
  467MOL0     C64365   7.069   2.643   6.838  1.2771 -0.6000 -0.2407
  467MOL0     C64366   7.159   2.642   6.945 -0.7334 -0.4135 -0.1673
  467MOL0     O64367   7.296   2.658   6.925 -0.3566  0.1081  0.0292
  467MOL0     C64368   7.391   2.684   7.025  0.4394 -0.3527 -0.1252
  467MOL0     C64369   7.526   2.676   6.960  0.2682 -0.1242  0.0239
  467MOL0     C64370   7.638   2.760   7.023  0.4670  0.5365 -0.2427
  467MOL0     C64371   7.634   2.900   6.954  0.2476 -0.5740 -0.9131
  467MOL0     C64372   7.738   2.916   6.847  0.0509  0.6663  0.4238
  467MOL0     C64373   7.808   2.945   6.745 -0.8536 -0.0707 -0.3026
  467MOL0     C64374   7.110   2.629   7.076 -0.1023 -0.0926  0.0395
  467MOL0     C64375   6.975   2.625   7.100  0.0993  0.4666  0.0472
  467MOL0     C64376   6.935   2.612   7.253 -0.3714 -0.3770  1.0700
  467MOL0     H64377   6.536   2.509   6.728 -2.8940 -2.2762 -1.8593
  467MOL0     H64378   6.280   2.518   6.701 -1.0415 -2.1037  1.7961
  467MOL0     H64379   6.077   2.459   6.796  3.1885  0.8245 -2.1193
  467MOL0     H64380   6.030   2.599   6.699  0.7004 -0.2944  0.3712
  467MOL0     H64381   5.895   2.513   6.962  1.6359 -2.9263 -2.2009
  467MOL0     H64382   5.869   2.674   6.890 -1.8803  0.9965 -4.0320
  467MOL0     H64383   5.771   2.587   6.702 -1.2615  0.9177 -0.3434
  467MOL0     H64384   5.810   2.417   6.746  4.5947  1.1870  1.8898
  467MOL0     H64385   5.657   2.442   6.934  0.8589  0.3429 -0.5370
  467MOL0     H64386   5.616   2.598   6.892 -3.0802  0.1627 -1.6019
  467MOL0     H64387   5.516   2.502   6.660 -4.0924 -2.4367 -1.7709
  467MOL0     H64388   5.419   2.486   6.804  0.5940  0.0330 -0.6446
  467MOL0     H64389   5.443   2.285   6.658 -0.6646 -3.3771  1.8516
  467MOL0     H64390   5.614   2.269   6.711  0.2602  1.8680 -0.6167
  467MOL0     H64391   5.363   2.292   6.875  0.5072  1.6869 -2.0636
  467MOL0     H64392   5.525   2.240   6.931  2.9360 -0.4850 -2.2353
  467MOL0     H64393   5.360   2.054   6.876  0.7317  0.1394  1.3530
  467MOL0     H64394   5.375   2.092   6.700  1.5796  0.8267 -0.3655
  467MOL0     H64395   5.574   1.942   6.996  1.5663 -0.1685  0.3758
  467MOL0     H64396   5.751   1.625   6.811 -0.8165  0.3842 -2.3322
  467MOL0     H64397   5.660   1.660   6.943  1.5867  0.8002  1.6420
  467MOL0     H64398   5.868   1.882   6.947  2.8635 -0.5517  0.9508
  467MOL0     H64399   5.874   1.742   7.056 -0.1202 -1.7138 -0.3722
  467MOL0     H64400   6.074   1.681   6.941  0.6363 -4.0459 -1.2320
  467MOL0     H64401   5.970   1.601   6.836  1.1218  0.0322 -0.7948
  467MOL0     H64402   5.962   1.790   6.685  4.3067 -1.5224 -3.8889
  467MOL0     H64403   6.048   1.891   6.799  2.8396  0.2658 -1.6506
  467MOL0     H64404   6.150   1.981   6.602 -0.4421 -1.4390  0.4835
  467MOL0     H64405   6.236   2.188   6.568  2.1433  1.2464  1.2902
  467MOL0     H64406   6.254   2.125   6.400 -0.7458  3.4496  0.5532
  467MOL0     H64407   6.382   2.213   6.470 -1.1403  1.7717 -2.5405
  467MOL0     H64408   6.927   1.941   6.436  1.8083  0.0604  0.2893
  467MOL0     H64409   7.103   2.068   6.351  1.0300  1.2154  0.0993
  467MOL0     H64410   7.176   2.239   6.198  2.5751 -0.1175  0.0113
  467MOL0     H64411   7.222   2.411   6.188 -0.6377  1.0850 -0.3413
  467MOL0     H64412   7.280   2.235   6.432 -0.4602 -0.0082 -0.5580
  467MOL0     H64413   7.400   2.246   6.316 -0.2603 -2.0046  2.6314
  467MOL0     H64414   7.269   2.489   6.469 -2.9795 -1.6796 -1.2589
  467MOL0     H64415   7.387   2.516   6.341 -2.4043  0.4501 -0.2441
  467MOL0     H64416   7.540   2.348   6.480 -0.3664 -0.1725 -0.7602
  467MOL0     H64417   7.435   2.376   6.606  0.2439  0.1348  1.4061
  467MOL0     H64418   7.477   2.626   6.613 -0.2125 -0.7843  3.9491
  467MOL0     H64419   7.615   2.522   6.646 -0.0821 -1.7007 -0.0577
  467MOL0     H64420   7.578   2.617   6.378 -1.4297 -1.8654  0.5412
  467MOL0     H64421   7.718   2.534   6.441 -0.4119  0.5272 -0.0970
  467MOL0     H64422   7.786   2.694   6.566 -0.0585 -2.0173  1.0705
  467MOL0     H64423   7.632   2.766   6.602  0.9955 -0.6017  0.2570
  467MOL0     H64424   7.775   2.771   6.327  0.1348 -0.7063 -0.1665
  467MOL0     H64425   7.778   2.905   6.440 -0.9725  1.3573 -0.7863
  467MOL0     H64426   6.861   2.424   6.422  0.9804  1.7786 -0.8675
  467MOL0     H64427   6.677   2.254   6.497  1.0693  2.9868 -0.8534
  467MOL0     H64428   6.605   1.789   6.606  1.8956  5.6238 -0.2631
  467MOL0     H64429   6.411   1.656   6.712 -0.1175 -0.9003 -0.6779
  467MOL0     H64430   6.239   2.720   7.066 -1.3375 -0.6352 -1.6013
  467MOL0     H64431   6.497   2.730   7.093  3.2813 -2.2183  0.0511
  467MOL0     H64432   6.869   2.623   6.774  0.6768 -0.3284  0.0553
  467MOL0     H64433   7.118   2.646   6.741  1.9000 -3.3247 -0.1043
  467MOL0     H64434   7.373   2.780   7.074  1.5355 -0.9201  1.5002
  467MOL0     H64435   7.391   2.614   7.110 -0.4987 -1.2779 -0.8636
  467MOL0     H64436   7.511   2.711   6.858 -0.2681  0.5936  0.3454
  467MOL0     H64437   7.565   2.574   6.944  4.0848  1.5887 -3.7108
  467MOL0     H64438   7.626   2.779   7.130 -0.4259  1.8924 -0.5608
  467MOL0     H64439   7.738   2.715   7.015  0.2409 -0.8165  2.9647
  467MOL0     H64440   7.661   2.979   7.025 -2.6105  0.3938 -0.7634
  467MOL0     H64441   7.537   2.927   6.911  0.5556  1.4937 -0.4286
  467MOL0     H64442   7.882   2.971   6.672  0.2635  1.8708  1.3829
  467MOL0     H64443   7.177   2.623   7.162 -0.4358 -0.6361  0.2689
  467MOL0     H64444   7.017   2.649   7.315 -0.7633  1.1093  0.7474
  467MOL0     H64445   6.848   2.673   7.279 -0.8542  0.1700 -1.5530
  467MOL0     H64446   6.912   2.509   7.281 -3.4484 -0.0458  0.0537
  468MOL0     O64447   3.211   6.588   3.252 -0.2887 -0.8233  0.2189
  468MOL0     C64448   3.190   6.665   3.347 -0.2691 -0.5928 -0.1358
  468MOL0     O64449   3.115   6.638   3.450 -0.3520 -0.1694 -0.3621
  468MOL0     C64450   3.031   6.537   3.450  0.4463 -0.9217  0.1138
  468MOL0     C64451   2.928   6.521   3.350  0.7753  0.7385 -0.2719
  468MOL0     C64452   2.838   6.413   3.368 -0.2110 -0.7908 -0.6996
  468MOL0     C64453   2.833   6.337   3.483 -0.5846 -0.4434  0.4994
  468MOL0     O64454   2.743   6.230   3.502 -0.3738  0.1054  0.4771
  468MOL0     C64455   2.609   6.266   3.523  0.0706 -0.0826 -0.2952
  468MOL0     C64456   2.599   6.311   3.666 -0.9920 -0.9659 -0.1727
  468MOL0     C64457   2.457   6.314   3.717 -0.2872  0.1615 -0.3720
  468MOL0     C64458   2.359   6.399   3.629 -0.4887  0.0937  0.3073
  468MOL0     C64459   2.240   6.440   3.712 -0.0493 -0.1736 -0.0213
  468MOL0     C64460   2.119   6.487   3.621  0.7435  0.3746  0.0951
  468MOL0     C64461   2.071   6.395   3.510 -0.0818  0.2073 -0.9146
  468MOL0     C64462   2.051   6.249   3.544  0.3213  0.5676  0.0936
  468MOL0     N64463   1.941   6.232   3.643  0.3441  0.0750  0.0716
  468MOL0     C64464   1.808   6.267   3.612 -0.7013  0.7213  0.7930
  468MOL0     C64465   1.761   6.287   3.734  0.6150 -0.2785 -0.7566
  468MOL0     C64466   1.626   6.335   3.773  0.7751 -0.4132 -0.2746
  468MOL0     C64467   1.535   6.217   3.778 -0.1472 -0.4167 -0.1999
  468MOL0     C64468   1.396   6.247   3.820  0.7811  0.1949 -0.3850
  468MOL0     C64469   1.311   6.118   3.844 -0.0501  0.6786 -0.2026
  468MOL0     O64470   1.349   6.054   3.965 -0.3951  0.9957  0.4024
  468MOL0     C64471   1.275   5.939   3.985  0.4584 -0.5129 -0.0679
  468MOL0     C64472   1.156   5.902   3.926 -0.0182 -0.3324  0.2000
  468MOL0     C64473   1.092   5.781   3.964  0.1432  0.4383  0.1724
  468MOL0     C64474   0.975   5.734   3.885  0.9697 -0.6628  1.6550
  468MOL0     C64475   1.141   5.708   4.074 -1.2524 -0.2841 -0.4269
  468MOL0     C64476   1.085   5.580   4.126  0.4810 -0.0269  0.2545
  468MOL0     O64477   1.161   5.497   4.197 -0.4285  0.2880 -0.0349
  468MOL0     C64478   1.108   5.382   4.255  0.2127 -0.9947  0.0598
  468MOL0     C64479   0.993   5.398   4.340  0.0799  0.0149  0.4942
  468MOL0     C64480   0.940   5.296   4.415  0.6506 -0.6032 -0.0566
  468MOL0     C64481   1.004   5.170   4.403  1.3004  0.0251  0.2031
  468MOL0     O64482   0.963   5.065   4.482  0.1757  0.0611 -0.1012
  468MOL0     C64483   0.829   5.016   4.477 -0.2342  1.0019  0.2820
  468MOL0     C64484   0.724   5.092   4.391 -0.4791 -0.0342 -0.5996
  468MOL0     C64485   0.582   5.039   4.391 -0.1552  0.1785  0.5962
  468MOL0     C64486   0.553   4.920   4.300 -0.7353  1.0521  0.5692
  468MOL0     C64487   0.404   4.912   4.254 -0.4850  0.1684  0.5213
  468MOL0     C64488   0.384   4.810   4.143  1.4152 -0.1456  0.3003
  468MOL0     C64489   0.243   4.765   4.134 -0.0096  0.1436  0.7723
  468MOL0     C64490   0.154   4.886   4.099  0.4366  0.5910  0.0339
  468MOL0    Cl64491   0.198   4.972   3.954 -0.0183  0.2032  0.0443
  468MOL0     C64492   1.119   5.153   4.315  0.5740  0.3798 -0.0510
  468MOL0     C64493   1.165   5.257   4.241 -0.2667 -0.4975 -0.3441
  468MOL0     O64494   0.964   5.554   4.103 -0.6606 -0.9999 -0.9550
  468MOL0     C64495   1.264   5.747   4.127  0.1320  0.2873 -0.4946
  468MOL0     C64496   1.338   5.853   4.083 -0.4278 -0.0317  0.0216
  468MOL0     N64497   1.857   6.255   3.824 -0.2490  0.0352  0.3021
  468MOL0     N64498   1.966   6.221   3.772 -0.0221 -0.0941 -0.6736
  468MOL0     C64499   2.928   6.355   3.580  0.8109  0.1321  0.5093
  468MOL0     C64500   3.021   6.460   3.573  0.4857 -0.5618 -0.0102
  468MOL0     C64501   3.252   6.798   3.352 -0.9661  0.0353  0.0974
  468MOL0     C64502   3.309   6.849   3.225  0.3335  0.9643 -0.0432
  468MOL0     C64503   3.370   6.965   3.207  0.3996  0.5067 -0.6476
  468MOL0     C64504   3.395   7.053   3.317 -0.1588  0.5173 -0.5336
  468MOL0     O64505   3.478   7.164   3.309 -0.2007 -0.1259 -1.1816
  468MOL0     C64506   3.586   7.178   3.214  0.1736  0.4741  0.4263
  468MOL0     C64507   3.709   7.074   3.232  0.0211 -0.8255  0.0984
  468MOL0     C64508   3.818   7.107   3.337 -0.1471 -0.3570 -0.3994
  468MOL0     C64509   3.755   7.133   3.478  0.0197  0.3335  0.6863
  468MOL0     C64510   3.847   7.208   3.568  0.4188  0.4578  0.2034
  468MOL0     C64511   3.906   7.287   3.634  0.2395 -0.2034 -0.2112
  468MOL0     C64512   3.348   7.014   3.444  0.3366 -0.5002  0.6776
  468MOL0     C64513   3.278   6.884   3.459 -0.0582 -0.7187 -0.3232
  468MOL0     C64514   3.250   6.839   3.601 -0.6468  0.5366 -0.1618
  468MOL0     H64515   2.909   6.587   3.265 -0.6339  0.5628 -0.1252
  468MOL0     H64516   2.760   6.388   3.297 -0.5707 -2.9068  0.3777
  468MOL0     H64517   2.554   6.173   3.504 -0.5235  0.1088  0.4539
  468MOL0     H64518   2.581   6.341   3.448  4.1152 -1.5191 -3.6605
  468MOL0     H64519   2.656   6.251   3.737 -0.6256 -1.0478 -0.5354
  468MOL0     H64520   2.642   6.410   3.681 -1.6218 -0.9982  2.2492
  468MOL0     H64521   2.419   6.213   3.734  1.2919 -0.9997 -3.1406
  468MOL0     H64522   2.467   6.358   3.816 -2.7944  2.2347 -0.9265
  468MOL0     H64523   2.413   6.486   3.590 -0.7901 -0.9077 -2.5801
  468MOL0     H64524   2.328   6.334   3.547  1.8562  0.2767 -0.7999
  468MOL0     H64525   2.269   6.527   3.772 -1.4685 -0.5769  1.3165
  468MOL0     H64526   2.199   6.358   3.772  0.6463 -1.3006 -1.0308
  468MOL0     H64527   2.034   6.520   3.682  2.0490  2.8004  0.7072
  468MOL0     H64528   2.141   6.581   3.570 -1.8728  0.5017 -0.9772
  468MOL0     H64529   2.140   6.398   3.426 -1.8497  0.3500 -2.4184
  468MOL0     H64530   1.982   6.445   3.472 -0.5981 -0.2229 -0.2991
  468MOL0     H64531   2.037   6.202   3.446 -4.2873  4.0099 -1.2737
  468MOL0     H64532   2.145   6.205   3.578 -0.2344  1.0226  2.3453
  468MOL0     H64533   1.763   6.293   3.517 -0.0984  1.6463  0.7541
  468MOL0     H64534   1.591   6.407   3.698  1.6833 -1.6962 -1.9926
  468MOL0     H64535   1.624   6.377   3.874 -0.7236  3.3046 -1.6455
  468MOL0     H64536   1.532   6.172   3.678 -1.6653 -0.1989 -0.2676
  468MOL0     H64537   1.565   6.145   3.854 -6.1187 -0.5672  2.5394
  468MOL0     H64538   1.392   6.307   3.911 -1.3173  0.9670 -0.9132
  468MOL0     H64539   1.340   6.301   3.742 -2.1011 -0.1996  1.2802
  468MOL0     H64540   1.206   6.149   3.844 -0.9619 -2.0234 -2.3563
  468MOL0     H64541   1.334   6.055   3.758  0.8963 -1.1423  1.3274
  468MOL0     H64542   1.117   5.966   3.848  2.1194  2.7600  1.4662
  468MOL0     H64543   0.881   5.734   3.943 -0.8640 -0.0104 -1.1295
  468MOL0     H64544   0.978   5.635   3.839  0.9283  0.3128 -0.5341
  468MOL0     H64545   0.963   5.802   3.800  0.2099 -2.2162  0.4673
  468MOL0     H64546   0.948   5.496   4.344 -1.6559 -0.7748  1.5602
  468MOL0     H64547   0.851   5.329   4.467 -1.0410 -2.0824 -1.8553
  468MOL0     H64548   0.827   4.912   4.446  1.4398  0.8405  0.6126
  468MOL0     H64549   0.790   5.017   4.580 -1.6536  0.3456 -0.2239
  468MOL0     H64550   0.712   5.197   4.415 -1.3060 -0.5618  1.4836
  468MOL0     H64551   0.765   5.097   4.290  2.1973  0.3987  0.4392
  468MOL0     H64552   0.510   5.119   4.373 -1.8315 -1.3610  0.2069
  468MOL0     H64553   0.555   5.009   4.493 -0.6920  1.2710  0.7877
  468MOL0     H64554   0.587   4.826   4.346  0.2274  0.9769 -0.2575
  468MOL0     H64555   0.621   4.926   4.215  2.4415 -4.3364  2.2112
  468MOL0     H64556   0.343   4.874   4.337 -0.0845  2.0479  1.7263
  468MOL0     H64557   0.376   5.011   4.217  0.2090  1.0583  2.2534
  468MOL0     H64558   0.446   4.720   4.153  0.0014 -1.4876 -1.9810
  468MOL0     H64559   0.415   4.859   4.050 -0.3215 -0.6687 -0.5986
  468MOL0     H64560   0.207   4.742   4.235 -1.8697 -1.2082 -0.1435
  468MOL0     H64561   0.234   4.692   4.053  2.2842  2.0947 -1.4174
  468MOL0     H64562   0.141   4.962   4.176 -0.3442  1.4197 -0.8981
  468MOL0     H64563   0.053   4.849   4.082 -0.9685  3.5568  1.2121
  468MOL0     H64564   1.165   5.055   4.320  1.6454  0.7793 -1.3188
  468MOL0     H64565   1.255   5.230   4.187  0.5447  0.8490  0.2774
  468MOL0     H64566   1.299   5.687   4.209 -3.2727 -1.3688 -0.0916
  468MOL0     H64567   1.431   5.877   4.133 -0.3699 -1.9265  0.9089
  468MOL0     H64568   2.931   6.277   3.656 -3.2793  0.1612  0.9361
  468MOL0     H64569   3.091   6.484   3.651 -0.5593  1.8526  0.2787
  468MOL0     H64570   3.305   6.772   3.149 -1.4491  0.4378  0.5306
  468MOL0     H64571   3.399   7.000   3.108 -1.5140  0.0927 -1.3937
  468MOL0     H64572   3.548   7.160   3.113 -0.7889  1.0764  0.6689
  468MOL0     H64573   3.635   7.276   3.221  1.6549 -0.3191  1.7376
  468MOL0     H64574   3.763   7.083   3.137  2.1990 -0.6831  1.2889
  468MOL0     H64575   3.673   6.972   3.247  0.1472 -0.4597  3.5969
  468MOL0     H64576   3.882   7.019   3.343 -2.0662 -1.7023  1.6959
  468MOL0     H64577   3.872   7.197   3.305 -0.3806  0.4853  1.4357
  468MOL0     H64578   3.739   7.038   3.529  0.8347 -0.3341 -0.2490
  468MOL0     H64579   3.672   7.203   3.473  0.4334  0.9495  2.0399
  468MOL0     H64580   3.960   7.370   3.673  1.6883 -0.9568 -0.5457
  468MOL0     H64581   3.370   7.080   3.527 -1.2692  3.7147 -1.8934
  468MOL0     H64582   3.316   6.890   3.672 -0.4505  3.2999 -2.1472
  468MOL0     H64583   3.146   6.859   3.627  0.0100  3.1509  0.7962
  468MOL0     H64584   3.272   6.733   3.610 -1.6396  0.1203 -2.1869
  469MOL0     O64585   2.040   9.971   5.585  0.5769 -0.0036  1.0435
  469MOL0     C64586   1.997  10.056   5.509 -0.2377 -0.1399 -0.6002
  469MOL0     O64587   1.873  10.117   5.517 -0.3153 -0.4388 -0.3310
  469MOL0     C64588   1.816  10.162   5.638  0.2836  0.5276 -0.3675
  469MOL0     C64589   1.678  10.191   5.636  0.4802  0.9031 -0.3117
  469MOL0     C64590   1.607  10.234   5.750 -0.5654  0.3317 -0.6417
  469MOL0     C64591   1.675  10.260   5.864  0.4923 -0.7715  0.6263
  469MOL0     O64592   1.609  10.323   5.964  0.5149  0.1535  0.5984
  469MOL0     C64593   1.670  10.447   5.989 -0.3147 -0.3312  0.5595
  469MOL0     C64594   1.563  10.551   6.034 -0.6160 -0.7761  0.4977
  469MOL0     C64595   1.440  10.562   5.942 -0.5144  0.4923  0.3283
  469MOL0     C64596   1.486  10.631   5.808 -0.6055 -0.4535  0.1290
  469MOL0     C64597   1.393  10.599   5.694  0.4316  0.2660  0.7372
  469MOL0     C64598   1.366  10.711   5.588  0.1812  0.2031  0.0097
  469MOL0     C64599   1.266  10.663   5.478 -0.0422 -0.1909 -0.2236
  469MOL0     C64600   1.170  10.780   5.435  0.0140 -0.1962 -0.1025
  469MOL0     N64601   1.083  10.751   5.325 -0.3986  0.8250 -0.6896
  469MOL0     C64602   1.096  10.784   5.190 -0.7347 -0.3958  0.1018
  469MOL0     C64603   0.977  10.762   5.139 -1.3461 -0.5777  0.1899
  469MOL0     C64604   0.927  10.765   4.986 -0.4880 -0.3139 -0.2850
  469MOL0     C64605   0.868  10.902   4.945  0.6650  0.0825 -0.9125
  469MOL0     C64606   0.725  10.913   4.953  0.1184  0.0628  0.3642
  469MOL0     C64607   0.671  10.895   5.098  0.2912 -0.0694  0.1051
  469MOL0     O64608   0.535  10.945   5.110 -0.0973  0.9876 -0.5920
  469MOL0     C64609   0.470  10.890   5.220  0.0631 -0.5013  0.6481
  469MOL0     C64610   0.521  10.834   5.333  0.3719  0.5028 -0.2147
  469MOL0     C64611   0.433  10.797   5.434  0.6008 -0.7098 -0.2987
  469MOL0     C64612   0.506  10.736   5.556  0.2981 -0.0201 -0.2254
  469MOL0     C64613   0.302  10.830   5.428  0.3973 -0.1826 -0.1816
  469MOL0     C64614   0.201  10.790   5.529 -0.5935  0.0937 -0.0190
  469MOL0     O64615   0.079  10.756   5.485 -1.2209 -0.9714  0.8624
  469MOL0     C64616   0.015  10.656   5.560  0.4880 -0.6846 -0.0169
  469MOL0     C64617   0.082  10.528   5.590 -0.7320 -0.7993  0.1284
  469MOL0     C64618   0.022  10.422   5.648 -0.0005 -0.0593 -0.5086
  469MOL0     C64619  -0.115  10.429   5.673 -1.0337  0.6341  1.1276
  469MOL0     O64620  -0.182  10.322   5.715 -0.7912 -0.7760 -0.2902
  469MOL0     C64621  -0.252  10.346   5.839 -0.1227 -0.5936 -0.6489
  469MOL0     C64622  -0.324  10.232   5.892  1.0352  0.0782  0.2388
  469MOL0     C64623  -0.232  10.123   5.961 -0.0879  0.1556 -0.5060
  469MOL0     C64624  -0.309  10.027   6.051  0.1178 -0.0821  0.4381
  469MOL0     C64625  -0.215   9.918   6.114  0.7205 -0.2164 -0.1819
  469MOL0     C64626  -0.115   9.973   6.217 -0.1081 -0.0655 -0.2185
  469MOL0     C64627  -0.169  10.041   6.341  1.1551 -0.0401 -0.1371
  469MOL0     C64628  -0.185   9.938   6.455  0.7128  0.8441  0.5289
  469MOL0    Cl64629  -0.186   9.999   6.625  0.0987  0.0248 -0.2651
  469MOL0     C64630  -0.185  10.542   5.634 -0.3281  0.0832 -0.6970
  469MOL0     C64631  -0.118  10.656   5.595  0.6838  0.4567  0.2580
  469MOL0     O64632   0.228  10.798   5.649  0.2941 -0.7747 -0.4076
  469MOL0     C64633   0.251  10.882   5.311  0.0837  0.0935 -0.4345
  469MOL0     C64634   0.333  10.916   5.207  0.5119 -0.1005  0.3094
  469MOL0     N64635   0.889  10.719   5.239 -0.2619  0.1248 -0.0180
  469MOL0     N64636   0.955  10.702   5.348  0.1967 -0.3797  0.0087
  469MOL0     C64637   1.816  10.238   5.865  0.8445 -0.2186 -0.0952
  469MOL0     C64638   1.887  10.193   5.751 -0.1942  0.4504 -0.0803
  469MOL0     C64639   2.077  10.083   5.385 -0.3886 -0.2996  0.8081
  469MOL0     C64640   2.037  10.178   5.293  0.1367 -0.3251 -0.4950
  469MOL0     C64641   2.097  10.209   5.177 -0.3494  0.2317 -0.0571
  469MOL0     C64642   2.225  10.176   5.160  0.5078 -0.1665 -0.4009
  469MOL0     O64643   2.276  10.236   5.044  0.2841  0.6145  0.0322
  469MOL0     C64644   2.423  10.241   5.034 -0.1548 -1.1370 -0.4595
  469MOL0     C64645   2.446  10.374   4.954  0.5520 -0.2584  0.6270
  469MOL0     C64646   2.475  10.360   4.806 -1.3983 -0.2386  0.2038
  469MOL0     C64647   2.465  10.502   4.730  1.1014  0.0649  0.0637
  469MOL0     C64648   2.505  10.492   4.589  0.3011  0.8200 -0.0761
  469MOL0     C64649   2.534  10.484   4.473  0.9792  0.2464  0.5583
  469MOL0     C64650   2.287  10.077   5.244  0.7808  0.2302 -0.0993
  469MOL0     C64651   2.209  10.024   5.350 -0.2641 -0.9617 -0.0340
  469MOL0     C64652   2.249   9.891   5.413  0.6811 -0.5653 -0.0283
  469MOL0     H64653   1.630  10.174   5.541  2.0109  0.5390 -1.0487
  469MOL0     H64654   1.499  10.246   5.747 -0.7599 -0.6850  1.0009
  469MOL0     H64655   1.712  10.497   5.901  3.3591  1.2986  3.0104
  469MOL0     H64656   1.755  10.447   6.058 -0.6901  0.1665  1.0254
  469MOL0     H64657   1.530  10.538   6.138 -2.5318  2.2323  0.3961
  469MOL0     H64658   1.615  10.647   6.028 -1.2943 -0.4605 -0.6471
  469MOL0     H64659   1.380  10.472   5.933 -1.2259  0.9186  0.7153
  469MOL0     H64660   1.369  10.634   5.985  0.3172  2.2983 -1.1602
  469MOL0     H64661   1.474  10.737   5.832 -0.0238  0.1982 -2.2112
  469MOL0     H64662   1.582  10.600   5.766  0.9236 -1.1762  3.8036
  469MOL0     H64663   1.295  10.566   5.730  0.9558 -2.2423  0.0636
  469MOL0     H64664   1.442  10.511   5.651  3.2887  2.0414  0.0638
  469MOL0     H64665   1.330  10.795   5.648  0.9107  1.4591 -1.2213
  469MOL0     H64666   1.459  10.740   5.537  0.4729 -3.3276 -1.7572
  469MOL0     H64667   1.204  10.580   5.512  1.9091 -2.2112 -1.3397
  469MOL0     H64668   1.326  10.617   5.398 -1.3572 -2.1159 -0.1686
  469MOL0     H64669   1.117  10.818   5.523 -1.0125  0.6112 -1.0398
  469MOL0     H64670   1.240  10.861   5.415  1.2407 -1.1726  0.1171
  469MOL0     H64671   1.184  10.809   5.131 -1.3001 -0.0249 -0.6058
  469MOL0     H64672   0.848  10.690   4.976  0.9310 -1.7106 -1.6869
  469MOL0     H64673   1.000  10.715   4.922 -2.7708 -1.7900 -1.9417
  469MOL0     H64674   0.905  10.985   5.006 -2.2733  0.5654  0.3814
  469MOL0     H64675   0.888  10.915   4.838  4.1566  1.1109 -0.2848
  469MOL0     H64676   0.692  11.009   4.912  2.0315 -0.2044 -1.9971
  469MOL0     H64677   0.682  10.842   4.882  0.3873 -0.9844  1.2179
  469MOL0     H64678   0.686  10.790   5.123  2.2518  0.4377  1.3662
  469MOL0     H64679   0.734  10.951   5.169 -1.4091  0.5941  1.1369
  469MOL0     H64680   0.629  10.822   5.340  0.8105  2.1133 -2.8057
  469MOL0     H64681   0.558  10.817   5.609  1.5118 -0.9661  0.0663
  469MOL0     H64682   0.575  10.663   5.514  1.3459 -1.0887  3.0294
  469MOL0     H64683   0.455  10.677   5.633  1.2424 -1.2897 -0.5344
  469MOL0     H64684   0.190  10.527   5.577 -0.8046 -1.7414 -0.4811
  469MOL0     H64685   0.078  10.334   5.678 -0.8504 -0.1506  0.9149
  469MOL0     H64686  -0.191  10.393   5.917  0.3902  1.4457 -2.1899
  469MOL0     H64687  -0.329  10.423   5.827  0.1162  0.1967  2.1875
  469MOL0     H64688  -0.386  10.278   5.969  0.9783 -0.8764  0.7630
  469MOL0     H64689  -0.387  10.182   5.818 -0.7838 -0.8638  2.3454
  469MOL0     H64690  -0.150  10.170   6.016  0.0409  2.3038 -2.3589
  469MOL0     H64691  -0.181  10.068   5.881 -1.3476 -1.8823  0.0355
  469MOL0     H64692  -0.380   9.981   5.982  0.5636  2.1417 -1.6276
  469MOL0     H64693  -0.368  10.085   6.122  0.5501  2.0005 -0.8220
  469MOL0     H64694  -0.276   9.843   6.165  1.5930  0.3251  1.7460
  469MOL0     H64695  -0.144   9.880   6.040  2.3489  1.0565  0.6695
  469MOL0     H64696  -0.058  10.052   6.168 -1.6430  0.7534 -0.7694
  469MOL0     H64697  -0.040   9.900   6.250  1.0084 -0.0428 -2.5469
  469MOL0     H64698  -0.269  10.084   6.328 -0.9371 -3.9151  1.4009
  469MOL0     H64699  -0.106  10.122   6.378  0.1992 -0.2658  2.1365
  469MOL0     H64700  -0.117   9.853   6.452 -3.1441 -2.6107  1.6488
  469MOL0     H64701  -0.283   9.890   6.444  1.1621 -0.4250  1.6855
  469MOL0     H64702  -0.293  10.549   5.644 -0.4239 -2.6491  1.1145
  469MOL0     H64703  -0.172  10.750   5.583 -0.1401  0.3112  2.3858
  469MOL0     H64704   0.143  10.887   5.302 -0.1572 -4.0296 -2.8407
  469MOL0     H64705   0.288  10.954   5.116  1.0937 -1.2409 -0.4903
  469MOL0     H64706   1.855  10.256   5.965  1.2749  1.2072 -0.4976
  469MOL0     H64707   1.993  10.170   5.752 -0.3227 -0.8741  3.9578
  469MOL0     H64708   1.941  10.226   5.312  0.2336 -1.0654  2.1957
  469MOL0     H64709   2.052  10.273   5.102  3.2046  2.1176 -0.8155
  469MOL0     H64710   2.453  10.263   5.137 -3.0930 -1.5952  0.6022
  469MOL0     H64711   2.482  10.156   4.999  2.4065  1.6961 -3.6863
  469MOL0     H64712   2.517  10.441   5.003 -0.3743  0.0579  1.5838
  469MOL0     H64713   2.351  10.428   4.955  0.2659 -0.7617  1.7100
  469MOL0     H64714   2.579  10.330   4.794 -0.3177  1.7017  3.3146
  469MOL0     H64715   2.414  10.285   4.755 -0.5423  0.7435 -2.4205
  469MOL0     H64716   2.535  10.572   4.777 -0.0282  0.8544  0.6494
  469MOL0     H64717   2.360  10.535   4.728  0.2244 -2.5930 -1.3782
  469MOL0     H64718   2.546  10.469   4.367  1.9537  2.4294  0.3072
  469MOL0     H64719   2.378  10.029   5.209  0.8203  2.5575 -3.6718
  469MOL0     H64720   2.160   9.826   5.419  1.7461 -1.9576  1.6837
  469MOL0     H64721   2.310   9.838   5.340 -0.1981  0.9892 -1.9739
  469MOL0     H64722   2.282   9.910   5.515  0.4378 -1.8199  0.3018
  470MOL0     O64723   7.773   3.709   6.683 -0.3622 -0.2198  0.0916
  470MOL0     C64724   7.828   3.691   6.574 -0.9749 -0.2400 -0.4207
  470MOL0     O64725   7.816   3.578   6.502 -0.2715 -0.6978  0.8137
  470MOL0     C64726   7.724   3.486   6.539 -0.6736 -0.6965 -0.6460
  470MOL0     C64727   7.748   3.393   6.634 -0.6832  0.5131 -1.0915
  470MOL0     C64728   7.656   3.296   6.675 -1.3056 -0.0139 -0.3352
  470MOL0     C64729   7.536   3.295   6.611 -0.0831  0.9435 -0.2449
  470MOL0     O64730   7.449   3.194   6.660 -0.0828  0.9908  0.4363
  470MOL0     C64731   7.313   3.183   6.609 -0.4004  0.1176 -0.1949
  470MOL0     C64732   7.280   3.041   6.595 -0.0814  0.3990 -0.1629
  470MOL0     C64733   7.175   3.021   6.485 -0.4825  0.0540 -0.6838
  470MOL0     C64734   7.171   2.872   6.450  0.5774 -0.7194 -0.4517
  470MOL0     C64735   7.046   2.868   6.354  0.3197  0.6907  0.9181
  470MOL0     C64736   7.047   2.717   6.302  0.8025 -0.4938  0.2754
  470MOL0     C64737   6.946   2.691   6.194  0.4120  0.8915 -0.5696
  470MOL0     C64738   6.957   2.768   6.065 -0.0430 -1.4391 -0.6087
  470MOL0     N64739   6.875   2.893   6.053  0.3237  0.2563 -1.1753
  470MOL0     C64740   6.741   2.892   6.072 -1.2596  0.6474 -0.8177
  470MOL0     C64741   6.697   3.007   6.022 -0.0491  0.3322  0.4523
  470MOL0     C64742   6.553   3.063   6.044  0.2850  0.9361 -0.8992
  470MOL0     C64743   6.446   2.996   5.958 -0.2519  0.3651 -0.4322
  470MOL0     C64744   6.320   3.076   5.961  1.0544 -0.1991 -0.7060
  470MOL0     C64745   6.200   2.996   5.886 -0.6115 -0.0146  0.2597
  470MOL0     O64746   6.163   2.889   5.976 -0.8976 -0.0963  0.3767
  470MOL0     C64747   6.039   2.844   5.950  0.1687 -0.0666  0.3760
  470MOL0     C64748   5.989   2.793   5.828  0.5929 -0.1056  0.0832
  470MOL0     C64749   5.855   2.759   5.800  1.3862 -0.1555  0.3786
  470MOL0     C64750   5.824   2.688   5.671 -0.1791 -0.4243  0.0926
  470MOL0     C64751   5.763   2.771   5.906 -0.8277  0.0015  0.5137
  470MOL0     C64752   5.626   2.725   5.895  0.9125  0.2793 -0.1790
  470MOL0     O64753   5.583   2.636   5.995 -0.7499 -0.0196  0.2305
  470MOL0     C64754   5.454   2.595   5.999  0.5205  0.9068 -0.0451
  470MOL0     C64755   5.404   2.587   6.121  0.3702 -0.5086  0.0462
  470MOL0     C64756   5.276   2.562   6.155  0.2683  0.2862 -0.2158
  470MOL0     C64757   5.191   2.522   6.040 -0.0961  0.7066  0.5448
  470MOL0     O64758   5.053   2.492   6.063 -0.2894  0.9138  0.0909
  470MOL0     C64759   5.025   2.390   6.168 -0.6447  0.2295  0.9261
  470MOL0     C64760   4.982   2.458   6.292 -0.7700  0.3329  0.3657
  470MOL0     C64761   4.850   2.523   6.280 -0.3380 -0.5863 -1.1764
  470MOL0     C64762   4.816   2.596   6.411  0.8120 -0.7724  0.2647
  470MOL0     C64763   4.680   2.667   6.426  0.0357 -0.0542 -0.0773
  470MOL0     C64764   4.645   2.718   6.566 -0.7609  0.6954  0.9951
  470MOL0     C64765   4.562   2.612   6.648  0.1515 -0.4515 -0.5379
  470MOL0     C64766   4.601   2.614   6.792 -0.2042  0.6827 -0.2067
  470MOL0    Cl64767   4.558   2.758   6.877  0.0319 -0.0432 -0.2540
  470MOL0     C64768   5.239   2.528   5.905  0.3830  0.2960  0.2978
  470MOL0     C64769   5.372   2.566   5.890 -1.0007 -0.1703 -0.3751
  470MOL0     O64770   5.554   2.772   5.808 -0.5783  0.9597  0.5287
  470MOL0     C64771   5.812   2.811   6.027 -1.2135  0.9976 -0.8266
  470MOL0     C64772   5.950   2.836   6.054  0.2604 -0.3820  1.3271
  470MOL0     N64773   6.810   3.082   5.977  0.4245 -0.4312 -0.5912
  470MOL0     N64774   6.915   3.005   5.993  1.0376 -0.1596  0.2071
  470MOL0     C64775   7.510   3.380   6.507 -1.3138  0.0256 -0.0502
  470MOL0     C64776   7.601   3.475   6.475 -0.8488 -0.0574  0.2463
  470MOL0     C64777   7.904   3.807   6.524 -0.2748  0.0216 -1.1261
  470MOL0     C64778   8.040   3.799   6.501  0.2251  0.0241  0.4473
  470MOL0     C64779   8.114   3.911   6.464 -0.1304 -0.7657 -0.3419
  470MOL0     C64780   8.050   4.037   6.452 -0.3539  0.7684 -0.0500
  470MOL0     O64781   8.134   4.131   6.408  0.0563 -1.1692  0.7137
  470MOL0     C64782   8.133   4.256   6.483 -0.2439 -1.0255  0.5600
  470MOL0     C64783   8.247   4.249   6.582  0.1976  0.0444  0.3800
  470MOL0     C64784   8.312   4.381   6.611 -0.4124  0.0801  0.3357
  470MOL0     C64785   8.413   4.371   6.725  1.4941  0.9293 -0.1690
  470MOL0     C64786   8.546   4.313   6.701  0.3447 -0.4133  0.8445
  470MOL0     C64787   8.654   4.268   6.704 -0.4653 -0.3458  0.0375
  470MOL0     C64788   7.909   4.048   6.471 -0.0221 -0.5600  0.6432
  470MOL0     C64789   7.844   3.936   6.512  0.4973  0.3746 -0.3101
  470MOL0     C64790   7.700   3.943   6.533 -0.4304 -0.1970 -0.3950
  470MOL0     H64791   7.845   3.401   6.684 -0.5550 -0.2173 -1.2083
  470MOL0     H64792   7.680   3.215   6.743  1.4075 -0.6788 -1.9681
  470MOL0     H64793   7.299   3.229   6.511  1.2138 -0.9808 -0.9657
  470MOL0     H64794   7.255   3.233   6.688 -0.2783 -1.0324  0.6429
  470MOL0     H64795   7.366   2.978   6.568 -2.0654 -1.7783 -1.8451
  470MOL0     H64796   7.252   3.010   6.696 -1.6628 -1.0814 -1.0102
  470MOL0     H64797   7.082   3.067   6.519 -1.3295 -1.8013 -0.3882
  470MOL0     H64798   7.204   3.073   6.393  0.1880 -1.0262 -1.1094
  470MOL0     H64799   7.265   2.840   6.404 -0.0029 -2.9562 -0.1970
  470MOL0     H64800   7.155   2.807   6.537 -1.2120 -1.9232 -1.6128
  470MOL0     H64801   7.046   2.947   6.279 -3.1406  1.0993  1.1777
  470MOL0     H64802   6.955   2.884   6.413 -0.8705  0.2652 -0.7170
  470MOL0     H64803   7.136   2.679   6.251 -1.2320 -2.3248 -2.1691
  470MOL0     H64804   7.019   2.644   6.379 -2.4146 -2.5188 -2.5647
  470MOL0     H64805   6.842   2.699   6.226  0.3378  1.7060 -0.9722
  470MOL0     H64806   6.964   2.587   6.164 -2.0530 -0.2093  1.3892
  470MOL0     H64807   7.062   2.797   6.053 -0.3623  0.0717  0.0088
  470MOL0     H64808   6.925   2.704   5.982 -1.6945  0.2784 -1.3614
  470MOL0     H64809   6.673   2.816   6.109  1.3494 -0.9648  0.9491
  470MOL0     H64810   6.562   3.169   6.018  0.8636  1.4341  1.1542
  470MOL0     H64811   6.526   3.046   6.149  2.8776 -1.1401 -0.4477
  470MOL0     H64812   6.488   2.973   5.859  1.4998 -2.7982  0.8727
  470MOL0     H64813   6.420   2.901   6.005 -1.0278 -0.3874 -2.2888
  470MOL0     H64814   6.310   3.108   6.065 -2.6258  0.1267 -1.0268
  470MOL0     H64815   6.331   3.171   5.907 -0.1226 -1.1062 -2.6494
  470MOL0     H64816   6.115   3.059   5.860  0.4133  0.9240 -0.9207
  470MOL0     H64817   6.240   2.960   5.791 -1.4680  2.0021 -0.9245
  470MOL0     H64818   6.055   2.772   5.744  0.6710 -1.2460  0.4167
  470MOL0     H64819   5.752   2.750   5.616  0.5223  1.0783  0.8284
  470MOL0     H64820   5.774   2.591   5.679  0.5639 -0.7092  1.6172
  470MOL0     H64821   5.912   2.678   5.607 -0.3630  0.6861 -0.3535
  470MOL0     H64822   5.482   2.607   6.194 -0.2444 -0.1074  0.6163
  470MOL0     H64823   5.251   2.574   6.259 -0.1315 -1.7732 -0.0328
  470MOL0     H64824   4.943   2.323   6.143 -0.8044  0.4922  0.7354
  470MOL0     H64825   5.110   2.323   6.179  1.4481  1.6672 -3.7483
  470MOL0     H64826   4.976   2.386   6.375 -0.0465  3.3378  3.2273
  470MOL0     H64827   5.044   2.542   6.326 -1.1822  0.1305  1.7016
  470MOL0     H64828   4.774   2.444   6.278  0.5271 -1.6216  1.9124
  470MOL0     H64829   4.837   2.594   6.197  1.3996  3.8169  1.9551
  470MOL0     H64830   4.890   2.675   6.424  3.1695 -2.2291 -2.9327
  470MOL0     H64831   4.835   2.535   6.499  0.6425  1.0027  1.5688
  470MOL0     H64832   4.669   2.754   6.361 -1.0982 -0.2308 -0.1495
  470MOL0     H64833   4.602   2.597   6.394  1.4011 -1.8993  0.4061
  470MOL0     H64834   4.592   2.812   6.551 -1.8004 -0.2101 -1.7004
  470MOL0     H64835   4.745   2.740   6.604  0.0868 -3.7682  1.9732
  470MOL0     H64836   4.585   2.513   6.607  1.1997  0.2287 -1.6463
  470MOL0     H64837   4.455   2.629   6.638  0.2012 -0.8064 -1.8857
  470MOL0     H64838   4.711   2.613   6.797  0.5579  9.3157 -0.3534
  470MOL0     H64839   4.555   2.524   6.834 -0.2710 -0.3484 -2.3233
  470MOL0     H64840   5.184   2.501   5.816 -1.5973 -2.3304  2.1505
  470MOL0     H64841   5.424   2.573   5.795  3.3482 -0.0896  1.7158
  470MOL0     H64842   5.757   2.811   6.120 -3.4851  1.7103 -2.0830
  470MOL0     H64843   5.974   2.877   6.152  0.4852 -0.7994  1.4482
  470MOL0     H64844   7.415   3.372   6.454 -2.0495  1.1849  1.0165
  470MOL0     H64845   7.577   3.537   6.389  1.5325 -1.1222 -1.2852
  470MOL0     H64846   8.074   3.697   6.513 -1.8316 -0.5295  2.2330
  470MOL0     H64847   8.223   3.906   6.462 -0.0860  0.1052 -0.3252
  470MOL0     H64848   8.142   4.338   6.411  0.4725  0.5828  2.3813
  470MOL0     H64849   8.037   4.285   6.527 -1.1117 -0.9138 -1.3234
  470MOL0     H64850   8.322   4.182   6.539 -2.9291 -2.1475 -2.1389
  470MOL0     H64851   8.213   4.200   6.674  1.7115 -0.2589  0.8102
  470MOL0     H64852   8.359   4.417   6.519 -0.5401 -0.6818 -0.0377
  470MOL0     H64853   8.231   4.445   6.647  0.1689 -0.6121  3.1320
  470MOL0     H64854   8.368   4.300   6.796  0.8712 -0.0137 -1.4648
  470MOL0     H64855   8.430   4.466   6.776 -0.1918  1.1666  0.0060
  470MOL0     H64856   8.748   4.217   6.699 -1.1336 -1.5273 -1.6679
  470MOL0     H64857   7.854   4.141   6.462 -0.8853 -1.2516 -2.1756
  470MOL0     H64858   7.693   3.934   6.642 -1.6003  3.0903 -0.0753
  470MOL0     H64859   7.660   4.041   6.504  0.1649  0.8660  2.1174
  470MOL0     H64860   7.636   3.867   6.486 -0.6719  0.0265 -0.4337
  471MOL0     O64861   9.576   9.444  10.193 -0.4357  0.2405 -0.2909
  471MOL0     C64862   9.631   9.526  10.116  0.1709 -0.4278 -0.3132
  471MOL0     O64863   9.560   9.626  10.050 -0.0746  0.9976  0.4187
  471MOL0     C64864   9.432   9.656  10.063  0.0047  0.5852  0.3828
  471MOL0     C64865   9.395   9.762   9.982  0.4134 -0.3934 -0.2535
  471MOL0     C64866   9.265   9.804   9.979 -0.1169  0.1313  0.3949
  471MOL0     C64867   9.165   9.747  10.060  0.2821  0.0974 -0.3308
  471MOL0     O64868   9.031   9.785  10.056  0.5490  0.3131 -0.7384
  471MOL0     C64869   9.023   9.919  10.116  1.0545  0.1205 -0.7900
  471MOL0     C64870   8.923   9.909  10.232  0.0774 -0.0060 -0.3696
  471MOL0     C64871   8.896  10.043  10.299  0.3167 -0.4479  0.0307
  471MOL0     C64872   8.778  10.110  10.224  0.7962  0.2578  0.4898
  471MOL0     C64873   8.751  10.258  10.264  0.0920  0.3842  0.3653
  471MOL0     C64874   8.662  10.339  10.167  0.3395 -0.4901  0.0421
  471MOL0     C64875   8.682  10.489  10.183  0.4698  0.2330 -0.3250
  471MOL0     C64876   8.602  10.578  10.086 -0.2878 -0.7162 -0.5616
  471MOL0     N64877   8.641  10.722  10.095 -0.0804 -1.1483  0.1227
  471MOL0     C64878   8.758  10.764  10.035 -0.3383  0.3542  0.0548
  471MOL0     C64879   8.796  10.870  10.106 -0.2033  0.2752  0.0492
  471MOL0     C64880   8.935  10.927  10.072  0.1297 -0.2302 -0.0352
  471MOL0     C64881   8.935  11.024   9.951 -0.0014  0.8506 -0.4558
  471MOL0     C64882   9.077  11.094   9.932 -0.0824  0.4592 -0.6306
  471MOL0     C64883   9.079  11.182   9.802  0.1497  0.7793 -1.3437
  471MOL0     O64884   9.173  11.291   9.811 -0.1586 -0.3109 -0.7761
  471MOL0     C64885   9.308  11.267   9.801  0.0157  0.1240  0.4598
  471MOL0     C64886   9.377  11.146   9.760  0.1491  0.4653 -0.4005
  471MOL0     C64887   9.518  11.137   9.768 -0.1883  0.0366 -0.6939
  471MOL0     C64888   9.583  11.013   9.723 -0.2123  0.2151 -1.4999
  471MOL0     C64889   9.593  11.245   9.829  0.4807 -0.3414  0.7454
  471MOL0     C64890   9.735  11.237   9.874  0.3227 -0.3127 -0.6011
  471MOL0     O64891   9.775  11.342   9.948 -0.3983  0.2064  0.4667
  471MOL0     C64892   9.896  11.358  10.015  0.0932 -0.1530  0.8355
  471MOL0     C64893  10.011  11.334   9.938  1.4526 -0.1616  0.1374
  471MOL0     C64894  10.131  11.354  10.006 -0.1386 -0.0052  1.0340
  471MOL0     C64895  10.137  11.409  10.140  0.8125 -0.7839 -0.2142
  471MOL0     O64896  10.261  11.422  10.199  0.2551 -0.9448  0.0987
  471MOL0     C64897  10.282  11.484  10.331  0.1007 -0.1855 -0.4781
  471MOL0     C64898  10.312  11.634  10.313  0.9750 -0.1371 -0.0656
  471MOL0     C64899  10.447  11.656  10.242  0.2980  0.9405  0.0667
  471MOL0     C64900  10.534  11.762  10.314 -0.4697  0.4781 -0.1519
  471MOL0     C64901  10.662  11.779  10.228  0.6523 -1.0822 -0.2304
  471MOL0     C64902  10.751  11.897  10.278 -0.5259 -0.8307 -0.4797
  471MOL0     C64903  10.871  11.911  10.178  1.0687  0.1477  0.8409
  471MOL0     C64904  10.970  12.025  10.212 -0.0928  0.4754  0.1381
  471MOL0    Cl64905  10.986  12.040  10.390  0.2877  0.1374 -0.3934
  471MOL0     C64906  10.016  11.430  10.205 -0.8736 -0.0941 -0.6711
  471MOL0     C64907   9.895  11.412  10.141  0.2792 -0.5913  0.0739
  471MOL0     O64908   9.812  11.160   9.827 -0.1789 -0.3043 -0.3937
  471MOL0     C64909   9.519  11.350   9.877  0.5165 -0.3555  0.5587
  471MOL0     C64910   9.388  11.368   9.853 -0.3718 -0.4843  0.6290
  471MOL0     N64911   8.701  10.905  10.195  0.0725 -0.2075  0.2753
  471MOL0     N64912   8.622  10.810  10.199 -0.9945 -0.5952  0.1498
  471MOL0     C64913   9.198   9.641  10.146  1.2611 -0.4160  0.6213
  471MOL0     C64914   9.327   9.599  10.135 -0.5613 -1.4985  0.1451
  471MOL0     C64915   9.782   9.520  10.089  0.2465 -0.1442 -0.6619
  471MOL0     C64916   9.809   9.504   9.960 -0.4039  0.0373  1.8108
  471MOL0     C64917   9.940   9.487   9.918  0.1392 -0.6306 -0.0463
  471MOL0     C64918  10.045   9.472  10.007  0.8795  0.0451  1.1607
  471MOL0     O64919  10.174   9.452   9.964 -0.0627  0.5056 -0.1380
  471MOL0     C64920  10.224   9.562   9.884  0.4107 -0.3525  0.2866
  471MOL0     C64921  10.259   9.682   9.979 -0.0684 -0.7417 -0.9898
  471MOL0     C64922  10.299   9.805   9.890  0.1371 -0.2126  0.1895
  471MOL0     C64923  10.452   9.811   9.843 -0.4691  0.4063  0.1912
  471MOL0     C64924  10.476   9.721   9.729  0.5181  0.3076 -0.1050
  471MOL0     C64925  10.487   9.633   9.647  0.8477 -0.0522 -0.7830
  471MOL0     C64926  10.012   9.490  10.143  0.2367 -0.2044  0.3218
  471MOL0     C64927   9.881   9.503  10.188  0.0150 -0.4137  0.5798
  471MOL0     C64928   9.853   9.505  10.335  0.0562 -0.8582 -0.3346
  471MOL0     H64929   9.473   9.804   9.919  0.4314 -2.4042 -1.6747
  471MOL0     H64930   9.244   9.888   9.913 -3.0804  0.0593  1.0787
  471MOL0     H64931   8.981   9.995  10.050  1.3590  0.7662 -0.2468
  471MOL0     H64932   9.120   9.954  10.153  0.7335 -0.6434  0.8628
  471MOL0     H64933   8.834   9.868  10.184  0.4351  0.2069 -1.2368
  471MOL0     H64934   8.951   9.828  10.299 -1.8198 -1.0659 -0.7965
  471MOL0     H64935   8.857  10.043  10.401 -3.1018  3.2539 -1.0250
  471MOL0     H64936   8.992  10.095  10.303 -0.3014  0.7358 -0.0018
  471MOL0     H64937   8.793  10.095  10.117 -1.9758  3.3267 -0.4777
  471MOL0     H64938   8.695  10.041  10.243  1.6346 -0.1162  3.1629
  471MOL0     H64939   8.850  10.303  10.259  0.7375 -0.7815  1.8353
  471MOL0     H64940   8.726  10.254  10.371  2.5189 -0.1279  0.9513
  471MOL0     H64941   8.687  10.318  10.062  1.2717  1.8329 -0.2647
  471MOL0     H64942   8.562  10.313  10.202  1.7134 -3.3886  2.1664
  471MOL0     H64943   8.785  10.514  10.155 -0.3070  3.3490 -0.7993
  471MOL0     H64944   8.655  10.528  10.282  1.6761  1.3335 -0.4066
  471MOL0     H64945   8.613  10.552   9.981 -2.4789 -2.3435 -0.4753
  471MOL0     H64946   8.499  10.577  10.125  0.5162  3.3781  2.3971
  471MOL0     H64947   8.807  10.725   9.947 -1.0702 -0.3232 -0.0677
  471MOL0     H64948   9.003  10.843  10.058  1.2240  0.9124 -2.2190
  471MOL0     H64949   8.973  10.992  10.151  4.0079  2.0653 -3.3452
  471MOL0     H64950   8.916  10.964   9.862 -1.4040 -3.2578  2.2697
  471MOL0     H64951   8.871  11.111   9.969  0.2333  1.4371 -2.3104
  471MOL0     H64952   9.080  11.159  10.019 -2.7876  1.2720 -1.0313
  471MOL0     H64953   9.165  11.030   9.925 -1.7085 -1.7713 -2.3478
  471MOL0     H64954   9.104  11.126   9.712  2.9290 -2.4200  1.1435
  471MOL0     H64955   8.976  11.217   9.795 -0.6603 -0.8582  1.1111
  471MOL0     H64956   9.325  11.056   9.728  0.8261  0.4770 -1.6005
  471MOL0     H64957   9.647  10.968   9.799 -0.5740 -1.2030 -1.9972
  471MOL0     H64958   9.644  11.019   9.632 -0.6686 -0.3722 -1.8599
  471MOL0     H64959   9.513  10.933   9.695  0.0728  0.2312 -2.2824
  471MOL0     H64960  10.015  11.305   9.834 -0.8209 -1.7512  0.4211
  471MOL0     H64961  10.223  11.318   9.961 -1.0808 -1.5831  0.3115
  471MOL0     H64962  10.192  11.464  10.390 -0.7776  1.5682 -1.1410
  471MOL0     H64963  10.370  11.430  10.367 -0.2252 -2.3075 -2.6355
  471MOL0     H64964  10.239  11.687  10.250  1.2092 -2.1150 -2.1640
  471MOL0     H64965  10.301  11.692  10.404  0.0739  1.9023 -1.3965
  471MOL0     H64966  10.428  11.693  10.141  0.5980  1.7771  0.3056
  471MOL0     H64967  10.505  11.564  10.226  2.4660  2.3695 -0.7880
  471MOL0     H64968  10.578  11.720  10.406  0.5492  2.2597  0.2303
  471MOL0     H64969  10.476  11.849  10.347  0.7047  2.1944 -2.3581
  471MOL0     H64970  10.724  11.690  10.238  1.4503 -0.5246 -0.1388
  471MOL0     H64971  10.638  11.809  10.125 -2.7161 -0.5847  0.5668
  471MOL0     H64972  10.783  11.891  10.382  1.4945 -0.3530 -1.0181
  471MOL0     H64973  10.687  11.985  10.277 -3.4729 -2.7027 -3.9577
  471MOL0     H64974  10.832  11.939  10.080 -0.3565  2.8126  2.0613
  471MOL0     H64975  10.920  11.814  10.165 -0.0937 -0.4642  0.8681
  471MOL0     H64976  10.949  12.122  10.165 -0.3688  0.1286 -0.4713
  471MOL0     H64977  11.060  11.990  10.161 -0.8029 -4.2902  1.7208
  471MOL0     H64978  10.016  11.471  10.306 -0.2428 -0.2057 -0.6247
  471MOL0     H64979   9.801  11.456  10.173 -0.2637  0.2684 -2.4570
  471MOL0     H64980   9.554  11.441   9.925  3.0782 -0.1485 -1.5028
  471MOL0     H64981   9.325  11.451   9.883 -0.4780 -0.1644 -0.4361
  471MOL0     H64982   9.125   9.602  10.216  1.1833  0.3664  0.9934
  471MOL0     H64983   9.344   9.509  10.193 -2.8930 -2.0400  0.0975
  471MOL0     H64984   9.733   9.530   9.888 -2.1996 -3.2633  2.3534
  471MOL0     H64985   9.959   9.481   9.812 -0.3027 -0.0033 -0.1667
  471MOL0     H64986  10.322   9.539   9.840  0.1567 -1.9020  0.4622
  471MOL0     H64987  10.161   9.570   9.795 -2.9247 -0.4964  2.4712
  471MOL0     H64988  10.337   9.651  10.049 -0.3890  1.8039  0.6237
  471MOL0     H64989  10.185   9.707  10.056  3.3567  1.1814  2.0319
  471MOL0     H64990  10.241   9.826   9.800 -0.1280 -0.5288  0.2884
  471MOL0     H64991  10.281   9.887   9.960 -0.2307 -1.9089  2.1493
  471MOL0     H64992  10.526   9.781   9.919  1.0242  1.5821 -0.7439
  471MOL0     H64993  10.470   9.913   9.809  0.8335  0.9912  2.3850
  471MOL0     H64994  10.502   9.538   9.598  3.2669 -1.2181  1.9313
  471MOL0     H64995  10.096   9.481  10.211  1.6179  1.2251 -1.0932
  471MOL0     H64996   9.942   9.476  10.391  1.1376 -2.6480 -2.7772
  471MOL0     H64997   9.840   9.609  10.364  2.3290 -0.5626 -0.2703
  471MOL0     H64998   9.770   9.444  10.373  0.6877 -0.8855  1.0299
  472MOL0     O64999  10.901  10.386   5.274  0.2985 -1.1651 -0.7135
  472MOL0     C65000  10.900  10.268   5.286 -0.4107 -0.5839  0.0254
  472MOL0     O65001  11.008  10.188   5.311  0.2205 -0.0475  0.8729
  472MOL0     C65002  11.133  10.226   5.281 -0.6047 -0.4048 -0.6030
  472MOL0     C65003  11.232  10.230   5.382 -0.3865  0.1923  0.3666
  472MOL0     C65004  11.372  10.256   5.353 -1.2741  0.9448  1.6333
  472MOL0     C65005  11.406  10.288   5.219  0.7551 -0.8377  0.8406
  472MOL0     O65006  11.535  10.312   5.188 -0.3685  0.3816 -0.3761
  472MOL0     C65007  11.625  10.357   5.290 -0.7674 -0.0529 -0.4895
  472MOL0     C65008  11.763  10.369   5.224 -0.8369 -0.2911  1.7562
  472MOL0     C65009  11.853  10.465   5.296 -0.2918  0.0983  0.2038
  472MOL0     C65010  11.989  10.464   5.227  0.1542  0.4836  0.3093
  472MOL0     C65011  12.060  10.323   5.238 -0.1414 -0.7136 -0.2850
  472MOL0     C65012  12.183  10.335   5.149  0.1087 -0.1849 -0.7442
  472MOL0     C65013  12.282  10.225   5.162 -0.2563  0.5094  0.3758
  472MOL0     C65014  12.351  10.206   5.302 -0.7711 -0.1730  0.2701
  472MOL0     N65015  12.455  10.104   5.291 -0.0726  0.6738 -0.0377
  472MOL0     C65016  12.441   9.971   5.260  0.2587  0.0847  0.5507
  472MOL0     C65017  12.559   9.919   5.240 -0.0086 -0.7002 -0.3414
  472MOL0     C65018  12.584   9.781   5.198  1.1948  0.4086 -0.6290
  472MOL0     C65019  12.677   9.716   5.296  0.0242 -0.3562  0.2545
  472MOL0     C65020  12.680   9.566   5.264 -0.2202  0.6550 -0.8226
  472MOL0     C65021  12.775   9.497   5.368 -0.3294 -0.1578  0.3297
  472MOL0     O65022  12.705   9.370   5.396 -0.0699 -0.5328 -0.0101
  472MOL0     C65023  12.600   9.374   5.484  0.2565  0.1809  0.2359
  472MOL0     C65024  12.490   9.295   5.451  0.0051  0.1750  0.3260
  472MOL0     C65025  12.381   9.275   5.534 -0.9828  0.0639  0.3309
  472MOL0     C65026  12.268   9.190   5.478 -1.0178 -0.0831  0.0514
  472MOL0     C65027  12.390   9.344   5.659  0.3580 -0.3205  0.2775
  472MOL0     C65028  12.282   9.311   5.758  0.5717 -1.0020  0.2636
  472MOL0     O65029  12.314   9.330   5.886 -0.1062  0.2977  0.4227
  472MOL0     C65030  12.230   9.287   5.986 -0.4278 -1.2561  0.7078
  472MOL0     C65031  12.185   9.158   6.017 -0.1692 -0.1848 -0.1088
  472MOL0     C65032  12.109   9.142   6.135  0.2062  1.0608 -0.2340
  472MOL0     C65033  12.075   9.254   6.209 -0.2439  0.7541  0.1818
  472MOL0     O65034  12.009   9.255   6.323  0.8564  0.1311  0.4524
  472MOL0     C65035  11.909   9.157   6.339 -0.7581 -0.3933  1.4216
  472MOL0     C65036  11.960   9.069   6.442  0.8922  0.3415 -0.6265
  472MOL0     C65037  11.950   9.140   6.584 -0.6241 -0.6203  0.3836
  472MOL0     C65038  11.944   9.040   6.698 -0.4803 -0.2093  0.8186
  472MOL0     C65039  11.941   9.111   6.834  0.9415  0.3555 -1.1026
  472MOL0     C65040  11.879   9.031   6.947 -0.9570 -0.6235  0.1598
  472MOL0     C65041  11.902   9.092   7.089 -1.1415  0.1240  0.0074
  472MOL0     C65042  11.973   8.993   7.181 -0.0071  0.4258  0.4965
  472MOL0    Cl65043  12.028   9.068   7.330  0.1582  0.6719  0.4375
  472MOL0     C65044  12.131   9.378   6.178 -1.2864 -0.4624 -0.1790
  472MOL0     C65045  12.203   9.398   6.065 -0.0844  0.1416 -0.8351
  472MOL0     O65046  12.170   9.282   5.714  0.2696  0.1368 -0.4478
  472MOL0     C65047  12.491   9.427   5.695 -0.5188 -0.6786 -0.5846
  472MOL0     C65048  12.601   9.444   5.611 -0.0323  0.8195  0.6585
  472MOL0     N65049  12.656  10.013   5.260  0.2733 -0.1580 -0.3956
  472MOL0     N65050  12.592  10.122   5.288  1.0489  0.8141 -0.4064
  472MOL0     C65051  11.298  10.300   5.123 -0.5480  0.3587 -0.3827
  472MOL0     C65052  11.173  10.272   5.153  0.7497  0.8106 -0.8343
  472MOL0     C65053  10.769  10.208   5.307  0.0205  0.6211 -0.3107
  472MOL0     C65054  10.658  10.292   5.327  0.6584 -0.5004  1.2238
  472MOL0     C65055  10.532  10.242   5.359 -0.0945 -0.8155 -0.9802
  472MOL0     C65056  10.514  10.106   5.399  0.6452  0.9791 -0.1717
  472MOL0     O65057  10.400  10.047   5.441 -0.3137  1.3817 -0.2987
  472MOL0     C65058  10.301  10.134   5.483  0.0973 -1.0168 -0.9008
  472MOL0     C65059  10.197  10.136   5.377 -0.3681 -0.2340  0.1090
  472MOL0     C65060  10.102  10.261   5.365  0.5764 -0.6146  0.4371
  472MOL0     C65061  10.084  10.331   5.492 -0.8098  0.4871 -0.9001
  472MOL0     C65062   9.963  10.417   5.481  0.0511  0.1598 -0.3426
  472MOL0     C65063   9.870  10.479   5.459  0.1907 -0.3796  1.1270
  472MOL0     C65064  10.628  10.022   5.390 -0.4686  0.8294 -0.4377
  472MOL0     C65065  10.752  10.070   5.332 -0.7276  0.6818  0.0288
  472MOL0     C65066  10.854   9.965   5.301  0.2501 -0.3186 -0.1040
  472MOL0     H65067  11.201  10.187   5.477 -1.3897 -0.3535 -0.1995
  472MOL0     H65068  11.443  10.252   5.435  1.4744 -0.4232 -0.6085
  472MOL0     H65069  11.638  10.295   5.380  0.5907 -1.9778 -1.9121
  472MOL0     H65070  11.596  10.459   5.315 -1.9263 -0.5679  0.3366
  472MOL0     H65071  11.808  10.269   5.224 -0.4723 -0.1274  1.2304
  472MOL0     H65072  11.748  10.400   5.121  1.1023 -0.1447  1.4883
  472MOL0     H65073  11.798  10.560   5.294  0.6018  0.6102 -0.7561
  472MOL0     H65074  11.861  10.428   5.399 -1.2865 -1.6915 -0.3347
  472MOL0     H65075  11.971  10.489   5.122  1.1820 -4.1579 -1.1845
  472MOL0     H65076  12.049  10.546   5.268  2.3991 -0.6386 -0.5998
  472MOL0     H65077  12.003  10.232   5.215 -0.0167 -1.3755  1.7547
  472MOL0     H65078  12.097  10.317   5.341 -1.6188  2.8783  0.6066
  472MOL0     H65079  12.152  10.331   5.044 -4.0817 -3.5327  0.3408
  472MOL0     H65080  12.242  10.422   5.179  0.8731 -1.9693  3.7140
  472MOL0     H65081  12.359  10.256   5.091 -4.2456  2.3537 -3.7342
  472MOL0     H65082  12.245  10.130   5.123  0.5789 -0.4202  1.7632
  472MOL0     H65083  12.406  10.292   5.341  0.6947 -1.1925  0.5296
  472MOL0     H65084  12.263  10.181   5.363 -1.0488  1.9429  0.7860
  472MOL0     H65085  12.344   9.922   5.252  0.1106  0.4210  0.3049
  472MOL0     H65086  12.638   9.788   5.103  2.3588 -2.2931 -0.2577
  472MOL0     H65087  12.491   9.728   5.176  0.4999  1.3021  0.0659
  472MOL0     H65088  12.774   9.765   5.290 -0.5812  0.7409 -1.0216
  472MOL0     H65089  12.644   9.731   5.399  0.2757 -2.3293  0.6692
  472MOL0     H65090  12.583   9.516   5.269  0.0488 -0.1303 -2.6489
  472MOL0     H65091  12.716   9.537   5.164  1.6466 -4.3562  1.0046
  472MOL0     H65092  12.875   9.479   5.329 -0.0540  0.3596  0.7768
  472MOL0     H65093  12.793   9.553   5.461  0.7326 -0.3770  0.2614
  472MOL0     H65094  12.491   9.237   5.360  1.0852 -0.4492  0.7136
  472MOL0     H65095  12.278   9.089   5.517 -0.0260  1.2307  3.5485
  472MOL0     H65096  12.289   9.175   5.372 -0.7792 -2.8354  0.4086
  472MOL0     H65097  12.167   9.230   5.488 -0.3480  2.1504 -1.4275
  472MOL0     H65098  12.223   9.076   5.958 -3.4221 -0.9006 -1.4572
  472MOL0     H65099  12.081   9.046   6.178  1.0162  0.3977 -1.1336
  472MOL0     H65100  11.825   9.214   6.380  0.5699  0.9502  2.4095
  472MOL0     H65101  11.892   9.105   6.245  2.9623 -0.7240  0.7680
  472MOL0     H65102  11.890   8.985   6.436 -1.6263  2.3223 -1.3970
  472MOL0     H65103  12.057   9.029   6.413  1.7934  1.5024  0.6724
  472MOL0     H65104  11.869   9.213   6.582  1.1759  1.5394  1.2832
  472MOL0     H65105  12.042   9.197   6.597 -0.1708 -0.6510 -2.1018
  472MOL0     H65106  12.037   8.983   6.687 -0.2237  0.2710  0.4355
  472MOL0     H65107  11.861   8.971   6.681 -0.4101 -0.9520  3.1584
  472MOL0     H65108  12.040   9.150   6.862  0.0346  1.6054  0.5514
  472MOL0     H65109  11.890   9.208   6.830  3.7261  2.3234  3.1229
  472MOL0     H65110  11.911   8.927   6.949  1.2704  0.0038  2.4928
  472MOL0     H65111  11.774   9.023   6.919 -0.9047  0.1151 -0.2798
  472MOL0     H65112  11.813   9.131   7.139 -1.0898  0.2390  0.0084
  472MOL0     H65113  11.964   9.181   7.079  0.7489 -0.6907  3.0611
  472MOL0     H65114  12.061   8.953   7.129  1.3293  2.6700  0.9011
  472MOL0     H65115  11.902   8.911   7.198 -2.5984  2.9323  2.7985
  472MOL0     H65116  12.107   9.464   6.240 -2.6840 -1.7331  1.1401
  472MOL0     H65117  12.243   9.493   6.031  2.8938 -0.9849 -0.8089
  472MOL0     H65118  12.477   9.486   5.785 -0.6412 -0.4577 -0.7499
  472MOL0     H65119  12.678   9.514   5.642  2.5619 -0.8751 -1.4265
  472MOL0     H65120  11.317  10.340   5.024 -3.1790  0.1286 -1.0475
  472MOL0     H65121  11.104  10.266   5.070  0.3380  0.7219 -0.4872
  472MOL0     H65122  10.667  10.399   5.318  1.6329 -0.7389 -1.4327
  472MOL0     H65123  10.461  10.323   5.366  1.7286  1.0806 -2.8930
  472MOL0     H65124  10.260  10.098   5.578  1.6670 -2.5798 -0.7715
  472MOL0     H65125  10.334  10.236   5.506  0.2802 -1.2024 -0.3371
  472MOL0     H65126  10.135  10.047   5.389  0.0644 -0.3924  1.3472
  472MOL0     H65127  10.248  10.113   5.284 -0.0830 -3.6749  0.9878
  472MOL0     H65128  10.142  10.340   5.301 -1.5398  2.1949  2.3487
  472MOL0     H65129  10.004  10.237   5.323 -0.1220  0.8962  1.1343
  472MOL0     H65130  10.171  10.397   5.501 -1.4863  1.4999 -1.5414
  472MOL0     H65131  10.075  10.263   5.577 -1.6548  2.1565  0.3962
  472MOL0     H65132   9.789  10.548   5.462  0.3959 -0.1677  3.2657
  472MOL0     H65133  10.612   9.921   5.427  1.1433  0.5177 -0.4961
  472MOL0     H65134  10.905   9.988   5.207 -0.0703 -0.2324 -0.2566
  472MOL0     H65135  10.927   9.975   5.382  0.7132  1.6002 -0.6992
  472MOL0     H65136  10.815   9.863   5.294  0.6943 -0.4436 -0.9646
  473MOL0     O65137   0.678   6.605   8.326 -0.0278  0.5852  0.4062
  473MOL0     C65138   0.720   6.543   8.424 -0.6400  0.4967 -0.8977
  473MOL0     O65139   0.672   6.417   8.469  0.4873 -0.5350  0.0326
  473MOL0     C65140   0.572   6.351   8.393  0.0627 -0.1893 -0.4551
  473MOL0     C65141   0.570   6.204   8.411  0.5207 -0.4501 -0.1128
  473MOL0     C65142   0.482   6.121   8.344 -0.6753  0.4399  0.3670
  473MOL0     C65143   0.387   6.182   8.251 -0.2664 -0.7961 -0.8295
  473MOL0     O65144   0.295   6.097   8.203 -0.1029  0.3338  0.7319
  473MOL0     C65145   0.358   6.005   8.110  0.5790 -0.5359  0.4357
  473MOL0     C65146   0.240   5.972   8.014  0.6553 -0.4996 -0.1880
  473MOL0     C65147   0.303   5.932   7.883 -0.2436 -0.0700 -0.1548
  473MOL0     C65148   0.196   5.945   7.778  0.6773  0.2489  0.3858
  473MOL0     C65149   0.248   5.916   7.633  0.3255  0.0289  0.1837
  473MOL0     C65150   0.149   5.947   7.527 -0.3003  0.3827  0.5508
  473MOL0     C65151   0.205   5.926   7.380 -0.3748  0.3320 -0.8689
  473MOL0     C65152   0.241   5.789   7.317 -0.0843 -0.4992 -1.2068
  473MOL0     N65153   0.326   5.818   7.202  0.6326 -0.3331 -0.5039
  473MOL0     C65154   0.294   5.886   7.085 -0.1151  0.6354  0.3189
  473MOL0     C65155   0.413   5.888   7.014  0.2853 -0.8694 -0.4465
  473MOL0     C65156   0.426   5.956   6.872 -0.1817 -0.7397 -0.4475
  473MOL0     C65157   0.446   5.853   6.758 -0.1059  0.0268 -0.4471
  473MOL0     C65158   0.477   5.943   6.635  0.5543 -0.0907  0.0017
  473MOL0     C65159   0.519   5.853   6.521  0.2243 -0.4505 -0.0578
  473MOL0     O65160   0.424   5.752   6.485 -0.5123  0.9549 -0.0795
  473MOL0     C65161   0.454   5.669   6.380 -0.0758 -0.0495 -0.3673
  473MOL0     C65162   0.365   5.567   6.351  0.3724 -0.4735  0.5116
  473MOL0     C65163   0.393   5.474   6.249  0.2987  0.2537 -0.2095
  473MOL0     C65164   0.277   5.382   6.221  0.9190  0.4694 -0.2643
  473MOL0     C65165   0.515   5.475   6.182  0.2131 -0.3137 -1.0939
  473MOL0     C65166   0.561   5.373   6.077  0.0905  0.1296  1.4728
  473MOL0     O65167   0.505   5.246   6.073 -0.0944 -0.1239  0.2353
  473MOL0     C65168   0.546   5.132   6.008 -0.6288  0.7010 -0.6562
  473MOL0     C65169   0.674   5.120   5.954 -1.3958 -0.1755  0.5731
  473MOL0     C65170   0.704   4.997   5.901 -0.4367  0.2821  0.2508
  473MOL0     C65171   0.618   4.889   5.900  0.4631 -0.4884  0.0512
  473MOL0     O65172   0.669   4.772   5.851  0.2868 -0.1398  0.7130
  473MOL0     C65173   0.581   4.654   5.842 -0.0178  0.2050  0.3237
  473MOL0     C65174   0.655   4.556   5.763  0.6006 -0.0247 -1.1760
  473MOL0     C65175   0.554   4.452   5.711  0.1300 -0.0609  0.1629
  473MOL0     C65176   0.626   4.342   5.629 -0.1812  0.1108  0.0442
  473MOL0     C65177   0.684   4.388   5.497 -0.9933  0.1422 -0.8952
  473MOL0     C65178   0.794   4.295   5.432 -0.7252  0.0076 -0.0498
  473MOL0     C65179   0.870   4.377   5.330  0.6034  0.1878 -0.0638
  473MOL0     C65180   0.824   4.361   5.187  1.3991  0.4891  0.7118
  473MOL0    Cl65181   0.646   4.370   5.174 -0.1954 -0.1184  0.3522
  473MOL0     C65182   0.488   4.910   5.956  0.0669  0.2823 -0.0690
  473MOL0     C65183   0.454   5.035   6.018  0.0513 -0.1935  0.4058
  473MOL0     O65184   0.639   5.412   5.990 -0.2625  0.1287  1.2311
  473MOL0     C65185   0.605   5.578   6.214 -0.0892 -0.7327  0.3435
  473MOL0     C65186   0.578   5.673   6.313  0.7433 -0.9505 -0.8962
  473MOL0     N65187   0.497   5.798   7.073 -0.2767  0.1134 -0.1429
  473MOL0     N65188   0.451   5.769   7.191 -0.3338 -0.0350  0.5247
  473MOL0     C65189   0.372   6.319   8.242  0.1888  0.0876  0.0357
  473MOL0     C65190   0.459   6.402   8.308 -0.5346  0.8664  0.5842
  473MOL0     C65191   0.844   6.599   8.497  0.5377 -0.7228  0.5903
  473MOL0     C65192   0.887   6.537   8.607 -1.3669  0.4643 -0.3899
  473MOL0     C65193   1.006   6.574   8.674  0.2265 -0.0635 -0.4803
  473MOL0     C65194   1.077   6.695   8.649  0.7404 -0.2681  0.1440
  473MOL0     O65195   1.186   6.721   8.718 -0.1908  0.3028 -0.1455
  473MOL0     C65196   1.281   6.819   8.678  0.0633 -0.1898  0.6446
  473MOL0     C65197   1.399   6.824   8.778  0.1786  1.3025  0.6908
  473MOL0     C65198   1.462   6.702   8.846 -0.5466 -0.2538 -0.6635
  473MOL0     C65199   1.385   6.652   8.966 -0.4566 -0.4992  0.2782
  473MOL0     C65200   1.404   6.743   9.078  0.3026 -1.0382 -0.6014
  473MOL0     C65201   1.422   6.816   9.180  0.2401 -1.0385 -0.4794
  473MOL0     C65202   1.027   6.769   8.537  0.2917  1.1689 -0.1560
  473MOL0     C65203   0.913   6.720   8.458  0.1957 -0.9427  0.3473
  473MOL0     C65204   0.869   6.818   8.349  0.5848  0.2290 -0.3786
  473MOL0     H65205   0.647   6.155   8.470  0.2619  0.7736  1.3114
  473MOL0     H65206   0.492   6.013   8.352  1.7159  0.6133  0.2115
  473MOL0     H65207   0.408   5.920   8.156  1.8850 -0.5201 -0.8675
  473MOL0     H65208   0.437   6.061   8.059 -1.6234  1.7387 -0.6803
  473MOL0     H65209   0.175   5.888   8.042  1.8601 -1.8803 -1.3643
  473MOL0     H65210   0.181   6.064   8.012  0.7159 -0.4608 -0.1534
  473MOL0     H65211   0.383   6.002   7.857 -0.1778  0.4744  1.4291
  473MOL0     H65212   0.345   5.831   7.882 -3.1091 -1.5150  3.6057
  473MOL0     H65213   0.126   5.869   7.811  1.3776  0.4114  2.3862
  473MOL0     H65214   0.135   6.036   7.774 -4.5302 -2.8104  1.5235
  473MOL0     H65215   0.276   5.811   7.642  1.6621  0.3044 -0.5513
  473MOL0     H65216   0.344   5.966   7.621 -0.1618  1.3717  1.4970
  473MOL0     H65217   0.073   5.875   7.558  3.2459 -3.1402  1.8799
  473MOL0     H65218   0.113   6.050   7.537  1.6807  1.2553 -0.6384
  473MOL0     H65219   0.301   5.978   7.393 -1.2583  1.8838 -0.3339
  473MOL0     H65220   0.132   5.960   7.306  0.0015 -1.6712 -2.2253
  473MOL0     H65221   0.297   5.736   7.395  3.1350  5.0519  0.7999
  473MOL0     H65222   0.146   5.740   7.293 -1.8265  1.6774  0.6793
  473MOL0     H65223   0.214   5.954   7.059  1.1144  1.9443 -0.1398
  473MOL0     H65224   0.506   6.030   6.880  1.0943 -1.8499 -2.1409
  473MOL0     H65225   0.336   6.009   6.840  1.1037  1.3149 -0.8379
  473MOL0     H65226   0.536   5.799   6.787  0.0882 -1.1652 -3.0417
  473MOL0     H65227   0.365   5.786   6.729 -2.7218  3.3578 -1.4526
  473MOL0     H65228   0.390   6.005   6.616  0.1730 -0.9302 -1.1234
  473MOL0     H65229   0.563   6.008   6.657 -0.9688  1.5996  1.2106
  473MOL0     H65230   0.543   5.920   6.438 -0.6476  1.5723  1.2393
  473MOL0     H65231   0.615   5.808   6.546  0.4842 -0.6164 -1.3142
  473MOL0     H65232   0.278   5.562   6.416  1.1272  0.8734  1.6843
  473MOL0     H65233   0.188   5.386   6.284 -0.3223 -3.1164 -1.5148
  473MOL0     H65234   0.300   5.275   6.232  1.0962  0.6595  1.4012
  473MOL0     H65235   0.234   5.400   6.122  2.7650 -0.3100 -1.2673
  473MOL0     H65236   0.743   5.201   5.936 -0.9391 -0.9976 -1.6092
  473MOL0     H65237   0.802   4.967   5.865  0.0608  1.4967  0.5117
  473MOL0     H65238   0.548   4.615   5.939 -2.7139 -0.8725 -0.9470
  473MOL0     H65239   0.485   4.680   5.799 -1.0455 -0.3585  2.1507
  473MOL0     H65240   0.725   4.602   5.692 -0.0796  1.9989 -0.6162
  473MOL0     H65241   0.717   4.503   5.835 -2.5322 -1.0705  0.9678
  473MOL0     H65242   0.469   4.496   5.658  1.3829 -0.7068 -2.5675
  473MOL0     H65243   0.510   4.404   5.799  0.1727 -0.2772  0.0676
  473MOL0     H65244   0.556   4.260   5.614 -0.2649  0.0373  0.7760
  473MOL0     H65245   0.706   4.313   5.699 -1.4546  1.4811  2.2147
  473MOL0     H65246   0.594   4.408   5.438 -1.6417  0.4209  0.1633
  473MOL0     H65247   0.722   4.488   5.521  0.6304 -1.0558  2.1211
  473MOL0     H65248   0.751   4.206   5.385 -2.5886  0.1480  1.2778
  473MOL0     H65249   0.861   4.258   5.510  0.4076 -1.7025 -1.7498
  473MOL0     H65250   0.979   4.372   5.342  0.5106  0.6693  1.1866
  473MOL0     H65251   0.844   4.483   5.344 -1.4099 -0.1437 -0.9459
  473MOL0     H65252   0.859   4.265   5.146  0.6850  1.0784 -1.4004
  473MOL0     H65253   0.865   4.439   5.122  1.2015 -0.8416 -1.1156
  473MOL0     H65254   0.411   4.834   5.966 -2.9379  3.1715  0.1907
  473MOL0     H65255   0.358   5.055   6.065  0.7546  0.5512  1.5679
  473MOL0     H65256   0.685   5.591   6.142 -2.1935 -0.3171 -2.0338
  473MOL0     H65257   0.657   5.744   6.337  1.4006 -1.6155 -1.0277
  473MOL0     H65258   0.287   6.353   8.184 -1.1050 -1.6774  0.8180
  473MOL0     H65259   0.450   6.510   8.311  2.6777  1.3004  5.6235
  473MOL0     H65260   0.837   6.446   8.640  0.0377 -0.1266  0.1972
  473MOL0     H65261   1.038   6.510   8.756  0.9327 -0.9495 -1.4264
  473MOL0     H65262   1.318   6.800   8.577  1.0547  1.9684  0.5645
  473MOL0     H65263   1.231   6.916   8.674 -0.1668 -0.3485 -0.7496
  473MOL0     H65264   1.365   6.890   8.859  0.5213  4.2300 -1.3579
  473MOL0     H65265   1.483   6.875   8.730  0.4564  2.7318  2.5628
  473MOL0     H65266   1.480   6.623   8.773 -1.7900 -2.0208  0.8472
  473MOL0     H65267   1.558   6.732   8.890 -1.7095 -0.0689  1.9249
  473MOL0     H65268   1.428   6.554   8.989  0.7330  0.0237  0.3342
  473MOL0     H65269   1.277   6.649   8.945 -0.4036  3.1463 -1.2036
  473MOL0     H65270   1.455   6.881   9.258  2.1218 -2.2860 -0.1498
  473MOL0     H65271   1.075   6.860   8.502 -0.1333  0.9338 -1.4070
  473MOL0     H65272   0.926   6.911   8.358 -0.0155  0.6309 -0.6766
  473MOL0     H65273   0.900   6.777   8.252  0.3043 -2.1759  0.4877
  473MOL0     H65274   0.763   6.844   8.351  1.0065  2.1027 -0.8052
  474MOL0     O65275   6.073  10.956   1.495  0.2349 -0.1147  0.1005
  474MOL0     C65276   6.142  10.900   1.581  0.3932  0.1917  0.1772
  474MOL0     O65277   6.101  10.830   1.696  1.3346  0.6201  0.0154
  474MOL0     C65278   5.965  10.825   1.725 -0.2555 -0.9822  0.6208
  474MOL0     C65279   5.886  10.944   1.751  0.8104 -0.0317 -0.0797
  474MOL0     C65280   5.763  10.945   1.816 -0.1964  0.3210 -0.7544
  474MOL0     C65281   5.703  10.819   1.858  0.2638 -0.3017  0.6004
  474MOL0     O65282   5.590  10.811   1.932  0.1574 -0.2088 -0.2727
  474MOL0     C65283   5.602  10.911   2.038 -0.3894  0.0869 -0.2834
  474MOL0     C65284   5.494  10.867   2.142 -0.0267  0.5146  0.6394
  474MOL0     C65285   5.528  10.722   2.202  0.1406 -0.2657 -0.2287
  474MOL0     C65286   5.648  10.716   2.304  0.8987  0.8409  0.2619
  474MOL0     C65287   5.666  10.566   2.325 -0.5447  0.6379 -0.1255
  474MOL0     C65288   5.772  10.553   2.443 -1.1400 -0.0371 -0.1643
  474MOL0     C65289   5.765  10.420   2.514  0.4094 -0.5395  1.0963
  474MOL0     C65290   5.787  10.313   2.407 -1.1051  0.7869  0.0299
  474MOL0     N65291   5.846  10.200   2.479 -0.7717  0.1330  0.2080
  474MOL0     C65292   5.778  10.098   2.535  0.1430  0.6897 -0.1651
  474MOL0     C65293   5.871  10.022   2.595 -0.7616  0.9724  0.8565
  474MOL0     C65294   5.872   9.899   2.674 -0.1443  0.8049  0.9248
  474MOL0     C65295   5.832   9.779   2.577 -0.7147 -0.4657 -1.4468
  474MOL0     C65296   5.932   9.750   2.467  0.0591  0.2881  0.3582
  474MOL0     C65297   6.056   9.670   2.522  0.3096 -0.1602 -0.1523
  474MOL0     O65298   6.141   9.640   2.412 -0.3693 -0.2107 -0.0660
  474MOL0     C65299   6.262   9.581   2.448 -0.1645 -1.0337  0.4781
  474MOL0     C65300   6.285   9.508   2.557 -0.2510 -0.1056  0.0076
  474MOL0     C65301   6.401   9.433   2.574 -0.7638 -0.9999  0.0110
  474MOL0     C65302   6.410   9.349   2.695  0.5570 -0.1269 -0.1252
  474MOL0     C65303   6.508   9.450   2.490  0.5602 -0.5444 -0.0474
  474MOL0     C65304   6.645   9.414   2.519 -0.3037 -0.4881  0.8204
  474MOL0     O65305   6.701   9.436   2.641 -0.5811 -0.2418 -0.0185
  474MOL0     C65306   6.830   9.406   2.663  0.2836 -0.3861  0.7204
  474MOL0     C65307   6.868   9.281   2.710  0.1060 -0.2139 -0.3710
  474MOL0     C65308   6.999   9.252   2.747 -0.4451 -0.6786 -0.7611
  474MOL0     C65309   7.099   9.355   2.732  0.5047 -0.9260  0.1015
  474MOL0     O65310   7.223   9.340   2.787  0.0145 -0.4870  0.0197
  474MOL0     C65311   7.325   9.323   2.683 -0.2656 -0.0151 -0.0083
  474MOL0     C65312   7.462   9.268   2.740 -0.3166 -0.1665 -0.5252
  474MOL0     C65313   7.517   9.360   2.856 -0.3101 -0.8288  1.1730
  474MOL0     C65314   7.595   9.488   2.790 -0.1369  0.9254 -0.5988
  474MOL0     C65315   7.603   9.603   2.885  0.4750  0.0140  0.3303
  474MOL0     C65316   7.683   9.711   2.816  0.5944  0.1570 -0.0162
  474MOL0     C65317   7.613   9.807   2.718 -0.0133  0.1764  0.0684
  474MOL0     C65318   7.719   9.903   2.648  0.0663  0.0503  0.2277
  474MOL0    Cl65319   7.832   9.988   2.753 -0.2992  0.2823 -0.5275
  474MOL0     C65320   7.061   9.480   2.700  0.4987 -0.0246  0.2228
  474MOL0     C65321   6.930   9.507   2.649 -1.7440 -1.1647 -0.1488
  474MOL0     O65322   6.701   9.357   2.425 -0.2456  0.4364  0.6764
  474MOL0     C65323   6.489   9.545   2.375  0.1195  0.7841 -0.7898
  474MOL0     C65324   6.365   9.602   2.355 -0.9607  0.9130  0.0220
  474MOL0     N65325   5.999  10.068   2.546  0.5458 -0.6084  0.4941
  474MOL0     N65326   5.979  10.179   2.492 -0.1696  0.1985 -0.2892
  474MOL0     C65327   5.775  10.702   1.826 -0.1410 -0.7173  0.6559
  474MOL0     C65328   5.899  10.707   1.766 -0.1152 -0.0303 -0.7076
  474MOL0     C65329   6.283  10.925   1.580  0.6587 -0.2517 -0.7843
  474MOL0     C65330   6.371  10.816   1.590  1.0070  0.3592 -0.7179
  474MOL0     C65331   6.505  10.834   1.616 -0.5988  0.4595  0.5478
  474MOL0     C65332   6.548  10.969   1.624  0.3522 -0.0071 -0.1361
  474MOL0     O65333   6.675  11.018   1.644 -0.4995  0.4788  1.4350
  474MOL0     C65334   6.758  10.938   1.720  0.0183  0.2199  0.0148
  474MOL0     C65335   6.875  11.011   1.776  0.1556 -0.0459 -0.8336
  474MOL0     C65336   7.008  10.943   1.791 -1.3088 -0.6872 -0.1037
  474MOL0     C65337   7.029  10.858   1.918 -0.0249  0.9883 -0.5954
  474MOL0     C65338   6.956  10.723   1.916  0.2879 -0.5101 -0.2268
  474MOL0     C65339   6.909  10.613   1.920  1.2141 -0.6202  0.5755
  474MOL0     C65340   6.459  11.072   1.611  0.2232  0.1909  1.0669
  474MOL0     C65341   6.326  11.056   1.591  0.4145  0.1682 -0.2471
  474MOL0     C65342   6.231  11.174   1.599 -0.4754 -0.5410 -0.7055
  474MOL0     H65343   5.930  11.043   1.736  0.8111  0.1749  1.1265
  474MOL0     H65344   5.713  11.038   1.840  0.7954  0.6662  0.0202
  474MOL0     H65345   5.568  11.008   1.999 -0.2829  0.4287  0.4686
  474MOL0     H65346   5.694  10.920   2.095 -0.4988 -2.1326  0.3147
  474MOL0     H65347   5.496  10.949   2.214 -0.4896  2.0281 -1.0006
  474MOL0     H65348   5.397  10.865   2.091  0.3700 -1.5734 -0.1220
  474MOL0     H65349   5.440  10.691   2.258 -0.2065  0.2528 -0.4735
  474MOL0     H65350   5.548  10.652   2.121  2.4275 -1.7909  1.5307
  474MOL0     H65351   5.728  10.747   2.236 -0.2820 -4.7392 -4.5433
  474MOL0     H65352   5.630  10.783   2.389  0.3238 -0.7811  1.4596
  474MOL0     H65353   5.716  10.518   2.241  1.1018  1.5243  0.2982
  474MOL0     H65354   5.569  10.521   2.347 -2.0007  3.6055  0.0179
  474MOL0     H65355   5.874  10.571   2.408 -0.3325 -0.9699  1.5960
  474MOL0     H65356   5.760  10.625   2.524 -4.8297 -1.9258  1.1643
  474MOL0     H65357   5.678  10.406   2.578  1.7534  0.3449  3.2047
  474MOL0     H65358   5.845  10.423   2.588  2.0030  0.3279 -0.5761
  474MOL0     H65359   5.698  10.286   2.349  0.4319 -0.4875 -1.8562
  474MOL0     H65360   5.860  10.348   2.333 -3.5184 -1.2497 -3.6396
  474MOL0     H65361   5.672  10.085   2.555  0.5147  1.9539  3.1975
  474MOL0     H65362   5.793   9.913   2.748 -0.6385 -1.7823  0.9733
  474MOL0     H65363   5.970   9.888   2.721 -0.1566  1.3387  1.0857
  474MOL0     H65364   5.808   9.692   2.639 -0.9322  0.4079 -0.2792
  474MOL0     H65365   5.739   9.812   2.529  0.4108  5.3811 -0.4011
  474MOL0     H65366   5.895   9.683   2.389 -1.5545  0.6237  0.8008
  474MOL0     H65367   5.965   9.839   2.413  1.4073  1.3359  2.7290
  474MOL0     H65368   6.111   9.739   2.587  0.4848  2.5779 -2.9232
  474MOL0     H65369   6.022   9.587   2.584 -1.4045 -0.8058 -1.8807
  474MOL0     H65370   6.204   9.507   2.629 -0.4212  1.7418 -0.1234
  474MOL0     H65371   6.458   9.413   2.769  1.5864  1.3120 -1.9541
  474MOL0     H65372   6.460   9.253   2.678 -0.6622 -0.5702 -1.4001
  474MOL0     H65373   6.319   9.315   2.746  1.3108 -3.2212 -0.6529
  474MOL0     H65374   6.787   9.210   2.727 -4.2393  4.4000  0.5374
  474MOL0     H65375   7.029   9.165   2.805  6.2608  2.0447  0.7591
  474MOL0     H65376   7.284   9.247   2.615 -2.7187  0.1139  1.2239
  474MOL0     H65377   7.346   9.415   2.628  1.0041 -0.5973 -0.5416
  474MOL0     H65378   7.443   9.168   2.779  1.7671 -0.8053 -1.0312
  474MOL0     H65379   7.536   9.263   2.661  0.3671 -1.2584  0.1581
  474MOL0     H65380   7.578   9.307   2.930  0.2385 -1.0881  0.5461
  474MOL0     H65381   7.430   9.391   2.915  1.9725  2.6598  3.0923
  474MOL0     H65382   7.555   9.521   2.693 -0.2623  2.6986  0.0119
  474MOL0     H65383   7.698   9.458   2.772 -0.1614  0.1068  0.5446
  474MOL0     H65384   7.507   9.647   2.912 -0.1064 -1.6962  1.2535
  474MOL0     H65385   7.657   9.577   2.978  2.3979 -0.3620 -0.8266
  474MOL0     H65386   7.767   9.676   2.755 -0.3273 -0.7397 -0.8208
  474MOL0     H65387   7.721   9.769   2.900  1.2198 -3.1983  2.2065
  474MOL0     H65388   7.530   9.855   2.772 -1.2370  0.1331 -1.7020
  474MOL0     H65389   7.572   9.744   2.639  0.7832 -2.0908  1.3626
  474MOL0     H65390   7.653   9.980   2.606 -1.1944 -0.1285  1.7810
  474MOL0     H65391   7.768   9.855   2.563 -0.3155  0.0185  0.0243
  474MOL0     H65392   7.131   9.562   2.717 -0.3574  0.9976 -0.9165
  474MOL0     H65393   6.919   9.605   2.604 -0.2167 -1.1734 -0.5987
  474MOL0     H65394   6.569   9.575   2.308 -1.5916  2.2634 -2.2817
  474MOL0     H65395   6.357   9.665   2.266 -0.3307  1.9168  0.6575
  474MOL0     H65396   5.744  10.600   1.848  3.9061 -2.9834 -2.6479
  474MOL0     H65397   5.952  10.612   1.765  1.9702  0.9457  1.9314
  474MOL0     H65398   6.327  10.717   1.575  0.3435 -0.1037  3.2303
  474MOL0     H65399   6.571  10.749   1.628  1.1285  1.5590 -0.7053
  474MOL0     H65400   6.697  10.884   1.793 -0.9648  1.7201  0.3602
  474MOL0     H65401   6.797  10.859   1.656  3.0561  1.9476 -0.4588
  474MOL0     H65402   6.849  11.048   1.876 -0.5979 -0.2406 -0.9567
  474MOL0     H65403   6.906  11.101   1.723  1.2409  0.3078  0.3518
  474MOL0     H65404   7.039  10.892   1.699  1.9901  2.4437 -0.9309
  474MOL0     H65405   7.092  11.012   1.798  0.0792 -2.0083 -2.3484
  474MOL0     H65406   6.991  10.912   2.005  1.3583  0.3056  0.4743
  474MOL0     H65407   7.137  10.843   1.924 -0.1409  0.4256  0.2962
  474MOL0     H65408   6.865  10.519   1.945 -2.1685  0.9352  1.0498
  474MOL0     H65409   6.500  11.171   1.592  0.1140 -0.2709 -2.1453
  474MOL0     H65410   6.141  11.149   1.656  0.1082  0.1198  0.5377
  474MOL0     H65411   6.280  11.260   1.645 -0.0051 -1.0840 -0.1649
  474MOL0     H65412   6.202  11.195   1.496 -1.1730 -1.5412 -0.7289
  475MOL0     O65413   9.980  10.622   6.625  0.3148  0.1448 -0.6344
  475MOL0     C65414  10.053  10.523   6.599  1.3271 -0.5889  0.2892
  475MOL0     O65415  10.160  10.483   6.674  0.5317 -0.5401  0.5644
  475MOL0     C65416  10.149  10.514   6.808  0.0612  1.0532  0.1557
  475MOL0     C65417  10.088  10.426   6.905 -1.0229  0.0852 -0.2810
  475MOL0     C65418  10.073  10.460   7.040  0.3380 -0.3629 -0.3168
  475MOL0     C65419  10.126  10.579   7.084  0.6521  0.3807 -0.4622
  475MOL0     O65420  10.117  10.597   7.223 -0.6487 -0.4858  0.9560
  475MOL0     C65421  10.106  10.729   7.262  0.9275 -0.9661  0.5615
  475MOL0     C65422   9.963  10.768   7.246 -0.0712  0.4508  0.0104
  475MOL0     C65423   9.942  10.907   7.315  0.1630 -0.0752 -0.5194
  475MOL0     C65424   9.800  10.967   7.278 -0.0422 -0.1530  0.3720
  475MOL0     C65425   9.776  11.097   7.351 -0.5622 -0.0394  0.1636
  475MOL0     C65426   9.745  11.098   7.501  0.5743  0.0592 -0.3068
  475MOL0     C65427   9.661  10.977   7.542 -0.1618 -1.0926  1.4648
  475MOL0     C65428   9.640  11.004   7.686  0.1962  0.6027  0.2480
  475MOL0     N65429   9.556  10.904   7.754 -0.3596 -0.3807 -0.8220
  475MOL0     C65430   9.592  10.789   7.818 -0.1337 -0.3312  0.0053
  475MOL0     C65431   9.481  10.750   7.874  0.1823 -0.2431 -0.3624
  475MOL0     C65432   9.476  10.646   7.981  0.5005 -0.1629 -0.2192
  475MOL0     C65433   9.529  10.709   8.106  0.3198  1.2389  0.3399
  475MOL0     C65434   9.547  10.597   8.211  1.2028  0.0123 -0.2828
  475MOL0     C65435   9.416  10.577   8.302  0.4690 -0.3150  0.4156
  475MOL0     O65436   9.445  10.487   8.400 -0.9563 -0.1559 -0.6056
  475MOL0     C65437   9.347  10.429   8.470 -0.9616 -1.2063  0.0603
  475MOL0     C65438   9.213  10.465   8.474 -0.4262 -0.9519 -1.4939
  475MOL0     C65439   9.112  10.388   8.546  0.4377 -0.9226  0.0173
  475MOL0     C65440   8.971  10.429   8.531  0.3223 -0.0481 -0.9949
  475MOL0     C65441   9.148  10.273   8.617 -0.4592  0.0131  0.4050
  475MOL0     C65442   9.062  10.189   8.696  0.9422  0.6902 -1.0679
  475MOL0     O65443   8.959  10.232   8.778 -1.8329 -0.5405  0.1389
  475MOL0     C65444   8.877  10.143   8.836  1.0922 -0.8956 -0.4127
  475MOL0     C65445   8.901  10.078   8.948  0.0901  0.3535  1.0088
  475MOL0     C65446   8.808   9.985   9.007  0.1242  0.2215  0.5020
  475MOL0     C65447   8.684   9.977   8.946  0.7968  0.1935  0.2002
  475MOL0     O65448   8.587   9.908   9.013  0.7244  0.8575  1.1732
  475MOL0     C65449   8.454   9.893   8.957  0.0791 -0.7240 -0.2018
  475MOL0     C65450   8.377   9.846   9.075 -0.0060  0.5417  1.0891
  475MOL0     C65451   8.228   9.809   9.058 -0.2357  0.4213  0.7388
  475MOL0     C65452   8.169   9.794   9.197  0.2556 -0.3880  0.3333
  475MOL0     C65453   8.023   9.743   9.186 -0.0630 -0.2290 -0.4417
  475MOL0     C65454   7.957   9.708   9.323  0.2112  0.2358 -0.4899
  475MOL0     C65455   7.942   9.829   9.419 -0.1508 -0.9894  0.2755
  475MOL0     C65456   7.811   9.898   9.395  0.2685 -0.9028 -0.0002
  475MOL0    Cl65457   7.751   9.991   9.547 -0.1414  0.6252 -0.0175
  475MOL0     C65458   8.655  10.046   8.830 -0.2005 -1.1100 -0.0159
  475MOL0     C65459   8.753  10.136   8.777 -0.1707 -0.5375  0.1736
  475MOL0     O65460   9.074  10.073   8.660  0.6070  0.2310 -0.6800
  475MOL0     C65461   9.287  10.243   8.619  0.1798  0.0547  1.3787
  475MOL0     C65462   9.386  10.314   8.541  0.9503  0.5442 -0.4895
  475MOL0     N65463   9.376  10.842   7.848 -0.7346  0.3055  0.5547
  475MOL0     N65464   9.428  10.924   7.762 -0.7099 -0.1775 -0.1156
  475MOL0     C65465  10.199  10.660   6.997 -1.0799 -0.1233 -0.3120
  475MOL0     C65466  10.203  10.627   6.864  0.0158  0.0154 -0.1421
  475MOL0     C65467  10.043  10.455   6.462 -0.0883  0.0351 -0.4808
  475MOL0     C65468  10.146  10.385   6.399 -1.1707 -0.3714 -0.6092
  475MOL0     C65469  10.141  10.349   6.271 -0.2538  0.8931  0.7118
  475MOL0     C65470  10.028  10.358   6.194 -0.1647  0.7730 -0.0932
  475MOL0     O65471  10.023  10.320   6.059 -0.4625 -0.2536 -0.6771
  475MOL0     C65472   9.909  10.347   5.978 -0.3926 -0.3064 -0.0217
  475MOL0     C65473   9.901  10.495   5.936 -0.5970 -0.4637 -1.1669
  475MOL0     C65474   9.786  10.527   5.837 -0.1204 -0.8624  0.8646
  475MOL0     C65475   9.814  10.669   5.781  0.4056  1.3481 -0.0195
  475MOL0     C65476   9.689  10.700   5.712 -0.3235  0.6095 -0.6479
  475MOL0     C65477   9.578  10.740   5.673  0.4446 -0.0768  0.1771
  475MOL0     C65478   9.918  10.409   6.259 -0.9372 -1.6455  0.6581
  475MOL0     C65479   9.928  10.460   6.387  1.1481 -0.0169 -0.0669
  475MOL0     C65480   9.793  10.530   6.423 -0.0765  0.0523 -0.0714
  475MOL0     H65481  10.041  10.338   6.863  4.4037 -3.1846 -0.4768
  475MOL0     H65482  10.028  10.404   7.121  1.6010  0.5011  1.0491
  475MOL0     H65483  10.172  10.798   7.209  1.6516 -2.0842 -0.0388
  475MOL0     H65484  10.134  10.742   7.367 -0.3147  2.3923  0.5879
  475MOL0     H65485   9.933  10.776   7.141  2.1012 -1.5115 -0.8495
  475MOL0     H65486   9.902  10.689   7.292 -0.2338  0.3644 -0.3446
  475MOL0     H65487   9.944  10.884   7.422 -2.7244 -1.7982 -0.7289
  475MOL0     H65488  10.016  10.975   7.272  0.8550 -1.4641 -1.6173
  475MOL0     H65489   9.789  10.991   7.172 -5.5076  0.7356  0.8418
  475MOL0     H65490   9.722  10.902   7.319  1.0967 -0.1395  2.7142
  475MOL0     H65491   9.701  11.155   7.297 -0.0393  2.6006  2.0885
  475MOL0     H65492   9.866  11.159   7.347  0.7014 -1.7568  0.4823
  475MOL0     H65493   9.837  11.106   7.559  0.6477 -0.5640 -0.3225
  475MOL0     H65494   9.704  11.198   7.516  0.8051 -0.2159  2.7274
  475MOL0     H65495   9.709  10.880   7.529  1.5335  0.1284 -3.5251
  475MOL0     H65496   9.566  10.971   7.488 -0.4747  0.2415  1.8303
  475MOL0     H65497   9.736  10.990   7.737  0.9923 -2.0208 -1.7302
  475MOL0     H65498   9.608  11.105   7.713 -0.8052  0.7736 -1.4557
  475MOL0     H65499   9.697  10.763   7.828  0.4962  1.1756 -2.0153
  475MOL0     H65500   9.533  10.558   7.950 -0.7484  0.0358 -3.5124
  475MOL0     H65501   9.367  10.642   7.990  0.3665  2.7324  0.4802
  475MOL0     H65502   9.636  10.725   8.093  0.1912  0.7529 -1.5672
  475MOL0     H65503   9.463  10.786   8.149 -0.7704 -1.0975  3.2833
  475MOL0     H65504   9.576  10.511   8.150 -0.3642 -2.3440  2.0392
  475MOL0     H65505   9.626  10.631   8.278  1.2163  1.6710 -1.0924
  475MOL0     H65506   9.381  10.670   8.348  0.4810  0.6180 -1.3668
  475MOL0     H65507   9.333  10.540   8.241  1.5098 -2.2658  0.0974
  475MOL0     H65508   9.181  10.556   8.425  0.4599  1.3139  1.8082
  475MOL0     H65509   8.900  10.350   8.556  0.2502  0.5318  0.7842
  475MOL0     H65510   8.955  10.458   8.427 -0.7879 -0.1028 -0.8594
  475MOL0     H65511   8.951  10.506   8.607  0.7985  1.1606 -2.0433
  475MOL0     H65512   8.997  10.088   8.998  0.4788  2.4198 -0.0437
  475MOL0     H65513   8.828   9.941   9.104 -0.1508 -0.8979  0.0679
  475MOL0     H65514   8.409   9.987   8.924  2.0996 -1.0304 -4.5277
  475MOL0     H65515   8.444   9.814   8.882 -1.0049  0.4312 -1.3151
  475MOL0     H65516   8.428   9.755   9.109  0.2921  0.2989  0.0446
  475MOL0     H65517   8.395   9.925   9.148 -1.1320  1.3813  0.4906
  475MOL0     H65518   8.225   9.709   9.014 -3.1970 -0.3262  2.3507
  475MOL0     H65519   8.173   9.873   8.988  0.8205 -0.5505 -1.0594
  475MOL0     H65520   8.169   9.887   9.255  2.1072 -1.7764  2.7464
  475MOL0     H65521   8.216   9.717   9.258  0.8407  1.4919  2.3861
  475MOL0     H65522   7.965   9.827   9.147 -0.4573 -1.6428 -3.1768
  475MOL0     H65523   8.008   9.663   9.113 -1.3496 -1.6577  1.3119
  475MOL0     H65524   8.025   9.634   9.367 -0.0031  0.7460  0.7453
  475MOL0     H65525   7.871   9.641   9.313  2.5874 -3.1292 -0.2308
  475MOL0     H65526   8.017   9.904   9.394  1.7941 -2.6590  0.8309
  475MOL0     H65527   7.961   9.800   9.522  0.2338 -0.7922  0.2613
  475MOL0     H65528   7.741   9.820   9.362 -1.9280  1.4894 -1.3039
  475MOL0     H65529   7.813   9.975   9.318  0.0250  0.8027  1.6244
  475MOL0     H65530   8.559  10.031   8.782  0.4608 -2.8314 -0.8885
  475MOL0     H65531   8.740  10.201   8.691  1.7121 -0.4682 -0.0990
  475MOL0     H65532   9.326  10.159   8.676  0.1901 -3.2377 -2.9283
  475MOL0     H65533   9.489  10.280   8.528 -0.9431 -5.4579 -3.7753
  475MOL0     H65534  10.238  10.758   7.022 -1.3156 -0.1150  0.0383
  475MOL0     H65535  10.257  10.691   6.796  2.7017  0.7853  2.5199
  475MOL0     H65536  10.243  10.371   6.448  0.9066  4.1854 -2.8007
  475MOL0     H65537  10.232  10.296   6.245 -0.1482  1.1752  0.4978
  475MOL0     H65538   9.905  10.288   5.886 -2.2981 -0.1591 -0.0699
  475MOL0     H65539   9.816  10.321   6.030 -2.7598  1.9373 -2.7610
  475MOL0     H65540   9.989  10.529   5.880 -2.1702  2.1334 -2.2037
  475MOL0     H65541   9.891  10.565   6.019  2.4809 -2.5433  1.1714
  475MOL0     H65542   9.773  10.452   5.758 -2.5885  1.0334 -0.6963
  475MOL0     H65543   9.690  10.522   5.889 -1.2474  0.9675 -0.8681
  475MOL0     H65544   9.906  10.671   5.722  1.0893  0.3693  0.9852
  475MOL0     H65545   9.823  10.745   5.860 -1.3459  2.7675 -1.1181
  475MOL0     H65546   9.474  10.750   5.647  0.6548  0.4054 -0.5159
  475MOL0     H65547   9.822  10.423   6.211 -0.0424  1.2102 -0.4838
  475MOL0     H65548   9.782  10.628   6.374  1.5141  1.6682  2.5507
  475MOL0     H65549   9.710  10.480   6.372 -0.1647 -0.6182  0.7202
  475MOL0     H65550   9.779  10.515   6.530 -3.1110 -3.1986 -0.7441
  476MOL0     O65551   3.141   1.240   9.531  0.4699  0.3922  0.1165
  476MOL0     C65552   3.123   1.226   9.409 -1.1000 -0.7819 -0.0767
  476MOL0     O65553   3.161   1.310   9.318 -0.3162  0.2277  0.0951
  476MOL0     C65554   3.253   1.408   9.334 -0.7437 -0.0581  0.4871
  476MOL0     C65555   3.386   1.383   9.364 -0.1768 -0.1964  0.7766
  476MOL0     C65556   3.487   1.479   9.372  0.4354 -0.5875 -0.0105
  476MOL0     C65557   3.451   1.611   9.339 -0.5461  0.6019  0.7696
  476MOL0     O65558   3.547   1.719   9.337 -0.0193  0.2657  0.3126
  476MOL0     C65559   3.516   1.858   9.358  0.1837 -0.2255 -0.4570
  476MOL0     C65560   3.466   1.901   9.486  0.4067 -0.8687 -0.7187
  476MOL0     C65561   3.465   2.052   9.501 -0.3426  0.7801 -0.0040
  476MOL0     C65562   3.473   2.093   9.645  0.1928  0.2938 -0.2724
  476MOL0     C65563   3.380   2.211   9.669  0.5808 -0.0842 -0.4367
  476MOL0     C65564   3.351   2.255   9.814 -0.1461  0.3625  0.4589
  476MOL0     C65565   3.482   2.320   9.873 -0.7646  0.3733  0.1947
  476MOL0     C65566   3.492   2.336  10.028  0.2108 -0.2813 -0.0705
  476MOL0     N65567   3.633   2.338  10.078 -0.4036 -0.3060  0.0101
  476MOL0     C65568   3.720   2.443  10.056 -0.6552  0.6350 -0.5944
  476MOL0     C65569   3.816   2.423  10.146 -0.6850 -0.6796  0.3866
  476MOL0     C65570   3.948   2.493  10.167  0.1247 -0.0107  0.3103
  476MOL0     C65571   4.026   2.532  10.038 -0.7368  0.3755  0.3338
  476MOL0     C65572   4.054   2.415   9.940  0.5982 -0.3184 -0.2987
  476MOL0     C65573   4.109   2.462   9.800  0.8943  0.4414 -0.0758
  476MOL0     O65574   4.029   2.569   9.746  0.1752  0.3386 -0.3622
  476MOL0     C65575   3.927   2.544   9.653  0.1662  0.4419  0.0381
  476MOL0     C65576   3.842   2.652   9.613 -0.1509  0.5167  0.2800
  476MOL0     C65577   3.744   2.637   9.515  0.7604 -0.2610 -0.4430
  476MOL0     C65578   3.666   2.767   9.465 -0.4814  0.3611  0.8023
  476MOL0     C65579   3.716   2.505   9.471  0.4597  0.6238 -0.4471
  476MOL0     C65580   3.606   2.484   9.376 -0.6002  0.2502  0.1706
  476MOL0     O65581   3.589   2.359   9.332 -0.3034  0.8951  0.6082
  476MOL0     C65582   3.476   2.303   9.278 -0.2286 -0.1510 -0.5766
  476MOL0     C65583   3.505   2.205   9.185  1.2658  0.1113  0.2236
  476MOL0     C65584   3.400   2.122   9.142  0.8358 -0.7257 -0.8025
  476MOL0     C65585   3.266   2.149   9.176  0.6775 -0.0463  0.3917
  476MOL0     O65586   3.173   2.075   9.108  0.8538 -0.5138  0.1784
  476MOL0     C65587   3.048   2.060   9.171 -0.2778  0.1460  0.1355
  476MOL0     C65588   2.948   2.018   9.063  0.5806  0.1724 -0.4917
  476MOL0     C65589   2.958   2.091   8.932  0.0367  0.1304  0.6283
  476MOL0     C65590   2.911   2.004   8.814 -0.1437  0.7889  0.1303
  476MOL0     C65591   2.868   2.085   8.691 -1.2173 -0.6446  0.1325
  476MOL0     C65592   2.817   1.996   8.574 -0.4192 -0.2200  0.0578
  476MOL0     C65593   2.692   1.923   8.600 -0.4180  1.3858 -0.7122
  476MOL0     C65594   2.629   1.857   8.479  0.1097  0.0886  0.1432
  476MOL0    Cl65595   2.604   1.974   8.331  0.2035  0.2260  0.0765
  476MOL0     C65596   3.242   2.256   9.261  1.4413 -0.8066  0.8126
  476MOL0     C65597   3.349   2.327   9.323  1.4309  0.0861 -0.6578
  476MOL0     O65598   3.532   2.576   9.351 -0.5332 -0.7527 -0.1257
  476MOL0     C65599   3.790   2.393   9.516 -0.1966 -0.6667 -0.8281
  476MOL0     C65600   3.891   2.415   9.603 -0.5756  0.2013 -0.4733
  476MOL0     N65601   3.795   2.308  10.214 -0.0232  0.5607  0.4788
  476MOL0     N65602   3.686   2.258  10.167 -0.2859  1.2076 -0.7861
  476MOL0     C65603   3.320   1.636   9.314  0.4130 -0.5240 -1.4197
  476MOL0     C65604   3.218   1.537   9.324  0.6179  0.5773  1.7049
  476MOL0     C65605   3.030   1.121   9.370  1.2232  1.0799 -0.3125
  476MOL0     C65606   2.922   1.152   9.285 -0.0192  1.1969  0.7980
  476MOL0     C65607   2.840   1.051   9.240  0.0800 -0.2322  0.3604
  476MOL0     C65608   2.865   0.919   9.284 -0.2136  0.3847  0.4237
  476MOL0     O65609   2.775   0.827   9.241  0.3620 -0.2040 -0.4317
  476MOL0     C65610   2.799   0.780   9.111  1.2611 -1.0362 -0.7093
  476MOL0     C65611   2.757   0.632   9.087  0.2941  0.4371  0.1399
  476MOL0     C65612   2.704   0.605   8.942  0.6813  0.5189 -0.1755
  476MOL0     C65613   2.647   0.460   8.924 -0.0867  0.3873  0.0014
  476MOL0     C65614   2.634   0.433   8.780  0.2922 -0.0456  0.0686
  476MOL0     C65615   2.630   0.403   8.661 -0.3196 -0.0540 -0.2750
  476MOL0     C65616   2.961   0.887   9.382  0.3231 -0.4193 -0.0937
  476MOL0     C65617   3.049   0.990   9.423 -0.3274  0.3616  0.4342
  476MOL0     C65618   3.177   0.949   9.500 -0.1814  0.5119  0.0752
  476MOL0     H65619   3.410   1.277   9.377 -0.3139 -1.0754 -4.0890
  476MOL0     H65620   3.584   1.439   9.396  0.7114  0.2876  0.3818
  476MOL0     H65621   3.460   1.909   9.279  1.3501  0.4542 -0.8697
  476MOL0     H65622   3.617   1.897   9.341  0.1325 -0.3457 -1.0612
  476MOL0     H65623   3.365   1.863   9.501  0.6328 -1.8751 -1.6530
  476MOL0     H65624   3.517   1.842   9.562 -3.0755 -3.7187 -0.3598
  476MOL0     H65625   3.553   2.098   9.455  2.6401 -4.7095 -0.6913
  476MOL0     H65626   3.377   2.086   9.445  0.9591 -1.1599 -3.4993
  476MOL0     H65627   3.442   2.008   9.706  1.9982 -0.2728 -0.0837
  476MOL0     H65628   3.578   2.109   9.673  0.5240 -1.3603 -0.4094
  476MOL0     H65629   3.278   2.188   9.635  0.1109  1.1287  0.0856
  476MOL0     H65630   3.417   2.295   9.610 -1.0906 -0.0871 -1.5688
  476MOL0     H65631   3.275   2.334   9.816 -0.8092 -0.2761  1.2671
  476MOL0     H65632   3.315   2.171   9.874 -0.3153  0.5105  0.5663
  476MOL0     H65633   3.484   2.417   9.823 -0.5627  1.5914  2.4044
  476MOL0     H65634   3.569   2.263   9.838 -0.4191  1.8127 -1.4270
  476MOL0     H65635   3.430   2.421  10.059 -1.6649 -1.9047  0.8050
  476MOL0     H65636   3.438   2.254  10.075 -0.5049  0.3022  0.1451
  476MOL0     H65637   3.702   2.527   9.989  0.9063  0.2448 -1.5525
  476MOL0     H65638   4.001   2.422  10.232 -1.6930  0.0115  1.9106
  476MOL0     H65639   3.941   2.578  10.235  5.7708  0.8403  0.2825
  476MOL0     H65640   3.958   2.602   9.988 -0.8070  1.3240  1.6944
  476MOL0     H65641   4.122   2.566  10.078  0.0520 -0.4034 -0.8492
  476MOL0     H65642   4.123   2.347   9.990  1.7260  0.1425 -1.1902
  476MOL0     H65643   3.953   2.378   9.920 -0.2748  2.1310 -0.8101
  476MOL0     H65644   4.210   2.503   9.806 -0.2444  3.2826  1.6869
  476MOL0     H65645   4.128   2.386   9.724 -0.0012 -1.1864  1.2681
  476MOL0     H65646   3.839   2.750   9.660 -0.2925  0.5756  0.1504
  476MOL0     H65647   3.700   2.848   9.531  2.0081  1.0353 -1.1599
  476MOL0     H65648   3.557   2.762   9.468 -0.5107  0.1412 -0.2310
  476MOL0     H65649   3.686   2.796   9.362  0.1397  4.9877  2.0004
  476MOL0     H65650   3.606   2.178   9.154  1.6553  1.2211  0.4458
  476MOL0     H65651   3.406   2.040   9.071  0.2275 -0.1969 -1.4899
  476MOL0     H65652   3.050   1.984   9.249 -2.2839 -1.7540 -1.5084
  476MOL0     H65653   3.016   2.154   9.218 -1.4523  0.4673 -1.2165
  476MOL0     H65654   2.966   1.917   9.026 -1.7208  0.1381 -1.7027
  476MOL0     H65655   2.843   2.024   9.093 -1.1889 -0.2574 -5.6239
  476MOL0     H65656   3.060   2.119   8.904  0.8840 -3.3565 -0.2514
  476MOL0     H65657   2.902   2.185   8.925 -0.6464 -0.3685 -1.9709
  476MOL0     H65658   2.831   1.938   8.848 -0.5393 -0.9313 -3.5780
  476MOL0     H65659   2.991   1.931   8.801  1.5421  2.2530  1.7367
  476MOL0     H65660   2.800   2.159   8.734  0.7491  0.9610  0.6730
  476MOL0     H65661   2.953   2.146   8.660  2.4628 -4.3445  1.9999
  476MOL0     H65662   2.896   1.929   8.539  0.7208  0.9527  0.2848
  476MOL0     H65663   2.794   2.066   8.493 -0.5147  0.1582  0.4067
  476MOL0     H65664   2.627   2.001   8.641  2.0131  3.2512 -0.2061
  476MOL0     H65665   2.705   1.839   8.669 -0.7575  0.6078 -1.5776
  476MOL0     H65666   2.524   1.830   8.495  0.1468 -0.2606 -0.1845
  476MOL0     H65667   2.685   1.769   8.446 -0.9358 -0.2260 -0.8681
  476MOL0     H65668   3.142   2.294   9.279  0.9766 -1.7507  0.2609
  476MOL0     H65669   3.334   2.409   9.392  5.4425  0.8831 -0.5007
  476MOL0     H65670   3.762   2.299   9.470 -0.5203 -0.7843 -0.3978
  476MOL0     H65671   3.964   2.336   9.622 -0.6839  0.3737  0.7016
  476MOL0     H65672   3.297   1.741   9.304 -1.0144 -0.7562 -0.7231
  476MOL0     H65673   3.114   1.561   9.308  0.2497 -1.7522  0.0484
  476MOL0     H65674   2.905   1.256   9.257 -1.2308  1.2244  1.5532
  476MOL0     H65675   2.764   1.059   9.163  0.0415 -0.2248  0.3994
  476MOL0     H65676   2.735   0.836   9.042 -0.7176 -0.5830  1.3718
  476MOL0     H65677   2.905   0.794   9.086  0.7682  2.1455 -1.4447
  476MOL0     H65678   2.675   0.620   9.159  0.5889 -1.5030  0.1939
  476MOL0     H65679   2.837   0.564   9.114 -2.0277 -2.0111  1.3357
  476MOL0     H65680   2.632   0.686   8.933  2.7562  2.7218  1.7093
  476MOL0     H65681   2.788   0.619   8.873  0.5755 -1.6734 -0.8245
  476MOL0     H65682   2.553   0.454   8.979 -0.3746  1.6218 -0.3238
  476MOL0     H65683   2.715   0.378   8.951 -0.7554 -0.5446 -1.0490
  476MOL0     H65684   2.638   0.373   8.559  1.0451  0.8843 -0.4768
  476MOL0     H65685   2.956   0.787   9.425  0.4197 -0.7386 -0.8125
  476MOL0     H65686   3.184   0.843   9.529 -0.2565 -0.0411 -1.8116
  476MOL0     H65687   3.266   0.966   9.439  1.4068 -1.3167  1.7357
  476MOL0     H65688   3.194   1.006   9.592  2.8788 -0.4344  0.2324
  477MOL0     O65689   5.616   8.201   4.750 -1.1833  0.5446 -0.2044
  477MOL0     C65690   5.662   8.083   4.737  0.1466  0.1419 -0.1337
  477MOL0     O65691   5.782   8.039   4.770 -0.7523  0.1220 -0.3947
  477MOL0     C65692   5.849   8.119   4.855 -0.2465 -0.1689 -0.0123
  477MOL0     C65693   5.903   8.235   4.803 -0.2808 -0.0262 -0.4030
  477MOL0     C65694   5.975   8.323   4.881  0.6460 -0.2234  0.0902
  477MOL0     C65695   6.007   8.270   5.018  0.1111 -0.5272  0.4038
  477MOL0     O65696   6.094   8.346   5.101  0.1749  0.3315 -0.2172
  477MOL0     C65697   6.037   8.447   5.189  0.1221  0.3735 -0.1395
  477MOL0     C65698   6.148   8.532   5.229 -0.3775  0.0479  0.0436
  477MOL0     C65699   6.104   8.659   5.299 -0.0940 -0.1309  0.0050
  477MOL0     C65700   5.999   8.745   5.221 -0.0983  0.0285 -0.5277
  477MOL0     C65701   6.001   8.882   5.281  0.5895  0.4812 -1.0559
  477MOL0     C65702   6.097   8.972   5.211  0.0640 -0.0770  0.6020
  477MOL0     C65703   6.044   9.021   5.073 -0.3587 -0.1875  0.2240
  477MOL0     C65704   6.144   9.117   5.004 -0.7270 -0.4010  0.0776
  477MOL0     N65705   6.156   9.239   5.083 -1.6059 -0.7135 -0.8281
  477MOL0     C65706   6.066   9.344   5.107  0.8017 -0.2272 -0.2427
  477MOL0     C65707   6.138   9.449   5.160  0.0612  0.7971 -0.1574
  477MOL0     C65708   6.080   9.561   5.244 -0.0186 -0.7343  0.0943
  477MOL0     C65709   6.015   9.675   5.165  0.5556  0.5754  0.1364
  477MOL0     C65710   6.109   9.771   5.110 -0.8832 -0.5807  0.9889
  477MOL0     C65711   6.135   9.758   4.960 -0.5091 -0.1595 -0.2282
  477MOL0     O65712   6.012   9.770   4.894 -0.6962 -0.5994  1.1801
  477MOL0     C65713   6.018   9.781   4.755  0.7123 -0.1872  0.0195
  477MOL0     C65714   6.127   9.747   4.677  1.3121 -0.3352  0.6005
  477MOL0     C65715   6.117   9.742   4.533  0.0853 -0.2543  0.8121
  477MOL0     C65716   6.235   9.682   4.457 -0.0143  1.1920  0.1537
  477MOL0     C65717   6.008   9.783   4.465 -0.6667  0.6484 -0.4397
  477MOL0     C65718   5.992   9.768   4.308  0.4558  1.4222 -0.7852
  477MOL0     O65719   5.862   9.739   4.282 -0.5823  0.1372 -0.4745
  477MOL0     C65720   5.841   9.722   4.150 -0.3925  0.1777  0.3889
  477MOL0     C65721   5.857   9.828   4.057  0.1647  0.1220  0.3138
  477MOL0     C65722   5.849   9.805   3.916  0.3244  0.7052  0.1924
  477MOL0     C65723   5.831   9.670   3.866 -0.2043 -0.4827 -0.0715
  477MOL0     O65724   5.813   9.661   3.727  0.2181 -0.3028 -0.2249
  477MOL0     C65725   5.915   9.710   3.646 -0.4450  0.7403  0.3069
  477MOL0     C65726   5.934   9.615   3.526  0.1919  0.7234 -0.8473
  477MOL0     C65727   5.928   9.466   3.565  0.3768  0.1247  0.1755
  477MOL0     C65728   6.037   9.432   3.656 -0.3767  0.8486  0.0927
  477MOL0     C65729   6.019   9.290   3.728 -0.0768  0.4609  0.1308
  477MOL0     C65730   6.133   9.241   3.793  0.4123 -0.2781 -0.2482
  477MOL0     C65731   6.130   9.093   3.829 -0.9980 -0.6419  0.0437
  477MOL0     C65732   6.265   9.064   3.897  0.1259 -0.4048 -0.5564
  477MOL0    Cl65733   6.246   8.905   3.974  0.3591  0.0265  0.0348
  477MOL0     C65734   5.824   9.569   3.953 -0.5411  0.2812 -0.4600
  477MOL0     C65735   5.827   9.596   4.093 -0.0243  0.0367  0.0069
  477MOL0     O65736   6.080   9.790   4.229  0.5387  0.4438  0.1060
  477MOL0     C65737   5.906   9.837   4.533  0.0019  1.2513 -0.1532
  477MOL0     C65738   5.908   9.835   4.681 -0.0430 -1.0479  0.8234
  477MOL0     N65739   6.269   9.413   5.152 -0.0115 -0.1081 -0.0561
  477MOL0     N65740   6.280   9.296   5.110 -1.0566  0.6780 -0.3058
  477MOL0     C65741   5.952   8.160   5.069 -0.5916  0.2007  1.0104
  477MOL0     C65742   5.873   8.074   4.984  0.4912  0.3647 -0.8387
  477MOL0     C65743   5.577   7.977   4.663 -0.5936 -1.2689 -0.7456
  477MOL0     C65744   5.529   8.002   4.532  0.0798 -0.7542 -1.5068
  477MOL0     C65745   5.448   7.909   4.468  0.4229 -0.1315 -0.3707
  477MOL0     C65746   5.413   7.788   4.536 -0.0457  0.8061  0.5921
  477MOL0     O65747   5.336   7.691   4.487 -0.4538  0.7746  0.9665
  477MOL0     C65748   5.294   7.695   4.343  0.1337  0.1398 -0.7692
  477MOL0     C65749   5.218   7.563   4.310 -0.2968 -0.7575  0.9199
  477MOL0     C65750   5.124   7.599   4.188 -0.7350  0.1007  0.1085
  477MOL0     C65751   5.210   7.592   4.054 -0.0964 -0.0130  0.4063
  477MOL0     C65752   5.120   7.597   3.949 -0.0280  0.6827  0.3915
  477MOL0     C65753   5.075   7.604   3.834 -0.6219  0.1688  0.6257
  477MOL0     C65754   5.465   7.766   4.661 -0.5333  0.6213  0.2347
  477MOL0     C65755   5.553   7.859   4.730 -0.0897  1.2248 -0.6703
  477MOL0     C65756   5.576   7.825   4.884  0.3734  0.6803  0.3241
  477MOL0     H65757   5.884   8.257   4.698  0.4765  1.4923 -0.2403
  477MOL0     H65758   6.009   8.419   4.842 -0.7510 -0.0046 -0.6606
  477MOL0     H65759   5.985   8.416   5.280  0.3967 -2.2190 -0.7687
  477MOL0     H65760   5.974   8.506   5.122  1.3965  1.7367 -0.1804
  477MOL0     H65761   6.212   8.474   5.296  0.8460  1.1701 -0.1151
  477MOL0     H65762   6.212   8.557   5.144  3.4415  0.4830  2.8040
  477MOL0     H65763   6.052   8.638   5.393 -0.7773 -1.4489 -0.6405
  477MOL0     H65764   6.191   8.719   5.327  0.7538 -1.8317  1.2086
  477MOL0     H65765   6.003   8.752   5.112 -0.2871  3.4159 -0.4042
  477MOL0     H65766   5.901   8.700   5.240  0.0737  0.6859  2.3727
  477MOL0     H65767   6.011   8.874   5.390  0.1276  0.1202 -1.0326
  477MOL0     H65768   5.903   8.931   5.271  0.8395  1.1952 -0.0922
  477MOL0     H65769   6.118   9.061   5.270  0.6391 -0.0510  0.3676
  477MOL0     H65770   6.196   8.924   5.204 -0.0969 -0.4032  0.5286
  477MOL0     H65771   5.940   9.054   5.079 -0.1511  0.4012  0.6406
  477MOL0     H65772   6.038   8.928   5.016 -1.1090 -0.4328  0.6814
  477MOL0     H65773   6.246   9.084   4.979  0.6498  1.2815  2.9025
  477MOL0     H65774   6.093   9.152   4.915 -1.2846 -1.3874 -0.0074
  477MOL0     H65775   5.958   9.332   5.105  0.7547  0.2007 -0.4153
  477MOL0     H65776   6.145   9.604   5.320  1.4344  1.3251 -2.1600
  477MOL0     H65777   5.996   9.517   5.298 -1.1311 -1.3433 -1.9966
  477MOL0     H65778   5.951   9.624   5.092  1.4412 -0.0175 -0.2438
  477MOL0     H65779   5.941   9.725   5.229  1.5970  2.2058  0.1341
  477MOL0     H65780   6.078   9.874   5.131  0.5363 -0.1149  0.9051
  477MOL0     H65781   6.204   9.756   5.162  0.2638 -1.9725 -1.3130
  477MOL0     H65782   6.201   9.844   4.946 -3.4554  2.1875 -0.6156
  477MOL0     H65783   6.195   9.668   4.942  1.9234  1.0558  1.2430
  477MOL0     H65784   6.225   9.719   4.714  1.7727  0.6588  0.1768
  477MOL0     H65785   6.285   9.745   4.384  1.4415 -0.4907 -0.3821
  477MOL0     H65786   6.214   9.584   4.412 -1.3597  1.7673 -0.5239
  477MOL0     H65787   6.324   9.667   4.519  1.2053  1.3937 -1.4951
  477MOL0     H65788   5.872   9.933   4.082  3.9082  0.1371 -1.3148
  477MOL0     H65789   5.862   9.883   3.842  0.9876  0.0776 -0.3674
  477MOL0     H65790   5.882   9.801   3.595  1.4031  1.0299 -0.4710
  477MOL0     H65791   6.005   9.728   3.706  0.5325 -3.0694  0.2209
  477MOL0     H65792   5.851   9.622   3.454 -0.5312  0.9791 -0.0112
  477MOL0     H65793   6.034   9.630   3.485  0.8576 -2.2009 -0.5695
  477MOL0     H65794   5.944   9.402   3.478 -0.7182  0.2647 -0.1496
  477MOL0     H65795   5.832   9.440   3.612 -0.0410  0.1002 -0.6640
  477MOL0     H65796   6.053   9.505   3.735  3.1647  0.4167 -0.0631
  477MOL0     H65797   6.130   9.433   3.598 -0.3758 -2.7339 -0.1747
  477MOL0     H65798   5.946   9.300   3.809  1.0783 -0.9757  1.4237
  477MOL0     H65799   5.984   9.210   3.663  4.0475 -1.1741 -0.3862
  477MOL0     H65800   6.137   9.297   3.887 -1.0240 -0.3317 -0.1352
  477MOL0     H65801   6.223   9.268   3.737 -0.5379  2.1129 -0.7600
  477MOL0     H65802   6.122   9.036   3.736 -1.6955  1.8061 -1.4845
  477MOL0     H65803   6.048   9.058   3.892 -2.3710  1.1241 -0.6935
  477MOL0     H65804   6.289   9.131   3.980  0.5631  0.7297 -1.5550
  477MOL0     H65805   6.355   9.049   3.835  2.7740  3.2578  1.9569
  477MOL0     H65806   5.828   9.476   3.898  0.2598  0.8873 -1.4604
  477MOL0     H65807   5.821   9.525   4.175 -1.5856  1.0022  0.7721
  477MOL0     H65808   5.819   9.874   4.480  1.9178  1.6582 -3.2642
  477MOL0     H65809   5.832   9.877   4.746  1.1129  1.7131  0.5482
  477MOL0     H65810   5.979   8.139   5.171  2.8538  0.0259  0.1703
  477MOL0     H65811   5.822   7.990   5.029  0.1289  0.6603 -0.6901
  477MOL0     H65812   5.546   8.095   4.478 -2.4419 -0.0503 -1.2080
  477MOL0     H65813   5.408   7.931   4.369  2.6754 -1.2220 -1.5871
  477MOL0     H65814   5.239   7.789   4.335 -2.9474 -1.4628 -0.1202
  477MOL0     H65815   5.379   7.701   4.275  1.0929  2.7756  0.5533
  477MOL0     H65816   5.162   7.545   4.401  0.9536 -4.5897  1.0976
  477MOL0     H65817   5.280   7.473   4.302  3.4267  1.5087  1.6547
  477MOL0     H65818   5.047   7.522   4.180  0.0519 -0.7644  0.6371
  477MOL0     H65819   5.081   7.699   4.201 -0.7091  0.2936 -1.1740
  477MOL0     H65820   5.256   7.493   4.062 -1.7702 -0.7771  0.9430
  477MOL0     H65821   5.275   7.679   4.039 -2.4725  2.1473  1.8942
  477MOL0     H65822   5.025   7.600   3.739 -1.0219 -0.9914  0.8645
  477MOL0     H65823   5.438   7.673   4.709  3.2312 -0.5641  0.3320
  477MOL0     H65824   5.673   7.775   4.890 -1.2883 -3.3420 -2.2375
  477MOL0     H65825   5.570   7.911   4.952 -0.5988  0.4835  0.4965
  477MOL0     H65826   5.506   7.750   4.921 -0.5257  0.8973 -0.8736
  478MOL0     O65827   9.226   4.850   2.192 -0.1095 -0.1635  0.6133
  478MOL0     C65828   9.231   4.931   2.286  0.5988 -0.1671 -0.3199
  478MOL0     O65829   9.190   4.897   2.415 -0.1362 -0.3933 -0.4881
  478MOL0     C65830   9.184   4.766   2.443  0.3883 -0.9275  0.2877
  478MOL0     C65831   9.292   4.695   2.497 -0.3341 -1.2793 -0.1882
  478MOL0     C65832   9.286   4.560   2.533  1.1163 -0.2189  0.6803
  478MOL0     C65833   9.165   4.494   2.520  0.0619 -0.4688 -0.2618
  478MOL0     O65834   9.137   4.364   2.565 -0.4838  0.0180 -0.4198
  478MOL0     C65835   9.238   4.288   2.637 -0.1295  0.1887 -0.2247
  478MOL0     C65836   9.179   4.155   2.665 -1.0611 -0.3680 -0.9820
  478MOL0     C65837   9.275   4.075   2.764  0.3090 -0.1669 -1.3631
  478MOL0     C65838   9.371   3.996   2.671 -0.5434 -0.1645 -0.0787
  478MOL0     C65839   9.484   3.926   2.752 -0.2395  0.5231 -0.9051
  478MOL0     C65840   9.452   3.797   2.832  0.4929 -0.3545 -0.1186
  478MOL0     C65841   9.578   3.712   2.869  0.0257 -0.3056  0.0351
  478MOL0     C65842   9.603   3.602   2.762 -0.2804 -0.6145 -0.7299
  478MOL0     N65843   9.494   3.499   2.754 -0.2243 -0.3943 -0.0041
  478MOL0     C65844   9.466   3.412   2.852 -0.3914 -0.0485 -0.1272
  478MOL0     C65845   9.373   3.339   2.790 -0.0530  1.3228 -0.3345
  478MOL0     C65846   9.307   3.229   2.864  0.9416  0.0336  0.6361
  478MOL0     C65847   9.235   3.118   2.783  0.1903  0.1487  0.6201
  478MOL0     C65848   9.196   2.997   2.866 -0.4629  0.9461  0.4093
  478MOL0     C65849   9.074   3.025   2.951  0.8919 -1.2757  0.5535
  478MOL0     O65850   8.954   3.010   2.875 -0.3694  0.3006  0.3002
  478MOL0     C65851   8.906   2.887   2.855 -0.5396  0.9179 -0.1578
  478MOL0     C65852   8.827   2.869   2.736  0.3162 -0.4889  0.0562
  478MOL0     C65853   8.770   2.746   2.707 -0.0254  0.4999 -0.6106
  478MOL0     C65854   8.711   2.741   2.574 -0.3178 -0.5222  0.0591
  478MOL0     C65855   8.790   2.631   2.791 -1.1048 -0.2578  0.5989
  478MOL0     C65856   8.735   2.501   2.754  0.2157  0.0173 -0.4381
  478MOL0     O65857   8.786   2.443   2.642 -0.2774 -0.2238  0.9604
  478MOL0     C65858   8.728   2.326   2.607  0.4952 -0.2858 -0.5661
  478MOL0     C65859   8.795   2.213   2.642 -0.5393  0.4765  0.1420
  478MOL0     C65860   8.735   2.084   2.607 -0.6785 -0.1008 -1.3909
  478MOL0     C65861   8.597   2.077   2.569 -0.4302 -0.1751 -0.4986
  478MOL0     O65862   8.534   1.950   2.547  0.0195  0.3900 -0.4800
  478MOL0     C65863   8.506   1.872   2.667  0.1490 -0.4799 -0.4841
  478MOL0     C65864   8.511   1.722   2.625 -0.0272 -0.5556  0.1348
  478MOL0     C65865   8.634   1.668   2.542 -1.1972  0.7778  0.0412
  478MOL0     C65866   8.650   1.510   2.540  0.3339  0.4232  0.6062
  478MOL0     C65867   8.739   1.463   2.424  0.6147 -0.3942 -0.5650
  478MOL0     C65868   8.746   1.315   2.423  0.1902 -0.5075  0.8442
  478MOL0     C65869   8.606   1.242   2.386 -0.1836 -0.3894 -0.3729
  478MOL0     C65870   8.628   1.093   2.330  0.1487  0.6005 -0.7075
  478MOL0    Cl65871   8.731   1.112   2.174 -0.3209  0.1079  0.3806
  478MOL0     C65872   8.531   2.197   2.542  0.3972  0.3756  0.3242
  478MOL0     C65873   8.597   2.315   2.559  0.5785 -0.0256  0.3694
  478MOL0     O65874   8.655   2.449   2.827  0.2254 -0.2632 -0.6993
  478MOL0     C65875   8.865   2.648   2.910 -0.6710 -0.0130  1.1133
  478MOL0     C65876   8.942   2.771   2.932  0.6652  0.5010 -0.4857
  478MOL0     N65877   9.357   3.381   2.658  0.4603  0.9486  0.3350
  478MOL0     N65878   9.432   3.479   2.636 -0.0519  0.4729  0.6175
  478MOL0     C65879   9.053   4.567   2.458 -0.3274 -0.1391  0.2417
  478MOL0     C65880   9.067   4.704   2.426  0.8087  0.8879  0.8802
  478MOL0     C65881   9.272   5.069   2.255 -0.3340 -0.1979  0.8244
  478MOL0     C65882   9.326   5.149   2.358  1.3695  0.3054  0.4277
  478MOL0     C65883   9.354   5.281   2.344 -0.1222  0.9920 -0.1104
  478MOL0     C65884   9.329   5.354   2.225 -0.3863 -0.0152 -0.4263
  478MOL0     O65885   9.348   5.493   2.222  0.3884 -0.2528 -0.3391
  478MOL0     C65886   9.302   5.568   2.113  1.4125  0.9275 -0.3142
  478MOL0     C65887   9.332   5.717   2.135  0.2778  0.3513 -0.0827
  478MOL0     C65888   9.262   5.785   2.258  0.0400  0.3436  0.5178
  478MOL0     C65889   9.307   5.732   2.391  0.2930 -0.4173  0.1566
  478MOL0     C65890   9.450   5.707   2.407 -0.8177 -1.1583 -0.3414
  478MOL0     C65891   9.570   5.696   2.443  0.3894  1.0725 -0.3700
  478MOL0     C65892   9.287   5.279   2.116  0.5478 -0.7815  0.6834
  478MOL0     C65893   9.261   5.137   2.129  0.0546  0.2740  0.3350
  478MOL0     C65894   9.223   5.066   2.000  0.1811  0.5117  0.5836
  478MOL0     H65895   9.376   4.762   2.512  1.8841 -3.0786 -3.2444
  478MOL0     H65896   9.370   4.514   2.585  1.3665  0.4788  0.9071
  478MOL0     H65897   9.268   4.348   2.724 -0.2933 -2.2480  1.6105
  478MOL0     H65898   9.326   4.265   2.575  0.4360  0.3502  0.5057
  478MOL0     H65899   9.078   4.167   2.704 -1.1287  2.2789 -1.7987
  478MOL0     H65900   9.170   4.103   2.569  0.9878 -0.6661 -1.0564
  478MOL0     H65901   9.337   4.145   2.821 -0.6976 -0.5270  0.2335
  478MOL0     H65902   9.217   4.009   2.830  0.4442 -1.5828 -2.6031
  478MOL0     H65903   9.328   3.919   2.607  1.6293 -2.2268  0.7632
  478MOL0     H65904   9.426   4.061   2.602  1.4787 -0.2988  1.3037
  478MOL0     H65905   9.508   4.000   2.829 -2.7240  1.1311 -0.6313
  478MOL0     H65906   9.566   3.904   2.683 -1.9878  2.2053 -3.6890
  478MOL0     H65907   9.412   3.833   2.928  1.2668  1.4438 -0.4222
  478MOL0     H65908   9.377   3.736   2.782 -1.5329  2.1837 -0.3734
  478MOL0     H65909   9.564   3.660   2.964 -1.4424 -1.1096 -0.5869
  478MOL0     H65910   9.662   3.781   2.880 -0.2103  0.3224 -1.7896
  478MOL0     H65911   9.630   3.657   2.671  3.3907  0.2229  0.6970
  478MOL0     H65912   9.693   3.543   2.784 -0.3193 -0.8903 -1.2950
  478MOL0     H65913   9.493   3.417   2.957  3.6764  0.9676 -1.0571
  478MOL0     H65914   9.240   3.273   2.938  1.2105  1.0097  0.3237
  478MOL0     H65915   9.385   3.185   2.927  0.6946 -0.5417  0.5393
  478MOL0     H65916   9.155   3.170   2.730  0.9572  4.0122  2.8035
  478MOL0     H65917   9.307   3.082   2.710 -0.7749 -1.8862  0.6254
  478MOL0     H65918   9.179   2.921   2.790  4.0965 -0.6636  0.7222
  478MOL0     H65919   9.281   2.969   2.929 -1.8381  0.6682  2.2093
  478MOL0     H65920   9.062   2.956   3.035 -2.1241 -4.1639 -1.9548
  478MOL0     H65921   9.054   3.129   2.979 -1.8266 -0.8414 -2.4142
  478MOL0     H65922   8.801   2.962   2.688 -2.5055  0.8954  3.7766
  478MOL0     H65923   8.613   2.789   2.578  0.1515  0.6795 -1.6094
  478MOL0     H65924   8.705   2.641   2.532 -2.4708  0.0312 -1.0930
  478MOL0     H65925   8.770   2.802   2.504 -1.5764  1.5439  0.7069
  478MOL0     H65926   8.893   2.214   2.687  0.0214 -1.6673 -0.8606
  478MOL0     H65927   8.795   1.996   2.627 -1.9234 -0.4238  1.2988
  478MOL0     H65928   8.586   1.904   2.734  0.7063 -2.1965 -0.2796
  478MOL0     H65929   8.403   1.884   2.704  0.5632  1.0974  0.2475
  478MOL0     H65930   8.514   1.673   2.723  5.3881 -0.6577  0.2151
  478MOL0     H65931   8.420   1.695   2.570  0.7467  0.8669 -1.9911
  478MOL0     H65932   8.729   1.717   2.565 -0.2809 -1.6593  1.9710
  478MOL0     H65933   8.622   1.711   2.442 -0.7407  1.8079  0.4117
  478MOL0     H65934   8.549   1.467   2.537  1.5877 -2.8071  0.5337
  478MOL0     H65935   8.695   1.469   2.632  2.2658 -1.9114 -1.2315
  478MOL0     H65936   8.690   1.493   2.331 -4.9722 -3.0864  1.0662
  478MOL0     H65937   8.843   1.496   2.430  1.5796 -3.3946  2.1062
  478MOL0     H65938   8.782   1.277   2.519 -0.9721  0.0675  1.5304
  478MOL0     H65939   8.803   1.286   2.334 -1.6880  1.3697 -1.0896
  478MOL0     H65940   8.537   1.298   2.322  0.3639 -1.0520 -1.5720
  478MOL0     H65941   8.550   1.229   2.480  1.3080  2.9892  1.1543
  478MOL0     H65942   8.537   1.037   2.306  2.0343 -2.3974 -1.3426
  478MOL0     H65943   8.675   1.037   2.411  1.0763  3.2439  0.7186
  478MOL0     H65944   8.427   2.195   2.512 -0.1907 -0.7921  2.2088
  478MOL0     H65945   8.534   2.402   2.542  0.4280  0.1129  1.5485
  478MOL0     H65946   8.886   2.557   2.966 -0.1898 -2.1040 -2.2055
  478MOL0     H65947   8.997   2.769   3.026  1.5636 -1.6822 -0.9867
  478MOL0     H65948   8.956   4.518   2.454 -0.7817  0.6711  1.0868
  478MOL0     H65949   8.985   4.752   2.375  0.7799  1.3053  1.3224
  478MOL0     H65950   9.329   5.089   2.448 -1.4045 -2.4679 -1.1310
  478MOL0     H65951   9.381   5.345   2.427 -0.5886  1.2511 -0.1597
  478MOL0     H65952   9.345   5.530   2.020 -0.6595  0.0588 -0.9921
  478MOL0     H65953   9.193   5.564   2.109  1.4794 -0.4982 -1.4039
  478MOL0     H65954   9.300   5.768   2.043 -0.3381  1.1546  0.5651
  478MOL0     H65955   9.440   5.735   2.135  0.8543 -2.6041  0.3134
  478MOL0     H65956   9.301   5.886   2.245 -0.0405  0.4797  1.2903
  478MOL0     H65957   9.153   5.772   2.246 -0.1870  2.7497 -0.6364
  478MOL0     H65958   9.261   5.636   2.418 -0.1766 -0.7632 -1.7224
  478MOL0     H65959   9.281   5.809   2.464  0.9669  1.7519 -1.7907
  478MOL0     H65960   9.670   5.675   2.475 -0.9547 -4.8361  1.1537
  478MOL0     H65961   9.270   5.326   2.020 -1.1928  0.1804  1.4175
  478MOL0     H65962   9.197   5.127   1.913 -0.4781 -4.0531 -2.8208
  478MOL0     H65963   9.304   5.001   1.968  0.0833  0.9354 -0.5601
  478MOL0     H65964   9.132   5.008   2.018  0.7922 -1.3232 -1.7606
  479MOL0     O65965   6.008  10.282   6.889 -0.1209  0.1948  0.3039
  479MOL0     C65966   5.904  10.331   6.863  0.3525  0.9500  0.9357
  479MOL0     O65967   5.797  10.336   6.946 -0.1870 -0.0799  0.2782
  479MOL0     C65968   5.800  10.272   7.066  0.0458  0.2238  0.4693
  479MOL0     C65969   5.900  10.320   7.155 -0.0179 -0.3260 -0.3474
  479MOL0     C65970   5.896  10.287   7.291 -0.4250 -0.9978 -0.7398
  479MOL0     C65971   5.806  10.186   7.337  0.2961 -1.2702 -1.9780
  479MOL0     O65972   5.817  10.141   7.473  0.2900  0.2076  0.3180
  479MOL0     C65973   5.738  10.026   7.509  0.3494 -0.1687  0.0799
  479MOL0     C65974   5.795   9.944   7.621  0.4263 -0.0132 -0.3897
  479MOL0     C65975   5.746   9.957   7.769 -0.1299 -0.5300 -0.1696
  479MOL0     C65976   5.712  10.109   7.818  0.3825 -0.4613  0.5604
  479MOL0     C65977   5.593  10.120   7.910  0.1246 -0.2881  0.9041
  479MOL0     C65978   5.458  10.092   7.853 -0.7173 -0.1821  0.0993
  479MOL0     C65979   5.342  10.140   7.950 -0.0719  0.0814  0.6456
  479MOL0     C65980   5.211  10.107   7.882 -0.4723  0.4673  0.0431
  479MOL0     N65981   5.175  10.187   7.759 -0.8007  0.0681 -0.1261
  479MOL0     C65982   5.123  10.310   7.755  0.1573  0.2106 -0.2773
  479MOL0     C65983   5.076  10.318   7.628  0.5380 -0.4800  1.2282
  479MOL0     C65984   4.977  10.417   7.564  0.6111 -1.3087  0.6053
  479MOL0     C65985   5.014  10.563   7.519 -0.1459  0.0870 -0.6496
  479MOL0     C65986   5.081  10.557   7.381  0.1944 -0.4919  0.3277
  479MOL0     C65987   5.155  10.685   7.350 -0.6094 -0.5334 -0.4882
  479MOL0     O65988   5.191  10.705   7.209 -0.2190  0.3772 -0.6373
  479MOL0     C65989   5.270  10.814   7.176 -0.1370  0.3423 -0.0404
  479MOL0     C65990   5.301  10.811   7.042  0.3502  0.0037  0.3339
  479MOL0     C65991   5.399  10.898   6.986  0.7724  0.4806  0.4941
  479MOL0     C65992   5.416  10.883   6.831 -0.5568 -0.0924 -1.4247
  479MOL0     C65993   5.470  10.985   7.064 -0.5206 -0.6762 -0.9331
  479MOL0     C65994   5.562  11.089   7.018 -0.4839 -1.1860  0.0370
  479MOL0     O65995   5.530  11.221   7.047 -1.1755 -0.3362 -0.2804
  479MOL0     C65996   5.543  11.332   6.966  0.6281  1.1664 -0.5005
  479MOL0     C65997   5.503  11.455   7.031 -0.8475 -0.6328  1.4401
  479MOL0     C65998   5.513  11.571   6.948 -0.5492 -0.3595 -0.2992
  479MOL0     C65999   5.538  11.570   6.814  0.2191 -0.4213 -0.5235
  479MOL0     O66000   5.545  11.686   6.751  0.0939 -0.2084  0.6479
  479MOL0     C66001   5.462  11.688   6.635 -0.2098  0.3121 -0.5644
  479MOL0     C66002   5.486  11.820   6.560 -0.2661  0.2799 -0.1489
  479MOL0     C66003   5.402  11.847   6.430 -0.0933 -0.6735 -0.2106
  479MOL0     C66004   5.261  11.909   6.459  0.5156  0.3289  0.2794
  479MOL0     C66005   5.179  11.958   6.330 -0.2473  0.6483 -0.5081
  479MOL0     C66006   5.029  11.954   6.357 -1.3049  0.2222  0.0560
  479MOL0     C66007   4.949  12.021   6.255  0.2931  0.1850 -0.9842
  479MOL0     C66008   4.932  11.939   6.120 -0.5095  0.3164 -0.1490
  479MOL0    Cl66009   4.812  12.000   6.011 -0.3932  0.3708 -0.6491
  479MOL0     C66010   5.577  11.451   6.761  0.6392 -0.0718  0.0637
  479MOL0     C66011   5.580  11.333   6.837  0.3640  0.5693 -0.5379
  479MOL0     O66012   5.643  11.058   6.934  0.0919 -0.4126 -0.2148
  479MOL0     C66013   5.428  10.997   7.199 -0.4769  0.7985  0.7996
  479MOL0     C66014   5.331  10.912   7.253  0.3026  0.7511 -0.2175
  479MOL0     N66015   5.096  10.198   7.565 -0.6832  1.0934  0.6208
  479MOL0     N66016   5.162  10.123   7.643  0.3192 -0.0998 -0.2803
  479MOL0     C66017   5.712  10.139   7.241  0.9123 -0.7374  0.1232
  479MOL0     C66018   5.706  10.182   7.114  0.8450 -0.7802  0.0377
  479MOL0     C66019   5.888  10.400   6.742 -0.0418 -0.0727  0.4125
  479MOL0     C66020   6.001  10.478   6.711  0.3427  0.0648  0.6502
  479MOL0     C66021   5.997  10.554   6.598 -0.6526 -0.0304  0.4642
  479MOL0     C66022   5.894  10.549   6.503  0.1446 -1.3258 -0.5828
  479MOL0     O66023   5.906  10.629   6.398  0.3373 -0.7183  0.4043
  479MOL0     C66024   5.859  10.578   6.275  0.4937 -0.0557 -1.0270
  479MOL0     C66025   5.864  10.689   6.166 -0.3913 -0.7900 -0.1132
  479MOL0     C66026   5.752  10.788   6.208  0.6924 -0.5229 -0.8743
  479MOL0     C66027   5.721  10.879   6.084 -0.2429 -0.0595  0.3228
  479MOL0     C66028   5.593  10.957   6.114  1.0802 -0.6656 -0.3996
  479MOL0     C66029   5.486  11.015   6.127  0.4823  0.3447 -0.7215
  479MOL0     C66030   5.784  10.465   6.532 -0.6302  1.0867 -0.3229
  479MOL0     C66031   5.772  10.395   6.657 -0.5429  0.8018  0.2999
  479MOL0     C66032   5.664  10.282   6.678 -0.7468  0.2774 -0.6439
  479MOL0     H66033   5.968  10.401   7.131 -1.1637  0.8231  0.1544
  479MOL0     H66034   5.966  10.337   7.358 -1.1776  1.8110 -1.9062
  479MOL0     H66035   5.722   9.958   7.426 -0.5106 -2.6582  2.1433
  479MOL0     H66036   5.637  10.054   7.543 -0.6977 -1.0585 -2.1399
  479MOL0     H66037   5.774   9.839   7.597  0.0969 -0.4099  1.4467
  479MOL0     H66038   5.904   9.959   7.622  0.2657  1.4086  1.2431
  479MOL0     H66039   5.653   9.899   7.766 -0.4049 -0.1644  0.8601
  479MOL0     H66040   5.818   9.894   7.821  0.6306 -1.2844 -2.0632
  479MOL0     H66041   5.797  10.142   7.879 -0.1337 -0.5559  1.3332
  479MOL0     H66042   5.707  10.180   7.735 -0.2299 -0.3037  0.7311
  479MOL0     H66043   5.597  10.223   7.948 -2.3832 -0.5484  2.0498
  479MOL0     H66044   5.608  10.053   7.995  3.4208 -1.1867 -0.2077
  479MOL0     H66045   5.451  10.144   7.757  0.9865 -0.4964 -0.2356
  479MOL0     H66046   5.448   9.985   7.834 -4.0284  0.1083 -0.4350
  479MOL0     H66047   5.342  10.250   7.956 -1.3698  0.0240  2.6214
  479MOL0     H66048   5.343  10.107   8.054 -4.5333  0.9075  1.1391
  479MOL0     H66049   5.222  10.005   7.845  0.2429  0.8178 -0.7407
  479MOL0     H66050   5.131  10.124   7.955  1.0367  5.9680  0.8861
  479MOL0     H66051   5.109  10.391   7.827 -2.4112 -0.4394  0.0501
  479MOL0     H66052   4.893  10.425   7.633 -1.4288 -1.8018 -1.6785
  479MOL0     H66053   4.936  10.361   7.479  2.0924 -0.7379 -0.5389
  479MOL0     H66054   4.920  10.611   7.490  0.2106  0.5281 -1.0904
  479MOL0     H66055   5.081  10.620   7.584 -0.7300  0.3747 -0.2980
  479MOL0     H66056   5.160  10.484   7.396  1.1799  0.0591 -1.7320
  479MOL0     H66057   5.017  10.523   7.299  1.3095  0.2293 -0.8872
  479MOL0     H66058   5.112  10.774   7.394  0.8251  0.8045 -1.6703
  479MOL0     H66059   5.250  10.676   7.403 -1.4472  0.6939  1.3024
  479MOL0     H66060   5.255  10.736   6.978  3.4846 -0.3488 -1.7362
  479MOL0     H66061   5.407  10.982   6.785  0.1041 -0.3914 -2.2148
  479MOL0     H66062   5.350  10.811   6.782  1.6577 -3.2883 -0.0591
  479MOL0     H66063   5.520  10.852   6.815  1.4101  5.4410 -1.5580
  479MOL0     H66064   5.498  11.455   7.140  2.2389  0.7052  1.6820
  479MOL0     H66065   5.513  11.666   7.000  1.1628 -0.5878  0.1981
  479MOL0     H66066   5.485  11.602   6.571  0.1177 -0.8464  1.0242
  479MOL0     H66067   5.359  11.686   6.670 -0.1787  2.2177 -0.2583
  479MOL0     H66068   5.469  11.898   6.634 -0.2393  0.2191 -0.0794
  479MOL0     H66069   5.592  11.835   6.534  0.2026  1.8445  2.3029
  479MOL0     H66070   5.395  11.748   6.383 -2.3201 -1.3382  1.3554
  479MOL0     H66071   5.462  11.916   6.370 -2.5198  0.9158 -0.9252
  479MOL0     H66072   5.277  11.995   6.526 -1.9968 -1.4181  3.4285
  479MOL0     H66073   5.207  11.830   6.512  2.7959 -3.5670 -2.6940
  479MOL0     H66074   5.212  12.058   6.298  0.2443  0.3228 -1.0331
  479MOL0     H66075   5.220  11.907   6.243 -1.3985  2.5711 -2.2495
  479MOL0     H66076   5.024  12.001   6.456  2.2461  3.6620 -1.1744
  479MOL0     H66077   4.996  11.849   6.362 -1.3060  0.0671 -2.2247
  479MOL0     H66078   4.996  12.117   6.234  0.2227  0.4738  0.0830
  479MOL0     H66079   4.844  12.035   6.281 -0.5779 -3.8170 -1.6909
  479MOL0     H66080   4.904  11.836   6.144  0.3540  0.4986  1.7728
  479MOL0     H66081   5.034  11.940   6.080  0.5704  1.3969  2.4297
  479MOL0     H66082   5.601  11.455   6.655  1.0427 -0.8922  0.1188
  479MOL0     H66083   5.612  11.247   6.779  0.8535 -0.1155  0.7256
  479MOL0     H66084   5.477  11.078   7.251  3.4562 -1.2861  0.7417
  479MOL0     H66085   5.299  10.940   7.353  1.8020  2.0055 -0.0513
  479MOL0     H66086   5.629  10.070   7.253 -0.4229  0.3824 -1.9199
  479MOL0     H66087   5.625  10.165   7.044  0.4119  3.2783 -0.7018
  479MOL0     H66088   6.084  10.468   6.779 -0.7999 -2.9391  1.7747
  479MOL0     H66089   6.083  10.619   6.583  1.0591 -1.8836  1.6873
  479MOL0     H66090   5.931  10.500   6.250  0.2328 -0.8367  0.4940
  479MOL0     H66091   5.754  10.546   6.279 -0.4815  2.9082  0.1139
  479MOL0     H66092   5.848  10.656   6.063 -2.3035  0.8528 -0.3832
  479MOL0     H66093   5.963  10.736   6.169 -1.7576  2.3647 -0.6027
  479MOL0     H66094   5.660  10.733   6.233 -2.7205  4.0135 -2.0363
  479MOL0     H66095   5.774  10.839   6.302 -1.4291 -1.1548  0.0331
  479MOL0     H66096   5.716  10.819   5.993  0.8107  0.7260 -0.2753
  479MOL0     H66097   5.797  10.958   6.076 -2.7989  3.2209  4.2935
  479MOL0     H66098   5.399  11.075   6.148  0.3375  0.1575 -0.7918
  479MOL0     H66099   5.695  10.467   6.471 -2.2133 -1.3551  1.7340
  479MOL0     H66100   5.698  10.179   6.675  0.2165  0.5200  0.6021
  479MOL0     H66101   5.629  10.301   6.780  2.4713  0.4235  0.5668
  479MOL0     H66102   5.577  10.291   6.614 -0.9771 -1.8031 -0.6751
  480MOL0     O66103   9.811   3.381   2.155 -0.0509 -0.2759 -0.6527
  480MOL0     C66104   9.819   3.317   2.260  0.8724  0.1789  0.0733
  480MOL0     O66105   9.705   3.275   2.333 -0.3536  0.5320 -0.9531
  480MOL0     C66106   9.583   3.289   2.276  0.3771 -0.8076  0.0369
  480MOL0     C66107   9.487   3.350   2.350  0.0900 -0.4055 -0.2170
  480MOL0     C66108   9.352   3.364   2.310  1.1165  0.6360 -0.0041
  480MOL0     C66109   9.308   3.306   2.191  0.6992  0.3840  0.3395
  480MOL0     O66110   9.173   3.308   2.144 -0.5780  0.5249  0.2440
  480MOL0     C66111   9.086   3.423   2.148  0.4031  0.5681 -0.4573
  480MOL0     C66112   8.988   3.419   2.027 -1.1775  0.0796 -0.0276
  480MOL0     C66113   9.061   3.451   1.898 -0.1336  0.6928  0.9904
  480MOL0     C66114   9.056   3.602   1.851  0.4798  0.3736  0.3164
  480MOL0     C66115   9.124   3.619   1.715 -0.1374  0.1976 -0.2317
  480MOL0     C66116   9.216   3.739   1.697 -0.2983 -0.8655  0.5614
  480MOL0     C66117   9.343   3.717   1.780  0.6815  0.2753 -0.0506
  480MOL0     C66118   9.429   3.840   1.772 -0.4943 -0.0641 -0.1220
  480MOL0     N66119   9.552   3.822   1.843 -0.1916  0.3070 -0.1747
  480MOL0     C66120   9.620   3.703   1.859 -0.9193 -0.2142  0.8458
  480MOL0     C66121   9.718   3.733   1.953 -0.0467 -0.8003  1.1947
  480MOL0     C66122   9.813   3.644   2.006  0.2526  0.4024  0.8610
  480MOL0     C66123   9.953   3.649   1.941  1.2942  0.5638 -0.1795
  480MOL0     C66124  10.032   3.780   1.979 -0.7373 -0.0425  0.4884
  480MOL0     C66125  10.161   3.798   1.913 -0.6574 -1.1788  0.3446
  480MOL0     O66126  10.168   3.774   1.774 -0.3447  0.3793  0.3577
  480MOL0     C66127  10.262   3.817   1.676  1.1308  0.1877 -0.8067
  480MOL0     C66128  10.349   3.912   1.716 -0.2482  0.4173 -0.2781
  480MOL0     C66129  10.448   3.949   1.626 -0.6886 -0.0901  0.1824
  480MOL0     C66130  10.542   4.064   1.678  0.0185  0.0720 -0.7117
  480MOL0     C66131  10.455   3.896   1.492  0.5292 -0.3033  0.7540
  480MOL0     C66132  10.554   3.947   1.387  1.3604  0.6425 -0.4494
  480MOL0     O66133  10.647   4.048   1.419  0.4738  0.2806 -0.3504
  480MOL0     C66134  10.736   4.087   1.324  0.2332 -0.1327  0.4651
  480MOL0     C66135  10.873   4.054   1.339 -0.4561  0.2283 -0.1098
  480MOL0     C66136  10.967   4.101   1.237 -0.0478  0.6651 -1.2934
  480MOL0     C66137  10.922   4.168   1.121 -0.0215  0.1555 -0.0759
  480MOL0     O66138  10.989   4.210   1.011  0.0720  0.6222 -0.0619
  480MOL0     C66139  11.115   4.151   0.974 -0.0580  0.1485  0.2430
  480MOL0     C66140  11.235   4.244   0.982 -1.5829 -0.1260  0.7419
  480MOL0     C66141  11.293   4.278   1.115  0.0155  0.2725  0.0893
  480MOL0     C66142  11.384   4.407   1.122  0.7953  0.3969  0.3704
  480MOL0     C66143  11.438   4.445   1.257 -0.5224  0.0199  0.1801
  480MOL0     C66144  11.524   4.567   1.260  0.1766  0.0951 -0.0360
  480MOL0     C66145  11.547   4.617   1.409 -1.1279 -0.2071  0.2387
  480MOL0     C66146  11.666   4.715   1.405 -0.1412  0.2222 -1.2183
  480MOL0    Cl66147  11.671   4.789   1.569 -0.4256  0.1152 -0.1810
  480MOL0     C66148  10.789   4.217   1.125  0.9246 -0.1259  0.4394
  480MOL0     C66149  10.705   4.175   1.221  0.2537 -1.0300 -0.7110
  480MOL0     O66150  10.547   3.899   1.273  0.5206  0.0824 -0.1607
  480MOL0     C66151  10.355   3.804   1.455 -0.0886  0.0812 -0.3560
  480MOL0     C66152  10.256   3.771   1.540  0.0301  0.2239 -0.1816
  480MOL0     N66153   9.716   3.869   1.982  0.6806  0.3260 -0.1594
  480MOL0     N66154   9.619   3.922   1.919  0.7481  0.2617  0.1290
  480MOL0     C66155   9.407   3.244   2.111  0.0821  0.0050 -0.3075
  480MOL0     C66156   9.546   3.231   2.152  0.2241 -0.0956  0.5013
  480MOL0     C66157   9.955   3.290   2.307 -0.0112 -0.6931 -0.0106
  480MOL0     C66158  10.061   3.373   2.265  0.6047  0.2281  0.4218
  480MOL0     C66159  10.190   3.364   2.313  0.0981  0.0661  0.3214
  480MOL0     C66160  10.221   3.278   2.413 -0.3794 -0.2306  0.0503
  480MOL0     O66161  10.340   3.262   2.494  0.9839  0.1462  0.2496
  480MOL0     C66162  10.416   3.382   2.481  0.1847 -0.2877 -0.5172
  480MOL0     C66163  10.538   3.375   2.582 -0.0413 -0.1162  0.3803
  480MOL0     C66164  10.508   3.359   2.733 -0.2690  0.1909 -0.5735
  480MOL0     C66165  10.383   3.435   2.780  0.7555  0.5049 -0.3340
  480MOL0     C66166  10.391   3.569   2.741 -0.4825 -0.4411  0.1527
  480MOL0     C66167  10.387   3.683   2.698  0.3925  0.2934 -0.4699
  480MOL0     C66168  10.111   3.193   2.457 -0.9337  0.7242 -0.1832
  480MOL0     C66169   9.979   3.197   2.407 -0.0054  0.2838 -0.3934
  480MOL0     C66170   9.881   3.091   2.450  0.1433 -0.3108 -0.7711
  480MOL0     H66171   9.523   3.403   2.438 -1.3722  2.3005 -1.1320
  480MOL0     H66172   9.277   3.414   2.371  1.3324 -0.9131  1.6019
  480MOL0     H66173   9.141   3.517   2.148  1.3366  0.0775  1.9877
  480MOL0     H66174   9.023   3.403   2.235 -2.1596  0.5382 -2.1796
  480MOL0     H66175   8.938   3.322   2.036 -0.7011 -0.1588  0.0547
  480MOL0     H66176   8.908   3.493   2.033  0.7615  2.4280 -1.3711
  480MOL0     H66177   9.164   3.416   1.910 -0.3647 -0.1724  0.6040
  480MOL0     H66178   9.010   3.388   1.824 -2.5121  1.2643  2.0593
  480MOL0     H66179   8.952   3.634   1.854  0.5039  0.4114  0.8581
  480MOL0     H66180   9.107   3.664   1.926 -3.1622  1.5907  1.9864
  480MOL0     H66181   9.051   3.642   1.636  0.8550 -2.6936 -2.1303
  480MOL0     H66182   9.180   3.535   1.674  1.8278  1.4547 -0.2412
  480MOL0     H66183   9.234   3.748   1.590 -3.0901  1.7387  0.1672
  480MOL0     H66184   9.159   3.824   1.737 -0.7628 -0.8034 -0.2131
  480MOL0     H66185   9.390   3.634   1.727 -0.4112  0.0726 -0.7344
  480MOL0     H66186   9.320   3.690   1.883 -1.7770  1.9372 -0.0876
  480MOL0     H66187   9.444   3.868   1.667 -2.9070  1.3578 -0.1697
  480MOL0     H66188   9.382   3.929   1.813  0.7837  0.0634  1.1370
  480MOL0     H66189   9.600   3.607   1.813  0.1379  0.7489 -1.8204
  480MOL0     H66190   9.779   3.541   1.995  2.4582 -0.5414  2.2626
  480MOL0     H66191   9.830   3.661   2.112  1.9301 -0.1006  0.6991
  480MOL0     H66192  10.007   3.564   1.983 -3.1753 -0.9302  3.4213
  480MOL0     H66193   9.943   3.628   1.834 -3.7612  0.0893  0.1227
  480MOL0     H66194   9.965   3.853   1.931 -2.5834 -1.6399  0.5464
  480MOL0     H66195  10.040   3.801   2.086 -3.8859  1.8674  0.4691
  480MOL0     H66196  10.178   3.904   1.931  0.4031 -0.9199 -1.8569
  480MOL0     H66197  10.247   3.740   1.945  1.3744  0.4996 -1.6950
  480MOL0     H66198  10.363   3.961   1.812  1.6090  0.1352 -0.3764
  480MOL0     H66199  10.544   4.058   1.787 -3.9779 -0.5714 -0.5426
  480MOL0     H66200  10.493   4.160   1.657  0.9254  0.8545  0.5930
  480MOL0     H66201  10.642   4.051   1.636 -1.4336 -3.6480 -3.6353
  480MOL0     H66202  10.904   3.993   1.424  0.3059 -2.8463 -2.4229
  480MOL0     H66203  11.070   4.073   1.259 -0.1560  0.9728 -0.3223
  480MOL0     H66204  11.136   4.062   1.034  1.4724  0.2993 -0.0266
  480MOL0     H66205  11.095   4.112   0.874 -2.6972 -0.2461  0.8640
  480MOL0     H66206  11.316   4.215   0.914 -2.0222 -4.8494  1.8959
  480MOL0     H66207  11.198   4.339   0.942 -0.1290  0.9069  1.7485
  480MOL0     H66208  11.349   4.189   1.144  2.9337  1.5606 -1.2291
  480MOL0     H66209  11.218   4.297   1.192  0.1165  3.0346 -0.3750
  480MOL0     H66210  11.315   4.478   1.075  3.7857  3.2225 -0.1146
  480MOL0     H66211  11.475   4.389   1.064  0.1423  1.3258 -0.9891
  480MOL0     H66212  11.352   4.458   1.324 -1.6175 -2.9695 -0.4942
  480MOL0     H66213  11.499   4.363   1.295 -1.2641 -0.6356 -0.0066
  480MOL0     H66214  11.465   4.639   1.203  0.9151 -2.2433 -4.1741
  480MOL0     H66215  11.622   4.550   1.215 -1.1128 -2.3085 -2.2096
  480MOL0     H66216  11.582   4.531   1.467  0.6226  0.1870 -0.1536
  480MOL0     H66217  11.460   4.657   1.461 -0.1916 -0.2211  1.8653
  480MOL0     H66218  11.643   4.796   1.335 -1.8170  0.6852 -0.2090
  480MOL0     H66219  11.762   4.667   1.385  0.6898 -0.7541  3.8476
  480MOL0     H66220  10.753   4.273   1.039  0.8734 -1.5000 -0.4564
  480MOL0     H66221  10.599   4.195   1.207  0.7269  1.4393 -1.3299
  480MOL0     H66222  10.338   3.774   1.352 -0.1297 -2.7940  0.3985
  480MOL0     H66223  10.170   3.710   1.514 -0.1237 -0.3201  1.5012
  480MOL0     H66224   9.390   3.203   2.012  0.1756  0.1443 -0.3823
  480MOL0     H66225   9.608   3.175   2.083  2.2097  0.9477  1.3502
  480MOL0     H66226  10.044   3.440   2.181  3.6769  1.1567  0.4299
  480MOL0     H66227  10.252   3.433   2.258  0.8479  1.3942  2.7295
  480MOL0     H66228  10.445   3.385   2.376 -0.0538  3.0012 -0.5836
  480MOL0     H66229  10.371   3.480   2.497  3.1001  1.3258 -1.4385
  480MOL0     H66230  10.602   3.463   2.576  0.0254 -0.2277 -0.9333
  480MOL0     H66231  10.601   3.293   2.546  1.9541  2.3968 -2.2430
  480MOL0     H66232  10.492   3.251   2.745  0.2087 -0.0124 -1.5997
  480MOL0     H66233  10.594   3.375   2.798 -0.6453  1.0855 -0.2871
  480MOL0     H66234  10.380   3.429   2.890 -2.1929 -0.9691 -0.4159
  480MOL0     H66235  10.287   3.395   2.748 -0.2068 -0.5887  3.3679
  480MOL0     H66236  10.375   3.779   2.652  0.7901 -0.1387 -1.4965
  480MOL0     H66237  10.114   3.126   2.542 -2.1684  2.0800  0.9827
  480MOL0     H66238   9.818   3.123   2.534  1.2619 -1.8756  0.7451
  480MOL0     H66239   9.813   3.071   2.367  1.4134 -1.0531 -1.6610
  480MOL0     H66240   9.930   3.005   2.497  2.2082  1.6186  0.8589
  481MOL0     O66241   0.279   6.200   2.693 -0.8314  0.3035 -0.2796
  481MOL0     C66242   0.275   6.084   2.644  0.8897 -0.4365 -0.5414
  481MOL0     O66243   0.174   5.994   2.656  0.2267 -0.3615 -0.9706
  481MOL0     C66244   0.044   6.021   2.697  0.0416  0.7032 -0.7845
  481MOL0     C66245  -0.023   5.913   2.747  0.3509 -0.4243 -0.3185
  481MOL0     C66246  -0.144   5.926   2.805 -0.0223 -0.4450  0.0769
  481MOL0     C66247  -0.207   6.054   2.813 -0.5569 -1.0382  1.0062
  481MOL0     O66248  -0.328   6.044   2.878  0.2004  0.0933 -0.6235
  481MOL0     C66249  -0.408   6.158   2.922  0.1558  0.6886 -0.0011
  481MOL0     C66250  -0.508   6.095   3.012  0.6252 -0.3897 -0.7355
  481MOL0     C66251  -0.619   6.180   3.067 -0.6364  0.3791 -0.6561
  481MOL0     C66252  -0.565   6.296   3.163 -0.4882  0.1680  0.1553
  481MOL0     C66253  -0.656   6.412   3.203 -0.6957 -0.1260 -0.2683
  481MOL0     C66254  -0.787   6.360   3.277  0.1761 -0.5025 -0.0982
  481MOL0     C66255  -0.760   6.325   3.422 -0.7629 -0.4907 -0.1322
  481MOL0     C66256  -0.885   6.264   3.484  0.7838 -0.0203  0.6603
  481MOL0     N66257  -0.899   6.126   3.441  0.0929  0.8936  0.4682
  481MOL0     C66258  -0.802   6.030   3.423 -0.4349 -1.3288  0.1106
  481MOL0     C66259  -0.867   5.941   3.335 -1.0356  0.0170 -0.8082
  481MOL0     C66260  -0.803   5.823   3.266 -0.2303 -0.0956  0.0285
  481MOL0     C66261  -0.866   5.804   3.134  0.2290 -0.0422 -0.2742
  481MOL0     C66262  -0.996   5.718   3.130  0.0922  0.0310  0.1431
  481MOL0     C66263  -1.030   5.687   2.989 -0.1017  0.5357 -0.5258
  481MOL0     O66264  -1.042   5.801   2.903 -0.1240 -0.1900 -0.4119
  481MOL0     C66265  -1.164   5.865   2.902  0.1252 -0.0156 -0.0616
  481MOL0     C66266  -1.282   5.845   2.977  0.6695 -1.1687 -0.0528
  481MOL0     C66267  -1.397   5.921   2.951  0.3748 -0.6861 -0.8654
  481MOL0     C66268  -1.495   5.920   3.065 -0.7651 -0.3283 -0.4960
  481MOL0     C66269  -1.398   6.010   2.841 -0.7045 -0.0173 -0.7332
  481MOL0     C66270  -1.512   6.098   2.813 -0.4887  0.4511  0.6281
  481MOL0     O66271  -1.486   6.209   2.731  0.5359 -0.0509 -0.7198
  481MOL0     C66272  -1.601   6.282   2.694 -1.0017 -0.4671 -1.0344
  481MOL0     C66273  -1.685   6.227   2.603  0.8246 -0.0635  0.3740
  481MOL0     C66274  -1.816   6.283   2.583 -0.4418  0.1978  0.5763
  481MOL0     C66275  -1.858   6.390   2.656  0.9262 -0.0365  0.0079
  481MOL0     O66276  -1.979   6.444   2.635  0.9136  0.3473  0.4641
  481MOL0     C66277  -2.055   6.447   2.757  0.0541 -0.3082  0.2269
  481MOL0     C66278  -2.202   6.469   2.737 -0.7372  0.2973  1.0230
  481MOL0     C66279  -2.240   6.588   2.652  0.1601  0.7241  1.1709
  481MOL0     C66280  -2.377   6.568   2.601 -1.0751 -0.0169 -0.0737
  481MOL0     C66281  -2.434   6.698   2.539 -0.2219  0.2856  0.9287
  481MOL0     C66282  -2.558   6.666   2.458  0.2197  0.0304 -0.2570
  481MOL0     C66283  -2.628   6.794   2.414 -0.0987  0.3454 -0.1496
  481MOL0     C66284  -2.553   6.858   2.307  0.5591 -0.7745  0.0706
  481MOL0    Cl66285  -2.546   6.756   2.161  0.3075  0.6746 -0.0265
  481MOL0     C66286  -1.770   6.449   2.745 -0.1545  1.2040  0.4465
  481MOL0     C66287  -1.645   6.393   2.769  0.1134  0.3019  0.4026
  481MOL0     O66288  -1.616   6.073   2.869  0.2983 -0.0294  0.2571
  481MOL0     C66289  -1.281   6.024   2.770 -0.2915 -0.7927  0.4859
  481MOL0     C66290  -1.162   5.945   2.795  0.6188 -0.0577 -0.8755
  481MOL0     N66291  -1.000   5.973   3.326  0.0808 -0.1716 -0.1764
  481MOL0     N66292  -1.020   6.080   3.391 -0.6252 -0.0070  0.2046
  481MOL0     C66293  -0.145   6.160   2.750  0.2011 -0.0252 -0.2071
  481MOL0     C66294  -0.024   6.142   2.689  0.1031  0.3816 -0.3638
  481MOL0     C66295   0.405   6.047   2.567  1.7051  0.2756 -0.8230
  481MOL0     C66296   0.498   6.146   2.536  0.5410  0.4888 -0.3543
  481MOL0     C66297   0.609   6.118   2.461 -0.3312 -0.2788  0.3509
  481MOL0     C66298   0.647   5.993   2.424  1.8309  0.2245  0.5635
  481MOL0     O66299   0.754   5.960   2.356 -0.4119 -0.5251 -0.4155
  481MOL0     C66300   0.804   6.056   2.258  0.2117 -0.2422  0.9901
  481MOL0     C66301   0.701   6.090   2.145 -1.0439 -0.1739  1.4760
  481MOL0     C66302   0.650   5.962   2.067 -0.3046 -0.0804  0.0950
  481MOL0     C66303   0.615   5.995   1.925  0.0661 -0.0870  0.5597
  481MOL0     C66304   0.740   6.025   1.852 -0.1898 -0.6563 -0.4257
  481MOL0     C66305   0.834   6.034   1.789  0.0939 -0.3310  0.6398
  481MOL0     C66306   0.558   5.894   2.461  0.6261  0.5700 -0.6495
  481MOL0     C66307   0.433   5.919   2.525  0.4750 -0.0399 -0.0326
  481MOL0     C66308   0.365   5.790   2.562  1.5881  0.0344  0.1707
  481MOL0     H66309   0.031   5.819   2.743 -0.8422 -1.0931 -1.0810
  481MOL0     H66310  -0.185   5.835   2.849 -0.4802  0.0904  0.7889
  481MOL0     H66311  -0.455   6.208   2.836  1.5481 -0.7033 -1.6362
  481MOL0     H66312  -0.329   6.211   2.975 -0.6388  1.8054  0.0960
  481MOL0     H66313  -0.558   6.020   2.950  1.7089  0.6312 -2.9920
  481MOL0     H66314  -0.465   6.034   3.092 -2.7294  0.3751  1.9119
  481MOL0     H66315  -0.662   6.226   2.978 -1.6465 -1.6897 -1.3210
  481MOL0     H66316  -0.695   6.119   3.117  1.7277 -0.2501  2.4538
  481MOL0     H66317  -0.528   6.250   3.254  1.6753  0.6678 -0.4258
  481MOL0     H66318  -0.476   6.326   3.108 -1.0993  0.6131 -0.6134
  481MOL0     H66319  -0.692   6.457   3.110  0.0072 -3.0444 -2.0653
  481MOL0     H66320  -0.598   6.487   3.257  0.1332 -0.1391 -1.1151
  481MOL0     H66321  -0.861   6.440   3.268 -0.1798 -0.3104  3.2625
  481MOL0     H66322  -0.828   6.277   3.218 -1.8985  0.7023 -0.4306
  481MOL0     H66323  -0.729   6.407   3.487  1.9484  0.1457 -2.0596
  481MOL0     H66324  -0.686   6.245   3.431 -0.7535 -0.4534  0.1352
  481MOL0     H66325  -0.876   6.270   3.593 -3.0873  1.6910  1.0373
  481MOL0     H66326  -0.970   6.330   3.466 -1.7683 -2.4237  2.8710
  481MOL0     H66327  -0.703   6.042   3.465 -0.9778  0.8678  0.8811
  481MOL0     H66328  -0.813   5.736   3.332 -1.3209  0.7327  1.0067
  481MOL0     H66329  -0.696   5.838   3.251 -0.1468 -0.7619 -0.0795
  481MOL0     H66330  -0.906   5.904   3.115 -0.4631 -0.6712 -2.4439
  481MOL0     H66331  -0.787   5.784   3.060 -0.1773  0.5082 -0.8694
  481MOL0     H66332  -0.965   5.623   3.174 -3.1280  0.5953  4.2263
  481MOL0     H66333  -1.079   5.767   3.182  1.5596 -0.1221  2.7539
  481MOL0     H66334  -0.947   5.627   2.950 -0.3172  0.9147 -1.5940
  481MOL0     H66335  -1.120   5.624   2.983  0.2150 -0.0583  0.6553
  481MOL0     H66336  -1.290   5.771   3.055 -2.1469 -1.1592 -0.2247
  481MOL0     H66337  -1.508   6.024   3.096 -0.7555 -1.7442  5.4462
  481MOL0     H66338  -1.458   5.862   3.150 -2.5819  1.1032  1.3674
  481MOL0     H66339  -1.594   5.890   3.030  0.0109 -0.5981 -2.6129
  481MOL0     H66340  -1.658   6.130   2.562  0.6004  1.1313 -2.8350
  481MOL0     H66341  -1.875   6.229   2.510 -0.1711 -1.5189  1.5846
  481MOL0     H66342  -2.045   6.362   2.825  0.0795  1.0288  1.9425
  481MOL0     H66343  -2.019   6.527   2.822 -0.1787  1.5179 -1.7913
  481MOL0     H66344  -2.246   6.378   2.696 -1.0283  0.1571  1.6362
  481MOL0     H66345  -2.260   6.483   2.828 -3.3257 -0.8399 -0.3424
  481MOL0     H66346  -2.173   6.577   2.566 -0.1932 -4.8845  1.2914
  481MOL0     H66347  -2.232   6.680   2.712 -1.7774  0.0369  2.5847
  481MOL0     H66348  -2.443   6.541   2.684 -0.7146 -0.3369  0.1109
  481MOL0     H66349  -2.377   6.485   2.530  0.0240 -0.0183 -0.0888
  481MOL0     H66350  -2.455   6.771   2.618 -0.0275  3.2769 -1.5822
  481MOL0     H66351  -2.352   6.731   2.474 -1.0174 -1.0224 -0.8189
  481MOL0     H66352  -2.631   6.607   2.513  0.2921  1.9449  2.0508
  481MOL0     H66353  -2.532   6.598   2.377  1.4227 -0.8387  0.8146
  481MOL0     H66354  -2.633   6.866   2.496 -0.0523 -0.3253  0.4591
  481MOL0     H66355  -2.725   6.774   2.367  0.4059  0.0655 -1.0822
  481MOL0     H66356  -2.450   6.890   2.325  0.1042  0.1653  1.1609
  481MOL0     H66357  -2.612   6.944   2.275  1.3580  0.0351  0.7290
  481MOL0     H66358  -1.785   6.541   2.801 -0.9095  0.3625  1.6703
  481MOL0     H66359  -1.587   6.439   2.848 -0.6432  0.1869  1.0332
  481MOL0     H66360  -1.280   6.093   2.686  1.1102 -0.4804  0.7293
  481MOL0     H66361  -1.070   5.965   2.740  0.6836  3.9480  0.3875
  481MOL0     H66362  -0.189   6.260   2.746  1.0123  0.2927 -1.3189
  481MOL0     H66363   0.020   6.236   2.656 -0.1761  0.7795  0.3513
  481MOL0     H66364   0.485   6.253   2.547 -1.7282  0.7754 -4.0496
  481MOL0     H66365   0.666   6.204   2.426 -0.1898 -1.7110 -3.3659
  481MOL0     H66366   0.843   6.145   2.310  1.1530 -0.4773  0.7009
  481MOL0     H66367   0.882   5.995   2.212  0.5234 -0.3901  1.7014
  481MOL0     H66368   0.753   6.159   2.079 -2.2422  1.5285  2.2437
  481MOL0     H66369   0.615   6.148   2.179  0.0668  1.3628  1.7715
  481MOL0     H66370   0.730   5.888   2.055 -1.8603 -1.4974 -2.5120
  481MOL0     H66371   0.567   5.915   2.121 -3.0673  1.4491 -2.5288
  481MOL0     H66372   0.547   6.081   1.920 -1.1190 -1.0665 -2.1895
  481MOL0     H66373   0.558   5.911   1.884  1.0450 -1.3410  1.6771
  481MOL0     H66374   0.927   6.038   1.736 -1.9432 -0.4259 -3.2754
  481MOL0     H66375   0.591   5.792   2.446  0.5277  0.6170 -1.2143
  481MOL0     H66376   0.292   5.772   2.482 -0.0891  0.4772  1.5513
  481MOL0     H66377   0.429   5.702   2.570 -0.0392 -1.2882 -0.6414
  481MOL0     H66378   0.311   5.808   2.655 -1.7233 -0.1454 -1.5845
  482MOL0     O66379   3.932   2.100   0.989 -1.0674 -0.1233 -0.4152
  482MOL0     C66380   3.841   2.106   1.074 -0.0865  0.3034 -0.7049
  482MOL0     O66381   3.774   2.002   1.122  0.2881  0.5162  0.1727
  482MOL0     C66382   3.821   1.871   1.109  0.4221 -0.1547  0.3750
  482MOL0     C66383   3.898   1.810   1.005  1.0700  0.3565  0.1752
  482MOL0     C66384   3.916   1.675   1.004  0.5447  0.5691  0.0430
  482MOL0     C66385   3.860   1.589   1.098  0.6365 -0.4760  0.7707
  482MOL0     O66386   3.897   1.459   1.088  0.6576 -0.1323 -0.4525
  482MOL0     C66387   3.804   1.360   1.060 -0.0563 -0.5240 -0.4879
  482MOL0     C66388   3.800   1.336   0.910 -0.7548  0.0284  0.0020
  482MOL0     C66389   3.914   1.258   0.842 -0.6718  0.6437 -0.1440
  482MOL0     C66390   3.918   1.114   0.873 -0.6823  0.0623 -0.0594
  482MOL0     C66391   4.041   1.051   0.824  0.9529  0.4600 -0.0240
  482MOL0     C66392   4.061   0.901   0.878 -0.0949  0.1821 -0.6552
  482MOL0     C66393   3.950   0.813   0.820 -0.2290  0.4224 -0.1875
  482MOL0     C66394   3.948   0.667   0.860  0.2425 -0.3529  0.3662
  482MOL0     N66395   4.083   0.612   0.837  0.0921  0.1012 -0.4846
  482MOL0     C66396   4.164   0.570   0.938 -1.0708  0.0771 -1.3333
  482MOL0     C66397   4.260   0.509   0.873  0.5675  0.2795  0.4819
  482MOL0     C66398   4.378   0.436   0.932  0.4885 -1.0848 -0.3901
  482MOL0     C66399   4.377   0.288   0.914 -0.1714 -0.0397 -0.9284
  482MOL0     C66400   4.435   0.248   0.787 -0.3402  0.0867 -0.5294
  482MOL0     C66401   4.592   0.250   0.767  0.0393 -0.1286  0.1069
  482MOL0     O66402   4.655   0.151   0.845  0.2374  0.1352 -0.6148
  482MOL0     C66403   4.727   0.183   0.960  0.3560  0.4890  0.2886
  482MOL0     C66404   4.804   0.077   1.001 -0.2965  0.1381 -0.1314
  482MOL0     C66405   4.881   0.082   1.116  0.3372 -0.4866  0.3557
  482MOL0     C66406   4.944  -0.049   1.156  0.6618  0.0859 -0.1512
  482MOL0     C66407   4.884   0.203   1.191 -1.1072  0.2441 -0.3846
  482MOL0     C66408   4.966   0.235   1.311 -0.0840  0.3262 -0.1551
  482MOL0     O66409   4.915   0.319   1.410  0.4092  0.3289 -1.1203
  482MOL0     C66410   4.978   0.336   1.527  0.5558 -0.2700 -0.1381
  482MOL0     C66411   4.900   0.337   1.641 -0.0652  0.3611 -0.7992
  482MOL0     C66412   4.959   0.345   1.772 -0.1302  0.1440  0.3795
  482MOL0     C66413   5.099   0.357   1.784  0.6826 -0.5871 -0.0832
  482MOL0     O66414   5.151   0.359   1.915  0.7274 -1.3207 -0.2549
  482MOL0     C66415   5.283   0.333   1.926 -0.1492  0.0922 -0.7272
  482MOL0     C66416   5.321   0.337   2.077  0.5155 -0.6565 -0.7310
  482MOL0     C66417   5.472   0.320   2.092  0.1934  0.4668 -0.7028
  482MOL0     C66418   5.510   0.169   2.102 -1.1785 -0.6848 -0.3459
  482MOL0     C66419   5.659   0.166   2.105  0.3688 -0.1372  1.2683
  482MOL0     C66420   5.722   0.025   2.076  0.3030 -0.2676  0.6658
  482MOL0     C66421   5.879   0.043   2.067 -0.8192  0.2362 -0.2659
  482MOL0     C66422   5.949  -0.091   2.114 -0.4251 -0.4693  0.6116
  482MOL0    Cl66423   5.908  -0.205   1.991 -0.4525  0.1095  0.0801
  482MOL0     C66424   5.176   0.361   1.665  0.1965  0.1416  0.2760
  482MOL0     C66425   5.115   0.355   1.544  0.5627  0.0030 -0.4002
  482MOL0     O66426   5.054   0.151   1.327  0.1825  0.0897 -0.9296
  482MOL0     C66427   4.802   0.307   1.142 -0.6545  0.6652  0.3964
  482MOL0     C66428   4.725   0.302   1.028  0.2675 -0.4497 -0.2792
  482MOL0     N66429   4.236   0.514   0.737 -0.1366 -0.4537 -0.7151
  482MOL0     N66430   4.123   0.569   0.719  0.1872  0.5253  0.3682
  482MOL0     C66431   3.786   1.646   1.200 -0.1208 -0.0095 -1.4007
  482MOL0     C66432   3.760   1.790   1.206  0.5481  0.3846 -0.1053
  482MOL0     C66433   3.805   2.243   1.128 -1.1394  0.2781  0.9743
  482MOL0     C66434   3.767   2.250   1.260  0.4755 -0.6350 -0.0568
  482MOL0     C66435   3.738   2.373   1.318  0.8316  0.0899  0.3436
  482MOL0     C66436   3.738   2.493   1.238  1.5827  0.4070 -0.4230
  482MOL0     O66437   3.712   2.621   1.275 -0.5798  0.4636 -0.8923
  482MOL0     C66438   3.685   2.645   1.413 -0.2465 -0.5743 -0.1493
  482MOL0     C66439   3.682   2.794   1.453 -0.1990 -0.0909  0.0197
  482MOL0     C66440   3.725   2.807   1.601  0.6289 -0.4415  0.2696
  482MOL0     C66441   3.731   2.952   1.654  1.0217 -0.8170 -0.7733
  482MOL0     C66442   3.873   2.994   1.676 -0.1288 -0.4391 -0.3961
  482MOL0     C66443   3.991   3.022   1.686  1.3967  0.4110 -0.2598
  482MOL0     C66444   3.766   2.480   1.107 -0.4673  0.8148  0.8538
  482MOL0     C66445   3.808   2.361   1.050  0.1820 -0.0878 -0.2050
  482MOL0     C66446   3.850   2.367   0.899  0.4555  0.4409  0.1670
  482MOL0     H66447   3.931   1.886   0.935 -0.3544  1.3229  0.5179
  482MOL0     H66448   3.985   1.639   0.928  0.6289  2.1004 -0.6387
  482MOL0     H66449   3.706   1.395   1.092  1.0056  0.3223  2.1252
  482MOL0     H66450   3.833   1.269   1.113 -1.8914 -1.8040 -1.5843
  482MOL0     H66451   3.711   1.278   0.886 -2.8153  2.4143  1.3375
  482MOL0     H66452   3.789   1.433   0.860  0.2230  0.7207  1.0715
  482MOL0     H66453   3.899   1.280   0.736 -0.2361 -2.9793 -1.0827
  482MOL0     H66454   4.002   1.313   0.878  0.8568 -3.2602  2.8535
  482MOL0     H66455   3.917   1.107   0.982  1.1957  1.9555  0.1298
  482MOL0     H66456   3.829   1.071   0.826  0.5308 -2.0615 -0.5744
  482MOL0     H66457   4.129   1.112   0.844 -0.0409  1.1516  2.7388
  482MOL0     H66458   4.031   1.046   0.715 -3.4485 -2.5212  0.2784
  482MOL0     H66459   4.157   0.857   0.851 -0.3334 -1.3157  0.7754
  482MOL0     H66460   4.059   0.895   0.987 -0.6520 -2.6403 -0.7289
  482MOL0     H66461   3.957   0.810   0.711 -0.9551 -1.8539 -0.2142
  482MOL0     H66462   3.861   0.856   0.868  1.0789 -0.4209  3.3620
  482MOL0     H66463   3.917   0.649   0.963 -1.3424 -1.5161 -0.2643
  482MOL0     H66464   3.883   0.605   0.797  1.4991  0.8491 -2.3012
  482MOL0     H66465   4.161   0.588   1.045 -2.5833 -5.1706 -0.1855
  482MOL0     H66466   4.374   0.476   1.034 -1.9473 -0.1356 -0.7877
  482MOL0     H66467   4.466   0.482   0.884  0.5633 -0.9304 -0.1045
  482MOL0     H66468   4.434   0.235   0.991 -0.6201  1.2917  0.3772
  482MOL0     H66469   4.275   0.248   0.926 -1.0087  2.7656  3.5004
  482MOL0     H66470   4.408   0.144   0.768  1.6923 -0.8521  1.4356
  482MOL0     H66471   4.386   0.296   0.701 -2.0975 -2.5506 -1.1255
  482MOL0     H66472   4.621   0.233   0.663 -1.7828  1.7854 -0.7995
  482MOL0     H66473   4.624   0.353   0.789 -1.5307  0.2036  1.0104
  482MOL0     H66474   4.812  -0.010   0.937 -3.2204 -0.7848  0.5744
  482MOL0     H66475   5.048  -0.033   1.187  0.4854  0.7261  0.1074
  482MOL0     H66476   4.941  -0.124   1.076  0.9188 -0.7123  0.5683
  482MOL0     H66477   4.889  -0.099   1.236  3.4206 -1.0885  1.1534
  482MOL0     H66478   4.793   0.321   1.629 -0.5242  0.9880  1.9025
  482MOL0     H66479   4.895   0.349   1.859  1.5773  0.3085  1.6965
  482MOL0     H66480   5.312   0.236   1.885 -1.5079 -0.4777 -0.4120
  482MOL0     H66481   5.333   0.416   1.876  1.3108 -2.1189 -3.1866
  482MOL0     H66482   5.297   0.439   2.107  2.7887 -0.0816 -0.7057
  482MOL0     H66483   5.269   0.258   2.133  0.1371  1.3698  1.9816
  482MOL0     H66484   5.511   0.378   2.176 -2.2115  4.0197 -1.8058
  482MOL0     H66485   5.536   0.361   2.013  0.9423 -2.5677 -1.7777
  482MOL0     H66486   5.467   0.114   2.018 -1.6158 -2.0006  0.7144
  482MOL0     H66487   5.475   0.121   2.194  0.7458  0.1318  0.8902
  482MOL0     H66488   5.695   0.238   2.031  0.6601 -0.1764  1.3719
  482MOL0     H66489   5.701   0.203   2.199  1.7599  0.8820  0.2849
  482MOL0     H66490   5.673  -0.017   1.988 -2.3795  0.8978  1.5035
  482MOL0     H66491   5.705  -0.045   2.158  1.1761 -2.4372 -0.9210
  482MOL0     H66492   5.910   0.122   2.136 -1.5868 -0.7569  1.2667
  482MOL0     H66493   5.908   0.080   1.968  0.0105  0.0640 -0.0931
  482MOL0     H66494   5.933  -0.124   2.216  0.4479  0.7764  1.1795
  482MOL0     H66495   6.058  -0.077   2.107 -0.0416 -2.8876  1.0362
  482MOL0     H66496   5.284   0.363   1.664  0.2384 -1.4096 -0.7686
  482MOL0     H66497   5.176   0.353   1.454  0.3151  0.7339 -0.5905
  482MOL0     H66498   4.792   0.402   1.193 -0.2496  2.0461 -1.9084
  482MOL0     H66499   4.656   0.385   1.015  0.8174  0.8389  3.7837
  482MOL0     H66500   3.753   1.593   1.288  0.1546  0.4256 -1.0326
  482MOL0     H66501   3.703   1.835   1.288 -2.5307 -0.1518 -1.7846
  482MOL0     H66502   3.762   2.164   1.326 -1.0304 -0.7143 -0.2318
  482MOL0     H66503   3.712   2.364   1.423 -0.8369  1.7256  0.1389
  482MOL0     H66504   3.590   2.596   1.436  0.2241 -2.0887 -1.2839
  482MOL0     H66505   3.766   2.594   1.464  0.8533 -0.6867 -1.9438
  482MOL0     H66506   3.589   2.850   1.440  0.7818  2.3788  2.7558
  482MOL0     H66507   3.740   2.855   1.383  0.7752  1.1514  1.8510
  482MOL0     H66508   3.655   2.754   1.667 -0.1974  0.0985 -0.1573
  482MOL0     H66509   3.825   2.765   1.613 -0.1164 -2.1019  0.9434
  482MOL0     H66510   3.681   2.946   1.751  0.3097  1.0171 -0.9997
  482MOL0     H66511   3.683   3.031   1.596  0.6009  1.7658  2.7568
  482MOL0     H66512   4.088   3.066   1.697  1.6194  0.4086 -1.9131
  482MOL0     H66513   3.756   2.567   1.043 -1.9545  0.9168  1.1982
  482MOL0     H66514   3.847   2.269   0.852 -1.2910  1.6969 -2.6338
  482MOL0     H66515   3.789   2.436   0.839  2.9409  3.2771  0.6246
  482MOL0     H66516   3.953   2.405   0.891  0.4672  0.7212  1.5133
  483MOL0     O66517   7.337   0.348   4.226  0.5447  0.0154  0.5181
  483MOL0     C66518   7.432   0.376   4.295 -0.3324  0.3375 -0.1957
  483MOL0     O66519   7.431   0.462   4.402 -0.3532 -0.2754 -0.7272
  483MOL0     C66520   7.310   0.513   4.448 -0.2447 -0.2375 -0.4582
  483MOL0     C66521   7.216   0.575   4.382 -0.0707 -0.7688 -0.4037
  483MOL0     C66522   7.099   0.618   4.432  0.3662  0.0676 -0.1789
  483MOL0     C66523   7.076   0.612   4.563  0.6843  0.0290 -0.5360
  483MOL0     O66524   6.961   0.669   4.618  0.0499  0.3826 -0.3873
  483MOL0     C66525   6.981   0.752   4.738 -0.1902  0.9452  0.5478
  483MOL0     C66526   7.076   0.875   4.720  0.0757 -0.5062 -0.2062
  483MOL0     C66527   6.997   0.977   4.642 -0.7503 -0.3139 -0.0058
  483MOL0     C66528   7.094   1.070   4.562 -1.0156 -0.6733  0.3733
  483MOL0     C66529   7.009   1.193   4.513  0.1454 -0.1499  0.4966
  483MOL0     C66530   7.087   1.274   4.405 -0.0282  0.0920 -0.6858
  483MOL0     C66531   6.999   1.382   4.340  0.2140  0.3394  0.0130
  483MOL0     C66532   7.064   1.466   4.219 -0.2135  0.0817  0.7276
  483MOL0     N66533   7.115   1.368   4.126 -0.8048 -0.4875  0.3658
  483MOL0     C66534   7.048   1.266   4.054 -0.3009  0.1838 -0.3784
  483MOL0     C66535   7.143   1.193   3.983 -0.3556  0.0596 -0.7309
  483MOL0     C66536   7.119   1.070   3.909 -0.2668 -0.4642 -0.7338
  483MOL0     C66537   7.074   0.954   3.996  0.2752  0.6186 -0.4642
  483MOL0     C66538   7.185   0.887   4.076  0.2345 -0.9271 -0.1074
  483MOL0     C66539   7.282   0.978   4.149  0.0629 -0.5830 -0.1294
  483MOL0     O66540   7.366   0.901   4.236  0.0671 -0.4119 -0.5208
  483MOL0     C66541   7.410   0.971   4.347  0.8828 -0.1349  0.1048
  483MOL0     C66542   7.438   0.882   4.456  0.3338  0.3242  0.8282
  483MOL0     C66543   7.489   0.930   4.575  0.1798  0.8848 -0.3576
  483MOL0     C66544   7.499   0.819   4.683 -0.2646 -0.1632  0.4226
  483MOL0     C66545   7.522   1.063   4.587 -0.3901 -0.0585  0.1065
  483MOL0     C66546   7.602   1.113   4.694  0.7158 -0.5462 -0.6748
  483MOL0     O66547   7.703   1.029   4.736  0.0984  0.0136  0.0012
  483MOL0     C66548   7.781   1.064   4.847  0.2830  0.1185 -0.5483
  483MOL0     C66549   7.922   1.060   4.828  0.9615 -0.7577  0.4799
  483MOL0     C66550   8.008   1.083   4.934 -0.0385 -0.6291  0.2196
  483MOL0     C66551   7.961   1.096   5.065  0.0040 -0.8016 -0.2692
  483MOL0     O66552   8.030   1.115   5.179 -0.4758  0.4237  0.0654
  483MOL0     C66553   8.169   1.126   5.161 -0.1084 -0.1125  0.7939
  483MOL0     C66554   8.239   1.124   5.299 -0.0293 -0.5837 -0.5597
  483MOL0     C66555   8.386   1.174   5.291  0.3978  0.2827 -0.4967
  483MOL0     C66556   8.391   1.321   5.336  0.0201 -0.2362  0.3046
  483MOL0     C66557   8.538   1.378   5.355  0.6971  0.0276  0.4761
  483MOL0     C66558   8.528   1.532   5.379 -0.3839  0.0524  0.0583
  483MOL0     C66559   8.665   1.588   5.427 -0.3047  0.0072 -0.0096
  483MOL0     C66560   8.660   1.740   5.430  0.0545 -0.1949 -1.0439
  483MOL0    Cl66561   8.825   1.791   5.469  0.0460 -0.5490  0.9366
  483MOL0     C66562   7.823   1.093   5.089  0.0872  0.9115  0.3314
  483MOL0     C66563   7.732   1.077   4.982  0.2830 -0.7970  0.1707
  483MOL0     O66564   7.565   1.222   4.748 -0.0810  0.1245  0.1187
  483MOL0     C66565   7.489   1.149   4.484  0.9471  0.9391  0.0437
  483MOL0     C66566   7.426   1.106   4.365 -0.9099  0.5423  0.6944
  483MOL0     N66567   7.258   1.267   4.002 -0.5790  0.1539  0.1016
  483MOL0     N66568   7.245   1.372   4.096  0.6366 -0.0522 -1.2000
  483MOL0     C66569   7.173   0.539   4.642  1.2478  0.0587 -0.0037
  483MOL0     C66570   7.293   0.502   4.587  0.0676  0.5902 -1.1385
  483MOL0     C66571   7.565   0.318   4.265 -0.0795  0.5078 -0.0290
  483MOL0     C66572   7.657   0.318   4.365 -0.0750  0.4047 -0.0976
  483MOL0     C66573   7.780   0.259   4.357  0.1486  0.6370  0.1162
  483MOL0     C66574   7.817   0.197   4.242  0.3705 -0.4337 -0.6046
  483MOL0     O66575   7.935   0.133   4.228 -0.0732  0.8497 -0.0435
  483MOL0     C66576   8.044   0.150   4.321  0.8920  0.1259  1.0556
  483MOL0     C66577   8.178   0.103   4.259  0.0418  0.0247 -0.7798
  483MOL0     C66578   8.173  -0.046   4.253  0.6866  0.1741  0.3705
  483MOL0     C66579   8.200  -0.116   4.385 -0.0497 -0.7892 -0.2280
  483MOL0     C66580   8.223  -0.257   4.378  0.4730 -0.1717 -0.3371
  483MOL0     C66581   8.222  -0.383   4.377 -1.3974 -1.0300  0.6893
  483MOL0     C66582   7.729   0.198   4.133  0.7531 -0.1161 -0.2082
  483MOL0     C66583   7.606   0.253   4.144  0.4461 -0.5903 -0.8876
  483MOL0     C66584   7.509   0.227   4.023  0.8487 -0.3948  0.9890
  483MOL0     H66585   7.226   0.588   4.274 -2.4485 -0.2731 -0.6189
  483MOL0     H66586   7.029   0.676   4.373 -2.7452 -1.6060  1.5995
  483MOL0     H66587   7.019   0.690   4.819  0.5254  2.0399  1.0695
  483MOL0     H66588   6.882   0.782   4.774 -2.8390 -2.6566 -2.8386
  483MOL0     H66589   7.113   0.910   4.817  3.0801  1.3255 -1.8276
  483MOL0     H66590   7.159   0.832   4.663  2.7580  2.6415  1.0047
  483MOL0     H66591   6.923   0.931   4.576 -0.7956  0.6819 -0.6707
  483MOL0     H66592   6.944   1.044   4.711 -0.6247 -2.3973  2.2597
  483MOL0     H66593   7.173   1.114   4.623  0.2847  1.0630 -2.3788
  483MOL0     H66594   7.143   1.006   4.489 -0.7217 -1.7516  1.4780
  483MOL0     H66595   6.979   1.261   4.593  2.0336  0.5183  0.6878
  483MOL0     H66596   6.919   1.142   4.475 -0.4550 -1.1751  3.0785
  483MOL0     H66597   7.167   1.316   4.467 -0.0571  0.3561 -0.8269
  483MOL0     H66598   7.144   1.215   4.333  1.7575  0.9316 -0.0206
  483MOL0     H66599   6.969   1.453   4.418 -0.3544 -0.3451  0.4252
  483MOL0     H66600   6.912   1.326   4.305  2.3202 -1.4116 -2.8821
  483MOL0     H66601   6.986   1.511   4.157  0.9807  1.1210 -0.0578
  483MOL0     H66602   7.138   1.537   4.256 -1.2432  1.0910  0.9201
  483MOL0     H66603   6.940   1.259   4.048 -0.3642  1.4244 -0.9581
  483MOL0     H66604   7.216   1.041   3.869 -0.1895 -0.6324 -0.4285
  483MOL0     H66605   7.048   1.093   3.829 -1.5660  1.0891  0.7848
  483MOL0     H66606   6.987   0.987   4.053  0.7397  0.0924  0.5885
  483MOL0     H66607   7.046   0.874   3.926  0.8181  0.9746 -1.1020
  483MOL0     H66608   7.146   0.822   4.154 -1.9034 -0.7402 -0.9671
  483MOL0     H66609   7.256   0.835   4.012  1.6803 -0.2979  0.9273
  483MOL0     H66610   7.352   1.023   4.078 -0.4814 -0.8329 -0.8328
  483MOL0     H66611   7.228   1.057   4.202  0.2410 -1.0759  0.8272
  483MOL0     H66612   7.420   0.776   4.441  2.3772  0.1291 -0.6123
  483MOL0     H66613   7.606   0.803   4.700  0.2268  1.0419 -1.2235
  483MOL0     H66614   7.460   0.721   4.654  2.3775 -1.0675 -0.4604
  483MOL0     H66615   7.451   0.864   4.770 -1.1680  4.5484 -2.1637
  483MOL0     H66616   7.967   1.026   4.735 -3.8453 -3.3300 -1.2621
  483MOL0     H66617   8.112   1.089   4.904  0.1232  2.9739  1.0282
  483MOL0     H66618   8.209   1.041   5.104 -2.7898  0.1550 -1.6632
  483MOL0     H66619   8.186   1.216   5.101 -1.5173 -0.5425 -0.3031
  483MOL0     H66620   8.190   1.189   5.372 -0.4479 -1.4078 -0.0907
  483MOL0     H66621   8.230   1.019   5.330  1.7799 -0.3187  1.0360
  483MOL0     H66622   8.413   1.167   5.185 -0.0980  0.3113 -0.6319
  483MOL0     H66623   8.453   1.114   5.352 -0.1158  0.7512  0.5648
  483MOL0     H66624   8.343   1.346   5.432  1.4874  1.6936  0.6118
  483MOL0     H66625   8.346   1.377   5.253  0.1142 -3.1864 -1.8802
  483MOL0     H66626   8.577   1.326   5.443  2.9565 -0.0703 -0.4966
  483MOL0     H66627   8.611   1.351   5.278  0.3963 -1.1490  0.5820
  483MOL0     H66628   8.451   1.564   5.450  1.1376 -2.0480  2.9121
  483MOL0     H66629   8.502   1.573   5.282  1.6200 -1.4850 -1.2323
  483MOL0     H66630   8.739   1.557   5.353 -0.2860  1.3095 -0.5710
  483MOL0     H66631   8.697   1.553   5.526  2.6074  1.9847 -0.1018
  483MOL0     H66632   8.592   1.774   5.508  1.6749  1.8474 -0.4110
  483MOL0     H66633   8.618   1.771   5.333 -1.7559 -0.2714 -0.3147
  483MOL0     H66634   7.793   1.085   5.193  2.6134  1.4818  1.1801
  483MOL0     H66635   7.626   1.095   4.998 -0.1096 -0.6944 -2.2226
  483MOL0     H66636   7.511   1.255   4.492  2.6510  0.4908  2.5295
  483MOL0     H66637   7.403   1.173   4.283 -3.5229 -3.7598 -2.4883
  483MOL0     H66638   7.148   0.510   4.744  0.7404 -3.1329 -0.9111
  483MOL0     H66639   7.359   0.433   4.638 -2.1164  0.3693  1.5925
  483MOL0     H66640   7.639   0.355   4.466  2.4194 -1.6283  1.1862
  483MOL0     H66641   7.837   0.239   4.447 -1.4047 -0.0084  0.9952
  483MOL0     H66642   8.059   0.258   4.334 -2.6098  0.9021 -0.2600
  483MOL0     H66643   8.028   0.101   4.418  0.1266 -0.0487  0.8464
  483MOL0     H66644   8.259   0.132   4.326  0.1506  0.3921 -1.0708
  483MOL0     H66645   8.192   0.146   4.159 -1.0552  0.7773 -0.6311
  483MOL0     H66646   8.074  -0.085   4.228  1.0420  0.5824 -1.8992
  483MOL0     H66647   8.230  -0.082   4.166 -0.4789  0.6152 -0.6123
  483MOL0     H66648   8.114  -0.096   4.449 -1.3503 -1.1540 -1.7953
  483MOL0     H66649   8.286  -0.070   4.434 -0.1599  0.3019 -1.0136
  483MOL0     H66650   8.221  -0.490   4.387 -0.1027 -1.1253  0.0819
  483MOL0     H66651   7.758   0.156   4.037  1.5404  1.2595 -0.5977
  483MOL0     H66652   7.472   0.326   3.994  0.3783 -0.4644  1.3250
  483MOL0     H66653   7.561   0.190   3.934 -0.4648 -0.4092  0.1922
  483MOL0     H66654   7.427   0.158   4.048  1.0204 -0.8094  0.4401
  484MOL0     O66655   2.110   2.433   1.114 -0.1184  0.1509 -0.8321
  484MOL0     C66656   2.196   2.355   1.075  0.3344 -0.4012 -0.0383
  484MOL0     O66657   2.225   2.230   1.127  0.6536 -0.2198  0.9952
  484MOL0     C66658   2.151   2.188   1.231 -0.1479  0.1796  0.3460
  484MOL0     C66659   2.194   2.201   1.359 -0.0343  0.8612  0.6983
  484MOL0     C66660   2.106   2.184   1.470 -0.3366 -0.6918 -0.6288
  484MOL0     C66661   1.986   2.126   1.443  0.6341  0.3406 -0.2838
  484MOL0     O66662   1.893   2.101   1.548  0.3838 -0.6505 -0.3202
  484MOL0     C66663   1.895   2.167   1.676 -0.1179 -0.3385  0.2324
  484MOL0     C66664   1.775   2.137   1.769 -0.1120 -0.0172 -0.2803
  484MOL0     C66665   1.643   2.174   1.698  0.6321 -0.2795  0.8053
  484MOL0     C66666   1.528   2.120   1.772  0.4913  0.3748  0.0779
  484MOL0     C66667   1.391   2.138   1.699  0.5700  0.3752 -0.2786
  484MOL0     C66668   1.349   2.281   1.728  0.0596  0.3888 -0.0001
  484MOL0     C66669   1.203   2.305   1.701 -0.0907 -0.5760 -0.9891
  484MOL0     C66670   1.160   2.454   1.715 -0.2449  0.5589 -0.3861
  484MOL0     N66671   1.216   2.535   1.610 -0.4988 -0.8807  0.7475
  484MOL0     C66672   1.214   2.517   1.474 -0.2794 -0.5250 -0.4037
  484MOL0     C66673   1.266   2.634   1.427 -0.0755 -0.0901 -0.3007
  484MOL0     C66674   1.271   2.681   1.287  0.4748  0.0558  1.0499
  484MOL0     C66675   1.160   2.782   1.264 -0.3232 -0.4173 -0.3156
  484MOL0     C66676   1.152   2.857   1.123 -0.8026  0.6915 -0.4999
  484MOL0     C66677   1.277   2.943   1.106 -0.1407  0.0578 -0.9705
  484MOL0     O66678   1.378   2.883   1.022 -0.6955 -0.6556 -0.0676
  484MOL0     C66679   1.393   2.951   0.900 -0.2526  0.2918  0.7567
  484MOL0     C66680   1.277   2.981   0.828 -0.6142 -0.1921  0.2972
  484MOL0     C66681   1.283   3.047   0.698  0.0381 -0.0448 -0.7065
  484MOL0     C66682   1.162   3.113   0.643 -0.6045  0.5555 -0.1005
  484MOL0     C66683   1.411   3.066   0.641 -0.6909  1.5461 -0.6191
  484MOL0     C66684   1.440   3.127   0.507 -0.4431  0.9590 -0.0088
  484MOL0     O66685   1.339   3.115   0.415 -0.4779 -0.0983 -0.3101
  484MOL0     C66686   1.371   3.147   0.287  0.0047  0.1523 -0.5425
  484MOL0     C66687   1.303   3.249   0.217  0.6464 -0.9990 -1.0570
  484MOL0     C66688   1.326   3.275   0.082 -0.1883 -0.5877 -0.0557
  484MOL0     C66689   1.400   3.186   0.010  0.7223  0.1917 -0.4778
  484MOL0     O66690   1.414   3.194  -0.127 -0.6934  0.0951 -0.4553
  484MOL0     C66691   1.293   3.194  -0.203 -0.3205  1.1256 -0.7728
  484MOL0     C66692   1.290   3.303  -0.315 -0.3711  0.0083  1.3914
  484MOL0     C66693   1.291   3.441  -0.265  0.1970 -0.4383 -0.4168
  484MOL0     C66694   1.292   3.546  -0.380 -0.2382 -0.6084 -0.7419
  484MOL0     C66695   1.157   3.635  -0.382 -0.0879 -0.2135 -0.4714
  484MOL0     C66696   1.109   3.707  -0.252  0.2390 -0.4115 -0.4840
  484MOL0     C66697   0.996   3.806  -0.281  0.0723 -0.5494  0.3929
  484MOL0     C66698   0.876   3.797  -0.192  0.6991 -0.2479  0.9523
  484MOL0    Cl66699   0.944   3.854  -0.029  0.5078  0.4366  0.0336
  484MOL0     C66700   1.461   3.082   0.085 -0.0751  0.0324  0.9974
  484MOL0     C66701   1.445   3.064   0.221 -0.3830 -0.4014  0.5922
  484MOL0     O66702   1.553   3.177   0.482 -0.7432 -0.0614 -0.2938
  484MOL0     C66703   1.526   3.022   0.709  0.0413 -0.0177 -0.0912
  484MOL0     C66704   1.516   2.965   0.838 -0.2218 -0.1646  0.1651
  484MOL0     N66705   1.309   2.712   1.532 -0.0220 -0.0967  0.4884
  484MOL0     N66706   1.289   2.651   1.646  0.1069 -0.3503  0.4077
  484MOL0     C66707   1.951   2.083   1.313  0.5315 -1.2470  0.1423
  484MOL0     C66708   2.028   2.122   1.208  0.2265 -1.5537  0.1644
  484MOL0     C66709   2.293   2.407   0.964  0.3888  0.2631 -0.2728
  484MOL0     C66710   2.432   2.409   0.986 -0.6537 -0.7833 -0.7645
  484MOL0     C66711   2.520   2.420   0.881  0.6478  0.6669 -0.5260
  484MOL0     C66712   2.479   2.469   0.755 -0.7386  1.1476  0.8393
  484MOL0     O66713   2.567   2.496   0.649  1.0180  0.1649 -0.0887
  484MOL0     C66714   2.521   2.521   0.510  0.4979 -0.5195  0.3833
  484MOL0     C66715   2.656   2.554   0.443 -0.0696 -0.3926 -1.1073
  484MOL0     C66716   2.644   2.663   0.333  0.3738 -0.9331 -0.1778
  484MOL0     C66717   2.765   2.692   0.251 -0.5062 -0.9124  0.0406
  484MOL0     C66718   2.785   2.595   0.132  0.6727 -0.3874  0.3496
  484MOL0     C66719   2.804   2.505   0.054  0.3110  0.8572  0.2448
  484MOL0     C66720   2.342   2.485   0.733  0.1147  0.0775 -0.1077
  484MOL0     C66721   2.246   2.439   0.837 -0.1686 -0.6802  1.1461
  484MOL0     C66722   2.099   2.451   0.803  0.1806  0.8575 -0.1209
  484MOL0     H66723   2.296   2.234   1.380  0.9533  1.9539 -4.5069
  484MOL0     H66724   2.133   2.220   1.568 -1.8470 -2.5721  0.5564
  484MOL0     H66725   1.913   2.274   1.668 -2.4938  0.1036 -0.1310
  484MOL0     H66726   1.980   2.122   1.727 -1.4603 -6.0509 -1.7697
  484MOL0     H66727   1.768   2.034   1.805 -1.7962  0.5789  1.2457
  484MOL0     H66728   1.785   2.203   1.856 -0.1091 -0.9619  0.4603
  484MOL0     H66729   1.633   2.280   1.673 -0.1691 -0.8358 -1.4510
  484MOL0     H66730   1.652   2.118   1.605  1.2346  0.6236  0.3015
  484MOL0     H66731   1.545   2.016   1.803  4.2456  1.0311  0.6640
  484MOL0     H66732   1.516   2.157   1.874 -2.0565 -1.7494  0.6757
  484MOL0     H66733   1.325   2.061   1.740  0.2723  0.9793  0.3836
  484MOL0     H66734   1.389   2.111   1.593  2.8651  0.6774 -0.4413
  484MOL0     H66735   1.375   2.311   1.830 -1.1853 -2.4610  1.2396
  484MOL0     H66736   1.405   2.353   1.667 -0.1344 -0.7494 -1.5950
  484MOL0     H66737   1.147   2.255   1.780 -1.1536  3.0176  0.7688
  484MOL0     H66738   1.181   2.269   1.600  1.9019  0.4585 -1.8554
  484MOL0     H66739   1.051   2.457   1.703 -0.3343 -2.3750 -1.1398
  484MOL0     H66740   1.194   2.485   1.814  0.5235  0.1615 -0.5146
  484MOL0     H66741   1.160   2.446   1.413 -1.4799  0.1327 -0.1612
  484MOL0     H66742   1.250   2.592   1.226  0.1785 -0.3524  1.7293
  484MOL0     H66743   1.370   2.714   1.255  1.0981  0.4819  3.2433
  484MOL0     H66744   1.066   2.726   1.277  0.1078 -1.2430 -0.6218
  484MOL0     H66745   1.166   2.865   1.334  0.0927 -0.4738 -0.2858
  484MOL0     H66746   1.134   2.785   1.043  2.6516 -2.1492  1.0474
  484MOL0     H66747   1.069   2.929   1.120  1.1909  3.1564 -0.2195
  484MOL0     H66748   1.237   3.040   1.077 -1.1904  0.8072  2.5399
  484MOL0     H66749   1.317   2.961   1.206 -2.6300  0.2865  0.0534
  484MOL0     H66750   1.182   2.970   0.879 -1.2777  1.9579 -0.3747
  484MOL0     H66751   1.089   3.138   0.720  0.9762 -0.2141  1.7483
  484MOL0     H66752   1.122   3.049   0.564  0.7540  2.7054 -2.6893
  484MOL0     H66753   1.185   3.203   0.586 -0.8090  0.8742  0.3153
  484MOL0     H66754   1.237   3.325   0.258  1.1992  0.1320 -2.2063
  484MOL0     H66755   1.274   3.359   0.037  0.2305  2.4177  4.4334
  484MOL0     H66756   1.289   3.090  -0.239  1.0315  1.4609 -1.9723
  484MOL0     H66757   1.203   3.216  -0.145 -0.2962  3.2629 -1.4723
  484MOL0     H66758   1.371   3.296  -0.388 -2.2552  1.7776 -1.0115
  484MOL0     H66759   1.201   3.296  -0.378  1.4714  0.6524 -1.4443
  484MOL0     H66760   1.376   3.464  -0.201 -0.5235  0.6216  0.2021
  484MOL0     H66761   1.200   3.459  -0.208  1.0829 -1.4159  1.3681
  484MOL0     H66762   1.288   3.498  -0.478 -0.1342  1.1394 -1.6420
  484MOL0     H66763   1.384   3.605  -0.383  0.1153 -1.1591 -3.5074
  484MOL0     H66764   1.176   3.706  -0.463  0.2716 -1.0499 -1.1352
  484MOL0     H66765   1.078   3.567  -0.415 -1.4422  0.9538  0.2818
  484MOL0     H66766   1.197   3.755  -0.210  0.4602 -0.7719 -0.5342
  484MOL0     H66767   1.065   3.632  -0.186  0.8493 -0.0786  0.3020
  484MOL0     H66768   0.966   3.785  -0.384  1.8402  0.0385 -0.2804
  484MOL0     H66769   1.026   3.910  -0.292 -2.1975  0.2413  1.2002
  484MOL0     H66770   0.843   3.692  -0.190  1.6942 -0.8276 -3.2258
  484MOL0     H66771   0.785   3.849  -0.224  0.4459 -0.9528  0.4907
  484MOL0     H66772   1.501   3.002   0.023  2.6662  3.0243 -1.4513
  484MOL0     H66773   1.484   2.975   0.270  1.1159 -1.5741 -2.4409
  484MOL0     H66774   1.631   3.029   0.685 -0.0484 -0.1495 -0.5318
  484MOL0     H66775   1.605   2.931   0.890  0.7221  2.0718  0.1437
  484MOL0     H66776   1.862   2.021   1.309 -0.6875  0.4747 -0.1161
  484MOL0     H66777   1.989   2.091   1.112 -0.7216  0.5127 -0.1696
  484MOL0     H66778   2.479   2.368   1.075  0.4445  1.7399 -0.1194
  484MOL0     H66779   2.628   2.418   0.893  1.1288  0.7022 -3.8627
  484MOL0     H66780   2.462   2.440   0.467  2.3588 -1.6682 -0.1064
  484MOL0     H66781   2.449   2.603   0.511 -1.9059 -2.5396  1.1945
  484MOL0     H66782   2.716   2.468   0.412  1.9870  0.5522  0.0528
  484MOL0     H66783   2.716   2.615   0.511  0.0576 -0.9693 -0.6983
  484MOL0     H66784   2.556   2.646   0.270 -0.2493  0.7660  0.1673
  484MOL0     H66785   2.630   2.757   0.387  2.1795  0.3018 -1.7509
  484MOL0     H66786   2.855   2.694   0.313 -1.2780  0.0550  1.1648
  484MOL0     H66787   2.758   2.795   0.215  1.5351 -0.5361  0.5495
  484MOL0     H66788   2.827   2.432  -0.021 -3.2691  0.3151 -0.4966
  484MOL0     H66789   2.306   2.517   0.635  4.8450  4.7224 -0.7677
  484MOL0     H66790   2.101   2.502   0.707  4.2189 -0.9765 -1.2203
  484MOL0     H66791   2.053   2.352   0.794  0.1095  1.0798 -2.9669
  484MOL0     H66792   2.040   2.496   0.884 -0.6560 -1.0304  0.3765
  485MOL0     O66793   5.121   5.621   6.654 -0.3813  0.8621  0.0822
  485MOL0     C66794   5.196   5.578   6.750 -0.2461 -0.8280  1.1000
  485MOL0     O66795   5.187   5.629   6.881  0.0763  0.4483  0.7471
  485MOL0     C66796   5.077   5.699   6.915  1.1456 -0.1797 -0.3892
  485MOL0     C66797   5.109   5.825   6.965  0.2080 -0.7423  0.3820
  485MOL0     C66798   5.007   5.919   7.015 -0.2801  0.0889  0.2131
  485MOL0     C66799   4.873   5.906   6.980  0.2921 -0.0688  0.1752
  485MOL0     O66800   4.784   6.010   7.014  0.5411  0.5430  0.3258
  485MOL0     C66801   4.678   5.966   7.109 -0.0668 -0.2239  0.2593
  485MOL0     C66802   4.599   6.091   7.158  0.5824  0.4685 -0.9183
  485MOL0     C66803   4.509   6.143   7.052  0.0072  0.7465 -0.0359
  485MOL0     C66804   4.387   6.207   7.112 -0.5111 -0.2860  0.8599
  485MOL0     C66805   4.287   6.276   7.013  0.2617  0.1368 -0.7105
  485MOL0     C66806   4.222   6.178   6.914  0.4577 -0.3065 -0.0282
  485MOL0     C66807   4.110   6.234   6.825  0.2095  0.2519  0.7709
  485MOL0     C66808   3.988   6.288   6.901 -0.9789  1.0167  0.0115
  485MOL0     N66809   3.870   6.304   6.824 -0.1165  0.6790  0.8676
  485MOL0     C66810   3.846   6.432   6.764 -0.7294 -0.8615  1.0048
  485MOL0     C66811   3.772   6.411   6.655  0.0617 -0.0128  1.0044
  485MOL0     C66812   3.727   6.512   6.556 -0.1170  0.0163 -0.7853
  485MOL0     C66813   3.571   6.551   6.591 -0.0990 -0.0396  0.0476
  485MOL0     C66814   3.491   6.605   6.472 -0.1076 -0.1437  0.4796
  485MOL0     C66815   3.334   6.598   6.500 -0.0714  0.0062 -0.3881
  485MOL0     O66816   3.271   6.650   6.387  0.4889 -0.6914 -0.7242
  485MOL0     C66817   3.241   6.574   6.279 -0.0388  0.2960  0.1088
  485MOL0     C66818   3.158   6.640   6.192 -1.2697 -0.2362 -0.6390
  485MOL0     C66819   3.119   6.571   6.081 -0.0368 -0.7271  0.3681
  485MOL0     C66820   3.041   6.657   5.984 -0.5847 -0.8160  0.0523
  485MOL0     C66821   3.161   6.438   6.042 -0.5850 -0.9085 -1.1371
  485MOL0     C66822   3.141   6.382   5.904 -0.4930  0.4366  0.1619
  485MOL0     O66823   3.236   6.299   5.857  0.5781  0.3733 -0.1089
  485MOL0     C66824   3.219   6.225   5.743  0.0912  0.1309 -0.0278
  485MOL0     C66825   3.298   6.107   5.732 -0.2293  0.7330 -0.2569
  485MOL0     C66826   3.308   6.042   5.611  0.9272  0.5857  0.4555
  485MOL0     C66827   3.233   6.078   5.506 -0.2461 -1.5399 -0.2627
  485MOL0     O66828   3.227   6.007   5.393 -0.1013  0.0338  0.5731
  485MOL0     C66829   3.142   5.894   5.386 -0.0552 -0.3493  0.7340
  485MOL0     C66830   3.010   5.936   5.324  0.2981  0.3518 -0.6144
  485MOL0     C66831   2.926   5.813   5.299 -0.1004  1.0220  0.1404
  485MOL0     C66832   2.781   5.854   5.255  0.1597  0.0133 -0.7656
  485MOL0     C66833   2.704   5.729   5.216  0.0905  0.2552  0.2731
  485MOL0     C66834   2.560   5.751   5.176 -0.4913 -0.7732  1.1572
  485MOL0     C66835   2.476   5.866   5.233 -0.3385 -0.5756 -0.0838
  485MOL0     C66836   2.464   5.860   5.380  1.3471  0.6372  0.6557
  485MOL0    Cl66837   2.398   5.702   5.414 -0.1794 -0.2250  0.4289
  485MOL0     C66838   3.153   6.190   5.518 -0.0594 -0.5105  1.1065
  485MOL0     C66839   3.138   6.257   5.638  0.0373 -0.8134 -0.3132
  485MOL0     O66840   3.027   6.401   5.858  1.0574  0.2999  0.2299
  485MOL0     C66841   3.255   6.383   6.125 -0.5789 -0.4482 -0.4742
  485MOL0     C66842   3.292   6.446   6.243  0.8376  0.8037 -0.3267
  485MOL0     N66843   3.753   6.274   6.648  0.4475  0.3742  0.1432
  485MOL0     N66844   3.801   6.216   6.754  0.1557 -0.8452  0.4609
  485MOL0     C66845   4.838   5.781   6.935 -0.7472  0.1849  0.2648
  485MOL0     C66846   4.935   5.677   6.900 -0.3618  0.8574 -0.0335
  485MOL0     C66847   5.305   5.473   6.728  0.3083 -0.1273 -1.4093
  485MOL0     C66848   5.379   5.435   6.843 -0.6752  0.0073  0.5146
  485MOL0     C66849   5.491   5.353   6.829  0.6127  0.1514  0.6431
  485MOL0     C66850   5.535   5.298   6.708 -0.2707  0.2168  0.2775
  485MOL0     O66851   5.652   5.239   6.714  0.0118  0.3299 -0.9230
  485MOL0     C66852   5.696   5.153   6.609 -0.9322 -0.6086  0.3030
  485MOL0     C66853   5.776   5.227   6.497  0.4667 -0.1288 -0.4564
  485MOL0     C66854   5.885   5.321   6.530 -0.0944  0.8957 -0.2461
  485MOL0     C66855   5.919   5.409   6.414 -0.6080  0.3526  0.1664
  485MOL0     C66856   6.010   5.517   6.457  0.6287  0.0503  0.1687
  485MOL0     C66857   6.082   5.587   6.519  0.3366  0.1054 -0.4184
  485MOL0     C66858   5.440   5.327   6.596 -0.6735  1.2624 -1.1455
  485MOL0     C66859   5.321   5.403   6.608  1.0149  0.5996  0.5090
  485MOL0     C66860   5.229   5.413   6.484 -0.8001  0.2427  0.0835
  485MOL0     H66861   5.207   5.871   6.972 -0.1146  0.0492 -0.0665
  485MOL0     H66862   5.048   6.010   7.056 -2.6426  0.4937  1.8948
  485MOL0     H66863   4.734   5.918   7.190 -0.0060  0.2780  0.5194
  485MOL0     H66864   4.623   5.891   7.051  2.6036  0.3983 -3.3660
  485MOL0     H66865   4.548   6.083   7.254  1.1243  0.9279 -0.5861
  485MOL0     H66866   4.683   6.157   7.183  1.9202 -1.8916  1.2379
  485MOL0     H66867   4.563   6.220   6.997  1.9483 -0.5063  0.0288
  485MOL0     H66868   4.477   6.065   6.984  3.8137 -1.7981  0.7839
  485MOL0     H66869   4.334   6.126   7.163 -0.6387 -0.3891  0.5666
  485MOL0     H66870   4.418   6.280   7.187  0.1873 -0.2667  0.5670
  485MOL0     H66871   4.341   6.352   6.955  1.8667  0.3189  0.9208
  485MOL0     H66872   4.213   6.331   7.072  1.0248  1.7888 -1.2035
  485MOL0     H66873   4.301   6.133   6.854 -0.9447  0.9563 -2.9926
  485MOL0     H66874   4.181   6.091   6.966  1.0912 -1.8680 -2.0393
  485MOL0     H66875   4.081   6.146   6.765  1.1192  2.0569 -2.5681
  485MOL0     H66876   4.150   6.314   6.762  1.6863 -1.4133 -0.5239
  485MOL0     H66877   3.956   6.213   6.974  1.4650  1.8146  2.0497
  485MOL0     H66878   4.014   6.378   6.956  2.7228 -1.0399  1.9617
  485MOL0     H66879   3.890   6.523   6.804 -2.9507 -0.1664  2.0028
  485MOL0     H66880   3.730   6.468   6.456 -0.6887  2.0488 -1.7594
  485MOL0     H66881   3.789   6.602   6.566 -1.1949  0.8606 -1.4172
  485MOL0     H66882   3.510   6.464   6.616  0.8040 -0.4502  0.8810
  485MOL0     H66883   3.565   6.622   6.674  0.2141 -0.0955  0.1174
  485MOL0     H66884   3.515   6.709   6.450 -0.3925 -0.2553 -0.3807
  485MOL0     H66885   3.511   6.538   6.388 -1.4304  0.9657 -0.7790
  485MOL0     H66886   3.308   6.493   6.517  0.1579 -0.6972 -3.5560
  485MOL0     H66887   3.319   6.655   6.592  3.0222 -3.7456  2.8124
  485MOL0     H66888   3.137   6.744   6.211  1.8344  0.3539  0.1679
  485MOL0     H66889   3.090   6.666   5.886  0.4774 -1.6555  0.4862
  485MOL0     H66890   3.050   6.764   6.006 -1.5899 -0.1723 -2.3078
  485MOL0     H66891   2.940   6.616   5.986 -0.6751 -0.5902  0.0954
  485MOL0     H66892   3.357   6.065   5.813  2.1128 -0.3190 -2.3698
  485MOL0     H66893   3.373   5.956   5.599  1.0618  0.0154  4.0894
  485MOL0     H66894   3.204   5.828   5.325 -1.1150  1.2347 -2.2462
  485MOL0     H66895   3.120   5.849   5.484  0.2656 -2.4567 -0.1068
  485MOL0     H66896   2.952   6.008   5.383  0.8484  0.3203 -0.0315
  485MOL0     H66897   3.031   5.971   5.223  3.3753 -1.9738 -0.9205
  485MOL0     H66898   2.917   5.740   5.380 -0.6027 -0.3270 -1.0809
  485MOL0     H66899   2.971   5.760   5.214  0.6963  2.3733 -0.2975
  485MOL0     H66900   2.777   5.918   5.166  6.4660 -0.7264 -2.0826
  485MOL0     H66901   2.730   5.904   5.338  0.3601  0.4200 -0.8872
  485MOL0     H66902   2.741   5.678   5.126 -0.2705  0.1997  0.1540
  485MOL0     H66903   2.719   5.646   5.286  2.6176 -1.1228 -1.7336
  485MOL0     H66904   2.509   5.654   5.177 -4.1098  0.7722 -2.4998
  485MOL0     H66905   2.582   5.779   5.072 -1.4031  2.0919  1.6452
  485MOL0     H66906   2.379   5.859   5.183  0.3987 -2.9260 -1.3320
  485MOL0     H66907   2.523   5.962   5.207 -1.5810 -0.1407 -0.8083
  485MOL0     H66908   2.394   5.936   5.415 -1.4216 -1.7250  0.6214
  485MOL0     H66909   2.555   5.861   5.440  2.2428  1.4212 -0.6405
  485MOL0     H66910   3.102   6.225   5.429  1.6428  0.5980  0.5042
  485MOL0     H66911   3.080   6.349   5.640  2.2078  0.6530 -1.1541
  485MOL0     H66912   3.296   6.287   6.097  1.6972  0.1293  0.6996
  485MOL0     H66913   3.359   6.389   6.306 -3.7601 -2.3483  2.3197
  485MOL0     H66914   4.736   5.746   6.935 -0.1391 -1.6716 -0.4332
  485MOL0     H66915   4.921   5.573   6.872  2.7587 -0.9018  3.9891
  485MOL0     H66916   5.356   5.481   6.939 -0.4651  2.1778 -0.4059
  485MOL0     H66917   5.554   5.330   6.914  0.7317  1.3121  0.8831
  485MOL0     H66918   5.770   5.086   6.653 -0.6636 -1.2315 -1.0620
  485MOL0     H66919   5.616   5.084   6.579  0.7779 -3.1998  1.3895
  485MOL0     H66920   5.694   5.279   6.446 -0.8913 -1.4782  0.2646
  485MOL0     H66921   5.830   5.156   6.433  0.6224  2.3066 -3.2699
  485MOL0     H66922   5.851   5.392   6.607 -1.3818 -0.9779  0.9948
  485MOL0     H66923   5.977   5.275   6.568  0.7544  2.4497 -0.3195
  485MOL0     H66924   5.821   5.450   6.391 -0.1683  0.7727 -1.0168
  485MOL0     H66925   5.957   5.355   6.327 -2.4110  0.3796 -0.6701
  485MOL0     H66926   6.117   5.660   6.590  2.0059 -1.4366  0.4334
  485MOL0     H66927   5.464   5.293   6.496 -0.8541  4.6778 -2.4817
  485MOL0     H66928   5.130   5.385   6.519  0.6273 -2.9449  1.9642
  485MOL0     H66929   5.238   5.517   6.452  0.5405  0.0894 -0.1095
  485MOL0     H66930   5.256   5.348   6.400  0.1878  1.7088 -0.7920
  486MOL0     O66931   3.588   5.711   1.609  0.3646  0.7573 -0.4239
  486MOL0     C66932   3.703   5.673   1.606 -0.2865  0.2105  0.0037
  486MOL0     O66933   3.793   5.693   1.706 -0.4147 -0.0322 -0.5856
  486MOL0     C66934   3.754   5.770   1.813 -0.1659 -0.2808 -0.1454
  486MOL0     C66935   3.660   5.881   1.799 -0.2712  0.5999 -0.3241
  486MOL0     C66936   3.613   5.957   1.905 -1.1007 -1.1104 -0.5719
  486MOL0     C66937   3.646   5.933   2.038 -0.7870  0.6216  0.0062
  486MOL0     O66938   3.598   6.001   2.146 -0.4651 -0.4261  0.2461
  486MOL0     C66939   3.641   6.125   2.178 -0.1414 -0.2724  0.1048
  486MOL0     C66940   3.544   6.236   2.125 -0.1606  0.7179  1.1579
  486MOL0     C66941   3.399   6.221   2.168  0.2082  0.0105  0.3068
  486MOL0     C66942   3.388   6.303   2.296 -0.1866  1.0050  1.0548
  486MOL0     C66943   3.254   6.269   2.358 -0.7417  0.3061 -0.0573
  486MOL0     C66944   3.200   6.133   2.330 -0.2418 -0.4533  0.5666
  486MOL0     C66945   3.076   6.091   2.424  0.3253 -0.6592  0.0023
  486MOL0     C66946   3.014   5.960   2.357  0.0929  0.2086  0.1201
  486MOL0     N66947   2.878   5.915   2.413 -0.2878 -0.4118 -0.0773
  486MOL0     C66948   2.806   5.812   2.360 -0.6455  0.2178  0.4311
  486MOL0     C66949   2.695   5.796   2.432 -0.1944  0.5748  0.1585
  486MOL0     C66950   2.604   5.673   2.410 -0.3615  0.3192  0.0481
  486MOL0     C66951   2.699   5.547   2.419  0.3330  0.1197 -0.0127
  486MOL0     C66952   2.614   5.423   2.393  0.1257  0.1081  0.5144
  486MOL0     C66953   2.702   5.295   2.402  0.4350 -0.6993 -0.5759
  486MOL0     O66954   2.624   5.175   2.399 -0.0740  0.4495  0.2659
  486MOL0     C66955   2.583   5.108   2.282 -0.6829 -0.2228 -0.8232
  486MOL0     C66956   2.505   4.992   2.275 -0.1115 -0.3967 -0.4137
  486MOL0     C66957   2.458   4.933   2.161 -0.1001  0.2468  0.8364
  486MOL0     C66958   2.358   4.830   2.175 -0.6658 -0.2284 -0.3946
  486MOL0     C66959   2.492   4.989   2.035 -0.1392  0.9143  0.2534
  486MOL0     C66960   2.445   4.930   1.914 -0.2809  0.6060  0.4661
  486MOL0     O66961   2.388   5.008   1.820  0.0045  0.3378 -0.7422
  486MOL0     C66962   2.375   4.957   1.697 -0.1869 -0.3768  0.9318
  486MOL0     C66963   2.483   4.907   1.614  0.0861 -0.5789 -0.4341
  486MOL0     C66964   2.460   4.872   1.475 -0.6876  0.0477  0.4564
  486MOL0     C66965   2.327   4.867   1.430 -0.5048  0.0582  0.1802
  486MOL0     O66966   2.306   4.846   1.295  0.3715  1.0335  1.0889
  486MOL0     C66967   2.169   4.849   1.249 -0.3588  0.2685  0.3186
  486MOL0     C66968   2.129   4.994   1.236 -0.4553 -0.2907 -0.2639
  486MOL0     C66969   1.987   5.030   1.203 -0.5378  0.6492 -1.0259
  486MOL0     C66970   1.984   5.166   1.142  0.7475 -0.0450 -0.5962
  486MOL0     C66971   1.997   5.281   1.249  0.5760 -0.1268  0.3098
  486MOL0     C66972   1.981   5.424   1.199  1.0818 -0.2490 -0.2278
  486MOL0     C66973   1.962   5.516   1.323  0.1858 -0.7463 -0.0288
  486MOL0     C66974   1.977   5.669   1.267 -0.2151 -0.0849 -0.6672
  486MOL0    Cl66975   2.144   5.708   1.221  0.0041 -0.4471  0.1128
  486MOL0     C66976   2.223   4.887   1.514 -0.3339  1.3110 -0.6675
  486MOL0     C66977   2.251   4.938   1.639 -0.0473  0.0220 -0.6435
  486MOL0     O66978   2.451   4.807   1.901 -0.2099 -1.1300  0.9745
  486MOL0     C66979   2.595   5.083   2.034 -0.4934 -1.2040 -0.0451
  486MOL0     C66980   2.630   5.146   2.150  0.0967  0.3401 -0.5815
  486MOL0     N66981   2.699   5.888   2.533  0.6362 -0.6811  0.1222
  486MOL0     N66982   2.806   5.957   2.523 -0.1662  0.1820  0.4033
  486MOL0     C66983   3.742   5.823   2.050  0.2104 -1.3525  0.5564
  486MOL0     C66984   3.788   5.740   1.944  0.0504 -0.1242  0.2613
  486MOL0     C66985   3.744   5.598   1.483 -0.0201 -0.5731  0.2873
  486MOL0     C66986   3.879   5.559   1.471  0.1358  0.0491 -0.3351
  486MOL0     C66987   3.931   5.488   1.359  0.2118  0.0759 -0.5391
  486MOL0     C66988   3.848   5.457   1.249 -0.0601 -0.4962  0.2456
  486MOL0     O66989   3.889   5.393   1.135 -0.3866 -0.0302 -0.3021
  486MOL0     C66990   4.029   5.363   1.121 -0.3230 -0.2272 -0.1303
  486MOL0     C66991   4.042   5.309   0.974  1.3617  1.0352 -0.8529
  486MOL0     C66992   4.181   5.261   0.960  0.1922 -0.1852  0.1341
  486MOL0     C66993   4.215   5.184   0.829 -0.0149  0.0077 -0.5491
  486MOL0     C66994   4.137   5.057   0.839 -1.3832  0.0150 -0.4570
  486MOL0     C66995   4.091   4.948   0.850 -0.2871 -1.0952  0.8636
  486MOL0     C66996   3.711   5.493   1.257 -0.8062  0.3855  0.1624
  486MOL0     C66997   3.659   5.562   1.369 -0.7716  0.1051  0.7221
  486MOL0     C66998   3.517   5.613   1.356  0.3678 -0.8887 -0.1390
  486MOL0     H66999   3.627   5.917   1.702  3.4719  2.9651 -0.9138
  486MOL0     H67000   3.552   6.044   1.886 -1.9124 -1.1489  1.5920
  486MOL0     H67001   3.747   6.135   2.151  0.5522  1.4219  3.0252
  486MOL0     H67002   3.641   6.121   2.288 -3.0248 -4.5182  0.1747
  486MOL0     H67003   3.584   6.335   2.150 -0.2944  0.3157  3.1336
  486MOL0     H67004   3.554   6.232   2.016  1.8043  2.2352  1.2177
  486MOL0     H67005   3.321   6.258   2.101 -0.1242  2.2935  1.8288
  486MOL0     H67006   3.385   6.113   2.172  1.2626 -0.1312  0.5781
  486MOL0     H67007   3.472   6.262   2.354  1.5129  1.1063 -1.2173
  486MOL0     H67008   3.408   6.410   2.284 -1.5744  0.9799 -2.3544
  486MOL0     H67009   3.190   6.352   2.325  1.1620  1.0660 -2.1223
  486MOL0     H67010   3.271   6.285   2.465  1.8547  2.4727 -0.6901
  486MOL0     H67011   3.177   6.140   2.223  1.5367  3.4858  0.2918
  486MOL0     H67012   3.276   6.060   2.357 -1.3427 -1.9783 -0.3129
  486MOL0     H67013   3.006   6.173   2.440  0.3904 -0.4544 -0.7237
  486MOL0     H67014   3.119   6.059   2.519  1.7864 -4.0601 -1.6295
  486MOL0     H67015   2.990   5.998   2.257  0.5281  6.6343  2.0758
  486MOL0     H67016   3.094   5.886   2.345  1.7761  2.0430 -0.5905
  486MOL0     H67017   2.830   5.762   2.267  1.5781  0.7553  0.6633
  486MOL0     H67018   2.549   5.678   2.316  0.7405 -4.5895 -1.1218
  486MOL0     H67019   2.523   5.665   2.483 -1.1126 -1.9540 -0.9684
  486MOL0     H67020   2.785   5.540   2.352 -0.6856  1.0360 -1.4748
  486MOL0     H67021   2.735   5.538   2.522 -2.1782 -1.3749  0.8278
  486MOL0     H67022   2.526   5.419   2.458  0.4831  0.8232  1.0535
  486MOL0     H67023   2.564   5.430   2.296  1.1443  2.4996  0.0937
  486MOL0     H67024   2.778   5.296   2.324  3.5241  1.8922  2.1201
  486MOL0     H67025   2.767   5.305   2.490 -0.3123 -4.0940  0.5152
  486MOL0     H67026   2.484   4.944   2.370 -1.4022  0.1409 -0.4083
  486MOL0     H67027   2.332   4.810   2.279  2.1089  0.0957  0.4394
  486MOL0     H67028   2.404   4.744   2.126  2.9076  1.4125 -0.2527
  486MOL0     H67029   2.267   4.862   2.123 -0.3895 -1.3365 -1.6283
  486MOL0     H67030   2.585   4.912   1.651 -0.5125  1.7366  1.0985
  486MOL0     H67031   2.538   4.859   1.401 -1.4471 -0.8432 -0.2086
  486MOL0     H67032   2.163   4.807   1.148 -1.5440  0.8416  0.1358
  486MOL0     H67033   2.104   4.786   1.312  3.5657 -2.3913  2.1564
  486MOL0     H67034   2.157   5.036   1.333 -2.6571 -1.6134  1.0155
  486MOL0     H67035   2.189   5.047   1.160  1.1134 -0.6899  0.6602
  486MOL0     H67036   1.925   5.031   1.293 -3.0392 -0.2419 -2.6184
  486MOL0     H67037   1.950   4.969   1.120  0.4443 -0.3563 -0.7486
  486MOL0     H67038   1.882   5.174   1.105  0.7253  1.8188 -0.2210
  486MOL0     H67039   2.063   5.194   1.072 -1.0194  2.2146 -1.8354
  486MOL0     H67040   1.931   5.265   1.335  2.1261 -1.8773  1.2482
  486MOL0     H67041   2.098   5.267   1.288  2.1461  1.1720 -2.9169
  486MOL0     H67042   1.903   5.437   1.124 -0.2701 -0.2897  1.1126
  486MOL0     H67043   2.074   5.450   1.147  0.4188  3.9555  0.3466
  486MOL0     H67044   2.041   5.509   1.399 -2.3472 -1.2492  2.7183
  486MOL0     H67045   1.865   5.510   1.372 -1.0982  2.2077 -1.9281
  486MOL0     H67046   1.944   5.740   1.343 -0.0527  0.6396 -1.2716
  486MOL0     H67047   1.917   5.672   1.176 -0.1176 -1.5021 -0.8129
  486MOL0     H67048   2.120   4.875   1.483 -0.0004 -1.3460 -0.9448
  486MOL0     H67049   2.173   4.969   1.708  0.3307 -1.4982  0.5356
  486MOL0     H67050   2.632   5.103   1.934  1.4736  2.7840  1.3147
  486MOL0     H67051   2.703   5.226   2.142 -1.1831  1.5622 -0.4212
  486MOL0     H67052   3.771   5.810   2.154 -0.3038  1.3032  1.0965
  486MOL0     H67053   3.864   5.664   1.958 -1.4364 -2.1012 -1.6481
  486MOL0     H67054   3.948   5.593   1.548  0.0655  1.7713 -0.9900
  486MOL0     H67055   4.037   5.468   1.368 -0.4653 -3.6752  5.9675
  486MOL0     H67056   4.083   5.458   1.125 -0.3013 -0.2110 -0.7187
  486MOL0     H67057   4.064   5.278   1.179 -0.3734  1.3920  2.4188
  486MOL0     H67058   4.006   5.390   0.909  0.2178  1.1119 -0.1483
  486MOL0     H67059   3.964   5.233   0.973  1.9600  0.4120 -1.0604
  486MOL0     H67060   4.246   5.346   0.979  1.1278 -0.7953 -0.2296
  486MOL0     H67061   4.204   5.196   1.045 -0.1697  2.7685  2.6565
  486MOL0     H67062   4.323   5.165   0.830 -0.5150 -3.6436  1.6329
  486MOL0     H67063   4.189   5.240   0.739  1.4213  2.2254  0.3047
  486MOL0     H67064   4.044   4.851   0.852 -0.5629 -1.1447 -2.4339
  486MOL0     H67065   3.661   5.479   1.162  2.8311 -2.3172 -1.5950
  486MOL0     H67066   3.498   5.616   1.249 -0.9874  1.3526  0.1173
  486MOL0     H67067   3.450   5.545   1.410 -0.6652  0.6822  0.6025
  486MOL0     H67068   3.504   5.715   1.393  1.4449 -0.7994  0.0469
  487MOL0     O67069   5.911   5.867  10.966  0.4638 -0.2380 -0.7106
  487MOL0     C67070   5.968   5.950  10.899 -0.3346 -0.2775  0.0193
  487MOL0     O67071   6.064   6.041  10.938  0.3930 -0.0721  0.3923
  487MOL0     C67072   6.117   6.036  11.063 -0.0755 -1.0351  0.0629
  487MOL0     C67073   6.222   6.134  11.071  0.4259 -0.9150  0.5286
  487MOL0     C67074   6.297   6.143  11.196 -0.1020  0.3272 -0.2321
  487MOL0     C67075   6.264   6.060  11.303  0.8038  0.5345 -0.1689
  487MOL0     O67076   6.330   6.090  11.420  0.5548 -0.0638  0.9484
  487MOL0     C67077   6.293   6.055  11.549  0.0959  0.1511 -0.0277
  487MOL0     C67078   6.343   5.917  11.599  0.3674  1.5559  0.0936
  487MOL0     C67079   6.493   5.905  11.625 -0.3120 -0.0168 -0.1947
  487MOL0     C67080   6.528   5.766  11.664 -1.3073 -0.0819  0.3798
  487MOL0     C67081   6.697   5.749  11.655  0.1403 -0.1294  0.4828
  487MOL0     C67082   6.742   5.599  11.654  0.3323  0.3124 -0.5020
  487MOL0     C67083   6.891   5.562  11.666 -0.1950 -0.6913 -0.5191
  487MOL0     C67084   6.922   5.429  11.602 -0.2863  0.1963  0.3538
  487MOL0     N67085   6.871   5.320  11.677 -0.0189  0.1979  0.1392
  487MOL0     C67086   6.848   5.304  11.809  0.1864 -0.3257 -0.4760
  487MOL0     C67087   6.835   5.168  11.834  0.9559 -0.5846 -0.1709
  487MOL0     C67088   6.811   5.093  11.962  0.3186  0.4590  0.2845
  487MOL0     C67089   6.664   5.046  11.949  0.2354  0.0114 -0.0917
  487MOL0     C67090   6.555   5.150  11.942  0.8675 -0.6048  0.1178
  487MOL0     C67091   6.510   5.158  11.790 -0.3226 -0.0985  0.1958
  487MOL0     O67092   6.414   5.266  11.766 -0.3433 -0.2699 -0.0704
  487MOL0     C67093   6.288   5.244  11.742  0.6551 -0.7419 -0.0718
  487MOL0     C67094   6.218   5.126  11.775 -0.7483 -0.2616  0.3661
  487MOL0     C67095   6.076   5.117  11.772  0.2494 -0.6911 -0.5961
  487MOL0     C67096   6.014   4.998  11.836  1.2702 -0.4400  0.0481
  487MOL0     C67097   6.005   5.230  11.729  0.5507  0.1195  0.3887
  487MOL0     C67098   5.859   5.224  11.703 -0.2449  0.1013  0.5355
  487MOL0     O67099   5.820   5.321  11.609 -0.0592 -0.4227 -0.3187
  487MOL0     C67100   5.697   5.318  11.551  0.0817  0.2900 -0.0807
  487MOL0     C67101   5.574   5.305  11.624  0.0840 -0.5734  0.4587
  487MOL0     C67102   5.456   5.301  11.546 -0.3453  0.9703  0.0327
  487MOL0     C67103   5.455   5.286  11.400  0.3606  0.2006 -0.1112
  487MOL0     O67104   5.339   5.284  11.324  0.4231 -0.0098 -0.4484
  487MOL0     C67105   5.331   5.205  11.209  0.0322  0.6816 -0.8190
  487MOL0     C67106   5.272   5.270  11.094  0.5073 -0.3968 -0.1758
  487MOL0     C67107   5.278   5.173  10.968 -0.7154  0.3017 -0.6285
  487MOL0     C67108   5.201   5.040  10.971 -0.4112 -0.4526 -0.0982
  487MOL0     C67109   5.235   4.952  10.847 -0.0975 -0.6072  0.4035
  487MOL0     C67110   5.382   4.897  10.833 -0.3431 -0.1764  0.5343
  487MOL0     C67111   5.429   4.794  10.939  0.0878 -0.5436  0.3807
  487MOL0     C67112   5.575   4.766  10.914  0.8422 -0.5102  1.1528
  487MOL0    Cl67113   5.648   4.656  11.031  0.3423 -0.1059  0.0463
  487MOL0     C67114   5.580   5.291  11.342  0.3890 -0.3968  0.6124
  487MOL0     C67115   5.699   5.321  11.412 -0.7159  0.7753  0.7857
  487MOL0     O67116   5.781   5.141  11.750 -0.6182  0.3264 -0.4700
  487MOL0     C67117   6.081   5.338  11.673 -0.2490  1.4707  0.5214
  487MOL0     C67118   6.218   5.353  11.682  0.2594  0.3059 -0.6511
  487MOL0     N67119   6.863   5.107  11.716  0.0343 -0.3148  0.4210
  487MOL0     N67120   6.881   5.199  11.621 -0.1600 -0.6469  0.2666
  487MOL0     C67121   6.156   5.972  11.289 -0.1628  0.2700  1.1643
  487MOL0     C67122   6.081   5.955  11.169  0.2422  0.2474 -0.2096
  487MOL0     C67123   5.931   5.978  10.759  0.4283 -0.1218  0.8955
  487MOL0     C67124   5.794   5.979  10.735 -0.0069 -0.6924 -0.1525
  487MOL0     C67125   5.743   5.996  10.609 -0.8261  0.5975  0.9317
  487MOL0     C67126   5.823   6.042  10.498 -0.1445  0.8937 -0.0550
  487MOL0     O67127   5.746   6.052  10.381 -0.3109 -0.2358  0.3932
  487MOL0     C67128   5.834   6.072  10.269 -0.3932  0.0002  0.2924
  487MOL0     C67129   5.744   6.130  10.162  0.5511 -0.4630  0.5192
  487MOL0     C67130   5.818   6.179  10.027 -0.0165  0.2168 -0.2879
  487MOL0     C67131   5.750   6.309   9.966 -0.2315  0.2733  0.3100
  487MOL0     C67132   5.811   6.435  10.023 -0.0807  0.2112 -0.2137
  487MOL0     C67133   5.886   6.527  10.050  0.0110  0.2020  0.6382
  487MOL0     C67134   5.965   6.028  10.519 -0.8074 -0.1339 -0.3872
  487MOL0     C67135   6.016   6.002  10.648  0.7130  0.0068 -0.1339
  487MOL0     C67136   6.166   5.981  10.664  0.5726 -0.1746 -0.4387
  487MOL0     H67137   6.247   6.199  10.989  1.6028 -0.8040  0.9656
  487MOL0     H67138   6.377   6.214  11.213 -0.6641  0.3153  3.1417
  487MOL0     H67139   6.185   6.062  11.563 -0.3845 -0.1906 -3.0010
  487MOL0     H67140   6.344   6.130  11.611  1.0288  0.5738 -1.2587
  487MOL0     H67141   6.288   5.881  11.687 -0.4590  0.7176 -0.7450
  487MOL0     H67142   6.332   5.845  11.518  1.7619 -1.4613  2.3694
  487MOL0     H67143   6.544   5.926  11.531 -1.5733  1.1689 -0.6390
  487MOL0     H67144   6.533   5.981  11.693  1.3688 -0.1054 -1.0233
  487MOL0     H67145   6.493   5.751  11.767  0.8667 -3.3898  0.8030
  487MOL0     H67146   6.480   5.686  11.607 -2.0732  0.0530  0.8131
  487MOL0     H67147   6.743   5.800  11.741 -0.1933  0.4162  0.3451
  487MOL0     H67148   6.751   5.803  11.577 -0.1415 -1.8752 -0.9759
  487MOL0     H67149   6.691   5.562  11.743  0.8743  0.7453 -0.0093
  487MOL0     H67150   6.701   5.551  11.564  1.5645 -2.8869  0.4909
  487MOL0     H67151   6.923   5.560  11.770  3.3899  0.5527 -1.4587
  487MOL0     H67152   6.932   5.648  11.612  0.1851  0.3379  1.3265
  487MOL0     H67153   6.880   5.416  11.502 -3.3471 -1.4594  1.7168
  487MOL0     H67154   7.031   5.413  11.603 -0.7849 -5.6427  3.2965
  487MOL0     H67155   6.849   5.391  11.874 -3.8649 -0.0635 -0.5159
  487MOL0     H67156   6.812   5.163  12.045  3.6403  4.3291 -2.5958
  487MOL0     H67157   6.879   5.007  11.957 -2.2300 -1.6594 -1.4068
  487MOL0     H67158   6.653   4.975  11.866 -0.4483  0.6276 -0.5409
  487MOL0     H67159   6.646   4.982  12.036 -0.6302 -0.0554 -0.3083
  487MOL0     H67160   6.467   5.137  12.005  0.3634 -0.7928 -0.6097
  487MOL0     H67161   6.585   5.251  11.970 -4.9406  1.1893  1.2908
  487MOL0     H67162   6.601   5.181  11.735 -0.1265  0.2512  0.6601
  487MOL0     H67163   6.475   5.059  11.759  0.6050 -0.0996 -0.9132
  487MOL0     H67164   6.279   5.048  11.819  2.0643  1.6177  0.0164
  487MOL0     H67165   5.912   5.004  11.874  2.4326  0.0115  3.4686
  487MOL0     H67166   6.066   4.957  11.924  1.6819  3.1097  1.6341
  487MOL0     H67167   6.012   4.926  11.754 -1.0730  1.9127 -2.1588
  487MOL0     H67168   5.575   5.321  11.731 -0.5158 -0.0575  0.3893
  487MOL0     H67169   5.357   5.304  11.590 -0.0900  1.7466  0.5614
  487MOL0     H67170   5.427   5.176  11.166 -0.1102  4.7579 -4.6068
  487MOL0     H67171   5.269   5.119  11.235 -0.7982  1.8892  1.4802
  487MOL0     H67172   5.164   5.286  11.109  0.8679  0.0994  2.1709
  487MOL0     H67173   5.331   5.358  11.068 -1.0619  0.6767 -0.2288
  487MOL0     H67174   5.384   5.149  10.955 -0.8942  0.2749 -2.1214
  487MOL0     H67175   5.242   5.236  10.887 -2.1376  0.0320 -0.2310
  487MOL0     H67176   5.096   5.072  10.961  0.4184  2.0491 -1.6925
  487MOL0     H67177   5.216   4.990  11.067 -3.8040 -1.4925  0.0250
  487MOL0     H67178   5.161   4.872  10.838 -2.5389  1.6547 -1.8618
  487MOL0     H67179   5.207   5.015  10.761 -0.1535  1.0928  1.6197
  487MOL0     H67180   5.448   4.984  10.825 -1.5337  0.7305  0.3191
  487MOL0     H67181   5.385   4.851  10.734 -1.5707 -0.1559  0.4710
  487MOL0     H67182   5.382   4.697  10.920  2.2572 -1.6070  0.1445
  487MOL0     H67183   5.401   4.832  11.037  0.0323 -1.5499  0.7744
  487MOL0     H67184   5.620   4.866  10.912  1.4219 -0.7780  0.4437
  487MOL0     H67185   5.591   4.725  10.815  0.4814 -3.1912  2.1350
  487MOL0     H67186   5.592   5.286  11.234 -4.2094  3.3119 -0.4126
  487MOL0     H67187   5.791   5.312  11.356  0.6250  1.6073  2.7446
  487MOL0     H67188   6.035   5.429  11.635 -1.1090  0.4194 -1.0407
  487MOL0     H67189   6.274   5.445  11.667  1.0041  0.2439  1.4928
  487MOL0     H67190   6.121   5.919  11.377 -0.3649  0.8116  1.4109
  487MOL0     H67191   6.019   5.866  11.174  2.2576 -1.1846  2.1928
  487MOL0     H67192   5.727   5.955  10.817 -0.0392 -0.3975 -0.0931
  487MOL0     H67193   5.636   5.978  10.606 -0.5277 -1.5608 -2.5549
  487MOL0     H67194   5.911   6.149  10.286 -0.0313 -0.3994  0.4801
  487MOL0     H67195   5.866   5.980  10.219 -0.1481 -0.1668  0.7446
  487MOL0     H67196   5.703   6.224  10.200  0.1955  0.8139 -2.6965
  487MOL0     H67197   5.661   6.060  10.147 -0.2075  0.4118  0.5167
  487MOL0     H67198   5.923   6.202  10.047  0.3694 -0.0340 -1.8740
  487MOL0     H67199   5.817   6.098   9.954 -2.3665  0.0035 -0.0810
  487MOL0     H67200   5.644   6.303   9.992 -0.4671  2.3044 -0.0749
  487MOL0     H67201   5.755   6.315   9.857  1.2225  1.2574  0.4096
  487MOL0     H67202   5.954   6.610  10.051  1.2354 -0.7605  0.0103
  487MOL0     H67203   6.041   6.049  10.444  0.3356 -2.1163  0.1526
  487MOL0     H67204   6.176   5.895  10.733 -0.6336 -1.7619 -2.1435
  487MOL0     H67205   6.207   5.946  10.569  4.3002  1.0054  0.5628
  487MOL0     H67206   6.228   6.068  10.686  2.0635 -0.8459 -1.7274
  488MOL0     O67207   1.713   3.950   7.008  0.5563 -1.1885 -0.4400
  488MOL0     C67208   1.818   4.006   7.024 -0.0922  0.0983  1.9594
  488MOL0     O67209   1.945   3.955   6.991  0.2876 -0.0357  1.0820
  488MOL0     C67210   1.962   3.828   6.956  0.0483 -0.1752 -0.0716
  488MOL0     C67211   1.924   3.786   6.833  0.1873 -0.6332  0.1703
  488MOL0     C67212   1.952   3.658   6.795 -0.5849  0.3298 -0.7047
  488MOL0     C67213   2.000   3.559   6.881 -0.2320  0.3597 -0.6476
  488MOL0     O67214   2.006   3.427   6.843  0.2367 -0.5284 -0.2999
  488MOL0     C67215   2.029   3.325   6.943  0.8418 -0.3011 -0.4317
  488MOL0     C67216   2.180   3.295   6.969  0.1380  0.9761  0.5822
  488MOL0     C67217   2.228   3.165   6.895  0.1695  0.3739  0.5242
  488MOL0     C67218   2.378   3.146   6.909 -0.0169  0.5624 -0.8886
  488MOL0     C67219   2.438   3.005   6.901  0.8439  0.2077 -0.5529
  488MOL0     C67220   2.433   2.922   7.020 -0.0940  0.2208  0.3939
  488MOL0     C67221   2.440   2.773   7.005 -0.0059  0.4530 -1.0742
  488MOL0     C67222   2.432   2.708   7.140 -1.4648 -0.9540 -0.1081
  488MOL0     N67223   2.470   2.560   7.134  0.7244  0.4624 -0.2074
  488MOL0     C67224   2.598   2.520   7.102  0.7071  0.2429  0.0017
  488MOL0     C67225   2.578   2.391   7.056  0.1085 -0.0835 -0.4144
  488MOL0     C67226   2.680   2.305   7.008 -0.4506 -0.1168  0.1893
  488MOL0     C67227   2.781   2.355   6.907  0.4566 -0.1035  1.1499
  488MOL0     C67228   2.864   2.241   6.866  0.0133 -0.4225 -0.6146
  488MOL0     C67229   2.952   2.267   6.748  0.5665 -0.4404  0.2211
  488MOL0     O67230   2.875   2.271   6.629 -0.7333  0.2349  0.2165
  488MOL0     C67231   2.935   2.261   6.511 -1.4555 -0.0061 -0.9552
  488MOL0     C67232   2.863   2.230   6.397  0.6610 -0.3973 -0.8203
  488MOL0     C67233   2.904   2.241   6.264 -0.4869  0.5725 -0.6238
  488MOL0     C67234   2.805   2.202   6.155  0.2454 -0.4090  0.4888
  488MOL0     C67235   3.035   2.290   6.245  0.1495  0.8016  0.8534
  488MOL0     C67236   3.089   2.328   6.108 -0.1594  0.6366 -0.6230
  488MOL0     O67237   3.005   2.353   6.009 -0.6859  0.8811  0.4670
  488MOL0     C67238   3.041   2.388   5.881  0.0156 -0.5462 -0.0264
  488MOL0     C67239   3.107   2.285   5.810 -0.6072  0.8048 -0.4445
  488MOL0     C67240   3.141   2.305   5.679 -0.3659 -0.5774  0.0056
  488MOL0     C67241   3.128   2.430   5.618 -0.3762  0.2416 -0.5055
  488MOL0     O67242   3.141   2.447   5.486 -0.5392 -0.0042 -0.1991
  488MOL0     C67243   3.041   2.382   5.402  0.3145  0.1171 -0.6677
  488MOL0     C67244   2.899   2.440   5.425  1.5857 -0.4551 -0.2454
  488MOL0     C67245   2.893   2.581   5.394 -0.5495  0.1824  0.3585
  488MOL0     C67246   2.769   2.661   5.443  0.5935 -0.3097 -0.0591
  488MOL0     C67247   2.725   2.638   5.587 -0.2469 -0.1853 -0.5253
  488MOL0     C67248   2.602   2.724   5.612 -0.7197 -0.7072 -1.2907
  488MOL0     C67249   2.528   2.689   5.743 -0.7915  0.2591 -0.5344
  488MOL0     C67250   2.585   2.744   5.878  0.1567  0.4804 -0.2287
  488MOL0    Cl67251   2.472   2.725   5.997  0.2539 -0.0154 -0.1014
  488MOL0     C67252   3.061   2.529   5.701 -1.1151 -0.5283  0.7916
  488MOL0     C67253   3.013   2.507   5.820  0.0883  0.6553  0.1825
  488MOL0     O67254   3.208   2.337   6.103  0.4528  0.2738  0.3770
  488MOL0     C67255   3.114   2.323   6.359  0.4823 -0.4214 -0.9061
  488MOL0     C67256   3.061   2.307   6.486 -0.9917  0.6815 -0.3065
  488MOL0     N67257   2.439   2.366   7.060  0.3826 -0.0769  0.6944
  488MOL0     N67258   2.380   2.468   7.110  0.2553 -0.1222 -0.6658
  488MOL0     C67259   2.024   3.604   7.018  0.0235  0.8398  0.3304
  488MOL0     C67260   2.015   3.741   7.055 -0.7641  0.1270  0.3933
  488MOL0     C67261   1.799   4.139   7.081 -0.3366 -0.5027  0.2648
  488MOL0     C67262   1.901   4.180   7.165  0.8728  0.1317 -0.6446
  488MOL0     C67263   1.893   4.313   7.212 -0.6310  0.4503  0.4602
  488MOL0     C67264   1.806   4.411   7.177  0.5502 -0.7058  0.1543
  488MOL0     O67265   1.817   4.544   7.234 -0.1025  0.1708  0.5119
  488MOL0     C67266   1.713   4.635   7.190 -0.2121 -0.1728  0.2097
  488MOL0     C67267   1.759   4.760   7.257 -0.7981 -0.0446 -1.0893
  488MOL0     C67268   1.679   4.890   7.209 -0.7074 -0.2317 -0.2767
  488MOL0     C67269   1.730   5.013   7.283 -0.6544  0.7627 -0.2780
  488MOL0     C67270   1.687   5.006   7.419  1.2584  0.9383 -1.3508
  488MOL0     C67271   1.650   5.022   7.537  0.2472 -0.0758  0.0380
  488MOL0     C67272   1.707   4.362   7.089  0.7235 -0.2815  0.5743
  488MOL0     C67273   1.700   4.231   7.043  0.6791  0.7129  1.1479
  488MOL0     C67274   1.569   4.198   6.964  0.1957 -0.4631  0.2559
  488MOL0     H67275   1.896   3.853   6.752  3.2111  0.2581 -0.2823
  488MOL0     H67276   1.927   3.629   6.694 -1.4165 -1.6333  0.0089
  488MOL0     H67277   1.988   3.225   6.923  2.6215 -1.9711  3.2882
  488MOL0     H67278   1.964   3.355   7.026 -1.7901 -1.2707 -2.0220
  488MOL0     H67279   2.239   3.384   6.946 -1.8691  1.5510 -3.2392
  488MOL0     H67280   2.193   3.279   7.076 -1.0284  1.2456  0.7824
  488MOL0     H67281   2.177   3.078   6.937 -2.1182  2.1496  1.6200
  488MOL0     H67282   2.224   3.171   6.786  1.8509  4.1481  0.5103
  488MOL0     H67283   2.436   3.215   6.848  0.7588 -0.6794 -1.5951
  488MOL0     H67284   2.400   3.188   7.008  0.7171  0.0205 -0.8115
  488MOL0     H67285   2.541   3.017   6.867  1.2601  1.2929  0.9897
  488MOL0     H67286   2.381   2.951   6.824 -1.1739 -0.2797  1.1998
  488MOL0     H67287   2.524   2.956   7.070  0.7919  0.1703 -1.1226
  488MOL0     H67288   2.340   2.951   7.071  0.4079  0.5522  1.1310
  488MOL0     H67289   2.536   2.760   6.953  0.5248  1.2020 -0.3011
  488MOL0     H67290   2.361   2.730   6.942 -0.3690  0.5543 -0.6921
  488MOL0     H67291   2.498   2.778   7.192 -0.8321  0.4489 -2.6117
  488MOL0     H67292   2.334   2.707   7.189  0.5254 -4.7231  4.7031
  488MOL0     H67293   2.688   2.581   7.097  1.1439 -0.4640 -2.0581
  488MOL0     H67294   2.630   2.224   6.953 -1.4543  0.1141  0.7426
  488MOL0     H67295   2.729   2.260   7.094 -0.7546  0.9303  0.9330
  488MOL0     H67296   2.721   2.397   6.825 -0.2876 -3.0455  0.0876
  488MOL0     H67297   2.841   2.439   6.943  0.6360  0.4690 -0.3958
  488MOL0     H67298   2.942   2.225   6.941  2.2572 -0.4738 -2.8231
  488MOL0     H67299   2.810   2.147   6.850 -1.9621  0.2660  1.5178
  488MOL0     H67300   3.021   2.352   6.743 -1.4883  1.2194 -2.5743
  488MOL0     H67301   3.011   2.175   6.759  0.1376 -0.4185  5.3773
  488MOL0     H67302   2.760   2.200   6.412  1.3803 -4.5388 -2.5624
  488MOL0     H67303   2.859   2.140   6.083  2.4817 -2.5002  3.7387
  488MOL0     H67304   2.758   2.291   6.111 -0.5963 -1.0549  0.0545
  488MOL0     H67305   2.722   2.139   6.188  2.0767 -2.8996  0.6032
  488MOL0     H67306   3.141   2.202   5.871 -1.9995  0.5670  0.0352
  488MOL0     H67307   3.196   2.232   5.621 -1.7342 -1.4302 -0.2562
  488MOL0     H67308   3.062   2.399   5.296 -0.8183  3.3772 -0.4851
  488MOL0     H67309   3.025   2.275   5.418 -2.7886  0.4044 -1.1940
  488MOL0     H67310   2.826   2.380   5.370  0.6829  0.5124 -0.1180
  488MOL0     H67311   2.878   2.426   5.532  2.7038 -0.1739  0.0247
  488MOL0     H67312   2.893   2.592   5.286 -1.2459 -1.5962  0.1421
  488MOL0     H67313   2.987   2.621   5.432  0.2032  1.6218 -2.7169
  488MOL0     H67314   2.685   2.623   5.384 -0.6152 -0.3910  1.6508
  488MOL0     H67315   2.795   2.765   5.418  1.9416 -0.7185 -0.4656
  488MOL0     H67316   2.697   2.533   5.603  1.7486 -0.8440 -1.1218
  488MOL0     H67317   2.806   2.667   5.654 -1.3931  1.9080  0.0617
  488MOL0     H67318   2.522   2.716   5.538 -1.1255  1.7515 -1.2171
  488MOL0     H67319   2.629   2.830   5.613 -0.9031 -0.6598 -0.2286
  488MOL0     H67320   2.512   2.581   5.753  0.3924 -0.0336 -1.6290
  488MOL0     H67321   2.426   2.725   5.726 -1.6775 -2.8976 -2.8799
  488MOL0     H67322   2.618   2.848   5.882 -0.8745  0.8273  3.7195
  488MOL0     H67323   2.673   2.684   5.906  0.0259  0.0278 -0.7698
  488MOL0     H67324   3.046   2.632   5.669 -2.1057 -0.4963  1.3409
  488MOL0     H67325   2.950   2.574   5.877 -2.4040 -0.8553 -0.6369
  488MOL0     H67326   3.209   2.375   6.347  1.8042 -3.0058 -2.3972
  488MOL0     H67327   3.123   2.335   6.570 -0.0410 -2.4759  0.1318
  488MOL0     H67328   2.057   3.523   7.082  4.3046  2.8603  1.0247
  488MOL0     H67329   2.031   3.787   7.152 -0.3257 -0.0453  0.4044
  488MOL0     H67330   1.982   4.124   7.211  1.3516  3.5062  3.1981
  488MOL0     H67331   1.970   4.345   7.283 -1.5334  1.1802  1.1365
  488MOL0     H67332   1.721   4.649   7.082 -0.2897 -3.9135 -0.4029
  488MOL0     H67333   1.613   4.601   7.217 -0.7059 -0.6638 -2.0030
  488MOL0     H67334   1.867   4.772   7.252 -0.9666  1.5070 -1.7648
  488MOL0     H67335   1.734   4.754   7.363 -0.4257 -0.9585 -1.0448
  488MOL0     H67336   1.706   4.902   7.104  0.3698 -0.7935 -0.0828
  488MOL0     H67337   1.570   4.884   7.210 -0.6350 -1.8428 -0.3270
  488MOL0     H67338   1.684   5.093   7.224 -5.2982  0.2317  2.1179
  488MOL0     H67339   1.837   5.023   7.266 -0.6645 -1.3313 -1.9487
  488MOL0     H67340   1.619   5.043   7.637  0.7188 -2.1346  0.6441
  488MOL0     H67341   1.637   4.427   7.036  1.3801 -0.4330 -0.4945
  488MOL0     H67342   1.615   4.181   6.866  2.3245 -0.2159  1.1836
  488MOL0     H67343   1.522   4.113   7.015  2.9701 -0.2484  3.4773
  488MOL0     H67344   1.498   4.280   6.980 -0.0310 -0.9889  2.2198
  489MOL0     O67345  11.527   7.252   6.464 -0.7446  1.0788  0.6873
  489MOL0     C67346  11.515   7.360   6.517 -0.2804 -0.2522  0.3537
  489MOL0     O67347  11.485   7.377   6.647  0.2440 -0.3886 -0.1978
  489MOL0     C67348  11.434   7.270   6.712 -0.7388 -0.0335 -0.2021
  489MOL0     C67349  11.292   7.239   6.715 -0.5953  0.1288  0.3233
  489MOL0     C67350  11.256   7.106   6.769  0.2059 -0.2051  0.3369
  489MOL0     C67351  11.357   7.018   6.824  0.2106  0.4701 -0.3416
  489MOL0     O67352  11.333   6.894   6.879 -0.5164 -0.7019 -0.1480
  489MOL0     C67353  11.198   6.881   6.932 -0.1158 -0.0890 -0.2344
  489MOL0     C67354  11.108   6.821   6.824 -0.4510  0.5653 -0.0844
  489MOL0     C67355  10.963   6.830   6.855  1.6930  0.4696  0.2836
  489MOL0     C67356  10.879   6.732   6.769 -0.4051  0.0416 -1.0614
  489MOL0     C67357  10.747   6.705   6.836  0.6447 -0.0150 -0.3450
  489MOL0     C67358  10.683   6.581   6.783  0.1666  0.8101 -0.3790
  489MOL0     C67359  10.631   6.601   6.635 -0.0980 -0.8893  0.5115
  489MOL0     C67360  10.597   6.481   6.547  0.4973 -0.1868  0.1978
  489MOL0     N67361  10.722   6.442   6.483  0.1837  0.3348 -0.6030
  489MOL0     C67362  10.819   6.354   6.517  0.1515 -0.0748 -0.9267
  489MOL0     C67363  10.931   6.377   6.443  0.9878  0.2406 -1.0802
  489MOL0     C67364  11.058   6.304   6.445 -0.4248  0.4862 -0.7539
  489MOL0     C67365  11.074   6.174   6.350 -0.7029 -0.1412 -0.6730
  489MOL0     C67366  11.178   6.086   6.419 -0.3635 -0.0324 -0.7259
  489MOL0     C67367  11.244   5.983   6.323 -0.3043 -0.1465 -0.4064
  489MOL0     O67368  11.138   5.914   6.249  0.7577  0.2629  0.6526
  489MOL0     C67369  11.086   5.791   6.286  0.6940 -0.3998 -0.9711
  489MOL0     C67370  11.101   5.731   6.410  0.3181 -1.2636 -0.2958
  489MOL0     C67371  11.062   5.596   6.433  0.0765  0.1547  0.0952
  489MOL0     C67372  11.097   5.515   6.555  0.3821  0.6776  0.3707
  489MOL0     C67373  10.998   5.522   6.336  1.3041 -0.5167  0.0955
  489MOL0     C67374  10.953   5.384   6.355 -0.7403  0.0478 -0.6752
  489MOL0     O67375  10.878   5.363   6.466 -0.3686  0.0206 -0.5544
  489MOL0     C67376  10.833   5.237   6.485 -0.0377  0.6094 -0.1614
  489MOL0     C67377  10.721   5.189   6.414  0.4423  0.0561 -0.5359
  489MOL0     C67378  10.682   5.053   6.431  0.3493 -0.2944  0.3261
  489MOL0     C67379  10.763   4.962   6.508  0.2414 -1.1879 -0.4376
  489MOL0     O67380  10.730   4.833   6.544 -0.7195 -0.0891 -0.2876
  489MOL0     C67381  10.615   4.763   6.501 -0.3409  0.3657  0.0083
  489MOL0     C67382  10.534   4.726   6.623  0.6683 -0.3703 -0.1976
  489MOL0     C67383  10.533   4.828   6.729  1.0595  0.3736 -0.6320
  489MOL0     C67384  10.433   4.944   6.704  0.0100  0.1531 -0.1216
  489MOL0     C67385  10.436   5.042   6.821 -1.3949  0.7656  1.0431
  489MOL0     C67386  10.336   4.998   6.922  0.2505 -0.6499  0.2726
  489MOL0     C67387  10.353   5.067   7.059 -0.4707 -0.2181  0.3794
  489MOL0     C67388  10.487   5.034   7.125  0.3271 -0.6862 -0.1206
  489MOL0    Cl67389  10.503   5.144   7.272 -0.2192 -0.4713 -0.1269
  489MOL0     C67390  10.880   5.015   6.565 -0.2840 -0.4235  0.0432
  489MOL0     C67391  10.910   5.153   6.565  0.6348  1.1017  0.3537
  489MOL0     O67392  10.978   5.302   6.271 -0.5449  0.0567  0.5593
  489MOL0     C67393  10.971   5.598   6.210  0.2816  0.9040 -0.0511
  489MOL0     C67394  11.016   5.724   6.185  0.2153 -0.5269  0.0957
  489MOL0     N67395  10.886   6.464   6.346 -0.1715  0.1138  0.8229
  489MOL0     N67396  10.765   6.505   6.363  0.9015  1.1783  0.2170
  489MOL0     C67397  11.493   7.064   6.819 -0.7793  0.2629 -0.2678
  489MOL0     C67398  11.532   7.185   6.763  0.8246 -0.5221  0.5725
  489MOL0     C67399  11.569   7.483   6.450  1.0344 -0.6406  0.2183
  489MOL0     C67400  11.623   7.583   6.536  0.4696 -0.8306 -0.8057
  489MOL0     C67401  11.659   7.708   6.487  0.3905 -0.2067 -0.0957
  489MOL0     C67402  11.677   7.729   6.349 -0.1037 -0.1558  0.4478
  489MOL0     O67403  11.692   7.853   6.294  0.1627 -0.0808  0.1621
  489MOL0     C67404  11.643   7.975   6.354  0.1531 -0.2142  0.4251
  489MOL0     C67405  11.488   7.981   6.329  0.4923  1.0301  0.1264
  489MOL0     C67406  11.442   7.980   6.177 -0.4690 -0.2752  0.2421
  489MOL0     C67407  11.293   7.986   6.168  0.9206  0.1669  0.0080
  489MOL0     C67408  11.261   8.024   6.030  0.6858  0.4704  0.0048
  489MOL0     C67409  11.222   8.029   5.915  0.9426 -0.2008 -0.2505
  489MOL0     C67410  11.635   7.626   6.260 -0.0095  0.0586  0.7674
  489MOL0     C67411  11.577   7.502   6.309 -0.9968  0.6342 -0.9136
  489MOL0     C67412  11.514   7.397   6.213  0.5876  0.5590  0.2326
  489MOL0     H67413  11.224   7.299   6.656  0.3330 -1.9242 -3.1843
  489MOL0     H67414  11.150   7.081   6.766 -0.6935  3.1958  0.1958
  489MOL0     H67415  11.154   6.970   6.978  0.4858 -0.6643  1.5170
  489MOL0     H67416  11.196   6.817   7.020  2.2976  2.9203  2.2410
  489MOL0     H67417  11.127   6.863   6.724  0.6677 -2.4766 -1.2659
  489MOL0     H67418  11.132   6.716   6.811  1.1890  0.5681  2.3874
  489MOL0     H67419  10.936   6.799   6.956 -2.9441  1.5932 -0.3453
  489MOL0     H67420  10.914   6.926   6.835  2.0934  0.3375 -1.5070
  489MOL0     H67421  10.866   6.768   6.667 -1.4531 -2.0106 -1.7109
  489MOL0     H67422  10.941   6.643   6.751 -1.3724 -1.1295  0.9780
  489MOL0     H67423  10.681   6.790   6.813 -1.7598 -2.1159 -1.7727
  489MOL0     H67424  10.761   6.702   6.944 -1.2869 -1.3019 -0.0731
  489MOL0     H67425  10.745   6.492   6.798  0.8377  1.3253 -0.0479
  489MOL0     H67426  10.595   6.557   6.843 -0.4028  0.3999 -1.3499
  489MOL0     H67427  10.697   6.666   6.577 -1.9099 -0.2113 -0.9027
  489MOL0     H67428  10.535   6.651   6.651  1.0042  1.5768 -0.0339
  489MOL0     H67429  10.549   6.413   6.619 -1.9317  1.7863  0.5880
  489MOL0     H67430  10.529   6.511   6.467  3.0555  0.5233 -1.8498
  489MOL0     H67431  10.827   6.291   6.605 -1.3608  0.5693 -0.2986
  489MOL0     H67432  11.070   6.292   6.554 -2.3688 -1.0836 -0.6534
  489MOL0     H67433  11.140   6.369   6.414 -1.2629  0.9051 -2.1600
  489MOL0     H67434  10.979   6.126   6.323 -2.1501  2.4634 -0.5038
  489MOL0     H67435  11.128   6.212   6.263  0.2460 -0.2436 -0.1451
  489MOL0     H67436  11.270   6.135   6.453  0.7055 -2.2677 -0.2249
  489MOL0     H67437  11.136   6.030   6.502  4.3064  0.0900  2.0992
  489MOL0     H67438  11.320   6.034   6.263 -0.8940  0.2988 -0.7829
  489MOL0     H67439  11.303   5.917   6.387 -3.3254 -1.2116  1.4592
  489MOL0     H67440  11.153   5.782   6.490  1.5131 -3.1978  0.2317
  489MOL0     H67441  11.140   5.417   6.530  0.4124  0.3794  1.5166
  489MOL0     H67442  11.006   5.500   6.614 -0.0014  0.0299 -0.3531
  489MOL0     H67443  11.172   5.572   6.611 -0.4044  0.6142  1.5248
  489MOL0     H67444  10.675   5.257   6.343  0.7411  0.9889  0.1408
  489MOL0     H67445  10.594   5.018   6.379  1.7362 -1.7369 -1.1741
  489MOL0     H67446  10.555   4.821   6.431  0.5370 -1.7850 -2.7055
  489MOL0     H67447  10.648   4.671   6.451  2.2287  0.3835  1.4565
  489MOL0     H67448  10.431   4.700   6.598  1.3863 -6.0189  1.3192
  489MOL0     H67449  10.579   4.636   6.666  2.9445  1.4380  1.4391
  489MOL0     H67450  10.635   4.861   6.750  1.2706  0.1056 -1.2309
  489MOL0     H67451  10.501   4.782   6.824  2.3009 -2.1281 -1.3383
  489MOL0     H67452  10.329   4.916   6.688  0.7215 -4.3043  1.6466
  489MOL0     H67453  10.469   5.001   6.617 -2.2123  1.1033 -0.4895
  489MOL0     H67454  10.540   5.036   6.853 -0.5680  0.2980 -1.5015
  489MOL0     H67455  10.419   5.146   6.791 -2.4541 -0.5282 -3.7802
  489MOL0     H67456  10.332   4.891   6.947 -2.7707 -0.0644  2.8105
  489MOL0     H67457  10.242   5.022   6.873  0.6200  0.4914  0.1014
  489MOL0     H67458  10.284   5.029   7.135  1.6374 -1.5240  1.7538
  489MOL0     H67459  10.332   5.174   7.067  1.2944  0.0862  1.3991
  489MOL0     H67460  10.574   5.071   7.070  1.1655  0.8877  2.1184
  489MOL0     H67461  10.492   4.929   7.153  4.2028  0.3605  4.2508
  489MOL0     H67462  10.946   4.948   6.620 -1.7460 -0.8774  1.2908
  489MOL0     H67463  10.996   5.191   6.620 -0.1741  0.5195  2.1009
  489MOL0     H67464  10.930   5.526   6.140  2.5017 -1.4263  0.9040
  489MOL0     H67465  11.028   5.772   6.089 -1.1266  0.7547  0.5237
  489MOL0     H67466  11.563   6.989   6.854  2.1581  3.0532  0.2478
  489MOL0     H67467  11.639   7.205   6.758  0.8706 -0.4966  1.6024
  489MOL0     H67468  11.617   7.570   6.644 -0.4942 -3.2361 -1.0817
  489MOL0     H67469  11.672   7.788   6.559  2.7331  0.6519 -1.3538
  489MOL0     H67470  11.660   7.985   6.462 -1.6315  0.3563  0.6848
  489MOL0     H67471  11.683   8.065   6.307  0.6912  0.4180  2.0244
  489MOL0     H67472  11.459   8.080   6.366  0.9100  1.0889  0.3013
  489MOL0     H67473  11.438   7.896   6.375  2.7417  0.1447  1.0356
  489MOL0     H67474  11.491   8.067   6.132 -2.0917  1.8343  2.3114
  489MOL0     H67475  11.480   7.889   6.130  1.5473  1.1637 -1.1059
  489MOL0     H67476  11.250   8.057   6.239  1.5455  2.6893 -1.9958
  489MOL0     H67477  11.251   7.889   6.194 -0.9351  1.0305  0.4064
  489MOL0     H67478  11.183   8.036   5.815  2.7168 -1.6343 -1.0903
  489MOL0     H67479  11.649   7.650   6.155  2.0922 -0.3223  0.9156
  489MOL0     H67480  11.473   7.458   6.132  0.8290 -0.6490 -0.8215
  489MOL0     H67481  11.590   7.325   6.183  1.3119  0.2652  2.5549
  489MOL0     H67482  11.427   7.350   6.261  0.2252  0.4946 -0.4736
  490MOL0     O67483   6.506   5.257   3.439  0.7944 -0.4593  0.2156
  490MOL0     C67484   6.520   5.288   3.322  0.2969 -0.6283 -1.0407
  490MOL0     O67485   6.637   5.305   3.254 -0.0906 -0.4932 -0.2293
  490MOL0     C67486   6.757   5.291   3.327  0.4092  0.3550  0.0823
  490MOL0     C67487   6.862   5.221   3.269 -0.6466 -0.4955 -0.3586
  490MOL0     C67488   6.993   5.228   3.320  0.1267  0.6322  0.6023
  490MOL0     C67489   7.027   5.302   3.432  0.9880 -0.1422 -0.0976
  490MOL0     O67490   7.157   5.305   3.483 -0.4859 -0.5599 -0.3065
  490MOL0     C67491   7.208   5.178   3.523 -0.3767 -0.1328  0.6598
  490MOL0     C67492   7.324   5.208   3.604  1.4656  0.5587 -0.4484
  490MOL0     C67493   7.453   5.274   3.546 -0.3800  0.5990 -0.0392
  490MOL0     C67494   7.564   5.281   3.652 -0.5382 -0.4411 -0.6419
  490MOL0     C67495   7.701   5.330   3.605 -0.9213  0.1469 -0.1555
  490MOL0     C67496   7.789   5.363   3.728  0.4716 -0.1795 -0.7592
  490MOL0     C67497   7.905   5.467   3.705 -0.5869  0.1632 -0.6666
  490MOL0     C67498   7.987   5.507   3.833  0.0168 -0.4711  0.3628
  490MOL0     N67499   7.917   5.528   3.962  0.0489 -0.9858 -0.1225
  490MOL0     C67500   7.903   5.651   4.013 -0.9925 -0.1445 -0.6884
  490MOL0     C67501   7.825   5.629   4.124  0.4713  1.0035 -0.7886
  490MOL0     C67502   7.769   5.735   4.216  0.4430 -0.5655  0.4832
  490MOL0     C67503   7.873   5.791   4.320  0.1421 -0.0843 -0.7668
  490MOL0     C67504   7.992   5.869   4.279 -0.5262 -0.2730  0.6983
  490MOL0     C67505   7.947   5.994   4.198 -0.8859 -0.2413 -0.4835
  490MOL0     O67506   8.074   6.035   4.158 -0.5809 -0.4504 -0.4093
  490MOL0     C67507   8.097   6.166   4.132  0.0118  0.0296  0.7094
  490MOL0     C67508   8.224   6.219   4.115 -0.0999 -0.2812  0.2471
  490MOL0     C67509   8.252   6.349   4.081  1.0384  0.6753  0.3854
  490MOL0     C67510   8.397   6.371   4.072  0.6477 -0.5421 -0.6510
  490MOL0     C67511   8.137   6.438   4.077  0.1136  0.1715  0.2058
  490MOL0     C67512   8.152   6.584   4.059  0.7234 -0.3565 -0.5886
  490MOL0     O67513   8.267   6.643   4.093 -0.2589 -0.3973  0.3438
  490MOL0     C67514   8.300   6.766   4.049  0.0037 -1.2295 -0.0897
  490MOL0     C67515   8.386   6.826   4.137  0.0645 -0.1895 -0.2222
  490MOL0     C67516   8.445   6.948   4.103 -0.0503  0.5712 -0.0637
  490MOL0     C67517   8.427   7.009   3.974  0.1734 -0.2889  0.5988
  490MOL0     O67518   8.488   7.119   3.932 -0.3173  0.1857  0.4097
  490MOL0     C67519   8.576   7.188   4.018  0.3857 -0.4528  0.0980
  490MOL0     C67520   8.720   7.139   4.044  0.6462  0.2328  0.1021
  490MOL0     C67521   8.791   7.115   3.913 -0.0143 -0.2120 -0.0963
  490MOL0     C67522   8.938   7.163   3.909 -0.3684  0.2312  0.1317
  490MOL0     C67523   9.023   7.132   4.036 -0.6171 -0.7091 -0.5639
  490MOL0     C67524   9.175   7.155   4.019  1.3956  0.1418 -0.1014
  490MOL0     C67525   9.256   7.100   4.136  0.9648 -0.3722  0.0589
  490MOL0     C67526   9.408   7.119   4.125 -0.4156  0.0219  0.1815
  490MOL0    Cl67527   9.482   6.964   4.192 -0.4031 -0.3954  0.3833
  490MOL0     C67528   8.337   6.948   3.891 -0.3795 -0.8602  0.4304
  490MOL0     C67529   8.280   6.831   3.925  0.1150  0.6943  1.0573
  490MOL0     O67530   8.058   6.646   4.010  0.9363 -0.0770 -0.6354
  490MOL0     C67531   8.002   6.386   4.084 -0.6423  0.2844  0.3298
  490MOL0     C67532   7.991   6.251   4.111  0.5515 -0.1737 -0.1370
  490MOL0     N67533   7.808   5.493   4.145  0.1341 -0.0604  0.7716
  490MOL0     N67534   7.866   5.432   4.047  0.6606 -0.5441 -0.3707
  490MOL0     C67535   6.931   5.379   3.483  0.9524  0.4676 -0.2375
  490MOL0     C67536   6.794   5.378   3.431 -0.0875  0.1735 -0.7734
  490MOL0     C67537   6.390   5.290   3.233  0.0112 -0.0193 -0.5732
  490MOL0     C67538   6.279   5.204   3.271 -0.4279  0.3267  0.5187
  490MOL0     C67539   6.159   5.186   3.199  1.1346  0.2285 -0.3743
  490MOL0     C67540   6.134   5.268   3.089  0.6103 -0.0359  0.1996
  490MOL0     O67541   5.995   5.259   3.042 -0.7875 -0.3972 -0.0110
  490MOL0     C67542   5.983   5.311   2.908 -0.1972 -0.4361  0.0919
  490MOL0     C67543   5.835   5.329   2.859 -0.1928 -0.0822 -0.1152
  490MOL0     C67544   5.770   5.451   2.938  0.9692  0.3147  0.7518
  490MOL0     C67545   5.617   5.450   2.931 -1.8845  0.1582  0.4596
  490MOL0     C67546   5.557   5.344   3.010  0.0568  0.5993  0.3003
  490MOL0     C67547   5.517   5.241   3.059 -0.3917  0.7546 -1.8438
  490MOL0     C67548   6.241   5.343   3.043 -0.5615  0.1926  0.2417
  490MOL0     C67549   6.357   5.369   3.120 -0.1981 -0.4010 -0.3919
  490MOL0     C67550   6.450   5.482   3.088  0.0470 -0.0886  0.0821
  490MOL0     H67551   6.841   5.163   3.180 -0.6067 -1.2792  0.1344
  490MOL0     H67552   7.074   5.173   3.272 -1.1122  0.0914 -0.9765
  490MOL0     H67553   7.240   5.128   3.430  0.9099  1.5913  0.1340
  490MOL0     H67554   7.124   5.115   3.556 -0.6098 -0.0656  0.2194
  490MOL0     H67555   7.293   5.285   3.676 -0.8752  0.9108 -1.7398
  490MOL0     H67556   7.343   5.118   3.663 -1.1284  2.2422  3.3673
  490MOL0     H67557   7.473   5.216   3.455  0.0845  1.2880 -0.3923
  490MOL0     H67558   7.435   5.376   3.509 -0.6253  0.2172 -1.0141
  490MOL0     H67559   7.527   5.344   3.734 -1.5849 -1.4063 -0.3261
  490MOL0     H67560   7.567   5.186   3.707  1.5940 -0.4546 -0.7206
  490MOL0     H67561   7.688   5.426   3.556 -0.1904 -0.4762 -1.6303
  490MOL0     H67562   7.757   5.262   3.540  2.3178  2.3095  0.1367
  490MOL0     H67563   7.748   5.403   3.822  0.7576 -2.8485  0.5815
  490MOL0     H67564   7.822   5.267   3.768 -0.8396  0.0787  1.1147
  490MOL0     H67565   7.869   5.558   3.656  0.6571  1.7631  1.2481
  490MOL0     H67566   7.978   5.421   3.638 -0.1498  0.8680 -0.6839
  490MOL0     H67567   8.056   5.425   3.854  1.6441 -0.3690 -3.7614
  490MOL0     H67568   8.036   5.602   3.810 -0.6749 -0.2528 -0.2569
  490MOL0     H67569   7.945   5.742   3.973  0.4262 -0.9538 -1.1027
  490MOL0     H67570   7.686   5.684   4.267  0.3379 -0.3716  0.5075
  490MOL0     H67571   7.728   5.828   4.176  0.3997  0.0734  1.9496
  490MOL0     H67572   7.813   5.847   4.392  1.4035 -3.6064  3.5279
  490MOL0     H67573   7.905   5.712   4.389 -2.8598  0.2415  1.1800
  490MOL0     H67574   8.034   5.915   4.369 -1.9287  5.6229 -1.2281
  490MOL0     H67575   8.047   5.794   4.221 -0.4579 -0.0092  0.4279
  490MOL0     H67576   7.882   5.974   4.112 -0.1131 -2.4995 -0.6116
  490MOL0     H67577   7.887   6.065   4.256 -3.2412 -0.6089 -2.3450
  490MOL0     H67578   8.315   6.161   4.131  0.7503  1.3726  1.8506
  490MOL0     H67579   8.411   6.462   4.013  0.4229  0.9648  1.5283
  490MOL0     H67580   8.449   6.291   4.018  0.6377 -0.0700 -1.3703
  490MOL0     H67581   8.444   6.390   4.169 -0.2971  4.5180 -0.9148
  490MOL0     H67582   8.428   6.784   4.228  1.9359  0.6155 -0.6622
  490MOL0     H67583   8.515   6.988   4.177 -1.9708  0.6140  1.8271
  490MOL0     H67584   8.588   7.283   3.965 -1.1580 -0.5226 -0.4098
  490MOL0     H67585   8.526   7.210   4.113  2.3220  2.5615  0.5623
  490MOL0     H67586   8.764   7.203   4.120 -0.0110 -1.2663  1.8062
  490MOL0     H67587   8.716   7.041   4.092  2.4732 -0.1178 -0.4106
  490MOL0     H67588   8.740   7.170   3.833  1.4709 -0.9488 -1.6033
  490MOL0     H67589   8.788   7.007   3.900 -1.4449 -0.2514  0.3991
  490MOL0     H67590   8.944   7.266   3.870  1.8355 -0.6373 -2.1127
  490MOL0     H67591   8.986   7.104   3.830 -1.1907  0.4396 -0.5486
  490MOL0     H67592   8.984   7.178   4.126 -2.0993 -0.3359 -1.3660
  490MOL0     H67593   9.018   7.026   4.063  0.2132 -0.3142  1.2837
  490MOL0     H67594   9.192   7.263   4.007 -0.2836  0.5636  0.9597
  490MOL0     H67595   9.208   7.104   3.928  2.2665  3.3383 -1.7428
  490MOL0     H67596   9.237   6.992   4.133 -0.5118 -0.1128 -2.2736
  490MOL0     H67597   9.222   7.144   4.230  1.6459  1.4194 -0.4898
  490MOL0     H67598   9.444   7.209   4.177  0.5171 -0.7717  0.9672
  490MOL0     H67599   9.447   7.126   4.023  0.9816  0.5409  0.7175
  490MOL0     H67600   8.323   6.990   3.792 -3.6766 -0.6956  0.8421
  490MOL0     H67601   8.208   6.782   3.861 -0.3014  0.0687  1.9774
  490MOL0     H67602   7.924   6.459   4.068  0.7662  1.4967 -1.4275
  490MOL0     H67603   7.889   6.216   4.116  0.1504  0.8377 -0.8156
  490MOL0     H67604   6.945   5.454   3.560  0.9739  0.9242 -0.6834
  490MOL0     H67605   6.718   5.448   3.465 -0.5568 -1.4904  1.9915
  490MOL0     H67606   6.307   5.138   3.353  1.5231  2.2583  1.5218
  490MOL0     H67607   6.076   5.121   3.224 -0.8890  3.3751  1.8136
  490MOL0     H67608   6.031   5.407   2.890  2.7464 -2.1724 -2.2263
  490MOL0     H67609   6.025   5.230   2.848  0.1934 -2.5735  3.0338
  490MOL0     H67610   5.790   5.232   2.882  2.7630 -2.1418 -2.2764
  490MOL0     H67611   5.836   5.331   2.749  0.3018  0.7817 -0.1085
  490MOL0     H67612   5.813   5.437   3.038  2.7325 -1.7118 -0.1968
  490MOL0     H67613   5.808   5.545   2.896  0.5273  0.6178  1.0217
  490MOL0     H67614   5.589   5.440   2.825  1.4156  1.4219 -0.6768
  490MOL0     H67615   5.577   5.546   2.965 -1.1648  1.7005 -2.6210
  490MOL0     H67616   5.488   5.153   3.111 -0.2382  1.6650 -0.1375
  490MOL0     H67617   6.253   5.392   2.947  2.2056 -3.9129 -1.7998
  490MOL0     H67618   6.498   5.467   2.991  2.7250 -0.1476  1.3311
  490MOL0     H67619   6.378   5.563   3.078 -1.7071 -1.7179 -1.1504
  490MOL0     H67620   6.529   5.511   3.158  0.5568  1.8396 -1.2029
  491MOL0     O67621   4.093  10.638   3.939  0.1239 -0.5974  0.7599
  491MOL0     C67622   3.977  10.624   3.954  0.4767  0.1578  0.2850
  491MOL0     O67623   3.903  10.502   3.935  0.8675  0.4625 -0.3638
  491MOL0     C67624   3.945  10.411   3.840  0.6343  0.5732  0.1670
  491MOL0     C67625   3.923  10.437   3.707  0.3397  1.0808  0.0965
  491MOL0     C67626   3.959  10.336   3.613 -0.3201 -0.4994  0.1895
  491MOL0     C67627   4.005  10.212   3.647  0.3145  0.3798  0.1721
  491MOL0     O67628   4.028  10.121   3.541  0.8265  0.9557 -0.5714
  491MOL0     C67629   4.164  10.119   3.493 -0.3658 -0.4566 -0.7857
  491MOL0     C67630   4.164  10.023   3.373 -0.9911 -0.5114 -0.4577
  491MOL0     C67631   4.129  10.103   3.246  0.6495  0.0340 -0.1097
  491MOL0     C67632   4.149  10.011   3.123  0.0255 -0.1718 -0.5069
  491MOL0     C67633   4.058  10.067   3.007  0.1237 -0.0059 -1.3606
  491MOL0     C67634   4.068   9.982   2.882 -0.3654  0.2016  0.2980
  491MOL0     C67635   4.214   9.951   2.842 -0.2284  0.8194 -0.1320
  491MOL0     C67636   4.220   9.910   2.697 -0.1613  0.5734 -1.0771
  491MOL0     N67637   4.363   9.908   2.654  0.7892  0.3212  0.1081
  491MOL0     C67638   4.454  10.009   2.666 -0.4660  0.2995 -0.6532
  491MOL0     C67639   4.562   9.971   2.590  0.0515 -0.8060  1.2022
  491MOL0     C67640   4.677  10.071   2.561 -0.5748 -0.0184 -0.3137
  491MOL0     C67641   4.806   9.999   2.582 -1.1966  0.7187  0.0051
  491MOL0     C67642   4.829   9.958   2.722 -0.2455  0.1706  0.2046
  491MOL0     C67643   4.966   9.924   2.754  0.0902 -0.0192  0.3570
  491MOL0     O67644   5.039  10.046   2.776  0.1666 -0.0755 -0.3134
  491MOL0     C67645   5.177  10.034   2.820  0.0458  0.4535  1.5421
  491MOL0     C67646   5.245  10.148   2.854 -0.9419  0.3186 -0.3303
  491MOL0     C67647   5.372  10.152   2.900  0.1093 -0.2503 -0.3214
  491MOL0     C67648   5.431  10.287   2.949 -0.6219 -0.2171  0.1628
  491MOL0     C67649   5.445  10.034   2.913 -0.0956  0.9848 -0.3205
  491MOL0     C67650   5.573  10.025   2.983 -0.1508  0.8110  0.0268
  491MOL0     O67651   5.586  10.113   3.096 -0.0341 -0.1795  0.2120
  491MOL0     C67652   5.697  10.102   3.182  0.4466 -0.4115 -0.6814
  491MOL0     C67653   5.766  10.214   3.221 -0.2635  0.1058  1.0451
  491MOL0     C67654   5.877  10.208   3.299 -0.5386 -0.3323 -0.4547
  491MOL0     C67655   5.933  10.085   3.346 -0.4873  0.8148 -0.4466
  491MOL0     O67656   6.048  10.067   3.423  0.2257  0.9891  0.2786
  491MOL0     C67657   6.141  10.176   3.420 -0.5435  0.6957 -0.0348
  491MOL0     C67658   6.269  10.135   3.499  0.6315 -0.8067  0.6370
  491MOL0     C67659   6.232  10.098   3.639 -0.3409  0.3111 -0.4540
  491MOL0     C67660   6.346  10.069   3.726 -0.0965  0.2553 -0.1688
  491MOL0     C67661   6.319  10.020   3.870 -0.1027  0.5311  0.1957
  491MOL0     C67662   6.450   9.965   3.943 -0.0280  0.6786  0.3529
  491MOL0     C67663   6.416   9.956   4.091 -0.3451  0.8156 -0.0603
  491MOL0     C67664   6.527   9.882   4.174  0.8034 -0.6853 -0.1353
  491MOL0    Cl67665   6.497   9.923   4.347  0.1941 -0.0953  0.3945
  491MOL0     C67666   5.860   9.970   3.303 -0.4322  0.2035 -0.0313
  491MOL0     C67667   5.743   9.976   3.226 -0.3243  0.0806 -0.5771
  491MOL0     O67668   5.654   9.942   2.947  0.2304 -0.2528  0.1623
  491MOL0     C67669   5.392   9.913   2.863 -0.1438 -0.7905  0.2823
  491MOL0     C67670   5.257   9.909   2.818 -0.1692  0.4951 -0.1218
  491MOL0     N67671   4.540   9.850   2.528  0.6878 -0.4225 -0.1741
  491MOL0     N67672   4.418   9.813   2.573 -0.8897 -0.2754 -0.3143
  491MOL0     C67673   4.024  10.182   3.786  0.0270 -0.1120 -0.2891
  491MOL0     C67674   3.996  10.289   3.876  0.2026  0.4414 -0.8683
  491MOL0     C67675   3.892  10.736   4.028 -0.1414  0.6148 -0.0726
  491MOL0     C67676   3.751  10.715   4.038 -0.6296 -0.0504 -0.4224
  491MOL0     C67677   3.678  10.798   4.114  0.4921 -0.3692  0.7154
  491MOL0     C67678   3.730  10.908   4.179 -0.0356  0.2226 -0.3901
  491MOL0     O67679   3.640  10.977   4.262  0.1875 -0.7686 -0.0148
  491MOL0     C67680   3.669  11.105   4.320  0.2007  0.7626  0.2698
  491MOL0     C67681   3.765  11.106   4.438  0.4561  0.1033 -0.2646
  491MOL0     C67682   3.830  11.244   4.485  0.7842  0.0486  0.4610
  491MOL0     C67683   3.867  11.258   4.625 -0.5134 -0.5963 -0.6326
  491MOL0     C67684   3.752  11.224   4.706  0.8598  0.9344 -0.1500
  491MOL0     C67685   3.637  11.203   4.753  0.2164  0.6918  0.6146
  491MOL0     C67686   3.863  10.933   4.161 -0.5854  0.2583  1.2630
  491MOL0     C67687   3.946  10.851   4.082 -0.9262  0.2201 -0.2056
  491MOL0     C67688   4.097  10.886   4.076 -0.0485 -1.8847  0.2223
  491MOL0     H67689   3.886  10.530   3.665  1.3124  1.5279  0.1756
  491MOL0     H67690   3.941  10.358   3.508 -4.7565 -1.3012  0.5783
  491MOL0     H67691   4.223  10.067   3.568 -0.8216  0.0701 -0.0538
  491MOL0     H67692   4.206  10.215   3.461  0.8497 -2.1743 -5.0384
  491MOL0     H67693   4.265   9.981   3.377 -1.2076 -0.9442  1.4152
  491MOL0     H67694   4.099   9.936   3.388 -1.0896  0.0557  3.0750
  491MOL0     H67695   4.029  10.146   3.256  1.1528  0.9437  1.4356
  491MOL0     H67696   4.195  10.190   3.240  1.1618 -0.1188  2.1789
  491MOL0     H67697   4.251  10.003   3.086 -0.5576 -1.1432 -1.9971
  491MOL0     H67698   4.114   9.914   3.162 -2.1076  1.2560  1.4429
  491MOL0     H67699   4.108  10.164   2.998 -2.7093  1.6611 -0.3689
  491MOL0     H67700   3.958  10.078   3.049  0.4954  0.1338 -0.4752
  491MOL0     H67701   3.998   9.901   2.905 -0.1747 -0.0629 -0.0268
  491MOL0     H67702   4.032  10.053   2.807  1.3072 -1.9558 -2.8203
  491MOL0     H67703   4.257   9.873   2.906 -0.5070  1.8906  1.4076
  491MOL0     H67704   4.275  10.041   2.853 -0.3767  0.5652  5.2139
  491MOL0     H67705   4.164   9.818   2.676  1.7665 -1.7706  3.0221
  491MOL0     H67706   4.158   9.981   2.641  1.0299 -0.9021 -4.5673
  491MOL0     H67707   4.451  10.103   2.722 -2.4715 -0.0299 -0.1387
  491MOL0     H67708   4.670  10.148   2.638 -3.5156 -1.1561  0.6634
  491MOL0     H67709   4.673  10.118   2.462 -0.6484  1.4389  0.3509
  491MOL0     H67710   4.804   9.908   2.521  1.5516 -0.4106  1.4114
  491MOL0     H67711   4.887  10.065   2.549 -1.5286  0.3176 -1.7090
  491MOL0     H67712   4.792  10.044   2.778  0.9563  0.4749  0.5419
  491MOL0     H67713   4.768   9.868   2.730 -0.8147  0.4273 -0.9630
  491MOL0     H67714   4.969   9.860   2.843 -1.2187 -1.9360 -0.9012
  491MOL0     H67715   5.019   9.875   2.672  4.9760  2.5040  1.6455
  491MOL0     H67716   5.180  10.235   2.848  0.1904  1.2513  0.5504
  491MOL0     H67717   5.425  10.281   3.058  3.7689 -0.0843  0.5949
  491MOL0     H67718   5.377  10.375   2.913 -3.2424 -0.9309  2.0084
  491MOL0     H67719   5.534  10.292   2.913 -0.7644  1.6972 -0.0918
  491MOL0     H67720   5.735  10.310   3.182  0.2853 -0.9411 -2.3173
  491MOL0     H67721   5.921  10.304   3.324  1.9312 -1.7114  0.8237
  491MOL0     H67722   6.181  10.219   3.328  0.5348 -1.0244 -0.4241
  491MOL0     H67723   6.100  10.267   3.465  1.0140  1.5900 -0.3727
  491MOL0     H67724   6.314  10.043   3.459  4.2880 -0.1274  2.7006
  491MOL0     H67725   6.351  10.208   3.494 -0.5861  0.6963  1.8069
  491MOL0     H67726   6.165  10.011   3.633 -2.9466  2.2571 -1.4918
  491MOL0     H67727   6.158  10.165   3.685  1.1467 -0.3450  3.3153
  491MOL0     H67728   6.399  10.164   3.734 -3.1163  2.0666 -0.2210
  491MOL0     H67729   6.415  10.002   3.674  0.1189  0.7884 -0.5822
  491MOL0     H67730   6.290  10.112   3.920  2.1774  0.2611  2.2286
  491MOL0     H67731   6.240   9.946   3.854 -0.6098  1.7553 -4.2522
  491MOL0     H67732   6.529  10.039   3.929 -0.4509  0.9495 -0.8196
  491MOL0     H67733   6.490   9.871   3.905 -0.2905  0.8104 -0.2669
  491MOL0     H67734   6.322   9.902   4.104  0.2801 -0.8285 -1.7811
  491MOL0     H67735   6.402  10.059   4.126 -2.5925  1.6045 -2.8845
  491MOL0     H67736   6.626   9.900   4.130  0.8166 -0.0433  0.1518
  491MOL0     H67737   6.512   9.774   4.161  1.2179 -0.8097  0.3750
  491MOL0     H67738   5.893   9.874   3.341 -1.3360 -0.4518 -0.8469
  491MOL0     H67739   5.701   9.885   3.184  0.7382  0.1082 -1.7504
  491MOL0     H67740   5.456   9.826   2.863 -2.2890 -2.4310  0.7754
  491MOL0     H67741   5.220   9.814   2.780  1.8162 -1.3789  2.3143
  491MOL0     H67742   4.057  10.087   3.825 -0.2342 -0.1758 -0.2269
  491MOL0     H67743   4.001  10.270   3.983 -0.4838 -2.3348 -1.2562
  491MOL0     H67744   3.697  10.628   4.003 -1.2657  0.3192 -0.3758
  491MOL0     H67745   3.575  10.767   4.128  0.3639  1.0025  3.7754
  491MOL0     H67746   3.716  11.173   4.248 -1.8390  0.8570 -1.0590
  491MOL0     H67747   3.580  11.153   4.361 -1.0071 -0.8279 -0.3770
  491MOL0     H67748   3.852  11.045   4.413 -1.0250 -2.1807 -0.0747
  491MOL0     H67749   3.713  11.055   4.519  1.7013 -2.1027 -0.7667
  491MOL0     H67750   3.923  11.257   4.430  2.0785 -0.4109  2.4323
  491MOL0     H67751   3.761  11.327   4.465  2.2767  1.0133 -0.9885
  491MOL0     H67752   3.920  11.349   4.652  1.0027 -1.7939  0.6762
  491MOL0     H67753   3.943  11.184   4.652  0.9616  1.0137 -0.1894
  491MOL0     H67754   3.540  11.181   4.793  1.1684  1.4333  3.5789
  491MOL0     H67755   3.904  11.025   4.201 -0.7960  0.8310  0.2073
  491MOL0     H67756   4.163  10.817   4.130  2.5285 -2.0658 -2.8530
  491MOL0     H67757   4.130  10.901   3.973  1.7373 -1.1333  0.8686
  491MOL0     H67758   4.113  10.979   4.132  1.1797 -0.3860 -2.4453
  492MOL0     O67759   5.227   6.066   9.184  0.5483  0.2447  0.1540
  492MOL0     C67760   5.159   6.065   9.286 -0.2867 -0.1833  0.1377
  492MOL0     O67761   5.050   6.146   9.300 -0.0279 -0.2475  0.0246
  492MOL0     C67762   5.001   6.207   9.190  0.0287  0.7999  1.3493
  492MOL0     C67763   5.004   6.345   9.178 -0.2253 -0.2645 -0.1957
  492MOL0     C67764   4.939   6.400   9.072  1.0737  1.1963  0.3869
  492MOL0     C67765   4.869   6.322   8.981  0.3557  0.2260  0.5957
  492MOL0     O67766   4.802   6.394   8.886 -0.1025  0.6295  0.4836
  492MOL0     C67767   4.778   6.343   8.757 -0.2323  0.5021 -0.0716
  492MOL0     C67768   4.630   6.291   8.759 -0.2086  0.3175 -0.6503
  492MOL0     C67769   4.621   6.184   8.643 -0.0235 -0.4997 -0.8432
  492MOL0     C67770   4.493   6.093   8.665 -0.1440  0.0541  0.5965
  492MOL0     C67771   4.446   6.013   8.547 -0.1117 -0.1497  0.3918
  492MOL0     C67772   4.348   6.096   8.461  0.4124 -0.7294 -0.2585
  492MOL0     C67773   4.251   6.013   8.368 -0.2112 -0.4927 -0.9405
  492MOL0     C67774   4.184   6.114   8.265  0.0251 -1.3018 -0.0097
  492MOL0     N67775   4.086   6.201   8.329  0.0630  0.6029 -0.1698
  492MOL0     C67776   3.972   6.156   8.388 -0.5497 -0.5529  1.4109
  492MOL0     C67777   3.902   6.266   8.422 -0.6454 -0.1967  0.4617
  492MOL0     C67778   3.763   6.266   8.483  1.0062  0.5374  0.2014
  492MOL0     C67779   3.726   6.397   8.560 -0.2747 -0.6803 -0.1109
  492MOL0     C67780   3.599   6.369   8.634  0.1034  0.4133  0.6085
  492MOL0     C67781   3.553   6.485   8.736 -0.0589  0.3634 -0.9566
  492MOL0     O67782   3.647   6.472   8.841 -0.5681 -0.2725 -0.9862
  492MOL0     C67783   3.667   6.361   8.920  0.3713  0.2480  0.3212
  492MOL0     C67784   3.572   6.280   8.974 -0.5434  0.3664 -0.1354
  492MOL0     C67785   3.606   6.159   9.039  0.1228 -0.2614 -0.4223
  492MOL0     C67786   3.498   6.053   9.048  0.3584 -0.0668 -0.2015
  492MOL0     C67787   3.743   6.140   9.079 -0.2016 -0.0821 -0.2823
  492MOL0     C67788   3.792   6.042   9.169  0.3668  0.0257  0.9376
  492MOL0     O67789   3.697   5.956   9.207  0.0235 -0.2500  0.2929
  492MOL0     C67790   3.700   5.921   9.337 -0.1520  0.4287  0.8222
  492MOL0     C67791   3.710   6.015   9.443  0.5019 -0.0301 -0.3079
  492MOL0     C67792   3.723   5.973   9.572  0.4005  0.2937 -0.1109
  492MOL0     C67793   3.706   5.833   9.603  0.2369  1.1256 -0.5218
  492MOL0     O67794   3.708   5.802   9.738 -0.3378 -0.7762  0.1980
  492MOL0     C67795   3.684   5.669   9.786 -0.1326 -0.1503 -0.0003
  492MOL0     C67796   3.534   5.672   9.802  0.0933  0.7535  0.0680
  492MOL0     C67797   3.485   5.557   9.907  0.1226 -0.1566 -0.4118
  492MOL0     C67798   3.529   5.413   9.868 -0.2871 -0.6449 -0.1001
  492MOL0     C67799   3.461   5.313   9.957 -1.0919 -0.4694 -0.4617
  492MOL0     C67800   3.487   5.164   9.919  0.1417 -0.3006  0.1150
  492MOL0     C67801   3.416   5.141   9.788  0.0120  0.3344  0.7285
  492MOL0     C67802   3.401   4.990   9.745 -0.6734 -0.0153 -0.1440
  492MOL0    Cl67803   3.550   4.898   9.752 -0.1941 -0.2527  0.1453
  492MOL0     C67804   3.688   5.743   9.498 -0.2443 -0.2837  0.5633
  492MOL0     C67805   3.695   5.787   9.364  0.8110 -0.8762 -1.0688
  492MOL0     O67806   3.913   6.042   9.210  0.2953  0.8846  0.1759
  492MOL0     C67807   3.833   6.233   9.030  0.4152 -0.5486 -0.4483
  492MOL0     C67808   3.796   6.343   8.948 -0.6238  0.2330 -0.5618
  492MOL0     N67809   3.986   6.376   8.394  0.6267 -0.3984 -0.8433
  492MOL0     N67810   4.093   6.333   8.347  0.0043  0.1451  0.4101
  492MOL0     C67811   4.872   6.193   8.987  1.4087  0.3327 -0.1014
  492MOL0     C67812   4.938   6.127   9.096 -0.2958 -0.4375 -0.0055
  492MOL0     C67813   5.160   5.961   9.385 -0.5188  0.4656  0.2339
  492MOL0     C67814   5.044   5.884   9.401  0.3085  0.8579  0.3455
  492MOL0     C67815   5.032   5.780   9.488  0.1208  0.3944 -0.3092
  492MOL0     C67816   5.143   5.729   9.552 -1.0194 -0.2601 -0.7599
  492MOL0     O67817   5.140   5.627   9.643 -0.1052  0.5757  0.4077
  492MOL0     C67818   5.173   5.663   9.776 -0.9673 -0.3927  0.2496
  492MOL0     C67819   5.284   5.589   9.836 -0.6102  0.3480  0.8726
  492MOL0     C67820   5.273   5.613   9.997  0.5946 -0.5253  0.1420
  492MOL0     C67821   5.341   5.497  10.068  0.2024 -0.3086  0.6845
  492MOL0     C67822   5.377   5.533  10.207 -0.2627 -0.4545  0.0358
  492MOL0     C67823   5.426   5.561  10.324 -0.1138  0.7437  0.5113
  492MOL0     C67824   5.269   5.790   9.524 -0.2069 -0.6769 -0.2297
  492MOL0     C67825   5.274   5.913   9.451 -0.0458 -0.5760  0.1616
  492MOL0     C67826   5.404   5.988   9.435 -0.6294  0.0436 -0.9649
  492MOL0     H67827   5.053   6.404   9.255  0.0325  0.0328 -0.5848
  492MOL0     H67828   4.931   6.508   9.073  0.1788  1.1404  0.6829
  492MOL0     H67829   4.856   6.272   8.729  0.4440  1.6606 -1.2304
  492MOL0     H67830   4.789   6.427   8.688  3.5269 -0.2271 -0.5974
  492MOL0     H67831   4.613   6.242   8.855 -2.2564  0.3212 -0.9739
  492MOL0     H67832   4.553   6.367   8.743 -0.3417 -0.2175 -3.0166
  492MOL0     H67833   4.612   6.236   8.547  1.9069  0.6602 -0.4453
  492MOL0     H67834   4.709   6.119   8.646 -1.1948 -2.2795 -2.3205
  492MOL0     H67835   4.516   6.015   8.738  0.9683 -4.0339 -3.7038
  492MOL0     H67836   4.419   6.162   8.708  0.3617  0.5660  0.6702
  492MOL0     H67837   4.401   5.920   8.584 -0.4431 -1.2774 -2.5457
  492MOL0     H67838   4.524   5.979   8.479 -0.3182 -1.2490  0.6799
  492MOL0     H67839   4.278   6.148   8.526 -1.7192 -2.8119 -0.7489
  492MOL0     H67840   4.407   6.164   8.400 -0.1068  0.8436  0.9385
  492MOL0     H67841   4.172   5.959   8.421 -0.4326  1.1831  0.5440
  492MOL0     H67842   4.321   5.943   8.323  2.3498  0.1234  1.7700
  492MOL0     H67843   4.261   6.175   8.217  0.3714 -1.0933  0.7932
  492MOL0     H67844   4.127   6.053   8.193  0.3463 -2.0861  0.3885
  492MOL0     H67845   3.939   6.054   8.370  1.4208 -1.3452  2.0095
  492MOL0     H67846   3.764   6.194   8.566 -3.4112 -1.2034 -0.9762
  492MOL0     H67847   3.692   6.224   8.410 -0.2814  2.0157  0.5631
  492MOL0     H67848   3.790   6.440   8.638 -1.4609  2.2988 -0.6599
  492MOL0     H67849   3.725   6.479   8.488  7.0276  1.0417  0.9810
  492MOL0     H67850   3.527   6.354   8.554 -1.0790 -1.4005  1.9251
  492MOL0     H67851   3.594   6.273   8.686  1.5317 -1.6388 -2.7299
  492MOL0     H67852   3.559   6.575   8.674 -0.6204 -0.4918 -2.2933
  492MOL0     H67853   3.447   6.460   8.750 -0.2144  1.4787  0.0299
  492MOL0     H67854   3.472   6.298   8.935 -0.7500 -0.7615 -0.1588
  492MOL0     H67855   3.525   5.959   8.999 -0.8756 -0.1228 -0.8242
  492MOL0     H67856   3.420   6.089   8.980 -0.0016 -1.7726 -0.7458
  492MOL0     H67857   3.440   6.045   9.141  1.4326  4.4974  1.0920
  492MOL0     H67858   3.723   6.122   9.431 -1.9833  0.5823  1.7703
  492MOL0     H67859   3.727   6.039   9.658 -0.0374  0.5067 -0.2457
  492MOL0     H67860   3.714   5.581   9.728  2.7128  0.0693  0.9799
  492MOL0     H67861   3.741   5.659   9.879  2.1493 -1.2806 -1.4172
  492MOL0     H67862   3.488   5.768   9.827 -1.1508 -0.0430  0.9919
  492MOL0     H67863   3.493   5.645   9.705  1.1980  1.9449 -0.7708
  492MOL0     H67864   3.376   5.557   9.913  0.0994 -3.7930  1.9211
  492MOL0     H67865   3.509   5.571  10.012  0.9160  1.3759 -0.7716
  492MOL0     H67866   3.638   5.416   9.879 -0.2693 -0.6544 -0.2681
  492MOL0     H67867   3.522   5.390   9.761  0.4530  0.0884 -0.3175
  492MOL0     H67868   3.498   5.332  10.059 -4.2923 -0.0974  0.7402
  492MOL0     H67869   3.353   5.323   9.968 -1.0633 -1.0086  0.4378
  492MOL0     H67870   3.442   5.114  10.006 -0.0224  1.8268  1.3135
  492MOL0     H67871   3.595   5.151   9.915  1.1649  5.6888 -3.7299
  492MOL0     H67872   3.487   5.178   9.714  0.5162  0.8170  1.4373
  492MOL0     H67873   3.318   5.189   9.786  0.7409  1.8817  0.0715
  492MOL0     H67874   3.359   4.990   9.645  1.5748 -1.0539 -1.1591
  492MOL0     H67875   3.326   4.934   9.801  1.2911 -3.6826 -0.8330
  492MOL0     H67876   3.684   5.637   9.518  0.4425 -0.6296 -0.9720
  492MOL0     H67877   3.679   5.725   9.277  3.4480 -3.9957  0.4433
  492MOL0     H67878   3.940   6.234   9.047  1.2958 -4.3538 -4.1356
  492MOL0     H67879   3.868   6.409   8.901  0.1077 -0.0026  0.2081
  492MOL0     H67880   4.815   6.134   8.916 -3.6516 -0.2155  3.8291
  492MOL0     H67881   4.929   6.019   9.101 -0.8206 -0.3639  3.5998
  492MOL0     H67882   4.958   5.914   9.341  1.1057  0.5600 -0.9801
  492MOL0     H67883   4.943   5.731   9.526  2.3111 -3.1679  0.7835
  492MOL0     H67884   5.179   5.768   9.804  0.4741  0.4890 -2.9072
  492MOL0     H67885   5.080   5.638   9.829 -0.8891 -0.1942  0.4800
  492MOL0     H67886   5.376   5.629   9.793 -1.0285 -1.8227 -2.4256
  492MOL0     H67887   5.273   5.486   9.802 -1.0634  0.8912 -0.6911
  492MOL0     H67888   5.324   5.706  10.024  2.2269 -1.1806 -0.5764
  492MOL0     H67889   5.166   5.616  10.021  0.7777 -1.2408  1.0916
  492MOL0     H67890   5.414   5.461   9.995 -1.6114  0.1687 -1.4751
  492MOL0     H67891   5.267   5.417  10.079 -0.4774 -0.0235 -1.4433
  492MOL0     H67892   5.473   5.600  10.412  0.8919  1.4046 -0.2931
  492MOL0     H67893   5.362   5.763   9.572  2.4183  1.3758 -3.6654
  492MOL0     H67894   5.485   5.930   9.479 -0.1964 -0.6110 -2.5678
  492MOL0     H67895   5.419   6.004   9.328 -4.6491  0.9398 -1.5723
  492MOL0     H67896   5.405   6.083   9.489  0.8608 -1.2246  1.3983
  493MOL0     O67897   2.464  11.479   0.005  0.0949  0.3274  0.2430
  493MOL0     C67898   2.385  11.561  -0.047 -0.6521  0.2817  0.1568
  493MOL0     O67899   2.251  11.572  -0.010  1.3882 -0.3538 -0.4432
  493MOL0     C67900   2.191  11.516   0.105 -1.1520 -0.1447 -0.5717
  493MOL0     C67901   2.265  11.479   0.220 -0.2511 -0.2045  0.5641
  493MOL0     C67902   2.207  11.437   0.335  0.3648  0.0617 -0.8203
  493MOL0     C67903   2.068  11.431   0.344  0.1805 -0.2137 -0.9088
  493MOL0     O67904   2.002  11.420   0.470 -0.3039  0.1637 -0.0993
  493MOL0     C67905   1.880  11.481   0.499 -0.0317  0.2634 -0.2573
  493MOL0     C67906   1.896  11.548   0.645 -0.0490 -0.5576  0.4548
  493MOL0     C67907   1.754  11.582   0.700 -1.2128 -0.0579  0.2162
  493MOL0     C67908   1.754  11.624   0.844  0.6058 -0.4819 -0.3531
  493MOL0     C67909   1.611  11.629   0.900 -0.2957  0.0596 -0.5115
  493MOL0     C67910   1.534  11.758   0.848  0.6461 -0.0320 -0.1414
  493MOL0     C67911   1.414  11.792   0.934  0.0281 -0.1428 -0.2206
  493MOL0     C67912   1.451  11.901   1.046 -0.1009 -0.8204  0.0641
  493MOL0     N67913   1.334  11.959   1.130 -0.1127 -0.0268  0.0261
  493MOL0     C67914   1.314  11.932   1.270 -0.3367 -0.8475 -0.3919
  493MOL0     C67915   1.213  12.017   1.314 -0.3479 -0.1190  1.2175
  493MOL0     C67916   1.138  12.027   1.443 -0.9640  0.5909  0.2131
  493MOL0     C67917   1.239  12.081   1.554 -0.2498  0.0234 -1.4820
  493MOL0     C67918   1.148  12.139   1.669  0.5937 -0.0514 -0.3294
  493MOL0     C67919   1.218  12.145   1.803 -0.0230  1.5833 -0.7122
  493MOL0     O67920   1.291  12.021   1.839  0.4122  0.1676 -0.3580
  493MOL0     C67921   1.430  12.027   1.859 -0.4979  0.5749 -0.2787
  493MOL0     C67922   1.507  11.918   1.830 -0.2490 -0.0814  0.3430
  493MOL0     C67923   1.645  11.904   1.843 -0.3265  0.9601 -0.9672
  493MOL0     C67924   1.710  11.772   1.785  0.5998  0.4898  0.3967
  493MOL0     C67925   1.717  12.026   1.876  0.6360  0.8107 -0.4506
  493MOL0     C67926   1.860  12.028   1.872 -0.6178  0.8391  0.2315
  493MOL0     O67927   1.911  12.115   1.959 -0.5541 -0.5257  0.0175
  493MOL0     C67928   2.045  12.130   1.948  0.2086 -0.4961 -0.5897
  493MOL0     C67929   2.110  12.234   1.877 -0.7232  0.5420 -0.0997
  493MOL0     C67930   2.245  12.250   1.869  1.0892 -0.0624  0.2778
  493MOL0     C67931   2.324  12.177   1.949  0.2378 -0.2537  0.5301
  493MOL0     O67932   2.458  12.203   1.946  0.5004  0.3154 -0.5849
  493MOL0     C67933   2.531  12.200   2.071 -0.4550  0.9169  0.0451
  493MOL0     C67934   2.647  12.287   2.040 -0.2629  0.6016  0.9063
  493MOL0     C67935   2.699  12.292   1.889 -0.1113  0.3074  0.3732
  493MOL0     C67936   2.767  12.163   1.834  0.0374  0.4791 -0.8932
  493MOL0     C67937   2.780  12.167   1.681 -0.1469  0.4639  0.2463
  493MOL0     C67938   2.850  12.287   1.606 -0.0838 -0.1756  0.0498
  493MOL0     C67939   2.880  12.255   1.457  0.3718 -0.2800 -0.0515
  493MOL0     C67940   2.963  12.359   1.386  0.2504 -0.1747 -0.2226
  493MOL0    Cl67941   2.971  12.314   1.216  0.3491  0.2920 -0.3578
  493MOL0     C67942   2.268  12.087   2.039  0.4839  0.0545  0.0228
  493MOL0     C67943   2.131  12.063   2.041  0.4183 -0.6677 -0.0594
  493MOL0     O67944   1.920  11.952   1.791  0.3418  0.6455  0.0507
  493MOL0     C67945   1.642  12.142   1.921  0.9237  0.5776 -0.0643
  493MOL0     C67946   1.496  12.131   1.924 -0.5227 -0.3932  0.2491
  493MOL0     N67947   1.164  12.084   1.197  0.3349  0.1659 -0.3883
  493MOL0     N67948   1.235  12.052   1.093  0.6561  0.0836  0.5717
  493MOL0     C67949   1.991  11.470   0.236  0.0282 -0.1671  0.1997
  493MOL0     C67950   2.055  11.524   0.124 -0.2691  0.0068 -0.2390
  493MOL0     C67951   2.449  11.653  -0.155  1.0827  0.8057 -0.5017
  493MOL0     C67952   2.365  11.743  -0.224  0.1929  0.0907 -0.2280
  493MOL0     C67953   2.422  11.837  -0.315 -0.4005  0.4221  0.0451
  493MOL0     C67954   2.557  11.827  -0.358 -0.9020  0.0004 -0.3008
  493MOL0     O67955   2.588  11.908  -0.466  0.2647 -0.2092  1.1694
  493MOL0     C67956   2.728  11.915  -0.495  0.9570  0.5852 -0.7965
  493MOL0     C67957   2.762  11.992  -0.619 -0.0969 -0.3945  0.3950
  493MOL0     C67958   2.917  12.022  -0.643  0.5307 -0.5548 -0.2814
  493MOL0     C67959   3.016  11.911  -0.646  0.3507  0.3448  0.8909
  493MOL0     C67960   2.983  11.789  -0.726  0.1490  0.3975  0.1077
  493MOL0     C67961   2.935  11.711  -0.808 -0.3755  0.1187  0.7783
  493MOL0     C67962   2.631  11.727  -0.290 -0.4264 -0.0005  0.3297
  493MOL0     C67963   2.581  11.646  -0.193 -0.2860  0.0268 -0.0920
  493MOL0     C67964   2.684  11.543  -0.142  0.1365 -0.4031  0.5402
  493MOL0     H67965   2.371  11.502   0.224  0.0204 -1.1033 -0.7542
  493MOL0     H67966   2.266  11.416   0.423  2.5030 -0.6219 -2.3424
  493MOL0     H67967   1.793  11.416   0.482 -0.2064  1.0368 -2.8250
  493MOL0     H67968   1.856  11.561   0.428  1.4814  3.3843  2.4653
  493MOL0     H67969   1.940  11.477   0.716 -1.0679 -0.8727  0.7915
  493MOL0     H67970   1.969  11.630   0.639  1.9169 -2.3390 -1.9818
  493MOL0     H67971   1.715  11.660   0.634 -0.0967  1.8314  1.6764
  493MOL0     H67972   1.680  11.503   0.692  0.3007 -1.5754  0.6705
  493MOL0     H67973   1.815  11.561   0.910  0.9359  4.0520  4.2508
  493MOL0     H67974   1.793  11.726   0.836  0.2984 -0.5016 -4.4829
  493MOL0     H67975   1.627  11.632   1.008  1.6840 -2.4670 -0.6347
  493MOL0     H67976   1.542  11.547   0.877 -0.5535  0.5406 -1.5065
  493MOL0     H67977   1.596  11.848   0.849 -1.0418  1.5673 -5.5149
  493MOL0     H67978   1.506  11.750   0.743 -4.3423 -0.4639  0.9783
  493MOL0     H67979   1.369  11.699   0.970  0.9835 -1.2339 -1.7014
  493MOL0     H67980   1.338  11.834   0.867  1.2614 -0.3149 -1.8005
  493MOL0     H67981   1.533  11.865   1.108  2.4275 -0.9665 -3.0995
  493MOL0     H67982   1.487  11.985   0.986  1.6262 -1.7210 -0.2076
  493MOL0     H67983   1.369  11.859   1.328  0.3817  0.3612  0.4847
  493MOL0     H67984   1.107  11.928   1.478  2.5230 -0.0661  1.8330
  493MOL0     H67985   1.055  12.098   1.442 -0.1640  1.5417 -0.6883
  493MOL0     H67986   1.311  12.011   1.597 -1.8592  0.1529  1.7309
  493MOL0     H67987   1.295  12.166   1.515 -0.1978  1.0170  0.6400
  493MOL0     H67988   1.113  12.240   1.645  4.9994  2.1637  1.5059
  493MOL0     H67989   1.071  12.061   1.667  0.7257 -0.1939  0.0692
  493MOL0     H67990   1.296  12.220   1.790  1.0437  0.7514  0.6468
  493MOL0     H67991   1.148  12.169   1.884  1.7522 -1.4412  1.9352
  493MOL0     H67992   1.455  11.827   1.800  0.5593 -0.6954  0.7686
  493MOL0     H67993   1.640  11.688   1.778  0.2065  0.9348 -1.8754
  493MOL0     H67994   1.799  11.734   1.837  2.3095 -0.3523 -2.8297
  493MOL0     H67995   1.722  11.792   1.678 -2.4006  0.0360 -0.1234
  493MOL0     H67996   2.061  12.317   1.826 -1.9448 -0.7009 -0.9991
  493MOL0     H67997   2.294  12.326   1.809  0.4270 -0.4282 -0.7532
  493MOL0     H67998   2.468  12.243   2.149 -2.6260 -2.0699  0.1272
  493MOL0     H67999   2.556  12.100   2.106 -1.3838  1.0097  1.0273
  493MOL0     H68000   2.618  12.387   2.073 -1.6182  1.7020 -3.0931
  493MOL0     H68001   2.732  12.258   2.103 -0.1571  2.0676  1.4729
  493MOL0     H68002   2.778  12.366   1.904  0.5975 -0.0599 -1.3488
  493MOL0     H68003   2.627  12.326   1.814  2.3747  2.1779 -1.3242
  493MOL0     H68004   2.694  12.085   1.857 -0.7764  1.3264 -0.5244
  493MOL0     H68005   2.865  12.144   1.878  0.0056 -0.4864 -1.2304
  493MOL0     H68006   2.830  12.074   1.652 -0.6454 -0.0987  1.1361
  493MOL0     H68007   2.677  12.153   1.647 -1.5572  0.6108  3.9933
  493MOL0     H68008   2.935  12.321   1.666  1.5101 -0.8093 -1.7242
  493MOL0     H68009   2.790  12.378   1.612  0.4674  0.1248  1.3767
  493MOL0     H68010   2.787  12.232   1.404  0.3726 -5.4800  1.6759
  493MOL0     H68011   2.931  12.159   1.468 -0.3203 -0.5166  1.3439
  493MOL0     H68012   3.063  12.350   1.431 -0.5297 -1.0889  1.4147
  493MOL0     H68013   2.922  12.460   1.386 -1.9614 -0.8617 -4.2629
  493MOL0     H68014   2.333  12.040   2.113  1.9834  3.2170  0.8638
  493MOL0     H68015   2.086  12.004   2.120 -3.5214 -0.5190 -1.9391
  493MOL0     H68016   1.697  12.225   1.963 -0.9243  0.7654  2.1902
  493MOL0     H68017   1.433  12.208   1.967  1.1974  0.8557  0.6376
  493MOL0     H68018   1.883  11.474   0.236 -0.1621 -2.9061  0.7628
  493MOL0     H68019   2.009  11.550   0.028 -0.0405 -4.1557 -1.6957
  493MOL0     H68020   2.259  11.750  -0.202 -0.8913 -2.5547 -3.7601
  493MOL0     H68021   2.364  11.923  -0.349  1.0514  1.5614  0.3203
  493MOL0     H68022   2.775  11.947  -0.402  0.3368 -1.3679  0.2580
  493MOL0     H68023   2.753  11.812  -0.524 -2.0756 -0.1334 -1.2048
  493MOL0     H68024   2.716  12.091  -0.615  3.2829  1.3626 -0.2269
  493MOL0     H68025   2.724  11.940  -0.708  2.9066 -3.5175  0.7000
  493MOL0     H68026   2.939  12.084  -0.730  1.1113 -1.7835 -1.0231
  493MOL0     H68027   2.957  12.088  -0.565  0.7348 -0.9745 -0.0313
  493MOL0     H68028   3.040  11.890  -0.541  3.5041 -0.1886  0.1778
  493MOL0     H68029   3.107  11.952  -0.690  1.4219 -0.9719  1.7874
  493MOL0     H68030   2.869  11.638  -0.850  0.7082 -1.2776  1.4207
  493MOL0     H68031   2.728  11.701  -0.330 -1.3677 -2.7053 -0.4057
  493MOL0     H68032   2.696  11.557  -0.034  1.1804  0.5337  0.3181
  493MOL0     H68033   2.650  11.446  -0.180  0.5076  0.5015 -2.3361
  493MOL0     H68034   2.779  11.557  -0.194 -1.1145  1.9489 -1.2728
  494MOL0     O68035   4.518   9.297   6.862 -0.9537 -0.0651 -0.2595
  494MOL0     C68036   4.416   9.336   6.804  1.5437 -1.0267  0.1791
  494MOL0     O68037   4.335   9.257   6.721  0.0275 -0.1256 -0.2303
  494MOL0     C68038   4.369   9.121   6.707  0.0377  0.1848 -0.1685
  494MOL0     C68039   4.401   9.079   6.579 -0.4862  0.2492  0.5708
  494MOL0     C68040   4.479   8.966   6.568 -0.5849  0.0682 -0.3673
  494MOL0     C68041   4.490   8.872   6.678 -0.3388 -0.5702 -0.4510
  494MOL0     O68042   4.553   8.753   6.634  0.0034 -0.1186  0.2969
  494MOL0     C68043   4.580   8.652   6.734 -0.7997  0.6084 -0.2933
  494MOL0     C68044   4.644   8.530   6.679 -0.3168 -1.0580  0.8942
  494MOL0     C68045   4.543   8.423   6.621  0.0482 -0.6736 -0.6475
  494MOL0     C68046   4.454   8.471   6.503 -0.3612 -0.4791 -0.5625
  494MOL0     C68047   4.535   8.478   6.380  0.1024  0.7771  0.6995
  494MOL0     C68048   4.451   8.536   6.266  0.7161  0.3143 -0.5790
  494MOL0     C68049   4.490   8.504   6.129 -0.1082  0.5439  0.5011
  494MOL0     C68050   4.617   8.586   6.085 -0.3599 -0.1594 -0.7096
  494MOL0     N68051   4.599   8.731   6.096  0.1264 -1.4616  0.2496
  494MOL0     C68052   4.676   8.817   6.170  0.0763  0.4757 -0.0523
  494MOL0     C68053   4.620   8.935   6.146 -0.0790  0.4542 -0.3260
  494MOL0     C68054   4.648   9.075   6.199  0.6165  1.5308  0.1743
  494MOL0     C68055   4.761   9.094   6.302 -0.4383 -0.5149 -1.6359
  494MOL0     C68056   4.757   9.235   6.374 -0.2559 -0.3449  0.0448
  494MOL0     C68057   4.887   9.264   6.455  0.1858  0.3399 -0.7433
  494MOL0     O68058   4.883   9.416   6.475 -0.7735 -0.0220  0.2481
  494MOL0     C68059   4.892   9.460   6.603  0.1255  0.1976  0.2079
  494MOL0     C68060   4.999   9.422   6.692 -0.3728 -1.3128  0.3474
  494MOL0     C68061   5.008   9.473   6.820 -0.0327  0.0731 -0.1612
  494MOL0     C68062   5.125   9.429   6.911  0.3023 -0.0352 -0.2224
  494MOL0     C68063   4.912   9.559   6.865  0.4382  0.1641 -0.8398
  494MOL0     C68064   4.895   9.609   7.007  0.6225 -0.3386  0.1860
  494MOL0     O68065   4.872   9.513   7.102  0.2565 -0.6224  0.2998
  494MOL0     C68066   4.872   9.552   7.234 -0.0915 -0.0751 -0.0557
  494MOL0     C68067   4.778   9.645   7.291 -0.2634  0.4877 -0.0522
  494MOL0     C68068   4.786   9.694   7.425 -0.7622  0.2226  0.0284
  494MOL0     C68069   4.889   9.642   7.503  0.2528 -0.2229 -0.3877
  494MOL0     O68070   4.908   9.668   7.638  0.9788 -0.0151 -0.4654
  494MOL0     C68071   4.882   9.804   7.680  0.0302  1.1402  0.2633
  494MOL0     C68072   4.912   9.817   7.830  0.2823  0.6741 -0.1460
  494MOL0     C68073   4.795   9.751   7.908  0.0692 -0.3119  0.1944
  494MOL0     C68074   4.835   9.743   8.053 -1.2221 -0.0438  0.4345
  494MOL0     C68075   4.906   9.603   8.074 -0.4565 -0.7144 -0.2502
  494MOL0     C68076   4.951   9.600   8.220 -0.1376 -0.8188  0.2948
  494MOL0     C68077   4.997   9.727   8.291 -0.0258  0.1326  0.2619
  494MOL0     C68078   5.079   9.707   8.417  0.8625 -0.2335  0.4416
  494MOL0    Cl68079   5.095   9.853   8.507  0.5656  0.3384  0.1721
  494MOL0     C68080   4.985   9.553   7.446 -0.4207 -0.2328  0.2739
  494MOL0     C68081   4.975   9.495   7.312 -0.2089 -0.9482  0.4705
  494MOL0     O68082   4.901   9.729   7.030 -0.4856  0.2644 -1.3899
  494MOL0     C68083   4.801   9.594   6.782  0.3715  0.0554 -0.0081
  494MOL0     C68084   4.791   9.542   6.656 -0.1954  0.5846  1.0290
  494MOL0     N68085   4.510   8.920   6.066 -0.5961  0.7995  0.1320
  494MOL0     N68086   4.502   8.799   6.028 -0.1913 -0.0191  0.7005
  494MOL0     C68087   4.448   8.910   6.803 -0.0211  1.3804 -1.0495
  494MOL0     C68088   4.372   9.030   6.821 -0.5590 -1.0646  0.8403
  494MOL0     C68089   4.389   9.486   6.788  0.7504  0.2547 -0.4459
  494MOL0     C68090   4.320   9.528   6.678 -0.7956 -0.3783 -0.9331
  494MOL0     C68091   4.286   9.662   6.657 -0.0139  0.1471 -0.2188
  494MOL0     C68092   4.323   9.759   6.757  0.4918 -0.9342  0.4329
  494MOL0     O68093   4.294   9.897   6.741 -0.2974 -0.3511 -0.3407
  494MOL0     C68094   4.202   9.937   6.640 -0.4013 -0.3724 -0.8798
  494MOL0     C68095   4.191  10.088   6.665  1.0298 -1.1300 -0.2292
  494MOL0     C68096   4.124  10.127   6.800 -0.4561 -0.2237  0.3456
  494MOL0     C68097   4.143  10.279   6.819  1.0734  0.1351 -0.6942
  494MOL0     C68098   4.280  10.302   6.864  0.5386  0.5026 -0.7302
  494MOL0     C68099   4.391  10.323   6.912  0.6203 -0.2630  0.3966
  494MOL0     C68100   4.399   9.729   6.860 -0.0480  0.7074 -0.0505
  494MOL0     C68101   4.445   9.594   6.880 -1.3468 -0.8303 -0.3867
  494MOL0     C68102   4.512   9.552   7.007 -0.0912 -0.0016  0.3500
  494MOL0     H68103   4.377   9.147   6.498 -0.7205  0.6932  1.0008
  494MOL0     H68104   4.518   8.920   6.478 -0.5309 -0.4532 -0.0802
  494MOL0     H68105   4.496   8.617   6.795 -1.6595  2.2197 -0.5038
  494MOL0     H68106   4.649   8.695   6.807 -1.7833 -2.5511  2.7778
  494MOL0     H68107   4.713   8.564   6.602 -2.6747 -1.6963 -1.6499
  494MOL0     H68108   4.699   8.482   6.761  0.2676 -3.1026 -0.6179
  494MOL0     H68109   4.607   8.344   6.581  3.4059  2.3625 -1.7937
  494MOL0     H68110   4.475   8.381   6.696 -1.0313  0.1946 -1.1118
  494MOL0     H68111   4.366   8.406   6.506 -1.7859  1.4228  1.4965
  494MOL0     H68112   4.420   8.573   6.520 -1.0021 -0.7755 -0.0262
  494MOL0     H68113   4.583   8.382   6.358  2.2111  1.9144  0.0076
  494MOL0     H68114   4.616   8.552   6.386  0.7037  0.0582  1.6016
  494MOL0     H68115   4.351   8.495   6.280 -0.1810  2.4864 -0.1323
  494MOL0     H68116   4.444   8.642   6.293 -3.2595 -0.8442  4.5159
  494MOL0     H68117   4.407   8.536   6.065  0.0817  0.1911  0.0774
  494MOL0     H68118   4.507   8.398   6.113 -0.4336  0.4070  1.0228
  494MOL0     H68119   4.702   8.565   6.152 -0.9155 -0.3841 -0.0626
  494MOL0     H68120   4.658   8.555   5.989  0.5438 -2.2938  0.2771
  494MOL0     H68121   4.750   8.791   6.245 -0.2181 -0.0547  0.0583
  494MOL0     H68122   4.552   9.109   6.237 -0.9069 -1.2704 -0.8619
  494MOL0     H68123   4.678   9.144   6.120  0.3792  0.8829 -0.4932
  494MOL0     H68124   4.754   9.020   6.382 -2.5153 -0.4309 -1.6755
  494MOL0     H68125   4.858   9.071   6.257  0.4516 -0.4998  0.2127
  494MOL0     H68126   4.741   9.309   6.296 -0.1996 -0.9660 -0.5629
  494MOL0     H68127   4.672   9.241   6.443  0.3460 -0.2418  0.7881
  494MOL0     H68128   4.884   9.216   6.553 -2.4047  0.9443 -0.4546
  494MOL0     H68129   4.982   9.239   6.406  1.0492  1.3792  0.3550
  494MOL0     H68130   5.078   9.356   6.657  0.5193 -0.5170  0.8164
  494MOL0     H68131   5.125   9.322   6.937 -2.3022 -0.3992 -1.4802
  494MOL0     H68132   5.131   9.471   7.012  1.1656 -2.5515  0.8777
  494MOL0     H68133   5.217   9.457   6.858 -1.5349  0.8454 -3.1552
  494MOL0     H68134   4.683   9.668   7.244 -0.5487  0.1709  0.3583
  494MOL0     H68135   4.708   9.756   7.468  0.1877 -1.3500  4.5950
  494MOL0     H68136   4.949   9.865   7.619 -0.5447 -0.1634 -1.7508
  494MOL0     H68137   4.775   9.819   7.661 -0.2930 -0.8704  0.3020
  494MOL0     H68138   5.013   9.779   7.849 -0.1674  0.6197  2.6854
  494MOL0     H68139   4.912   9.923   7.858 -1.5465  0.8068 -0.5358
  494MOL0     H68140   4.756   9.657   7.868  5.2381 -2.2270 -1.1187
  494MOL0     H68141   4.712   9.822   7.895 -1.5450 -2.0329  0.6593
  494MOL0     H68142   4.743   9.745   8.113 -1.3450 -2.1257  0.3739
  494MOL0     H68143   4.903   9.824   8.080  1.0979 -1.1360 -1.8058
  494MOL0     H68144   4.838   9.520   8.054 -0.1831 -0.9148 -0.3518
  494MOL0     H68145   4.996   9.598   8.012 -0.2618  0.3906 -0.0849
  494MOL0     H68146   5.035   9.530   8.215  2.1363  1.7155  0.2892
  494MOL0     H68147   4.868   9.559   8.278  0.0743  0.4335  1.5410
  494MOL0     H68148   4.905   9.783   8.313  0.2249  0.4166  0.5987
  494MOL0     H68149   5.062   9.793   8.234 -0.6693 -0.8139 -1.6528
  494MOL0     H68150   5.171   9.652   8.395 -1.6302 -3.4022 -3.4419
  494MOL0     H68151   5.027   9.641   8.487  1.0156 -1.4696 -0.5661
  494MOL0     H68152   5.063   9.522   7.514  0.8811  2.3959  0.0812
  494MOL0     H68153   5.038   9.419   7.267 -0.2981 -1.5499  1.3667
  494MOL0     H68154   4.730   9.661   6.828 -1.5674 -2.6507  1.2622
  494MOL0     H68155   4.712   9.577   6.589 -1.2976  0.5602  2.2744
  494MOL0     H68156   4.458   8.845   6.890 -0.3682  1.5946 -0.8480
  494MOL0     H68157   4.338   9.063   6.919  1.8465 -0.0584  1.4079
  494MOL0     H68158   4.302   9.459   6.597 -0.5569 -0.6662 -0.7420
  494MOL0     H68159   4.241   9.688   6.562  2.7493  0.4540 -1.5453
  494MOL0     H68160   4.227   9.910   6.537 -0.8665  0.7860 -1.3112
  494MOL0     H68161   4.104   9.896   6.665 -0.3861  0.8071  1.4118
  494MOL0     H68162   4.125  10.130   6.590  0.1878 -2.7038 -0.4019
  494MOL0     H68163   4.295  10.115   6.642  0.0825  0.6565 -2.8345
  494MOL0     H68164   4.018  10.102   6.795 -0.1302 -1.4209 -2.3460
  494MOL0     H68165   4.158  10.072   6.888  2.5474  0.0974 -0.5079
  494MOL0     H68166   4.073  10.318   6.894  2.2385 -0.5786  0.8069
  494MOL0     H68167   4.112  10.347   6.740  0.7772  2.6012  1.4037
  494MOL0     H68168   4.492  10.344   6.942  0.8542  0.8228 -1.0560
  494MOL0     H68169   4.418   9.814   6.925 -1.7037  1.4411 -0.4844
  494MOL0     H68170   4.461   9.467   7.052 -1.1630  1.8091  2.7346
  494MOL0     H68171   4.615   9.531   6.977 -0.5357 -0.7568 -0.7430
  494MOL0     H68172   4.518   9.640   7.070 -2.4701  3.7076 -3.9607
  495MOL0     O68173   0.130   8.213   0.220 -0.2185  0.1481  0.1311
  495MOL0     C68174   0.179   8.263   0.125 -0.3823  0.1972  0.1218
  495MOL0     O68175   0.299   8.326   0.121 -0.0844 -0.2637  0.2513
  495MOL0     C68176   0.338   8.385   0.243  0.1290  1.1860  0.0897
  495MOL0     C68177   0.277   8.491   0.308  0.0849 -0.8328  0.9982
  495MOL0     C68178   0.332   8.548   0.429 -0.2778  0.4704 -0.2221
  495MOL0     C68179   0.456   8.496   0.480 -0.7760  0.4532 -1.0327
  495MOL0     O68180   0.521   8.544   0.596 -0.1628 -0.7488 -0.1409
  495MOL0     C68181   0.425   8.589   0.692 -0.4827  0.2855 -0.6204
  495MOL0     C68182   0.492   8.570   0.832 -0.1802 -1.0203 -0.0225
  495MOL0     C68183   0.417   8.481   0.934 -0.0377 -0.4150  0.2475
  495MOL0     C68184   0.285   8.541   0.964  0.2563  0.9876  0.5378
  495MOL0     C68185   0.207   8.436   1.038 -0.1418  0.1515 -0.1930
  495MOL0     C68186   0.063   8.483   1.058 -0.2610 -0.6249  0.5720
  495MOL0     C68187  -0.012   8.399   1.160 -0.2369  0.2339  0.4629
  495MOL0     C68188  -0.142   8.464   1.203 -0.2344  0.2609 -0.5294
  495MOL0     N68189  -0.116   8.554   1.306  0.9030 -0.9158 -0.8762
  495MOL0     C68190  -0.126   8.695   1.297 -0.6344  1.6169 -0.5380
  495MOL0     C68191  -0.137   8.726   1.421  0.6279  0.4961 -0.8506
  495MOL0     C68192  -0.127   8.861   1.469  0.0800  0.2582 -0.1517
  495MOL0     C68193   0.006   8.925   1.476  0.0937  0.2255 -0.4099
  495MOL0     C68194   0.004   9.059   1.565  0.5031  0.1234 -0.3237
  495MOL0     C68195   0.147   9.110   1.595  0.1497  0.0414 -0.0003
  495MOL0     O68196   0.196   9.193   1.482  0.6283  0.0213  0.2175
  495MOL0     C68197   0.319   9.247   1.486  0.3611  0.3490  0.5444
  495MOL0     C68198   0.431   9.183   1.537  0.0230 -0.4010 -0.3522
  495MOL0     C68199   0.561   9.241   1.526  0.1146 -0.2170  0.2643
  495MOL0     C68200   0.662   9.150   1.591 -0.2398  0.6915  0.1463
  495MOL0     C68201   0.567   9.379   1.475  0.0593 -0.0028  0.8182
  495MOL0     C68202   0.701   9.460   1.470  0.4347 -0.7214  0.4446
  495MOL0     O68203   0.707   9.590   1.431  0.4313 -0.9530  0.2825
  495MOL0     C68204   0.818   9.659   1.475 -0.3739 -0.8553  0.2324
  495MOL0     C68205   0.940   9.647   1.402  0.9397 -0.1992 -0.4347
  495MOL0     C68206   1.054   9.710   1.451  0.3022  0.3483  0.5436
  495MOL0     C68207   1.062   9.785   1.569  0.9994  0.7079  0.1543
  495MOL0     O68208   1.186   9.824   1.600 -0.3783 -0.3199 -0.6279
  495MOL0     C68209   1.213   9.900   1.722 -1.0279 -0.4471  0.1002
  495MOL0     C68210   1.362   9.923   1.718 -0.3234  0.4134  0.0586
  495MOL0     C68211   1.444   9.831   1.808 -0.3479 -0.6615  0.6272
  495MOL0     C68212   1.407   9.838   1.961 -0.3030 -0.8829  0.2896
  495MOL0     C68213   1.468   9.731   2.040  0.4256  0.7106 -0.3206
  495MOL0     C68214   1.435   9.588   1.994  0.0451  0.3797 -1.7614
  495MOL0     C68215   1.551   9.526   1.910 -0.5031 -1.0076  0.1813
  495MOL0     C68216   1.543   9.378   1.921 -0.2045 -1.3566  0.7203
  495MOL0    Cl68217   1.680   9.305   1.847 -0.0033 -0.0658 -0.5536
  495MOL0     C68218   0.940   9.811   1.636 -0.0653  0.0579 -0.3524
  495MOL0     C68219   0.822   9.755   1.585 -0.0666 -0.4027 -0.1402
  495MOL0     O68220   0.797   9.394   1.512  0.2933  0.8693  0.1273
  495MOL0     C68221   0.451   9.430   1.414 -0.4495 -0.2990  0.4999
  495MOL0     C68222   0.326   9.370   1.426 -0.8194 -0.3334 -0.4117
  495MOL0     N68223  -0.132   8.618   1.509 -0.7715  0.3916 -0.2216
  495MOL0     N68224  -0.130   8.509   1.438 -0.1545  0.4269  0.2278
  495MOL0     C68225   0.519   8.396   0.410 -0.4032  0.1193 -0.1027
  495MOL0     C68226   0.459   8.338   0.295  0.5518 -1.0376 -0.1398
  495MOL0     C68227   0.102   8.238   0.003 -0.6341 -0.1349 -0.1211
  495MOL0     C68228   0.029   8.119  -0.014  0.1734 -0.3867 -0.5368
  495MOL0     C68229  -0.044   8.087  -0.130 -0.0152  0.3346 -0.0994
  495MOL0     C68230  -0.044   8.181  -0.230 -0.2081  0.8138  0.2995
  495MOL0     O68231  -0.107   8.137  -0.344  0.4246 -0.5012  0.0640
  495MOL0     C68232  -0.093   8.217  -0.466 -0.1043  0.1996  0.2786
  495MOL0     C68233   0.047   8.221  -0.532  0.1875 -0.6453 -0.7047
  495MOL0     C68234   0.125   8.089  -0.536 -0.0492  0.3864 -1.2286
  495MOL0     C68235   0.034   7.974  -0.585 -1.2130 -0.0603 -0.9265
  495MOL0     C68236   0.119   7.871  -0.642 -0.7223 -0.2500  0.6569
  495MOL0     C68237   0.191   7.795  -0.704 -0.3983  0.8328 -0.2278
  495MOL0     C68238   0.033   8.295  -0.218  1.3218 -0.9443  1.0215
  495MOL0     C68239   0.119   8.326  -0.109  0.6733  0.0580  0.3760
  495MOL0     C68240   0.204   8.450  -0.110 -0.4342  0.0924  0.1138
  495MOL0     H68241   0.189   8.543   0.270  0.2007 -1.9439 -0.9276
  495MOL0     H68242   0.278   8.628   0.478 -4.3441 -2.6722  1.0509
  495MOL0     H68243   0.335   8.528   0.691 -0.1351 -0.2353 -0.9386
  495MOL0     H68244   0.397   8.694   0.680  4.1224  1.6006 -2.0340
  495MOL0     H68245   0.595   8.536   0.820  0.7996  1.7882 -0.2504
  495MOL0     H68246   0.507   8.667   0.879  2.6681 -1.4221  0.1088
  495MOL0     H68247   0.408   8.379   0.895 -3.0472 -0.5446  1.0942
  495MOL0     H68248   0.472   8.475   1.029  0.7258  2.7576  0.1268
  495MOL0     H68249   0.301   8.632   1.021  0.4445 -0.0194  2.1505
  495MOL0     H68250   0.219   8.554   0.877 -1.3324 -1.1270  1.3484
  495MOL0     H68251   0.258   8.415   1.133 -0.3158 -3.6424 -0.8006
  495MOL0     H68252   0.205   8.339   0.988 -0.6406  0.4094 -0.6906
  495MOL0     H68253   0.062   8.584   1.100 -3.6037 -0.3709  0.1889
  495MOL0     H68254   0.015   8.507   0.963 -0.8096  1.6912  1.3705
  495MOL0     H68255   0.048   8.379   1.249  0.8991  0.5052 -0.2230
  495MOL0     H68256  -0.031   8.305   1.107 -0.2019  1.0635 -1.0851
  495MOL0     H68257  -0.193   8.513   1.119 -0.9680 -1.5882 -1.2079
  495MOL0     H68258  -0.217   8.394   1.241 -0.3692  0.6567 -0.0583
  495MOL0     H68259  -0.119   8.747   1.202 -0.3386  0.2115 -1.3188
  495MOL0     H68260  -0.180   8.861   1.565  0.0884  1.6465 -0.1314
  495MOL0     H68261  -0.182   8.920   1.395  0.9245 -0.1600 -1.1437
  495MOL0     H68262   0.070   8.849   1.521 -0.7919  0.2029  0.8699
  495MOL0     H68263   0.051   8.952   1.380  0.8516  0.9142  0.1235
  495MOL0     H68264  -0.063   9.131   1.517 -0.9116  0.7028  2.3251
  495MOL0     H68265  -0.051   9.027   1.654 -2.8889  1.4661 -1.7886
  495MOL0     H68266   0.150   9.160   1.692  2.8771 -0.7929  0.4422
  495MOL0     H68267   0.213   9.024   1.612 -1.9612 -1.6409  0.1785
  495MOL0     H68268   0.411   9.084   1.575 -1.3953 -0.2767 -0.7427
  495MOL0     H68269   0.745   9.142   1.521 -0.2829  1.2300  0.0316
  495MOL0     H68270   0.628   9.047   1.607 -1.3588 -0.0142 -5.0160
  495MOL0     H68271   0.703   9.196   1.682  0.4985 -0.4272  0.4074
  495MOL0     H68272   0.946   9.598   1.306  2.1257 -2.5798  0.7844
  495MOL0     H68273   1.140   9.722   1.386  0.0107 -0.6092 -0.0412
  495MOL0     H68274   1.155   9.993   1.724 -0.8334 -0.3330  1.7871
  495MOL0     H68275   1.191   9.833   1.806  0.6255 -3.0617 -1.4331
  495MOL0     H68276   1.395   9.911   1.614 -0.5034  0.9712 -0.0664
  495MOL0     H68277   1.386  10.027   1.743  0.4101 -0.0522  1.3818
  495MOL0     H68278   1.545   9.873   1.809 -0.4809 -0.0029 -2.8809
  495MOL0     H68279   1.464   9.732   1.767 -1.4743 -0.6210 -0.0711
  495MOL0     H68280   1.301   9.853   1.985 -0.3733 -2.8088  1.3738
  495MOL0     H68281   1.449   9.933   1.996 -0.3234 -0.9200  0.4135
  495MOL0     H68282   1.575   9.750   2.039  0.2896  1.4672 -1.1075
  495MOL0     H68283   1.443   9.755   2.144  0.0741  3.4988 -0.9786
  495MOL0     H68284   1.338   9.580   1.945 -1.2143 -0.8925  0.7285
  495MOL0     H68285   1.427   9.545   2.095 -2.3168  2.3169 -1.0311
  495MOL0     H68286   1.646   9.554   1.957  0.3150 -2.0401 -0.7837
  495MOL0     H68287   1.552   9.559   1.805  0.7045 -0.3218  0.3824
  495MOL0     H68288   1.459   9.360   1.852  0.7576 -0.2948 -0.7867
  495MOL0     H68289   1.516   9.346   2.022  0.5599  0.4961  1.5585
  495MOL0     H68290   0.953   9.875   1.722  3.9083 -0.6585 -0.2285
  495MOL0     H68291   0.733   9.784   1.640 -1.0737 -0.4969 -1.6365
  495MOL0     H68292   0.463   9.520   1.354 -2.1838  0.6198  1.4859
  495MOL0     H68293   0.238   9.418   1.385 -0.1050  2.2180  0.8376
  495MOL0     H68294   0.617   8.363   0.442  0.9825  2.8407 -1.2368
  495MOL0     H68295   0.517   8.274   0.229  3.9170  2.4133 -0.8582
  495MOL0     H68296   0.031   8.048   0.068 -0.3803  0.9699  0.6919
  495MOL0     H68297  -0.092   7.990  -0.125  1.7381 -0.5197  1.6715
  495MOL0     H68298  -0.162   8.161  -0.530  0.5453 -2.0615  1.4758
  495MOL0     H68299  -0.139   8.314  -0.446  0.0208  0.1921  0.5954
  495MOL0     H68300   0.119   8.282  -0.475 -0.4841 -0.3939 -0.1137
  495MOL0     H68301   0.035   8.269  -0.629  2.0470  0.9798 -0.2186
  495MOL0     H68302   0.211   8.102  -0.603  0.0483  3.0380 -0.7213
  495MOL0     H68303   0.154   8.067  -0.433 -0.4737 -0.3583 -1.2687
  495MOL0     H68304  -0.038   8.005  -0.661 -1.5737 -0.6748 -0.8421
  495MOL0     H68305  -0.019   7.933  -0.499 -0.7167 -1.4967 -1.2831
  495MOL0     H68306   0.260   7.728  -0.752 -1.8999  1.0063 -2.8226
  495MOL0     H68307   0.025   8.371  -0.294 -0.5328  0.0736  2.1609
  495MOL0     H68308   0.311   8.429  -0.106  0.1475  0.1840 -5.5517
  495MOL0     H68309   0.198   8.499  -0.208  1.8886 -0.5390 -0.4050
  495MOL0     H68310   0.172   8.514  -0.028 -0.3758  0.2948 -0.0218
  496MOL0     O68311  10.928   2.828   2.098 -0.5050 -1.0250  0.5012
  496MOL0     C68312  11.003   2.815   2.196  0.8912 -0.8937 -0.0776
  496MOL0     O68313  11.011   2.699   2.262  0.4631 -0.1348  0.6369
  496MOL0     C68314  10.899   2.611   2.241 -0.2821 -0.0947  0.2485
  496MOL0     C68315  10.769   2.636   2.294 -0.4978 -0.0098 -0.6690
  496MOL0     C68316  10.671   2.548   2.271  0.2692 -0.0023 -0.3658
  496MOL0     C68317  10.693   2.431   2.204 -0.3025  0.4024 -0.8494
  496MOL0     O68318  10.575   2.357   2.181  0.2668  1.1055 -0.3985
  496MOL0     C68319  10.576   2.219   2.224 -0.8243 -0.0136 -0.0050
  496MOL0     C68320  10.562   2.208   2.378 -0.7609 -0.0482  0.0245
  496MOL0     C68321  10.434   2.265   2.422  1.2759  0.3231  0.4474
  496MOL0     C68322  10.396   2.196   2.544  0.0878  0.2729 -0.3365
  496MOL0     C68323  10.261   2.239   2.599  0.7627  0.4408  0.5943
  496MOL0     C68324  10.231   2.202   2.748  0.0678  0.6942 -0.1474
  496MOL0     C68325  10.107   2.275   2.803 -0.5047  0.1816 -0.6468
  496MOL0     C68326   9.974   2.224   2.731 -0.7080  0.3191 -0.2341
  496MOL0     N68327   9.861   2.313   2.762  0.9106  0.7377 -0.7197
  496MOL0     C68328   9.784   2.288   2.876 -0.2540  0.1098  0.5750
  496MOL0     C68329   9.681   2.363   2.853  0.4292  0.5253  0.4705
  496MOL0     C68330   9.576   2.389   2.955 -0.3938  0.0521 -0.6412
  496MOL0     C68331   9.626   2.523   3.031 -0.1290  0.8192  0.5228
  496MOL0     C68332   9.514   2.630   3.043 -0.7706  0.1101 -0.1150
  496MOL0     C68333   9.579   2.767   3.064 -0.1262  1.5496 -0.5220
  496MOL0     O68334   9.451   2.824   3.103  0.1393 -0.3219 -0.0250
  496MOL0     C68335   9.432   2.947   3.155 -0.3393  0.3876  0.4671
  496MOL0     C68336   9.536   3.046   3.152  0.9544 -0.4248 -0.5789
  496MOL0     C68337   9.505   3.178   3.198 -0.5963  0.1170  0.5971
  496MOL0     C68338   9.620   3.279   3.196 -0.0163 -0.3764 -0.3425
  496MOL0     C68339   9.368   3.208   3.238 -0.5626 -0.1606 -0.1185
  496MOL0     C68340   9.301   3.343   3.242  0.1822 -0.0096 -0.0961
  496MOL0     O68341   9.379   3.450   3.206 -0.7130 -0.6601  0.2163
  496MOL0     C68342   9.343   3.582   3.221  0.5081  0.7151 -0.4613
  496MOL0     C68343   9.446   3.667   3.234 -0.6064 -0.4125 -0.4888
  496MOL0     C68344   9.428   3.804   3.240  0.0390 -0.6230 -0.4398
  496MOL0     C68345   9.299   3.859   3.218 -0.0243  0.7488  0.2037
  496MOL0     O68346   9.298   3.991   3.199 -0.3200  0.8402 -0.0010
  496MOL0     C68347   9.175   4.072   3.195 -0.3724 -0.7553  0.8256
  496MOL0     C68348   9.187   4.189   3.101 -0.4707 -0.5012  0.7810
  496MOL0     C68349   9.313   4.269   3.118  0.3678 -1.2148  0.2745
  496MOL0     C68350   9.294   4.397   3.028 -0.3429  0.0719 -0.0732
  496MOL0     C68351   9.413   4.499   3.055 -0.3849 -0.0528 -0.0345
  496MOL0     C68352   9.541   4.441   3.003 -0.4644  0.6716 -1.7630
  496MOL0     C68353   9.661   4.542   3.027  0.0846 -0.0704  1.1063
  496MOL0     C68354   9.706   4.549   3.173  0.4611 -0.7079 -0.3192
  496MOL0    Cl68355   9.829   4.424   3.214  0.1174  0.0236  0.2595
  496MOL0     C68356   9.191   3.771   3.200  0.0949 -0.7088 -0.1524
  496MOL0     C68357   9.208   3.632   3.211 -1.0073  0.1301 -0.0795
  496MOL0     O68358   9.186   3.354   3.284  0.2105  0.1252  0.3523
  496MOL0     C68359   9.286   3.100   3.249  0.2862  0.7935 -1.6156
  496MOL0     C68360   9.317   2.969   3.209  0.7860  0.3664 -0.2803
  496MOL0     N68361   9.684   2.415   2.723  0.0157  0.3295 -1.3422
  496MOL0     N68362   9.793   2.380   2.667  0.3100  1.2670  0.0873
  496MOL0     C68363  10.815   2.407   2.158  1.0055 -0.9462  0.6160
  496MOL0     C68364  10.923   2.499   2.172 -0.6280  0.7370 -0.2729
  496MOL0     C68365  11.059   2.935   2.255  0.6132  0.6893 -0.4342
  496MOL0     C68366  11.089   2.922   2.393 -1.9095 -0.3645  0.9262
  496MOL0     C68367  11.141   3.022   2.467  0.0717 -0.3181  0.4429
  496MOL0     C68368  11.157   3.152   2.422  0.0886 -0.0028 -0.6219
  496MOL0     O68369  11.174   3.260   2.492 -0.2616 -0.1816  0.8031
  496MOL0     C68370  11.279   3.255   2.590  0.1774  0.1894  0.3546
  496MOL0     C68371  11.313   3.381   2.660 -0.1697 -0.2062  0.3497
  496MOL0     C68372  11.398   3.472   2.568 -0.1784 -0.1522  0.4046
  496MOL0     C68373  11.418   3.622   2.611  0.3899 -0.5880 -0.7329
  496MOL0     C68374  11.288   3.687   2.597 -0.7562  0.6548 -0.1388
  496MOL0     C68375  11.181   3.753   2.575  0.0332 -0.0333 -0.0538
  496MOL0     C68376  11.132   3.164   2.282 -0.6985  0.4990  0.2252
  496MOL0     C68377  11.079   3.066   2.200 -1.1582  0.4222  0.4364
  496MOL0     C68378  11.053   3.102   2.056  0.6246 -0.3397  0.5825
  496MOL0     H68379  10.740   2.729   2.343 -2.5479 -0.4302 -1.0262
  496MOL0     H68380  10.569   2.577   2.291  0.3594 -0.3836  0.6846
  496MOL0     H68381  10.669   2.175   2.187 -0.6892  3.1129 -4.1505
  496MOL0     H68382  10.494   2.165   2.176  0.6063 -1.8264 -0.5292
  496MOL0     H68383  10.575   2.104   2.409 -1.3280  0.2232  1.2277
  496MOL0     H68384  10.643   2.262   2.428 -0.0378 -0.9305 -0.1653
  496MOL0     H68385  10.466   2.365   2.454 -0.2032  1.0307 -0.1616
  496MOL0     H68386  10.350   2.274   2.353  0.4774  0.0453  1.3595
  496MOL0     H68387  10.396   2.089   2.522 -1.2273  0.4622 -1.4054
  496MOL0     H68388  10.475   2.222   2.615  0.2226  2.4531 -1.1878
  496MOL0     H68389  10.182   2.201   2.534  1.4049 -0.2884  0.2262
  496MOL0     H68390  10.248   2.348   2.603  2.8828  0.7097  1.2713
  496MOL0     H68391  10.195   2.099   2.750 -3.1340  1.6604 -1.0730
  496MOL0     H68392  10.325   2.201   2.804  1.0556 -0.6325 -1.7319
  496MOL0     H68393  10.127   2.382   2.793  2.5498 -0.3419 -1.3298
  496MOL0     H68394  10.098   2.254   2.910 -0.1082 -0.2808 -0.6994
  496MOL0     H68395   9.982   2.214   2.622 -0.7852 -2.8957 -0.0459
  496MOL0     H68396   9.949   2.124   2.767 -1.9930  0.2937 -1.1234
  496MOL0     H68397   9.812   2.245   2.972  0.9251  1.4651  0.8676
  496MOL0     H68398   9.577   2.310   3.030  1.6463 -0.3613 -1.0292
  496MOL0     H68399   9.483   2.407   2.900 -0.2064 -2.3611 -1.9007
  496MOL0     H68400   9.653   2.504   3.136  0.5499  1.8247  0.5418
  496MOL0     H68401   9.716   2.564   2.986 -1.3160  1.4686 -1.3683
  496MOL0     H68402   9.451   2.643   2.955  0.8573  0.7221 -1.2252
  496MOL0     H68403   9.461   2.597   3.133  0.5872 -4.9191 -0.8472
  496MOL0     H68404   9.643   2.774   3.153 -0.4685  1.0069 -0.2282
  496MOL0     H68405   9.625   2.808   2.973  0.3234 -1.2422 -1.6593
  496MOL0     H68406   9.631   3.026   3.103  0.4351 -2.1703 -0.9437
  496MOL0     H68407   9.610   3.373   3.251  4.7305  1.1295 -1.5813
  496MOL0     H68408   9.639   3.306   3.092  1.7975  1.8716  0.4986
  496MOL0     H68409   9.704   3.227   3.243  0.1429 -0.4402 -0.7013
  496MOL0     H68410   9.547   3.631   3.248 -1.3341 -1.8152  1.6584
  496MOL0     H68411   9.516   3.868   3.244  1.1162 -2.0553 -0.0082
  496MOL0     H68412   9.083   4.017   3.171  1.8212 -3.3713 -2.4098
  496MOL0     H68413   9.175   4.115   3.296  2.9344 -0.7231  0.9051
  496MOL0     H68414   9.183   4.161   2.995  1.7231  0.0942  0.4977
  496MOL0     H68415   9.102   4.255   3.123 -1.5239 -1.5990  0.1702
  496MOL0     H68416   9.398   4.214   3.076  1.5212 -0.2257  1.2036
  496MOL0     H68417   9.322   4.289   3.226 -3.6802  0.6912  0.4286
  496MOL0     H68418   9.204   4.450   3.060  0.9535  1.7846  0.8979
  496MOL0     H68419   9.279   4.360   2.926  0.2590 -3.2236  0.8908
  496MOL0     H68420   9.385   4.589   2.999 -1.0157 -1.3006 -1.8397
  496MOL0     H68421   9.410   4.525   3.161  1.0176  0.6933 -0.1559
  496MOL0     H68422   9.533   4.409   2.899  1.8490 -3.4669 -0.9094
  496MOL0     H68423   9.565   4.357   3.069 -1.6354  2.7250  1.5605
  496MOL0     H68424   9.640   4.637   2.978 -2.0549 -1.1887 -0.2930
  496MOL0     H68425   9.743   4.495   2.970 -0.4322 -3.2960  2.7652
  496MOL0     H68426   9.620   4.546   3.240 -0.2187 -0.4710 -1.1568
  496MOL0     H68427   9.740   4.651   3.195 -0.2223 -0.3350 -0.9339
  496MOL0     H68428   9.095   3.814   3.172  0.9729  2.4206  1.2413
  496MOL0     H68429   9.125   3.578   3.167 -0.6166 -0.7878  0.2849
  496MOL0     H68430   9.189   3.114   3.296  0.2368  3.3020 -2.3145
  496MOL0     H68431   9.249   2.885   3.214  1.6625 -0.3785 -0.7046
  496MOL0     H68432  10.833   2.329   2.086  1.0534 -0.6241  0.2731
  496MOL0     H68433  11.016   2.474   2.120  1.8649 -0.6913  4.2654
  496MOL0     H68434  11.097   2.828   2.445  1.6119  0.3729  2.0267
  496MOL0     H68435  11.156   3.013   2.574 -2.3720  0.5528  0.9268
  496MOL0     H68436  11.245   3.190   2.671 -1.6597  0.6403 -0.0190
  496MOL0     H68437  11.373   3.216   2.548 -2.0667 -3.1656 -2.1572
  496MOL0     H68438  11.369   3.364   2.753  3.3962 -2.2737 -1.9270
  496MOL0     H68439  11.224   3.443   2.675 -0.0743  0.0478 -0.1141
  496MOL0     H68440  11.495   3.420   2.564  0.8267  1.6026  1.1418
  496MOL0     H68441  11.363   3.458   2.465  3.0732  0.0953 -0.8679
  496MOL0     H68442  11.495   3.674   2.554  1.3729  0.3417  1.3489
  496MOL0     H68443  11.443   3.631   2.717  2.8602  1.1342 -1.3681
  496MOL0     H68444  11.089   3.803   2.553 -1.2695 -1.1765  2.4026
  496MOL0     H68445  11.132   3.263   2.239 -0.5201 -0.4935 -2.2192
  496MOL0     H68446  11.143   3.152   2.018 -0.6266 -0.2830 -2.6268
  496MOL0     H68447  11.025   3.027   1.981 -0.2012  0.4526  0.0771
  496MOL0     H68448  10.974   3.178   2.054 -2.2781 -3.0098  3.1587
  497MOL0     O68449   6.071   9.199   4.105  0.1038 -1.1361  0.4979
  497MOL0     C68450   6.021   9.222   4.211 -0.1053  0.5662 -0.3625
  497MOL0     O68451   5.888   9.228   4.233 -0.0502 -0.1483  0.1608
  497MOL0     C68452   5.806   9.192   4.134  1.0751  0.5153  1.1624
  497MOL0     C68453   5.693   9.272   4.115  0.6398 -0.6339 -1.0233
  497MOL0     C68454   5.600   9.248   4.003 -0.0797 -0.4597 -0.3345
  497MOL0     C68455   5.628   9.147   3.908  0.2402 -0.1620 -0.3259
  497MOL0     O68456   5.551   9.132   3.798  0.6584 -0.3656 -0.7967
  497MOL0     C68457   5.411   9.154   3.815  0.7388  0.1921  0.1565
  497MOL0     C68458   5.349   9.025   3.859 -0.3842 -0.2600  0.5732
  497MOL0     C68459   5.198   9.045   3.887  0.6265  0.0641 -0.1243
  497MOL0     C68460   5.138   8.911   3.932  0.0847 -0.1533  0.3037
  497MOL0     C68461   5.136   8.903   4.086  0.9367 -0.2764 -0.2612
  497MOL0     C68462   5.146   8.755   4.145 -0.7028 -0.7502  0.3851
  497MOL0     C68463   5.075   8.643   4.060 -0.1627 -0.2543  0.1114
  497MOL0     C68464   4.922   8.653   4.052  0.9332  0.8792  0.7178
  497MOL0     N68465   4.855   8.617   4.177 -0.6119 -0.2637 -0.5226
  497MOL0     C68466   4.830   8.488   4.231  0.5528 -0.2974  0.3304
  497MOL0     C68467   4.757   8.506   4.342  0.3803 -0.0507  0.3762
  497MOL0     C68468   4.709   8.396   4.436 -0.3387  0.0453 -1.7193
  497MOL0     C68469   4.649   8.272   4.367 -0.1064 -0.1320 -0.2452
  497MOL0     C68470   4.620   8.160   4.464 -0.4897  0.5196 -1.4668
  497MOL0     C68471   4.499   8.189   4.556 -0.0985  0.9256 -0.0704
  497MOL0     O68472   4.388   8.230   4.480 -0.0468 -0.1128 -1.3000
  497MOL0     C68473   4.280   8.223   4.559 -0.2290  0.1456 -0.4116
  497MOL0     C68474   4.231   8.343   4.609 -0.1789 -0.1937 -0.3926
  497MOL0     C68475   4.110   8.355   4.681 -0.0571 -0.5408  0.0006
  497MOL0     C68476   4.077   8.493   4.730 -0.5197 -0.4129 -0.0002
  497MOL0     C68477   4.032   8.237   4.712  0.3922  0.4948  0.5025
  497MOL0     C68478   3.900   8.234   4.799 -1.1568 -0.5368  0.2232
  497MOL0     O68479   3.837   8.122   4.810  0.7320 -0.6495 -0.6304
  497MOL0     C68480   3.710   8.113   4.868 -0.2103  0.0905 -0.8588
  497MOL0     C68481   3.599   8.164   4.795  0.0820  0.1964  0.3711
  497MOL0     C68482   3.467   8.135   4.833 -0.0332 -0.1890  0.0123
  497MOL0     C68483   3.443   8.076   4.955 -0.4525 -0.1990 -0.4329
  497MOL0     O68484   3.312   8.063   5.007  0.2765  0.3733  0.6611
  497MOL0     C68485   3.198   8.055   4.921 -0.4178  0.6359  1.4860
  497MOL0     C68486   3.071   8.021   5.007  1.2084 -0.0575  0.2317
  497MOL0     C68487   2.950   7.999   4.910  1.1205 -0.5851 -0.1568
  497MOL0     C68488   2.820   7.976   4.989 -0.2753 -0.4940 -0.5431
  497MOL0     C68489   2.705   7.942   4.896 -0.8029  1.0140  0.2949
  497MOL0     C68490   2.568   7.913   4.954  0.0422  0.1751 -0.4043
  497MOL0     C68491   2.481   7.840   4.850  0.0411  0.1454  0.1881
  497MOL0     C68492   2.333   7.814   4.900 -0.6739 -0.6164 -0.1349
  497MOL0    Cl68493   2.246   7.684   4.801  0.2815  0.2420  0.3405
  497MOL0     C68494   3.552   8.041   5.038  1.2536  0.0016  0.8711
  497MOL0     C68495   3.684   8.048   4.999  0.1973 -0.4106  0.3515
  497MOL0     O68496   3.858   8.341   4.842  0.1071  0.0613  0.3226
  497MOL0     C68497   4.081   8.113   4.658 -0.7224 -0.6575  0.8140
  497MOL0     C68498   4.201   8.112   4.576 -0.4541 -0.3473  0.1459
  497MOL0     N68499   4.731   8.641   4.361 -0.3062 -0.5876 -0.1957
  497MOL0     N68500   4.804   8.708   4.273 -0.7919  0.9086 -0.4900
  497MOL0     C68501   5.734   9.056   3.942  0.0528 -0.4837  0.6928
  497MOL0     C68502   5.818   9.082   4.055  0.5674  1.4258  0.8186
  497MOL0     C68503   6.117   9.253   4.322 -0.9353 -0.2003 -0.3025
  497MOL0     C68504   6.237   9.185   4.320 -0.6071 -0.2008 -0.2745
  497MOL0     C68505   6.328   9.205   4.424 -0.1307 -0.3798 -1.2691
  497MOL0     C68506   6.293   9.282   4.531  0.5521  1.2096 -1.0617
  497MOL0     O68507   6.384   9.280   4.639 -1.0012  0.0264 -0.2968
  497MOL0     C68508   6.483   9.389   4.619  0.0293  0.5241  0.2729
  497MOL0     C68509   6.596   9.362   4.706 -1.0087  0.2740 -0.6624
  497MOL0     C68510   6.563   9.377   4.860  0.4092 -0.4147  0.5646
  497MOL0     C68511   6.578   9.513   4.928  0.6678  0.4035  0.2088
  497MOL0     C68512   6.721   9.538   4.943 -1.1845 -0.9850 -1.3510
  497MOL0     C68513   6.829   9.538   4.982 -0.8296 -0.5455 -0.3929
  497MOL0     C68514   6.172   9.338   4.540  0.2372  0.7555 -0.3371
  497MOL0     C68515   6.076   9.332   4.438 -1.0814  0.3680 -0.6604
  497MOL0     C68516   5.950   9.404   4.447 -0.9815  0.3242  0.3083
  497MOL0     H68517   5.665   9.359   4.174 -1.6185  0.1208 -3.0760
  497MOL0     H68518   5.529   9.325   3.975  1.7329  0.1454 -3.9423
  497MOL0     H68519   5.377   9.169   3.712  0.1571  2.9520  0.6859
  497MOL0     H68520   5.380   9.244   3.868  0.1166  0.1609 -0.1572
  497MOL0     H68521   5.363   8.956   3.775 -1.4808 -2.2533  1.9312
  497MOL0     H68522   5.409   8.986   3.942  2.0360 -0.7008 -1.2653
  497MOL0     H68523   5.167   9.130   3.949 -2.5065  0.2419 -1.7760
  497MOL0     H68524   5.140   9.059   3.796  0.7645 -2.2864 -0.6433
  497MOL0     H68525   5.041   8.890   3.884  0.4653 -4.2380  0.9212
  497MOL0     H68526   5.201   8.827   3.901  0.2458 -0.2050  0.7603
  497MOL0     H68527   5.042   8.938   4.129  1.1482  0.9621 -0.7809
  497MOL0     H68528   5.222   8.962   4.119  0.5557 -0.1409  0.5010
  497MOL0     H68529   5.253   8.735   4.140  0.2390  3.3920 -5.2227
  497MOL0     H68530   5.112   8.747   4.249 -1.8896  1.8859  0.2770
  497MOL0     H68531   5.097   8.549   4.110 -2.0652 -0.0140  1.4865
  497MOL0     H68532   5.111   8.647   3.957 -0.2073  0.5046  0.1177
  497MOL0     H68533   4.893   8.754   4.022  2.4339  0.7556 -1.4279
  497MOL0     H68534   4.897   8.580   3.975  2.7999 -1.1884  1.9544
  497MOL0     H68535   4.850   8.402   4.167 -0.1718 -0.6739  0.6006
  497MOL0     H68536   4.620   8.428   4.492  0.6165 -4.0040  2.7782
  497MOL0     H68537   4.784   8.360   4.507 -0.8737  0.8312 -0.7242
  497MOL0     H68538   4.562   8.302   4.308 -0.4586  2.3581  1.4102
  497MOL0     H68539   4.726   8.232   4.300 -1.3858  0.1159 -1.9339
  497MOL0     H68540   4.610   8.067   4.407  1.6755 -0.6871 -0.0517
  497MOL0     H68541   4.707   8.155   4.531  0.1577 -1.3948 -2.3723
  497MOL0     H68542   4.479   8.106   4.623 -0.2844  2.4982  1.9262
  497MOL0     H68543   4.516   8.275   4.622 -1.7138  0.1431  1.4272
  497MOL0     H68544   4.296   8.429   4.595 -2.3615  1.7150  0.4161
  497MOL0     H68545   4.151   8.563   4.689 -0.8372 -0.1628 -0.1568
  497MOL0     H68546   4.096   8.494   4.837 -0.0722  0.6743 -0.0696
  497MOL0     H68547   3.979   8.532   4.701 -0.3572  0.6968  0.8879
  497MOL0     H68548   3.626   8.196   4.695 -1.8357 -5.7975 -2.5700
  497MOL0     H68549   3.380   8.176   4.781 -0.5538 -2.1236 -0.7343
  497MOL0     H68550   3.189   8.157   4.882  2.4710  1.0914  1.8423
  497MOL0     H68551   3.221   7.987   4.838  0.1797  4.4635 -1.7979
  497MOL0     H68552   3.093   7.934   5.070  0.0441 -0.2183  0.4365
  497MOL0     H68553   3.057   8.105   5.076 -2.0349 -2.6664  3.1137
  497MOL0     H68554   2.975   7.916   4.844 -0.5731 -1.9135  0.7666
  497MOL0     H68555   2.922   8.087   4.852 -3.2355 -2.2532 -0.9860
  497MOL0     H68556   2.805   8.066   5.050 -2.3697 -1.3729  0.3231
  497MOL0     H68557   2.841   7.881   5.040  2.5516  1.0508  1.4347
  497MOL0     H68558   2.694   8.008   4.809  0.5359  1.8424  0.7255
  497MOL0     H68559   2.726   7.847   4.846 -1.7548 -1.7139  4.5617
  497MOL0     H68560   2.526   8.007   4.992  3.0613  0.7779  1.7860
  497MOL0     H68561   2.581   7.846   5.040  0.2218 -1.3224 -1.5476
  497MOL0     H68562   2.523   7.741   4.828 -3.6380 -1.3024 -1.1276
  497MOL0     H68563   2.464   7.890   4.755 -4.3096  0.6038  0.9983
  497MOL0     H68564   2.278   7.908   4.902  2.5491  1.5562  4.7381
  497MOL0     H68565   2.346   7.781   5.003  0.6850  0.0059 -0.0740
  497MOL0     H68566   3.526   7.990   5.131  3.9748 -2.4590  0.4520
  497MOL0     H68567   3.762   8.003   5.059 -0.6027 -2.6666 -0.1855
  497MOL0     H68568   4.024   8.022   4.673 -0.4706 -0.6668  1.7655
  497MOL0     H68569   4.245   8.022   4.534  0.0096  0.0009 -0.1313
  497MOL0     H68570   5.760   8.971   3.881 -0.5520 -0.1605 -0.0255
  497MOL0     H68571   5.880   8.999   4.087  1.2108  1.7900  0.5309
  497MOL0     H68572   6.268   9.120   4.239 -0.8450 -1.1991  0.4142
  497MOL0     H68573   6.417   9.144   4.429  0.6265  0.6627 -1.6398
  497MOL0     H68574   6.509   9.390   4.512 -4.6477 -2.5578 -1.2007
  497MOL0     H68575   6.449   9.487   4.653  1.7969  2.1299 -2.2603
  497MOL0     H68576   6.660   9.445   4.674 -1.9792  0.7325 -1.4899
  497MOL0     H68577   6.643   9.266   4.688  0.6253  0.4718  2.0025
  497MOL0     H68578   6.458   9.356   4.883  0.9017 -2.0897  1.4457
  497MOL0     H68579   6.625   9.304   4.913  0.1343 -0.8284  0.3263
  497MOL0     H68580   6.536   9.510   5.029  0.6387  0.3389  0.1949
  497MOL0     H68581   6.527   9.597   4.879 -0.8148  0.9891  2.5975
  497MOL0     H68582   6.920   9.534   5.039 -2.1893 -1.2375  1.8589
  497MOL0     H68583   6.152   9.398   4.628  1.0505 -3.3903  2.9812
  497MOL0     H68584   5.872   9.327   4.450  0.9417 -1.8312 -1.1786
  497MOL0     H68585   5.950   9.468   4.536  1.8596 -0.6163  1.0791
  497MOL0     H68586   5.928   9.469   4.361 -3.2924 -1.3145 -0.4388
  498MOL0     O68587   6.842   2.520   2.370 -0.1004 -0.3931 -0.6688
  498MOL0     C68588   6.839   2.412   2.307 -0.2646 -0.0558  0.0266
  498MOL0     O68589   6.833   2.283   2.363  0.2759  0.9235 -0.6484
  498MOL0     C68590   6.836   2.266   2.508 -0.1252  1.0470  1.2610
  498MOL0     C68591   6.943   2.317   2.580  0.6214 -0.2239 -0.1092
  498MOL0     C68592   6.935   2.291   2.715  0.1231  1.0565 -0.6763
  498MOL0     C68593   6.829   2.237   2.783  0.0403  0.8040 -0.5721
  498MOL0     O68594   6.830   2.230   2.920  0.2294 -0.0123  0.7637
  498MOL0     C68595   6.738   2.323   2.987  0.4555 -0.1721  0.7516
  498MOL0     C68596   6.804   2.443   3.057 -0.9179 -0.0659  0.3484
  498MOL0     C68597   6.817   2.578   2.979 -0.1168  0.8749 -0.0003
  498MOL0     C68598   6.899   2.676   3.057 -0.0125 -0.5852 -0.7685
  498MOL0     C68599   6.860   2.821   3.025 -0.0303 -0.2655  0.3628
  498MOL0     C68600   6.960   2.925   3.082 -0.4528 -0.2469 -0.8234
  498MOL0     C68601   6.938   3.062   3.017  0.1083  0.4601 -0.0618
  498MOL0     C68602   7.045   3.165   3.049 -0.2776  0.0144  0.2892
  498MOL0     N68603   7.053   3.210   3.187 -0.1736 -0.1869 -0.2392
  498MOL0     C68604   7.105   3.126   3.286 -0.7128  0.6409  0.1319
  498MOL0     C68605   7.086   3.191   3.403  0.8399  0.4911  0.2201
  498MOL0     C68606   7.114   3.143   3.541 -1.0696  0.5213 -1.1091
  498MOL0     C68607   7.259   3.178   3.591  0.6820  0.9411  0.2479
  498MOL0     C68608   7.362   3.090   3.532 -0.8397  1.3023 -0.4217
  498MOL0     C68609   7.348   2.936   3.578  0.3170 -0.6855 -0.5323
  498MOL0     O68610   7.245   2.886   3.492 -1.2993 -0.4073 -0.0615
  498MOL0     C68611   7.191   2.765   3.528  0.1871  0.1965 -0.1257
  498MOL0     C68612   7.267   2.668   3.599 -0.2187 -0.1386  0.2092
  498MOL0     C68613   7.218   2.538   3.626 -0.2148  0.1331  0.1853
  498MOL0     C68614   7.296   2.427   3.701  0.1413 -0.6797  0.3567
  498MOL0     C68615   7.094   2.506   3.566  0.1621 -0.8340 -0.0003
  498MOL0     C68616   7.036   2.369   3.578  0.1183 -1.3312 -0.4327
  498MOL0     O68617   7.003   2.314   3.457  0.2575 -0.2847 -0.6383
  498MOL0     C68618   6.967   2.183   3.458 -0.2756  0.2963 -0.2719
  498MOL0     C68619   6.834   2.157   3.423  0.9395 -0.4735 -0.9158
  498MOL0     C68620   6.791   2.029   3.426  0.6653 -0.3304 -0.1983
  498MOL0     C68621   6.876   1.922   3.439  0.0618  1.1874 -1.2668
  498MOL0     O68622   6.813   1.803   3.454 -0.1972 -0.1676 -0.5728
  498MOL0     C68623   6.899   1.683   3.467  0.0663  0.2348 -0.7494
  498MOL0     C68624   6.833   1.557   3.482 -0.1839  0.3576  0.1709
  498MOL0     C68625   6.777   1.500   3.346 -0.1099 -0.4481 -0.0684
  498MOL0     C68626   6.815   1.354   3.302 -0.6505 -0.1710  0.1275
  498MOL0     C68627   6.729   1.310   3.185  0.8341  0.2316 -0.0141
  498MOL0     C68628   6.567   1.336   3.193 -0.2635  0.7623 -0.4053
  498MOL0     C68629   6.489   1.283   3.319 -0.3925 -0.2181 -0.4504
  498MOL0     C68630   6.355   1.345   3.341  0.4035  0.1859 -0.1605
  498MOL0    Cl68631   6.247   1.236   3.431 -0.0721 -0.3362 -0.2454
  498MOL0     C68632   7.012   1.940   3.450  0.2957 -0.7096  0.1847
  498MOL0     C68633   7.056   2.073   3.459  0.0091 -0.6206 -0.3517
  498MOL0     O68634   7.021   2.312   3.689 -0.4561 -0.0547  0.3823
  498MOL0     C68635   7.021   2.593   3.488  0.2688  0.2987 -0.5318
  498MOL0     C68636   7.064   2.724   3.475  0.6328  0.3640  0.2406
  498MOL0     N68637   7.015   3.309   3.365  0.0014 -1.0370  0.0342
  498MOL0     N68638   6.997   3.321   3.243  1.0138 -0.0636  0.3666
  498MOL0     C68639   6.732   2.189   2.708  0.6218 -0.3381 -0.4676
  498MOL0     C68640   6.737   2.197   2.565 -0.0810 -0.2116 -0.4840
  498MOL0     C68641   6.843   2.425   2.161 -0.1732  0.2012  0.1177
  498MOL0     C68642   6.783   2.332   2.080 -0.1039 -0.0609 -0.2628
  498MOL0     C68643   6.773   2.342   1.942  0.1979  0.1639  0.7403
  498MOL0     C68644   6.844   2.442   1.870  1.0996  0.1493 -0.5166
  498MOL0     O68645   6.845   2.419   1.737 -0.3924 -0.4726 -0.4398
  498MOL0     C68646   6.924   2.507   1.647 -0.2639  0.1864 -0.9515
  498MOL0     C68647   6.837   2.621   1.602 -0.1386  0.1942 -0.1165
  498MOL0     C68648   6.769   2.599   1.463 -0.4650 -0.3014 -1.3685
  498MOL0     C68649   6.683   2.725   1.443  0.1394 -0.6420  0.5495
  498MOL0     C68650   6.612   2.738   1.311  1.0368  0.2350 -0.4373
  498MOL0     C68651   6.563   2.736   1.196 -0.1590 -0.2007 -0.6839
  498MOL0     C68652   6.904   2.538   1.953  0.9558  0.5722  1.4506
  498MOL0     C68653   6.909   2.535   2.089 -0.3638  0.3586  0.5916
  498MOL0     C68654   6.989   2.641   2.165 -0.1067  0.3844  1.1551
  498MOL0     H68655   7.014   2.386   2.535 -1.4975  2.4275  0.3500
  498MOL0     H68656   7.023   2.327   2.768  0.7397  3.1232 -2.8848
  498MOL0     H68657   6.665   2.264   3.045  2.6143 -3.4308  0.4121
  498MOL0     H68658   6.673   2.360   2.908  2.5749 -0.6116 -1.3099
  498MOL0     H68659   6.742   2.486   3.137 -1.8724 -0.2847 -0.2515
  498MOL0     H68660   6.902   2.417   3.097 -0.6659 -1.0940 -0.8687
  498MOL0     H68661   6.877   2.553   2.891 -0.3413  0.2442  0.0187
  498MOL0     H68662   6.715   2.616   2.969 -0.1490  0.6849 -0.3985
  498MOL0     H68663   6.891   2.673   3.166 -0.3477 -1.8699 -0.8134
  498MOL0     H68664   7.005   2.659   3.035 -0.0342 -1.4932 -0.2314
  498MOL0     H68665   6.755   2.839   3.049 -0.2871 -1.6462  0.3258
  498MOL0     H68666   6.864   2.834   2.917 -3.3121 -1.0300  0.0520
  498MOL0     H68667   6.942   2.936   3.189  0.9715 -1.5492 -0.4209
  498MOL0     H68668   7.063   2.896   3.062 -1.0454 -0.5398 -4.1054
  498MOL0     H68669   6.849   3.111   3.058 -0.3926  1.4447 -2.1834
  498MOL0     H68670   6.940   3.045   2.909  1.5927  1.0174 -0.1539
  498MOL0     H68671   7.142   3.125   3.019  0.7840  0.8822  2.3104
  498MOL0     H68672   7.009   3.248   2.988 -4.5392 -0.9487  1.1522
  498MOL0     H68673   7.143   3.027   3.262 -2.4467  0.6001 -2.9899
  498MOL0     H68674   7.090   3.037   3.558 -0.7171  0.6957  0.6851
  498MOL0     H68675   7.050   3.191   3.615 -2.8669 -3.5947  0.3453
  498MOL0     H68676   7.269   3.282   3.556  0.1561 -0.0455 -3.2607
  498MOL0     H68677   7.255   3.181   3.700  2.2384  3.4356  0.3338
  498MOL0     H68678   7.342   3.088   3.425 -1.7242 -0.2360 -0.2606
  498MOL0     H68679   7.462   3.123   3.560 -0.2437 -2.3407  2.7632
  498MOL0     H68680   7.438   2.887   3.541  0.7342  0.8497 -1.6992
  498MOL0     H68681   7.326   2.931   3.685 -0.7273 -0.5169 -0.7201
  498MOL0     H68682   7.364   2.688   3.644 -0.0227 -3.4022  1.5296
  498MOL0     H68683   7.286   2.329   3.653 -1.7071 -1.0895  1.4749
  498MOL0     H68684   7.256   2.420   3.803  3.0767 -1.2430  1.5524
  498MOL0     H68685   7.398   2.465   3.709 -0.4971  0.8110  2.1925
  498MOL0     H68686   6.763   2.239   3.423  1.2383 -0.2084 -0.5292
  498MOL0     H68687   6.683   2.019   3.415  0.8878 -0.8857 -2.4453
  498MOL0     H68688   6.971   1.667   3.385  0.6823  2.0640 -0.6061
  498MOL0     H68689   6.952   1.689   3.562  1.4904  0.5208 -1.5194
  498MOL0     H68690   6.906   1.485   3.522  1.7473  3.2095  2.1591
  498MOL0     H68691   6.753   1.565   3.556  0.5225 -0.2855  1.0281
  498MOL0     H68692   6.809   1.567   3.266  1.2732  0.0440  0.8568
  498MOL0     H68693   6.668   1.507   3.347 -0.2250 -1.6515 -1.3993
  498MOL0     H68694   6.795   1.288   3.387  0.4751 -0.8272 -0.0973
  498MOL0     H68695   6.919   1.355   3.267 -0.9820 -1.4662 -0.9646
  498MOL0     H68696   6.773   1.355   3.095  4.1255 -1.2465  0.6991
  498MOL0     H68697   6.755   1.206   3.165  0.6853  0.4267 -1.3347
  498MOL0     H68698   6.525   1.282   3.107 -0.9094 -1.2544  1.0975
  498MOL0     H68699   6.543   1.441   3.174  0.4706  0.9081 -0.5404
  498MOL0     H68700   6.546   1.321   3.405 -0.8812 -0.0729 -0.1863
  498MOL0     H68701   6.480   1.175   3.311  0.9245 -0.4442  0.6835
  498MOL0     H68702   6.314   1.377   3.244 -2.5870 -2.8706 -0.0820
  498MOL0     H68703   6.375   1.427   3.411 -1.8261  3.0735 -2.6182
  498MOL0     H68704   7.096   1.872   3.437  0.9221  0.3232 -1.5322
  498MOL0     H68705   7.160   2.098   3.480 -0.1346 -1.7752  2.2038
  498MOL0     H68706   6.920   2.568   3.455 -0.9166 -1.3072  3.7135
  498MOL0     H68707   7.020   2.795   3.406  1.5766  1.5747  0.8344
  498MOL0     H68708   6.651   2.132   2.754 -0.4998 -1.3713 -3.4755
  498MOL0     H68709   6.656   2.154   2.506  0.0417 -1.5284  0.2677
  498MOL0     H68710   6.721   2.256   2.127 -0.7555  0.0614 -0.9093
  498MOL0     H68711   6.731   2.264   1.879  3.4244 -0.1124 -1.3100
  498MOL0     H68712   7.004   2.556   1.705 -2.8961  2.0410  1.4213
  498MOL0     H68713   6.959   2.448   1.563  2.5397  2.2043 -1.3471
  498MOL0     H68714   6.898   2.712   1.604  1.2704 -0.7250 -0.2564
  498MOL0     H68715   6.758   2.623   1.678 -1.5755 -1.1691 -1.4872
  498MOL0     H68716   6.845   2.590   1.385  1.3517  1.7832  0.0225
  498MOL0     H68717   6.711   2.506   1.471 -0.0631 -0.3872  1.6395
  498MOL0     H68718   6.738   2.820   1.446 -3.3163  1.6781 -1.6883
  498MOL0     H68719   6.606   2.724   1.520  0.1749 -3.7046  0.6633
  498MOL0     H68720   6.520   2.746   1.098 -0.5150  0.2952 -0.4821
  498MOL0     H68721   6.957   2.614   1.898  1.7681 -1.1328 -0.2482
  498MOL0     H68722   7.065   2.605   2.235  0.8197 -0.8903 -0.4454
  498MOL0     H68723   7.041   2.701   2.090 -1.4577 -0.1253 -0.2470
  498MOL0     H68724   6.916   2.706   2.214  1.4511  3.1368  0.0507
  499MOL0     O68725   9.001   3.924   7.421 -0.2825  0.5265  0.6661
  499MOL0     C68726   8.972   4.031   7.473 -0.2019 -0.2202 -0.1968
  499MOL0     O68727   8.842   4.075   7.494 -0.0671  0.1552  0.5457
  499MOL0     C68728   8.727   3.998   7.492  0.3797 -0.1688  0.2945
  499MOL0     C68729   8.620   4.062   7.558  0.3802 -0.7708  0.1502
  499MOL0     C68730   8.497   3.996   7.573  0.1459 -0.7459 -0.6456
  499MOL0     C68731   8.481   3.863   7.523 -0.4761 -0.3869  0.3304
  499MOL0     O68732   8.358   3.797   7.543  0.1087  0.1336 -0.0785
  499MOL0     C68733   8.275   3.803   7.430  0.2264  0.5833  0.6290
  499MOL0     C68734   8.189   3.672   7.441  0.3092 -0.2334 -0.1995
  499MOL0     C68735   8.239   3.565   7.349  0.3975  0.3116  0.2216
  499MOL0     C68736   8.156   3.428   7.371  0.1380 -0.6082  0.6910
  499MOL0     C68737   8.209   3.331   7.254  0.8223  0.1792 -0.9961
  499MOL0     C68738   8.124   3.355   7.133  0.0749 -0.0405 -0.3436
  499MOL0     C68739   8.134   3.251   7.030  0.3878  0.6698 -0.1856
  499MOL0     C68740   8.060   3.282   6.896  0.3304 -0.9181  0.5545
  499MOL0     N68741   8.148   3.352   6.806 -0.9320 -0.7617 -0.4418
  499MOL0     C68742   8.248   3.291   6.732  0.5152 -0.5899 -0.4504
  499MOL0     C68743   8.294   3.396   6.652  0.8510  0.3313 -0.5067
  499MOL0     C68744   8.410   3.414   6.565  0.1676 -0.0579 -0.3034
  499MOL0     C68745   8.376   3.446   6.424  0.5178 -0.8422 -0.1128
  499MOL0     C68746   8.502   3.491   6.348  0.3236 -0.2069  0.7466
  499MOL0     C68747   8.476   3.519   6.204  0.0107 -0.2551 -0.6528
  499MOL0     O68748   8.358   3.597   6.178  0.5754  0.1456 -0.7470
  499MOL0     C68749   8.373   3.716   6.127  0.1430 -0.1008  0.7073
  499MOL0     C68750   8.463   3.745   6.025 -0.4321  0.1928  1.2030
  499MOL0     C68751   8.472   3.871   5.963 -0.7437 -0.2934 -0.0676
  499MOL0     C68752   8.577   3.879   5.852  0.1330 -0.6319 -0.3304
  499MOL0     C68753   8.404   3.981   6.012 -0.0122  0.1849 -0.1489
  499MOL0     C68754   8.417   4.122   5.968 -0.0194  0.8545  0.0410
  499MOL0     O68755   8.321   4.209   6.008  0.0034 -0.3620  0.0582
  499MOL0     C68756   8.267   4.307   5.930  1.0752  0.4390  0.7926
  499MOL0     C68757   8.125   4.306   5.898 -0.3452 -0.8162 -0.6755
  499MOL0     C68758   8.068   4.403   5.812  0.8427  0.4795  0.3886
  499MOL0     C68759   8.147   4.506   5.780 -0.3810  0.1595 -0.6452
  499MOL0     O68760   8.091   4.593   5.689  0.5198  0.6617 -0.0059
  499MOL0     C68761   8.033   4.706   5.748 -0.5198 -0.2760 -0.1203
  499MOL0     C68762   7.948   4.786   5.638 -1.0594  0.2921 -0.2592
  499MOL0     C68763   7.817   4.714   5.588  1.6992 -0.1505 -0.1965
  499MOL0     C68764   7.708   4.819   5.595 -0.6495 -0.6793 -0.2573
  499MOL0     C68765   7.643   4.853   5.727  0.1918  0.9309  0.4991
  499MOL0     C68766   7.538   4.967   5.724  0.5815 -0.3723  1.0903
  499MOL0     C68767   7.574   5.100   5.669 -0.4161  0.6628 -0.6229
  499MOL0     C68768   7.454   5.181   5.657  0.8856 -0.0124  1.0239
  499MOL0    Cl68769   7.394   5.216   5.822 -0.2483  0.8970  0.5191
  499MOL0     C68770   8.273   4.534   5.827  0.2413 -0.1182 -0.2658
  499MOL0     C68771   8.334   4.422   5.899 -0.5044  0.2960  0.0020
  499MOL0     O68772   8.497   4.154   5.880 -1.2385  0.0462  0.3035
  499MOL0     C68773   8.307   3.952   6.113 -0.7341 -1.4451 -0.2613
  499MOL0     C68774   8.291   3.825   6.166  0.3342  0.3697  0.7058
  499MOL0     N68775   8.232   3.512   6.688  0.6488 -0.3284 -0.4626
  499MOL0     N68776   8.142   3.489   6.788  0.6546  0.3061  0.0871
  499MOL0     C68777   8.581   3.797   7.456  0.2754 -0.0817  0.3094
  499MOL0     C68778   8.703   3.864   7.437 -0.8541  0.3160 -0.8225
  499MOL0     C68779   9.076   4.143   7.477 -0.3701  0.5841  1.0733
  499MOL0     C68780   9.204   4.100   7.436 -1.1631 -0.1782 -0.7800
  499MOL0     C68781   9.308   4.181   7.412  0.4145 -0.8182 -0.6541
  499MOL0     C68782   9.292   4.322   7.446 -0.5742  0.8918  0.2691
  499MOL0     O68783   9.388   4.417   7.426  0.8473 -0.4961  1.0428
  499MOL0     C68784   9.513   4.382   7.356 -0.0655  0.1959 -0.3587
  499MOL0     C68785   9.579   4.500   7.297  1.1347  0.2191  0.9700
  499MOL0     C68786   9.615   4.597   7.401 -0.0408 -0.0246  0.7443
  499MOL0     C68787   9.682   4.722   7.336  0.2384 -1.5051 -0.0911
  499MOL0     C68788   9.784   4.701   7.235 -0.1733 -0.2014 -0.4798
  499MOL0     C68789   9.862   4.668   7.147  0.2683 -0.2619  0.9770
  499MOL0     C68790   9.173   4.363   7.502 -0.0352  1.6677  0.2818
  499MOL0     C68791   9.060   4.277   7.507  0.6357  0.2183 -0.1800
  499MOL0     C68792   8.937   4.343   7.556  0.1121 -0.2879  0.2176
  499MOL0     H68793   8.634   4.156   7.610 -1.9340 -1.9784  3.2931
  499MOL0     H68794   8.418   4.050   7.623 -0.2798 -2.3808  0.5519
  499MOL0     H68795   8.334   3.795   7.338  0.8318 -2.2073  1.1773
  499MOL0     H68796   8.211   3.892   7.427  0.9451  1.0900 -0.3063
  499MOL0     H68797   8.200   3.642   7.545 -3.7003 -0.7918  0.2500
  499MOL0     H68798   8.083   3.697   7.425 -0.1983 -2.1133 -0.0118
  499MOL0     H68799   8.232   3.605   7.247  1.9325 -0.4338 -0.2127
  499MOL0     H68800   8.347   3.546   7.353  0.6640  1.3325 -1.2092
  499MOL0     H68801   8.172   3.382   7.468  0.3798 -2.6693 -0.2764
  499MOL0     H68802   8.048   3.442   7.359  0.0562 -1.1828  0.7689
  499MOL0     H68803   8.195   3.227   7.285 -0.8034  0.3431 -1.0661
  499MOL0     H68804   8.317   3.344   7.242  1.1117  0.4433  1.4136
  499MOL0     H68805   8.018   3.344   7.159 -0.4266  1.4756 -1.5585
  499MOL0     H68806   8.141   3.454   7.088  0.1237 -0.1981 -0.6736
  499MOL0     H68807   8.092   3.162   7.077 -1.7683  1.5839 -0.2516
  499MOL0     H68808   8.239   3.235   7.004  0.0959 -1.6814 -0.1104
  499MOL0     H68809   8.024   3.187   6.857 -1.1438 -0.0884 -0.2345
  499MOL0     H68810   7.969   3.336   6.923  1.6436  0.1881  3.0994
  499MOL0     H68811   8.276   3.187   6.740  3.7387  0.2536  0.8531
  499MOL0     H68812   8.472   3.324   6.574  2.7116  1.6228 -0.1117
  499MOL0     H68813   8.475   3.494   6.600 -0.0003  0.3323 -0.8731
  499MOL0     H68814   8.335   3.356   6.377  1.2963 -2.0202  1.3894
  499MOL0     H68815   8.296   3.520   6.414  0.7505 -0.6535 -0.6594
  499MOL0     H68816   8.530   3.586   6.394 -0.6193  1.7168 -2.4059
  499MOL0     H68817   8.588   3.424   6.359  0.8708  0.1897 -0.8661
  499MOL0     H68818   8.565   3.564   6.159 -0.8664  2.2462 -0.0389
  499MOL0     H68819   8.446   3.435   6.141 -4.5457 -0.1516  0.9858
  499MOL0     H68820   8.525   3.663   5.990 -4.8875 -2.7891 -0.6579
  499MOL0     H68821   8.534   3.903   5.754 -0.6532 -1.0871 -0.1051
  499MOL0     H68822   8.635   3.787   5.836  1.1672 -0.6039  2.6396
  499MOL0     H68823   8.653   3.954   5.876  0.0351 -1.1232  1.6982
  499MOL0     H68824   8.060   4.233   5.945  0.1750  0.0256  1.4776
  499MOL0     H68825   7.967   4.384   5.779  0.8064 -2.4331  1.8506
  499MOL0     H68826   7.960   4.680   5.825 -2.0248  0.0053 -1.4131
  499MOL0     H68827   8.108   4.771   5.796  1.2479 -0.4964 -2.3908
  499MOL0     H68828   7.926   4.886   5.677  0.2633  0.1252  0.9977
  499MOL0     H68829   8.008   4.809   5.549  2.1075 -3.1658  0.7449
  499MOL0     H68830   7.793   4.629   5.652  0.1360  1.2979  1.2824
  499MOL0     H68831   7.826   4.677   5.486  1.9921  0.9041 -0.5689
  499MOL0     H68832   7.635   4.785   5.520  0.0822  0.9724 -1.7928
  499MOL0     H68833   7.761   4.906   5.554  0.0406 -0.3349  1.3101
  499MOL0     H68834   7.613   4.756   5.766  3.4784 -1.5766 -2.4865
  499MOL0     H68835   7.718   4.897   5.795  1.5098  2.1198 -1.6004
  499MOL0     H68836   7.497   4.980   5.825  2.2776 -3.3147  2.2969
  499MOL0     H68837   7.451   4.932   5.667  1.0172  0.7251 -0.3034
  499MOL0     H68838   7.617   5.082   5.570 -1.4732 -1.6307 -0.7254
  499MOL0     H68839   7.649   5.147   5.734  0.3506 -2.2839  0.7680
  499MOL0     H68840   7.377   5.119   5.609  1.3387 -1.4332  2.0736
  499MOL0     H68841   7.476   5.269   5.597  2.5245 -1.8785 -1.3267
  499MOL0     H68842   8.322   4.626   5.798 -0.1699 -0.4171 -2.0343
  499MOL0     H68843   8.440   4.435   5.916 -0.1841 -1.3386 -0.5842
  499MOL0     H68844   8.245   4.035   6.144  2.9356  1.7046 -0.6105
  499MOL0     H68845   8.216   3.802   6.240  0.1797 -1.0641  0.1399
  499MOL0     H68846   8.564   3.704   7.403  1.0908 -0.8682  1.3843
  499MOL0     H68847   8.775   3.803   7.382 -1.5574  0.5454 -2.0272
  499MOL0     H68848   9.226   3.996   7.415 -2.4278 -0.6000 -0.1347
  499MOL0     H68849   9.404   4.146   7.377  1.3950  1.2408 -0.1856
  499MOL0     H68850   9.583   4.328   7.421  0.7701  1.5497 -0.1054
  499MOL0     H68851   9.498   4.313   7.273  1.0726  1.9998 -2.1303
  499MOL0     H68852   9.497   4.551   7.246  2.6454  2.2243  0.3811
  499MOL0     H68853   9.653   4.461   7.227 -2.0122 -1.8959 -1.4585
  499MOL0     H68854   9.530   4.631   7.460 -0.6979 -1.1201  0.4637
  499MOL0     H68855   9.675   4.548   7.478  0.9982 -1.7888 -1.0843
  499MOL0     H68856   9.731   4.774   7.418 -0.0929 -0.7728 -0.3520
  499MOL0     H68857   9.613   4.781   7.275  0.7433 -0.9259 -0.0992
  499MOL0     H68858   9.926   4.629   7.070  3.3392 -0.8676  3.6115
  499MOL0     H68859   9.160   4.469   7.522  0.1313  1.8661 -0.6272
  499MOL0     H68860   8.858   4.358   7.482  0.8434  1.2863 -0.2872
  499MOL0     H68861   8.904   4.284   7.642 -0.8567  2.8053  2.1135
  499MOL0     H68862   8.969   4.436   7.604 -1.0823  0.5310 -0.5408
  500MOL0     O68863   9.187   0.163   5.442 -0.5566 -0.3780  0.5096
  500MOL0     C68864   9.275   0.185   5.356 -0.3659  0.5569 -0.1823
  500MOL0     O68865   9.283   0.304   5.284 -0.3974 -0.2932  0.2138
  500MOL0     C68866   9.197   0.397   5.336 -0.2949  0.9691  1.4500
  500MOL0     C68867   9.235   0.480   5.437 -0.5230  0.1653  1.4975
  500MOL0     C68868   9.142   0.558   5.489  0.4696 -0.5135  0.0242
  500MOL0     C68869   9.006   0.549   5.461  1.2292  0.5448  0.6638
  500MOL0     O68870   8.890   0.607   5.511  1.0766  0.1614 -0.1586
  500MOL0     C68871   8.910   0.724   5.589 -0.2184  0.2151 -0.5787
  500MOL0     C68872   8.914   0.694   5.737  0.6876 -0.1306  0.4977
  500MOL0     C68873   8.789   0.743   5.812 -0.1068  0.6128  0.7524
  500MOL0     C68874   8.787   0.713   5.960  0.9762  0.3265 -0.3676
  500MOL0     C68875   8.683   0.791   6.048 -0.4751 -0.7050 -1.2808
  500MOL0     C68876   8.553   0.707   6.061 -0.0130  0.5811 -0.3946
  500MOL0     C68877   8.453   0.785   6.141  0.2267 -0.0859  1.1042
  500MOL0     C68878   8.320   0.714   6.142  1.1758  0.6749 -0.2108
  500MOL0     N68879   8.231   0.783   6.236  0.7755 -0.4756 -0.1159
  500MOL0     C68880   8.160   0.726   6.343 -0.6454  0.5369 -0.0943
  500MOL0     C68881   8.106   0.828   6.404 -0.3780 -0.0111  0.3773
  500MOL0     C68882   8.015   0.816   6.517 -0.4952 -0.2397 -0.6060
  500MOL0     C68883   7.882   0.874   6.468  0.2807 -0.6365  0.1325
  500MOL0     C68884   7.773   0.887   6.577  1.3356 -0.4612 -0.1541
  500MOL0     C68885   7.755   0.766   6.681 -0.6235  0.1696  0.3538
  500MOL0     O68886   7.639   0.801   6.752 -0.7278 -0.2786 -0.0157
  500MOL0     C68887   7.614   0.725   6.860 -0.4709  0.6067 -0.1019
  500MOL0     C68888   7.701   0.646   6.941 -0.3155 -0.3857  0.5120
  500MOL0     C68889   7.657   0.590   7.070  0.1250 -0.4693  0.5690
  500MOL0     C68890   7.766   0.539   7.154 -0.7330 -0.3297  0.5189
  500MOL0     C68891   7.519   0.603   7.108 -0.3469 -0.1052 -0.2925
  500MOL0     C68892   7.448   0.550   7.218 -0.5445 -0.1268 -0.7097
  500MOL0     O68893   7.391   0.638   7.300 -0.2319  0.4935  0.1362
  500MOL0     C68894   7.332   0.571   7.411  0.3201 -0.2121 -0.5893
  500MOL0     C68895   7.399   0.577   7.539 -0.1076 -0.5671  0.3334
  500MOL0     C68896   7.351   0.504   7.647  0.2747  0.0699  0.7504
  500MOL0     C68897   7.234   0.438   7.652 -0.4321  0.6651  1.6058
  500MOL0     O68898   7.208   0.375   7.766  0.5702 -0.7869 -0.0352
  500MOL0     C68899   7.114   0.443   7.845 -0.2669 -1.1332 -0.8261
  500MOL0     C68900   7.128   0.596   7.855 -0.2247  0.9183 -0.1504
  500MOL0     C68901   7.060   0.649   7.980  0.2268 -1.0588  0.3979
  500MOL0     C68902   6.910   0.638   7.975 -0.2466 -0.0878  0.2313
  500MOL0     C68903   6.828   0.697   8.090 -0.8572  0.4375 -0.5118
  500MOL0     C68904   6.810   0.850   8.090  0.1588  0.5723 -0.5374
  500MOL0     C68905   6.710   0.903   8.196  0.3212  0.2218  0.2184
  500MOL0     C68906   6.672   1.049   8.163 -0.2965  0.3595  0.7309
  500MOL0    Cl68907   6.546   1.111   8.279  0.0614  0.0055  0.5233
  500MOL0     C68908   7.164   0.430   7.525 -0.7448  0.4356 -0.5782
  500MOL0     C68909   7.202   0.503   7.417 -0.5838 -0.4068  0.1879
  500MOL0     O68910   7.457   0.428   7.235 -0.0722  0.1425 -0.5383
  500MOL0     C68911   7.439   0.681   7.019 -0.2245 -1.5006 -0.2656
  500MOL0     C68912   7.489   0.758   6.917 -0.6129  0.1934 -0.8784
  500MOL0     N68913   8.129   0.943   6.333  0.1251 -0.0575  0.1513
  500MOL0     N68914   8.220   0.917   6.243  0.1793 -0.0852 -0.4723
  500MOL0     C68915   8.975   0.462   5.353 -0.3446 -0.7817  0.5073
  500MOL0     C68916   9.073   0.389   5.287 -0.6412  0.2466  0.3569
  500MOL0     C68917   9.356   0.069   5.320 -0.2598  0.8890 -0.0197
  500MOL0     C68918   9.331  -0.057   5.382 -0.0381 -1.1638  0.0937
  500MOL0     C68919   9.402  -0.166   5.348 -0.3813 -0.9367  0.2392
  500MOL0     C68920   9.503  -0.163   5.256  0.5103 -0.6201 -0.3982
  500MOL0     O68921   9.579  -0.272   5.231 -0.0976 -0.0719  0.4304
  500MOL0     C68922   9.608  -0.347   5.347  0.1682  0.5177  0.4338
  500MOL0     C68923   9.538  -0.476   5.351 -0.1783 -0.2396 -1.2881
  500MOL0     C68924   9.590  -0.583   5.254 -0.0601 -1.0184  0.4832
  500MOL0     C68925   9.522  -0.712   5.287 -0.3786 -0.1529  0.8401
  500MOL0     C68926   9.608  -0.830   5.245 -0.4709  0.3699  0.5132
  500MOL0     C68927   9.672  -0.931   5.212  0.7306 -0.4719 -0.6651
  500MOL0     C68928   9.536  -0.040   5.206 -0.1428  0.4152  0.2124
  500MOL0     C68929   9.458   0.066   5.224  0.4233 -0.1449 -0.5324
  500MOL0     C68930   9.504   0.188   5.150  0.6345  0.6320 -0.4848
  500MOL0     H68931   9.337   0.491   5.472 -0.4118 -0.4501  1.3772
  500MOL0     H68932   9.178   0.637   5.555 -2.2423  0.6972  0.1700
  500MOL0     H68933   8.826   0.790   5.568  1.1858  1.7658 -1.6767
  500MOL0     H68934   8.996   0.770   5.540 -0.1049  0.6931  0.0590
  500MOL0     H68935   8.931   0.589   5.762  3.4971 -0.6418 -2.8164
  500MOL0     H68936   9.003   0.744   5.775 -1.3054  2.3135  2.3114
  500MOL0     H68937   8.790   0.851   5.796  1.9092  0.4672 -0.4341
  500MOL0     H68938   8.702   0.700   5.763  1.5957 -3.2365  0.7539
  500MOL0     H68939   8.762   0.607   5.970  1.6407  0.0563 -1.4482
  500MOL0     H68940   8.886   0.730   6.003 -0.6842  0.0299  4.1324
  500MOL0     H68941   8.670   0.892   6.007  0.2907  0.2252  0.6156
  500MOL0     H68942   8.727   0.797   6.148 -0.0776 -2.4902 -1.3202
  500MOL0     H68943   8.512   0.685   5.962 -1.4677 -0.9039  0.4797
  500MOL0     H68944   8.567   0.610   6.109  2.3210  0.2746 -1.5640
  500MOL0     H68945   8.440   0.886   6.100  1.0953  0.1477  1.3924
  500MOL0     H68946   8.482   0.805   6.244  0.1625  0.2742  1.0566
  500MOL0     H68947   8.265   0.689   6.050 -0.6678 -0.7425  1.1784
  500MOL0     H68948   8.330   0.614   6.185 -2.3515  0.2814  0.0502
  500MOL0     H68949   8.145   0.620   6.365 -0.8879  0.3127 -1.2539
  500MOL0     H68950   8.061   0.864   6.604 -1.4833  1.4262 -0.9521
  500MOL0     H68951   8.009   0.711   6.549  3.1128 -0.4189 -0.1193
  500MOL0     H68952   7.905   0.972   6.427  0.0530 -1.5848 -2.4601
  500MOL0     H68953   7.846   0.808   6.387 -2.9351  0.5684  0.4169
  500MOL0     H68954   7.798   0.980   6.628 -1.6415  0.5810 -0.3987
  500MOL0     H68955   7.678   0.905   6.526  0.7046  2.0414  1.7549
  500MOL0     H68956   7.736   0.674   6.625 -0.6790  1.1278 -1.2914
  500MOL0     H68957   7.842   0.769   6.746  0.4133  0.9167 -1.0299
  500MOL0     H68958   7.805   0.632   6.913 -1.4911 -3.4654 -3.3538
  500MOL0     H68959   7.780   0.599   7.244  2.5069 -0.4194  0.1758
  500MOL0     H68960   7.860   0.533   7.099 -1.9569 -0.9781 -1.6537
  500MOL0     H68961   7.750   0.436   7.187 -0.9068 -1.3009 -2.2744
  500MOL0     H68962   7.493   0.631   7.544 -0.0849 -0.5388 -0.2618
  500MOL0     H68963   7.401   0.506   7.744 -1.4848 -0.6090  1.7051
  500MOL0     H68964   7.012   0.428   7.808 -0.8760  1.2009 -0.2506
  500MOL0     H68965   7.121   0.407   7.948  1.2816 -2.0478 -1.2143
  500MOL0     H68966   7.235   0.618   7.865 -0.3680  0.9515  1.5098
  500MOL0     H68967   7.100   0.648   7.763  0.9275  1.2816 -0.3080
  500MOL0     H68968   7.082   0.756   7.988 -1.4854 -0.7714  2.1106
  500MOL0     H68969   7.095   0.602   8.073  0.5682 -0.2011  0.7095
  500MOL0     H68970   6.894   0.531   7.964 -1.8948  0.4155 -5.3945
  500MOL0     H68971   6.869   0.676   7.881  0.0003  0.5632  0.3752
  500MOL0     H68972   6.728   0.653   8.087  0.1435 -1.9757 -1.7323
  500MOL0     H68973   6.859   0.670   8.191 -0.9420 -2.7791 -1.2246
  500MOL0     H68974   6.801   0.889   7.988 -0.7607 -0.3294 -0.8256
  500MOL0     H68975   6.911   0.885   8.112  0.6560 -0.1833 -1.5389
  500MOL0     H68976   6.772   0.911   8.287 -0.0963 -2.6721  0.8637
  500MOL0     H68977   6.627   0.835   8.216 -0.1640  0.0969 -1.9795
  500MOL0     H68978   6.634   1.058   8.060  0.1833 -1.6444  0.3313
  500MOL0     H68979   6.763   1.109   8.161  2.2781 -3.1691 -1.8408
  500MOL0     H68980   7.075   0.367   7.518 -2.1435  2.2432  0.1214
  500MOL0     H68981   7.155   0.498   7.319  1.6444  1.6898 -1.0939
  500MOL0     H68982   7.341   0.712   7.052 -0.6372 -2.2106 -0.7920
  500MOL0     H68983   7.416   0.826   6.874 -1.5320 -0.8375 -0.9824
  500MOL0     H68984   8.873   0.472   5.317 -0.7797 -2.0997  1.3243
  500MOL0     H68985   9.044   0.338   5.196 -1.8250 -0.6239  1.1911
  500MOL0     H68986   9.245  -0.063   5.447  0.6394  1.3549  1.3641
  500MOL0     H68987   9.373  -0.259   5.396 -0.8876 -1.1902 -0.5291
  500MOL0     H68988   9.716  -0.363   5.350  0.1171  0.1312  0.2716
  500MOL0     H68989   9.593  -0.284   5.436  0.0730  1.8218 -0.4771
  500MOL0     H68990   9.430  -0.463   5.351  0.1144  3.1676 -0.4986
  500MOL0     H68991   9.556  -0.514   5.452 -2.8939 -1.8820 -1.3345
  500MOL0     H68992   9.578  -0.564   5.147  0.2650  1.8685  0.8800
  500MOL0     H68993   9.698  -0.591   5.274 -0.2248 -2.3105  1.0052
  500MOL0     H68994   9.431  -0.713   5.226 -0.1657  0.2488  0.5177
  500MOL0     H68995   9.502  -0.712   5.395 -1.3541  3.8446  0.7975
  500MOL0     H68996   9.730  -1.018   5.187 -0.1896 -1.8619  1.6695
  500MOL0     H68997   9.609  -0.026   5.127 -2.1295  0.9205 -1.6374
  500MOL0     H68998   9.532   0.272   5.214 -3.5832 -0.1052  2.7798
  500MOL0     H68999   9.593   0.169   5.090  2.0343 -1.0994  1.9703
  500MOL0     H69000   9.426   0.212   5.076  0.2972 -1.3562 -0.8286
  501MOL0     O69001   2.998   6.805   8.816  0.5756  0.0979  0.2015
  501MOL0     C69002   2.901   6.844   8.749  0.3256 -0.3328  0.4575
  501MOL0     O69003   2.916   6.891   8.622  1.2769  0.4580  0.3408
  501MOL0     C69004   3.027   6.954   8.591  0.2217  0.3263  0.8974
  501MOL0     C69005   3.066   6.941   8.455  1.0139  0.1519 -0.4363
  501MOL0     C69006   3.179   7.002   8.409 -0.0645 -0.2433  0.8723
  501MOL0     C69007   3.250   7.081   8.498  0.1210 -0.6043  0.5090
  501MOL0     O69008   3.358   7.140   8.429 -0.6157  0.1902 -0.8200
  501MOL0     C69009   3.436   7.238   8.500  0.8549  0.1976 -0.4386
  501MOL0     C69010   3.551   7.172   8.563  0.0420  0.2074  0.7455
  501MOL0     C69011   3.616   7.278   8.654  0.9200 -0.1401  0.0263
  501MOL0     C69012   3.714   7.375   8.577  0.3662  0.9596  0.4720
  501MOL0     C69013   3.781   7.465   8.673 -0.5202 -0.6376 -0.9170
  501MOL0     C69014   3.884   7.563   8.595  0.8660  0.2019  0.2874
  501MOL0     C69015   4.016   7.500   8.558  0.0893  0.1060 -0.6164
  501MOL0     C69016   4.114   7.518   8.673  0.0613 -0.1703 -0.5121
  501MOL0     N69017   4.140   7.646   8.725 -0.2359 -0.1089  0.4304
  501MOL0     C69018   4.234   7.727   8.661 -0.6074  0.2896  0.7390
  501MOL0     C69019   4.238   7.837   8.733 -0.6561 -0.2410 -0.0481
  501MOL0     C69020   4.334   7.962   8.719  0.9559  1.2022  0.5469
  501MOL0     C69021   4.278   8.080   8.645  0.2022 -0.1248 -0.5588
  501MOL0     C69022   4.149   8.149   8.691 -0.4696 -0.4400 -0.5515
  501MOL0     C69023   4.103   8.233   8.576 -0.0376  0.1416  0.2963
  501MOL0     O69024   4.168   8.357   8.552  0.2779  1.2925  0.7612
  501MOL0     C69025   4.132   8.421   8.433  0.1166  1.1085  0.5875
  501MOL0     C69026   4.148   8.558   8.414 -0.4767  0.0979  0.1720
  501MOL0     C69027   4.111   8.633   8.310 -0.3513 -0.2581 -0.0623
  501MOL0     C69028   4.110   8.789   8.325 -0.0798  0.3339  0.1679
  501MOL0     C69029   4.060   8.564   8.193  0.4983  0.3329 -0.0072
  501MOL0     C69030   4.035   8.634   8.062 -0.0390 -0.4177  0.3998
  501MOL0     O69031   3.984   8.553   7.970 -0.2594 -0.3071  0.6749
  501MOL0     C69032   3.959   8.591   7.839 -0.9734  0.8754 -0.2190
  501MOL0     C69033   3.835   8.592   7.781  1.1227  0.4803 -0.1010
  501MOL0     C69034   3.823   8.635   7.647 -0.0958  0.5494 -1.2664
  501MOL0     C69035   3.934   8.652   7.560  0.2100  0.6028 -0.3908
  501MOL0     O69036   3.923   8.672   7.426 -0.1370  0.1640 -0.7077
  501MOL0     C69037   3.796   8.675   7.368 -0.4441  0.7298 -0.3524
  501MOL0     C69038   3.825   8.657   7.215  0.3185 -0.0126 -0.1379
  501MOL0     C69039   3.916   8.547   7.168 -0.2369  0.0028  0.4424
  501MOL0     C69040   3.862   8.400   7.190 -0.6222 -0.6073  0.4733
  501MOL0     C69041   3.966   8.291   7.160  0.0140 -0.4779  0.7261
  501MOL0     C69042   3.899   8.156   7.189  0.3897 -0.7628  0.2719
  501MOL0     C69043   3.996   8.042   7.161  0.2678 -0.6044 -0.0676
  501MOL0     C69044   3.940   7.903   7.170 -0.4471 -1.3570  0.7670
  501MOL0    Cl69045   3.901   7.836   7.337  0.0393  0.1788 -0.2578
  501MOL0     C69046   4.067   8.634   7.611  0.4763 -0.0840 -0.9213
  501MOL0     C69047   4.076   8.616   7.756  0.4019  0.3086  0.0605
  501MOL0     O69048   4.056   8.761   8.049 -0.0704  0.0492 -0.2026
  501MOL0     C69049   4.046   8.420   8.200 -0.0097  0.0811 -0.1460
  501MOL0     C69050   4.087   8.349   8.313  1.0774  1.1045  0.0481
  501MOL0     N69051   4.144   7.831   8.832  0.6578 -0.0133 -1.3430
  501MOL0     N69052   4.080   7.718   8.829  0.9472  0.4115  0.0921
  501MOL0     C69053   3.213   7.093   8.635 -0.1281  0.3042 -0.0176
  501MOL0     C69054   3.105   7.030   8.681 -0.4285  0.3384  0.6520
  501MOL0     C69055   2.758   6.825   8.790  0.7620  0.7368 -0.2073
  501MOL0     C69056   2.726   6.802   8.930  0.0761 -0.7901 -0.7847
  501MOL0     C69057   2.601   6.778   8.986 -0.2893  0.1134  0.1268
  501MOL0     C69058   2.492   6.796   8.902 -0.4084  0.4015  1.1288
  501MOL0     O69059   2.362   6.776   8.941  0.0732 -0.0491  0.1721
  501MOL0     C69060   2.325   6.750   9.080 -0.5338 -0.7353 -0.0824
  501MOL0     C69061   2.169   6.778   9.100 -0.6647 -0.5160  0.5007
  501MOL0     C69062   2.131   6.777   9.250 -0.6698 -0.0546 -0.3043
  501MOL0     C69063   1.972   6.791   9.266 -0.8807  0.0269 -0.0750
  501MOL0     C69064   1.898   6.675   9.220 -0.5929  0.3890 -0.7381
  501MOL0     C69065   1.843   6.581   9.184  0.4578 -0.2808  0.1777
  501MOL0     C69066   2.509   6.827   8.767 -0.3076 -0.3676  0.4888
  501MOL0     C69067   2.637   6.850   8.713 -0.5897  1.2484 -0.6445
  501MOL0     C69068   2.645   6.902   8.571  0.5448 -0.2863  0.4160
  501MOL0     H69069   3.002   6.880   8.392  0.3422 -2.3838  2.4474
  501MOL0     H69070   3.221   6.991   8.310  3.9054  0.0778  2.3319
  501MOL0     H69071   3.371   7.285   8.575 -1.3214  0.0477 -2.1293
  501MOL0     H69072   3.457   7.315   8.426 -1.9014  0.0169 -1.5539
  501MOL0     H69073   3.525   7.086   8.625 -0.0231 -0.9700 -0.8621
  501MOL0     H69074   3.622   7.145   8.484  2.4321  1.6983  2.2320
  501MOL0     H69075   3.540   7.346   8.692  2.4054  2.5079 -1.4343
  501MOL0     H69076   3.667   7.222   8.733  2.3442 -1.3501 -1.6752
  501MOL0     H69077   3.779   7.293   8.546 -0.5679  0.3639  0.0369
  501MOL0     H69078   3.657   7.424   8.497 -0.6823  2.0006  1.8032
  501MOL0     H69079   3.825   7.410   8.757 -0.5995 -1.9202 -1.6909
  501MOL0     H69080   3.704   7.519   8.728  1.2953 -0.7264  1.8932
  501MOL0     H69081   3.836   7.574   8.497  1.2184 -2.0042 -0.1700
  501MOL0     H69082   3.900   7.658   8.648 -0.0402  0.1080  0.7558
  501MOL0     H69083   4.044   7.566   8.475 -1.3557  1.4562 -0.0749
  501MOL0     H69084   4.009   7.394   8.529  2.6933 -0.6040  1.0251
  501MOL0     H69085   4.074   7.463   8.759 -3.1869 -0.5387 -2.0968
  501MOL0     H69086   4.215   7.486   8.643  1.0457  0.4239  1.9455
  501MOL0     H69087   4.294   7.696   8.577 -1.5773 -1.1801  0.5571
  501MOL0     H69088   4.426   7.930   8.668  2.2138  1.8652  2.3021
  501MOL0     H69089   4.356   8.001   8.819 -2.2645  1.4162  1.2715
  501MOL0     H69090   4.370   8.140   8.640  3.2826 -4.3843 -3.9792
  501MOL0     H69091   4.257   8.051   8.541  1.6297  0.8380 -1.1537
  501MOL0     H69092   4.072   8.082   8.732 -0.5842 -0.8931 -1.4840
  501MOL0     H69093   4.153   8.209   8.782  0.7171 -1.2652 -0.0211
  501MOL0     H69094   4.098   8.165   8.491 -0.5366 -1.1930  1.3519
  501MOL0     H69095   3.995   8.249   8.590 -0.1947  0.0827 -0.8218
  501MOL0     H69096   4.180   8.608   8.505  1.3805 -2.8537  1.2931
  501MOL0     H69097   4.208   8.827   8.297  0.6856  0.7666  3.0856
  501MOL0     H69098   4.090   8.815   8.430 -2.5476  0.2201 -0.2155
  501MOL0     H69099   4.027   8.831   8.267  0.0915  0.0854 -0.2512
  501MOL0     H69100   3.753   8.558   7.843  0.6484 -1.6877 -1.8008
  501MOL0     H69101   3.722   8.628   7.609  0.6508 -2.6259 -2.9660
  501MOL0     H69102   3.723   8.596   7.389 -0.5072  1.0756  0.7906
  501MOL0     H69103   3.736   8.765   7.384 -1.7102  0.0379 -1.0379
  501MOL0     H69104   3.727   8.633   7.172 -1.4334 -0.2719  3.5946
  501MOL0     H69105   3.854   8.753   7.171  0.3923 -1.2783 -3.0449
  501MOL0     H69106   4.004   8.554   7.233 -0.6057  2.0175  0.7912
  501MOL0     H69107   3.956   8.549   7.066  1.0769  0.6646  0.9491
  501MOL0     H69108   3.777   8.369   7.129 -2.0453 -0.5010  2.2976
  501MOL0     H69109   3.846   8.392   7.298  0.5660  0.5696  0.7634
  501MOL0     H69110   4.004   8.288   7.058  0.9087 -0.9016  1.0671
  501MOL0     H69111   4.061   8.306   7.212  1.8248 -1.5366 -2.0959
  501MOL0     H69112   3.809   8.157   7.127 -0.5027  5.2325  1.0749
  501MOL0     H69113   3.862   8.143   7.292 -1.2839  0.8061 -0.0882
  501MOL0     H69114   4.090   8.050   7.216  0.1506  0.9886 -0.0594
  501MOL0     H69115   4.017   8.051   7.054 -0.8194 -3.2882 -0.6015
  501MOL0     H69116   4.013   7.830   7.135  0.1416 -1.3839  2.0081
  501MOL0     H69117   3.855   7.887   7.103  0.1711 -3.1138  0.3669
  501MOL0     H69118   4.153   8.631   7.545 -0.3911  1.9771 -2.2674
  501MOL0     H69119   4.171   8.609   7.808 -0.5199 -1.1933  1.6400
  501MOL0     H69120   4.013   8.362   8.114 -2.3541  1.9010 -0.5748
  501MOL0     H69121   4.082   8.242   8.296  2.6434  1.3255 -2.2116
  501MOL0     H69122   3.270   7.150   8.708 -0.2033 -2.0443  2.0225
  501MOL0     H69123   3.079   7.038   8.786 -1.6440  0.2993  0.3749
  501MOL0     H69124   2.805   6.808   9.004 -1.7922  2.7822  1.2050
  501MOL0     H69125   2.585   6.766   9.092 -2.0811 -2.7177 -0.3648
  501MOL0     H69126   2.337   6.643   9.100  1.2052 -0.4359  0.6584
  501MOL0     H69127   2.379   6.811   9.153 -4.2391  0.7311  1.6605
  501MOL0     H69128   2.107   6.700   9.054  1.1083 -2.1795  0.8147
  501MOL0     H69129   2.138   6.866   9.043 -1.3450 -3.2813 -3.7922
  501MOL0     H69130   2.159   6.687   9.304 -1.5994 -0.7801 -1.0137
  501MOL0     H69131   2.180   6.862   9.299 -0.1627 -1.2223  1.2489
  501MOL0     H69132   1.929   6.876   9.212 -3.1990  0.4926  2.3048
  501MOL0     H69133   1.945   6.803   9.372 -2.0148  0.7973 -0.4280
  501MOL0     H69134   1.823   6.484   9.143 -0.6030 -0.8017  1.8367
  501MOL0     H69135   2.422   6.832   8.702  1.4884  2.7471 -1.9383
  501MOL0     H69136   2.684   7.004   8.581 -1.5203  0.3919  2.5003
  501MOL0     H69137   2.710   6.836   8.513 -3.5211 -2.1969 -2.4760
  501MOL0     H69138   2.549   6.912   8.520  0.3676  1.7980  1.0504
  502MOL0     O69139   5.293   6.876  10.312 -0.4170  0.0237 -0.3907
  502MOL0     C69140   5.376   6.794  10.277 -0.5279 -0.1492  0.0918
  502MOL0     O69141   5.506   6.816  10.241 -0.1753  0.5074 -0.5480
  502MOL0     C69142   5.543   6.943  10.260  0.0414 -0.4211 -0.0083
  502MOL0     C69143   5.576   6.979  10.393 -0.0135  0.8767  0.8211
  502MOL0     C69144   5.635   7.105  10.406  0.3556 -0.4768 -0.2565
  502MOL0     C69145   5.672   7.195  10.305  0.1285 -0.4373  0.7334
  502MOL0     O69146   5.753   7.315  10.312  0.2615  1.4552 -0.4582
  502MOL0     C69147   5.774   7.364  10.446 -0.5076  0.4203 -0.7122
  502MOL0     C69148   5.828   7.497  10.449 -0.7034  0.0743  0.4816
  502MOL0     C69149   5.973   7.483  10.390 -0.5292 -0.7485  1.0370
  502MOL0     C69150   6.047   7.619  10.388  0.0264 -0.4569  0.3537
  502MOL0     C69151   6.186   7.593  10.312 -0.5806 -0.2633 -0.2770
  502MOL0     C69152   6.277   7.716  10.288  0.0252 -0.5256  0.0502
  502MOL0     C69153   6.422   7.671  10.260 -0.3914 -0.4081  1.2305
  502MOL0     C69154   6.506   7.786  10.199 -0.4839 -0.3585 -0.1973
  502MOL0     N69155   6.539   7.889  10.300 -0.2464  0.2149 -0.1266
  502MOL0     C69156   6.575   7.870  10.429 -0.0222  0.1412 -0.0491
  502MOL0     C69157   6.594   7.996  10.483 -0.9925 -0.4836  0.3777
  502MOL0     C69158   6.631   8.007  10.631 -0.2137 -0.5008 -0.6965
  502MOL0     C69159   6.708   8.138  10.661  0.0546 -0.4559 -1.6178
  502MOL0     C69160   6.753   8.170  10.811  0.5649  0.2699  0.2343
  502MOL0     C69161   6.887   8.105  10.843  0.1714  0.1833  0.3208
  502MOL0     O69162   6.888   8.075  10.984  0.1681  0.1562  1.2228
  502MOL0     C69163   7.005   8.045  11.038 -0.4751  0.1648 -0.2126
  502MOL0     C69164   7.107   7.995  10.965  0.1908 -0.0234  0.7941
  502MOL0     C69165   7.234   7.967  11.028 -0.8522 -0.2056  0.2932
  502MOL0     C69166   7.336   7.925  10.925 -0.0500  0.2670 -0.0338
  502MOL0     C69167   7.244   7.975  11.169  0.4547  0.1134  0.0769
  502MOL0     C69168   7.352   7.920  11.252 -0.0379 -0.5712  0.5688
  502MOL0     O69169   7.334   7.933  11.389 -0.6962  0.7003 -0.0148
  502MOL0     C69170   7.435   7.882  11.465  0.7319  0.5251 -0.0562
  502MOL0     C69171   7.394   7.772  11.544 -0.8977  1.1100  0.1191
  502MOL0     C69172   7.490   7.720  11.632  0.0920 -0.0252 -0.1013
  502MOL0     C69173   7.624   7.770  11.642  0.6513 -0.7310 -0.5795
  502MOL0     O69174   7.692   7.709  11.743 -0.4359 -0.1847  0.0913
  502MOL0     C69175   7.778   7.786  11.832 -1.0546  0.2080  0.5743
  502MOL0     C69176   7.751   7.757  11.978  0.2807 -0.1215 -0.5894
  502MOL0     C69177   7.806   7.617  12.028  0.1463 -1.5146  1.1721
  502MOL0     C69178   7.857   7.623  12.171 -0.1847 -0.1471  0.0244
  502MOL0     C69179   7.978   7.531  12.198 -0.0594 -0.2537  0.2725
  502MOL0     C69180   8.020   7.540  12.343 -0.3324 -0.2469 -0.5239
  502MOL0     C69181   8.119   7.416  12.368  0.7934 -0.0578  0.8158
  502MOL0     C69182   8.125   7.357  12.508  0.4499  0.9421  1.0684
  502MOL0    Cl69183   7.962   7.297  12.555 -0.5231  0.2365 -0.1654
  502MOL0     C69184   7.654   7.887  11.575 -0.1691 -0.1202  0.3090
  502MOL0     C69185   7.557   7.932  11.481 -0.1681 -0.5217 -0.6354
  502MOL0     O69186   7.440   7.860  11.200 -0.3083  0.3904  0.0872
  502MOL0     C69187   7.136   8.039  11.233  0.4988 -0.4274 -0.0975
  502MOL0     C69188   7.025   8.086  11.172 -0.0636 -0.0360 -0.0091
  502MOL0     N69189   6.568   8.093  10.393  0.1369 -0.2608 -0.5334
  502MOL0     N69190   6.533   8.027  10.285 -0.6899  0.3298 -0.0057
  502MOL0     C69191   5.628   7.156  10.180  0.9693 -0.4694 -0.4524
  502MOL0     C69192   5.564   7.034  10.156  0.6402  0.0631  0.1904
  502MOL0     C69193   5.348   6.646  10.297  0.6087 -0.1664  1.0314
  502MOL0     C69194   5.451   6.556  10.283 -0.6521 -0.7154  0.0869
  502MOL0     C69195   5.432   6.423  10.283 -0.2960 -0.4183 -0.0016
  502MOL0     C69196   5.308   6.368  10.308 -0.2644  0.1622 -0.1008
  502MOL0     O69197   5.291   6.225  10.325  0.0035 -0.2944  1.0048
  502MOL0     C69198   5.391   6.135  10.273 -0.3134  0.3210 -0.0084
  502MOL0     C69199   5.322   6.030  10.194  0.3762  0.0228  0.2614
  502MOL0     C69200   5.264   6.076  10.048  0.1082 -0.2726 -0.6514
  502MOL0     C69201   5.380   6.126   9.954  0.7554 -0.1441 -0.0218
  502MOL0     C69202   5.463   6.013   9.901 -0.7947  0.0336  0.4740
  502MOL0     C69203   5.546   5.924   9.870  0.2954 -0.5066  0.7708
  502MOL0     C69204   5.201   6.451  10.309  0.6735  0.4639  0.0017
  502MOL0     C69205   5.220   6.589  10.325  0.3298 -0.2476  0.9199
  502MOL0     C69206   5.095   6.681  10.357  0.0983 -0.0410  0.1979
  502MOL0     H69207   5.569   6.930  10.490 -1.3586  2.1938  1.4337
  502MOL0     H69208   5.658   7.143  10.505 -1.1999 -0.6100  0.1758
  502MOL0     H69209   5.857   7.305  10.486  2.4520  4.0701 -0.9889
  502MOL0     H69210   5.686   7.364  10.511 -0.6384  2.4303 -0.8208
  502MOL0     H69211   5.759   7.558  10.390  0.4120  0.2081 -0.7302
  502MOL0     H69212   5.818   7.532  10.552 -0.4489 -3.0488  1.6731
  502MOL0     H69213   6.037   7.417  10.450  2.0856 -1.4057 -2.2308
  502MOL0     H69214   5.961   7.440  10.291  0.8255  2.3028 -0.5826
  502MOL0     H69215   5.980   7.679  10.327 -0.3974 -2.2425 -0.9877
  502MOL0     H69216   6.087   7.652  10.485  3.0851 -1.1535 -0.5558
  502MOL0     H69217   6.159   7.555  10.213  2.2685  0.4217 -1.4280
  502MOL0     H69218   6.244   7.517  10.364  0.8499 -0.7720 -2.4699
  502MOL0     H69219   6.238   7.789  10.216 -0.9777 -0.6111  0.4786
  502MOL0     H69220   6.289   7.768  10.384  1.5566  0.8777 -0.8530
  502MOL0     H69221   6.405   7.606  10.173 -0.1575  0.8817  0.1884
  502MOL0     H69222   6.464   7.619  10.346  1.9907 -1.3263 -0.3882
  502MOL0     H69223   6.599   7.748  10.158 -0.0197  1.9196 -1.4446
  502MOL0     H69224   6.448   7.832  10.117 -2.6048 -0.2856  1.2525
  502MOL0     H69225   6.598   7.770  10.467 -1.0929  0.3978  1.3517
  502MOL0     H69226   6.703   7.932  10.666  1.4641 -0.1404 -3.0695
  502MOL0     H69227   6.537   8.001  10.685  0.6299 -0.3115  0.8466
  502MOL0     H69228   6.794   8.143  10.592  1.2515  0.3414 -0.1273
  502MOL0     H69229   6.641   8.221  10.635  0.2323 -0.0473 -0.8020
  502MOL0     H69230   6.769   8.277  10.824  2.2375  0.2301 -1.1840
  502MOL0     H69231   6.678   8.133  10.883  0.0673 -0.2485 -0.5268
  502MOL0     H69232   6.923   8.026  10.777  6.4246  1.7143  1.2433
  502MOL0     H69233   6.959   8.186  10.826 -0.5078  0.8930  0.7770
  502MOL0     H69234   7.106   7.961  10.861  2.1254  2.6939 -0.2191
  502MOL0     H69235   7.311   7.971  10.829  1.6275  0.7219 -0.2742
  502MOL0     H69236   7.340   7.816  10.921 -0.7272  0.0289  3.0429
  502MOL0     H69237   7.430   7.976  10.946  0.2307 -0.6864  1.1091
  502MOL0     H69238   7.294   7.731  11.540 -0.8425  0.9848 -0.0330
  502MOL0     H69239   7.475   7.630  11.690  0.8823  0.7542  1.3536
  502MOL0     H69240   7.882   7.773  11.800 -1.0174  5.1408 -2.2020
  502MOL0     H69241   7.753   7.889  11.806 -6.9926 -0.7268  1.0800
  502MOL0     H69242   7.812   7.833  12.027 -0.9938  2.4742 -2.7898
  502MOL0     H69243   7.648   7.781  12.006  0.4061  1.4372 -1.3784
  502MOL0     H69244   7.893   7.603  11.963 -0.3860 -1.1010  0.3456
  502MOL0     H69245   7.729   7.541  12.015 -0.1923 -1.6043  3.3488
  502MOL0     H69246   7.772   7.604  12.238 -0.2953  0.8373  0.1780
  502MOL0     H69247   7.884   7.725  12.197 -0.8594  0.3804 -1.2868
  502MOL0     H69248   7.960   7.428  12.165  4.7604 -0.9611 -0.9482
  502MOL0     H69249   8.059   7.579  12.143 -1.6814  0.8141 -1.3312
  502MOL0     H69250   7.935   7.526  12.411 -0.7770  4.5639  0.2964
  502MOL0     H69251   8.065   7.638  12.364 -1.0479  0.0940 -0.5374
  502MOL0     H69252   8.216   7.463  12.347 -0.5731  2.0077 -1.3399
  502MOL0     H69253   8.110   7.333  12.297 -1.2218  0.9595 -0.1949
  502MOL0     H69254   8.153   7.438  12.577  2.2098  2.9281 -1.7326
  502MOL0     H69255   8.192   7.270  12.509 -1.7951 -1.0070 -1.6548
  502MOL0     H69256   7.757   7.920  11.580 -0.2215 -0.0409  1.0193
  502MOL0     H69257   7.579   8.030  11.439  1.0953 -1.5546 -2.5133
  502MOL0     H69258   7.131   8.056  11.340  0.9187  0.0448 -0.1505
  502MOL0     H69259   6.945   8.142  11.220 -1.0062  0.3010 -1.8392
  502MOL0     H69260   5.649   7.213  10.090  0.0522  0.0851 -0.3356
  502MOL0     H69261   5.530   7.017  10.054  1.6931  2.5685 -0.6413
  502MOL0     H69262   5.554   6.589  10.278 -0.8361 -0.2984 -1.4374
  502MOL0     H69263   5.524   6.367  10.271  1.0981  2.0461 -1.7922
  502MOL0     H69264   5.473   6.169  10.209  0.9103 -2.9213 -0.3273
  502MOL0     H69265   5.443   6.094  10.359  0.2101  1.2193  0.1254
  502MOL0     H69266   5.242   5.991  10.258  0.2471 -0.2679 -0.0716
  502MOL0     H69267   5.394   5.949  10.183 -0.1245 -0.4316  0.3110
  502MOL0     H69268   5.205   5.994  10.006 -0.1348  1.4707 -3.9648
  502MOL0     H69269   5.198   6.157  10.078 -1.2901 -1.4894 -0.3152
  502MOL0     H69270   5.424   6.217   9.996 -2.2172  0.4320  2.2220
  502MOL0     H69271   5.340   6.165   9.860  0.1133 -0.9818 -0.1034
  502MOL0     H69272   5.618   5.854   9.831  0.6503  1.6712 -2.8323
  502MOL0     H69273   5.103   6.404  10.317 -0.0805  1.7521 -1.1537
  502MOL0     H69274   5.015   6.612  10.385  0.9100 -1.9235 -1.8611
  502MOL0     H69275   5.112   6.759  10.432 -4.4166  2.8940 -1.4064
  502MOL0     H69276   5.059   6.729  10.266  1.1530  1.5338  0.5711
  503MOL0     O69277   9.198   8.620   9.292  0.7922 -0.1733 -0.2669
  503MOL0     C69278   9.150   8.589   9.400  0.2273 -0.3430 -0.2137
  503MOL0     O69279   9.092   8.466   9.428 -0.0741  0.2354  0.1572
  503MOL0     C69280   9.129   8.375   9.339  0.4784 -0.3648 -0.3755
  503MOL0     C69281   9.038   8.346   9.232 -0.6824  0.0614 -0.3591
  503MOL0     C69282   9.073   8.260   9.133  0.3270 -0.2137  0.8274
  503MOL0     C69283   9.191   8.199   9.141  0.4028  0.4701 -0.4457
  503MOL0     O69284   9.230   8.113   9.040 -0.3552 -0.0086  0.0849
  503MOL0     C69285   9.365   8.073   9.031 -0.0228  0.7416  0.4275
  503MOL0     C69286   9.395   8.008   8.894  0.5745  0.2289  0.5009
  503MOL0     C69287   9.354   8.080   8.761  0.0673  0.1841 -0.1409
  503MOL0     C69288   9.211   8.052   8.718  0.2269 -0.1894 -1.4836
  503MOL0     C69289   9.169   8.179   8.644 -0.7337  0.4021 -0.3008
  503MOL0     C69290   9.224   8.178   8.504 -0.2428  0.2089  0.1269
  503MOL0     C69291   9.150   8.280   8.414  1.2979  0.4051 -0.4251
  503MOL0     C69292   9.217   8.270   8.277 -0.6812  0.2122 -1.0784
  503MOL0     N69293   9.165   8.369   8.180 -0.1083  0.7868 -0.2006
  503MOL0     C69294   9.137   8.501   8.198 -0.1701  0.4321  0.9295
  503MOL0     C69295   9.101   8.540   8.079 -1.1887  0.0492  0.5514
  503MOL0     C69296   9.062   8.678   8.038 -0.9812 -0.5659 -0.1215
  503MOL0     C69297   9.150   8.800   8.098 -0.2681  0.2253 -0.7664
  503MOL0     C69298   9.112   8.923   8.013  0.2092 -0.2444 -0.1428
  503MOL0     C69299   9.224   9.019   8.007 -0.2300 -0.1821  1.2594
  503MOL0     O69300   9.189   9.121   7.914 -0.1337  0.1929 -1.0511
  503MOL0     C69301   9.283   9.224   7.899  0.4550 -0.6026 -1.0937
  503MOL0     C69302   9.423   9.213   7.939  0.2551 -0.1098  0.3872
  503MOL0     C69303   9.510   9.315   7.911  0.1983 -0.3548 -0.4575
  503MOL0     C69304   9.648   9.296   7.976 -0.0580 -0.1328  0.6072
  503MOL0     C69305   9.460   9.431   7.855 -0.9165  0.0747  0.2210
  503MOL0     C69306   9.553   9.546   7.832  0.3368 -0.4525  1.1341
  503MOL0     O69307   9.677   9.543   7.881  0.2863  0.3992 -0.2467
  503MOL0     C69308   9.773   9.626   7.833 -0.0903  1.5810  0.2795
  503MOL0     C69309   9.818   9.738   7.901  0.2904 -0.2296  0.5994
  503MOL0     C69310   9.935   9.805   7.859 -0.6532 -0.3017 -0.4004
  503MOL0     C69311  10.000   9.768   7.743 -0.0480  0.9621  0.9118
  503MOL0     O69312  10.104   9.844   7.696  0.2872 -0.3599 -0.5466
  503MOL0     C69313  10.132   9.848   7.561  0.1859  0.9556  1.1570
  503MOL0     C69314  10.206   9.985   7.544 -0.8655  0.6745 -0.0121
  503MOL0     C69315  10.223  10.008   7.387 -0.3987  0.6262  0.4360
  503MOL0     C69316  10.345  10.098   7.337 -0.3366  0.7838 -0.0745
  503MOL0     C69317  10.323  10.140   7.195 -0.1210  1.0402 -0.1563
  503MOL0     C69318  10.421  10.258   7.168 -0.9031  0.2264  0.4389
  503MOL0     C69319  10.447  10.286   7.014  0.2027  0.0537 -0.1831
  503MOL0     C69320  10.511  10.416   6.980  0.2848  0.0858 -1.6775
  503MOL0    Cl69321  10.630  10.475   7.095  0.1757  0.2492  0.1143
  503MOL0     C69322   9.961   9.645   7.676  0.2134  0.5143 -0.6320
  503MOL0     C69323   9.850   9.580   7.723 -0.5091 -0.5903  0.1252
  503MOL0     O69324   9.508   9.641   7.761 -0.6250  0.5498  0.0371
  503MOL0     C69325   9.323   9.443   7.825 -0.6151 -0.2759 -0.6379
  503MOL0     C69326   9.235   9.342   7.847  0.7409  0.3517  0.4912
  503MOL0     N69327   9.098   8.431   7.985 -0.6023  0.0685 -0.2245
  503MOL0     N69328   9.132   8.326   8.052  0.7114  0.0753 -0.0027
  503MOL0     C69329   9.272   8.212   9.255  0.4311  0.1573 -0.0361
  503MOL0     C69330   9.238   8.300   9.350  0.8272  0.4238 -0.1956
  503MOL0     C69331   9.130   8.701   9.503 -0.5101 -0.4991 -0.2386
  503MOL0     C69332   9.007   8.720   9.569  0.3503 -0.3215 -0.2247
  503MOL0     C69333   8.995   8.814   9.672 -0.2719  0.9646 -0.7484
  503MOL0     C69334   9.111   8.883   9.720  0.5950 -0.0592 -0.2730
  503MOL0     O69335   9.092   8.981   9.819  0.2511  0.3570 -0.1250
  503MOL0     C69336   9.204   9.011   9.908  0.0054  0.3232 -0.3375
  503MOL0     C69337   9.270   8.884   9.977  0.1942 -0.4159  0.0155
  503MOL0     C69338   9.373   8.922  10.085  0.9847 -0.3114  0.2185
  503MOL0     C69339   9.430   8.792  10.159 -0.6519 -0.4382 -0.0275
  503MOL0     C69340   9.500   8.719  10.054  0.7189  0.1275 -0.0839
  503MOL0     C69341   9.554   8.656   9.966  0.1967  0.1976  0.2497
  503MOL0     C69342   9.232   8.872   9.648  0.6016 -0.1599 -0.4153
  503MOL0     C69343   9.239   8.776   9.553 -1.1287 -0.1516  0.8078
  503MOL0     C69344   9.371   8.742   9.505  0.2764 -0.3584  0.4627
  503MOL0     H69345   8.944   8.400   9.224 -0.2501  0.5419 -3.1848
  503MOL0     H69346   9.024   8.245   9.038  2.3736  2.2935 -0.7481
  503MOL0     H69347   9.385   7.993   9.103 -0.5976 -0.4346 -0.6762
  503MOL0     H69348   9.427   8.161   9.049 -0.9057  1.0312  2.2296
  503MOL0     H69349   9.504   8.002   8.896  0.5616 -0.3437 -0.1518
  503MOL0     H69350   9.348   7.910   8.881 -0.6607  1.2092 -4.4200
  503MOL0     H69351   9.358   8.188   8.780 -3.3885 -0.1629  4.2599
  503MOL0     H69352   9.420   8.061   8.677  0.6467 -0.1235  0.3760
  503MOL0     H69353   9.189   7.956   8.670  1.1869 -1.0276 -0.2964
  503MOL0     H69354   9.147   8.049   8.806  1.9796 -3.0005 -0.1449
  503MOL0     H69355   9.201   8.265   8.704  0.2894 -0.4424  0.4062
  503MOL0     H69356   9.060   8.177   8.645 -0.7300  0.1822 -0.3259
  503MOL0     H69357   9.328   8.213   8.498  0.1799 -0.5627  2.1048
  503MOL0     H69358   9.214   8.075   8.471  1.0187 -0.2985  1.2196
  503MOL0     H69359   9.156   8.384   8.450 -2.8539  0.0071  2.1958
  503MOL0     H69360   9.043   8.260   8.403  0.9184  2.2692 -0.6149
  503MOL0     H69361   9.320   8.304   8.295 -0.4847  1.3073 -3.8603
  503MOL0     H69362   9.209   8.167   8.241 -3.2881 -0.7591  1.8400
  503MOL0     H69363   9.132   8.555   8.293 -3.9153 -0.6079  1.5188
  503MOL0     H69364   8.961   8.708   8.067  0.2145  4.8139 -0.3611
  503MOL0     H69365   9.064   8.667   7.929  2.3952 -3.3490  0.0581
  503MOL0     H69366   9.133   8.821   8.204  0.9779 -0.9240 -0.2982
  503MOL0     H69367   9.259   8.787   8.089  0.3374  4.7249 -2.3967
  503MOL0     H69368   9.089   8.884   7.913 -0.0311 -2.2683  0.6647
  503MOL0     H69369   9.028   8.977   8.056 -0.5881  0.1252 -2.0499
  503MOL0     H69370   9.253   9.055   8.106 -2.1251 -2.3149  2.7042
  503MOL0     H69371   9.315   8.969   7.973 -1.2934 -0.9082 -0.6691
  503MOL0     H69372   9.451   9.127   7.998 -0.6546  1.6979  3.6645
  503MOL0     H69373   9.675   9.196   8.010  2.0413  0.2561  0.2084
  503MOL0     H69374   9.645   9.356   8.067  0.2235 -1.1764  1.3171
  503MOL0     H69375   9.730   9.331   7.912  0.7023 -1.4499  0.8472
  503MOL0     H69376   9.767   9.765   7.993  4.9781 -3.0335  4.5130
  503MOL0     H69377   9.971   9.873   7.935 -0.0832 -1.8018  0.7210
  503MOL0     H69378  10.196   9.771   7.517 -0.9569  1.2847 -1.2414
  503MOL0     H69379  10.037   9.848   7.506  2.0236  1.3456 -2.3124
  503MOL0     H69380  10.145  10.063   7.590  0.8369  1.5179  0.9184
  503MOL0     H69381  10.309   9.977   7.579 -0.6660  0.1112 -0.7145
  503MOL0     H69382  10.132  10.056   7.349 -0.9704 -0.1498  0.8136
  503MOL0     H69383  10.236   9.908   7.346  2.4092  0.5072  1.4166
  503MOL0     H69384  10.440  10.054   7.368  0.3181  1.8674 -0.4877
  503MOL0     H69385  10.331  10.188   7.398 -0.1876  0.4223  0.4977
  503MOL0     H69386  10.336  10.052   7.132  1.5806 -0.8824  2.6784
  503MOL0     H69387  10.222  10.180   7.177 -0.7872 -0.2382  0.6274
  503MOL0     H69388  10.514  10.249   7.225 -3.1885 -1.0992  4.3540
  503MOL0     H69389  10.379  10.355   7.193  0.4479  1.4565 -1.7877
  503MOL0     H69390  10.346  10.278   6.973  0.1157  0.1385  0.0088
  503MOL0     H69391  10.503  10.210   6.960 -2.1989 -0.5621 -1.9674
  503MOL0     H69392  10.438  10.497   6.991  0.4183 -0.0241  0.5341
  503MOL0     H69393  10.553  10.406   6.880 -0.3366 -1.8235 -1.7965
  503MOL0     H69394  10.014   9.610   7.587  1.5233 -0.4494  0.4886
  503MOL0     H69395   9.815   9.486   7.681 -1.3565 -1.4939  2.6498
  503MOL0     H69396   9.285   9.538   7.790 -2.5769 -1.3738 -1.6626
  503MOL0     H69397   9.135   9.348   7.806  0.7305 -1.0761  0.2627
  503MOL0     H69398   9.365   8.158   9.264  1.8509  2.2610 -1.2373
  503MOL0     H69399   9.300   8.324   9.436  1.3361  3.6045 -1.3152
  503MOL0     H69400   8.923   8.662   9.533  3.1857 -5.2926  0.3267
  503MOL0     H69401   8.904   8.825   9.730  0.5412 -0.0033  0.7627
  503MOL0     H69402   9.281   9.065   9.852 -0.9060  2.6608  0.5321
  503MOL0     H69403   9.176   9.069   9.997  0.8275  2.0399 -1.1411
  503MOL0     H69404   9.308   8.818   9.898  0.0756 -0.3044 -0.1348
  503MOL0     H69405   9.198   8.829  10.039  1.9388 -2.6422  0.1963
  503MOL0     H69406   9.456   8.976  10.038  0.1488  0.6783 -0.1660
  503MOL0     H69407   9.327   8.991  10.157  1.5849  1.5128 -1.0566
  503MOL0     H69408   9.352   8.732  10.207 -0.0245 -1.6090 -0.4351
  503MOL0     H69409   9.501   8.818  10.238 -1.4659  1.3799  0.1589
  503MOL0     H69410   9.620   8.609   9.896 -0.3004  0.1759 -0.2135
  503MOL0     H69411   9.316   8.937   9.672  0.5125 -0.5586  1.0410
  503MOL0     H69412   9.389   8.638   9.534 -2.2661 -0.7377  0.9709
  503MOL0     H69413   9.376   8.744   9.396  0.0982 -0.6427  0.4468
  503MOL0     H69414   9.446   8.809   9.547  0.9931 -1.7141  1.4076
  504MOL0     O69415   1.719   2.107  11.390 -0.6383  0.2992  0.4485
  504MOL0     C69416   1.794   2.145  11.484  0.5427  0.4683  0.3663
  504MOL0     O69417   1.771   2.126  11.615 -0.0320 -0.2428  0.2078
  504MOL0     C69418   1.664   2.053  11.667 -0.1671 -0.2605  1.1288
  504MOL0     C69419   1.555   2.138  11.691  0.8402  0.9354  0.6887
  504MOL0     C69420   1.450   2.087  11.766  0.3213  0.4916  0.5700
  504MOL0     C69421   1.449   1.957  11.820 -0.1461  0.0995 -0.2501
  504MOL0     O69422   1.349   1.892  11.899 -0.7191  0.5499  0.7444
  504MOL0     C69423   1.219   1.901  11.834  0.0082  0.7233  0.2149
  504MOL0     C69424   1.114   1.834  11.911  0.7275  0.5840 -0.5725
  504MOL0     C69425   0.977   1.807  11.846  0.6359  0.3828 -0.0994
  504MOL0     C69426   0.978   1.700  11.728 -0.9501 -0.9186 -0.1928
  504MOL0     C69427   0.842   1.645  11.688 -0.5904  0.5621  0.1693
  504MOL0     C69428   0.741   1.752  11.634 -0.3204 -0.3965  0.3860
  504MOL0     C69429   0.780   1.806  11.501  0.6008 -0.2645 -0.7836
  504MOL0     C69430   0.655   1.872  11.432 -0.4649  1.2374 -0.1496
  504MOL0     N69431   0.702   1.958  11.320  0.0372  0.2028  0.2535
  504MOL0     C69432   0.767   2.080  11.336 -0.1012 -0.6777  0.5892
  504MOL0     C69433   0.782   2.127  11.213  0.4459 -0.3185 -0.2654
  504MOL0     C69434   0.830   2.260  11.165  0.1596  0.0490 -0.3426
  504MOL0     C69435   0.937   2.253  11.061 -0.2949 -0.2178  0.8766
  504MOL0     C69436   0.996   2.389  11.045  0.3369  0.5657  0.2213
  504MOL0     C69437   1.114   2.386  10.941 -0.3704 -0.7803 -0.9470
  504MOL0     O69438   1.244   2.401  11.008 -0.2514  0.7047 -1.0838
  504MOL0     C69439   1.301   2.525  11.029 -0.7713 -0.5131 -0.8431
  504MOL0     C69440   1.225   2.643  11.039  0.3962 -1.0632  0.8212
  504MOL0     C69441   1.291   2.766  11.058  0.5018  1.1328 -0.6960
  504MOL0     C69442   1.222   2.902  11.050  0.9154 -0.3189 -0.0805
  504MOL0     C69443   1.437   2.763  11.057 -0.1161 -0.9056 -0.2869
  504MOL0     C69444   1.523   2.882  11.082  0.3871 -0.0504  0.4486
  504MOL0     O69445   1.639   2.874  11.152  0.1759  0.2151  0.1053
  504MOL0     C69446   1.697   2.991  11.178 -0.4823  0.1423  0.4145
  504MOL0     C69447   1.650   3.093  11.264 -0.2106 -1.6314 -0.6057
  504MOL0     C69448   1.731   3.210  11.279 -0.6541  0.1586  0.7503
  504MOL0     C69449   1.853   3.235  11.211 -0.4433 -0.1946  0.0698
  504MOL0     O69450   1.916   3.354  11.236 -0.1718  0.1014  0.7911
  504MOL0     C69451   2.054   3.358  11.204  0.6220  0.5003  0.3559
  504MOL0     C69452   2.112   3.487  11.273 -0.9234 -0.2965 -0.2438
  504MOL0     C69453   2.258   3.518  11.228 -0.0369 -0.4582 -0.2805
  504MOL0     C69454   2.287   3.560  11.094  0.1622 -0.2281  0.2024
  504MOL0     C69455   2.264   3.720  11.081  0.8333  0.0094 -0.5367
  504MOL0     C69456   2.287   3.764  10.938 -0.3483  0.0264  0.6681
  504MOL0     C69457   2.263   3.911  10.909 -0.1388  0.1313 -0.5328
  504MOL0     C69458   2.143   3.969  10.977  0.7125 -0.5329  0.5119
  504MOL0    Cl69459   2.118   4.148  10.946 -0.2752  0.5871  0.0117
  504MOL0     C69460   1.897   3.129  11.124  0.5555 -1.3051  0.7287
  504MOL0     C69461   1.820   3.008  11.111 -0.6737 -0.1386 -1.3179
  504MOL0     O69462   1.480   2.989  11.043  0.3499 -0.2228 -0.2502
  504MOL0     C69463   1.504   2.636  11.066 -0.0369  0.1424 -0.0363
  504MOL0     C69464   1.438   2.513  11.052  0.5024 -0.1701  0.8757
  504MOL0     N69465   0.741   2.038  11.116 -0.2404  1.3519  0.0953
  504MOL0     N69466   0.688   1.940  11.181 -1.1516 -0.1909 -0.6100
  504MOL0     C69467   1.576   1.887  11.813  0.1838  0.1654  0.4329
  504MOL0     C69468   1.677   1.935  11.732 -1.3872  0.1570  0.6879
  504MOL0     C69469   1.929   2.187  11.439 -0.3192 -0.9081  0.2274
  504MOL0     C69470   1.981   2.133  11.327 -0.3270 -0.2137  0.5387
  504MOL0     C69471   2.088   2.182  11.259 -1.2183 -0.0360  0.0136
  504MOL0     C69472   2.159   2.295  11.307  1.0645  0.5319 -0.0634
  504MOL0     O69473   2.259   2.362  11.245  0.1512  0.3256 -0.2679
  504MOL0     C69474   2.305   2.310  11.115  0.6336  0.6720  0.5788
  504MOL0     C69475   2.430   2.383  11.062 -0.0788  0.7281 -1.0295
  504MOL0     C69476   2.549   2.350  11.143  0.5198  0.2711  0.7388
  504MOL0     C69477   2.684   2.353  11.076  0.1751 -0.0993 -0.7450
  504MOL0     C69478   2.778   2.306  11.177  0.4001  1.6720  0.8109
  504MOL0     C69479   2.860   2.261  11.248 -0.1346 -0.0016 -0.4521
  504MOL0     C69480   2.105   2.347  11.425  0.2189  0.7061  0.2995
  504MOL0     C69481   1.988   2.304  11.494 -0.0751 -0.2828  0.0304
  504MOL0     C69482   1.934   2.379  11.610  0.7716  0.3499  0.1018
  504MOL0     H69483   1.544   2.233  11.640  2.1871  1.0117  0.5046
  504MOL0     H69484   1.365   2.150  11.786  0.1759  1.1204 -1.7325
  504MOL0     H69485   1.223   1.858  11.734  0.2041  0.5897  0.2779
  504MOL0     H69486   1.190   2.006  11.827  2.2776  1.3294 -1.6877
  504MOL0     H69487   1.152   1.737  11.943  0.3156 -0.4796 -3.1351
  504MOL0     H69488   1.100   1.906  11.993  3.9858  2.5842 -1.5533
  504MOL0     H69489   0.914   1.759  11.921  0.7105 -0.9209 -0.8265
  504MOL0     H69490   0.930   1.898  11.809 -0.2667 -0.0476 -0.0443
  504MOL0     H69491   1.023   1.746  11.639 -3.4719  0.2332 -0.9519
  504MOL0     H69492   1.053   1.626  11.759  2.0986  1.9672 -0.0807
  504MOL0     H69493   0.799   1.604  11.779  0.2999  0.1004  0.3890
  504MOL0     H69494   0.852   1.571  11.607  1.8983  0.5880  0.4042
  504MOL0     H69495   0.641   1.710  11.625 -0.1283 -0.7178 -0.3744
  504MOL0     H69496   0.737   1.840  11.700  0.3290  1.8694 -2.3898
  504MOL0     H69497   0.824   1.731  11.435  2.9801 -0.4587  0.9256
  504MOL0     H69498   0.853   1.885  11.525 -3.1755  3.5124 -0.5279
  504MOL0     H69499   0.590   1.789  11.403 -1.0891  1.3210  0.9422
  504MOL0     H69500   0.592   1.931  11.500 -3.4861 -0.1782 -1.4902
  504MOL0     H69501   0.792   2.124  11.432 -1.4923  2.0391 -0.1898
  504MOL0     H69502   0.885   2.311  11.243  0.5070 -2.5698  1.2519
  504MOL0     H69503   0.741   2.314  11.130  0.3152 -0.9427 -2.4295
  504MOL0     H69504   1.012   2.183  11.099 -2.0837 -2.2200  0.9359
  504MOL0     H69505   0.907   2.211  10.964 -1.9669  1.1891  0.7472
  504MOL0     H69506   0.914   2.450  11.006  2.0328  2.2498 -0.8868
  504MOL0     H69507   1.031   2.438  11.137 -0.7085  2.1778 -0.1847
  504MOL0     H69508   1.104   2.290  10.888 -0.1228 -1.3446 -0.0005
  504MOL0     H69509   1.119   2.465  10.866  0.0032 -0.2130 -0.3402
  504MOL0     H69510   1.121   2.632  11.013  0.8505 -2.3894 -0.5505
  504MOL0     H69511   1.113   2.894  11.050  0.5405  2.9935 -1.1876
  504MOL0     H69512   1.237   2.972  10.967 -0.6196  0.8555  0.5880
  504MOL0     H69513   1.253   2.954  11.141  0.3205  2.6677 -1.4546
  504MOL0     H69514   1.555   3.068  11.311 -1.7185  1.7669 -1.5251
  504MOL0     H69515   1.701   3.279  11.356  0.5264 -0.5418  1.8865
  504MOL0     H69516   2.110   3.272  11.242  3.1771  0.3854 -3.1591
  504MOL0     H69517   2.069   3.356  11.096 -1.0295 -0.0461  0.1086
  504MOL0     H69518   2.054   3.578  11.253  0.1112  0.2738 -0.7818
  504MOL0     H69519   2.114   3.460  11.379  2.4124 -0.2951 -0.1935
  504MOL0     H69520   2.321   3.430  11.244  1.8420  0.6176 -1.2927
  504MOL0     H69521   2.305   3.591  11.295  3.0933 -3.3689  0.9949
  504MOL0     H69522   2.221   3.506  11.025 -0.2413 -0.3397  0.6679
  504MOL0     H69523   2.393   3.540  11.077  0.3322 -0.8057  1.8253
  504MOL0     H69524   2.159   3.735  11.108  0.4718  1.1444 -2.3559
  504MOL0     H69525   2.327   3.777  11.149  3.0468 -0.9467 -1.6749
  504MOL0     H69526   2.225   3.706  10.870  2.2951 -1.1689 -0.8454
  504MOL0     H69527   2.391   3.733  10.929 -0.2738 -3.1083  6.7074
  504MOL0     H69528   2.265   3.928  10.801 -0.8126 -1.0291 -0.7502
  504MOL0     H69529   2.357   3.952  10.948  1.0228  1.7445 -4.6036
  504MOL0     H69530   2.160   3.968  11.085  1.0780  2.7435  0.6010
  504MOL0     H69531   2.047   3.922  10.952 -1.1396  1.9106  2.3424
  504MOL0     H69532   1.989   3.147  11.069 -1.2276  1.7637 -1.6569
  504MOL0     H69533   1.845   2.931  11.039  0.2269 -0.7313 -0.3939
  504MOL0     H69534   1.612   2.628  11.069  0.0097 -0.3632 -1.8915
  504MOL0     H69535   1.480   2.414  11.048 -3.9712 -2.2976  0.1325
  504MOL0     H69536   1.609   1.793  11.856  2.6205 -0.4571 -2.4057
  504MOL0     H69537   1.777   1.892  11.723  0.2123  3.7934 -0.5986
  504MOL0     H69538   1.925   2.054  11.278  1.6457  0.0715 -2.3848
  504MOL0     H69539   2.112   2.127  11.168 -1.7782 -0.7825  0.3090
  504MOL0     H69540   2.322   2.203  11.102 -2.1330  0.4656 -3.0642
  504MOL0     H69541   2.236   2.320  11.031  0.7535 -1.7408  0.1155
  504MOL0     H69542   2.401   2.488  11.053 -1.8432  0.5249  1.4397
  504MOL0     H69543   2.448   2.346  10.961  0.2728 -1.1018 -0.3417
  504MOL0     H69544   2.551   2.418  11.229 -1.1751  2.4403 -0.8073
  504MOL0     H69545   2.536   2.249  11.181 -0.0941  0.0301 -0.0781
  504MOL0     H69546   2.720   2.452  11.047  1.0395 -0.0171  0.5350
  504MOL0     H69547   2.675   2.289  10.988  1.9842  1.8298 -2.4247
  504MOL0     H69548   2.942   2.215  11.299 -1.5081 -1.9077  0.1540
  504MOL0     H69549   2.144   2.441  11.461 -3.0281  2.2134  0.2829
  504MOL0     H69550   1.826   2.366  11.604  0.9346 -0.7833 -0.9012
  504MOL0     H69551   1.976   2.361  11.709 -0.7867  2.0706  1.1275
  504MOL0     H69552   1.951   2.485  11.588  0.2058 -0.2758 -4.4107
  505MOL0     O69553   2.118   1.070  10.872  0.2393  0.1002 -0.1959
  505MOL0     C69554   2.129   1.191  10.904  0.5057 -0.8393  0.6759
  505MOL0     O69555   2.058   1.293  10.858 -0.0386  0.0310  0.8344
  505MOL0     C69556   1.953   1.264  10.769 -0.7497 -1.5076 -0.2819
  505MOL0     C69557   1.959   1.325  10.646 -1.7546  0.0192  0.7272
  505MOL0     C69558   1.865   1.292  10.549  0.4533 -0.1054 -0.6046
  505MOL0     C69559   1.751   1.208  10.577 -0.5717  0.6552 -0.1519
  505MOL0     O69560   1.662   1.187  10.469 -0.4103  0.2216  0.2636
  505MOL0     C69561   1.526   1.175  10.498  0.4667  0.1808  0.1051
  505MOL0     C69562   1.426   1.248  10.406 -0.2082 -0.1234 -0.5669
  505MOL0     C69563   1.443   1.410  10.427  0.3013  0.3713 -0.5911
  505MOL0     C69564   1.357   1.471  10.312 -1.0556 -0.5525  0.6271
  505MOL0     C69565   1.357   1.624  10.295  0.4883 -0.1320 -0.3526
  505MOL0     C69566   1.292   1.662  10.157 -0.2452 -0.1696 -0.1047
  505MOL0     C69567   1.269   1.817  10.135  0.2653  0.3048 -0.4960
  505MOL0     C69568   1.406   1.896  10.127 -0.2913 -0.0656 -0.3586
  505MOL0     N69569   1.391   2.035  10.143 -0.0958  0.1415  0.1818
  505MOL0     C69570   1.386   2.102  10.265 -0.0640 -0.3953 -0.3989
  505MOL0     C69571   1.371   2.233  10.236 -0.3036 -0.4503  0.2973
  505MOL0     C69572   1.385   2.358  10.317  0.6743 -0.1187 -0.9775
  505MOL0     C69573   1.519   2.428  10.281 -0.1480 -0.2256  0.7938
  505MOL0     C69574   1.650   2.369  10.344  0.1903 -0.8503  0.0738
  505MOL0     C69575   1.767   2.473  10.360 -0.5754  0.3864 -0.0087
  505MOL0     O69576   1.804   2.523  10.226  0.3221  0.2044 -0.1242
  505MOL0     C69577   1.905   2.614  10.237  0.5727 -0.1694  0.0633
  505MOL0     C69578   1.927   2.682  10.112 -0.5111 -0.1614  0.1666
  505MOL0     C69579   2.033   2.778  10.102  0.2686  0.0818 -0.1275
  505MOL0     C69580   2.051   2.848   9.974  0.0144 -0.1774 -0.0339
  505MOL0     C69581   2.102   2.822  10.218  0.5308  0.5757  0.0312
  505MOL0     C69582   2.202   2.929  10.224  0.6599  1.1634  1.1380
  505MOL0     O69583   2.297   2.920  10.128 -0.7270  0.3685 -0.0419
  505MOL0     C69584   2.360   3.032  10.083  0.3645 -0.3774  0.1106
  505MOL0     C69585   2.500   3.031  10.080 -0.1575 -0.0066  0.1265
  505MOL0     C69586   2.561   3.142  10.027 -0.7005  0.2426 -0.1105
  505MOL0     C69587   2.501   3.266   9.990  0.1783 -0.0607  0.4475
  505MOL0     O69588   2.583   3.359   9.940 -0.4044 -0.2152  0.6651
  505MOL0     C69589   2.517   3.465   9.881  0.0408 -0.0064  0.5529
  505MOL0     C69590   2.611   3.546   9.787 -1.4139  0.4573 -0.4941
  505MOL0     C69591   2.544   3.600   9.664 -0.5813  0.3163 -0.2155
  505MOL0     C69592   2.629   3.684   9.560  0.1147 -1.0594 -0.3698
  505MOL0     C69593   2.742   3.581   9.506  0.2677  0.4947  0.4116
  505MOL0     C69594   2.700   3.452   9.417  0.7513 -0.2801 -0.3944
  505MOL0     C69595   2.630   3.490   9.287 -0.0776  0.0639  0.5103
  505MOL0     C69596   2.500   3.414   9.259  0.3772 -0.9309 -0.4956
  505MOL0    Cl69597   2.547   3.258   9.190  0.4749 -0.0181  0.0631
  505MOL0     C69598   2.357   3.271   9.997  0.6210  0.9843 -0.0451
  505MOL0     C69599   2.291   3.152  10.031  0.6923  0.4353 -0.5408
  505MOL0     O69600   2.200   3.013  10.318 -0.8024 -0.5769  0.4643
  505MOL0     C69601   2.070   2.757  10.341 -0.6376 -0.3217 -0.1993
  505MOL0     C69602   1.979   2.651  10.344  0.9294  0.0905  0.2409
  505MOL0     N69603   1.378   2.241  10.100  0.4182 -0.2284 -0.1939
  505MOL0     N69604   1.390   2.125  10.044 -0.9142  0.4072  0.0512
  505MOL0     C69605   1.744   1.156  10.711 -0.5646  0.3243 -0.1262
  505MOL0     C69606   1.851   1.176  10.801  0.4654 -0.1866 -0.0437
  505MOL0     C69607   2.228   1.216  11.006  0.0037  0.6186  0.0216
  505MOL0     C69608   2.361   1.178  10.969 -0.2665  0.0432 -0.1511
  505MOL0     C69609   2.459   1.197  11.067 -0.0811 -0.4376  0.0848
  505MOL0     C69610   2.431   1.243  11.194 -0.4557 -0.3177 -0.3352
  505MOL0     O69611   2.530   1.220  11.292  0.6893  0.4396  0.8709
  505MOL0     C69612   2.495   1.141  11.408  0.4260  0.4252  0.9838
  505MOL0     C69613   2.501   0.997  11.381  0.4908  0.1240 -0.0486
  505MOL0     C69614   2.613   0.937  11.293  0.3903  0.2395 -0.7608
  505MOL0     C69615   2.758   0.963  11.346  0.3506  0.3526  0.1796
  505MOL0     C69616   2.788   0.876  11.455 -0.2315  0.2144 -0.5352
  505MOL0     C69617   2.815   0.797  11.549 -0.1150 -0.2484  0.4413
  505MOL0     C69618   2.298   1.283  11.224 -0.5571  0.1595  0.9894
  505MOL0     C69619   2.205   1.273  11.125  0.0308  0.1008 -0.4230
  505MOL0     C69620   2.068   1.327  11.150  0.0038  0.7460  0.1512
  505MOL0     H69621   2.051   1.379  10.627 -2.4403  0.8207 -0.4714
  505MOL0     H69622   1.885   1.339  10.453 -1.0078  0.2030 -0.7803
  505MOL0     H69623   1.500   1.193  10.603  1.1473  1.7483  0.0356
  505MOL0     H69624   1.506   1.074  10.463  0.4121  0.1945  0.0959
  505MOL0     H69625   1.461   1.216  10.307 -0.6265 -1.5325 -0.2709
  505MOL0     H69626   1.328   1.209  10.434 -0.8749  1.8853  0.0844
  505MOL0     H69627   1.400   1.446  10.521  1.0259 -0.7629  0.2015
  505MOL0     H69628   1.549   1.440  10.429  0.5971 -0.6098 -1.2934
  505MOL0     H69629   1.387   1.420  10.220 -3.3902 -0.4948 -0.2226
  505MOL0     H69630   1.257   1.429  10.322 -2.3744  1.6563 -2.1386
  505MOL0     H69631   1.457   1.665  10.306  1.2350 -1.7322 -0.9290
  505MOL0     H69632   1.294   1.665  10.375  2.8818  2.2284  0.4922
  505MOL0     H69633   1.349   1.627  10.070 -1.5353 -1.9313 -0.2984
  505MOL0     H69634   1.200   1.604  10.145 -1.4281  1.7201 -0.5409
  505MOL0     H69635   1.217   1.863  10.220  0.5056  0.3545 -0.3756
  505MOL0     H69636   1.211   1.845  10.046  0.9633  0.1215 -1.0218
  505MOL0     H69637   1.482   1.861  10.198  1.1743  2.6296 -0.4216
  505MOL0     H69638   1.469   1.881  10.039  1.9648 -2.8837  1.5374
  505MOL0     H69639   1.410   2.066  10.364 -2.0909  0.9925  0.6685
  505MOL0     H69640   1.365   2.349  10.424 -3.5968  3.4853 -1.1902
  505MOL0     H69641   1.307   2.428  10.287  2.1212  1.5757 -0.9264
  505MOL0     H69642   1.532   2.447  10.174 -0.4714 -1.8986  0.4193
  505MOL0     H69643   1.517   2.529  10.321 -2.1083  0.0774  0.0654
  505MOL0     H69644   1.633   2.322  10.442  1.4663 -0.2912  0.5802
  505MOL0     H69645   1.688   2.290  10.279 -3.3923 -2.3110 -0.5231
  505MOL0     H69646   1.754   2.538  10.447 -2.4293 -0.7091  0.5878
  505MOL0     H69647   1.845   2.398  10.375  1.0846  1.9130 -0.6595
  505MOL0     H69648   1.857   2.664  10.031 -3.8689  4.0946  1.7550
  505MOL0     H69649   2.141   2.833   9.914  0.4759  4.4496 -0.8853
  505MOL0     H69650   2.041   2.957   9.983 -2.6097 -0.3966  0.4949
  505MOL0     H69651   1.975   2.809   9.906  0.2256 -1.3020  0.3623
  505MOL0     H69652   2.564   2.947  10.104 -1.5835 -0.6396  1.8904
  505MOL0     H69653   2.669   3.152  10.020 -0.5950 -0.2956  0.6069
  505MOL0     H69654   2.427   3.438   9.825  1.7139 -0.8264 -1.8939
  505MOL0     H69655   2.487   3.536   9.959 -1.2881  2.5054 -2.0641
  505MOL0     H69656   2.653   3.632   9.840 -0.2020 -0.7706  0.6208
  505MOL0     H69657   2.695   3.482   9.760 -1.4164 -0.7280  2.0013
  505MOL0     H69658   2.459   3.665   9.689 -1.5268  0.5515 -3.5705
  505MOL0     H69659   2.500   3.518   9.606 -1.1982  0.3344  0.2176
  505MOL0     H69660   2.664   3.775   9.609 -2.5354 -0.2920  0.2826
  505MOL0     H69661   2.561   3.714   9.480  2.0064  1.1034 -1.2716
  505MOL0     H69662   2.807   3.640   9.440  0.7124  0.5360  0.8824
  505MOL0     H69663   2.809   3.556   9.589  0.7062  1.9717  0.5347
  505MOL0     H69664   2.633   3.396   9.483  0.0862 -0.2947 -1.0769
  505MOL0     H69665   2.776   3.379   9.385 -2.3280 -3.0392 -1.9605
  505MOL0     H69666   2.705   3.458   9.215  0.3148  1.6854  0.1590
  505MOL0     H69667   2.629   3.596   9.263  2.4424 -0.0963 -0.6250
  505MOL0     H69668   2.436   3.467   9.188  0.1480  0.1274  0.4702
  505MOL0     H69669   2.444   3.414   9.352  0.3045  1.2912 -0.4810
  505MOL0     H69670   2.296   3.356   9.972 -0.4442  0.2500  0.0060
  505MOL0     H69671   2.184   3.148  10.015  0.8489  0.8897 -1.8730
  505MOL0     H69672   2.117   2.803  10.428  0.4617  0.7404 -1.3247
  505MOL0     H69673   1.971   2.622  10.448  0.4698 -1.8728 -0.3038
  505MOL0     H69674   1.659   1.092  10.731  2.7014 -4.5841 -0.2123
  505MOL0     H69675   1.842   1.122  10.895 -0.5129 -0.7962 -0.4732
  505MOL0     H69676   2.386   1.139  10.871  0.1789  0.0074 -0.0249
  505MOL0     H69677   2.560   1.168  11.038 -0.2340 -0.3535 -0.5489
  505MOL0     H69678   2.548   1.162  11.502  0.8760  1.8974  0.4419
  505MOL0     H69679   2.398   1.186  11.429  0.0161  0.2213 -0.3811
  505MOL0     H69680   2.419   0.964  11.316 -1.6130 -1.7762  3.2864
  505MOL0     H69681   2.481   0.948  11.477 -1.2394 -0.7354 -0.7921
  505MOL0     H69682   2.593   0.830  11.279 -2.8019  0.2345  2.3937
  505MOL0     H69683   2.617   0.980  11.193 -0.6239  0.1448 -0.8504
  505MOL0     H69684   2.759   1.069  11.375 -1.2090  0.1836  0.9617
  505MOL0     H69685   2.822   0.932  11.263 -0.2349 -0.6088  0.0675
  505MOL0     H69686   2.844   0.719  11.617  2.5116  0.8077  0.6375
  505MOL0     H69687   2.274   1.324  11.321 -2.1169 -0.2946  0.8121
  505MOL0     H69688   1.995   1.253  11.115  4.3473 -3.1361 -1.7338
  505MOL0     H69689   2.050   1.358  11.253  1.3097  1.6256  0.1423
  505MOL0     H69690   2.048   1.411  11.084  1.5914 -0.5140 -2.0766
  506MOL0     O69691   5.441  11.032   0.313  0.3992 -0.0571  0.2065
  506MOL0     C69692   5.374  11.105   0.247 -0.6583 -0.7120  1.0155
  506MOL0     O69693   5.389  11.130   0.112 -0.8169 -0.1672 -0.2149
  506MOL0     C69694   5.479  11.050   0.037  0.3901  0.3845  0.6942
  506MOL0     C69695   5.606  11.093   0.018  0.6765 -1.0141 -0.5960
  506MOL0     C69696   5.685  11.028  -0.078  0.5226 -0.1767 -0.1028
  506MOL0     C69697   5.636  10.928  -0.153  0.1143  0.5292  1.0431
  506MOL0     O69698   5.720  10.885  -0.259 -0.7279 -0.2655 -0.4138
  506MOL0     C69699   5.655  10.813  -0.367  0.6341  0.3154  0.3993
  506MOL0     C69700   5.756  10.778  -0.479  0.4944 -0.4190 -0.0431
  506MOL0     C69701   5.786  10.899  -0.570 -0.2255 -0.0749 -0.6616
  506MOL0     C69702   5.837  10.865  -0.705 -1.7301  0.9756 -0.1261
  506MOL0     C69703   5.864  10.987  -0.788  0.0195  0.9201 -0.5827
  506MOL0     C69704   5.932  10.951  -0.920 -0.1561  0.6330  0.4700
  506MOL0     C69705   5.964  11.075  -1.018 -0.1693 -0.2401  0.1561
  506MOL0     C69706   5.889  11.083  -1.147  1.0353 -0.1615 -0.0899
  506MOL0     N69707   5.757  11.149  -1.121 -1.0528 -0.3719  0.2776
  506MOL0     C69708   5.743  11.269  -1.056  0.4128  0.1692  0.2928
  506MOL0     C69709   5.610  11.281  -1.046  0.2404  0.6147 -1.0816
  506MOL0     C69710   5.530  11.398  -0.990 -0.7329  0.3683 -0.1010
  506MOL0     C69711   5.489  11.365  -0.847  0.1776 -1.4289  0.7178
  506MOL0     C69712   5.415  11.477  -0.794 -0.2544 -0.8149 -1.0121
  506MOL0     C69713   5.282  11.504  -0.851  0.1384  0.0659  0.2877
  506MOL0     O69714   5.175  11.430  -0.795  0.5284  0.2229  0.3893
  506MOL0     C69715   5.046  11.457  -0.840  0.0388  0.8984 -0.5450
  506MOL0     C69716   5.009  11.536  -0.947  0.4297 -0.2856  0.8818
  506MOL0     C69717   4.876  11.551  -0.985  0.7401 -0.8617 -0.9972
  506MOL0     C69718   4.839  11.647  -1.092 -0.3558 -0.2794  0.2834
  506MOL0     C69719   4.783  11.494  -0.903 -0.3409  0.2517 -0.4240
  506MOL0     C69720   4.640  11.491  -0.932  0.2456  0.2178  0.4204
  506MOL0     O69721   4.578  11.367  -0.935 -0.3391 -0.5411  1.0253
  506MOL0     C69722   4.653  11.256  -0.969 -0.0799  0.3822 -1.4566
  506MOL0     C69723   4.661  11.142  -0.881  0.3324  0.2434  0.2326
  506MOL0     C69724   4.710  11.020  -0.919 -0.1643  0.1903 -0.4102
  506MOL0     C69725   4.756  11.009  -1.047 -0.0306  0.3059  0.1380
  506MOL0     O69726   4.819  10.891  -1.094  0.1035 -0.1576  0.0912
  506MOL0     C69727   4.749  10.820  -1.205 -0.3405 -0.3523 -1.0295
  506MOL0     C69728   4.724  10.677  -1.157 -1.3599 -0.3505 -0.6282
  506MOL0     C69729   4.622  10.656  -1.050 -0.0554  0.1960  0.1882
  506MOL0     C69730   4.518  10.560  -1.103  0.2143 -0.1093  0.3270
  506MOL0     C69731   4.394  10.533  -1.005 -0.7205 -0.5395 -0.4032
  506MOL0     C69732   4.282  10.443  -1.059  0.2556  0.1186 -0.3427
  506MOL0     C69733   4.165  10.440  -0.958  0.4065  0.5360  0.2207
  506MOL0     C69734   4.202  10.384  -0.824  1.2307  0.5089 -0.1103
  506MOL0    Cl69735   4.048  10.377  -0.733  0.1569  0.6276 -0.6642
  506MOL0     C69736   4.758  11.115  -1.133  0.4433 -0.1517  0.3129
  506MOL0     C69737   4.708  11.240  -1.095 -0.5070  0.7096  0.6725
  506MOL0     O69738   4.587  11.601  -0.953 -0.0977  0.6851  0.4843
  506MOL0     C69739   4.814  11.417  -0.789  0.0234 -0.5353  0.0378
  506MOL0     C69740   4.953  11.399  -0.761  0.8232  0.2428  0.2621
  506MOL0     N69741   5.551  11.165  -1.082  0.0371  0.0658  0.5128
  506MOL0     N69742   5.637  11.085  -1.136 -0.1593 -0.5243 -0.4180
  506MOL0     C69743   5.506  10.883  -0.134  0.4880  0.4128 -0.4045
  506MOL0     C69744   5.428  10.944  -0.041  0.3280  0.3899  0.6099
  506MOL0     C69745   5.261  11.163   0.318  0.0133  0.2367  0.3910
  506MOL0     C69746   5.130  11.161   0.260 -0.2142  0.2437  0.7684
  506MOL0     C69747   5.013  11.200   0.327 -0.2851  0.3808 -0.2535
  506MOL0     C69748   5.020  11.236   0.460  0.0133  0.4533 -0.1380
  506MOL0     O69749   4.907  11.268   0.522  0.5287 -0.5032 -0.5031
  506MOL0     C69750   4.901  11.317   0.661  1.1255 -0.1999  0.2981
  506MOL0     C69751   4.757  11.285   0.715  0.6579 -0.2044  0.0486
  506MOL0     C69752   4.718  11.145   0.726 -0.1777 -0.7053 -1.2271
  506MOL0     C69753   4.822  11.075   0.813  0.4056  0.6590 -0.0968
  506MOL0     C69754   4.759  10.953   0.880 -0.4594  0.8329  1.0247
  506MOL0     C69755   4.682  10.872   0.928  0.4383 -0.1395 -0.9368
  506MOL0     C69756   5.144  11.237   0.518 -0.0040 -1.0794 -0.2274
  506MOL0     C69757   5.268  11.195   0.457  0.4999  0.0573 -0.1991
  506MOL0     C69758   5.402  11.187   0.537  0.2034  0.8068 -0.7818
  506MOL0     H69759   5.630  11.182   0.076 -0.2935 -2.8335  2.9360
  506MOL0     H69760   5.789  11.055  -0.095  0.7692 -0.8351  0.3091
  506MOL0     H69761   5.572  10.870  -0.410 -0.6639 -1.4848  0.3860
  506MOL0     H69762   5.622  10.714  -0.332  0.2419 -0.4245 -1.8486
  506MOL0     H69763   5.847  10.733  -0.438  0.7741 -1.1301 -1.3629
  506MOL0     H69764   5.717  10.699  -0.544  4.4364 -0.1538 -3.1312
  506MOL0     H69765   5.701  10.966  -0.587  1.5444  1.8855 -2.5070
  506MOL0     H69766   5.873  10.953  -0.530  3.2243 -4.3023 -1.6414
  506MOL0     H69767   5.933  10.814  -0.688 -0.6235  1.5396 -3.7974
  506MOL0     H69768   5.767  10.801  -0.759  1.8236 -2.2173 -1.4754
  506MOL0     H69769   5.918  11.058  -0.724 -1.4114  0.3883  1.3388
  506MOL0     H69770   5.771  11.045  -0.796  0.9471  2.5438 -0.0493
  506MOL0     H69771   6.025  10.900  -0.896 -0.4726 -0.6718 -0.9283
  506MOL0     H69772   5.861  10.890  -0.977 -1.2203  1.7105  0.5860
  506MOL0     H69773   6.068  11.048  -1.038  0.0020  0.2310  0.4033
  506MOL0     H69774   5.968  11.169  -0.962  1.1337 -0.4310  0.4245
  506MOL0     H69775   5.942  11.143  -1.222 -1.7532 -2.3040 -4.1115
  506MOL0     H69776   5.876  10.987  -1.197 -0.2159  0.4571 -1.0180
  506MOL0     H69777   5.822  11.337  -1.027 -1.6465  2.5335  0.6428
  506MOL0     H69778   5.457  11.421  -1.068 -2.6228  3.9699  2.4720
  506MOL0     H69779   5.593  11.487  -0.991  1.5050 -0.9902 -3.9346
  506MOL0     H69780   5.434  11.270  -0.852 -1.8548 -0.4039  2.1953
  506MOL0     H69781   5.583  11.352  -0.792  2.0364 -0.5454 -2.0204
  506MOL0     H69782   5.402  11.462  -0.686  0.6030  1.7104 -0.4867
  506MOL0     H69783   5.476  11.566  -0.808  2.8912 -2.7432 -0.5363
  506MOL0     H69784   5.253  11.609  -0.839 -1.4519 -0.0531 -1.8639
  506MOL0     H69785   5.288  11.481  -0.958 -1.0414  2.2358 -0.3173
  506MOL0     H69786   5.079  11.590  -1.011  2.1800 -0.7078  2.3395
  506MOL0     H69787   4.932  11.658  -1.149 -0.8057 -2.5205 -1.0035
  506MOL0     H69788   4.823  11.745  -1.046  0.7565  0.5129 -0.9677
  506MOL0     H69789   4.763  11.607  -1.161  0.8856 -0.6330 -0.9106
  506MOL0     H69790   4.603  11.141  -0.789  0.7877  0.4926  0.5239
  506MOL0     H69791   4.716  10.928  -0.861  1.2710 -0.1093 -1.0038
  506MOL0     H69792   4.662  10.884  -1.224  1.1427  2.1665  0.2200
  506MOL0     H69793   4.814  10.820  -1.293 -0.1234 -0.8134 -0.8759
  506MOL0     H69794   4.702  10.609  -1.240  1.5374 -1.1934 -0.8205
  506MOL0     H69795   4.817  10.637  -1.117 -0.2767 -0.3702 -3.0015
  506MOL0     H69796   4.577  10.752  -1.021 -0.1870 -0.1113  1.0389
  506MOL0     H69797   4.661  10.612  -0.958 -0.4757 -0.9765 -0.1764
  506MOL0     H69798   4.553  10.462  -1.135  0.7687  0.0806  0.3407
  506MOL0     H69799   4.474  10.605  -1.193  2.7419  1.5876 -0.1738
  506MOL0     H69800   4.421  10.488  -0.909  3.3855 -0.7594 -1.4831
  506MOL0     H69801   4.346  10.631  -0.996 -0.5023 -0.5335  0.8262
  506MOL0     H69802   4.323  10.344  -1.084 -0.3503 -0.1857 -0.1522
  506MOL0     H69803   4.235  10.472  -1.153 -1.7790  3.0203  1.4446
  506MOL0     H69804   4.079  10.380  -0.992 -0.5061  1.2770  1.1428
  506MOL0     H69805   4.134  10.545  -0.958 -0.8377  0.4594 -5.1266
  506MOL0     H69806   4.260  10.461  -0.772  0.4181 -0.1294  1.8478
  506MOL0     H69807   4.245  10.284  -0.825  0.1555  0.0496 -0.9382
  506MOL0     H69808   4.787  11.097  -1.236 -0.2160  2.5453 -0.4404
  506MOL0     H69809   4.710  11.326  -1.162  3.7322  0.8620  0.7261
  506MOL0     H69810   4.752  11.357  -0.723  0.5950 -0.7429  0.3977
  506MOL0     H69811   4.985  11.353  -0.668  2.9470  2.3364  0.6685
  506MOL0     H69812   5.463  10.811  -0.203 -0.0450  1.0978 -0.8014
  506MOL0     H69813   5.325  10.912  -0.032  0.9900 -1.9210  0.4977
  506MOL0     H69814   5.119  11.139   0.155  0.7828 -0.2644  0.7596
  506MOL0     H69815   4.918  11.204   0.275 -0.0247  0.3194 -0.7429
  506MOL0     H69816   4.966  11.261   0.728 -0.3812 -2.3294  0.1051
  506MOL0     H69817   4.912  11.426   0.665 -1.9587  0.1700  2.0841
  506MOL0     H69818   4.689  11.340   0.649  1.2042 -0.3543 -0.6572
  506MOL0     H69819   4.734  11.319   0.816 -0.7960  1.0065 -0.6468
  506MOL0     H69820   4.623  11.140   0.780  1.3512  0.3333  1.8382
  506MOL0     H69821   4.700  11.093   0.632 -1.3645  0.4834 -1.6853
  506MOL0     H69822   4.851  11.143   0.894  0.3563  1.7764 -0.9950
  506MOL0     H69823   4.906  11.043   0.752  0.0417 -0.6211  0.0398
  506MOL0     H69824   4.618  10.796   0.968  1.0234 -1.0977 -1.7624
  506MOL0     H69825   5.155  11.251   0.625 -1.7754 -1.5758  0.0513
  506MOL0     H69826   5.415  11.276   0.599  3.4728 -1.1512  1.7082
  506MOL0     H69827   5.402  11.096   0.598 -3.0310  0.9691 -0.4072
  506MOL0     H69828   5.492  11.207   0.477 -0.2542  0.3911 -1.6256
  507MOL0     O69829   5.744   0.637   7.240 -0.2125  0.6382 -0.7371
  507MOL0     C69830   5.723   0.541   7.163 -0.6239 -0.7119 -0.5714
  507MOL0     O69831   5.719   0.416   7.206 -0.8452 -0.4799  0.3205
  507MOL0     C69832   5.733   0.408   7.346 -0.2076 -1.0692 -0.3134
  507MOL0     C69833   5.631   0.427   7.439  0.9918  0.3570  0.8690
  507MOL0     C69834   5.657   0.426   7.573 -0.6597 -0.6286  0.4903
  507MOL0     C69835   5.788   0.406   7.622  0.3077  0.4680 -0.1048
  507MOL0     O69836   5.816   0.409   7.762  0.1479  0.1876 -0.3134
  507MOL0     C69837   5.839   0.286   7.833  0.1222 -0.8939 -0.5269
  507MOL0     C69838   5.878   0.320   7.972 -0.3240 -0.3938 -0.2396
  507MOL0     C69839   5.894   0.194   8.063 -0.9310  0.3423 -0.6495
  507MOL0     C69840   5.931   0.247   8.203  0.7683  0.4257 -0.2227
  507MOL0     C69841   5.932   0.133   8.304  0.3140  0.7604 -1.1195
  507MOL0     C69842   5.908   0.182   8.443  0.1378 -0.2307 -0.8706
  507MOL0     C69843   5.910   0.079   8.557 -0.1818  0.2224  0.1682
  507MOL0     C69844   5.781   0.012   8.575 -0.2061  0.2585 -0.0298
  507MOL0     N69845   5.767  -0.080   8.688 -0.4607 -0.9244 -1.0012
  507MOL0     C69846   5.853  -0.190   8.725  1.5039  0.5942 -0.6103
  507MOL0     C69847   5.776  -0.250   8.826 -0.6611 -0.4020  0.6517
  507MOL0     C69848   5.786  -0.387   8.887 -0.7990  0.6843  0.9042
  507MOL0     C69849   5.702  -0.467   8.788  0.7488 -0.0941  0.0336
  507MOL0     C69850   5.707  -0.622   8.831 -0.5314  0.2740 -0.8062
  507MOL0     C69851   5.837  -0.685   8.793 -0.9426  0.5297 -0.2150
  507MOL0     O69852   5.855  -0.688   8.656  0.6299  0.2417 -0.5575
  507MOL0     C69853   5.948  -0.745   8.580  0.8031 -0.2106 -0.6107
  507MOL0     C69854   6.060  -0.812   8.630 -0.4457  0.4338 -0.4543
  507MOL0     C69855   6.170  -0.853   8.550 -0.0643 -0.6871  0.0135
  507MOL0     C69856   6.289  -0.904   8.635 -0.6368  0.2056  0.0258
  507MOL0     C69857   6.153  -0.835   8.412 -0.8118 -0.1486 -0.3356
  507MOL0     C69858   6.256  -0.887   8.311 -0.4326  0.1923  0.3123
  507MOL0     O69859   6.383  -0.904   8.358 -0.5564  0.6652  0.1896
  507MOL0     C69860   6.465  -0.965   8.260  0.2508  0.4700 -0.6923
  507MOL0     C69861   6.447  -1.100   8.242 -0.0226 -0.0611  0.4439
  507MOL0     C69862   6.535  -1.166   8.152 -0.6851 -0.2429  0.7387
  507MOL0     C69863   6.627  -1.091   8.070  0.2443 -0.8878  0.4735
  507MOL0     O69864   6.697  -1.133   7.961 -0.6936 -0.0094  0.6844
  507MOL0     C69865   6.680  -1.257   7.890  0.2406 -0.8027  0.7277
  507MOL0     C69866   6.790  -1.284   7.777  0.0672 -0.6100 -0.3988
  507MOL0     C69867   6.834  -1.166   7.691  0.1680  0.0241  0.3873
  507MOL0     C69868   6.707  -1.102   7.638  0.7267 -0.2619 -0.0433
  507MOL0     C69869   6.748  -0.973   7.573  0.4289 -0.8164 -0.4917
  507MOL0     C69870   6.833  -1.003   7.447  0.9049 -0.1963 -0.4052
  507MOL0     C69871   6.852  -0.891   7.350 -0.0518 -0.1205  0.0911
  507MOL0     C69872   6.896  -0.948   7.220 -0.7497 -0.4271  0.7605
  507MOL0    Cl69873   6.904  -0.810   7.103 -0.5554  0.6760  0.6488
  507MOL0     C69874   6.647  -0.960   8.102  0.3318  0.5845 -0.1566
  507MOL0     C69875   6.577  -0.899   8.210 -0.2629 -0.2447 -0.1486
  507MOL0     O69876   6.225  -0.899   8.194  0.4195  0.0130 -0.1012
  507MOL0     C69877   6.032  -0.785   8.358 -0.0532 -0.7602 -1.0655
  507MOL0     C69878   5.924  -0.741   8.437 -0.1611  0.0230 -0.4708
  507MOL0     N69879   5.667  -0.166   8.859  0.0308  0.4806  0.2529
  507MOL0     N69880   5.661  -0.067   8.771  0.2958 -0.1264  0.2005
  507MOL0     C69881   5.888   0.378   7.529 -0.5586  0.0652  0.5744
  507MOL0     C69882   5.868   0.388   7.390 -0.6439 -0.8884 -0.2691
  507MOL0     C69883   5.730   0.564   7.014 -0.5202  0.1097 -0.7383
  507MOL0     C69884   5.729   0.691   6.973  0.7832 -0.9126  0.4611
  507MOL0     C69885   5.715   0.726   6.839 -0.1798  0.0029 -0.5658
  507MOL0     C69886   5.692   0.636   6.739  0.6248 -0.8588 -0.9985
  507MOL0     O69887   5.675   0.680   6.611  0.1564  0.2917  1.0620
  507MOL0     C69888   5.544   0.631   6.558 -0.3519  0.3638 -0.1278
  507MOL0     C69889   5.494   0.720   6.444  0.4002 -0.1033 -0.2069
  507MOL0     C69890   5.512   0.874   6.469 -0.8535  0.7454 -0.7306
  507MOL0     C69891   5.458   0.913   6.608  0.3625  0.1666  0.0823
  507MOL0     C69892   5.545   1.027   6.645  0.2514 -0.9617  0.4013
  507MOL0     C69893   5.615   1.127   6.680  0.2217  0.1940 -0.2971
  507MOL0     C69894   5.698   0.502   6.780  0.0918  0.7165  0.4608
  507MOL0     C69895   5.712   0.462   6.915 -0.3527 -0.4333  0.1251
  507MOL0     C69896   5.686   0.318   6.931 -0.3314 -0.8818 -0.0116
  507MOL0     H69897   5.527   0.444   7.412  0.2704 -0.4285  2.9633
  507MOL0     H69898   5.584   0.443   7.651  2.4667  4.6450  2.8854
  507MOL0     H69899   5.916   0.224   7.785 -1.7160 -3.7863 -0.0446
  507MOL0     H69900   5.740   0.241   7.840 -0.2483 -0.3441 -1.9550
  507MOL0     H69901   5.970   0.378   7.983  1.4340 -3.0755  0.0261
  507MOL0     H69902   5.802   0.388   8.013 -0.4420 -0.2752 -0.6479
  507MOL0     H69903   5.794   0.150   8.058 -0.8661  0.3021 -1.8457
  507MOL0     H69904   5.965   0.130   8.011 -0.8853 -1.0596  1.0334
  507MOL0     H69905   6.022   0.308   8.205 -0.8168  3.0074  3.3419
  507MOL0     H69906   5.855   0.309   8.250  4.0297  0.7437  5.5483
  507MOL0     H69907   6.029   0.082   8.308 -1.3846 -2.7724  2.0578
  507MOL0     H69908   5.857   0.055   8.290  1.6064 -0.7994  0.2125
  507MOL0     H69909   5.990   0.251   8.465  0.1346 -0.5148  0.0918
  507MOL0     H69910   5.814   0.238   8.443 -1.5655 -2.8477 -2.0214
  507MOL0     H69911   5.941   0.132   8.647  1.5830 -0.5266  0.0423
  507MOL0     H69912   5.984   0.001   8.537  0.4806  0.6113  1.0233
  507MOL0     H69913   5.693   0.075   8.556 -0.0686 -0.1897 -2.5233
  507MOL0     H69914   5.758  -0.053   8.490 -2.3693 -0.8808  1.3287
  507MOL0     H69915   5.942  -0.235   8.681 -0.5381 -1.1889 -3.2292
  507MOL0     H69916   5.747  -0.394   8.990 -1.3696  0.7108  0.6930
  507MOL0     H69917   5.893  -0.407   8.890 -0.8060  0.6696  1.0773
  507MOL0     H69918   5.598  -0.434   8.795  1.2299  1.7891 -1.1385
  507MOL0     H69919   5.733  -0.445   8.686 -0.7194 -2.5067 -1.0348
  507MOL0     H69920   5.697  -0.627   8.940  2.9235  2.6938 -0.2030
  507MOL0     H69921   5.624  -0.671   8.779  0.1886 -1.4237 -0.4173
  507MOL0     H69922   5.917  -0.627   8.841 -1.5517  0.9061  0.3686
  507MOL0     H69923   5.849  -0.786   8.834 -1.2969  0.3080 -0.6623
  507MOL0     H69924   6.064  -0.831   8.736  2.4452 -1.3936 -0.7683
  507MOL0     H69925   6.252  -0.936   8.733  0.0681 -0.8448 -0.0413
  507MOL0     H69926   6.363  -0.825   8.649 -0.2977 -0.0526 -0.2873
  507MOL0     H69927   6.344  -0.987   8.590  2.4664  2.2819 -0.2712
  507MOL0     H69928   6.372  -1.162   8.289  1.5142 -0.9473  1.8088
  507MOL0     H69929   6.520  -1.272   8.136  0.9741 -0.7346  2.2468
  507MOL0     H69930   6.683  -1.343   7.957 -1.1814  0.6896  2.8629
  507MOL0     H69931   6.583  -1.251   7.841  1.6531  1.7103 -2.0965
  507MOL0     H69932   6.881  -1.313   7.831  0.2167 -0.8608 -0.7790
  507MOL0     H69933   6.762  -1.374   7.721  0.0788 -1.1465  0.4403
  507MOL0     H69934   6.892  -1.206   7.608 -0.5865 -0.6176  0.1599
  507MOL0     H69935   6.881  -1.097   7.762  0.5049 -3.3758  3.7955
  507MOL0     H69936   6.629  -1.075   7.709 -2.2215 -0.8243 -2.8532
  507MOL0     H69937   6.663  -1.177   7.573 -0.8046 -2.9990  3.7742
  507MOL0     H69938   6.659  -0.916   7.543  1.2071  0.3765 -0.6074
  507MOL0     H69939   6.801  -0.908   7.643 -2.0118  1.5931 -0.7018
  507MOL0     H69940   6.798  -1.094   7.397  2.5477 -1.0983  0.0333
  507MOL0     H69941   6.936  -1.014   7.482  0.2267 -0.5483  1.6245
  507MOL0     H69942   6.924  -0.815   7.382  0.2413  0.9923 -2.9551
  507MOL0     H69943   6.754  -0.850   7.327  0.5034  0.7385 -0.8202
  507MOL0     H69944   6.820  -1.017   7.184 -0.4033 -0.2253 -0.4026
  507MOL0     H69945   6.997  -0.990   7.218  0.2087  1.7180 -1.1690
  507MOL0     H69946   6.720  -0.891   8.061  1.2014 -1.2249 -1.7703
  507MOL0     H69947   6.598  -0.803   8.256 -1.7751  0.0686 -0.0856
  507MOL0     H69948   6.006  -0.791   8.253 -2.8952  0.0833 -0.4982
  507MOL0     H69949   5.833  -0.705   8.391  0.1440 -0.9014 -1.8652
  507MOL0     H69950   5.988   0.355   7.565  0.2381  1.3216 -0.7428
  507MOL0     H69951   5.943   0.390   7.311  1.3840  1.8470  1.5607
  507MOL0     H69952   5.734   0.767   7.050  1.3004 -1.5462  1.0611
  507MOL0     H69953   5.696   0.831   6.817  0.4020 -0.1236 -1.7528
  507MOL0     H69954   5.549   0.530   6.515  0.3112  0.4305 -0.2240
  507MOL0     H69955   5.458   0.625   6.626 -1.4342  2.3462 -1.2149
  507MOL0     H69956   5.387   0.701   6.434 -0.0896  2.2828 -0.1085
  507MOL0     H69957   5.546   0.697   6.350  2.6634  0.9269  0.7190
  507MOL0     H69958   5.620   0.889   6.462 -0.3159 -1.9503  0.6210
  507MOL0     H69959   5.460   0.937   6.396 -1.6893  0.2741 -0.5507
  507MOL0     H69960   5.470   0.846   6.693  1.4970  2.4655  1.8567
  507MOL0     H69961   5.352   0.939   6.596 -0.3239 -2.9730 -1.7377
  507MOL0     H69962   5.682   1.208   6.698  0.3981 -0.0440  0.1215
  507MOL0     H69963   5.689   0.419   6.711  1.4557  0.7993  0.1514
  507MOL0     H69964   5.612   0.295   7.009  1.7643 -1.6639  1.8730
  507MOL0     H69965   5.646   0.276   6.839 -0.3797 -2.6155  0.7500
  507MOL0     H69966   5.787   0.276   6.943  0.0716 -1.0831 -3.2387
  508MOL0     O69967   0.348  10.112   0.020  0.4082 -0.3743  0.4963
  508MOL0     C69968   0.416  10.092   0.118  1.0005  0.5972  0.5694
  508MOL0     O69969   0.532  10.024   0.120  0.5526  0.2011 -0.5516
  508MOL0     C69970   0.601   9.986   0.012  0.1896 -0.1374 -0.6761
  508MOL0     C69971   0.728   9.953   0.052 -0.8659 -0.7117  0.3589
  508MOL0     C69972   0.822   9.901  -0.037 -0.2261 -1.0440  0.7412
  508MOL0     C69973   0.789   9.885  -0.174  0.3379 -0.5790 -0.1043
  508MOL0     O69974   0.871   9.833  -0.270 -0.1731  0.5543  0.0810
  508MOL0     C69975   1.011   9.858  -0.248 -0.1089  0.2891 -0.0094
  508MOL0     C69976   1.085   9.775  -0.351 -0.5182  0.4419  0.1650
  508MOL0     C69977   1.040   9.795  -0.501 -0.0495 -0.5358  1.1591
  508MOL0     C69978   1.146   9.748  -0.605 -0.1942  0.6927  0.7627
  508MOL0     C69979   1.092   9.756  -0.749  0.3560  0.5132 -0.3551
  508MOL0     C69980   1.021   9.872  -0.811  0.2012 -0.5811  0.8943
  508MOL0     C69981   1.003   9.878  -0.958  0.0150  0.0545 -0.4196
  508MOL0     C69982   0.922   9.750  -1.002  0.4755  0.4027  0.4648
  508MOL0     N69983   0.778   9.769  -0.981 -0.0706  0.3427  0.4942
  508MOL0     C69984   0.675   9.728  -1.068 -0.3729 -0.2545 -0.1979
  508MOL0     C69985   0.559   9.718  -0.998  0.5850  0.2027 -0.0069
  508MOL0     C69986   0.423   9.675  -1.049 -0.4280 -0.1455 -0.3232
  508MOL0     C69987   0.403   9.531  -1.109 -0.2482 -0.5802  0.3600
  508MOL0     C69988   0.432   9.413  -1.012  0.2737 -0.1817 -0.1356
  508MOL0     C69989   0.575   9.370  -0.991  0.3725  0.1973 -0.7045
  508MOL0     O69990   0.603   9.255  -1.078  0.3920  0.7969 -0.3436
  508MOL0     C69991   0.701   9.274  -1.179  0.0090  0.4641 -1.1923
  508MOL0     C69992   0.665   9.235  -1.308  0.1187  0.0359  0.3952
  508MOL0     C69993   0.756   9.247  -1.416  0.0178  0.8141 -0.0327
  508MOL0     C69994   0.710   9.210  -1.550  0.2663 -0.2471  0.4180
  508MOL0     C69995   0.881   9.298  -1.398  0.0956  0.0326 -0.4313
  508MOL0     C69996   0.989   9.315  -1.504  0.3369 -0.3270  0.1076
  508MOL0     O69997   1.117   9.299  -1.459  0.1051 -0.4754  0.0753
  508MOL0     C69998   1.217   9.304  -1.552 -0.2261 -0.1147 -0.2586
  508MOL0     C69999   1.270   9.425  -1.607  0.2895  0.7124 -0.6125
  508MOL0     C70000   1.372   9.415  -1.698  0.3619  0.1486  0.4888
  508MOL0     C70001   1.437   9.293  -1.734  0.8874 -0.3939 -0.6836
  508MOL0     O70002   1.538   9.284  -1.819 -0.3020  0.0523  0.1451
  508MOL0     C70003   1.580   9.408  -1.894  0.2153  0.9208  0.3918
  508MOL0     C70004   1.702   9.368  -1.973 -0.3534 -0.3134 -0.6428
  508MOL0     C70005   1.828   9.388  -1.893  0.4650  0.3103  0.7177
  508MOL0     C70006   1.899   9.254  -1.847 -0.0537  0.2326  0.8306
  508MOL0     C70007   2.031   9.286  -1.768  0.2869 -0.9203 -0.2909
  508MOL0     C70008   2.104   9.152  -1.740  0.5061 -0.2676  0.2970
  508MOL0     C70009   2.244   9.165  -1.681  0.2668  0.6432 -0.5100
  508MOL0     C70010   2.342   9.256  -1.752 -0.1427 -0.0722  0.5832
  508MOL0    Cl70011   2.494   9.255  -1.644 -0.5533 -0.6542 -0.3018
  508MOL0     C70012   1.378   9.176  -1.677  0.3607  0.4405 -0.3014
  508MOL0     C70013   1.269   9.177  -1.591  0.7790 -0.6205 -0.1449
  508MOL0     O70014   0.957   9.341  -1.624  0.4400 -0.6065  0.1136
  508MOL0     C70015   0.908   9.336  -1.258 -0.1293 -0.4980  0.0534
  508MOL0     C70016   0.826   9.328  -1.150  0.4905 -1.0582  0.3690
  508MOL0     N70017   0.588   9.751  -0.863 -0.6213 -0.8248  0.6771
  508MOL0     N70018   0.712   9.788  -0.858 -0.3480 -0.6553 -0.3572
  508MOL0     C70019   0.660   9.923  -0.209 -0.1858 -0.6825  1.0449
  508MOL0     C70020   0.573   9.978  -0.118  1.5161 -0.6116  0.3853
  508MOL0     C70021   0.362  10.149   0.238 -0.2122 -1.5462 -0.4787
  508MOL0     C70022   0.224  10.140   0.260  0.3241  0.0736  0.1887
  508MOL0     C70023   0.163  10.190   0.372  0.1832  0.0909  0.1271
  508MOL0     C70024   0.236  10.256   0.463  0.5842  0.0945 -0.0662
  508MOL0     O70025   0.178  10.310   0.571  0.3591  0.7884 -0.1416
  508MOL0     C70026   0.044  10.359   0.566 -0.3933  0.0525  0.5199
  508MOL0     C70027   0.010  10.463   0.667  0.3928 -0.3029 -0.6024
  508MOL0     C70028  -0.039  10.408   0.807  0.6091 -0.4196  0.7280
  508MOL0     C70029  -0.079  10.516   0.913  0.4037  0.1243  0.1319
  508MOL0     C70030  -0.191  10.607   0.880 -0.4960 -0.4940 -0.3376
  508MOL0     C70031  -0.287  10.681   0.861 -0.5523  0.5395 -0.7950
  508MOL0     C70032   0.372  10.264   0.457 -0.9268 -0.0276  0.4231
  508MOL0     C70033   0.444  10.214   0.343 -0.3657 -0.0915  0.5305
  508MOL0     C70034   0.593  10.226   0.339 -1.0849 -0.2728 -0.4821
  508MOL0     H70035   0.749   9.954   0.159 -1.1157 -5.6105  0.6891
  508MOL0     H70036   0.921   9.868  -0.010 -0.1080 -2.9091 -1.6468
  508MOL0     H70037   1.044   9.839  -0.145 -2.8052  3.6386  1.6806
  508MOL0     H70038   1.036   9.961  -0.276 -1.7983  0.8000  0.2571
  508MOL0     H70039   1.193   9.789  -0.337 -0.6274 -0.3957  2.2227
  508MOL0     H70040   1.076   9.670  -0.323  3.2023 -1.4148 -4.2158
  508MOL0     H70041   0.941   9.755  -0.521  2.1215 -4.9175 -3.0076
  508MOL0     H70042   1.046   9.902  -0.524  1.9805 -0.2747  2.6151
  508MOL0     H70043   1.233   9.815  -0.606 -0.4751  1.1056 -1.2852
  508MOL0     H70044   1.179   9.649  -0.572  0.7630  0.8966  0.4681
  508MOL0     H70045   1.024   9.671  -0.744  0.3917  0.3494 -2.0965
  508MOL0     H70046   1.183   9.736  -0.805  1.3380  1.7233  0.7459
  508MOL0     H70047   0.932   9.900  -0.755  1.2308  0.0848  2.2777
  508MOL0     H70048   1.086   9.954  -0.778 -2.0746 -0.0762  4.6382
  508MOL0     H70049   1.104   9.877  -1.002 -0.1539 -1.0197 -0.8063
  508MOL0     H70050   0.950   9.971  -0.982 -0.5462  1.3532  4.8096
  508MOL0     H70051   0.925   9.746  -1.112 -2.1538  0.7355  0.3137
  508MOL0     H70052   0.966   9.657  -0.967  1.4149 -0.8692 -3.5806
  508MOL0     H70053   0.692   9.723  -1.175 -2.0677 -0.2128 -0.4920
  508MOL0     H70054   0.397   9.753  -1.120  3.2471  0.7266 -0.9097
  508MOL0     H70055   0.356   9.688  -0.963  0.4591  2.3974  0.0413
  508MOL0     H70056   0.298   9.514  -1.135 -0.4487 -0.7455  1.2241
  508MOL0     H70057   0.460   9.536  -1.202 -1.2643  5.0370 -0.3181
  508MOL0     H70058   0.385   9.440  -0.918 -0.3890 -1.3223 -0.1189
  508MOL0     H70059   0.377   9.331  -1.059 -0.2868 -1.0941  1.9915
  508MOL0     H70060   0.637   9.457  -1.016 -1.7638  1.4258 -2.0504
  508MOL0     H70061   0.606   9.339  -0.891  0.6461  0.6606 -0.6439
  508MOL0     H70062   0.577   9.180  -1.338 -1.1653  1.3451  1.6342
  508MOL0     H70063   0.765   9.129  -1.598 -1.1012 -0.6697 -0.5006
  508MOL0     H70064   0.717   9.300  -1.611 -0.8193 -0.3309  0.1443
  508MOL0     H70065   0.607   9.174  -1.556 -0.3450  1.4510  0.2232
  508MOL0     H70066   1.230   9.521  -1.575 -1.1066  0.2754 -0.9478
  508MOL0     H70067   1.406   9.506  -1.747 -3.4516  2.0324  0.9766
  508MOL0     H70068   1.499   9.442  -1.960  0.1902 -0.9206 -0.6016
  508MOL0     H70069   1.602   9.489  -1.824 -1.1393  1.1336  0.5958
  508MOL0     H70070   1.685   9.270  -2.019 -0.9047  0.7099 -2.7246
  508MOL0     H70071   1.711   9.446  -2.049  0.1479  0.4951  0.2263
  508MOL0     H70072   1.806   9.445  -1.803 -1.0887 -1.8713  1.8227
  508MOL0     H70073   1.895   9.455  -1.947  0.1894  0.2956  0.3508
  508MOL0     H70074   1.934   9.195  -1.933  1.3097 -2.2332  2.9375
  508MOL0     H70075   1.832   9.194  -1.785 -0.7274 -0.6400 -0.6948
  508MOL0     H70076   2.080   9.358  -1.834  0.0909 -0.8519 -0.3637
  508MOL0     H70077   2.006   9.340  -1.676  1.1531 -0.4086 -0.3477
  508MOL0     H70078   2.105   9.081  -1.823 -3.0682 -0.3688  0.1760
  508MOL0     H70079   2.043   9.107  -1.661  2.3967  2.4143  3.5822
  508MOL0     H70080   2.280   9.064  -1.661  1.1064  0.7240 -1.5195
  508MOL0     H70081   2.233   9.213  -1.583  2.2493  1.3398 -0.5857
  508MOL0     H70082   2.308   9.359  -1.770  3.0399  1.3656  2.0361
  508MOL0     H70083   2.364   9.233  -1.856  1.3031  1.0249  0.6123
  508MOL0     H70084   1.426   9.081  -1.697  1.5178 -0.4598  5.0831
  508MOL0     H70085   1.225   9.088  -1.546 -0.5249 -0.2512 -0.6631
  508MOL0     H70086   1.009   9.367  -1.237 -1.1023  3.1838 -0.0352
  508MOL0     H70087   0.865   9.339  -1.050 -0.1812 -1.7627  0.7258
  508MOL0     H70088   0.641   9.920  -0.316  1.8420  1.2162  0.5454
  508MOL0     H70089   0.477  10.017  -0.150  2.6816  2.0838 -0.1130
  508MOL0     H70090   0.155  10.107   0.183  0.5164  3.9187 -1.8379
  508MOL0     H70091   0.061  10.161   0.396  0.3893  0.4783  1.5800
  508MOL0     H70092   0.028  10.409   0.470 -2.8373  1.8543  1.7503
  508MOL0     H70093  -0.020  10.271   0.578  2.0752 -1.6611  1.8788
  508MOL0     H70094  -0.067  10.529   0.623 -0.0644 -0.7072 -0.4207
  508MOL0     H70095   0.090  10.530   0.699 -1.0190  0.0052  2.7153
  508MOL0     H70096  -0.128  10.350   0.778  0.0442  0.8526 -0.1668
  508MOL0     H70097   0.024  10.329   0.849 -2.6417 -3.4200  0.4668
  508MOL0     H70098   0.007  10.570   0.955  0.0814  1.6582 -1.0773
  508MOL0     H70099  -0.121  10.459   0.996  0.1279  1.9789  1.3346
  508MOL0     H70100  -0.373  10.745   0.855 -2.4856 -1.8880 -0.4424
  508MOL0     H70101   0.433  10.319   0.527  0.6089 -2.1944  0.9021
  508MOL0     H70102   0.644  10.132   0.314  1.2843  0.7559  0.2010
  508MOL0     H70103   0.618  10.294   0.258 -0.8109 -0.5687 -0.6468
  508MOL0     H70104   0.630  10.267   0.434  0.3985  1.6471 -1.8235
  509MOL0     O70105   1.478  11.175   1.311  1.4166 -1.0703 -0.4671
  509MOL0     C70106   1.523  11.290   1.319  0.3000  1.3697  0.9966
  509MOL0     O70107   1.615  11.348   1.238 -0.3672 -0.8229  0.0729
  509MOL0     C70108   1.643  11.280   1.118 -0.0493 -0.7919  0.5590
  509MOL0     C70109   1.766  11.214   1.105  0.5101 -0.4305  0.1863
  509MOL0     C70110   1.784  11.128   0.999 -0.7604 -0.3987  0.3620
  509MOL0     C70111   1.704  11.139   0.891 -0.0503  0.8520 -0.2593
  509MOL0     O70112   1.724  11.046   0.788  0.1749  0.8121  0.0130
  509MOL0     C70113   1.682  11.073   0.657  0.3554  0.1340  1.1930
  509MOL0     C70114   1.788  11.039   0.542 -0.2475  0.1419 -0.1306
  509MOL0     C70115   1.716  11.049   0.411  0.6187 -0.7945  0.5721
  509MOL0     C70116   1.796  11.001   0.290 -0.0429  0.6409 -0.0739
  509MOL0     C70117   1.714  10.999   0.154 -1.0557 -0.3356  0.1103
  509MOL0     C70118   1.663  11.136   0.105  0.1858  0.0335  0.8420
  509MOL0     C70119   1.591  11.112  -0.031  0.3073 -0.3548 -0.3740
  509MOL0     C70120   1.687  11.150  -0.153 -0.3024 -0.8006  0.8012
  509MOL0     N70121   1.628  11.263  -0.228  0.1466 -0.1509  0.1452
  509MOL0     C70122   1.516  11.251  -0.306  1.0984  0.3718 -0.7686
  509MOL0     C70123   1.487  11.385  -0.332 -0.7664  0.6089 -0.5322
  509MOL0     C70124   1.366  11.439  -0.395 -0.3035  0.2034  0.1017
  509MOL0     C70125   1.356  11.585  -0.379 -0.3870 -0.6732 -0.2141
  509MOL0     C70126   1.456  11.662  -0.467 -0.2392  0.2940  0.5513
  509MOL0     C70127   1.430  11.810  -0.450 -0.0612 -0.0925  0.6638
  509MOL0     O70128   1.422  11.864  -0.314 -0.2833  0.4746  0.2161
  509MOL0     C70129   1.389  11.995  -0.285  0.8132  0.4684  0.9591
  509MOL0     C70130   1.420  12.044  -0.160 -0.3555  1.0475 -0.8139
  509MOL0     C70131   1.373  12.164  -0.115 -0.3925 -0.9739  0.6553
  509MOL0     C70132   1.400  12.195   0.035  0.5397 -0.4490 -0.3598
  509MOL0     C70133   1.305  12.252  -0.210 -0.7022  0.4271 -0.4222
  509MOL0     C70134   1.271  12.389  -0.171  0.6652 -0.5604 -0.7735
  509MOL0     O70135   1.143  12.429  -0.166  0.4145  0.1757  0.6515
  509MOL0     C70136   1.042  12.332  -0.182  0.5754 -0.3690 -0.8343
  509MOL0     C70137   0.961  12.343  -0.290  1.3806  0.3650 -1.0621
  509MOL0     C70138   0.855  12.257  -0.299 -0.5821 -0.6401  0.9330
  509MOL0     C70139   0.843  12.140  -0.221 -0.4835  0.9900  0.1333
  509MOL0     O70140   0.740  12.050  -0.211  0.1046 -0.6514  0.0449
  509MOL0     C70141   0.622  12.088  -0.284  0.8679  0.1520 -0.1537
  509MOL0     C70142   0.502  12.107  -0.184  0.2425  0.2708 -0.1320
  509MOL0     C70143   0.531  12.207  -0.072  0.5633 -0.1837  0.1268
  509MOL0     C70144   0.633  12.154   0.033 -0.7834  0.6111  0.2762
  509MOL0     C70145   0.585  12.174   0.177 -0.3339  0.7407  0.4192
  509MOL0     C70146   0.683  12.126   0.280 -0.6832  1.3341  0.4351
  509MOL0     C70147   0.664  12.174   0.427  0.7300  0.5507 -0.3489
  509MOL0     C70148   0.658  12.059   0.531 -0.4019  0.3603 -0.3270
  509MOL0    Cl70149   0.646  12.127   0.702 -0.5855  0.3813 -0.1048
  509MOL0     C70150   0.934  12.124  -0.117 -0.2654  0.5444  0.6759
  509MOL0     C70151   1.030  12.231  -0.088  0.6204  0.5590  0.9649
  509MOL0     O70152   1.369  12.463  -0.145  0.2510 -0.1973  0.2070
  509MOL0     C70153   1.291  12.211  -0.342  0.4768  0.0881 -0.0814
  509MOL0     C70154   1.333  12.084  -0.379  0.0289  0.2224  0.6793
  509MOL0     N70155   1.584  11.465  -0.271 -0.3638 -0.1611  0.7090
  509MOL0     N70156   1.666  11.391  -0.209  0.4169 -0.3727  0.1576
  509MOL0     C70157   1.585  11.215   0.893 -0.3122  0.2202  0.3628
  509MOL0     C70158   1.549  11.280   1.012  0.2844 -1.1438  0.1809
  509MOL0     C70159   1.457  11.377   1.418 -0.7580  0.5475  0.4490
  509MOL0     C70160   1.480  11.514   1.400  0.9507 -0.5973 -0.2403
  509MOL0     C70161   1.405  11.604   1.480 -0.1053 -0.0102 -0.4157
  509MOL0     C70162   1.309  11.564   1.581 -0.6151  0.7879 -1.3542
  509MOL0     O70163   1.236  11.668   1.639 -0.8292  0.1920  0.0545
  509MOL0     C70164   1.129  11.634   1.726 -0.7029 -0.1815 -0.3378
  509MOL0     C70165   1.043  11.743   1.763 -0.4874  0.3720  0.5569
  509MOL0     C70166   1.029  11.737   1.917 -0.1422  0.4281 -0.1418
  509MOL0     C70167   0.996  11.875   1.989 -0.1884  0.0175 -0.2905
  509MOL0     C70168   0.849  11.902   1.980  0.5564 -0.2322  0.5823
  509MOL0     C70169   0.736  11.931   1.954  0.2936 -0.9715 -0.0406
  509MOL0     C70170   1.299  11.420   1.602 -0.0907 -0.1507  0.4537
  509MOL0     C70171   1.376  11.325   1.527  0.9451 -1.4179 -0.5321
  509MOL0     C70172   1.374  11.192   1.591  0.1940 -0.7555  0.2105
  509MOL0     H70173   1.833  11.209   1.190  0.9503 -0.1808 -0.1454
  509MOL0     H70174   1.868  11.059   1.003 -0.3575 -0.0221 -0.9270
  509MOL0     H70175   1.636  11.172   0.645  2.5702  0.9973 -1.1922
  509MOL0     H70176   1.600  11.005   0.633 -0.4175  0.9977  1.3056
  509MOL0     H70177   1.861  11.118   0.562  1.9666 -1.4806 -1.3715
  509MOL0     H70178   1.854  10.952   0.550  0.5451  0.8106  0.9717
  509MOL0     H70179   1.624  10.991   0.422 -0.5617  0.6473 -1.2236
  509MOL0     H70180   1.687  11.152   0.387  0.8118 -1.2573 -1.8990
  509MOL0     H70181   1.881  11.068   0.277  1.1571 -0.4642  1.6882
  509MOL0     H70182   1.825  10.899   0.316 -0.2608  0.8336  0.9514
  509MOL0     H70183   1.628  10.934   0.168 -2.7218  1.9449  1.1605
  509MOL0     H70184   1.778  10.954   0.078 -1.7611 -0.1303 -0.6080
  509MOL0     H70185   1.589  11.167   0.180  0.3351  2.3905  0.0947
  509MOL0     H70186   1.741  11.211   0.091  1.4235 -1.1422  1.1277
  509MOL0     H70187   1.502  11.175  -0.026  0.7975  0.4068 -0.9265
  509MOL0     H70188   1.565  11.007  -0.045  0.9371 -0.3702 -1.5671
  509MOL0     H70189   1.787  11.181  -0.121 -1.5521  2.5304  1.8059
  509MOL0     H70190   1.684  11.069  -0.227 -0.4420  0.4397 -0.5781
  509MOL0     H70191   1.455  11.166  -0.333 -0.8526  1.3558  0.3598
  509MOL0     H70192   1.281  11.386  -0.352 -0.3196 -0.6370 -0.9521
  509MOL0     H70193   1.379  11.423  -0.502 -1.2563  0.1420 -0.0119
  509MOL0     H70194   1.258  11.602  -0.425  1.1012  0.7848 -3.1416
  509MOL0     H70195   1.368  11.616  -0.275  1.1969  0.6801 -0.7495
  509MOL0     H70196   1.560  11.632  -0.450 -0.0331  0.3429 -0.5638
  509MOL0     H70197   1.436  11.627  -0.569 -0.5397 -1.8150  1.2738
  509MOL0     H70198   1.517  11.861  -0.493 -1.4968  1.5894 -0.3911
  509MOL0     H70199   1.343  11.839  -0.510  1.6473  1.9670 -0.9533
  509MOL0     H70200   1.480  11.980  -0.096 -1.4571  1.3633  0.5939
  509MOL0     H70201   1.496  12.245   0.044 -1.5373  3.9489  0.0274
  509MOL0     H70202   1.400  12.101   0.090 -1.9219 -1.5318 -2.0336
  509MOL0     H70203   1.321  12.262   0.069 -1.1053 -1.9910 -0.9755
  509MOL0     H70204   0.978  12.427  -0.357 -3.3394  1.3502 -1.4351
  509MOL0     H70205   0.788  12.276  -0.382  0.9684 -0.5282 -0.3508
  509MOL0     H70206   0.628  12.183  -0.340 -2.7201  0.5710 -0.0783
  509MOL0     H70207   0.611  12.016  -0.365  2.3070 -2.6839  2.0138
  509MOL0     H70208   0.417  12.149  -0.239  0.6081  0.4385 -0.5695
  509MOL0     H70209   0.485  12.005  -0.148  4.0324 -0.0787  1.1107
  509MOL0     H70210   0.436  12.227  -0.022  1.4401  0.2460  1.7024
  509MOL0     H70211   0.561  12.306  -0.109  1.0557 -1.0382 -1.8962
  509MOL0     H70212   0.728  12.208   0.025  0.3000 -1.3789 -1.1194
  509MOL0     H70213   0.668  12.050   0.028  3.9454  1.7764  2.7824
  509MOL0     H70214   0.580  12.280   0.201  2.2779  1.0505 -0.0698
  509MOL0     H70215   0.485  12.132   0.192 -1.1091  2.1741 -0.4841
  509MOL0     H70216   0.787  12.143   0.253 -0.6306 -3.4204 -3.8093
  509MOL0     H70217   0.693  12.018   0.285  1.6030  1.5087  0.6601
  509MOL0     H70218   0.566  12.221   0.432  0.4701  0.3013 -2.3722
  509MOL0     H70219   0.740  12.247   0.458 -0.6405  1.0003  2.1381
  509MOL0     H70220   0.750  12.000   0.526 -0.1938  0.6947 -0.5233
  509MOL0     H70221   0.578  11.985   0.523  1.5812 -2.0446  0.9147
  509MOL0     H70222   0.921  12.042  -0.047 -4.0045  0.9382  0.6296
  509MOL0     H70223   1.106  12.236  -0.010  3.8265  1.2698 -1.9647
  509MOL0     H70224   1.239  12.263  -0.422  0.7011  0.8132  0.2373
  509MOL0     H70225   1.311  12.045  -0.478  2.9482 -1.0767  0.4147
  509MOL0     H70226   1.512  11.212   0.812  0.7432  3.3269 -0.8837
  509MOL0     H70227   1.449  11.322   1.021  0.1713 -0.8553 -1.9067
  509MOL0     H70228   1.539  11.561   1.323 -0.8793 -1.4266 -2.2403
  509MOL0     H70229   1.419  11.711   1.468  0.6382  0.8014  5.2156
  509MOL0     H70230   1.072  11.552   1.682 -0.8853 -0.3589  0.2117
  509MOL0     H70231   1.171  11.581   1.812  0.9489  0.3498 -0.7882
  509MOL0     H70232   0.949  11.730   1.709 -1.0620  3.5815  0.6111
  509MOL0     H70233   1.091  11.836   1.731 -1.1830  0.7358  0.5593
  509MOL0     H70234   0.958  11.664   1.957 -2.6096  2.0984 -1.2056
  509MOL0     H70235   1.123  11.706   1.964 -2.2348 -2.1768  2.7732
  509MOL0     H70236   1.052  11.948   1.930  3.2016 -1.2477  1.0908
  509MOL0     H70237   1.029  11.881   2.093  1.7521 -1.1725 -0.7671
  509MOL0     H70238   0.637  11.972   1.954  0.7345  0.1123 -0.0276
  509MOL0     H70239   1.231  11.384   1.679 -0.1285 -2.1650 -0.4719
  509MOL0     H70240   1.277  11.143   1.586 -0.1005 -0.1061 -0.9016
  509MOL0     H70241   1.457  11.135   1.548  0.5737 -0.3616  0.4032
  509MOL0     H70242   1.396  11.210   1.697  0.7182  2.8484 -0.3557
  510MOL0     O70243   4.690   5.598   7.787  0.2689 -0.1499  0.2479
  510MOL0     C70244   4.811   5.597   7.785 -0.1721 -0.4721 -0.0611
  510MOL0     O70245   4.886   5.485   7.787 -0.2537 -0.1750  0.3110
  510MOL0     C70246   4.831   5.367   7.752  0.7086  0.1707 -0.2049
  510MOL0     C70247   4.824   5.334   7.617  0.6469  0.6466 -0.0195
  510MOL0     C70248   4.789   5.209   7.574 -0.3595 -0.3685 -0.6935
  510MOL0     C70249   4.729   5.122   7.670  1.2608 -1.2063  0.4739
  510MOL0     O70250   4.688   5.002   7.626  0.1590  0.0752  0.3314
  510MOL0     C70251   4.686   4.886   7.711 -0.0197 -0.5877 -0.4760
  510MOL0     C70252   4.652   4.771   7.620  0.1183 -1.1391  1.0847
  510MOL0     C70253   4.782   4.704   7.570 -0.1752  0.1548 -0.9386
  510MOL0     C70254   4.870   4.795   7.471  0.6214  0.2437 -0.4668
  510MOL0     C70255   4.993   4.709   7.426  0.1200 -0.2498 -0.3375
  510MOL0     C70256   5.090   4.771   7.318  0.1840  0.2555 -0.3076
  510MOL0     C70257   5.197   4.678   7.270 -0.4113 -0.0697  0.1772
  510MOL0     C70258   5.304   4.662   7.380  0.2231 -0.4370 -0.9369
  510MOL0     N70259   5.401   4.773   7.376 -0.4270 -0.7165  0.0362
  510MOL0     C70260   5.455   4.853   7.485  0.5825  0.4262  0.6966
  510MOL0     C70261   5.564   4.901   7.431 -0.8846  0.6003 -1.0049
  510MOL0     C70262   5.665   4.998   7.499 -0.2627 -0.1697 -0.9463
  510MOL0     C70263   5.810   4.941   7.472  0.4854  0.0074 -0.3007
  510MOL0     C70264   5.908   5.034   7.547  0.6335 -0.4742  0.2056
  510MOL0     C70265   6.041   4.957   7.580  0.5381  1.2342 -1.1299
  510MOL0     O70266   6.103   5.039   7.688  0.9402  0.2420  0.6299
  510MOL0     C70267   6.191   5.139   7.649  0.8980  0.1556 -0.1152
  510MOL0     C70268   6.249   5.218   7.749 -0.2656  0.0624  0.0020
  510MOL0     C70269   6.336   5.319   7.722  0.0780  0.6079 -0.2238
  510MOL0     C70270   6.381   5.412   7.833  0.1995 -0.6316  0.8628
  510MOL0     C70271   6.380   5.345   7.590  0.9941  0.7250 -0.2645
  510MOL0     C70272   6.469   5.451   7.536 -0.5137  0.9546  0.0397
  510MOL0     O70273   6.458   5.483   7.404 -0.2238  0.0148  0.3236
  510MOL0     C70274   6.546   5.567   7.349 -0.6924 -0.2982 -0.1251
  510MOL0     C70275   6.683   5.560   7.348  0.2973  1.1719 -0.2945
  510MOL0     C70276   6.771   5.650   7.296 -0.2382  0.0272  0.1995
  510MOL0     C70277   6.714   5.765   7.238 -0.2633  0.0909  0.1206
  510MOL0     O70278   6.798   5.858   7.174 -0.4820  0.6083  0.5663
  510MOL0     C70279   6.791   5.992   7.228  0.3523 -0.6495 -0.2980
  510MOL0     C70280   6.856   6.003   7.362 -0.4505 -0.1021  0.4736
  510MOL0     C70281   7.012   5.997   7.344  0.0793 -0.9906  0.7387
  510MOL0     C70282   7.093   6.024   7.468  0.2726 -1.8562  0.0293
  510MOL0     C70283   7.232   6.074   7.450 -1.1115  0.0103 -0.3985
  510MOL0     C70284   7.327   5.984   7.367  0.5691  0.7607 -0.2167
  510MOL0     C70285   7.460   6.048   7.336 -0.9395  0.0142 -0.0519
  510MOL0     C70286   7.556   5.962   7.250 -0.4334 -0.2862  0.0997
  510MOL0    Cl70287   7.618   5.821   7.337 -0.0662 -0.1828  0.2239
  510MOL0     C70288   6.569   5.778   7.238 -0.6236 -0.0247  0.0259
  510MOL0     C70289   6.485   5.686   7.293  0.2494  0.9463 -0.3339
  510MOL0     O70290   6.562   5.482   7.612 -0.5645  0.1904 -0.2651
  510MOL0     C70291   6.315   5.272   7.492 -0.8054 -0.5511 -0.1391
  510MOL0     C70292   6.224   5.169   7.522  0.4764  0.4167 -0.1126
  510MOL0     N70293   5.582   4.856   7.305 -0.2319 -0.6815 -0.6391
  510MOL0     N70294   5.487   4.779   7.272  0.4085  0.0705 -0.6674
  510MOL0     C70295   4.709   5.168   7.798  0.3925  0.9694 -0.1405
  510MOL0     C70296   4.758   5.291   7.844 -0.1757 -0.2095 -0.1150
  510MOL0     C70297   4.887   5.728   7.786 -0.1293 -0.0037  0.4631
  510MOL0     C70298   5.026   5.726   7.816 -0.0799 -0.2852 -0.2995
  510MOL0     C70299   5.113   5.834   7.808 -0.9812 -0.0428 -0.2678
  510MOL0     C70300   5.059   5.959   7.787  1.0366  0.2268  0.6276
  510MOL0     O70301   5.138   6.066   7.789 -0.6730 -0.1461  0.3491
  510MOL0     C70302   5.106   6.177   7.707 -1.2153 -0.2056  0.0828
  510MOL0     C70303   5.215   6.284   7.701 -0.2446 -0.9933 -0.3358
  510MOL0     C70304   5.338   6.236   7.620 -0.2268 -1.4791 -1.2488
  510MOL0     C70305   5.461   6.341   7.614  0.0960  0.3230  0.0996
  510MOL0     C70306   5.429   6.477   7.562 -0.7313 -1.2907 -0.1460
  510MOL0     C70307   5.400   6.588   7.522 -0.2656 -0.2545 -0.0300
  510MOL0     C70308   4.921   5.968   7.777  0.5454 -0.0351 -0.3095
  510MOL0     C70309   4.834   5.856   7.758  0.0418  0.2690  0.5415
  510MOL0     C70310   4.693   5.888   7.722 -0.4745  0.5556  0.2059
  510MOL0     H70311   4.879   5.391   7.543 -1.4641  0.8512 -1.5078
  510MOL0     H70312   4.802   5.185   7.469  0.9689  1.5525 -1.0230
  510MOL0     H70313   4.602   4.892   7.781 -0.4872 -0.7723 -1.0105
  510MOL0     H70314   4.779   4.859   7.761  0.1064  1.7886  0.6943
  510MOL0     H70315   4.606   4.689   7.675  1.1676 -2.2952  0.2955
  510MOL0     H70316   4.585   4.793   7.537 -0.3591 -2.4354  1.1053
  510MOL0     H70317   4.845   4.679   7.656  1.4326  1.7064 -1.6023
  510MOL0     H70318   4.753   4.611   7.520 -3.1945 -0.4522  1.6456
  510MOL0     H70319   4.811   4.823   7.383  0.3981 -0.6134 -0.5996
  510MOL0     H70320   4.879   4.888   7.528 -1.7681 -0.9613  2.1382
  510MOL0     H70321   4.957   4.618   7.378 -2.3898 -0.2015  1.2717
  510MOL0     H70322   5.055   4.697   7.516 -1.3015  0.7365  0.8112
  510MOL0     H70323   5.023   4.798   7.236  0.0821  0.4459 -0.1621
  510MOL0     H70324   5.127   4.869   7.349 -0.3228  0.1101  0.8180
  510MOL0     H70325   5.248   4.714   7.180 -1.1516 -0.0796 -0.2505
  510MOL0     H70326   5.160   4.578   7.247  0.5983 -0.9208  1.9733
  510MOL0     H70327   5.267   4.667   7.483  3.4316  2.1155  0.2695
  510MOL0     H70328   5.362   4.569   7.378  0.1849 -0.6848  2.4765
  510MOL0     H70329   5.413   4.867   7.585  0.2498 -2.9721  1.1759
  510MOL0     H70330   5.662   5.000   7.609 -1.9087 -1.1556 -0.9451
  510MOL0     H70331   5.660   5.101   7.462  2.1691 -0.1422 -1.3519
  510MOL0     H70332   5.816   4.835   7.501  0.9325 -0.1194 -0.8403
  510MOL0     H70333   5.837   4.939   7.366  2.4364 -0.6051  0.1606
  510MOL0     H70334   5.944   5.125   7.499  3.8556 -0.5994  2.0718
  510MOL0     H70335   5.871   5.071   7.643 -1.8389  1.3428 -1.3574
  510MOL0     H70336   6.013   4.859   7.620 -1.8803  2.2424 -0.1768
  510MOL0     H70337   6.102   4.936   7.491  0.3761 -0.9609 -0.7967
  510MOL0     H70338   6.206   5.203   7.848 -0.1219  1.2818  0.2587
  510MOL0     H70339   6.358   5.518   7.819  0.4851 -0.4097  1.9662
  510MOL0     H70340   6.488   5.411   7.854  1.3291 -0.1308 -3.7044
  510MOL0     H70341   6.329   5.393   7.927 -1.2322  1.9928  0.7070
  510MOL0     H70342   6.731   5.473   7.393 -1.6881  0.8853  1.4144
  510MOL0     H70343   6.879   5.639   7.305 -0.4523 -1.3855  1.3291
  510MOL0     H70344   6.833   6.066   7.158 -3.0564 -0.7520 -2.6716
  510MOL0     H70345   6.685   6.017   7.220  0.4926 -0.6555 -4.8010
  510MOL0     H70346   6.816   6.097   7.402 -2.7122  1.4902 -4.6957
  510MOL0     H70347   6.823   5.922   7.427 -4.6446  0.7959 -0.2811
  510MOL0     H70348   7.035   6.073   7.268 -2.2184  0.7007  1.6495
  510MOL0     H70349   7.049   5.899   7.312 -0.1713 -0.8676  0.0490
  510MOL0     H70350   7.084   5.937   7.534 -2.8784 -1.2307  0.6025
  510MOL0     H70351   7.040   6.104   7.522 -2.1231 -3.8826  0.8765
  510MOL0     H70352   7.230   6.172   7.402  3.5586  1.0046  0.9882
  510MOL0     H70353   7.277   6.088   7.548  0.5212 -1.2980 -0.9075
  510MOL0     H70354   7.276   5.962   7.272  0.1335 -0.2444  0.2493
  510MOL0     H70355   7.332   5.890   7.421  0.5142 -0.5277 -2.3404
  510MOL0     H70356   7.508   6.047   7.434 -0.3308 -0.3459 -0.3422
  510MOL0     H70357   7.446   6.151   7.301  2.1745  0.0434 -1.5677
  510MOL0     H70358   7.644   6.019   7.220  0.4880 -0.6734  1.8873
  510MOL0     H70359   7.505   5.920   7.163 -0.7092 -2.4224  1.2189
  510MOL0     H70360   6.524   5.851   7.173  1.9855  0.3100 -1.5766
  510MOL0     H70361   6.377   5.697   7.287  0.4087  1.9261 -1.9982
  510MOL0     H70362   6.337   5.297   7.388  3.4705 -1.9426  0.2546
  510MOL0     H70363   6.166   5.124   7.441 -2.2472  0.4729  1.6836
  510MOL0     H70364   4.662   5.103   7.871  0.6522  2.4615  1.4204
  510MOL0     H70365   4.748   5.313   7.950  2.5534 -0.7240  0.3137
  510MOL0     H70366   5.072   5.630   7.836  4.3027  1.6520 -0.1037
  510MOL0     H70367   5.216   5.820   7.839 -0.8837  0.9159 -0.1076
  510MOL0     H70368   5.076   6.133   7.611  1.3180 -4.6894  1.0095
  510MOL0     H70369   5.021   6.232   7.749 -0.2034  0.0908  1.8518
  510MOL0     H70370   5.250   6.304   7.803 -0.4557 -1.5935 -0.1384
  510MOL0     H70371   5.176   6.378   7.661  3.7299  0.7468 -0.5582
  510MOL0     H70372   5.371   6.140   7.662 -2.2226 -1.0630  1.5347
  510MOL0     H70373   5.297   6.209   7.523 -3.1785  0.4243 -0.6767
  510MOL0     H70374   5.543   6.310   7.549  1.5517  1.6449  1.2188
  510MOL0     H70375   5.500   6.362   7.714 -0.4205 -2.7582  1.0303
  510MOL0     H70376   5.378   6.692   7.508  1.9659  0.1005 -1.5260
  510MOL0     H70377   4.877   6.066   7.762  1.1722  0.7848  2.6719
  510MOL0     H70378   4.689   5.968   7.648 -2.3477 -0.9473 -1.4193
  510MOL0     H70379   4.634   5.810   7.674 -0.1558 -0.4780  1.4459
  510MOL0     H70380   4.648   5.933   7.811 -0.0381  1.4535 -0.0199
  511MOL0     O70381   4.467   8.719  10.707  0.6401 -0.7082 -0.8619
  511MOL0     C70382   4.383   8.675  10.630  0.3212 -0.0765  0.7704
  511MOL0     O70383   4.337   8.747  10.517  0.2377 -0.3317  0.2082
  511MOL0     C70384   4.359   8.876  10.481  0.5782  0.9095  0.6915
  511MOL0     C70385   4.264   8.961  10.430 -0.3299 -1.8867 -0.2288
  511MOL0     C70386   4.287   9.098  10.404  0.8332  0.3653  0.5583
  511MOL0     C70387   4.414   9.145  10.425  0.0214  0.1636  1.0309
  511MOL0     O70388   4.422   9.277  10.382  0.3996  0.1734  0.9074
  511MOL0     C70389   4.518   9.347  10.461 -0.5379  0.7278 -0.2028
  511MOL0     C70390   4.475   9.499  10.481 -0.4706 -0.0821  0.3317
  511MOL0     C70391   4.583   9.592  10.420  0.1995 -0.6630 -0.3725
  511MOL0     C70392   4.712   9.607  10.512  0.6111 -0.5327  0.7277
  511MOL0     C70393   4.844   9.660  10.445 -0.6623  0.2053  0.5771
  511MOL0     C70394   4.954   9.694  10.541  0.2452 -0.3160 -0.5522
  511MOL0     C70395   4.915   9.836  10.611  0.9034  0.7521  0.6244
  511MOL0     C70396   5.023   9.881  10.705 -0.1654 -0.7344 -0.3310
  511MOL0     N70397   5.136   9.953  10.643 -0.0865  0.3575 -0.4169
  511MOL0     C70398   5.150  10.076  10.590 -0.1866 -0.9337  0.0129
  511MOL0     C70399   5.279  10.098  10.590 -0.0630 -0.0563  0.0407
  511MOL0     C70400   5.337  10.232  10.564 -0.2385  0.0750  0.3395
  511MOL0     C70401   5.485  10.267  10.564  0.1396 -1.2892  0.5420
  511MOL0     C70402   5.512  10.405  10.499  0.1235  0.5924  0.0704
  511MOL0     C70403   5.481  10.528  10.578  0.1388 -0.0401  0.7453
  511MOL0     O70404   5.542  10.519  10.705  0.7669  0.4063 -0.9013
  511MOL0     C70405   5.505  10.611  10.795 -0.6679 -1.2202  0.1729
  511MOL0     C70406   5.451  10.570  10.911  0.1810 -0.5937  1.1266
  511MOL0     C70407   5.405  10.658  11.004 -0.2004 -0.4434 -0.5495
  511MOL0     C70408   5.368  10.607  11.132 -0.6702 -0.3339  0.4022
  511MOL0     C70409   5.415  10.806  10.978  0.1096 -0.3444 -1.0347
  511MOL0     C70410   5.356  10.914  11.069  0.1108 -0.2816 -0.2501
  511MOL0     O70411   5.417  11.036  11.063  0.0721 -0.4345  0.1191
  511MOL0     C70412   5.374  11.140  11.141 -0.7179  0.1464  0.0099
  511MOL0     C70413   5.292  11.234  11.091  0.6519 -0.7773  0.2082
  511MOL0     C70414   5.263  11.352  11.167 -0.4466  0.4438  0.1167
  511MOL0     C70415   5.313  11.371  11.302  1.1081  0.2086  0.1954
  511MOL0     O70416   5.284  11.472  11.390  0.0607 -0.1923  0.1505
  511MOL0     C70417   5.212  11.589  11.355  0.1126  0.8012 -0.0490
  511MOL0     C70418   5.290  11.696  11.278 -0.1656 -0.5803  0.3073
  511MOL0     C70419   5.435  11.745  11.345  0.5803  0.2722 -0.8692
  511MOL0     C70420   5.565  11.656  11.326  1.0645 -0.8132  0.0640
  511MOL0     C70421   5.607  11.662  11.170 -0.7675 -0.7267 -0.0480
  511MOL0     C70422   5.717  11.554  11.134 -0.6662 -0.3035 -0.4242
  511MOL0     C70423   5.763  11.576  10.990 -0.0623  1.0680 -0.4371
  511MOL0     C70424   5.886  11.488  10.951 -0.3526 -0.5797  0.2850
  511MOL0    Cl70425   5.897  11.482  10.770  0.3030 -0.0852 -0.1933
  511MOL0     C70426   5.398  11.268  11.353  0.1228  0.3557  0.2838
  511MOL0     C70427   5.433  11.154  11.270  0.5716 -0.6851  0.4396
  511MOL0     O70428   5.250  10.898  11.136 -0.3315 -0.5217  0.0662
  511MOL0     C70429   5.477  10.845  10.855  0.4226 -0.2522 -0.7648
  511MOL0     C70430   5.523  10.755  10.767  0.8827 -0.2638 -0.8272
  511MOL0     N70431   5.343   9.980  10.613  0.1599  0.1935  0.8077
  511MOL0     N70432   5.253   9.889  10.634  0.0153  0.5139  0.0680
  511MOL0     C70433   4.514   9.060  10.482 -0.7188 -0.0220  0.5056
  511MOL0     C70434   4.485   8.931  10.507  0.0452  0.8307  0.1215
  511MOL0     C70435   4.331   8.537  10.655 -0.9620 -0.3707  0.8870
  511MOL0     C70436   4.262   8.513  10.771  0.3545  0.0695  0.3116
  511MOL0     C70437   4.191   8.394  10.802 -0.3024  0.2659 -0.6168
  511MOL0     C70438   4.194   8.285  10.711  0.6541  0.4836 -0.1430
  511MOL0     O70439   4.133   8.158  10.736  0.3385 -0.3488 -1.2197
  511MOL0     C70440   3.987   8.172  10.734 -0.3035  0.7807 -0.6284
  511MOL0     C70441   3.917   8.028  10.729 -0.7734  0.0455 -0.3434
  511MOL0     C70442   3.970   7.943  10.615  0.3403 -0.7688  0.8696
  511MOL0     C70443   3.886   7.973  10.486 -1.1084  0.8372  0.2359
  511MOL0     C70444   3.921   7.884  10.366 -0.1630 -0.3642  0.1343
  511MOL0     C70445   3.947   7.804  10.269  0.1381  0.7286 -0.5858
  511MOL0     C70446   4.263   8.308  10.598 -0.2278  0.6068 -0.0684
  511MOL0     C70447   4.332   8.429  10.565 -0.1345  0.3630 -0.2792
  511MOL0     C70448   4.425   8.415  10.446 -0.0800  0.5304 -0.7562
  511MOL0     H70449   4.160   8.932  10.416 -1.4009  2.0403 -2.1163
  511MOL0     H70450   4.199   9.153  10.375 -1.5546 -2.4141  2.0228
  511MOL0     H70451   4.615   9.343  10.410  0.0887  1.0822  0.9130
  511MOL0     H70452   4.513   9.312  10.564 -0.5518  2.4136  0.4089
  511MOL0     H70453   4.387   9.520  10.419  1.1283  2.7172 -1.1825
  511MOL0     H70454   4.467   9.538  10.582  2.3652  1.2476  0.1437
  511MOL0     H70455   4.615   9.551  10.324 -1.2877 -1.3041 -0.6119
  511MOL0     H70456   4.545   9.692  10.398  1.3813 -0.4977 -1.8234
  511MOL0     H70457   4.695   9.680  10.592  0.6967  2.4555 -1.7998
  511MOL0     H70458   4.734   9.508  10.554  3.0917 -0.5719 -0.4888
  511MOL0     H70459   4.814   9.749  10.389 -0.8946 -0.8006 -0.9300
  511MOL0     H70460   4.886   9.587  10.376 -3.6760 -1.3738  0.2133
  511MOL0     H70461   4.968   9.610  10.609 -0.7873 -2.2186 -2.5489
  511MOL0     H70462   5.044   9.699  10.478  0.7653 -3.9078 -0.3133
  511MOL0     H70463   4.821   9.825  10.666  0.0246 -0.7439 -1.0915
  511MOL0     H70464   4.912   9.918  10.539  0.2253 -1.5591 -2.1692
  511MOL0     H70465   4.968   9.951  10.768 -0.3025  0.8271 -2.1067
  511MOL0     H70466   5.062   9.794  10.759 -4.3221 -1.0628  2.5621
  511MOL0     H70467   5.075  10.152  10.570  1.3435  0.4615 -0.6317
  511MOL0     H70468   5.274  10.296  10.626  2.4165  2.9374  0.3098
  511MOL0     H70469   5.313  10.255  10.460 -1.1530 -0.9857  0.2995
  511MOL0     H70470   5.525  10.268  10.666  3.7110 -1.8732 -0.6839
  511MOL0     H70471   5.543  10.200  10.500 -0.4974 -0.8680 -0.4899
  511MOL0     H70472   5.620  10.410  10.481 -0.2979  4.5734 -2.7850
  511MOL0     H70473   5.460  10.406  10.403  0.8056 -1.5924 -0.3603
  511MOL0     H70474   5.521  10.613  10.522 -2.0314  0.3221 -0.3674
  511MOL0     H70475   5.373  10.547  10.581 -0.0925  0.6498 -4.0689
  511MOL0     H70476   5.440  10.462  10.913 -2.6826 -0.3804  1.6823
  511MOL0     H70477   5.415  10.509  11.141  0.4680 -0.1596 -2.4465
  511MOL0     H70478   5.260  10.588  11.134 -1.2579  2.5075  1.9457
  511MOL0     H70479   5.387  10.682  11.209  0.9682  1.1566 -1.3434
  511MOL0     H70480   5.269  11.223  10.986 -1.4594  2.2430  0.2291
  511MOL0     H70481   5.209  11.439  11.132 -0.0086  0.0047 -1.7862
  511MOL0     H70482   5.120  11.564  11.301 -0.3165  0.9144  0.6131
  511MOL0     H70483   5.169  11.617  11.452  0.7372 -2.9350  1.4634
  511MOL0     H70484   5.320  11.661  11.178  1.9551 -4.0329  1.9857
  511MOL0     H70485   5.220  11.778  11.260  0.7658 -0.1892 -1.9708
  511MOL0     H70486   5.418  11.757  11.453  2.6510  1.9695 -0.6782
  511MOL0     H70487   5.465  11.845  11.312 -0.4208  1.2288  0.9430
  511MOL0     H70488   5.532  11.554  11.347  0.6580 -0.6627  0.1619
  511MOL0     H70489   5.648  11.677  11.395 -0.6383 -0.2768  2.0534
  511MOL0     H70490   5.523  11.640  11.103 -0.1699 -1.1219 -0.6799
  511MOL0     H70491   5.636  11.763  11.141 -1.2907 -0.8615 -1.0776
  511MOL0     H70492   5.688  11.449  11.146  0.7174 -0.6418  0.1109
  511MOL0     H70493   5.796  11.572  11.208 -0.3239  1.4295 -1.1630
  511MOL0     H70494   5.795  11.680  10.977  1.1403  0.5627 -1.8383
  511MOL0     H70495   5.683  11.557  10.918 -0.3713  1.2793 -0.1513
  511MOL0     H70496   5.872  11.389  10.993 -0.4004 -0.4635  0.5444
  511MOL0     H70497   5.982  11.528  10.987 -0.3621 -2.0021  1.9804
  511MOL0     H70498   5.444  11.277  11.451  0.6342  0.5357  0.0308
  511MOL0     H70499   5.507  11.083  11.305 -1.7752 -2.9944  1.0835
  511MOL0     H70500   5.504  10.947  10.832  3.2742 -0.1656  2.2643
  511MOL0     H70501   5.568  10.797  10.678 -0.2549  1.3880 -0.6602
  511MOL0     H70502   4.607   9.103  10.516  0.1628 -2.8827  2.0860
  511MOL0     H70503   4.562   8.871  10.555 -0.6646 -1.0602 -0.9517
  511MOL0     H70504   4.236   8.593  10.840  2.9604  0.5378  0.8513
  511MOL0     H70505   4.155   8.393  10.904  1.8455  4.0601  0.3839
  511MOL0     H70506   3.972   8.220  10.832  0.8813 -1.0889  0.5272
  511MOL0     H70507   3.950   8.237  10.654  0.1533 -2.7583 -3.9869
  511MOL0     H70508   3.809   8.044  10.734 -0.5492  1.4014  0.5698
  511MOL0     H70509   3.933   7.973  10.822  0.2749  0.8264 -0.0489
  511MOL0     H70510   4.070   7.975  10.587  0.8229 -2.3268  0.7072
  511MOL0     H70511   3.965   7.836  10.636 -0.2096 -0.6802  1.2229
  511MOL0     H70512   3.902   8.077  10.455  3.8011  0.0083 -0.9613
  511MOL0     H70513   3.780   7.962  10.510 -0.9945  2.1042  1.4672
  511MOL0     H70514   3.966   7.743  10.184 -1.6029  0.4788 -0.8500
  511MOL0     H70515   4.271   8.218  10.538  1.1066  0.7341 -0.1012
  511MOL0     H70516   4.525   8.444  10.479 -1.0083  1.5136  1.3556
  511MOL0     H70517   4.440   8.311  10.417  1.2953 -0.3245  2.6701
  511MOL0     H70518   4.391   8.485  10.368 -0.5091 -2.4680 -3.4532
  512MOL0     O70519   4.133   2.306   7.765  0.0597 -0.3381 -0.6768
  512MOL0     C70520   4.114   2.392   7.849  0.1162 -0.4876 -0.3625
  512MOL0     O70521   4.001   2.461   7.848 -0.1631  0.4370  0.4466
  512MOL0     C70522   3.902   2.416   7.762  0.1040 -0.9314 -0.1715
  512MOL0     C70523   3.824   2.303   7.809 -0.3254  0.3813 -0.1845
  512MOL0     C70524   3.712   2.270   7.728  0.1015  0.0660  0.0326
  512MOL0     C70525   3.671   2.345   7.618  0.0035 -0.2986  0.3912
  512MOL0     O70526   3.564   2.313   7.535 -0.5226  0.2752  0.3033
  512MOL0     C70527   3.478   2.204   7.566 -0.3533 -0.8036 -0.7831
  512MOL0     C70528   3.340   2.226   7.511 -0.4137  0.4124  0.1842
  512MOL0     C70529   3.315   2.166   7.374 -0.2952 -1.2030  1.5848
  512MOL0     C70530   3.173   2.220   7.332 -0.1317 -1.0811  0.6168
  512MOL0     C70531   3.137   2.216   7.179  0.3094 -0.2165  0.3648
  512MOL0     C70532   3.174   2.084   7.112 -0.5400  0.2635  0.1034
  512MOL0     C70533   3.077   1.964   7.154  0.1802  0.1871  0.0741
  512MOL0     C70534   3.120   1.836   7.091 -0.7919 -0.1555  0.3449
  512MOL0     N70535   3.014   1.783   7.008  0.1559 -0.6976  0.0537
  512MOL0     C70536   2.968   1.846   6.900  0.3157  0.9193 -0.0926
  512MOL0     C70537   2.872   1.763   6.852 -1.0911  0.2432  0.1484
  512MOL0     C70538   2.793   1.781   6.721 -0.1183  0.3590 -0.4377
  512MOL0     C70539   2.654   1.844   6.747  0.6831  1.2330  0.5961
  512MOL0     C70540   2.642   1.974   6.671 -0.5682 -0.0119  0.7868
  512MOL0     C70541   2.510   2.046   6.685  0.2247 -0.5916  0.7659
  512MOL0     O70542   2.414   1.990   6.596  0.0611  0.3789  0.7616
  512MOL0     C70543   2.344   1.887   6.646 -0.4133  0.4274 -0.9664
  512MOL0     C70544   2.284   1.877   6.768  0.4109 -0.1273  0.3349
  512MOL0     C70545   2.223   1.758   6.814  0.1972  1.1515  0.2525
  512MOL0     C70546   2.175   1.749   6.963 -0.2414 -0.2179  0.4697
  512MOL0     C70547   2.202   1.648   6.718  0.5068  0.2015 -0.4519
  512MOL0     C70548   2.131   1.515   6.758 -0.6414  0.2907 -1.0368
  512MOL0     O70549   2.152   1.417   6.674  0.8579  0.8770 -0.3572
  512MOL0     C70550   2.071   1.299   6.681 -0.2217  0.2055  1.0205
  512MOL0     C70551   2.070   1.213   6.797 -0.0361 -0.9946  1.4720
  512MOL0     C70552   2.004   1.084   6.789  0.0090 -0.6461 -0.2086
  512MOL0     C70553   1.937   1.046   6.680  0.5199  0.2268 -0.6755
  512MOL0     O70554   1.869   0.933   6.687 -0.4304 -0.0075  0.1851
  512MOL0     C70555   1.881   0.843   6.574 -0.0127  0.5345  0.0355
  512MOL0     C70556   1.738   0.787   6.536  0.1602 -0.3931 -0.3437
  512MOL0     C70557   1.767   0.656   6.459  0.3892  1.1497  0.5060
  512MOL0     C70558   1.645   0.577   6.418  0.2303  0.6684 -0.2978
  512MOL0     C70559   1.568   0.659   6.311 -1.1400  1.0017 -0.6088
  512MOL0     C70560   1.439   0.589   6.264 -0.0948  0.6800 -0.4839
  512MOL0     C70561   1.373   0.647   6.130 -0.3620 -0.6953 -0.1835
  512MOL0     C70562   1.257   0.558   6.066  0.1984 -0.8230 -0.3812
  512MOL0    Cl70563   1.197   0.649   5.931  0.0670  0.0977 -0.2710
  512MOL0     C70564   1.929   1.134   6.573 -0.6610  0.7724 -0.8078
  512MOL0     C70565   2.006   1.252   6.567  0.2522  0.0390 -0.2675
  512MOL0     O70566   2.040   1.521   6.848 -0.8384 -0.4338 -0.4947
  512MOL0     C70567   2.246   1.662   6.589  0.0429  0.1780  0.5614
  512MOL0     C70568   2.317   1.777   6.555  0.0682  0.0011  0.0285
  512MOL0     N70569   2.872   1.653   6.954 -0.3112 -0.5193  0.1125
  512MOL0     N70570   2.957   1.661   7.038 -0.6801  0.1625 -0.5531
  512MOL0     C70571   3.740   2.454   7.579 -0.1220 -0.3156  0.7351
  512MOL0     C70572   3.860   2.488   7.651 -0.4999 -0.0565  0.0571
  512MOL0     C70573   4.213   2.428   7.952  0.5367  0.3932  0.3809
  512MOL0     C70574   4.351   2.404   7.915  0.4873 -0.1702  0.0136
  512MOL0     C70575   4.455   2.450   7.991  0.3034 -0.1918  0.5795
  512MOL0     C70576   4.435   2.488   8.122  0.2235 -0.1042 -0.7148
  512MOL0     O70577   4.542   2.514   8.207 -0.0028 -1.2937 -0.2033
  512MOL0     C70578   4.678   2.463   8.186  0.1426  0.4153 -0.0570
  512MOL0     C70579   4.773   2.585   8.222  0.9977  0.9803 -0.8219
  512MOL0     C70580   4.798   2.651   8.091  0.9861 -0.8236 -0.5816
  512MOL0     C70581   4.764   2.799   8.111  0.4395 -0.6145  0.6721
  512MOL0     C70582   4.830   2.873   8.219  0.1037  0.1673 -0.9944
  512MOL0     C70583   4.891   2.914   8.317  0.0175  0.2084  0.9178
  512MOL0     C70584   4.302   2.517   8.163 -0.1157  0.2654  0.1561
  512MOL0     C70585   4.191   2.496   8.077 -0.1528  0.2129 -0.2081
  512MOL0     C70586   4.053   2.519   8.134 -0.0297  0.1821  0.0204
  512MOL0     H70587   3.857   2.252   7.899  1.4462  0.6917 -0.6152
  512MOL0     H70588   3.652   2.186   7.761  0.3327  0.1485  0.6770
  512MOL0     H70589   3.466   2.192   7.674 -3.0990 -0.0731 -0.9336
  512MOL0     H70590   3.527   2.117   7.521  2.3178  0.2465 -0.0664
  512MOL0     H70591   3.279   2.159   7.571 -0.2957  0.8050  0.7493
  512MOL0     H70592   3.311   2.330   7.529  0.9039  0.6791  0.8842
  512MOL0     H70593   3.392   2.205   7.306 -1.5495  1.3148  1.4745
  512MOL0     H70594   3.327   2.058   7.378  2.9492 -0.9612  1.2925
  512MOL0     H70595   3.094   2.159   7.376 -4.1417  0.5798 -3.4534
  512MOL0     H70596   3.159   2.324   7.364  4.0112 -0.9869  2.8309
  512MOL0     H70597   3.175   2.299   7.119 -4.0598  1.2382 -0.7231
  512MOL0     H70598   3.030   2.233   7.168  0.1915 -0.9605  0.2808
  512MOL0     H70599   3.172   2.108   7.005  2.0197  2.2495  0.4003
  512MOL0     H70600   3.277   2.048   7.123 -0.7713 -1.0619 -1.6572
  512MOL0     H70601   2.970   1.977   7.133 -0.5399 -0.9471  2.6426
  512MOL0     H70602   3.095   1.949   7.261  0.5071  2.8213  0.4516
  512MOL0     H70603   3.209   1.841   7.027 -1.2749 -0.2848 -0.3496
  512MOL0     H70604   3.158   1.759   7.160  1.5064 -3.3867 -3.9851
  512MOL0     H70605   3.002   1.936   6.850  0.2107 -0.4574 -2.8747
  512MOL0     H70606   2.784   1.681   6.678 -1.8701 -0.1056  0.8677
  512MOL0     H70607   2.858   1.852   6.669 -1.7499  0.2067 -2.8610
  512MOL0     H70608   2.573   1.774   6.723  2.9870 -1.8403  1.2846
  512MOL0     H70609   2.631   1.871   6.850 -3.6763  1.7655 -0.3200
  512MOL0     H70610   2.728   2.036   6.700 -0.3490  1.6784 -2.9185
  512MOL0     H70611   2.655   1.966   6.563  1.5346  2.5048  0.7536
  512MOL0     H70612   2.476   2.046   6.789  0.5866  1.9073  0.9357
  512MOL0     H70613   2.538   2.148   6.660 -0.9066 -1.3822 -5.1978
  512MOL0     H70614   2.286   1.964   6.833 -0.0498 -0.0735  0.2815
  512MOL0     H70615   2.234   1.668   7.005 -1.3170 -1.6518 -0.6893
  512MOL0     H70616   2.069   1.726   6.950 -0.2560  0.3708 -0.6773
  512MOL0     H70617   2.198   1.844   7.012  2.1841 -1.1827  1.3469
  512MOL0     H70618   2.125   1.255   6.880 -1.3068  1.3433  1.2055
  512MOL0     H70619   2.029   1.019   6.873  1.7789 -0.8138 -0.8228
  512MOL0     H70620   1.921   0.897   6.488  3.5681  0.2977  1.3776
  512MOL0     H70621   1.954   0.768   6.606  2.3528  1.9111 -1.8092
  512MOL0     H70622   1.682   0.768   6.628 -0.5653  0.2291 -0.6499
  512MOL0     H70623   1.690   0.869   6.481 -1.5118 -2.0475 -1.4521
  512MOL0     H70624   1.817   0.591   6.532 -1.1330 -0.5974  0.1003
  512MOL0     H70625   1.827   0.664   6.368  0.6439 -1.2221  0.3877
  512MOL0     H70626   1.579   0.570   6.505  1.7680  1.2657  0.9577
  512MOL0     H70627   1.671   0.479   6.376 -0.4886  0.8096 -1.1210
  512MOL0     H70628   1.545   0.761   6.341  0.1062  2.6518 -4.6466
  512MOL0     H70629   1.640   0.662   6.229  0.7193 -1.9387  0.7142
  512MOL0     H70630   1.369   0.594   6.348  1.6928  2.4257  0.9872
  512MOL0     H70631   1.469   0.485   6.250  2.2211  0.6247  3.5040
  512MOL0     H70632   1.450   0.653   6.053  1.0419 -2.6220  0.9666
  512MOL0     H70633   1.336   0.748   6.148 -2.0962 -0.7605 -2.9323
  512MOL0     H70634   1.187   0.513   6.137  0.3308 -0.3151  0.0754
  512MOL0     H70635   1.301   0.469   6.020  1.4051 -1.0409  1.1062
  512MOL0     H70636   1.860   1.115   6.491 -1.6135  4.7067 -1.1282
  512MOL0     H70637   2.000   1.307   6.473 -2.5293  3.6378  1.7443
  512MOL0     H70638   2.226   1.576   6.525 -0.5522 -1.5350  2.9025
  512MOL0     H70639   2.340   1.797   6.451 -0.8198 -0.6549 -0.3044
  512MOL0     H70640   3.720   2.501   7.484 -1.1630 -4.2685 -1.2340
  512MOL0     H70641   3.896   2.590   7.637 -3.2991  1.3167  1.8467
  512MOL0     H70642   4.373   2.368   7.815 -1.2295  0.5120 -0.6502
  512MOL0     H70643   4.550   2.434   7.942 -0.4823  1.2136 -1.5712
  512MOL0     H70644   4.694   2.393   8.268  0.2537  1.8350  1.1698
  512MOL0     H70645   4.700   2.410   8.093  1.0105  0.7520 -0.0508
  512MOL0     H70646   4.864   2.539   8.261 -1.1296 -1.6289  1.5717
  512MOL0     H70647   4.716   2.641   8.296 -0.6097 -1.3096 -0.2026
  512MOL0     H70648   4.905   2.638   8.072  1.2043  1.0356 -0.8611
  512MOL0     H70649   4.751   2.612   8.001  2.2707 -2.4971 -0.5767
  512MOL0     H70650   4.656   2.820   8.113  0.1017 -1.2729 -2.8118
  512MOL0     H70651   4.779   2.846   8.013  0.5236 -1.0247  0.4894
  512MOL0     H70652   4.936   2.936   8.412  1.6423  1.5886 -0.1267
  512MOL0     H70653   4.297   2.563   8.261  0.5565  0.8850 -0.0890
  512MOL0     H70654   4.008   2.604   8.082 -1.9962  0.6096  2.2596
  512MOL0     H70655   3.997   2.426   8.117  1.1099 -0.5107 -0.0749
  512MOL0     H70656   4.062   2.527   8.243 -1.8024 -1.0095  0.2959
  513MOL0     O70657   7.874   3.394   1.342 -0.1261  0.3957  0.3206
  513MOL0     C70658   7.802   3.398   1.249 -0.8303 -0.2661 -0.2034
  513MOL0     O70659   7.756   3.290   1.176  0.9348  0.5383  0.1249
  513MOL0     C70660   7.790   3.160   1.209  0.2294  0.3934 -0.1120
  513MOL0     C70661   7.894   3.094   1.148 -0.6074 -0.2319  0.5585
  513MOL0     C70662   7.921   2.963   1.189  0.9593  0.2154  0.6759
  513MOL0     C70663   7.844   2.899   1.284  1.0187 -0.0374 -0.9157
  513MOL0     O70664   7.856   2.763   1.316  0.2930  0.5625 -0.1788
  513MOL0     C70665   7.903   2.739   1.448 -1.0434 -0.0637  0.6033
  513MOL0     C70666   7.922   2.586   1.457  0.8821 -0.9626  0.9580
  513MOL0     C70667   7.958   2.525   1.585  0.2846 -0.0723 -0.3632
  513MOL0     C70668   8.090   2.596   1.634  1.3023 -0.5277  0.8744
  513MOL0     C70669   8.124   2.527   1.763 -0.0407  0.1930  0.3482
  513MOL0     C70670   8.264   2.564   1.815  0.3403  0.3138  0.1331
  513MOL0     C70671   8.277   2.709   1.871 -0.2198 -0.7783 -0.4064
  513MOL0     C70672   8.192   2.721   2.002 -0.0440  0.6140 -0.5056
  513MOL0     N70673   8.225   2.840   2.078  0.2384 -0.4757 -0.0801
  513MOL0     C70674   8.277   2.842   2.206 -0.3837  0.1607 -0.0017
  513MOL0     C70675   8.283   2.969   2.242  0.3406  0.4473 -0.7316
  513MOL0     C70676   8.373   3.017   2.356 -0.9854 -0.3840  0.5544
  513MOL0     C70677   8.307   3.011   2.493  0.0297  0.9100  1.1391
  513MOL0     C70678   8.187   3.121   2.495 -0.4937  0.3143  0.6829
  513MOL0     C70679   8.163   3.182   2.638  0.2899  0.9469 -0.1557
  513MOL0     O70680   8.048   3.265   2.638 -0.8923  0.3118 -0.3389
  513MOL0     C70681   8.026   3.371   2.732 -0.5509 -0.2426  0.1087
  513MOL0     C70682   7.895   3.381   2.778 -0.4536  1.3524 -1.0516
  513MOL0     C70683   7.845   3.484   2.862  0.1122 -1.0956 -0.6866
  513MOL0     C70684   7.694   3.486   2.896 -0.4613  0.2080  0.2827
  513MOL0     C70685   7.940   3.576   2.915  0.3304 -0.9881  0.5371
  513MOL0     C70686   7.910   3.667   3.027 -0.1457  0.4359 -0.1108
  513MOL0     O70687   8.019   3.703   3.098  0.7185  0.0362 -0.1980
  513MOL0     C70688   8.036   3.831   3.151  1.3029  0.1978 -0.0874
  513MOL0     C70689   8.151   3.858   3.226  0.9106  0.6250  0.0140
  513MOL0     C70690   8.182   3.983   3.264 -0.4045 -0.1791 -0.5494
  513MOL0     C70691   8.096   4.087   3.241  1.1494 -0.7500  0.3309
  513MOL0     O70692   8.121   4.211   3.279  0.0593 -0.1682  0.1024
  513MOL0     C70693   8.152   4.312   3.190 -0.5742 -0.0164 -0.3140
  513MOL0     C70694   8.161   4.447   3.254 -0.0938  0.2864 -0.0973
  513MOL0     C70695   8.026   4.485   3.330 -0.0508  0.3415  0.5978
  513MOL0     C70696   8.035   4.630   3.371 -0.0157 -0.0324 -0.2621
  513MOL0     C70697   7.888   4.681   3.416 -1.0293 -1.0707 -0.4210
  513MOL0     C70698   7.888   4.836   3.434 -0.6659  0.3379 -0.4251
  513MOL0     C70699   8.003   4.886   3.514 -0.4853  0.0529  0.5227
  513MOL0     C70700   7.994   5.030   3.559  0.5063 -0.2039  0.0087
  513MOL0    Cl70701   8.157   5.101   3.592 -0.3124 -0.3401 -0.5168
  513MOL0     C70702   7.967   4.057   3.181 -0.6759 -0.1948  0.4692
  513MOL0     C70703   7.944   3.929   3.127  0.3341  0.0488  0.6398
  513MOL0     O70704   7.792   3.689   3.061 -0.1876 -0.9573 -0.4485
  513MOL0     C70705   8.072   3.560   2.872  0.2301 -0.3732  0.3643
  513MOL0     C70706   8.115   3.459   2.785 -1.0668  0.7212 -0.1292
  513MOL0     N70707   8.218   3.050   2.144  0.5028 -0.0642 -0.8730
  513MOL0     N70708   8.185   2.967   2.050  0.6015  0.6771 -0.9863
  513MOL0     C70709   7.727   2.959   1.323  0.9784  0.3275  0.3904
  513MOL0     C70710   7.701   3.092   1.295 -0.4283  0.4607  0.3975
  513MOL0     C70711   7.758   3.536   1.210 -0.0653 -1.3018  0.0579
  513MOL0     C70712   7.684   3.556   1.090 -0.6486 -0.2153 -0.1547
  513MOL0     C70713   7.612   3.672   1.067 -0.7478 -0.3351  0.2396
  513MOL0     C70714   7.637   3.782   1.145 -0.6157 -1.3625 -0.3026
  513MOL0     O70715   7.590   3.907   1.116 -0.9013 -0.0501 -0.2949
  513MOL0     C70716   7.620   3.956   0.979 -0.6327 -0.3502 -0.0121
  513MOL0     C70717   7.555   4.089   0.950 -0.3978  0.6560 -0.2264
  513MOL0     C70718   7.653   4.208   0.964 -0.1207  0.0838 -0.8677
  513MOL0     C70719   7.601   4.345   0.950  0.2874 -0.2719 -0.9196
  513MOL0     C70720   7.533   4.373   0.820  0.4882  0.2325  0.0553
  513MOL0     C70721   7.459   4.386   0.721 -0.0111  0.8798  0.5105
  513MOL0     C70722   7.714   3.770   1.261  0.2943 -0.6441 -0.4019
  513MOL0     C70723   7.778   3.651   1.294 -0.6346  0.2696  0.6883
  513MOL0     C70724   7.844   3.648   1.431 -0.0269 -0.2076  0.2608
  513MOL0     H70725   7.962   3.138   1.076  2.2856 -0.4462  2.9530
  513MOL0     H70726   8.006   2.909   1.150  0.7071 -0.0386  0.4685
  513MOL0     H70727   7.822   2.764   1.517  0.9261 -0.2586  3.1326
  513MOL0     H70728   7.999   2.788   1.466  0.0025 -1.3863 -1.1518
  513MOL0     H70729   7.826   2.543   1.429  0.7693  0.5093 -1.1829
  513MOL0     H70730   7.995   2.550   1.384 -2.9141 -5.1145 -1.2626
  513MOL0     H70731   7.877   2.530   1.659  0.4376 -1.0092 -0.1264
  513MOL0     H70732   7.971   2.418   1.566  1.5837  0.0963 -0.5253
  513MOL0     H70733   8.181   2.585   1.573  2.5887 -2.8944  3.0066
  513MOL0     H70734   8.060   2.697   1.662 -3.3837 -0.2269 -3.8480
  513MOL0     H70735   8.135   2.421   1.741  4.3558  0.9989 -2.7016
  513MOL0     H70736   8.042   2.551   1.832  0.5348  1.7396  0.5413
  513MOL0     H70737   8.279   2.500   1.903 -0.8319 -0.5506 -0.2751
  513MOL0     H70738   8.341   2.539   1.741 -0.8534 -3.5160 -0.0434
  513MOL0     H70739   8.240   2.779   1.795  1.8253 -1.3532 -2.0573
  513MOL0     H70740   8.386   2.720   1.876  0.0134 -3.1813  1.1660
  513MOL0     H70741   8.084   2.720   1.984 -0.0044 -1.6515 -0.9338
  513MOL0     H70742   8.231   2.645   2.071  1.8987  3.1064  1.3619
  513MOL0     H70743   8.333   2.761   2.253 -2.4096  0.7128  3.6915
  513MOL0     H70744   8.403   3.120   2.332 -1.9353 -0.2510 -0.1153
  513MOL0     H70745   8.459   2.951   2.347  0.0345  0.8190  1.0508
  513MOL0     H70746   8.278   2.909   2.521  1.5363  0.2582  0.4398
  513MOL0     H70747   8.375   3.043   2.572  1.3779 -1.3917  0.9935
  513MOL0     H70748   8.219   3.202   2.429 -4.5431 -0.6713 -2.9582
  513MOL0     H70749   8.094   3.086   2.449  2.1056 -1.3921 -3.9582
  513MOL0     H70750   8.140   3.104   2.710  1.4621  1.7957  1.1911
  513MOL0     H70751   8.249   3.243   2.669  0.3555 -0.1285  1.9290
  513MOL0     H70752   7.818   3.320   2.731  1.4843 -0.9160 -1.5139
  513MOL0     H70753   7.678   3.478   3.004  2.2747 -3.5158  0.6094
  513MOL0     H70754   7.642   3.402   2.850  3.1473 -1.4397 -1.2063
  513MOL0     H70755   7.647   3.576   2.856 -0.3874 -0.6443 -1.8534
  513MOL0     H70756   8.231   3.785   3.238  2.8179  2.8839  2.1017
  513MOL0     H70757   8.263   4.002   3.333 -1.6820  1.0794  0.6771
  513MOL0     H70758   8.247   4.297   3.137  0.6008  6.2149 -0.7155
  513MOL0     H70759   8.074   4.320   3.115  1.5780  3.1113 -2.4388
  513MOL0     H70760   8.254   4.460   3.309 -1.0865 -2.6547  2.5804
  513MOL0     H70761   8.157   4.504   3.160  2.7829 -1.2652 -1.2868
  513MOL0     H70762   7.994   4.425   3.416  0.2640 -0.1986  0.3453
  513MOL0     H70763   7.947   4.476   3.255 -1.1402 -0.9741  1.8328
  513MOL0     H70764   8.077   4.687   3.288  2.1564 -2.6968 -1.1673
  513MOL0     H70765   8.104   4.629   3.456  2.3945 -0.6434 -2.0897
  513MOL0     H70766   7.815   4.650   3.341  0.0535 -1.0666 -1.5106
  513MOL0     H70767   7.860   4.635   3.511  1.1625 -0.8439  0.3836
  513MOL0     H70768   7.801   4.865   3.493 -1.2932 -1.2001 -0.5385
  513MOL0     H70769   7.870   4.877   3.335  1.7906 -3.2670 -2.5886
  513MOL0     H70770   8.090   4.886   3.448 -1.3765 -0.7825 -0.6806
  513MOL0     H70771   8.017   4.831   3.607  0.3796  1.1918  1.0949
  513MOL0     H70772   7.934   5.034   3.650  1.5241 -1.0230  0.7269
  513MOL0     H70773   7.942   5.101   3.493  0.4525  1.5052  1.7947
  513MOL0     H70774   7.888   4.130   3.165  0.7388  0.8039 -3.1649
  513MOL0     H70775   7.849   3.911   3.077  0.5169 -0.8702  0.6020
  513MOL0     H70776   8.148   3.627   2.910 -2.4228  3.2609 -0.1385
  513MOL0     H70777   8.215   3.446   2.746 -1.0034 -1.0981  0.5622
  513MOL0     H70778   7.651   2.901   1.374 -0.7382  2.2266  0.1389
  513MOL0     H70779   7.614   3.143   1.335 -1.9821 -1.1028 -0.8310
  513MOL0     H70780   7.668   3.466   1.031  1.2087  0.1281 -1.2471
  513MOL0     H70781   7.533   3.677   0.992 -1.0279  1.5967  0.6172
  513MOL0     H70782   7.728   3.965   0.970 -0.7943  0.9438 -0.8451
  513MOL0     H70783   7.586   3.884   0.905  2.6726 -0.8335 -1.2218
  513MOL0     H70784   7.477   4.107   1.024  2.6215 -3.1099  4.5045
  513MOL0     H70785   7.521   4.092   0.847  0.8941  4.5296 -0.7052
  513MOL0     H70786   7.704   4.199   1.060  0.2742  1.9187 -0.8696
  513MOL0     H70787   7.731   4.204   0.887  0.2182  0.2924 -0.5379
  513MOL0     H70788   7.673   4.420   0.982 -0.9411 -0.0787  1.6507
  513MOL0     H70789   7.524   4.352   1.028  1.2429 -1.2484  0.1426
  513MOL0     H70790   7.389   4.387   0.640 -0.6491  0.7012  1.0470
  513MOL0     H70791   7.722   3.859   1.323  5.1629 -2.1419  1.6079
  513MOL0     H70792   7.933   3.585   1.438 -0.4500 -0.7420  1.0178
  513MOL0     H70793   7.876   3.749   1.458 -1.4442  0.5562 -0.7846
  513MOL0     H70794   7.763   3.612   1.495  0.1117  3.7435  3.0002
  514MOL0     O70795   5.975   7.290   1.871 -0.4435 -0.5509  0.4767
  514MOL0     C70796   6.082   7.231   1.894 -0.0767  0.5889  0.6995
  514MOL0     O70797   6.082   7.090   1.905 -0.2278 -1.1923  0.2048
  514MOL0     C70798   5.985   7.023   1.844 -0.2221  0.4163 -0.8676
  514MOL0     C70799   5.949   6.902   1.897  0.1469  0.0903 -0.1279
  514MOL0     C70800   5.829   6.840   1.852  0.6222 -0.5282 -0.4687
  514MOL0     C70801   5.761   6.881   1.734  0.0837 -1.0375 -0.1630
  514MOL0     O70802   5.645   6.821   1.696 -0.0698 -0.8164 -0.4740
  514MOL0     C70803   5.613   6.689   1.728 -0.3715 -0.6723 -0.1360
  514MOL0     C70804   5.486   6.632   1.647 -1.4871 -0.5669 -0.0235
  514MOL0     C70805   5.370   6.727   1.689 -0.6004  1.0544  0.7047
  514MOL0     C70806   5.243   6.684   1.606  0.0683 -0.3587 -1.1123
  514MOL0     C70807   5.131   6.782   1.622 -0.4206  0.4823  0.2766
  514MOL0     C70808   5.006   6.740   1.550  0.9673  0.2305  0.8218
  514MOL0     C70809   4.887   6.835   1.544 -0.9505 -0.3141 -0.5600
  514MOL0     C70810   4.778   6.784   1.640  0.3593  0.7232 -0.1238
  514MOL0     N70811   4.811   6.780   1.786  0.8535 -0.7626  0.5081
  514MOL0     C70812   4.844   6.670   1.856 -0.7907  0.2027  0.4760
  514MOL0     C70813   4.888   6.722   1.976 -0.0671  0.0530  0.0494
  514MOL0     C70814   4.969   6.639   2.072 -0.4133  0.5612 -1.0958
  514MOL0     C70815   5.125   6.662   2.063  0.2199 -0.9347  0.2278
  514MOL0     C70816   5.195   6.545   2.125 -1.0931 -0.7207  0.1138
  514MOL0     C70817   5.347   6.523   2.094  0.1025  0.0618  1.1763
  514MOL0     O70818   5.352   6.434   1.970  0.0046 -0.6858 -0.2333
  514MOL0     C70819   5.469   6.377   1.932  0.5993  0.3848  0.6418
  514MOL0     C70820   5.603   6.386   1.986 -0.3231  0.3436  0.6053
  514MOL0     C70821   5.713   6.328   1.916 -0.1916 -0.2193 -0.3860
  514MOL0     C70822   5.852   6.366   1.970 -0.0948 -0.1631 -0.1848
  514MOL0     C70823   5.693   6.253   1.799  0.5953  0.5996 -0.0228
  514MOL0     C70824   5.803   6.184   1.726  0.7294 -0.1437 -1.6501
  514MOL0     O70825   5.881   6.091   1.795  0.4419 -0.1898 -0.7235
  514MOL0     C70826   5.965   6.015   1.723  0.2639  0.5199 -0.0688
  514MOL0     C70827   5.934   5.931   1.610 -0.3005  0.7613  0.7155
  514MOL0     C70828   6.038   5.850   1.548  0.9470  0.6218 -0.3721
  514MOL0     C70829   6.168   5.847   1.609 -0.2212 -0.1252 -0.2982
  514MOL0     O70830   6.265   5.768   1.555 -0.0742  0.2656 -0.8194
  514MOL0     C70831   6.219   5.639   1.502 -0.6944  0.7101 -0.0471
  514MOL0     C70832   6.245   5.631   1.357 -0.5307  0.3893 -0.1585
  514MOL0     C70833   6.254   5.488   1.302 -0.5567 -0.5946 -0.6800
  514MOL0     C70834   6.261   5.486   1.149  0.5207  0.5092  0.3220
  514MOL0     C70835   6.385   5.563   1.093  1.1230  0.0651 -0.1354
  514MOL0     C70836   6.411   5.564   0.939  0.2762  0.4472  0.2053
  514MOL0     C70837   6.451   5.429   0.882  0.4573 -0.0427 -0.9328
  514MOL0     C70838   6.501   5.427   0.735 -0.2767  0.0159 -0.0452
  514MOL0    Cl70839   6.527   5.249   0.695  0.0924  0.0975 -0.0871
  514MOL0     C70840   6.190   5.919   1.723  0.8411  0.4542 -1.0931
  514MOL0     C70841   6.088   5.992   1.778  0.8994  0.3063 -0.3558
  514MOL0     O70842   5.810   6.212   1.602  0.5070  0.0625 -0.0989
  514MOL0     C70843   5.563   6.253   1.754 -0.6823  0.0772  0.4055
  514MOL0     C70844   5.449   6.304   1.816  0.8682 -0.1520 -0.1154
  514MOL0     N70845   4.892   6.858   1.962  0.9224 -0.2607  0.7356
  514MOL0     N70846   4.837   6.894   1.851 -0.6946  0.0244 -0.6236
  514MOL0     C70847   5.817   6.987   1.669 -1.0193 -0.3936 -0.3412
  514MOL0     C70848   5.923   7.061   1.719  1.7513  0.6153 -0.5287
  514MOL0     C70849   6.200   7.301   1.924  0.0003 -0.0233  1.0192
  514MOL0     C70850   6.214   7.347   2.055  0.1083 -0.0229 -0.4437
  514MOL0     C70851   6.320   7.418   2.092  0.8955  0.1124  1.0143
  514MOL0     C70852   6.431   7.427   1.996  0.3897  0.5280  0.9433
  514MOL0     O70853   6.549   7.481   2.036  0.1583  0.0972  0.1774
  514MOL0     C70854   6.563   7.617   2.018  0.4674  0.4355  1.0298
  514MOL0     C70855   6.600   7.662   2.159  0.6230 -0.4129 -0.6737
  514MOL0     C70856   6.591   7.818   2.146 -0.0773 -0.0062 -0.5249
  514MOL0     C70857   6.631   7.878   2.286 -0.0668 -0.1787  0.4415
  514MOL0     C70858   6.773   7.900   2.285 -0.3191  0.1403 -0.0413
  514MOL0     C70859   6.893   7.907   2.291 -0.1222 -0.5625 -0.3879
  514MOL0     C70860   6.430   7.366   1.873  1.1011  0.3040 -0.2796
  514MOL0     C70861   6.312   7.302   1.836 -0.6091 -0.0405  0.7017
  514MOL0     C70862   6.290   7.248   1.697 -0.9039  0.7544  1.1203
  514MOL0     H70863   6.003   6.860   1.981  2.7483 -0.9070 -2.1382
  514MOL0     H70864   5.794   6.759   1.916 -0.3722 -0.7025 -1.1999
  514MOL0     H70865   5.591   6.679   1.835  0.2539 -3.2886 -0.1809
  514MOL0     H70866   5.694   6.619   1.707 -1.8067 -3.4798  2.7278
  514MOL0     H70867   5.505   6.648   1.541 -1.3627  2.1048  0.3296
  514MOL0     H70868   5.466   6.527   1.668  1.4799 -0.8041  2.3887
  514MOL0     H70869   5.329   6.698   1.787  0.4701 -4.5056 -0.1571
  514MOL0     H70870   5.383   6.835   1.680 -2.2792  1.1825 -1.0837
  514MOL0     H70871   5.270   6.684   1.499  0.3331  0.2893 -1.0534
  514MOL0     H70872   5.218   6.582   1.637  2.1126 -0.7792 -0.6430
  514MOL0     H70873   5.168   6.871   1.570  0.9201  0.2295  0.7571
  514MOL0     H70874   5.112   6.792   1.729 -1.4395  2.7576 -0.0647
  514MOL0     H70875   5.043   6.728   1.447 -1.8431 -1.5757 -0.0845
  514MOL0     H70876   4.978   6.641   1.584  0.6722 -0.2819 -0.7937
  514MOL0     H70877   4.853   6.853   1.442  0.1376 -0.3256 -0.9404
  514MOL0     H70878   4.922   6.933   1.580  1.5510 -1.5556  0.5778
  514MOL0     H70879   4.689   6.848   1.634  0.1116  1.1039  4.3398
  514MOL0     H70880   4.734   6.691   1.603 -1.2730  0.0670  3.1334
  514MOL0     H70881   4.850   6.564   1.834 -0.0862  0.2929  0.2180
  514MOL0     H70882   4.947   6.534   2.055 -1.7566  0.0243  2.8792
  514MOL0     H70883   4.933   6.671   2.171  0.9710 -0.0304 -0.3762
  514MOL0     H70884   5.149   6.671   1.956 -1.3015 -1.4580 -0.1843
  514MOL0     H70885   5.146   6.760   2.107 -4.0390  0.1073  0.3299
  514MOL0     H70886   5.180   6.559   2.232 -1.5205 -2.3100  0.2849
  514MOL0     H70887   5.148   6.453   2.087  0.4315 -0.7595 -1.8776
  514MOL0     H70888   5.404   6.614   2.075 -1.7902  0.9276 -0.7996
  514MOL0     H70889   5.394   6.466   2.174  0.7702  0.3465  0.9929
  514MOL0     H70890   5.620   6.455   2.068 -1.3146  0.3824  0.7950
  514MOL0     H70891   5.859   6.404   2.073  0.5363 -0.1253 -0.2412
  514MOL0     H70892   5.892   6.443   1.904  0.6580  0.0192  0.4642
  514MOL0     H70893   5.908   6.273   1.969 -0.5448 -0.4374 -0.2196
  514MOL0     H70894   5.831   5.914   1.580 -0.3969  1.0957  0.8501
  514MOL0     H70895   6.015   5.805   1.453 -1.2044  2.5731 -0.8652
  514MOL0     H70896   6.258   5.551   1.554 -1.4614 -0.5691 -1.5587
  514MOL0     H70897   6.112   5.619   1.512 -0.5449 -0.9697 -1.3772
  514MOL0     H70898   6.167   5.689   1.307  0.9952  0.7222 -2.3066
  514MOL0     H70899   6.347   5.670   1.352 -0.0455 -0.8761 -0.6524
  514MOL0     H70900   6.169   5.432   1.342 -0.9679 -0.7308 -1.7330
  514MOL0     H70901   6.349   5.449   1.341  0.0906  2.4588  1.1443
  514MOL0     H70902   6.177   5.534   1.098 -0.1721 -0.0789  0.9036
  514MOL0     H70903   6.259   5.378   1.131  0.8981  0.3404  1.2581
  514MOL0     H70904   6.361   5.667   1.115 -0.7332 -0.2278 -0.6484
  514MOL0     H70905   6.477   5.534   1.145  0.7652  1.6276  1.4919
  514MOL0     H70906   6.491   5.636   0.919  1.4198 -0.9851 -0.5934
  514MOL0     H70907   6.315   5.590   0.893  0.9305 -0.7186 -1.9681
  514MOL0     H70908   6.354   5.378   0.885 -1.1259  2.7328 -1.5655
  514MOL0     H70909   6.531   5.383   0.941  0.5226  1.4839  0.2150
  514MOL0     H70910   6.601   5.472   0.733 -1.1123  2.0648  0.9333
  514MOL0     H70911   6.440   5.477   0.659  0.0996 -1.6580 -1.5155
  514MOL0     H70912   6.288   5.909   1.769  2.3025  0.5757 -3.9619
  514MOL0     H70913   6.111   6.037   1.875 -2.1050  0.7117  0.2717
  514MOL0     H70914   5.551   6.195   1.662  4.0647 -0.5639 -0.0349
  514MOL0     H70915   5.352   6.304   1.766  1.1755 -1.9809 -0.7850
  514MOL0     H70916   5.783   7.024   1.573  2.6633  0.1255 -1.5928
  514MOL0     H70917   5.966   7.144   1.664  0.9623 -0.4176 -2.8639
  514MOL0     H70918   6.130   7.336   2.122  0.0315  0.3850 -0.4678
  514MOL0     H70919   6.333   7.454   2.194  0.6352 -1.4381  1.6224
  514MOL0     H70920   6.639   7.630   1.940 -0.5626 -1.3038 -0.3393
  514MOL0     H70921   6.476   7.662   1.970 -0.4390 -1.9510  0.2589
  514MOL0     H70922   6.692   7.623   2.204  0.5469  0.7052  0.5065
  514MOL0     H70923   6.519   7.632   2.227 -1.8510  1.0353 -2.7829
  514MOL0     H70924   6.658   7.843   2.063 -0.1048 -0.2874 -0.6339
  514MOL0     H70925   6.489   7.837   2.114 -1.0539 -1.9660  1.1839
  514MOL0     H70926   6.615   7.809   2.369  0.3034  1.3636  1.8325
  514MOL0     H70927   6.575   7.969   2.307 -0.1883 -0.0744 -0.2842
  514MOL0     H70928   6.996   7.923   2.317 -0.6328  1.8954  0.3985
  514MOL0     H70929   6.516   7.390   1.810  0.3799  1.8642 -0.7251
  514MOL0     H70930   6.280   7.139   1.692  3.7002  0.0592  2.6142
  514MOL0     H70931   6.204   7.301   1.655  1.6297  2.2902 -2.7114
  514MOL0     H70932   6.382   7.271   1.642 -0.7017 -1.7262  0.2734
  515MOL0     O70933   6.728   6.328   7.242  0.2222 -0.5637 -0.1115
  515MOL0     C70934   6.725   6.441   7.185  0.5296  0.8972 -1.1438
  515MOL0     O70935   6.706   6.465   7.048  0.1465 -0.0224  0.5171
  515MOL0     C70936   6.704   6.359   6.969 -0.4890 -0.3680  0.1128
  515MOL0     C70937   6.821   6.301   6.926 -0.6276 -1.0793  1.3836
  515MOL0     C70938   6.816   6.180   6.850  0.6718 -0.4735  1.2455
  515MOL0     C70939   6.693   6.126   6.809  0.5886 -0.3580  0.6965
  515MOL0     O70940   6.677   6.022   6.722 -0.2297 -0.5761  0.3634
  515MOL0     C70941   6.579   5.917   6.778 -1.3229  0.0304  0.3995
  515MOL0     C70942   6.621   5.785   6.741  0.0958  0.2336 -0.0546
  515MOL0     C70943   6.758   5.721   6.796  0.6974 -0.6781  0.7424
  515MOL0     C70944   6.726   5.607   6.891  0.3750  0.4019  1.4521
  515MOL0     C70945   6.835   5.556   6.981 -0.4809  0.2048  0.2979
  515MOL0     C70946   6.959   5.515   6.891 -0.8059 -0.1165 -0.1080
  515MOL0     C70947   7.076   5.487   6.989  0.2885  0.2827 -0.1177
  515MOL0     C70948   7.200   5.489   6.907  0.2516 -0.4097  0.2546
  515MOL0     N70949   7.317   5.439   6.983 -0.3033  0.3715  1.0347
  515MOL0     C70950   7.396   5.507   7.071 -0.1308 -0.3014 -0.0789
  515MOL0     C70951   7.480   5.404   7.113 -0.2123 -0.8452 -0.1851
  515MOL0     C70952   7.596   5.432   7.206 -0.0019 -0.5194 -0.1106
  515MOL0     C70953   7.711   5.520   7.146  0.6880  0.7149  0.2022
  515MOL0     C70954   7.755   5.483   7.004  0.0191  0.5428 -0.3177
  515MOL0     C70955   7.777   5.324   6.974 -0.7424 -1.0882  0.4940
  515MOL0     O70956   7.804   5.308   6.829  0.2540  0.7861  0.6796
  515MOL0     C70957   7.821   5.171   6.798  0.2127 -0.6563  0.0876
  515MOL0     C70958   7.713   5.098   6.758 -0.3901  1.0439  0.3322
  515MOL0     C70959   7.718   4.952   6.736 -0.1598 -1.1833 -0.5989
  515MOL0     C70960   7.590   4.888   6.695  0.3366  0.0132  0.1721
  515MOL0     C70961   7.849   4.895   6.755 -0.1891  0.8876 -0.0025
  515MOL0     C70962   7.870   4.752   6.728  0.3002  0.2215  0.1145
  515MOL0     O70963   7.977   4.695   6.797 -0.1002  0.0149  0.0169
  515MOL0     C70964   7.974   4.560   6.822 -0.6381 -0.1765 -0.2946
  515MOL0     C70965   8.096   4.516   6.887  0.4212 -0.0743  0.2321
  515MOL0     C70966   8.107   4.384   6.926  0.6373 -0.1553 -0.7738
  515MOL0     C70967   8.003   4.286   6.912  0.3611 -0.5784  0.7939
  515MOL0     O70968   8.025   4.166   6.962  0.1678 -0.2390 -0.6843
  515MOL0     C70969   8.003   4.054   6.873  0.7086 -0.1540  0.9425
  515MOL0     C70970   8.058   3.922   6.916 -0.6361 -0.3275  0.5793
  515MOL0     C70971   8.003   3.888   7.056 -0.2383  1.0835 -0.6508
  515MOL0     C70972   7.989   3.736   7.067 -0.5990  0.5400  0.8998
  515MOL0     C70973   7.888   3.702   7.176  0.0412 -0.1763 -0.5192
  515MOL0     C70974   7.740   3.742   7.150  0.5217  1.0154 -0.1345
  515MOL0     C70975   7.684   3.694   7.015  0.0687 -0.8095 -0.8115
  515MOL0     C70976   7.537   3.697   7.015 -0.0240 -0.6448  0.9254
  515MOL0    Cl70977   7.474   3.856   7.081 -0.1973 -0.0805 -0.6074
  515MOL0     C70978   7.883   4.335   6.859 -0.0233  0.0856 -0.6773
  515MOL0     C70979   7.865   4.466   6.817 -0.2411  1.0643  0.3975
  515MOL0     O70980   7.780   4.685   6.675 -0.3172  0.3347 -0.3384
  515MOL0     C70981   7.958   4.974   6.803  0.1738  0.1052  0.0378
  515MOL0     C70982   7.947   5.115   6.813  0.3362 -0.0015  1.1116
  515MOL0     N70983   7.444   5.286   7.053 -0.1061 -0.0200 -1.0184
  515MOL0     N70984   7.335   5.308   6.981 -0.1157 -0.4087  0.6605
  515MOL0     C70985   6.571   6.193   6.849  0.3399 -0.2603  1.2937
  515MOL0     C70986   6.580   6.310   6.924 -0.4409 -0.7502 -0.0472
  515MOL0     C70987   6.744   6.551   7.286 -0.9594  0.8041 -0.4785
  515MOL0     C70988   6.645   6.645   7.301 -0.0101 -0.6522  0.1097
  515MOL0     C70989   6.647   6.735   7.399 -0.0043 -0.2244 -0.5945
  515MOL0     C70990   6.748   6.730   7.496  0.3520  0.1019 -0.1927
  515MOL0     O70991   6.734   6.799   7.606 -0.2721 -0.3677 -0.0667
  515MOL0     C70992   6.701   6.939   7.585 -0.2172  0.5572 -0.6204
  515MOL0     C70993   6.816   7.025   7.652  1.4100  0.3635 -1.0888
  515MOL0     C70994   6.942   7.033   7.564 -0.7481  0.2919 -0.8269
  515MOL0     C70995   7.070   7.104   7.615 -0.0440  0.3476 -0.9306
  515MOL0     C70996   7.125   7.069   7.741  0.5116 -0.4320 -0.5549
  515MOL0     C70997   7.169   7.034   7.847  0.4678 -0.8618  0.2587
  515MOL0     C70998   6.857   6.651   7.466 -0.4624  0.2869  0.8064
  515MOL0     C70999   6.854   6.552   7.367 -0.4555 -0.4701  0.3283
  515MOL0     C71000   6.980   6.462   7.349 -0.8257 -0.1707 -0.5021
  515MOL0     H71001   6.911   6.359   6.946 -0.0613 -1.1268 -0.7757
  515MOL0     H71002   6.906   6.132   6.812 -0.4255 -0.7944 -1.1522
  515MOL0     H71003   6.484   5.945   6.731 -0.5655  1.3427 -0.4316
  515MOL0     H71004   6.591   5.912   6.886  0.6285  1.9820  0.3575
  515MOL0     H71005   6.540   5.716   6.765 -0.1209  1.3599  2.7834
  515MOL0     H71006   6.625   5.782   6.631  1.1335  0.6728 -0.0429
  515MOL0     H71007   6.806   5.687   6.704 -1.1133 -0.4242 -0.3313
  515MOL0     H71008   6.822   5.804   6.826  1.1549  1.0543 -4.1674
  515MOL0     H71009   6.647   5.629   6.963 -2.0099 -0.7707 -0.6177
  515MOL0     H71010   6.677   5.530   6.831  1.8734 -1.8263  2.9504
  515MOL0     H71011   6.804   5.462   7.028 -2.3545 -0.8550 -2.7821
  515MOL0     H71012   6.868   5.643   7.039  1.3446 -0.6033  0.5364
  515MOL0     H71013   6.947   5.419   6.839 -0.5852  0.0627 -0.4925
  515MOL0     H71014   6.991   5.600   6.830 -0.1795 -1.1361 -1.2755
  515MOL0     H71015   7.068   5.385   7.029  2.8653 -0.0751 -0.3662
  515MOL0     H71016   7.078   5.556   7.073  3.5808 -0.6632  0.7329
  515MOL0     H71017   7.182   5.416   6.827 -0.7111  1.5124 -1.3727
  515MOL0     H71018   7.212   5.591   6.870  0.6402 -0.4248  0.3384
  515MOL0     H71019   7.395   5.604   7.120  0.3708 -1.6858  2.8635
  515MOL0     H71020   7.636   5.337   7.244 -0.8411 -1.3073 -1.1450
  515MOL0     H71021   7.552   5.482   7.292 -0.7260  0.1388 -0.8495
  515MOL0     H71022   7.679   5.621   7.172 -1.1734  0.3566 -0.5666
  515MOL0     H71023   7.801   5.505   7.207 -0.0174  3.5254  2.1033
  515MOL0     H71024   7.692   5.513   6.919  1.0417 -2.2460 -2.1686
  515MOL0     H71025   7.846   5.537   6.976  0.5519  0.1605  0.6486
  515MOL0     H71026   7.864   5.281   7.023 -0.6012 -3.6549 -1.7762
  515MOL0     H71027   7.693   5.258   6.998 -0.9922 -1.9134 -2.3756
  515MOL0     H71028   7.618   5.149   6.743 -1.1113 -0.5677 -0.9926
  515MOL0     H71029   7.581   4.802   6.762 -3.2408  1.1377  1.3534
  515MOL0     H71030   7.589   4.868   6.587 -0.1118 -1.3679  0.4159
  515MOL0     H71031   7.506   4.951   6.726  1.2229 -0.2621  3.5363
  515MOL0     H71032   8.171   4.593   6.903  0.0093  0.3692  0.0310
  515MOL0     H71033   8.204   4.345   6.954 -0.1871 -0.7705  1.4395
  515MOL0     H71034   7.900   4.039   6.841  0.9728  1.7919 -1.0710
  515MOL0     H71035   8.061   4.076   6.783  1.6132 -0.0626  1.5286
  515MOL0     H71036   8.010   3.858   6.841  0.3090  2.1638 -2.3672
  515MOL0     H71037   8.164   3.896   6.922 -1.1502 -2.4286  1.9828
  515MOL0     H71038   7.900   3.925   7.055 -1.8558 -2.9233 -1.5298
  515MOL0     H71039   8.067   3.935   7.132 -0.6888  1.1853 -0.3266
  515MOL0     H71040   8.091   3.700   7.083  0.5658  1.9285 -2.4789
  515MOL0     H71041   7.964   3.691   6.970  2.5696 -1.2977  0.7952
  515MOL0     H71042   7.907   3.594   7.183  0.3528 -0.0239  1.4768
  515MOL0     H71043   7.916   3.755   7.268 -2.5100  1.6279 -0.6816
  515MOL0     H71044   7.726   3.847   7.178 -0.3479  0.6391  0.9100
  515MOL0     H71045   7.687   3.680   7.223  1.9968 -0.4895 -0.2673
  515MOL0     H71046   7.717   3.591   6.995  2.1278  0.0990 -2.3966
  515MOL0     H71047   7.728   3.752   6.934  1.4506 -3.7550 -2.3472
  515MOL0     H71048   7.487   3.617   7.070 -2.1900 -0.6192 -0.8876
  515MOL0     H71049   7.500   3.686   6.913 -1.8921  1.8714  1.2280
  515MOL0     H71050   7.810   4.255   6.848  2.2459 -2.2355  0.1219
  515MOL0     H71051   7.768   4.490   6.774 -0.8652 -1.2096  0.3902
  515MOL0     H71052   8.053   4.925   6.822  0.3772 -0.7217 -2.5772
  515MOL0     H71053   8.033   5.177   6.837  2.7782 -2.0722 -1.5217
  515MOL0     H71054   6.480   6.178   6.792 -0.3093  1.2123  1.8873
  515MOL0     H71055   6.495   6.367   6.959 -0.3745 -0.9807  0.4981
  515MOL0     H71056   6.560   6.637   7.234 -0.4033  1.5523  0.2771
  515MOL0     H71057   6.561   6.800   7.416  1.8133  2.5337 -1.3356
  515MOL0     H71058   6.683   6.971   7.482 -0.4853  0.7781 -0.5072
  515MOL0     H71059   6.605   6.957   7.635 -0.4071 -1.0104 -0.3711
  515MOL0     H71060   6.836   6.979   7.749 -3.8598  0.7430  0.4840
  515MOL0     H71061   6.795   7.131   7.672  1.7374 -0.0148  1.6704
  515MOL0     H71062   6.969   6.933   7.527  1.5028  0.6061 -0.1833
  515MOL0     H71063   6.907   7.093   7.480  0.6689  0.5889 -1.2260
  515MOL0     H71064   7.065   7.213   7.623  5.4729  0.8127  0.4236
  515MOL0     H71065   7.144   7.093   7.534 -1.3203 -0.4176 -2.0417
  515MOL0     H71066   7.204   7.014   7.947  1.3505  0.5875  0.2667
  515MOL0     H71067   6.938   6.671   7.535 -1.4223 -0.4657  2.1859
  515MOL0     H71068   6.969   6.379   7.278 -2.4833 -2.4934  2.2252
  515MOL0     H71069   7.071   6.519   7.330 -2.1796  2.5095  0.4742
  515MOL0     H71070   7.003   6.411   7.443 -1.2364 -4.5106 -2.4998
  516MOL0     O71071   5.352   0.292  10.848 -0.4793  0.5375  0.4324
  516MOL0     C71072   5.359   0.410  10.886  0.9099  0.5699 -0.5592
  516MOL0     O71073   5.245   0.483  10.919  0.4673  0.1287 -0.8924
  516MOL0     C71074   5.115   0.446  10.893 -0.5468 -0.9472 -1.0398
  516MOL0     C71075   5.025   0.553  10.913 -0.2688  0.0731  0.6090
  516MOL0     C71076   4.886   0.530  10.906  0.0322  0.2090 -0.4879
  516MOL0     C71077   4.832   0.413  10.865  0.6972  0.4826 -0.2253
  516MOL0     O71078   4.697   0.392  10.862  0.1402 -1.1589  0.3533
  516MOL0     C71079   4.647   0.285  10.790  0.1860 -0.2033 -0.6929
  516MOL0     C71080   4.495   0.296  10.795 -0.2827  0.3621  0.0025
  516MOL0     C71081   4.432   0.410  10.717 -0.0418  0.4832 -0.7265
  516MOL0     C71082   4.428   0.529  10.806 -0.0751  0.4296 -0.9294
  516MOL0     C71083   4.358   0.648  10.735  0.5962  0.1331 -0.7822
  516MOL0     C71084   4.357   0.776  10.819 -0.5687 -1.1673  0.4752
  516MOL0     C71085   4.486   0.856  10.787  0.4765 -0.2521 -0.4697
  516MOL0     C71086   4.512   0.965  10.898 -0.0614  0.0538 -0.8961
  516MOL0     N71087   4.635   1.041  10.857 -0.7104  0.4420 -0.1229
  516MOL0     C71088   4.754   1.055  10.921  0.1375  0.5383 -1.1546
  516MOL0     C71089   4.829   1.131  10.832 -0.1735  0.5232 -0.2014
  516MOL0     C71090   4.969   1.187  10.848 -0.9631  0.8552 -0.6711
  516MOL0     C71091   5.020   1.306  10.762 -0.8515 -0.0139  1.4164
  516MOL0     C71092   5.175   1.347  10.791  0.0596  0.3167 -0.0916
  516MOL0     C71093   5.211   1.471  10.710  0.3334  0.0174 -0.5409
  516MOL0     O71094   5.330   1.526  10.769  0.2014 -0.2596 -0.4795
  516MOL0     C71095   5.451   1.461  10.738  0.3350  0.7376 -0.1208
  516MOL0     C71096   5.561   1.515  10.797 -0.0945 -0.3446 -0.3143
  516MOL0     C71097   5.698   1.479  10.787  0.7942  0.0489  0.2985
  516MOL0     C71098   5.794   1.530  10.900 -0.5836 -0.0651 -0.8894
  516MOL0     C71099   5.732   1.375  10.689  0.0678  0.2027 -0.2524
  516MOL0     C71100   5.858   1.325  10.657 -1.0517  0.6359 -0.5084
  516MOL0     O71101   5.961   1.355  10.749  0.2013  0.4074 -0.3901
  516MOL0     C71102   6.091   1.315  10.724  0.1738  0.1204  1.0050
  516MOL0     C71103   6.151   1.213  10.799 -0.5578 -0.2650  0.0157
  516MOL0     C71104   6.286   1.163  10.771  0.8528 -1.4400  0.2327
  516MOL0     C71105   6.358   1.226  10.668  0.0904  0.7758 -0.0592
  516MOL0     O71106   6.497   1.199  10.647 -0.1969 -0.8906 -0.6414
  516MOL0     C71107   6.567   1.099  10.727  0.4579 -0.2933  0.8242
  516MOL0     C71108   6.724   1.111  10.703 -0.1836 -0.1494 -0.1843
  516MOL0     C71109   6.760   1.163  10.561 -0.5676 -0.2667  0.2796
  516MOL0     C71110   6.915   1.160  10.553 -0.2324 -0.7685  0.2716
  516MOL0     C71111   6.963   1.170  10.411  0.0307 -0.2915  0.1877
  516MOL0     C71112   7.088   1.255  10.412  0.2980  0.6302 -0.0106
  516MOL0     C71113   7.132   1.266  10.261  0.4044 -0.8532 -0.0307
  516MOL0     C71114   7.258   1.344  10.247 -0.5688 -1.0556  0.5513
  516MOL0    Cl71115   7.220   1.509  10.314 -0.1755  0.1575 -0.4274
  516MOL0     C71116   6.291   1.312  10.589  0.3137  0.0186 -0.0487
  516MOL0     C71117   6.163   1.363  10.613  0.0431 -1.1005 -0.7068
  516MOL0     O71118   5.870   1.245  10.564  0.7160  0.1778 -0.4623
  516MOL0     C71119   5.609   1.326  10.618 -0.5376  0.7110  0.1124
  516MOL0     C71120   5.473   1.364  10.642 -0.8573 -0.0271  0.2984
  516MOL0     N71121   4.756   1.144  10.713  0.1605 -0.2645  0.2365
  516MOL0     N71122   4.648   1.096  10.735  0.7496 -0.1983  0.1208
  516MOL0     C71123   4.921   0.302  10.847 -0.2865 -0.5548 -0.3159
  516MOL0     C71124   5.060   0.320  10.863  0.2142  0.8223  0.6468
  516MOL0     C71125   5.492   0.467  10.909  0.6183 -0.6007  0.4322
  516MOL0     C71126   5.496   0.577  10.988  0.6608 -0.3575 -0.4323
  516MOL0     C71127   5.606   0.638  11.032  0.1821  0.2015 -0.6725
  516MOL0     C71128   5.727   0.584  10.994 -0.5837 -0.9269 -0.9909
  516MOL0     O71129   5.844   0.642  11.041  0.0416 -0.0211 -0.5388
  516MOL0     C71130   5.955   0.670  10.956 -0.1871  1.0005 -0.1061
  516MOL0     C71131   5.967   0.823  10.930 -1.1386  0.4480  0.0218
  516MOL0     C71132   5.869   0.878  10.839 -0.0751  0.6936  1.7657
  516MOL0     C71133   5.892   0.849  10.696  0.8696  0.6308  0.8012
  516MOL0     C71134   5.807   0.740  10.634 -0.6454 -0.7676 -0.2036
  516MOL0     C71135   5.749   0.641  10.586 -0.7611 -0.5625 -0.1064
  516MOL0     C71136   5.732   0.468  10.931 -0.0410  0.4842  0.8802
  516MOL0     C71137   5.615   0.401  10.882 -0.9377 -0.4621  0.1350
  516MOL0     C71138   5.636   0.292  10.785  0.7337  0.3664 -0.6040
  516MOL0     H71139   5.078   0.645  10.933 -0.3105  0.0371  0.8856
  516MOL0     H71140   4.832   0.619  10.937  3.6650  2.9698 -1.4386
  516MOL0     H71141   4.672   0.198  10.851 -0.9461 -0.2758 -0.3259
  516MOL0     H71142   4.687   0.282  10.688 -1.1596 -1.4712 -1.2158
  516MOL0     H71143   4.471   0.210  10.730 -1.9730  0.8777 -0.1177
  516MOL0     H71144   4.449   0.287  10.894 -0.3467  1.2427  0.0579
  516MOL0     H71145   4.495   0.437  10.633  2.2915 -1.1656  0.3846
  516MOL0     H71146   4.329   0.374  10.702 -0.6485  0.4597  2.6630
  516MOL0     H71147   4.380   0.501  10.901 -1.1509 -0.9435 -1.8273
  516MOL0     H71148   4.531   0.552  10.835 -0.4691  1.4155 -0.2882
  516MOL0     H71149   4.254   0.617  10.717  0.9982 -1.3123 -0.6625
  516MOL0     H71150   4.405   0.660  10.637 -1.2490 -1.3915 -1.9232
  516MOL0     H71151   4.269   0.841  10.811 -1.0347 -1.9496 -1.0476
  516MOL0     H71152   4.354   0.756  10.927  0.1842  3.0081  1.4760
  516MOL0     H71153   4.466   0.891  10.686 -1.0959 -0.2447 -0.1874
  516MOL0     H71154   4.569   0.787  10.803  1.2666  1.1195  1.8875
  516MOL0     H71155   4.427   1.033  10.912 -2.6158 -3.3979  2.4195
  516MOL0     H71156   4.529   0.917  10.995 -0.3002  0.9376 -0.4063
  516MOL0     H71157   4.786   1.024  11.020  2.5207 -0.8703 -2.2663
  516MOL0     H71158   5.041   1.108  10.828 -0.6342  0.5498  1.5400
  516MOL0     H71159   4.981   1.199  10.956  2.0248 -1.4890 -0.6115
  516MOL0     H71160   5.005   1.272  10.659 -0.6083  0.2000  1.3095
  516MOL0     H71161   4.956   1.390  10.790  0.6406  1.1912  1.3617
  516MOL0     H71162   5.181   1.362  10.899 -2.1703  1.1129 -0.0269
  516MOL0     H71163   5.239   1.263  10.763 -1.2040 -0.5062 -0.6331
  516MOL0     H71164   5.228   1.455  10.603  1.6715 -4.4025  0.1276
  516MOL0     H71165   5.129   1.544  10.717 -0.6079 -0.9915 -0.7106
  516MOL0     H71166   5.551   1.598  10.865  2.0087  1.4540 -2.0152
  516MOL0     H71167   5.829   1.447  10.961 -1.7871 -2.1474 -2.8864
  516MOL0     H71168   5.741   1.605  10.960  1.0600  1.9168 -1.8103
  516MOL0     H71169   5.880   1.583  10.858 -2.1842  2.3773 -1.3571
  516MOL0     H71170   6.084   1.168  10.872 -3.7045  0.8600 -1.9882
  516MOL0     H71171   6.329   1.090  10.839  0.3893  1.8936  4.5431
  516MOL0     H71172   6.534   1.112  10.830  1.5422 -1.0886  1.2884
  516MOL0     H71173   6.534   1.003  10.685  1.3749  0.3521 -1.5203
  516MOL0     H71174   6.764   1.188  10.769  1.7159  0.4533 -1.9199
  516MOL0     H71175   6.776   1.016  10.715  0.2043 -0.2369 -2.1505
  516MOL0     H71176   6.715   1.258  10.532 -2.1600 -1.7541 -2.5838
  516MOL0     H71177   6.723   1.089  10.490  1.5692  2.8818 -4.5878
  516MOL0     H71178   6.955   1.068  10.596  0.0666 -0.7859 -0.0402
  516MOL0     H71179   6.944   1.250  10.607 -3.1100  0.3625  0.1144
  516MOL0     H71180   6.972   1.068  10.372 -0.2683 -0.1184 -0.3371
  516MOL0     H71181   6.892   1.218  10.343 -2.1944 -1.2378  1.7364
  516MOL0     H71182   7.164   1.205  10.472 -1.2539  0.8779  2.3018
  516MOL0     H71183   7.057   1.353  10.451  1.5469  0.9166  0.2927
  516MOL0     H71184   7.051   1.308  10.202 -0.9556 -3.0664  0.1621
  516MOL0     H71185   7.160   1.164  10.233  2.0318 -1.3720  3.0072
  516MOL0     H71186   7.270   1.352  10.138 -0.1719 -0.4208  0.6357
  516MOL0     H71187   7.342   1.303  10.303 -0.0867 -1.2597 -0.2994
  516MOL0     H71188   6.341   1.351  10.501  0.3157  1.4837  0.5778
  516MOL0     H71189   6.116   1.441  10.553 -3.4042 -1.6398  1.0410
  516MOL0     H71190   5.614   1.241  10.550 -2.0889 -1.2139  2.2302
  516MOL0     H71191   5.394   1.331  10.575 -1.6231  1.3658  0.4790
  516MOL0     H71192   4.873   0.207  10.826 -1.3647 -0.4622  1.4654
  516MOL0     H71193   5.132   0.239  10.856  2.1361  2.4023  1.2989
  516MOL0     H71194   5.407   0.620  11.031 -0.1537 -0.9586 -1.4510
  516MOL0     H71195   5.602   0.714  11.109 -0.6139 -2.0472  1.6162
  516MOL0     H71196   6.042   0.639  11.016  0.7659  0.2279 -1.8165
  516MOL0     H71197   5.958   0.613  10.863  3.8903  0.3155  0.2395
  516MOL0     H71198   6.068   0.844  10.892 -0.6467  4.2611  2.8254
  516MOL0     H71199   5.953   0.887  11.018 -2.5472  1.5733 -0.9755
  516MOL0     H71200   5.771   0.845  10.873  0.3496 -1.5245  1.0253
  516MOL0     H71201   5.879   0.986  10.853  1.1235  0.8852 -0.1746
  516MOL0     H71202   5.996   0.817  10.687  0.6459  0.2649 -0.7899
  516MOL0     H71203   5.881   0.944  10.643  3.5881  1.7941  2.0907
  516MOL0     H71204   5.726   0.548  10.538  1.3785 -2.1153  1.6587
  516MOL0     H71205   5.834   0.433  10.916 -0.7791 -1.7687  0.7409
  516MOL0     H71206   5.742   0.268  10.776  0.1077 -2.1460 -2.2402
  516MOL0     H71207   5.598   0.199  10.828  2.4419 -2.4829 -4.6095
  516MOL0     H71208   5.582   0.300  10.690 -3.3844 -1.0712  1.3656
  517MOL0     O71209   5.788   3.601   9.599 -0.1077 -0.4235  0.4244
  517MOL0     C71210   5.718   3.514   9.650  0.2464 -0.5557 -0.0655
  517MOL0     O71211   5.752   3.442   9.760  0.8010 -0.0691 -1.0291
  517MOL0     C71212   5.874   3.478   9.814  0.3515  0.4742 -0.1186
  517MOL0     C71213   5.886   3.608   9.871 -0.3231  0.8052 -0.4874
  517MOL0     C71214   6.010   3.640   9.932  0.0371  0.4424  0.7077
  517MOL0     C71215   6.121   3.554   9.915 -0.0896  0.0229 -0.6482
  517MOL0     O71216   6.242   3.572   9.978  0.1267  1.1830 -0.0589
  517MOL0     C71217   6.298   3.713   9.983 -0.4865  0.1328  0.8279
  517MOL0     C71218   6.442   3.707  10.035 -0.7682 -0.3870 -1.1237
  517MOL0     C71219   6.541   3.650   9.935 -0.1044  0.9760 -0.3448
  517MOL0     C71220   6.678   3.639   9.989 -0.1727 -0.8304  1.2271
  517MOL0     C71221   6.711   3.524  10.078 -0.0653  0.0818  0.8587
  517MOL0     C71222   6.863   3.493  10.104  1.0092 -0.2392  0.6705
  517MOL0     C71223   6.926   3.555  10.227  0.1710  1.2939  0.1076
  517MOL0     C71224   7.075   3.522  10.220  0.3597  1.0560  0.9447
  517MOL0     N71225   7.134   3.527  10.350  0.0520  0.3858  0.4780
  517MOL0     C71226   7.108   3.453  10.468  0.6294  0.1252 -0.7613
  517MOL0     C71227   7.214   3.489  10.553 -0.1279 -0.1713 -0.1673
  517MOL0     C71228   7.243   3.443  10.690 -1.4338  0.3184  0.2297
  517MOL0     C71229   7.166   3.319  10.746 -0.3563 -0.2826 -0.2239
  517MOL0     C71230   7.231   3.279  10.878  0.1185  0.5967  1.3301
  517MOL0     C71231   7.157   3.159  10.953 -0.6758 -0.2318  0.4727
  517MOL0     O71232   7.132   3.045  10.865  0.6825 -0.0931 -0.4997
  517MOL0     C71233   7.006   3.016  10.827 -0.1837 -0.1770 -0.3929
  517MOL0     C71234   6.881   3.052  10.884  0.5486 -0.1717  0.6202
  517MOL0     C71235   6.751   3.001  10.844  0.1499 -0.0768  0.9416
  517MOL0     C71236   6.619   3.057  10.908  0.4226  0.1774 -0.2355
  517MOL0     C71237   6.755   2.904  10.734  1.0582 -0.3831  0.2491
  517MOL0     C71238   6.630   2.834  10.681  1.0865  0.4783 -0.5261
  517MOL0     O71239   6.499   2.897  10.708 -1.2393  1.1435 -0.6827
  517MOL0     C71240   6.389   2.841  10.661  0.5772 -0.3870  0.2442
  517MOL0     C71241   6.381   2.804  10.529  0.1646 -0.4894  0.0227
  517MOL0     C71242   6.265   2.746  10.472  0.6161 -0.3964  0.0810
  517MOL0     C71243   6.162   2.716  10.551 -0.3449  0.2604 -0.4572
  517MOL0     O71244   6.056   2.657  10.492 -0.8379  0.5417 -0.4129
  517MOL0     C71245   6.063   2.523  10.484 -0.6855  0.3767 -0.0037
  517MOL0     C71246   6.001   2.439  10.605 -0.3110  0.4470  0.5661
  517MOL0     C71247   5.843   2.425  10.630 -0.5595 -0.2264 -0.1029
  517MOL0     C71248   5.785   2.554  10.684 -0.0288  0.9159 -0.0886
  517MOL0     C71249   5.794   2.564  10.835  0.0215  0.7162 -0.0129
  517MOL0     C71250   5.746   2.697  10.885 -0.1185 -0.0508 -0.6037
  517MOL0     C71251   5.802   2.708  11.031  0.9560 -1.0149  0.2138
  517MOL0     C71252   5.722   2.826  11.098  0.2906  1.3303 -0.2456
  517MOL0    Cl71253   5.746   2.984  11.032  0.2780  0.2976 -0.0568
  517MOL0     C71254   6.163   2.757  10.685  0.5014 -0.9505  0.1903
  517MOL0     C71255   6.278   2.821  10.731 -0.0891  0.2290 -0.0194
  517MOL0     O71256   6.647   2.716  10.636 -0.1029  0.4423 -0.0893
  517MOL0     C71257   6.878   2.877  10.676  0.0990  0.2590 -0.5376
  517MOL0     C71258   7.002   2.927  10.722  0.4911  0.1396 -0.4029
  517MOL0     N71259   7.293   3.574  10.484 -0.1334 -1.0067  0.5569
  517MOL0     N71260   7.238   3.605  10.368 -0.2764 -0.4560  0.0595
  517MOL0     C71261   6.104   3.432   9.854 -0.2256  0.9349 -0.6154
  517MOL0     C71262   5.982   3.394   9.799  0.1669 -0.0079 -1.2152
  517MOL0     C71263   5.588   3.481   9.589 -0.2126  0.8176 -0.7843
  517MOL0     C71264   5.552   3.340   9.596  0.7169 -0.8923 -0.1936
  517MOL0     C71265   5.428   3.301   9.546 -0.3577  1.2398  0.1856
  517MOL0     C71266   5.349   3.385   9.482 -0.9594 -1.1870  0.7604
  517MOL0     O71267   5.225   3.345   9.420  0.0994 -0.1848  0.6026
  517MOL0     C71268   5.189   3.207   9.417  0.7869  0.0218  0.8340
  517MOL0     C71269   5.055   3.172   9.350  0.2151 -0.2551  0.3890
  517MOL0     C71270   5.034   3.226   9.208 -1.0359 -0.6977  0.5924
  517MOL0     C71271   5.119   3.154   9.102 -1.0476 -0.1542 -0.2254
  517MOL0     C71272   5.268   3.194   9.107  0.6889 -0.1273  0.3604
  517MOL0     C71273   5.385   3.230   9.111  1.2042  0.7301  0.4126
  517MOL0     C71274   5.386   3.516   9.472 -0.8251 -0.0308 -0.3621
  517MOL0     C71275   5.508   3.565   9.516  0.3353  0.2655 -0.1310
  517MOL0     C71276   5.549   3.714   9.499  0.8131  0.4106 -0.2447
  517MOL0     H71277   5.797   3.666   9.889 -2.4684 -2.6160  0.9895
  517MOL0     H71278   6.030   3.740   9.970  3.4946  1.1869 -2.5056
  517MOL0     H71279   6.239   3.768  10.057 -0.1623 -2.7138  3.4116
  517MOL0     H71280   6.294   3.753   9.881  1.4471  4.0137  2.0509
  517MOL0     H71281   6.474   3.810  10.055  4.4363 -1.2278 -3.4427
  517MOL0     H71282   6.445   3.659  10.133 -1.3620  0.4281 -0.6921
  517MOL0     H71283   6.509   3.555   9.892 -2.5586  1.6182 -0.0527
  517MOL0     H71284   6.539   3.713   9.846  0.5234 -2.2231 -2.8415
  517MOL0     H71285   6.741   3.639   9.900  0.6741  0.1363  1.8001
  517MOL0     H71286   6.703   3.731  10.042  1.2188  0.5379 -1.5716
  517MOL0     H71287   6.663   3.435  10.035  2.3614 -2.2065  2.6013
  517MOL0     H71288   6.653   3.540  10.169 -1.7504 -2.0738  0.2413
  517MOL0     H71289   6.876   3.385  10.095  0.8591 -0.0995 -2.0234
  517MOL0     H71290   6.910   3.545  10.020 -0.2913  0.9080  0.6096
  517MOL0     H71291   6.886   3.500  10.313 -2.6423  1.8585 -0.7472
  517MOL0     H71292   6.898   3.660  10.230 -1.1498  0.9470  0.6734
  517MOL0     H71293   7.093   3.419  10.190  1.2817  2.1651 -2.8873
  517MOL0     H71294   7.124   3.587  10.147 -2.4164  1.9486 -0.2627
  517MOL0     H71295   7.022   3.391  10.491  1.2031  0.3461  2.4294
  517MOL0     H71296   7.231   3.528  10.759  3.3941  0.6957  0.9071
  517MOL0     H71297   7.348   3.414  10.695 -1.3008  0.8488  4.5322
  517MOL0     H71298   7.063   3.351  10.768  0.1728  0.6860  0.9272
  517MOL0     H71299   7.153   3.230  10.682  2.8992 -2.0909  1.4115
  517MOL0     H71300   7.339   3.271  10.865  0.1336  2.1763  0.2706
  517MOL0     H71301   7.213   3.360  10.951 -1.0931 -1.5557  3.5719
  517MOL0     H71302   7.223   3.119  11.030  0.5252  0.3751 -0.2031
  517MOL0     H71303   7.067   3.205  10.995 -0.6305  2.5143 -2.0347
  517MOL0     H71304   6.869   3.121  10.966 -0.6052  1.3957 -0.7944
  517MOL0     H71305   6.638   3.124  10.992 -0.5220 -0.1864  0.2908
  517MOL0     H71306   6.560   2.971  10.944  4.0370 -2.9914 -1.2455
  517MOL0     H71307   6.549   3.107  10.841  1.9797  1.9369 -0.6172
  517MOL0     H71308   6.473   2.799  10.472  1.2726 -1.3895  1.8140
  517MOL0     H71309   6.273   2.724  10.366 -0.1718 -2.6149  0.4434
  517MOL0     H71310   6.016   2.486  10.392  0.7482 -0.1640 -0.5433
  517MOL0     H71311   6.169   2.498  10.472  0.1326  3.6736 -0.6176
  517MOL0     H71312   6.028   2.337  10.579 -1.4775 -0.0187  1.1249
  517MOL0     H71313   6.057   2.465  10.696  2.8279 -0.5977 -0.9385
  517MOL0     H71314   5.818   2.341  10.697 -1.0626  1.6854  2.2329
  517MOL0     H71315   5.781   2.402  10.543 -0.1207  0.2178 -0.5381
  517MOL0     H71316   5.683   2.563  10.647  0.1462  0.3997 -0.7048
  517MOL0     H71317   5.842   2.637  10.641  1.7756 -0.4681 -0.4618
  517MOL0     H71318   5.738   2.479  10.872  0.6508  0.4492  0.3443
  517MOL0     H71319   5.897   2.557  10.872 -0.8934  1.7213  3.0419
  517MOL0     H71320   5.637   2.687  10.879 -0.0959 -1.2612  0.6413
  517MOL0     H71321   5.786   2.771  10.815  0.1689  1.0449  0.6806
  517MOL0     H71322   5.906   2.742  11.028 -0.0025  2.2896 -1.8491
  517MOL0     H71323   5.786   2.617  11.088  0.2374 -2.0795 -1.5944
  517MOL0     H71324   5.756   2.812  11.201 -2.8207 -4.2203  0.3889
  517MOL0     H71325   5.619   2.790  11.094  0.4432  0.9337 -0.6700
  517MOL0     H71326   6.082   2.740  10.755  1.5080  0.0721  1.6754
  517MOL0     H71327   6.258   2.848  10.834  1.5803 -0.2626  0.4723
  517MOL0     H71328   6.872   2.783  10.622 -0.7840 -0.6553  1.0803
  517MOL0     H71329   7.090   2.867  10.703  0.1132 -1.4774  2.3724
  517MOL0     H71330   6.186   3.361   9.846 -0.0100  1.1254 -0.1844
  517MOL0     H71331   5.974   3.300   9.747 -1.4238 -0.4709 -0.2194
  517MOL0     H71332   5.621   3.269   9.641  1.2369  1.1872  2.5916
  517MOL0     H71333   5.409   3.195   9.557 -0.3220  1.0882 -1.0790
  517MOL0     H71334   5.262   3.135   9.378 -0.4665 -0.7359 -0.2264
  517MOL0     H71335   5.180   3.181   9.523  2.6775  4.2413  2.2187
  517MOL0     H71336   4.975   3.218   9.408  0.5090  1.4318 -0.4779
  517MOL0     H71337   5.043   3.064   9.355 -1.5836 -0.1943 -1.1774
  517MOL0     H71338   4.932   3.202   9.178 -1.2014  2.0080 -1.4352
  517MOL0     H71339   5.042   3.335   9.209  1.1004 -0.8050  1.3060
  517MOL0     H71340   5.094   3.179   8.998 -1.5462  2.6566  0.4951
  517MOL0     H71341   5.120   3.047   9.125  1.0428  0.1753  1.6316
  517MOL0     H71342   5.486   3.265   9.122  1.2337  0.1729  2.0761
  517MOL0     H71343   5.310   3.576   9.425 -1.8802  0.0854  1.4144
  517MOL0     H71344   5.603   3.750   9.586  2.3332  1.7905 -1.7109
  517MOL0     H71345   5.617   3.736   9.417  4.4227 -0.1063  2.4042
  517MOL0     H71346   5.456   3.765   9.471 -0.8912 -2.7413 -0.8330
  518MOL0     O71347   4.118   9.747   6.288 -0.4307 -0.4086  0.0836
  518MOL0     C71348   4.054   9.721   6.183  0.7230 -0.9157  0.1310
  518MOL0     O71349   4.076   9.777   6.051 -0.4739 -0.5447 -0.0868
  518MOL0     C71350   4.160   9.887   6.031  0.4285  0.6097 -0.1365
  518MOL0     C71351   4.292   9.888   6.077 -0.1200 -0.8440 -0.3501
  518MOL0     C71352   4.378   9.996   6.034 -0.1757 -0.4793  0.1085
  518MOL0     C71353   4.331  10.106   5.962  0.4723 -0.3124 -0.5110
  518MOL0     O71354   4.407  10.220   5.936 -0.0758  0.1594  0.6031
  518MOL0     C71355   4.354  10.346   5.899 -0.2304 -0.1260 -0.2356
  518MOL0     C71356   4.466  10.456   5.893  1.4288 -0.0276 -0.3442
  518MOL0     C71357   4.418  10.601   5.865  0.1084  0.4752 -0.3136
  518MOL0     C71358   4.372  10.616   5.721 -1.2845  0.5107 -0.5665
  518MOL0     C71359   4.299  10.752   5.688 -0.3536 -0.1337  0.2507
  518MOL0     C71360   4.184  10.796   5.790  0.2521  0.7971  0.1323
  518MOL0     C71361   4.102  10.897   5.703 -0.0582 -0.5830 -0.1594
  518MOL0     C71362   4.019  10.988   5.795  0.2805 -0.4414  0.0585
  518MOL0     N71363   3.959  11.104   5.725  0.3459  1.0916  0.6899
  518MOL0     C71364   4.034  11.188   5.652  0.4096  0.1226  0.0142
  518MOL0     C71365   3.940  11.267   5.596  0.0276 -0.9072  0.4124
  518MOL0     C71366   3.954  11.387   5.508 -0.1982  0.3890  0.8070
  518MOL0     C71367   4.102  11.397   5.458 -0.7868  0.5720 -0.4804
  518MOL0     C71368   4.136  11.523   5.364  0.1073  0.8610 -1.0040
  518MOL0     C71369   4.285  11.539   5.339  0.9229 -0.2173  0.0207
  518MOL0     O71370   4.339  11.466   5.237 -0.3624 -0.6888  0.2705
  518MOL0     C71371   4.478  11.469   5.243  0.7792 -0.5665 -0.7660
  518MOL0     C71372   4.550  11.388   5.328 -0.8114  0.8110 -0.1650
  518MOL0     C71373   4.690  11.397   5.342  0.9487  0.2545  0.9220
  518MOL0     C71374   4.750  11.314   5.449 -0.7742 -0.7341  2.0329
  518MOL0     C71375   4.756  11.471   5.240 -0.4261 -0.1156  0.0714
  518MOL0     C71376   4.904  11.466   5.221 -0.5734 -0.1328  0.3810
  518MOL0     O71377   4.959  11.537   5.115  0.1286 -0.2322  0.3643
  518MOL0     C71378   5.099  11.522   5.091  0.3026 -0.5170 -1.2759
  518MOL0     C71379   5.143  11.490   4.965  0.6731  0.7105 -0.2998
  518MOL0     C71380   5.278  11.477   4.949 -0.5300  0.2751  0.1604
  518MOL0     C71381   5.377  11.515   5.044  0.4755  0.4809  0.3416
  518MOL0     O71382   5.514  11.514   5.024  0.5706 -0.6476 -0.4718
  518MOL0     C71383   5.570  11.420   4.927 -1.4229  0.3524  0.1042
  518MOL0     C71384   5.724  11.428   4.932  0.0152 -0.0927  0.2418
  518MOL0     C71385   5.793  11.317   4.847 -0.4780  0.0486 -0.3301
  518MOL0     C71386   5.948  11.305   4.867 -0.2680  0.1980  0.1892
  518MOL0     C71387   6.032  11.244   4.753 -0.6998  0.0583  0.4528
  518MOL0     C71388   5.970  11.114   4.708  0.5530 -0.8549 -0.6445
  518MOL0     C71389   5.984  10.996   4.797 -0.6355 -0.2938  0.5651
  518MOL0     C71390   5.891  10.882   4.759  0.4222 -0.1915 -0.6268
  518MOL0    Cl71391   5.944  10.812   4.602  0.2023  0.1663 -0.2823
  518MOL0     C71392   5.329  11.558   5.167 -1.3479  0.6031 -0.0257
  518MOL0     C71393   5.186  11.570   5.181 -1.0449 -0.5507 -0.0023
  518MOL0     O71394   4.969  11.401   5.304 -0.0570  0.0129 -0.1070
  518MOL0     C71395   4.676  11.538   5.145  0.6368  0.2261  0.1353
  518MOL0     C71396   4.542  11.544   5.153 -0.3845 -0.1177 -0.3297
  518MOL0     N71397   3.810  11.226   5.633  0.8692  0.1209 -0.4769
  518MOL0     N71398   3.820  11.120   5.702 -0.6136 -0.1374  0.6300
  518MOL0     C71399   4.200  10.099   5.908 -1.2937  1.3663 -0.2580
  518MOL0     C71400   4.117   9.992   5.947 -0.2178  0.6708 -0.2843
  518MOL0     C71401   3.946   9.615   6.178 -0.4620  0.4826 -0.0916
  518MOL0     C71402   3.897   9.579   6.051 -0.6003  0.0069  0.7912
  518MOL0     C71403   3.835   9.459   6.033 -0.4250 -0.7638  0.2124
  518MOL0     C71404   3.770   9.393   6.129 -0.9727  0.5939 -0.2215
  518MOL0     O71405   3.716   9.275   6.094 -0.3298  0.4871 -0.1107
  518MOL0     C71406   3.708   9.176   6.198  0.2025 -0.5214  0.8256
  518MOL0     C71407   3.706   9.044   6.116  0.7148 -0.1858  0.4122
  518MOL0     C71408   3.664   8.915   6.186  0.3109 -0.2887 -0.5629
  518MOL0     C71409   3.517   8.915   6.226 -0.5511  0.4920 -0.4197
  518MOL0     C71410   3.490   8.978   6.358  0.3837 -0.2934  0.0624
  518MOL0     C71411   3.469   9.035   6.468  0.3534  0.0353  0.6058
  518MOL0     C71412   3.792   9.431   6.259  1.1342 -0.5176  0.0699
  518MOL0     C71413   3.883   9.532   6.288  0.4680 -1.0607  0.0833
  518MOL0     C71414   3.905   9.561   6.430  0.8401 -0.1044 -0.2771
  518MOL0     H71415   4.337   9.801   6.122  0.5364 -0.6462 -0.6022
  518MOL0     H71416   4.482   9.975   6.058  0.3960 -0.1122 -1.8882
  518MOL0     H71417   4.285  10.370   5.981 -1.4863  0.1799 -1.3349
  518MOL0     H71418   4.299  10.333   5.805 -1.3203 -0.1311  0.3907
  518MOL0     H71419   4.524  10.450   5.985  0.9606 -2.6349 -0.1511
  518MOL0     H71420   4.525  10.421   5.808  1.0311 -0.1959 -0.5530
  518MOL0     H71421   4.338  10.632   5.934 -0.4512  0.3310 -0.8803
  518MOL0     H71422   4.501  10.667   5.890 -0.1646  0.5317  0.4989
  518MOL0     H71423   4.460  10.620   5.655  0.1906  0.3217  1.3088
  518MOL0     H71424   4.300  10.537   5.700 -1.7423  0.3962  1.2947
  518MOL0     H71425   4.249  10.730   5.593 -2.0510 -1.1708  1.3280
  518MOL0     H71426   4.375  10.830   5.683  1.8326 -2.0508  1.7804
  518MOL0     H71427   4.102  10.724   5.803 -0.2527  1.8597  4.1113
  518MOL0     H71428   4.209  10.825   5.893 -1.4810  1.1222  0.4966
  518MOL0     H71429   4.037  10.853   5.627  0.2756 -2.5221  0.6084
  518MOL0     H71430   4.166  10.954   5.635 -1.6865  0.3313 -0.9836
  518MOL0     H71431   3.951  10.917   5.841  2.4198 -1.0430  2.5401
  518MOL0     H71432   4.069  11.030   5.883 -1.9807  0.0379  1.1868
  518MOL0     H71433   4.141  11.189   5.635  0.4976  2.2903  0.4467
  518MOL0     H71434   3.934  11.486   5.550 -0.7980  0.5425  0.1797
  518MOL0     H71435   3.891  11.374   5.420  1.2885  0.0532 -0.2531
  518MOL0     H71436   4.169  11.394   5.545  1.2628  1.5180 -1.9490
  518MOL0     H71437   4.132  11.307   5.403  2.2202  2.4509 -2.1877
  518MOL0     H71438   4.079  11.503   5.273  0.4834  0.0240 -1.0613
  518MOL0     H71439   4.095  11.609   5.420  0.3244  0.8718 -0.8602
  518MOL0     H71440   4.294  11.644   5.310 -0.9303 -0.9090 -3.6924
  518MOL0     H71441   4.326  11.511   5.436 -4.5863 -3.6516  1.8467
  518MOL0     H71442   4.490  11.322   5.389  0.2694  0.0354  0.1023
  518MOL0     H71443   4.808  11.230   5.412 -1.3530 -0.3938  0.2846
  518MOL0     H71444   4.676  11.273   5.519 -0.2500 -1.0889  2.3898
  518MOL0     H71445   4.827  11.372   5.500 -0.6842 -0.7838  1.9522
  518MOL0     H71446   5.075  11.477   4.881  0.3826  1.8846 -0.2551
  518MOL0     H71447   5.307  11.451   4.847 -2.2870 -0.6677 -0.1295
  518MOL0     H71448   5.540  11.317   4.947 -0.2952 -0.5985 -2.5550
  518MOL0     H71449   5.527  11.455   4.833 -0.1804  1.7489  0.0231
  518MOL0     H71450   5.761  11.520   4.886  0.2322  1.8433  3.9537
  518MOL0     H71451   5.762  11.427   5.035 -1.2055  2.3232  0.8055
  518MOL0     H71452   5.771  11.335   4.741 -0.9845  0.7651 -0.1109
  518MOL0     H71453   5.740  11.227   4.879 -2.2824  0.7195 -1.3007
  518MOL0     H71454   5.954  11.229   4.946 -1.6527 -1.4017 -1.1546
  518MOL0     H71455   5.991  11.394   4.912 -0.0645  0.7331 -1.0475
  518MOL0     H71456   6.028  11.304   4.662 -0.8688 -0.0083  0.4163
  518MOL0     H71457   6.137  11.227   4.780 -0.6121  3.1282  2.5741
  518MOL0     H71458   6.011  11.087   4.610 -0.3943 -2.7434 -0.5799
  518MOL0     H71459   5.869  11.146   4.678  2.1977  1.7297 -4.1902
  518MOL0     H71460   5.954  11.030   4.897 -0.6793  2.0115 -0.1684
  518MOL0     H71461   6.086  10.959   4.797 -0.6593 -0.6359 -2.8774
  518MOL0     H71462   5.793  10.930   4.766  1.2153  1.2751  1.2631
  518MOL0     H71463   5.899  10.806   4.838 -1.2199 -1.5303 -1.6805
  518MOL0     H71464   5.383  11.590   5.256 -0.5660 -2.5098  0.7299
  518MOL0     H71465   5.136  11.604   5.272 -0.1084 -0.5483  0.5254
  518MOL0     H71466   4.719  11.594   5.063  2.3211  0.3936  1.0875
  518MOL0     H71467   4.481  11.600   5.083 -0.4351 -1.7074 -1.6038
  518MOL0     H71468   4.159  10.186   5.857  1.8612  2.4745 -1.1578
  518MOL0     H71469   4.012   9.998   5.922 -0.0687  3.1308 -0.5019
  518MOL0     H71470   3.930   9.625   5.958  1.1065 -1.9840  0.3621
  518MOL0     H71471   3.829   9.427   5.930 -0.3637  1.6987 -0.6104
  518MOL0     H71472   3.793   9.174   6.268  0.1646 -1.2083  0.8526
  518MOL0     H71473   3.614   9.194   6.252 -0.9521 -0.8767 -1.0013
  518MOL0     H71474   3.807   9.023   6.082 -0.2031 -2.8223 -0.9825
  518MOL0     H71475   3.648   9.063   6.025 -0.1126 -2.9298  0.2667
  518MOL0     H71476   3.687   8.824   6.130 -3.5418 -0.3756 -2.2962
  518MOL0     H71477   3.722   8.893   6.276 -1.5315  2.2760  1.4081
  518MOL0     H71478   3.469   8.816   6.228 -3.1077  1.6661 -0.4281
  518MOL0     H71479   3.465   8.965   6.144  1.6101  1.5688 -1.1959
  518MOL0     H71480   3.458   9.075   6.567  3.8379  0.1164  1.0734
  518MOL0     H71481   3.735   9.388   6.340 -1.2848  3.2094  0.6056
  518MOL0     H71482   3.922   9.667   6.451 -1.6544  0.5928 -1.3168
  518MOL0     H71483   3.810   9.537   6.480  1.0139  1.0516  0.6523
  518MOL0     H71484   3.975   9.492   6.478 -2.7490 -2.3538  2.2431
  519MOL0     O71485   2.470   8.417   4.402  0.0606 -0.2562 -0.7724
  519MOL0     C71486   2.424   8.510   4.474  0.0678  1.0505 -0.2036
  519MOL0     O71487   2.478   8.549   4.589 -1.3568  0.1593  0.1545
  519MOL0     C71488   2.615   8.530   4.598 -0.2253 -0.1937 -0.3733
  519MOL0     C71489   2.706   8.614   4.533 -0.2976 -0.5574 -0.3391
  519MOL0     C71490   2.848   8.597   4.538  0.0737  0.5273  0.9181
  519MOL0     C71491   2.903   8.488   4.605  1.0029  0.4161  0.9151
  519MOL0     O71492   3.038   8.467   4.612  0.2066 -0.2716 -0.3258
  519MOL0     C71493   3.088   8.426   4.740  0.2528 -0.4237  0.5259
  519MOL0     C71494   3.241   8.409   4.735 -0.7441 -0.3653 -0.2319
  519MOL0     C71495   3.316   8.531   4.677  0.7020  0.7204  0.0304
  519MOL0     C71496   3.469   8.478   4.679  0.2254 -0.3281 -0.6549
  519MOL0     C71497   3.562   8.594   4.660  0.7449  0.2696 -0.4559
  519MOL0     C71498   3.530   8.669   4.526  0.6048 -0.6217 -0.2314
  519MOL0     C71499   3.646   8.767   4.477  0.9704  0.6027 -0.0293
  519MOL0     C71500   3.751   8.687   4.393  0.3279  0.2970  0.0140
  519MOL0     N71501   3.895   8.742   4.386 -0.1239 -0.3506  0.1583
  519MOL0     C71502   3.988   8.735   4.287  0.3980  0.3834 -0.3458
  519MOL0     C71503   4.093   8.811   4.328 -0.4897  0.2380 -0.4603
  519MOL0     C71504   4.219   8.819   4.260 -0.9424  0.8928 -0.8945
  519MOL0     C71505   4.334   8.745   4.330 -0.0821 -0.2732  0.7816
  519MOL0     C71506   4.360   8.611   4.271  0.1757 -0.9065 -0.1913
  519MOL0     C71507   4.237   8.512   4.280 -1.1681  0.4144  0.5393
  519MOL0     O71508   4.138   8.518   4.177  1.2637  1.1768  0.6734
  519MOL0     C71509   4.038   8.426   4.194 -0.4294  0.1992  0.4866
  519MOL0     C71510   3.968   8.404   4.325  0.3337  0.1943 -0.2418
  519MOL0     C71511   3.848   8.324   4.323  0.0396  0.1665 -0.6767
  519MOL0     C71512   3.779   8.299   4.459  0.2210  0.1034 -0.4444
  519MOL0     C71513   3.797   8.278   4.204 -0.5343  0.5321 -0.6879
  519MOL0     C71514   3.660   8.225   4.187  0.5162 -0.3122 -0.8328
  519MOL0     O71515   3.614   8.139   4.280 -1.0138  0.2957  0.1036
  519MOL0     C71516   3.486   8.119   4.306 -0.1010 -1.6252 -0.6437
  519MOL0     C71517   3.455   7.993   4.350 -0.0777  0.3644 -0.4891
  519MOL0     C71518   3.330   7.956   4.409 -0.7848 -0.3088  0.4773
  519MOL0     C71519   3.234   8.055   4.419 -0.9068  0.6495  1.1705
  519MOL0     O71520   3.108   8.012   4.462 -0.0190  0.8902 -0.4035
  519MOL0     C71521   2.993   8.100   4.430 -0.3749 -0.2147 -0.6990
  519MOL0     C71522   2.850   8.054   4.463  0.2362  0.0894 -0.0649
  519MOL0     C71523   2.746   8.136   4.383 -0.7773 -0.6402  0.2628
  519MOL0     C71524   2.612   8.107   4.433  0.7720 -0.4082 -1.8054
  519MOL0     C71525   2.561   7.966   4.423  0.2143  1.0897  0.2647
  519MOL0     C71526   2.416   7.962   4.459  0.7408  0.3811 -0.1358
  519MOL0     C71527   2.375   7.814   4.463  0.9732  0.0259  0.4333
  519MOL0     C71528   2.378   7.736   4.331 -0.8539 -0.4558 -0.3025
  519MOL0    Cl71529   2.344   7.831   4.185 -0.4001 -0.4208 -0.1052
  519MOL0     C71530   3.272   8.185   4.380 -0.2099  0.0522 -0.5361
  519MOL0     C71531   3.396   8.223   4.327 -0.7703 -0.3407 -0.3830
  519MOL0     O71532   3.598   8.261   4.085  0.0662  0.1724 -0.1940
  519MOL0     C71533   3.873   8.292   4.089 -0.8500 -0.1281 -0.9616
  519MOL0     C71534   3.995   8.360   4.083 -0.7261  0.4391 -0.4537
  519MOL0     N71535   4.063   8.867   4.453  0.2849  0.4841 -1.0688
  519MOL0     N71536   3.946   8.820   4.481 -0.5016  0.3577  0.2601
  519MOL0     C71537   2.813   8.405   4.671  0.2436 -0.7884 -0.1978
  519MOL0     C71538   2.673   8.427   4.663 -0.0515 -0.0259  0.0540
  519MOL0     C71539   2.292   8.556   4.438  0.2539 -0.2042  0.0487
  519MOL0     C71540   2.271   8.693   4.458 -0.5178 -1.8661  0.5564
  519MOL0     C71541   2.147   8.753   4.429  0.0764  0.6878  0.2036
  519MOL0     C71542   2.036   8.683   4.375  0.0256  0.6426 -0.4529
  519MOL0     O71543   1.924   8.752   4.346 -0.8582 -0.3726  0.3592
  519MOL0     C71544   1.801   8.682   4.316 -0.1702  0.0199  0.2719
  519MOL0     C71545   1.682   8.772   4.336  0.3929  0.3720 -0.5070
  519MOL0     C71546   1.550   8.724   4.266  0.0137  0.3052 -0.8468
  519MOL0     C71547   1.481   8.814   4.167  0.5571  0.4986  0.3697
  519MOL0     C71548   1.350   8.762   4.150 -0.3405 -0.8940  0.4634
  519MOL0     C71549   1.248   8.696   4.139 -0.5017 -0.2858 -0.2704
  519MOL0     C71550   2.061   8.542   4.362  0.1822 -0.8124 -0.0459
  519MOL0     C71551   2.179   8.476   4.398  0.3893  0.6760  0.6062
  519MOL0     C71552   2.174   8.329   4.379  0.5576  0.1429  0.1518
  519MOL0     H71553   2.654   8.685   4.469  1.6968  0.2030 -1.1782
  519MOL0     H71554   2.919   8.662   4.489 -2.0306  1.6733 -0.8116
  519MOL0     H71555   3.050   8.329   4.774  3.1858 -1.6149  0.7172
  519MOL0     H71556   3.064   8.498   4.818  2.0805 -0.9288  1.6231
  519MOL0     H71557   3.283   8.390   4.834  1.6311 -1.6442 -1.4054
  519MOL0     H71558   3.269   8.321   4.677  0.9574  1.2752 -2.0574
  519MOL0     H71559   3.277   8.547   4.576 -0.3281 -1.0276  0.1129
  519MOL0     H71560   3.302   8.621   4.737 -2.0734  0.9968 -0.9029
  519MOL0     H71561   3.484   8.433   4.777 -0.3462 -0.7733 -0.7683
  519MOL0     H71562   3.484   8.406   4.598  2.2036  1.7207 -2.2533
  519MOL0     H71563   3.658   8.544   4.674  1.0942  0.5953 -1.5505
  519MOL0     H71564   3.538   8.668   4.737 -2.7568 -0.8925 -0.2413
  519MOL0     H71565   3.506   8.600   4.444 -1.0862 -0.5262  0.1667
  519MOL0     H71566   3.446   8.737   4.542  0.5163 -1.0871  1.3962
  519MOL0     H71567   3.694   8.810   4.566  0.4983  0.6395  0.2097
  519MOL0     H71568   3.603   8.851   4.422  1.3026  1.0739  0.4205
  519MOL0     H71569   3.744   8.586   4.436 -0.6132  0.7126  0.8793
  519MOL0     H71570   3.710   8.664   4.294 -0.4560 -1.1403  0.6406
  519MOL0     H71571   3.985   8.670   4.200  1.0280 -1.9335  1.2414
  519MOL0     H71572   4.255   8.923   4.266  1.9959  0.0004 -1.4602
  519MOL0     H71573   4.206   8.789   4.156  1.4073 -0.7992 -0.7865
  519MOL0     H71574   4.424   8.808   4.333  1.0928 -1.8311  4.6858
  519MOL0     H71575   4.308   8.720   4.434  1.2594 -2.3359  0.6730
  519MOL0     H71576   4.385   8.623   4.165 -3.2038  2.2509 -0.8518
  519MOL0     H71577   4.438   8.562   4.329 -0.0226  1.2220  2.0551
  519MOL0     H71578   4.285   8.414   4.269 -1.2386  0.6531 -5.2783
  519MOL0     H71579   4.197   8.515   4.381 -1.3788 -1.3466  0.5386
  519MOL0     H71580   4.013   8.444   4.415 -0.3126  0.5109 -0.0582
  519MOL0     H71581   3.778   8.195   4.493 -1.4486  0.2338  0.0143
  519MOL0     H71582   3.676   8.337   4.448  0.8485  1.4268 -2.4194
  519MOL0     H71583   3.815   8.367   4.537 -1.7379  0.7678 -0.0466
  519MOL0     H71584   3.517   7.910   4.315 -2.9305 -3.4718  2.6602
  519MOL0     H71585   3.308   7.851   4.426 -3.0245 -0.9474 -4.6078
  519MOL0     H71586   3.012   8.198   4.476 -0.4452  0.8308 -2.7871
  519MOL0     H71587   3.008   8.109   4.322 -1.6519  2.5392 -0.7586
  519MOL0     H71588   2.839   7.951   4.429 -0.5330  0.7491 -1.9330
  519MOL0     H71589   2.831   8.065   4.570 -2.0199  1.5597 -0.5576
  519MOL0     H71590   2.751   8.099   4.280 -2.6692 -4.4613  1.3492
  519MOL0     H71591   2.765   8.243   4.384  0.2800 -0.7623 -1.6398
  519MOL0     H71592   2.531   8.160   4.382 -3.4060 -2.3790  2.0703
  519MOL0     H71593   2.613   8.145   4.536 -2.9973 -1.1133 -1.3652
  519MOL0     H71594   2.575   7.933   4.319 -0.6086 -3.9742  1.5102
  519MOL0     H71595   2.610   7.898   4.493 -1.2575  0.1199  0.3745
  519MOL0     H71596   2.360   8.009   4.378 -0.3969 -0.5686  0.0915
  519MOL0     H71597   2.389   8.015   4.551  3.3348  4.0096 -1.2278
  519MOL0     H71598   2.268   7.815   4.488  0.4248  1.5519 -1.6485
  519MOL0     H71599   2.433   7.751   4.532  2.7076  0.3480 -0.6750
  519MOL0     H71600   2.300   7.660   4.329  0.8654 -2.2950 -2.6084
  519MOL0     H71601   2.474   7.684   4.331  1.1788  2.8304  2.9034
  519MOL0     H71602   3.220   8.272   4.419  1.6143 -0.4845  3.6419
  519MOL0     H71603   3.413   8.330   4.311 -3.3262  0.3919  1.2656
  519MOL0     H71604   3.847   8.271   3.986  2.8106  1.8052 -2.4630
  519MOL0     H71605   4.047   8.362   3.988  2.7971 -4.5128  0.9793
  519MOL0     H71606   2.835   8.315   4.727 -1.2214 -3.0457 -2.9884
  519MOL0     H71607   2.614   8.351   4.715  4.7261 -2.9848  1.7861
  519MOL0     H71608   2.345   8.754   4.510  1.8231 -4.7377  0.8734
  519MOL0     H71609   2.152   8.860   4.438 -0.0786  1.0454 -2.7762
  519MOL0     H71610   1.782   8.645   4.215 -2.0604 -1.7264  1.1981
  519MOL0     H71611   1.793   8.583   4.361 -1.7919 -0.8140 -1.7110
  519MOL0     H71612   1.715   8.874   4.311 -1.3771  0.4969 -2.6682
  519MOL0     H71613   1.668   8.777   4.444  0.8526 -2.7143 -0.2254
  519MOL0     H71614   1.561   8.627   4.217  1.4514  1.9573 -4.1730
  519MOL0     H71615   1.477   8.710   4.346  1.8330  3.1637  1.5356
  519MOL0     H71616   1.543   8.813   4.077  0.0338 -1.2057 -0.0076
  519MOL0     H71617   1.480   8.916   4.206  0.5507  0.4587  0.4737
  519MOL0     H71618   1.155   8.648   4.116 -1.3989  0.6962  1.1968
  519MOL0     H71619   1.977   8.485   4.322  0.4048  0.7940 -3.0756
  519MOL0     H71620   2.253   8.277   4.433  4.0068  1.8764 -2.7824
  519MOL0     H71621   2.080   8.276   4.397 -0.1225  1.4191  0.4604
  519MOL0     H71622   2.206   8.307   4.277 -0.1760  0.8638 -0.2462
  520MOL0     O71623   5.898   3.201  10.457 -0.6095 -0.8156  0.1042
  520MOL0     C71624   5.946   3.096  10.424  0.8328  0.2339  0.6094
  520MOL0     O71625   6.084   3.072  10.397  1.1189  0.2325  0.2913
  520MOL0     C71626   6.158   3.192  10.402 -0.2400  0.4993 -0.8987
  520MOL0     C71627   6.155   3.306  10.319 -0.4176 -0.2088 -0.2979
  520MOL0     C71628   6.235   3.425  10.350  0.3067  0.3802  0.9532
  520MOL0     C71629   6.290   3.428  10.479 -0.7700  0.1649 -0.7256
  520MOL0     O71630   6.340   3.541  10.539 -0.3715  0.2968 -0.4122
  520MOL0     C71631   6.272   3.664  10.506  0.0756 -0.6180 -0.5018
  520MOL0     C71632   6.327   3.773  10.599 -0.0431 -0.7035 -0.1629
  520MOL0     C71633   6.476   3.802  10.568  0.0019 -0.6071  0.5526
  520MOL0     C71634   6.529   3.942  10.618 -0.4087  0.0925  0.5210
  520MOL0     C71635   6.676   3.961  10.594 -1.0722 -0.6472  0.1339
  520MOL0     C71636   6.714   3.954  10.447 -0.8015 -0.4369  0.2868
  520MOL0     C71637   6.858   4.014  10.431 -0.0344 -0.3807  1.9727
  520MOL0     C71638   6.924   3.989  10.288 -0.5633  0.6544 -0.6095
  520MOL0     N71639   6.860   4.064  10.189  1.5140  1.0491 -0.1287
  520MOL0     C71640   6.900   4.185  10.141 -0.0327 -0.2702  0.3547
  520MOL0     C71641   6.817   4.204  10.035  0.4870 -0.4234 -0.2436
  520MOL0     C71642   6.821   4.316   9.945 -0.2244  0.8763 -0.4456
  520MOL0     C71643   6.943   4.287   9.849 -0.4027 -1.0896 -0.1033
  520MOL0     C71644   6.956   4.388   9.740  0.5429  0.1654 -0.7474
  520MOL0     C71645   7.062   4.495   9.764 -1.5616 -0.5684  0.6821
  520MOL0     O71646   7.056   4.550   9.891  0.7136 -0.4939  0.4016
  520MOL0     C71647   6.996   4.680   9.896 -0.3313 -0.3913 -0.6337
  520MOL0     C71648   7.038   4.778   9.989 -0.4026 -0.2569  0.4792
  520MOL0     C71649   7.009   4.914   9.992 -0.7042 -0.6311 -0.0676
  520MOL0     C71650   7.076   4.989  10.103  0.3648  0.1510  0.2552
  520MOL0     C71651   6.948   4.969   9.881  0.1486  0.3543 -0.5418
  520MOL0     C71652   6.946   5.116   9.864 -0.6633  0.2954 -0.6954
  520MOL0     O71653   7.058   5.187   9.885  0.9039 -0.3775  0.0757
  520MOL0     C71654   7.054   5.308   9.832 -0.7007  0.0332  0.0934
  520MOL0     C71655   7.054   5.324   9.701 -0.5940 -0.5725 -0.3054
  520MOL0     C71656   7.043   5.450   9.648 -0.3736 -0.1884 -0.1715
  520MOL0     C71657   7.050   5.569   9.726 -0.2021 -0.2481  0.1036
  520MOL0     O71658   7.044   5.702   9.666 -0.5408 -0.1470 -0.3300
  520MOL0     C71659   7.104   5.814   9.737 -0.3899  0.1096  0.6950
  520MOL0     C71660   7.256   5.813   9.754 -0.6194 -0.0676  0.3209
  520MOL0     C71661   7.315   5.828   9.611  0.0286  0.5541  0.2117
  520MOL0     C71662   7.465   5.844   9.608  1.3297 -0.6624  0.5654
  520MOL0     C71663   7.529   5.825   9.471 -0.6188  0.6528 -0.1773
  520MOL0     C71664   7.519   5.929   9.361  0.1869  0.5263  0.3913
  520MOL0     C71665   7.380   5.917   9.297 -0.6701 -0.0638  0.5737
  520MOL0     C71666   7.380   6.012   9.173  0.2771 -0.1220 -0.2141
  520MOL0    Cl71667   7.223   6.021   9.094 -0.5570  0.1135 -0.1192
  520MOL0     C71668   7.072   5.544   9.863 -0.5109 -0.4836  1.3950
  520MOL0     C71669   7.075   5.417   9.920  0.9873 -0.0557  0.0634
  520MOL0     O71670   6.835   5.164   9.829 -0.7806  0.2985 -0.2462
  520MOL0     C71671   6.885   4.879   9.794 -0.6646 -0.4492  0.1855
  520MOL0     C71672   6.908   4.740   9.801 -0.4713 -0.5354  0.5611
  520MOL0     N71673   6.730   4.096  10.020  0.7093  0.2278  1.1718
  520MOL0     N71674   6.751   4.016  10.117 -1.1229 -0.7097 -0.5118
  520MOL0     C71675   6.296   3.315  10.559 -0.1816  0.0434 -0.0579
  520MOL0     C71676   6.244   3.197  10.509 -0.2234 -0.7458 -0.7726
  520MOL0     C71677   5.852   2.972  10.409 -0.0234  0.0900 -0.6238
  520MOL0     C71678   5.887   2.887  10.306  0.2178 -0.0029  0.5155
  520MOL0     C71679   5.812   2.767  10.285  0.2632 -0.3733  0.1744
  520MOL0     C71680   5.702   2.751  10.360 -0.3098 -0.1150  0.7020
  520MOL0     O71681   5.644   2.631  10.331  0.1409 -0.2564  0.0821
  520MOL0     C71682   5.501   2.613  10.351 -0.2719 -1.2906 -0.0631
  520MOL0     C71683   5.449   2.491  10.278  0.0079 -0.6749 -0.5111
  520MOL0     C71684   5.408   2.493  10.123  0.1013 -0.7471  0.5689
  520MOL0     C71685   5.345   2.633  10.083 -1.3264 -0.2185 -0.7973
  520MOL0     C71686   5.322   2.644   9.935  0.7635 -0.3959  0.1241
  520MOL0     C71687   5.314   2.645   9.815  0.8048  0.4816 -0.9585
  520MOL0     C71688   5.667   2.833  10.466 -0.3666  0.3615  0.7377
  520MOL0     C71689   5.744   2.950  10.486  0.6377  0.1388  0.3907
  520MOL0     C71690   5.706   3.035  10.600  0.6854 -0.6823  0.4622
  520MOL0     H71691   6.100   3.297  10.227 -0.1487  0.9816 -0.5857
  520MOL0     H71692   6.246   3.502  10.275 -0.6381  1.0286  1.4678
  520MOL0     H71693   6.164   3.655  10.517  0.1538 -3.1878 -1.2106
  520MOL0     H71694   6.297   3.700  10.406  0.0047  0.6172 -0.0843
  520MOL0     H71695   6.268   3.862  10.576  1.2104  0.0973 -0.3732
  520MOL0     H71696   6.306   3.756  10.705 -2.2592  3.4058  0.2581
  520MOL0     H71697   6.539   3.717  10.595  3.6492  1.9519  0.8263
  520MOL0     H71698   6.481   3.801  10.459 -1.3289  0.7487  0.4506
  520MOL0     H71699   6.466   4.008  10.558  0.6968  0.3798 -0.3663
  520MOL0     H71700   6.508   3.944  10.725 -0.5987  0.8659  0.4695
  520MOL0     H71701   6.732   3.883  10.645 -0.0714 -0.0114  0.0358
  520MOL0     H71702   6.702   4.058  10.638  0.9623 -1.1412  0.0927
  520MOL0     H71703   6.692   3.858  10.400  2.0354 -1.2835  0.4847
  520MOL0     H71704   6.650   4.030  10.402 -3.1575 -1.2467  2.0338
  520MOL0     H71705   6.932   3.959  10.489  2.6183  1.5840  0.6666
  520MOL0     H71706   6.857   4.122  10.445 -2.5193  0.3025 -1.8975
  520MOL0     H71707   7.025   4.030  10.295 -1.5770  3.3153 -0.5584
  520MOL0     H71708   6.925   3.883  10.261  0.7812 -0.0042  1.7192
  520MOL0     H71709   6.975   4.258  10.171 -2.4778  2.7019 -0.2744
  520MOL0     H71710   6.838   4.409  10.001 -0.0118  0.6449 -0.1211
  520MOL0     H71711   6.727   4.328   9.891 -1.1477  3.1386  1.4889
  520MOL0     H71712   7.039   4.286   9.902  1.0089  0.6150 -2.4199
  520MOL0     H71713   6.933   4.193   9.793  2.3756  0.8895 -4.4758
  520MOL0     H71714   6.978   4.335   9.647 -2.9407 -3.2973  0.1593
  520MOL0     H71715   6.857   4.436   9.735 -0.3586 -1.3311  1.5740
  520MOL0     H71716   7.159   4.449   9.741 -1.4695 -1.4240  2.5957
  520MOL0     H71717   7.063   4.576   9.690 -2.5820 -1.8149 -0.7669
  520MOL0     H71718   7.102   4.734  10.064  0.9210  4.3414  2.3669
  520MOL0     H71719   7.035   5.086  10.132 -0.9287 -0.0478 -0.8062
  520MOL0     H71720   7.180   5.000  10.069  0.6675 -0.0981  1.0823
  520MOL0     H71721   7.085   4.930  10.194  3.5088  0.4060  0.2201
  520MOL0     H71722   7.063   5.242   9.631 -1.5979  1.5044 -3.0615
  520MOL0     H71723   7.039   5.456   9.540  1.7089  0.7357 -0.2525
  520MOL0     H71724   7.078   5.910   9.692  1.9804  1.0394  1.1912
  520MOL0     H71725   7.058   5.810   9.836  0.1745 -1.1045  0.9241
  520MOL0     H71726   7.300   5.891   9.817 -0.2188  0.4096 -0.5338
  520MOL0     H71727   7.278   5.714   9.795 -0.2846  0.4835  1.5323
  520MOL0     H71728   7.275   5.913   9.555 -1.8301 -0.2100  0.3164
  520MOL0     H71729   7.288   5.742   9.549  2.2142  1.0161 -1.5112
  520MOL0     H71730   7.496   5.768   9.681 -0.5423 -0.9224  1.1483
  520MOL0     H71731   7.500   5.939   9.650  1.1650 -0.3260 -0.0531
  520MOL0     H71732   7.636   5.819   9.489 -0.5982  2.1709  0.3499
  520MOL0     H71733   7.506   5.724   9.434 -0.8451  1.1687 -1.5055
  520MOL0     H71734   7.584   5.894   9.280 -1.9941 -2.5475 -0.1779
  520MOL0     H71735   7.544   6.030   9.394 -0.2329  0.9299 -0.4788
  520MOL0     H71736   7.312   5.960   9.371  0.5927 -1.7524  2.8689
  520MOL0     H71737   7.360   5.813   9.269  0.6314  0.7030 -3.9524
  520MOL0     H71738   7.448   5.964   9.101 -2.0916 -3.6885 -0.3251
  520MOL0     H71739   7.410   6.115   9.192  3.0768 -1.2119  2.2280
  520MOL0     H71740   7.079   5.635   9.922 -0.1611  0.8112 -0.5638
  520MOL0     H71741   7.085   5.406  10.028 -0.1469  1.3004  0.3561
  520MOL0     H71742   6.832   4.904   9.703 -2.0409 -3.7476 -0.0640
  520MOL0     H71743   6.873   4.686   9.713 -1.5067  2.2927 -0.8954
  520MOL0     H71744   6.333   3.311  10.661 -2.0034 -0.2871  0.6214
  520MOL0     H71745   6.244   3.106  10.568 -1.8035  0.9762  2.1211
  520MOL0     H71746   5.975   2.903  10.244  2.6411 -4.6346  2.2948
  520MOL0     H71747   5.836   2.693  10.210 -2.5381 -0.2046 -0.9948
  520MOL0     H71748   5.480   2.598  10.457  1.6218  3.0511  1.1346
  520MOL0     H71749   5.440   2.698  10.319  0.4202 -2.4510 -5.6215
  520MOL0     H71750   5.362   2.465  10.339  1.9312 -1.7756  1.9527
  520MOL0     H71751   5.506   2.399  10.288 -0.4719 -0.8787  0.4233
  520MOL0     H71752   5.494   2.474  10.058 -1.4387  0.6740 -2.0322
  520MOL0     H71753   5.338   2.417  10.088  0.9117  0.6137 -4.7889
  520MOL0     H71754   5.405   2.717  10.120 -1.0528  0.1998 -2.1402
  520MOL0     H71755   5.247   2.635  10.132 -1.2934 -3.0477 -0.4277
  520MOL0     H71756   5.304   2.651   9.708  2.8368  1.0808 -1.1621
  520MOL0     H71757   5.582   2.818  10.531 -1.4860 -2.4401 -1.1775
  520MOL0     H71758   5.793   3.072  10.654  2.3590 -2.5116 -0.8508
  520MOL0     H71759   5.640   3.118  10.574  2.9214  1.1758  0.4383
  520MOL0     H71760   5.652   2.971  10.671 -2.5120  0.5333 -0.6958
  521MOL0     O71761   7.750   1.432  11.613  0.4110  0.7828 -0.3828
  521MOL0     C71762   7.828   1.494  11.549 -0.4507 -0.6169 -0.2723
  521MOL0     O71763   7.958   1.466  11.545  0.2347  0.1964  0.6183
  521MOL0     C71764   8.004   1.360  11.620  0.0324 -0.0050  0.0687
  521MOL0     C71765   7.997   1.349  11.761 -0.2852  0.8638 -0.1512
  521MOL0     C71766   8.070   1.243  11.818 -0.3915 -1.2281 -0.3488
  521MOL0     C71767   8.126   1.136  11.752 -0.3103 -0.2515  0.5959
  521MOL0     O71768   8.185   1.034  11.813 -0.2162  0.0369 -0.3367
  521MOL0     C71769   8.182   1.001  11.950  0.2768  0.4125 -0.9439
  521MOL0     C71770   8.293   1.062  12.039  0.0872  1.1725  0.0876
  521MOL0     C71771   8.360   0.956  12.143  0.5717  0.8146 -0.9031
  521MOL0     C71772   8.259   0.902  12.254  0.4731  0.0646 -0.5923
  521MOL0     C71773   8.311   0.912  12.403 -0.8506 -0.1041 -0.3977
  521MOL0     C71774   8.317   1.046  12.467 -0.3630  0.2215 -1.0703
  521MOL0     C71775   8.173   1.102  12.504  0.5052 -0.4055 -0.2189
  521MOL0     C71776   8.180   1.233  12.575  0.7656 -0.6615  0.6575
  521MOL0     N71777   8.201   1.340  12.478  0.1616 -0.1314 -0.5172
  521MOL0     C71778   8.145   1.355  12.352  0.4656 -0.1571  0.3826
  521MOL0     C71779   8.213   1.460  12.296 -0.4514 -0.1328 -0.9764
  521MOL0     C71780   8.175   1.507  12.160 -0.2023  0.7913 -0.6135
  521MOL0     C71781   8.128   1.650  12.145 -0.4205  0.5256 -0.1377
  521MOL0     C71782   7.987   1.680  12.196  0.0263  0.1097 -0.0086
  521MOL0     C71783   7.971   1.835  12.205 -0.6135  0.8877  0.1246
  521MOL0     O71784   8.016   1.884  12.332 -0.0164  0.3588 -0.1136
  521MOL0     C71785   8.052   2.016  12.347  0.0226  0.0871  0.0480
  521MOL0     C71786   8.008   2.121  12.264 -0.0187  1.1566 -0.1961
  521MOL0     C71787   8.022   2.257  12.302  0.6921 -0.3301 -0.8915
  521MOL0     C71788   8.006   2.367  12.198 -0.2978  0.1774 -0.8571
  521MOL0     C71789   8.079   2.290  12.427 -0.2250 -0.6978 -0.3847
  521MOL0     C71790   8.110   2.428  12.469 -0.1949  0.3253 -0.2560
  521MOL0     O71791   8.216   2.429  12.553  0.3663  0.1884  0.0258
  521MOL0     C71792   8.242   2.545  12.621  0.1046 -0.1255  0.0047
  521MOL0     C71793   8.359   2.620  12.612 -0.3116 -0.0480 -0.1746
  521MOL0     C71794   8.409   2.721  12.700 -0.5844 -0.1779  0.0897
  521MOL0     C71795   8.328   2.751  12.803 -0.0663 -0.0780  0.1863
  521MOL0     O71796   8.374   2.831  12.899 -0.2881 -0.3446  0.3721
  521MOL0     C71797   8.511   2.807  12.934  0.3055  0.0292  0.3514
  521MOL0     C71798   8.520   2.842  13.082  0.2372  0.1356 -1.2797
  521MOL0     C71799   8.468   2.976  13.124  0.0552 -1.4553  0.7210
  521MOL0     C71800   8.539   3.026  13.251  0.5821 -0.6679  0.0351
  521MOL0     C71801   8.487   3.162  13.301  0.7558 -0.5735  0.6069
  521MOL0     C71802   8.491   3.173  13.452 -0.4408  0.8384  0.0283
  521MOL0     C71803   8.402   3.297  13.490 -0.6692  0.8913 -0.0996
  521MOL0     C71804   8.432   3.347  13.635  0.3191 -0.2669 -0.3734
  521MOL0    Cl71805   8.610   3.379  13.646  0.2570 -0.2126 -0.0433
  521MOL0     C71806   8.200   2.696  12.816  0.5392  0.4367 -0.2550
  521MOL0     C71807   8.157   2.594  12.722 -0.1119 -0.6726 -0.6709
  521MOL0     O71808   8.056   2.529  12.435  0.2045  1.3559  0.1644
  521MOL0     C71809   8.115   2.189  12.514  0.1621  0.4704 -0.5410
  521MOL0     C71810   8.107   2.052  12.471 -0.6424  0.3772 -0.2309
  521MOL0     N71811   8.299   1.518  12.398 -0.1223  0.3847 -0.6508
  521MOL0     N71812   8.288   1.445  12.502  0.4956 -0.5893 -0.1048
  521MOL0     C71813   8.127   1.145  11.616  1.1989 -0.1307  0.2094
  521MOL0     C71814   8.062   1.250  11.549 -0.3300  0.2722  0.1046
  521MOL0     C71815   7.780   1.616  11.472 -0.6314 -0.1856 -1.0334
  521MOL0     C71816   7.880   1.701  11.415  0.0062  0.4280 -0.4823
  521MOL0     C71817   7.842   1.808  11.329  0.2428 -0.2765 -0.1198
  521MOL0     C71818   7.708   1.839  11.305  0.2942 -0.3071 -0.1892
  521MOL0     O71819   7.668   1.954  11.230 -0.1556 -0.1030 -0.4835
  521MOL0     C71820   7.753   2.074  11.254  0.9050  0.9919  0.2225
  521MOL0     C71821   7.678   2.202  11.218 -0.0642  0.9173 -0.5311
  521MOL0     C71822   7.558   2.231  11.310  0.1712 -0.8340  0.4046
  521MOL0     C71823   7.571   2.235  11.461 -0.5350 -0.5832  0.0532
  521MOL0     C71824   7.690   2.315  11.495  0.0319  0.3414  0.5146
  521MOL0     C71825   7.788   2.387  11.523  0.0856  0.3407  0.7660
  521MOL0     C71826   7.613   1.758  11.369  0.8790 -0.2505  0.6813
  521MOL0     C71827   7.641   1.644  11.445 -0.3353 -0.9648 -0.5309
  521MOL0     C71828   7.533   1.552  11.481 -0.1081  0.1036 -0.1660
  521MOL0     H71829   7.956   1.422  11.831 -0.1372  0.9021 -0.1030
  521MOL0     H71830   8.057   1.223  11.923 -1.9948 -2.5124 -0.7541
  521MOL0     H71831   8.202   0.895  11.963  0.9426  0.4208 -1.8571
  521MOL0     H71832   8.082   1.032  11.984 -0.0793  0.1269 -1.6993
  521MOL0     H71833   8.384   1.081  11.980  1.0585 -0.2677  1.0718
  521MOL0     H71834   8.251   1.148  12.091 -1.1104  1.2989 -1.0370
  521MOL0     H71835   8.392   0.865  12.090  0.0641  1.4122 -2.2966
  521MOL0     H71836   8.439   1.010  12.195  0.5067 -1.7558  2.1449
  521MOL0     H71837   8.173   0.967  12.238  1.0528  0.3366 -2.9437
  521MOL0     H71838   8.229   0.801  12.225  1.1328 -0.1115 -0.6697
  521MOL0     H71839   8.408   0.863  12.412 -1.1258 -0.4322  1.0858
  521MOL0     H71840   8.247   0.848  12.464 -0.4047 -1.5000 -1.3468
  521MOL0     H71841   8.380   1.040  12.555  0.3905  3.1675 -1.2923
  521MOL0     H71842   8.373   1.120  12.409 -0.0491 -1.3657 -2.8867
  521MOL0     H71843   8.112   1.032  12.561  0.4669  0.4455  0.8119
  521MOL0     H71844   8.123   1.119  12.408  0.8703  2.0486 -0.0439
  521MOL0     H71845   8.086   1.260  12.624 -0.9442  1.9958 -3.4663
  521MOL0     H71846   8.258   1.228  12.652 -1.1574 -3.0484  2.5969
  521MOL0     H71847   8.066   1.312  12.290  1.1727  0.2947 -0.8723
  521MOL0     H71848   8.103   1.438  12.116  0.0214 -0.0150  0.2513
  521MOL0     H71849   8.263   1.504  12.095  0.0653 -3.6277 -0.3433
  521MOL0     H71850   8.194   1.722  12.194 -1.9169  1.3022  0.7970
  521MOL0     H71851   8.123   1.672  12.038 -1.3547 -0.2861 -0.2795
  521MOL0     H71852   7.915   1.635  12.126  1.2509 -1.7120 -0.1363
  521MOL0     H71853   7.976   1.631  12.293 -0.3088 -1.8878 -1.0108
  521MOL0     H71854   8.035   1.871  12.124  1.5453 -1.8104  0.4853
  521MOL0     H71855   7.865   1.860  12.192 -1.1373 -1.0502  0.3285
  521MOL0     H71856   7.970   2.090  12.167  0.2992  1.1810 -0.3274
  521MOL0     H71857   8.106   2.384  12.157 -0.1709 -1.6034 -1.3453
  521MOL0     H71858   7.961   2.463  12.225  0.5607 -0.1160  1.9307
  521MOL0     H71859   7.943   2.333  12.115  0.1778  2.5927 -2.2909
  521MOL0     H71860   8.427   2.589  12.533  0.0160 -0.9571  0.4451
  521MOL0     H71861   8.501   2.774  12.679 -0.7656  0.3132  0.5387
  521MOL0     H71862   8.539   2.702  12.941 -1.5739 -0.4864  0.7154
  521MOL0     H71863   8.581   2.857  12.867 -0.4499  1.0312  0.2809
  521MOL0     H71864   8.467   2.770  13.145  1.4349 -0.0423 -0.4398
  521MOL0     H71865   8.624   2.823  13.111  0.2147 -0.6106 -1.6461
  521MOL0     H71866   8.359   2.982  13.114  0.0518 -2.8669 -0.3450
  521MOL0     H71867   8.498   3.044  13.044 -1.6329  2.0847  2.8403
  521MOL0     H71868   8.648   3.035  13.240  0.8837 -1.2580  2.0370
  521MOL0     H71869   8.511   2.951  13.326 -0.5744 -0.0521  0.2341
  521MOL0     H71870   8.542   3.240  13.247  5.7896 -2.7234  2.0081
  521MOL0     H71871   8.380   3.168  13.281  0.2197 -2.8717  2.3555
  521MOL0     H71872   8.592   3.178  13.495 -0.4948 -3.5590  1.1738
  521MOL0     H71873   8.449   3.080  13.492  0.3946 -0.7291 -2.4957
  521MOL0     H71874   8.295   3.279  13.481 -0.3967 -3.6965  2.6506
  521MOL0     H71875   8.428   3.379  13.422  0.4745  1.3609  0.8716
  521MOL0     H71876   8.398   3.276  13.710 -1.9253  0.0616 -1.0263
  521MOL0     H71877   8.379   3.441  13.655  0.2965  0.1354 -2.1262
  521MOL0     H71878   8.137   2.724  12.900 -0.7199 -1.3262 -0.5492
  521MOL0     H71879   8.054   2.561  12.734 -2.1799  2.4255 -6.2165
  521MOL0     H71880   8.167   2.208  12.608  0.3341  0.2647 -0.5917
  521MOL0     H71881   8.161   1.974  12.524  1.7680  1.6395 -0.6955
  521MOL0     H71882   8.184   1.074  11.557 -0.4852  0.0408 -1.7119
  521MOL0     H71883   8.050   1.254  11.441  1.0341  0.8626 -0.0410
  521MOL0     H71884   7.985   1.693  11.441 -0.4096  1.2340  1.6375
  521MOL0     H71885   7.918   1.874  11.289 -0.6118  2.0616  1.8422
  521MOL0     H71886   7.795   2.077  11.355  2.8145 -0.2275 -0.4745
  521MOL0     H71887   7.847   2.071  11.197  2.3525  3.1700  2.2651
  521MOL0     H71888   7.648   2.183  11.115 -0.9447  0.2339 -0.1616
  521MOL0     H71889   7.745   2.289  11.214 -0.8375  1.6443  1.2248
  521MOL0     H71890   7.523   2.332  11.286  0.2746 -0.8266  0.2833
  521MOL0     H71891   7.483   2.153  11.294  1.0538 -2.2967  2.7661
  521MOL0     H71892   7.577   2.133  11.500  1.6007 -1.5330 -2.4589
  521MOL0     H71893   7.479   2.271  11.509 -1.7082 -1.5226 -1.4031
  521MOL0     H71894   7.874   2.431  11.571 -1.2533  0.9030  2.7770
  521MOL0     H71895   7.508   1.782  11.357  1.0353  0.0338 -0.2250
  521MOL0     H71896   7.436   1.571  11.435 -1.1074  1.6251  2.4015
  521MOL0     H71897   7.568   1.450  11.460 -0.1003 -0.6211  2.8651
  521MOL0     H71898   7.509   1.558  11.587  0.1027 -0.0832 -0.1066
  522MOL0     O71899   2.072   1.749   0.772 -0.2125  0.5545 -0.1201
  522MOL0     C71900   2.011   1.809   0.859  0.5954  0.3948 -0.6438
  522MOL0     O71901   2.065   1.907   0.942 -0.2565 -0.1894  0.8754
  522MOL0     C71902   2.197   1.923   0.944  0.0748 -0.2281  0.7541
  522MOL0     C71903   2.254   2.029   0.868 -0.1067 -1.3752  0.8076
  522MOL0     C71904   2.386   2.075   0.891  0.2344  0.2668 -0.6423
  522MOL0     C71905   2.464   2.013   0.992  0.4429  0.2528  0.6054
  522MOL0     O71906   2.596   2.051   1.015 -0.1997 -0.2800  1.0130
  522MOL0     C71907   2.695   1.962   0.967  0.6693 -0.0590  0.5834
  522MOL0     C71908   2.822   2.041   0.949 -0.4907 -0.2885  0.8383
  522MOL0     C71909   2.942   1.998   1.026  0.6966 -0.1433 -1.1045
  522MOL0     C71910   2.913   2.001   1.176 -0.5205 -0.1606  0.1301
  522MOL0     C71911   3.029   1.960   1.260  0.4561 -0.0995 -0.4806
  522MOL0     C71912   3.051   2.022   1.396 -0.6910 -0.1924 -0.5432
  522MOL0     C71913   2.932   2.003   1.488  0.3349  1.0302 -0.0303
  522MOL0     C71914   2.948   2.057   1.638  0.0792  0.7320  0.9356
  522MOL0     N71915   3.017   1.950   1.725  0.7526 -0.7751 -0.7786
  522MOL0     C71916   3.095   1.848   1.695 -0.5099 -0.6277 -0.8803
  522MOL0     C71917   3.135   1.792   1.813  0.0015 -0.0824 -0.7514
  522MOL0     C71918   3.224   1.681   1.847 -1.0199 -0.5843  0.4134
  522MOL0     C71919   3.361   1.717   1.915  0.7080 -0.1466 -0.0683
  522MOL0     C71920   3.419   1.600   2.013 -0.8195 -0.3483  0.1942
  522MOL0     C71921   3.477   1.486   1.935 -0.2533  1.0128  0.1283
  522MOL0     O71922   3.524   1.367   2.003  0.2131  0.0015  0.6879
  522MOL0     C71923   3.613   1.398   2.097 -0.0852  1.3814 -0.1505
  522MOL0     C71924   3.624   1.304   2.193 -0.5166  0.3737  0.5546
  522MOL0     C71925   3.710   1.317   2.304 -0.4071 -0.0701  0.2406
  522MOL0     C71926   3.683   1.204   2.402 -0.4686 -0.5609  0.0006
  522MOL0     C71927   3.794   1.429   2.316 -0.8191 -0.4111 -0.3364
  522MOL0     C71928   3.881   1.451   2.432  0.9360  0.8088 -0.3269
  522MOL0     O71929   3.821   1.425   2.556  0.1099  0.7574 -0.2569
  522MOL0     C71930   3.902   1.439   2.664 -0.4997 -0.6943 -0.5873
  522MOL0     C71931   3.941   1.321   2.735 -0.6097 -0.8034 -1.2593
  522MOL0     C71932   4.036   1.325   2.834  0.5579 -0.0949 -0.0677
  522MOL0     C71933   4.080   1.449   2.887  0.4356  0.9366  0.4445
  522MOL0     O71934   4.147   1.471   3.004  0.2565 -0.1519 -0.0759
  522MOL0     C71935   4.173   1.360   3.090 -0.0483  0.2505 -0.9009
  522MOL0     C71936   4.161   1.394   3.240  0.2723  0.1283  0.8700
  522MOL0     C71937   4.189   1.264   3.320  0.1826 -0.4116  0.3338
  522MOL0     C71938   4.195   1.277   3.478  0.0273 -0.6278  0.8300
  522MOL0     C71939   4.303   1.377   3.530  1.3904 -0.3157 -0.3832
  522MOL0     C71940   4.307   1.386   3.682 -0.1622  0.3081 -0.0909
  522MOL0     C71941   4.397   1.505   3.722  0.2092 -0.8570  0.0011
  522MOL0     C71942   4.366   1.635   3.665 -0.3828 -0.5757  0.1900
  522MOL0    Cl71943   4.464   1.678   3.514 -0.1372 -0.3618  0.0532
  522MOL0     C71944   4.030   1.569   2.821  0.6626  0.4648 -0.3148
  522MOL0     C71945   3.948   1.567   2.712 -0.5006 -0.5205  1.0211
  522MOL0     O71946   3.994   1.487   2.408  0.7808  0.0273 -0.5103
  522MOL0     C71947   3.796   1.524   2.207 -0.6647 -0.4066 -0.3325
  522MOL0     C71948   3.715   1.503   2.093  1.2311 -0.8487  0.3549
  522MOL0     N71949   3.082   1.869   1.914  0.0661  1.0441  0.9964
  522MOL0     N71950   3.007   1.965   1.865 -0.1954  0.1656 -0.2879
  522MOL0     C71951   2.413   1.904   1.057  0.1997  0.4418  1.0921
  522MOL0     C71952   2.279   1.863   1.042  0.5889 -0.9870 -0.5804
  522MOL0     C71953   1.882   1.752   0.916 -0.2104 -0.1991 -0.2944
  522MOL0     C71954   1.820   1.817   1.019  0.3293 -0.0028  0.3666
  522MOL0     C71955   1.705   1.768   1.087 -0.0085  0.2317  0.2119
  522MOL0     C71956   1.653   1.645   1.045 -1.0917 -0.0142  0.5340
  522MOL0     O71957   1.555   1.567   1.113  0.3353 -0.6971 -0.2899
  522MOL0     C71958   1.485   1.624   1.226  1.0654 -0.4565 -0.4701
  522MOL0     C71959   1.382   1.525   1.276  0.1075 -0.9311  0.2680
  522MOL0     C71960   1.441   1.385   1.306 -0.3779 -0.2577 -1.1716
  522MOL0     C71961   1.349   1.268   1.346  0.7952  1.0600  1.4888
  522MOL0     C71962   1.276   1.210   1.230  0.4101 -0.1762  0.3017
  522MOL0     C71963   1.214   1.148   1.140 -0.4740  0.3895  0.1749
  522MOL0     C71964   1.713   1.577   0.943 -0.2904 -0.1027 -0.9355
  522MOL0     C71965   1.817   1.634   0.878  0.7318  0.2512 -0.1940
  522MOL0     C71966   1.840   1.561   0.747 -0.3672  0.1485 -0.5590
  522MOL0     H71967   2.182   2.080   0.805  1.4143  0.4841  0.4408
  522MOL0     H71968   2.417   2.168   0.844  0.4520  0.2778 -0.4808
  522MOL0     H71969   2.683   1.900   0.878  2.6806 -0.7082  0.7200
  522MOL0     H71970   2.700   1.878   1.038  0.4435 -0.1566  0.4864
  522MOL0     H71971   2.846   2.024   0.844  0.4499  1.0292  0.8228
  522MOL0     H71972   2.815   2.148   0.968 -2.2459  0.2978 -2.3954
  522MOL0     H71973   2.966   1.900   0.983 -0.8969 -1.0270 -0.0750
  522MOL0     H71974   3.024   2.069   1.013  1.1881 -1.0459 -3.2937
  522MOL0     H71975   2.889   2.106   1.197  0.4232 -0.4323  3.0485
  522MOL0     H71976   2.827   1.937   1.200  0.1328 -1.4451 -0.8109
  522MOL0     H71977   3.123   1.977   1.207  0.4372  0.3038 -0.3875
  522MOL0     H71978   3.022   1.852   1.276  1.2594 -0.0306  0.4403
  522MOL0     H71979   3.142   1.978   1.438 -1.2890  0.9321  2.1339
  522MOL0     H71980   3.071   2.127   1.371 -2.8430  0.8919  1.8266
  522MOL0     H71981   2.903   1.898   1.487 -2.0638  1.6221 -0.1884
  522MOL0     H71982   2.847   2.052   1.438  0.4403  0.7886 -0.4481
  522MOL0     H71983   3.002   2.152   1.631 -0.5675  1.0234 -0.7735
  522MOL0     H71984   2.857   2.088   1.689  0.3271  0.6407  1.4370
  522MOL0     H71985   3.116   1.803   1.598  1.2349 -2.4384  0.2592
  522MOL0     H71986   3.223   1.603   1.771 -2.4462 -3.5102  3.1704
  522MOL0     H71987   3.174   1.634   1.932 -0.2976 -2.1975 -0.0144
  522MOL0     H71988   3.438   1.743   1.842  1.9645  1.2091  1.6297
  522MOL0     H71989   3.353   1.804   1.981 -2.2443 -0.8063  0.5776
  522MOL0     H71990   3.488   1.653   2.080 -1.4047 -0.0213  0.5456
  522MOL0     H71991   3.336   1.564   2.074 -0.0523  0.0209  1.5060
  522MOL0     H71992   3.396   1.461   1.866 -1.2601 -0.4598  1.7647
  522MOL0     H71993   3.552   1.539   1.876 -2.3622  2.3335 -1.5434
  522MOL0     H71994   3.579   1.206   2.183  2.2826 -0.9275 -0.2160
  522MOL0     H71995   3.689   1.111   2.345  1.6911 -1.0107  0.8604
  522MOL0     H71996   3.590   1.234   2.451 -1.2236 -1.5031 -0.8260
  522MOL0     H71997   3.768   1.199   2.472  2.0380  1.8518 -2.6217
  522MOL0     H71998   3.901   1.223   2.710  4.2682 -4.3717  2.8012
  522MOL0     H71999   4.073   1.239   2.889  3.4559  1.8197  1.2213
  522MOL0     H72000   4.107   1.273   3.083  0.5566 -0.2910 -0.0823
  522MOL0     H72001   4.275   1.329   3.068 -1.2119 -1.1758 -5.2082
  522MOL0     H72002   4.235   1.470   3.268  1.2248  0.3812 -1.9613
  522MOL0     H72003   4.056   1.423   3.254  0.8878  2.5416  1.0000
  522MOL0     H72004   4.280   1.211   3.292  1.1537  1.7699 -0.8814
  522MOL0     H72005   4.100   1.205   3.299 -1.9655  2.4875  0.5893
  522MOL0     H72006   4.216   1.178   3.519  0.7307 -1.0963 -0.5809
  522MOL0     H72007   4.098   1.299   3.523  0.6558 -4.4639  4.7208
  522MOL0     H72008   4.398   1.354   3.481  1.5512  3.8487 -2.4471
  522MOL0     H72009   4.274   1.477   3.498  0.2929 -0.5920 -0.3099
  522MOL0     H72010   4.332   1.287   3.720 -0.9034 -0.6954 -2.0998
  522MOL0     H72011   4.205   1.409   3.715 -0.3570  0.8491 -1.0262
  522MOL0     H72012   4.500   1.485   3.694  0.0472 -0.4594 -0.9134
  522MOL0     H72013   4.398   1.528   3.829 -1.8170 -1.9235  0.3103
  522MOL0     H72014   4.406   1.700   3.743  3.0057 -2.5408  0.2892
  522MOL0     H72015   4.259   1.647   3.648 -0.1744  0.5394 -0.4654
  522MOL0     H72016   4.073   1.663   2.853 -1.6607  0.9322  1.7660
  522MOL0     H72017   3.932   1.649   2.644 -0.8850 -1.4014  0.0198
  522MOL0     H72018   3.850   1.617   2.222  0.1816 -1.3977  4.0661
  522MOL0     H72019   3.721   1.572   2.010  0.7442 -0.0455  0.9637
  522MOL0     H72020   2.479   1.844   1.119  1.7680 -0.3956 -1.2463
  522MOL0     H72021   2.233   1.784   1.100 -1.5664  0.3302 -0.3848
  522MOL0     H72022   1.886   1.892   1.059  0.2892 -0.0260  0.4759
  522MOL0     H72023   1.654   1.814   1.171 -0.7456  0.2660 -0.2438
  522MOL0     H72024   1.544   1.656   1.312 -2.0266  0.6034  1.3885
  522MOL0     H72025   1.435   1.717   1.201  1.6968  0.5649  1.8193
  522MOL0     H72026   1.305   1.525   1.198 -0.1560  1.7006  0.4396
  522MOL0     H72027   1.326   1.564   1.361 -0.8315 -0.9983 -0.3075
  522MOL0     H72028   1.506   1.363   1.221 -0.1542 -0.2469 -1.0042
  522MOL0     H72029   1.502   1.397   1.396 -4.1072  3.4073  1.2669
  522MOL0     H72030   1.278   1.304   1.420 -0.4363  2.6628 -0.3761
  522MOL0     H72031   1.399   1.177   1.382  1.6304  0.5886 -0.7204
  522MOL0     H72032   1.191   1.083   1.058 -0.4498  1.8493 -1.0279
  522MOL0     H72033   1.665   1.485   0.911 -0.2492 -0.8662  1.0415
  522MOL0     H72034   1.840   1.637   0.667 -1.1204  2.6293  1.6452
  522MOL0     H72035   1.928   1.497   0.758 -0.5069  0.0110 -0.2262
  522MOL0     H72036   1.768   1.481   0.731  1.0412 -1.6891  1.7117
  523MOL0     O72037   0.487   9.438   9.247  0.9169  0.2497  0.1604
  523MOL0     C72038   0.503   9.321   9.273  1.9572  0.4098 -0.7370
  523MOL0     O72039   0.420   9.219   9.240  0.5604  0.3417  0.7314
  523MOL0     C72040   0.289   9.237   9.204  0.3120  0.1772  0.4056
  523MOL0     C72041   0.198   9.141   9.246 -0.2408 -0.1317 -0.1967
  523MOL0     C72042   0.063   9.152   9.212 -0.5024  0.6983 -0.7094
  523MOL0     C72043   0.020   9.252   9.126  0.2026 -0.1281  0.4242
  523MOL0     O72044  -0.109   9.275   9.085 -0.0476 -0.5719 -0.0020
  523MOL0     C72045  -0.207   9.168   9.102  0.2881 -0.0623 -1.0609
  523MOL0     C72046  -0.326   9.216   9.035 -0.3871  0.2974  0.2267
  523MOL0     C72047  -0.378   9.349   9.088  0.5101  0.1909 -0.3748
  523MOL0     C72048  -0.492   9.398   9.001  0.0278 -0.5960  0.2533
  523MOL0     C72049  -0.596   9.500   9.061 -0.6496 -0.2831  0.4706
  523MOL0     C72050  -0.535   9.623   9.117  0.1142  0.1448 -0.7761
  523MOL0     C72051  -0.636   9.734   9.142 -0.6006  0.0027  0.3270
  523MOL0     C72052  -0.579   9.873   9.188 -0.2342 -0.4725 -0.5878
  523MOL0     N72053  -0.537   9.941   9.068  0.0554  0.0165  0.4517
  523MOL0     C72054  -0.412   9.924   8.997  0.1640  0.3583  0.3863
  523MOL0     C72055  -0.427  10.006   8.886 -0.2896  0.5102 -0.4074
  523MOL0     C72056  -0.344  10.019   8.767  0.4490  0.1652  0.4669
  523MOL0     C72057  -0.211  10.092   8.771 -0.9093 -0.4471  0.3018
  523MOL0     C72058  -0.236  10.241   8.745 -0.8259  0.3340  0.5622
  523MOL0     C72059  -0.112  10.325   8.732  0.0727 -0.8575  0.4463
  523MOL0     O72060  -0.061  10.334   8.862 -0.9641  0.2636 -0.8543
  523MOL0     C72061   0.014  10.442   8.905 -0.0221 -0.0569  0.7827
  523MOL0     C72062   0.064  10.545   8.823 -0.2029 -0.0674 -0.0142
  523MOL0     C72063   0.147  10.655   8.870  0.2094  0.2964  0.2461
  523MOL0     C72064   0.214  10.760   8.778 -0.6621  0.2992  0.1043
  523MOL0     C72065   0.162  10.660   9.009 -0.1170  0.3553 -0.8756
  523MOL0     C72066   0.250  10.765   9.063 -1.0893  0.2253  0.0549
  523MOL0     O72067   0.189  10.846   9.148  0.2665  0.4268 -0.0687
  523MOL0     C72068   0.246  10.954   9.209 -0.1149 -0.2276  0.4107
  523MOL0     C72069   0.167  11.071   9.224  0.1337 -0.0456  0.2366
  523MOL0     C72070   0.206  11.164   9.319  0.6243  0.4049 -0.9008
  523MOL0     C72071   0.323  11.154   9.393 -0.3697 -0.0177 -1.0069
  523MOL0     O72072   0.369  11.260   9.476 -0.2095 -0.0050  0.2898
  523MOL0     C72073   0.340  11.394   9.429 -0.5217 -1.0974  0.3402
  523MOL0     C72074   0.465  11.468   9.458  0.1726 -0.1621 -0.4801
  523MOL0     C72075   0.488  11.479   9.613  0.7898  0.1191 -0.1609
  523MOL0     C72076   0.593  11.579   9.652  0.4385 -0.8995 -1.0027
  523MOL0     C72077   0.603  11.591   9.799 -0.5392 -0.5464  0.5432
  523MOL0     C72078   0.699  11.706   9.841  0.3686 -0.3947 -0.2957
  523MOL0     C72079   0.686  11.731   9.992  0.1418  0.4899  0.0311
  523MOL0     C72080   0.812  11.810  10.031 -0.2755  0.2358  1.0511
  523MOL0    Cl72081   0.928  11.728  10.161  0.8566  0.0878  0.1275
  523MOL0     C72082   0.407  11.044   9.365 -0.0200 -0.0838 -0.4032
  523MOL0     C72083   0.364  10.944   9.281 -0.7640  0.1431  0.1992
  523MOL0     O72084   0.369  10.760   9.038 -0.1034  0.1765  0.2611
  523MOL0     C72085   0.129  10.546   9.093  1.0057 -1.2647  0.3482
  523MOL0     C72086   0.056  10.438   9.035 -0.1046 -0.3786  0.2361
  523MOL0     N72087  -0.546  10.072   8.891 -0.6055  0.3134 -0.7940
  523MOL0     N72088  -0.618  10.027   8.999 -0.9789  0.0505  0.7071
  523MOL0     C72089   0.112   9.343   9.072 -0.0282 -0.3982 -0.7262
  523MOL0     C72090   0.248   9.346   9.112  0.4400 -0.0839  0.0620
  523MOL0     C72091   0.633   9.298   9.343  1.6291  0.6974 -0.3128
  523MOL0     C72092   0.637   9.162   9.383  0.4037  0.2146  1.1824
  523MOL0     C72093   0.746   9.115   9.450  0.2341 -0.6086 -0.6016
  523MOL0     C72094   0.847   9.201   9.494  0.7200 -0.4193 -0.5974
  523MOL0     O72095   0.951   9.140   9.562 -0.3429  0.4480  0.0969
  523MOL0     C72096   1.050   9.206   9.644  0.6392  0.2257  0.3309
  523MOL0     C72097   1.171   9.260   9.575 -0.0584 -1.3459 -0.2512
  523MOL0     C72098   1.286   9.168   9.564 -1.4081  0.3722 -0.3084
  523MOL0     C72099   1.257   9.056   9.464  0.5723  0.4672 -0.0527
  523MOL0     C72100   1.381   9.000   9.407  0.3163 -0.5804 -1.1372
  523MOL0     C72101   1.482   8.968   9.359  0.4755  0.5170 -0.4007
  523MOL0     C72102   0.847   9.335   9.446  0.1433 -0.2771  0.5825
  523MOL0     C72103   0.744   9.382   9.366 -0.9446  0.4586  0.6348
  523MOL0     C72104   0.753   9.526   9.332  0.8692  0.3250  0.2834
  523MOL0     H72105   0.246   9.064   9.306  1.2060  0.1601 -0.9290
  523MOL0     H72106  -0.007   9.077   9.247  1.5215 -0.2192  1.7218
  523MOL0     H72107  -0.233   9.146   9.206 -3.0185  0.6100 -1.6404
  523MOL0     H72108  -0.185   9.075   9.049  0.1010 -0.9832  0.4237
  523MOL0     H72109  -0.294   9.243   8.934  3.1932 -0.1565  1.1061
  523MOL0     H72110  -0.406   9.142   9.032  0.5658 -0.8431  1.4501
  523MOL0     H72111  -0.419   9.332   9.187  1.5245  0.6819  0.1423
  523MOL0     H72112  -0.303   9.428   9.101 -0.1771  0.9367 -0.8256
  523MOL0     H72113  -0.464   9.424   8.898 -0.7131 -0.5126  0.0625
  523MOL0     H72114  -0.563   9.319   8.973 -0.2108  0.0203 -0.9828
  523MOL0     H72115  -0.643   9.437   9.137 -0.3938  1.3497  2.0456
  523MOL0     H72116  -0.671   9.531   8.987  0.9699 -0.7921 -1.4739
  523MOL0     H72117  -0.495   9.604   9.217 -1.1760  2.1871  0.2038
  523MOL0     H72118  -0.453   9.660   9.055  2.4703  0.8408  2.4804
  523MOL0     H72119  -0.707   9.714   9.224 -0.4955  1.4896  0.8068
  523MOL0     H72120  -0.704   9.759   9.060 -0.7489 -1.9215 -0.1835
  523MOL0     H72121  -0.658   9.924   9.245  1.7397  1.2683  0.7243
  523MOL0     H72122  -0.506   9.860   9.268 -1.7990 -2.6885  0.5946
  523MOL0     H72123  -0.335   9.848   8.997  0.5115  0.7104  0.5948
  523MOL0     H72124  -0.409  10.067   8.693 -0.0096 -2.7540 -1.1810
  523MOL0     H72125  -0.316   9.919   8.732  0.8908  1.2284 -2.4816
  523MOL0     H72126  -0.161  10.086   8.869  0.7624  1.9583 -0.3292
  523MOL0     H72127  -0.151  10.054   8.688 -1.6780  2.2849 -1.6134
  523MOL0     H72128  -0.280  10.239   8.645 -2.3847  1.5651  1.1782
  523MOL0     H72129  -0.303  10.285   8.820 -1.4067 -1.8550  1.4102
  523MOL0     H72130  -0.041  10.277   8.664 -0.5734 -0.3870 -0.5947
  523MOL0     H72131  -0.133  10.421   8.685  0.3587 -1.4327 -0.8974
  523MOL0     H72132   0.041  10.567   8.719  0.3614  1.0394  0.0734
  523MOL0     H72133   0.207  10.715   8.678  2.6087  0.0119 -0.1032
  523MOL0     H72134   0.318  10.786   8.802 -0.9561  2.1790 -0.4677
  523MOL0     H72135   0.159  10.855   8.778  1.5019  1.6336  0.9408
  523MOL0     H72136   0.064  11.069   9.190 -0.2922 -2.3900  1.4943
  523MOL0     H72137   0.141  11.249   9.335  1.4198  0.4694  3.2789
  523MOL0     H72138   0.318  11.386   9.323 -0.9482 -0.4667  0.3681
  523MOL0     H72139   0.250  11.441   9.472 -1.7388 -0.5453 -2.6091
  523MOL0     H72140   0.550  11.418   9.412 -1.2325 -0.4093 -3.0169
  523MOL0     H72141   0.454  11.573   9.428  2.1614  0.0365 -0.6195
  523MOL0     H72142   0.525  11.393   9.670  1.2410 -0.2446 -0.9847
  523MOL0     H72143   0.390  11.514   9.646  1.1413  1.3255 -0.3778
  523MOL0     H72144   0.566  11.678   9.616  0.5784  0.0409  1.3168
  523MOL0     H72145   0.692  11.553   9.615  1.1660  3.6026 -2.8372
  523MOL0     H72146   0.502  11.604   9.838 -1.5628  0.3400 -2.1416
  523MOL0     H72147   0.631  11.492   9.836  1.6870 -0.7011 -1.3085
  523MOL0     H72148   0.649  11.795   9.801 -0.1736 -1.1581 -1.3914
  523MOL0     H72149   0.800  11.703   9.799  0.7572 -0.3090  0.6133
  523MOL0     H72150   0.684  11.637  10.046  0.1466 -0.6238 -1.8290
  523MOL0     H72151   0.597  11.791  10.015  0.1954 -0.3415  2.6972
  523MOL0     H72152   0.771  11.901  10.077  1.5191  1.3643  0.5386
  523MOL0     H72153   0.863  11.841   9.940 -0.1967  1.7750  1.5844
  523MOL0     H72154   0.493  11.023   9.428 -1.5076 -1.3046  1.3430
  523MOL0     H72155   0.418  10.850   9.279 -0.7385  0.1537 -1.6872
  523MOL0     H72156   0.149  10.548   9.199 -0.8523 -1.5360  0.7329
  523MOL0     H72157   0.037  10.343   9.086 -1.2765 -0.1371  0.2556
  523MOL0     H72158   0.082   9.414   8.996  0.0147 -0.5693 -0.9047
  523MOL0     H72159   0.322   9.402   9.056  0.2686 -0.0324 -0.1141
  523MOL0     H72160   0.551   9.098   9.368 -1.3724  2.4513  1.3232
  523MOL0     H72161   0.744   9.012   9.485 -0.2197  0.0779  1.5647
  523MOL0     H72162   1.011   9.281   9.713 -0.4561 -2.5333  2.9454
  523MOL0     H72163   1.093   9.124   9.703 -3.4765 -1.3561  1.4559
  523MOL0     H72164   1.206   9.341   9.641 -2.0003 -2.6500  2.5762
  523MOL0     H72165   1.152   9.308   9.478 -0.7027  2.3824  1.5097
  523MOL0     H72166   1.379   9.217   9.533 -0.5648  0.6394  2.3694
  523MOL0     H72167   1.320   9.137   9.663 -2.7537  0.3171  0.1463
  523MOL0     H72168   1.201   9.097   9.379  2.6327  0.4319 -1.5089
  523MOL0     H72169   1.201   8.970   9.501 -1.3707  0.3838 -2.8815
  523MOL0     H72170   1.573   8.933   9.316 -0.0578 -0.4624 -0.7624
  523MOL0     H72171   0.923   9.411   9.453 -3.5272  3.7653  1.0711
  523MOL0     H72172   0.745   9.538   9.223 -1.8092 -0.6312  0.2919
  523MOL0     H72173   0.668   9.580   9.376  1.1189  1.5324 -0.6623
  523MOL0     H72174   0.845   9.569   9.373 -0.1065  0.2322  2.7270
  524MOL0     O72175   5.535  11.228   6.531 -0.9763 -0.7653  0.0800
  524MOL0     C72176   5.444  11.160   6.478  0.0427  0.8895  0.3103
  524MOL0     O72177   5.348  11.205   6.393 -0.4799 -0.0461  0.0915
  524MOL0     C72178   5.358  11.336   6.349 -0.4679  0.7028  0.2200
  524MOL0     C72179   5.473  11.387   6.290 -0.0047  0.7840  0.1826
  524MOL0     C72180   5.464  11.492   6.194 -1.0422 -0.8422 -0.9687
  524MOL0     C72181   5.345  11.568   6.186  0.7302  0.7427 -0.4920
  524MOL0     O72182   5.331  11.675   6.101 -0.2650 -0.3164  0.7836
  524MOL0     C72183   5.439  11.708   6.009 -0.5283  0.2312  1.2827
  524MOL0     C72184   5.428  11.844   5.933  0.3067 -0.5169 -0.2236
  524MOL0     C72185   5.458  11.965   6.028  0.1294 -0.5680 -0.8872
  524MOL0     C72186   5.613  11.990   6.054  0.0346  0.7341  0.0668
  524MOL0     C72187   5.644  12.104   6.158 -0.4528 -0.4909  0.6621
  524MOL0     C72188   5.790  12.128   6.183  0.1073  0.0527  0.3817
  524MOL0     C72189   5.825  12.227   6.287 -0.3056 -0.2325  0.4637
  524MOL0     C72190   5.979  12.239   6.309  0.2280  0.2801 -0.2605
  524MOL0     N72191   6.021  12.131   6.415  0.6053  0.1868 -0.2359
  524MOL0     C72192   6.012  12.145   6.552 -0.6626 -0.0108 -0.4766
  524MOL0     C72193   6.057  12.026   6.602 -0.4126 -0.4961 -1.5158
  524MOL0     C72194   6.066  11.987   6.745  0.0105 -0.8116 -0.5362
  524MOL0     C72195   6.138  12.085   6.838  0.5524 -0.3654 -0.7006
  524MOL0     C72196   6.162  12.036   6.975 -0.0811  0.3135  0.5804
  524MOL0     C72197   6.232  12.137   7.062  0.0058 -0.9755 -0.2565
  524MOL0     O72198   6.255  12.081   7.193  0.2447  0.4441 -0.1144
  524MOL0     C72199   6.226  12.148   7.308  0.2073 -0.2283 -0.2116
  524MOL0     C72200   6.123  12.232   7.314  0.5152 -0.2101 -0.4429
  524MOL0     C72201   6.087  12.295   7.433 -1.2654  0.5700 -0.0877
  524MOL0     C72202   5.956  12.370   7.435 -0.3443  0.4316  0.1977
  524MOL0     C72203   6.163  12.278   7.553 -0.0028 -0.1173 -0.7764
  524MOL0     C72204   6.124  12.335   7.687  0.6494  1.4432  0.0259
  524MOL0     O72205   6.148  12.253   7.789  0.2484 -0.3215  0.8966
  524MOL0     C72206   6.124  12.310   7.905  0.3556  0.0567 -1.5187
  524MOL0     C72207   6.001  12.302   7.965 -1.0381 -0.7065  1.2417
  524MOL0     C72208   5.977  12.371   8.085 -0.0565 -1.1148 -0.9048
  524MOL0     C72209   6.082  12.438   8.151  0.3349  0.6262  0.1159
  524MOL0     O72210   6.042  12.490   8.267 -0.3137  0.6252 -0.5454
  524MOL0     C72211   6.138  12.561   8.349  0.5958  0.7856  0.9121
  524MOL0     C72212   6.193  12.692   8.290  0.2526 -0.1336 -0.5082
  524MOL0     C72213   6.233  12.786   8.408  0.1748 -0.0874  0.6174
  524MOL0     C72214   6.109  12.875   8.431  0.0753 -0.3844  1.2647
  524MOL0     C72215   6.130  12.968   8.545 -0.5317  0.8112 -1.0173
  524MOL0     C72216   6.022  13.078   8.568 -0.2744 -0.3248  0.2930
  524MOL0     C72217   5.973  13.161   8.454 -1.2271 -0.5212  0.8715
  524MOL0     C72218   6.074  13.271   8.408 -0.0808  0.3524 -0.3866
  524MOL0    Cl72219   6.108  13.400   8.526 -0.0211 -0.0985 -0.1535
  524MOL0     C72220   6.214  12.426   8.097  0.8891  0.5868  0.0393
  524MOL0     C72221   6.237  12.363   7.979  0.2159  0.9320 -0.5977
  524MOL0     O72222   6.097  12.453   7.692  0.0212  0.6317 -0.0178
  524MOL0     C72223   6.271  12.187   7.548  0.3321 -0.1754  0.8911
  524MOL0     C72224   6.293  12.120   7.424 -0.8941  1.0061  0.3660
  524MOL0     N72225   6.086  11.951   6.494 -0.4978 -0.0835 -0.2842
  524MOL0     N72226   6.067  12.011   6.377 -0.7537 -0.3892  0.0975
  524MOL0     C72227   5.236  11.525   6.268  0.6091 -0.4819  0.4201
  524MOL0     C72228   5.243  11.402   6.331 -0.6168  0.1423 -0.0367
  524MOL0     C72229   5.458  11.010   6.493 -0.3804  0.0530 -0.4206
  524MOL0     C72230   5.341  10.928   6.461 -0.2531 -0.0623 -0.4853
  524MOL0     C72231   5.355  10.790   6.444  0.0106  0.6308 -0.0786
  524MOL0     C72232   5.469  10.722   6.475 -0.6155 -0.5236  0.6844
  524MOL0     O72233   5.474  10.581   6.485 -0.3942 -0.4307  0.1517
  524MOL0     C72234   5.359  10.490   6.464 -1.0388  0.3684  0.6399
  524MOL0     C72235   5.339  10.471   6.314  0.8859  0.1184  0.1476
  524MOL0     C72236   5.464  10.407   6.248 -0.2445 -0.2945 -0.0325
  524MOL0     C72237   5.442  10.252   6.215  0.0989 -0.2773  0.1653
  524MOL0     C72238   5.468  10.172   6.335 -0.0046  0.0265 -0.1780
  524MOL0     C72239   5.473  10.112   6.442 -0.1724  0.1080  0.4320
  524MOL0     C72240   5.575  10.805   6.516 -1.1788  0.2303  0.6435
  524MOL0     C72241   5.577  10.944   6.523 -0.4395 -0.2861 -0.1633
  524MOL0     C72242   5.709  11.012   6.529  0.1364  0.4879 -0.7117
  524MOL0     H72243   5.569  11.338   6.289  0.2468  0.8098  4.6586
  524MOL0     H72244   5.549  11.529   6.137 -3.2846  1.9407 -2.7791
  524MOL0     H72245   5.461  11.634   5.932 -1.2008  2.9200 -1.6761
  524MOL0     H72246   5.530  11.712   6.070  0.1024  1.2470  0.3116
  524MOL0     H72247   5.505  11.836   5.856  1.4043 -0.3855  0.8294
  524MOL0     H72248   5.333  11.839   5.879  0.2280 -2.4513 -0.0004
  524MOL0     H72249   5.414  12.057   5.987 -1.3179 -0.0651  1.5718
  524MOL0     H72250   5.421  11.936   6.127  1.6805 -1.3525 -0.5046
  524MOL0     H72251   5.663  11.898   6.089 -0.4704  0.4825  0.1433
  524MOL0     H72252   5.646  12.019   5.954  0.1184 -2.5885 -1.0169
  524MOL0     H72253   5.588  12.076   6.248 -4.1662  3.1758 -0.2207
  524MOL0     H72254   5.601  12.200   6.128  2.7412  1.2044  1.0668
  524MOL0     H72255   5.825  12.028   6.213 -2.6383 -1.2045 -0.3311
  524MOL0     H72256   5.828  12.155   6.084  0.6189  1.1809  0.8642
  524MOL0     H72257   5.773  12.199   6.379  0.0696 -2.2765  0.0954
  524MOL0     H72258   5.790  12.323   6.247  2.7529  0.3648 -1.0415
  524MOL0     H72259   6.031  12.216   6.216  1.0411 -0.2621  0.3240
  524MOL0     H72260   6.002  12.343   6.334 -1.5148  1.0957 -1.7797
  524MOL0     H72261   5.977  12.234   6.603 -1.5531  0.1321 -1.3149
  524MOL0     H72262   6.124  11.895   6.747  1.5182  0.0998  1.5990
  524MOL0     H72263   5.963  11.962   6.771 -2.2765  1.8666 -5.4941
  524MOL0     H72264   6.230  12.108   6.783  0.3823  2.9653  0.1705
  524MOL0     H72265   6.086  12.181   6.845  0.3864 -0.2963 -2.3424
  524MOL0     H72266   6.069  12.009   7.025 -0.7946 -0.2593 -0.9775
  524MOL0     H72267   6.232  11.952   6.983  3.1302  2.7491 -0.0753
  524MOL0     H72268   6.321  12.177   7.012  0.6145  2.1505  2.9032
  524MOL0     H72269   6.165  12.223   7.071  1.6461  0.9421 -4.0499
  524MOL0     H72270   6.050  12.228   7.233  2.2337 -1.7662 -1.9957
  524MOL0     H72271   5.926  12.401   7.335  3.0630 -0.7543 -1.3500
  524MOL0     H72272   5.952  12.457   7.501 -1.4372  0.3602  0.2408
  524MOL0     H72273   5.875  12.305   7.471  0.0020  1.8934  4.1223
  524MOL0     H72274   5.920  12.247   7.918 -1.6163  0.5593  0.6770
  524MOL0     H72275   5.882  12.377   8.136  0.2895  6.4880 -0.0166
  524MOL0     H72276   6.080  12.584   8.439 -1.6970 -3.3967  0.7705
  524MOL0     H72277   6.214  12.490   8.382  2.0010  1.2589 -1.1099
  524MOL0     H72278   6.274  12.671   8.219  0.9820 -0.3795  0.3728
  524MOL0     H72279   6.113  12.736   8.230 -0.7045 -1.5725 -0.3389
  524MOL0     H72280   6.313  12.844   8.362  1.1386 -1.1401  0.9094
  524MOL0     H72281   6.272  12.732   8.495 -1.6428  4.7151  4.9448
  524MOL0     H72282   6.021  12.811   8.447 -0.8512  1.2257  2.9326
  524MOL0     H72283   6.087  12.931   8.339  0.3476 -2.9309 -0.4811
  524MOL0     H72284   6.154  12.908   8.633 -0.2763 -1.8299 -2.7809
  524MOL0     H72285   6.226  13.019   8.531  1.9240 -3.4007 -1.3735
  524MOL0     H72286   6.063  13.147   8.641  0.5355  0.3350 -0.7624
  524MOL0     H72287   5.929  13.030   8.603 -0.4683 -0.2896 -0.1661
  524MOL0     H72288   5.882  13.210   8.490 -0.2935 -0.5651  3.4864
  524MOL0     H72289   5.955  13.098   8.366  0.0641  3.0741 -2.2670
  524MOL0     H72290   6.035  13.327   8.323 -0.3242 -0.0297 -0.5306
  524MOL0     H72291   6.165  13.213   8.388 -1.0380 -0.8799 -1.3550
  524MOL0     H72292   6.299  12.464   8.151 -0.2412 -0.8949  3.0839
  524MOL0     H72293   6.337  12.362   7.938  0.0391 -0.0697 -1.0267
  524MOL0     H72294   6.324  12.155   7.637  0.7010  0.8808  1.0757
  524MOL0     H72295   6.375  12.050   7.417 -0.5539  1.5259 -1.5496
  524MOL0     H72296   5.141  11.574   6.250  1.7030  2.8094  2.7016
  524MOL0     H72297   5.153  11.362   6.376 -1.2175 -0.5917 -1.7979
  524MOL0     H72298   5.246  10.974   6.437 -0.3308  0.3909  0.6384
  524MOL0     H72299   5.279  10.721   6.410 -0.8329  0.2947  2.2927
  524MOL0     H72300   5.381  10.399   6.521 -1.0488 -1.1087 -1.5828
  524MOL0     H72301   5.269  10.532   6.510 -1.1912 -0.4069  1.0765
  524MOL0     H72302   5.319  10.562   6.256  2.3241 -1.4657 -3.0815
  524MOL0     H72303   5.250  10.410   6.303  1.9549 -1.2499 -1.4149
  524MOL0     H72304   5.494  10.443   6.150  3.4413  1.7110  1.6348
  524MOL0     H72305   5.551  10.426   6.311 -1.5005  0.9370  1.4226
  524MOL0     H72306   5.495  10.199   6.135 -1.1837 -3.2061  1.0998
  524MOL0     H72307   5.336  10.249   6.187  0.4525 -3.3152 -1.2927
  524MOL0     H72308   5.471  10.061   6.536  0.0576  0.1407  0.4546
  524MOL0     H72309   5.666  10.746   6.526 -1.9543 -1.1398 -0.1342
  524MOL0     H72310   5.742  11.050   6.627  4.0839 -0.9933 -1.2801
  524MOL0     H72311   5.787  10.941   6.501 -0.5636 -1.5737  2.1289
  524MOL0     H72312   5.718  11.092   6.455 -2.8395 -0.8163 -2.6289
  525MOL0     O72313   7.258   1.355   5.361  0.8272  0.2783  0.0627
  525MOL0     C72314   7.186   1.327   5.266 -1.8741  0.6965 -0.5956
  525MOL0     O72315   7.128   1.418   5.179  0.1258 -0.1610 -0.2925
  525MOL0     C72316   7.167   1.554   5.187 -0.3317  0.1860  0.1670
  525MOL0     C72317   7.308   1.588   5.182 -0.1751 -0.3998  0.2717
  525MOL0     C72318   7.345   1.722   5.193  0.6127  0.2872  0.1869
  525MOL0     C72319   7.248   1.816   5.216  0.2334  0.6086 -0.3044
  525MOL0     O72320   7.296   1.939   5.248  0.3542 -0.3314 -0.6344
  525MOL0     C72321   7.206   2.029   5.307 -0.3221 -1.5672  1.3164
  525MOL0     C72322   7.212   2.033   5.462  0.4678 -0.3184  0.4051
  525MOL0     C72323   7.099   2.112   5.524 -0.7154  0.2582 -0.8334
  525MOL0     C72324   7.121   2.161   5.672 -0.3395  0.6420 -0.0408
  525MOL0     C72325   7.136   2.047   5.768 -0.5439  0.0755 -0.2276
  525MOL0     C72326   7.098   2.079   5.905  0.3206 -0.7224  0.3705
  525MOL0     C72327   6.953   2.025   5.928 -0.0547  0.4816 -1.5387
  525MOL0     C72328   6.892   2.090   6.062  1.1641 -0.1846  0.5097
  525MOL0     N72329   6.824   2.218   6.032 -0.4439  0.4329  0.1764
  525MOL0     C72330   6.690   2.234   6.064 -0.2598 -0.6635 -0.2999
  525MOL0     C72331   6.669   2.363   6.053  0.2308 -0.0996 -0.2278
  525MOL0     C72332   6.533   2.413   6.089 -0.2676  0.9905 -0.7528
  525MOL0     C72333   6.469   2.491   5.972  0.1496  0.7029  0.0975
  525MOL0     C72334   6.316   2.500   5.999  0.5618 -0.6909  0.5785
  525MOL0     C72335   6.223   2.371   5.982 -0.8263  0.5857 -0.0091
  525MOL0     O72336   6.095   2.409   6.033 -0.4839  0.5097  0.0631
  525MOL0     C72337   5.992   2.338   5.981  0.1609 -0.3742 -0.7514
  525MOL0     C72338   5.934   2.362   5.858  0.1751  0.0334  1.3074
  525MOL0     C72339   5.826   2.276   5.827  0.2670 -0.3642  0.3950
  525MOL0     C72340   5.765   2.308   5.690  0.5455 -1.2470  0.5565
  525MOL0     C72341   5.780   2.172   5.910 -0.4696  1.0681 -0.1987
  525MOL0     C72342   5.667   2.086   5.883  0.6241  0.1195 -1.3242
  525MOL0     O72343   5.675   1.956   5.932 -0.0444 -0.7118  0.8238
  525MOL0     C72344   5.560   1.880   5.928 -0.1009  0.1601  0.0170
  525MOL0     C72345   5.483   1.864   5.816  0.3480 -0.8704 -0.2142
  525MOL0     C72346   5.377   1.762   5.819 -0.8664 -0.4936  0.3560
  525MOL0     C72347   5.348   1.689   5.940  0.7048  0.0828  0.5224
  525MOL0     O72348   5.236   1.603   5.931 -0.1840 -0.4152  0.1355
  525MOL0     C72349   5.185   1.531   6.046 -0.3922  0.2769 -0.3308
  525MOL0     C72350   5.076   1.625   6.105 -0.5308 -0.1912 -0.5917
  525MOL0     C72351   4.975   1.698   6.017  0.2610 -0.9018  0.0885
  525MOL0     C72352   4.865   1.601   5.966 -0.3196 -0.1884  0.5508
  525MOL0     C72353   4.773   1.540   6.072 -1.0519 -0.3333 -0.1323
  525MOL0     C72354   4.814   1.399   6.124  0.2461  0.1185 -0.0924
  525MOL0     C72355   4.826   1.293   6.008  0.1107 -0.3741  0.0882
  525MOL0     C72356   4.896   1.177   6.073 -1.1454  0.0405 -0.7846
  525MOL0    Cl72357   4.866   1.049   5.949 -0.0761 -0.0969  0.1117
  525MOL0     C72358   5.427   1.713   6.052 -0.1252  0.0264  0.4808
  525MOL0     C72359   5.534   1.805   6.042 -0.2605 -0.1358 -0.4828
  525MOL0     O72360   5.566   2.145   5.841  0.3922 -0.4573  0.7395
  525MOL0     C72361   5.840   2.151   6.032  0.1699 -0.8569  1.0264
  525MOL0     C72362   5.941   2.248   6.075 -1.2764 -0.2265  0.4667
  525MOL0     N72363   6.782   2.431   6.017  0.4099  0.4877 -0.1220
  525MOL0     N72364   6.876   2.341   6.005  0.0694 -0.0176  0.0369
  525MOL0     C72365   7.108   1.781   5.201 -0.2203 -0.2491  0.3859
  525MOL0     C72366   7.070   1.650   5.204 -0.4888  0.2042 -0.4398
  525MOL0     C72367   7.187   1.185   5.217 -0.3149 -0.4940 -0.2418
  525MOL0     C72368   7.273   1.153   5.114  0.7500  0.2142 -0.5231
  525MOL0     C72369   7.281   1.030   5.063  0.5983  1.1958 -0.2079
  525MOL0     C72370   7.194   0.931   5.117  0.0339  0.0649  0.6140
  525MOL0     O72371   7.184   0.822   5.040  1.0743  0.0907 -0.8145
  525MOL0     C72372   7.267   0.720   5.085 -0.5005 -0.3630  1.5620
  525MOL0     C72373   7.307   0.620   4.977  0.1266 -0.2895  0.3130
  525MOL0     C72374   7.371   0.493   5.037  0.8571  0.3439  0.4422
  525MOL0     C72375   7.525   0.504   5.080 -0.0676  0.4035  0.2659
  525MOL0     C72376   7.609   0.614   5.021 -0.8336 -0.2033 -0.1332
  525MOL0     C72377   7.684   0.697   4.970  0.0810 -0.1077 -0.8328
  525MOL0     C72378   7.110   0.958   5.232 -0.0354 -0.3602  1.8000
  525MOL0     C72379   7.115   1.083   5.283 -0.4959  0.0509 -0.2018
  525MOL0     C72380   7.029   1.107   5.406  0.7083 -0.2780 -0.0049
  525MOL0     H72381   7.390   1.518   5.170  1.3282  1.6581 -3.1401
  525MOL0     H72382   7.445   1.762   5.189  0.8984 -0.4758 -0.6828
  525MOL0     H72383   7.105   2.019   5.266  0.1546  0.6368 -0.5918
  525MOL0     H72384   7.243   2.125   5.271  3.2045 -3.3016 -0.2290
  525MOL0     H72385   7.195   1.933   5.503  0.9508 -2.0985 -3.2866
  525MOL0     H72386   7.308   2.072   5.497  0.4359  1.4597 -1.3221
  525MOL0     H72387   7.072   2.201   5.467 -0.7187  1.6218  1.2045
  525MOL0     H72388   7.013   2.043   5.527 -0.3916 -0.2742 -2.5605
  525MOL0     H72389   7.216   2.215   5.679  2.2557 -3.2402 -1.9688
  525MOL0     H72390   7.031   2.218   5.696 -0.2276  0.2453  1.4651
  525MOL0     H72391   7.240   2.012   5.761 -1.3082 -3.0111  1.6527
  525MOL0     H72392   7.088   1.957   5.729  2.3798 -1.4821 -0.5663
  525MOL0     H72393   7.170   2.020   5.962  0.7393 -0.3910  0.1893
  525MOL0     H72394   7.097   2.186   5.926  0.4810 -0.8642  1.1059
  525MOL0     H72395   6.953   1.915   5.933  0.1326  0.5209  1.1282
  525MOL0     H72396   6.887   2.058   5.848  0.7057  1.7577 -1.6567
  525MOL0     H72397   6.814   2.030   6.109  0.3493 -0.9266 -1.6869
  525MOL0     H72398   6.979   2.120   6.123  0.0662  2.3817  0.9550
  525MOL0     H72399   6.621   2.156   6.095  3.0065 -3.7660 -0.2250
  525MOL0     H72400   6.542   2.489   6.167 -1.4668  0.6761 -0.2899
  525MOL0     H72401   6.472   2.331   6.129 -4.1666  2.8470 -2.3876
  525MOL0     H72402   6.512   2.592   5.971  0.0208  0.7690 -1.4351
  525MOL0     H72403   6.479   2.444   5.874  1.7491  0.1188  0.4998
  525MOL0     H72404   6.296   2.542   6.098 -0.9196 -1.5218  0.6624
  525MOL0     H72405   6.273   2.571   5.927 -0.4655 -0.7124  1.1541
  525MOL0     H72406   6.234   2.318   5.887  1.3121 -0.2808  0.6528
  525MOL0     H72407   6.257   2.295   6.054 -1.9576  1.8908  2.0160
  525MOL0     H72408   5.981   2.444   5.804 -0.9743  1.8395  2.9049
  525MOL0     H72409   5.843   2.338   5.620 -1.2555 -1.5279 -1.7008
  525MOL0     H72410   5.701   2.396   5.691  3.7182  1.2337  0.4459
  525MOL0     H72411   5.721   2.222   5.639  3.0372 -2.3972  0.1773
  525MOL0     H72412   5.505   1.913   5.722  1.9231  1.3585  1.2075
  525MOL0     H72413   5.326   1.727   5.729  0.4657 -3.3805  0.6006
  525MOL0     H72414   5.138   1.440   6.007 -1.0561 -0.0793  1.2488
  525MOL0     H72415   5.252   1.503   6.127 -2.0150 -2.6184  0.1535
  525MOL0     H72416   5.030   1.579   6.192  1.0311 -1.5625 -0.4310
  525MOL0     H72417   5.139   1.699   6.155  1.0641 -1.2542 -0.9394
  525MOL0     H72418   5.028   1.731   5.927 -0.6680 -0.1272 -0.1961
  525MOL0     H72419   4.929   1.787   6.059 -1.0606  0.0701 -3.0999
  525MOL0     H72420   4.909   1.523   5.903  2.8157  0.9563  1.1502
  525MOL0     H72421   4.804   1.664   5.901  1.8698  3.0792  1.4272
  525MOL0     H72422   4.758   1.605   6.159 -0.8077  0.9439 -1.0326
  525MOL0     H72423   4.677   1.516   6.026 -0.6422 -0.3385 -1.0028
  525MOL0     H72424   4.741   1.372   6.201  0.1153  2.2481  0.6116
  525MOL0     H72425   4.910   1.417   6.173 -0.3040  1.0248  0.6969
  525MOL0     H72426   4.886   1.331   5.924 -0.4253 -1.9486 -1.0582
  525MOL0     H72427   4.726   1.267   5.974 -0.0975 -1.1953  1.2864
  525MOL0     H72428   4.847   1.145   6.165  0.3325  0.4785  0.1826
  525MOL0     H72429   5.000   1.206   6.088  0.1887 -3.4432 -2.2917
  525MOL0     H72430   5.415   1.668   6.150 -1.1818 -1.2858 -0.2335
  525MOL0     H72431   5.606   1.821   6.122  1.8812 -0.8154 -2.1709
  525MOL0     H72432   5.810   2.071   6.099 -1.7572 -1.8250 -0.8774
  525MOL0     H72433   5.975   2.232   6.176 -3.3821 -0.7625  1.1463
  525MOL0     H72434   7.016   1.839   5.202  0.1929  0.5194 -1.5804
  525MOL0     H72435   6.969   1.616   5.226  0.0953 -2.3278 -1.3576
  525MOL0     H72436   7.335   1.232   5.073  3.8780 -1.7911 -0.1044
  525MOL0     H72437   7.331   1.004   4.970  0.2941  0.5951 -0.2095
  525MOL0     H72438   7.352   0.762   5.140  0.1771  2.9669 -1.6768
  525MOL0     H72439   7.208   0.657   5.153  0.9223 -1.7642  1.5635
  525MOL0     H72440   7.372   0.674   4.907 -1.8146  2.3761  0.4182
  525MOL0     H72441   7.215   0.595   4.923  0.0282 -0.4458  0.5522
  525MOL0     H72442   7.307   0.447   5.113  1.9203  1.1370  1.8755
  525MOL0     H72443   7.373   0.420   4.955  2.9941  0.3120  0.4558
  525MOL0     H72444   7.577   0.410   5.063 -3.4817 -1.8535  1.3324
  525MOL0     H72445   7.516   0.516   5.188 -1.0984 -1.4613  0.4165
  525MOL0     H72446   7.759   0.768   4.941  2.5118 -1.9291  0.6199
  525MOL0     H72447   7.038   0.880   5.254 -0.8480 -1.4766 -3.4976
  525MOL0     H72448   6.969   1.021   5.435 -0.4865 -0.1808 -1.9769
  525MOL0     H72449   7.084   1.149   5.491 -0.3096  1.4127 -0.1276
  525MOL0     H72450   6.952   1.183   5.385  0.1629 -0.3097  1.7305
  526MOL0     O72451   6.494   1.870   4.069  1.2286 -0.9395  0.0157
  526MOL0     C72452   6.495   1.758   4.124 -0.6072  0.3731 -0.0727
  526MOL0     O72453   6.578   1.648   4.094  0.0049 -0.1746  0.1068
  526MOL0     C72454   6.683   1.666   4.007 -0.2575 -0.5712 -0.1242
  526MOL0     C72455   6.726   1.547   3.932 -0.4999 -0.5655 -0.5727
  526MOL0     C72456   6.849   1.546   3.863  0.3699 -0.3962  0.3148
  526MOL0     C72457   6.942   1.653   3.887 -0.1678 -1.3461  0.9294
  526MOL0     O72458   7.076   1.633   3.830 -0.0803 -0.1756  0.1073
  526MOL0     C72459   7.145   1.747   3.790 -0.9111 -0.2666 -0.3942
  526MOL0     C72460   7.209   1.832   3.900 -0.0056 -0.2894 -0.3292
  526MOL0     C72461   7.181   1.983   3.889 -0.0890  0.5970  0.9896
  526MOL0     C72462   7.197   2.048   4.028  0.3941  0.1941  0.3112
  526MOL0     C72463   7.139   2.193   4.042  0.5308 -0.2702 -1.0626
  526MOL0     C72464   7.156   2.242   4.192  1.7755 -0.6321  0.1929
  526MOL0     C72465   7.088   2.380   4.209 -0.8162 -0.5398 -0.8162
  526MOL0     C72466   7.182   2.486   4.147  1.0993 -0.1816  1.3447
  526MOL0     N72467   7.126   2.619   4.148  0.0548  0.4271 -0.7837
  526MOL0     C72468   7.115   2.697   4.034 -0.2990 -0.0593  0.9586
  526MOL0     C72469   7.089   2.819   4.080 -1.0035 -1.0445 -0.0072
  526MOL0     C72470   7.062   2.942   4.002  0.0696  0.3311 -0.4797
  526MOL0     C72471   6.934   2.928   3.907 -0.0973  0.9117  0.0950
  526MOL0     C72472   6.812   3.001   3.955 -0.2663 -0.8648  1.0916
  526MOL0     C72473   6.694   2.973   3.866  0.2442 -0.8248 -1.1256
  526MOL0     O72474   6.719   3.017   3.728  0.4913  0.7541  0.3180
  526MOL0     C72475   6.621   2.979   3.641  0.7471 -0.5280 -1.1778
  526MOL0     C72476   6.637   3.000   3.510 -0.5897  0.3060  0.1426
  526MOL0     C72477   6.541   2.978   3.422 -0.4587  0.1353 -0.5262
  526MOL0     C72478   6.569   3.004   3.276 -0.4640  0.2059 -0.2600
  526MOL0     C72479   6.412   2.937   3.456  0.0876  0.2884 -0.3667
  526MOL0     C72480   6.296   2.925   3.368 -0.0583 -0.4231  0.6304
  526MOL0     O72481   6.316   2.870   3.244 -0.4327  0.5363  0.1645
  526MOL0     C72482   6.218   2.815   3.158 -0.8661  0.5482  0.2350
  526MOL0     C72483   6.086   2.784   3.198  0.1721  0.4902  0.3408
  526MOL0     C72484   5.993   2.734   3.105 -0.0028  0.9430 -0.0889
  526MOL0     C72485   6.033   2.689   2.981 -0.2798  0.0546  0.2148
  526MOL0     O72486   5.943   2.604   2.910 -0.0023 -0.5303 -0.0826
  526MOL0     C72487   5.949   2.608   2.768 -0.2454  0.0675  0.2451
  526MOL0     C72488   5.885   2.735   2.713  0.4662  0.0623  0.5421
  526MOL0     C72489   5.886   2.744   2.551 -0.0391  0.1661 -0.5816
  526MOL0     C72490   5.995   2.840   2.521 -1.3498  0.0970  0.5644
  526MOL0     C72491   5.981   2.885   2.372 -0.0976  0.6281  1.0232
  526MOL0     C72492   5.972   2.767   2.277  0.3911  0.7217 -0.9146
  526MOL0     C72493   5.980   2.829   2.136  0.1786  0.5588 -0.2929
  526MOL0     C72494   5.971   2.714   2.029  0.6786  0.2037  0.7956
  526MOL0    Cl72495   5.798   2.676   2.038 -0.3368  0.4313 -0.0589
  526MOL0     C72496   6.159   2.722   2.937  0.0724  0.0457 -0.4468
  526MOL0     C72497   6.250   2.792   3.023  1.0151  0.0579 -0.1676
  526MOL0     O72498   6.186   2.977   3.401 -0.3557 -0.1896 -0.1362
  526MOL0     C72499   6.388   2.920   3.593  0.0018  0.1163 -0.0209
  526MOL0     C72500   6.491   2.948   3.684  0.0009  0.3365  0.1498
  526MOL0     N72501   7.073   2.806   4.216 -0.3160 -0.0125  0.0128
  526MOL0     N72502   7.100   2.691   4.260 -0.1648 -0.4706 -0.0947
  526MOL0     C72503   6.897   1.770   3.954  1.1211  0.0021  0.1751
  526MOL0     C72504   6.770   1.774   4.013 -0.0508  0.1347  0.8175
  526MOL0     C72505   6.379   1.735   4.215  0.3287 -0.0504 -0.3483
  526MOL0     C72506   6.364   1.597   4.246  1.2425  0.0899  0.8400
  526MOL0     C72507   6.259   1.560   4.329  0.0710 -0.5879 -0.2177
  526MOL0     C72508   6.164   1.651   4.376 -0.0702  1.0943 -0.3470
  526MOL0     O72509   6.057   1.593   4.442  0.4722 -0.0837  0.1870
  526MOL0     C72510   5.931   1.667   4.465 -0.6040  0.5746  0.5240
  526MOL0     C72511   5.819   1.553   4.476 -0.4938  0.5552  0.9813
  526MOL0     C72512   5.715   1.590   4.579  0.6043  0.9233  0.0863
  526MOL0     C72513   5.587   1.513   4.559  0.4727  0.9571  0.3259
  526MOL0     C72514   5.469   1.579   4.620  0.0024  0.5223  1.4099
  526MOL0     C72515   5.365   1.623   4.671 -0.0747 -0.2014  0.9948
  526MOL0     C72516   6.173   1.784   4.345  0.0090  0.8199  0.7415
  526MOL0     C72517   6.272   1.828   4.261 -0.2162 -0.1600 -0.0140
  526MOL0     C72518   6.258   1.974   4.202  0.2661 -0.4440  0.8188
  526MOL0     H72519   6.667   1.456   3.929  0.9521 -1.5546 -0.0938
  526MOL0     H72520   6.891   1.459   3.814 -1.2863  0.2852 -2.5476
  526MOL0     H72521   7.077   1.808   3.730  0.2776 -0.2348 -1.7672
  526MOL0     H72522   7.225   1.712   3.723  1.7500  0.2142  2.2831
  526MOL0     H72523   7.169   1.788   3.992  0.2266 -1.0540 -0.5911
  526MOL0     H72524   7.316   1.822   3.884  0.3563  2.5132 -0.2828
  526MOL0     H72525   7.243   2.038   3.818 -0.1287 -1.0993 -0.4190
  526MOL0     H72526   7.078   2.003   3.857  0.1464  2.5029  1.3271
  526MOL0     H72527   7.143   1.983   4.097  1.6891 -1.2962 -0.0272
  526MOL0     H72528   7.303   2.042   4.054  0.8620  2.2833 -0.8911
  526MOL0     H72529   7.034   2.194   4.012  0.4823  0.7773 -0.8876
  526MOL0     H72530   7.185   2.269   3.978  2.0934 -2.0994 -2.2360
  526MOL0     H72531   7.102   2.180   4.264 -1.7056  0.2243 -1.5003
  526MOL0     H72532   7.262   2.251   4.219  1.8824 -1.9895  0.3246
  526MOL0     H72533   7.071   2.402   4.315  1.6979 -3.6214  0.4068
  526MOL0     H72534   6.989   2.391   4.163 -0.6972  0.4522 -0.8504
  526MOL0     H72535   7.269   2.488   4.213  0.7759  0.8641  1.7592
  526MOL0     H72536   7.212   2.457   4.046  1.5731 -1.1526  1.7559
  526MOL0     H72537   7.134   2.679   3.929  1.1149  0.6257  1.0769
  526MOL0     H72538   7.143   2.959   3.930  0.0511 -0.7998 -0.7921
  526MOL0     H72539   7.055   3.037   4.056  1.3439  0.1320  0.0818
  526MOL0     H72540   6.960   2.962   3.807  1.1202 -3.9568 -1.5270
  526MOL0     H72541   6.896   2.826   3.888 -0.3140  1.0402 -0.1748
  526MOL0     H72542   6.779   2.971   4.055 -0.8894 -1.6419  0.6660
  526MOL0     H72543   6.839   3.106   3.942 -0.3448 -0.7426  1.8582
  526MOL0     H72544   6.674   2.866   3.869  4.0131 -1.6809  2.2530
  526MOL0     H72545   6.609   3.024   3.912  0.0468 -0.5327 -1.8010
  526MOL0     H72546   6.730   3.041   3.471 -0.6125 -0.0613 -0.3120
  526MOL0     H72547   6.484   3.063   3.239  1.3610  2.1329 -1.6085
  526MOL0     H72548   6.577   2.908   3.225 -0.2889  0.8580 -1.5019
  526MOL0     H72549   6.654   3.070   3.255 -0.5966 -0.2821 -2.6217
  526MOL0     H72550   6.059   2.810   3.300  0.8869  1.9665  0.1813
  526MOL0     H72551   5.892   2.702   3.130  0.1420 -1.5957 -2.2581
  526MOL0     H72552   6.054   2.607   2.737  0.0831  0.6125  1.3138
  526MOL0     H72553   5.903   2.519   2.722  1.5283  0.7410 -3.1965
  526MOL0     H72554   5.782   2.749   2.749 -0.0759  3.5837 -1.9079
  526MOL0     H72555   5.931   2.819   2.765 -0.4378  1.1274 -0.3315
  526MOL0     H72556   5.787   2.776   2.517  0.4750  0.7315 -1.5951
  526MOL0     H72557   5.891   2.647   2.503 -3.8318 -0.4976  0.0334
  526MOL0     H72558   6.089   2.786   2.535 -0.9073  0.7579  0.2170
  526MOL0     H72559   6.003   2.928   2.586  0.2406  0.3288  0.1042
  526MOL0     H72560   5.883   2.933   2.368  0.0215  0.8553  0.7829
  526MOL0     H72561   6.062   2.957   2.354 -1.0149  1.3045 -0.6007
  526MOL0     H72562   5.882   2.708   2.292  2.3252 -1.9672  1.1846
  526MOL0     H72563   6.058   2.701   2.289  0.2187  0.5904 -0.4145
  526MOL0     H72564   6.071   2.888   2.118  0.7497  0.0570  0.8788
  526MOL0     H72565   5.891   2.888   2.112  0.6746  0.2033 -3.4723
  526MOL0     H72566   6.025   2.621   2.048  0.7219  0.0787  0.0867
  526MOL0     H72567   6.000   2.758   1.933 -0.2751 -1.1858 -0.1763
  526MOL0     H72568   6.210   2.706   2.842  1.7897  0.2783  0.3903
  526MOL0     H72569   6.342   2.831   2.982 -0.1667 -0.6972 -3.9103
  526MOL0     H72570   6.287   2.888   3.617  0.3191 -0.4943  0.5402
  526MOL0     H72571   6.459   2.953   3.787  1.5190  0.6567  0.6175
  526MOL0     H72572   6.955   1.858   3.980 -1.5505  1.2634  2.2965
  526MOL0     H72573   6.751   1.870   4.060  2.5639 -0.3594  3.1121
  526MOL0     H72574   6.437   1.517   4.234 -0.2396 -1.1035 -0.6117
  526MOL0     H72575   6.239   1.455   4.352 -0.8548  0.3215  3.7653
  526MOL0     H72576   5.927   1.740   4.546 -3.1270  2.2277 -0.9672
  526MOL0     H72577   5.923   1.739   4.383 -2.7634  2.1218  1.9683
  526MOL0     H72578   5.862   1.456   4.504 -1.5742 -1.6005 -3.7050
  526MOL0     H72579   5.765   1.546   4.381 -1.1287 -1.1812  1.4286
  526MOL0     H72580   5.754   1.574   4.680  0.6346 -2.4888 -0.3578
  526MOL0     H72581   5.708   1.698   4.562  3.1672  1.3419  1.1744
  526MOL0     H72582   5.607   1.410   4.592  1.5472  0.3169 -2.1120
  526MOL0     H72583   5.578   1.497   4.451 -0.3531 -0.1584  0.5406
  526MOL0     H72584   5.291   1.644   4.746  1.8431  2.8846  2.2611
  526MOL0     H72585   6.106   1.852   4.397 -2.4359 -0.5074 -0.4964
  526MOL0     H72586   6.179   2.028   4.256 -1.4162 -0.3420 -1.5488
  526MOL0     H72587   6.337   2.045   4.228 -1.3446  2.5699 -1.7863
  526MOL0     H72588   6.245   1.957   4.094  2.2180 -0.9909  0.6332
  527MOL0     O72589   4.457   9.812   3.054  1.0564  0.3637 -0.6148
  527MOL0     C72590   4.565   9.789   3.001 -0.2135 -0.7566 -0.7877
  527MOL0     O72591   4.596   9.681   2.927  0.2098  0.1367 -0.0001
  527MOL0     C72592   4.501   9.581   2.931 -0.2506  0.2083 -0.0807
  527MOL0     C72593   4.452   9.537   2.806 -0.0954  0.0392  0.4772
  527MOL0     C72594   4.366   9.422   2.809 -0.5112  0.6315  0.1778
  527MOL0     C72595   4.330   9.354   2.928 -0.1439 -0.3716 -1.2551
  527MOL0     O72596   4.244   9.246   2.940 -0.2353  0.2093  0.1126
  527MOL0     C72597   4.213   9.166   2.820 -0.1004 -0.0419 -0.2712
  527MOL0     C72598   4.347   9.083   2.814  0.2085  0.2371 -0.0143
  527MOL0     C72599   4.342   8.952   2.899 -0.0101 -0.2716 -0.2888
  527MOL0     C72600   4.460   8.854   2.869 -0.0552  0.0686  0.6223
  527MOL0     C72601   4.437   8.730   2.958 -0.0026 -0.9699 -0.1493
  527MOL0     C72602   4.523   8.622   2.889 -0.6492 -0.1228  0.7580
  527MOL0     C72603   4.531   8.480   2.960  0.5970 -0.0831  0.3209
  527MOL0     C72604   4.618   8.387   2.885 -0.5055  0.0840  0.7213
  527MOL0     N72605   4.608   8.242   2.905  0.6397 -0.3887  0.0196
  527MOL0     C72606   4.597   8.144   2.805 -0.1300 -0.0456 -0.1396
  527MOL0     C72607   4.593   8.032   2.882  0.5242  1.0469  0.5698
  527MOL0     C72608   4.602   7.891   2.820  0.5358  0.1273  0.2949
  527MOL0     C72609   4.726   7.817   2.876  0.0633 -0.6743  0.4104
  527MOL0     C72610   4.755   7.695   2.784  0.1778  0.3422 -0.4755
  527MOL0     C72611   4.811   7.578   2.865  0.9269  0.7198  0.4041
  527MOL0     O72612   4.804   7.464   2.779  0.4121 -0.3624 -0.5856
  527MOL0     C72613   4.781   7.345   2.851  0.1744 -0.5367 -0.6479
  527MOL0     C72614   4.702   7.256   2.791 -0.3897  0.9065  0.8679
  527MOL0     C72615   4.665   7.130   2.849 -0.5982 -0.9240  0.3542
  527MOL0     C72616   4.574   7.036   2.768  0.7122  0.6754  0.2597
  527MOL0     C72617   4.701   7.110   2.979  0.7319  0.4619 -0.3491
  527MOL0     C72618   4.686   6.983   3.043  0.5712 -0.4632 -0.3583
  527MOL0     O72619   4.720   6.870   2.969  0.1549  0.2884 -0.3680
  527MOL0     C72620   4.741   6.745   3.022  0.4667  0.3938  0.0234
  527MOL0     C72621   4.832   6.733   3.129  1.0342  0.0762 -1.0449
  527MOL0     C72622   4.848   6.612   3.189  0.7654  0.7266 -0.5297
  527MOL0     C72623   4.769   6.501   3.141 -0.2934 -0.6668  0.5277
  527MOL0     O72624   4.790   6.371   3.186 -0.2235 -0.2299  0.5803
  527MOL0     C72625   4.908   6.331   3.259 -1.1488 -0.5338  0.3913
  527MOL0     C72626   4.952   6.203   3.201  0.3805  0.9205 -0.0400
  527MOL0     C72627   4.961   6.176   3.055  0.0301  0.3364 -0.6346
  527MOL0     C72628   5.082   6.243   2.991  0.0937  0.5214  0.3192
  527MOL0     C72629   5.105   6.181   2.857 -0.0913  0.7367 -0.5627
  527MOL0     C72630   5.218   6.251   2.789  0.4610 -0.6187 -0.1935
  527MOL0     C72631   5.268   6.195   2.649  0.6950 -0.8669  0.1533
  527MOL0     C72632   5.292   6.326   2.567  0.4395  0.4539  0.1212
  527MOL0    Cl72633   5.152   6.399   2.474  0.3364  0.3616  0.3100
  527MOL0     C72634   4.682   6.514   3.039 -0.7538 -0.0137  0.0584
  527MOL0     C72635   4.662   6.636   2.981  0.3590 -0.1187  0.3705
  527MOL0     O72636   4.654   6.982   3.161  0.1320 -0.2051  0.5706
  527MOL0     C72637   4.797   7.195   3.042  0.0015 -0.4223  0.7010
  527MOL0     C72638   4.826   7.324   2.979 -0.5893  0.9547 -0.2582
  527MOL0     N72639   4.572   8.053   3.022  0.0884 -0.9784 -0.8710
  527MOL0     N72640   4.585   8.184   3.029  0.4787  0.2662  0.4923
  527MOL0     C72641   4.386   9.396   3.052  0.0555 -0.0006  0.1181
  527MOL0     C72642   4.466   9.511   3.050 -0.6949 -0.0056  0.1953
  527MOL0     C72643   4.666   9.897   3.032  0.9093 -0.3338 -0.2688
  527MOL0     C72644   4.629  10.035   3.051 -0.3267  0.2357 -0.3754
  527MOL0     C72645   4.719  10.136   3.073  0.4684 -0.3234 -0.7618
  527MOL0     C72646   4.848  10.102   3.083 -0.5885  0.3398 -0.3828
  527MOL0     O72647   4.949  10.199   3.085 -0.0237  0.4209 -0.5325
  527MOL0     C72648   4.921  10.336   3.102 -0.2338 -0.1082 -0.3688
  527MOL0     C72649   5.057  10.416   3.117  0.4248  0.4538 -0.4412
  527MOL0     C72650   5.146  10.351   3.221 -0.0149  0.0899 -0.2841
  527MOL0     C72651   5.246  10.465   3.261 -0.8719 -0.2698 -0.1017
  527MOL0     C72652   5.338  10.402   3.358 -0.4957 -0.4784 -0.3810
  527MOL0     C72653   5.427  10.356   3.424 -0.2559 -0.6648 -0.1617
  527MOL0     C72654   4.887   9.961   3.078 -0.3284  0.6890 -0.0259
  527MOL0     C72655   4.797   9.863   3.056  0.2760  0.2850 -0.2756
  527MOL0     C72656   4.843   9.723   3.055 -0.8190  0.9618  0.4519
  527MOL0     H72657   4.477   9.593   2.716  1.5169 -0.0642  0.8223
  527MOL0     H72658   4.320   9.394   2.715 -0.4635 -0.6178  0.5011
  527MOL0     H72659   4.200   9.217   2.724  2.5703  1.5250  0.0855
  527MOL0     H72660   4.126   9.101   2.835 -0.8306  1.0779  0.4288
  527MOL0     H72661   4.353   9.062   2.707 -0.8611  5.1310 -1.2874
  527MOL0     H72662   4.439   9.133   2.847  0.7901 -1.2483  0.6863
  527MOL0     H72663   4.327   8.990   3.000  2.9746 -3.4744  1.6019
  527MOL0     H72664   4.248   8.897   2.884 -1.6106  1.3329  2.9270
  527MOL0     H72665   4.450   8.820   2.765 -0.5035  0.0115  0.6808
  527MOL0     H72666   4.561   8.885   2.897 -0.0179  0.3667  0.1692
  527MOL0     H72667   4.329   8.713   2.952 -1.4073  5.3760 -5.8135
  527MOL0     H72668   4.473   8.755   3.058  0.3549  0.1781 -0.5521
  527MOL0     H72669   4.491   8.599   2.786  3.1446  0.5590 -0.7295
  527MOL0     H72670   4.617   8.673   2.866 -0.2316 -1.1315  0.1633
  527MOL0     H72671   4.433   8.431   2.961 -0.8081  2.5471  0.9350
  527MOL0     H72672   4.563   8.495   3.063  0.5871  2.8656 -0.0161
  527MOL0     H72673   4.624   8.420   2.780  0.9828  1.2757  1.1551
  527MOL0     H72674   4.721   8.413   2.910 -0.0912  0.0072 -0.7571
  527MOL0     H72675   4.578   8.147   2.698  0.1748 -1.8586 -0.2848
  527MOL0     H72676   4.598   7.905   2.711  2.4961 -1.2996 -0.0251
  527MOL0     H72677   4.508   7.842   2.847  0.2330  0.9026  0.7011
  527MOL0     H72678   4.815   7.880   2.891  0.4973 -1.7847  3.0285
  527MOL0     H72679   4.693   7.795   2.977 -2.9486 -0.3829 -0.4180
  527MOL0     H72680   4.664   7.650   2.743 -1.5484  1.0511  2.3105
  527MOL0     H72681   4.812   7.732   2.699 -1.0692 -2.3731 -2.6323
  527MOL0     H72682   4.916   7.599   2.888  1.1072  0.0752  0.2105
  527MOL0     H72683   4.752   7.560   2.956 -0.4199  0.8226 -0.4297
  527MOL0     H72684   4.660   7.293   2.698 -2.3493 -0.9936  0.8942
  527MOL0     H72685   4.602   7.044   2.662  0.0851 -2.1881 -0.2128
  527MOL0     H72686   4.466   7.054   2.764 -0.0757 -2.9422  1.6704
  527MOL0     H72687   4.580   6.929   2.792 -0.7916  0.9535  2.1685
  527MOL0     H72688   4.869   6.827   3.170 -3.8769  1.5497  0.7410
  527MOL0     H72689   4.911   6.609   3.277 -2.3102  2.5375  1.9487
  527MOL0     H72690   4.993   6.400   3.248  0.3640 -2.1971  1.1266
  527MOL0     H72691   4.893   6.313   3.366  1.5683  1.8899  1.3224
  527MOL0     H72692   5.054   6.180   3.233  0.2301 -0.9432 -0.7458
  527MOL0     H72693   4.882   6.129   3.241 -0.6981  0.6987 -2.1974
  527MOL0     H72694   4.871   6.217   3.008 -0.6455  0.0610  0.3791
  527MOL0     H72695   4.979   6.074   3.020 -0.7342  0.7459 -2.3026
  527MOL0     H72696   5.175   6.226   3.046  1.9985 -2.6358 -3.4027
  527MOL0     H72697   5.057   6.349   2.985 -0.0379  0.4936  0.3535
  527MOL0     H72698   5.144   6.081   2.880 -0.3677  0.7210 -0.1473
  527MOL0     H72699   5.020   6.166   2.791 -1.1712 -0.0266  0.9330
  527MOL0     H72700   5.302   6.260   2.858  0.3046 -1.1880  0.0803
  527MOL0     H72701   5.194   6.356   2.771  0.8570 -0.4084  0.4911
  527MOL0     H72702   5.186   6.134   2.609  1.7322 -2.9746  1.0950
  527MOL0     H72703   5.362   6.141   2.649  1.4445  0.3823  1.6905
  527MOL0     H72704   5.375   6.319   2.495  1.7465  0.2547  1.5991
  527MOL0     H72705   5.325   6.399   2.641  0.6263 -2.5952  3.3069
  527MOL0     H72706   4.624   6.442   2.983  0.3838 -0.8053 -0.1372
  527MOL0     H72707   4.611   6.635   2.885  2.0223  0.3359 -0.5599
  527MOL0     H72708   4.835   7.178   3.142 -1.4526 -0.8601  1.2197
  527MOL0     H72709   4.904   7.383   3.026  3.0232 -2.9090 -0.7619
  527MOL0     H72710   4.358   9.354   3.148 -0.2685 -2.8512 -1.1271
  527MOL0     H72711   4.495   9.554   3.145 -1.2451 -0.1802  0.4466
  527MOL0     H72712   4.522  10.050   3.041 -0.7857 -3.1572 -2.3346
  527MOL0     H72713   4.680  10.237   3.080 -0.1306 -0.6294  0.6268
  527MOL0     H72714   4.863  10.371   3.016  1.2576  1.6423 -0.7428
  527MOL0     H72715   4.869  10.354   3.197  0.7202  2.1999 -0.2152
  527MOL0     H72716   5.031  10.522   3.122 -3.2616 -0.2557 -1.2149
  527MOL0     H72717   5.104  10.414   3.018 -0.7823 -1.9495 -1.0445
  527MOL0     H72718   5.090  10.330   3.312  0.8449  2.0708  0.7539
  527MOL0     H72719   5.192  10.261   3.179  2.8083  1.8320 -1.2070
  527MOL0     H72720   5.190  10.551   3.301 -0.8042  1.9133 -4.1718
  527MOL0     H72721   5.306  10.519   3.187 -0.0733  0.7701  1.2612
  527MOL0     H72722   5.523  10.321   3.458  1.0839  2.1817 -0.7463
  527MOL0     H72723   4.990   9.933   3.097  0.0031  1.8953  0.0234
  527MOL0     H72724   4.946   9.721   3.090 -0.4557  0.2545 -0.6195
  527MOL0     H72725   4.785   9.661   3.123 -0.9612  0.1364 -0.4058
  527MOL0     H72726   4.845   9.686   2.952 -3.5583 -0.0488  0.6565
  528MOL0     O72727   5.527   3.638   6.875  0.0253 -0.0952 -0.4952
  528MOL0     C72728   5.547   3.595   6.990 -0.0980 -0.1639 -0.0605
  528MOL0     O72729   5.579   3.676   7.097  0.2758  0.4140 -0.0112
  528MOL0     C72730   5.619   3.617   7.210  0.3501 -0.2452  0.4384
  528MOL0     C72731   5.755   3.589   7.232 -0.6992 -0.6786 -0.7480
  528MOL0     C72732   5.810   3.535   7.349 -0.4485 -0.2864  0.7153
  528MOL0     C72733   5.717   3.498   7.447  0.6656  0.3284  0.5573
  528MOL0     O72734   5.775   3.446   7.562  0.5476  0.3040 -0.2611
  528MOL0     C72735   5.692   3.460   7.680  0.7595 -0.7202  0.4758
  528MOL0     C72736   5.784   3.469   7.803 -0.0297  0.1809 -0.1341
  528MOL0     C72737   5.849   3.610   7.827 -1.0350 -0.3203  0.3869
  528MOL0     C72738   5.949   3.595   7.940 -0.2891 -0.2723 -0.5539
  528MOL0     C72739   5.992   3.733   7.975  0.2982  1.2165  0.6691
  528MOL0     C72740   6.105   3.721   8.076 -0.2787 -0.9615 -0.3642
  528MOL0     C72741   6.149   3.865   8.125 -0.7031  0.2737 -0.6212
  528MOL0     C72742   6.282   3.851   8.199 -0.6485  0.4916  0.1794
  528MOL0     N72743   6.269   3.801   8.336 -0.1688 -0.3233 -0.2215
  528MOL0     C72744   6.374   3.739   8.404  0.1706 -0.0647  0.8103
  528MOL0     C72745   6.342   3.740   8.530  1.5169  0.0745 -0.3735
  528MOL0     C72746   6.407   3.674   8.655 -0.3290 -0.0597 -0.3885
  528MOL0     C72747   6.470   3.789   8.750  0.0761 -0.9724 -0.3193
  528MOL0     C72748   6.469   3.761   8.904 -0.5925  0.5267  0.4797
  528MOL0     C72749   6.493   3.618   8.945 -0.1454 -0.1311  0.2556
  528MOL0     O72750   6.531   3.613   9.082 -0.0389 -0.1075 -0.2363
  528MOL0     C72751   6.566   3.482   9.129 -0.4421 -0.7536  0.0623
  528MOL0     C72752   6.553   3.362   9.055  0.0940  0.0866  0.3949
  528MOL0     C72753   6.576   3.241   9.109  0.3779  0.1934 -0.8469
  528MOL0     C72754   6.582   3.131   9.007  0.7039  1.0020  0.5010
  528MOL0     C72755   6.601   3.221   9.247  0.9275 -0.2160 -0.1429
  528MOL0     C72756   6.620   3.081   9.310  0.0779  0.2883 -0.2876
  528MOL0     O72757   6.649   3.085   9.439 -0.1291  0.3492 -0.4027
  528MOL0     C72758   6.629   2.968   9.510 -0.4187  0.6232 -0.3071
  528MOL0     C72759   6.514   2.967   9.587  1.1141 -0.5789 -0.0753
  528MOL0     C72760   6.482   2.853   9.664  0.2452 -0.6421 -0.3639
  528MOL0     C72761   6.568   2.748   9.661 -0.4916  1.1463  0.0946
  528MOL0     O72762   6.527   2.640   9.731 -0.6462 -0.3800 -0.4656
  528MOL0     C72763   6.518   2.518   9.655 -0.9667  0.4601  0.0746
  528MOL0     C72764   6.403   2.415   9.694  0.2229 -1.1341 -0.0348
  528MOL0     C72765   6.465   2.285   9.743 -0.6687 -0.5734  0.0356
  528MOL0     C72766   6.356   2.168   9.762  0.2239 -0.5148  0.0072
  528MOL0     C72767   6.441   2.040   9.803  0.1848  0.9480  0.1566
  528MOL0     C72768   6.352   1.913   9.835  0.1196  1.0242  0.3037
  528MOL0     C72769   6.433   1.808   9.899 -0.7211 -0.8411 -0.4558
  528MOL0     C72770   6.401   1.785  10.055 -0.0575 -0.7717  0.4036
  528MOL0    Cl72771   6.272   1.662  10.086  0.0281 -0.2828  0.4622
  528MOL0     C72772   6.690   2.749   9.584  0.3751  0.4701  0.4699
  528MOL0     C72773   6.716   2.863   9.507  0.4935  0.0145 -0.1941
  528MOL0     O72774   6.584   2.983   9.252  0.1976  0.0788  0.6669
  528MOL0     C72775   6.634   3.340   9.315 -0.4213  0.9952 -0.1039
  528MOL0     C72776   6.606   3.467   9.261  0.3052  0.0795 -0.6052
  528MOL0     N72777   6.209   3.799   8.537  0.6117  0.0256 -0.4522
  528MOL0     N72778   6.172   3.833   8.422 -0.2646  1.1129  0.0017
  528MOL0     C72779   5.580   3.512   7.424  0.0178  0.1894 -0.3530
  528MOL0     C72780   5.536   3.575   7.306 -0.0361 -0.1379 -0.2864
  528MOL0     C72781   5.516   3.449   7.010 -0.7910  0.6815 -1.1187
  528MOL0     C72782   5.394   3.406   7.048  1.4661 -0.5856 -0.4899
  528MOL0     C72783   5.355   3.276   7.039  0.2951 -0.1786  0.2119
  528MOL0     C72784   5.444   3.182   6.985  0.4914  0.0679  0.9645
  528MOL0     O72785   5.421   3.048   6.994 -0.7573 -0.6668  0.7847
  528MOL0     C72786   5.293   2.998   7.037 -0.9217  0.8355 -0.0443
  528MOL0     C72787   5.313   2.839   7.070 -0.1778 -0.6663  0.6939
  528MOL0     C72788   5.377   2.760   6.960 -0.8696  0.4706 -0.4650
  528MOL0     C72789   5.303   2.751   6.832  0.0194  0.4977  0.6916
  528MOL0     C72790   5.196   2.658   6.835 -0.3109  0.2608  0.2158
  528MOL0     C72791   5.090   2.588   6.846 -1.0936  0.1211  0.3627
  528MOL0     C72792   5.567   3.220   6.936 -0.1247  0.8057 -0.3007
  528MOL0     C72793   5.607   3.351   6.951 -0.5839  0.4346 -0.7070
  528MOL0     C72794   5.741   3.401   6.898 -0.4814  0.0489 -0.1257
  528MOL0     H72795   5.824   3.628   7.157 -3.0441  1.8762 -1.7660
  528MOL0     H72796   5.916   3.515   7.358  0.0550  0.5963 -2.0953
  528MOL0     H72797   5.636   3.368   7.702 -3.6681  2.3377  3.5528
  528MOL0     H72798   5.625   3.545   7.671  2.2255  0.4507  0.2640
  528MOL0     H72799   5.726   3.430   7.887 -0.7502  1.0434 -0.2217
  528MOL0     H72800   5.865   3.397   7.788 -0.1113  0.3982 -1.7729
  528MOL0     H72801   5.893   3.638   7.731  2.4888 -2.3854  1.2017
  528MOL0     H72802   5.773   3.682   7.860  2.6391  5.1667 -1.7047
  528MOL0     H72803   5.911   3.535   8.023 -0.0042  1.0561  0.5767
  528MOL0     H72804   6.033   3.533   7.908  1.1382  0.6583  1.1864
  528MOL0     H72805   5.908   3.791   8.014  0.5451  2.2455 -0.2983
  528MOL0     H72806   6.031   3.781   7.885 -0.4989 -0.1111 -0.4231
  528MOL0     H72807   6.066   3.668   8.163  0.0421 -0.2780  0.2067
  528MOL0     H72808   6.195   3.675   8.032  1.4940 -0.2131  2.2450
  528MOL0     H72809   6.070   3.898   8.193 -1.4845  1.6013 -2.0982
  528MOL0     H72810   6.147   3.940   8.045  1.3546  2.1253  0.9602
  528MOL0     H72811   6.352   3.792   8.139  0.5293  1.6775  0.3402
  528MOL0     H72812   6.337   3.946   8.205  6.0285 -2.9083  2.4825
  528MOL0     H72813   6.456   3.692   8.350 -1.7455  1.4722 -3.9831
  528MOL0     H72814   6.490   3.604   8.640  0.3672  0.0168  2.4693
  528MOL0     H72815   6.334   3.622   8.717  0.6304 -1.3941 -0.3420
  528MOL0     H72816   6.573   3.811   8.718 -0.2677 -0.3336 -1.0089
  528MOL0     H72817   6.411   3.879   8.735 -0.8862 -1.0352  2.5462
  528MOL0     H72818   6.555   3.815   8.946 -0.1216  0.4500 -0.3673
  528MOL0     H72819   6.377   3.803   8.946 -0.7144 -0.9786  1.8242
  528MOL0     H72820   6.401   3.561   8.955  0.6885 -1.2430  1.9439
  528MOL0     H72821   6.567   3.577   8.876  0.1803 -3.8037  2.5092
  528MOL0     H72822   6.520   3.351   8.953 -1.2860  1.4115  0.6601
  528MOL0     H72823   6.662   3.060   9.026  1.2623  1.4750 -0.0295
  528MOL0     H72824   6.605   3.162   8.905  0.6079  1.5312  0.6337
  528MOL0     H72825   6.488   3.076   9.016  1.2558  0.3089  2.6740
  528MOL0     H72826   6.448   3.051   9.604  3.8436  1.2851  2.0402
  528MOL0     H72827   6.390   2.845   9.721  0.9243 -3.5130  0.4893
  528MOL0     H72828   6.512   2.546   9.549  0.1138  1.0925  0.1766
  528MOL0     H72829   6.615   2.473   9.676 -0.1634  1.6143 -0.9983
  528MOL0     H72830   6.343   2.454   9.777 -1.6486 -0.5316 -1.5956
  528MOL0     H72831   6.344   2.397   9.604  0.1590 -0.9793 -0.0229
  528MOL0     H72832   6.513   2.305   9.839 -2.5779 -2.6649  1.5137
  528MOL0     H72833   6.542   2.251   9.673  0.9424  0.1924  1.3888
  528MOL0     H72834   6.293   2.150   9.675 -0.1149  2.3780 -0.4449
  528MOL0     H72835   6.284   2.201   9.837 -1.0455 -2.3702 -0.3180
  528MOL0     H72836   6.500   2.010   9.717  0.0188 -0.5920  0.5512
  528MOL0     H72837   6.496   2.067   9.894 -1.0338 -0.0618  1.2326
  528MOL0     H72838   6.305   1.875   9.744 -1.0201 -0.9400  1.6450
  528MOL0     H72839   6.270   1.948   9.897 -1.0917  2.2818 -1.8842
  528MOL0     H72840   6.541   1.821   9.885 -0.4686 -2.5244 -0.4014
  528MOL0     H72841   6.401   1.710   9.861 -0.4193 -1.2111  0.2196
  528MOL0     H72842   6.383   1.883  10.102  2.8386  0.1272 -0.1724
  528MOL0     H72843   6.493   1.752  10.105  0.6943  1.0292  0.2968
  528MOL0     H72844   6.757   2.664   9.584  0.7511  0.5928 -3.4339
  528MOL0     H72845   6.806   2.871   9.447  0.4958 -2.5928 -0.6449
  528MOL0     H72846   6.654   3.328   9.421  1.1762  2.7364 -0.1427
  528MOL0     H72847   6.632   3.539   9.338  3.1858 -4.4676  3.1902
  528MOL0     H72848   5.517   3.459   7.495  2.2575  2.1860  3.4873
  528MOL0     H72849   5.430   3.583   7.286 -0.6322  0.2817  2.5490
  528MOL0     H72850   5.316   3.479   7.068  0.8995 -1.1642 -0.5632
  528MOL0     H72851   5.259   3.247   7.082 -0.6943  2.0340 -0.3303
  528MOL0     H72852   5.268   3.047   7.132 -1.7323  1.1739 -0.4208
  528MOL0     H72853   5.206   3.011   6.972 -2.5379 -0.8115  1.6577
  528MOL0     H72854   5.212   2.797   7.083 -0.2503 -1.7280 -2.4832
  528MOL0     H72855   5.379   2.853   7.156  1.8690 -0.0835 -0.9243
  528MOL0     H72856   5.483   2.787   6.952  0.0132 -1.8167  2.0846
  528MOL0     H72857   5.377   2.655   6.990 -0.7264  0.5700 -0.1154
  528MOL0     H72858   5.363   2.741   6.741 -1.7733  2.0752 -0.7408
  528MOL0     H72859   5.237   2.838   6.823 -0.5116  0.5336  3.6782
  528MOL0     H72860   5.003   2.527   6.853 -1.8444  1.0941 -0.1015
  528MOL0     H72861   5.635   3.147   6.893 -0.3804  0.7234 -0.5675
  528MOL0     H72862   5.809   3.324   6.862 -1.2557  0.5651 -2.8956
  528MOL0     H72863   5.723   3.467   6.813 -0.5122 -1.0654 -0.9947
  528MOL0     H72864   5.788   3.445   6.986 -1.2561 -1.7583  1.2683
  529MOL0     O72865   9.537   2.918   7.503 -0.1079  0.5376 -0.2971
  529MOL0     C72866   9.490   2.825   7.575  0.0088 -1.3167 -0.1093
  529MOL0     O72867   9.472   2.831   7.711  0.3747  0.3559  0.1580
  529MOL0     C72868   9.559   2.913   7.787  1.5453  0.1003  0.1459
  529MOL0     C72869   9.495   2.960   7.897 -0.2822 -0.6739 -0.1624
  529MOL0     C72870   9.555   3.062   7.981 -0.3459 -0.8507  0.4873
  529MOL0     C72871   9.687   3.108   7.946  0.2015  0.6011 -0.3779
  529MOL0     O72872   9.767   3.189   8.019 -0.0746  0.1439  0.9814
  529MOL0     C72873   9.720   3.228   8.156 -0.3421 -0.1058 -0.2463
  529MOL0     C72874   9.850   3.254   8.235  0.0035  0.3412  0.0055
  529MOL0     C72875   9.919   3.123   8.285 -0.0190  0.4434  0.5385
  529MOL0     C72876   9.872   3.072   8.425 -0.7543  0.1156 -0.4761
  529MOL0     C72877   9.911   2.929   8.468 -0.1181 -0.6186  0.5453
  529MOL0     C72878   9.895   2.903   8.620  0.5805 -0.6396 -0.5274
  529MOL0     C72879   9.937   3.015   8.713 -0.2324  0.4814  0.2916
  529MOL0     C72880   9.938   2.979   8.866  0.5076  0.5967 -0.5580
  529MOL0     N72881  10.065   2.954   8.927  0.6668  0.6977 -0.9582
  529MOL0     C72882  10.152   3.051   8.968 -0.0260  0.2715 -0.8403
  529MOL0     C72883  10.261   2.987   9.011 -0.2312  0.5863 -1.5039
  529MOL0     C72884  10.392   3.055   9.042 -0.7696  1.3545 -0.9241
  529MOL0     C72885  10.425   3.160   8.939 -1.0614  0.0505 -0.0570
  529MOL0     C72886  10.466   3.122   8.795  0.3191 -0.2315 -0.3386
  529MOL0     C72887  10.386   3.022   8.710 -0.0380  0.1198 -0.4225
  529MOL0     O72888  10.444   3.016   8.579 -0.5889 -0.5900  0.0944
  529MOL0     C72889  10.391   2.931   8.495  0.2744 -0.6522 -0.2835
  529MOL0     C72890  10.428   2.804   8.505 -0.4451  0.5395 -0.3671
  529MOL0     C72891  10.396   2.696   8.422  0.2792 -0.0696  1.2454
  529MOL0     C72892  10.435   2.560   8.454 -0.6112 -0.0590  0.1204
  529MOL0     C72893  10.313   2.732   8.306 -0.5188 -0.2070 -0.5417
  529MOL0     C72894  10.275   2.633   8.205  0.9084 -0.2464 -0.2523
  529MOL0     O72895  10.379   2.564   8.152  0.6714  0.4453  0.5159
  529MOL0     C72896  10.346   2.483   8.044 -0.5033  0.5687  0.4830
  529MOL0     C72897  10.279   2.521   7.924  1.1685  0.0217  0.3868
  529MOL0     C72898  10.260   2.421   7.819 -0.3641  1.3176  0.1793
  529MOL0     C72899  10.327   2.288   7.829 -0.1283 -0.4135 -0.6362
  529MOL0     O72900  10.298   2.172   7.746 -0.4618 -0.2952 -0.8760
  529MOL0     C72901  10.226   2.192   7.627 -0.0022  0.4186  0.7920
  529MOL0     C72902  10.172   2.065   7.564  0.3593 -0.0547  0.8115
  529MOL0     C72903  10.284   1.981   7.523  0.3074 -0.1089  0.3172
  529MOL0     C72904  10.242   1.854   7.450  1.2541 -0.9076  0.5414
  529MOL0     C72905  10.367   1.775   7.389  1.0096 -0.5177  0.4085
  529MOL0     C72906  10.462   1.698   7.484 -0.1934  0.2621  0.5308
  529MOL0     C72907  10.586   1.645   7.422 -0.2626  0.2371 -0.4919
  529MOL0     C72908  10.679   1.591   7.531  0.5658  0.4908 -0.0192
  529MOL0    Cl72909  10.612   1.442   7.608  0.3790  0.1261  0.3581
  529MOL0     C72910  10.406   2.269   7.937 -0.1491  0.1729  0.2472
  529MOL0     C72911  10.418   2.358   8.042  0.3825 -0.3255 -0.0192
  529MOL0     O72912  10.149   2.624   8.177  0.5179  0.6046  0.7467
  529MOL0     C72913  10.274   2.868   8.294  0.1497  0.4511  0.4730
  529MOL0     C72914  10.312   2.971   8.383 -0.1898  0.0666 -0.5605
  529MOL0     N72915  10.240   2.849   9.005  0.4058 -0.6540  0.8075
  529MOL0     N72916  10.123   2.827   8.948 -0.2124  0.2250 -0.2659
  529MOL0     C72917   9.751   3.043   7.836  0.2724  0.0626 -0.0405
  529MOL0     C72918   9.693   2.941   7.763  1.2035 -0.4140 -0.5789
  529MOL0     C72919   9.463   2.701   7.506  0.0365 -0.0743 -0.1861
  529MOL0     C72920   9.357   2.630   7.562  0.2746  0.0110 -0.4584
  529MOL0     C72921   9.324   2.501   7.510 -0.5320 -0.5782 -0.0643
  529MOL0     C72922   9.378   2.454   7.392 -0.5796 -1.1803 -0.3546
  529MOL0     O72923   9.365   2.338   7.320 -0.6917 -0.3906 -0.4120
  529MOL0     C72924   9.294   2.236   7.386  0.1389 -0.0829 -0.0178
  529MOL0     C72925   9.293   2.109   7.297 -0.4253  0.6983 -0.7173
  529MOL0     C72926   9.172   2.024   7.342 -0.6081 -1.0106  0.9672
  529MOL0     C72927   9.157   1.891   7.272 -0.1980 -0.1259 -0.1017
  529MOL0     C72928   9.159   1.909   7.125  0.0024  0.1893  0.8733
  529MOL0     C72929   9.164   1.936   7.001 -0.2361  0.2397 -0.1969
  529MOL0     C72930   9.482   2.534   7.340 -1.0123 -0.7953  0.4306
  529MOL0     C72931   9.537   2.654   7.400  0.2029 -0.1498  1.6626
  529MOL0     C72932   9.654   2.715   7.345 -0.0513 -0.4297 -0.1115
  529MOL0     H72933   9.401   2.915   7.925 -0.3623 -1.9778 -2.3455
  529MOL0     H72934   9.514   3.096   8.075  5.9995 -0.1659  3.5510
  529MOL0     H72935   9.664   3.151   8.210 -0.1206  0.1358  0.3391
  529MOL0     H72936   9.663   3.321   8.153  0.9857  0.7431 -3.2992
  529MOL0     H72937   9.919   3.302   8.164  0.1871 -1.3231 -1.0049
  529MOL0     H72938   9.843   3.324   8.318  2.0055 -0.5707  1.0163
  529MOL0     H72939   9.900   3.036   8.222 -3.9069  2.1197 -0.8914
  529MOL0     H72940  10.024   3.151   8.296  0.2234  0.4218 -1.5130
  529MOL0     H72941   9.894   3.153   8.495 -0.5532 -1.4089  1.2948
  529MOL0     H72942   9.763   3.064   8.413 -0.6764 -0.3699 -0.8623
  529MOL0     H72943  10.018   2.917   8.448 -0.3354 -0.7913 -0.5918
  529MOL0     H72944   9.862   2.861   8.397 -2.9117  0.7184  1.0764
  529MOL0     H72945   9.789   2.890   8.646  1.4091 -1.0103  3.1667
  529MOL0     H72946   9.951   2.815   8.654  1.4513  0.2891  0.5025
  529MOL0     H72947   9.868   3.099   8.704  1.4188  1.9060  0.4397
  529MOL0     H72948  10.042   3.040   8.693 -0.1413 -0.0977  0.0313
  529MOL0     H72949   9.880   3.058   8.916 -1.8136 -0.1998 -1.8205
  529MOL0     H72950   9.886   2.883   8.872  1.7630 -0.0785 -0.0270
  529MOL0     H72951  10.134   3.157   8.960 -1.4902  0.1905  0.8109
  529MOL0     H72952  10.466   2.974   9.051 -0.3451  1.9655  2.3890
  529MOL0     H72953  10.392   3.088   9.146 -1.8615 -0.9647 -0.1000
  529MOL0     H72954  10.337   3.224   8.925  0.8129  2.3316 -2.4103
  529MOL0     H72955  10.505   3.225   8.975  0.7565  0.3481 -4.0860
  529MOL0     H72956  10.483   3.209   8.730  1.8210 -2.6158 -3.3860
  529MOL0     H72957  10.560   3.066   8.797  0.6499  0.2593 -1.4834
  529MOL0     H72958  10.365   2.925   8.754  2.0892  0.9000  2.6586
  529MOL0     H72959  10.290   3.074   8.701 -0.6131 -0.7775  0.3795
  529MOL0     H72960  10.497   2.778   8.584 -0.1091  2.0725 -0.1196
  529MOL0     H72961  10.493   2.506   8.379  2.6462  1.4475  1.3624
  529MOL0     H72962  10.335   2.518   8.472 -1.1065  1.2360  0.4823
  529MOL0     H72963  10.498   2.565   8.543 -0.7397 -1.9245  0.3658
  529MOL0     H72964  10.236   2.620   7.911  0.7229  0.3010  3.2770
  529MOL0     H72965  10.193   2.461   7.743 -2.1495  0.1062  1.0316
  529MOL0     H72966  10.141   2.256   7.651 -1.7163 -1.0553 -1.0176
  529MOL0     H72967  10.290   2.246   7.557  0.2700 -1.9116 -0.8689
  529MOL0     H72968  10.110   2.011   7.638 -1.0305  0.7885  0.2958
  529MOL0     H72969  10.109   2.092   7.479  1.2723  1.8414  0.6896
  529MOL0     H72970  10.347   1.954   7.608 -0.6652 -1.2286  0.7055
  529MOL0     H72971  10.340   2.038   7.448 -1.2123  1.6906  0.4896
  529MOL0     H72972  10.186   1.882   7.360  0.4862 -2.8384  0.3618
  529MOL0     H72973  10.172   1.791   7.505 -1.1815 -0.7471 -2.1114
  529MOL0     H72974  10.337   1.693   7.323  2.3529 -0.6367 -0.0826
  529MOL0     H72975  10.425   1.853   7.339 -0.7384 -0.0162 -0.9706
  529MOL0     H72976  10.405   1.616   7.529 -0.1231 -0.1823 -0.1772
  529MOL0     H72977  10.504   1.762   7.563  1.3364  0.0696 -0.0829
  529MOL0     H72978  10.641   1.727   7.375  1.9286 -0.2426  1.0601
  529MOL0     H72979  10.554   1.570   7.349  0.6903 -1.6087  0.8756
  529MOL0     H72980  10.692   1.673   7.603 -2.5496  1.3553 -0.2938
  529MOL0     H72981  10.765   1.547   7.479 -2.7901 -4.1811 -2.3001
  529MOL0     H72982  10.455   2.172   7.933  1.0385  0.7919 -2.6408
  529MOL0     H72983  10.493   2.320   8.110 -1.6423 -4.0451  0.4044
  529MOL0     H72984  10.209   2.899   8.213 -0.6649  0.6104  1.1690
  529MOL0     H72985  10.285   3.075   8.380  2.2252  0.8915  1.8176
  529MOL0     H72986   9.851   3.076   7.809  0.1909  1.7170  1.5327
  529MOL0     H72987   9.743   2.884   7.685  2.2422 -2.9144  1.7633
  529MOL0     H72988   9.319   2.662   7.659 -2.3222  3.7444 -2.4648
  529MOL0     H72989   9.235   2.452   7.548  0.1522 -3.0441 -1.4289
  529MOL0     H72990   9.347   2.216   7.480 -2.4340 -1.9160  1.1809
  529MOL0     H72991   9.191   2.260   7.417  0.8110 -0.9081  3.3318
  529MOL0     H72992   9.389   2.058   7.314 -0.1507  0.9759 -1.4141
  529MOL0     H72993   9.278   2.140   7.193  1.2026  0.4408 -1.0517
  529MOL0     H72994   9.179   2.012   7.451 -5.5755  0.3077  1.6772
  529MOL0     H72995   9.077   2.078   7.336 -1.3332 -2.2758  0.6656
  529MOL0     H72996   9.061   1.842   7.287 -1.2309  1.9235  0.3772
  529MOL0     H72997   9.231   1.815   7.296  0.2738  0.0316 -0.9930
  529MOL0     H72998   9.168   1.978   6.903  0.8430  0.3899 -0.0934
  529MOL0     H72999   9.536   2.488   7.258 -0.0006  0.1532  0.5414
  529MOL0     H73000   9.700   2.658   7.263 -0.1603 -1.1100  0.2939
  529MOL0     H73001   9.649   2.820   7.314 -1.6838 -0.3590  0.3268
  529MOL0     H73002   9.733   2.710   7.420  0.7358 -1.1123 -0.9607
  530MOL0     O73003   5.387   6.935   8.153  0.1749 -0.2355 -1.0409
  530MOL0     C73004   5.445   6.935   8.261 -0.3987  0.8246  0.4210
  530MOL0     O73005   5.468   7.035   8.345 -0.2743 -0.3198 -0.1373
  530MOL0     C73006   5.449   7.164   8.297 -0.3999  0.2895  0.2817
  530MOL0     C73007   5.356   7.240   8.356  0.2029 -0.1198  1.0642
  530MOL0     C73008   5.350   7.377   8.322  0.5074  0.3046 -0.3277
  530MOL0     C73009   5.428   7.433   8.220 -0.6542  0.7187  0.2614
  530MOL0     O73010   5.386   7.557   8.179 -0.1106 -0.4157  0.2164
  530MOL0     C73011   5.422   7.586   8.035 -0.5689 -0.2981  0.2018
  530MOL0     C73012   5.359   7.722   8.007  0.9942  0.0480 -0.0800
  530MOL0     C73013   5.429   7.844   8.048 -0.3386 -0.3221 -0.9729
  530MOL0     C73014   5.376   7.879   8.194  0.4071 -0.0933  0.7751
  530MOL0     C73015   5.418   8.025   8.242 -0.1907  1.0031 -0.0635
  530MOL0     C73016   5.356   8.089   8.378  0.9074  0.0018  0.4896
  530MOL0     C73017   5.435   8.207   8.434  1.2346  1.1283 -0.1896
  530MOL0     C73018   5.340   8.259   8.547 -1.0360 -0.6918 -0.3131
  530MOL0     N73019   5.412   8.336   8.647 -0.1342 -0.3446 -0.7902
  530MOL0     C73020   5.350   8.443   8.721 -0.8732  0.6892  0.2196
  530MOL0     C73021   5.457   8.498   8.786 -0.3758 -0.1503  0.2306
  530MOL0     C73022   5.445   8.603   8.892 -0.7358  0.5417  1.2327
  530MOL0     C73023   5.407   8.526   9.023  0.1600  0.6801 -0.0552
  530MOL0     C73024   5.514   8.438   9.097 -0.0494  0.0576  0.8125
  530MOL0     C73025   5.663   8.475   9.086  0.0394  0.3661  0.1805
  530MOL0     O73026   5.705   8.563   9.187 -0.2161 -0.5343  0.4897
  530MOL0     C73027   5.837   8.554   9.216 -0.4607 -0.2735  2.0453
  530MOL0     C73028   5.943   8.538   9.123 -0.8294  0.1926  0.1638
  530MOL0     C73029   6.080   8.556   9.161  1.9649  0.9368 -0.0074
  530MOL0     C73030   6.175   8.566   9.049  0.0856  0.7215 -0.1876
  530MOL0     C73031   6.105   8.562   9.305 -0.3335 -0.3628  0.1056
  530MOL0     C73032   6.241   8.552   9.365  0.2184 -0.4109  0.0151
  530MOL0     O73033   6.244   8.573   9.499  0.1578 -0.3259  0.1521
  530MOL0     C73034   6.355   8.544   9.577  0.1063 -0.9143 -1.3986
  530MOL0     C73035   6.466   8.457   9.546 -0.5734  1.3902  0.9637
  530MOL0     C73036   6.577   8.426   9.629  0.0740  0.1761  0.0412
  530MOL0     C73037   6.579   8.497   9.746  0.8154  0.1510 -0.4766
  530MOL0     O73038   6.696   8.484   9.803  0.1861 -0.2672 -0.3666
  530MOL0     C73039   6.766   8.592   9.857  0.0066 -0.1485 -0.4163
  530MOL0     C73040   6.877   8.625   9.766 -0.0506 -0.6191 -0.3034
  530MOL0     C73041   6.862   8.717   9.643  0.8077 -0.1380  1.1779
  530MOL0     C73042   6.870   8.865   9.678  1.0013 -0.0791  0.6029
  530MOL0     C73043   6.909   8.958   9.560 -0.2140 -0.2209 -0.1628
  530MOL0     C73044   7.062   8.992   9.563  0.1313 -0.5445 -0.2471
  530MOL0     C73045   7.103   9.090   9.449 -1.0994  0.2093  0.7873
  530MOL0     C73046   7.252   9.131   9.443 -0.6144  0.9145  0.0922
  530MOL0    Cl73047   7.275   9.271   9.563  0.4795  0.3107 -0.0039
  530MOL0     C73048   6.467   8.579   9.786  0.2171  0.5190  1.2438
  530MOL0     C73049   6.355   8.597   9.702  0.0124 -1.6558  0.0093
  530MOL0     O73050   6.345   8.535   9.296 -0.1933 -0.5133 -0.9020
  530MOL0     C73051   5.997   8.571   9.398 -0.4591 -0.4980 -0.2525
  530MOL0     C73052   5.868   8.565   9.349  0.5089 -0.1897  0.8020
  530MOL0     N73053   5.575   8.421   8.762  0.3713  0.1434  0.1402
  530MOL0     N73054   5.549   8.342   8.666 -0.3450 -0.4514 -0.9909
  530MOL0     C73055   5.528   7.355   8.165 -0.4023  0.1160  0.1200
  530MOL0     C73056   5.542   7.218   8.209 -0.6381  0.0789  0.0385
  530MOL0     C73057   5.481   6.802   8.314  0.4118  0.0236 -0.3768
  530MOL0     C73058   5.615   6.783   8.353  0.2847 -0.4739  0.3378
  530MOL0     C73059   5.665   6.660   8.400 -1.2277  0.1091  0.5806
  530MOL0     C73060   5.576   6.559   8.430  0.2836  0.4060  0.2731
  530MOL0     O73061   5.625   6.438   8.472 -0.6748 -0.5340 -0.7630
  530MOL0     C73062   5.538   6.353   8.557 -0.7043 -0.6560  0.1878
  530MOL0     C73063   5.520   6.396   8.702  0.1357 -0.3465  0.2143
  530MOL0     C73064   5.641   6.394   8.801  0.3231 -0.1341  0.4635
  530MOL0     C73065   5.600   6.398   8.946  0.0538 -0.0552  0.2325
  530MOL0     C73066   5.531   6.277   8.997 -0.9820  0.1123  0.2137
  530MOL0     C73067   5.490   6.182   9.059 -0.3130  1.0481 -0.0948
  530MOL0     C73068   5.439   6.575   8.389 -0.7022  0.5046 -0.1378
  530MOL0     C73069   5.392   6.697   8.325  0.2415 -0.0447  0.4062
  530MOL0     C73070   5.250   6.705   8.280  1.1342 -0.4571  1.3702
  530MOL0     H73071   5.299   7.200   8.440  0.4314  0.0382  1.2943
  530MOL0     H73072   5.273   7.441   8.363  0.9586  2.6386 -2.8593
  530MOL0     H73073   5.373   7.508   7.976 -3.3959 -0.7869  2.8928
  530MOL0     H73074   5.530   7.587   8.016 -0.8800 -0.6122 -1.8436
  530MOL0     H73075   5.345   7.735   7.899  0.9871 -0.9544 -0.2158
  530MOL0     H73076   5.258   7.708   8.045  0.3205 -2.6988 -2.4654
  530MOL0     H73077   5.537   7.831   8.059 -0.0507  2.0362 -0.5285
  530MOL0     H73078   5.407   7.910   7.964 -0.5611  1.0888  0.1653
  530MOL0     H73079   5.267   7.875   8.196  0.2035  1.9688 -1.3714
  530MOL0     H73080   5.394   7.802   8.269 -1.5263 -3.8109 -2.1701
  530MOL0     H73081   5.398   8.098   8.162 -2.0801 -1.3437 -1.8709
  530MOL0     H73082   5.527   8.016   8.242 -0.2190  0.5410  0.8215
  530MOL0     H73083   5.251   8.110   8.359  0.4473  0.8167  3.4930
  530MOL0     H73084   5.339   8.012   8.454  0.3347 -1.6417 -1.2119
  530MOL0     H73085   5.445   8.289   8.362 -3.8690  0.4405 -2.1166
  530MOL0     H73086   5.532   8.177   8.475  0.2983  0.9626  2.0396
  530MOL0     H73087   5.256   8.317   8.508  1.1393  2.1074 -1.1945
  530MOL0     H73088   5.294   8.177   8.603 -1.9556  0.6698  1.0040
  530MOL0     H73089   5.248   8.479   8.724 -1.5663 -1.0503 -0.9887
  530MOL0     H73090   5.376   8.683   8.863  0.0278  1.9219  3.0457
  530MOL0     H73091   5.544   8.648   8.888 -1.0105  1.1330 -2.5433
  530MOL0     H73092   5.383   8.597   9.102 -3.5491 -2.4442  1.9626
  530MOL0     H73093   5.316   8.466   9.016 -0.8973  2.2652 -0.5604
  530MOL0     H73094   5.489   8.439   9.203  0.9537  4.0609  1.1368
  530MOL0     H73095   5.480   8.341   9.057 -2.4209  0.7038  1.1412
  530MOL0     H73096   5.726   8.386   9.075 -1.3622 -1.0440  2.7471
  530MOL0     H73097   5.676   8.523   8.989  3.3081 -0.9200 -0.1568
  530MOL0     H73098   5.920   8.540   9.017  2.3613  2.0358 -0.6244
  530MOL0     H73099   6.149   8.516   8.956 -0.0215 -1.1978  0.8177
  530MOL0     H73100   6.274   8.527   9.073  0.1331 -0.9672 -2.7031
  530MOL0     H73101   6.177   8.674   9.039  2.0266  0.7169 -0.1590
  530MOL0     H73102   6.461   8.398   9.455 -2.5328  4.8116 -1.3453
  530MOL0     H73103   6.667   8.373   9.600  2.6971  4.8736 -1.3670
  530MOL0     H73104   6.704   8.682   9.868  0.9246  0.6284 -1.4141
  530MOL0     H73105   6.816   8.564   9.950  1.0662  1.4743 -0.4388
  530MOL0     H73106   6.965   8.659   9.821  0.0831 -1.4154 -0.0090
  530MOL0     H73107   6.914   8.529   9.727 -0.9697 -0.7939 -0.7678
  530MOL0     H73108   6.764   8.697   9.597  0.6453  0.9878  1.0030
  530MOL0     H73109   6.946   8.701   9.575  0.0740 -1.2845  0.5165
  530MOL0     H73110   6.936   8.883   9.763  0.6476  0.3872  0.7794
  530MOL0     H73111   6.772   8.895   9.716  1.0538  0.7388  0.1105
  530MOL0     H73112   6.880   8.899   9.472 -0.7259 -0.4575  0.1616
  530MOL0     H73113   6.852   9.051   9.571  2.9170  1.8067  0.2018
  530MOL0     H73114   7.126   8.903   9.553 -0.8665 -1.1230 -1.8303
  530MOL0     H73115   7.080   9.046   9.657  0.4761 -2.5916  0.9339
  530MOL0     H73116   7.047   9.182   9.465  0.0305  1.0621 -0.0408
  530MOL0     H73117   7.073   9.049   9.352 -1.0543  1.5821  0.1783
  530MOL0     H73118   7.279   9.171   9.345  2.2640  2.6157  1.4379
  530MOL0     H73119   7.310   9.046   9.480 -1.5823  0.3760  0.4208
  530MOL0     H73120   6.467   8.628   9.883 -2.3043  0.1700  1.4682
  530MOL0     H73121   6.276   8.661   9.738  2.8511  1.3865  1.4112
  530MOL0     H73122   6.008   8.587   9.505 -1.4725  0.4929 -0.2753
  530MOL0     H73123   5.790   8.582   9.423 -0.2118 -0.3301  0.0831
  530MOL0     H73124   5.605   7.387   8.095  0.6430 -0.8444  0.7893
  530MOL0     H73125   5.622   7.157   8.169  1.8594  3.0464  0.1268
  530MOL0     H73126   5.665   6.878   8.362 -0.0765 -0.3864  1.6405
  530MOL0     H73127   5.771   6.666   8.422 -1.3715  3.2255  0.9005
  530MOL0     H73128   5.443   6.337   8.506 -0.4847 -3.1342  0.4483
  530MOL0     H73129   5.584   6.255   8.564 -1.6958 -1.1239  0.3393
  530MOL0     H73130   5.439   6.328   8.729  0.4081 -0.2187  1.4517
  530MOL0     H73131   5.477   6.497   8.708  0.4976 -0.2684  2.8197
  530MOL0     H73132   5.698   6.303   8.781 -0.0697 -0.0145 -1.3187
  530MOL0     H73133   5.706   6.476   8.770  0.0435 -0.7893 -2.0408
  530MOL0     H73134   5.534   6.484   8.961  2.7892  3.0187 -3.1081
  530MOL0     H73135   5.688   6.417   9.008 -0.1380  1.4474  0.0887
  530MOL0     H73136   5.474   6.099   9.125  1.3861  2.6735  2.5355
  530MOL0     H73137   5.368   6.494   8.403  0.1374 -0.2635 -0.2327
  530MOL0     H73138   5.256   6.724   8.172  3.0222  0.9712  1.6830
  530MOL0     H73139   5.190   6.616   8.302  2.1781 -1.4576  0.2895
  530MOL0     H73140   5.188   6.779   8.330  0.1592 -1.0275  1.0438
  531MOL0     O73141   7.803   9.563   8.145 -0.1728  0.0336  0.0758
  531MOL0     C73142   7.808   9.532   8.263  0.3925 -0.1766 -0.7061
  531MOL0     O73143   7.900   9.571   8.342  0.2949  0.0738  0.2551
  531MOL0     C73144   7.990   9.670   8.312  0.0430 -0.8133  0.3919
  531MOL0     C73145   7.962   9.802   8.314  1.1939 -0.7982 -0.1245
  531MOL0     C73146   8.064   9.892   8.290 -0.2295 -0.8718  0.1600
  531MOL0     C73147   8.181   9.863   8.244 -0.8513 -0.9085 -0.0642
  531MOL0     O73148   8.266   9.972   8.209 -0.7383 -0.2084 -0.0600
  531MOL0     C73149   8.367   9.951   8.114 -1.4122 -0.3678  0.1246
  531MOL0     C73150   8.466  10.067   8.117 -0.3042  0.8155 -0.3785
  531MOL0     C73151   8.396  10.192   8.058  0.6902 -0.1894  0.3848
  531MOL0     C73152   8.476  10.300   8.005  0.8706  0.4401  0.5840
  531MOL0     C73153   8.574  10.360   8.111 -0.1862  0.0760  0.2134
  531MOL0     C73154   8.509  10.471   8.187 -0.1985 -0.6937 -0.7640
  531MOL0     C73155   8.610  10.540   8.277  1.4618 -0.1385  0.1695
  531MOL0     C73156   8.712  10.622   8.196  0.6348  0.3242 -1.0872
  531MOL0     N73157   8.768  10.723   8.280 -0.6644  1.0027 -1.3470
  531MOL0     C73158   8.741  10.861   8.291 -0.5186  0.0932  0.2649
  531MOL0     C73159   8.822  10.915   8.383 -0.1909  0.0190  1.1351
  531MOL0     C73160   8.832  11.061   8.397 -0.1045 -0.0233 -0.6592
  531MOL0     C73161   8.724  11.119   8.497 -1.1783  0.4625  0.3167
  531MOL0     C73162   8.754  11.263   8.536  0.1747  0.1989  0.1294
  531MOL0     C73163   8.752  11.367   8.410 -0.3969  0.0399 -1.0964
  531MOL0     O73164   8.781  11.496   8.464 -0.9510  0.5691  0.2795
  531MOL0     C73165   8.775  11.605   8.378  0.0240 -0.1919  0.2088
  531MOL0     C73166   8.800  11.730   8.432 -0.7340  0.3325 -0.0556
  531MOL0     C73167   8.789  11.847   8.352  0.0375  1.3347 -0.5833
  531MOL0     C73168   8.837  11.969   8.421  1.0045 -0.3046  0.3213
  531MOL0     C73169   8.750  11.838   8.219  0.0210  0.3092  0.4126
  531MOL0     C73170   8.731  11.954   8.125 -0.4338  0.2314  0.5758
  531MOL0     O73171   8.690  11.939   7.992  0.1989  1.0393  0.0780
  531MOL0     C73172   8.663  12.042   7.907 -0.6417 -0.2583  0.4581
  531MOL0     C73173   8.593  12.157   7.941 -0.7914 -0.1649  0.2485
  531MOL0     C73174   8.545  12.247   7.844  0.3149 -0.3814  0.7707
  531MOL0     C73175   8.549  12.210   7.711 -1.3589  0.3978 -0.3959
  531MOL0     O73176   8.480  12.271   7.608  0.4974  0.0708 -0.3375
  531MOL0     C73177   8.413  12.390   7.641 -0.4329  0.0531  0.2278
  531MOL0     C73178   8.348  12.439   7.511 -0.6732  0.0964 -0.1893
  531MOL0     C73179   8.307  12.588   7.508 -0.1567 -0.1023  0.6572
  531MOL0     C73180   8.200  12.611   7.621 -1.2455 -0.8282  0.3493
  531MOL0     C73181   8.133  12.758   7.624  0.0792 -0.7903  0.0961
  531MOL0     C73182   8.026  12.769   7.742 -0.7310 -0.6841  0.5956
  531MOL0     C73183   7.934  12.892   7.725 -0.0857  1.3140  0.1333
  531MOL0     C73184   7.844  12.883   7.845  0.2339  0.1510  0.6419
  531MOL0    Cl73185   7.732  13.028   7.877 -0.3219 -0.2297  0.3117
  531MOL0     C73186   8.629  12.096   7.674 -0.5161  0.5265 -0.0529
  531MOL0     C73187   8.695  12.013   7.773 -0.1535  0.0871 -0.6058
  531MOL0     O73188   8.753  12.062   8.175 -1.1044 -0.2964 -0.3634
  531MOL0     C73189   8.713  11.706   8.173 -0.0958  0.2977  0.5351
  531MOL0     C73190   8.733  11.591   8.245 -0.5299  0.7827  0.0635
  531MOL0     N73191   8.881  10.815   8.446  0.6852  0.4966 -0.3237
  531MOL0     N73192   8.869  10.703   8.372  0.2296 -0.8644  0.3112
  531MOL0     C73193   8.215   9.729   8.240  0.0264 -0.8503 -0.6302
  531MOL0     C73194   8.120   9.634   8.280 -0.1918  0.7736 -0.2966
  531MOL0     C73195   7.722   9.427   8.311  0.8430  0.7381 -0.0415
  531MOL0     C73196   7.798   9.323   8.375 -1.1294 -0.2975  0.6372
  531MOL0     C73197   7.734   9.216   8.438  0.7971  0.4806  0.4180
  531MOL0     C73198   7.602   9.194   8.411 -0.1048  0.6670  0.5119
  531MOL0     O73199   7.561   9.074   8.460  0.6741  0.6870 -0.4704
  531MOL0     C73200   7.454   9.000   8.386 -0.8188  0.4864 -0.5531
  531MOL0     C73201   7.451   8.853   8.432 -0.0087 -0.5538 -0.6126
  531MOL0     C73202   7.577   8.786   8.371 -0.3321  0.0972  0.7736
  531MOL0     C73203   7.578   8.639   8.422  0.3482  0.4650  0.1238
  531MOL0     C73204   7.472   8.561   8.352  1.1984  0.0830 -0.2372
  531MOL0     C73205   7.380   8.495   8.294  0.4485 -0.2254 -0.1908
  531MOL0     C73206   7.532   9.285   8.324  0.0761  1.1215  0.4673
  531MOL0     C73207   7.586   9.409   8.286 -0.1100 -0.0984 -0.3473
  531MOL0     C73208   7.506   9.516   8.212  0.1345  0.3651 -0.0778
  531MOL0     H73209   7.867   9.847   8.338  2.1930  2.0507 -1.0356
  531MOL0     H73210   8.061   9.999   8.309  4.4294 -0.1279 -1.8136
  531MOL0     H73211   8.342   9.932   8.009  1.8549  0.2102 -0.8686
  531MOL0     H73212   8.425   9.864   8.144 -1.0947  0.3147  1.5850
  531MOL0     H73213   8.498  10.089   8.219 -0.8251  0.8857 -0.2248
  531MOL0     H73214   8.546  10.048   8.044 -3.2030 -2.0536 -3.1885
  531MOL0     H73215   8.339  10.170   7.967  1.5163  0.1568 -0.2212
  531MOL0     H73216   8.337  10.227   8.144  2.4742  0.8655  1.2332
  531MOL0     H73217   8.531  10.263   7.918 -0.3674 -0.9252  0.3356
  531MOL0     H73218   8.411  10.378   7.964 -0.1071 -0.4139  0.4785
  531MOL0     H73219   8.655  10.408   8.054 -0.4159 -1.0280 -1.0803
  531MOL0     H73220   8.615  10.291   8.185 -0.2094  2.1807  2.3189
  531MOL0     H73221   8.466  10.545   8.120 -1.0571 -0.9994 -0.5675
  531MOL0     H73222   8.431  10.425   8.248 -0.4755  1.1872  0.3627
  531MOL0     H73223   8.666  10.470   8.339  1.0841  1.1365  2.0258
  531MOL0     H73224   8.563  10.600   8.355  2.0873 -0.7289  1.0173
  531MOL0     H73225   8.797  10.558   8.169  1.4878 -0.1023  2.1916
  531MOL0     H73226   8.651  10.663   8.116  0.0950  2.4470  0.3292
  531MOL0     H73227   8.662  10.916   8.241 -3.5316 -0.1907  4.2638
  531MOL0     H73228   8.833  11.114   8.302  0.9006  0.9670 -0.1288
  531MOL0     H73229   8.932  11.082   8.436  0.4906  1.4861 -2.8139
  531MOL0     H73230   8.622  11.105   8.460 -0.5977 -1.4333 -0.7487
  531MOL0     H73231   8.742  11.055   8.584 -0.8603 -1.1064 -0.8486
  531MOL0     H73232   8.686  11.296   8.615  0.2152 -1.0263  0.6907
  531MOL0     H73233   8.853  11.265   8.582  0.0502  1.5451  0.4042
  531MOL0     H73234   8.833  11.339   8.341  0.6839 -1.7169  0.7662
  531MOL0     H73235   8.656  11.362   8.357  1.5888 -1.8538 -4.9592
  531MOL0     H73236   8.845  11.722   8.530  0.0662  0.1213 -0.4300
  531MOL0     H73237   8.926  12.013   8.375 -0.1518  2.4859  0.5360
  531MOL0     H73238   8.861  11.938   8.523 -5.1123 -1.9581  1.6816
  531MOL0     H73239   8.755  12.038   8.443 -0.8290 -2.8498  2.0988
  531MOL0     H73240   8.573  12.186   8.043 -1.5866 -1.1107  0.3799
  531MOL0     H73241   8.497  12.337   7.883  1.6785  1.4041 -1.4516
  531MOL0     H73242   8.334  12.369   7.714 -1.2104 -1.0636 -0.8694
  531MOL0     H73243   8.481  12.467   7.677 -0.4240  0.0884  0.1365
  531MOL0     H73244   8.419  12.431   7.428  2.0918  1.9701  1.7941
  531MOL0     H73245   8.266  12.368   7.495  0.4307 -1.5470  1.0351
  531MOL0     H73246   8.262  12.609   7.410 -0.0140 -1.4350  0.2873
  531MOL0     H73247   8.394  12.655   7.508  0.0474 -0.3340 -0.7047
  531MOL0     H73248   8.243  12.584   7.718 -1.4933  0.9137  0.9633
  531MOL0     H73249   8.117  12.541   7.607 -0.7334 -1.6712  1.3837
  531MOL0     H73250   8.202  12.841   7.641 -0.3379 -0.5891  0.8850
  531MOL0     H73251   8.078  12.766   7.530 -0.8164 -1.1827  0.5709
  531MOL0     H73252   8.076  12.760   7.839 -0.3031  3.8068  1.0355
  531MOL0     H73253   7.958  12.684   7.730  0.3384 -1.1872 -3.0863
  531MOL0     H73254   7.878  12.873   7.633 -0.1607 -5.1372  1.0409
  531MOL0     H73255   7.989  12.987   7.721 -0.5132  1.6274  1.2290
  531MOL0     H73256   7.905  12.871   7.935 -0.0190  0.4074  0.8519
  531MOL0     H73257   7.783  12.793   7.838 -0.7397  0.7986  0.6524
  531MOL0     H73258   8.657  12.075   7.571 -1.7729 -1.6655 -0.0142
  531MOL0     H73259   8.752  11.926   7.741  0.5544  0.1218  0.5135
  531MOL0     H73260   8.678  11.694   8.071  2.3869  0.2354 -0.3905
  531MOL0     H73261   8.715  11.493   8.202  3.1858 -0.3829  0.7478
  531MOL0     H73262   8.303   9.683   8.196 -1.5989 -4.4680 -0.4558
  531MOL0     H73263   8.131   9.527   8.271 -1.9791  0.3899  1.4019
  531MOL0     H73264   7.906   9.319   8.384 -1.1330  1.4733  2.0715
  531MOL0     H73265   7.776   9.138   8.499 -1.7994 -2.3724 -1.1916
  531MOL0     H73266   7.355   9.048   8.391 -0.8237  0.3463  1.5861
  531MOL0     H73267   7.478   8.995   8.280 -1.4016  1.0287 -0.7198
  531MOL0     H73268   7.357   8.808   8.399 -2.3420  3.2625  0.2019
  531MOL0     H73269   7.457   8.858   8.542  1.7475 -0.7398 -0.6658
  531MOL0     H73270   7.570   8.782   8.262  0.6840 -2.0569  0.7456
  531MOL0     H73271   7.662   8.843   8.410 -2.1881  2.9211  0.9417
  531MOL0     H73272   7.544   8.636   8.526  0.9261 -4.4324  0.3992
  531MOL0     H73273   7.675   8.591   8.405 -0.8912 -2.3596  0.4849
  531MOL0     H73274   7.318   8.439   8.227  0.3439 -1.2772  0.7616
  531MOL0     H73275   7.426   9.272   8.308  0.5170 -1.0544 -0.9613
  531MOL0     H73276   7.398   9.500   8.202  0.2070  0.8879 -2.1593
  531MOL0     H73277   7.514   9.603   8.279  0.8303 -0.7190  1.2929
  531MOL0     H73278   7.542   9.531   8.110 -1.0065  0.2953 -0.5142
  532MOL0     O73279   1.301   3.706   3.676 -0.2460 -0.3079  0.2084
  532MOL0     C73280   1.243   3.733   3.781 -0.9047  0.2721  1.2529
  532MOL0     O73281   1.301   3.813   3.878  0.1336  0.6237  0.1444
  532MOL0     C73282   1.425   3.869   3.858 -0.4799  0.5060 -0.3298
  532MOL0     C73283   1.438   4.005   3.881  0.1189 -0.0918 -0.0207
  532MOL0     C73284   1.561   4.063   3.872  0.7031 -0.3512 -0.0902
  532MOL0     C73285   1.686   4.000   3.846 -0.9105 -1.1654 -0.2045
  532MOL0     O73286   1.808   4.051   3.817  0.0759 -0.6835  0.6521
  532MOL0     C73287   1.830   4.194   3.829 -0.6773  1.0955  0.2151
  532MOL0     C73288   1.978   4.222   3.815 -0.1829  0.1751 -0.5314
  532MOL0     C73289   2.006   4.373   3.842 -0.2330 -0.2114 -0.2466
  532MOL0     C73290   1.984   4.462   3.721 -0.5455  1.0138 -0.8967
  532MOL0     C73291   1.976   4.607   3.750  0.3618  2.0650  0.5690
  532MOL0     C73292   2.100   4.667   3.821  0.2690 -0.1708  0.9612
  532MOL0     C73293   2.056   4.805   3.889  0.2122  0.8528 -0.1432
  532MOL0     C73294   2.173   4.890   3.930 -0.0180  0.4217 -0.1618
  532MOL0     N73295   2.239   4.945   3.807  0.1034  0.2281 -0.6743
  532MOL0     C73296   2.216   5.065   3.749  1.1228 -1.3206 -0.0382
  532MOL0     C73297   2.327   5.109   3.677  0.7232 -0.5234 -0.5100
  532MOL0     C73298   2.363   5.232   3.594 -0.7415  0.7350  1.0150
  532MOL0     C73299   2.300   5.225   3.448 -0.4138 -0.2606 -0.0456
  532MOL0     C73300   2.376   5.313   3.350 -0.3872  0.1900  0.6751
  532MOL0     C73301   2.301   5.322   3.223  0.9183  1.2349 -0.5641
  532MOL0     O73302   2.185   5.396   3.242  0.6881 -0.0675 -0.3421
  532MOL0     C73303   2.189   5.531   3.206 -0.7755 -0.1350 -0.5959
  532MOL0     C73304   2.092   5.611   3.259  0.2083  0.8655  0.6388
  532MOL0     C73305   2.089   5.755   3.265 -0.2234 -0.0051  0.4030
  532MOL0     C73306   1.994   5.829   3.349 -1.7274  0.1174 -0.6318
  532MOL0     C73307   2.195   5.826   3.203  0.0390  0.5944  0.6888
  532MOL0     C73308   2.217   5.974   3.215  0.1118 -0.2955  0.2692
  532MOL0     O73309   2.290   6.040   3.118 -0.2166  0.4201  0.1682
  532MOL0     C73310   2.353   6.164   3.127  0.3569  0.6504  0.4982
  532MOL0     C73311   2.286   6.267   3.172 -0.8937 -0.7960 -0.2668
  532MOL0     C73312   2.343   6.391   3.177 -0.5683  0.4616  1.4202
  532MOL0     C73313   2.468   6.423   3.132  0.3321 -0.2120  0.8363
  532MOL0     O73314   2.538   6.537   3.152  0.1869  0.0348  0.7738
  532MOL0     C73315   2.461   6.663   3.172 -0.5362  1.1682  0.3328
  532MOL0     C73316   2.557   6.771   3.137  0.9450  0.1170  0.0918
  532MOL0     C73317   2.631   6.767   3.006 -0.9960 -0.3174  0.0019
  532MOL0     C73318   2.543   6.770   2.886 -0.2092  0.6563 -0.9816
  532MOL0     C73319   2.605   6.778   2.750  0.2931 -0.0821 -0.2168
  532MOL0     C73320   2.710   6.898   2.751 -0.4987  0.3106 -0.2866
  532MOL0     C73321   2.740   6.933   2.605 -0.6754 -0.7539 -0.1554
  532MOL0     C73322   2.705   7.080   2.567 -0.2019  0.5221 -0.5295
  532MOL0    Cl73323   2.795   7.115   2.427 -0.3703  0.1691 -0.0439
  532MOL0     C73324   2.534   6.314   3.079  0.6127 -0.4672 -0.1252
  532MOL0     C73325   2.484   6.182   3.072  0.3256  0.3265 -0.7834
  532MOL0     O73326   2.196   6.022   3.326 -0.0025 -0.2046  0.4374
  532MOL0     C73327   2.286   5.744   3.131 -0.2190  0.9806  0.2720
  532MOL0     C73328   2.289   5.600   3.139  0.1394  0.2035 -0.3848
  532MOL0     N73329   2.409   5.003   3.699 -0.9166  0.7040 -0.7089
  532MOL0     N73330   2.360   4.917   3.785  0.3815  0.0905 -1.1077
  532MOL0     C73331   1.673   3.861   3.823 -0.1739 -0.3337 -0.4010
  532MOL0     C73332   1.547   3.795   3.842  0.4733  0.3030  0.0899
  532MOL0     C73333   1.104   3.677   3.786 -0.4037  0.0855 -0.4521
  532MOL0     C73334   1.036   3.644   3.667 -0.4481  0.3770  0.9468
  532MOL0     C73335   0.919   3.576   3.667  0.5694 -1.1641  0.0586
  532MOL0     C73336   0.856   3.536   3.787 -0.4957 -0.4031 -0.3097
  532MOL0     O73337   0.736   3.464   3.805 -0.2195  1.0166 -0.0963
  532MOL0     C73338   0.709   3.376   3.692 -0.9371  0.2525  0.2139
  532MOL0     C73339   0.579   3.311   3.723  0.0207  0.5943  0.9844
  532MOL0     C73340   0.460   3.407   3.717  1.0526 -0.4341  0.1911
  532MOL0     C73341   0.358   3.373   3.825  0.3450 -0.7360 -0.4185
  532MOL0     C73342   0.295   3.239   3.815  0.1380 -0.1926  0.3294
  532MOL0     C73343   0.252   3.124   3.811  0.3404 -0.2760 -0.1552
  532MOL0     C73344   0.910   3.584   3.908 -0.2438  0.0353 -0.4025
  532MOL0     C73345   1.034   3.646   3.909  0.8389  0.0883  0.0953
  532MOL0     C73346   1.090   3.680   4.043 -0.9676  0.0840 -0.7331
  532MOL0     H73347   1.353   4.071   3.896  0.1427  0.4258 -1.9496
  532MOL0     H73348   1.572   4.170   3.885  1.6967 -0.6969  2.5171
  532MOL0     H73349   1.810   4.225   3.932  2.0577 -0.5136  1.3179
  532MOL0     H73350   1.781   4.252   3.750 -0.5834  0.0525 -0.6282
  532MOL0     H73351   2.036   4.160   3.884 -1.1934 -0.8989 -0.6350
  532MOL0     H73352   2.003   4.195   3.712  1.0287  0.0244 -0.2112
  532MOL0     H73353   1.941   4.421   3.917 -0.2377 -0.3298 -0.1743
  532MOL0     H73354   2.111   4.397   3.856 -0.6823  2.0497 -0.3360
  532MOL0     H73355   2.062   4.444   3.647 -0.5884 -3.8866 -0.1039
  532MOL0     H73356   1.890   4.434   3.671 -0.1768 -1.3019 -0.4264
  532MOL0     H73357   1.883   4.622   3.805  0.2296 -1.3338  1.5313
  532MOL0     H73358   1.973   4.654   3.652  3.7067  1.1759 -0.0847
  532MOL0     H73359   2.133   4.601   3.901  0.7436 -0.6206  0.4037
  532MOL0     H73360   2.182   4.686   3.752  0.0862  0.5650  0.9391
  532MOL0     H73361   1.999   4.782   3.980 -1.9377  1.9182 -1.1594
  532MOL0     H73362   2.003   4.873   3.822  1.7494  0.6352 -1.6335
  532MOL0     H73363   2.149   4.971   4.000 -0.9006  1.4497 -1.6134
  532MOL0     H73364   2.251   4.828   3.976  0.1061  0.1333 -0.7600
  532MOL0     H73365   2.129   5.127   3.764  2.1892  0.2993 -0.2691
  532MOL0     H73366   2.469   5.255   3.590 -1.0149  1.9621  0.6173
  532MOL0     H73367   2.327   5.325   3.639  0.6632  1.3988  0.8149
  532MOL0     H73368   2.298   5.118   3.423  0.6760 -1.2091  3.4313
  532MOL0     H73369   2.199   5.265   3.463  0.6003  1.8345  1.5380
  532MOL0     H73370   2.390   5.413   3.391 -0.2157  0.4454  0.0033
  532MOL0     H73371   2.481   5.286   3.341 -0.1514  0.7681  1.5767
  532MOL0     H73372   2.367   5.366   3.148  1.7823  2.7483  1.0114
  532MOL0     H73373   2.276   5.223   3.184  1.4661  0.7633  0.2649
  532MOL0     H73374   2.016   5.553   3.309  1.0876 -1.8325 -0.9665
  532MOL0     H73375   2.042   5.852   3.445 -2.8955 -0.6756  0.1697
  532MOL0     H73376   1.921   5.754   3.382  1.8946 -4.1011 -1.1809
  532MOL0     H73377   1.946   5.911   3.296 -2.2855 -0.9043 -1.7625
  532MOL0     H73378   2.180   6.281   3.191 -0.1231  3.3436  2.4645
  532MOL0     H73379   2.286   6.483   3.181 -1.2511  0.0996  0.5351
  532MOL0     H73380   2.383   6.682   3.097  0.2277  2.0969 -0.2505
  532MOL0     H73381   2.425   6.683   3.273 -1.8571  2.2838 -0.3245
  532MOL0     H73382   2.503   6.866   3.149  1.2922  0.2188  0.8609
  532MOL0     H73383   2.644   6.772   3.202 -1.0222  0.2650  2.9135
  532MOL0     H73384   2.709   6.691   3.009 -1.0691 -0.5312 -1.9278
  532MOL0     H73385   2.685   6.862   3.015 -1.5743 -0.1160  1.8908
  532MOL0     H73386   2.470   6.851   2.898 -1.7186 -0.5656 -1.6074
  532MOL0     H73387   2.483   6.679   2.885  0.0264  0.4458  1.0594
  532MOL0     H73388   2.657   6.686   2.720 -0.1158 -0.8736  1.3794
  532MOL0     H73389   2.526   6.793   2.676 -0.0688  1.3718  0.4393
  532MOL0     H73390   2.799   6.867   2.808 -0.1709  0.4557 -0.7168
  532MOL0     H73391   2.679   6.979   2.817  2.4856  0.9926  0.4321
  532MOL0     H73392   2.695   6.871   2.528  0.6386 -1.0075 -0.7503
  532MOL0     H73393   2.846   6.929   2.579 -1.2568 -1.1869 -2.7627
  532MOL0     H73394   2.730   7.149   2.648 -0.6448  0.8327 -0.6517
  532MOL0     H73395   2.597   7.096   2.558 -0.9603 -0.2300  4.4156
  532MOL0     H73396   2.636   6.325   3.042  1.0607 -1.1326  0.8611
  532MOL0     H73397   2.540   6.104   3.022 -2.7000 -0.5547 -3.0931
  532MOL0     H73398   2.358   5.787   3.063  0.3442  0.7389  0.7119
  532MOL0     H73399   2.378   5.551   3.100  1.4716  1.7392  0.6129
  532MOL0     H73400   1.767   3.812   3.800  1.3073  2.2751 -0.3244
  532MOL0     H73401   1.557   3.687   3.835 -1.1859 -0.1055  2.8284
  532MOL0     H73402   1.083   3.667   3.571  0.0293 -0.9473  0.8523
  532MOL0     H73403   0.875   3.540   3.574 -0.7977 -0.5814  0.4527
  532MOL0     H73404   0.715   3.428   3.596 -0.3216  0.8864  0.5835
  532MOL0     H73405   0.793   3.307   3.686  0.5358  1.8433  1.4622
  532MOL0     H73406   0.597   3.269   3.822  2.4523  1.8248  1.1283
  532MOL0     H73407   0.549   3.244   3.641  0.1328  2.8040 -0.9814
  532MOL0     H73408   0.483   3.514   3.722 -1.8974  0.2660  0.3370
  532MOL0     H73409   0.405   3.396   3.622  1.4857 -0.5719 -0.0477
  532MOL0     H73410   0.280   3.449   3.817  1.1976  0.4643  1.7212
  532MOL0     H73411   0.397   3.386   3.927 -0.1767  1.9181 -0.4877
  532MOL0     H73412   0.214   3.025   3.800  1.0023 -0.4561 -0.8567
  532MOL0     H73413   0.856   3.552   3.996 -2.3722  3.4664 -0.2820
  532MOL0     H73414   1.198   3.663   4.050 -0.9178  0.8993  1.1387
  532MOL0     H73415   1.084   3.788   4.061  1.9644  0.2075  0.0869
  532MOL0     H73416   1.029   3.628   4.118 -0.7746  3.3871  1.9734
  533MOL0     O73417   5.907   8.435   7.093  0.2318 -0.0352 -0.1702
  533MOL0     C73418   5.848   8.436   7.200  0.4413 -0.5554  0.1318
  533MOL0     O73419   5.902   8.384   7.317  0.7279  0.0152  0.0270
  533MOL0     C73420   6.015   8.308   7.320 -0.5938 -0.5042  0.3364
  533MOL0     C73421   6.056   8.280   7.448 -0.1483 -0.2833  0.7890
  533MOL0     C73422   6.171   8.215   7.470 -0.1501  0.0900 -0.0786
  533MOL0     C73423   6.260   8.167   7.366  0.4954 -0.4181  0.6816
  533MOL0     O73424   6.378   8.107   7.398  0.0438  0.2776 -0.1215
  533MOL0     C73425   6.425   8.006   7.302 -0.6683  0.0192 -0.1952
  533MOL0     C73426   6.565   7.957   7.353  0.6570 -0.3218  0.4238
  533MOL0     C73427   6.656   7.882   7.252  0.0026  0.3511 -0.2036
  533MOL0     C73428   6.770   7.815   7.320 -0.3797 -0.2386 -0.9427
  533MOL0     C73429   6.729   7.671   7.374 -0.6217 -1.2558 -0.1694
  533MOL0     C73430   6.851   7.569   7.399 -0.8795  0.2669  0.0207
  533MOL0     C73431   6.940   7.595   7.521 -0.7171  0.4248 -0.8027
  533MOL0     C73432   6.871   7.542   7.655 -0.8805  0.1092  0.4249
  533MOL0     N73433   6.969   7.577   7.767  0.5864 -0.0449 -0.5934
  533MOL0     C73434   7.081   7.503   7.794  0.2716  0.3719 -0.0184
  533MOL0     C73435   7.098   7.523   7.923  0.5535  0.5648  1.0409
  533MOL0     C73436   7.194   7.441   8.013 -0.0861  0.2300  1.2038
  533MOL0     C73437   7.254   7.513   8.129  0.4192  0.5836 -0.1021
  533MOL0     C73438   7.380   7.595   8.085 -0.2119 -0.6684  0.3703
  533MOL0     C73439   7.332   7.737   8.049  1.4201 -0.4760 -0.5005
  533MOL0     O73440   7.455   7.804   8.003  0.1815  0.5865  0.1856
  533MOL0     C73441   7.434   7.926   7.937  0.1617  0.3585  0.0206
  533MOL0     C73442   7.449   7.940   7.790  0.3514  0.2903 -0.5242
  533MOL0     C73443   7.426   8.073   7.747  0.7116 -1.1085  0.3828
  533MOL0     C73444   7.416   8.085   7.601  0.2719 -0.5953  0.5602
  533MOL0     C73445   7.380   8.180   7.827 -0.0734 -0.4510  0.0991
  533MOL0     C73446   7.361   8.326   7.787 -0.5980 -0.0666  0.1981
  533MOL0     O73447   7.298   8.405   7.878  0.3815 -0.1902  0.6129
  533MOL0     C73448   7.342   8.532   7.899 -0.2865 -0.4713  0.2613
  533MOL0     C73449   7.475   8.567   7.909 -0.4583 -0.4774  0.5727
  533MOL0     C73450   7.513   8.700   7.924 -0.3958 -0.4359 -0.0247
  533MOL0     C73451   7.418   8.799   7.947  0.0469 -0.6696  0.2531
  533MOL0     O73452   7.445   8.934   7.970 -0.1943 -0.5122  0.0939
  533MOL0     C73453   7.579   8.976   8.013  1.0746  0.5368  0.2727
  533MOL0     C73454   7.627   9.066   7.897  0.2181 -0.9539 -0.4172
  533MOL0     C73455   7.548   9.201   7.880 -0.3602 -0.2276  0.3741
  533MOL0     C73456   7.615   9.325   7.797 -0.2687 -0.2715 -0.4612
  533MOL0     C73457   7.527   9.428   7.737 -1.1686  0.3530 -0.3362
  533MOL0     C73458   7.447   9.518   7.839  0.1028 -0.7688 -0.5082
  533MOL0     C73459   7.362   9.615   7.754  0.3291 -0.2858  0.3510
  533MOL0     C73460   7.256   9.676   7.857 -0.0206  0.6634  0.1833
  533MOL0    Cl73461   7.352   9.810   7.945  0.3859  0.5897 -0.0621
  533MOL0     C73462   7.287   8.760   7.950  0.5233  0.1287 -0.6759
  533MOL0     C73463   7.243   8.630   7.918  0.0322  0.3589  0.6289
  533MOL0     O73464   7.415   8.377   7.692 -1.5556  0.5249  1.0283
  533MOL0     C73465   7.344   8.154   7.960 -0.1857 -0.5571  0.0483
  533MOL0     C73466   7.378   8.031   8.021 -0.1182 -0.1639  0.6116
  533MOL0     N73467   7.011   7.619   7.961 -0.2478 -1.0487  0.0869
  533MOL0     N73468   6.938   7.657   7.864 -0.0285  0.2305  0.3530
  533MOL0     C73469   6.214   8.184   7.235  0.4267 -0.8030  0.1067
  533MOL0     C73470   6.098   8.257   7.215  0.3073 -0.5729 -0.5336
  533MOL0     C73471   5.715   8.513   7.191  0.8723  0.5538 -0.7498
  533MOL0     C73472   5.677   8.582   7.074  0.6724  0.2795 -0.0118
  533MOL0     C73473   5.563   8.654   7.060 -0.9139  0.6262  0.6696
  533MOL0     C73474   5.479   8.672   7.164 -0.5420  0.5444  0.0487
  533MOL0     O73475   5.364   8.740   7.147 -0.0875  0.0025  0.1500
  533MOL0     C73476   5.269   8.751   7.256 -0.8072  0.2076 -0.9940
  533MOL0     C73477   5.169   8.852   7.206 -0.1530  1.2107 -0.3719
  533MOL0     C73478   5.219   8.992   7.157  0.4213  0.1244  0.5778
  533MOL0     C73479   5.323   9.055   7.239 -0.2923  0.4530 -0.0276
  533MOL0     C73480   5.267   9.110   7.360  0.5284  0.2581  0.5353
  533MOL0     C73481   5.209   9.127   7.464 -1.2042  0.3838  0.4914
  533MOL0     C73482   5.504   8.599   7.280 -0.4133 -0.0187 -0.3947
  533MOL0     C73483   5.619   8.525   7.299 -0.8197 -0.4071 -0.7645
  533MOL0     C73484   5.645   8.454   7.425  0.0871  0.4139  0.4438
  533MOL0     H73485   5.998   8.302   7.537 -0.5059 -1.1689  0.7800
  533MOL0     H73486   6.202   8.201   7.573 -0.0761 -2.2253 -0.3528
  533MOL0     H73487   6.423   8.043   7.199 -0.0643 -0.1318 -0.2657
  533MOL0     H73488   6.352   7.925   7.311 -0.3069 -0.1237  2.0777
  533MOL0     H73489   6.616   8.041   7.401  2.5385 -0.8970 -0.4566
  533MOL0     H73490   6.543   7.891   7.437 -2.2582 -2.1239 -1.5493
  533MOL0     H73491   6.588   7.809   7.207 -0.2553 -0.7430  1.8509
  533MOL0     H73492   6.682   7.971   7.193 -0.7795  0.6720 -0.0839
  533MOL0     H73493   6.833   7.790   7.234 -1.0100 -1.4262 -1.0850
  533MOL0     H73494   6.825   7.878   7.390 -1.9500  0.8084 -0.5967
  533MOL0     H73495   6.655   7.630   7.304  0.6475 -1.5613 -1.4017
  533MOL0     H73496   6.669   7.692   7.462 -2.2967  1.5885 -1.8482
  533MOL0     H73497   6.811   7.467   7.400  2.4619 -1.2087 -0.9260
  533MOL0     H73498   6.921   7.587   7.317  2.7040 -0.9281  2.5578
  533MOL0     H73499   6.957   7.702   7.532  1.7845  0.1749 -1.7319
  533MOL0     H73500   7.039   7.551   7.510  0.8709  3.9741 -1.9989
  533MOL0     H73501   6.783   7.604   7.673 -2.3631 -1.7482 -0.1660
  533MOL0     H73502   6.855   7.436   7.632  0.7047 -0.3833  1.4233
  533MOL0     H73503   7.130   7.429   7.733 -3.6847 -3.1819  0.6027
  533MOL0     H73504   7.275   7.412   7.946 -1.5912  3.1552 -2.2784
  533MOL0     H73505   7.136   7.355   8.047 -0.3566  1.2728  3.5496
  533MOL0     H73506   7.179   7.573   8.182 -0.9354 -2.1772  1.3024
  533MOL0     H73507   7.284   7.437   8.202  2.6011  1.2018 -0.3043
  533MOL0     H73508   7.446   7.604   8.172 -0.2858  0.5833  0.3282
  533MOL0     H73509   7.439   7.559   8.000 -1.2901 -1.0949 -0.2097
  533MOL0     H73510   7.269   7.743   7.959 -4.3722  0.3090  3.1164
  533MOL0     H73511   7.281   7.790   8.129  1.7242  0.3469 -0.8426
  533MOL0     H73512   7.481   7.857   7.728 -0.2518 -0.1745 -0.2245
  533MOL0     H73513   7.389   8.184   7.563  0.5548  0.5747  3.2061
  533MOL0     H73514   7.337   8.019   7.563  1.5129 -1.8090  0.0182
  533MOL0     H73515   7.511   8.056   7.556 -0.0222  0.2650 -0.6804
  533MOL0     H73516   7.546   8.486   7.896 -0.8211 -0.5861 -0.8415
  533MOL0     H73517   7.617   8.731   7.917  0.9036 -3.1232  3.9991
  533MOL0     H73518   7.577   9.031   8.107 -0.4419 -2.2551  1.9690
  533MOL0     H73519   7.648   8.893   8.035 -1.8080 -2.0723  0.0730
  533MOL0     H73520   7.725   9.108   7.918 -1.5009  3.4523 -0.0028
  533MOL0     H73521   7.624   9.007   7.805  0.5171 -2.4540  0.5039
  533MOL0     H73522   7.522   9.234   7.981  0.8141 -2.6444  1.5603
  533MOL0     H73523   7.458   9.182   7.821  0.6661 -0.4867 -1.1813
  533MOL0     H73524   7.663   9.281   7.708  0.9748 -1.0127  0.5463
  533MOL0     H73525   7.685   9.387   7.854  1.0067  0.5005 -2.7281
  533MOL0     H73526   7.590   9.491   7.673 -4.7327  0.2513 -4.3878
  533MOL0     H73527   7.469   9.376   7.661 -0.0338  0.8364 -1.5780
  533MOL0     H73528   7.514   9.571   7.908  0.8820 -0.6099 -1.3715
  533MOL0     H73529   7.381   9.454   7.899 -1.6569  0.6521 -0.8498
  533MOL0     H73530   7.306   9.562   7.677 -2.6959  2.1101  0.7124
  533MOL0     H73531   7.424   9.691   7.704  1.8416 -1.3951  0.4618
  533MOL0     H73532   7.214   9.596   7.919 -0.4110 -0.2962 -1.2708
  533MOL0     H73533   7.175   9.721   7.800  0.0633  0.6552  0.0579
  533MOL0     H73534   7.223   8.845   7.970  1.6816  1.3004 -1.7496
  533MOL0     H73535   7.134   8.623   7.918 -0.2455  3.1494  2.3275
  533MOL0     H73536   7.313   8.225   8.036 -2.4990 -0.5568 -0.8302
  533MOL0     H73537   7.347   8.004   8.122  0.7668  2.7064  1.7542
  533MOL0     H73538   6.259   8.148   7.143 -1.1190  0.5606 -1.2508
  533MOL0     H73539   6.071   8.283   7.113 -1.7714  1.4230  0.4419
  533MOL0     H73540   5.743   8.590   6.988 -1.9094  2.1036 -2.0026
  533MOL0     H73541   5.539   8.709   6.970  0.7741  3.4313  1.7779
  533MOL0     H73542   5.221   8.654   7.269 -1.4415  0.7256  1.0617
  533MOL0     H73543   5.319   8.781   7.349  1.1872  0.0767 -1.9825
  533MOL0     H73544   5.105   8.881   7.290  0.6543 -0.6659  0.9570
  533MOL0     H73545   5.115   8.798   7.128  2.4446 -0.3903 -1.1795
  533MOL0     H73546   5.245   8.997   7.050  1.5528 -0.1239  0.8282
  533MOL0     H73547   5.139   9.066   7.164  0.7540  0.8022 -1.6650
  533MOL0     H73548   5.372   9.136   7.185 -2.0299  0.1937 -2.1386
  533MOL0     H73549   5.404   8.993   7.280 -0.4988  1.7240  2.5395
  533MOL0     H73550   5.164   9.146   7.559 -1.2060 -5.1457  1.8822
  533MOL0     H73551   5.442   8.605   7.369  0.9011  0.8603  0.5131
  533MOL0     H73552   5.632   8.346   7.409  0.5261  0.5024 -0.5162
  533MOL0     H73553   5.738   8.486   7.473 -1.3960  0.3978  3.6213
  533MOL0     H73554   5.579   8.489   7.505 -1.2626 -1.6103  0.2891
  534MOL0     O73555   4.607  10.078  11.428  0.7249 -0.1250  0.0550
  534MOL0     C73556   4.518  10.141  11.372  0.5659  0.0772 -0.4930
  534MOL0     O73557   4.528  10.205  11.251  0.3053  0.6704 -0.1858
  534MOL0     C73558   4.648  10.238  11.190 -0.2772  0.1591  0.5900
  534MOL0     C73559   4.765  10.271  11.260 -0.3966  0.6522 -0.0313
  534MOL0     C73560   4.886  10.294  11.197  0.1010  0.4290 -0.1593
  534MOL0     C73561   4.882  10.286  11.059  0.1355  0.4319  0.1138
  534MOL0     O73562   5.009  10.322  11.017  0.4502 -0.5097  0.2378
  534MOL0     C73563   5.079  10.233  10.935  0.8727  0.3232  0.3879
  534MOL0     C73564   5.196  10.180  11.030  0.0694  0.1072  0.4919
  534MOL0     C73565   5.269  10.062  10.967 -0.3924 -0.6038 -1.1147
  534MOL0     C73566   5.398  10.023  11.043  0.0360 -0.6474 -0.1626
  534MOL0     C73567   5.456   9.894  10.996 -0.3347 -0.0368  0.2082
  534MOL0     C73568   5.374   9.765  10.982 -0.3674  0.2123  0.0714
  534MOL0     C73569   5.328   9.710  11.120  0.0651 -0.4701 -0.7792
  534MOL0     C73570   5.196   9.629  11.129  0.5343 -1.2903  0.1360
  534MOL0     N73571   5.073   9.671  11.057  0.6292  0.6136  1.0967
  534MOL0     C73572   4.983   9.759  11.105  0.1673 -0.1400 -0.9299
  534MOL0     C73573   4.884   9.756  11.018  0.3134 -0.0581  0.7244
  534MOL0     C73574   4.760   9.838  11.020 -0.3413  1.7625  0.7326
  534MOL0     C73575   4.704   9.844  11.160 -0.1856 -0.5789 -0.3448
  534MOL0     C73576   4.648   9.707  11.214 -0.4501  0.4511  0.5281
  534MOL0     C73577   4.647   9.710  11.368 -0.4135  0.5484  0.1160
  534MOL0     O73578   4.606   9.583  11.422  0.6104  0.0366  0.8933
  534MOL0     C73579   4.678   9.471  11.408 -0.5125 -0.7626 -0.7107
  534MOL0     C73580   4.819   9.477  11.393  0.1920  0.0087 -0.2150
  534MOL0     C73581   4.890   9.357  11.358 -0.2958 -0.2106 -0.4367
  534MOL0     C73582   5.042   9.372  11.325 -0.4527  0.0397  0.5218
  534MOL0     C73583   4.813   9.233  11.338 -0.4777  0.1474 -1.0788
  534MOL0     C73584   4.872   9.110  11.286 -0.5231  0.7782 -1.0285
  534MOL0     O73585   4.804   8.998  11.326  0.2421  0.1064 -0.3398
  534MOL0     C73586   4.818   8.881  11.263  0.4578 -0.1628 -0.6607
  534MOL0     C73587   4.876   8.773  11.321 -0.6910  0.2316 -0.6554
  534MOL0     C73588   4.887   8.655  11.247  0.3190 -0.2706  0.1487
  534MOL0     C73589   4.831   8.640  11.125 -0.4317 -1.2875  1.1140
  534MOL0     O73590   4.828   8.510  11.071  0.5598  0.3209 -0.2615
  534MOL0     C73591   4.697   8.477  11.021 -0.6702  0.1307 -0.5481
  534MOL0     C73592   4.709   8.411  10.884  0.2429 -0.1671  0.4309
  534MOL0     C73593   4.759   8.262  10.881  0.6811  0.4005 -0.2732
  534MOL0     C73594   4.814   8.249  10.740 -0.8462  0.1982 -0.0637
  534MOL0     C73595   4.882   8.113  10.743  0.0127 -0.1117  0.4983
  534MOL0     C73596   4.998   8.124  10.642 -0.4931 -0.2020  0.0511
  534MOL0     C73597   5.065   7.984  10.621 -0.5706  0.1338 -0.7031
  534MOL0     C73598   5.196   7.996  10.531  0.1380 -0.4054 -0.0067
  534MOL0    Cl73599   5.329   7.897  10.597  0.8655 -0.3930  0.3966
  534MOL0     C73600   4.777   8.752  11.056  0.4033 -0.2799 -0.4815
  534MOL0     C73601   4.771   8.866  11.134 -0.3029 -0.0432 -0.1849
  534MOL0     O73602   4.970   9.117  11.209  0.4290  0.3989  0.9025
  534MOL0     C73603   4.678   9.236  11.371  1.0758 -0.4466 -0.0372
  534MOL0     C73604   4.613   9.357  11.405  0.6642  0.4806  0.1264
  534MOL0     N73605   4.910   9.658  10.925 -0.2639  0.8084 -0.1873
  534MOL0     N73606   5.028   9.608  10.944  0.3568 -0.2486  0.4279
  534MOL0     C73607   4.778  10.242  10.986  0.7046  0.1609 -0.4417
  534MOL0     C73608   4.658  10.231  11.051  0.0040 -0.0185 -0.8178
  534MOL0     C73609   4.383  10.151  11.437 -0.2902 -0.1883  0.9650
  534MOL0     C73610   4.285  10.223  11.371  0.0093  0.3556  0.1744
  534MOL0     C73611   4.143  10.228  11.409  0.7885 -0.0803 -0.4499
  534MOL0     C73612   4.105  10.162  11.529 -0.2318 -0.0598 -0.0171
  534MOL0     O73613   3.978  10.157  11.584  0.7105  0.3097 -0.0400
  534MOL0     C73614   3.908  10.280  11.591  0.1034  0.3988 -0.4386
  534MOL0     C73615   3.812  10.275  11.702 -0.0633 -0.3259  0.3446
  534MOL0     C73616   3.873  10.241  11.841 -0.0462 -0.2032 -0.0831
  534MOL0     C73617   3.992  10.338  11.860 -0.3268 -0.6150  0.6111
  534MOL0     C73618   3.948  10.481  11.848  0.0471  0.0616  0.3368
  534MOL0     C73619   3.910  10.597  11.845 -0.2003 -0.3125  0.3067
  534MOL0     C73620   4.202  10.087  11.592 -0.2894  0.2946  0.1106
  534MOL0     C73621   4.338  10.078  11.550  0.9155 -0.4070  0.7520
  534MOL0     C73622   4.429   9.985  11.619  0.2515 -0.0223  0.4165
  534MOL0     H73623   4.762  10.267  11.369 -0.5418  0.5049 -0.0404
  534MOL0     H73624   4.971  10.324  11.259 -1.1073  0.4358  1.5648
  534MOL0     H73625   5.129  10.285  10.853 -0.7957  3.1800  1.0073
  534MOL0     H73626   5.022  10.150  10.893 -0.4392  1.4800 -0.2102
  534MOL0     H73627   5.264  10.263  11.051  0.7965 -0.6728  1.3123
  534MOL0     H73628   5.158  10.146  11.128 -0.0866 -1.0187  0.0564
  534MOL0     H73629   5.214   9.970  10.989  1.1278 -0.8207  2.3958
  534MOL0     H73630   5.283  10.079  10.860  1.8622 -5.1196 -1.7981
  534MOL0     H73631   5.464  10.109  11.037  0.4681 -0.9250  0.5686
  534MOL0     H73632   5.360  10.000  11.143 -1.5899 -1.3609 -0.9009
  534MOL0     H73633   5.550   9.866  11.043  2.8872 -0.0033 -5.2861
  534MOL0     H73634   5.483   9.912  10.891 -4.9913  2.1372 -0.8906
  534MOL0     H73635   5.286   9.785  10.920 -0.5359  2.1548  0.8501
  534MOL0     H73636   5.430   9.685  10.933 -0.2311  0.6229 -0.4561
  534MOL0     H73637   5.315   9.799  11.183 -0.3453 -1.0376 -0.0369
  534MOL0     H73638   5.398   9.643  11.172 -3.0220 -3.2873  0.0813
  534MOL0     H73639   5.220   9.533  11.083 -0.7878 -1.3868 -0.3892
  534MOL0     H73640   5.168   9.621  11.235  1.0826 -2.2849  0.2206
  534MOL0     H73641   4.996   9.811  11.200  0.4810 -0.4663 -0.7914
  534MOL0     H73642   4.691   9.792  10.950  1.6404 -0.0770 -0.1261
  534MOL0     H73643   4.776   9.943  10.991 -1.8725  2.1027  1.0622
  534MOL0     H73644   4.770   9.883  11.237 -3.8182  2.5329  1.5537
  534MOL0     H73645   4.630   9.924  11.149 -0.6954 -0.7949  1.2381
  534MOL0     H73646   4.549   9.696  11.169 -0.0157  0.3194 -0.4256
  534MOL0     H73647   4.698   9.623  11.165 -1.1886  1.1694 -1.6016
  534MOL0     H73648   4.752   9.733  11.390 -1.1886  2.8866  1.7582
  534MOL0     H73649   4.586   9.793  11.405 -2.2962 -0.2810 -0.9798
  534MOL0     H73650   4.879   9.567  11.410  0.3365 -0.4689  2.2760
  534MOL0     H73651   5.092   9.449  11.384  0.7280 -0.4229  0.1775
  534MOL0     H73652   5.065   9.394  11.220 -1.4785  3.4132  0.8856
  534MOL0     H73653   5.094   9.278  11.345 -0.4908 -0.4764 -1.5503
  534MOL0     H73654   4.910   8.792  11.423 -0.9433  2.6950 -0.9673
  534MOL0     H73655   4.932   8.574  11.303 -3.2485 -0.9398  2.3837
  534MOL0     H73656   4.649   8.409  11.092  2.8711 -4.5934 -2.1455
  534MOL0     H73657   4.633   8.564  11.007 -0.3151  0.2917 -1.2087
  534MOL0     H73658   4.609   8.426  10.841  0.4205 -0.2330 -0.0078
  534MOL0     H73659   4.778   8.474  10.828  0.7428 -0.8847  0.2336
  534MOL0     H73660   4.680   8.189  10.893 -2.0324  3.2049  0.2918
  534MOL0     H73661   4.836   8.245  10.957  0.6595 -1.8690 -0.7024
  534MOL0     H73662   4.882   8.332  10.720  1.1540 -1.4896 -0.6058
  534MOL0     H73663   4.748   8.248  10.652  1.6709  2.3416 -2.1384
  534MOL0     H73664   4.920   8.078  10.839 -2.2233 -1.4315  0.9849
  534MOL0     H73665   4.815   8.034  10.707  2.5068 -1.3335 -1.7620
  534MOL0     H73666   5.076   8.197  10.667 -0.6529  1.3130 -3.3246
  534MOL0     H73667   4.966   8.162  10.545  1.6297  1.0369 -0.2435
  534MOL0     H73668   4.994   7.911  10.581  0.6093 -1.4395 -0.0049
  534MOL0     H73669   5.094   7.944  10.719  0.6027  2.6864  0.1049
  534MOL0     H73670   5.233   8.099  10.529  0.6692 -0.5766  0.5590
  534MOL0     H73671   5.176   7.970  10.427 -1.6817  1.5749 -0.2207
  534MOL0     H73672   4.730   8.754  10.958 -0.9194  2.6541  0.0980
  534MOL0     H73673   4.719   8.955  11.098 -1.3300  0.7670  2.9713
  534MOL0     H73674   4.622   9.143  11.370  0.1565  0.0010  2.4282
  534MOL0     H73675   4.508   9.352  11.432  1.0379 -1.2479  1.5010
  534MOL0     H73676   4.793  10.221  10.880  5.1817  2.2841 -0.4553
  534MOL0     H73677   4.567  10.192  11.008 -1.6702 -0.6100  2.8964
  534MOL0     H73678   4.308  10.275  11.278 -3.3542  0.2435 -0.8592
  534MOL0     H73679   4.071  10.279  11.346 -0.0844  2.0405  2.0853
  534MOL0     H73680   3.982  10.360  11.598 -0.7876  1.0677  2.1163
  534MOL0     H73681   3.842  10.287  11.504  1.8906  3.0471 -1.6947
  534MOL0     H73682   3.735  10.198  11.696 -0.1159 -0.7376  3.9061
  534MOL0     H73683   3.751  10.365  11.717 -2.0157 -1.8266  1.9721
  534MOL0     H73684   3.786  10.247  11.907 -0.4198 -3.4931 -0.1457
  534MOL0     H73685   3.910  10.139  11.842 -2.2538 -1.0514  0.2922
  534MOL0     H73686   4.079  10.296  11.809  0.2293 -2.1761  2.6789
  534MOL0     H73687   4.011  10.327  11.968 -3.2125  1.7613  1.5025
  534MOL0     H73688   3.888  10.702  11.847  0.6369 -0.1160  3.4107
  534MOL0     H73689   4.174  10.027  11.678  0.4150  0.7668  0.6741
  534MOL0     H73690   4.479   9.908  11.559 -1.0137 -0.2308 -0.4120
  534MOL0     H73691   4.511  10.051  11.650 -1.7337  3.5691 -1.2859
  534MOL0     H73692   4.379   9.943  11.707  2.3366  0.0184  1.6759
  535MOL0     O73693   4.121   7.440   5.163  0.3560 -0.3964  0.0309
  535MOL0     C73694   4.011   7.435   5.222  0.5669 -0.2337 -0.8230
  535MOL0     O73695   3.897   7.491   5.176 -0.0074 -0.1410 -0.1690
  535MOL0     C73696   3.907   7.563   5.058  1.5088  1.0364  0.2622
  535MOL0     C73697   3.905   7.701   5.067  0.9014  0.0985  0.1053
  535MOL0     C73698   3.915   7.779   4.952  0.5873  0.1936 -1.2059
  535MOL0     C73699   3.921   7.717   4.822 -0.0124 -0.2504 -0.1408
  535MOL0     O73700   3.934   7.797   4.713 -0.3170 -0.2043  0.3083
  535MOL0     C73701   3.818   7.806   4.625 -0.5749  0.1497  0.2990
  535MOL0     C73702   3.864   7.857   4.484  0.8429 -0.1566 -0.0121
  535MOL0     C73703   3.995   7.784   4.445  0.7991 -0.6764 -0.3660
  535MOL0     C73704   4.053   7.824   4.303  0.0804 -0.3532 -0.0380
  535MOL0     C73705   4.142   7.723   4.238  0.2836 -0.4887 -0.6914
  535MOL0     C73706   4.291   7.727   4.266  0.3739  0.1997 -0.1956
  535MOL0     C73707   4.365   7.862   4.265  0.5543  0.0177  0.1324
  535MOL0     C73708   4.386   7.903   4.120 -0.2572  0.5761  0.5536
  535MOL0     N73709   4.444   8.040   4.100  0.0062 -0.1472 -0.3574
  535MOL0     C73710   4.365   8.146   4.063  0.3810  0.0180  1.1402
  535MOL0     C73711   4.446   8.255   4.049 -0.3939  0.4622 -0.0589
  535MOL0     C73712   4.417   8.394   4.018  0.8325  0.4193  0.4406
  535MOL0     C73713   4.432   8.404   3.865  0.0824 -0.1118 -0.2443
  535MOL0     C73714   4.417   8.545   3.819  0.5491  0.2183 -0.3868
  535MOL0     C73715   4.280   8.565   3.755 -1.1021  0.4525  0.4074
  535MOL0     O73716   4.168   8.558   3.850  0.5467 -0.1325 -0.1599
  535MOL0     C73717   4.057   8.633   3.814  0.0953  0.7472  0.0124
  535MOL0     C73718   4.031   8.765   3.853 -1.1333 -0.8837 -0.6379
  535MOL0     C73719   3.923   8.834   3.805 -0.1845  0.4292 -0.6110
  535MOL0     C73720   3.903   8.979   3.864 -1.1151  0.4248 -0.1722
  535MOL0     C73721   3.837   8.775   3.715  0.2865 -0.4613 -0.6918
  535MOL0     C73722   3.717   8.831   3.673  0.2119 -0.4475 -0.1727
  535MOL0     O73723   3.718   8.970   3.635 -0.3236  0.1159 -0.5462
  535MOL0     C73724   3.616   9.032   3.559  0.5552  0.2359  0.0385
  535MOL0     C73725   3.639   9.130   3.458  0.8824 -0.8538 -0.3284
  535MOL0     C73726   3.546   9.181   3.375 -1.0148  0.1600  0.6462
  535MOL0     C73727   3.404   9.141   3.397 -0.0593 -0.6703 -0.8693
  535MOL0     O73728   3.311   9.185   3.309  1.1588 -0.2520 -0.5482
  535MOL0     C73729   3.198   9.247   3.390  0.4773  0.5512 -0.5902
  535MOL0     C73730   3.222   9.359   3.489  0.2965 -0.1879 -0.0314
  535MOL0     C73731   3.312   9.477   3.441  0.4063 -0.3713  0.2365
  535MOL0     C73732   3.272   9.600   3.520  0.2326 -0.6954 -0.0550
  535MOL0     C73733   3.337   9.735   3.482 -0.1395  0.0009  0.0538
  535MOL0     C73734   3.277   9.850   3.561  0.3054  1.4170  0.0053
  535MOL0     C73735   3.211   9.947   3.469 -0.5269 -0.7325  0.8816
  535MOL0     C73736   3.151  10.068   3.556 -0.8822  0.4609  0.1948
  535MOL0    Cl73737   3.007  10.016   3.628 -0.0287  0.0905 -0.2171
  535MOL0     C73738   3.379   9.055   3.501 -0.1927  0.8931 -1.0854
  535MOL0     C73739   3.480   8.997   3.574  0.2648  0.8647 -0.2087
  535MOL0     O73740   3.620   8.761   3.675 -0.3505  0.4686 -0.0688
  535MOL0     C73741   3.864   8.643   3.678 -0.6322  1.0089 -0.0472
  535MOL0     C73742   3.973   8.573   3.724  0.1887  0.0856 -0.4264
  535MOL0     N73743   4.585   8.206   4.061 -0.0272  0.3342 -0.7895
  535MOL0     N73744   4.575   8.079   4.108 -0.1677  0.5531 -0.9240
  535MOL0     C73745   3.910   7.573   4.813  0.4030  0.5017  0.1507
  535MOL0     C73746   3.904   7.496   4.932  0.1345  0.6101 -0.3856
  535MOL0     C73747   3.994   7.344   5.332  0.2815 -1.4195 -0.1301
  535MOL0     C73748   3.868   7.311   5.380  0.9519  1.0087  0.1749
  535MOL0     C73749   3.847   7.236   5.494 -0.0332 -0.8359 -1.2379
  535MOL0     C73750   3.951   7.180   5.564 -0.3157 -0.1103  0.6022
  535MOL0     O73751   3.927   7.094   5.671 -0.4648  0.8030  0.5236
  535MOL0     C73752   3.805   7.021   5.692 -1.0609 -0.2825  0.0196
  535MOL0     C73753   3.792   6.911   5.586  0.2733  0.3786  0.2227
  535MOL0     C73754   3.928   6.828   5.567 -0.6505 -0.5384  0.1182
  535MOL0     C73755   3.914   6.687   5.496 -0.5022 -0.4339 -0.4464
  535MOL0     C73756   3.893   6.712   5.351 -0.9504 -0.1754  0.7706
  535MOL0     C73757   3.883   6.749   5.233  0.0952 -1.8150  0.2618
  535MOL0     C73758   4.077   7.210   5.527  0.2993  0.6141 -0.1650
  535MOL0     C73759   4.099   7.281   5.406 -1.3499  0.0901  0.7008
  535MOL0     C73760   4.239   7.296   5.374  0.3941 -0.6922 -0.2911
  535MOL0     H73761   3.906   7.755   5.161  3.3173 -2.1947  1.5211
  535MOL0     H73762   3.908   7.888   4.955  0.2888  0.1921  2.1923
  535MOL0     H73763   3.739   7.870   4.667 -2.4804 -0.6125 -1.9025
  535MOL0     H73764   3.767   7.711   4.612 -1.6299  0.6357  0.7496
  535MOL0     H73765   3.779   7.836   4.420 -1.1598 -0.5770  2.5997
  535MOL0     H73766   3.873   7.966   4.479 -0.7761 -0.0189 -0.4821
  535MOL0     H73767   4.081   7.816   4.504  1.2396  0.6689 -1.6692
  535MOL0     H73768   3.975   7.676   4.448 -2.7467 -0.1219  0.5847
  535MOL0     H73769   3.967   7.843   4.238 -0.3923  3.3626  1.4183
  535MOL0     H73770   4.105   7.918   4.322  0.5505 -1.4137  5.9479
  535MOL0     H73771   4.138   7.731   4.129  1.5912 -1.1151 -0.8040
  535MOL0     H73772   4.105   7.621   4.252  0.4365 -1.0977 -3.9669
  535MOL0     H73773   4.298   7.693   4.370 -0.5234  1.8710  0.4481
  535MOL0     H73774   4.338   7.642   4.215 -3.4486 -2.3920  0.1443
  535MOL0     H73775   4.466   7.845   4.303  1.0389 -0.4989 -1.3256
  535MOL0     H73776   4.309   7.930   4.330 -1.6546  0.5918 -2.1899
  535MOL0     H73777   4.464   7.836   4.085  1.3552  1.7060  1.8648
  535MOL0     H73778   4.293   7.892   4.062 -0.2118  1.4821  0.2953
  535MOL0     H73779   4.258   8.140   4.045  0.5670  0.1155 -0.0651
  535MOL0     H73780   4.485   8.463   4.067 -2.2634  2.5746  2.0668
  535MOL0     H73781   4.311   8.411   4.040 -0.7776 -2.6015 -3.7261
  535MOL0     H73782   4.532   8.362   3.849 -0.3214 -0.9176 -0.7672
  535MOL0     H73783   4.356   8.341   3.818  1.2489 -0.8201 -1.2283
  535MOL0     H73784   4.435   8.610   3.905  0.3458 -0.2334 -0.0017
  535MOL0     H73785   4.496   8.572   3.748  0.8026  0.7316  0.0874
  535MOL0     H73786   4.283   8.669   3.721 -1.6901  1.0962  2.2108
  535MOL0     H73787   4.275   8.507   3.663 -0.7791  0.5555  0.3194
  535MOL0     H73788   4.088   8.814   3.932 -1.8181  1.7001 -1.6453
  535MOL0     H73789   3.871   9.048   3.786 -2.7735  0.3941  0.4220
  535MOL0     H73790   3.995   9.007   3.915 -0.6925 -0.8331 -0.2171
  535MOL0     H73791   3.820   8.972   3.935  0.7234  0.1506  2.0711
  535MOL0     H73792   3.743   9.159   3.452  0.0966  2.8323  1.0632
  535MOL0     H73793   3.581   9.240   3.291 -1.8444 -1.7815 -1.1550
  535MOL0     H73794   3.122   9.279   3.319  0.1235 -0.1343 -0.5292
  535MOL0     H73795   3.144   9.163   3.435 -0.9141  0.8280 -1.7171
  535MOL0     H73796   3.124   9.402   3.511  1.9633  4.9002 -1.2088
  535MOL0     H73797   3.264   9.322   3.583  0.7336  0.9477  0.2330
  535MOL0     H73798   3.292   9.489   3.334  1.0179  2.6821  0.3726
  535MOL0     H73799   3.418   9.450   3.454  0.6825  1.2588  1.8039
  535MOL0     H73800   3.269   9.586   3.629  1.9352  1.4626  0.3497
  535MOL0     H73801   3.170   9.635   3.503  0.2546  1.0095  2.5899
  535MOL0     H73802   3.442   9.721   3.508  0.8744  4.2751 -0.8520
  535MOL0     H73803   3.338   9.757   3.375  0.6788 -2.6938 -0.5609
  535MOL0     H73804   3.369   9.895   3.600  0.2297  0.7468  0.9811
  535MOL0     H73805   3.212   9.817   3.642  0.5224 -3.4746 -1.4974
  535MOL0     H73806   3.126   9.901   3.418 -0.7564  1.5660 -0.9885
  535MOL0     H73807   3.282   9.988   3.396  0.5119 -2.5363  0.8037
  535MOL0     H73808   3.125  10.157   3.496 -1.5482  0.6626  0.7625
  535MOL0     H73809   3.225  10.084   3.635  0.1922 -0.8949 -0.4925
  535MOL0     H73810   3.276   9.025   3.518 -1.0866  4.3924  0.6628
  535MOL0     H73811   3.439   8.912   3.626  1.1981  0.0847 -0.7153
  535MOL0     H73812   3.787   8.581   3.633  0.1512 -1.6226  1.9730
  535MOL0     H73813   3.997   8.472   3.693  0.2917 -0.2600  0.7507
  535MOL0     H73814   3.932   7.518   4.722 -0.4729  0.3354  0.0259
  535MOL0     H73815   3.902   7.387   4.931  0.5628  0.3449 -6.5236
  535MOL0     H73816   3.775   7.353   5.343 -0.9257  0.5564  3.9311
  535MOL0     H73817   3.744   7.210   5.516 -0.0442  0.8056  1.0156
  535MOL0     H73818   3.814   6.975   5.791 -0.5268  0.6789  0.4267
  535MOL0     H73819   3.718   7.087   5.688  0.0210  1.1582 -0.5835
  535MOL0     H73820   3.761   6.961   5.493 -1.7501  4.4135  2.7561
  535MOL0     H73821   3.707   6.847   5.613  1.1491 -1.0211 -0.2543
  535MOL0     H73822   3.999   6.890   5.513 -0.0576 -0.7958  0.5979
  535MOL0     H73823   3.963   6.805   5.668 -1.1911  1.5023  0.8032
  535MOL0     H73824   3.828   6.630   5.534  0.1915 -1.4084 -0.3015
  535MOL0     H73825   4.007   6.634   5.519 -0.3643 -0.7233 -1.6345
  535MOL0     H73826   3.846   6.800   5.147  0.4871  0.3188  1.3005
  535MOL0     H73827   4.157   7.177   5.593  0.6648  4.1376  1.3861
  535MOL0     H73828   4.255   7.239   5.282 -2.9871  1.3794 -2.4200
  535MOL0     H73829   4.275   7.397   5.352 -0.1338  0.0549  2.0495
  535MOL0     H73830   4.305   7.269   5.457  0.6180 -1.3047 -0.6625
  536MOL0     O73831   5.015   5.065   1.116 -0.8576 -0.8627 -0.0352
  536MOL0     C73832   5.123   5.111   1.160  0.0389 -0.7456  0.6635
  536MOL0     O73833   5.158   5.107   1.283 -0.6435  0.0836  0.1698
  536MOL0     C73834   5.077   5.053   1.382 -0.1119  0.5250 -0.0734
  536MOL0     C73835   5.003   5.137   1.469  0.9723  0.4849  0.3609
  536MOL0     C73836   4.936   5.070   1.582 -0.5395  0.1769  0.1904
  536MOL0     C73837   4.928   4.931   1.595 -0.8932  0.0606  0.5090
  536MOL0     O73838   4.874   4.892   1.712  0.0147  0.5163  0.4809
  536MOL0     C73839   4.886   4.750   1.740 -0.1558 -0.2003  0.3270
  536MOL0     C73840   4.778   4.705   1.833  1.0517 -0.0375  0.4501
  536MOL0     C73841   4.756   4.786   1.955  0.2007  0.1947 -0.7614
  536MOL0     C73842   4.858   4.752   2.069 -0.3297  0.8607  1.1264
  536MOL0     C73843   4.820   4.788   2.204  0.2462  0.4120 -1.8330
  536MOL0     C73844   4.905   4.729   2.317  0.0865 -0.2797  0.3846
  536MOL0     C73845   4.848   4.734   2.456 -0.4510  1.1749 -0.2415
  536MOL0     C73846   4.959   4.698   2.563  0.3704  0.1773  0.2105
  536MOL0     N73847   4.999   4.557   2.570 -0.7422 -0.4288 -0.1630
  536MOL0     C73848   4.957   4.465   2.662  0.9393 -0.4229 -0.0005
  536MOL0     C73849   5.031   4.357   2.629 -0.3103 -0.1564  0.5714
  536MOL0     C73850   5.021   4.237   2.711 -0.0673  0.5088  0.2345
  536MOL0     C73851   4.940   4.128   2.633 -0.4292  0.2394 -0.6727
  536MOL0     C73852   4.788   4.119   2.673  0.1551  0.1449 -0.0500
  536MOL0     C73853   4.727   3.982   2.644  0.2287  0.3924 -0.2995
  536MOL0     O73854   4.595   3.969   2.707 -0.6565 -0.1194  0.3003
  536MOL0     C73855   4.584   3.992   2.842  0.0647  0.4526 -0.7301
  536MOL0     C73856   4.674   3.948   2.949 -0.0447  0.3899  1.3101
  536MOL0     C73857   4.656   3.983   3.081  0.5659  0.4283 -0.0951
  536MOL0     C73858   4.739   3.900   3.189 -0.7892  1.0737 -0.1259
  536MOL0     C73859   4.546   4.062   3.115  0.2540 -0.0166  0.0919
  536MOL0     C73860   4.514   4.119   3.251  0.4756  0.2073 -0.2718
  536MOL0     O73861   4.603   4.098   3.346 -0.2483 -0.0780 -0.4546
  536MOL0     C73862   4.599   4.132   3.476 -0.1593 -0.2137 -0.2075
  536MOL0     C73863   4.511   4.227   3.532  0.4822  0.3016 -0.6410
  536MOL0     C73864   4.509   4.255   3.674 -0.8729 -1.0573  0.4596
  536MOL0     C73865   4.611   4.207   3.754  1.0240 -0.5769 -0.2329
  536MOL0     O73866   4.612   4.236   3.887 -0.7767 -0.3107 -0.2238
  536MOL0     C73867   4.686   4.151   3.971 -1.2016  0.1747 -0.4526
  536MOL0     C73868   4.697   4.207   4.121 -1.2798 -0.7426  0.8900
  536MOL0     C73869   4.559   4.250   4.169 -0.1561 -0.5796  1.7845
  536MOL0     C73870   4.485   4.139   4.237 -0.1614  0.5009  0.1022
  536MOL0     C73871   4.373   4.182   4.331 -0.1364 -0.9240  0.7928
  536MOL0     C73872   4.275   4.285   4.252 -0.9239 -0.4393  0.1875
  536MOL0     C73873   4.186   4.372   4.345  0.6486  0.6363  0.0607
  536MOL0     C73874   4.246   4.511   4.383 -0.1533 -0.8001  0.9245
  536MOL0    Cl73875   4.133   4.596   4.493  0.2848  0.0685 -0.3191
  536MOL0     C73876   4.700   4.108   3.693  0.3018  0.4264 -0.2839
  536MOL0     C73877   4.691   4.068   3.558 -0.2924 -0.1648 -0.1750
  536MOL0     O73878   4.421   4.194   3.264  0.3008  0.7276  0.4666
  536MOL0     C73879   4.452   4.094   3.020 -0.2001  0.0625 -0.3312
  536MOL0     C73880   4.473   4.062   2.887 -1.5379 -0.3358  0.6865
  536MOL0     N73881   5.111   4.386   2.524  0.0122 -0.3963  0.1594
  536MOL0     N73882   5.092   4.506   2.490  0.1312  0.4765  0.3619
  536MOL0     C73883   5.016   4.866   1.517  1.5694  0.0050 -0.9148
  536MOL0     C73884   5.081   4.917   1.401  1.4501  0.5679 -0.1431
  536MOL0     C73885   5.217   5.185   1.072  0.4363  0.2094  0.3585
  536MOL0     C73886   5.353   5.146   1.055 -1.1881  0.8688  0.2976
  536MOL0     C73887   5.447   5.222   0.982 -0.0305 -0.1667 -1.2492
  536MOL0     C73888   5.420   5.347   0.934  0.0812  0.2171  0.2825
  536MOL0     O73889   5.521   5.423   0.885 -0.1654 -0.2799  0.2872
  536MOL0     C73890   5.503   5.571   0.874  1.1305 -0.3635  0.1364
  536MOL0     C73891   5.467   5.617   0.732  0.7460  0.8385 -0.9604
  536MOL0     C73892   5.572   5.583   0.612 -0.3095 -0.3113 -1.4631
  536MOL0     C73893   5.523   5.630   0.469 -0.2693 -0.0503  1.0317
  536MOL0     C73894   5.431   5.541   0.395 -0.3788 -0.6596  0.4547
  536MOL0     C73895   5.362   5.474   0.322  0.7144 -0.6660  0.4029
  536MOL0     C73896   5.283   5.382   0.960  0.0902 -0.6249  0.1093
  536MOL0     C73897   5.182   5.310   1.023  0.2029  0.6151  0.9216
  536MOL0     C73898   5.044   5.368   1.038  0.4463 -0.1721  0.1374
  536MOL0     H73899   4.980   5.243   1.466  0.3624  0.3275 -1.9731
  536MOL0     H73900   4.886   5.137   1.651 -0.2307  1.5230 -0.8477
  536MOL0     H73901   4.980   4.718   1.786 -1.4531 -1.8668  1.9577
  536MOL0     H73902   4.870   4.688   1.651 -1.7656 -1.1650  1.2437
  536MOL0     H73903   4.682   4.708   1.780  1.7340 -1.4367 -0.9346
  536MOL0     H73904   4.784   4.601   1.866 -1.1709 -0.2477  0.3939
  536MOL0     H73905   4.753   4.893   1.935 -0.2741  0.2433 -0.4337
  536MOL0     H73906   4.668   4.742   2.003  0.5752  2.2836  2.0749
  536MOL0     H73907   4.890   4.648   2.073 -1.1395  0.6298  4.3972
  536MOL0     H73908   4.950   4.803   2.039 -0.4315  1.9482  2.5195
  536MOL0     H73909   4.721   4.745   2.220 -0.0650  1.2447 -1.4806
  536MOL0     H73910   4.821   4.895   2.227  0.2423 -0.1427  1.1715
  536MOL0     H73911   4.925   4.623   2.302  1.4933  0.3779 -3.4731
  536MOL0     H73912   5.000   4.783   2.318 -0.8324  1.4826  2.4061
  536MOL0     H73913   4.761   4.669   2.460  1.0441 -0.8626  2.5215
  536MOL0     H73914   4.816   4.833   2.488 -0.5651  0.8373  0.7005
  536MOL0     H73915   5.045   4.764   2.546 -0.5260  2.6524  3.9386
  536MOL0     H73916   4.930   4.725   2.665  2.7289 -0.3091  1.0850
  536MOL0     H73917   4.904   4.477   2.756  2.9095  1.1493  1.0047
  536MOL0     H73918   4.981   4.270   2.807 -0.5176  1.4271 -0.2459
  536MOL0     H73919   5.115   4.190   2.740  0.5161  1.7510  0.4559
  536MOL0     H73920   4.950   4.152   2.527  2.2460 -0.9699 -0.7652
  536MOL0     H73921   4.985   4.031   2.658  0.8380  0.6726 -1.1818
  536MOL0     H73922   4.786   4.144   2.779 -0.0886  3.3509 -0.7030
  536MOL0     H73923   4.729   4.188   2.612 -0.6664 -1.3507 -0.9984
  536MOL0     H73924   4.726   3.982   2.535  0.8525 -0.4349 -0.3092
  536MOL0     H73925   4.790   3.897   2.671 -1.2333 -1.6699 -2.9017
  536MOL0     H73926   4.770   3.906   2.924  0.1848  0.7604  1.5601
  536MOL0     H73927   4.793   3.817   3.143  3.4614  3.0652  0.7860
  536MOL0     H73928   4.667   3.857   3.259  0.3740 -1.3238 -0.2976
  536MOL0     H73929   4.808   3.968   3.240  0.4808  0.7883 -1.4082
  536MOL0     H73930   4.440   4.284   3.473  0.9847  1.1954 -0.3895
  536MOL0     H73931   4.435   4.324   3.713 -1.3527 -1.8029  0.8978
  536MOL0     H73932   4.649   4.048   3.969 -0.3951 -0.1385  0.1653
  536MOL0     H73933   4.790   4.141   3.940 -1.1059 -0.6009  0.0945
  536MOL0     H73934   4.735   4.129   4.187  2.8757  3.4766  4.1875
  536MOL0     H73935   4.775   4.283   4.118 -1.3077 -0.6136  2.5794
  536MOL0     H73936   4.501   4.298   4.090  0.6060  0.7112  1.9724
  536MOL0     H73937   4.573   4.337   4.235  1.7351  0.8245 -0.3113
  536MOL0     H73938   4.561   4.076   4.284 -1.5943 -0.0137  1.8306
  536MOL0     H73939   4.426   4.081   4.165 -2.0324  0.1505  1.8146
  536MOL0     H73940   4.317   4.104   4.383 -0.8036  0.4943  2.3171
  536MOL0     H73941   4.437   4.223   4.411  0.5261  2.3990 -1.2464
  536MOL0     H73942   4.217   4.213   4.194 -2.7826 -0.5314  2.0494
  536MOL0     H73943   4.326   4.341   4.174 -1.2514 -0.8720 -0.3380
  536MOL0     H73944   4.174   4.293   4.420 -0.4863 -0.8748 -1.6009
  536MOL0     H73945   4.087   4.387   4.302  1.9432 -1.2416 -4.1419
  536MOL0     H73946   4.247   4.560   4.285 -4.7578 -0.8981  0.5739
  536MOL0     H73947   4.349   4.502   4.417 -0.0744  1.5844  1.4766
  536MOL0     H73948   4.776   4.055   3.750  1.3611  1.4968 -0.6737
  536MOL0     H73949   4.774   4.006   3.524  0.9026  0.6441  1.1574
  536MOL0     H73950   4.368   4.156   3.051  0.8303  1.1426  0.4067
  536MOL0     H73951   4.404   4.096   2.811 -0.2231 -0.7259 -0.7295
  536MOL0     H73952   5.032   4.759   1.511 -1.2324 -0.4004 -3.4788
  536MOL0     H73953   5.146   4.851   1.346 -0.7081 -0.8611 -1.0840
  536MOL0     H73954   5.386   5.058   1.110  1.2221  3.0936  2.6804
  536MOL0     H73955   5.547   5.182   0.975 -0.1921 -1.0041  0.6831
  536MOL0     H73956   5.428   5.608   0.946  1.7532  1.2920 -0.0248
  536MOL0     H73957   5.598   5.602   0.918 -0.2320 -1.1145  3.9885
  536MOL0     H73958   5.433   5.721   0.735 -1.6355  0.1366  2.5269
  536MOL0     H73959   5.384   5.558   0.693  2.0075 -1.5268 -0.2400
  536MOL0     H73960   5.660   5.646   0.628 -1.4660  1.9431 -3.3019
  536MOL0     H73961   5.601   5.478   0.601 -0.5515 -0.0803 -5.7145
  536MOL0     H73962   5.606   5.653   0.401 -1.1844  0.5829  0.0991
  536MOL0     H73963   5.472   5.726   0.476 -2.8030 -1.3205  1.3235
  536MOL0     H73964   5.314   5.443   0.232  0.5819  1.0522 -0.1430
  536MOL0     H73965   5.244   5.477   0.924  1.0036  0.8252  2.6349
  536MOL0     H73966   5.021   5.403   1.139 -0.0058 -0.4588  0.1368
  536MOL0     H73967   5.028   5.460   0.981  1.5680 -1.5595 -2.6332
  536MOL0     H73968   4.961   5.307   1.000  1.3826 -1.5772  0.2787
  537MOL0     O73969   3.075   4.943   6.623  0.0624 -0.9103  0.5114
  537MOL0     C73970   3.025   5.012   6.533 -0.6708 -0.4436 -0.3428
  537MOL0     O73971   3.065   5.009   6.395 -0.0947 -0.1704  0.2242
  537MOL0     C73972   3.158   4.910   6.355  0.2931 -0.6581  0.0360
  537MOL0     C73973   3.251   4.940   6.258 -1.1227  0.0735  0.8968
  537MOL0     C73974   3.355   4.853   6.227 -0.3715  1.0945  0.4497
  537MOL0     C73975   3.352   4.719   6.274  1.5995  0.5185  0.1796
  537MOL0     O73976   3.443   4.624   6.233 -0.7421  0.2744 -0.5710
  537MOL0     C73977   3.470   4.631   6.089 -0.6501 -0.5982 -0.4220
  537MOL0     C73978   3.342   4.586   6.006 -0.6608 -0.0550  0.0463
  537MOL0     C73979   3.364   4.572   5.858 -0.1878  1.3133  0.8016
  537MOL0     C73980   3.274   4.457   5.813  0.6756  1.1423  0.7644
  537MOL0     C73981   3.263   4.447   5.659 -1.2717  0.3193  0.2033
  537MOL0     C73982   3.164   4.335   5.624  0.1471 -0.6448  0.2247
  537MOL0     C73983   3.147   4.318   5.478  0.1972  0.0719 -0.1928
  537MOL0     C73984   3.010   4.250   5.453 -0.6599  0.4284 -0.0910
  537MOL0     N73985   3.003   4.119   5.526  0.5774 -0.7869  1.0706
  537MOL0     C73986   3.065   4.004   5.490  0.1774  0.7327 -0.4967
  537MOL0     C73987   3.003   3.896   5.551  0.8308  0.4497  0.5072
  537MOL0     C73988   3.047   3.747   5.530 -0.1417 -0.5830 -0.2109
  537MOL0     C73989   2.954   3.642   5.587  1.1701  0.2041  0.8555
  537MOL0     C73990   2.979   3.496   5.526  1.6976 -0.5278 -0.0536
  537MOL0     C73991   3.110   3.443   5.568  0.9721  0.1467  0.4511
  537MOL0     O73992   3.117   3.322   5.489 -0.4153  0.0710  0.9266
  537MOL0     C73993   3.239   3.269   5.473  0.1453  0.5294 -0.6138
  537MOL0     C73994   3.354   3.310   5.551 -0.6797 -0.1010 -0.4596
  537MOL0     C73995   3.475   3.250   5.538 -0.6530  0.6868 -0.6787
  537MOL0     C73996   3.586   3.287   5.639  0.1236  0.5616  0.9026
  537MOL0     C73997   3.490   3.140   5.446  0.2055 -0.4597  0.7315
  537MOL0     C73998   3.612   3.058   5.435 -0.7272  0.1710  0.4157
  537MOL0     O73999   3.688   3.034   5.544 -1.1131  0.2100  0.4283
  537MOL0     C74000   3.794   2.939   5.545  0.0162  0.3100 -0.5117
  537MOL0     C74001   3.882   2.945   5.654  0.3352 -0.1350 -0.3728
  537MOL0     C74002   3.986   2.859   5.671 -0.6946  1.1035 -0.1253
  537MOL0     C74003   3.998   2.749   5.587 -1.5846 -0.1510  0.0534
  537MOL0     O74004   4.096   2.653   5.615  0.5409 -0.8739 -0.7229
  537MOL0     C74005   4.032   2.534   5.671  0.5814  0.2848  0.9364
  537MOL0     C74006   4.105   2.403   5.627 -0.1662 -0.3582 -0.2519
  537MOL0     C74007   4.174   2.411   5.495  0.5898 -0.2399 -1.0863
  537MOL0     C74008   4.245   2.287   5.453  0.7560  1.0332  0.6002
  537MOL0     C74009   4.328   2.306   5.324 -0.1707  0.4645 -0.0448
  537MOL0     C74010   4.357   2.168   5.267  0.2377  0.5642  1.0724
  537MOL0     C74011   4.462   2.175   5.158  0.1434  0.1341  0.3627
  537MOL0     C74012   4.448   2.054   5.067 -0.5376 -0.5822 -0.3490
  537MOL0    Cl74013   4.284   2.028   4.990  0.7650 -0.0977  0.3890
  537MOL0     C74014   3.914   2.731   5.482  0.9648  0.0814  0.4771
  537MOL0     C74015   3.811   2.822   5.460 -0.1016 -0.2685 -0.9418
  537MOL0     O74016   3.638   3.029   5.317 -0.0544  0.0667 -0.4602
  537MOL0     C74017   3.383   3.112   5.361  0.6708  0.7619 -0.9419
  537MOL0     C74018   3.262   3.175   5.370  0.0771  0.2052  0.2074
  537MOL0     N74019   2.896   3.955   5.620 -0.4080 -0.5311 -0.0678
  537MOL0     N74020   2.892   4.079   5.600 -0.8320 -0.0893  0.0761
  537MOL0     C74021   3.258   4.675   6.372  0.4853 -0.1763  1.0349
  537MOL0     C74022   3.164   4.779   6.410 -1.2858  0.2157 -0.0261
  537MOL0     C74023   2.915   5.100   6.571  0.4957  0.9784  0.6153
  537MOL0     C74024   2.815   5.096   6.472  0.8013 -0.1103 -0.5635
  537MOL0     C74025   2.696   5.170   6.499  0.4331 -0.0318 -0.5897
  537MOL0     C74026   2.675   5.245   6.621  0.5445  0.7300  0.5779
  537MOL0     O74027   2.562   5.327   6.653 -0.0401 -0.7810 -0.4722
  537MOL0     C74028   2.480   5.386   6.542  0.5091  0.0250 -0.6460
  537MOL0     C74029   2.352   5.469   6.589  0.2860  0.7653 -0.1751
  537MOL0     C74030   2.205   5.428   6.533  0.8864 -0.0843  0.7502
  537MOL0     C74031   2.204   5.389   6.383  0.1782 -0.4429  0.6954
  537MOL0     C74032   2.271   5.489   6.303  0.2100  0.4308 -0.1892
  537MOL0     C74033   2.320   5.564   6.221  0.7815 -0.0230  0.2023
  537MOL0     C74034   2.779   5.237   6.715  0.2464 -0.0831 -0.5252
  537MOL0     C74035   2.895   5.162   6.693  0.4597 -1.0054 -0.1482
  537MOL0     C74036   3.002   5.160   6.797  0.1523  0.2068  0.1025
  537MOL0     H74037   3.253   5.040   6.215  2.7210 -1.4529 -3.4132
  537MOL0     H74038   3.427   4.902   6.163  0.6126  2.8553  2.7481
  537MOL0     H74039   3.548   4.567   6.047  2.2270  3.6482 -2.3110
  537MOL0     H74040   3.516   4.719   6.043  2.3913 -2.9317 -2.2646
  537MOL0     H74041   3.298   4.500   6.057 -4.8187  2.3336  0.8852
  537MOL0     H74042   3.257   4.654   6.015 -0.4314  0.3246 -0.6446
  537MOL0     H74043   3.327   4.650   5.790 -1.3565 -1.4488 -1.9666
  537MOL0     H74044   3.469   4.549   5.843 -0.3180 -2.6767  4.3809
  537MOL0     H74045   3.325   4.367   5.847 -1.0370 -0.7775 -1.3799
  537MOL0     H74046   3.179   4.464   5.867  2.9245  2.1612  4.9704
  537MOL0     H74047   3.362   4.424   5.618 -1.4270  0.4843 -0.2796
  537MOL0     H74048   3.236   4.544   5.616  0.3785  1.6436  1.9480
  537MOL0     H74049   3.210   4.240   5.654  0.6801 -0.4666  0.0007
  537MOL0     H74050   3.076   4.354   5.685  2.1023  4.9404  1.8763
  537MOL0     H74051   3.234   4.265   5.440  1.2169  1.0904  0.6575
  537MOL0     H74052   3.147   4.419   5.438  5.5988  0.8270  1.0420
  537MOL0     H74053   2.937   4.317   5.498 -1.4749  0.8911 -2.0163
  537MOL0     H74054   2.992   4.244   5.345 -1.2456 -0.1694  0.0418
  537MOL0     H74055   3.136   3.997   5.409 -1.6310 -2.9687 -2.0012
  537MOL0     H74056   3.150   3.732   5.565  0.5144  3.2327 -0.0981
  537MOL0     H74057   3.031   3.746   5.422 -0.2280  1.4005 -0.2417
  537MOL0     H74058   2.958   3.646   5.697  5.2018  2.7496  0.8193
  537MOL0     H74059   2.852   3.667   5.557  2.1212  1.5666 -1.4223
  537MOL0     H74060   2.903   3.424   5.559 -0.2041  2.2943  2.1861
  537MOL0     H74061   2.973   3.520   5.419 -0.1532  2.5551  0.6028
  537MOL0     H74062   3.193   3.513   5.556  0.4697  0.5357 -0.9299
  537MOL0     H74063   3.108   3.426   5.676 -0.0864  2.2674  0.8321
  537MOL0     H74064   3.354   3.388   5.627  1.2127 -0.0606 -0.4420
  537MOL0     H74065   3.686   3.293   5.595 -0.0189 -0.0070  0.4957
  537MOL0     H74066   3.585   3.218   5.723 -0.3464 -1.3800 -0.6155
  537MOL0     H74067   3.580   3.385   5.687  2.5244 -0.0766  2.6670
  537MOL0     H74068   3.855   3.026   5.721  1.8990  0.5287 -0.5126
  537MOL0     H74069   4.059   2.863   5.751 -0.9849 -1.7555  0.3968
  537MOL0     H74070   4.030   2.543   5.780 -0.1130  0.1300  0.9433
  537MOL0     H74071   3.929   2.526   5.636  0.5376 -0.8105  1.3062
  537MOL0     H74072   4.168   2.371   5.710 -1.6718 -1.0113  0.6906
  537MOL0     H74073   4.024   2.328   5.622 -3.1069  2.5434  0.3009
  537MOL0     H74074   4.237   2.500   5.485  0.8074  0.1871  2.6379
  537MOL0     H74075   4.099   2.426   5.416 -0.8872 -0.7724  0.1515
  537MOL0     H74076   4.171   2.206   5.452 -1.1537  2.6837  1.0608
  537MOL0     H74077   4.320   2.257   5.527 -1.0252 -1.1046  1.6845
  537MOL0     H74078   4.273   2.371   5.255 -1.0681  1.1728  1.2822
  537MOL0     H74079   4.416   2.371   5.333 -1.2639  1.9742  0.1406
  537MOL0     H74080   4.269   2.132   5.213  1.4403  2.8909 -2.9308
  537MOL0     H74081   4.388   2.105   5.350  2.9226  3.2292  2.2814
  537MOL0     H74082   4.566   2.178   5.193  1.3533  2.9374 -2.8475
  537MOL0     H74083   4.442   2.270   5.108 -0.5958  0.7207  1.7236
  537MOL0     H74084   4.475   1.958   5.111 -0.0921 -1.1641 -1.8254
  537MOL0     H74085   4.516   2.064   4.982 -0.7593 -0.2442 -0.4912
  537MOL0     H74086   3.922   2.655   5.404 -0.3801  1.5211 -1.1548
  537MOL0     H74087   3.739   2.814   5.378 -1.1089 -1.1469 -0.0020
  537MOL0     H74088   3.391   3.040   5.280 -1.4414  2.5099 -2.8352
  537MOL0     H74089   3.191   3.151   5.291 -1.0133 -0.5223  1.3755
  537MOL0     H74090   3.263   4.582   6.428 -2.6035  0.2305  2.1389
  537MOL0     H74091   3.096   4.748   6.488 -0.8769  1.0234  0.6663
  537MOL0     H74092   2.820   5.047   6.375 -5.2361 -1.6961 -0.4554
  537MOL0     H74093   2.637   5.169   6.408 -2.4420  1.0120  1.1229
  537MOL0     H74094   2.543   5.443   6.473  1.8935 -0.4697  0.1652
  537MOL0     H74095   2.440   5.304   6.481  3.4715 -1.2387 -1.0692
  537MOL0     H74096   2.369   5.575   6.571  2.1370  1.2445  3.4859
  537MOL0     H74097   2.361   5.468   6.698  1.7224 -0.2380 -0.2747
  537MOL0     H74098   2.173   5.349   6.602  2.1642  1.1716  2.8844
  537MOL0     H74099   2.140   5.514   6.551  0.3946 -0.3117  0.0947
  537MOL0     H74100   2.099   5.371   6.359  0.8534 -1.8308 -1.4391
  537MOL0     H74101   2.250   5.290   6.377 -1.9856 -1.4215 -1.6309
  537MOL0     H74102   2.367   5.630   6.151  1.1058  0.9809  1.3300
  537MOL0     H74103   2.773   5.288   6.810  0.0501 -1.9519  0.5283
  537MOL0     H74104   3.092   5.201   6.750  1.5653 -0.9155  1.7128
  537MOL0     H74105   2.962   5.222   6.878  0.7075 -0.3372  0.8015
  537MOL0     H74106   3.019   5.060   6.837  0.5585 -0.5681 -1.9146
  538MOL0     O74107   0.225   2.638   6.071  0.0085  0.1569  0.9054
  538MOL0     C74108   0.241   2.569   5.973  0.7454 -0.3089  0.0511
  538MOL0     O74109   0.171   2.583   5.862  0.4150 -0.3592 -0.1576
  538MOL0     C74110   0.144   2.469   5.785 -0.4227  0.2614 -0.5839
  538MOL0     C74111   0.162   2.476   5.649  0.1784  0.1571 -0.5057
  538MOL0     C74112   0.121   2.377   5.566  0.8938  0.5266  0.2600
  538MOL0     C74113   0.049   2.269   5.616  0.2051  0.4099 -0.3141
  538MOL0     O74114  -0.011   2.189   5.526 -1.0180 -0.5463  0.7466
  538MOL0     C74115  -0.147   2.189   5.498 -0.7795  0.6639  0.4131
  538MOL0     C74116  -0.191   2.048   5.556  0.3289 -0.2432  0.2209
  538MOL0     C74117  -0.341   2.025   5.519 -0.2235 -0.2321 -0.8332
  538MOL0     C74118  -0.350   2.006   5.368 -0.0742 -0.6984 -0.4767
  538MOL0     C74119  -0.465   1.906   5.350 -0.1465 -0.6292 -0.0259
  538MOL0     C74120  -0.482   1.871   5.210 -0.3371  0.5096 -0.4921
  538MOL0     C74121  -0.599   1.770   5.186 -1.0811 -0.3524 -0.0867
  538MOL0     C74122  -0.574   1.627   5.188  0.3629 -0.7390  0.0213
  538MOL0     N74123  -0.688   1.541   5.209 -0.3435 -0.2196 -0.2630
  538MOL0     C74124  -0.789   1.531   5.124 -0.4922 -0.5101  0.3475
  538MOL0     C74125  -0.872   1.450   5.182  0.6636 -1.0144 -0.8847
  538MOL0     C74126  -1.004   1.404   5.125 -0.1484 -0.3817  1.0494
  538MOL0     C74127  -0.995   1.296   5.016 -0.3952  0.3126  0.1328
  538MOL0     C74128  -1.019   1.160   5.068 -0.1228 -0.1903 -0.9307
  538MOL0     C74129  -0.888   1.088   5.116 -1.0288 -0.0203  0.4273
  538MOL0     O74130  -0.908   0.947   5.101  0.6986 -0.7540 -0.2379
  538MOL0     C74131  -0.809   0.850   5.143  0.5487  0.2715  0.5535
  538MOL0     C74132  -0.839   0.710   5.130 -0.2812  0.3234  0.4391
  538MOL0     C74133  -0.752   0.611   5.174 -0.4184  1.0891  0.4883
  538MOL0     C74134  -0.798   0.464   5.161  0.0943  0.6846  0.2112
  538MOL0     C74135  -0.630   0.651   5.239 -0.0768  0.1689 -0.3698
  538MOL0     C74136  -0.535   0.563   5.310  0.4168 -0.2674 -0.8228
  538MOL0     O74137  -0.561   0.429   5.305  0.4877  0.3089 -0.5341
  538MOL0     C74138  -0.498   0.349   5.397  0.0906  0.2549 -0.1063
  538MOL0     C74139  -0.356   0.333   5.403 -0.3793  0.6290 -0.2608
  538MOL0     C74140  -0.296   0.250   5.494  0.0426  0.7324 -1.2397
  538MOL0     C74141  -0.368   0.173   5.591 -0.0644  1.2895 -0.3406
  538MOL0     O74142  -0.294   0.079   5.658 -0.1940 -0.5479  0.1519
  538MOL0     C74143  -0.364   0.025   5.772  0.3837  0.5684  0.6452
  538MOL0     C74144  -0.264  -0.057   5.844 -0.0393 -0.6988  0.2156
  538MOL0     C74145  -0.160   0.029   5.912 -0.5602 -0.5001  0.1161
  538MOL0     C74146  -0.027  -0.056   5.935  0.0895 -0.5812 -0.7202
  538MOL0     C74147   0.075   0.042   5.995  0.1924  0.1020  0.0396
  538MOL0     C74148   0.217  -0.015   6.004  0.6256 -0.0193  0.6107
  538MOL0     C74149   0.312   0.078   6.080  0.4254  0.9312 -1.3153
  538MOL0     C74150   0.455   0.011   6.100 -0.0860  0.5566 -0.9569
  538MOL0    Cl74151   0.468  -0.116   6.230 -0.1597 -0.6241 -0.1513
  538MOL0     C74152  -0.508   0.201   5.593 -0.1478  0.2882 -0.2733
  538MOL0     C74153  -0.579   0.287   5.503 -0.4791  0.4411 -0.3892
  538MOL0     O74154  -0.456   0.620   5.384 -0.3661 -0.1904  0.3410
  538MOL0     C74155  -0.603   0.797   5.243  0.6881 -0.6847 -0.1052
  538MOL0     C74156  -0.696   0.890   5.203  0.5189  0.1181  0.6040
  538MOL0     N74157  -0.830   1.420   5.304 -0.0558  0.3138 -0.0110
  538MOL0     N74158  -0.725   1.486   5.328  0.4152  0.4641 -0.5827
  538MOL0     C74159   0.033   2.255   5.755  0.0050  0.0234  0.3315
  538MOL0     C74160   0.072   2.355   5.840  0.4770  0.7037 -0.2622
  538MOL0     C74161   0.356   2.482   5.973 -0.4821 -0.2447  0.5445
  538MOL0     C74162   0.441   2.489   5.863  0.5166  0.2202 -0.1340
  538MOL0     C74163   0.558   2.413   5.853 -0.0670  0.8455  0.2490
  538MOL0     C74164   0.589   2.321   5.957 -0.6509 -0.0895 -0.1169
  538MOL0     O74165   0.691   2.232   5.947 -0.6108  0.2764 -0.6041
  538MOL0     C74166   0.782   2.239   6.053  0.0382  0.2295  0.8390
  538MOL0     C74167   0.928   2.253   6.010 -0.0919  0.3218  0.3367
  538MOL0     C74168   0.955   2.162   5.891 -0.1214  0.6521  0.5964
  538MOL0     C74169   0.919   2.019   5.898 -0.3963  0.2304 -0.5302
  538MOL0     C74170   0.982   1.924   5.801  0.0481  0.4489 -0.8137
  538MOL0     C74171   1.026   1.837   5.724  0.0726 -1.1588 -0.8498
  538MOL0     C74172   0.494   2.311   6.063  0.7316 -0.3844  0.4157
  538MOL0     C74173   0.377   2.387   6.075 -0.3736  0.5214  0.0908
  538MOL0     C74174   0.288   2.380   6.200 -0.9256 -0.6784  0.4284
  538MOL0     H74175   0.203   2.570   5.612  0.7127 -0.0983 -0.5805
  538MOL0     H74176   0.122   2.403   5.460 -3.4532 -1.7377 -0.5518
  538MOL0     H74177  -0.160   2.189   5.390  0.9445 -0.2672  0.1667
  538MOL0     H74178  -0.200   2.279   5.531  1.1511  1.9248  0.2205
  538MOL0     H74179  -0.133   1.963   5.518  0.6938  0.6316 -1.2522
  538MOL0     H74180  -0.171   2.053   5.664  2.5994 -0.0084 -0.1506
  538MOL0     H74181  -0.368   1.940   5.582 -0.3885 -0.5410 -1.3205
  538MOL0     H74182  -0.408   2.107   5.550 -0.4383 -1.2059  1.5160
  538MOL0     H74183  -0.366   2.100   5.315  1.2349 -0.3940 -0.3557
  538MOL0     H74184  -0.257   1.960   5.334 -0.5401 -0.7948 -1.6665
  538MOL0     H74185  -0.555   1.955   5.387 -1.9095 -0.1903 -4.2706
  538MOL0     H74186  -0.451   1.812   5.404  0.8778  0.1214  1.0467
  538MOL0     H74187  -0.506   1.965   5.159 -1.4065 -0.3942 -1.7086
  538MOL0     H74188  -0.387   1.827   5.180 -0.6265 -1.3916  1.1831
  538MOL0     H74189  -0.632   1.792   5.084 -2.3335  0.9592  0.5571
  538MOL0     H74190  -0.685   1.783   5.252 -1.6875 -1.4198 -0.6434
  538MOL0     H74191  -0.530   1.610   5.089 -0.9182  0.1670 -0.7434
  538MOL0     H74192  -0.500   1.600   5.263 -1.5083 -0.0474  2.2279
  538MOL0     H74193  -0.798   1.585   5.030 -1.2501  0.1983  0.8095
  538MOL0     H74194  -1.047   1.490   5.072 -0.8067 -1.1553  0.2944
  538MOL0     H74195  -1.065   1.379   5.212  4.4328  1.6844  5.3475
  538MOL0     H74196  -1.082   1.314   4.951 -1.1119  0.2610  1.0501
  538MOL0     H74197  -0.905   1.298   4.954 -1.0657  0.8573 -0.8656
  538MOL0     H74198  -1.101   1.155   5.140  1.1308  2.6398  0.8729
  538MOL0     H74199  -1.044   1.101   4.979  1.0819  0.4764 -1.7540
  538MOL0     H74200  -0.796   1.115   5.063  0.8912 -2.3378  2.3226
  538MOL0     H74201  -0.867   1.111   5.221  2.5072 -0.5400 -0.0543
  538MOL0     H74202  -0.935   0.670   5.098  0.5812 -0.9495 -0.6457
  538MOL0     H74203  -0.827   0.435   5.262  0.3306  1.6807  0.5684
  538MOL0     H74204  -0.719   0.395   5.129 -0.5947  0.2573 -0.6255
  538MOL0     H74205  -0.880   0.448   5.090  2.2575  0.8849 -2.4858
  538MOL0     H74206  -0.295   0.382   5.328  0.7683  0.4404  0.5198
  538MOL0     H74207  -0.189   0.231   5.498  0.0009  0.6373  2.4528
  538MOL0     H74208  -0.390   0.108   5.838  1.0581  0.7397  0.7014
  538MOL0     H74209  -0.443  -0.048   5.751  1.9646 -0.9261 -0.3567
  538MOL0     H74210  -0.320  -0.102   5.926  1.9712  2.3997  3.5782
  538MOL0     H74211  -0.214  -0.134   5.784 -2.5907  0.7594 -4.2214
  538MOL0     H74212  -0.192   0.071   6.007 -1.2840  0.6324 -0.6067
  538MOL0     H74213  -0.130   0.122   5.863 -0.8320  0.2760  1.4072
  538MOL0     H74214   0.015  -0.089   5.840  0.2224  2.3744 -1.7935
  538MOL0     H74215  -0.048  -0.134   6.008 -1.5841  0.4530 -0.0325
  538MOL0     H74216   0.078   0.140   5.947 -0.6673  0.7014  1.1596
  538MOL0     H74217   0.044   0.063   6.097  0.5368 -1.4954  0.5090
  538MOL0     H74218   0.259  -0.037   5.905 -1.0079  1.6744 -0.5199
  538MOL0     H74219   0.205  -0.112   6.055  0.9891 -1.0075 -1.0929
  538MOL0     H74220   0.263   0.111   6.172  0.0201  2.7658 -2.1501
  538MOL0     H74221   0.323   0.174   6.030  0.6685  2.7873  2.0241
  538MOL0     H74222   0.528   0.089   6.121  1.1234 -1.4134  3.1983
  538MOL0     H74223   0.503  -0.033   6.012 -1.2258 -1.1616 -0.7723
  538MOL0     H74224  -0.569   0.149   5.667 -0.6849  0.5351 -0.5325
  538MOL0     H74225  -0.687   0.290   5.498 -0.7138 -2.4411  0.6404
  538MOL0     H74226  -0.514   0.841   5.287  0.1457 -0.1975  0.5091
  538MOL0     H74227  -0.670   0.993   5.223 -0.3373  0.0930  1.9501
  538MOL0     H74228  -0.008   2.162   5.794  2.5670 -1.6452 -0.6928
  538MOL0     H74229   0.048   2.338   5.944  0.3094  0.4245 -0.3469
  538MOL0     H74230   0.424   2.546   5.772  0.8543 -0.8068 -0.8690
  538MOL0     H74231   0.618   2.408   5.763 -1.1204 -2.4330 -0.4227
  538MOL0     H74232   0.742   2.314   6.122 -3.6240 -1.3520  0.6190
  538MOL0     H74233   0.776   2.149   6.114  1.1209 -0.7357 -0.4093
  538MOL0     H74234   1.004   2.236   6.087  1.2094  0.3672 -0.8872
  538MOL0     H74235   0.956   2.352   5.973 -0.0475 -0.6896 -2.5460
  538MOL0     H74236   0.912   2.197   5.797 -1.3553 -0.2557  0.7971
  538MOL0     H74237   1.062   2.170   5.869 -0.3465  0.2657 -0.7284
  538MOL0     H74238   0.813   2.015   5.873 -0.0533 -0.3007 -1.9568
  538MOL0     H74239   0.930   1.986   6.002 -0.1954  3.8424  0.7251
  538MOL0     H74240   1.053   1.749   5.669 -2.0335 -1.9583 -0.7137
  538MOL0     H74241   0.501   2.227   6.132 -2.1108 -0.2355  1.0120
  538MOL0     H74242   0.318   2.451   6.278  2.2914 -1.5587  0.1386
  538MOL0     H74243   0.185   2.409   6.175 -1.2748  0.4818  2.9148
  538MOL0     H74244   0.276   2.282   6.247 -0.3312 -0.4722  1.0211
  539MOL0     O74245   7.408  10.972   6.636  0.0644 -0.0214  0.1616
  539MOL0     C74246   7.386  10.925   6.521 -0.2721  0.9451  0.3749
  539MOL0     O74247   7.269  10.946   6.457 -0.2942 -0.0302  0.3973
  539MOL0     C74248   7.168  10.983   6.532 -0.1042 -0.3342 -0.7613
  539MOL0     C74249   7.139  10.925   6.656 -0.3542 -0.0343 -0.4457
  539MOL0     C74250   7.030  10.961   6.729  0.4045  0.2026 -0.3174
  539MOL0     C74251   6.946  11.066   6.686 -0.4816 -0.2275  0.1295
  539MOL0     O74252   6.845  11.109   6.756  0.3276 -0.1466 -0.4163
  539MOL0     C74253   6.878  11.197   6.859  0.4954 -1.2408 -0.2776
  539MOL0     C74254   6.767  11.287   6.886  0.3800 -0.2799 -0.5430
  539MOL0     C74255   6.718  11.378   6.759 -1.1101 -0.5415  0.6246
  539MOL0     C74256   6.823  11.458   6.694  0.5368 -0.7504 -0.0040
  539MOL0     C74257   6.760  11.571   6.611  0.8905 -1.1438 -0.2396
  539MOL0     C74258   6.867  11.680   6.578 -0.2153  0.2435  0.3708
  539MOL0     C74259   6.789  11.802   6.568 -0.6211 -0.9306 -1.0010
  539MOL0     C74260   6.851  11.920   6.491  0.7618 -0.5053 -0.5102
  539MOL0     N74261   6.954  12.003   6.553  0.9287 -0.0409 -0.5695
  539MOL0     C74262   7.042  11.960   6.645  0.4046 -0.0466 -0.4743
  539MOL0     C74263   7.098  12.069   6.698  0.7402 -0.5269  0.0645
  539MOL0     C74264   7.186  12.064   6.811  0.3550  0.5855 -0.2401
  539MOL0     C74265   7.324  11.989   6.785  0.1280  0.2593 -0.0396
  539MOL0     C74266   7.399  11.939   6.908 -0.3978 -0.2047  0.2579
  539MOL0     C74267   7.551  11.941   6.883  0.3777 -1.6759 -0.6448
  539MOL0     O74268   7.594  11.840   6.807  0.4770 -0.4611  0.5120
  539MOL0     C74269   7.717  11.783   6.814 -0.0847  0.0601  0.3898
  539MOL0     C74270   7.820  11.862   6.843 -0.6996  0.3890 -0.2450
  539MOL0     C74271   7.952  11.817   6.844 -0.3825  0.6460 -0.4699
  539MOL0     C74272   8.043  11.918   6.905  0.5460  0.4817 -0.1273
  539MOL0     C74273   7.980  11.678   6.811 -0.1957 -0.9190 -0.1460
  539MOL0     C74274   8.117  11.621   6.827 -0.3538  0.0473  0.3625
  539MOL0     O74275   8.122  11.486   6.825 -0.2207 -0.3584 -0.0233
  539MOL0     C74276   8.239  11.420   6.820 -0.5855 -0.0710  1.0040
  539MOL0     C74277   8.367  11.453   6.753  0.4309  0.5610  0.1582
  539MOL0     C74278   8.484  11.376   6.789 -0.4161 -0.1771  0.9388
  539MOL0     C74279   8.488  11.283   6.896 -0.3769 -0.7209  1.2889
  539MOL0     O74280   8.598  11.225   6.942  0.6640  0.3010  0.2578
  539MOL0     C74281   8.709  11.223   6.854 -1.0202  0.4777 -0.9360
  539MOL0     C74282   8.814  11.124   6.913  0.7999 -0.4055  0.4198
  539MOL0     C74283   8.918  11.094   6.802  0.6072 -0.4544 -0.9945
  539MOL0     C74284   9.020  11.206   6.804 -0.9314 -0.5257 -0.1857
  539MOL0     C74285   9.147  11.174   6.722 -0.3114  0.0671 -0.1179
  539MOL0     C74286   9.277  11.268   6.749  0.2837 -0.1393  0.1866
  539MOL0     C74287   9.400  11.235   6.649 -1.3243 -0.8869  0.6039
  539MOL0     C74288   9.542  11.274   6.704  0.0021 -0.2426 -0.4087
  539MOL0    Cl74289   9.667  11.266   6.564 -0.4399  0.2904 -0.3937
  539MOL0     C74290   8.366  11.258   6.960  0.6600 -1.4208 -0.3351
  539MOL0     C74291   8.252  11.329   6.926  0.4587  0.1700 -0.3302
  539MOL0     O74292   8.216  11.695   6.834  0.5735 -0.6772  0.1566
  539MOL0     C74293   7.873  11.598   6.766 -0.1046  0.7180 -0.2474
  539MOL0     C74294   7.746  11.652   6.768 -0.7488  0.9408 -0.6152
  539MOL0     N74295   7.037  12.178   6.639 -0.2613 -0.6603  0.1214
  539MOL0     N74296   6.959  12.143   6.550  0.1236  0.4948  0.2355
  539MOL0     C74297   6.971  11.122   6.558 -0.1455 -0.6399  0.0710
  539MOL0     C74298   7.076  11.079   6.487 -0.2798 -0.2211 -0.4615
  539MOL0     C74299   7.489  10.855   6.443 -0.5232 -0.7302 -0.9087
  539MOL0     C74300   7.486  10.880   6.303  0.7755  1.2760  0.0501
  539MOL0     C74301   7.587  10.832   6.214 -0.7875  0.9925 -0.5975
  539MOL0     C74302   7.693  10.756   6.267 -1.2921 -0.1930 -0.3134
  539MOL0     O74303   7.808  10.716   6.197  1.1688 -1.0379  0.2471
  539MOL0     C74304   7.826  10.763   6.059  0.2000 -0.3311 -0.5211
  539MOL0     C74305   7.740  10.680   5.958  1.3566  0.2345  0.7087
  539MOL0     C74306   7.800  10.673   5.818 -1.1624  0.3136 -0.2335
  539MOL0     C74307   7.916  10.573   5.828  0.0981  0.5725 -0.8464
  539MOL0     C74308   7.873  10.443   5.780  0.8395 -0.0928 -0.7240
  539MOL0     C74309   7.826  10.334   5.755  0.4732 -0.0666  0.2960
  539MOL0     C74310   7.696  10.723   6.399  0.4126  0.4863  0.2248
  539MOL0     C74311   7.600  10.774   6.493 -0.1831 -0.2620  1.0506
  539MOL0     C74312   7.626  10.738   6.632  0.2640  0.0717  0.3288
  539MOL0     H74313   7.208  10.847   6.686 -1.2271  0.0762  2.1471
  539MOL0     H74314   7.003  10.903   6.816  0.0616  0.2208 -0.4126
  539MOL0     H74315   6.960  11.264   6.830 -0.6873  0.8398  0.9210
  539MOL0     H74316   6.902  11.137   6.946  2.0282 -0.4086 -0.0976
  539MOL0     H74317   6.677  11.226   6.895 -0.0899  0.3750 -0.6567
  539MOL0     H74318   6.775  11.341   6.981 -0.8072  2.0499 -1.6696
  539MOL0     H74319   6.681  11.305   6.686 -3.2272  0.1891  0.9010
  539MOL0     H74320   6.638  11.448   6.784  0.0218  2.0327 -2.2476
  539MOL0     H74321   6.889  11.499   6.771  0.1253  0.3424 -0.2282
  539MOL0     H74322   6.883  11.396   6.626  2.1109 -0.3311  0.9471
  539MOL0     H74323   6.675  11.611   6.667  2.2417  1.0338  0.3980
  539MOL0     H74324   6.716  11.536   6.517  3.2079 -0.3189 -1.7193
  539MOL0     H74325   6.954  11.692   6.642  2.5290  0.9618 -3.1662
  539MOL0     H74326   6.921  11.664   6.484 -1.8631  0.6393 -0.6960
  539MOL0     H74327   6.756  11.837   6.667 -2.9282  1.0572 -2.3507
  539MOL0     H74328   6.689  11.791   6.525 -0.6429 -2.5044 -0.6165
  539MOL0     H74329   6.897  11.874   6.403 -0.5835 -2.1594 -0.3997
  539MOL0     H74330   6.770  11.985   6.459  1.8860  0.5023 -1.4135
  539MOL0     H74331   7.071  11.857   6.664  1.4557  0.2861 -0.1586
  539MOL0     H74332   7.139  12.016   6.898  2.5920  0.3551  0.9054
  539MOL0     H74333   7.205  12.164   6.852  0.8815 -0.1310  1.3515
  539MOL0     H74334   7.299  11.910   6.713 -1.3720  1.7025 -1.1717
  539MOL0     H74335   7.394  12.060   6.738 -1.5714  0.9473 -1.6715
  539MOL0     H74336   7.362  11.994   6.995  0.1268  0.0822  0.3044
  539MOL0     H74337   7.380  11.834   6.933 -1.7774 -0.4741 -1.7441
  539MOL0     H74338   7.573  12.033   6.829 -0.1092 -1.0888  0.1350
  539MOL0     H74339   7.602  11.932   6.980  2.2337 -1.4874 -1.5674
  539MOL0     H74340   7.782  11.960   6.871 -3.1114 -0.7862  0.8668
  539MOL0     H74341   8.067  11.882   7.005 -3.8664  2.1511  1.7743
  539MOL0     H74342   7.996  12.017   6.911  2.8894  1.5671  3.0139
  539MOL0     H74343   8.134  11.928   6.844  0.1007 -1.4541 -1.1972
  539MOL0     H74344   8.374  11.539   6.688 -0.9011  0.6400  0.0946
  539MOL0     H74345   8.577  11.398   6.738 -0.7376 -2.1931 -0.6637
  539MOL0     H74346   8.659  11.184   6.765 -3.6759 -0.2727  0.7700
  539MOL0     H74347   8.748  11.325   6.844  2.3933 -0.8238 -2.3776
  539MOL0     H74348   8.851  11.165   7.007  2.0189 -0.7663  0.1181
  539MOL0     H74349   8.764  11.031   6.943  1.7230  0.0756  3.8210
  539MOL0     H74350   8.871  11.101   6.704  0.2058 -1.9401 -0.9249
  539MOL0     H74351   8.968  10.999   6.818  2.0880  0.3805 -0.4570
  539MOL0     H74352   9.054  11.216   6.908 -0.1470  0.8077 -0.5527
  539MOL0     H74353   8.973  11.298   6.770 -2.2344 -1.1741 -0.2095
  539MOL0     H74354   9.184  11.079   6.763  0.4370  2.3968  5.5753
  539MOL0     H74355   9.129  11.175   6.614 -1.3358  3.0430 -0.0057
  539MOL0     H74356   9.303  11.261   6.855 -2.3739  0.1070  0.9232
  539MOL0     H74357   9.255  11.373   6.729  1.4865  0.0410 -0.2526
  539MOL0     H74358   9.390  11.296   6.558  0.4060 -1.0537  0.2683
  539MOL0     H74359   9.399  11.130   6.620 -4.1154 -0.3571 -1.7088
  539MOL0     H74360   9.567  11.204   6.785  3.6381  3.0896  1.7147
  539MOL0     H74361   9.536  11.372   6.752 -0.6584 -0.6217  0.3046
  539MOL0     H74362   8.359  11.191   7.045 -3.2639 -1.1800 -0.3041
  539MOL0     H74363   8.172  11.311   6.997  0.5936 -1.6620 -0.6018
  539MOL0     H74364   7.887  11.494   6.740 -0.2996  0.3555  1.0536
  539MOL0     H74365   7.668  11.591   6.723 -0.2396 -1.1144  1.1052
  539MOL0     H74366   6.919  11.207   6.515 -0.5720 -0.6919  0.4713
  539MOL0     H74367   7.100  11.114   6.387  1.6278  2.2497  0.7539
  539MOL0     H74368   7.397  10.928   6.262 -0.5528 -0.8958  0.2417
  539MOL0     H74369   7.588  10.869   6.112 -2.5659  2.7661 -0.0400
  539MOL0     H74370   7.822  10.870   6.041 -2.5128 -0.1639  0.6578
  539MOL0     H74371   7.933  10.741   6.045 -0.0042 -0.7559 -1.5063
  539MOL0     H74372   7.637  10.706   5.934  1.8013 -0.3994 -2.4174
  539MOL0     H74373   7.739  10.577   5.996 -0.1799 -1.3956 -3.1960
  539MOL0     H74374   7.727  10.650   5.740 -2.3147 -0.0612  0.9270
  539MOL0     H74375   7.827  10.775   5.789 -3.7582  0.2623 -3.4035
  539MOL0     H74376   7.958  10.571   5.929  1.1604  1.3929 -1.2568
  539MOL0     H74377   7.999  10.606   5.765  0.6994 -0.3551 -0.5721
  539MOL0     H74378   7.799  10.237   5.719  0.1600 -0.2069  0.8904
  539MOL0     H74379   7.773  10.653   6.429  0.0413 -0.9633 -1.9569
  539MOL0     H74380   7.531  10.707   6.678 -0.7759  0.7301 -1.2760
  539MOL0     H74381   7.699  10.658   6.646  0.9591 -0.0207 -3.1421
  539MOL0     H74382   7.662  10.817   6.699 -0.4793 -0.0106  0.8529
  540MOL0     O74383   6.207   6.639   8.522  0.6629 -0.1904  0.3430
  540MOL0     C74384   6.254   6.671   8.631 -0.4452 -0.2715  0.7043
  540MOL0     O74385   6.391   6.693   8.644  0.0951  0.2798 -0.0673
  540MOL0     C74386   6.471   6.724   8.544 -0.7829 -0.1612 -0.1817
  540MOL0     C74387   6.504   6.632   8.446  0.3711 -0.0596 -0.1107
  540MOL0     C74388   6.594   6.655   8.348  0.4426 -0.7299  1.1408
  540MOL0     C74389   6.666   6.776   8.344  0.1141  1.0873 -0.1479
  540MOL0     O74390   6.752   6.799   8.238  0.5075  0.1871  0.6285
  540MOL0     C74391   6.853   6.706   8.213  0.6361  0.4533  0.9178
  540MOL0     C74392   6.982   6.773   8.169  0.3680  0.1250 -0.7833
  540MOL0     C74393   7.021   6.864   8.283  0.7547 -0.1080 -0.6768
  540MOL0     C74394   7.092   6.788   8.398 -0.5159  0.2383  0.1737
  540MOL0     C74395   7.140   6.882   8.496 -0.5249 -0.4062 -0.6616
  540MOL0     C74396   7.253   6.820   8.574  0.1003  0.4138  0.2227
  540MOL0     C74397   7.339   6.925   8.654  0.8563  0.1071 -0.6728
  540MOL0     C74398   7.431   6.844   8.748 -0.8343 -0.9822  0.2031
  540MOL0     N74399   7.517   6.944   8.824  0.5215  0.1492 -0.8604
  540MOL0     C74400   7.634   7.000   8.780 -1.4995  0.0832 -0.4491
  540MOL0     C74401   7.653   7.086   8.889 -1.3339  0.2571  0.2724
  540MOL0     C74402   7.783   7.169   8.909  0.0292  0.0071 -0.2665
  540MOL0     C74403   7.757   7.299   8.990  0.1853 -0.2449 -0.1458
  540MOL0     C74404   7.690   7.407   8.891  0.3709  0.9596 -0.0621
  540MOL0     C74405   7.665   7.549   8.948  1.4288  1.1534  1.0891
  540MOL0     O74406   7.773   7.625   9.000 -0.0749 -0.6340 -0.1805
  540MOL0     C74407   7.878   7.657   8.918 -0.5078 -0.2580  0.2956
  540MOL0     C74408   8.000   7.706   8.979  0.0310  1.1230 -0.5999
  540MOL0     C74409   8.085   7.779   8.899  0.1765  0.2548 -0.6698
  540MOL0     C74410   8.196   7.841   8.978 -0.8888 -0.3114  0.1387
  540MOL0     C74411   8.069   7.796   8.758  0.1031  0.3735 -0.1335
  540MOL0     C74412   8.160   7.864   8.672 -0.3581 -0.9035 -0.4368
  540MOL0     O74413   8.142   7.846   8.539  0.3537  0.5503  0.2919
  540MOL0     C74414   8.213   7.920   8.443  0.4385  0.3072 -0.6063
  540MOL0     C74415   8.228   8.064   8.442  0.7239  1.0697  0.0300
  540MOL0     C74416   8.303   8.126   8.342 -1.0361  0.5529  0.3493
  540MOL0     C74417   8.373   8.056   8.242 -0.2234  0.1071  0.2014
  540MOL0     O74418   8.443   8.120   8.150  0.2162 -0.5571  0.5150
  540MOL0     C74419   8.363   8.218   8.073 -0.4061  0.0844 -0.7669
  540MOL0     C74420   8.250   8.162   7.973 -1.0523  0.0720  0.1323
  540MOL0     C74421   8.142   8.106   8.056  0.6072 -0.1157 -0.4515
  540MOL0     C74422   8.013   8.098   7.967 -0.6008  0.0174  0.1155
  540MOL0     C74423   7.895   8.029   8.035  0.4724 -0.7494  0.4500
  540MOL0     C74424   7.832   8.091   8.161  0.6736 -0.3009 -0.8133
  540MOL0     C74425   7.696   8.043   8.198 -0.5832  0.3006 -0.4330
  540MOL0     C74426   7.704   7.891   8.203 -0.0874 -0.0759  0.0363
  540MOL0    Cl74427   7.545   7.839   8.285 -0.0122  0.1929  0.0363
  540MOL0     C74428   8.359   7.913   8.241 -1.5671 -0.3285 -0.7485
  540MOL0     C74429   8.282   7.851   8.344  1.1557  0.6335  0.5482
  540MOL0     O74430   8.265   7.911   8.714  0.7115  0.3563  0.2188
  540MOL0     C74431   7.953   7.739   8.704  0.6059  0.4371  0.4028
  540MOL0     C74432   7.864   7.677   8.786 -0.5219  0.0101 -0.1915
  540MOL0     N74433   7.547   7.083   8.979  0.5631  0.2508 -0.2598
  540MOL0     N74434   7.466   6.991   8.941 -0.3999 -0.4218  0.4321
  540MOL0     C74435   6.622   6.875   8.436  0.0402  0.0413  0.5253
  540MOL0     C74436   6.530   6.856   8.538 -0.7836  0.9770 -0.0144
  540MOL0     C74437   6.172   6.667   8.762 -0.0576 -1.8641 -0.1392
  540MOL0     C74438   6.246   6.674   8.875  0.0555  0.8136 -0.4851
  540MOL0     C74439   6.198   6.678   9.006  0.6486 -1.0932  0.1786
  540MOL0     C74440   6.060   6.688   9.019 -0.4583 -1.0839 -0.9947
  540MOL0     O74441   6.004   6.702   9.137  0.4493 -0.5783 -0.0792
  540MOL0     C74442   6.079   6.675   9.253 -0.0027  0.4931  0.6750
  540MOL0     C74443   6.009   6.705   9.384 -0.7398 -0.0791 -0.4785
  540MOL0     C74444   5.989   6.849   9.411 -1.1501  0.2456  1.2175
  540MOL0     C74445   6.095   6.959   9.355  0.2755  0.2907  0.2398
  540MOL0     C74446   6.097   7.093   9.421  0.7428  0.9273 -0.2194
  540MOL0     C74447   6.058   7.189   9.492 -0.4189 -0.0766  0.0354
  540MOL0     C74448   5.980   6.680   8.901  0.3220 -0.5305 -1.0088
  540MOL0     C74449   6.029   6.664   8.773  0.0711  0.1540  0.0320
  540MOL0     C74450   5.946   6.669   8.646 -0.6968 -0.6956 -0.1435
  540MOL0     H74451   6.459   6.534   8.450 -1.0057  0.5992  1.9769
  540MOL0     H74452   6.604   6.582   8.268 -1.1535 -0.1977  0.4270
  540MOL0     H74453   6.817   6.632   8.140  0.3560 -0.4427  1.9433
  540MOL0     H74454   6.869   6.648   8.304 -0.4089 -2.9802 -0.9050
  540MOL0     H74455   7.054   6.692   8.157  0.4585  0.4480 -2.8027
  540MOL0     H74456   6.978   6.827   8.074  1.1046  1.2727 -0.1894
  540MOL0     H74457   7.088   6.937   8.237 -0.1867  1.6858  0.6469
  540MOL0     H74458   6.933   6.919   8.318  0.3782  0.1124 -1.9172
  540MOL0     H74459   7.023   6.716   8.444 -3.6692  2.0182 -1.4059
  540MOL0     H74460   7.184   6.743   8.360 -1.4198 -0.3059 -1.4751
  540MOL0     H74461   7.062   6.899   8.571 -0.2124 -1.0403 -0.1894
  540MOL0     H74462   7.155   6.983   8.457  1.6807 -0.4891 -0.1852
  540MOL0     H74463   7.215   6.742   8.641 -0.9425  2.2257  1.8690
  540MOL0     H74464   7.328   6.781   8.505  0.2488 -0.0416  0.6399
  540MOL0     H74465   7.269   6.967   8.727  1.1656 -1.0397  0.3155
  540MOL0     H74466   7.380   7.004   8.590 -1.5735  3.0589  1.1289
  540MOL0     H74467   7.361   6.784   8.807 -0.1575  0.2684  2.3930
  540MOL0     H74468   7.503   6.780   8.696  2.0471  1.1018  1.3907
  540MOL0     H74469   7.696   6.967   8.698  0.0313 -2.1385  1.4666
  540MOL0     H74470   7.828   7.188   8.811 -0.9621 -3.5271 -1.5453
  540MOL0     H74471   7.843   7.093   8.961 -0.6525  0.4017  1.1414
  540MOL0     H74472   7.694   7.276   9.076 -2.2579 -0.7722 -1.9560
  540MOL0     H74473   7.859   7.337   9.003  1.0121 -1.7379 -1.7515
  540MOL0     H74474   7.755   7.402   8.803 -3.7268  0.4708 -3.3831
  540MOL0     H74475   7.596   7.358   8.865  0.2407 -0.6000  2.9456
  540MOL0     H74476   7.607   7.608   8.876  0.9091 -1.6435 -0.9778
  540MOL0     H74477   7.586   7.531   9.021  3.8657 -0.7806  3.4446
  540MOL0     H74478   8.007   7.714   9.087 -2.5565  2.2334 -0.4538
  540MOL0     H74479   8.184   7.948   8.960  2.0915  0.2336  0.7708
  540MOL0     H74480   8.297   7.809   8.947 -1.3478 -0.6702 -1.0628
  540MOL0     H74481   8.198   7.839   9.087 -0.0432 -1.3107  0.1190
  540MOL0     H74482   8.167   8.121   8.512 -2.3724 -1.7818 -0.0883
  540MOL0     H74483   8.308   8.233   8.355 -2.2806  0.4162  2.4506
  540MOL0     H74484   8.314   8.292   8.138 -0.4496 -0.1361 -0.5503
  540MOL0     H74485   8.426   8.269   7.999  0.7495 -1.3829 -0.8369
  540MOL0     H74486   8.213   8.236   7.902  1.8120 -0.3485 -1.9703
  540MOL0     H74487   8.300   8.087   7.911  3.6807  0.9297  2.4169
  540MOL0     H74488   8.111   8.151   8.150 -3.7596 -2.4831 -0.4891
  540MOL0     H74489   8.162   7.999   8.071 -0.4633 -0.4953 -1.5546
  540MOL0     H74490   8.041   8.045   7.876  0.8644  1.9934 -0.6577
  540MOL0     H74491   7.985   8.199   7.937  0.9342 -0.2586 -2.6036
  540MOL0     H74492   7.820   8.016   7.956  1.5299  1.4937 -1.0212
  540MOL0     H74493   7.946   7.934   8.052  1.7887  0.0415  0.9913
  540MOL0     H74494   7.819   8.200   8.162 -3.4558 -0.6115  0.8526
  540MOL0     H74495   7.892   8.071   8.250  0.7924  0.3306 -0.7461
  540MOL0     H74496   7.630   8.078   8.118  0.3320 -0.4301 -1.5521
  540MOL0     H74497   7.659   8.068   8.298  1.7221 -1.0214  0.8472
  540MOL0     H74498   7.787   7.863   8.268 -0.7048 -2.4039 -0.0964
  540MOL0     H74499   7.707   7.836   8.109 -0.8180 -0.1788  0.0666
  540MOL0     H74500   8.408   7.843   8.175  2.3345  1.1368  0.3547
  540MOL0     H74501   8.258   7.745   8.347 -0.5762  1.0267  2.8390
  540MOL0     H74502   7.930   7.743   8.598  1.7838  0.2380  0.1212
  540MOL0     H74503   7.782   7.629   8.734  1.1747 -3.3010 -0.0725
  540MOL0     H74504   6.675   6.968   8.424  0.1023 -0.2138 -1.4955
  540MOL0     H74505   6.512   6.927   8.618 -1.2158  0.8900 -0.0298
  540MOL0     H74506   6.354   6.679   8.869  0.0318  1.2723 -0.5763
  540MOL0     H74507   6.271   6.656   9.083 -1.1834  0.2092  2.4210
  540MOL0     H74508   6.114   6.571   9.255  0.9812 -0.0405 -7.8491
  540MOL0     H74509   6.172   6.732   9.247 -1.0452  2.1278 -0.7040
  540MOL0     H74510   6.068   6.658   9.463 -0.4261 -1.4482 -1.4779
  540MOL0     H74511   5.915   6.648   9.385 -1.1366  0.5433 -1.1947
  540MOL0     H74512   5.887   6.878   9.383 -0.8986  0.8821  0.9267
  540MOL0     H74513   5.998   6.852   9.520  1.5448 -0.7826  1.1059
  540MOL0     H74514   6.079   6.973   9.248  3.6651  0.5335 -0.3554
  540MOL0     H74515   6.193   6.913   9.370 -0.2503 -0.3593  1.9710
  540MOL0     H74516   6.058   7.275   9.556  3.9572 -1.6120  2.5088
  540MOL0     H74517   5.872   6.683   8.906  0.2870  1.0441 -1.9586
  540MOL0     H74518   5.841   6.688   8.670 -1.6840 -2.8448 -2.3435
  540MOL0     H74519   5.973   6.747   8.574  0.1769 -0.4373  0.4402
  540MOL0     H74520   5.937   6.578   8.586  0.9473 -1.7926  1.1991
  541MOL0     O74521   6.523   7.200   3.448  0.5610  0.3147  0.3442
  541MOL0     C74522   6.488   7.225   3.563  0.0540  0.1980 -0.0621
  541MOL0     O74523   6.489   7.136   3.666  0.9358 -0.0671  0.2414
  541MOL0     C74524   6.458   7.002   3.637  0.0928  0.3785 -1.1541
  541MOL0     C74525   6.532   6.897   3.691  1.2041  0.3639 -0.1302
  541MOL0     C74526   6.501   6.764   3.643  0.3270 -0.9863 -0.8185
  541MOL0     C74527   6.413   6.739   3.539  0.1056  0.4147  0.1052
  541MOL0     O74528   6.384   6.611   3.480  0.0226 -0.5708 -0.4459
  541MOL0     C74529   6.481   6.513   3.519 -0.1996  0.0963 -0.5648
  541MOL0     C74530   6.426   6.392   3.451  0.2340 -0.3803 -0.3702
  541MOL0     C74531   6.500   6.267   3.488 -0.0152  0.1427 -0.0157
  541MOL0     C74532   6.651   6.282   3.477 -1.1817  0.2067 -0.4600
  541MOL0     C74533   6.728   6.161   3.446 -1.1513  0.6827 -0.8691
  541MOL0     C74534   6.672   6.035   3.523  0.5797  0.3294 -0.7537
  541MOL0     C74535   6.772   5.919   3.530  1.4507 -0.6586  1.2316
  541MOL0     C74536   6.897   5.937   3.615 -0.1949  0.0999 -0.4627
  541MOL0     N74537   6.972   5.813   3.633  0.1473  0.3904 -0.4518
  541MOL0     C74538   7.106   5.792   3.602  0.0202  0.4159 -0.9474
  541MOL0     C74539   7.134   5.674   3.666 -1.0516  0.4647 -0.2632
  541MOL0     C74540   7.277   5.615   3.683  0.1046  0.2378  0.5483
  541MOL0     C74541   7.343   5.640   3.823 -0.2230 -0.3133  2.0104
  541MOL0     C74542   7.499   5.641   3.799 -0.7856 -0.2632 -0.7844
  541MOL0     C74543   7.543   5.787   3.801 -0.2902 -1.2272 -0.0186
  541MOL0     O74544   7.690   5.775   3.791 -0.0763 -0.1531  0.2313
  541MOL0     C74545   7.770   5.884   3.765  0.3186  0.7100  0.4507
  541MOL0     C74546   7.729   6.011   3.804 -0.5500 -0.2383 -0.2132
  541MOL0     C74547   7.812   6.119   3.784  0.4086  0.2464  0.1429
  541MOL0     C74548   7.762   6.248   3.835  0.6482 -0.5707 -0.0503
  541MOL0     C74549   7.933   6.102   3.713  0.4755 -0.9286 -0.3316
  541MOL0     C74550   8.017   6.219   3.664 -0.2747 -0.5086  0.4224
  541MOL0     O74551   7.991   6.344   3.703 -0.2454 -0.1137 -0.3568
  541MOL0     C74552   8.074   6.443   3.673 -0.5991 -0.2807 -0.6121
  541MOL0     C74553   8.200   6.448   3.727  0.0929 -0.0616 -0.4923
  541MOL0     C74554   8.279   6.561   3.707 -1.0978 -0.1827 -0.1291
  541MOL0     C74555   8.245   6.665   3.627  0.9675  0.2794 -0.0116
  541MOL0     O74556   8.336   6.769   3.621  0.2328  0.3083  1.0218
  541MOL0     C74557   8.321   6.838   3.504 -0.0920  0.0920 -0.0642
  541MOL0     C74558   8.451   6.912   3.472  0.4362  0.0226  0.3122
  541MOL0     C74559   8.489   7.041   3.556  0.2180  0.2215  0.5300
  541MOL0     C74560   8.613   7.121   3.497  0.4901  0.2413  0.0506
  541MOL0     C74561   8.614   7.264   3.547 -0.5424 -0.1341  0.1395
  541MOL0     C74562   8.708   7.341   3.457 -0.7846  0.0908 -0.4483
  541MOL0     C74563   8.707   7.487   3.502 -0.2172 -0.5019 -0.0335
  541MOL0     C74564   8.829   7.565   3.455 -0.1178  0.2380  0.3373
  541MOL0    Cl74565   8.847   7.730   3.524  0.0619  0.4981 -0.2163
  541MOL0     C74566   8.106   6.657   3.573 -0.3452  0.0925  0.0118
  541MOL0     C74567   8.028   6.545   3.594 -0.3069 -0.2631  0.2098
  541MOL0     O74568   8.082   6.197   3.559 -0.0548  0.0403 -0.8852
  541MOL0     C74569   7.971   5.973   3.677  0.3920 -0.0684  0.2780
  541MOL0     C74570   7.894   5.865   3.711  0.1116 -0.4067  0.2211
  541MOL0     N74571   7.023   5.626   3.727  0.0423  0.4932 -0.7905
  541MOL0     N74572   6.935   5.709   3.707  0.1603  0.2562  0.4180
  541MOL0     C74573   6.344   6.854   3.486  0.3885  0.1888 -0.0731
  541MOL0     C74574   6.364   6.980   3.533 -0.1389 -0.5427 -0.1346
  541MOL0     C74575   6.457   7.366   3.593  0.5677 -0.3000  0.3342
  541MOL0     C74576   6.532   7.437   3.683 -0.8289  0.5846  0.1780
  541MOL0     C74577   6.517   7.568   3.705  0.0897 -0.2125 -0.0861
  541MOL0     C74578   6.402   7.642   3.652 -0.3034  0.5813  0.3227
  541MOL0     O74579   6.376   7.782   3.660 -0.1954  0.7368 -1.0332
  541MOL0     C74580   6.476   7.876   3.706  0.2933 -0.3776  0.1934
  541MOL0     C74581   6.431   7.948   3.827  0.5649  0.2750 -0.1857
  541MOL0     C74582   6.551   8.029   3.867  0.0785  0.5928 -0.8208
  541MOL0     C74583   6.597   8.157   3.789 -0.3826 -0.6277 -0.7169
  541MOL0     C74584   6.744   8.156   3.768 -0.4213  0.0231  0.3086
  541MOL0     C74585   6.867   8.173   3.759 -0.2011 -0.7248  0.3421
  541MOL0     C74586   6.306   7.556   3.584  0.2096 -0.1510 -0.6126
  541MOL0     C74587   6.339   7.428   3.543 -0.5425  0.4850 -0.8711
  541MOL0     C74588   6.244   7.369   3.444 -0.2715  0.4909  0.2386
  541MOL0     H74589   6.602   6.922   3.770 -0.3986  0.4415  1.3316
  541MOL0     H74590   6.554   6.683   3.692  0.0850 -1.8485 -1.9515
  541MOL0     H74591   6.491   6.494   3.626  2.2289  0.7962 -0.6016
  541MOL0     H74592   6.582   6.539   3.484  0.2705 -0.7999  0.0710
  541MOL0     H74593   6.318   6.391   3.469  0.3507  2.9172  1.2152
  541MOL0     H74594   6.437   6.401   3.342  0.2179  1.4734 -0.2579
  541MOL0     H74595   6.471   6.244   3.591  0.3486  1.2326  0.3389
  541MOL0     H74596   6.462   6.188   3.423  2.1146 -0.8037 -0.1817
  541MOL0     H74597   6.675   6.345   3.390 -1.3667  1.1263  0.1337
  541MOL0     H74598   6.680   6.333   3.569  1.1634  1.3590 -1.7364
  541MOL0     H74599   6.829   6.189   3.478 -0.6475  0.2960 -2.0576
  541MOL0     H74600   6.730   6.151   3.337 -1.2209  1.0306 -0.9023
  541MOL0     H74601   6.644   6.045   3.628 -2.4702  2.7401 -1.6474
  541MOL0     H74602   6.576   6.007   3.478  0.2048  0.2691  0.0657
  541MOL0     H74603   6.792   5.901   3.424 -1.8954  1.1783  0.1504
  541MOL0     H74604   6.715   5.831   3.562  0.6552 -0.5139  0.2602
  541MOL0     H74605   6.954   6.021   3.572  0.2713  0.1768  0.3000
  541MOL0     H74606   6.891   5.975   3.717  0.8530 -0.6113 -0.1251
  541MOL0     H74607   7.163   5.866   3.548 -0.6356  1.5045 -0.2050
  541MOL0     H74608   7.326   5.658   3.594 -2.1254  0.5023 -0.6340
  541MOL0     H74609   7.266   5.508   3.665 -0.9699  0.7840 -2.9325
  541MOL0     H74610   7.306   5.731   3.871 -1.1249  1.4869 -1.6963
  541MOL0     H74611   7.307   5.548   3.869 -0.8132 -0.7096  0.7870
  541MOL0     H74612   7.537   5.584   3.885 -2.4615 -0.5010 -0.1548
  541MOL0     H74613   7.520   5.599   3.700 -5.0133 -0.0650 -1.9539
  541MOL0     H74614   7.484   5.857   3.741 -0.0023  1.0026  2.1382
  541MOL0     H74615   7.524   5.834   3.898 -0.2010 -0.5550 -0.3221
  541MOL0     H74616   7.630   6.030   3.846  0.2248  1.8849  0.7775
  541MOL0     H74617   7.848   6.306   3.869  0.5761  1.7624 -3.4351
  541MOL0     H74618   7.680   6.254   3.908 -0.0874  1.4573 -0.9683
  541MOL0     H74619   7.722   6.313   3.757 -2.2985 -1.6530  0.4273
  541MOL0     H74620   8.225   6.370   3.798  2.7444  0.8178 -0.3757
  541MOL0     H74621   8.376   6.571   3.754 -0.5219 -0.3141 -1.2750
  541MOL0     H74622   8.307   6.773   3.417  3.2121  0.3355 -0.9066
  541MOL0     H74623   8.235   6.905   3.516 -2.0683 -2.7692  3.9225
  541MOL0     H74624   8.537   6.847   3.483  1.7936  1.4016 -1.4958
  541MOL0     H74625   8.456   6.947   3.368 -0.6646  1.5837  0.7409
  541MOL0     H74626   8.512   7.016   3.660 -2.4217 -0.7480  0.9771
  541MOL0     H74627   8.400   7.104   3.550  0.0971 -0.0655 -1.0848
  541MOL0     H74628   8.616   7.116   3.388  5.2776 -3.2014 -0.0139
  541MOL0     H74629   8.703   7.067   3.528  0.5683  0.2083 -0.2329
  541MOL0     H74630   8.513   7.305   3.544 -0.6967 -0.0720  3.2309
  541MOL0     H74631   8.648   7.276   3.650 -0.4248  3.3368 -0.1961
  541MOL0     H74632   8.673   7.324   3.354  2.4093  0.3056 -1.6623
  541MOL0     H74633   8.809   7.302   3.468 -1.5342 -1.3596  1.8940
  541MOL0     H74634   8.713   7.495   3.611  1.1190 -0.0400 -0.1266
  541MOL0     H74635   8.612   7.534   3.473 -0.0749 -0.5203 -0.5471
  541MOL0     H74636   8.824   7.595   3.350  2.9133  3.4500  0.9262
  541MOL0     H74637   8.920   7.507   3.474 -0.7980 -1.2072 -0.6224
  541MOL0     H74638   8.058   6.743   3.528 -4.3108 -1.3553  1.1053
  541MOL0     H74639   7.927   6.557   3.557 -0.2588  1.9233  0.6773
  541MOL0     H74640   8.064   5.956   3.622 -0.7687 -1.4981 -1.3803
  541MOL0     H74641   7.942   5.771   3.687  1.2174  0.0138  0.7358
  541MOL0     H74642   6.262   6.832   3.417  1.1422 -1.9294 -0.3850
  541MOL0     H74643   6.322   7.061   3.475 -1.8696 -0.0308  1.7113
  541MOL0     H74644   6.602   7.387   3.750 -0.2612  0.1792 -0.7001
  541MOL0     H74645   6.594   7.608   3.770  1.8358 -2.4561 -0.6635
  541MOL0     H74646   6.574   7.829   3.710 -1.4022 -4.5895 -1.7397
  541MOL0     H74647   6.484   7.946   3.623 -2.2756 -1.2063 -0.8660
  541MOL0     H74648   6.398   7.879   3.905  0.7634 -0.9134 -1.1354
  541MOL0     H74649   6.344   8.011   3.806 -0.7904 -1.3536  0.3525
  541MOL0     H74650   6.533   8.057   3.972  1.1999 -1.9699  0.1216
  541MOL0     H74651   6.635   7.959   3.873 -2.1314 -2.4781 -3.0547
  541MOL0     H74652   6.582   8.249   3.845 -0.4490 -2.4179  2.4496
  541MOL0     H74653   6.550   8.156   3.690 -0.2186  0.0073 -0.8048
  541MOL0     H74654   6.968   8.197   3.733 -0.4015  3.3469  2.4383
  541MOL0     H74655   6.222   7.614   3.546  0.4326  1.4698  1.2031
  541MOL0     H74656   6.273   7.403   3.344  0.7190 -2.4022 -0.5353
  541MOL0     H74657   6.256   7.261   3.436  2.1100  0.8206 -1.8642
  541MOL0     H74658   6.138   7.389   3.465 -1.2231 -2.4528 -1.2209
  542MOL0     O74659   2.445   8.098   3.711  0.5415 -0.2191  0.0173
  542MOL0     C74660   2.353   8.167   3.767  0.2702  0.1541 -0.3919
  542MOL0     O74661   2.371   8.275   3.847 -0.3287  0.0416  0.0797
  542MOL0     C74662   2.500   8.305   3.881 -0.5357  0.2258  0.0996
  542MOL0     C74663   2.542   8.301   4.016 -0.1557 -0.0913  0.2130
  542MOL0     C74664   2.672   8.330   4.060  0.6528 -1.4585 -0.3021
  542MOL0     C74665   2.768   8.361   3.972 -0.0733 -0.4839 -0.6305
  542MOL0     O74666   2.902   8.389   4.006 -0.0020  0.1811 -0.2736
  542MOL0     C74667   2.958   8.311   4.117 -0.5715  0.3123  0.4536
  542MOL0     C74668   3.101   8.255   4.076  0.4205 -0.4250 -0.4750
  542MOL0     C74669   3.195   8.362   4.027  0.4575  0.0233 -0.3532
  542MOL0     C74670   3.184   8.375   3.869 -0.4524 -0.2635  0.4479
  542MOL0     C74671   3.297   8.465   3.809  0.3769  0.5077 -0.9114
  542MOL0     C74672   3.286   8.487   3.654  0.4966 -0.3732 -0.2950
  542MOL0     C74673   3.143   8.544   3.613 -0.2307 -0.2203 -0.1795
  542MOL0     C74674   3.157   8.619   3.490  1.1249 -1.0051  0.4091
  542MOL0     N74675   3.029   8.699   3.466 -0.7107  0.0212 -0.7063
  542MOL0     C74676   2.915   8.644   3.422 -0.4984  0.6499  0.0729
  542MOL0     C74677   2.817   8.727   3.466 -0.0486 -0.4480  0.1842
  542MOL0     C74678   2.667   8.702   3.456 -2.0888 -0.0253 -0.2619
  542MOL0     C74679   2.589   8.747   3.584 -0.0452  0.9736  1.2216
  542MOL0     C74680   2.468   8.668   3.620  0.0625  0.3419  0.3568
  542MOL0     C74681   2.378   8.615   3.505  0.2211 -0.7935  0.0864
  542MOL0     O74682   2.286   8.713   3.456  0.2641  0.0802 -0.5663
  542MOL0     C74683   2.234   8.704   3.328  0.4129 -0.3360  0.9536
  542MOL0     C74684   2.171   8.818   3.288  0.5303  0.0858 -0.4204
  542MOL0     C74685   2.109   8.829   3.167  0.2519  0.3424  0.5631
  542MOL0     C74686   2.029   8.950   3.137 -0.0531 -0.4296  0.0126
  542MOL0     C74687   2.117   8.726   3.070 -0.1839  0.6613  0.0361
  542MOL0     C74688   2.071   8.728   2.924 -0.1535  0.7273  0.0072
  542MOL0     O74689   2.155   8.659   2.833 -0.5000 -0.6843 -1.4875
  542MOL0     C74690   2.097   8.611   2.726  0.0750 -0.1516 -0.0534
  542MOL0     C74691   2.154   8.638   2.603 -0.5532  0.4169  0.0355
  542MOL0     C74692   2.096   8.588   2.487 -0.8670 -0.6749  0.7641
  542MOL0     C74693   1.981   8.503   2.490 -0.1649  0.6964 -0.7148
  542MOL0     O74694   1.956   8.441   2.371 -0.5664 -1.1259  0.0504
  542MOL0     C74695   1.841   8.352   2.371 -1.1847 -0.7550 -0.1427
  542MOL0     C74696   1.817   8.307   2.227  0.5702 -0.2406  0.3715
  542MOL0     C74697   1.951   8.294   2.151 -0.6894  0.0456 -0.1111
  542MOL0     C74698   1.942   8.206   2.039  0.1547  0.5070 -0.1168
  542MOL0     C74699   2.070   8.212   1.955 -0.2150  0.2676 -0.1166
  542MOL0     C74700   2.042   8.154   1.813 -1.3247 -0.1765 -0.0644
  542MOL0     C74701   2.165   8.088   1.749  0.1587  0.3608  0.8937
  542MOL0     C74702   2.151   8.016   1.607  0.4673  0.3090 -0.4643
  542MOL0    Cl74703   2.079   8.132   1.482 -0.2586  0.2433 -0.2415
  542MOL0     C74704   1.931   8.469   2.620 -0.0966  0.4799  0.0167
  542MOL0     C74705   1.981   8.523   2.732 -1.0967 -0.8380 -0.0385
  542MOL0     O74706   1.959   8.783   2.892 -0.2608 -0.0945  0.1735
  542MOL0     C74707   2.187   8.611   3.115 -0.0700 -0.2573  0.1043
  542MOL0     C74708   2.248   8.601   3.236  0.1441  0.5852  0.7829
  542MOL0     N74709   2.878   8.844   3.517 -0.6194  0.1907 -0.7292
  542MOL0     N74710   3.005   8.816   3.522  0.5632  0.1170  0.0729
  542MOL0     C74711   2.735   8.366   3.832 -0.1983  0.2336  0.0988
  542MOL0     C74712   2.601   8.333   3.788 -0.7707  0.5059 -0.8208
  542MOL0     C74713   2.206   8.134   3.728 -0.0416 -0.4775 -0.6722
  542MOL0     C74714   2.108   8.234   3.739  0.0983  1.1249 -0.0402
  542MOL0     C74715   1.973   8.209   3.718 -0.5076  0.4862  1.3939
  542MOL0     C74716   1.940   8.080   3.659  0.3978  0.1940 -0.9944
  542MOL0     O74717   1.805   8.075   3.616 -0.0412  0.6909 -0.5794
  542MOL0     C74718   1.790   8.000   3.493 -0.0634 -0.1945 -0.7834
  542MOL0     C74719   1.635   7.995   3.464 -0.9107 -0.2869  0.1131
  542MOL0     C74720   1.558   7.924   3.568  0.5976 -0.1289 -0.5295
  542MOL0     C74721   1.504   7.793   3.520  0.0652 -0.3132  0.0373
  542MOL0     C74722   1.607   7.708   3.468  0.3888 -0.1472 -0.0641
  542MOL0     C74723   1.695   7.632   3.430  0.7009 -0.2290  0.1466
  542MOL0     C74724   2.027   7.978   3.664  0.1804  0.0771 -0.0029
  542MOL0     C74725   2.156   8.004   3.699 -0.3636 -0.1282 -0.3566
  542MOL0     C74726   2.246   7.877   3.723  0.6643 -0.3852 -0.4715
  542MOL0     H74727   2.471   8.296   4.099  0.5943  1.2641  0.9638
  542MOL0     H74728   2.699   8.328   4.165 -0.2972  1.5356  0.0866
  542MOL0     H74729   2.891   8.229   4.142  2.2668 -2.2304  0.2621
  542MOL0     H74730   2.970   8.381   4.201  0.0589  1.8741 -0.8729
  542MOL0     H74731   3.143   8.205   4.164  1.1941  0.0918 -0.5386
  542MOL0     H74732   3.078   8.185   3.996 -1.0771  0.6928 -1.0816
  542MOL0     H74733   3.172   8.460   4.068  1.4929  0.4166 -0.6876
  542MOL0     H74734   3.299   8.329   4.034  0.5915 -1.1544 -4.6569
  542MOL0     H74735   3.191   8.276   3.822  0.0054 -0.6449  1.2934
  542MOL0     H74736   3.090   8.420   3.837  0.8173  1.2683 -1.3681
  542MOL0     H74737   3.396   8.423   3.830  1.0853  2.5514  0.0585
  542MOL0     H74738   3.292   8.562   3.859 -1.3486 -1.1289  2.4500
  542MOL0     H74739   3.367   8.549   3.615 -0.1143  0.1873 -0.6903
  542MOL0     H74740   3.294   8.386   3.612  1.8759 -0.7655  0.8329
  542MOL0     H74741   3.123   8.618   3.691  2.7594 -0.9374  1.4086
  542MOL0     H74742   3.057   8.477   3.604 -1.8137  1.0335  3.5926
  542MOL0     H74743   3.240   8.691   3.497 -0.3799  0.7182  1.3231
  542MOL0     H74744   3.178   8.554   3.405 -1.1581  2.7732 -3.4582
  542MOL0     H74745   2.900   8.538   3.402  0.1096  0.8894 -1.8045
  542MOL0     H74746   2.654   8.593   3.457  1.6889 -0.6454  2.6205
  542MOL0     H74747   2.629   8.755   3.368  1.9860 -1.4973 -3.2101
  542MOL0     H74748   2.650   8.729   3.674 -1.7949 -0.9961  2.1030
  542MOL0     H74749   2.559   8.852   3.590 -6.2394 -0.3495 -0.0092
  542MOL0     H74750   2.499   8.577   3.672 -0.9280 -1.2951 -1.7511
  542MOL0     H74751   2.413   8.728   3.693 -1.3466 -2.4320  1.7230
  542MOL0     H74752   2.438   8.590   3.417  1.1778  1.3373  0.0636
  542MOL0     H74753   2.330   8.524   3.542  1.6862 -1.4664  0.4108
  542MOL0     H74754   2.166   8.904   3.354  2.8576  1.7269 -2.2228
  542MOL0     H74755   2.059   8.990   3.039 -1.6609  1.0514  0.0718
  542MOL0     H74756   2.037   9.020   3.221  0.7413 -0.7463  0.2139
  542MOL0     H74757   1.924   8.920   3.134 -0.6514  1.4915  0.1298
  542MOL0     H74758   2.245   8.698   2.600 -0.4407  0.2321 -1.7112
  542MOL0     H74759   2.143   8.598   2.389 -2.0959  0.0291  0.2359
  542MOL0     H74760   1.876   8.258   2.415 -0.0820 -1.0854 -1.6490
  542MOL0     H74761   1.749   8.392   2.415  1.0666  4.9699  0.2071
  542MOL0     H74762   1.760   8.213   2.223  1.2625 -0.6905  0.7682
  542MOL0     H74763   1.767   8.387   2.172  1.4367 -0.7293 -1.1919
  542MOL0     H74764   2.032   8.252   2.212 -1.0669 -0.0495  0.3316
  542MOL0     H74765   1.975   8.397   2.123  0.6124  0.0533  0.9347
  542MOL0     H74766   1.858   8.233   1.974  0.2660  0.2114 -0.3908
  542MOL0     H74767   1.918   8.105   2.073 -1.2306  1.2050  1.0705
  542MOL0     H74768   2.111   8.313   1.954  0.2601  0.1978  2.6682
  542MOL0     H74769   2.150   8.152   1.999  0.5132  0.7395 -0.7870
  542MOL0     H74770   1.997   8.223   1.741  0.9712  0.0836 -1.3587
  542MOL0     H74771   1.976   8.067   1.816 -1.0223 -0.3840  1.4301
  542MOL0     H74772   2.216   8.017   1.815  1.2591  0.7575  0.4832
  542MOL0     H74773   2.231   8.173   1.733 -1.1260  1.5035  1.4696
  542MOL0     H74774   2.092   7.924   1.612  4.3768 -2.3636  3.8456
  542MOL0     H74775   2.253   7.983   1.590  1.3325  0.4893  3.5227
  542MOL0     H74776   1.838   8.416   2.640 -0.4571  1.2594  0.4457
  542MOL0     H74777   1.924   8.493   2.820 -1.7588 -0.2038 -0.2400
  542MOL0     H74778   2.172   8.528   3.047 -2.4821 -1.3925  1.8866
  542MOL0     H74779   2.300   8.507   3.253  0.0339  0.9905  3.9992
  542MOL0     H74780   2.811   8.392   3.759  0.7260 -1.7047  0.3169
  542MOL0     H74781   2.580   8.351   3.683 -1.8378 -0.8565 -0.8518
  542MOL0     H74782   2.157   8.326   3.771  0.9676  1.3931 -1.9852
  542MOL0     H74783   1.899   8.288   3.728 -0.3438  0.8686 -0.1390
  542MOL0     H74784   1.833   8.056   3.410 -2.1201  1.2876 -0.9199
  542MOL0     H74785   1.840   7.903   3.504  2.8361  1.4464  2.9879
  542MOL0     H74786   1.633   7.948   3.365  1.5746  1.0233 -0.6516
  542MOL0     H74787   1.601   8.099   3.456 -0.0366 -0.0280 -0.3290
  542MOL0     H74788   1.619   7.885   3.650 -1.2604 -0.2976  0.8247
  542MOL0     H74789   1.476   7.984   3.608  0.3726 -1.8934  1.8671
  542MOL0     H74790   1.438   7.814   3.436  0.2196 -1.2661 -0.3301
  542MOL0     H74791   1.451   7.735   3.596  2.7378 -1.8032  0.8836
  542MOL0     H74792   1.770   7.570   3.386 -2.4056 -2.3815 -2.5345
  542MOL0     H74793   1.998   7.878   3.636  1.4978 -0.7535  1.4637
  542MOL0     H74794   2.318   7.872   3.641 -1.1389 -0.6207 -2.1094
  542MOL0     H74795   2.295   7.888   3.820 -1.1992 -1.3339  0.6274
  542MOL0     H74796   2.192   7.782   3.717  0.9984 -0.6435  0.4549
  543MOL0     O74797   6.356   1.920   5.613 -0.5083 -0.6016 -0.1062
  543MOL0     C74798   6.337   2.040   5.618  0.9618 -0.4875 -0.3951
  543MOL0     O74799   6.208   2.108   5.625  0.3298  0.2195 -0.1007
  543MOL0     C74800   6.091   2.043   5.634  1.3716  0.7342  0.0884
  543MOL0     C74801   5.999   2.101   5.554 -0.6534  0.0609  0.3137
  543MOL0     C74802   5.880   2.028   5.532  0.5424 -0.9081  0.0408
  543MOL0     C74803   5.852   1.911   5.604 -0.4212  0.9900 -0.0554
  543MOL0     O74804   5.734   1.847   5.585  0.2729  0.1136  0.0489
  543MOL0     C74805   5.668   1.851   5.453 -0.4951  0.9039  0.0005
  543MOL0     C74806   5.623   1.719   5.408 -0.8070 -0.1137  0.4393
  543MOL0     C74807   5.489   1.680   5.467  0.6698 -0.2100 -0.4249
  543MOL0     C74808   5.431   1.564   5.391  0.3620 -0.5798  0.2057
  543MOL0     C74809   5.366   1.595   5.263  0.8495  0.0212  0.4705
  543MOL0     C74810   5.383   1.497   5.141 -0.0457  0.2077 -1.2191
  543MOL0     C74811   5.312   1.359   5.180 -0.7448  0.4115 -0.0667
  543MOL0     C74812   5.377   1.249   5.100  0.2082 -0.2561 -0.1706
  543MOL0     N74813   5.319   1.118   5.127 -0.1549  0.3859  0.7796
  543MOL0     C74814   5.227   1.049   5.046  0.4798  0.8340 -0.2768
  543MOL0     C74815   5.224   0.922   5.098 -0.6261 -0.4331 -0.4500
  543MOL0     C74816   5.136   0.798   5.067  0.0290 -0.6502  0.2594
  543MOL0     C74817   5.194   0.690   4.970 -0.7886 -0.3453 -0.3815
  543MOL0     C74818   5.222   0.762   4.831  1.1688  0.3288 -1.0011
  543MOL0     C74819   5.243   0.649   4.725  1.0922 -1.3185 -0.8607
  543MOL0     O74820   5.340   0.562   4.769 -0.1655  1.1261 -0.0510
  543MOL0     C74821   5.341   0.440   4.719 -0.0346 -0.2821  0.2202
  543MOL0     C74822   5.247   0.392   4.619  0.9768 -0.7848 -0.5693
  543MOL0     C74823   5.257   0.256   4.581 -0.9441 -0.0816  0.6333
  543MOL0     C74824   5.166   0.202   4.481 -1.0104 -0.0854  0.1396
  543MOL0     C74825   5.357   0.173   4.634  1.2686  1.5300 -0.1642
  543MOL0     C74826   5.376   0.035   4.592 -0.9664 -0.6670 -0.5928
  543MOL0     O74827   5.506   0.007   4.576  0.4678  0.5369  0.3998
  543MOL0     C74828   5.554  -0.102   4.505  0.7580 -0.2033  0.1095
  543MOL0     C74829   5.541  -0.233   4.551  1.1338 -0.0412  0.1856
  543MOL0     C74830   5.598  -0.340   4.481 -0.2236  0.2353 -0.4380
  543MOL0     C74831   5.668  -0.318   4.362  0.2881 -0.1307 -0.4883
  543MOL0     O74832   5.732  -0.413   4.290  0.2195 -0.2263  0.2485
  543MOL0     C74833   5.766  -0.532   4.356  0.3743 -0.1085 -0.5487
  543MOL0     C74834   5.891  -0.603   4.297 -0.5622  0.5463  0.0540
  543MOL0     C74835   5.858  -0.647   4.155  0.0527 -0.5688 -0.6333
  543MOL0     C74836   5.790  -0.785   4.149 -0.1938 -0.4046  0.0680
  543MOL0     C74837   5.782  -0.825   4.001 -0.3217  0.0378 -0.2725
  543MOL0     C74838   5.665  -0.762   3.925 -0.2873 -0.2194  0.7292
  543MOL0     C74839   5.643  -0.788   3.780  0.0308  0.6291  1.2575
  543MOL0     C74840   5.518  -0.707   3.726  0.2247 -0.6172 -0.0570
  543MOL0    Cl74841   5.450  -0.791   3.588 -0.0225  0.3594  0.2210
  543MOL0     C74842   5.688  -0.188   4.315  0.2608  0.2159 -0.1899
  543MOL0     C74843   5.631  -0.079   4.383  0.8708  0.5619 -0.0172
  543MOL0     O74844   5.281  -0.039   4.571 -0.0784  0.0943 -0.3142
  543MOL0     C74845   5.442   0.228   4.731  0.4888 -0.0638  0.1579
  543MOL0     C74846   5.432   0.357   4.781 -0.1792 -0.3782 -0.1573
  543MOL0     N74847   5.310   0.923   5.207 -0.0529  0.4676 -0.5461
  543MOL0     N74848   5.361   1.038   5.223  0.5905 -0.6310 -0.1970
  543MOL0     C74849   5.951   1.864   5.702 -0.2749  0.1838 -0.6698
  543MOL0     C74850   6.062   1.934   5.727 -0.0947 -0.5556  0.9803
  543MOL0     C74851   6.452   2.125   5.597 -0.2448  0.5664  0.0103
  543MOL0     C74852   6.440   2.238   5.516  0.6788  0.4905 -1.1111
  543MOL0     C74853   6.541   2.333   5.501 -0.3622 -0.6881 -0.0910
  543MOL0     C74854   6.667   2.319   5.563 -1.7001  0.9141 -0.2832
  543MOL0     O74855   6.780   2.394   5.530 -0.4493  0.1435 -0.6359
  543MOL0     C74856   6.824   2.484   5.629 -0.3280  0.3954  0.6245
  543MOL0     C74857   6.754   2.617   5.621  0.3565  0.1175  0.1222
  543MOL0     C74858   6.823   2.743   5.693  1.0706  0.3828  0.5410
  543MOL0     C74859   6.961   2.777   5.637  0.2862  0.4544 -0.1543
  543MOL0     C74860   6.962   2.783   5.492  0.1159 -0.1671  0.6931
  543MOL0     C74861   6.961   2.795   5.374 -0.5559 -0.4451 -0.0885
  543MOL0     C74862   6.673   2.207   5.649 -0.2007  0.3865 -0.1586
  543MOL0     C74863   6.581   2.102   5.658 -0.3986 -0.9671  1.1466
  543MOL0     C74864   6.615   1.982   5.740 -0.1008 -0.4967 -0.6699
  543MOL0     H74865   6.031   2.192   5.504 -1.0251  0.0848  0.1167
  543MOL0     H74866   5.810   2.067   5.458 -1.4889  1.2924  2.9086
  543MOL0     H74867   5.734   1.896   5.378 -0.5374  2.7993  1.0513
  543MOL0     H74868   5.583   1.919   5.449 -0.5554  0.9557  1.5075
  543MOL0     H74869   5.605   1.736   5.301 -4.2775  0.0607  0.9668
  543MOL0     H74870   5.705   1.646   5.414 -0.3202  0.1945 -1.4776
  543MOL0     H74871   5.501   1.647   5.570  0.7767  0.6472 -0.1552
  543MOL0     H74872   5.409   1.755   5.465 -1.2699 -2.0042  2.2406
  543MOL0     H74873   5.507   1.492   5.358 -0.5036 -0.4681 -2.1782
  543MOL0     H74874   5.353   1.515   5.450 -0.6749  0.7927  0.0229
  543MOL0     H74875   5.401   1.690   5.220 -1.6347  0.1595 -1.5108
  543MOL0     H74876   5.257   1.606   5.271  1.1031  3.0761  1.2672
  543MOL0     H74877   5.326   1.536   5.056 -0.2746 -0.7779 -1.5303
  543MOL0     H74878   5.490   1.497   5.116  0.6147  0.9605  1.3237
  543MOL0     H74879   5.204   1.349   5.168 -0.7395  1.6678 -1.2737
  543MOL0     H74880   5.335   1.334   5.285 -3.8637  3.1650  1.4628
  543MOL0     H74881   5.355   1.267   4.994  1.5596 -2.3453 -0.8774
  543MOL0     H74882   5.484   1.255   5.122 -0.3553  1.6367  2.5859
  543MOL0     H74883   5.177   1.083   4.956 -2.6690 -0.3981  0.8792
  543MOL0     H74884   5.036   0.828   5.035 -0.2151 -3.2447 -1.6655
  543MOL0     H74885   5.132   0.751   5.166  5.7169  2.0126  2.1818
  543MOL0     H74886   5.282   0.650   5.019 -1.8987 -1.4296  0.7935
  543MOL0     H74887   5.124   0.606   4.968  0.1515 -1.1523 -3.0159
  543MOL0     H74888   5.136   0.822   4.798 -0.2165 -0.9488  0.1081
  543MOL0     H74889   5.310   0.826   4.841  1.8153 -0.9125  3.8550
  543MOL0     H74890   5.142   0.606   4.723  0.7707 -0.9525  2.4501
  543MOL0     H74891   5.265   0.685   4.624 -0.1011 -0.1487 -0.7395
  543MOL0     H74892   5.166   0.456   4.583  1.7374  0.4866 -0.0916
  543MOL0     H74893   5.214   0.133   4.411  0.1379 -0.1077  0.9330
  543MOL0     H74894   5.123   0.271   4.407 -2.1933  0.2323  1.0946
  543MOL0     H74895   5.076   0.157   4.524 -1.1890  1.8775  1.9565
  543MOL0     H74896   5.469  -0.245   4.632 -2.7046  0.8517 -2.7734
  543MOL0     H74897   5.596  -0.438   4.527  2.3547 -0.7903 -2.2673
  543MOL0     H74898   5.784  -0.522   4.464 -1.7353 -0.0012 -0.1651
  543MOL0     H74899   5.680  -0.599   4.350  0.0385 -0.1642  2.7940
  543MOL0     H74900   5.980  -0.540   4.305 -0.4716  0.8565 -2.6228
  543MOL0     H74901   5.909  -0.690   4.361 -2.9145  0.8043  1.1603
  543MOL0     H74902   5.948  -0.667   4.096  1.0618 -2.1306  1.3292
  543MOL0     H74903   5.803  -0.570   4.100  1.2132 -0.4762 -1.7094
  543MOL0     H74904   5.691  -0.773   4.193 -0.0544 -0.9015  0.5286
  543MOL0     H74905   5.849  -0.853   4.211  2.7326  1.9338  0.0832
  543MOL0     H74906   5.875  -0.804   3.945  0.8666 -2.4122  0.6556
  543MOL0     H74907   5.763  -0.932   4.006  0.0370  0.0240  1.5340
  543MOL0     H74908   5.690  -0.656   3.932  1.5722 -0.2671 -2.8429
  543MOL0     H74909   5.572  -0.781   3.980 -0.5432 -0.8884  0.0865
  543MOL0     H74910   5.633  -0.894   3.755  0.0176 -0.0234  3.7764
  543MOL0     H74911   5.726  -0.741   3.727 -0.0338  0.0341  0.6135
  543MOL0     H74912   5.553  -0.605   3.708 -0.9558 -0.0663  0.6115
  543MOL0     H74913   5.435  -0.706   3.797  2.4297 -1.9135  2.7563
  543MOL0     H74914   5.758  -0.184   4.232  0.1748  0.2174 -0.2628
  543MOL0     H74915   5.646   0.026   4.359  0.3065  0.6391 -0.0374
  543MOL0     H74916   5.522   0.168   4.774  0.2725 -0.1962  0.3792
  543MOL0     H74917   5.501   0.411   4.846 -0.0737 -0.2929 -0.3377
  543MOL0     H74918   5.921   1.778   5.760 -0.4340  0.6228 -0.0889
  543MOL0     H74919   6.135   1.905   5.802  0.3044  1.1882  1.3092
  543MOL0     H74920   6.344   2.257   5.468  0.3696  1.2083 -0.2287
  543MOL0     H74921   6.524   2.423   5.442  0.8388 -0.4414 -0.1048
  543MOL0     H74922   6.816   2.453   5.733 -2.7632 -0.6054  0.1893
  543MOL0     H74923   6.931   2.501   5.610 -0.0477 -1.1670  0.7272
  543MOL0     H74924   6.648   2.613   5.647 -0.0391  1.4891 -1.1363
  543MOL0     H74925   6.743   2.648   5.517  0.3562 -0.2708  0.0052
  543MOL0     H74926   6.761   2.828   5.663 -0.4363 -1.2244 -1.2884
  543MOL0     H74927   6.812   2.726   5.800  0.7495  2.1162  0.8145
  543MOL0     H74928   7.025   2.695   5.670  2.3712  2.7309  1.8475
  543MOL0     H74929   6.996   2.872   5.677  2.9278 -0.7551  0.6650
  543MOL0     H74930   6.976   2.807   5.269  1.3129 -1.1234  0.0628
  543MOL0     H74931   6.770   2.199   5.697 -0.1427 -1.4961 -0.5046
  543MOL0     H74932   6.527   1.933   5.782  0.5071  0.0556  1.3483
  543MOL0     H74933   6.655   1.892   5.693 -2.5025 -4.2992  3.8210
  543MOL0     H74934   6.676   2.022   5.822  0.1311  1.0574 -1.5465
  544MOL0     O74935  11.523   6.802  10.214  0.0470  0.4961  0.0289
  544MOL0     C74936  11.600   6.880  10.152  0.0146 -0.0153 -0.1663
  544MOL0     O74937  11.638   6.867  10.023 -0.0166 -0.1956  0.2415
  544MOL0     C74938  11.583   6.765   9.958  0.6746  0.2980  0.9612
  544MOL0     C74939  11.510   6.786   9.844  1.1859 -0.4559 -0.0284
  544MOL0     C74940  11.435   6.675   9.782 -0.5295 -1.0109 -0.0275
  544MOL0     C74941  11.454   6.547   9.822 -0.0589  0.2214  0.5325
  544MOL0     O74942  11.379   6.445   9.773  1.2454  0.0256  0.1814
  544MOL0     C74943  11.316   6.362   9.866 -0.1350  0.0896 -1.5402
  544MOL0     C74944  11.178   6.318   9.821  0.0190  1.0692  0.4696
  544MOL0     C74945  11.182   6.265   9.674 -1.1008 -0.3170 -0.1459
  544MOL0     C74946  11.048   6.206   9.644 -1.2907 -0.3547 -0.3424
  544MOL0     C74947  10.989   6.238   9.512 -0.6956 -0.5538  0.5669
  544MOL0     C74948  10.868   6.161   9.484 -0.0951  0.0498 -0.4618
  544MOL0     C74949  10.817   6.191   9.340 -0.1011  0.2672 -0.7375
  544MOL0     C74950  10.708   6.095   9.296 -0.1520 -0.2457 -0.0117
  544MOL0     N74951  10.605   6.167   9.218 -0.6374  0.5406 -0.7241
  544MOL0     C74952  10.489   6.230   9.252  0.3942 -1.5193 -0.5035
  544MOL0     C74953  10.424   6.247   9.137 -0.0551 -0.3329 -0.6089
  544MOL0     C74954  10.281   6.271   9.107  0.0952 -0.1942 -0.9437
  544MOL0     C74955  10.235   6.384   9.198 -0.8398  0.3689  0.6575
  544MOL0     C74956  10.086   6.406   9.168  0.0580 -0.7965  0.6774
  544MOL0     C74957  10.017   6.496   9.274 -0.1394  0.7909 -0.5269
  544MOL0     O74958   9.900   6.427   9.311 -0.0509 -0.6578  0.6892
  544MOL0     C74959   9.796   6.498   9.369 -0.0238  0.3122  0.2496
  544MOL0     C74960   9.677   6.436   9.364 -0.9487 -1.0081 -0.5692
  544MOL0     C74961   9.575   6.500   9.445  0.5057  0.0980  0.1006
  544MOL0     C74962   9.446   6.419   9.443 -0.3460  0.6656 -0.5697
  544MOL0     C74963   9.591   6.627   9.509  0.0240  0.3527 -0.9075
  544MOL0     C74964   9.487   6.687   9.592 -0.5229 -0.4006  0.0261
  544MOL0     O74965   9.517   6.777   9.694  0.0925  0.3802  0.2340
  544MOL0     C74966   9.414   6.819   9.780 -0.1359 -0.8570 -0.4810
  544MOL0     C74967   9.390   6.768   9.904  0.1322 -0.3070 -0.6877
  544MOL0     C74968   9.294   6.822   9.985  0.3603 -0.9181  0.1498
  544MOL0     C74969   9.219   6.932   9.934  0.6791 -0.0337 -0.4351
  544MOL0     O74970   9.121   7.003  10.014 -0.5384 -0.5753 -0.0284
  544MOL0     C74971   9.011   7.076   9.950  1.0857  0.0122 -1.4605
  544MOL0     C74972   8.908   7.120  10.061  0.4774 -0.2416  0.1316
  544MOL0     C74973   8.945   7.245  10.145 -0.8644  0.7525  0.5133
  544MOL0     C74974   9.086   7.223  10.214  0.8936 -0.2269 -0.4756
  544MOL0     C74975   9.105   7.302  10.339  0.3354  0.2312  0.0892
  544MOL0     C74976   9.131   7.455  10.314  0.0405  0.5517 -0.3000
  544MOL0     C74977   9.275   7.490  10.276 -0.6694  0.3473 -0.2769
  544MOL0     C74978   9.371   7.489  10.400 -0.3877  0.4297 -0.5638
  544MOL0    Cl74979   9.345   7.624  10.503 -0.6619 -0.0165 -0.6739
  544MOL0     C74980   9.236   6.976   9.799 -0.0699 -0.0086  0.3170
  544MOL0     C74981   9.334   6.920   9.726 -0.1414  0.2142 -0.0641
  544MOL0     O74982   9.379   6.648   9.572 -0.2868 -0.7639 -0.6635
  544MOL0     C74983   9.711   6.700   9.486  0.5226  0.0746  0.3360
  544MOL0     C74984   9.813   6.629   9.424 -0.9094  0.0379  0.1951
  544MOL0     N74985  10.508   6.213   9.038 -0.6627 -0.1060  0.6502
  544MOL0     N74986  10.622   6.171   9.082  0.1364  0.1205  0.4157
  544MOL0     C74987  11.548   6.522   9.921 -0.1967 -0.3933 -0.4768
  544MOL0     C74988  11.611   6.627   9.987  0.3188 -0.3340  1.2494
  544MOL0     C74989  11.656   7.003  10.216  0.0077 -1.0690  0.5452
  544MOL0     C74990  11.760   7.065  10.150 -1.0667 -0.2575  0.6151
  544MOL0     C74991  11.818   7.183  10.183 -0.7938  0.4323  0.8197
  544MOL0     C74992  11.772   7.250  10.303  0.6894  0.0165 -0.0752
  544MOL0     O74993  11.849   7.360  10.351 -0.1667  0.4048  0.5983
  544MOL0     C74994  11.861   7.363  10.498 -0.5689  0.6580 -0.3099
  544MOL0     C74995  11.979   7.441  10.553 -0.9781 -0.5097 -1.1678
  544MOL0     C74996  12.063   7.381  10.670  0.4255 -0.9433  0.0235
  544MOL0     C74997  12.183   7.460  10.704  0.4391 -1.0006 -0.2568
  544MOL0     C74998  12.294   7.435  10.621 -0.5042  0.2924 -0.2781
  544MOL0     C74999  12.390   7.390  10.563  1.8325  0.6917  0.0546
  544MOL0     C75000  11.662   7.201  10.363  0.3178  0.3570  0.3174
  544MOL0     C75001  11.601   7.076  10.329 -0.2528  0.1261  0.2443
  544MOL0     C75002  11.483   7.032  10.418 -0.6187 -0.5260 -0.6852
  544MOL0     H75003  11.500   6.888   9.810  2.9997  0.2943  1.4860
  544MOL0     H75004  11.360   6.697   9.707  2.3085  3.3230 -2.0002
  544MOL0     H75005  11.298   6.409   9.963 -1.2666  0.8357 -2.1045
  544MOL0     H75006  11.372   6.269   9.884 -0.6512 -1.0541 -5.1441
  544MOL0     H75007  11.146   6.242   9.893 -0.3487  0.9789  0.2147
  544MOL0     H75008  11.105   6.399   9.825 -0.8711  0.4200 -1.3071
  544MOL0     H75009  11.182   6.361   9.621  1.8906  1.7861  3.2132
  544MOL0     H75010  11.264   6.196   9.650 -0.7971 -1.0028  2.5638
  544MOL0     H75011  11.053   6.096   9.641 -1.9655 -0.3663 -1.3256
  544MOL0     H75012  10.973   6.230   9.720 -0.1099  0.0845  0.7435
  544MOL0     H75013  11.063   6.214   9.435 -3.0354  0.0900 -2.0542
  544MOL0     H75014  10.968   6.346   9.513  1.2716 -0.0662 -1.4408
  544MOL0     H75015  10.894   6.055   9.492  0.6226  0.1173 -1.6218
  544MOL0     H75016  10.789   6.185   9.555  0.8609 -1.6992  1.3025
  544MOL0     H75017  10.906   6.161   9.283  2.5378 -1.6045  3.8341
  544MOL0     H75018  10.793   6.296   9.321  0.5470  0.2083 -2.0146
  544MOL0     H75019  10.750   6.013   9.237  1.7373  3.0347 -3.6904
  544MOL0     H75020  10.657   6.058   9.386 -1.2558  3.8856  1.2470
  544MOL0     H75021  10.462   6.229   9.357  0.3349 -0.0081 -0.4787
  544MOL0     H75022  10.221   6.181   9.125 -1.0969  0.2853 -2.2661
  544MOL0     H75023  10.276   6.300   9.001  4.5042 -1.3919 -1.6962
  544MOL0     H75024  10.252   6.359   9.302 -1.5344  3.3300  1.6014
  544MOL0     H75025  10.295   6.471   9.169  0.3037 -0.1104  1.5520
  544MOL0     H75026  10.055   6.442   9.070 -1.4295 -3.0055  0.2676
  544MOL0     H75027  10.037   6.308   9.172  1.8107 -1.9558 -2.6107
  544MOL0     H75028  10.080   6.514   9.361 -0.9033  2.3074 -0.2628
  544MOL0     H75029   9.993   6.594   9.232  0.6778  2.0997  1.9086
  544MOL0     H75030   9.675   6.335   9.326  2.6690 -0.3534 -3.0836
  544MOL0     H75031   9.413   6.396   9.545  0.6442  0.3747 -0.2990
  544MOL0     H75032   9.462   6.319   9.404 -0.0078  0.9558 -1.1931
  544MOL0     H75033   9.368   6.478   9.393 -1.2884  1.9497  2.1925
  544MOL0     H75034   9.453   6.687   9.940 -1.4511 -2.8079 -3.1414
  544MOL0     H75035   9.264   6.789  10.084  1.7607  1.3305  1.4246
  544MOL0     H75036   9.052   7.166   9.904  2.4376 -0.4818 -1.2541
  544MOL0     H75037   8.956   7.016   9.876  2.8358 -2.1091 -1.1425
  544MOL0     H75038   8.816   7.150  10.009  1.2286  1.6783 -0.1908
  544MOL0     H75039   8.881   7.032  10.120  1.1853  0.5303  1.6759
  544MOL0     H75040   8.874   7.257  10.228  1.8030  0.3947  3.0281
  544MOL0     H75041   8.940   7.344  10.099 -0.1505  0.9483  0.8394
  544MOL0     H75042   9.169   7.249  10.147 -0.2251  0.9089 -1.5005
  544MOL0     H75043   9.090   7.123  10.257  1.4506 -0.1492 -0.3414
  544MOL0     H75044   9.011   7.292  10.393 -0.5729 -0.6429 -1.5941
  544MOL0     H75045   9.190   7.257  10.392 -1.0135 -2.1703  0.3419
  544MOL0     H75046   9.112   7.506  10.408  0.7341  0.3982 -0.0730
  544MOL0     H75047   9.060   7.495  10.241 -0.8607 -0.4229  0.0069
  544MOL0     H75048   9.273   7.591  10.233 -0.2932  1.7468  2.7302
  544MOL0     H75049   9.302   7.408  10.210 -2.7943 -1.8656  1.4139
  544MOL0     H75050   9.471   7.482  10.357 -0.3933  0.0209 -0.5096
  544MOL0     H75051   9.358   7.399  10.460  2.1341  0.6561  0.4261
  544MOL0     H75052   9.166   7.051   9.764 -2.3277 -0.1195  4.0012
  544MOL0     H75053   9.355   6.942   9.622 -4.4399  0.8333 -0.9773
  544MOL0     H75054   9.718   6.803   9.519  0.2091 -0.5707  2.5504
  544MOL0     H75055   9.908   6.681   9.426 -1.8267  1.7519  0.6407
  544MOL0     H75056  11.572   6.429   9.970 -1.7967  1.1317  3.6501
  544MOL0     H75057  11.685   6.605  10.063  0.9924 -1.4356  0.2882
  544MOL0     H75058  11.804   7.011  10.067 -0.6186 -0.4787  0.9984
  544MOL0     H75059  11.896   7.234  10.128 -0.2477 -1.9134 -0.7437
  544MOL0     H75060  11.761   7.385  10.534 -0.6183  0.1430 -0.1317
  544MOL0     H75061  11.882   7.262  10.533 -1.2487  0.7700  0.4348
  544MOL0     H75062  11.945   7.544  10.567 -0.5717 -0.3187 -1.5754
  544MOL0     H75063  12.064   7.446  10.485 -0.0678 -0.3439 -0.0553
  544MOL0     H75064  12.006   7.393  10.763  0.6050  0.4753 -0.0231
  544MOL0     H75065  12.087   7.276  10.654 -1.2790 -1.2668 -0.6340
  544MOL0     H75066  12.204   7.426  10.806 -3.0091 -0.3128  0.8305
  544MOL0     H75067  12.169   7.569  10.698  0.3740 -1.0870 -3.1570
  544MOL0     H75068  12.485   7.364  10.520  0.6827  0.8694 -2.7812
  544MOL0     H75069  11.618   7.252  10.448  0.2132  0.1603  0.3800
  544MOL0     H75070  11.418   6.962  10.364  2.4005 -1.3925 -3.5516
  544MOL0     H75071  11.526   6.989  10.509 -0.2050 -2.0070 -1.5333
  544MOL0     H75072  11.428   7.124  10.440  1.5390  0.5472  0.5870
  545MOL0     O75073   3.478   4.398   5.326 -0.6078 -0.1082 -0.5068
  545MOL0     C75074   3.528   4.457   5.229  0.1699 -0.8833  0.0314
  545MOL0     O75075   3.534   4.593   5.210  0.6962 -0.2618 -0.7230
  545MOL0     C75076   3.515   4.666   5.326 -0.0902 -1.1660 -0.4310
  545MOL0     C75077   3.437   4.775   5.347 -0.1614 -0.1727 -0.5550
  545MOL0     C75078   3.443   4.853   5.465  0.2070  0.0914 -0.0962
  545MOL0     C75079   3.537   4.841   5.565  0.3282  0.5161 -0.5544
  545MOL0     O75080   3.544   4.935   5.670 -0.2767 -0.3898  0.2931
  545MOL0     C75081   3.630   4.889   5.782 -0.2958 -0.4872 -0.5752
  545MOL0     C75082   3.771   4.951   5.785 -0.7356 -0.2008 -0.2333
  545MOL0     C75083   3.754   5.107   5.820  0.3681  0.1164  0.8556
  545MOL0     C75084   3.872   5.185   5.777  0.0315 -0.2702  0.0502
  545MOL0     C75085   3.861   5.334   5.808  0.3758 -0.7493  0.3864
  545MOL0     C75086   3.978   5.420   5.765  1.2003  0.6537  0.4198
  545MOL0     C75087   3.977   5.446   5.615 -0.9193  0.4668 -0.4408
  545MOL0     C75088   4.105   5.519   5.582 -0.0200  0.1315  0.0876
  545MOL0     N75089   4.116   5.636   5.664 -0.0278  0.4078  0.3107
  545MOL0     C75090   4.033   5.742   5.685  1.0293 -0.4741 -0.0329
  545MOL0     C75091   4.092   5.822   5.772 -0.3777 -0.1309 -0.6245
  545MOL0     C75092   4.037   5.951   5.834  0.3653 -0.5732 -0.1502
  545MOL0     C75093   4.057   6.060   5.732 -0.3770  0.3334  0.2263
  545MOL0     C75094   4.029   6.197   5.804 -0.9178  0.1037  0.6328
  545MOL0     C75095   4.035   6.304   5.700 -0.0738 -0.1843 -0.9237
  545MOL0     O75096   3.982   6.423   5.755  0.5805  0.7606 -0.2673
  545MOL0     C75097   4.051   6.511   5.829  0.5116 -0.3485  0.5454
  545MOL0     C75098   3.986   6.628   5.881  0.4582  1.2144 -0.4502
  545MOL0     C75099   4.055   6.738   5.932 -0.0976 -0.6651 -0.0939
  545MOL0     C75100   3.965   6.847   6.003  0.1910  0.5740 -0.1056
  545MOL0     C75101   4.199   6.739   5.921  0.5135  0.7242  0.4878
  545MOL0     C75102   4.287   6.856   5.948  0.0092  0.4580  0.2449
  545MOL0     O75103   4.424   6.853   5.921  0.7126  0.7070 -0.2626
  545MOL0     C75104   4.481   6.966   5.864 -0.4019  0.1700 -1.2942
  545MOL0     C75105   4.433   7.024   5.757  0.2484 -0.7359  0.7213
  545MOL0     C75106   4.495   7.146   5.705 -0.0794  0.0238  0.5980
  545MOL0     C75107   4.618   7.186   5.756 -0.4526 -0.3642 -0.7954
  545MOL0     O75108   4.692   7.286   5.685  1.1758 -0.3919  0.0129
  545MOL0     C75109   4.830   7.281   5.716  1.2752 -0.8490 -0.1682
  545MOL0     C75110   4.909   7.359   5.611 -1.0927 -0.5077  0.5241
  545MOL0     C75111   4.885   7.511   5.610 -0.1378  0.3309  0.1420
  545MOL0     C75112   5.021   7.594   5.619 -0.1437 -0.4467 -0.3261
  545MOL0     C75113   4.990   7.740   5.633  0.6101 -0.0143 -0.0874
  545MOL0     C75114   4.961   7.822   5.509 -0.2393 -0.9955 -0.6538
  545MOL0     C75115   4.950   7.964   5.548 -0.6256  1.2891 -0.9832
  545MOL0     C75116   4.935   8.048   5.422  0.6519  0.5526 -0.3972
  545MOL0    Cl75117   4.906   8.212   5.453 -0.2508 -0.1012 -0.1111
  545MOL0     C75118   4.658   7.131   5.879 -0.1677  0.0730 -1.2841
  545MOL0     C75119   4.598   7.019   5.933  0.6022  0.6286  0.2972
  545MOL0     O75120   4.230   6.958   5.984 -0.4150 -0.5864 -0.3503
  545MOL0     C75121   4.267   6.621   5.870 -0.4036  0.1467  0.3098
  545MOL0     C75122   4.190   6.512   5.818  0.3648  0.0261 -0.2621
  545MOL0     N75123   4.216   5.768   5.804 -0.4786  0.0160 -0.1259
  545MOL0     N75124   4.222   5.646   5.750  1.0204 -0.4509  0.6272
  545MOL0     C75125   3.618   4.733   5.543 -0.0238 -0.0702 -0.9142
  545MOL0     C75126   3.604   4.645   5.436 -0.2263  0.5405  0.4874
  545MOL0     C75127   3.562   4.375   5.112 -0.1430 -0.3119 -0.7439
  545MOL0     C75128   3.505   4.252   5.103 -0.4195 -0.1440  0.4365
  545MOL0     C75129   3.522   4.182   4.980 -1.3325 -0.4252  0.1377
  545MOL0     C75130   3.602   4.243   4.877 -0.7932  0.5090  0.6604
  545MOL0     O75131   3.628   4.188   4.755 -0.2796  0.2476  0.8209
  545MOL0     C75132   3.514   4.161   4.671  0.2487  0.1118 -0.1632
  545MOL0     C75133   3.566   4.129   4.540 -0.3277 -1.1580  0.7229
  545MOL0     C75134   3.662   4.221   4.480  0.7545 -0.2871  0.7918
  545MOL0     C75135   3.581   4.360   4.458 -0.8202 -0.3824 -0.5903
  545MOL0     C75136   3.665   4.464   4.397 -1.1465 -0.3300  0.5528
  545MOL0     C75137   3.748   4.542   4.346  0.4899 -0.3239  0.0730
  545MOL0     C75138   3.674   4.357   4.901  0.2005  0.1075  0.1574
  545MOL0     C75139   3.663   4.422   5.017  0.8449 -0.7916  0.0408
  545MOL0     C75140   3.724   4.550   5.025 -0.5458  0.4201  0.7763
  545MOL0     H75141   3.356   4.801   5.279 -1.3008 -0.9972  0.4565
  545MOL0     H75142   3.368   4.930   5.455  0.7997  0.6269 -0.5449
  545MOL0     H75143   3.634   4.784   5.812 -0.6546  0.2769  2.4975
  545MOL0     H75144   3.575   4.934   5.865  2.1862 -0.6509  1.3054
  545MOL0     H75145   3.841   4.914   5.860  1.1580  2.4576 -0.5672
  545MOL0     H75146   3.816   4.931   5.687  3.0130  3.6090  0.4267
  545MOL0     H75147   3.669   5.146   5.764  0.5338 -2.2151 -1.2036
  545MOL0     H75148   3.723   5.121   5.924  1.6758 -0.3135  1.3138
  545MOL0     H75149   3.958   5.149   5.835 -1.4370 -0.0242  2.5087
  545MOL0     H75150   3.903   5.170   5.673  1.0916 -0.4452  0.3778
  545MOL0     H75151   3.853   5.350   5.916  2.8098  2.5199  0.2649
  545MOL0     H75152   3.768   5.365   5.760  0.5888 -0.0907  0.3902
  545MOL0     H75153   3.969   5.514   5.821 -2.8981  0.1551  0.9263
  545MOL0     H75154   4.070   5.365   5.785  0.9586 -1.2792 -3.0123
  545MOL0     H75155   3.889   5.508   5.594  1.1232  3.0962 -1.7540
  545MOL0     H75156   3.980   5.355   5.555 -1.5435  0.4459 -0.4498
  545MOL0     H75157   4.185   5.458   5.624 -1.7178 -1.9880  0.4098
  545MOL0     H75158   4.115   5.540   5.475 -3.4819 -2.3868 -0.9037
  545MOL0     H75159   3.931   5.752   5.650  1.1140 -1.6043 -0.6454
  545MOL0     H75160   4.105   5.976   5.916 -0.0917  0.9886 -0.2141
  545MOL0     H75161   3.931   5.955   5.858  0.2496  0.8723 -0.7882
  545MOL0     H75162   4.155   6.056   5.683  0.9590 -2.7551  2.8169
  545MOL0     H75163   3.979   6.041   5.658  0.8877 -0.3933 -0.9416
  545MOL0     H75164   3.932   6.194   5.855 -0.9712  3.8734  1.0172
  545MOL0     H75165   4.114   6.214   5.869  1.3479 -1.5566 -1.7061
  545MOL0     H75166   4.138   6.321   5.669  0.4779  0.4680  1.1286
  545MOL0     H75167   3.973   6.283   5.612  1.6118 -1.3182 -1.8959
  545MOL0     H75168   3.877   6.628   5.880  0.2387 -1.0515  3.3001
  545MOL0     H75169   3.985   6.942   5.953 -0.3697  1.0681  0.5853
  545MOL0     H75170   3.998   6.856   6.107  1.5800  1.7140 -0.6121
  545MOL0     H75171   3.860   6.819   5.993  0.0932  0.1306  1.7600
  545MOL0     H75172   4.350   6.979   5.703  0.8695 -2.0443  0.8227
  545MOL0     H75173   4.469   7.191   5.610  0.4848 -2.7253 -0.9794
  545MOL0     H75174   4.852   7.309   5.820 -0.9842 -3.6049  1.1928
  545MOL0     H75175   4.869   7.179   5.707  0.4059 -1.3569  1.4528
  545MOL0     H75176   5.015   7.352   5.635 -1.1478  2.9228  2.4540
  545MOL0     H75177   4.898   7.313   5.512  2.7101 -1.2839  0.3374
  545MOL0     H75178   4.828   7.536   5.700  1.8451 -0.4801  1.6883
  545MOL0     H75179   4.824   7.531   5.521 -1.5656 -0.3073  0.9528
  545MOL0     H75180   5.061   7.578   5.518  1.0049  0.2566 -0.0079
  545MOL0     H75181   5.086   7.562   5.701 -1.8005  0.6257  1.4887
  545MOL0     H75182   4.912   7.752   5.709 -0.7006 -2.0889 -1.0222
  545MOL0     H75183   5.073   7.790   5.685  0.2040 -0.4402  1.0045
  545MOL0     H75184   4.865   7.796   5.462 -1.7794  0.3880  1.5690
  545MOL0     H75185   5.046   7.804   5.443  0.6349  1.0602 -0.1393
  545MOL0     H75186   5.042   7.991   5.601 -0.7565 -1.8044  1.0767
  545MOL0     H75187   4.871   7.983   5.620 -1.3641 -0.9731 -1.1377
  545MOL0     H75188   4.849   8.016   5.362  0.0411  1.9200 -0.2824
  545MOL0     H75189   5.026   8.039   5.361  0.6928  1.4809 -0.4906
  545MOL0     H75190   4.751   7.158   5.929  0.2145 -1.9833 -0.7582
  545MOL0     H75191   4.643   6.965   6.016  0.5437  1.0992  0.6427
  545MOL0     H75192   4.372   6.631   5.848 -0.7770  0.8400 -1.3083
  545MOL0     H75193   4.250   6.437   5.766 -0.3407 -0.9740  0.3275
  545MOL0     H75194   3.701   4.713   5.611 -0.3203 -2.1629 -1.0985
  545MOL0     H75195   3.672   4.560   5.438 -1.9887 -0.9300  3.0713
  545MOL0     H75196   3.432   4.199   5.164  2.5653 -2.4012  2.2919
  545MOL0     H75197   3.462   4.094   4.956 -0.9020 -0.1616 -2.2308
  545MOL0     H75198   3.468   4.069   4.708  1.5216 -1.5371 -2.3937
  545MOL0     H75199   3.443   4.244   4.665 -0.7516 -0.6533  0.8150
  545MOL0     H75200   3.488   4.103   4.468  0.1547  0.8376 -0.5999
  545MOL0     H75201   3.611   4.031   4.554 -1.9831 -1.6069  3.8426
  545MOL0     H75202   3.757   4.234   4.532 -0.5055 -1.7476  3.7096
  545MOL0     H75203   3.695   4.181   4.383 -3.0883 -0.1294 -0.7798
  545MOL0     H75204   3.543   4.404   4.550  0.3510  2.5509 -1.3990
  545MOL0     H75205   3.495   4.334   4.396 -1.0275  1.3901 -1.0939
  545MOL0     H75206   3.824   4.607   4.305  0.7436 -0.6152  0.0806
  545MOL0     H75207   3.721   4.390   4.809 -2.6685  0.3481 -1.3404
  545MOL0     H75208   3.659   4.637   5.011  1.8512  1.9662 -1.7547
  545MOL0     H75209   3.782   4.552   5.118  1.2763  1.6668 -0.3090
  545MOL0     H75210   3.798   4.552   4.945  1.4900  0.8550  2.5737
  546MOL0     O75211   5.995   2.320   6.513 -0.0438  0.0267  0.3161
  546MOL0     C75212   5.928   2.364   6.419 -1.2354  0.2399 -0.6057
  546MOL0     O75213   5.963   2.465   6.344  0.8535  0.3451  0.1041
  546MOL0     C75214   6.088   2.519   6.364 -0.0179  1.4146 -0.4568
  546MOL0     C75215   6.089   2.653   6.411 -0.0856  0.1366 -0.1724
  546MOL0     C75216   6.214   2.716   6.443  0.2601 -0.0272 -0.4332
  546MOL0     C75217   6.335   2.654   6.408  0.5025  0.0539 -0.7417
  546MOL0     O75218   6.445   2.733   6.429 -0.2310  0.0988 -0.0096
  546MOL0     C75219   6.571   2.674   6.462  0.2257 -0.0725  0.3363
  546MOL0     C75220   6.675   2.780   6.465 -0.0784 -0.4438  0.0412
  546MOL0     C75221   6.648   2.891   6.571 -0.0904  0.2652  0.1488
  546MOL0     C75222   6.745   2.907   6.688 -0.1171 -0.7738 -0.0766
  546MOL0     C75223   6.706   3.030   6.777 -0.4811 -0.1411  0.3199
  546MOL0     C75224   6.789   3.036   6.904 -0.4205 -0.1380  0.3767
  546MOL0     C75225   6.763   2.930   7.000  0.3870  0.0265 -0.6801
  546MOL0     C75226   6.749   2.974   7.153  0.1148 -0.6834  0.5203
  546MOL0     N75227   6.616   3.030   7.187 -0.0996  0.3497  0.9753
  546MOL0     C75228   6.541   3.127   7.122  0.3598  0.7574  0.0817
  546MOL0     C75229   6.463   3.182   7.211 -0.0452 -0.3387 -0.5369
  546MOL0     C75230   6.346   3.277   7.185 -1.0073  0.5691  1.0117
  546MOL0     C75231   6.263   3.314   7.304  0.1450 -0.0923 -0.7914
  546MOL0     C75232   6.328   3.421   7.393  0.5235  0.2553  0.7850
  546MOL0     C75233   6.226   3.457   7.498  1.0947 -0.3114 -0.5632
  546MOL0     O75234   6.204   3.335   7.576  0.4075 -0.1497  0.2475
  546MOL0     C75235   6.256   3.333   7.702 -0.0430  0.4012  1.1232
  546MOL0     C75236   6.390   3.374   7.722  0.6562  0.1716 -0.4786
  546MOL0     C75237   6.447   3.383   7.851  0.0184  0.5996  0.2069
  546MOL0     C75238   6.585   3.439   7.859  0.8282  0.9948 -1.0088
  546MOL0     C75239   6.363   3.350   7.962  0.3908 -0.3531  0.4537
  546MOL0     C75240   6.405   3.359   8.098  0.0345 -0.3205  0.3479
  546MOL0     O75241   6.527   3.299   8.143  0.6906  0.3872 -0.4138
  546MOL0     C75242   6.562   3.344   8.273 -0.3538 -0.6811  0.4835
  546MOL0     C75243   6.507   3.285   8.398 -0.9232 -0.1321  0.4129
  546MOL0     C75244   6.563   3.325   8.522 -0.3227  0.3377  0.0924
  546MOL0     C75245   6.663   3.421   8.528 -0.8059  0.0629 -0.2712
  546MOL0     O75246   6.709   3.446   8.657  0.7423  0.0786  0.9781
  546MOL0     C75247   6.852   3.418   8.660  0.3388 -0.6199  0.7388
  546MOL0     C75248   6.892   3.467   8.795 -0.0372 -0.1591 -0.0542
  546MOL0     C75249   6.934   3.614   8.808 -0.6144 -0.7671  0.9353
  546MOL0     C75250   7.024   3.640   8.926  0.1361  0.9618 -0.4022
  546MOL0     C75251   6.990   3.781   8.999 -0.3812  0.8872  0.6916
  546MOL0     C75252   7.074   3.840   9.120  0.6958 -0.5905 -0.8408
  546MOL0     C75253   7.213   3.881   9.072 -0.7341  0.2880 -0.1940
  546MOL0     C75254   7.301   3.948   9.168  0.9282 -0.1525  0.2695
  546MOL0    Cl75255   7.331   3.839   9.313  0.1535 -0.1161  0.0643
  546MOL0     C75256   6.721   3.469   8.406  0.3697 -0.4603 -0.3396
  546MOL0     C75257   6.671   3.442   8.284 -1.0560 -0.6760  1.0764
  546MOL0     O75258   6.322   3.425   8.168 -0.3247  0.2862 -0.5651
  546MOL0     C75259   6.232   3.306   7.941 -0.8918 -0.1707  0.2942
  546MOL0     C75260   6.179   3.287   7.808  0.0478  0.5620  0.7480
  546MOL0     N75261   6.491   3.130   7.332  0.0972 -0.2056 -0.6862
  546MOL0     N75262   6.583   3.044   7.313 -0.1077  0.1049 -0.3546
  546MOL0     C75263   6.331   2.522   6.374  0.5034  0.1339 -0.2717
  546MOL0     C75264   6.208   2.454   6.345  0.0820 -0.8812 -0.2533
  546MOL0     C75265   5.809   2.296   6.377  0.9549 -0.6109 -0.5966
  546MOL0     C75266   5.716   2.366   6.305  0.3880 -0.4724  0.2187
  546MOL0     C75267   5.593   2.317   6.263 -0.6283 -0.0011 -0.9172
  546MOL0     C75268   5.561   2.186   6.297  0.2779  0.1840 -0.5563
  546MOL0     O75269   5.464   2.102   6.255  0.1208  1.2823 -0.1910
  546MOL0     C75270   5.364   2.145   6.164  0.2654  0.2516 -0.1725
  546MOL0     C75271   5.234   2.063   6.207  0.4282  0.0990  1.2689
  546MOL0     C75272   5.187   2.082   6.351 -0.3091 -0.3477 -0.2825
  546MOL0     C75273   5.039   2.068   6.383 -0.3726  0.3971  0.0100
  546MOL0     C75274   4.985   1.931   6.383  0.2960 -0.5434  0.1271
  546MOL0     C75275   4.935   1.826   6.393  0.2905  0.5384  0.8359
  546MOL0     C75276   5.653   2.108   6.373  0.8955 -0.3277  0.2315
  546MOL0     C75277   5.782   2.158   6.399  0.5664  0.0201  0.9640
  546MOL0     C75278   5.882   2.063   6.468  0.4059 -0.2319 -0.3544
  546MOL0     H75279   5.992   2.694   6.438 -0.5521 -2.3821  2.4027
  546MOL0     H75280   6.200   2.817   6.480  0.7548 -0.0556 -0.1534
  546MOL0     H75281   6.600   2.617   6.374  2.5777  1.8229 -0.2091
  546MOL0     H75282   6.552   2.610   6.549  1.8018 -1.0490 -0.0138
  546MOL0     H75283   6.767   2.728   6.494  1.0368  0.4793 -1.5881
  546MOL0     H75284   6.689   2.820   6.364 -0.5952 -0.4372 -0.0265
  546MOL0     H75285   6.642   2.978   6.506  1.5580  0.5718  0.3554
  546MOL0     H75286   6.553   2.867   6.619  1.9688  0.3765  4.8386
  546MOL0     H75287   6.776   2.821   6.750  1.5803  1.0177  1.7133
  546MOL0     H75288   6.848   2.931   6.661 -0.0338 -0.3980  0.5572
  546MOL0     H75289   6.600   3.027   6.803 -0.0506  2.1968  2.7865
  546MOL0     H75290   6.728   3.119   6.717  1.7475  0.7053  2.2354
  546MOL0     H75291   6.896   3.028   6.883 -0.2547  0.8395  0.7556
  546MOL0     H75292   6.761   3.135   6.942 -1.7608  0.3582 -1.7593
  546MOL0     H75293   6.852   2.866   7.004 -0.6388 -1.3651  2.1196
  546MOL0     H75294   6.678   2.868   6.971  0.2137 -0.8401  1.5291
  546MOL0     H75295   6.766   2.887   7.217  0.2637  0.2848  1.8380
  546MOL0     H75296   6.832   3.039   7.181 -0.3798  0.4268 -0.5087
  546MOL0     H75297   6.545   3.145   7.015 -0.1848  3.4849  0.4492
  546MOL0     H75298   6.280   3.230   7.111  1.0957 -0.1802 -0.4848
  546MOL0     H75299   6.393   3.365   7.139  0.0669 -1.2387 -1.5570
  546MOL0     H75300   6.162   3.346   7.275  0.6601  0.0821 -2.5547
  546MOL0     H75301   6.255   3.223   7.364 -3.3192  1.0785  0.8406
  546MOL0     H75302   6.421   3.387   7.440  0.9107  3.5208  2.7730
  546MOL0     H75303   6.345   3.509   7.330  0.9085 -0.9556 -0.8699
  546MOL0     H75304   6.254   3.543   7.560 -2.0265  0.1263  0.3858
  546MOL0     H75305   6.129   3.483   7.456  2.3397  3.0920 -1.6248
  546MOL0     H75306   6.455   3.401   7.640  0.8625 -1.3524 -0.8442
  546MOL0     H75307   6.654   3.371   7.910 -1.8692 -1.0958  0.1022
  546MOL0     H75308   6.594   3.523   7.928  3.5661  0.8423 -1.0701
  546MOL0     H75309   6.626   3.467   7.762  3.1351  2.1866  0.2070
  546MOL0     H75310   6.439   3.202   8.386  0.3194 -0.9575 -1.3414
  546MOL0     H75311   6.517   3.277   8.607  2.8750 -1.6243  0.9042
  546MOL0     H75312   6.880   3.313   8.649  5.8230  0.6352 -0.6223
  546MOL0     H75313   6.915   3.478   8.594 -0.4595 -0.8959 -0.2916
  546MOL0     H75314   6.813   3.445   8.867  1.3782  1.9940  2.3558
  546MOL0     H75315   6.981   3.413   8.830  0.6098  1.8711  1.6497
  546MOL0     H75316   6.837   3.664   8.807 -2.3593 -3.6305 -3.0346
  546MOL0     H75317   6.978   3.654   8.716  1.6448 -1.3551  1.6888
  546MOL0     H75318   7.130   3.641   8.900  0.0185  0.6646 -0.8986
  546MOL0     H75319   7.020   3.560   9.001 -0.2767 -0.2733 -1.7084
  546MOL0     H75320   6.997   3.858   8.922  1.0923  2.1394  2.0123
  546MOL0     H75321   6.886   3.768   9.033 -0.0526 -3.6677  0.5919
  546MOL0     H75322   7.070   3.755   9.189 -1.7050  0.0529 -0.0943
  546MOL0     H75323   7.037   3.936   9.158 -0.3260 -1.2653 -0.1138
  546MOL0     H75324   7.203   3.945   8.984  2.6419  0.5753 -0.5351
  546MOL0     H75325   7.272   3.795   9.039 -1.9642 -0.1849 -1.1933
  546MOL0     H75326   7.232   4.026   9.202 -1.3141 -1.4919 -0.9786
  546MOL0     H75327   7.393   3.986   9.122 -0.9863  4.2286 -0.4556
  546MOL0     H75328   6.812   3.529   8.409  0.7412 -1.0239  2.2279
  546MOL0     H75329   6.732   3.455   8.195  1.2625  0.4265  2.7382
  546MOL0     H75330   6.164   3.270   8.018  1.1064 -0.8685  1.8120
  546MOL0     H75331   6.073   3.269   7.794 -0.1765  0.7824  2.0011
  546MOL0     H75332   6.420   2.461   6.381  0.7777  0.6387  0.9797
  546MOL0     H75333   6.199   2.354   6.306 -0.6617 -0.0693 -2.3131
  546MOL0     H75334   5.746   2.467   6.277  2.2336 -1.7887 -3.1337
  546MOL0     H75335   5.529   2.359   6.186  1.4655  1.4524 -1.9479
  546MOL0     H75336   5.347   2.253   6.156 -2.3569 -0.1324 -0.6352
  546MOL0     H75337   5.401   2.115   6.066  0.9067  1.0351 -0.1803
  546MOL0     H75338   5.272   1.961   6.195  0.3292  0.3712 -2.2236
  546MOL0     H75339   5.163   2.082   6.127 -0.1790 -3.7765  0.6646
  546MOL0     H75340   5.241   2.037   6.435 -0.8815  2.9399  2.0314
  546MOL0     H75341   5.195   2.190   6.361 -2.6860 -0.1017 -0.5384
  546MOL0     H75342   4.980   2.127   6.312  1.1631  1.7967 -0.1662
  546MOL0     H75343   5.017   2.113   6.480 -1.3877 -1.8487  0.8958
  546MOL0     H75344   4.888   1.730   6.397  0.2015  0.6219  3.4378
  546MOL0     H75345   5.640   2.002   6.395 -1.8890  0.0055  0.5744
  546MOL0     H75346   5.867   1.962   6.429  0.5808 -1.1198  1.7332
  546MOL0     H75347   5.984   2.096   6.447 -0.1910  2.1614  0.1090
  546MOL0     H75348   5.862   2.049   6.575 -0.7553 -4.4513 -0.9513
  547MOL0     O75349   6.703   4.590   6.653 -0.2392  0.3187 -0.7481
  547MOL0     C75350   6.669   4.475   6.670 -0.7130 -0.2270  0.1578
  547MOL0     O75351   6.688   4.371   6.582 -0.2376 -0.4250 -0.6194
  547MOL0     C75352   6.770   4.373   6.470  0.9120 -0.1168 -0.6847
  547MOL0     C75353   6.845   4.265   6.435 -0.2811  0.0997 -0.4383
  547MOL0     C75354   6.941   4.269   6.340  1.1294  0.1536 -0.4196
  547MOL0     C75355   6.953   4.379   6.252  0.0448 -0.4580 -0.2268
  547MOL0     O75356   7.034   4.404   6.147 -0.1201  0.7481 -0.0245
  547MOL0     C75357   7.113   4.292   6.110 -0.7141  0.2189 -0.1014
  547MOL0     C75358   7.195   4.323   5.983 -0.0561 -0.5840 -0.5355
  547MOL0     C75359   7.303   4.214   5.972 -0.2113 -0.4818 -0.4238
  547MOL0     C75360   7.362   4.201   5.837  0.1060 -0.0720  0.9108
  547MOL0     C75361   7.459   4.081   5.826 -0.2316  0.4537  0.2009
  547MOL0     C75362   7.520   4.072   5.686  0.5039  0.7810 -0.7821
  547MOL0     C75363   7.578   3.930   5.655  0.3290  0.9917  0.1484
  547MOL0     C75364   7.658   3.871   5.766  0.0439 -0.5400 -0.2218
  547MOL0     N75365   7.671   3.722   5.754  1.0685 -0.1490 -0.4069
  547MOL0     C75366   7.673   3.637   5.863  0.3667  0.4015  0.1590
  547MOL0     C75367   7.689   3.513   5.805 -0.9716  0.3917  0.6932
  547MOL0     C75368   7.690   3.380   5.876 -0.3657 -0.1823 -0.4821
  547MOL0     C75369   7.656   3.385   6.018  0.0764  0.5023 -0.0851
  547MOL0     C75370   7.644   3.245   6.073 -0.5354  0.4869  0.1175
  547MOL0     C75371   7.773   3.156   6.061 -0.1714  0.6127  0.8620
  547MOL0     O75372   7.764   3.076   5.947 -0.6679  0.3767  0.0628
  547MOL0     C75373   7.871   3.024   5.886 -0.9031 -0.7998  0.5012
  547MOL0     C75374   8.004   3.023   5.930 -0.0957 -1.0721 -0.3320
  547MOL0     C75375   8.104   2.946   5.881  0.6446 -0.2661 -1.1169
  547MOL0     C75376   8.240   2.950   5.951  0.1054 -0.1864 -0.6496
  547MOL0     C75377   8.076   2.887   5.761 -0.7267 -0.4224  0.7328
  547MOL0     C75378   8.176   2.808   5.687  0.1442 -0.6868  1.0269
  547MOL0     O75379   8.194   2.833   5.552  0.7716 -0.7516  0.2509
  547MOL0     C75380   8.286   2.756   5.496 -0.7567  0.6949 -0.4487
  547MOL0     C75381   8.268   2.612   5.489  0.0057  0.5464 -0.1869
  547MOL0     C75382   8.374   2.547   5.417 -0.5361  0.2924 -0.5175
  547MOL0     C75383   8.497   2.600   5.392  0.0159  0.3978 -0.4050
  547MOL0     O75384   8.600   2.539   5.327  0.4007 -0.2817  0.3652
  547MOL0     C75385   8.603   2.402   5.317 -0.4842  0.1186  0.0203
  547MOL0     C75386   8.745   2.357   5.273  0.8482 -1.3190 -0.5956
  547MOL0     C75387   8.744   2.212   5.218 -0.7546  0.1780 -0.2556
  547MOL0     C75388   8.890   2.151   5.206  0.9972 -0.4038  0.4270
  547MOL0     C75389   9.001   2.249   5.165  0.7644 -0.3785  0.0327
  547MOL0     C75390   9.138   2.191   5.189 -0.0076  0.9878 -0.4404
  547MOL0     C75391   9.252   2.287   5.156  0.1843 -0.8439 -1.3057
  547MOL0     C75392   9.372   2.274   5.236 -0.3845 -0.3154 -0.5084
  547MOL0    Cl75393   9.452   2.109   5.213 -0.0635  0.5080  0.0485
  547MOL0     C75394   8.520   2.730   5.431 -0.8471  0.5213  0.4303
  547MOL0     C75395   8.413   2.812   5.468 -0.6618 -0.2408 -0.3388
  547MOL0     O75396   8.245   2.730   5.750  0.0676  0.2516  0.0266
  547MOL0     C75397   7.952   2.902   5.690  0.2206 -0.3671  0.6050
  547MOL0     C75398   7.852   2.970   5.759 -0.1621 -0.6681  0.7423
  547MOL0     N75399   7.677   3.524   5.664  0.2743  0.1542  0.1167
  547MOL0     N75400   7.671   3.650   5.636  0.1619  0.0827  0.2421
  547MOL0     C75401   6.870   4.484   6.278  0.6094  0.4378 -0.4107
  547MOL0     C75402   6.784   4.484   6.390  0.4832  0.2743 -0.4863
  547MOL0     C75403   6.607   4.454   6.804  0.3392  0.3466  0.1315
  547MOL0     C75404   6.518   4.552   6.862 -1.0688  0.3075 -1.1726
  547MOL0     C75405   6.453   4.516   6.973 -0.8409  0.4936 -0.2395
  547MOL0     C75406   6.489   4.407   7.055  0.6371 -0.7890  0.7300
  547MOL0     O75407   6.418   4.395   7.169  0.1879  0.2773  0.8060
  547MOL0     C75408   6.442   4.275   7.240 -0.3749  1.0335 -0.4341
  547MOL0     C75409   6.355   4.263   7.363  0.0215  0.3695  0.7970
  547MOL0     C75410   6.202   4.292   7.331 -0.6799  0.4397  0.0471
  547MOL0     C75411   6.136   4.239   7.193 -0.5668  0.6760  0.0661
  547MOL0     C75412   5.991   4.216   7.188 -0.0081  0.4383  1.0122
  547MOL0     C75413   5.874   4.228   7.171 -0.0793 -1.1140 -0.2494
  547MOL0     C75414   6.567   4.311   6.994  0.1551 -0.0645 -1.0614
  547MOL0     C75415   6.632   4.330   6.870 -0.7728 -1.0879 -0.3136
  547MOL0     C75416   6.721   4.221   6.829 -0.1177 -0.4514 -1.1375
  547MOL0     H75417   6.847   4.178   6.499  0.5484  1.4688  1.5302
  547MOL0     H75418   7.011   4.188   6.328  0.7576 -0.6420  2.1863
  547MOL0     H75419   7.057   4.199   6.094  0.0924 -0.7533  2.3033
  547MOL0     H75420   7.191   4.273   6.184 -2.2871 -2.0279  1.0763
  547MOL0     H75421   7.130   4.331   5.895  0.1079 -1.8412 -0.7887
  547MOL0     H75422   7.240   4.422   5.996 -0.7903 -0.1196 -1.4418
  547MOL0     H75423   7.391   4.231   6.035  1.0623 -1.9765 -1.6865
  547MOL0     H75424   7.261   4.120   6.011 -0.3136 -0.0449  0.5503
  547MOL0     H75425   7.278   4.196   5.768 -1.0517 -1.5089  2.3722
  547MOL0     H75426   7.427   4.284   5.806  2.9028 -2.0013  1.2498
  547MOL0     H75427   7.400   3.993   5.854 -1.3426  0.1793 -2.7533
  547MOL0     H75428   7.543   4.091   5.896  1.4323 -2.6364 -1.1417
  547MOL0     H75429   7.451   4.104   5.607  0.0643 -1.5337 -1.3911
  547MOL0     H75430   7.611   4.134   5.685 -0.2666  1.9486 -1.1574
  547MOL0     H75431   7.641   3.951   5.569  4.5380 -0.1667  2.6662
  547MOL0     H75432   7.491   3.870   5.626  2.0047  0.1142 -3.7709
  547MOL0     H75433   7.753   3.925   5.764 -0.1978  0.0396  1.9072
  547MOL0     H75434   7.612   3.886   5.864  2.9122 -0.6519  1.2223
  547MOL0     H75435   7.676   3.651   5.970 -0.9208 -0.7748  0.3809
  547MOL0     H75436   7.790   3.337   5.879 -1.1108 -2.1558 -2.1330
  547MOL0     H75437   7.631   3.308   5.820 -0.3447  0.1995 -0.9990
  547MOL0     H75438   7.734   3.439   6.073  2.3304  1.0663 -3.5264
  547MOL0     H75439   7.563   3.439   6.036  0.0687  0.3809  0.2361
  547MOL0     H75440   7.627   3.248   6.181  3.0265  0.6205  0.8175
  547MOL0     H75441   7.563   3.195   6.019  0.9018  0.9087 -2.6347
  547MOL0     H75442   7.864   3.215   6.054 -1.3641  2.3920 -0.5690
  547MOL0     H75443   7.791   3.084   6.142 -0.4476 -0.9177 -0.3767
  547MOL0     H75444   8.025   3.073   6.024 -1.6530  1.2029 -1.0834
  547MOL0     H75445   8.247   2.852   6.000  0.1593  0.6116  0.9833
  547MOL0     H75446   8.237   3.032   6.022  1.3764  0.8584 -1.7561
  547MOL0     H75447   8.316   2.965   5.874 -0.9402  1.7034 -1.4038
  547MOL0     H75448   8.183   2.560   5.532 -0.0469  0.3776 -0.4913
  547MOL0     H75449   8.350   2.445   5.388 -0.3124  0.2452 -0.5418
  547MOL0     H75450   8.584   2.364   5.418  4.1568  0.4552  1.2386
  547MOL0     H75451   8.540   2.380   5.230 -0.6025  3.0217 -0.7368
  547MOL0     H75452   8.786   2.423   5.196 -0.0637 -0.3794 -0.2937
  547MOL0     H75453   8.822   2.376   5.348 -0.8408 -0.5464  1.0134
  547MOL0     H75454   8.708   2.235   5.118 -0.3942 -1.5747 -0.8275
  547MOL0     H75455   8.668   2.152   5.269  0.4163  0.8623  2.5098
  547MOL0     H75456   8.881   2.066   5.138 -0.4782  0.4006 -0.4395
  547MOL0     H75457   8.920   2.118   5.306  1.6700 -0.6471  0.1481
  547MOL0     H75458   8.996   2.274   5.058 -0.5109 -3.3317 -0.6941
  547MOL0     H75459   8.998   2.343   5.221  1.1136 -0.6128  0.4471
  547MOL0     H75460   9.163   2.093   5.147  0.5309 -0.2601  2.4834
  547MOL0     H75461   9.143   2.169   5.296 -1.9029 -3.1988 -1.0041
  547MOL0     H75462   9.214   2.389   5.151  1.3678 -0.3444 -0.6770
  547MOL0     H75463   9.288   2.259   5.057  5.2266  1.3843 -0.4243
  547MOL0     H75464   9.355   2.293   5.342  1.4061  4.4046 -0.8214
  547MOL0     H75465   9.447   2.348   5.209  0.6537  0.9243  4.6896
  547MOL0     H75466   8.619   2.772   5.420 -1.5442  1.8970 -0.9487
  547MOL0     H75467   8.434   2.914   5.499  0.7388 -0.2241 -1.2290
  547MOL0     H75468   7.928   2.864   5.591  1.3393  3.7362 -1.4576
  547MOL0     H75469   7.753   2.978   5.714  0.2584  2.1776  0.1688
  547MOL0     H75470   6.866   4.582   6.230 -1.5432 -0.0103 -1.2458
  547MOL0     H75471   6.743   4.576   6.430  2.0176  0.6001  0.3896
  547MOL0     H75472   6.506   4.640   6.799  0.7852  2.1985  0.9616
  547MOL0     H75473   6.372   4.575   7.013 -1.3456 -2.0484  3.0148
  547MOL0     H75474   6.414   4.187   7.182  0.4279  0.4335  0.0689
  547MOL0     H75475   6.541   4.253   7.280 -1.4316  1.3803  2.6662
  547MOL0     H75476   6.396   4.349   7.418 -0.2647  1.2355 -0.3047
  547MOL0     H75477   6.368   4.169   7.416  2.1110  0.0562 -0.1515
  547MOL0     H75478   6.147   4.253   7.418 -3.0415  1.0823 -1.0785
  547MOL0     H75479   6.186   4.400   7.336  0.2381  0.5276  2.7401
  547MOL0     H75480   6.175   4.140   7.168 -2.1680 -0.0287  0.2488
  547MOL0     H75481   6.156   4.306   7.109 -3.6720 -0.2937 -1.5667
  547MOL0     H75482   5.767   4.228   7.171 -0.1153  0.2365  1.0845
  547MOL0     H75483   6.591   4.214   7.036  2.0172  0.2551 -1.3122
  547MOL0     H75484   6.793   4.244   6.750  1.9852 -0.2535  0.7192
  547MOL0     H75485   6.784   4.183   6.910  1.1291  2.0883 -0.8060
  547MOL0     H75486   6.660   4.139   6.790  0.5234 -1.3925 -0.2110
  548MOL0     O75487   8.716   7.464   7.296  0.6233 -0.5397  0.1485
  548MOL0     C75488   8.816   7.447   7.226  0.0520  0.1579  0.5720
  548MOL0     O75489   8.863   7.323   7.176 -1.3618 -0.1325  0.1114
  548MOL0     C75490   8.781   7.216   7.183  0.1328  0.2922  0.5960
  548MOL0     C75491   8.813   7.085   7.221 -0.4179 -0.9120 -0.6654
  548MOL0     C75492   8.728   6.977   7.214  0.2461  0.3478 -0.4771
  548MOL0     C75493   8.593   6.995   7.170 -0.2815 -0.4651 -0.0016
  548MOL0     O75494   8.502   6.890   7.175  0.1275 -0.0459  0.2775
  548MOL0     C75495   8.535   6.755   7.191 -0.3607 -0.0381  0.1618
  548MOL0     C75496   8.403   6.664   7.173  0.3816 -0.3128 -0.2369
  548MOL0     C75497   8.317   6.665   7.294 -0.8407 -0.7432 -0.4751
  548MOL0     C75498   8.176   6.621   7.264 -0.8157  0.3895 -0.3447
  548MOL0     C75499   8.068   6.641   7.365 -0.2449 -0.1039 -0.5658
  548MOL0     C75500   8.101   6.547   7.485 -0.2806  0.4087 -0.3662
  548MOL0     C75501   7.977   6.539   7.571  0.6706  0.6858  0.0779
  548MOL0     C75502   8.010   6.463   7.696  1.1332  0.0430 -0.2911
  548MOL0     N75503   7.902   6.470   7.801 -0.1478  1.4099  0.1266
  548MOL0     C75504   7.782   6.527   7.800  0.1105 -0.2461  0.3940
  548MOL0     C75505   7.719   6.484   7.906 -0.8096  0.7377 -0.3807
  548MOL0     C75506   7.573   6.490   7.913 -0.8801  0.7757  1.1646
  548MOL0     C75507   7.536   6.577   8.035 -0.8684  0.5119 -0.5994
  548MOL0     C75508   7.557   6.717   8.004  0.5744 -0.0083 -0.2135
  548MOL0     C75509   7.438   6.803   8.051 -0.9213 -0.1887 -1.4829
  548MOL0     O75510   7.484   6.928   8.114 -0.9158  0.0966 -1.2813
  548MOL0     C75511   7.501   7.033   8.027 -0.0680 -0.1255 -0.0241
  548MOL0     C75512   7.534   7.024   7.891  0.1919 -0.7749 -0.0295
  548MOL0     C75513   7.539   7.133   7.807 -0.1573  1.1399  0.2272
  548MOL0     C75514   7.560   7.110   7.659  0.3890 -1.1250 -0.9475
  548MOL0     C75515   7.531   7.262   7.868 -0.5699 -0.2532 -0.1484
  548MOL0     C75516   7.528   7.382   7.785  0.1415 -0.7536 -0.3921
  548MOL0     O75517   7.448   7.372   7.674 -0.3417  0.6174 -0.3406
  548MOL0     C75518   7.413   7.481   7.607 -0.0675  0.1576 -0.2660
  548MOL0     C75519   7.388   7.605   7.652 -0.2574  0.6428 -0.4259
  548MOL0     C75520   7.337   7.703   7.561  0.2606 -0.1925  0.6017
  548MOL0     C75521   7.336   7.681   7.423 -0.1876  0.1675  0.4992
  548MOL0     O75522   7.304   7.781   7.336 -0.2592 -0.6454 -0.4635
  548MOL0     C75523   7.216   7.759   7.230 -0.0133  0.3887 -0.0937
  548MOL0     C75524   7.112   7.875   7.234  0.0663  0.3694  0.8119
  548MOL0     C75525   7.187   8.005   7.231  0.1855  0.0687 -0.2264
  548MOL0     C75526   7.098   8.122   7.210  0.2629 -0.4656  0.1127
  548MOL0     C75527   7.156   8.249   7.151  0.0492 -0.6720 -0.1576
  548MOL0     C75528   7.225   8.326   7.269  0.7188 -0.1961  0.2271
  548MOL0     C75529   7.301   8.452   7.229  1.3799 -0.0986 -0.9734
  548MOL0     C75530   7.448   8.425   7.197 -0.7987  0.1719 -0.2357
  548MOL0    Cl75531   7.532   8.386   7.335  0.2105  0.0111 -0.5447
  548MOL0     C75532   7.350   7.551   7.378 -0.3254 -1.2202  0.2055
  548MOL0     C75533   7.390   7.452   7.466 -0.0522  0.0491  0.0772
  548MOL0     O75534   7.599   7.481   7.812  0.0298 -0.5254 -0.0191
  548MOL0     C75535   7.525   7.283   8.008  0.2517  0.2071 -0.0387
  548MOL0     C75536   7.503   7.159   8.084  0.3382  0.1159 -0.0906
  548MOL0     N75537   7.814   6.404   7.980 -0.0192 -0.4051  0.0920
  548MOL0     N75538   7.923   6.395   7.911  0.5002  0.1295  0.5698
  548MOL0     C75539   8.556   7.117   7.127 -0.4971 -0.0587  0.5933
  548MOL0     C75540   8.647   7.224   7.135 -0.2360  0.4750  0.6830
  548MOL0     C75541   8.889   7.566   7.180 -0.1084 -0.7959  0.5529
  548MOL0     C75542   8.880   7.678   7.260  0.0532 -0.0552 -0.4045
  548MOL0     C75543   8.967   7.784   7.232 -0.4150 -1.1738  0.7975
  548MOL0     C75544   9.046   7.799   7.112 -0.0920  0.2148  0.2180
  548MOL0     O75545   9.124   7.910   7.086 -0.0487  0.1231 -0.0591
  548MOL0     C75546   9.161   7.998   7.197 -0.4947  0.3569  0.3304
  548MOL0     C75547   9.057   8.118   7.209 -0.7681  0.0252 -0.0149
  548MOL0     C75548   9.064   8.150   7.360  0.0480 -0.4593 -0.1208
  548MOL0     C75549   8.954   8.246   7.394 -0.5045 -0.0324  0.4416
  548MOL0     C75550   8.913   8.239   7.531 -0.0608  0.6149  0.7319
  548MOL0     C75551   8.892   8.234   7.647  0.2649  0.2745 -0.1259
  548MOL0     C75552   9.026   7.700   7.015 -0.8424 -0.3687 -0.2715
  548MOL0     C75553   8.953   7.588   7.053 -0.1087  0.9927  1.3309
  548MOL0     C75554   8.946   7.486   6.937 -0.0735  0.4597  0.3360
  548MOL0     H75555   8.916   7.077   7.254  0.3147  2.2812 -1.7767
  548MOL0     H75556   8.762   6.876   7.231  3.8371  1.5417  0.3961
  548MOL0     H75557   8.577   6.745   7.291 -0.2265  0.2584  0.1349
  548MOL0     H75558   8.605   6.724   7.113 -0.1213  2.5422 -0.7187
  548MOL0     H75559   8.348   6.689   7.082  3.0123  2.3205 -1.2354
  548MOL0     H75560   8.431   6.560   7.153  2.0226  0.2851 -1.1854
  548MOL0     H75561   8.347   6.594   7.371  0.9992  2.1613  1.6977
  548MOL0     H75562   8.319   6.762   7.344  2.5059 -1.5226  1.2337
  548MOL0     H75563   8.145   6.659   7.167 -0.5849  1.5315  0.0131
  548MOL0     H75564   8.180   6.512   7.257 -2.5544  0.2471  0.4723
  548MOL0     H75565   7.973   6.613   7.320 -0.7753  1.5992 -0.5574
  548MOL0     H75566   8.065   6.744   7.402 -2.2835 -0.8653  1.5784
  548MOL0     H75567   8.126   6.448   7.447  0.1729  1.2596 -2.4126
  548MOL0     H75568   8.192   6.585   7.533  2.2093 -3.0847 -1.9294
  548MOL0     H75569   7.897   6.482   7.521 -0.4140  2.6610 -0.5436
  548MOL0     H75570   7.931   6.635   7.596 -2.2791 -0.7073  0.4367
  548MOL0     H75571   8.037   6.358   7.683 -0.2367 -0.0553 -3.0085
  548MOL0     H75572   8.096   6.509   7.745 -0.8122  0.5863  2.9228
  548MOL0     H75573   7.724   6.564   7.716 -2.6174  0.5540  2.4961
  548MOL0     H75574   7.526   6.392   7.928  1.0985 -0.3856  0.2347
  548MOL0     H75575   7.539   6.522   7.815 -4.0865  0.4491  2.0727
  548MOL0     H75576   7.431   6.556   8.059 -0.9341  1.1015 -0.3552
  548MOL0     H75577   7.597   6.539   8.117 -0.3513  0.2566 -1.0957
  548MOL0     H75578   7.640   6.749   8.067 -0.0443 -1.0587  1.1819
  548MOL0     H75579   7.580   6.735   7.899  2.4645  3.7260  0.6375
  548MOL0     H75580   7.367   6.837   7.976 -0.1647  1.4015 -1.5153
  548MOL0     H75581   7.385   6.739   8.122 -0.2979 -1.0201 -1.7452
  548MOL0     H75582   7.542   6.934   7.832 -0.6569 -0.2650 -0.9478
  548MOL0     H75583   7.479   7.157   7.603  0.7811  1.0950  0.2273
  548MOL0     H75584   7.565   7.002   7.642  1.0255 -1.0325 -1.3791
  548MOL0     H75585   7.654   7.152   7.620 -0.7813  0.8509 -1.7600
  548MOL0     H75586   7.418   7.631   7.753  1.0307  0.2810 -0.6904
  548MOL0     H75587   7.316   7.806   7.585 -2.5450 -0.0764 -1.7203
  548MOL0     H75588   7.275   7.764   7.138  0.3931 -2.4042 -0.0582
  548MOL0     H75589   7.158   7.668   7.250 -0.6695  0.6323 -0.8274
  548MOL0     H75590   7.051   7.868   7.143 -0.5927 -0.1497  1.2819
  548MOL0     H75591   7.059   7.871   7.329  3.7652 -0.8191  3.0346
  548MOL0     H75592   7.251   7.996   7.143  0.9770  0.2404  0.3285
  548MOL0     H75593   7.240   8.020   7.325  4.3027  2.2268 -2.6001
  548MOL0     H75594   7.055   8.133   7.309 -3.4513 -4.3990 -0.7818
  548MOL0     H75595   7.020   8.118   7.134  2.7025  2.1378 -2.8756
  548MOL0     H75596   7.225   8.227   7.069  0.0443  0.5454 -0.5037
  548MOL0     H75597   7.081   8.306   7.095 -0.2042  2.5014  3.0584
  548MOL0     H75598   7.280   8.256   7.332 -1.9704 -0.4186  2.5059
  548MOL0     H75599   7.149   8.375   7.331  0.6536  1.0920 -0.8100
  548MOL0     H75600   7.302   8.518   7.316  0.0119  0.6146 -1.4719
  548MOL0     H75601   7.235   8.504   7.158  1.1136 -1.3018 -1.6315
  548MOL0     H75602   7.494   8.514   7.153  1.5619 -0.7263  0.2800
  548MOL0     H75603   7.461   8.344   7.124  0.2905 -0.2947  0.4546
  548MOL0     H75604   7.359   7.533   7.271  0.7281 -0.1234  0.0965
  548MOL0     H75605   7.392   7.352   7.423 -0.9524 -0.3674  0.9568
  548MOL0     H75606   7.536   7.380   8.056  0.6145  0.1942 -0.0887
  548MOL0     H75607   7.481   7.165   8.190 -2.3414  0.6895 -0.6125
  548MOL0     H75608   8.461   7.118   7.074  0.4654 -1.6077 -1.3018
  548MOL0     H75609   8.621   7.326   7.108 -2.9566 -0.1492  0.6190
  548MOL0     H75610   8.824   7.680   7.352 -0.7441  0.3393 -0.8898
  548MOL0     H75611   8.962   7.861   7.308 -1.6912  0.2742 -0.6648
  548MOL0     H75612   9.174   7.943   7.290  1.1316  1.0709  0.5486
  548MOL0     H75613   9.266   8.026   7.187 -1.3325  3.7319 -0.6717
  548MOL0     H75614   8.963   8.082   7.167 -0.3263  1.0733 -2.0825
  548MOL0     H75615   9.087   8.207   7.152 -2.7410  1.5215  1.1806
  548MOL0     H75616   9.067   8.063   7.427 -0.5444 -1.0887 -0.8919
  548MOL0     H75617   9.161   8.197   7.380 -0.0581 -0.0792 -0.4960
  548MOL0     H75618   8.866   8.242   7.331 -0.2068  1.7816 -0.1256
  548MOL0     H75619   9.005   8.341   7.374  1.6584 -1.2425 -0.1655
  548MOL0     H75620   8.868   8.207   7.748  0.0121 -0.7174 -0.4375
  548MOL0     H75621   9.068   7.701   6.916 -2.8153 -3.5755 -1.2931
  548MOL0     H75622   8.911   7.532   6.844  1.7370  2.0688  0.4015
  548MOL0     H75623   9.048   7.453   6.919 -0.0049  1.1011 -0.5611
  548MOL0     H75624   8.880   7.401   6.959  0.9377 -0.6554 -0.7720
  549MOL0     O75625   7.469   5.085  10.895  0.3040 -0.1279  0.1626
  549MOL0     C75626   7.372   5.157  10.875 -0.0394 -0.4614 -0.0406
  549MOL0     O75627   7.379   5.296  10.872 -0.6190  0.4401  0.3472
  549MOL0     C75628   7.490   5.369  10.842 -0.6204 -0.6971  0.1318
  549MOL0     C75629   7.519   5.474  10.931 -0.2260 -0.2386  0.8220
  549MOL0     C75630   7.629   5.554  10.902 -1.2400 -0.7408  0.5068
  549MOL0     C75631   7.724   5.525  10.795 -0.9454 -0.1235 -0.3532
  549MOL0     O75632   7.832   5.608  10.774  0.0083 -0.1750  0.5691
  549MOL0     C75633   7.889   5.692  10.878  0.8443 -1.0063 -0.1833
  549MOL0     C75634   7.881   5.843  10.854 -0.2057 -0.3733 -0.3008
  549MOL0     C75635   7.796   5.901  10.966 -0.7272 -0.0987 -0.4481
  549MOL0     C75636   7.835   6.052  10.964 -0.6016  0.2139  0.1188
  549MOL0     C75637   7.760   6.130  11.072  0.2060 -0.5999 -0.7007
  549MOL0     C75638   7.826   6.269  11.089  0.0153 -1.8594 -0.2983
  549MOL0     C75639   7.781   6.367  11.206 -0.2693 -0.0386 -0.2963
  549MOL0     C75640   7.643   6.415  11.199 -0.6920  0.3836 -0.3002
  549MOL0     N75641   7.603   6.518  11.296  0.0840  0.1316 -0.2581
  549MOL0     C75642   7.648   6.647  11.307  0.3972  0.1601 -0.1211
  549MOL0     C75643   7.583   6.695  11.416  0.2890  1.1262  0.0622
  549MOL0     C75644   7.621   6.820  11.478  0.7363 -0.7604 -0.0401
  549MOL0     C75645   7.772   6.832  11.510 -0.8959  0.1411 -0.3597
  549MOL0     C75646   7.813   6.812  11.659  0.4438 -0.5185  0.3148
  549MOL0     C75647   7.962   6.843  11.689  0.7705 -0.3618  0.1776
  549MOL0     O75648   8.051   6.753  11.618  0.1055  0.3695 -0.0396
  549MOL0     C75649   8.061   6.627  11.669 -0.9286 -0.0922  1.0051
  549MOL0     C75650   8.005   6.572  11.785  0.8228  0.5152 -0.3669
  549MOL0     C75651   8.017   6.433  11.825 -0.6381 -0.7736 -0.5143
  549MOL0     C75652   7.933   6.389  11.939  0.6391  0.4616  1.0249
  549MOL0     C75653   8.094   6.353  11.730  0.1608 -0.3272 -0.2731
  549MOL0     C75654   8.125   6.212  11.755 -0.4764  0.3296 -0.2608
  549MOL0     O75655   8.127   6.133  11.646  0.7013  0.1181  0.0684
  549MOL0     C75656   8.169   6.001  11.644 -0.9893 -0.0117  0.7433
  549MOL0     C75657   8.102   5.890  11.692  0.0627  0.6250  0.4732
  549MOL0     C75658   8.167   5.767  11.695  0.3595  0.5914 -0.4715
  549MOL0     C75659   8.300   5.755  11.659  0.0819  1.0343  0.5248
  549MOL0     O75660   8.359   5.632  11.662 -0.5798  0.7414  0.0694
  549MOL0     C75661   8.440   5.593  11.548 -0.7753 -0.7627 -0.2397
  549MOL0     C75662   8.450   5.446  11.537  0.0543 -0.5191 -1.2138
  549MOL0     C75663   8.467   5.376  11.404  0.8767  0.1821 -0.1503
  549MOL0     C75664   8.614   5.383  11.350 -0.2366  0.4186 -0.8120
  549MOL0     C75665   8.630   5.360  11.197  0.1160  1.0977  0.8987
  549MOL0     C75666   8.633   5.199  11.167  1.0898 -0.0342 -0.5703
  549MOL0     C75667   8.679   5.170  11.026 -0.7026 -0.3854 -0.0186
  549MOL0     C75668   8.675   5.016  11.012 -0.2111  0.1385  0.1904
  549MOL0    Cl75669   8.506   4.973  11.019  0.5763  0.2100  0.5210
  549MOL0     C75670   8.364   5.866  11.589 -0.4859  0.7571 -0.0831
  549MOL0     C75671   8.297   5.992  11.590 -0.2330  0.3791 -0.0830
  549MOL0     O75672   8.143   6.168  11.873 -0.5884  0.1583  0.0645
  549MOL0     C75673   8.155   6.411  11.621  0.5711 -0.3731 -0.1359
  549MOL0     C75674   8.141   6.544  11.590 -0.7038 -0.1378  0.7482
  549MOL0     N75675   7.498   6.602  11.463  0.1660  0.5796 -0.0348
  549MOL0     N75676   7.506   6.490  11.398 -1.0328  0.2920 -0.0102
  549MOL0     C75677   7.695   5.413  10.712  0.1005 -0.4779  0.4643
  549MOL0     C75678   7.584   5.335  10.737 -0.0025  0.2810  0.6963
  549MOL0     C75679   7.236   5.101  10.874 -0.5533  0.2735  0.2163
  549MOL0     C75680   7.215   4.987  10.783  0.3209  0.1745 -0.1894
  549MOL0     C75681   7.084   4.943  10.765  0.3165  0.6544  0.1760
  549MOL0     C75682   6.975   4.998  10.821  1.0678 -0.0953  0.1510
  549MOL0     O75683   6.836   4.968  10.804  0.0750 -0.8679  0.5387
  549MOL0     C75684   6.804   4.878  10.702  0.0966  1.2505  0.3472
  549MOL0     C75685   6.652   4.855  10.675  0.1733  0.0526 -0.2855
  549MOL0     C75686   6.635   4.733  10.587 -0.3303  0.7329 -0.1075
  549MOL0     C75687   6.619   4.593  10.655 -0.3689 -0.3856 -0.3607
  549MOL0     C75688   6.613   4.493  10.546  0.8812 -0.0883  0.7630
  549MOL0     C75689   6.592   4.408  10.461 -0.1380  0.0939  0.5399
  549MOL0     C75690   7.003   5.102  10.908  0.9876  0.4314 -0.4708
  549MOL0     C75691   7.133   5.154  10.942  0.8627 -0.3487 -0.3869
  549MOL0     C75692   7.146   5.267  11.040 -0.5638  0.9085 -0.0680
  549MOL0     H75693   7.451   5.485  11.015 -0.0552  0.8706  0.8316
  549MOL0     H75694   7.647   5.641  10.965 -2.1173 -1.5013  1.8722
  549MOL0     H75695   7.993   5.657  10.883  0.4172 -2.1880  1.3258
  549MOL0     H75696   7.844   5.670  10.976 -0.5891 -2.0862 -1.0434
  549MOL0     H75697   7.980   5.888  10.851  0.3969 -1.3236  2.3862
  549MOL0     H75698   7.833   5.854  10.756  0.5795 -1.4769 -0.8343
  549MOL0     H75699   7.689   5.878  10.962 -0.8027  0.0949  0.1987
  549MOL0     H75700   7.841   5.862  11.058  1.0772 -0.4658 -1.4315
  549MOL0     H75701   7.937   6.063  11.004 -0.0314  0.8310 -1.4156
  549MOL0     H75702   7.815   6.097  10.866  0.0500 -1.6563 -0.9280
  549MOL0     H75703   7.769   6.080  11.169 -2.9951 -0.7986 -0.4083
  549MOL0     H75704   7.652   6.129  11.057  0.3473 -0.8484 -1.8348
  549MOL0     H75705   7.932   6.251  11.113  0.2892 -0.8267 -0.6702
  549MOL0     H75706   7.816   6.325  10.995  4.4949 -2.4426 -1.3717
  549MOL0     H75707   7.844   6.456  11.219  2.3534 -1.6759 -1.0236
  549MOL0     H75708   7.801   6.311  11.298 -2.3350  1.3151  1.0685
  549MOL0     H75709   7.620   6.445  11.096 -5.0711  0.1698  0.4358
  549MOL0     H75710   7.587   6.323  11.221  2.0471 -1.2273  0.4730
  549MOL0     H75711   7.735   6.695  11.262  0.5388 -0.1514 -0.1848
  549MOL0     H75712   7.560   6.832  11.568  2.3574  1.6145  0.8387
  549MOL0     H75713   7.590   6.907  11.419  1.3130  1.7115  3.0343
  549MOL0     H75714   7.839   6.771  11.449  2.6160  2.8635  0.4511
  549MOL0     H75715   7.795   6.936  11.484 -0.2193 -0.2842 -1.5583
  549MOL0     H75716   7.754   6.891  11.707  1.1617  1.4117 -1.8033
  549MOL0     H75717   7.780   6.711  11.684 -1.7274 -0.4822 -2.0003
  549MOL0     H75718   7.984   6.944  11.653 -0.5939  0.8472  2.5778
  549MOL0     H75719   7.987   6.838  11.795  2.4520  1.9959 -0.0309
  549MOL0     H75720   7.949   6.639  11.849 -1.5824 -0.5809 -1.2436
  549MOL0     H75721   7.984   6.303  11.983  0.3860  0.3800  1.1618
  549MOL0     H75722   7.829   6.371  11.910  1.3012  0.2869 -1.5053
  549MOL0     H75723   7.931   6.459  12.023  0.3387  0.1724  1.2624
  549MOL0     H75724   8.002   5.907  11.730 -1.4447 -1.1319 -2.3355
  549MOL0     H75725   8.122   5.678  11.737 -0.0554  1.4087  0.8693
  549MOL0     H75726   8.411   5.629  11.449  0.1436 -2.2667 -1.1060
  549MOL0     H75727   8.537   5.636  11.571 -1.8647  2.1677 -0.7383
  549MOL0     H75728   8.527   5.403  11.602 -1.0277 -1.6070 -0.5975
  549MOL0     H75729   8.353   5.413  11.574  0.3846 -1.1660 -0.9157
  549MOL0     H75730   8.405   5.429  11.331  1.7497  1.2634 -0.1360
  549MOL0     H75731   8.447   5.270  11.421 -1.2535 -0.3654 -4.4792
  549MOL0     H75732   8.684   5.310  11.394  0.1054  1.9051  1.2364
  549MOL0     H75733   8.649   5.486  11.358 -1.9403  1.0288 -0.9979
  549MOL0     H75734   8.548   5.407  11.144 -0.5862  0.7200  1.6315
  549MOL0     H75735   8.725   5.407  11.169  1.6637 -2.0531  0.3328
  549MOL0     H75736   8.532   5.159  11.181  3.1250 -6.4873 -0.9087
  549MOL0     H75737   8.702   5.142  11.229  0.4495 -2.6879 -2.0995
  549MOL0     H75738   8.788   5.183  11.033 -0.1484 -3.3308 -1.8611
  549MOL0     H75739   8.624   5.215  10.943  3.1350 -0.3394 -2.8271
  549MOL0     H75740   8.716   4.973  11.104 -1.5411  2.0490  1.7589
  549MOL0     H75741   8.723   4.988  10.918 -2.8329 -3.1908 -0.3857
  549MOL0     H75742   8.459   5.853  11.539 -0.7534 -3.2559  0.1358
  549MOL0     H75743   8.365   6.063  11.546  0.1021 -0.9367 -1.7891
  549MOL0     H75744   8.215   6.358  11.548  0.2404 -0.0055 -0.6795
  549MOL0     H75745   8.176   6.587  11.497 -1.1359 -0.4538  0.4330
  549MOL0     H75746   7.769   5.379  10.640  1.1040  0.8924  0.8204
  549MOL0     H75747   7.564   5.247  10.676 -1.9006  3.2802 -3.4968
  549MOL0     H75748   7.294   4.946  10.721 -1.2596 -1.8058 -1.0270
  549MOL0     H75749   7.070   4.864  10.692  0.0419  1.6285 -0.8485
  549MOL0     H75750   6.850   4.915  10.609 -0.3177 -0.3477 -0.5327
  549MOL0     H75751   6.845   4.779  10.723  1.5131  0.7876 -3.6260
  549MOL0     H75752   6.609   4.943  10.626  0.1769 -0.7250 -1.7611
  549MOL0     H75753   6.601   4.829  10.768 -0.0142 -0.2573 -0.4703
  549MOL0     H75754   6.548   4.749  10.523 -0.8245  1.1127  0.6581
  549MOL0     H75755   6.716   4.737  10.513  0.5656  0.1198  0.7968
  549MOL0     H75756   6.530   4.595  10.718 -0.4005  0.5115 -0.4087
  549MOL0     H75757   6.708   4.574  10.714 -0.5197  0.1532  0.0441
  549MOL0     H75758   6.575   4.320  10.403  2.4836 -1.6588  2.2190
  549MOL0     H75759   6.911   5.139  10.953  0.6331 -1.0666  0.1258
  549MOL0     H75760   7.099   5.257  11.138 -1.8403  3.1555 -0.3848
  549MOL0     H75761   7.254   5.274  11.059 -0.5315  1.8024 -0.5359
  549MOL0     H75762   7.103   5.351  10.984  1.8509  2.5955  0.4703
  550MOL0     O75763   2.654   2.150   5.570 -0.2912 -0.3928 -0.4292
  550MOL0     C75764   2.662   2.167   5.446  0.5726  0.4235 -1.2742
  550MOL0     O75765   2.577   2.242   5.372  0.4048 -0.3405  0.0719
  550MOL0     C75766   2.452   2.283   5.429 -1.5039  0.6536 -0.1459
  550MOL0     C75767   2.417   2.407   5.399 -0.9908 -0.3664  0.2118
  550MOL0     C75768   2.297   2.467   5.450 -0.4512 -0.2233  1.2338
  550MOL0     C75769   2.209   2.395   5.538 -0.0639  0.3572  0.2081
  550MOL0     O75770   2.086   2.444   5.567  1.1676  0.7182  0.4014
  550MOL0     C75771   2.052   2.440   5.709  0.2017  0.4504  0.1868
  550MOL0     C75772   1.918   2.503   5.716 -0.4686  0.4817 -0.2244
  550MOL0     C75773   1.919   2.653   5.692  0.6021  0.7772 -1.2875
  550MOL0     C75774   1.783   2.722   5.696  0.1643  0.1972 -0.0518
  550MOL0     C75775   1.779   2.879   5.708 -1.1062 -0.9830 -0.0769
  550MOL0     C75776   1.833   2.956   5.588 -0.2369  1.2213 -0.5998
  550MOL0     C75777   1.978   2.990   5.625 -0.2402 -0.6938  0.0641
  550MOL0     C75778   2.040   3.093   5.523 -0.5465  0.2702 -0.0882
  550MOL0     N75779   2.092   3.038   5.397  0.7030  0.0160  0.3183
  550MOL0     C75780   2.014   3.039   5.283 -0.8372 -0.8554 -0.0733
  550MOL0     C75781   2.101   3.013   5.184  0.5497  0.2279  0.8721
  550MOL0     C75782   2.079   3.008   5.037  0.6258  0.4290  0.2254
  550MOL0     C75783   2.099   2.878   4.964  0.1459 -0.0352  0.3126
  550MOL0     C75784   2.097   2.891   4.807 -0.3667  0.3869 -0.5223
  550MOL0     C75785   2.139   2.765   4.740  0.0654  0.1193 -0.8769
  550MOL0     O75786   2.036   2.662   4.745 -0.4084 -0.0805  0.6540
  550MOL0     C75787   2.066   2.533   4.702  0.9679 -0.0342  0.2400
  550MOL0     C75788   2.189   2.493   4.654 -0.2960  0.6352  0.1045
  550MOL0     C75789   2.209   2.355   4.617 -0.8329  0.0749  0.3960
  550MOL0     C75790   2.350   2.317   4.582 -0.3544 -0.0087 -0.1963
  550MOL0     C75791   2.100   2.268   4.611 -0.5952 -0.5861  0.8280
  550MOL0     C75792   2.122   2.118   4.591  0.6883  0.5840  0.1094
  550MOL0     O75793   2.078   2.049   4.481 -0.0025 -0.2876 -0.5794
  550MOL0     C75794   2.009   2.104   4.378 -0.5270 -0.2164 -0.5375
  550MOL0     C75795   1.871   2.138   4.376 -0.9228 -0.0713  0.0901
  550MOL0     C75796   1.809   2.180   4.259  1.1157  1.0087 -0.0164
  550MOL0     C75797   1.896   2.212   4.143  0.2492  0.4971  0.2488
  550MOL0     O75798   1.849   2.247   4.020  0.1401 -0.0686 -0.4458
  550MOL0     C75799   1.714   2.289   4.014 -0.1638 -0.0137 -0.8419
  550MOL0     C75800   1.622   2.180   3.975 -0.1895 -0.0562 -0.1074
  550MOL0     C75801   1.483   2.224   3.926  0.4362  0.2350  0.4512
  550MOL0     C75802   1.414   2.330   4.005 -0.8215  0.8293 -0.5954
  550MOL0     C75803   1.265   2.348   3.979 -0.9086  0.2802 -0.1247
  550MOL0     C75804   1.227   2.362   3.834  0.0614 -0.1301 -1.1806
  550MOL0     C75805   1.086   2.419   3.822  0.3194 -0.1217  0.2194
  550MOL0     C75806   1.049   2.449   3.676 -0.9935  0.0269  0.0796
  550MOL0    Cl75807   1.081   2.334   3.538  0.3434  0.0197  0.4438
  550MOL0     C75808   2.039   2.197   4.155  0.4882  0.4559  0.2399
  550MOL0     C75809   2.083   2.140   4.267  0.0482  0.2182  0.3279
  550MOL0     O75810   2.187   2.075   4.682  0.4652  0.1174  0.2265
  550MOL0     C75811   1.971   2.319   4.642  0.9438  0.6734 -0.1126
  550MOL0     C75812   1.959   2.440   4.694 -0.3875  0.6273 -0.0730
  550MOL0     N75813   2.223   2.990   5.234  0.2884 -0.1014 -0.1337
  550MOL0     N75814   2.221   3.011   5.366 -0.2197  0.1962  0.0064
  550MOL0     C75815   2.245   2.259   5.565  0.2118 -0.0429  0.0707
  550MOL0     C75816   2.364   2.205   5.507 -0.1989  0.7269 -0.6585
  550MOL0     C75817   2.773   2.092   5.378  0.8213  0.4630 -0.0991
  550MOL0     C75818   2.756   2.052   5.240  0.2848  0.1435 -0.6622
  550MOL0     C75819   2.863   1.988   5.179  0.4706  0.0795  0.4830
  550MOL0     C75820   2.970   1.948   5.243  0.5086 -0.2917  0.0590
  550MOL0     O75821   3.065   1.867   5.190 -0.5192  0.2860  0.3220
  550MOL0     C75822   3.046   1.809   5.055 -0.6294 -0.2591  1.1487
  550MOL0     C75823   2.925   1.710   5.050 -0.4470  0.0512 -0.3012
  550MOL0     C75824   2.927   1.582   5.145  0.0545  0.3442 -0.3881
  550MOL0     C75825   2.845   1.612   5.264 -0.2904  0.2818  0.0449
  550MOL0     C75826   2.831   1.487   5.335 -0.0772  1.6916 -0.7129
  550MOL0     C75827   2.827   1.387   5.416  0.5545  1.0344 -0.8665
  550MOL0     C75828   2.977   1.957   5.377  0.0927  0.0011  0.4868
  550MOL0     C75829   2.886   2.043   5.448 -1.0450  0.9741 -0.6805
  550MOL0     C75830   2.923   2.071   5.579 -0.0310  0.4117 -1.0263
  550MOL0     H75831   2.476   2.454   5.321 -2.7135 -2.9250 -2.8825
  550MOL0     H75832   2.253   2.557   5.408 -0.7034 -0.5750  0.7282
  550MOL0     H75833   2.130   2.496   5.761  0.7312  0.4802 -0.6248
  550MOL0     H75834   2.043   2.337   5.745  4.2647  0.4823  1.7516
  550MOL0     H75835   1.845   2.471   5.641 -0.5167 -1.1318  0.4753
  550MOL0     H75836   1.882   2.478   5.816 -1.8044 -1.7821 -1.1925
  550MOL0     H75837   1.987   2.691   5.769 -1.4901  0.9249  0.5903
  550MOL0     H75838   1.967   2.686   5.599  2.2612  0.2941 -0.6329
  550MOL0     H75839   1.725   2.689   5.609  1.1210  0.8330 -0.9481
  550MOL0     H75840   1.733   2.677   5.782  0.1217  0.1160 -0.1184
  550MOL0     H75841   1.833   2.904   5.799  2.6990 -0.5219 -2.2697
  550MOL0     H75842   1.678   2.921   5.720 -0.6897 -0.0829  0.3395
  550MOL0     H75843   1.828   2.894   5.498  0.7136  1.2383 -0.6823
  550MOL0     H75844   1.770   3.046   5.582  0.4693  1.7934  0.2317
  550MOL0     H75845   2.045   2.904   5.623  3.3523  1.8827 -2.8026
  550MOL0     H75846   1.990   3.040   5.722  4.0395 -1.2881  0.0026
  550MOL0     H75847   1.977   3.181   5.506 -1.5524  0.9044  5.2544
  550MOL0     H75848   2.128   3.132   5.575  1.1311 -1.6023 -1.3803
  550MOL0     H75849   1.912   3.076   5.275 -1.4729 -2.6117 -0.4432
  550MOL0     H75850   2.145   3.084   4.995 -0.8144  3.3700  2.8573
  550MOL0     H75851   1.984   3.059   5.022  0.4307  1.3349  3.7191
  550MOL0     H75852   2.200   2.843   4.990 -1.1963 -4.7079  0.1434
  550MOL0     H75853   2.022   2.807   4.996  1.0259 -0.6071  1.2164
  550MOL0     H75854   1.998   2.909   4.764 -0.7228  2.4162  0.9627
  550MOL0     H75855   2.164   2.973   4.779 -1.1332  0.8005 -1.1746
  550MOL0     H75856   2.163   2.781   4.635  0.8094  1.2396 -0.5593
  550MOL0     H75857   2.233   2.739   4.790  0.1758 -0.9690 -1.6377
  550MOL0     H75858   2.273   2.561   4.648 -0.1702  0.4503 -0.2475
  550MOL0     H75859   2.365   2.209   4.581 -2.8783 -0.4265 -1.0983
  550MOL0     H75860   2.422   2.350   4.657  0.7291  1.0208 -1.6461
  550MOL0     H75861   2.378   2.353   4.483  1.3205  1.6221  0.8158
  550MOL0     H75862   1.822   2.120   4.471 -1.1108  1.9048  0.4017
  550MOL0     H75863   1.701   2.183   4.269  0.8637  0.8146 -2.1972
  550MOL0     H75864   1.678   2.332   4.108 -2.7481 -0.2205 -1.6573
  550MOL0     H75865   1.701   2.366   3.937  0.3718  1.4268  0.4682
  550MOL0     H75866   1.668   2.122   3.894 -3.2064 -0.4514 -1.7337
  550MOL0     H75867   1.609   2.110   4.058 -0.8832  1.0090  0.7063
  550MOL0     H75868   1.420   2.135   3.921  4.3810 -2.8559  0.6378
  550MOL0     H75869   1.501   2.259   3.824  1.2065 -0.4242  0.3473
  550MOL0     H75870   1.463   2.419   3.965 -0.0325 -0.4413 -2.5930
  550MOL0     H75871   1.449   2.313   4.107 -1.9960 -2.3945 -0.6338
  550MOL0     H75872   1.221   2.260   4.027 -0.7968  0.0488 -0.4426
  550MOL0     H75873   1.234   2.439   4.032  0.2213  1.8448 -1.9999
  550MOL0     H75874   1.232   2.260   3.796 -3.0082 -1.1401  0.7808
  550MOL0     H75875   1.292   2.435   3.783  1.6692  0.2730  1.2551
  550MOL0     H75876   1.075   2.513   3.877 -0.1745  0.4817 -0.8901
  550MOL0     H75877   1.018   2.354   3.878 -0.6505 -0.9491 -1.8323
  550MOL0     H75878   1.110   2.539   3.662 -0.5606  0.2606  2.8508
  550MOL0     H75879   0.948   2.490   3.670  0.1982  3.0271 -1.6128
  550MOL0     H75880   2.105   2.213   4.071 -3.0723  0.9255 -2.7558
  550MOL0     H75881   2.190   2.131   4.275  0.1565  2.1889  1.6399
  550MOL0     H75882   1.885   2.253   4.645 -0.9258  2.9265  3.9365
  550MOL0     H75883   1.859   2.468   4.726 -1.8720 -2.0001 -2.0781
  550MOL0     H75884   2.175   2.211   5.634  2.8683 -2.1211  1.4954
  550MOL0     H75885   2.394   2.100   5.511 -0.5403  0.6372  2.4881
  550MOL0     H75886   2.661   2.082   5.197  0.1986  1.9026  0.6343
  550MOL0     H75887   2.857   1.978   5.071 -2.6102  0.2032  0.5343
  550MOL0     H75888   3.025   1.881   4.975 -0.7405  0.3926  1.7478
  550MOL0     H75889   3.138   1.756   5.031  1.1131  3.0762 -0.1673
  550MOL0     H75890   2.928   1.671   4.948  0.1036  2.3482 -1.2319
  550MOL0     H75891   2.828   1.760   5.059 -0.3661  0.0023  1.1875
  550MOL0     H75892   2.896   1.495   5.087  2.3215  0.1583 -1.4500
  550MOL0     H75893   3.030   1.561   5.175  0.3178  1.3155 -0.5607
  550MOL0     H75894   2.755   1.660   5.226  1.4145  2.4700 -1.5262
  550MOL0     H75895   2.898   1.681   5.330  1.0273 -1.5690  1.0313
  550MOL0     H75896   2.832   1.306   5.486  1.3553  0.4966 -1.5322
  550MOL0     H75897   3.061   1.914   5.430  0.4442  1.8156  1.5012
  550MOL0     H75898   3.030   2.071   5.598  0.0265 -1.3008 -1.1398
  550MOL0     H75899   2.885   2.168   5.612 -5.3494 -1.0298 -1.8389
  550MOL0     H75900   2.876   1.996   5.643  1.8669 -1.4085 -1.6276
  551MOL0     O75901  10.744   2.496   7.707  0.4643  0.4519 -0.3088
  551MOL0     C75902  10.806   2.597   7.699 -0.1183 -0.3083 -0.2805
  551MOL0     O75903  10.936   2.603   7.706 -0.6132  0.0582  0.8440
  551MOL0     C75904  11.015   2.498   7.695 -0.1344 -0.3209 -0.4863
  551MOL0     C75905  11.064   2.454   7.577  0.5957 -0.1359  0.3675
  551MOL0     C75906  11.142   2.335   7.567 -0.3881  0.6239  0.1110
  551MOL0     C75907  11.194   2.271   7.681  0.3598  0.4457  0.2637
  551MOL0     O75908  11.270   2.157   7.665 -0.1923 -0.6058 -0.3960
  551MOL0     C75909  11.258   2.050   7.761 -0.2091  0.0960  0.2105
  551MOL0     C75910  11.303   1.910   7.699  0.1326 -0.0430 -0.1480
  551MOL0     C75911  11.201   1.876   7.585 -1.0714 -0.5236 -0.0834
  551MOL0     C75912  11.254   1.742   7.511  0.9923 -0.7974 -0.1853
  551MOL0     C75913  11.142   1.653   7.452 -1.3031 -0.1686  0.6983
  551MOL0     C75914  11.208   1.546   7.365  0.0837  1.0457  1.3183
  551MOL0     C75915  11.101   1.487   7.277 -0.6419  1.0431  0.0523
  551MOL0     C75916  11.111   1.540   7.131  0.6097 -0.0381 -0.1005
  551MOL0     N75917  11.198   1.450   7.059 -0.3602  0.6848 -0.3865
  551MOL0     C75918  11.336   1.439   7.073 -0.7002 -1.0465 -0.4278
  551MOL0     C75919  11.377   1.340   6.990 -1.1557  0.7350 -0.0543
  551MOL0     C75920  11.519   1.286   6.964 -0.0162 -0.7559  0.3813
  551MOL0     C75921  11.596   1.389   6.877 -0.0209 -0.3780 -1.3924
  551MOL0     C75922  11.540   1.425   6.738  0.2437 -0.2597  0.6926
  551MOL0     C75923  11.495   1.293   6.658  0.4487 -0.1747  0.2016
  551MOL0     O75924  11.609   1.222   6.599 -0.2838 -0.3342  0.2948
  551MOL0     C75925  11.596   1.087   6.588  0.4868  0.1490 -0.8355
  551MOL0     C75926  11.472   1.010   6.599 -0.4012 -0.0691  0.2190
  551MOL0     C75927  11.483   0.871   6.590  0.2773  0.7043 -1.3810
  551MOL0     C75928  11.351   0.796   6.626 -0.9877 -0.1005  0.6182
  551MOL0     C75929  11.603   0.799   6.560 -0.1318  0.4905  0.2571
  551MOL0     C75930  11.623   0.659   6.536  0.2695 -0.2429 -0.2553
  551MOL0     O75931  11.751   0.610   6.563  0.1353  0.4915 -0.0760
  551MOL0     C75932  11.765   0.478   6.578 -0.3520  0.6818  0.1392
  551MOL0     C75933  11.847   0.432   6.681  0.3947  0.2294 -1.8386
  551MOL0     C75934  11.900   0.302   6.681 -0.0003  0.0001 -1.2947
  551MOL0     C75935  11.872   0.219   6.571 -0.1040 -0.4326  0.2364
  551MOL0     O75936  11.921   0.098   6.550 -1.0565 -0.1802 -0.1310
  551MOL0     C75937  12.035   0.055   6.629 -0.9412  0.2192  0.1896
  551MOL0     C75938  12.059  -0.092   6.608 -0.5301  1.0130 -0.1905
  551MOL0     C75939  12.167  -0.150   6.692  0.0581 -0.4381  0.5063
  551MOL0     C75940  12.119  -0.230   6.815 -0.7360 -0.2494 -0.9118
  551MOL0     C75941  12.222  -0.246   6.929 -0.2880 -0.6072  0.1839
  551MOL0     C75942  12.186  -0.356   7.028 -0.2994  0.3404  0.3103
  551MOL0     C75943  12.272  -0.357   7.162  1.1977  0.1870  0.1863
  551MOL0     C75944  12.423  -0.360   7.133  0.7661 -0.5893 -1.1736
  551MOL0    Cl75945  12.519  -0.375   7.284 -0.0960 -0.5697 -0.4509
  551MOL0     C75946  11.800   0.262   6.467  0.3290 -0.9531 -0.1615
  551MOL0     C75947  11.741   0.388   6.471  0.8687 -1.2398  0.7037
  551MOL0     O75948  11.535   0.598   6.484  0.2437  0.0409  0.1391
  551MOL0     C75949  11.714   0.884   6.530 -0.0990  0.4656 -0.1832
  551MOL0     C75950  11.714   1.026   6.545 -0.3988  0.0882 -1.3957
  551MOL0     N75951  11.271   1.308   6.912  0.1863 -0.4211 -1.3202
  551MOL0     N75952  11.169   1.374   6.953  0.1512 -0.2706  0.4917
  551MOL0     C75953  11.157   2.325   7.803 -0.2981 -0.1646 -0.2236
  551MOL0     C75954  11.069   2.433   7.809  0.1846  0.3881  0.0150
  551MOL0     C75955  10.722   2.719   7.666 -0.0903 -0.2077 -0.1251
  551MOL0     C75956  10.751   2.805   7.554  0.2435  0.3931 -0.9379
  551MOL0     C75957  10.662   2.918   7.527  0.4225  0.5412 -0.7518
  551MOL0     C75958  10.577   2.967   7.628 -0.5095 -0.5988 -1.2707
  551MOL0     O75959  10.505   3.085   7.625 -0.3078 -0.0312  0.2069
  551MOL0     C75960  10.525   3.173   7.513 -0.4006  0.2696 -0.9218
  551MOL0     C75961  10.410   3.280   7.492 -0.1834  0.2545 -0.5190
  551MOL0     C75962  10.288   3.203   7.451 -0.1703  0.5836 -0.5555
  551MOL0     C75963  10.155   3.274   7.480  0.1908 -0.5995 -0.2192
  551MOL0     C75964  10.029   3.213   7.440  0.0097  0.0009 -0.0724
  551MOL0     C75965   9.925   3.171   7.402 -0.5744  0.3755  0.5782
  551MOL0     C75966  10.554   2.884   7.738  0.6252  0.1881 -0.4247
  551MOL0     C75967  10.621   2.762   7.753  0.0767  0.4397  0.1344
  551MOL0     C75968  10.588   2.696   7.884  0.0888  0.5405  0.0898
  551MOL0     H75969  11.044   2.506   7.484  2.8330 -1.1614 -0.7877
  551MOL0     H75970  11.156   2.292   7.468 -0.2181 -0.6244  0.6472
  551MOL0     H75971  11.157   2.040   7.800 -0.5739  0.6124 -0.5827
  551MOL0     H75972  11.328   2.066   7.844 -0.2064  0.9639  0.0448
  551MOL0     H75973  11.408   1.918   7.670 -0.0336  2.1620 -0.2626
  551MOL0     H75974  11.286   1.843   7.784 -3.7276 -0.1742 -0.8309
  551MOL0     H75975  11.101   1.859   7.626 -1.2022  2.0795  0.8834
  551MOL0     H75976  11.199   1.952   7.507  3.0186 -1.1838 -1.0586
  551MOL0     H75977  11.317   1.774   7.428  0.2981  1.4988  0.0978
  551MOL0     H75978  11.315   1.681   7.579  3.4416  1.0371 -0.5772
  551MOL0     H75979  11.080   1.712   7.385  0.9328 -0.3266 -1.6468
  551MOL0     H75980  11.092   1.599   7.532  0.3066 -2.2868  0.3683
  551MOL0     H75981  11.277   1.580   7.287  1.5166 -1.4630  1.3427
  551MOL0     H75982  11.250   1.479   7.441 -1.4072 -0.2847  1.0223
  551MOL0     H75983  10.996   1.502   7.301 -1.5111 -0.5172 -2.3358
  551MOL0     H75984  11.119   1.379   7.274 -0.7671  1.0350 -0.6275
  551MOL0     H75985  11.013   1.518   7.088  1.0616  0.6560 -1.5506
  551MOL0     H75986  11.135   1.647   7.122 -2.1998  0.7280  0.5899
  551MOL0     H75987  11.403   1.489   7.142 -1.4473  1.6935 -1.5552
  551MOL0     H75988  11.530   1.190   6.912  2.2024 -1.1703  1.4988
  551MOL0     H75989  11.580   1.276   7.054 -1.4156  0.3709  1.5014
  551MOL0     H75990  11.617   1.480   6.934 -3.6232 -0.4586  0.3595
  551MOL0     H75991  11.698   1.350   6.866  1.2248  2.6425 -1.4248
  551MOL0     H75992  11.455   1.493   6.745  0.0390 -0.4939  0.4866
  551MOL0     H75993  11.614   1.480   6.678  0.0685 -1.2089 -0.4319
  551MOL0     H75994  11.434   1.222   6.714  1.0381 -1.7841 -1.1188
  551MOL0     H75995  11.432   1.335   6.579 -0.5916 -1.0651  0.5395
  551MOL0     H75996  11.374   1.054   6.617  0.2906  1.5757  0.1165
  551MOL0     H75997  11.280   0.876   6.649 -0.7393 -0.6338  3.6761
  551MOL0     H75998  11.368   0.737   6.717 -0.4887  1.0199  1.2724
  551MOL0     H75999  11.307   0.736   6.546  1.4375  0.6446 -1.4154
  551MOL0     H76000  11.870   0.493   6.768  0.4628 -2.5451  0.2366
  551MOL0     H76001  11.953   0.266   6.768 -1.8706  3.0186  1.3528
  551MOL0     H76002  12.121   0.119   6.606 -0.9861  0.3402  0.3542
  551MOL0     H76003  12.014   0.070   6.735  0.3987 -0.9414  0.6583
  551MOL0     H76004  11.966  -0.151   6.614 -1.6636  2.8412  2.2373
  551MOL0     H76005  12.099  -0.111   6.509 -1.9805 -3.0576 -0.1968
  551MOL0     H76006  12.232  -0.071   6.731 -1.2997 -0.7687  3.7618
  551MOL0     H76007  12.230  -0.197   6.616  1.2347  1.7277  0.0621
  551MOL0     H76008  12.093  -0.334   6.791 -1.8540 -0.1672 -0.1502
  551MOL0     H76009  12.024  -0.201   6.861  0.1496 -0.4490  1.1569
  551MOL0     H76010  12.319  -0.246   6.879 -1.1553  1.6408 -1.7264
  551MOL0     H76011  12.231  -0.156   6.991  1.1163 -1.4369  1.2443
  551MOL0     H76012  12.190  -0.453   6.978  0.2772 -0.7398  2.3066
  551MOL0     H76013  12.086  -0.330   7.063 -0.1553  0.4121  0.6720
  551MOL0     H76014  12.239  -0.442   7.222 -1.5861  0.5886 -0.6640
  551MOL0     H76015  12.251  -0.262   7.212 -3.3228 -1.2464  1.4155
  551MOL0     H76016  12.463  -0.269   7.086 -0.2653 -0.0963 -1.1341
  551MOL0     H76017  12.462  -0.447   7.080  0.7452 -2.1626  1.2400
  551MOL0     H76018  11.767   0.203   6.382 -1.4573 -1.2431  0.6835
  551MOL0     H76019  11.681   0.426   6.389  2.4727  3.1925  1.3243
  551MOL0     H76020  11.805   0.838   6.493  0.8729  1.9426  0.2761
  551MOL0     H76021  11.805   1.080   6.519  0.9588 -0.2506  2.1973
  551MOL0     H76022  11.181   2.266   7.890  0.4928  0.3761 -0.0686
  551MOL0     H76023  11.043   2.462   7.910  2.4404  1.9366  0.2336
  551MOL0     H76024  10.820   2.769   7.477 -1.0641 -1.1758 -1.4408
  551MOL0     H76025  10.661   2.962   7.427 -3.0395  2.2042 -0.1103
  551MOL0     H76026  10.619   3.228   7.521 -0.1786 -0.1900 -0.4039
  551MOL0     H76027  10.530   3.118   7.418  0.5270 -1.0601 -0.1263
  551MOL0     H76028  10.430   3.342   7.405 -1.9719  1.6273 -0.0014
  551MOL0     H76029  10.400   3.345   7.579  0.6558  0.9634 -0.9354
  551MOL0     H76030  10.286   3.183   7.343 -0.7968  3.8396 -1.2381
  551MOL0     H76031  10.282   3.104   7.497 -1.5712 -0.2012 -2.2679
  551MOL0     H76032  10.161   3.373   7.433 -0.6207  0.5861  2.0503
  551MOL0     H76033  10.144   3.303   7.584  0.0783  0.8802 -0.6248
  551MOL0     H76034   9.826   3.133   7.392 -1.7549  2.3286  3.4182
  551MOL0     H76035  10.479   2.922   7.806  1.3783  2.1890 -0.6438
  551MOL0     H76036  10.515   2.619   7.857 -0.2677  0.9912 -0.2648
  551MOL0     H76037  10.674   2.648   7.930 -0.1003 -0.1940 -0.3045
  551MOL0     H76038  10.552   2.768   7.958  2.0624  1.9291 -0.2313
  552MOL0     O76039   7.395   0.711   2.883  0.4438 -0.8157  0.4189
  552MOL0     C76040   7.393   0.660   2.992  0.0579  0.9094  0.5945
  552MOL0     O76041   7.452   0.720   3.101  0.3053 -0.7460 -0.0860
  552MOL0     C76042   7.497   0.848   3.079  0.6138 -0.5688 -0.6493
  552MOL0     C76043   7.632   0.874   3.048  0.2527 -0.4844  0.7845
  552MOL0     C76044   7.672   1.006   3.028 -0.2196  0.5619 -1.0345
  552MOL0     C76045   7.582   1.111   3.039  0.0741  1.7819 -0.1758
  552MOL0     O76046   7.621   1.242   3.033 -0.3486  0.4128 -0.4412
  552MOL0     C76047   7.746   1.281   3.099 -0.3308 -1.0165 -1.2667
  552MOL0     C76048   7.756   1.236   3.250 -0.4965 -0.4377 -0.5993
  552MOL0     C76049   7.716   1.362   3.336 -0.5086 -0.2164 -0.5634
  552MOL0     C76050   7.834   1.477   3.355 -0.2431 -0.1205  0.9921
  552MOL0     C76051   7.754   1.607   3.397 -0.7161  0.6587  1.1050
  552MOL0     C76052   7.743   1.609   3.547  0.1819  0.2050 -0.3418
  552MOL0     C76053   7.643   1.707   3.611 -0.4173 -0.4273 -0.0963
  552MOL0     C76054   7.663   1.843   3.549  0.5538 -0.3241 -0.0564
  552MOL0     N76055   7.618   1.947   3.640 -1.1781 -0.3611  0.2267
  552MOL0     C76056   7.708   2.017   3.717 -0.1247  0.5126  0.2100
  552MOL0     C76057   7.636   2.097   3.799 -0.2483  0.2629 -0.0773
  552MOL0     C76058   7.691   2.186   3.900  0.7506 -0.4303  1.6685
  552MOL0     C76059   7.635   2.330   3.891 -0.2243  0.3923  0.1486
  552MOL0     C76060   7.702   2.422   3.991 -0.0342  1.0174 -0.9056
  552MOL0     C76061   7.601   2.537   4.013  0.2048  0.0404 -0.3447
  552MOL0     O76062   7.606   2.589   4.147 -0.1450 -0.7962  0.4456
  552MOL0     C76063   7.570   2.720   4.156  0.6687 -0.2542 -0.7989
  552MOL0     C76064   7.610   2.786   4.274 -1.3795  0.6801  0.0592
  552MOL0     C76065   7.575   2.916   4.299 -0.7015  0.4211 -0.2487
  552MOL0     C76066   7.633   2.961   4.438 -0.2344 -0.5714  1.0651
  552MOL0     C76067   7.481   2.984   4.218 -0.5079 -0.1767  1.2563
  552MOL0     C76068   7.448   3.125   4.238  0.3350  0.5002  0.6990
  552MOL0     O76069   7.540   3.201   4.304  0.1048 -0.0255 -0.2615
  552MOL0     C76070   7.483   3.283   4.406 -0.2857 -0.3770  0.7068
  552MOL0     C76071   7.354   3.343   4.403 -1.3433 -0.1572 -0.4410
  552MOL0     C76072   7.315   3.420   4.507 -0.7169 -0.5122 -0.2122
  552MOL0     C76073   7.406   3.468   4.602  0.5385  0.9091  0.2102
  552MOL0     O76074   7.358   3.566   4.692 -0.5649 -0.0809  0.5780
  552MOL0     C76075   7.456   3.621   4.783 -1.7073 -0.3244  0.1212
  552MOL0     C76076   7.372   3.705   4.876  0.0942 -1.1762  0.1767
  552MOL0     C76077   7.321   3.836   4.797 -0.9203  0.0722 -0.2347
  552MOL0     C76078   7.423   3.933   4.739  0.5705 -1.0386  0.8374
  552MOL0     C76079   7.354   4.072   4.708  0.3176 -0.3468 -0.1331
  552MOL0     C76080   7.435   4.164   4.619 -0.2470  0.0006 -0.4651
  552MOL0     C76081   7.567   4.218   4.681  0.0869  0.8840 -0.9448
  552MOL0     C76082   7.560   4.320   4.794 -0.3994 -0.3001  0.1762
  552MOL0    Cl76083   7.733   4.377   4.825  0.0715  0.0738 -0.1990
  552MOL0     C76084   7.541   3.423   4.593 -0.1723 -0.6531  0.1472
  552MOL0     C76085   7.576   3.324   4.503  0.0354 -0.4991  0.8752
  552MOL0     O76086   7.342   3.163   4.185  0.0206 -0.5882  0.0597
  552MOL0     C76087   7.424   2.915   4.108 -0.6718  0.3099 -0.1687
  552MOL0     C76088   7.464   2.785   4.079  0.3742  0.8743  0.2631
  552MOL0     N76089   7.503   2.067   3.778  0.5393 -0.9799  0.0881
  552MOL0     N76090   7.491   1.978   3.688 -0.4252 -0.4650  0.4284
  552MOL0     C76091   7.449   1.086   3.067 -1.3324 -0.0173 -0.8945
  552MOL0     C76092   7.408   0.959   3.083  0.5002  0.2058  0.2118
  552MOL0     C76093   7.366   0.521   3.008 -0.6598 -0.7103  0.1969
  552MOL0     C76094   7.434   0.442   3.113 -0.6162 -0.5108 -0.0528
  552MOL0     C76095   7.405   0.311   3.141 -0.2176  0.0839  0.3158
  552MOL0     C76096   7.302   0.255   3.065  0.2383  0.3735  0.4052
  552MOL0     O76097   7.260   0.127   3.092 -0.7685 -0.3633  0.3568
  552MOL0     C76098   7.301   0.068   3.222 -0.3327 -0.5338 -0.0548
  552MOL0     C76099   7.212  -0.064   3.247  0.2647  1.0287  0.4772
  552MOL0     C76100   7.247  -0.164   3.130  0.1177  0.2629  0.2031
  552MOL0     C76101   7.131  -0.261   3.085 -0.4402 -0.3201  0.1804
  552MOL0     C76102   7.070  -0.326   3.208  0.6462 -0.2433  0.4435
  552MOL0     C76103   7.001  -0.365   3.301 -0.0455 -0.5748  0.1530
  552MOL0     C76104   7.232   0.326   2.967 -0.1592  0.1859  0.6705
  552MOL0     C76105   7.266   0.459   2.936  0.2970 -0.7566  0.4580
  552MOL0     C76106   7.178   0.533   2.832 -0.6414  0.5241  0.2794
  552MOL0     H76107   7.702   0.792   3.032  1.8707  0.9079  0.5279
  552MOL0     H76108   7.778   1.028   3.016 -0.2661  0.9452 -0.7545
  552MOL0     H76109   7.781   1.384   3.083  0.0617 -1.0509 -0.6481
  552MOL0     H76110   7.831   1.229   3.053  0.6820 -0.2318 -0.3330
  552MOL0     H76111   7.683   1.158   3.275 -2.2283  2.1538  3.2993
  552MOL0     H76112   7.861   1.213   3.270  0.0350  1.3824 -1.0854
  552MOL0     H76113   7.623   1.399   3.292  0.4350  1.3207 -1.3299
  552MOL0     H76114   7.694   1.333   3.440 -1.2364  0.8103 -0.4183
  552MOL0     H76115   7.903   1.441   3.432  2.2943  1.6004 -0.3604
  552MOL0     H76116   7.888   1.511   3.266  0.6552  2.6641  2.5012
  552MOL0     H76117   7.663   1.616   3.337  2.4354 -0.7345 -4.6424
  552MOL0     H76118   7.808   1.698   3.371  2.1605 -1.2834 -0.3664
  552MOL0     H76119   7.717   1.511   3.588 -0.1629  1.1138  1.7425
  552MOL0     H76120   7.844   1.628   3.584 -0.5426  0.9121  1.3706
  552MOL0     H76121   7.657   1.706   3.719  0.7797  2.6348 -0.1207
  552MOL0     H76122   7.541   1.674   3.586  0.8189 -3.7152 -1.3052
  552MOL0     H76123   7.769   1.859   3.527 -0.1709  1.8441 -2.3637
  552MOL0     H76124   7.610   1.842   3.454  1.3369  1.5206 -0.5629
  552MOL0     H76125   7.815   2.003   3.719 -0.0276  0.8378  3.9483
  552MOL0     H76126   7.796   2.185   3.872 -0.3699  0.2453 -3.4885
  552MOL0     H76127   7.665   2.143   3.998  0.4176 -2.5626  0.6945
  552MOL0     H76128   7.649   2.375   3.792  2.3739  1.8338  1.0791
  552MOL0     H76129   7.528   2.327   3.913 -0.5513  1.3534 -1.1425
  552MOL0     H76130   7.727   2.364   4.080  4.2134  0.6285 -2.1175
  552MOL0     H76131   7.803   2.448   3.959  1.1761 -2.3648 -0.3068
  552MOL0     H76132   7.627   2.619   3.946 -2.0275  1.8337  0.8108
  552MOL0     H76133   7.494   2.520   3.994 -0.2150 -0.7857  2.2955
  552MOL0     H76134   7.673   2.736   4.346 -1.8240 -0.3843 -0.2616
  552MOL0     H76135   7.688   3.052   4.414 -0.2832 -0.4613  1.3606
  552MOL0     H76136   7.708   2.901   4.491 -0.6660 -1.0242  1.1768
  552MOL0     H76137   7.554   2.971   4.513 -0.1634 -0.2231  1.0937
  552MOL0     H76138   7.283   3.330   4.322  0.9266 -1.3992 -2.3614
  552MOL0     H76139   7.216   3.461   4.528 -0.3513  0.8041 -0.9880
  552MOL0     H76140   7.487   3.534   4.842  0.1583 -0.0271 -0.3479
  552MOL0     H76141   7.541   3.682   4.750 -1.9595  1.1316  1.9991
  552MOL0     H76142   7.280   3.650   4.899 -0.7612 -0.2223 -0.8679
  552MOL0     H76143   7.434   3.735   4.960  3.5274  1.4404 -2.9677
  552MOL0     H76144   7.263   3.885   4.875 -2.5893  0.6110 -1.7398
  552MOL0     H76145   7.252   3.791   4.725 -0.3703 -1.3116  0.0768
  552MOL0     H76146   7.455   3.880   4.649  0.1724 -0.9409  0.6361
  552MOL0     H76147   7.507   3.940   4.808  0.7799  1.0989  0.4384
  552MOL0     H76148   7.255   4.061   4.664 -0.4568 -1.1654  1.7253
  552MOL0     H76149   7.337   4.121   4.804 -0.0635  1.1228 -0.9081
  552MOL0     H76150   7.375   4.247   4.580  0.2683  1.0693  0.9109
  552MOL0     H76151   7.469   4.103   4.535  3.4559 -0.1332  0.9539
  552MOL0     H76152   7.642   4.248   4.608  0.6107  3.1696  0.4063
  552MOL0     H76153   7.607   4.126   4.724 -1.2758  0.4197 -0.6158
  552MOL0     H76154   7.501   4.285   4.879 -4.5421  1.7649 -1.5748
  552MOL0     H76155   7.507   4.413   4.770 -2.6810 -2.3439 -3.7298
  552MOL0     H76156   7.619   3.442   4.667 -0.2159  1.7679 -0.3502
  552MOL0     H76157   7.679   3.292   4.491  0.3264  1.1729 -2.1039
  552MOL0     H76158   7.350   2.964   4.045 -1.7470 -2.3638 -1.1727
  552MOL0     H76159   7.411   2.749   3.992 -0.4545 -0.7029  1.3700
  552MOL0     H76160   7.372   1.163   3.066 -1.7690 -0.4421 -1.9765
  552MOL0     H76161   7.302   0.945   3.105  0.2941  0.9186 -0.2826
  552MOL0     H76162   7.516   0.489   3.166 -0.4902 -0.2257 -0.4928
  552MOL0     H76163   7.460   0.251   3.213  2.0658  0.9581 -0.5935
  552MOL0     H76164   7.406   0.039   3.215  0.6156  2.4832  0.1588
  552MOL0     H76165   7.288   0.140   3.304 -0.0230  0.7210 -1.0737
  552MOL0     H76166   7.104  -0.048   3.246 -0.3970 -2.5422 -1.6623
  552MOL0     H76167   7.244  -0.096   3.347 -0.9497  0.4789  0.7041
  552MOL0     H76168   7.306  -0.112   3.055  1.6747 -1.0246  0.4695
  552MOL0     H76169   7.311  -0.245   3.167 -0.9365 -1.3183 -1.2488
  552MOL0     H76170   7.172  -0.334   3.014  1.8134 -0.1569  1.2281
  552MOL0     H76171   7.046  -0.219   3.030  0.3664 -0.7582 -1.4742
  552MOL0     H76172   6.937  -0.401   3.380  1.6621 -1.6072  1.1408
  552MOL0     H76173   7.154   0.289   2.903  1.5265 -1.1106 -0.7288
  552MOL0     H76174   7.081   0.482   2.824 -1.5166  2.0696  0.5550
  552MOL0     H76175   7.167   0.638   2.861  2.6576  0.9052  0.5058
  552MOL0     H76176   7.225   0.532   2.733 -0.5606 -0.9396  0.3132
  553MOL0     O76177  10.787  10.841   6.510 -0.3047 -0.2278  0.6512
  553MOL0     C76178  10.790  10.794   6.624 -0.0779 -0.5188  0.1643
  553MOL0     O76179  10.874  10.700   6.674 -0.6746  0.2023 -0.2410
  553MOL0     C76180  10.998  10.697   6.618  0.2207 -0.2484  0.1855
  553MOL0     C76181  11.115  10.724   6.691 -0.3095 -0.3821 -0.4685
  553MOL0     C76182  11.244  10.698   6.641  0.7168  0.1001 -1.0111
  553MOL0     C76183  11.261  10.637   6.516 -0.2523  0.4143  0.1617
  553MOL0     O76184  11.387  10.622   6.466  0.7153 -0.4950 -1.1495
  553MOL0     C76185  11.412  10.550   6.342  0.1786 -0.1788  0.2445
  553MOL0     C76186  11.558  10.514   6.326 -0.8604 -0.3969  0.2375
  553MOL0     C76187  11.575  10.401   6.222 -0.0131  0.4995  0.5335
  553MOL0     C76188  11.638  10.443   6.092 -0.3094 -0.5024 -0.1794
  553MOL0     C76189  11.793  10.500   6.091  0.0829 -0.8688  0.1623
  553MOL0     C76190  11.812  10.539   5.943  0.0483 -0.0659  0.5637
  553MOL0     C76191  11.946  10.563   5.886 -0.8889  0.0082 -0.0017
  553MOL0     C76192  12.036  10.662   5.965 -0.0340  0.2129 -0.5149
  553MOL0     N76193  11.958  10.753   6.053  0.8704 -0.4710  0.4714
  553MOL0     C76194  11.898  10.870   6.005 -0.2381 -0.0440 -1.0249
  553MOL0     C76195  11.880  10.944   6.113  0.6247  0.3525  0.5018
  553MOL0     C76196  11.828  11.088   6.119 -0.5260  0.0927  0.1997
  553MOL0     C76197  11.672  11.077   6.134 -0.4593 -0.6667 -0.3881
  553MOL0     C76198  11.602  11.220   6.132 -0.1898 -0.6482  0.0347
  553MOL0     C76199  11.450  11.231   6.120  0.0236  0.3251 -0.7586
  553MOL0     O76200  11.379  11.147   6.207 -0.0038  0.3487  0.3692
  553MOL0     C76201  11.322  11.025   6.177  0.1472 -0.1920 -0.1888
  553MOL0     C76202  11.355  10.956   6.061 -0.3591  0.3760  0.1292
  553MOL0     C76203  11.300  10.832   6.031 -0.5555 -0.8566  0.0815
  553MOL0     C76204  11.365  10.754   5.911 -0.4251  0.4054  0.2193
  553MOL0     C76205  11.183  10.795   6.109 -0.2913 -0.1707 -0.7118
  553MOL0     C76206  11.090  10.694   6.065 -0.2461 -0.3864 -1.2938
  553MOL0     O76207  10.968  10.697   6.121  0.8913 -0.3004  0.6168
  553MOL0     C76208  10.895  10.570   6.116  0.2965 -0.5031 -0.1172
  553MOL0     C76209  10.762  10.580   6.066  0.6419 -0.4317 -0.3803
  553MOL0     C76210  10.679  10.470   6.055  0.4349 -0.8139 -0.5278
  553MOL0     C76211  10.732  10.348   6.092 -1.3337  0.6562 -0.5894
  553MOL0     O76212  10.649  10.239   6.081  0.2334 -0.5413 -0.6123
  553MOL0     C76213  10.682  10.151   5.976  0.1249  0.5405  0.3751
  553MOL0     C76214  10.549  10.088   5.926  0.5207 -0.7646  0.5744
  553MOL0     C76215  10.433  10.190   5.907 -0.2933 -0.3064  0.1932
  553MOL0     C76216  10.462  10.298   5.810  0.0189 -0.2533  0.0710
  553MOL0     C76217  10.374  10.421   5.811  0.0157  0.1194 -0.4198
  553MOL0     C76218  10.434  10.545   5.748  0.9959 -0.5765  0.7671
  553MOL0     C76219  10.354  10.664   5.794 -0.3389 -0.7438 -0.1633
  553MOL0     C76220  10.401  10.783   5.719 -0.0888  0.3148  0.5187
  553MOL0    Cl76221  10.331  10.799   5.557  0.5442 -0.2309  0.4945
  553MOL0     C76222  10.867  10.335   6.120  0.5247  0.1153  0.0996
  553MOL0     C76223  10.950  10.449   6.144 -0.2836 -0.0319 -0.2297
  553MOL0     O76224  11.136  10.607   5.989 -1.0038 -0.0009  0.4334
  553MOL0     C76225  11.138  10.875   6.225 -0.1815  0.3956  0.3772
  553MOL0     C76226  11.210  10.987   6.252 -0.0992 -0.6127 -0.7545
  553MOL0     N76227  11.934  10.882   6.222  0.2151 -1.1710  0.9226
  553MOL0     N76228  11.998  10.784   6.181 -0.7862  0.0906  0.2991
  553MOL0     C76229  11.149  10.621   6.437  0.2811  0.6828 -0.5163
  553MOL0     C76230  11.025  10.652   6.492  0.1070 -0.4960  0.6201
  553MOL0     C76231  10.680  10.828   6.718 -0.4524  0.3963  0.2884
  553MOL0     C76232  10.566  10.909   6.664  0.1239 -0.0348 -1.0609
  553MOL0     C76233  10.476  10.954   6.756  0.5562  0.9942  0.4908
  553MOL0     C76234  10.469  10.911   6.890 -0.0834  0.7413 -0.5582
  553MOL0     O76235  10.378  10.966   6.981 -0.2210 -0.3549  0.0688
  553MOL0     C76236  10.286  11.063   6.924  1.0146 -0.1492  0.9597
  553MOL0     C76237  10.187  11.119   7.023  0.8642 -0.3358 -0.1086
  553MOL0     C76238  10.099  11.225   6.957 -0.3906  0.5374 -0.7506
  553MOL0     C76239   9.962  11.237   7.020  0.3267  0.6908 -0.2722
  553MOL0     C76240   9.893  11.345   6.949  0.2582 -0.5884 -1.3039
  553MOL0     C76241   9.834  11.437   6.896  0.4813  0.3285  0.8756
  553MOL0     C76242  10.558  10.818   6.945 -0.1248 -0.3955  0.5481
  553MOL0     C76243  10.669  10.782   6.858 -1.1429 -1.0131  0.0327
  553MOL0     C76244  10.768  10.703   6.927  0.3557  0.1317 -0.3791
  553MOL0     H76245  11.090  10.755   6.792  2.3969  2.9115 -0.6480
  553MOL0     H76246  11.329  10.704   6.708  1.3532  0.8330 -1.8672
  553MOL0     H76247  11.378  10.602   6.251  2.5853 -1.9162 -1.8037
  553MOL0     H76248  11.363  10.453   6.348 -0.9810  0.4616  1.4813
  553MOL0     H76249  11.614  10.608   6.312  1.5541 -1.4844  1.8825
  553MOL0     H76250  11.588  10.474   6.423 -0.2940  1.9633  1.1084
  553MOL0     H76251  11.628  10.311   6.253  2.6768 -1.8038 -7.9524
  553MOL0     H76252  11.474  10.363   6.209 -0.7712  2.3527  0.6389
  553MOL0     H76253  11.629  10.350   6.035 -0.9132 -2.0505  2.2952
  553MOL0     H76254  11.566  10.510   6.044 -1.2884  0.7291  2.7584
  553MOL0     H76255  11.866  10.423   6.114  2.1580  0.7219 -0.8068
  553MOL0     H76256  11.790  10.581   6.165  0.0779 -0.2544 -0.5023
  553MOL0     H76257  11.772  10.465   5.873  2.6974 -0.2363 -0.8866
  553MOL0     H76258  11.749  10.628   5.930 -1.9167 -1.4048  0.4790
  553MOL0     H76259  11.942  10.600   5.784 -1.7064  1.2094  0.4422
  553MOL0     H76260  11.999  10.472   5.854 -1.9207 -0.2277 -1.0968
  553MOL0     H76261  12.091  10.591   6.028 -1.4875  0.5964  1.2461
  553MOL0     H76262  12.106  10.715   5.900 -0.0274  3.0437  1.6305
  553MOL0     H76263  11.855  10.888   5.907 -1.9719  1.8564  0.0068
  553MOL0     H76264  11.842  11.144   6.026 -1.0053 -2.0913 -1.2455
  553MOL0     H76265  11.871  11.146   6.201 -1.0397 -0.9475  1.2347
  553MOL0     H76266  11.633  11.014   6.054 -0.7400  1.1896 -1.7673
  553MOL0     H76267  11.659  11.032   6.233 -0.9405 -0.1749 -0.2169
  553MOL0     H76268  11.627  11.284   6.218 -0.5113  3.8197 -2.8636
  553MOL0     H76269  11.639  11.273   6.043  0.4966 -0.1740  0.5890
  553MOL0     H76270  11.427  11.337   6.134  3.0655  1.2705 -1.9660
  553MOL0     H76271  11.414  11.212   6.018 -0.0761  1.1661 -0.8935
  553MOL0     H76272  11.424  10.990   5.984 -0.0562 -0.0373  0.2149
  553MOL0     H76273  11.401  10.658   5.950  1.2926  1.5122  1.4722
  553MOL0     H76274  11.454  10.794   5.863 -0.9197 -0.8764 -1.9350
  553MOL0     H76275  11.293  10.731   5.831 -0.0878 -1.6070  0.4287
  553MOL0     H76276  10.738  10.676   6.022  0.5008 -0.4085 -0.2508
  553MOL0     H76277  10.582  10.477   6.007  0.4499  0.1964 -0.4348
  553MOL0     H76278  10.735  10.193   5.891 -0.9553  1.1332 -0.0269
  553MOL0     H76279  10.739  10.067   6.017 -0.8483 -0.9424 -1.1388
  553MOL0     H76280  10.566  10.042   5.828  0.7061  0.8826 -0.2083
  553MOL0     H76281  10.519  10.012   5.998 -0.4129 -2.3649 -1.3823
  553MOL0     H76282  10.404  10.227   6.005  0.6434 -1.3557  0.8817
  553MOL0     H76283  10.343  10.137   5.875 -1.9729  2.2136  0.4713
  553MOL0     H76284  10.483  10.267   5.707 -0.4518  0.6611 -0.3086
  553MOL0     H76285  10.561  10.332   5.840 -0.3858  1.8016 -0.7882
  553MOL0     H76286  10.273  10.404   5.771 -1.2711  1.1905  2.1392
  553MOL0     H76287  10.365  10.450   5.916  1.1087  1.0714 -0.5795
  553MOL0     H76288  10.433  10.543   5.639  3.8907 -1.3860  0.6785
  553MOL0     H76289  10.542  10.550   5.760  1.5792 -2.6531 -2.4337
  553MOL0     H76290  10.375  10.679   5.901  2.7773  0.8220 -0.8655
  553MOL0     H76291  10.247  10.643   5.783 -0.9493  2.6680 -2.1515
  553MOL0     H76292  10.510  10.772   5.715  0.0442  0.8612  2.0340
  553MOL0     H76293  10.387  10.875   5.776 -0.6577  1.2909 -1.1281
  553MOL0     H76294  10.887  10.229   6.130 -2.2810 -0.4135  0.8259
  553MOL0     H76295  11.054  10.438   6.172 -0.8943  0.6671  2.6698
  553MOL0     H76296  11.056  10.842   6.288  0.5549 -0.4937  0.8907
  553MOL0     H76297  11.177  11.048   6.336  0.8734  1.3841 -1.7533
  553MOL0     H76298  11.166  10.583   6.337  5.4934  1.6530 -0.3031
  553MOL0     H76299  10.945  10.614   6.429  1.8117 -1.8229 -0.8220
  553MOL0     H76300  10.574  10.947   6.562 -1.0291  1.2364 -0.7080
  553MOL0     H76301  10.410  11.033   6.723 -1.3767  0.1224  2.0499
  553MOL0     H76302  10.330  11.150   6.873  2.3980 -0.2985  1.8515
  553MOL0     H76303  10.227  11.012   6.847  1.3894  0.6775  0.0939
  553MOL0     H76304  10.241  11.182   7.094 -0.5270  2.7424 -1.6115
  553MOL0     H76305  10.131  11.044   7.079 -0.2005  2.2353  2.5450
  553MOL0     H76306  10.145  11.324   6.955 -0.1389  0.5161  1.5966
  553MOL0     H76307  10.093  11.203   6.850 -2.0633  2.7886 -1.1960
  553MOL0     H76308   9.970  11.258   7.127  2.2507 -0.0488 -0.2248
  553MOL0     H76309   9.910  11.142   7.011 -1.5138  1.8390 -3.1741
  553MOL0     H76310   9.781  11.514   6.844 -3.1791 -1.7838  1.1604
  553MOL0     H76311  10.565  10.799   7.051 -1.6484 -1.9392  0.4133
  553MOL0     H76312  10.746  10.607   6.881 -1.1017  1.5533 -2.8354
  553MOL0     H76313  10.870  10.732   6.899  1.2176  0.2746  2.6060
  553MOL0     H76314  10.756  10.710   7.035 -1.9714 -0.9710 -0.5121
  554MOL0     O76315  10.695   0.778   9.383  0.1286 -0.6639  0.1921
  554MOL0     C76316  10.795   0.757   9.446  0.3870  0.3157  0.7111
  554MOL0     O76317  10.931   0.780   9.399 -0.0004 -0.1259 -0.9324
  554MOL0     C76318  10.955   0.786   9.266  0.7536  0.4243 -0.4084
  554MOL0     C76319  11.024   0.901   9.217  0.2307 -0.6850 -0.7893
  554MOL0     C76320  11.060   0.918   9.089 -0.4250 -0.0155 -0.1044
  554MOL0     C76321  11.044   0.809   8.996  0.2308 -0.6271  0.0152
  554MOL0     O76322  11.111   0.817   8.879 -0.2410 -0.6956  1.1695
  554MOL0     C76323  11.198   0.703   8.846 -0.2058 -0.0968 -0.5933
  554MOL0     C76324  11.320   0.704   8.941  0.0843 -0.0530 -0.1514
  554MOL0     C76325  11.423   0.591   8.911 -0.4056 -0.3162  0.0486
  554MOL0     C76326  11.363   0.450   8.926  0.2456  0.1006 -1.0123
  554MOL0     C76327  11.457   0.335   8.894  0.0301  0.0587  0.1383
  554MOL0     C76328  11.377   0.204   8.892  0.3503  0.6019  0.6204
  554MOL0     C76329  11.458   0.082   8.939  0.3971 -0.2727 -0.3775
  554MOL0     C76330  11.399  -0.056   8.954 -0.0196 -1.0065 -0.0199
  554MOL0     N76331  11.492  -0.166   8.973 -0.7695 -0.0446 -0.3649
  554MOL0     C76332  11.535  -0.252   8.886  0.0347  1.1522 -0.7760
  554MOL0     C76333  11.631  -0.320   8.948  0.1299 -0.3127  0.3305
  554MOL0     C76334  11.690  -0.436   8.877  0.7955  0.4341 -0.1355
  554MOL0     C76335  11.831  -0.409   8.835  0.4142  0.1543  0.1429
  554MOL0     C76336  11.861  -0.273   8.757  0.4638 -0.0736  0.6101
  554MOL0     C76337  11.776  -0.234   8.635  0.7438 -0.0337  0.9521
  554MOL0     O76338  11.824  -0.113   8.574 -0.2491 -0.6423  0.3173
  554MOL0     C76339  11.773  -0.069   8.457  0.7567  0.9002 -0.4621
  554MOL0     C76340  11.828   0.045   8.393 -0.0229  0.1078  0.0998
  554MOL0     C76341  11.782   0.095   8.267 -0.0557  0.2204 -0.2915
  554MOL0     C76342  11.868   0.210   8.219 -0.1590  0.4181  0.5164
  554MOL0     C76343  11.670   0.036   8.206  0.2767  1.1566 -0.2955
  554MOL0     C76344  11.607   0.084   8.078 -0.2675 -1.0173 -0.4700
  554MOL0     O76345  11.496   0.027   8.036  0.2263  0.5644  0.4362
  554MOL0     C76346  11.436   0.070   7.917 -0.4580  0.0356 -0.3337
  554MOL0     C76347  11.440  -0.018   7.810  0.3494 -0.6211 -0.5470
  554MOL0     C76348  11.375   0.017   7.693  0.5925  0.4449 -0.9196
  554MOL0     C76349  11.320   0.148   7.675  0.0807 -0.3891 -0.5406
  554MOL0     O76350  11.243   0.182   7.569  0.8751  0.4305 -0.4960
  554MOL0     C76351  11.259   0.318   7.514 -0.3391  0.2107 -0.1657
  554MOL0     C76352  11.128   0.395   7.529 -0.0109  0.3413 -1.1466
  554MOL0     C76353  11.125   0.547   7.493 -0.4770 -0.3724 -0.2503
  554MOL0     C76354  10.984   0.596   7.506 -0.5623  0.2700  0.6121
  554MOL0     C76355  10.965   0.740   7.457 -0.2437  0.0718 -0.3606
  554MOL0     C76356  10.948   0.760   7.303  0.4938  0.0905  0.3284
  554MOL0     C76357  11.012   0.888   7.254  0.4413  0.4315  0.3217
  554MOL0     C76358  11.000   0.903   7.102  0.3160  0.0859 -0.9640
  554MOL0    Cl76359  10.839   0.942   7.046 -0.2824  0.4323  0.0393
  554MOL0     C76360  11.329   0.238   7.782 -0.7068 -0.2322 -0.0379
  554MOL0     C76361  11.371   0.198   7.909  0.1839 -0.7794  0.2739
  554MOL0     O76362  11.670   0.171   8.018  0.0776 -0.0452  0.0387
  554MOL0     C76363  11.622  -0.079   8.261 -0.3263  0.3333 -0.4465
  554MOL0     C76364  11.663  -0.127   8.383  0.2492 -0.5108 -1.4815
  554MOL0     N76365  11.638  -0.289   9.082  0.3146 -0.7982  0.4035
  554MOL0     N76366  11.550  -0.196   9.095 -0.2678 -0.3443 -0.2467
  554MOL0     C76367  10.974   0.693   9.033  0.0106  0.2365 -1.2149
  554MOL0     C76368  10.922   0.690   9.167 -0.6856  0.5013 -0.2362
  554MOL0     C76369  10.774   0.766   9.591  0.8923 -0.3674  0.5313
  554MOL0     C76370  10.887   0.759   9.668 -0.1490 -0.4371 -0.4930
  554MOL0     C76371  10.881   0.773   9.806 -0.6244 -0.3406 -0.1581
  554MOL0     C76372  10.764   0.805   9.873  0.6076  0.3107 -0.3532
  554MOL0     O76373  10.772   0.824  10.011 -0.0081 -0.0867 -0.0950
  554MOL0     C76374  10.664   0.901  10.076 -1.2646 -0.0044 -0.2657
  554MOL0     C76375  10.718   0.984  10.201 -0.3713 -0.8733  0.9416
  554MOL0     C76376  10.862   1.046  10.181  0.0443 -0.0540 -0.4674
  554MOL0     C76377  10.898   1.163  10.274 -0.6427 -0.3846 -0.2079
  554MOL0     C76378  10.917   1.120  10.414  0.5892  0.4475 -0.0967
  554MOL0     C76379  10.940   1.076  10.518  0.1011 -0.2232 -0.6690
  554MOL0     C76380  10.647   0.814   9.799  1.0323 -0.1656  0.1987
  554MOL0     C76381  10.648   0.804   9.658  0.0293 -0.1594  1.1073
  554MOL0     C76382  10.514   0.815   9.587 -0.4012  0.5118 -0.2799
  554MOL0     H76383  11.038   0.987   9.282  0.8154  0.4282 -2.2892
  554MOL0     H76384  11.115   1.007   9.061 -0.8588  0.6804  1.1842
  554MOL0     H76385  11.238   0.720   8.746 -0.4853  0.9998 -0.5331
  554MOL0     H76386  11.144   0.609   8.855 -0.6330  0.0033 -1.9545
  554MOL0     H76387  11.366   0.803   8.935  0.4080  0.7364  6.8667
  554MOL0     H76388  11.286   0.704   9.045  0.2282  0.5990 -0.1020
  554MOL0     H76389  11.470   0.612   8.814 -0.3523  0.9591  0.3248
  554MOL0     H76390  11.504   0.586   8.985 -1.5860  0.4335  1.4560
  554MOL0     H76391  11.314   0.436   9.023  2.5873 -1.1458  0.0769
  554MOL0     H76392  11.280   0.448   8.854 -0.9202  0.6600  0.2513
  554MOL0     H76393  11.515   0.323   8.986  0.7484 -2.4505 -0.5399
  554MOL0     H76394  11.529   0.355   8.814  0.3545 -0.4472  0.2948
  554MOL0     H76395  11.290   0.209   8.958  1.5068 -0.0576  2.2618
  554MOL0     H76396  11.339   0.175   8.794 -2.2915 -0.2145  1.8023
  554MOL0     H76397  11.509   0.110   9.032 -1.2172 -1.4253  0.9046
  554MOL0     H76398  11.536   0.059   8.865 -0.9324 -2.2209 -1.2594
  554MOL0     H76399  11.329  -0.033   9.035 -0.3836  2.9956 -1.2742
  554MOL0     H76400  11.341  -0.071   8.862  0.7771 -3.1284 -0.2362
  554MOL0     H76401  11.494  -0.282   8.790 -1.3240  3.0460 -0.8284
  554MOL0     H76402  11.644  -0.455   8.779  3.4407  0.9425 -1.5789
  554MOL0     H76403  11.673  -0.521   8.943 -0.4657  1.6313  1.1275
  554MOL0     H76404  11.888  -0.406   8.929  2.6594 -1.8968 -1.0405
  554MOL0     H76405  11.877  -0.494   8.785 -1.6137 -0.9608  0.0669
  554MOL0     H76406  11.854  -0.197   8.836  2.5165  1.9574 -1.0068
  554MOL0     H76407  11.964  -0.276   8.719  1.1437 -0.5993  2.3988
  554MOL0     H76408  11.764  -0.318   8.566  3.1073 -0.2082  0.6924
  554MOL0     H76409  11.678  -0.211   8.680 -0.3723  1.0710 -1.8554
  554MOL0     H76410  11.918   0.090   8.434  1.3891  0.2909 -2.9321
  554MOL0     H76411  11.898   0.193   8.115 -2.8747  1.1852 -0.4768
  554MOL0     H76412  11.961   0.212   8.275  1.5911  1.5718 -2.2159
  554MOL0     H76413  11.806   0.300   8.223 -0.0990  0.6827 -2.1981
  554MOL0     H76414  11.500  -0.109   7.815  2.1837  0.5964  0.3688
  554MOL0     H76415  11.358  -0.058   7.616 -0.6008  3.9391 -4.3944
  554MOL0     H76416  11.345   0.370   7.556  0.5440  0.4337 -2.1339
  554MOL0     H76417  11.275   0.311   7.406  1.0405 -0.8954  0.0857
  554MOL0     H76418  11.059   0.353   7.455 -1.0475 -1.1568  0.5931
  554MOL0     H76419  11.083   0.371   7.626  0.5152 -0.2637 -1.0460
  554MOL0     H76420  11.172   0.553   7.394 -4.7267 -0.7048 -2.5419
  554MOL0     H76421  11.197   0.592   7.560  2.7502 -2.7715 -1.8232
  554MOL0     H76422  10.963   0.592   7.613  0.3787  0.6830  0.8274
  554MOL0     H76423  10.917   0.525   7.457  0.3723  1.7198 -3.0695
  554MOL0     H76424  10.875   0.771   7.511 -0.2000 -0.5707  0.0822
  554MOL0     H76425  11.045   0.802   7.498  0.3734  1.3757 -3.2945
  554MOL0     H76426  10.840   0.754   7.288  0.4058  1.2079  0.4559
  554MOL0     H76427  10.990   0.671   7.255 -1.3694 -0.5201 -0.2814
  554MOL0     H76428  11.119   0.888   7.279  0.7437  0.5926 -0.9031
  554MOL0     H76429  10.960   0.972   7.301 -3.4838 -0.6290 -1.7013
  554MOL0     H76430  11.038   0.812   7.056  0.2495 -0.0658 -0.7207
  554MOL0     H76431  11.055   0.995   7.080 -4.2142  2.5353 -3.7784
  554MOL0     H76432  11.278   0.333   7.769  1.0817  0.7686 -0.0989
  554MOL0     H76433  11.380   0.265   7.994  0.7933 -0.9961  0.3860
  554MOL0     H76434  11.546  -0.143   8.217  2.7081 -2.6996 -1.6646
  554MOL0     H76435  11.618  -0.215   8.428  0.2347  0.3921  0.3703
  554MOL0     H76436  10.959   0.602   8.975  2.0081 -2.8902  2.6678
  554MOL0     H76437  10.869   0.601   9.200 -2.9824  2.7527  2.6634
  554MOL0     H76438  10.984   0.735   9.627  0.7801 -2.4053  2.4872
  554MOL0     H76439  10.962   0.752   9.876 -0.7366  0.3027  0.1746
  554MOL0     H76440  10.621   0.976  10.010  3.3279  3.8210  0.5359
  554MOL0     H76441  10.582   0.840  10.115 -2.6556  2.8330  1.5447
  554MOL0     H76442  10.739   0.906  10.275 -3.0935 -1.2308  1.4517
  554MOL0     H76443  10.646   1.058  10.240 -1.4475  0.1206 -2.5979
  554MOL0     H76444  10.935   0.965  10.175  0.5872  0.4738 -1.1164
  554MOL0     H76445  10.871   1.085  10.079  3.1025 -2.7919 -1.4625
  554MOL0     H76446  10.818   1.237  10.282 -0.3836 -0.2886  2.7557
  554MOL0     H76447  10.987   1.214  10.236 -1.4571 -0.6476 -2.6098
  554MOL0     H76448  10.974   1.046  10.615  2.8656  1.0468 -1.1288
  554MOL0     H76449  10.552   0.841   9.844  0.0179  0.2260 -2.0309
  554MOL0     H76450  10.434   0.835   9.659 -0.6838  0.0739 -0.4674
  554MOL0     H76451  10.511   0.882   9.501  1.6693  4.1024  2.1618
  554MOL0     H76452  10.495   0.713   9.552 -0.2964  0.3693  0.0696
  555MOL0     O76453   9.937   3.610   3.421  0.9193  0.4371 -0.4929
  555MOL0     C76454  10.014   3.603   3.520  0.3302  0.6495 -0.4607
  555MOL0     O76455  10.145   3.635   3.517 -0.2001 -0.1691  0.1917
  555MOL0     C76456  10.183   3.717   3.417  0.5280  0.4434  0.8144
  555MOL0     C76457  10.198   3.679   3.285  0.2976 -0.7673  0.3119
  555MOL0     C76458  10.245   3.772   3.188 -0.1546  0.3312 -0.2532
  555MOL0     C76459  10.268   3.906   3.228  0.3459  1.7843  0.4041
  555MOL0     O76460  10.317   4.003   3.143  0.6212  0.0266 -0.6121
  555MOL0     C76461  10.384   3.943   3.031 -0.4583 -0.1922  0.7698
  555MOL0     C76462  10.447   4.046   2.931 -1.0744 -0.4784 -0.8090
  555MOL0     C76463  10.588   4.095   2.970  1.1296  0.2303  0.2218
  555MOL0     C76464  10.626   4.182   2.852  0.4413  0.6467  0.1419
  555MOL0     C76465  10.780   4.211   2.855 -0.4717  0.3684  0.7543
  555MOL0     C76466  10.804   4.306   2.971 -0.5718 -0.0948 -0.5477
  555MOL0     C76467  10.954   4.348   2.995  0.4350 -0.5248  0.2049
  555MOL0     C76468  10.950   4.429   3.122  0.6900 -0.1823 -0.1915
  555MOL0     N76469  11.087   4.438   3.177 -0.2788 -0.1581  0.8776
  555MOL0     C76470  11.198   4.469   3.099  0.6949 -1.1250  0.1467
  555MOL0     C76471  11.310   4.433   3.174 -0.3949 -0.0091 -0.3757
  555MOL0     C76472  11.455   4.449   3.152 -0.1043  0.0377 -0.2402
  555MOL0     C76473  11.507   4.368   3.036 -0.2799 -0.3786 -0.2543
  555MOL0     C76474  11.541   4.225   3.100  0.5233 -0.1477  0.3487
  555MOL0     C76475  11.608   4.127   3.005  0.8269  0.2015 -0.1422
  555MOL0     O76476  11.649   4.011   3.086  0.1896 -0.6498  0.9829
  555MOL0     C76477  11.645   3.883   3.033  0.7228 -0.0028  0.1142
  555MOL0     C76478  11.630   3.776   3.118 -1.4013  0.1586 -0.2196
  555MOL0     C76479  11.632   3.644   3.075  0.7549 -0.0484  0.9161
  555MOL0     C76480  11.634   3.535   3.184 -0.7154 -0.1846 -0.5764
  555MOL0     C76481  11.663   3.615   2.936 -0.0657  0.9721 -0.6996
  555MOL0     C76482  11.688   3.483   2.875 -1.0584  0.0954  0.6396
  555MOL0     O76483  11.686   3.371   2.954 -0.3014  0.1340 -0.2816
  555MOL0     C76484  11.660   3.243   2.892  0.5473  0.3559  0.4517
  555MOL0     C76485  11.553   3.158   2.936  0.5962  0.0848 -0.2271
  555MOL0     C76486  11.496   3.059   2.861 -0.1675  0.5679 -0.4486
  555MOL0     C76487  11.556   3.028   2.736 -0.9584 -0.3896 -1.0934
  555MOL0     O76488  11.509   2.930   2.652 -0.3165 -0.2270  0.3005
  555MOL0     C76489  11.599   2.833   2.594  0.0116 -0.5177 -1.0218
  555MOL0     C76490  11.545   2.773   2.471  0.7230  0.3304  0.0741
  555MOL0     C76491  11.403   2.728   2.506 -0.2740 -0.6543 -0.8305
  555MOL0     C76492  11.372   2.600   2.424  0.2865  0.1376  0.3717
  555MOL0     C76493  11.254   2.529   2.484 -0.1202 -0.9505  0.2663
  555MOL0     C76494  11.245   2.388   2.429 -0.9025  0.2330 -0.0166
  555MOL0     C76495  11.098   2.339   2.434  0.9747 -0.7943 -0.0051
  555MOL0     C76496  11.084   2.195   2.386 -0.7875 -0.8234 -0.9800
  555MOL0    Cl76497  11.149   2.089   2.508 -0.0419  0.1383  0.1832
  555MOL0     C76498  11.658   3.114   2.681 -1.1647 -0.6483  0.0898
  555MOL0     C76499  11.710   3.213   2.767  0.4785 -0.8485 -0.3055
  555MOL0     O76500  11.669   3.483   2.756  0.2281  0.8863  0.1239
  555MOL0     C76501  11.672   3.726   2.854  0.1382 -0.0478  0.1862
  555MOL0     C76502  11.667   3.854   2.895 -0.4026 -0.8164 -0.6547
  555MOL0     N76503  11.249   4.385   3.295  0.1523  0.1220 -0.1559
  555MOL0     N76504  11.121   4.393   3.298 -0.0566  0.2231 -0.4278
  555MOL0     C76505  10.251   3.938   3.366  1.0057 -0.6002 -0.2630
  555MOL0     C76506  10.216   3.843   3.461  1.2269  0.0897  0.8282
  555MOL0     C76507   9.962   3.554   3.654  0.5986 -0.5734 -0.0108
  555MOL0     C76508   9.954   3.640   3.761  1.0853  0.7335 -0.2314
  555MOL0     C76509   9.869   3.615   3.871  1.0125  0.0785  1.0983
  555MOL0     C76510   9.782   3.503   3.862 -0.2922 -0.9273 -0.6355
  555MOL0     O76511   9.679   3.490   3.954  0.1031 -0.0883  0.2462
  555MOL0     C76512   9.723   3.407   4.065  0.4433 -0.1527 -0.0169
  555MOL0     C76513   9.614   3.360   4.155  0.6671  0.5670  1.0742
  555MOL0     C76514   9.538   3.472   4.225 -0.3646 -0.3961 -0.9143
  555MOL0     C76515   9.609   3.536   4.343  0.3581 -0.5863 -0.6619
  555MOL0     C76516   9.511   3.625   4.417  0.2099  1.0512  0.3962
  555MOL0     C76517   9.435   3.711   4.466 -0.7401  0.2532 -0.7883
  555MOL0     C76518   9.798   3.411   3.758 -0.2662 -0.6410 -0.0013
  555MOL0     C76519   9.884   3.436   3.647 -0.2181  0.2878  0.3933
  555MOL0     C76520   9.880   3.335   3.538 -0.2280 -0.3285  0.5952
  555MOL0     H76521  10.170   3.575   3.270  1.8682 -1.4876  1.9345
  555MOL0     H76522  10.272   3.726   3.093  2.4805 -1.6834  1.3145
  555MOL0     H76523  10.321   3.883   2.966 -0.2974  0.5745 -0.1181
  555MOL0     H76524  10.464   3.881   3.074  0.0400  0.8779  1.4460
  555MOL0     H76525  10.463   3.999   2.834 -0.7722  2.2854 -2.1818
  555MOL0     H76526  10.383   4.134   2.920 -0.4321  1.0689  4.8555
  555MOL0     H76527  10.583   4.137   3.071  2.1899 -2.3642  1.4375
  555MOL0     H76528  10.654   4.008   2.973 -0.4530 -1.0103  0.9676
  555MOL0     H76529  10.627   4.136   2.753  2.6438  0.6586  0.1017
  555MOL0     H76530  10.555   4.265   2.857 -1.7070 -1.1804  1.2998
  555MOL0     H76531  10.807   4.253   2.758 -1.7008 -0.5122  0.0134
  555MOL0     H76532  10.838   4.119   2.866  0.4278  0.3687 -2.8922
  555MOL0     H76533  10.740   4.394   2.961  1.0441  1.2055  0.0714
  555MOL0     H76534  10.763   4.257   3.060 -1.0962  2.1189  0.5112
  555MOL0     H76535  10.994   4.414   2.917 -0.8324  0.0832  0.0383
  555MOL0     H76536  11.015   4.258   3.005 -3.5740 -3.3026  2.4009
  555MOL0     H76537  10.917   4.532   3.104  0.3637 -0.2519 -0.0007
  555MOL0     H76538  10.896   4.382   3.205 -0.6138  1.4123 -0.0812
  555MOL0     H76539  11.200   4.516   3.001  1.3600 -0.8908  0.2659
  555MOL0     H76540  11.508   4.421   3.244  0.7542  2.5634  0.1267
  555MOL0     H76541  11.483   4.555   3.145  0.5387 -0.2337 -2.9288
  555MOL0     H76542  11.435   4.343   2.958  1.7520 -0.2021 -2.3043
  555MOL0     H76543  11.596   4.419   2.998 -1.2862  1.7697  0.1577
  555MOL0     H76544  11.612   4.227   3.183  0.7661 -1.2026  0.1851
  555MOL0     H76545  11.447   4.182   3.133 -1.2010 -0.2644 -3.9789
  555MOL0     H76546  11.527   4.098   2.938 -0.9414  0.4746  1.7467
  555MOL0     H76547  11.688   4.180   2.953  0.3980 -0.2598 -1.2878
  555MOL0     H76548  11.620   3.808   3.221 -0.5249  5.4033 -1.4604
  555MOL0     H76549  11.728   3.481   3.198 -1.9684 -3.1246 -2.5671
  555MOL0     H76550  11.571   3.451   3.157 -0.9021  0.6789 -3.2115
  555MOL0     H76551  11.624   3.586   3.280  0.0312  0.6910 -0.9463
  555MOL0     H76552  11.516   3.169   3.037  0.9611  0.6403 -0.1491
  555MOL0     H76553  11.407   3.002   2.886 -0.5221  1.5545  0.6190
  555MOL0     H76554  11.696   2.877   2.569  0.3577  0.7760  2.1903
  555MOL0     H76555  11.621   2.756   2.668  1.8672  1.8399  1.0303
  555MOL0     H76556  11.559   2.834   2.382 -2.5529  0.5852 -0.3736
  555MOL0     H76557  11.600   2.681   2.447  0.7294  0.3679 -0.0568
  555MOL0     H76558  11.329   2.806   2.490  1.1405  1.0481  0.6030
  555MOL0     H76559  11.407   2.699   2.611 -2.6587  4.1408  0.8628
  555MOL0     H76560  11.458   2.533   2.415  1.2484  1.3622  0.2065
  555MOL0     H76561  11.356   2.644   2.325  0.8056  5.0901  2.2374
  555MOL0     H76562  11.259   2.548   2.591  0.5812  0.1802  0.0497
  555MOL0     H76563  11.167   2.575   2.436 -2.7945 -4.3188  1.4685
  555MOL0     H76564  11.307   2.318   2.485 -3.3776 -2.3526 -0.2978
  555MOL0     H76565  11.290   2.388   2.329 -1.7933  2.3964 -0.4881
  555MOL0     H76566  11.033   2.403   2.374  0.5448 -0.0238  1.2444
  555MOL0     H76567  11.071   2.340   2.540 -1.3233 -0.4933 -0.5502
  555MOL0     H76568  11.133   2.193   2.288 -1.3306  2.3261 -1.4006
  555MOL0     H76569  10.978   2.168   2.375 -1.6844  0.6591  2.6267
  555MOL0     H76570  11.700   3.083   2.586  0.5950 -1.7720  1.1573
  555MOL0     H76571  11.794   3.277   2.743  0.5533 -0.9450 -0.3041
  555MOL0     H76572  11.699   3.714   2.750 -2.1827 -0.2187 -0.4390
  555MOL0     H76573  11.690   3.930   2.820 -2.1616  0.9811  0.5179
  555MOL0     H76574  10.285   4.036   3.398 -3.1481  1.0722 -0.2900
  555MOL0     H76575  10.208   3.868   3.566 -3.8249  0.3301  0.6295
  555MOL0     H76576  10.015   3.730   3.761  1.6940  0.3365  0.9520
  555MOL0     H76577   9.866   3.688   3.952 -0.9840 -1.0844  2.1339
  555MOL0     H76578   9.777   3.316   4.037  0.0574 -0.0030 -1.3067
  555MOL0     H76579   9.789   3.475   4.119 -2.4692  2.1618  0.8553
  555MOL0     H76580   9.659   3.302   4.236  1.2119  0.7341  0.8931
  555MOL0     H76581   9.543   3.295   4.104  4.5057 -3.0727 -0.1949
  555MOL0     H76582   9.514   3.552   4.154 -2.8004  2.0003  2.3064
  555MOL0     H76583   9.444   3.424   4.254 -0.8228  1.4579  0.9042
  555MOL0     H76584   9.677   3.600   4.287  0.6155  0.9345  1.3023
  555MOL0     H76585   9.657   3.465   4.411  2.3444  1.4576  0.1702
  555MOL0     H76586   9.365   3.782   4.505 -0.5854 -0.1149  0.1885
  555MOL0     H76587   9.730   3.327   3.769 -0.5015 -0.4048  0.3826
  555MOL0     H76588   9.797   3.372   3.478 -1.4993  2.3278  3.6566
  555MOL0     H76589   9.977   3.338   3.487  0.2182 -2.1043  1.2567
  555MOL0     H76590   9.864   3.233   3.576  1.1764 -1.0567 -0.6657
  556MOL0     O76591   3.232   6.274   8.717  0.1014  0.3843 -0.1500
  556MOL0     C76592   3.125   6.236   8.665 -0.4999 -0.1153 -0.1268
  556MOL0     O76593   3.114   6.145   8.564 -0.7076  0.4511 -0.1618
  556MOL0     C76594   3.243   6.106   8.522 -0.4845  1.1554  0.2302
  556MOL0     C76595   3.300   6.166   8.413  0.6601  1.1029 -0.6782
  556MOL0     C76596   3.423   6.120   8.352  0.4276 -0.6830  0.4607
  556MOL0     C76597   3.500   6.013   8.409 -0.2925 -0.3333 -0.7195
  556MOL0     O76598   3.609   5.967   8.341  0.7084  0.3445  0.0606
  556MOL0     C76599   3.689   5.851   8.392  1.1525 -0.7070  0.0873
  556MOL0     C76600   3.760   5.785   8.274 -0.3724  0.0844  0.0258
  556MOL0     C76601   3.660   5.737   8.158  0.0901  0.0560 -0.6312
  556MOL0     C76602   3.536   5.649   8.188 -0.1997  0.2204  0.1527
  556MOL0     C76603   3.457   5.635   8.053 -0.0487  0.0792  0.6177
  556MOL0     C76604   3.379   5.748   8.011 -0.9952  0.1711 -0.1099
  556MOL0     C76605   3.388   5.784   7.851 -0.0019  0.8346  0.9684
  556MOL0     C76606   3.302   5.914   7.819 -0.2260 -1.0029 -0.3518
  556MOL0     N76607   3.300   5.979   7.683  0.4639  0.7426 -0.7955
  556MOL0     C76608   3.236   6.094   7.668  0.3519 -0.1547 -0.3012
  556MOL0     C76609   3.296   6.163   7.570 -0.6961  0.2886 -0.0235
  556MOL0     C76610   3.258   6.303   7.536  0.5978  0.7106  0.0965
  556MOL0     C76611   3.351   6.411   7.580 -0.0611  0.3091  0.1224
  556MOL0     C76612   3.284   6.546   7.564  0.0252 -0.2023 -0.3481
  556MOL0     C76613   3.382   6.658   7.593  0.6673 -0.6717 -0.1701
  556MOL0     O76614   3.291   6.755   7.637 -0.0622  0.0665 -0.6015
  556MOL0     C76615   3.336   6.882   7.653 -0.4512 -0.1006 -0.1291
  556MOL0     C76616   3.470   6.928   7.629  0.8845  0.0638 -0.1573
  556MOL0     C76617   3.497   7.063   7.611 -0.4280 -0.1559  0.0068
  556MOL0     C76618   3.637   7.094   7.573  0.7046 -0.2785  0.4122
  556MOL0     C76619   3.409   7.163   7.645 -0.8986  0.3197 -0.3174
  556MOL0     C76620   3.441   7.309   7.638 -0.3116  0.7140  0.3929
  556MOL0     O76621   3.573   7.341   7.669  0.4045  0.2138 -0.2451
  556MOL0     C76622   3.601   7.476   7.678 -0.3462  0.1178 -0.9908
  556MOL0     C76623   3.553   7.553   7.783  0.0344 -1.3800 -1.3113
  556MOL0     C76624   3.579   7.687   7.798  0.4240  0.0653  0.1002
  556MOL0     C76625   3.658   7.751   7.702  0.4299  0.0881  0.9129
  556MOL0     O76626   3.682   7.886   7.725  0.5116 -0.1239 -0.2133
  556MOL0     C76627   3.727   7.963   7.605  0.3620  0.9765  0.2249
  556MOL0     C76628   3.707   8.111   7.644  0.2274  0.2256  0.5889
  556MOL0     C76629   3.559   8.162   7.641  0.1151  0.0352  0.1767
  556MOL0     C76630   3.500   8.182   7.782 -0.8128 -0.6387 -0.0729
  556MOL0     C76631   3.383   8.270   7.773  0.4071  0.5583  0.4131
  556MOL0     C76632   3.250   8.197   7.739 -0.3945 -0.1869 -0.3269
  556MOL0     C76633   3.145   8.309   7.773  0.0629 -0.1828 -0.8582
  556MOL0     C76634   3.005   8.281   7.731 -0.0246 -0.4296 -1.2593
  556MOL0    Cl76635   2.981   8.285   7.555  0.5625 -0.2064 -0.4357
  556MOL0     C76636   3.705   7.681   7.588 -0.5053  0.6441  0.3459
  556MOL0     C76637   3.676   7.535   7.576 -0.2966 -0.0120  0.6934
  556MOL0     O76638   3.360   7.388   7.596 -0.3262  0.2344 -0.1469
  556MOL0     C76639   3.272   7.127   7.676 -0.2835  0.7580 -0.3115
  556MOL0     C76640   3.236   6.986   7.672 -0.8519  0.4715  0.0141
  556MOL0     N76641   3.413   6.089   7.533  0.0124  0.0383 -0.2949
  556MOL0     N76642   3.408   5.986   7.612 -0.4393  0.0759  0.1644
  556MOL0     C76643   3.435   5.954   8.522 -0.7358  0.1255 -0.5180
  556MOL0     C76644   3.316   5.998   8.575  0.2946  0.5695 -0.2953
  556MOL0     C76645   3.003   6.295   8.720  0.9112  0.3580 -0.4933
  556MOL0     C76646   3.005   6.412   8.808 -0.2916 -0.3714 -0.4498
  556MOL0     C76647   2.894   6.475   8.856  0.3851 -0.1350  0.5574
  556MOL0     C76648   2.775   6.424   8.829 -0.3585  0.9434 -0.6761
  556MOL0     O76649   2.663   6.476   8.892  1.0062  0.2428  0.6092
  556MOL0     C76650   2.635   6.424   9.024  1.1399  0.0761  0.0158
  556MOL0     C76651   2.740   6.457   9.131 -0.2694 -0.0139  1.0886
  556MOL0     C76652   2.689   6.419   9.274  0.7260  0.4608  0.0591
  556MOL0     C76653   2.678   6.271   9.289 -0.4155  0.1157  0.5129
  556MOL0     C76654   2.687   6.221   9.428 -0.9503  0.1997 -0.4371
  556MOL0     C76655   2.695   6.175   9.538 -0.2441  0.9349 -0.1832
  556MOL0     C76656   2.769   6.318   8.746  0.4833  0.5891 -0.2724
  556MOL0     C76657   2.871   6.245   8.691 -0.4747  0.1726  0.0766
  556MOL0     C76658   2.831   6.113   8.622  0.4636  0.0236 -0.8948
  556MOL0     H76659   3.244   6.252   8.378  0.7565  1.3688 -0.1890
  556MOL0     H76660   3.464   6.159   8.259 -0.4518 -1.7921 -0.4088
  556MOL0     H76661   3.620   5.773   8.426  0.4955 -0.2273 -0.1116
  556MOL0     H76662   3.774   5.881   8.453  0.3784  3.2562 -0.4873
  556MOL0     H76663   3.829   5.853   8.223  0.5905 -2.1667 -1.8598
  556MOL0     H76664   3.821   5.703   8.313  0.1796 -0.0260 -1.0323
  556MOL0     H76665   3.636   5.833   8.110  0.1375 -0.3334 -1.4479
  556MOL0     H76666   3.716   5.691   8.077 -0.9406 -0.3783 -1.1187
  556MOL0     H76667   3.573   5.551   8.218 -0.2535  0.4216  0.8940
  556MOL0     H76668   3.485   5.687   8.276  2.3066  0.4336  1.6160
  556MOL0     H76669   3.388   5.551   8.070  0.9837 -0.3660  3.1304
  556MOL0     H76670   3.527   5.611   7.973 -1.7663  2.2811 -1.6994
  556MOL0     H76671   3.282   5.736   8.061 -0.6087  0.7502  0.8172
  556MOL0     H76672   3.420   5.837   8.060 -2.9609  0.2933  1.4379
  556MOL0     H76673   3.343   5.697   7.803 -2.2519  0.9786  2.6817
  556MOL0     H76674   3.489   5.809   7.817  1.0440 -3.2905  0.5136
  556MOL0     H76675   3.196   5.894   7.840 -0.0216 -1.1549  0.5619
  556MOL0     H76676   3.334   5.993   7.887  0.1696 -2.8667  1.7194
  556MOL0     H76677   3.141   6.112   7.717  0.7330  2.0204 -0.2582
  556MOL0     H76678   3.159   6.331   7.571  2.0321  3.2332  2.4542
  556MOL0     H76679   3.245   6.313   7.428  0.6932  0.5992  0.0741
  556MOL0     H76680   3.376   6.405   7.687 -1.9715 -0.7265  0.5586
  556MOL0     H76681   3.440   6.412   7.516  1.2174  0.8050  1.8292
  556MOL0     H76682   3.260   6.561   7.458  2.9679 -0.0448 -1.0799
  556MOL0     H76683   3.192   6.556   7.622  0.8988  3.9473  0.6174
  556MOL0     H76684   3.459   6.633   7.666 -0.6256  0.3017  1.5823
  556MOL0     H76685   3.447   6.673   7.506  4.6149  1.8515  2.8828
  556MOL0     H76686   3.552   6.857   7.633  1.3610  0.6569  1.6992
  556MOL0     H76687   3.639   7.168   7.493  1.2714 -1.2544 -0.4908
  556MOL0     H76688   3.668   7.004   7.519 -3.0650 -0.5374 -1.6286
  556MOL0     H76689   3.708   7.123   7.652  0.8886 -2.0542  0.9472
  556MOL0     H76690   3.493   7.495   7.853 -3.3599  0.7856 -2.1374
  556MOL0     H76691   3.549   7.744   7.885  4.1599  0.3637  1.3585
  556MOL0     H76692   3.834   7.960   7.583 -0.1293 -3.2118 -2.7319
  556MOL0     H76693   3.671   7.942   7.513  1.0922 -0.1531  0.0115
  556MOL0     H76694   3.755   8.131   7.740  0.4538  0.4718  0.4259
  556MOL0     H76695   3.767   8.173   7.577 -3.6357  2.5753 -1.0470
  556MOL0     H76696   3.492   8.102   7.579  0.4425  0.9264 -1.0712
  556MOL0     H76697   3.567   8.259   7.592 -1.0100 -0.6163 -1.3558
  556MOL0     H76698   3.577   8.226   7.846 -1.9836 -0.2150  1.0634
  556MOL0     H76699   3.473   8.090   7.835 -1.2732  0.2212  1.2226
  556MOL0     H76700   3.371   8.318   7.871  0.5344 -1.0619  1.2732
  556MOL0     H76701   3.397   8.335   7.686  3.8327 -2.9436 -1.9730
  556MOL0     H76702   3.238   8.098   7.786  1.4201 -0.7047 -0.8774
  556MOL0     H76703   3.251   8.176   7.632 -2.4204 -1.5562 -0.1372
  556MOL0     H76704   3.177   8.403   7.728  1.6595 -1.1294 -1.8084
  556MOL0     H76705   3.144   8.319   7.881  1.3957  1.4250 -0.9615
  556MOL0     H76706   2.939   8.360   7.767 -1.2679 -2.9361  2.5481
  556MOL0     H76707   2.977   8.187   7.779  3.9690 -1.0373  0.3089
  556MOL0     H76708   3.764   7.737   7.516 -0.2652 -2.3940 -2.0486
  556MOL0     H76709   3.697   7.493   7.478 -3.9969  1.2359 -0.8161
  556MOL0     H76710   3.205   7.205   7.707 -1.5208 -0.5154  0.3026
  556MOL0     H76711   3.133   6.958   7.691 -0.9942  0.5762 -0.5820
  556MOL0     H76712   3.481   5.878   8.585 -0.5587  0.3255 -0.4045
  556MOL0     H76713   3.291   5.944   8.666  3.3088 -3.7529 -1.6978
  556MOL0     H76714   3.107   6.445   8.824 -1.5335  3.7474  0.0332
  556MOL0     H76715   2.902   6.561   8.921 -0.6248 -0.4066  1.0635
  556MOL0     H76716   2.533   6.461   9.036  1.3626  0.6511  0.1502
  556MOL0     H76717   2.634   6.315   9.026 -1.1267  0.0734  0.8967
  556MOL0     H76718   2.769   6.563   9.134  1.0703 -0.3577  0.7741
  556MOL0     H76719   2.826   6.393   9.112 -0.2383  0.8583 -2.5328
  556MOL0     H76720   2.767   6.458   9.339 -0.1412 -1.4524  2.4094
  556MOL0     H76721   2.596   6.466   9.310  0.5637 -2.2375  3.7229
  556MOL0     H76722   2.747   6.220   9.220  0.4784  0.1037  1.3874
  556MOL0     H76723   2.580   6.245   9.249  0.4857  1.2508 -2.6529
  556MOL0     H76724   2.714   6.132   9.634  1.9479  0.3867 -0.8081
  556MOL0     H76725   2.671   6.284   8.714 -0.1600  2.5720 -0.5720
  556MOL0     H76726   2.915   6.044   8.631  1.9649  2.0401  2.5289
  556MOL0     H76727   2.741   6.070   8.667 -0.9149  0.3896 -3.1486
  556MOL0     H76728   2.803   6.131   8.518  2.1002  1.0811 -1.1895
  557MOL0     O76729  10.266   3.418   8.472 -0.4427 -0.5136 -0.1944
  557MOL0     C76730  10.307   3.526   8.515 -0.4489 -0.9249  0.2251
  557MOL0     O76731  10.439   3.567   8.541 -0.0645 -0.3496 -0.3664
  557MOL0     C76732  10.554   3.501   8.504 -0.2757  0.0904  0.0126
  557MOL0     C76733  10.682   3.557   8.527  0.4583  0.0369 -0.9356
  557MOL0     C76734  10.797   3.506   8.484  0.2745  0.4514 -0.1155
  557MOL0     C76735  10.807   3.376   8.423 -0.4344 -0.8118 -0.4237
  557MOL0     O76736  10.923   3.319   8.393  0.1684 -0.3250  0.2731
  557MOL0     C76737  11.043   3.380   8.448 -0.9483  0.0722 -0.1348
  557MOL0     C76738  11.161   3.296   8.414  0.8104  0.1210 -0.2758
  557MOL0     C76739  11.165   3.150   8.474  0.0538  0.2779  1.0197
  557MOL0     C76740  11.222   3.151   8.620  1.1931 -0.2580 -0.5297
  557MOL0     C76741  11.273   3.022   8.672 -0.7772  0.4384 -0.3631
  557MOL0     C76742  11.313   3.037   8.817  0.3222 -0.0638  0.6547
  557MOL0     C76743  11.350   2.914   8.887 -0.4505 -0.5717 -0.3645
  557MOL0     C76744  11.360   2.927   9.046  0.9546  0.8494 -0.2081
  557MOL0     N76745  11.240   2.867   9.106  0.6474 -0.2943  0.6240
  557MOL0     C76746  11.222   2.728   9.121 -0.2565 -0.9612  0.1546
  557MOL0     C76747  11.096   2.723   9.181 -0.1186  0.5155  0.5315
  557MOL0     C76748  11.030   2.599   9.228  0.4279 -0.6283  0.8049
  557MOL0     C76749  10.965   2.511   9.132  0.6540  1.3527  0.7262
  557MOL0     C76750  11.051   2.483   9.011 -0.8298  0.1503 -0.5251
  557MOL0     C76751  11.001   2.358   8.934  0.4839 -0.3079 -0.6660
  557MOL0     O76752  10.874   2.376   8.875 -0.0737  0.3272  0.7994
  557MOL0     C76753  10.830   2.272   8.795  0.4176  0.4992 -0.4015
  557MOL0     C76754  10.896   2.157   8.753 -0.3732 -0.3862  0.9946
  557MOL0     C76755  10.845   2.067   8.658  0.2046  0.0712 -0.7165
  557MOL0     C76756  10.937   1.951   8.609  0.4864  0.5205  0.6264
  557MOL0     C76757  10.712   2.095   8.606  0.0189 -0.6531 -0.0084
  557MOL0     C76758  10.641   2.019   8.506  0.2062 -0.1051 -0.8459
  557MOL0     O76759  10.550   2.089   8.435 -0.1686 -0.3875 -0.5257
  557MOL0     C76760  10.470   2.028   8.340  0.4028 -0.0125 -0.9182
  557MOL0     C76761  10.521   1.977   8.222 -0.8779 -0.3891 -0.1190
  557MOL0     C76762  10.445   1.931   8.121  0.7003  0.5646 -0.9835
  557MOL0     C76763  10.306   1.933   8.142  0.4852 -0.1666 -0.0093
  557MOL0     O76764  10.214   1.894   8.050  0.3244  0.3642 -0.2109
  557MOL0     C76765  10.106   1.987   8.014 -0.0790  0.9787 -1.1503
  557MOL0     C76766  10.022   1.940   7.901  0.5668  0.1006  0.3265
  557MOL0     C76767   9.926   1.827   7.953 -0.5411  1.6557  0.3135
  557MOL0     C76768   9.840   1.776   7.838  0.0519 -0.1879 -0.2596
  557MOL0     C76769   9.759   1.668   7.886  0.1423 -0.1662  0.9279
  557MOL0     C76770   9.724   1.574   7.773 -0.2502  0.1835  0.4153
  557MOL0     C76771   9.653   1.448   7.818  0.5961  1.4831  0.6283
  557MOL0     C76772   9.616   1.358   7.702 -1.0230  1.0793  0.0484
  557MOL0    Cl76773   9.444   1.380   7.652 -0.0547 -0.1751  0.2493
  557MOL0     C76774  10.249   1.984   8.262 -0.1562  0.1755  1.0370
  557MOL0     C76775  10.330   2.044   8.352  1.0672 -0.6911 -0.0538
  557MOL0     O76776  10.683   1.908   8.488  0.4004  0.0055  0.6956
  557MOL0     C76777  10.649   2.219   8.646 -1.4565  0.5051  0.0999
  557MOL0     C76778  10.702   2.307   8.738 -0.7214  0.5349 -0.5125
  557MOL0     N76779  11.043   2.850   9.194 -0.2001 -0.1352  0.2576
  557MOL0     N76780  11.131   2.939   9.145  0.3383 -0.6551  0.2122
  557MOL0     C76781  10.688   3.310   8.412 -1.0867 -0.8645  1.0983
  557MOL0     C76782  10.567   3.371   8.438  1.0675  0.4477  0.2450
  557MOL0     C76783  10.206   3.617   8.565 -0.4068 -0.0805  0.7804
  557MOL0     C76784  10.236   3.711   8.662  0.2094 -0.0253 -0.5770
  557MOL0     C76785  10.148   3.804   8.708  0.0659 -0.9786  1.0860
  557MOL0     C76786  10.027   3.820   8.651  0.3220  0.5233  0.1732
  557MOL0     O76787   9.948   3.919   8.701  0.2202  0.1195 -0.4214
  557MOL0     C76788   9.864   3.874   8.809 -0.5538  0.0274 -0.0644
  557MOL0     C76789   9.724   3.924   8.804 -0.5406 -1.4473 -0.5272
  557MOL0     C76790   9.641   3.895   8.927 -0.1299  0.7229 -0.0276
  557MOL0     C76791   9.497   3.937   8.900 -0.5375 -0.3538 -0.4238
  557MOL0     C76792   9.409   3.892   9.014 -0.8167  0.6010  0.0220
  557MOL0     C76793   9.334   3.883   9.116  0.0480 -0.8070 -0.3015
  557MOL0     C76794   9.988   3.731   8.552 -0.5127 -0.4670 -0.3660
  557MOL0     C76795  10.076   3.631   8.502 -1.0010  0.1673 -0.5956
  557MOL0     C76796  10.033   3.546   8.388 -0.2644  0.8382 -0.1977
  557MOL0     H76797  10.675   3.655   8.573 -0.7052 -0.7452  0.6575
  557MOL0     H76798  10.881   3.564   8.520  0.2235  1.6122 -1.7779
  557MOL0     H76799  11.031   3.392   8.556 -0.9549  1.7215 -0.2833
  557MOL0     H76800  11.066   3.478   8.405 -0.6919 -0.2587 -0.7555
  557MOL0     H76801  11.140   3.286   8.307 -1.4554 -2.0163  0.2702
  557MOL0     H76802  11.260   3.343   8.414  0.9594 -0.1649 -1.6370
  557MOL0     H76803  11.074   3.094   8.453  1.1743 -0.6399 -1.7953
  557MOL0     H76804  11.250   3.110   8.417 -0.1595  0.9203  0.2333
  557MOL0     H76805  11.305   3.222   8.632  0.3147  0.5847  0.7983
  557MOL0     H76806  11.134   3.180   8.678  2.2096  1.1720  0.3576
  557MOL0     H76807  11.358   3.003   8.606  0.4231 -0.0363  1.2568
  557MOL0     H76808  11.203   2.938   8.666  0.7863 -0.8570 -1.3839
  557MOL0     H76809  11.390   3.114   8.824 -0.6090  0.9776 -0.1039
  557MOL0     H76810  11.225   3.077   8.868  0.0095  1.0154 -0.6813
  557MOL0     H76811  11.450   2.877   8.861  1.3231 -0.0254  4.6486
  557MOL0     H76812  11.283   2.832   8.860  1.1229 -1.2774 -2.4455
  557MOL0     H76813  11.452   2.878   9.079 -0.1426 -1.4581 -0.3139
  557MOL0     H76814  11.367   3.031   9.076 -1.9115  1.0874 -0.0648
  557MOL0     H76815  11.293   2.654   9.085  1.8674  1.0924 -0.1629
  557MOL0     H76816  10.954   2.637   9.297 -1.1011 -0.3908 -0.9225
  557MOL0     H76817  11.099   2.545   9.294  1.5877  2.2383  2.1203
  557MOL0     H76818  10.943   2.417   9.183 -0.0247  0.3461 -1.2829
  557MOL0     H76819  10.877   2.555   9.084  1.5535  3.4451  0.8884
  557MOL0     H76820  11.034   2.573   8.952 -0.0678 -0.8793 -2.4067
  557MOL0     H76821  11.154   2.465   9.045 -1.9807  0.1199  3.4590
  557MOL0     H76822  11.076   2.347   8.855  0.5625  0.2552 -0.6705
  557MOL0     H76823  10.999   2.267   8.996 -0.7670  1.2330  1.7097
  557MOL0     H76824  10.995   2.140   8.793 -1.3881  0.3489  4.0532
  557MOL0     H76825  11.020   1.939   8.679 -1.8382  0.6281  3.5786
  557MOL0     H76826  10.967   1.963   8.504 -1.4270 -0.4339 -0.0692
  557MOL0     H76827  10.886   1.854   8.605  0.1430  0.7286 -2.0825
  557MOL0     H76828  10.628   1.985   8.210 -0.5527  2.5409  3.0913
  557MOL0     H76829  10.485   1.883   8.032  0.8471 -0.0575 -0.5867
  557MOL0     H76830  10.039   2.008   8.098  0.5899  0.1105 -0.3896
  557MOL0     H76831  10.161   2.077   7.984 -0.8111  0.1350 -5.7838
  557MOL0     H76832   9.958   2.015   7.854  0.1889 -0.1827  0.3854
  557MOL0     H76833  10.080   1.899   7.818 -2.0993  2.6100 -3.0831
  557MOL0     H76834   9.864   1.867   8.033  1.2034 -1.9972  3.8083
  557MOL0     H76835   9.993   1.753   7.999  0.9345  4.1022  2.3770
  557MOL0     H76836   9.903   1.753   7.752 -1.2629 -1.8486 -0.8152
  557MOL0     H76837   9.771   1.856   7.809  0.0058 -0.2356 -0.2818
  557MOL0     H76838   9.804   1.609   7.966 -0.2575 -0.7915  0.6996
  557MOL0     H76839   9.671   1.707   7.939 -0.6164 -0.3725 -0.1538
  557MOL0     H76840   9.815   1.554   7.715 -0.8573 -0.6054 -0.2849
  557MOL0     H76841   9.659   1.633   7.708  2.6066  2.2156 -0.8098
  557MOL0     H76842   9.562   1.480   7.869 -0.7170 -0.7244 -0.2086
  557MOL0     H76843   9.707   1.391   7.894  0.2022  0.3966  0.1166
  557MOL0     H76844   9.632   1.260   7.746  1.5253  1.6447  0.5760
  557MOL0     H76845   9.676   1.377   7.612 -1.4539 -0.4605 -0.5985
  557MOL0     H76846  10.142   1.994   8.274 -0.1406  1.0916  0.4708
  557MOL0     H76847  10.298   2.108   8.434  1.5390  3.3704 -2.7193
  557MOL0     H76848  10.552   2.242   8.605 -0.7754  1.2567 -1.1336
  557MOL0     H76849  10.652   2.398   8.769  1.3052  1.5938 -0.1904
  557MOL0     H76850  10.682   3.202   8.399 -1.1639 -0.7199 -0.2190
  557MOL0     H76851  10.480   3.306   8.430  0.9550  0.7007 -0.7289
  557MOL0     H76852  10.330   3.714   8.716 -0.5531  1.4599  0.7462
  557MOL0     H76853  10.170   3.870   8.791  3.6178 -1.1174  0.3893
  557MOL0     H76854   9.854   3.765   8.797  0.5398 -0.0667 -0.2905
  557MOL0     H76855   9.915   3.895   8.903  0.5173 -1.4056 -0.2873
  557MOL0     H76856   9.675   3.876   8.719 -1.6828  0.6695 -1.1189
  557MOL0     H76857   9.709   4.031   8.786  1.0164 -0.6791  2.1623
  557MOL0     H76858   9.657   3.788   8.946  1.0371  0.9448  0.3073
  557MOL0     H76859   9.681   3.943   9.017  2.2315 -1.1465  0.0267
  557MOL0     H76860   9.449   3.892   8.813 -2.3022 -2.7348  1.6386
  557MOL0     H76861   9.492   4.046   8.887  0.1549 -0.2778 -0.1082
  557MOL0     H76862   9.263   3.892   9.196 -2.4094 -1.3096 -2.2719
  557MOL0     H76863   9.888   3.735   8.511  0.4823 -0.5307 -3.0415
  557MOL0     H76864  10.030   3.441   8.419 -0.9760 -0.1852 -3.3201
  557MOL0     H76865   9.934   3.582   8.360 -0.2338  1.5255  0.5452
  557MOL0     H76866  10.105   3.554   8.305 -1.5599  0.0447 -1.4410
  558MOL0     O76867   9.703   8.401  11.354 -0.2781 -0.5117  0.1601
  558MOL0     C76868   9.608   8.414  11.432 -0.1086  0.0877 -0.1173
  558MOL0     O76869   9.617   8.477  11.544  0.6093 -0.7064 -0.2198
  558MOL0     C76870   9.722   8.552  11.580 -0.3431  1.0739 -0.3126
  558MOL0     C76871   9.714   8.693  11.583 -0.5996 -0.5808 -0.5493
  558MOL0     C76872   9.812   8.780  11.615 -0.6330  0.7161  1.4677
  558MOL0     C76873   9.934   8.718  11.662  0.1197  0.3950  0.0377
  558MOL0     O76874  10.030   8.806  11.702 -0.1035 -0.4731 -0.7469
  558MOL0     C76875  10.143   8.761  11.782  0.0417  0.0265 -0.2734
  558MOL0     C76876  10.105   8.721  11.924 -0.1992 -0.5189 -0.2768
  558MOL0     C76877  10.093   8.856  12.001 -0.3487  0.4541 -0.2139
  558MOL0     C76878  10.234   8.890  12.065 -0.3418  0.0395 -0.6804
  558MOL0     C76879  10.241   9.024  12.138 -0.0744  0.7975 -0.2619
  558MOL0     C76880  10.384   9.060  12.159 -0.5854 -0.1960  0.6316
  558MOL0     C76881  10.388   9.210  12.204  0.7618  0.5397 -0.5214
  558MOL0     C76882  10.531   9.259  12.225  0.4745 -0.5821  0.1864
  558MOL0     N76883  10.531   9.391  12.289  0.0254  0.0188 -0.4566
  558MOL0     C76884  10.490   9.500  12.226  0.1012  0.2363 -0.4031
  558MOL0     C76885  10.503   9.603  12.321  0.7390  0.4234  0.1634
  558MOL0     C76886  10.460   9.752  12.297  0.3130 -0.0744 -0.5579
  558MOL0     C76887  10.537   9.803  12.189 -0.3972  0.0475  0.7231
  558MOL0     C76888  10.445   9.868  12.081  0.6213  0.1390  0.6809
  558MOL0     C76889  10.386   9.761  11.988 -1.1175 -0.6033  0.1571
  558MOL0     O76890  10.488   9.701  11.917 -0.1939 -0.5403 -0.0184
  558MOL0     C76891  10.478   9.573  11.874 -0.5849 -0.0912 -0.8531
  558MOL0     C76892  10.358   9.497  11.870  0.7831 -0.1111 -0.1802
  558MOL0     C76893  10.350   9.363  11.839 -0.1152 -0.3584 -0.4904
  558MOL0     C76894  10.217   9.286  11.818 -0.7093  0.0742 -0.6030
  558MOL0     C76895  10.475   9.299  11.817 -0.0354  1.1882 -0.0323
  558MOL0     C76896  10.489   9.163  11.761  0.5174  1.0425  0.4637
  558MOL0     O76897  10.440   9.143  11.636  0.1054 -0.2033  0.2419
  558MOL0     C76898  10.411   9.022  11.579 -0.0656  0.1657 -0.0165
  558MOL0     C76899  10.502   8.917  11.562 -0.6278 -0.1077  0.1910
  558MOL0     C76900  10.461   8.803  11.502  0.2806  0.3852  0.1051
  558MOL0     C76901  10.326   8.791  11.463 -0.4048 -0.1447 -0.4681
  558MOL0     O76902  10.289   8.674  11.404 -0.4525 -0.8080  0.5705
  558MOL0     C76903  10.168   8.669  11.326  0.9000 -0.3957  0.2730
  558MOL0     C76904  10.144   8.516  11.302 -0.4508  0.1651 -0.7898
  558MOL0     C76905  10.014   8.483  11.223  0.0454  0.7106  0.8418
  558MOL0     C76906  10.001   8.338  11.200 -0.0763 -0.2579 -0.4918
  558MOL0     C76907   9.900   8.306  11.093 -0.2636 -0.7843  0.4406
  558MOL0     C76908   9.837   8.166  11.095  0.4817 -0.1712  0.3512
  558MOL0     C76909   9.935   8.046  11.050  0.0517 -0.3781  0.0025
  558MOL0     C76910   9.986   7.964  11.171  0.8823  0.3172  0.0047
  558MOL0    Cl76911  10.096   7.849  11.115  0.3603  0.4429  0.0572
  558MOL0     C76912  10.240   8.901  11.475 -0.2781  0.9239 -0.0102
  558MOL0     C76913  10.284   9.021  11.529  0.0156 -0.4195  0.7608
  558MOL0     O76914  10.537   9.073  11.833 -0.7866 -0.3572 -0.4801
  558MOL0     C76915  10.597   9.374  11.823 -0.4104 -0.9282 -1.0811
  558MOL0     C76916  10.603   9.510  11.860 -0.3257  0.2567 -0.7192
  558MOL0     N76917  10.543   9.539  12.439 -0.2938  0.3136 -0.1508
  558MOL0     N76918  10.581   9.417  12.411  0.1924 -0.0479  0.0593
  558MOL0     C76919   9.955   8.578  11.650  0.6647  0.1416  0.1287
  558MOL0     C76920   9.850   8.499  11.624  0.5395  0.3525 -0.1913
  558MOL0     C76921   9.483   8.340  11.392 -0.3437 -0.2908  0.7699
  558MOL0     C76922   9.491   8.262  11.276 -0.9872  0.8526  0.4246
  558MOL0     C76923   9.390   8.168  11.253  0.3540  0.3130 -0.5705
  558MOL0     C76924   9.273   8.157  11.323 -1.0676  0.4814  0.1336
  558MOL0     O76925   9.175   8.058  11.308  0.4561  0.1515  0.8477
  558MOL0     C76926   9.119   8.051  11.184  0.2810 -0.2394  0.3024
  558MOL0     C76927   9.029   7.927  11.180  0.7092  0.6498 -0.1163
  558MOL0     C76928   9.100   7.801  11.206  0.4233  0.7532 -0.0449
  558MOL0     C76929   9.007   7.680  11.197 -1.1749  0.5963  0.6557
  558MOL0     C76930   9.013   7.643  11.047  1.9608 -0.3832  0.8731
  558MOL0     C76931   9.045   7.635  10.935 -0.4348 -0.0140 -0.9616
  558MOL0     C76932   9.255   8.249  11.422 -0.1781  1.7009 -0.4342
  558MOL0     C76933   9.358   8.335  11.462 -0.3091 -0.9047  0.1940
  558MOL0     C76934   9.331   8.422  11.574  0.3607  0.6761  0.0165
  558MOL0     H76935   9.621   8.745  11.561  0.2602  1.1279 -0.2994
  558MOL0     H76936   9.808   8.889  11.618 -0.0645  0.7322  3.6687
  558MOL0     H76937  10.209   8.849  11.778  0.7551 -0.5606 -2.7138
  558MOL0     H76938  10.203   8.688  11.728 -0.2500 -0.2616 -0.2103
  558MOL0     H76939  10.014   8.660  11.931  0.8755 -2.1079  0.5246
  558MOL0     H76940  10.187   8.662  11.965  0.7536  0.7397 -0.3328
  558MOL0     H76941  10.074   8.940  11.935 -0.9504 -0.9912 -1.9535
  558MOL0     H76942  10.009   8.844  12.071 -0.4952 -2.8145 -0.7866
  558MOL0     H76943  10.256   8.809  12.134 -1.6770  0.4868  0.3071
  558MOL0     H76944  10.311   8.902  11.987  0.1361 -0.8239 -0.3518
  558MOL0     H76945  10.186   9.028  12.233  2.1183  0.4554  1.0700
  558MOL0     H76946  10.208   9.104  12.070 -0.9766  2.3446  1.8470
  558MOL0     H76947  10.418   9.003  12.246 -2.4170 -1.7168  0.4178
  558MOL0     H76948  10.440   9.046  12.065 -1.9486  1.0077 -0.4100
  558MOL0     H76949  10.334   9.219  12.299 -0.0409 -4.1267 -0.3085
  558MOL0     H76950  10.344   9.269  12.123  3.7113  3.4433 -0.2106
  558MOL0     H76951  10.599   9.187  12.269  2.4263  0.7722 -0.4756
  558MOL0     H76952  10.566   9.272  12.122 -1.0494  0.6370 -0.2265
  558MOL0     H76953  10.449   9.502  12.126  2.2335 -4.6160 -1.6834
  558MOL0     H76954  10.481   9.797  12.395 -0.2205 -1.2213  0.1096
  558MOL0     H76955  10.351   9.757  12.292  0.2403  1.5556  1.3184
  558MOL0     H76956  10.594   9.890  12.222 -0.3304  0.8226 -1.2769
  558MOL0     H76957  10.608   9.733  12.144  1.7208  1.0365  2.3363
  558MOL0     H76958  10.358   9.918  12.124 -0.1797 -0.8657  0.2823
  558MOL0     H76959  10.487   9.935  12.005 -2.0171 -1.0489 -2.0300
  558MOL0     H76960  10.341   9.685  12.052  0.3520 -1.1418  0.6123
  558MOL0     H76961  10.306   9.799  11.924 -1.1943  1.5557  1.4299
  558MOL0     H76962  10.264   9.551  11.879  0.3417 -0.8336 -0.4254
  558MOL0     H76963  10.231   9.183  11.784 -0.6720 -0.7570  1.7320
  558MOL0     H76964  10.156   9.328  11.737 -0.4458 -0.3118 -1.0086
  558MOL0     H76965  10.164   9.285  11.914  1.1417  0.9053  0.4845
  558MOL0     H76966  10.605   8.935  11.590 -0.6912 -0.6596  0.7959
  558MOL0     H76967  10.529   8.727  11.464 -0.9692  0.4008 -2.3758
  558MOL0     H76968  10.080   8.698  11.383 -0.7140  2.8236 -3.4238
  558MOL0     H76969  10.159   8.733  11.238 -0.1430 -0.8106  0.0639
  558MOL0     H76970  10.238   8.491  11.252 -0.3687 -0.4106 -0.3476
  558MOL0     H76971  10.146   8.468  11.400  0.1818 -1.7337 -1.6954
  558MOL0     H76972  10.004   8.534  11.126  2.2282 -0.4656 -0.0779
  558MOL0     H76973   9.927   8.518  11.279 -1.5959 -0.9660 -0.5572
  558MOL0     H76974   9.964   8.298  11.295  1.3673 -3.0451 -0.9655
  558MOL0     H76975  10.103   8.303  11.180  0.0681  0.7520 -1.6508
  558MOL0     H76976   9.825   8.384  11.111  1.0968  0.3446  1.5335
  558MOL0     H76977   9.940   8.308  10.992 -1.4999 -1.8271 -0.0853
  558MOL0     H76978   9.744   8.163  11.037  0.7110 -0.4647 -0.0049
  558MOL0     H76979   9.809   8.133  11.195 -0.4812  2.8689  1.2098
  558MOL0     H76980  10.035   8.083  11.024  0.9309 -2.7828 -0.2975
  558MOL0     H76981   9.890   7.983  10.973  0.7784 -0.8899 -0.0208
  558MOL0     H76982   9.894   7.924  11.216 -1.4383  4.5913 -0.4241
  558MOL0     H76983  10.034   8.032  11.241  0.4707  0.4266  0.1844
  558MOL0     H76984  10.136   8.900  11.444 -0.9034  2.8765  1.7681
  558MOL0     H76985  10.215   9.104  11.526 -0.8506 -1.1286 -2.3431
  558MOL0     H76986  10.694   9.326  11.816  1.2634  1.9948 -0.0010
  558MOL0     H76987  10.697   9.563  11.861 -0.0064 -0.1522  2.6514
  558MOL0     H76988  10.055   8.538  11.658  0.4553 -0.4786 -0.3729
  558MOL0     H76989   9.859   8.391  11.621  0.5793  0.3496  0.0304
  558MOL0     H76990   9.575   8.265  11.207 -0.4458  0.6870  1.0702
  558MOL0     H76991   9.392   8.100  11.169  1.9041 -2.4107  1.4874
  558MOL0     H76992   9.071   8.148  11.168 -3.2734 -1.7504  0.7389
  558MOL0     H76993   9.195   8.033  11.107  0.4966 -4.2476  1.2119
  558MOL0     H76994   8.998   7.927  11.075 -0.4320 -1.7418  0.1396
  558MOL0     H76995   8.939   7.933  11.242  0.6774  0.2338 -0.1180
  558MOL0     H76996   9.174   7.795  11.126 -0.2513 -1.8797 -0.5594
  558MOL0     H76997   9.138   7.801  11.309  1.3938 -0.6221 -0.3734
  558MOL0     H76998   8.910   7.706  11.243  0.2748  0.2134  4.2490
  558MOL0     H76999   9.046   7.599  11.259 -1.3745 -1.4978 -1.7895
  558MOL0     H77000   9.065   7.644  10.830  0.8596  0.3544 -0.7052
  558MOL0     H77001   9.165   8.238  11.482 -1.4259  1.3518 -2.2679
  558MOL0     H77002   9.389   8.403  11.665  1.5602 -2.5252 -1.2693
  558MOL0     H77003   9.338   8.524  11.534 -3.8978  1.5231  0.9300
  558MOL0     H77004   9.231   8.406  11.615  0.4702  0.7090  0.2986
  559MOL0     O77005   3.001   2.712   6.894 -0.4175  0.2430 -0.9032
  559MOL0     C77006   3.081   2.673   6.984  0.4033 -1.2241  1.5458
  559MOL0     O77007   3.054   2.675   7.110 -0.6965  0.3659 -0.4387
  559MOL0     C77008   2.951   2.753   7.166  0.2133 -0.1085 -0.2172
  559MOL0     C77009   2.936   2.888   7.126  0.2621  0.0323 -0.1571
  559MOL0     C77010   2.854   2.972   7.202 -0.0360 -0.4107  0.0319
  559MOL0     C77011   2.788   2.923   7.319  0.1272 -0.0894  0.5568
  559MOL0     O77012   2.730   3.011   7.401 -0.2971  0.2006  0.3516
  559MOL0     C77013   2.758   3.014   7.546 -0.0357 -0.9033  0.8678
  559MOL0     C77014   2.718   3.143   7.615 -0.0453 -0.6102  0.1843
  559MOL0     C77015   2.822   3.254   7.612 -0.0979  0.3882  0.7813
  559MOL0     C77016   2.879   3.284   7.479  0.3626  0.9389  0.0657
  559MOL0     C77017   3.001   3.368   7.475  0.7071  0.4316  0.2055
  559MOL0     C77018   3.076   3.369   7.341 -0.7246  0.2241 -0.2914
  559MOL0     C77019   3.204   3.453   7.349  0.7082 -0.1295 -0.6927
  559MOL0     C77020   3.292   3.468   7.227  0.2465  0.3413 -0.0526
  559MOL0     N77021   3.233   3.568   7.140 -0.6426 -0.2733 -0.4186
  559MOL0     C77022   3.238   3.565   7.006 -0.1405  1.0487 -0.0636
  559MOL0     C77023   3.245   3.693   6.967 -0.5179 -0.0832 -0.4277
  559MOL0     C77024   3.272   3.755   6.833 -0.3902 -1.3418 -0.0039
  559MOL0     C77025   3.194   3.674   6.726 -0.1479 -0.0311 -0.7221
  559MOL0     C77026   3.049   3.707   6.741 -0.1929 -0.4316 -0.4201
  559MOL0     C77027   2.980   3.611   6.637 -0.3871  0.1146  0.0532
  559MOL0     O77028   2.850   3.661   6.599 -0.5278 -0.1704 -0.1642
  559MOL0     C77029   2.829   3.761   6.508  0.0114 -0.6878  0.3826
  559MOL0     C77030   2.701   3.784   6.450  0.0032 -0.7478 -0.4624
  559MOL0     C77031   2.669   3.889   6.375  0.4588 -0.2733  0.4462
  559MOL0     C77032   2.525   3.930   6.380  0.0601 -0.1217 -0.8524
  559MOL0     C77033   2.768   3.963   6.324 -0.4349 -0.1570 -0.5498
  559MOL0     C77034   2.742   4.085   6.234  0.2780  0.1086 -0.2808
  559MOL0     O77035   2.851   4.138   6.182  0.2675  1.0148  0.3293
  559MOL0     C77036   2.836   4.246   6.104  1.1672 -1.0190 -0.2281
  559MOL0     C77037   2.896   4.370   6.146 -0.2023 -0.2060 -0.4162
  559MOL0     C77038   2.888   4.482   6.058 -0.3098  0.3378 -0.7607
  559MOL0     C77039   2.813   4.481   5.942  0.5202 -0.2940  0.2577
  559MOL0     O77040   2.795   4.582   5.846  0.0779 -0.4637 -0.5759
  559MOL0     C77041   2.823   4.719   5.899  0.0138  0.1805  0.9224
  559MOL0     C77042   2.958   4.773   5.869 -0.9508  0.5203  0.0843
  559MOL0     C77043   3.014   4.773   5.724 -0.4149 -0.0531 -1.2810
  559MOL0     C77044   2.918   4.826   5.618  0.4199 -0.9045  0.5141
  559MOL0     C77045   2.989   4.862   5.479  0.2508  1.2448  0.4660
  559MOL0     C77046   2.888   4.863   5.369  0.6335 -0.0630 -0.5067
  559MOL0     C77047   2.943   4.926   5.239  0.6634  0.4806 -0.1867
  559MOL0     C77048   3.065   4.838   5.201 -0.7914  0.2491 -0.4166
  559MOL0    Cl77049   3.104   4.885   5.031  0.8672 -0.1041  0.3232
  559MOL0     C77050   2.743   4.368   5.908 -0.1854 -0.0805 -0.3135
  559MOL0     C77051   2.756   4.248   5.990  0.4547 -0.9370 -0.5783
  559MOL0     O77052   2.626   4.131   6.228 -0.8423  0.2102 -0.2109
  559MOL0     C77053   2.902   3.937   6.366 -0.2242  0.3205  1.2708
  559MOL0     C77054   2.931   3.841   6.460  1.3070 -0.8223 -0.5931
  559MOL0     N77055   3.244   3.774   7.082 -0.2109  0.1586  0.5141
  559MOL0     N77056   3.242   3.701   7.188 -0.4089  0.0374  1.4687
  559MOL0     C77057   2.798   2.782   7.340  0.0397 -0.5311 -0.3271
  559MOL0     C77058   2.868   2.691   7.262  0.5125  0.5199 -0.5219
  559MOL0     C77059   3.211   2.625   6.941 -0.8881 -0.2492 -0.1085
  559MOL0     C77060   3.286   2.565   7.050  0.2748 -0.9272 -0.6413
  559MOL0     C77061   3.407   2.506   7.028  0.8938  0.1241  0.6502
  559MOL0     C77062   3.471   2.504   6.901  0.0537  0.4422 -0.7016
  559MOL0     O77063   3.591   2.441   6.898 -0.6921  0.4064 -0.1228
  559MOL0     C77064   3.697   2.468   6.807 -0.1819  0.0961 -0.6283
  559MOL0     C77065   3.826   2.445   6.872  0.3243 -0.9777  0.2648
  559MOL0     C77066   3.840   2.529   6.999 -0.2654  0.6754 -0.2956
  559MOL0     C77067   3.984   2.489   7.057  0.7768 -1.2096 -0.8584
  559MOL0     C77068   3.988   2.525   7.197  0.0381 -0.7586 -1.1406
  559MOL0     C77069   3.996   2.554   7.314  0.6683  0.5406 -0.2502
  559MOL0     C77070   3.399   2.560   6.792 -0.1682 -0.2674 -0.1040
  559MOL0     C77071   3.271   2.616   6.809  0.3684  0.2475  0.3622
  559MOL0     C77072   3.189   2.666   6.689 -0.9169  0.7474  0.0402
  559MOL0     H77073   2.990   2.925   7.039  0.3730  4.9168  1.6594
  559MOL0     H77074   2.853   3.077   7.175  1.2023 -0.6338 -0.9320
  559MOL0     H77075   2.863   2.994   7.570  1.2762  3.7994  0.1421
  559MOL0     H77076   2.703   2.931   7.590  1.8919 -3.0126 -0.5075
  559MOL0     H77077   2.621   3.171   7.573  0.9972 -0.7290 -2.5080
  559MOL0     H77078   2.703   3.116   7.720  2.7093 -0.9581  0.5758
  559MOL0     H77079   2.774   3.344   7.651 -2.9403  0.4426 -2.4145
  559MOL0     H77080   2.904   3.228   7.680  1.3879 -2.0658 -1.7212
  559MOL0     H77081   2.914   3.183   7.457 -2.7131 -0.1413 -0.4083
  559MOL0     H77082   2.810   3.325   7.405  4.6189  1.1287 -4.2472
  559MOL0     H77083   3.072   3.344   7.556  1.5610 -0.8761 -0.8870
  559MOL0     H77084   2.977   3.474   7.482 -0.3369  0.3188 -1.3752
  559MOL0     H77085   3.100   3.265   7.316 -3.6141 -0.5412 -0.3124
  559MOL0     H77086   3.016   3.404   7.257  0.8194  2.2650 -0.6203
  559MOL0     H77087   3.266   3.414   7.430  0.0476  0.2151 -0.0074
  559MOL0     H77088   3.174   3.543   7.404 -3.3686 -1.9366  0.4507
  559MOL0     H77089   3.394   3.500   7.251  1.0984 -2.3535  0.2554
  559MOL0     H77090   3.304   3.377   7.167  0.8046  1.0778 -1.1032
  559MOL0     H77091   3.258   3.484   6.936 -0.0235  1.9917 -1.1511
  559MOL0     H77092   3.381   3.746   6.825  0.2685  2.1186  2.5424
  559MOL0     H77093   3.239   3.860   6.830 -2.0804 -1.8050  0.9925
  559MOL0     H77094   3.227   3.699   6.625 -2.0869  0.4683 -1.2755
  559MOL0     H77095   3.219   3.567   6.734 -1.4033 -0.2298  1.2633
  559MOL0     H77096   3.021   3.693   6.846  0.2081  2.2186  0.1110
  559MOL0     H77097   3.025   3.811   6.717 -2.0326 -0.0301  2.5535
  559MOL0     H77098   3.048   3.598   6.552 -0.9096  0.7279 -0.4744
  559MOL0     H77099   2.965   3.509   6.672  3.0717 -0.6819 -0.4509
  559MOL0     H77100   2.623   3.719   6.490 -1.3213 -0.2046 -2.0205
  559MOL0     H77101   2.463   3.877   6.453  1.6149 -2.7110 -1.2912
  559MOL0     H77102   2.476   3.927   6.282 -1.1025  3.5841 -0.5485
  559MOL0     H77103   2.516   4.034   6.414 -0.8387 -0.7476  0.9981
  559MOL0     H77104   2.959   4.397   6.230 -1.2365  5.3141 -1.0463
  559MOL0     H77105   2.942   4.570   6.092  1.5152 -0.8904 -0.3350
  559MOL0     H77106   2.757   4.785   5.844  0.6150  0.8281  0.9667
  559MOL0     H77107   2.807   4.736   6.006 -2.4017 -1.5664  0.9342
  559MOL0     H77108   2.966   4.872   5.915  0.3481 -0.3543  1.8742
  559MOL0     H77109   3.024   4.714   5.934 -1.9926 -2.0114 -1.0447
  559MOL0     H77110   3.046   4.671   5.700  0.1873 -0.9011  2.5395
  559MOL0     H77111   3.098   4.843   5.732  0.5116 -1.3238  1.3201
  559MOL0     H77112   2.855   4.905   5.661 -0.0340 -0.5830 -0.7145
  559MOL0     H77113   2.836   4.756   5.599 -1.7189  1.4319  0.5252
  559MOL0     H77114   3.039   4.959   5.479  3.2208 -0.1605  0.8337
  559MOL0     H77115   3.055   4.775   5.466 -0.0407  0.8977  1.2548
  559MOL0     H77116   2.797   4.913   5.405  0.2973  0.8168 -2.4539
  559MOL0     H77117   2.865   4.756   5.359  1.0595 -0.6135  3.0466
  559MOL0     H77118   2.965   5.031   5.258  0.3249  0.3211  1.2372
  559MOL0     H77119   2.873   4.924   5.155  1.4729 -2.9364 -0.9605
  559MOL0     H77120   3.059   4.728   5.202  3.4915 -0.1927 -1.4048
  559MOL0     H77121   3.150   4.869   5.262  0.7691  0.8905 -2.7538
  559MOL0     H77122   2.683   4.372   5.818  1.6581  0.9485 -1.5595
  559MOL0     H77123   2.692   4.165   5.961 -0.2470 -1.5521  2.3586
  559MOL0     H77124   2.984   3.988   6.318 -1.1376 -0.1893 -1.0044
  559MOL0     H77125   3.032   3.828   6.498  1.8382  0.7478 -1.3754
  559MOL0     H77126   2.761   2.727   7.426  0.0933 -2.7016 -1.6424
  559MOL0     H77127   2.881   2.584   7.275  1.8771 -0.1508 -5.4052
  559MOL0     H77128   3.241   2.563   7.149 -0.6395  0.3019 -1.0047
  559MOL0     H77129   3.446   2.454   7.114  2.2818  0.8528  0.4814
  559MOL0     H77130   3.694   2.415   6.711  0.2503 -0.7577 -0.1867
  559MOL0     H77131   3.697   2.575   6.787  0.0258  0.2891  0.3832
  559MOL0     H77132   3.906   2.460   6.799  0.8400 -2.4923  0.4811
  559MOL0     H77133   3.834   2.339   6.898  2.4497 -0.9317  0.0047
  559MOL0     H77134   3.828   2.635   6.974 -0.7260  0.1825 -2.3209
  559MOL0     H77135   3.760   2.499   7.067 -0.6315 -0.4786 -1.2050
  559MOL0     H77136   4.057   2.553   7.007 -0.9295  1.3607 -0.2550
  559MOL0     H77137   4.005   2.382   7.041 -0.4538 -1.3895 -1.3600
  559MOL0     H77138   4.001   2.584   7.417  1.2567  0.8403 -0.3615
  559MOL0     H77139   3.446   2.558   6.694 -2.0097  0.2485 -1.0385
  559MOL0     H77140   3.248   2.643   6.600  1.7132 -0.1057  1.8712
  559MOL0     H77141   3.097   2.606   6.685 -2.5475  3.0828  0.0378
  559MOL0     H77142   3.150   2.766   6.711 -0.3426  0.7296  1.2471
  560MOL0     O77143   7.647   6.198   0.686  0.0969 -0.1120  0.4579
  560MOL0     C77144   7.668   6.312   0.645 -0.2999 -0.3062 -0.6591
  560MOL0     O77145   7.581   6.392   0.575 -0.2090  0.1237  0.8737
  560MOL0     C77146   7.463   6.344   0.531  0.8852  0.2199  0.0210
  560MOL0     C77147   7.454   6.272   0.415  1.3447  0.3117  0.8740
  560MOL0     C77148   7.322   6.254   0.361 -0.0602 -0.3045 -0.4562
  560MOL0     C77149   7.208   6.305   0.424  0.6514  0.6686 -0.5430
  560MOL0     O77150   7.090   6.268   0.366  0.5649  0.4821  0.2591
  560MOL0     C77151   6.989   6.372   0.351  0.3134 -1.0840  0.5620
  560MOL0     C77152   7.003   6.457   0.220  1.4463  0.0061  0.4102
  560MOL0     C77153   6.954   6.600   0.257 -0.3867  0.2621  0.4594
  560MOL0     C77154   6.864   6.635   0.138  0.0822 -0.7156 -0.2448
  560MOL0     C77155   6.793   6.768   0.168 -0.2830  0.5824  0.3059
  560MOL0     C77156   6.642   6.772   0.124 -0.9398  0.0396 -0.5223
  560MOL0     C77157   6.602   6.741  -0.020 -0.8356 -0.3651  0.4913
  560MOL0     C77158   6.638   6.865  -0.104  0.0434 -0.8170  0.0490
  560MOL0     N77159   6.599   6.855  -0.241  0.0299  0.4022 -0.1034
  560MOL0     C77160   6.653   6.764  -0.328 -0.6125 -0.4272 -0.5667
  560MOL0     C77161   6.562   6.759  -0.422 -0.4445  0.2326 -0.3037
  560MOL0     C77162   6.591   6.684  -0.555 -0.2246  0.5913  0.1555
  560MOL0     C77163   6.672   6.775  -0.652 -0.2611  0.5251 -0.0248
  560MOL0     C77164   6.815   6.807  -0.625 -0.2129 -0.0374  0.2976
  560MOL0     C77165   6.867   6.912  -0.716  0.2836 -0.0536  0.9292
  560MOL0     O77166   6.999   6.930  -0.682  0.0243 -0.0503 -0.2065
  560MOL0     C77167   7.072   6.961  -0.792 -0.2327 -0.3153  0.1828
  560MOL0     C77168   7.051   7.075  -0.876  0.3463  0.3385 -1.6314
  560MOL0     C77169   7.128   7.101  -0.980  0.2802 -0.0017  0.2021
  560MOL0     C77170   7.095   7.224  -1.061 -0.2252 -0.4594 -1.2349
  560MOL0     C77171   7.236   7.013  -1.005 -0.0102  0.7163  0.2529
  560MOL0     C77172   7.343   7.060  -1.106  0.5573  0.1033  0.1870
  560MOL0     O77173   7.471   7.046  -1.050 -0.2861  0.9546  0.2601
  560MOL0     C77174   7.583   7.070  -1.136  0.9314 -0.7271  1.4589
  560MOL0     C77175   7.701   7.066  -1.076  0.1871 -0.6245 -0.3760
  560MOL0     C77176   7.822   7.059  -1.146 -0.0981 -0.4163 -0.8972
  560MOL0     C77177   7.831   7.079  -1.278  0.6237 -0.2171  0.1840
  560MOL0     O77178   7.957   7.061  -1.326  0.0346  0.0811 -0.9075
  560MOL0     C77179   7.974   7.034  -1.462  0.2710  0.1141  0.1251
  560MOL0     C77180   8.122   7.032  -1.488  0.0393 -0.7001  0.9824
  560MOL0     C77181   8.189   7.168  -1.456  0.9247 -0.0749 -0.7286
  560MOL0     C77182   8.136   7.291  -1.544 -0.3293  0.6378 -1.6061
  560MOL0     C77183   8.176   7.413  -1.473  0.5114  0.1136 -0.4951
  560MOL0     C77184   8.123   7.539  -1.546  0.3169 -0.0166 -0.1370
  560MOL0     C77185   8.195   7.563  -1.672 -0.1571  1.0754 -0.4628
  560MOL0     C77186   8.117   7.656  -1.758  0.4098 -0.6701  0.4301
  560MOL0    Cl77187   7.956   7.598  -1.792 -0.2275 -0.1007 -0.3153
  560MOL0     C77188   7.712   7.089  -1.354  0.1015 -0.1932  0.0559
  560MOL0     C77189   7.590   7.090  -1.278  0.8298 -0.5427  0.4852
  560MOL0     O77190   7.320   7.111  -1.218  0.0562  0.1831 -0.5408
  560MOL0     C77191   7.260   6.902  -0.933  0.5264  0.5022 -0.5499
  560MOL0     C77192   7.179   6.875  -0.824  0.0651 -0.2191 -0.0660
  560MOL0     N77193   6.460   6.840  -0.406  0.2418 -0.0264  0.4672
  560MOL0     N77194   6.484   6.908  -0.298  0.2799  0.4082 -0.2872
  560MOL0     C77195   7.220   6.345   0.557 -0.2524  0.0895  0.0696
  560MOL0     C77196   7.340   6.380   0.600 -0.0971 -0.6802  0.1938
  560MOL0     C77197   7.780   6.379   0.699 -0.5709  0.3747 -0.1866
  560MOL0     C77198   7.910   6.341   0.646 -0.1060  1.1178 -0.6657
  560MOL0     C77199   8.024   6.404   0.687 -0.2220 -0.3247  1.0789
  560MOL0     C77200   8.013   6.510   0.773 -0.6622 -0.0711 -1.2918
  560MOL0     O77201   8.129   6.577   0.799 -0.1081  0.2875  0.6684
  560MOL0     C77202   8.146   6.641   0.919  0.3475 -0.6210  0.3245
  560MOL0     C77203   8.295   6.685   0.936 -0.4840 -1.3712  0.1306
  560MOL0     C77204   8.410   6.580   0.950 -0.1401 -0.2267 -0.9943
  560MOL0     C77205   8.398   6.497   1.080  1.0180 -0.1134 -0.2327
  560MOL0     C77206   8.524   6.439   1.127  0.3652  0.0672  0.2082
  560MOL0     C77207   8.638   6.417   1.146  0.7696 -0.0226 -0.3763
  560MOL0     C77208   7.885   6.546   0.830 -0.4666 -0.6752 -0.2484
  560MOL0     C77209   7.767   6.489   0.796 -1.3026  0.3877 -0.1511
  560MOL0     C77210   7.639   6.552   0.849 -0.0771  1.1575  0.0407
  560MOL0     H77211   7.535   6.230   0.357 -0.6470 -1.0623 -1.1075
  560MOL0     H77212   7.318   6.208   0.262 -1.4168 -1.6379  0.1800
  560MOL0     H77213   7.007   6.438   0.436 -1.0350  0.3008 -0.1865
  560MOL0     H77214   6.890   6.327   0.356 -0.7177  1.1765  2.2822
  560MOL0     H77215   7.104   6.454   0.177  0.9818  0.7735 -0.8038
  560MOL0     H77216   6.935   6.413   0.147  2.2685  2.0017 -1.6918
  560MOL0     H77217   6.904   6.590   0.354 -3.0855 -1.9575 -1.0217
  560MOL0     H77218   7.036   6.673   0.265  1.5490 -1.8622  1.1621
  560MOL0     H77219   6.930   6.629   0.052  0.4934 -2.4716  0.1442
  560MOL0     H77220   6.785   6.562   0.118 -3.2304  2.5140  0.0003
  560MOL0     H77221   6.850   6.845   0.115  0.4383 -1.5486 -2.2387
  560MOL0     H77222   6.791   6.779   0.276 -4.2924 -0.3042  0.4722
  560MOL0     H77223   6.602   6.695   0.191  2.4087 -2.0399 -0.6890
  560MOL0     H77224   6.605   6.867   0.162 -0.2322 -0.4662  1.5629
  560MOL0     H77225   6.496   6.721  -0.004 -0.7280 -1.8790 -0.4105
  560MOL0     H77226   6.651   6.645  -0.041 -0.2871  0.5906 -3.4741
  560MOL0     H77227   6.599   6.957  -0.060  0.7538 -1.6808  2.6274
  560MOL0     H77228   6.746   6.882  -0.106  0.2259 -1.9196 -1.1360
  560MOL0     H77229   6.749   6.714  -0.321  1.9907  3.7245 -2.4346
  560MOL0     H77230   6.499   6.646  -0.601 -0.3661 -0.3642  1.1908
  560MOL0     H77231   6.644   6.589  -0.537 -1.9689 -0.1099  2.0172
  560MOL0     H77232   6.670   6.734  -0.754  2.1486 -0.4195  0.2232
  560MOL0     H77233   6.615   6.867  -0.665 -0.1379  0.6700  0.4451
  560MOL0     H77234   6.827   6.844  -0.522 -0.0541 -0.1249  0.3107
  560MOL0     H77235   6.868   6.711  -0.627 -2.6040 -1.3936 -2.0187
  560MOL0     H77236   6.861   6.865  -0.814  0.5025 -0.3508  1.0560
  560MOL0     H77237   6.807   7.003  -0.708  2.3507  1.7351 -2.0195
  560MOL0     H77238   6.960   7.133  -0.860 -0.0338 -0.9417  1.5571
  560MOL0     H77239   7.134   7.222  -1.163  0.9993  3.4611 -0.9818
  560MOL0     H77240   7.141   7.303  -1.002  1.9312 -2.0383 -0.6568
  560MOL0     H77241   6.987   7.241  -1.054 -0.4095 -1.7984 -0.2188
  560MOL0     H77242   7.707   7.059  -0.968  1.0627 -2.8606 -0.5132
  560MOL0     H77243   7.918   7.047  -1.098 -0.8729  1.6651  1.4113
  560MOL0     H77244   7.928   6.937  -1.478  3.4380 -2.1743  3.3214
  560MOL0     H77245   7.914   7.110  -1.514 -0.1027  1.0400  1.8430
  560MOL0     H77246   8.176   6.957  -1.430  3.6886  0.9681  0.0143
  560MOL0     H77247   8.140   7.013  -1.594 -2.3109 -0.8621  0.5524
  560MOL0     H77248   8.297   7.155  -1.450  0.7581 -1.6676 -0.8546
  560MOL0     H77249   8.147   7.184  -1.356 -0.8999  1.2895 -1.6443
  560MOL0     H77250   8.027   7.301  -1.544 -0.1869  2.9678 -0.6599
  560MOL0     H77251   8.179   7.267  -1.642 -2.9469 -2.0986 -2.2461
  560MOL0     H77252   8.123   7.411  -1.377  0.6887  1.6524 -0.3343
  560MOL0     H77253   8.283   7.414  -1.453  0.0499  1.0897  2.3629
  560MOL0     H77254   8.128   7.633  -1.490  0.8946 -0.8221  1.2121
  560MOL0     H77255   8.014   7.527  -1.553  0.3035 -2.2077  2.3503
  560MOL0     H77256   8.196   7.464  -1.719 -2.1050  0.4199  0.7729
  560MOL0     H77257   8.298   7.596  -1.652  0.1589 -1.2360  2.3958
  560MOL0     H77258   8.158   7.696  -1.852 -2.1584  3.1688  0.7044
  560MOL0     H77259   8.106   7.748  -1.699 -1.0588 -1.7992  2.0066
  560MOL0     H77260   7.706   7.077  -1.461  3.3422  0.9402 -0.3394
  560MOL0     H77261   7.510   7.101  -1.351  2.5318 -1.3701 -1.6259
  560MOL0     H77262   7.338   6.832  -0.958 -0.5322 -0.0091 -2.6182
  560MOL0     H77263   7.183   6.792  -0.755  0.3814  0.0721  0.2715
  560MOL0     H77264   7.126   6.363   0.607 -2.1060  0.7794 -3.3527
  560MOL0     H77265   7.348   6.424   0.698 -1.1742  3.0448 -1.2250
  560MOL0     H77266   7.919   6.267   0.568  0.8730 -1.3439  1.6345
  560MOL0     H77267   8.125   6.381   0.655  0.5205  0.2462  2.8838
  560MOL0     H77268   8.088   6.732   0.903 -2.2183 -2.3397 -0.6918
  560MOL0     H77269   8.109   6.577   0.999 -0.5002 -1.1874 -0.4996
  560MOL0     H77270   8.293   6.746   1.026  3.8393  0.2311 -0.6154
  560MOL0     H77271   8.321   6.744   0.848 -1.7520 -0.0445  0.5978
  560MOL0     H77272   8.414   6.523   0.857  0.0355 -0.8534 -0.6065
  560MOL0     H77273   8.501   6.641   0.956 -0.0491 -0.2484 -2.0249
  560MOL0     H77274   8.332   6.415   1.049 -0.5919  1.7173 -1.9672
  560MOL0     H77275   8.362   6.567   1.155 -0.5046 -1.8981  0.8018
  560MOL0     H77276   8.745   6.419   1.137  0.6046  0.9378 -2.8035
  560MOL0     H77277   7.866   6.634   0.890 -3.6888  1.2494 -3.6680
  560MOL0     H77278   7.552   6.492   0.818  0.1627  1.0042 -0.3436
  560MOL0     H77279   7.634   6.557   0.958  1.0342 -0.7770  0.2248
  560MOL0     H77280   7.629   6.653   0.807 -2.4248  2.2092  2.8034
  561MOL0     O77281   3.280   5.855  10.713 -0.2195 -0.3432  0.1094
  561MOL0     C77282   3.365   5.842  10.800  0.3970 -0.0679 -0.0285
  561MOL0     O77283   3.406   5.724  10.861 -0.0643  0.6227  0.4966
  561MOL0     C77284   3.376   5.601  10.798 -0.1688  0.5304 -0.8473
  561MOL0     C77285   3.372   5.579  10.659 -0.9301 -1.1129 -0.1954
  561MOL0     C77286   3.367   5.457  10.598 -0.0796 -0.5324  0.7963
  561MOL0     C77287   3.368   5.339  10.678  0.7831 -2.0812  0.3695
  561MOL0     O77288   3.365   5.208  10.631 -0.1288  0.1799 -0.0807
  561MOL0     C77289   3.321   5.159  10.503  0.1180 -0.5032 -0.3450
  561MOL0     C77290   3.287   5.007  10.492 -0.3243  0.8486 -0.6605
  561MOL0     C77291   3.202   4.937  10.604  0.2906  0.1218 -0.1482
  561MOL0     C77292   3.222   4.783  10.601 -0.0671  1.3116  0.7729
  561MOL0     C77293   3.142   4.718  10.495  0.9296 -0.5768  1.2477
  561MOL0     C77294   3.154   4.560  10.510  0.1464 -0.2269 -0.8111
  561MOL0     C77295   3.092   4.465  10.408  0.1345 -0.4554  0.9012
  561MOL0     C77296   3.101   4.510  10.266 -1.2538  0.0611 -0.5491
  561MOL0     N77297   3.023   4.418  10.173  1.1413 -0.2204  0.1441
  561MOL0     C77298   2.953   4.309  10.214  0.2769  0.0945  0.9346
  561MOL0     C77299   2.897   4.256  10.103 -1.1753  0.2202 -0.5279
  561MOL0     C77300   2.801   4.142  10.097  0.5749 -0.2803  0.0275
  561MOL0     C77301   2.856   4.006  10.121 -0.5516 -0.0770 -0.9962
  561MOL0     C77302   2.765   3.886  10.071  0.4877 -0.5194  0.5520
  561MOL0     C77303   2.817   3.768  10.141  0.6843  0.1148  0.6048
  561MOL0     O77304   2.945   3.736  10.079 -0.1344  0.3869 -0.4166
  561MOL0     C77305   3.021   3.644  10.146  0.2147 -0.5894 -0.2773
  561MOL0     C77306   2.984   3.587  10.265  0.6278  1.0388 -0.1412
  561MOL0     C77307   3.074   3.510  10.341 -0.0543 -0.5492  0.3516
  561MOL0     C77308   3.017   3.464  10.478 -0.0915 -1.1785 -0.2203
  561MOL0     C77309   3.207   3.495  10.296  0.2141 -0.1137 -0.2465
  561MOL0     C77310   3.310   3.422  10.366  0.5630 -0.0567 -0.5899
  561MOL0     O77311   3.284   3.283  10.397 -0.2857 -0.5136 -0.2087
  561MOL0     C77312   3.375   3.207  10.464  0.4366  0.3875  0.0324
  561MOL0     C77313   3.484   3.168  10.396 -0.5566  0.0160  0.3270
  561MOL0     C77314   3.580   3.092  10.464 -0.4887  0.5438  0.0710
  561MOL0     C77315   3.560   3.038  10.592  0.3430  0.2362 -0.4102
  561MOL0     O77316   3.640   2.958  10.671 -0.1091 -0.2168  0.1292
  561MOL0     C77317   3.667   2.830  10.615  0.8648  0.2969  0.6754
  561MOL0     C77318   3.764   2.753  10.698  0.5042 -0.1094  0.0085
  561MOL0     C77319   3.800   2.620  10.627  0.5258 -0.0150  0.6543
  561MOL0     C77320   3.884   2.532  10.712  0.1394  0.5087  0.5254
  561MOL0     C77321   3.972   2.443  10.629  0.0079  0.7705 -0.0765
  561MOL0     C77322   3.890   2.309  10.604  0.1738  1.0752  0.3397
  561MOL0     C77323   3.993   2.221  10.517  0.4109  1.2122 -0.6751
  561MOL0     C77324   3.942   2.084  10.480 -0.0527 -0.1901 -0.1218
  561MOL0    Cl77325   3.847   1.990  10.609 -0.5142 -0.5517  0.3405
  561MOL0     C77326   3.446   3.063  10.659  0.1071  0.4449  0.5417
  561MOL0     C77327   3.344   3.144  10.585 -0.0203 -0.0036 -0.1065
  561MOL0     O77328   3.411   3.485  10.404  0.8554  0.5127 -0.0124
  561MOL0     C77329   3.241   3.543  10.166 -0.4283 -0.0326 -0.8285
  561MOL0     C77330   3.144   3.617  10.092 -0.5754  0.6898 -0.4381
  561MOL0     N77331   2.922   4.341  10.001  0.4282  0.5272  0.2210
  561MOL0     N77332   3.002   4.436  10.035 -0.2828  0.4657  0.4008
  561MOL0     C77333   3.375   5.361  10.811  0.9546  0.0837 -0.3931
  561MOL0     C77334   3.382   5.487  10.870 -0.1226 -0.2975 -0.3666
  561MOL0     C77335   3.421   5.971  10.850  0.2837  0.2186 -0.8086
  561MOL0     C77336   3.560   5.993  10.864 -0.4891  0.4938 -0.2130
  561MOL0     C77337   3.616   6.119  10.900 -0.1610  0.3597 -0.8011
  561MOL0     C77338   3.524   6.234  10.914 -0.0888  0.0774 -1.0321
  561MOL0     O77339   3.569   6.362  10.928 -0.2169  0.1949 -0.3408
  561MOL0     C77340   3.491   6.469  10.981 -0.1785 -0.7838 -0.2494
  561MOL0     C77341   3.583   6.597  11.018  0.1303  0.3794  0.9521
  561MOL0     C77342   3.503   6.685  11.117  0.1975  0.1647 -0.0055
  561MOL0     C77343   3.542   6.831  11.132 -0.6125 -0.4806  0.8886
  561MOL0     C77344   3.473   6.911  11.237 -0.9971  0.2166  0.7146
  561MOL0     C77345   3.404   6.967  11.321 -0.2484  0.5650 -0.0907
  561MOL0     C77346   3.387   6.206  10.908 -0.3418  0.9476 -1.2220
  561MOL0     C77347   3.338   6.082  10.877  0.6348  0.2808 -0.5226
  561MOL0     C77348   3.187   6.072  10.866  0.4414  0.1735  0.4230
  561MOL0     H77349   3.392   5.666  10.597  1.2535  1.5418  3.7908
  561MOL0     H77350   3.361   5.443  10.490  1.3779 -0.9458  0.7373
  561MOL0     H77351   3.378   5.187  10.414 -0.5090 -0.5966 -0.7797
  561MOL0     H77352   3.234   5.220  10.480  2.1258  1.4759 -3.4246
  561MOL0     H77353   3.251   4.978  10.393  2.0989  3.7098 -2.5596
  561MOL0     H77354   3.385   4.960  10.506 -1.4717 -1.8190 -1.0050
  561MOL0     H77355   3.236   4.970  10.702  1.2583  0.8198 -0.7053
  561MOL0     H77356   3.094   4.955  10.595  0.0419 -1.0507  0.2762
  561MOL0     H77357   3.327   4.754  10.593 -0.2450  0.9389 -0.4428
  561MOL0     H77358   3.194   4.734  10.695  2.7357 -0.2548  0.8945
  561MOL0     H77359   3.165   4.754  10.394 -6.0968 -0.7055 -0.9114
  561MOL0     H77360   3.037   4.744  10.508  1.8559  2.3782  4.1978
  561MOL0     H77361   3.259   4.530  10.519  0.4300  0.7357 -0.7967
  561MOL0     H77362   3.106   4.536  10.605  0.3610 -0.7090 -0.8211
  561MOL0     H77363   2.986   4.447  10.428 -0.7237  1.3847 -1.5032
  561MOL0     H77364   3.141   4.368  10.416 -0.7270 -0.8541  1.4718
  561MOL0     H77365   3.052   4.607  10.260 -3.5819 -1.1425 -3.5730
  561MOL0     H77366   3.206   4.513  10.235 -0.0540 -0.2875  2.9502
  561MOL0     H77367   2.949   4.249  10.305  3.6477 -2.5516 -0.4093
  561MOL0     H77368   2.759   4.150   9.997  2.3540 -1.9205 -0.9209
  561MOL0     H77369   2.711   4.151  10.160 -1.6683  0.6789 -3.0859
  561MOL0     H77370   2.947   3.997  10.062 -0.1176  3.8836 -1.1844
  561MOL0     H77371   2.886   3.995  10.226  3.9827  0.9610 -1.9748
  561MOL0     H77372   2.658   3.898  10.088  0.4597  0.9543 -0.4123
  561MOL0     H77373   2.778   3.883   9.962 -1.6330  1.7525  0.1251
  561MOL0     H77374   2.817   3.791  10.248 -0.6975 -1.3188  0.9590
  561MOL0     H77375   2.752   3.680  10.129  2.9448 -1.7135  1.0270
  561MOL0     H77376   2.884   3.595  10.306  1.1057 -0.7630  1.5284
  561MOL0     H77377   2.934   3.524  10.516  0.3093 -0.0094 -1.1471
  561MOL0     H77378   3.089   3.483  10.559 -1.7329  2.0813  0.6712
  561MOL0     H77379   2.994   3.357  10.473  0.8378 -1.3650 -0.6594
  561MOL0     H77380   3.510   3.215  10.301 -0.1469  2.9203  1.7553
  561MOL0     H77381   3.671   3.056  10.417 -0.3827 -1.8711  1.9200
  561MOL0     H77382   3.567   2.785  10.617  1.4265 -1.1973 -1.5826
  561MOL0     H77383   3.700   2.849  10.513 -3.1247  1.8751 -0.5308
  561MOL0     H77384   3.851   2.812  10.728  0.8572 -1.0830  0.9828
  561MOL0     H77385   3.713   2.736  10.794 -1.4891 -0.3400 -1.0428
  561MOL0     H77386   3.859   2.644  10.538 -1.6497 -3.1110 -1.8565
  561MOL0     H77387   3.708   2.564  10.606 -2.0360  3.3316  1.8970
  561MOL0     H77388   3.814   2.474  10.773 -3.7197  3.4137 -0.7305
  561MOL0     H77389   3.942   2.601  10.775  0.2535 -0.5889  1.6763
  561MOL0     H77390   4.002   2.486  10.532  1.9071 -0.6532 -0.1750
  561MOL0     H77391   4.067   2.427  10.680  0.9323 -0.1637 -1.9773
  561MOL0     H77392   3.802   2.322  10.539 -1.0010  2.3879  2.1109
  561MOL0     H77393   3.848   2.275  10.699  0.2924  1.3278  0.4830
  561MOL0     H77394   4.084   2.203  10.574  0.8178 -2.6971 -2.2252
  561MOL0     H77395   4.023   2.274  10.426  0.6967  1.6783 -0.3125
  561MOL0     H77396   4.020   2.013  10.453  0.1914  0.9007 -2.5333
  561MOL0     H77397   3.876   2.109  10.396  0.7016 -0.3635 -0.7832
  561MOL0     H77398   3.429   3.014  10.754  1.7002  2.6788  2.0915
  561MOL0     H77399   3.244   3.159  10.624 -0.7959  0.6209 -2.2127
  561MOL0     H77400   3.343   3.526  10.134 -0.2867 -1.1147  0.1410
  561MOL0     H77401   3.170   3.662   9.997 -1.9496  1.0697 -0.6665
  561MOL0     H77402   3.372   5.275  10.878 -1.4246  1.0551  0.8755
  561MOL0     H77403   3.382   5.505  10.977  2.1717  1.0014 -0.5271
  561MOL0     H77404   3.638   5.923  10.839  0.4104  1.2451  0.4294
  561MOL0     H77405   3.725   6.119  10.895 -0.0453 -1.9530  0.3187
  561MOL0     H77406   3.406   6.484  10.914 -0.6920  1.1023  0.7468
  561MOL0     H77407   3.440   6.433  11.071 -2.9565 -0.2451 -1.5069
  561MOL0     H77408   3.617   6.654  10.932 -3.5245  1.6274  0.1563
  561MOL0     H77409   3.666   6.552  11.073  1.0332 -0.9001 -1.3149
  561MOL0     H77410   3.398   6.669  11.095  0.8755 -0.2684 -3.6030
  561MOL0     H77411   3.508   6.630  11.211 -2.3751 -2.6047 -1.3403
  561MOL0     H77412   3.514   6.874  11.035  1.3860  2.5488  1.5453
  561MOL0     H77413   3.651   6.834  11.140 -0.5826 -1.9980  1.4361
  561MOL0     H77414   3.347   7.007  11.403  1.2579 -0.0524  1.3028
  561MOL0     H77415   3.313   6.283  10.930 -0.1735  0.4646  1.3644
  561MOL0     H77416   3.146   5.979  10.905  0.4408  0.6935  1.7053
  561MOL0     H77417   3.140   6.167  10.894  1.1356  1.4488 -2.3278
  561MOL0     H77418   3.158   6.067  10.761  2.1326  4.0710 -0.4277
  562MOL0     O77419   5.726   6.413   5.471  0.8439  0.5505  0.3084
  562MOL0     C77420   5.845   6.402   5.479 -0.6213 -1.0702 -0.0076
  562MOL0     O77421   5.941   6.488   5.417 -0.5697  0.5073  0.1590
  562MOL0     C77422   5.896   6.585   5.335 -0.3040  0.1885 -0.5229
  562MOL0     C77423   5.896   6.720   5.371 -0.0898  0.2244  0.0809
  562MOL0     C77424   5.834   6.821   5.298 -0.5953 -0.0511  0.4200
  562MOL0     C77425   5.776   6.797   5.172  0.1853  0.6757  0.1016
  562MOL0     O77426   5.721   6.912   5.113  0.7021  0.4248  0.0793
  562MOL0     C77427   5.658   6.904   4.979 -0.1075 -1.0742 -0.4234
  562MOL0     C77428   5.597   7.039   4.930  0.0802  0.1049 -0.4118
  562MOL0     C77429   5.717   7.130   4.887  1.3280 -0.3064  0.9781
  562MOL0     C77430   5.676   7.262   4.831 -0.8751 -0.0018 -0.1738
  562MOL0     C77431   5.794   7.359   4.817  0.4684  0.1409 -0.0731
  562MOL0     C77432   5.754   7.493   4.763  0.1010  0.1541  0.1289
  562MOL0     C77433   5.889   7.573   4.770  0.4178 -0.1616  1.8578
  562MOL0     C77434   5.895   7.675   4.642 -0.3252  0.6190 -0.3033
  562MOL0     N77435   6.008   7.763   4.637 -0.8310  0.4113 -0.5386
  562MOL0     C77436   6.038   7.839   4.749 -0.4394 -0.2185 -1.4542
  562MOL0     C77437   6.150   7.911   4.716  0.8319  0.1835  0.1905
  562MOL0     C77438   6.212   8.023   4.789 -0.3296 -0.7001  0.7537
  562MOL0     C77439   6.253   8.141   4.708  0.9391  0.3051 -0.7815
  562MOL0     C77440   6.308   8.270   4.778 -0.8196  0.0391  0.7806
  562MOL0     C77441   6.438   8.235   4.851  0.3612  0.0526  0.2212
  562MOL0     O77442   6.492   8.354   4.911 -1.1713  0.0173  0.7524
  562MOL0     C77443   6.600   8.423   4.857  0.4390  0.7541 -1.1629
  562MOL0     C77444   6.677   8.491   4.954 -0.4691 -0.0453  0.6719
  562MOL0     C77445   6.805   8.547   4.933 -0.3092 -0.3441  0.4985
  562MOL0     C77446   6.888   8.577   5.056 -0.3521  0.2659  0.5349
  562MOL0     C77447   6.834   8.558   4.791 -1.4040 -0.2846 -0.5156
  562MOL0     C77448   6.967   8.611   4.744 -0.6384  0.1245  0.9408
  562MOL0     O77449   6.997   8.596   4.610  0.1551 -0.2512 -0.7486
  562MOL0     C77450   7.126   8.610   4.573 -1.9729 -0.5984 -0.3222
  562MOL0     C77451   7.149   8.727   4.501 -1.1309 -0.1093  0.2063
  562MOL0     C77452   7.287   8.753   4.464 -0.1710 -0.5979  0.3463
  562MOL0     C77453   7.386   8.663   4.499 -0.1457 -0.9848 -0.7509
  562MOL0     O77454   7.523   8.674   4.482  0.1157 -0.3551 -0.5914
  562MOL0     C77455   7.588   8.801   4.449  0.4152 -0.3298 -0.0658
  562MOL0     C77456   7.734   8.777   4.446  0.3240 -0.8919 -0.0649
  562MOL0     C77457   7.791   8.742   4.585  0.5965  0.4456 -0.7357
  562MOL0     C77458   7.926   8.662   4.578 -0.1662  1.1201  0.1384
  562MOL0     C77459   7.901   8.519   4.586  0.4387  0.3899  0.4386
  562MOL0     C77460   8.011   8.434   4.528 -0.7371 -0.0919  0.0363
  562MOL0     C77461   8.038   8.433   4.379 -0.7066  0.0379  0.4293
  562MOL0     C77462   7.912   8.389   4.303 -0.6911 -0.0474 -0.8122
  562MOL0    Cl77463   7.968   8.374   4.136  0.7984  0.2673  0.1069
  562MOL0     C77464   7.352   8.543   4.564 -0.4709 -0.2302 -0.1516
  562MOL0     C77465   7.221   8.521   4.601 -0.3577 -0.1291 -0.2719
  562MOL0     O77466   7.042   8.665   4.821 -0.5467  0.7242 -0.2536
  562MOL0     C77467   6.740   8.523   4.692  0.1030  0.3302 -1.2245
  562MOL0     C77468   6.623   8.451   4.726  0.7186 -1.1611  0.8131
  562MOL0     N77469   6.174   7.874   4.576  0.3913 -0.5243 -0.4369
  562MOL0     N77470   6.099   7.776   4.536  0.0742 -0.3708 -0.2797
  562MOL0     C77471   5.764   6.662   5.131 -0.0008  0.1312  0.5916
  562MOL0     C77472   5.824   6.554   5.212 -0.3856  0.4947 -0.3279
  562MOL0     C77473   5.914   6.306   5.562  1.0217  0.8054 -0.1145
  562MOL0     C77474   6.000   6.214   5.516 -0.5116  0.3411  0.3404
  562MOL0     C77475   6.070   6.122   5.594 -0.4731 -0.7149 -0.4319
  562MOL0     C77476   6.026   6.104   5.723  0.4164 -0.2317 -0.1930
  562MOL0     O77477   6.090   6.009   5.797 -0.0555  0.3709 -0.3582
  562MOL0     C77478   6.001   5.927   5.883 -0.3896 -0.0808 -0.1494
  562MOL0     C77479   6.021   5.966   6.030 -0.3583 -0.1193  0.2358
  562MOL0     C77480   5.937   5.893   6.125  0.3575  0.1278 -0.5409
  562MOL0     C77481   5.952   5.744   6.157 -0.3159  0.6536 -0.1355
  562MOL0     C77482   5.906   5.649   6.053  0.1082  0.8431 -0.2230
  562MOL0     C77483   5.859   5.595   5.958 -0.2356 -0.0164 -0.3170
  562MOL0     C77484   5.930   6.187   5.771 -0.0262 -1.4984 -0.5577
  562MOL0     C77485   5.869   6.290   5.694 -0.0564 -0.2008 -0.1179
  562MOL0     C77486   5.778   6.389   5.768 -1.0911  0.1397  0.6464
  562MOL0     H77487   5.931   6.749   5.469 -1.9950 -0.7834  1.1205
  562MOL0     H77488   5.847   6.922   5.337  0.1157  0.6258 -1.4492
  562MOL0     H77489   5.578   6.830   4.979  0.7387 -2.0266 -0.7910
  562MOL0     H77490   5.735   6.880   4.905  4.8646  4.6703  2.0266
  562MOL0     H77491   5.539   7.023   4.838 -1.9768  2.6714  0.3218
  562MOL0     H77492   5.528   7.095   4.994 -2.2214 -1.5669 -1.2624
  562MOL0     H77493   5.791   7.140   4.967  0.5834  0.4930  1.5778
  562MOL0     H77494   5.766   7.079   4.803 -0.3788 -0.3911 -0.0010
  562MOL0     H77495   5.629   7.241   4.734 -0.9053 -0.3861 -0.0752
  562MOL0     H77496   5.599   7.316   4.887 -1.9025  0.0990 -1.6190
  562MOL0     H77497   5.870   7.316   4.751  0.0262  1.2754 -1.3667
  562MOL0     H77498   5.834   7.383   4.916 -0.3543  0.1675  0.2609
  562MOL0     H77499   5.705   7.487   4.665 -0.4646  1.9161  0.2709
  562MOL0     H77500   5.678   7.538   4.829 -1.8150 -1.4405 -0.8588
  562MOL0     H77501   5.982   7.517   4.758  0.7065  0.9048 -3.9599
  562MOL0     H77502   5.881   7.632   4.862 -3.0667  0.8471  1.0611
  562MOL0     H77503   5.895   7.616   4.549  0.0433 -0.5496  0.4217
  562MOL0     H77504   5.801   7.731   4.652  1.4581  3.4343  3.0336
  562MOL0     H77505   5.969   7.845   4.833 -0.7416 -2.5374 -1.4775
  562MOL0     H77506   6.297   7.978   4.840  0.0208  0.5570  1.3152
  562MOL0     H77507   6.139   8.052   4.866 -1.8719 -0.6502 -0.6645
  562MOL0     H77508   6.318   8.110   4.625  3.8912  1.0339  1.1242
  562MOL0     H77509   6.158   8.175   4.663  1.0278  2.1502  0.2954
  562MOL0     H77510   6.319   8.343   4.698 -1.5935 -0.6591  0.0114
  562MOL0     H77511   6.231   8.303   4.848 -2.5509  1.9848 -1.8339
  562MOL0     H77512   6.429   8.166   4.935  0.9154  0.4393  0.6038
  562MOL0     H77513   6.498   8.187   4.773  0.1739 -1.3261  0.8997
  562MOL0     H77514   6.642   8.482   5.056 -0.0901  0.1861  0.8210
  562MOL0     H77515   6.816   8.577   5.138 -0.7954  0.5821  0.1558
  562MOL0     H77516   6.936   8.675   5.070 -1.2770  0.8520 -0.1996
  562MOL0     H77517   6.958   8.493   5.065  0.4575  1.1673  4.8367
  562MOL0     H77518   7.083   8.813   4.489  0.3305  1.0038 -0.2751
  562MOL0     H77519   7.319   8.839   4.406 -0.9314 -1.2642 -1.0987
  562MOL0     H77520   7.566   8.842   4.349  3.5777  0.8141 -0.4181
  562MOL0     H77521   7.555   8.872   4.526  2.4147  0.8348 -0.2210
  562MOL0     H77522   7.759   8.707   4.366 -0.5010 -0.8042 -0.4042
  562MOL0     H77523   7.781   8.869   4.410  1.7687 -1.9972 -1.1576
  562MOL0     H77524   7.718   8.694   4.650 -0.3337  2.6457 -0.0668
  562MOL0     H77525   7.817   8.830   4.645  2.5951 -1.6360  1.7239
  562MOL0     H77526   7.996   8.706   4.649  2.4990  2.7421 -3.1950
  562MOL0     H77527   7.978   8.669   4.482  0.8872 -1.8254  0.3830
  562MOL0     H77528   7.881   8.495   4.691 -2.8895 -1.0248 -0.3958
  562MOL0     H77529   7.804   8.511   4.536  0.1553  4.0157  0.1845
  562MOL0     H77530   7.977   8.336   4.562 -0.9668  0.2018  0.6816
  562MOL0     H77531   8.100   8.455   4.588 -2.0761  0.1236  2.0584
  562MOL0     H77532   8.114   8.357   4.360 -1.0323 -0.9090  2.6693
  562MOL0     H77533   8.071   8.528   4.336 -1.4602 -1.5443 -4.3286
  562MOL0     H77534   7.839   8.465   4.329  0.9991  1.1096  0.8296
  562MOL0     H77535   7.881   8.290   4.340 -2.9897  0.1528 -2.0034
  562MOL0     H77536   7.437   8.481   4.591 -0.0540  0.6758  0.7001
  562MOL0     H77537   7.187   8.441   4.666 -1.0476  0.9819  0.7832
  562MOL0     H77538   6.762   8.544   4.587 -0.2906  1.6059 -1.0717
  562MOL0     H77539   6.561   8.420   4.642 -1.3820 -0.5962  2.0682
  562MOL0     H77540   5.718   6.637   5.036  0.5984 -0.3479  0.4226
  562MOL0     H77541   5.813   6.450   5.184 -1.9052  0.5418  0.0358
  562MOL0     H77542   6.022   6.225   5.410 -0.6040  1.2863  0.4162
  562MOL0     H77543   6.148   6.059   5.553  0.2033 -0.2603  0.1323
  562MOL0     H77544   5.895   5.942   5.861 -0.3231 -0.3377 -0.6662
  562MOL0     H77545   6.027   5.823   5.859  2.2843 -0.2367  2.8364
  562MOL0     H77546   5.991   6.070   6.048  2.6117  1.0385 -0.8143
  562MOL0     H77547   6.127   5.943   6.045  0.2498  1.9497 -0.4777
  562MOL0     H77548   5.954   5.944   6.221 -2.0984 -0.3243  0.2199
  562MOL0     H77549   5.833   5.909   6.095 -0.1980  0.2540  1.2974
  562MOL0     H77550   5.892   5.723   6.246  1.2274 -2.2162  0.3551
  562MOL0     H77551   6.055   5.712   6.178 -1.4074 -2.1957  1.2945
  562MOL0     H77552   5.799   5.542   5.887 -1.8702 -2.4312  2.6174
  562MOL0     H77553   5.896   6.188   5.874 -0.6776 -2.2346 -0.7543
  562MOL0     H77554   5.673   6.385   5.739 -1.3538 -1.8003  1.6951
  562MOL0     H77555   5.784   6.366   5.875  1.8897  1.5638  0.8862
  562MOL0     H77556   5.825   6.486   5.750  0.1355 -0.8006 -1.6651
  563MOL0     O77557   9.481   3.910   5.167 -0.3357 -0.0302  0.2319
  563MOL0     C77558   9.368   3.914   5.216  0.3696  0.2767  0.8951
  563MOL0     O77559   9.271   3.813   5.222 -0.3227  0.2231  0.2089
  563MOL0     C77560   9.270   3.715   5.130  0.0361  0.0062  0.7213
  563MOL0     C77561   9.307   3.739   4.989  0.0083 -0.3562  0.2851
  563MOL0     C77562   9.304   3.621   4.906 -0.2258  0.3818  0.3337
  563MOL0     C77563   9.269   3.497   4.946 -1.0699  0.6010 -0.1411
  563MOL0     O77564   9.249   3.386   4.865  0.5672  0.0364 -0.0527
  563MOL0     C77565   9.331   3.386   4.741 -0.3520  0.2262 -0.0559
  563MOL0     C77566   9.336   3.243   4.669 -0.4437  1.0830 -0.9853
  563MOL0     C77567   9.380   3.135   4.783  0.3081  0.4805  0.3027
  563MOL0     C77568   9.316   3.007   4.732 -0.7698 -1.0952 -0.2350
  563MOL0     C77569   9.382   2.889   4.817  0.5675  0.0702  0.2137
  563MOL0     C77570   9.346   2.872   4.953  0.0415  0.0826 -0.3121
  563MOL0     C77571   9.408   2.749   5.034 -0.6755  0.4985 -0.0393
  563MOL0     C77572   9.542   2.784   5.114  0.6474  0.7782  0.7575
  563MOL0     N77573   9.645   2.825   5.014  0.0039  0.4129  0.0031
  563MOL0     C77574   9.719   2.743   4.929  0.1353 -0.4542  0.0845
  563MOL0     C77575   9.802   2.832   4.874  1.0064  0.8108 -0.0626
  563MOL0     C77576   9.900   2.779   4.765 -0.1912  0.1764 -1.0966
  563MOL0     C77577  10.040   2.847   4.768  0.1935  0.1262 -0.8252
  563MOL0     C77578  10.128   2.790   4.664 -0.4082  0.4906 -0.0429
  563MOL0     C77579  10.279   2.833   4.673  0.8283 -0.7713  0.6145
  563MOL0     O77580  10.350   2.819   4.545  0.1361 -0.5284 -0.5870
  563MOL0     C77581  10.345   2.698   4.480 -0.2268 -0.0269  0.4298
  563MOL0     C77582  10.348   2.706   4.335  1.1288  0.3498 -0.5065
  563MOL0     C77583  10.336   2.590   4.260 -0.6854  0.0309  0.0889
  563MOL0     C77584  10.308   2.600   4.109  0.2028  1.0475 -0.2388
  563MOL0     C77585  10.356   2.461   4.323  0.1701 -0.2584  0.7284
  563MOL0     C77586  10.385   2.342   4.243 -0.3131 -0.0342  0.7185
  563MOL0     O77587  10.341   2.215   4.282 -0.1510 -0.6216  0.9979
  563MOL0     C77588  10.214   2.210   4.331  1.0183  0.4444 -0.3849
  563MOL0     C77589  10.182   2.128   4.439 -0.6508 -0.1487 -0.7076
  563MOL0     C77590  10.048   2.112   4.473  0.5045  0.8116  0.4631
  563MOL0     C77591   9.942   2.185   4.414 -0.2358 -0.3064  0.2677
  563MOL0     O77592   9.813   2.144   4.446  0.3842  0.1654  0.7473
  563MOL0     C77593   9.724   2.137   4.327 -0.1898  1.2853 -1.0739
  563MOL0     C77594   9.767   2.032   4.224 -0.1839 -0.3005  0.1579
  563MOL0     C77595   9.648   2.007   4.128  0.2172 -0.3293 -0.4038
  563MOL0     C77596   9.705   1.910   4.019  0.2944  0.2763 -0.3402
  563MOL0     C77597   9.594   1.841   3.934 -0.8155 -0.8430 -0.0803
  563MOL0     C77598   9.547   1.923   3.813 -1.3862 -0.2505 -0.7643
  563MOL0     C77599   9.437   1.860   3.738 -0.2415  1.0480 -0.0079
  563MOL0     C77600   9.496   1.778   3.624 -0.2253  0.5769  0.1537
  563MOL0    Cl77601   9.576   1.875   3.507  0.1113 -0.1049 -0.1661
  563MOL0     C77602   9.973   2.276   4.309 -0.3050 -1.1060 -0.4604
  563MOL0     C77603  10.110   2.287   4.274 -0.6027  0.0588  0.3065
  563MOL0     O77604  10.439   2.359   4.130  0.2448  0.5486 -0.5943
  563MOL0     C77605  10.368   2.459   4.463 -0.1020  0.0954  0.1051
  563MOL0     C77606  10.349   2.573   4.545 -0.3535 -0.3737  0.4181
  563MOL0     N77607   9.780   2.965   4.907  0.4013  0.7885 -0.5848
  563MOL0     N77608   9.688   2.953   4.998  1.0989  0.1581  0.1108
  563MOL0     C77609   9.240   3.483   5.082  0.9392  0.1169 -0.9031
  563MOL0     C77610   9.242   3.585   5.180 -0.0533  0.0369  0.9055
  563MOL0     C77611   9.334   4.032   5.297  0.0986 -0.0665  0.0704
  563MOL0     C77612   9.214   4.090   5.265  1.0786  0.6151 -0.0229
  563MOL0     C77613   9.174   4.218   5.311  0.2054 -0.5262  0.1088
  563MOL0     C77614   9.266   4.286   5.388 -0.6404  0.5242  0.4279
  563MOL0     O77615   9.219   4.405   5.431 -1.5863  0.0947  0.2741
  563MOL0     C77616   9.292   4.484   5.512  0.8366 -0.6583 -0.2959
  563MOL0     C77617   9.215   4.625   5.521 -0.1847  1.2380  0.0879
  563MOL0     C77618   9.268   4.692   5.643  0.2008 -0.3974  0.2261
  563MOL0     C77619   9.183   4.833   5.669 -0.7698 -0.1614  0.8478
  563MOL0     C77620   9.164   4.907   5.544  1.1862 -0.8616  0.1443
  563MOL0     C77621   9.136   4.956   5.433  0.2556 -0.6034  0.1268
  563MOL0     C77622   9.398   4.238   5.417 -1.0055  0.3144 -0.2608
  563MOL0     C77623   9.433   4.109   5.365 -1.4108  0.5020  0.3066
  563MOL0     C77624   9.572   4.071   5.387  0.6381 -0.8552  0.4578
  563MOL0     H77625   9.342   3.837   4.959  0.8185 -0.9785 -0.8795
  563MOL0     H77626   9.326   3.639   4.801 -2.8297  3.1457  0.1278
  563MOL0     H77627   9.426   3.434   4.765 -1.3706  2.6441 -0.5424
  563MOL0     H77628   9.284   3.452   4.667  2.0625  2.4479  0.2395
  563MOL0     H77629   9.242   3.218   4.619 -0.0909  0.2013 -1.2325
  563MOL0     H77630   9.403   3.226   4.585 -0.7061  1.1887 -1.2160
  563MOL0     H77631   9.487   3.124   4.803  0.1493 -1.7760  0.1660
  563MOL0     H77632   9.330   3.164   4.876 -1.7805 -0.1662 -0.5562
  563MOL0     H77633   9.207   3.014   4.732 -1.0086 -2.1434  4.0561
  563MOL0     H77634   9.344   2.999   4.626  0.5031  0.6622 -0.0922
  563MOL0     H77635   9.490   2.881   4.803  0.4324 -0.0870 -0.8341
  563MOL0     H77636   9.340   2.795   4.781 -1.4993 -0.4184  3.4531
  563MOL0     H77637   9.376   2.959   5.013  0.1153  0.2091 -0.5295
  563MOL0     H77638   9.238   2.870   4.941 -0.8695  2.3792  4.7189
  563MOL0     H77639   9.423   2.656   4.978 -0.6831  1.8454 -2.4279
  563MOL0     H77640   9.329   2.722   5.105  0.3873 -2.9041  0.0664
  563MOL0     H77641   9.518   2.859   5.190 -2.1680  0.2689  0.4652
  563MOL0     H77642   9.574   2.693   5.165  0.0749  0.3792  0.4091
  563MOL0     H77643   9.719   2.636   4.908  0.5707 -0.3627 -0.4115
  563MOL0     H77644   9.864   2.807   4.666  0.5026 -0.9646 -1.6829
  563MOL0     H77645   9.905   2.670   4.757 -0.8830 -0.0171  0.6617
  563MOL0     H77646  10.036   2.953   4.741  2.3826 -0.0394 -2.0224
  563MOL0     H77647  10.074   2.831   4.871  2.2270  0.8574 -1.3284
  563MOL0     H77648  10.117   2.681   4.665 -1.6054  0.4176  5.2429
  563MOL0     H77649  10.111   2.825   4.562  6.3532 -0.2918 -1.9035
  563MOL0     H77650  10.285   2.937   4.706  6.0908 -0.9936  1.1728
  563MOL0     H77651  10.337   2.772   4.743  1.8210 -0.5565 -0.0007
  563MOL0     H77652  10.360   2.799   4.280  1.0033 -0.3447 -1.7456
  563MOL0     H77653  10.406   2.598   4.061 -0.4991  0.3248 -1.7139
  563MOL0     H77654  10.254   2.694   4.094 -0.5417  0.7618  0.5415
  563MOL0     H77655  10.245   2.519   4.071 -1.6170  0.2253  3.9043
  563MOL0     H77656  10.250   2.071   4.502 -0.2285 -0.4120 -1.4008
  563MOL0     H77657  10.014   2.054   4.559 -4.1352  0.1512 -1.4926
  563MOL0     H77658   9.627   2.096   4.357  0.4757  0.2203 -0.2983
  563MOL0     H77659   9.714   2.238   4.287  1.6856  0.6232 -3.5177
  563MOL0     H77660   9.849   2.080   4.168  0.9734  0.3685  2.3236
  563MOL0     H77661   9.814   1.950   4.279  1.2350  1.0895  1.1100
  563MOL0     H77662   9.603   2.096   4.082  1.7087  1.5064  1.5109
  563MOL0     H77663   9.576   1.946   4.184  1.1191 -0.0540  1.1008
  563MOL0     H77664   9.758   1.826   4.064 -1.3222 -0.4964  0.2001
  563MOL0     H77665   9.779   1.959   3.954  1.2124 -0.6188  0.0074
  563MOL0     H77666   9.629   1.747   3.891  1.2172 -0.6221  0.9672
  563MOL0     H77667   9.515   1.821   4.007 -0.0398 -1.1322  0.6989
  563MOL0     H77668   9.640   1.941   3.758 -1.1042  2.8288  0.4841
  563MOL0     H77669   9.511   2.024   3.833 -0.7396  0.3410 -2.4091
  563MOL0     H77670   9.376   1.945   3.706 -2.3392  0.9832  3.3125
  563MOL0     H77671   9.381   1.795   3.807  1.0414  1.5578  1.5909
  563MOL0     H77672   9.420   1.727   3.563  2.1773  1.1871 -3.6626
  563MOL0     H77673   9.556   1.698   3.667 -3.4479 -2.0412  0.2136
  563MOL0     H77674   9.907   2.344   4.255 -0.0388  0.1359  0.7245
  563MOL0     H77675  10.131   2.357   4.194 -1.0877 -0.1201  0.0163
  563MOL0     H77676  10.408   2.366   4.500 -0.6717 -0.8311 -1.5466
  563MOL0     H77677  10.360   2.565   4.653 -1.3601  0.4134  0.5933
  563MOL0     H77678   9.220   3.383   5.120 -0.2504  0.7250  0.1480
  563MOL0     H77679   9.235   3.559   5.285 -0.4297 -1.0620  0.6164
  563MOL0     H77680   9.131   4.046   5.211  0.4267 -0.3410  1.6708
  563MOL0     H77681   9.079   4.268   5.298  0.4212  0.5682  2.2405
  563MOL0     H77682   9.305   4.451   5.616  0.4994  0.0398 -0.0310
  563MOL0     H77683   9.381   4.517   5.459  0.4401  0.0618 -0.5140
  563MOL0     H77684   9.107   4.609   5.527 -0.0020 -1.6454 -2.1115
  563MOL0     H77685   9.226   4.669   5.421  1.6812 -1.2946 -0.9272
  563MOL0     H77686   9.276   4.622   5.727  0.8730 -2.3738 -1.4040
  563MOL0     H77687   9.375   4.710   5.628  0.6752 -0.4827  2.9985
  563MOL0     H77688   9.237   4.888   5.747 -0.4002  1.3962 -0.4818
  563MOL0     H77689   9.081   4.821   5.708 -1.0392 -3.5284 -0.5512
  563MOL0     H77690   9.122   5.005   5.339 -3.8256  1.4593  1.5393
  563MOL0     H77691   9.479   4.295   5.461  1.7479 -0.1409 -4.2478
  563MOL0     H77692   9.583   3.970   5.349 -0.0950  0.3376 -3.3201
  563MOL0     H77693   9.630   4.139   5.324  0.2812 -2.4213 -1.6745
  563MOL0     H77694   9.606   4.087   5.490  1.3008  0.5304  0.0539
  564MOL0     O77695   1.065   5.433   6.174 -0.0968 -0.4055  0.2408
  564MOL0     C77696   1.022   5.533   6.111  0.5480 -0.3388  1.2717
  564MOL0     O77697   1.034   5.547   5.980  0.1790 -0.8062  0.4398
  564MOL0     C77698   1.070   5.432   5.900 -0.0899 -0.7409  0.0607
  564MOL0     C77699   0.970   5.388   5.810 -0.7856  0.4121 -0.5863
  564MOL0     C77700   1.003   5.278   5.728 -0.0453 -0.8243 -0.1752
  564MOL0     C77701   1.130   5.214   5.730 -0.1169 -0.7672  0.6884
  564MOL0     O77702   1.145   5.101   5.647 -0.3683  1.0432  0.6283
  564MOL0     C77703   1.271   5.051   5.616 -0.1102  0.0186  0.1438
  564MOL0     C77704   1.260   4.912   5.537 -0.2044  0.5980  0.0196
  564MOL0     C77705   1.394   4.837   5.548  0.2601 -0.2590 -0.6419
  564MOL0     C77706   1.401   4.721   5.442  0.6872  0.1629 -0.7811
  564MOL0     C77707   1.533   4.638   5.441  0.0052  1.0719 -1.0175
  564MOL0     C77708   1.655   4.718   5.410 -0.3668  1.0032  0.5603
  564MOL0     C77709   1.771   4.620   5.360 -0.0092  0.1534  0.1000
  564MOL0     C77710   1.890   4.709   5.315 -0.4603  0.1823  0.0389
  564MOL0     N77711   2.009   4.645   5.262 -0.0035  0.6047 -0.1654
  564MOL0     C77712   2.052   4.629   5.132  0.3345 -0.9024  0.3144
  564MOL0     C77713   2.165   4.551   5.125 -0.5639 -0.0396  0.1263
  564MOL0     C77714   2.260   4.543   5.007  0.4523  0.2186 -0.9188
  564MOL0     C77715   2.373   4.443   5.041 -0.3176 -0.1366  0.5959
  564MOL0     C77716   2.480   4.431   4.929 -0.7945 -0.0419 -0.5171
  564MOL0     C77717   2.418   4.373   4.799  0.2588 -0.0776  0.4489
  564MOL0     O77718   2.488   4.397   4.681 -0.4512 -0.3943  0.1431
  564MOL0     C77719   2.457   4.357   4.556 -0.2440  0.4277  0.7603
  564MOL0     C77720   2.544   4.376   4.453 -0.7328  0.0477 -0.7376
  564MOL0     C77721   2.531   4.317   4.332  0.1104 -0.3355  0.7799
  564MOL0     C77722   2.642   4.355   4.238  0.1864 -0.7311 -0.4152
  564MOL0     C77723   2.425   4.230   4.305  0.7956 -1.1351 -0.0438
  564MOL0     C77724   2.412   4.168   4.164  0.1523  0.3964 -0.2116
  564MOL0     O77725   2.518   4.168   4.064  0.3768  0.5438 -0.2299
  564MOL0     C77726   2.506   4.109   3.933 -0.2857  0.5045  0.0158
  564MOL0     C77727   2.610   4.145   3.849 -0.0383  1.1682 -0.9464
  564MOL0     C77728   2.633   4.084   3.724 -0.6420 -0.5168  0.9448
  564MOL0     C77729   2.550   3.978   3.677 -0.9245  0.3431 -0.3914
  564MOL0     O77730   2.576   3.922   3.555  0.5318  0.3300  0.8149
  564MOL0     C77731   2.454   3.877   3.487 -0.6214 -0.1044 -0.8211
  564MOL0     C77732   2.467   3.864   3.334  0.0757 -0.3431  0.1098
  564MOL0     C77733   2.535   3.988   3.263 -0.8750 -0.9984  0.6901
  564MOL0     C77734   2.601   3.957   3.132  1.3174  0.4614 -0.1546
  564MOL0     C77735   2.680   4.066   3.071  1.0032  0.1235 -0.1282
  564MOL0     C77736   2.813   4.096   3.140 -0.2857 -0.9309  0.6198
  564MOL0     C77737   2.911   4.190   3.082 -0.6086 -1.2917 -0.0686
  564MOL0     C77738   2.987   4.116   2.974 -0.3412  0.5728 -0.4306
  564MOL0    Cl77739   3.082   4.235   2.879  0.3890  0.2828  0.6060
  564MOL0     C77740   2.439   3.949   3.760 -0.1074 -0.5651  0.7326
  564MOL0     C77741   2.417   4.011   3.879 -0.5459 -0.1919  0.2768
  564MOL0     O77742   2.304   4.115   4.134  0.3482 -0.3983  0.1921
  564MOL0     C77743   2.325   4.210   4.410 -0.6494  0.5796  0.2133
  564MOL0     C77744   2.343   4.275   4.537  0.2768  0.8731 -0.0880
  564MOL0     N77745   2.187   4.510   5.253 -0.6440 -0.5051 -0.1827
  564MOL0     N77746   2.099   4.567   5.326 -0.1474  0.3771 -0.5289
  564MOL0     C77747   1.229   5.260   5.822  1.0097 -0.1424 -0.9177
  564MOL0     C77748   1.199   5.371   5.904  0.6629  0.6781  0.1120
  564MOL0     C77749   0.968   5.660   6.190  0.8532  0.6093  0.5333
  564MOL0     C77750   0.912   5.768   6.114 -0.1617  1.0115  1.1393
  564MOL0     C77751   0.886   5.889   6.174 -0.6235 -0.2640  0.2219
  564MOL0     C77752   0.883   5.900   6.312  0.5162  0.5654 -0.3734
  564MOL0     O77753   0.848   6.008   6.382  0.1053  0.7345  0.4816
  564MOL0     C77754   0.872   6.140   6.326  0.3996  0.0552 -0.1372
  564MOL0     C77755   0.763   6.225   6.378  0.4406  0.0477  0.4223
  564MOL0     C77756   0.749   6.210   6.533  0.0146 -0.7615  0.8479
  564MOL0     C77757   0.664   6.319   6.599 -0.7980  0.1286  0.7081
  564MOL0     C77758   0.531   6.337   6.546 -0.2828  0.2456  0.2029
  564MOL0     C77759   0.420   6.376   6.517 -0.5811 -0.2236  0.5322
  564MOL0     C77760   0.938   5.791   6.385  0.2456 -0.5087 -0.2485
  564MOL0     C77761   0.992   5.673   6.324 -0.0774  0.2105 -1.6708
  564MOL0     C77762   1.058   5.570   6.412 -0.0208 -0.6048  0.9313
  564MOL0     H77763   0.873   5.435   5.825  0.1939  2.1439  0.7511
  564MOL0     H77764   0.921   5.238   5.670 -3.0083  0.6559  2.6519
  564MOL0     H77765   1.318   5.029   5.713 -1.6559  2.0831  1.4487
  564MOL0     H77766   1.335   5.126   5.569 -0.5091  0.3323  0.0969
  564MOL0     H77767   1.183   4.861   5.594  1.3305  0.7423  2.3584
  564MOL0     H77768   1.240   4.922   5.430  0.5109  1.8911 -0.0164
  564MOL0     H77769   1.475   4.909   5.537  0.4471  0.0830  2.2488
  564MOL0     H77770   1.390   4.799   5.650  3.1769  0.5997 -0.1148
  564MOL0     H77771   1.313   4.657   5.449  0.2656  0.8049 -0.0516
  564MOL0     H77772   1.386   4.764   5.342 -1.3670 -2.2946 -1.6245
  564MOL0     H77773   1.519   4.563   5.363  2.8485 -0.0200 -0.5921
  564MOL0     H77774   1.550   4.592   5.539 -3.9078 -0.5598 -0.8822
  564MOL0     H77775   1.632   4.796   5.337  0.7364 -0.4595 -1.4201
  564MOL0     H77776   1.695   4.778   5.493  0.6029  0.7000  0.3145
  564MOL0     H77777   1.750   4.566   5.268  1.0357 -0.2060  0.0576
  564MOL0     H77778   1.802   4.552   5.439  0.2552  0.7937  0.5622
  564MOL0     H77779   1.856   4.777   5.236 -3.0096 -1.0827 -0.0342
  564MOL0     H77780   1.923   4.766   5.403  2.3458 -1.1808  0.0012
  564MOL0     H77781   2.026   4.683   5.041 -0.3306 -1.5292  0.1268
  564MOL0     H77782   2.294   4.644   4.981 -2.6352  2.0304  1.4017
  564MOL0     H77783   2.207   4.513   4.916  1.5715  0.2518 -1.5982
  564MOL0     H77784   2.425   4.485   5.127  0.1269  2.9234 -1.0592
  564MOL0     H77785   2.344   4.340   5.064  0.4376 -0.8524 -1.4028
  564MOL0     H77786   2.525   4.529   4.911  5.3419 -2.5294 -0.9487
  564MOL0     H77787   2.568   4.373   4.958 -1.4354 -0.5428  0.5046
  564MOL0     H77788   2.423   4.264   4.800 -0.0713 -0.1187 -0.6024
  564MOL0     H77789   2.315   4.408   4.786  0.8194  2.2176  1.6355
  564MOL0     H77790   2.631   4.433   4.483 -0.5497  0.0476 -1.2572
  564MOL0     H77791   2.690   4.445   4.278 -2.8223  0.3537  1.0281
  564MOL0     H77792   2.603   4.382   4.140  2.7357  2.1452 -0.7553
  564MOL0     H77793   2.725   4.284   4.227 -2.1089 -3.5516 -1.0776
  564MOL0     H77794   2.670   4.228   3.885 -1.0398  2.4238 -2.0570
  564MOL0     H77795   2.720   4.114   3.667  2.0330 -2.0458  3.8655
  564MOL0     H77796   2.430   3.776   3.522 -2.7074  0.3672 -0.7930
  564MOL0     H77797   2.370   3.943   3.508 -4.1911 -4.5809  0.5957
  564MOL0     H77798   2.537   3.782   3.316 -1.1248 -1.1811 -0.8521
  564MOL0     H77799   2.377   3.843   3.276  0.1232 -4.2519  1.1727
  564MOL0     H77800   2.616   4.022   3.329 -0.3220  0.1171 -0.5171
  564MOL0     H77801   2.473   4.076   3.245  0.5395  0.1759  1.2534
  564MOL0     H77802   2.517   3.919   3.073  0.3990  0.2959  1.2066
  564MOL0     H77803   2.660   3.873   3.169 -1.6531 -1.1822  1.2042
  564MOL0     H77804   2.710   4.034   2.971 -1.0220 -1.1242 -0.4100
  564MOL0     H77805   2.619   4.156   3.068 -1.2936 -1.3534 -2.7570
  564MOL0     H77806   2.865   4.001   3.156 -0.0765 -0.7429  1.0777
  564MOL0     H77807   2.792   4.135   3.240 -0.0331  0.9329 -0.0211
  564MOL0     H77808   2.984   4.222   3.157  0.4577 -1.6972 -0.9087
  564MOL0     H77809   2.860   4.273   3.032  2.5416 -0.7867 -2.7767
  564MOL0     H77810   2.918   4.060   2.910 -1.3328  0.5157  0.6520
  564MOL0     H77811   3.058   4.049   3.023  2.6662  4.4994  1.0771
  564MOL0     H77812   2.374   3.866   3.732 -2.0237  0.5505  1.6749
  564MOL0     H77813   2.347   3.977   3.955  2.2657  0.7879  3.5493
  564MOL0     H77814   2.250   4.133   4.394 -2.4416  1.3296  3.9453
  564MOL0     H77815   2.269   4.252   4.613 -1.8112 -4.4813 -3.1488
  564MOL0     H77816   1.323   5.207   5.838 -0.3953 -1.7450  3.5484
  564MOL0     H77817   1.268   5.395   5.984  1.3215  0.1987 -0.3007
  564MOL0     H77818   0.894   5.771   6.007 -1.5838  4.6267  1.3359
  564MOL0     H77819   0.853   5.975   6.116 -1.8007 -0.8005  0.0489
  564MOL0     H77820   0.966   6.176   6.370 -1.1066 -1.6603  5.2612
  564MOL0     H77821   0.873   6.147   6.217  0.6379 -2.6077 -0.3709
  564MOL0     H77822   0.665   6.210   6.331  0.2734  1.8109  0.1355
  564MOL0     H77823   0.786   6.330   6.360 -2.6892  0.5160 -1.7445
  564MOL0     H77824   0.719   6.112   6.571  0.4999 -0.3690  2.2802
  564MOL0     H77825   0.840   6.222   6.591 -0.2381 -2.6305  1.6900
  564MOL0     H77826   0.701   6.421   6.588  0.9922 -0.6409 -1.0207
  564MOL0     H77827   0.658   6.293   6.705 -0.2118  1.4708  1.0868
  564MOL0     H77828   0.319   6.408   6.503  0.5946  2.4585 -3.0290
  564MOL0     H77829   0.939   5.823   6.489  1.4496 -0.4090 -0.2738
  564MOL0     H77830   0.988   5.486   6.406  1.6013 -2.1530  2.4520
  564MOL0     H77831   1.158   5.543   6.377 -0.4967 -2.5573  0.9853
  564MOL0     H77832   1.075   5.601   6.516  0.8842  0.4279  0.5036
  565MOL0     O77833   0.481  11.443   0.767 -0.6675 -0.3696  0.1150
  565MOL0     C77834   0.590  11.382   0.787 -0.6197 -0.5485 -0.5255
  565MOL0     O77835   0.597  11.267   0.860  0.3232  0.4755  0.1228
  565MOL0     C77836   0.503  11.231   0.958  0.4749 -0.1345  0.0054
  565MOL0     C77837   0.531  11.120   1.033 -0.8996  0.4039  0.6889
  565MOL0     C77838   0.454  11.070   1.143 -0.1416 -0.3094  0.7678
  565MOL0     C77839   0.338  11.138   1.173  0.5505  0.1225 -0.5997
  565MOL0     O77840   0.247  11.103   1.269  0.0471 -0.0189 -0.2595
  565MOL0     C77841   0.299  11.125   1.409  0.3448 -0.7602  0.3136
  565MOL0     C77842   0.318  11.270   1.446  0.2915  0.3845 -0.5348
  565MOL0     C77843   0.361  11.281   1.592  0.1375 -0.0256 -0.0488
  565MOL0     C77844   0.378  11.436   1.599  1.1433 -0.3462  0.1041
  565MOL0     C77845   0.462  11.484   1.730 -0.3652 -0.1157 -0.8571
  565MOL0     C77846   0.464  11.637   1.760  0.2182  0.1109 -0.2176
  565MOL0     C77847   0.514  11.723   1.650  0.5035  0.1063 -0.9019
  565MOL0     C77848   0.664  11.721   1.651  0.3433 -0.7823  0.1674
  565MOL0     N77849   0.711  11.822   1.547  0.7180  0.3833  0.9220
  565MOL0     C77850   0.709  11.808   1.410 -0.3049 -0.0627  0.1377
  565MOL0     C77851   0.768  11.922   1.362  0.7149  0.4640 -0.0745
  565MOL0     C77852   0.804  11.964   1.217  0.1971  0.6807 -0.9035
  565MOL0     C77853   0.763  11.852   1.116 -0.6849  0.0762 -0.0289
  565MOL0     C77854   0.834  11.865   0.975  0.0078  0.3511  0.1232
  565MOL0     C77855   0.983  11.870   0.969 -0.0983 -0.7890 -0.8398
  565MOL0     O77856   1.034  11.848   0.843  0.4268  0.3755  0.4887
  565MOL0     C77857   1.014  11.932   0.737 -0.4972 -0.8729 -0.6768
  565MOL0     C77858   1.022  11.882   0.610  0.0680  0.0413 -0.0179
  565MOL0     C77859   1.020  11.964   0.497 -0.5761 -0.0818 -1.2243
  565MOL0     C77860   1.047  11.897   0.364  0.4288 -0.0926 -1.3200
  565MOL0     C77861   1.007  12.105   0.514  0.3754  0.0311 -0.1834
  565MOL0     C77862   1.034  12.204   0.403 -1.8221 -1.1595 -0.6595
  565MOL0     O77863   0.996  12.338   0.446 -0.1985  0.2422  0.3012
  565MOL0     C77864   0.973  12.440   0.352  0.8507  0.0855  0.1271
  565MOL0     C77865   0.966  12.564   0.411 -0.0548 -0.0971 -0.8488
  565MOL0     C77866   0.947  12.677   0.337 -0.0880  0.5061 -0.1378
  565MOL0     C77867   0.899  12.666   0.207 -1.0843 -0.3581  0.1235
  565MOL0     O77868   0.845  12.773   0.139 -0.3158 -0.4898 -0.5452
  565MOL0     C77869   0.950  12.862   0.087  0.2571  0.4174 -0.0576
  565MOL0     C77870   1.018  12.793  -0.030 -0.6959  0.0825  0.4559
  565MOL0     C77871   1.126  12.870  -0.113 -0.2593 -0.3385 -0.6312
  565MOL0     C77872   1.051  12.945  -0.213  0.8399 -0.7285 -0.3760
  565MOL0     C77873   1.132  13.023  -0.315  0.2436 -0.8688  0.1582
  565MOL0     C77874   1.050  13.149  -0.355  0.0202  0.1584 -0.3035
  565MOL0     C77875   1.093  13.224  -0.479 -0.0863 -0.1073  0.7134
  565MOL0     C77876   0.991  13.329  -0.514  0.1269  0.2384  0.4227
  565MOL0    Cl77877   0.827  13.265  -0.550 -0.0369 -0.0584 -0.5136
  565MOL0     C77878   0.892  12.543   0.155 -0.0853  0.4841  0.1293
  565MOL0     C77879   0.932  12.426   0.219  0.0794 -0.1008 -1.0303
  565MOL0     O77880   1.087  12.175   0.294  0.1509 -0.7709 -0.5051
  565MOL0     C77881   0.965  12.152   0.642  0.6650 -0.3192 -0.5653
  565MOL0     C77882   0.971  12.066   0.751 -0.3119 -0.3157  0.3425
  565MOL0     N77883   0.793  12.000   1.467 -1.1317 -0.1474 -0.7238
  565MOL0     N77884   0.759  11.941   1.576  0.4543 -0.0100 -1.3646
  565MOL0     C77885   0.306  11.258   1.108 -0.2030 -0.3893 -0.6285
  565MOL0     C77886   0.382  11.297   1.001  0.3918  1.5186  1.0777
  565MOL0     C77887   0.706  11.422   0.711  0.0370  0.0518  0.1818
  565MOL0     C77888   0.787  11.317   0.651 -0.9783  0.1795 -0.4345
  565MOL0     C77889   0.880  11.346   0.549 -0.3113 -0.5760 -0.4514
  565MOL0     C77890   0.898  11.477   0.502 -0.3138  0.2814 -0.1808
  565MOL0     O77891   0.973  11.515   0.394  0.9395 -0.7010 -0.2745
  565MOL0     C77892   0.884  11.510   0.278 -0.0376  0.2225  0.0941
  565MOL0     C77893   0.959  11.561   0.147  0.4695 -0.3151 -1.0399
  565MOL0     C77894   1.116  11.557   0.170 -0.3580 -0.6373 -0.1775
  565MOL0     C77895   1.191  11.611   0.053 -0.2938 -0.1106 -0.4840
  565MOL0     C77896   1.172  11.763   0.033  0.4164  0.1466 -0.2916
  565MOL0     C77897   1.152  11.886   0.008 -0.7302  0.6108 -0.2449
  565MOL0     C77898   0.827  11.587   0.567 -0.2063  0.2080  0.1068
  565MOL0     C77899   0.731  11.562   0.664  0.0730  0.3714  0.0505
  565MOL0     C77900   0.638  11.672   0.694 -0.0466 -1.1434 -1.3093
  565MOL0     H77901   0.625  11.067   1.017 -1.1427  0.7041 -2.2048
  565MOL0     H77902   0.493  10.975   1.178  0.9325  0.0179  0.5177
  565MOL0     H77903   0.394  11.077   1.435  0.3018 -0.5454  0.8855
  565MOL0     H77904   0.231  11.073   1.477 -2.9012  2.7312  0.0406
  565MOL0     H77905   0.392  11.308   1.375  0.6427 -0.6375 -0.7293
  565MOL0     H77906   0.222  11.321   1.435 -0.3512  0.3886  3.6315
  565MOL0     H77907   0.294  11.238   1.667 -0.2164  1.6811  0.6598
  565MOL0     H77908   0.458  11.233   1.602  1.3224  2.0538 -0.9720
  565MOL0     H77909   0.439  11.462   1.512 -0.3739  2.2869 -0.2759
  565MOL0     H77910   0.283  11.482   1.572  1.0219 -1.0121 -0.6157
  565MOL0     H77911   0.564  11.447   1.745 -0.7534 -0.5479  0.9871
  565MOL0     H77912   0.406  11.445   1.816  1.2812  2.2380  1.4265
  565MOL0     H77913   0.360  11.666   1.773  0.8621  1.7789  1.6793
  565MOL0     H77914   0.516  11.656   1.854  1.2107  1.4845 -1.0028
  565MOL0     H77915   0.462  11.818   1.667  0.6711  0.2120 -0.9611
  565MOL0     H77916   0.469  11.687   1.557 -4.0683 -1.4615  1.6168
  565MOL0     H77917   0.695  11.745   1.753  0.6714 -1.1833  0.1644
  565MOL0     H77918   0.699  11.619   1.634  0.8461 -0.5438 -0.2632
  565MOL0     H77919   0.656  11.733   1.352  0.7882  1.0956 -2.5382
  565MOL0     H77920   0.912  11.976   1.208  0.3099 -0.1736 -0.8398
  565MOL0     H77921   0.759  12.060   1.193 -3.0050 -0.0669  1.4401
  565MOL0     H77922   0.795  11.753   1.150  0.3054  0.2684 -0.3621
  565MOL0     H77923   0.654  11.854   1.106 -0.8155  0.8390  1.2620
  565MOL0     H77924   0.815  11.772   0.920  3.1234 -0.0702 -0.4151
  565MOL0     H77925   0.782  11.951   0.933 -2.6678 -0.4339  1.5736
  565MOL0     H77926   1.010  11.973   0.994  1.8179 -0.8695 -2.3422
  565MOL0     H77927   1.029  11.805   1.044 -1.8814 -1.2749 -0.1298
  565MOL0     H77928   1.049  11.778   0.593  3.5769  0.9494 -0.7737
  565MOL0     H77929   1.128  11.940   0.304 -0.1757  1.1401 -1.2633
  565MOL0     H77930   0.954  11.898   0.308 -0.3613 -2.2226 -0.1492
  565MOL0     H77931   1.081  11.793   0.373  2.1552  0.4314 -1.3745
  565MOL0     H77932   0.989  12.569   0.517 -3.0547 -0.0080 -0.1242
  565MOL0     H77933   0.952  12.773   0.387  0.4342 -0.3842  1.5923
  565MOL0     H77934   0.910  12.957   0.049 -2.1295 -0.3783  0.2684
  565MOL0     H77935   1.021  12.882   0.168  1.1460 -0.2898 -0.6492
  565MOL0     H77936   1.073  12.713   0.021  0.3389  0.5694  0.1289
  565MOL0     H77937   0.953  12.746  -0.104  1.2409  0.6029 -1.6906
  565MOL0     H77938   1.196  12.799  -0.157  0.4586  0.7781 -1.3356
  565MOL0     H77939   1.182  12.936  -0.046  3.0553 -1.9668 -1.5783
  565MOL0     H77940   0.978  13.008  -0.160  0.9101 -2.3612  1.8062
  565MOL0     H77941   0.989  12.879  -0.274  1.5768 -3.9654  2.0731
  565MOL0     H77942   1.237  13.043  -0.290  1.6146 -6.2031 -0.2752
  565MOL0     H77943   1.156  12.958  -0.399  1.5346 -2.3500  1.6099
  565MOL0     H77944   1.045  13.230  -0.282  0.8711  1.8718 -2.0562
  565MOL0     H77945   0.950  13.111  -0.380 -0.0896 -0.1661  0.5971
  565MOL0     H77946   1.101  13.148  -0.558 -3.3353  0.4278 -0.3067
  565MOL0     H77947   1.190  13.273  -0.476 -0.6829  1.4112 -1.6658
  565MOL0     H77948   1.022  13.383  -0.604 -1.6408 -0.3139 -0.5846
  565MOL0     H77949   0.986  13.401  -0.432 -1.1153  0.4112  0.2227
  565MOL0     H77950   0.847  12.534   0.057 -2.3793 -0.4739  1.1964
  565MOL0     H77951   0.934  12.330   0.167  1.8317 -0.5596 -0.2128
  565MOL0     H77952   0.960  12.258   0.667  2.2239 -0.7322  1.9322
  565MOL0     H77953   0.959  12.115   0.847  1.3611  0.2915  0.2672
  565MOL0     H77954   0.231  11.325   1.149  0.5681 -0.4720  1.0012
  565MOL0     H77955   0.340  11.385   0.953  1.1153  0.0398 -2.6623
  565MOL0     H77956   0.794  11.216   0.689  2.2340  0.5678  0.2522
  565MOL0     H77957   0.929  11.257   0.511 -0.2129 -0.0463 -1.6289
  565MOL0     H77958   0.864  11.404   0.256  0.2867 -0.3574  2.2891
  565MOL0     H77959   0.791  11.564   0.298 -0.8257 -1.2736  0.6690
  565MOL0     H77960   0.926  11.665   0.144  1.5945  0.1679  1.3300
  565MOL0     H77961   0.921  11.514   0.056  1.6630  0.2305 -1.8351
  565MOL0     H77962   1.147  11.616   0.257 -0.9004 -0.0699 -0.3594
  565MOL0     H77963   1.144  11.454   0.190 -2.9898 -1.2613  0.7244
  565MOL0     H77964   1.162  11.551  -0.035  1.3940 -0.1358 -1.0497
  565MOL0     H77965   1.298  11.588   0.055 -0.8164 -2.8297  1.4461
  565MOL0     H77966   1.130  11.990   0.017 -1.4079  0.4680 -0.2108
  565MOL0     H77967   0.835  11.685   0.521  2.1114  1.3587  2.6664
  565MOL0     H77968   0.559  11.684   0.620 -0.0182  2.5903 -0.9315
  565MOL0     H77969   0.573  11.668   0.782 -2.2459 -1.2989 -2.8553
  565MOL0     H77970   0.707  11.757   0.703 -2.6920  1.1869 -1.8539
  566MOL0     O77971   1.345   1.758   4.721 -0.4198  0.0166 -0.3410
  566MOL0     C77972   1.303   1.693   4.624  0.2066 -0.8703  0.9116
  566MOL0     O77973   1.328   1.559   4.602  0.8773 -0.1874 -0.6484
  566MOL0     C77974   1.406   1.489   4.699 -0.5610 -0.9073 -0.3101
  566MOL0     C77975   1.528   1.534   4.753  0.6381  0.0629 -0.4467
  566MOL0     C77976   1.586   1.479   4.871 -0.4723 -0.0628  0.7689
  566MOL0     C77977   1.543   1.356   4.923  1.0653  0.3273  0.2063
  566MOL0     O77978   1.604   1.273   5.016 -0.4311 -0.2844  0.3227
  566MOL0     C77979   1.699   1.333   5.101 -0.4340 -0.1894  0.3583
  566MOL0     C77980   1.842   1.336   5.028 -0.4885 -0.0241  0.3677
  566MOL0     C77981   1.925   1.453   5.083 -0.5735 -0.4513  0.1944
  566MOL0     C77982   2.067   1.482   5.012  0.7958 -0.3523  0.3429
  566MOL0     C77983   2.051   1.553   4.882 -0.4300 -1.0867  0.2001
  566MOL0     C77984   2.190   1.586   4.824  1.0736 -0.5476 -0.8882
  566MOL0     C77985   2.184   1.631   4.676  0.9430 -0.1557  0.1451
  566MOL0     C77986   2.121   1.763   4.672  0.4953 -0.2434 -0.0173
  566MOL0     N77987   1.969   1.767   4.684 -0.9274 -0.2404  0.3852
  566MOL0     C77988   1.908   1.869   4.757 -0.8624  0.8406  0.0329
  566MOL0     C77989   1.776   1.848   4.740 -0.6591  0.7106  0.1512
  566MOL0     C77990   1.677   1.918   4.824  0.8275  0.0976 -0.1652
  566MOL0     C77991   1.696   2.066   4.811  0.3329 -0.9296 -1.1615
  566MOL0     C77992   1.574   2.137   4.870  0.2782  0.0261 -0.3770
  566MOL0     C77993   1.584   2.292   4.847 -0.0488  0.5181 -0.9416
  566MOL0     O77994   1.485   2.349   4.939  0.3790 -0.1637 -0.0183
  566MOL0     C77995   1.449   2.479   4.925 -0.7332 -0.8110  0.2134
  566MOL0     C77996   1.514   2.574   4.846  1.6054 -0.7476 -0.8857
  566MOL0     C77997   1.477   2.712   4.842 -1.3072  0.0081 -0.4480
  566MOL0     C77998   1.563   2.794   4.744  0.1533 -0.1812 -0.3367
  566MOL0     C77999   1.347   2.753   4.905 -1.1682  1.0098  0.0372
  566MOL0     C78000   1.293   2.885   4.901 -0.3297  1.3261 -0.2306
  566MOL0     O78001   1.352   2.983   4.822 -0.6217 -0.3277  0.1290
  566MOL0     C78002   1.298   3.112   4.830 -0.2397 -0.6411  0.7607
  566MOL0     C78003   1.166   3.158   4.863  0.1296  0.0587  0.1733
  566MOL0     C78004   1.127   3.293   4.852 -0.7479 -0.1537  0.8826
  566MOL0     C78005   1.223   3.382   4.803 -0.1404 -0.9778 -0.1697
  566MOL0     O78006   1.182   3.512   4.789 -0.2669  0.1106  0.5561
  566MOL0     C78007   1.265   3.615   4.850 -0.1222  0.4793 -0.0965
  566MOL0     C78008   1.196   3.750   4.868  0.3478 -0.8965 -0.2458
  566MOL0     C78009   1.065   3.737   4.945 -0.3479  0.2270 -0.3860
  566MOL0     C78010   1.095   3.671   5.084  0.7198 -0.2275  0.6741
  566MOL0     C78011   0.998   3.728   5.195 -0.4998  0.4689  0.4794
  566MOL0     C78012   1.070   3.847   5.258 -0.3589  0.0093 -0.1592
  566MOL0     C78013   0.990   3.921   5.372 -0.3596 -0.3689  0.6136
  566MOL0     C78014   1.084   3.988   5.481  0.1594  0.1803 -0.2802
  566MOL0    Cl78015   1.204   3.888   5.564 -0.7008 -0.0597  0.1892
  566MOL0     C78016   1.353   3.339   4.776 -0.2641 -0.1161  1.0839
  566MOL0     C78017   1.395   3.208   4.788 -0.1999  0.7556 -0.2449
  566MOL0     O78018   1.206   2.900   4.984  0.2144  0.1761  0.0517
  566MOL0     C78019   1.293   2.659   4.990  0.7848  0.4430 -0.0321
  566MOL0     C78020   1.334   2.529   4.997 -1.2888  0.8140 -0.2637
  566MOL0     N78021   1.752   1.767   4.637 -0.7000 -0.2659  0.2840
  566MOL0     N78022   1.869   1.717   4.599  1.5517  0.5028  0.4523
  566MOL0     C78023   1.417   1.307   4.863 -0.0838 -0.5205 -0.1463
  566MOL0     C78024   1.352   1.381   4.765  0.5086 -0.0756 -0.4530
  566MOL0     C78025   1.216   1.767   4.528  0.1126 -0.5974  0.5023
  566MOL0     C78026   1.158   1.691   4.430  0.4915  0.1306  0.4890
  566MOL0     C78027   1.053   1.741   4.350  0.5005 -0.6634 -0.0493
  566MOL0     C78028   1.012   1.871   4.365  0.8960  0.0954  0.2223
  566MOL0     O78029   0.920   1.926   4.277  0.2711  0.4181  0.4089
  566MOL0     C78030   0.888   2.068   4.283  0.1576  0.0816  0.7357
  566MOL0     C78031   0.775   2.096   4.187  0.4645  0.5807  0.7995
  566MOL0     C78032   0.652   2.008   4.215 -0.4186 -0.1480  0.0378
  566MOL0     C78033   0.511   2.069   4.197  0.0199  0.2858  0.1966
  566MOL0     C78034   0.493   2.157   4.079 -0.1288  0.6737 -0.3729
  566MOL0     C78035   0.481   2.217   3.973  0.1322  0.6568  0.6299
  566MOL0     C78036   1.072   1.951   4.470  0.5590 -0.2519  0.9971
  566MOL0     C78037   1.173   1.901   4.545 -0.9724  0.2055 -0.0716
  566MOL0     C78038   1.249   1.988   4.634  0.3767 -1.1787 -0.7797
  566MOL0     H78039   1.580   1.622   4.717  1.5202 -0.9664 -1.7559
  566MOL0     H78040   1.675   1.525   4.914  0.6866 -1.3192 -0.2058
  566MOL0     H78041   1.711   1.269   5.188  2.5083 -2.2023 -1.3706
  566MOL0     H78042   1.660   1.429   5.138  0.4980 -0.2746  1.6059
  566MOL0     H78043   1.886   1.238   5.046 -1.4360 -0.7088 -0.8736
  566MOL0     H78044   1.828   1.343   4.920 -1.2287 -0.7462  0.4109
  566MOL0     H78045   1.865   1.544   5.074  0.2555  0.0022 -1.0297
  566MOL0     H78046   1.940   1.420   5.187 -2.0017  2.4894  1.4565
  566MOL0     H78047   2.118   1.543   5.087 -1.1799 -1.0666  2.3809
  566MOL0     H78048   2.114   1.385   4.993  0.7572 -0.8277  2.4600
  566MOL0     H78049   1.976   1.631   4.896 -1.3959 -2.1350  1.0201
  566MOL0     H78050   2.001   1.480   4.817 -1.1905 -1.9178  1.6737
  566MOL0     H78051   2.239   1.671   4.872 -2.0832 -0.6599  3.0877
  566MOL0     H78052   2.256   1.499   4.830  0.0774 -1.3064 -0.6145
  566MOL0     H78053   2.142   1.551   4.615  1.4898  0.0665 -0.5347
  566MOL0     H78054   2.287   1.648   4.643  1.3010  0.1753  1.3737
  566MOL0     H78055   2.171   1.838   4.734 -1.0054  1.4442 -0.7539
  566MOL0     H78056   2.163   1.797   4.577  2.8244 -0.2370  0.9581
  566MOL0     H78057   1.949   1.942   4.826  2.8724 -2.4538  1.6835
  566MOL0     H78058   1.688   1.880   4.926  0.7637 -0.5222 -0.3807
  566MOL0     H78059   1.578   1.896   4.784  0.9273  1.7963 -1.4261
  566MOL0     H78060   1.786   2.104   4.860 -1.0673  2.2414 -0.8098
  566MOL0     H78061   1.707   2.106   4.710  2.8033  4.2079  0.7886
  566MOL0     H78062   1.487   2.094   4.820  1.5820 -0.8428 -2.0136
  566MOL0     H78063   1.558   2.101   4.972 -2.3200 -0.7024 -0.9630
  566MOL0     H78064   1.684   2.329   4.871  1.0757 -2.7638 -0.0332
  566MOL0     H78065   1.557   2.308   4.743  1.5334 -0.1286 -1.4856
  566MOL0     H78066   1.600   2.548   4.785  1.6818 -1.5762 -0.4395
  566MOL0     H78067   1.634   2.861   4.794 -2.1747  2.2624 -0.0830
  566MOL0     H78068   1.513   2.858   4.671  1.8726 -0.3911 -1.7805
  566MOL0     H78069   1.620   2.728   4.677  0.5517  1.3584 -1.5719
  566MOL0     H78070   1.090   3.085   4.888 -1.2641  1.1330 -0.7644
  566MOL0     H78071   1.024   3.325   4.866 -0.8699  0.0563 -0.4208
  566MOL0     H78072   1.313   3.573   4.939 -2.1924 -1.2680  0.2614
  566MOL0     H78073   1.341   3.635   4.773  0.5591  2.5680  1.0490
  566MOL0     H78074   1.259   3.822   4.922  0.3202 -0.5450 -0.6766
  566MOL0     H78075   1.171   3.782   4.767  0.0945 -1.2649 -0.3013
  566MOL0     H78076   1.002   3.667   4.889 -2.6473  3.8370 -2.7384
  566MOL0     H78077   1.011   3.831   4.953  0.1081  0.5740 -1.2350
  566MOL0     H78078   1.200   3.687   5.109  1.3235 -0.2695 -1.6787
  566MOL0     H78079   1.063   3.567   5.074 -2.4020  0.5018  1.9298
  566MOL0     H78080   0.904   3.753   5.145  1.1855  4.0085 -1.2776
  566MOL0     H78081   0.991   3.648   5.269  2.2642  0.7561  1.1420
  566MOL0     H78082   1.072   3.922   5.179 -0.7202  2.2428  1.8388
  566MOL0     H78083   1.171   3.815   5.281 -0.3586  0.1326  0.0159
  566MOL0     H78084   0.931   3.842   5.419 -1.0962 -0.8288 -1.0364
  566MOL0     H78085   0.919   3.993   5.331  1.6356  1.8120  0.7527
  566MOL0     H78086   1.007   4.027   5.548  0.6648  1.3868 -0.3682
  566MOL0     H78087   1.133   4.075   5.436  0.7473 -1.4041 -2.9362
  566MOL0     H78088   1.412   3.413   4.723  1.3037 -2.1205 -0.1233
  566MOL0     H78089   1.491   3.176   4.749 -0.1257  1.5968 -0.7940
  566MOL0     H78090   1.216   2.679   5.063 -0.9385 -0.8511 -1.3869
  566MOL0     H78091   1.283   2.450   5.051 -0.8537 -0.8088 -2.0905
  566MOL0     H78092   1.366   1.220   4.903 -0.3938 -1.5489 -2.5976
  566MOL0     H78093   1.257   1.340   4.732  1.7206 -1.3860 -2.4911
  566MOL0     H78094   1.196   1.594   4.401 -1.1366 -1.0438  2.0212
  566MOL0     H78095   0.991   1.680   4.284 -0.1962 -1.4103  1.2685
  566MOL0     H78096   0.868   2.120   4.377 -0.5514  0.8452  0.1796
  566MOL0     H78097   0.971   2.128   4.247  0.8167 -1.0494  0.3416
  566MOL0     H78098   0.802   2.058   4.088 -1.6626  0.0845  0.3615
  566MOL0     H78099   0.743   2.200   4.179 -0.8097  0.1672  0.3354
  566MOL0     H78100   0.649   1.918   4.154 -0.1280 -0.0380 -0.1364
  566MOL0     H78101   0.662   1.971   4.318  2.5867  2.7037  0.9327
  566MOL0     H78102   0.491   2.136   4.280 -1.4018  1.1117 -0.7636
  566MOL0     H78103   0.439   1.987   4.188  0.3507  0.0767 -0.7096
  566MOL0     H78104   0.477   2.278   3.885 -0.3191  1.1441  0.9825
  566MOL0     H78105   1.046   2.056   4.480 -0.0073 -0.1754 -0.8776
  566MOL0     H78106   1.229   2.095   4.618  0.2316 -0.9695  0.6532
  566MOL0     H78107   1.222   1.974   4.739 -0.5482  4.5602  0.0885
  566MOL0     H78108   1.356   1.981   4.614  0.4833  1.6310 -1.6020
  567MOL0     O78109   0.934   6.213   4.921  0.4296 -0.4690 -1.1028
  567MOL0     C78110   0.854   6.135   4.984 -0.0760 -0.0606  0.9522
  567MOL0     O78111   0.830   6.124   5.116  0.5643 -0.4105 -0.4158
  567MOL0     C78112   0.918   6.185   5.196 -0.3399 -0.1218 -0.6195
  567MOL0     C78113   1.044   6.136   5.219 -0.3797  0.8893 -0.5368
  567MOL0     C78114   1.135   6.205   5.309  0.3137 -0.5509  0.9307
  567MOL0     C78115   1.096   6.326   5.370 -0.3875 -0.0721 -0.4482
  567MOL0     O78116   1.182   6.407   5.450 -0.2071  0.8896  0.0556
  567MOL0     C78117   1.320   6.366   5.437 -0.8207 -0.8349 -0.4929
  567MOL0     C78118   1.398   6.457   5.523 -0.2434  0.1396 -0.0027
  567MOL0     C78119   1.378   6.607   5.500 -0.4944  0.6282  0.7637
  567MOL0     C78120   1.470   6.688   5.592  0.7647  0.3317 -0.2290
  567MOL0     C78121   1.447   6.842   5.585  0.1406 -0.3878 -0.1809
  567MOL0     C78122   1.533   6.939   5.681  0.5057  0.3973  0.7967
  567MOL0     C78123   1.485   7.086   5.699 -0.0910  0.0051  0.5516
  567MOL0     C78124   1.432   7.161   5.576 -0.1938 -0.3481  0.0413
  567MOL0     N78125   1.425   7.306   5.593  0.6100 -0.7201  0.5448
  567MOL0     C78126   1.300   7.370   5.600 -0.9372 -1.2616 -0.1780
  567MOL0     C78127   1.331   7.492   5.555 -0.3660 -0.3635  1.0935
  567MOL0     C78128   1.244   7.608   5.557  0.5664 -0.7501 -0.7882
  567MOL0     C78129   1.264   7.690   5.695 -1.0819  0.9438  0.1642
  567MOL0     C78130   1.166   7.812   5.694 -0.2763  0.5740 -0.3960
  567MOL0     C78131   1.028   7.772   5.747 -0.0372 -0.3487 -0.0491
  567MOL0     O78132   1.029   7.732   5.883 -0.6521 -0.0101 -0.1356
  567MOL0     C78133   1.071   7.824   5.981 -0.2453  0.1620 -0.8589
  567MOL0     C78134   1.055   7.964   5.982  0.3605  0.4516 -0.2945
  567MOL0     C78135   1.099   8.040   6.094  0.1573  0.3601  0.1185
  567MOL0     C78136   1.079   8.182   6.065  0.5993 -0.7378  0.2953
  567MOL0     C78137   1.153   7.975   6.212 -0.8456 -0.4694 -0.9375
  567MOL0     C78138   1.211   8.056   6.326 -0.5574 -0.5106 -0.4948
  567MOL0     O78139   1.258   7.968   6.432 -0.9088 -0.9087 -0.3235
  567MOL0     C78140   1.302   8.039   6.544  0.4595 -1.5120  0.1236
  567MOL0     C78141   1.436   8.071   6.574 -0.3730 -0.4406  0.3746
  567MOL0     C78142   1.474   8.116   6.700 -1.1760 -0.9607  0.3140
  567MOL0     C78143   1.373   8.126   6.803 -0.0513 -0.9746 -0.1775
  567MOL0     O78144   1.399   8.177   6.923 -0.4104 -0.9697  0.2017
  567MOL0     C78145   1.540   8.200   6.953  0.6613 -0.1172  0.4301
  567MOL0     C78146   1.555   8.288   7.077 -0.8327 -0.3762 -0.2220
  567MOL0     C78147   1.535   8.446   7.033  0.6414  0.5483 -0.0043
  567MOL0     C78148   1.631   8.509   6.928  0.1422 -0.1110 -0.0436
  567MOL0     C78149   1.771   8.476   6.968 -0.4644 -0.1094  1.4146
  567MOL0     C78150   1.870   8.574   6.894  0.4273 -0.2158 -0.1931
  567MOL0     C78151   1.880   8.707   6.977  0.7849 -0.7760  0.2954
  567MOL0     C78152   1.912   8.827   6.893 -0.5304  0.1502  1.1940
  567MOL0    Cl78153   1.917   8.975   6.989 -0.0328  0.3740  0.1772
  567MOL0     C78154   1.241   8.099   6.775 -0.1323 -0.4776  0.4615
  567MOL0     C78155   1.204   8.052   6.647  0.0711 -0.2163 -0.0588
  567MOL0     O78156   1.217   8.183   6.333  0.6734  0.4437  0.3407
  567MOL0     C78157   1.161   7.840   6.210 -0.2963  0.1713 -0.1953
  567MOL0     C78158   1.116   7.767   6.104  0.7933  0.2771  0.2595
  567MOL0     N78159   1.473   7.503   5.534 -0.1308  0.3081 -0.2749
  567MOL0     N78160   1.511   7.387   5.529 -0.4409  0.5251 -0.6415
  567MOL0     C78161   0.972   6.376   5.347 -0.1438  0.4205  0.1826
  567MOL0     C78162   0.883   6.305   5.271  0.7077 -0.5451 -0.6918
  567MOL0     C78163   0.740   6.086   4.902  0.5884  0.2547  0.7336
  567MOL0     C78164   0.609   6.100   4.950  0.0392  0.1731  0.1377
  567MOL0     C78165   0.500   6.031   4.891  0.3720 -0.0821 -0.6017
  567MOL0     C78166   0.517   5.970   4.767 -0.1536  0.3734  0.7175
  567MOL0     O78167   0.410   5.934   4.682  0.8347  0.4599  0.3545
  567MOL0     C78168   0.270   5.960   4.722 -0.0958 -0.7859 -1.1283
  567MOL0     C78169   0.174   5.935   4.608 -0.2318 -0.4046  0.3983
  567MOL0     C78170   0.173   6.028   4.483  0.8695 -0.3808 -0.3378
  567MOL0     C78171   0.074   5.988   4.380  1.1717 -0.2901  0.4715
  567MOL0     C78172   0.068   6.074   4.258  0.1350  1.1145 -0.0781
  567MOL0     C78173   0.071   6.133   4.147  0.6355 -0.0195 -0.1731
  567MOL0     C78174   0.651   5.948   4.723 -1.0541 -1.1238  0.6485
  567MOL0     C78175   0.761   6.009   4.789  0.7662 -0.3239  0.4933
  567MOL0     C78176   0.889   5.958   4.728 -0.3961 -0.1182  0.4433
  567MOL0     H78177   1.065   6.044   5.164  1.9188  1.3038 -0.4445
  567MOL0     H78178   1.233   6.166   5.333  2.3172  3.1370 -0.3464
  567MOL0     H78179   1.345   6.365   5.331 -1.3380  0.6081 -0.6479
  567MOL0     H78180   1.325   6.265   5.479  2.8354  0.0096  1.6226
  567MOL0     H78181   1.373   6.428   5.626 -1.6296  2.5419  0.4014
  567MOL0     H78182   1.501   6.428   5.503 -0.9796 -2.5822 -0.2475
  567MOL0     H78183   1.413   6.615   5.396  6.4289 -1.0725  2.4477
  567MOL0     H78184   1.274   6.634   5.524 -1.4169 -0.8466 -1.2390
  567MOL0     H78185   1.456   6.650   5.693  0.8324 -0.3485 -0.4685
  567MOL0     H78186   1.572   6.663   5.561  1.4193 -1.4739  2.9478
  567MOL0     H78187   1.340   6.864   5.597  0.3970  2.0315 -1.5855
  567MOL0     H78188   1.469   6.868   5.481  1.4042  1.3883  0.4911
  567MOL0     H78189   1.547   6.890   5.778  2.0429  1.0599  0.9437
  567MOL0     H78190   1.632   6.950   5.635  0.1209  1.7187  0.2339
  567MOL0     H78191   1.571   7.143   5.738  1.2509  0.6782 -2.9958
  567MOL0     H78192   1.403   7.093   5.771 -3.9852 -1.2049 -3.3780
  567MOL0     H78193   1.494   7.138   5.489 -2.2617 -4.5541 -0.5591
  567MOL0     H78194   1.332   7.123   5.553 -0.5292  1.6696 -2.2403
  567MOL0     H78195   1.210   7.318   5.634 -0.6652 -1.3457  0.4297
  567MOL0     H78196   1.140   7.577   5.541  0.7225 -1.1131 -1.1067
  567MOL0     H78197   1.271   7.667   5.469 -1.3220  0.0744 -0.8640
  567MOL0     H78198   1.230   7.621   5.772  0.5108  0.8159  0.7947
  567MOL0     H78199   1.361   7.737   5.713 -0.3051 -0.9098  1.1154
  567MOL0     H78200   1.214   7.889   5.754 -0.7432 -0.1408  0.9354
  567MOL0     H78201   1.154   7.849   5.592 -0.3158  0.9930 -0.2374
  567MOL0     H78202   0.972   7.866   5.739 -0.9746 -0.6562  2.1227
  567MOL0     H78203   0.967   7.704   5.688 -1.6355 -0.7444  1.9394
  567MOL0     H78204   1.003   7.995   5.892  1.7955 -4.7160 -3.3251
  567MOL0     H78205   1.049   8.201   5.961  0.4735 -0.0267  0.4494
  567MOL0     H78206   1.173   8.232   6.089  0.1300  0.3029  0.0300
  567MOL0     H78207   0.998   8.210   6.134  0.5023 -1.0166  0.2927
  567MOL0     H78208   1.511   8.066   6.496 -0.0924  1.2427  0.5053
  567MOL0     H78209   1.580   8.136   6.710 -1.4775 -0.0473  1.9203
  567MOL0     H78210   1.586   8.101   6.963  1.3460 -0.3331 -3.5021
  567MOL0     H78211   1.589   8.258   6.874 -2.0668 -1.4602 -2.4034
  567MOL0     H78212   1.474   8.262   7.147  0.6666 -2.7279  0.7846
  567MOL0     H78213   1.654   8.286   7.122 -1.2745  1.0498  0.8930
  567MOL0     H78214   1.532   8.515   7.118  3.2909  3.8497 -2.3317
  567MOL0     H78215   1.435   8.448   6.990  0.3296 -2.4365  0.3832
  567MOL0     H78216   1.618   8.618   6.931 -0.0970 -0.1475  1.7528
  567MOL0     H78217   1.610   8.476   6.826 -4.0410 -1.0595  0.9228
  567MOL0     H78218   1.792   8.491   7.074 -0.7502  1.5809  1.2689
  567MOL0     H78219   1.798   8.375   6.939  2.4420  1.3436 -1.6657
  567MOL0     H78220   1.848   8.586   6.788  1.2571 -0.3544 -0.3871
  567MOL0     H78221   1.972   8.535   6.896  0.2593 -0.7775 -1.5751
  567MOL0     H78222   1.947   8.708   7.063  2.0327 -1.0803 -0.6437
  567MOL0     H78223   1.786   8.736   7.024  1.3805  0.1168  0.9786
  567MOL0     H78224   1.842   8.834   6.809 -0.2829  3.9112  1.1562
  567MOL0     H78225   2.008   8.812   6.842 -0.5075  1.4293  0.8207
  567MOL0     H78226   1.151   8.116   6.833 -2.4580 -1.5343 -2.5986
  567MOL0     H78227   1.101   8.032   6.619 -0.1477 -2.1128  1.8418
  567MOL0     H78228   1.191   7.787   6.300  1.6268  0.7046 -0.4898
  567MOL0     H78229   1.128   7.659   6.099  0.3540  0.2167  0.4792
  567MOL0     H78230   0.937   6.468   5.392 -0.7114  1.0979 -1.5565
  567MOL0     H78231   0.776   6.323   5.272  0.8110  0.1194  0.1814
  567MOL0     H78232   0.595   6.143   5.049  1.0810 -0.6028  0.6380
  567MOL0     H78233   0.399   6.038   4.929  0.0957 -1.2954 -1.0812
  567MOL0     H78234   0.238   5.892   4.801  0.3219 -2.4012 -2.2939
  567MOL0     H78235   0.250   6.062   4.755 -1.9888 -1.8668  1.3876
  567MOL0     H78236   0.076   5.933   4.658  1.4225 -1.3363  3.9217
  567MOL0     H78237   0.179   5.832   4.573 -0.2825  0.5761 -2.7954
  567MOL0     H78238   0.153   6.130   4.517 -0.2419 -1.5057  2.7165
  567MOL0     H78239   0.270   6.023   4.432  1.5162 -4.1065  0.9194
  567MOL0     H78240  -0.030   5.993   4.414  1.3781  0.8825  0.9799
  567MOL0     H78241   0.090   5.887   4.340  0.7454 -0.8927  1.7466
  567MOL0     H78242   0.038   6.186   4.060  0.5937  0.9445  0.4141
  567MOL0     H78243   0.667   5.882   4.638 -1.0114  0.0634 -0.2918
  567MOL0     H78244   0.886   5.962   4.619  1.0485 -1.2799  0.3348
  567MOL0     H78245   0.983   5.999   4.765  1.9265 -3.2518 -1.4552
  567MOL0     H78246   0.887   5.852   4.756 -2.0394 -0.6526 -1.4335
  568MOL0     O78247   7.591  10.934   3.659  0.1791  0.9711 -0.0175
  568MOL0     C78248   7.709  10.924   3.701 -0.1378  0.0430 -0.7053
  568MOL0     O78249   7.751  10.849   3.809 -0.3601 -0.4842 -0.0296
  568MOL0     C78250   7.658  10.772   3.873  0.4773  0.3129 -0.0036
  568MOL0     C78251   7.603  10.811   4.000  0.6584  0.2483 -0.2724
  568MOL0     C78252   7.516  10.721   4.075 -0.0294  0.8693  0.7470
  568MOL0     C78253   7.481  10.595   4.019  0.1948 -0.7136 -1.1650
  568MOL0     O78254   7.389  10.502   4.067  0.2668 -0.5616 -0.6007
  568MOL0     C78255   7.313  10.535   4.192 -0.2133 -0.1924 -0.5785
  568MOL0     C78256   7.158  10.544   4.159 -0.8417  0.4538  0.4328
  568MOL0     C78257   7.102  10.424   4.088 -0.6768 -0.4672  0.0063
  568MOL0     C78258   7.037  10.458   3.953  0.0260 -0.1651 -0.3330
  568MOL0     C78259   7.019  10.338   3.856 -0.1159  0.3568 -0.6307
  568MOL0     C78260   6.927  10.381   3.736 -0.6967 -0.2544 -0.6259
  568MOL0     C78261   6.902  10.261   3.643  1.0521 -0.0741 -0.4249
  568MOL0     C78262   6.814  10.149   3.715 -0.7419  0.0864  0.6218
  568MOL0     N78263   6.793  10.031   3.631 -0.5436  0.0977 -0.3635
  568MOL0     C78264   6.894   9.949   3.601 -0.1489  0.5642  0.2584
  568MOL0     C78265   6.839   9.835   3.565  0.8230  0.0419 -0.6051
  568MOL0     C78266   6.918   9.713   3.520 -0.1786 -0.3210 -0.8114
  568MOL0     C78267   7.050   9.747   3.445  0.7370 -0.3743 -0.3865
  568MOL0     C78268   7.173   9.790   3.517 -0.5788 -0.8454  0.1993
  568MOL0     C78269   7.203   9.703   3.649  0.2540  0.6245 -0.1819
  568MOL0     O78270   7.228   9.565   3.602  0.2027 -1.0329 -0.4110
  568MOL0     C78271   7.276   9.475   3.695 -0.8874 -0.4048 -0.2851
  568MOL0     C78272   7.310   9.501   3.831 -0.5088  0.4794 -0.4423
  568MOL0     C78273   7.348   9.394   3.915 -0.0513  0.6544 -0.3909
  568MOL0     C78274   7.389   9.428   4.059 -0.6136 -0.5565 -0.5836
  568MOL0     C78275   7.361   9.260   3.859  0.2296 -0.6058 -0.6450
  568MOL0     C78276   7.363   9.137   3.953 -0.2606  0.1778 -0.5754
  568MOL0     O78277   7.368   9.020   3.881 -0.0699 -0.1973 -0.2190
  568MOL0     C78278   7.402   8.909   3.947 -0.7704  0.4900  0.2341
  568MOL0     C78279   7.539   8.877   3.972  0.4729  0.2781 -0.4493
  568MOL0     C78280   7.564   8.744   4.026  0.1421  0.9577 -0.9183
  568MOL0     C78281   7.459   8.656   4.067 -0.5187  0.3264 -0.0708
  568MOL0     O78282   7.494   8.535   4.128  0.5578  0.1663 -0.0797
  568MOL0     C78283   7.388   8.433   4.162 -0.4432  0.9208  0.2789
  568MOL0     C78284   7.450   8.300   4.213  0.4317 -0.1915  0.7315
  568MOL0     C78285   7.576   8.247   4.134  0.4585  0.6475 -0.8144
  568MOL0     C78286   7.571   8.259   3.976  0.5843  0.4807  0.0397
  568MOL0     C78287   7.480   8.150   3.926  0.3030 -0.9330  0.4098
  568MOL0     C78288   7.442   8.169   3.772 -0.7471  0.6795  0.6426
  568MOL0     C78289   7.352   8.287   3.756  0.2823 -0.2377  0.3861
  568MOL0     C78290   7.303   8.303   3.606  0.3204 -0.1576 -1.1277
  568MOL0    Cl78291   7.449   8.373   3.535  0.2088 -0.4328 -0.0406
  568MOL0     C78292   7.333   8.700   4.057  0.3214 -1.3204  0.4502
  568MOL0     C78293   7.300   8.821   3.988  0.1515 -0.5342 -0.3544
  568MOL0     O78294   7.344   9.148   4.077 -0.7981 -0.1735  0.3053
  568MOL0     C78295   7.344   9.243   3.721 -0.2943 -0.1547 -0.8152
  568MOL0     C78296   7.300   9.349   3.638 -0.0345  0.1147 -0.0136
  568MOL0     N78297   6.703   9.847   3.571 -0.2868 -0.3226  0.6980
  568MOL0     N78298   6.679   9.965   3.624  0.1090 -0.4185  0.5418
  568MOL0     C78299   7.542  10.557   3.898 -1.2947  0.6626 -0.7270
  568MOL0     C78300   7.624  10.645   3.824  0.1789  0.4418  0.3134
  568MOL0     C78301   7.805  11.010   3.628  0.8157  0.6902 -1.0153
  568MOL0     C78302   7.754  11.127   3.562  0.2605 -0.1489  0.4603
  568MOL0     C78303   7.839  11.227   3.517  0.3105  0.3013  0.6119
  568MOL0     C78304   7.978  11.197   3.515 -0.6007 -0.5180  0.1348
  568MOL0     O78305   8.063  11.294   3.463  0.5330 -0.0500  0.3793
  568MOL0     C78306   8.206  11.296   3.491 -0.0771 -0.1228 -0.2134
  568MOL0     C78307   8.268  11.432   3.444 -0.2295  0.6201  0.2764
  568MOL0     C78308   8.287  11.451   3.287  0.3162 -0.4786 -0.6806
  568MOL0     C78309   8.334  11.593   3.258  0.3257  0.6164  0.3676
  568MOL0     C78310   8.467  11.613   3.308 -0.4886  0.5219  0.3562
  568MOL0     C78311   8.581  11.630   3.359 -0.0638 -0.2455 -0.0517
  568MOL0     C78312   8.027  11.072   3.567  0.3300  0.1778  0.4303
  568MOL0     C78313   7.942  10.978   3.634 -0.1944  0.1282 -0.3323
  568MOL0     C78314   8.004  10.855   3.697 -0.2348 -0.6837  0.2212
  568MOL0     H78315   7.648  10.906   4.028  1.5801  0.2257 -1.5853
  568MOL0     H78316   7.477  10.757   4.169 -1.9145 -0.5509  0.5581
  568MOL0     H78317   7.334  10.632   4.238  0.0610  0.6466 -2.4178
  568MOL0     H78318   7.340  10.465   4.272 -1.8334 -2.2082 -1.6765
  568MOL0     H78319   7.101  10.554   4.252 -2.0984 -1.2021 -0.1067
  568MOL0     H78320   7.136  10.637   4.105 -2.3054 -0.2317 -0.2257
  568MOL0     H78321   7.182  10.354   4.062 -1.0999 -0.8496 -0.3015
  568MOL0     H78322   7.029  10.373   4.152  3.7051 -3.5113  3.1695
  568MOL0     H78323   6.946  10.518   3.964  0.0908 -0.0873 -0.2206
  568MOL0     H78324   7.107  10.525   3.903 -0.7217  2.7065  2.1638
  568MOL0     H78325   6.986  10.253   3.917  0.7236  1.3375  1.2901
  568MOL0     H78326   7.113  10.302   3.813  0.3728 -1.0576  1.4625
  568MOL0     H78327   6.841  10.434   3.778  1.5367  2.7461  0.5595
  568MOL0     H78328   6.976  10.461   3.679  0.1091  1.1249  1.8192
  568MOL0     H78329   6.992  10.224   3.594  0.1789 -4.6490  0.8653
  568MOL0     H78330   6.838  10.293   3.561  0.3259  0.6892  0.4188
  568MOL0     H78331   6.881  10.124   3.798  1.2588  0.8425 -0.6966
  568MOL0     H78332   6.725  10.190   3.763 -2.1136  0.8024 -2.2938
  568MOL0     H78333   7.001   9.964   3.599 -0.0418 -0.1721  0.0917
  568MOL0     H78334   6.843   9.672   3.451 -1.5868  0.9116 -0.0618
  568MOL0     H78335   6.930   9.637   3.598 -2.0477 -3.0702 -2.9751
  568MOL0     H78336   7.081   9.652   3.401 -1.0398 -1.8443  1.3663
  568MOL0     H78337   7.019   9.822   3.371 -0.6656 -0.1145  0.4203
  568MOL0     H78338   7.264   9.772   3.458 -0.9545 -1.0382 -0.3237
  568MOL0     H78339   7.176   9.899   3.528  1.0666 -0.6110 -1.9693
  568MOL0     H78340   7.297   9.739   3.693 -0.1398  0.5836  0.7095
  568MOL0     H78341   7.122   9.702   3.722  1.3754  0.8555  1.1179
  568MOL0     H78342   7.319   9.603   3.867  0.1833  0.5263 -0.7291
  568MOL0     H78343   7.408   9.536   4.062 -2.4913 -0.1188 -2.1563
  568MOL0     H78344   7.481   9.371   4.073 -1.4137 -1.7601 -0.0793
  568MOL0     H78345   7.311   9.409   4.133  0.1786  1.0199  0.7174
  568MOL0     H78346   7.610   8.952   3.939 -1.4707  1.7612 -1.3998
  568MOL0     H78347   7.663   8.699   4.034 -1.2493 -2.2025 -0.0578
  568MOL0     H78348   7.313   8.470   4.232 -2.6529  3.9349 -3.3056
  568MOL0     H78349   7.347   8.397   4.067 -0.4902 -0.7610  0.9081
  568MOL0     H78350   7.489   8.324   4.312  0.0293  0.1771  0.8045
  568MOL0     H78351   7.378   8.218   4.199  0.5930 -0.0535 -1.1722
  568MOL0     H78352   7.591   8.142   4.160 -1.5523  0.6043  0.3314
  568MOL0     H78353   7.657   8.307   4.175  0.1984  1.0421 -0.8697
  568MOL0     H78354   7.667   8.228   3.934  1.8584  2.4065  1.3583
  568MOL0     H78355   7.535   8.359   3.949  0.4663  1.0216  2.0142
  568MOL0     H78356   7.534   8.055   3.938  5.3590  1.5305 -0.3795
  568MOL0     H78357   7.389   8.143   3.986  1.6387 -1.1473  2.4981
  568MOL0     H78358   7.397   8.075   3.736  1.0761  1.0376 -3.0200
  568MOL0     H78359   7.541   8.179   3.726 -0.5609  2.3028  1.3621
  568MOL0     H78360   7.389   8.384   3.792  1.7445 -0.1459 -1.2971
  568MOL0     H78361   7.258   8.266   3.809  0.1528 -0.4174  0.0866
  568MOL0     H78362   7.228   8.382   3.612  0.0075 -0.5220  0.1451
  568MOL0     H78363   7.266   8.215   3.552  1.9775 -0.3398 -2.0269
  568MOL0     H78364   7.254   8.637   4.097  0.9016 -1.8667  0.7637
  568MOL0     H78365   7.197   8.852   3.993  0.3125  0.4506 -2.3868
  568MOL0     H78366   7.375   9.149   3.678 -0.0789 -0.0024 -0.9947
  568MOL0     H78367   7.301   9.346   3.530  2.1357  0.9244 -0.0791
  568MOL0     H78368   7.550  10.450   3.879 -0.8602  0.7389 -0.9865
  568MOL0     H78369   7.659  10.600   3.732 -2.5434  1.3072 -1.2771
  568MOL0     H78370   7.651  11.153   3.541 -0.6103 -2.2629  1.8470
  568MOL0     H78371   7.798  11.316   3.470 -1.5897 -0.4527  0.7202
  568MOL0     H78372   8.222  11.295   3.599 -2.5414  1.3657  0.2563
  568MOL0     H78373   8.249  11.208   3.442 -0.9603 -0.7941  0.1717
  568MOL0     H78374   8.373  11.426   3.473  0.1112 -2.1963 -1.2004
  568MOL0     H78375   8.218  11.521   3.483  0.4608  0.5579  1.3308
  568MOL0     H78376   8.355  11.377   3.244  1.8550  0.6200 -0.2160
  568MOL0     H78377   8.190  11.423   3.245 -0.3803 -3.4440  2.4566
  568MOL0     H78378   8.253  11.648   3.307  1.8930  1.1469  2.5190
  568MOL0     H78379   8.326  11.599   3.149 -1.8898 -1.6463  0.2929
  568MOL0     H78380   8.683  11.618   3.391  0.0056 -2.9129 -1.0463
  568MOL0     H78381   8.135  11.072   3.555  0.4461  1.8199  1.2401
  568MOL0     H78382   7.940  10.767   3.693 -0.5573 -0.6893  3.3702
  568MOL0     H78383   8.099  10.827   3.652  1.4021  2.2421  1.5372
  568MOL0     H78384   8.026  10.868   3.803 -1.8043  1.9104  0.3380
  569MOL0     O78385   3.427  10.229   4.666 -0.7590 -0.3057 -0.0886
  569MOL0     C78386   3.456  10.338   4.714 -0.0516  0.1484 -0.0575
  569MOL0     O78387   3.536  10.427   4.652 -0.5289  0.2607  0.4065
  569MOL0     C78388   3.570  10.405   4.517  0.0544  0.5396 -0.1971
  569MOL0     C78389   3.495  10.461   4.418 -0.1794  0.2066  0.2808
  569MOL0     C78390   3.529  10.443   4.285  0.0118  0.4839  0.2946
  569MOL0     C78391   3.629  10.343   4.244  0.2652 -0.5374  0.3220
  569MOL0     O78392   3.650  10.303   4.116  0.1054  0.0803 -0.4303
  569MOL0     C78393   3.546  10.338   4.026 -0.0115 -0.2420  0.0650
  569MOL0     C78394   3.560  10.234   3.914  0.2825 -0.1393  0.0654
  569MOL0     C78395   3.446  10.234   3.807  0.3539  0.3474  1.2116
  569MOL0     C78396   3.489  10.319   3.686 -0.2692 -0.4788 -0.2645
  569MOL0     C78397   3.393  10.324   3.569  0.2578 -0.7843  0.5359
  569MOL0     C78398   3.456  10.388   3.439 -0.5827 -0.2247 -0.0984
  569MOL0     C78399   3.365  10.372   3.324 -0.5855  0.0596  0.1900
  569MOL0     C78400   3.291  10.507   3.301 -0.1886  0.3523  0.3872
  569MOL0     N78401   3.155  10.498   3.240 -0.2364  0.4392  0.2983
  569MOL0     C78402   3.048  10.439   3.293  0.4391 -0.4993 -0.4052
  569MOL0     C78403   2.952  10.455   3.202 -0.0756  0.2618  0.9975
  569MOL0     C78404   2.818  10.404   3.204 -0.5840 -0.8058  0.4543
  569MOL0     C78405   2.731  10.488   3.302  0.1382  0.0230  0.3029
  569MOL0     C78406   2.698  10.625   3.241 -1.2128  1.0638  0.4660
  569MOL0     C78407   2.581  10.693   3.318 -0.0588  1.0132 -0.2326
  569MOL0     O78408   2.609  10.669   3.459 -0.5504 -0.2428  0.4652
  569MOL0     C78409   2.656  10.765   3.546  0.9045 -0.1530  0.6000
  569MOL0     C78410   2.733  10.882   3.516 -0.2865 -0.6907 -0.1024
  569MOL0     C78411   2.776  10.973   3.619 -0.0009  0.5539 -0.3059
  569MOL0     C78412   2.867  11.090   3.597 -0.2184 -1.0624  0.1354
  569MOL0     C78413   2.743  10.945   3.752 -0.6537  0.6331 -0.3966
  569MOL0     C78414   2.775  11.034   3.873  0.3759 -0.2129 -0.0519
  569MOL0     O78415   2.706  11.151   3.865 -0.4429  0.0757  0.0583
  569MOL0     C78416   2.716  11.242   3.971 -0.4532 -0.2521  0.5316
  569MOL0     C78417   2.786  11.359   3.936  0.8813 -0.5034 -0.3727
  569MOL0     C78418   2.805  11.458   4.039  0.8035  0.1228  0.3732
  569MOL0     C78419   2.754  11.438   4.164  0.5088  0.3424 -0.0341
  569MOL0     O78420   2.784  11.545   4.242 -0.9129  0.0279  0.4580
  569MOL0     C78421   2.771  11.512   4.388  0.0981 -0.1133 -0.1086
  569MOL0     C78422   2.820  11.633   4.466 -0.0017 -0.2016 -0.5476
  569MOL0     C78423   2.969  11.657   4.438  0.3711  0.3282 -0.2155
  569MOL0     C78424   3.020  11.744   4.553 -0.5781 -0.6573 -0.2379
  569MOL0     C78425   3.154  11.819   4.520 -0.3120  0.1970  0.6810
  569MOL0     C78426   3.192  11.916   4.631  0.8728 -0.1227  0.6812
  569MOL0     C78427   3.089  11.999   4.693  0.5848 -0.5032 -0.7412
  569MOL0     C78428   3.138  12.097   4.794  0.6063  0.8796 -0.3580
  569MOL0    Cl78429   3.002  12.182   4.871 -0.3955  0.0435 -0.3400
  569MOL0     C78430   2.682  11.325   4.196  0.0041 -0.4096 -0.0529
  569MOL0     C78431   2.663  11.230   4.099 -0.3644  0.7014  1.2695
  569MOL0     O78432   2.853  11.002   3.959 -0.1889  0.1937 -0.6883
  569MOL0     C78433   2.677  10.826   3.778  0.2825  0.3545  0.0564
  569MOL0     C78434   2.627  10.745   3.678  0.7394  0.2822 -0.5247
  569MOL0     N78435   2.997  10.541   3.105 -0.4542  0.0463 -0.3863
  569MOL0     N78436   3.120  10.567   3.129  0.2549 -0.5373 -0.9888
  569MOL0     C78437   3.705  10.287   4.346  0.6323  0.0315 -0.4349
  569MOL0     C78438   3.675  10.319   4.485  0.2922 -0.9190 -0.0637
  569MOL0     C78439   3.407  10.361   4.852 -0.1853  1.7576 -1.2446
  569MOL0     C78440   3.342  10.482   4.879  0.5775  0.1223  0.4827
  569MOL0     C78441   3.294  10.515   5.005 -0.6331  0.0783  0.0781
  569MOL0     C78442   3.298  10.422   5.110 -0.3845  1.3476  0.7221
  569MOL0     O78443   3.237  10.426   5.229  0.1610  1.0793 -0.3457
  569MOL0     C78444   3.161  10.539   5.271  0.8522  0.3542 -0.1512
  569MOL0     C78445   3.121  10.515   5.410  0.1803  0.8784 -0.0540
  569MOL0     C78446   3.241  10.517   5.497 -0.0291  0.6311  0.1988
  569MOL0     C78447   3.219  10.491   5.640 -0.0037 -0.1384 -0.3537
  569MOL0     C78448   3.133  10.594   5.696 -0.0666  1.2349 -0.2982
  569MOL0     C78449   3.057  10.672   5.756 -0.5121 -0.0787  0.4199
  569MOL0     C78450   3.365  10.303   5.084  0.3311 -0.1638 -0.9543
  569MOL0     C78451   3.418  10.269   4.961  0.2022 -0.7218 -0.7253
  569MOL0     C78452   3.467  10.125   4.946 -0.3445  0.8480  1.0604
  569MOL0     H78453   3.415  10.529   4.445 -0.1395  0.9379 -1.3098
  569MOL0     H78454   3.471  10.495   4.209  0.0110 -0.0475 -0.0824
  569MOL0     H78455   3.570  10.440   3.995  2.9373 -0.9065 -0.2142
  569MOL0     H78456   3.449  10.333   4.075 -0.2442 -0.8233 -0.4409
  569MOL0     H78457   3.651  10.269   3.865  0.8660 -0.1066  1.1503
  569MOL0     H78458   3.582  10.140   3.965  4.0491  0.2159 -0.6438
  569MOL0     H78459   3.426  10.129   3.782  0.7957  0.8497 -1.5755
  569MOL0     H78460   3.351  10.281   3.834 -0.9872 -1.4264 -0.1795
  569MOL0     H78461   3.505  10.420   3.725 -2.4855 -0.9955  2.3186
  569MOL0     H78462   3.582  10.275   3.649  2.1220  0.7354  3.6773
  569MOL0     H78463   3.303  10.377   3.602  0.5337  0.0773 -0.0946
  569MOL0     H78464   3.382  10.218   3.544 -0.8552 -0.5228 -0.1916
  569MOL0     H78465   3.474  10.495   3.453 -2.0134 -0.1087  1.1306
  569MOL0     H78466   3.551  10.338   3.419 -1.0488 -0.5380 -1.6558
  569MOL0     H78467   3.286  10.299   3.343  0.9391 -1.5001  0.8791
  569MOL0     H78468   3.419  10.338   3.235  1.8256 -0.1739  1.6276
  569MOL0     H78469   3.269  10.562   3.392  2.0321  0.5617  0.8687
  569MOL0     H78470   3.357  10.572   3.243  2.8275  1.9719  5.0625
  569MOL0     H78471   3.043  10.379   3.383  2.7538 -0.6454 -0.3244
  569MOL0     H78472   2.815  10.300   3.240  0.3648 -0.8382  0.4513
  569MOL0     H78473   2.771  10.402   3.105  1.1899  1.3953 -0.4899
  569MOL0     H78474   2.639  10.432   3.324  0.1961  0.3591  1.5064
  569MOL0     H78475   2.770  10.486   3.404 -0.5708  1.5462  0.6361
  569MOL0     H78476   2.792  10.680   3.239  1.5669 -3.2529  0.3119
  569MOL0     H78477   2.661  10.613   3.138 -1.4189  1.4108  0.4988
  569MOL0     H78478   2.576  10.799   3.294  2.7436  1.0562 -0.9162
  569MOL0     H78479   2.479  10.661   3.294  0.3651 -0.5765 -0.0810
  569MOL0     H78480   2.762  10.911   3.416  2.3621 -2.1903  0.1435
  569MOL0     H78481   2.820  11.173   3.544  0.5655 -2.2202 -2.5615
  569MOL0     H78482   2.952  11.047   3.543 -0.1911  1.0770 -1.6271
  569MOL0     H78483   2.926  11.115   3.685 -1.0095 -1.4869  0.8074
  569MOL0     H78484   2.824  11.366   3.834 -2.3759  3.8729 -1.5984
  569MOL0     H78485   2.868  11.543   4.016 -0.3479  1.0234  0.4440
  569MOL0     H78486   2.664  11.506   4.409 -0.1652 -0.5023 -1.4416
  569MOL0     H78487   2.818  11.417   4.416 -3.4270 -2.5177 -1.5061
  569MOL0     H78488   2.763  11.722   4.440  0.5108  0.6352  1.0540
  569MOL0     H78489   2.813  11.610   4.573  1.1825  2.2526  0.1275
  569MOL0     H78490   2.984  11.714   4.346  1.5369  1.4799  0.6466
  569MOL0     H78491   3.045  11.578   4.438  0.4288  0.3627 -1.4637
  569MOL0     H78492   3.041  11.682   4.642  1.1002 -2.2242 -1.6478
  569MOL0     H78493   2.942  11.818   4.568  0.1113  0.8968 -3.5307
  569MOL0     H78494   3.222  11.733   4.522 -3.3596 -2.4690 -0.6667
  569MOL0     H78495   3.118  11.855   4.423 -3.2770 -1.7140  0.9476
  569MOL0     H78496   3.272  11.983   4.598 -2.0695  2.3017 -2.1075
  569MOL0     H78497   3.210  11.845   4.712 -2.8114 -1.1755  0.7532
  569MOL0     H78498   3.017  11.934   4.745 -0.1634 -0.2717 -1.4704
  569MOL0     H78499   3.038  12.063   4.620 -0.5309  1.5769  1.7017
  569MOL0     H78500   3.202  12.165   4.738  1.8643 -2.4487 -3.3148
  569MOL0     H78501   3.187  12.039   4.874 -1.2662  1.2854  1.1533
  569MOL0     H78502   2.638  11.305   4.293 -0.5268  1.9680  0.2786
  569MOL0     H78503   2.606  11.138   4.109 -1.3584  0.8482 -1.8479
  569MOL0     H78504   2.652  10.790   3.878 -1.1165  1.7010  0.2314
  569MOL0     H78505   2.571  10.653   3.692  1.3388 -0.1768 -1.0482
  569MOL0     H78506   3.790  10.223   4.324 -0.2001 -2.2284  2.3146
  569MOL0     H78507   3.738  10.277   4.563  1.6852 -0.7386 -1.0440
  569MOL0     H78508   3.316  10.536   4.788 -1.4879 -0.2031  0.8262
  569MOL0     H78509   3.240  10.610   5.004 -1.4291 -0.2880 -2.8212
  569MOL0     H78510   3.225  10.627   5.261 -1.2296  2.0698  0.9603
  569MOL0     H78511   3.065  10.539   5.220 -0.2701  1.4402  1.8584
  569MOL0     H78512   3.060  10.424   5.415 -2.8576  2.8161  1.0673
  569MOL0     H78513   3.043  10.587   5.438  0.4668  0.5881  1.5726
  569MOL0     H78514   3.309  10.435   5.471 -2.7341 -1.3344 -1.3394
  569MOL0     H78515   3.296  10.610   5.487  0.8697 -0.1084 -3.6833
  569MOL0     H78516   3.311  10.472   5.696  0.8433 -4.0669 -2.6643
  569MOL0     H78517   3.177  10.391   5.657  0.9416 -0.7397 -1.3644
  569MOL0     H78518   2.987  10.727   5.814 -3.2353 -1.0151 -1.7551
  569MOL0     H78519   3.361  10.229   5.163 -0.4893  3.8669  3.2097
  569MOL0     H78520   3.570  10.115   4.910 -0.2759 -2.2213  1.8752
  569MOL0     H78521   3.469  10.075   5.043 -1.8425  1.5650  1.4928
  569MOL0     H78522   3.396  10.087   4.872  1.1572 -0.1243  0.0795
  570MOL0     O78523   3.336   9.304   4.471  0.3683 -0.1844  0.2184
  570MOL0     C78524   3.407   9.212   4.427  0.1282 -0.4599 -0.3018
  570MOL0     O78525   3.375   9.082   4.394  0.2949 -0.2658 -0.3650
  570MOL0     C78526   3.243   9.052   4.401 -0.6309  0.3948  0.0138
  570MOL0     C78527   3.209   8.957   4.500 -0.6716 -0.7291  0.7012
  570MOL0     C78528   3.073   8.928   4.530 -0.4341 -0.7353  0.6847
  570MOL0     C78529   2.971   8.990   4.445  1.0045  0.1949  0.1425
  570MOL0     O78530   2.834   8.959   4.473  0.1405  0.3924  0.4144
  570MOL0     C78531   2.742   9.067   4.458  0.2480 -0.8971 -0.0359
  570MOL0     C78532   2.627   9.054   4.564  0.4294  0.0651  0.2336
  570MOL0     C78533   2.512   9.148   4.522  0.2959  0.2158  0.0781
  570MOL0     C78534   2.393   9.075   4.474 -0.5944 -0.4496  0.4780
  570MOL0     C78535   2.281   9.170   4.420 -0.3939  0.4008 -0.0353
  570MOL0     C78536   2.289   9.312   4.467  1.1589 -0.5069 -0.3263
  570MOL0     C78537   2.143   9.378   4.454 -1.0694  0.8570 -0.5294
  570MOL0     C78538   2.147   9.526   4.464 -0.6508 -0.1016 -0.5802
  570MOL0     N78539   2.208   9.588   4.574  0.1725  0.2573  0.1468
  570MOL0     C78540   2.179   9.712   4.613 -0.4331 -0.0404  0.3743
  570MOL0     C78541   2.272   9.747   4.706 -0.1808  0.1008 -0.2633
  570MOL0     C78542   2.283   9.872   4.780  0.3590  0.5261  0.9439
  570MOL0     C78543   2.162   9.901   4.872 -0.6877  0.9152  0.2075
  570MOL0     C78544   2.146   9.788   4.977 -0.7065  0.5333 -1.3384
  570MOL0     C78545   2.029   9.800   5.064 -0.8261 -0.5005  0.2907
  570MOL0     O78546   2.011   9.687   5.156 -0.3783  0.4173 -0.8130
  570MOL0     C78547   1.910   9.674   5.242 -0.9400 -0.0195 -0.2649
  570MOL0     C78548   1.809   9.781   5.259  0.0881  0.3051 -0.5471
  570MOL0     C78549   1.698   9.762   5.338  0.1148 -0.1828 -0.8538
  570MOL0     C78550   1.607   9.880   5.345  0.2456  0.6106  0.1665
  570MOL0     C78551   1.672   9.644   5.406 -0.0075  0.4246 -0.1189
  570MOL0     C78552   1.554   9.605   5.485  0.2969  0.8373  0.8963
  570MOL0     O78553   1.572   9.500   5.571 -0.1788  0.4780  0.1838
  570MOL0     C78554   1.480   9.420   5.628 -0.2791  1.1081 -0.2566
  570MOL0     C78555   1.472   9.420   5.768 -0.3001 -0.3771  0.4898
  570MOL0     C78556   1.384   9.329   5.833  0.0839 -0.5382 -0.1658
  570MOL0     C78557   1.289   9.254   5.755 -0.0607 -0.5469 -0.4157
  570MOL0     O78558   1.183   9.173   5.812 -0.2457 -0.6626  0.0976
  570MOL0     C78559   1.179   9.173   5.955  0.8488 -0.4583 -0.4333
  570MOL0     C78560   1.054   9.096   6.008 -0.6277 -0.3024  0.6954
  570MOL0     C78561   1.047   9.098   6.156  0.4839  0.1219  0.7213
  570MOL0     C78562   0.904   9.064   6.203  0.4255  0.1769  0.6229
  570MOL0     C78563   0.920   9.064   6.363 -0.3316  0.0504  0.8797
  570MOL0     C78564   0.789   9.030   6.423  0.2990  0.4125 -0.1168
  570MOL0     C78565   0.794   8.998   6.574 -0.0506 -0.2618 -1.1108
  570MOL0     C78566   0.806   9.131   6.641 -0.1870 -0.0599  0.5498
  570MOL0    Cl78567   0.803   9.105   6.817  0.2150 -0.2196 -0.3712
  570MOL0     C78568   1.302   9.250   5.614 -0.3336  0.1361 -0.9900
  570MOL0     C78569   1.400   9.339   5.558  0.0503  0.0373  1.0151
  570MOL0     O78570   1.446   9.658   5.461  0.5357 -0.2953  0.3923
  570MOL0     C78571   1.771   9.547   5.398  0.0052 -0.3221  0.0655
  570MOL0     C78572   1.883   9.554   5.310 -0.2289  0.1002 -0.4830
  570MOL0     N78573   2.349   9.630   4.737  0.8010  0.5344  0.9968
  570MOL0     N78574   2.309   9.537   4.652  0.3078 -0.5814 -0.1794
  570MOL0     C78575   3.005   9.081   4.335 -0.0991  0.5614  0.2060
  570MOL0     C78576   3.145   9.113   4.320  0.5525 -0.0245 -0.6190
  570MOL0     C78577   3.544   9.243   4.438 -0.1672  0.2253 -0.4198
  570MOL0     C78578   3.637   9.139   4.485 -0.6040  0.3485  0.8703
  570MOL0     C78579   3.778   9.152   4.469  1.0200 -0.5564  0.4952
  570MOL0     C78580   3.836   9.275   4.430  0.8682 -0.1397 -0.2447
  570MOL0     O78581   3.968   9.296   4.439  0.0310 -0.3089 -0.1329
  570MOL0     C78582   4.052   9.193   4.367 -0.0229 -0.4432  1.0973
  570MOL0     C78583   4.113   9.245   4.237 -0.7516  0.6228 -0.4941
  570MOL0     C78584   4.242   9.323   4.260 -0.2091 -0.2355 -0.7375
  570MOL0     C78585   4.214   9.472   4.271  0.0382  0.5624  0.3706
  570MOL0     C78586   4.332   9.543   4.308 -0.3839  0.5586 -0.2158
  570MOL0     C78587   4.433   9.611   4.314 -1.1475 -0.4528  0.9271
  570MOL0     C78588   3.750   9.377   4.400  0.1507  0.0864  0.0088
  570MOL0     C78589   3.610   9.369   4.402  0.4034 -0.0735 -0.6122
  570MOL0     C78590   3.551   9.488   4.346  0.0435  0.5924 -0.3276
  570MOL0     H78591   3.285   8.901   4.553 -1.5954 -0.2161  2.6905
  570MOL0     H78592   3.044   8.850   4.600  1.9435 -1.1525  1.2929
  570MOL0     H78593   2.705   9.060   4.356 -0.6226 -1.9979  0.3399
  570MOL0     H78594   2.793   9.163   4.470  0.6028 -0.9650 -0.9284
  570MOL0     H78595   2.585   8.954   4.555  1.5519 -0.2085 -3.5609
  570MOL0     H78596   2.670   9.077   4.662  1.1697 -0.9515  0.1652
  570MOL0     H78597   2.489   9.195   4.619  2.3878 -0.9039  1.1893
  570MOL0     H78598   2.543   9.229   4.456  1.4812  1.3696  1.9430
  570MOL0     H78599   2.421   9.018   4.385 -2.3539  2.8610 -2.4162
  570MOL0     H78600   2.359   9.007   4.553  0.9373 -1.0260  0.6852
  570MOL0     H78601   2.182   9.137   4.452 -0.3750 -0.2651 -0.6443
  570MOL0     H78602   2.275   9.158   4.311 -0.7950  1.8337 -0.1898
  570MOL0     H78603   2.320   9.309   4.572  4.1659  0.1203 -1.1054
  570MOL0     H78604   2.353   9.376   4.406  0.6687 -2.0444 -2.5642
  570MOL0     H78605   2.071   9.334   4.524 -0.8701  3.5024  1.4885
  570MOL0     H78606   2.097   9.353   4.358  0.1803 -2.3018 -0.4424
  570MOL0     H78607   2.203   9.565   4.378 -0.4822  0.1698 -0.3488
  570MOL0     H78608   2.048   9.572   4.455 -0.7078  0.6483  2.5894
  570MOL0     H78609   2.100   9.773   4.571  1.3767  0.6055 -2.4026
  570MOL0     H78610   2.285   9.949   4.703  2.2438  0.9802  1.3939
  570MOL0     H78611   2.382   9.876   4.828  1.5733 -1.7331 -1.1262
  570MOL0     H78612   2.171   9.999   4.921  1.5639  0.0330  1.6872
  570MOL0     H78613   2.075   9.906   4.805  1.8621  1.4245 -3.3975
  570MOL0     H78614   2.134   9.691   4.928 -0.2719  0.5799 -1.5428
  570MOL0     H78615   2.235   9.782   5.040 -2.9661 -1.6510  1.9244
  570MOL0     H78616   2.055   9.887   5.124  0.4560 -1.0401  0.5542
  570MOL0     H78617   1.947   9.818   4.995  0.6988  0.5800 -1.3047
  570MOL0     H78618   1.810   9.879   5.211 -2.3694 -0.2751 -1.9741
  570MOL0     H78619   1.509   9.860   5.301  0.2248 -0.5174  0.6993
  570MOL0     H78620   1.654   9.974   5.315 -2.8607  1.4551 -2.8139
  570MOL0     H78621   1.582   9.898   5.450  2.9507 -4.3926  1.9649
  570MOL0     H78622   1.528   9.494   5.825  1.2037 -1.0376 -0.0906
  570MOL0     H78623   1.380   9.323   5.941 -3.1181 -0.2045 -0.1704
  570MOL0     H78624   1.268   9.127   5.998  0.4656  1.2788  2.4358
  570MOL0     H78625   1.174   9.276   5.989 -2.7841 -0.1995 -1.3652
  570MOL0     H78626   0.958   9.127   5.966 -1.4230 -2.9697  0.4052
  570MOL0     H78627   1.072   8.995   5.971  1.8479  0.5518 -0.6309
  570MOL0     H78628   1.070   9.199   6.190  0.1716  0.5135 -0.2054
  570MOL0     H78629   1.124   9.028   6.191  0.6413 -0.1301 -0.0950
  570MOL0     H78630   0.874   8.961   6.179  0.0806  0.1684  1.0827
  570MOL0     H78631   0.847   9.153   6.176  2.4770  1.8790  1.6345
  570MOL0     H78632   0.992   8.991   6.401 -0.8278 -0.2439  1.2623
  570MOL0     H78633   0.951   9.164   6.392 -2.2923  0.4076  1.9143
  570MOL0     H78634   0.751   8.934   6.389 -0.0934  0.1004  1.1612
  570MOL0     H78635   0.722   9.112   6.395  0.0701  0.9398  1.7999
  570MOL0     H78636   0.871   8.929   6.610  4.1930  3.6266 -1.7375
  570MOL0     H78637   0.699   8.958   6.610 -0.1587  0.3133 -0.7322
  570MOL0     H78638   0.732   9.200   6.600  0.8781  0.3954 -0.6430
  570MOL0     H78639   0.899   9.187   6.627 -2.3072  3.6806  0.2298
  570MOL0     H78640   1.239   9.187   5.552  1.8850 -4.0960  0.6564
  570MOL0     H78641   1.405   9.348   5.450 -0.7390 -0.8532  0.8853
  570MOL0     H78642   1.757   9.448   5.441  0.3095 -1.8010 -2.9375
  570MOL0     H78643   1.940   9.462   5.298  1.3075  0.3744  3.2888
  570MOL0     H78644   2.928   9.125   4.272 -1.2721 -2.0324 -0.3003
  570MOL0     H78645   3.176   9.199   4.262 -1.5400  0.0558 -1.7044
  570MOL0     H78646   3.588   9.051   4.525 -2.2612  1.3358  1.0691
  570MOL0     H78647   3.842   9.067   4.490  2.2798 -0.6706 -3.0208
  570MOL0     H78648   4.124   9.168   4.446 -1.8912 -0.5698  2.8653
  570MOL0     H78649   3.992   9.104   4.344 -0.1250 -0.0725 -0.0955
  570MOL0     H78650   4.050   9.313   4.178 -2.8353  0.8918  1.8629
  570MOL0     H78651   4.137   9.157   4.176 -1.3909  1.0454 -1.3788
  570MOL0     H78652   4.286   9.297   4.357 -0.8721 -3.5018 -1.1833
  570MOL0     H78653   4.307   9.310   4.173 -1.8257 -0.0473 -2.0292
  570MOL0     H78654   4.134   9.480   4.345 -0.2357 -2.0546  0.4249
  570MOL0     H78655   4.184   9.512   4.173 -0.0959  1.0663  0.6126
  570MOL0     H78656   4.526   9.663   4.306 -0.5645 -1.1974  2.4665
  570MOL0     H78657   3.801   9.471   4.380 -0.5434  0.6786  0.9340
  570MOL0     H78658   3.444   9.470   4.329 -0.2267 -0.3804  1.9853
  570MOL0     H78659   3.552   9.567   4.421  0.9172  0.1222  0.1636
  570MOL0     H78660   3.607   9.518   4.257 -0.8261  0.5405 -0.9134
  571MOL0     O78661  10.711   9.594   3.573  0.4465  0.2489  0.0179
  571MOL0     C78662  10.681   9.478   3.605 -0.0610  0.4972 -0.2080
  571MOL0     O78663  10.680   9.369   3.515  0.8533  0.0677  0.1386
  571MOL0     C78664  10.724   9.369   3.385  0.1159  0.8529 -0.2630
  571MOL0     C78665  10.775   9.474   3.307  0.6294 -0.4892  0.5596
  571MOL0     C78666  10.811   9.456   3.172  0.7486  0.0380  0.7729
  571MOL0     C78667  10.790   9.331   3.107  0.5266 -0.5371 -0.3465
  571MOL0     O78668  10.793   9.322   2.972 -0.0049  0.6846 -0.3487
  571MOL0     C78669  10.864   9.425   2.891  0.0337 -0.0859 -0.5355
  571MOL0     C78670  10.860   9.387   2.740  0.5643 -0.0451 -0.4854
  571MOL0     C78671  10.970   9.292   2.699  1.1725  0.0587 -0.6164
  571MOL0     C78672  10.961   9.239   2.550 -0.6090 -0.1189 -0.4059
  571MOL0     C78673  11.075   9.146   2.530 -0.1503  0.2993  0.5630
  571MOL0     C78674  11.088   9.119   2.374  0.2212 -0.7288  0.6640
  571MOL0     C78675  11.167   8.994   2.341  0.5543  0.7893  0.4229
  571MOL0     C78676  11.167   8.875   2.445  1.1391  0.4808  0.6065
  571MOL0     N78677  11.205   8.748   2.386 -0.1080  0.2914 -0.2786
  571MOL0     C78678  11.332   8.715   2.340  0.8561  0.3624  0.3238
  571MOL0     C78679  11.319   8.595   2.278  0.3145 -0.6676 -0.4807
  571MOL0     C78680  11.432   8.517   2.216  1.1990 -0.4932 -0.5207
  571MOL0     C78681  11.394   8.412   2.097  0.6053  0.0856 -0.5061
  571MOL0     C78682  11.520   8.361   2.026 -0.5116  0.0071  0.0808
  571MOL0     C78683  11.586   8.257   2.113 -0.6708  1.0048  0.2566
  571MOL0     O78684  11.492   8.147   2.144 -0.2292 -0.1845 -0.3786
  571MOL0     C78685  11.529   8.025   2.093  0.5024  0.9169  0.5965
  571MOL0     C78686  11.513   7.993   1.954  0.1753 -0.4994 -0.0381
  571MOL0     C78687  11.537   7.870   1.902 -0.1671 -0.2547  0.6839
  571MOL0     C78688  11.547   7.853   1.755 -0.2237 -0.6279  0.6448
  571MOL0     C78689  11.562   7.768   1.992  0.6338  0.5369  0.3888
  571MOL0     C78690  11.609   7.639   1.931 -0.0962 -0.2189 -0.0622
  571MOL0     O78691  11.704   7.584   2.006  0.2079 -0.6163 -0.0970
  571MOL0     C78692  11.729   7.454   2.006 -0.2168  0.0117 -0.5934
  571MOL0     C78693  11.850   7.413   1.960  0.1451 -0.2294  0.0440
  571MOL0     C78694  11.881   7.276   1.944 -1.4938 -0.0347 -0.0013
  571MOL0     C78695  11.791   7.174   1.966 -0.1052 -0.9121  0.5697
  571MOL0     O78696  11.838   7.056   1.932 -0.5284 -0.1483  0.3535
  571MOL0     C78697  11.737   6.955   1.913 -0.1269  0.1189 -0.5564
  571MOL0     C78698  11.788   6.840   1.825  0.7368  0.5739 -0.4554
  571MOL0     C78699  11.874   6.738   1.901 -0.4917 -0.6652 -0.4554
  571MOL0     C78700  11.925   6.624   1.811 -0.1178  0.4577 -0.6964
  571MOL0     C78701  12.002   6.514   1.889 -0.2977 -0.2496  0.4492
  571MOL0     C78702  11.961   6.494   2.033  0.9286  0.4390 -0.3651
  571MOL0     C78703  12.042   6.363   2.087 -0.1825 -0.3428  0.1403
  571MOL0     C78704  11.972   6.287   2.201  0.5789  0.4391  0.4699
  571MOL0    Cl78705  11.951   6.396   2.345  0.2634  0.0051 -0.7970
  571MOL0     C78706  11.661   7.217   2.013 -0.3470  0.2179  0.4725
  571MOL0     C78707  11.638   7.361   2.037  0.6437  1.1854  0.8921
  571MOL0     O78708  11.554   7.581   1.841  0.3175  0.7418 -0.0038
  571MOL0     C78709  11.570   7.795   2.131  0.2641 -0.5278  0.7746
  571MOL0     C78710  11.560   7.923   2.179  1.0724 -0.1061  0.7707
  571MOL0     N78711  11.181   8.566   2.279 -0.3126 -0.6973  1.3672
  571MOL0     N78712  11.119   8.663   2.332 -0.1409 -1.0441 -0.4628
  571MOL0     C78713  10.750   9.225   3.183  0.2833 -0.3141  0.7104
  571MOL0     C78714  10.730   9.243   3.326 -0.7196 -0.0095  0.2764
  571MOL0     C78715  10.650   9.443   3.739 -0.6514 -0.8305 -1.3166
  571MOL0     C78716  10.644   9.310   3.776 -0.5167 -0.0417  0.7161
  571MOL0     C78717  10.601   9.266   3.900  0.6432  0.9348 -0.0776
  571MOL0     C78718  10.574   9.360   4.002 -0.7142  0.0691 -0.1101
  571MOL0     O78719  10.542   9.313   4.123 -0.4680 -0.7625  0.2342
  571MOL0     C78720  10.499   9.403   4.218 -0.0517 -0.3254 -0.4726
  571MOL0     C78721  10.358   9.461   4.176 -0.1607  0.1725  0.5662
  571MOL0     C78722  10.330   9.585   4.269 -0.3286 -0.1660 -0.1802
  571MOL0     C78723  10.212   9.666   4.226  0.2136 -0.4576  0.0120
  571MOL0     C78724  10.083   9.598   4.229  0.4906 -0.7584 -0.3646
  571MOL0     C78725   9.981   9.537   4.231 -0.3370  0.3644  0.4631
  571MOL0     C78726  10.584   9.494   3.968  0.6982 -0.5454 -1.6705
  571MOL0     C78727  10.628   9.542   3.843  0.3645  0.6041  0.0009
  571MOL0     C78728  10.607   9.689   3.818 -0.1649 -0.4762  0.9683
  571MOL0     H78729  10.787   9.579   3.336 -1.0481  0.3931 -1.6713
  571MOL0     H78730  10.835   9.546   3.117 -2.8389  0.1959 -0.8129
  571MOL0     H78731  10.966   9.436   2.927  0.9237 -2.1413 -2.2298
  571MOL0     H78732  10.807   9.517   2.904 -1.2683 -1.1616  2.1258
  571MOL0     H78733  10.762   9.346   2.716 -0.4058  2.0646 -0.2997
  571MOL0     H78734  10.879   9.480   2.686 -2.6462  0.8959 -0.1920
  571MOL0     H78735  11.072   9.328   2.716  1.9214  0.0175 -4.2044
  571MOL0     H78736  10.964   9.202   2.761  0.9538 -0.8176 -1.8492
  571MOL0     H78737  10.866   9.186   2.542 -0.4525 -0.2726 -1.4600
  571MOL0     H78738  10.968   9.324   2.482  0.4290  0.8527  0.8684
  571MOL0     H78739  11.070   9.059   2.596  0.7182  1.1504  1.7854
  571MOL0     H78740  11.169   9.196   2.552  1.9727 -2.7301 -0.8218
  571MOL0     H78741  10.988   9.099   2.333  0.0774 -1.7035  1.4599
  571MOL0     H78742  11.133   9.204   2.322 -1.0616 -0.9912 -0.9909
  571MOL0     H78743  11.270   9.029   2.328  1.1486 -0.1586  2.3131
  571MOL0     H78744  11.132   8.949   2.248 -0.3160  1.5589  0.3623
  571MOL0     H78745  11.229   8.906   2.530  1.3643 -1.7447  1.3080
  571MOL0     H78746  11.062   8.873   2.478  0.0348  0.7019 -2.5706
  571MOL0     H78747  11.426   8.769   2.349  1.9226 -0.8008 -2.5927
  571MOL0     H78748  11.478   8.458   2.296  2.8742  1.5681  0.1174
  571MOL0     H78749  11.500   8.595   2.180  0.1840  0.1570 -1.0737
  571MOL0     H78750  11.338   8.328   2.139 -0.5423  0.9797 -0.1961
  571MOL0     H78751  11.332   8.458   2.019 -1.3387 -0.1942  0.8120
  571MOL0     H78752  11.492   8.331   1.924  0.2149 -1.6151  0.3419
  571MOL0     H78753  11.589   8.444   2.005 -0.1197 -0.0206  1.1878
  571MOL0     H78754  11.683   8.226   2.072  0.2083  1.1810  2.0698
  571MOL0     H78755  11.611   8.303   2.209  0.9515  0.5034  0.1103
  571MOL0     H78756  11.488   8.076   1.889 -0.5724 -1.7867 -1.4638
  571MOL0     H78757  11.442   7.858   1.725 -0.3838 -0.8079  1.1688
  571MOL0     H78758  11.591   7.765   1.707 -1.5435 -0.1603 -1.5462
  571MOL0     H78759  11.598   7.940   1.712  1.8480 -1.6526  0.8684
  571MOL0     H78760  11.917   7.491   1.925 -2.3013  1.4307 -1.2743
  571MOL0     H78761  11.982   7.246   1.918 -0.5549  1.2463  1.9159
  571MOL0     H78762  11.710   6.924   2.015  0.6673  1.0287 -0.0569
  571MOL0     H78763  11.646   6.998   1.871  0.1878  1.8484  0.4227
  571MOL0     H78764  11.699   6.785   1.794  0.9465  0.4497 -0.8377
  571MOL0     H78765  11.830   6.870   1.728  0.0115 -1.3014 -1.4011
  571MOL0     H78766  11.799   6.693   1.967 -1.0302 -0.8125 -1.1472
  571MOL0     H78767  11.948   6.791   1.962 -0.0600  0.7567 -2.1307
  571MOL0     H78768  11.995   6.661   1.737  0.2093  1.2604  0.0011
  571MOL0     H78769  11.842   6.578   1.756 -2.4315  2.7394  0.6505
  571MOL0     H78770  11.990   6.415   1.846 -0.5131  0.6581 -1.7051
  571MOL0     H78771  12.105   6.551   1.888 -1.1546  2.3941 -0.7751
  571MOL0     H78772  11.854   6.472   2.043  1.2154 -0.4452  0.8781
  571MOL0     H78773  11.973   6.573   2.107  1.2930 -1.5198  1.7598
  571MOL0     H78774  12.135   6.400   2.130  0.3108  2.3169 -2.8740
  571MOL0     H78775  12.064   6.293   2.006 -1.6700  2.0346 -2.5196
  571MOL0     H78776  12.030   6.198   2.229 -0.3229 -0.1562  0.5088
  571MOL0     H78777  11.877   6.252   2.159  1.9562 -0.5931 -2.0559
  571MOL0     H78778  11.583   7.146   2.037 -0.2222  0.1785  0.7684
  571MOL0     H78779  11.537   7.385   2.068 -0.6705 -0.2153 -1.8471
  571MOL0     H78780  11.603   7.722   2.204 -3.5532 -2.4409  0.8173
  571MOL0     H78781  11.573   7.941   2.285  1.2930 -1.2060  0.9345
  571MOL0     H78782  10.756   9.128   3.134  0.0285 -1.4183  2.7427
  571MOL0     H78783  10.711   9.156   3.388  2.8612 -0.0148  1.6239
  571MOL0     H78784  10.669   9.235   3.702  1.6380  1.4348 -0.1578
  571MOL0     H78785  10.580   9.163   3.926 -1.7086  0.2902 -3.7734
  571MOL0     H78786  10.496   9.353   4.316 -2.3307  0.6810  0.0405
  571MOL0     H78787  10.569   9.487   4.228  1.9322 -1.0928 -5.3958
  571MOL0     H78788  10.284   9.381   4.183 -0.6182  0.1232 -2.9135
  571MOL0     H78789  10.360   9.485   4.069  0.7402 -2.5348 -0.1018
  571MOL0     H78790  10.313   9.561   4.375  0.5228 -0.2521 -0.0560
  571MOL0     H78791  10.412   9.657   4.267 -0.3221 -0.1648 -2.3590
  571MOL0     H78792  10.228   9.685   4.119 -2.3371 -1.3653 -0.6105
  571MOL0     H78793  10.201   9.764   4.273 -1.9311 -1.4179  1.6858
  571MOL0     H78794   9.881   9.498   4.234 -0.7565  1.4733  1.5023
  571MOL0     H78795  10.555   9.569   4.041  2.7526 -2.2042  1.0521
  571MOL0     H78796  10.552   9.706   3.725 -2.4965 -0.3003  2.3036
  571MOL0     H78797  10.542   9.743   3.887  1.9096  4.4173 -0.4612
  571MOL0     H78798  10.704   9.738   3.828 -0.0504 -1.0110  2.7328
  572MOL0     O78799   4.432   2.211   5.819  0.6362 -0.1353 -1.0942
  572MOL0     C78800   4.515   2.132   5.857  0.2103  0.8464  0.6084
  572MOL0     O78801   4.652   2.136   5.834 -0.6002 -0.1847  0.1155
  572MOL0     C78802   4.695   2.264   5.797  0.7522  0.1317 -0.3420
  572MOL0     C78803   4.792   2.342   5.865  1.1279  0.0887 -0.5615
  572MOL0     C78804   4.831   2.463   5.812  0.0444 -0.5358  0.0135
  572MOL0     C78805   4.791   2.506   5.690 -0.0506  0.1024  0.5783
  572MOL0     O78806   4.824   2.621   5.635 -0.4871  0.1894 -0.1201
  572MOL0     C78807   4.915   2.706   5.702 -0.4318  0.1617  0.6279
  572MOL0     C78808   4.930   2.845   5.636 -1.2403  0.5810  0.4889
  572MOL0     C78809   4.814   2.933   5.695  0.2529  0.7699 -0.3263
  572MOL0     C78810   4.817   3.089   5.664  0.9699 -0.6094  0.6112
  572MOL0     C78811   4.884   3.178   5.766  0.2847 -0.0641 -0.2324
  572MOL0     C78812   4.882   3.329   5.735 -0.1426  1.2441 -0.9005
  572MOL0     C78813   5.026   3.389   5.774  1.1385 -0.2299  0.0471
  572MOL0     C78814   5.122   3.359   5.656 -0.4099  0.9978 -0.3286
  572MOL0     N78815   5.245   3.436   5.657  1.3476  0.7702 -0.4532
  572MOL0     C78816   5.349   3.423   5.748 -0.1820 -0.4259  0.0435
  572MOL0     C78817   5.438   3.516   5.703 -0.0981  0.0395 -0.0162
  572MOL0     C78818   5.572   3.541   5.772  0.9340 -0.0198  0.3049
  572MOL0     C78819   5.553   3.630   5.894  0.1826 -0.7987 -0.1672
  572MOL0     C78820   5.692   3.645   5.957 -0.7466  0.1954 -0.1857
  572MOL0     C78821   5.681   3.731   6.077 -0.0099 -1.3166 -0.2025
  572MOL0     O78822   5.821   3.771   6.104  0.3886 -0.5814  0.1351
  572MOL0     C78823   5.867   3.775   6.228 -0.5246 -0.0431  0.5010
  572MOL0     C78824   5.848   3.885   6.308  0.1680 -0.3605 -0.1561
  572MOL0     C78825   5.917   3.898   6.425 -0.1219 -0.3822  0.4141
  572MOL0     C78826   5.922   4.034   6.478 -0.4653 -1.1821  0.2851
  572MOL0     C78827   5.981   3.787   6.482 -0.1439  0.6658 -0.6821
  572MOL0     C78828   6.035   3.794   6.622  0.1673  0.2199  0.3608
  572MOL0     O78829   5.945   3.780   6.725 -0.8795 -0.1960 -0.6163
  572MOL0     C78830   6.000   3.781   6.853  1.5807 -0.3108 -0.1539
  572MOL0     C78831   6.077   3.671   6.906  0.2110 -1.4881 -0.4935
  572MOL0     C78832   6.115   3.679   7.044  0.4290 -0.5802  0.6006
  572MOL0     C78833   6.076   3.783   7.127  0.5732 -1.0972 -0.2764
  572MOL0     O78834   6.114   3.759   7.264  0.0324  0.2111  0.0925
  572MOL0     C78835   6.100   3.879   7.351  0.0501  0.2712  0.0894
  572MOL0     C78836   6.155   3.844   7.487  0.5504 -0.3414  0.1136
  572MOL0     C78837   6.304   3.867   7.507  0.3955  0.0474  0.5109
  572MOL0     C78838   6.344   3.848   7.657  0.8186 -0.0526 -0.6344
  572MOL0     C78839   6.488   3.897   7.690  0.4197 -0.2636 -0.3133
  572MOL0     C78840   6.491   3.868   7.842 -0.9924  0.7282  0.0766
  572MOL0     C78841   6.615   3.926   7.905 -0.1299  0.2565 -0.2675
  572MOL0     C78842   6.600   4.077   7.928  0.8358  0.6684 -0.2483
  572MOL0    Cl78843   6.458   4.117   8.027 -0.1512  0.4105 -0.0896
  572MOL0     C78844   6.002   3.890   7.072  0.9384 -0.3151  0.1903
  572MOL0     C78845   5.965   3.885   6.934  0.4177 -0.6496 -0.0512
  572MOL0     O78846   6.162   3.788   6.628  0.6921 -0.4498  0.4110
  572MOL0     C78847   5.978   3.665   6.412 -0.5877  1.0461  0.2912
  572MOL0     C78848   5.932   3.660   6.278  0.0735 -0.6415  0.5047
  572MOL0     N78849   5.372   3.601   5.617  0.0894 -0.2448  0.2104
  572MOL0     N78850   5.254   3.558   5.592  0.3369  0.5113 -0.2393
  572MOL0     C78851   4.700   2.428   5.615 -0.0757 -0.4582 -0.1753
  572MOL0     C78852   4.656   2.310   5.670  0.5958  0.1296 -0.0223
  572MOL0     C78853   4.466   2.000   5.915  0.1913  0.2926 -0.7845
  572MOL0     C78854   4.347   1.946   5.857  0.0381 -0.9130 -0.6983
  572MOL0     C78855   4.300   1.827   5.899  0.2892 -1.0181 -0.3036
  572MOL0     C78856   4.370   1.755   5.997  0.6884 -1.2763 -0.3178
  572MOL0     O78857   4.334   1.631   6.047 -0.2946  0.1595  0.4149
  572MOL0     C78858   4.336   1.526   5.943 -0.1004  0.1132 -0.0213
  572MOL0     C78859   4.339   1.377   6.001 -0.1649  0.2190  0.4880
  572MOL0     C78860   4.200   1.317   6.023  1.0339  0.2142  0.4403
  572MOL0     C78861   4.214   1.167   6.064 -0.3195 -0.3098 -0.3972
  572MOL0     C78862   4.260   1.142   6.205  0.4629  0.3200  0.1056
  572MOL0     C78863   4.290   1.134   6.322  0.8209 -0.4414  0.4596
  572MOL0     C78864   4.484   1.810   6.060  0.6172  0.3326 -0.0945
  572MOL0     C78865   4.542   1.925   6.011 -0.5913 -0.6554 -0.4582
  572MOL0     C78866   4.680   1.968   6.064  0.7349  0.7218  0.3404
  572MOL0     H78867   4.826   2.304   5.961  0.4222  0.2588 -0.2395
  572MOL0     H78868   4.896   2.520   5.878  0.0886 -0.7884  0.1894
  572MOL0     H78869   5.013   2.658   5.687 -0.7689 -0.4590  0.3856
  572MOL0     H78870   4.882   2.722   5.804 -1.4010  0.0986  0.3274
  572MOL0     H78871   5.030   2.884   5.660  0.1530 -2.7590  0.7195
  572MOL0     H78872   4.918   2.846   5.527 -0.6572  1.4584  0.4191
  572MOL0     H78873   4.721   2.890   5.655  0.9429 -1.9413  0.7794
  572MOL0     H78874   4.801   2.927   5.804  0.9264  1.8449 -0.1678
  572MOL0     H78875   4.863   3.124   5.571  0.0527 -0.3990  0.2229
  572MOL0     H78876   4.712   3.119   5.652  0.6942 -2.1921 -1.6339
  572MOL0     H78877   4.988   3.147   5.771  0.6396  0.9374 -0.9631
  572MOL0     H78878   4.831   3.168   5.861  0.7047 -2.1738 -0.1895
  572MOL0     H78879   4.844   3.366   5.639 -0.9400  1.3661 -0.5446
  572MOL0     H78880   4.808   3.368   5.805 -1.1027  0.1860 -1.2848
  572MOL0     H78881   5.063   3.327   5.856  1.8923 -2.2072 -1.6967
  572MOL0     H78882   5.027   3.495   5.800 -0.2074 -0.4482  1.0870
  572MOL0     H78883   5.155   3.255   5.666 -0.5609  0.8266 -1.5482
  572MOL0     H78884   5.074   3.374   5.559 -0.9170 -2.9929 -0.8284
  572MOL0     H78885   5.366   3.353   5.829  0.7416 -0.8850 -0.5312
  572MOL0     H78886   5.643   3.589   5.704  0.1227  0.1619 -0.4482
  572MOL0     H78887   5.611   3.443   5.801  0.5224 -0.2954 -0.0531
  572MOL0     H78888   5.508   3.726   5.868  1.5469 -0.4588 -1.4030
  572MOL0     H78889   5.484   3.590   5.968 -3.8691  1.8797 -2.1331
  572MOL0     H78890   5.732   3.546   5.982 -1.4069  0.1585  0.7711
  572MOL0     H78891   5.766   3.698   5.895  0.4479 -2.2640 -1.0062
  572MOL0     H78892   5.620   3.820   6.060 -2.4371 -2.6030  1.2326
  572MOL0     H78893   5.641   3.667   6.156 -0.8161 -0.5589  0.0149
  572MOL0     H78894   5.789   3.972   6.281 -0.4384  0.2264  2.7226
  572MOL0     H78895   5.866   4.107   6.419  0.9985  0.9129  1.3534
  572MOL0     H78896   6.027   4.063   6.463 -0.5845 -1.6284 -1.6785
  572MOL0     H78897   5.896   4.042   6.584  1.6005  2.5927  0.6733
  572MOL0     H78898   6.089   3.581   6.846 -3.2486 -1.7276 -1.0243
  572MOL0     H78899   6.186   3.601   7.068  1.0258 -0.8574 -1.8078
  572MOL0     H78900   6.157   3.968   7.322  4.2448 -1.6832  1.4266
  572MOL0     H78901   5.996   3.901   7.376  0.1521  3.7974 -1.9130
  572MOL0     H78902   6.113   3.914   7.561 -4.1059 -2.6974  0.0956
  572MOL0     H78903   6.127   3.741   7.510  0.5575 -0.7803 -1.7201
  572MOL0     H78904   6.310   3.976   7.507 -0.5238  0.1170 -0.2611
  572MOL0     H78905   6.385   3.817   7.455  0.0555  0.5521 -0.5179
  572MOL0     H78906   6.323   3.743   7.681  0.6532  0.3225  0.9352
  572MOL0     H78907   6.277   3.910   7.716  2.2550 -2.7702  4.4147
  572MOL0     H78908   6.561   3.843   7.629 -2.3751 -2.1246 -2.2702
  572MOL0     H78909   6.508   4.005   7.688  2.8927 -0.6606  0.1778
  572MOL0     H78910   6.492   3.759   7.856  3.7360  0.8896  3.3201
  572MOL0     H78911   6.407   3.907   7.900 -0.9290  1.3390 -0.2359
  572MOL0     H78912   6.697   3.903   7.836  0.1865  0.1722  0.1342
  572MOL0     H78913   6.633   3.886   8.005 -3.5854 -1.2385 -0.0948
  572MOL0     H78914   6.591   4.121   7.828 -2.2503 -0.5633 -0.6101
  572MOL0     H78915   6.685   4.121   7.980  0.8505  1.2074 -0.7124
  572MOL0     H78916   5.962   3.969   7.134  1.3659 -0.4088  0.5912
  572MOL0     H78917   5.892   3.954   6.892  0.7758  1.2566  2.2053
  572MOL0     H78918   6.030   3.573   6.435  0.1416  0.6968 -2.4102
  572MOL0     H78919   5.951   3.564   6.231  3.1228 -0.3894  1.0042
  572MOL0     H78920   4.667   2.479   5.526  2.3683 -0.7002 -1.2997
  572MOL0     H78921   4.595   2.245   5.607 -0.6215 -1.1914  2.3915
  572MOL0     H78922   4.286   1.993   5.781  0.1358 -0.8886 -0.7630
  572MOL0     H78923   4.208   1.785   5.861 -0.9049  0.4968  0.7817
  572MOL0     H78924   4.256   1.539   5.869 -0.0901  0.0612 -0.0420
  572MOL0     H78925   4.428   1.541   5.886 -0.5314  1.6387 -0.3580
  572MOL0     H78926   4.395   1.388   6.094  2.7423  1.7330 -1.3074
  572MOL0     H78927   4.396   1.300   5.949 -0.6596  0.6933 -0.7992
  572MOL0     H78928   4.153   1.375   6.103 -1.5378 -1.5790  0.3653
  572MOL0     H78929   4.136   1.312   5.935 -2.6141 -0.5391  2.8821
  572MOL0     H78930   4.274   1.103   5.999  1.2855  2.1056 -1.4562
  572MOL0     H78931   4.118   1.119   6.083 -1.5468  2.5726  1.3499
  572MOL0     H78932   4.310   1.112   6.425  3.2959 -1.1044 -0.0888
  572MOL0     H78933   4.537   1.746   6.130  2.2052  1.3342 -0.3203
  572MOL0     H78934   4.669   2.076   6.081  1.8337  1.1151 -1.2171
  572MOL0     H78935   4.683   1.907   6.154 -0.2728 -0.2238 -0.2455
  572MOL0     H78936   4.755   1.937   5.991  1.4206 -2.5192  2.2616
  573MOL0     O78937  10.181   4.487   5.155 -0.7424 -0.0145  0.6324
  573MOL0     C78938  10.091   4.568   5.129  0.9825 -0.0239  0.4444
  573MOL0     O78939   9.970   4.526   5.064 -0.0472 -0.1032 -0.3517
  573MOL0     C78940   9.960   4.388   5.039 -0.5115 -0.1537 -0.9323
  573MOL0     C78941   9.861   4.312   5.110  0.0115  0.1400  0.2426
  573MOL0     C78942   9.842   4.177   5.063 -0.5602  0.1034 -0.1434
  573MOL0     C78943   9.920   4.129   4.950  0.9052 -0.4826 -0.1624
  573MOL0     O78944   9.912   4.002   4.902 -0.0607  0.8855 -0.6770
  573MOL0     C78945   9.779   3.962   4.866 -0.5449 -0.8700 -0.3126
  573MOL0     C78946   9.790   3.936   4.719  0.3359  0.0906  0.0439
  573MOL0     C78947   9.888   3.831   4.685  0.6071  0.3267  0.2434
  573MOL0     C78948   9.872   3.762   4.542  0.2056 -0.2771 -0.2774
  573MOL0     C78949   9.984   3.672   4.499 -0.7451  0.1425 -0.7478
  573MOL0     C78950   9.970   3.610   4.363 -0.1145  0.6903 -0.3217
  573MOL0     C78951   9.947   3.703   4.246  0.4693  0.5467  0.8215
  573MOL0     C78952  10.073   3.780   4.219  0.2747  0.0829  0.7723
  573MOL0     N78953  10.092   3.824   4.083  0.0686 -0.5304 -0.0088
  573MOL0     C78954  10.058   3.952   4.051 -0.3244 -0.5738 -0.2921
  573MOL0     C78955  10.119   3.966   3.930 -0.7274  0.3801 -0.5939
  573MOL0     C78956  10.112   4.099   3.853 -0.2085 -0.3508 -0.3470
  573MOL0     C78957  10.192   4.214   3.917  0.3983 -1.1193 -0.7001
  573MOL0     C78958  10.114   4.302   4.032 -0.9568 -0.1856 -0.2430
  573MOL0     C78959   9.987   4.370   3.991  0.8601 -1.0497  0.5533
  573MOL0     O78960   9.901   4.306   4.088 -1.0182 -0.9115 -0.3876
  573MOL0     C78961   9.776   4.254   4.057  0.1010  0.1107 -0.3171
  573MOL0     C78962   9.741   4.136   4.127 -0.9349 -0.1612  0.7957
  573MOL0     C78963   9.614   4.076   4.128  0.2271 -0.7263  0.9978
  573MOL0     C78964   9.590   3.960   4.222 -0.4776 -0.7123 -0.6038
  573MOL0     C78965   9.512   4.130   4.040  0.5907  0.1211  0.1479
  573MOL0     C78966   9.355   4.095   4.038  0.5250  0.6351 -1.1474
  573MOL0     O78967   9.269   4.134   3.940 -0.3877 -0.5252 -0.0043
  573MOL0     C78968   9.136   4.084   3.939 -0.2316  0.0258 -0.5907
  573MOL0     C78969   9.035   4.178   3.915 -0.1330  0.1060 -0.3690
  573MOL0     C78970   8.901   4.133   3.905  0.2686  0.0215  0.5444
  573MOL0     C78971   8.860   4.006   3.912 -0.2029 -0.4059 -0.0806
  573MOL0     O78972   8.731   3.964   3.898 -0.5122 -0.0914 -0.0849
  573MOL0     C78973   8.638   4.054   3.959 -0.4585  0.2602 -0.8088
  573MOL0     C78974   8.510   3.974   3.989  0.3289  0.2817 -0.2887
  573MOL0     C78975   8.538   3.881   4.113  0.3043 -1.6875 -0.1144
  573MOL0     C78976   8.408   3.809   4.146 -1.1127 -0.0825 -1.3785
  573MOL0     C78977   8.406   3.714   4.273 -0.5666 -0.2581  0.2645
  573MOL0     C78978   8.489   3.592   4.247  0.8279  0.5134 -0.2210
  573MOL0     C78979   8.409   3.498   4.147  0.2442  0.0325  0.3928
  573MOL0     C78980   8.463   3.450   4.019  0.5400  1.0207 -0.0191
  573MOL0    Cl78981   8.371   3.304   3.953 -0.2964 -0.0771  0.5531
  573MOL0     C78982   8.954   3.905   3.931 -0.4168  0.4082  0.2918
  573MOL0     C78983   9.085   3.943   3.951  0.1857  0.4834  1.1371
  573MOL0     O78984   9.321   4.027   4.135  0.5901  0.8035  0.0707
  573MOL0     C78985   9.550   4.239   3.966 -0.6266 -0.4742  0.2824
  573MOL0     C78986   9.678   4.295   3.969  0.5691 -0.4502  0.6404
  573MOL0     N78987  10.190   3.851   3.896  0.8931 -0.3581 -0.1689
  573MOL0     N78988  10.167   3.764   3.989 -0.3028  0.1720 -0.8092
  573MOL0     C78989  10.006   4.212   4.889  0.0696  0.3008 -0.6281
  573MOL0     C78990  10.040   4.341   4.933 -0.2471  0.1970  0.3628
  573MOL0     C78991  10.097   4.708   5.180 -1.0070 -0.0045  0.0365
  573MOL0     C78992  10.222   4.762   5.222  0.5380  0.0280 -0.6411
  573MOL0     C78993  10.234   4.894   5.262 -0.0231  0.7410  0.2908
  573MOL0     C78994  10.136   4.982   5.246 -0.0788 -0.3767 -0.1316
  573MOL0     O78995  10.161   5.114   5.284  0.3147 -0.1564 -0.7875
  573MOL0     C78996  10.045   5.206   5.293  1.0778  0.7721 -0.5478
  573MOL0     C78997  10.096   5.335   5.349  0.3488 -0.0064  0.5463
  573MOL0     C78998  10.006   5.455   5.329 -1.1344  0.1682 -0.1736
  573MOL0     C78999  10.056   5.583   5.398 -0.5421 -0.6997  0.4038
  573MOL0     C79000  10.002   5.696   5.326  0.1140 -0.6889  1.1719
  573MOL0     C79001   9.946   5.787   5.270 -0.1064 -0.5894  0.0898
  573MOL0     C79002  10.013   4.941   5.202 -0.0152  0.3090 -0.3925
  573MOL0     C79003   9.991   4.811   5.172  0.1196  0.2317  0.3974
  573MOL0     C79004   9.844   4.776   5.147  0.2774  0.8843 -0.5716
  573MOL0     H79005   9.808   4.349   5.197  0.1205 -1.8257  1.1869
  573MOL0     H79006   9.783   4.109   5.123  2.2085  1.4908  4.7128
  573MOL0     H79007   9.701   4.033   4.894  0.0547 -0.3765  0.1372
  573MOL0     H79008   9.764   3.868   4.920 -0.1665 -0.0829  1.2178
  573MOL0     H79009   9.691   3.895   4.695  1.4883 -4.0939  1.6010
  573MOL0     H79010   9.812   4.034   4.675 -2.8084  0.7452 -0.3432
  573MOL0     H79011   9.983   3.885   4.675  1.0565  0.1497  2.7179
  573MOL0     H79012   9.891   3.741   4.748  1.5752 -1.2130 -1.8982
  573MOL0     H79013   9.781   3.701   4.545  1.8659 -2.9289  3.1860
  573MOL0     H79014   9.869   3.840   4.466 -3.3980  0.4844  0.4318
  573MOL0     H79015   9.985   3.592   4.573 -2.1083  0.4879 -0.3298
  573MOL0     H79016  10.080   3.724   4.512 -1.4786  1.5626 -0.8406
  573MOL0     H79017  10.058   3.552   4.333  0.8917  1.3687  1.1933
  573MOL0     H79018   9.879   3.550   4.358  1.2081 -1.5666  1.0696
  573MOL0     H79019   9.854   3.758   4.263 -2.4300 -4.0770  1.7037
  573MOL0     H79020   9.939   3.639   4.157 -2.3166 -0.7191  1.8547
  573MOL0     H79021  10.071   3.862   4.292  0.9263  0.5760  0.2468
  573MOL0     H79022  10.163   3.721   4.238  0.5451  0.0783 -0.4487
  573MOL0     H79023  10.014   4.030   4.113  2.8463  1.7100 -0.6413
  573MOL0     H79024  10.011   4.123   3.821 -1.2122  0.5229  3.0460
  573MOL0     H79025  10.169   4.080   3.762  0.2165  0.9243 -0.3698
  573MOL0     H79026  10.278   4.168   3.965  0.0350 -0.5391  0.5349
  573MOL0     H79027  10.235   4.284   3.844  1.8145 -0.3507  0.8210
  573MOL0     H79028  10.082   4.228   4.105 -3.5508  1.2472  0.1692
  573MOL0     H79029  10.178   4.370   4.090  0.6144 -0.8734 -1.1010
  573MOL0     H79030   9.990   4.479   3.998 -0.6376 -0.8842 -0.8609
  573MOL0     H79031   9.945   4.344   3.894 -3.2551 -0.9537  2.0852
  573MOL0     H79032   9.811   4.113   4.207 -0.3176 -0.1130  0.2759
  573MOL0     H79033   9.577   3.876   4.152  2.3660 -1.1177 -0.7616
  573MOL0     H79034   9.510   3.975   4.295 -0.8726  0.5062 -1.2576
  573MOL0     H79035   9.679   3.938   4.281 -0.5386  0.8276  0.0982
  573MOL0     H79036   9.048   4.284   3.896 -2.7062  0.2981 -1.4949
  573MOL0     H79037   8.827   4.207   3.875 -0.4212 -1.3799 -1.3872
  573MOL0     H79038   8.678   4.086   4.056  2.8111 -2.1690 -1.1802
  573MOL0     H79039   8.613   4.133   3.888  0.5165 -0.8735 -2.4962
  573MOL0     H79040   8.421   4.035   4.010  2.4835  3.1748  1.0966
  573MOL0     H79041   8.486   3.901   3.911  0.7407 -3.0526  2.4456
  573MOL0     H79042   8.567   3.952   4.192 -2.0798  1.1368 -1.5788
  573MOL0     H79043   8.604   3.804   4.072  1.0495  0.1046 -2.4492
  573MOL0     H79044   8.376   3.746   4.063 -0.7099  0.2756 -1.8142
  573MOL0     H79045   8.340   3.887   4.180  0.8288  0.3850  1.9268
  573MOL0     H79046   8.450   3.769   4.357  0.3945  2.9618 -2.1276
  573MOL0     H79047   8.309   3.690   4.315 -1.0828  1.6480  0.2815
  573MOL0     H79048   8.511   3.534   4.337  0.2941 -2.3592 -1.8004
  573MOL0     H79049   8.586   3.616   4.202  0.7439  1.0928 -0.0950
  573MOL0     H79050   8.305   3.531   4.137 -0.4846 -1.6966  1.6691
  573MOL0     H79051   8.388   3.403   4.198 -1.4378  1.2045  2.0290
  573MOL0     H79052   8.563   3.423   4.055  0.3602  1.5454  0.9058
  573MOL0     H79053   8.470   3.535   3.951 -0.3731  0.6395 -0.6232
  573MOL0     H79054   8.924   3.801   3.933 -0.6953  0.5004  1.4572
  573MOL0     H79055   9.167   3.871   3.953  0.0248  0.1153 -1.7121
  573MOL0     H79056   9.491   4.300   3.898 -1.6658  1.0271  2.4464
  573MOL0     H79057   9.691   4.391   3.920 -0.7813 -1.2876 -1.5399
  573MOL0     H79058  10.059   4.177   4.800  3.8748  2.4478  0.5648
  573MOL0     H79059  10.114   4.398   4.878 -0.0503 -1.3657 -1.0641
  573MOL0     H79060  10.301   4.688   5.231  0.8420  0.4470  0.1915
  573MOL0     H79061  10.324   4.940   5.302  0.0778 -0.9634  2.1877
  573MOL0     H79062   9.997   5.223   5.197 -0.7773 -0.6762  0.0732
  573MOL0     H79063   9.964   5.161   5.351  0.6987 -0.9110 -2.2956
  573MOL0     H79064  10.191   5.361   5.302 -0.0350  1.0475  0.3267
  573MOL0     H79065  10.125   5.309   5.452  0.4077 -0.1938  0.4823
  573MOL0     H79066   9.983   5.475   5.224 -0.2623 -2.1998 -0.8622
  573MOL0     H79067   9.912   5.420   5.372 -2.3288  1.4296 -1.6505
  573MOL0     H79068  10.165   5.584   5.407 -0.4651 -0.9025 -0.4828
  573MOL0     H79069  10.023   5.584   5.503  4.2609  2.2228  2.2351
  573MOL0     H79070   9.912   5.860   5.199  0.2793  0.3698  0.8767
  573MOL0     H79071   9.931   5.012   5.192 -0.4653 -0.2670 -0.8767
  573MOL0     H79072   9.823   4.679   5.192 -2.7575  0.2242 -3.0395
  573MOL0     H79073   9.766   4.843   5.185 -1.3239 -0.8696 -0.6121
  573MOL0     H79074   9.829   4.770   5.038  1.4415 -0.2184 -0.6838
  574MOL0     O79075   1.955   7.182   1.688 -0.5295 -0.1563  0.1096
  574MOL0     C79076   1.960   7.305   1.686 -0.0663 -0.1752 -0.3652
  574MOL0     O79077   1.858   7.391   1.713 -0.0502 -0.4493 -0.0470
  574MOL0     C79078   1.737   7.344   1.739  0.5801 -0.6902  0.2102
  574MOL0     C79079   1.677   7.220   1.704 -0.0933  0.3466 -0.1729
  574MOL0     C79080   1.557   7.181   1.752 -0.2438  0.0554  0.9682
  574MOL0     C79081   1.473   7.279   1.822 -0.1657  0.6765 -0.2517
  574MOL0     O79082   1.350   7.261   1.885 -0.6556  0.1390 -0.3681
  574MOL0     C79083   1.313   7.127   1.905  0.2315  0.0684  0.0547
  574MOL0     C79084   1.390   7.045   2.000  0.2984 -0.6149  0.3814
  574MOL0     C79085   1.402   7.119   2.135  0.5681  0.1401  0.3088
  574MOL0     C79086   1.459   7.022   2.245 -0.0312  0.1312 -0.0093
  574MOL0     C79087   1.449   7.068   2.391 -0.4453 -0.1676 -0.2822
  574MOL0     C79088   1.310   7.059   2.448  0.1611 -0.6124  0.0200
  574MOL0     C79089   1.331   7.071   2.603 -0.6436 -0.0593  0.3549
  574MOL0     C79090   1.194   7.085   2.667 -0.6024  0.3086 -0.2369
  574MOL0     N79091   1.128   7.215   2.655 -0.5179 -0.8128  0.1301
  574MOL0     C79092   0.995   7.234   2.648  0.6380  1.3303  0.9118
  574MOL0     C79093   0.977   7.364   2.654  0.1102  0.7486  0.1929
  574MOL0     C79094   0.834   7.422   2.652  0.5125 -0.5675 -0.0038
  574MOL0     C79095   0.725   7.342   2.583 -0.1044 -0.4902  0.0186
  574MOL0     C79096   0.591   7.400   2.610  0.7027  0.1190 -0.3827
  574MOL0     C79097   0.557   7.530   2.548 -0.4544 -0.2515  0.4598
  574MOL0     O79098   0.545   7.496   2.406  0.2828 -0.3651 -0.7121
  574MOL0     C79099   0.527   7.606   2.323 -0.5858 -0.9803 -0.7405
  574MOL0     C79100   0.538   7.572   2.190 -0.1479  1.1267  0.4743
  574MOL0     C79101   0.533   7.672   2.089  1.5258  0.0836  0.4953
  574MOL0     C79102   0.558   7.625   1.943 -0.1460 -0.8205 -0.1658
  574MOL0     C79103   0.499   7.804   2.118 -0.2795 -0.0346 -0.4170
  574MOL0     C79104   0.474   7.913   2.015 -0.4106  0.1622 -0.3211
  574MOL0     O79105   0.449   8.038   2.073 -0.0292  0.8647  0.5923
  574MOL0     C79106   0.406   8.149   1.999 -0.3103  0.5196 -0.0946
  574MOL0     C79107   0.331   8.128   1.885 -0.0337  0.4050  0.0414
  574MOL0     C79108   0.287   8.237   1.805 -0.7996  0.0537 -0.0402
  574MOL0     C79109   0.301   8.366   1.861 -0.3747  0.3902  0.0853
  574MOL0     O79110   0.254   8.480   1.809 -0.1633 -1.1028  0.3856
  574MOL0     C79111   0.154   8.477   1.707 -0.0654 -0.8890 -0.4272
  574MOL0     C79112   0.211   8.464   1.559 -0.6953  0.8665 -1.2150
  574MOL0     C79113   0.296   8.587   1.517 -0.1800  0.8117 -0.6398
  574MOL0     C79114   0.308   8.587   1.368 -0.6849  0.1327  0.0166
  574MOL0     C79115   0.413   8.692   1.326  0.1399 -0.8093  0.0476
  574MOL0     C79116   0.349   8.830   1.338 -0.5783 -0.1112 -0.2527
  574MOL0     C79117   0.469   8.935   1.308  0.5137  0.4879  0.4507
  574MOL0     C79118   0.515   8.922   1.159  0.5857 -0.4482  0.8796
  574MOL0    Cl79119   0.380   8.918   1.025 -0.0556 -0.6144  0.7372
  574MOL0     C79120   0.384   8.384   1.971  0.8194 -0.7097  0.1912
  574MOL0     C79121   0.435   8.274   2.039  0.9488 -0.5235 -0.5094
  574MOL0     O79122   0.495   7.894   1.892 -0.2303 -0.0823  0.7405
  574MOL0     C79123   0.485   7.836   2.256  1.2623 -0.5431 -0.4209
  574MOL0     C79124   0.482   7.736   2.353 -0.8095 -0.4090  0.5688
  574MOL0     N79125   1.086   7.428   2.678 -0.2936 -0.2408  0.3324
  574MOL0     N79126   1.185   7.337   2.683 -0.0441  0.2995 -0.1702
  574MOL0     C79127   1.529   7.395   1.874  0.0698  0.6731  0.8337
  574MOL0     C79128   1.657   7.438   1.818  0.3459  0.9193 -0.6189
  574MOL0     C79129   2.089   7.364   1.648  0.2912  0.6314 -1.4019
  574MOL0     C79130   2.084   7.491   1.581 -0.1583 -0.5319 -1.0886
  574MOL0     C79131   2.205   7.554   1.538  0.2303  0.0396  0.4702
  574MOL0     C79132   2.332   7.483   1.546 -0.6204  0.1075  0.8646
  574MOL0     O79133   2.438   7.546   1.475  0.0237  0.2398 -0.0487
  574MOL0     C79134   2.562   7.482   1.490 -0.6432  0.1305 -0.0067
  574MOL0     C79135   2.673   7.577   1.439 -0.0281 -0.7192  0.2493
  574MOL0     C79136   2.655   7.727   1.446 -0.3224  0.3568  0.3436
  574MOL0     C79137   2.791   7.797   1.428  0.2202 -0.2079  0.7537
  574MOL0     C79138   2.852   7.833   1.559 -0.3649 -0.0223  0.9431
  574MOL0     C79139   2.907   7.827   1.669  0.5085  0.2337 -0.2014
  574MOL0     C79140   2.334   7.364   1.611  0.4804  0.5089  0.5715
  574MOL0     C79141   2.216   7.299   1.661 -0.3720  0.1351  0.7564
  574MOL0     C79142   2.242   7.177   1.737 -0.3161  0.8541  0.0704
  574MOL0     H79143   1.733   7.144   1.650  0.1057  0.6252 -0.3590
  574MOL0     H79144   1.514   7.088   1.716 -1.4266  1.5289 -1.8083
  574MOL0     H79145   1.293   7.075   1.810  0.0916 -0.1008  0.1751
  574MOL0     H79146   1.213   7.145   1.946  0.3747 -2.0061  1.4781
  574MOL0     H79147   1.344   6.948   2.021  0.5847 -0.4545  1.9249
  574MOL0     H79148   1.491   7.023   1.966 -0.6352 -1.5745 -1.9592
  574MOL0     H79149   1.467   7.206   2.127  0.7473 -0.0299 -0.0887
  574MOL0     H79150   1.303   7.150   2.172 -2.5668 -3.4707 -3.9164
  574MOL0     H79151   1.412   6.924   2.241 -0.6067  0.4215 -3.3080
  574MOL0     H79152   1.560   6.997   2.211 -1.1758  0.1037 -3.9052
  574MOL0     H79153   1.486   7.170   2.400  1.4452 -0.9901  3.0315
  574MOL0     H79154   1.519   7.010   2.452 -0.3923  1.9508  1.8300
  574MOL0     H79155   1.235   7.134   2.423 -3.0882 -3.4625  0.4697
  574MOL0     H79156   1.269   6.960   2.424  1.3452 -1.0271 -0.3657
  574MOL0     H79157   1.395   7.157   2.627  1.1556  1.0630 -6.5330
  574MOL0     H79158   1.380   6.975   2.623 -0.4247 -1.6509 -5.7913
  574MOL0     H79159   1.126   7.015   2.617 -3.4597  0.6914  2.7705
  574MOL0     H79160   1.193   7.055   2.772  2.4184 -2.9547 -0.9302
  574MOL0     H79161   0.927   7.149   2.645  1.2260  0.8796 -0.3933
  574MOL0     H79162   0.842   7.525   2.617 -1.3595  0.2580  1.8028
  574MOL0     H79163   0.782   7.418   2.748 -2.4976  0.0990 -1.4961
  574MOL0     H79164   0.747   7.330   2.476  0.2880  2.3264 -0.2895
  574MOL0     H79165   0.725   7.243   2.630 -1.2727 -0.6843 -0.3377
  574MOL0     H79166   0.530   7.325   2.559  2.9983 -2.7765  0.8727
  574MOL0     H79167   0.580   7.399   2.719  1.9115 -0.8938 -0.2495
  574MOL0     H79168   0.463   7.565   2.592 -2.2819 -0.6472 -2.8017
  574MOL0     H79169   0.633   7.606   2.568 -0.2990  0.4877 -2.5104
  574MOL0     H79170   0.543   7.464   2.176 -2.7332  1.0003 -0.0029
  574MOL0     H79171   0.620   7.689   1.879 -0.3133 -1.3979 -0.9130
  574MOL0     H79172   0.462   7.616   1.891 -1.2745  1.2015  1.4045
  574MOL0     H79173   0.609   7.529   1.936  0.2090 -0.5837 -0.9950
  574MOL0     H79174   0.305   8.026   1.860 -0.0054  0.1072  1.1997
  574MOL0     H79175   0.223   8.226   1.718 -1.6205 -0.0880  0.5759
  574MOL0     H79176   0.082   8.398   1.729 -1.8754  0.6037 -0.7500
  574MOL0     H79177   0.101   8.571   1.725  3.5254  1.2355  0.0295
  574MOL0     H79178   0.280   8.379   1.559  2.3453  3.1136  0.5692
  574MOL0     H79179   0.128   8.444   1.491 -0.5310  0.0502 -1.1884
  574MOL0     H79180   0.397   8.583   1.560 -0.3621  0.4508 -0.2457
  574MOL0     H79181   0.258   8.680   1.561 -0.8631 -0.1857  0.9666
  574MOL0     H79182   0.214   8.613   1.317  0.3393 -0.4658 -2.2879
  574MOL0     H79183   0.343   8.489   1.335  0.3578  0.8333 -1.0274
  574MOL0     H79184   0.507   8.671   1.378  0.2479 -1.8093 -0.5337
  574MOL0     H79185   0.443   8.675   1.222  2.2511  2.1761  0.0577
  574MOL0     H79186   0.318   8.850   1.441  2.7528  3.7794  0.2529
  574MOL0     H79187   0.257   8.846   1.282 -0.3579 -2.3200 -1.3230
  574MOL0     H79188   0.559   8.925   1.368  1.3047 -2.6306 -1.0211
  574MOL0     H79189   0.428   9.036   1.314  0.7895  0.6096  0.2668
  574MOL0     H79190   0.580   8.834   1.148  0.0797 -0.6267 -1.1371
  574MOL0     H79191   0.575   9.010   1.134  1.4536 -0.1174  3.7389
  574MOL0     H79192   0.399   8.488   2.000  2.1825 -0.4294 -1.4214
  574MOL0     H79193   0.501   8.296   2.122 -1.9502 -0.6290  2.0345
  574MOL0     H79194   0.461   7.937   2.289  2.4390 -1.6746  4.9915
  574MOL0     H79195   0.456   7.754   2.456 -0.2238 -0.3253  0.7087
  574MOL0     H79196   1.485   7.467   1.942 -2.0488 -1.2436  1.6029
  574MOL0     H79197   1.694   7.530   1.863  2.3364  0.3942 -1.0779
  574MOL0     H79198   1.997   7.553   1.564 -0.4258  0.4436  2.8806
  574MOL0     H79199   2.209   7.648   1.484  1.4647 -0.2929 -0.0543
  574MOL0     H79200   2.572   7.437   1.589 -2.6025  1.3394  0.8025
  574MOL0     H79201   2.564   7.395   1.424 -2.4727  2.2391 -3.0616
  574MOL0     H79202   2.694   7.552   1.334  2.4123  1.0564  0.2511
  574MOL0     H79203   2.758   7.551   1.501  0.6634 -0.9802 -0.7811
  574MOL0     H79204   2.587   7.769   1.371 -0.2115  1.2837  0.7525
  574MOL0     H79205   2.606   7.749   1.542 -1.1480  0.9985 -0.2173
  574MOL0     H79206   2.776   7.883   1.363 -4.9012 -1.4096 -0.0582
  574MOL0     H79207   2.866   7.734   1.379 -1.6322 -2.1660  0.3207
  574MOL0     H79208   2.962   7.811   1.759 -2.4235  1.3414  1.9095
  574MOL0     H79209   2.428   7.313   1.626  0.0523 -0.6785 -0.6126
  574MOL0     H79210   2.169   7.176   1.818  0.6919  1.8472  1.0391
  574MOL0     H79211   2.219   7.096   1.668 -0.8622 -0.7765  2.0561
  574MOL0     H79212   2.343   7.166   1.778  0.7686 -0.6547 -2.7181
  575MOL0     O79213   9.115   0.628   2.368 -0.4827  0.6346 -0.2486
  575MOL0     C79214   9.186   0.703   2.302  0.1595 -0.3651 -1.0296
  575MOL0     O79215   9.242   0.826   2.349  1.0340 -0.0908  0.2077
  575MOL0     C79216   9.187   0.902   2.451  0.1086 -0.4275  0.0376
  575MOL0     C79217   9.049   0.904   2.479  0.2685 -0.1997 -0.3454
  575MOL0     C79218   8.985   0.994   2.571 -0.3587  0.0958 -0.2825
  575MOL0     C79219   9.073   1.083   2.642  0.3501  0.1625 -1.0571
  575MOL0     O79220   9.017   1.179   2.723  0.7406 -0.4773  0.4279
  575MOL0     C79221   9.095   1.239   2.830  0.0056  0.7940 -0.4772
  575MOL0     C79222   9.160   1.373   2.802  0.2110  0.6656 -0.3105
  575MOL0     C79223   9.066   1.499   2.821  0.0415 -0.3269 -0.1645
  575MOL0     C79224   9.129   1.621   2.751  0.0239 -0.8749  0.3861
  575MOL0     C79225   9.058   1.748   2.773  0.0320 -0.1924 -0.1473
  575MOL0     C79226   9.117   1.868   2.693 -0.0434  0.3149 -0.0931
  575MOL0     C79227   9.070   2.010   2.738  0.2850 -0.1363  0.6776
  575MOL0     C79228   9.171   2.061   2.848 -0.2990  0.3021 -0.5048
  575MOL0     N79229   9.154   2.208   2.867 -0.4012  0.6627  1.0409
  575MOL0     C79230   9.235   2.304   2.815  0.1501  0.1565 -0.8712
  575MOL0     C79231   9.166   2.419   2.833  0.5473 -0.5624 -0.1825
  575MOL0     C79232   9.204   2.559   2.780  0.7817  0.1021  0.4692
  575MOL0     C79233   9.277   2.555   2.649 -1.0301  0.1425  0.3872
  575MOL0     C79234   9.306   2.689   2.590  0.2833 -0.1163  0.2841
  575MOL0     C79235   9.401   2.793   2.657 -0.9297  0.2388  0.1193
  575MOL0     O79236   9.537   2.761   2.630 -0.2167 -0.1414 -0.5214
  575MOL0     C79237   9.628   2.853   2.679  0.0838  0.2640 -0.1474
  575MOL0     C79238   9.738   2.797   2.741 -0.3002 -0.1223 -0.0779
  575MOL0     C79239   9.840   2.886   2.782  0.0013  0.3116  0.1897
  575MOL0     C79240   9.963   2.825   2.838  0.2299  0.0034  0.1506
  575MOL0     C79241   9.810   3.025   2.791  0.6564 -0.7867 -0.2156
  575MOL0     C79242   9.906   3.124   2.836  0.1530 -0.4819  0.0137
  575MOL0     O79243   9.861   3.239   2.885  0.3500  0.2312 -0.3256
  575MOL0     C79244   9.944   3.350   2.880  0.4280  0.5437  0.0091
  575MOL0     C79245   9.951   3.426   2.991 -0.8261 -0.1594 -0.2326
  575MOL0     C79246  10.002   3.558   2.997  0.8257  0.8425  0.5100
  575MOL0     C79247  10.030   3.618   2.867 -0.0186 -0.4947  0.2843
  575MOL0     O79248  10.050   3.752   2.848  1.0953 -0.1173  0.3219
  575MOL0     C79249   9.986   3.841   2.927 -1.0076  0.2571 -0.4218
  575MOL0     C79250  10.017   3.991   2.918 -0.4947  0.8669 -0.1351
  575MOL0     C79251   9.957   4.036   2.788  0.5373 -0.2114  0.3414
  575MOL0     C79252   9.991   4.178   2.747  0.3811 -0.4241 -0.4020
  575MOL0     C79253   9.882   4.221   2.642  1.4670 -0.7431  0.3284
  575MOL0     C79254   9.876   4.375   2.645 -0.3391  0.2733 -1.7058
  575MOL0     C79255   9.780   4.429   2.541  1.2564 -0.7583  0.0770
  575MOL0     C79256   9.762   4.581   2.542 -0.4757  0.0041 -0.7499
  575MOL0    Cl79257   9.655   4.638   2.681 -0.5667 -0.0913 -0.1410
  575MOL0     C79258  10.026   3.537   2.760  0.0975  0.4647  0.6837
  575MOL0     C79259   9.984   3.399   2.758  0.6277  0.4759 -0.3419
  575MOL0     O79260  10.022   3.104   2.808 -0.0913  0.0946  0.0806
  575MOL0     C79261   9.682   3.074   2.749  0.5288 -0.5031 -0.1946
  575MOL0     C79262   9.594   2.987   2.689 -0.3477 -0.2863  0.4655
  575MOL0     N79263   9.047   2.389   2.906  0.8849  1.2566 -1.0765
  575MOL0     N79264   9.040   2.259   2.920  0.2538 -0.8953  0.4944
  575MOL0     C79265   9.214   1.082   2.611  0.6550  0.0763 -0.4537
  575MOL0     C79266   9.262   0.979   2.526  0.1696 -0.2417 -0.9880
  575MOL0     C79267   9.229   0.662   2.161  0.2334 -0.4903 -0.0377
  575MOL0     C79268   9.257   0.768   2.069 -0.3899 -0.4674  0.2198
  575MOL0     C79269   9.289   0.737   1.934  0.0664  0.9493  0.2842
  575MOL0     C79270   9.301   0.606   1.890 -0.5093 -0.1795  0.5098
  575MOL0     O79271   9.339   0.590   1.757  0.2576  0.2203  0.7972
  575MOL0     C79272   9.293   0.481   1.685 -0.0253 -0.8401 -0.0549
  575MOL0     C79273   9.145   0.481   1.659  0.2634 -0.7352 -0.4047
  575MOL0     C79274   9.104   0.384   1.549 -0.5528 -0.3200 -0.8799
  575MOL0     C79275   8.950   0.385   1.521  0.5173  0.1491 -0.2069
  575MOL0     C79276   8.888   0.257   1.481  1.0783 -0.0178 -1.0734
  575MOL0     C79277   8.835   0.155   1.442  0.0372  0.5332  0.6712
  575MOL0     C79278   9.293   0.499   1.988  0.0503  0.2386 -0.1580
  575MOL0     C79279   9.248   0.524   2.114 -0.1470 -0.5515 -0.9596
  575MOL0     C79280   9.225   0.406   2.199 -0.7812 -0.6380 -1.1060
  575MOL0     H79281   8.978   0.846   2.421 -0.1083  1.7892 -2.0003
  575MOL0     H79282   8.878   0.999   2.589 -0.4798 -1.5724 -0.3646
  575MOL0     H79283   9.169   1.170   2.870 -1.0644 -0.4858 -0.6309
  575MOL0     H79284   9.024   1.255   2.912  0.0902 -1.2440  0.0562
  575MOL0     H79285   9.247   1.389   2.868 -0.8377 -1.6618  1.8071
  575MOL0     H79286   9.199   1.371   2.700 -1.4328 -2.8439 -1.0073
  575MOL0     H79287   8.964   1.485   2.784 -0.2767 -0.2860  0.6897
  575MOL0     H79288   9.041   1.535   2.921  1.9753  1.7637 -0.3653
  575MOL0     H79289   9.227   1.640   2.795 -0.3531 -1.5086  1.5467
  575MOL0     H79290   9.151   1.599   2.646 -0.6385  2.5498 -0.5859
  575MOL0     H79291   9.050   1.784   2.876 -1.6723  0.0058 -0.3327
  575MOL0     H79292   8.960   1.733   2.727  0.6658 -0.6589 -1.3788
  575MOL0     H79293   9.226   1.864   2.687  0.2217  3.6183  0.6958
  575MOL0     H79294   9.088   1.859   2.588 -2.0749 -0.5544  0.4806
  575MOL0     H79295   8.965   2.004   2.768 -0.2866 -0.6846 -1.2569
  575MOL0     H79296   9.058   2.074   2.649 -0.3932 -0.3532  0.6072
  575MOL0     H79297   9.146   1.999   2.935  2.0305  0.4933  0.3749
  575MOL0     H79298   9.274   2.040   2.817 -0.5801 -0.5640 -0.8884
  575MOL0     H79299   9.322   2.283   2.754  1.1235 -1.6170  1.0228
  575MOL0     H79300   9.257   2.614   2.858 -0.3591  1.3041  0.4149
  575MOL0     H79301   9.106   2.604   2.766 -0.0030 -1.0195  2.0525
  575MOL0     H79302   9.378   2.516   2.668  0.3800  4.2955  2.6425
  575MOL0     H79303   9.220   2.499   2.574 -0.3320 -0.1723  0.0830
  575MOL0     H79304   9.349   2.668   2.492  3.7344 -1.1731  1.8587
  575MOL0     H79305   9.206   2.733   2.598  0.3224 -0.3759  4.3923
  575MOL0     H79306   9.378   2.885   2.603  1.7653  0.4949 -0.7520
  575MOL0     H79307   9.378   2.807   2.763 -2.3665 -0.6467 -0.0465
  575MOL0     H79308   9.756   2.690   2.736  0.3590  0.0049 -0.5874
  575MOL0     H79309  10.052   2.853   2.780  0.3320 -0.0131  0.2994
  575MOL0     H79310   9.959   2.716   2.822  1.8637  0.3392 -3.6088
  575MOL0     H79311   9.988   2.857   2.940  0.0203  1.1286 -0.1447
  575MOL0     H79312   9.921   3.379   3.085  2.1397 -0.1519  0.8167
  575MOL0     H79313  10.017   3.611   3.091 -0.2588  2.0152  0.0419
  575MOL0     H79314   9.878   3.824   2.921 -1.5850  3.5304 -1.7034
  575MOL0     H79315  10.011   3.817   3.031 -0.2053 -1.4219 -0.9728
  575MOL0     H79316   9.973   4.052   2.997 -1.5489  1.6121 -1.2576
  575MOL0     H79317  10.125   4.002   2.931 -0.8669  3.0737  1.6269
  575MOL0     H79318   9.848   4.020   2.790  0.9367 -3.6309  0.4174
  575MOL0     H79319   9.993   3.972   2.707 -1.7068  2.9500 -3.5303
  575MOL0     H79320  10.089   4.192   2.701  0.0892  0.1352 -0.8749
  575MOL0     H79321   9.995   4.240   2.837 -1.1112 -2.4245  1.1072
  575MOL0     H79322   9.910   4.179   2.545 -3.9700 -0.8778 -1.4960
  575MOL0     H79323   9.781   4.187   2.666  0.8558  1.0765  0.5391
  575MOL0     H79324   9.981   4.396   2.624 -0.0252 -0.1256 -0.6089
  575MOL0     H79325   9.865   4.414   2.747  2.5684 -1.1274 -0.7562
  575MOL0     H79326   9.680   4.383   2.547  1.0220 -0.2575  0.0450
  575MOL0     H79327   9.813   4.393   2.443 -0.2098 -2.2207  0.0684
  575MOL0     H79328   9.721   4.618   2.448  1.5874 -0.7275 -2.0153
  575MOL0     H79329   9.856   4.633   2.561 -0.7409 -0.8940  4.5622
  575MOL0     H79330  10.042   3.587   2.665  0.1081  4.1070  2.4322
  575MOL0     H79331   9.963   3.350   2.664  2.3936 -1.0956  0.0196
  575MOL0     H79332   9.664   3.181   2.741  3.9443  0.1090 -1.3333
  575MOL0     H79333   9.505   3.036   2.650  0.5417  2.7215  1.8988
  575MOL0     H79334   9.286   1.153   2.649 -2.9832  2.8938  1.9283
  575MOL0     H79335   9.371   0.973   2.522  0.2435  0.5627 -0.4354
  575MOL0     H79336   9.248   0.874   2.086  2.5093  0.0865 -1.1029
  575MOL0     H79337   9.324   0.813   1.865  2.4341 -2.9497 -3.2841
  575MOL0     H79338   9.362   0.475   1.600  1.4015  2.1145  0.7716
  575MOL0     H79339   9.314   0.386   1.735 -0.7938 -1.7750 -1.4311
  575MOL0     H79340   9.114   0.585   1.645  0.2494 -0.2812  2.4487
  575MOL0     H79341   9.103   0.450   1.755 -1.0364  0.7389 -0.4610
  575MOL0     H79342   9.151   0.416   1.456  0.3180 -3.7923 -1.7713
  575MOL0     H79343   9.139   0.283   1.572  0.3740  0.3767  1.0044
  575MOL0     H79344   8.915   0.465   1.454  0.0091  0.2136  0.1285
  575MOL0     H79345   8.910   0.406   1.620  0.2235  0.1758 -0.3289
  575MOL0     H79346   8.794   0.066   1.399  1.0265 -0.0368  0.8636
  575MOL0     H79347   9.341   0.405   1.963  0.9870  0.6090  0.1975
  575MOL0     H79348   9.278   0.413   2.295 -3.1312 -0.9699  0.2920
  575MOL0     H79349   9.117   0.406   2.218 -0.7472  1.4112 -0.6316
  575MOL0     H79350   9.264   0.315   2.153  1.5063  0.7957 -2.2206
  576MOL0     O79351   0.503   9.564   2.840 -0.0154 -0.1618 -0.1725
  576MOL0     C79352   0.502   9.672   2.787  0.1179 -0.0217  0.2986
  576MOL0     O79353   0.603   9.718   2.712 -0.0863 -0.3065  0.3153
  576MOL0     C79354   0.739   9.689   2.743  0.5403 -0.4715  0.0576
  576MOL0     C79355   0.773   9.646   2.873 -0.1327 -0.1804 -0.4845
  576MOL0     C79356   0.896   9.608   2.919 -0.0119  0.6906 -0.2956
  576MOL0     C79357   1.001   9.617   2.828  0.1754 -0.8252 -0.3712
  576MOL0     O79358   1.131   9.596   2.869  0.6911 -0.1004  0.2629
  576MOL0     C79359   1.204   9.475   2.826  0.1823  0.0570  0.0795
  576MOL0     C79360   1.112   9.352   2.850 -0.2124  0.4175  0.5982
  576MOL0     C79361   1.184   9.229   2.807 -0.0022  0.1349 -0.8310
  576MOL0     C79362   1.113   9.107   2.858 -0.0695 -0.2981 -0.4123
  576MOL0     C79363   1.190   8.977   2.880 -0.6150 -0.6597 -0.0797
  576MOL0     C79364   1.114   8.868   2.956  0.0093 -1.0260 -0.5187
  576MOL0     C79365   1.215   8.767   3.032 -0.5261 -0.8766  0.0198
  576MOL0     C79366   1.253   8.808   3.178 -1.0737 -0.2326 -0.5324
  576MOL0     N79367   1.131   8.792   3.255  1.0910  0.0402 -0.0389
  576MOL0     C79368   1.071   8.666   3.290 -0.1080 -0.6476 -0.2139
  576MOL0     C79369   0.954   8.714   3.354 -0.3968  0.5557  0.1352
  576MOL0     C79370   0.839   8.643   3.410 -0.2141  0.1882 -0.3690
  576MOL0     C79371   0.870   8.493   3.415  0.7300  0.5030 -0.2166
  576MOL0     C79372   0.739   8.408   3.449 -0.6456 -0.3337 -0.9100
  576MOL0     C79373   0.771   8.256   3.457 -0.3128 -0.3997 -0.4015
  576MOL0     O79374   0.852   8.223   3.346 -0.4789 -0.5950  0.3080
  576MOL0     C79375   0.868   8.095   3.315  0.3688  0.6273 -0.1189
  576MOL0     C79376   0.811   7.988   3.396  0.3338  0.3332 -0.6239
  576MOL0     C79377   0.843   7.855   3.376 -0.2052  0.9476  0.1948
  576MOL0     C79378   0.775   7.759   3.471  0.2482  0.0524 -0.5980
  576MOL0     C79379   0.901   7.819   3.254  0.2815  0.5159  0.1611
  576MOL0     C79380   0.913   7.672   3.220 -1.0716  0.6671  0.5107
  576MOL0     O79381   0.906   7.635   3.091  0.3066  0.1614  0.1205
  576MOL0     C79382   0.957   7.517   3.054  0.1042  0.0747  0.1544
  576MOL0     C79383   0.869   7.410   3.038  0.0159  0.3620  0.4497
  576MOL0     C79384   0.918   7.278   3.015 -0.0393  0.4189  0.0463
  576MOL0     C79385   1.057   7.259   3.031  0.0079  0.0318  0.9081
  576MOL0     O79386   1.095   7.128   3.016 -0.3582 -0.1473  0.1025
  576MOL0     C79387   1.195   7.075   3.095  0.2980  0.2685  0.7114
  576MOL0     C79388   1.318   7.075   3.008 -0.2867 -0.0971  0.2068
  576MOL0     C79389   1.450   7.092   3.091 -0.5316  0.4852 -0.9624
  576MOL0     C79390   1.563   7.113   2.997 -0.1077 -0.3625  0.4011
  576MOL0     C79391   1.704   7.128   3.071  0.6230 -0.4849 -0.7467
  576MOL0     C79392   1.742   6.981   3.102  0.8602 -0.6951 -0.0786
  576MOL0     C79393   1.866   6.986   3.180 -0.4547  0.5259  0.0830
  576MOL0     C79394   1.912   6.844   3.214 -0.7040  0.5087  0.6502
  576MOL0    Cl79395   2.018   6.837   3.352 -0.2890 -0.1524  0.2253
  576MOL0     C79396   1.143   7.369   3.047 -0.2254  0.8703 -0.1290
  576MOL0     C79397   1.092   7.496   3.047  0.1649  0.5065  0.1395
  576MOL0     O79398   0.939   7.595   3.304 -0.5396  0.6826 -0.1981
  576MOL0     C79399   0.942   7.920   3.166 -0.5464  0.8502  0.2630
  576MOL0     C79400   0.926   8.051   3.197  0.0087  0.8043  0.0855
  576MOL0     N79401   0.953   8.852   3.359  0.0058 -0.3606  0.1379
  576MOL0     N79402   1.055   8.888   3.303  0.4092  0.1441 -0.0022
  576MOL0     C79403   0.969   9.664   2.697 -0.3300 -0.1773  0.5042
  576MOL0     C79404   0.844   9.697   2.655 -0.6806  0.2909 -0.5170
  576MOL0     C79405   0.379   9.745   2.799 -0.9424  0.5812 -0.7778
  576MOL0     C79406   0.252   9.681   2.809 -0.2152  0.1792 -0.1257
  576MOL0     C79407   0.133   9.747   2.824  0.5481  0.0858  0.0129
  576MOL0     C79408   0.131   9.884   2.827  0.2272 -0.6986  0.3446
  576MOL0     O79409   0.018   9.960   2.831  0.0248  0.0580 -0.3869
  576MOL0     C79410  -0.107   9.903   2.879  0.5479 -0.1097 -0.3740
  576MOL0     C79411  -0.094   9.851   3.028 -0.2975 -0.0753 -1.4115
  576MOL0     C79412  -0.105   9.968   3.118  0.5050 -0.4931 -0.5662
  576MOL0     C79413   0.011  10.068   3.098 -1.1304  1.3259 -0.4714
  576MOL0     C79414   0.027  10.151   3.211 -0.2025  0.7068 -0.2173
  576MOL0     C79415   0.030  10.208   3.320  0.3532  0.0745 -0.4327
  576MOL0     C79416   0.255   9.950   2.813 -0.7630 -0.4291  1.1726
  576MOL0     C79417   0.376   9.886   2.799  0.2834 -0.3712 -0.7980
  576MOL0     C79418   0.503   9.976   2.776  0.3188  0.9701  0.6756
  576MOL0     H79419   0.701   9.655   2.953  1.9682 -0.1041  1.4830
  576MOL0     H79420   0.915   9.554   3.012 -0.0120 -3.4622 -2.4901
  576MOL0     H79421   1.303   9.457   2.868  0.1640  1.4548  0.7725
  576MOL0     H79422   1.225   9.477   2.718  4.1169  3.5942  0.6466
  576MOL0     H79423   1.097   9.351   2.958  0.2775  1.6409  0.6969
  576MOL0     H79424   1.016   9.349   2.798 -0.3273 -3.8732  0.7213
  576MOL0     H79425   1.187   9.208   2.700  0.3422 -0.7501 -0.6571
  576MOL0     H79426   1.284   9.233   2.852 -1.4330  0.4467  2.6670
  576MOL0     H79427   1.062   9.124   2.953  2.2584  1.6288  0.6034
  576MOL0     H79428   1.042   9.077   2.782 -0.7912 -0.2462  0.2309
  576MOL0     H79429   1.270   9.002   2.950 -0.7221 -1.7960  0.4824
  576MOL0     H79430   1.231   8.945   2.784 -1.4501 -0.5121 -0.5006
  576MOL0     H79431   1.058   8.908   3.041  1.2008  1.8841 -1.0005
  576MOL0     H79432   1.039   8.815   2.896  0.6459 -0.8628 -1.4789
  576MOL0     H79433   1.310   8.769   2.979 -0.5394 -0.6600  0.0035
  576MOL0     H79434   1.188   8.661   3.028 -0.1902 -1.0635  1.9175
  576MOL0     H79435   1.339   8.751   3.213 -0.5102 -0.3497 -2.0753
  576MOL0     H79436   1.293   8.910   3.172  1.5291 -1.2332 -1.5586
  576MOL0     H79437   1.079   8.559   3.277 -0.1302 -0.5996 -0.6156
  576MOL0     H79438   0.759   8.652   3.335  1.2502 -0.4992 -2.0865
  576MOL0     H79439   0.797   8.690   3.499  2.8046  0.3119  1.1117
  576MOL0     H79440   0.903   8.459   3.316 -4.7093  3.3700 -3.4900
  576MOL0     H79441   0.947   8.486   3.492 -0.7899 -3.3540  1.2199
  576MOL0     H79442   0.695   8.453   3.539 -0.6990  2.8268 -2.3695
  576MOL0     H79443   0.674   8.431   3.364 -0.3679 -0.0499 -1.0482
  576MOL0     H79444   0.816   8.230   3.553  2.5479 -0.3536 -1.6319
  576MOL0     H79445   0.680   8.196   3.448  1.1085 -2.8913  0.9138
  576MOL0     H79446   0.767   8.022   3.489 -1.7814 -0.8815 -1.1190
  576MOL0     H79447   0.706   7.805   3.542 -1.6285 -1.5330 -1.3139
  576MOL0     H79448   0.850   7.711   3.535 -1.4600  0.7662  2.0874
  576MOL0     H79449   0.720   7.687   3.410  4.2562 -1.2659 -3.1242
  576MOL0     H79450   0.763   7.430   3.029 -0.5619 -2.5734 -0.0834
  576MOL0     H79451   0.851   7.197   2.991  1.4386 -1.5676  2.2130
  576MOL0     H79452   1.200   7.139   3.184  0.6085  1.0604  0.1390
  576MOL0     H79453   1.166   6.974   3.125 -2.1565  1.6960  3.8598
  576MOL0     H79454   1.329   6.980   2.954 -3.3564 -0.9828  0.9501
  576MOL0     H79455   1.301   7.150   2.930 -2.1384 -1.0326 -0.3592
  576MOL0     H79456   1.464   7.005   3.155  3.4770  0.2506 -1.9191
  576MOL0     H79457   1.435   7.180   3.154  1.6204 -0.2882  0.7726
  576MOL0     H79458   1.555   7.207   2.942  2.2459  0.0994  0.7707
  576MOL0     H79459   1.577   7.032   2.925  2.2694 -0.8495  1.3323
  576MOL0     H79460   1.777   7.181   3.009 -0.5356 -0.0028 -1.7192
  576MOL0     H79461   1.688   7.181   3.165 -1.8577 -1.9317 -0.2567
  576MOL0     H79462   1.763   6.937   3.004 -0.6678 -0.4645 -0.5324
  576MOL0     H79463   1.656   6.940   3.156  0.0663 -0.9896 -1.5322
  576MOL0     H79464   1.860   7.040   3.275 -1.1992 -1.5654  1.2886
  576MOL0     H79465   1.938   7.034   3.113 -0.6286 -0.4883 -0.8702
  576MOL0     H79466   1.962   6.792   3.132 -3.6815 -3.1181  0.8805
  576MOL0     H79467   1.826   6.787   3.249 -0.2635  0.0820  1.0628
  576MOL0     H79468   1.247   7.356   3.075 -1.1207 -2.6756  2.2530
  576MOL0     H79469   1.160   7.579   3.059  0.6866  0.5750 -2.6066
  576MOL0     H79470   0.988   7.890   3.073 -2.0139  0.5635 -0.3881
  576MOL0     H79471   0.977   8.122   3.133 -0.7769  2.5267  1.2981
  576MOL0     H79472   1.053   9.673   2.628  2.1080 -3.0116  2.8148
  576MOL0     H79473   0.817   9.738   2.559  2.7020 -0.0146 -1.7476
  576MOL0     H79474   0.242   9.573   2.807  1.2414  0.0192 -0.0951
  576MOL0     H79475   0.041   9.691   2.839  0.9289 -0.8844 -1.1560
  576MOL0     H79476  -0.176   9.987   2.889  1.7013  0.7743  0.4157
  576MOL0     H79477  -0.141   9.822   2.814  0.7224  3.5076 -5.6438
  576MOL0     H79478   0.005   9.807   3.041  1.5906  2.3419 -5.6638
  576MOL0     H79479  -0.178   9.786   3.054  1.0335 -1.0402  0.7348
  576MOL0     H79480  -0.202  10.017   3.112  0.2335 -1.0545 -0.9039
  576MOL0     H79481  -0.116   9.920   3.216 -1.4994  0.8513 -0.0863
  576MOL0     H79482  -0.013  10.136   3.016  1.0985  0.6775 -1.7466
  576MOL0     H79483   0.103  10.016   3.071 -1.7880  0.9627 -2.1365
  576MOL0     H79484   0.042  10.264   3.411  1.5226  2.0656 -1.7516
  576MOL0     H79485   0.275  10.056   2.811  0.9792 -0.6133 -3.9556
  576MOL0     H79486   0.486  10.084   2.781  2.1726  1.2427  1.9898
  576MOL0     H79487   0.582   9.940   2.842  0.3827 -2.4032 -1.0359
  576MOL0     H79488   0.530   9.945   2.675 -3.1735 -0.4338  0.0261
  577MOL0     O79489   8.892   8.478   8.378 -0.0842  0.8282  0.9038
  577MOL0     C79490   8.810   8.385   8.378 -0.1812 -0.0791  0.2327
  577MOL0     O79491   8.728   8.357   8.268  0.0561 -0.4032 -0.3729
  577MOL0     C79492   8.732   8.446   8.168 -0.1161 -0.6236 -0.2966
  577MOL0     C79493   8.680   8.576   8.176 -0.0909  1.0952 -0.4761
  577MOL0     C79494   8.676   8.661   8.068 -0.0409  0.1993 -0.4830
  577MOL0     C79495   8.720   8.621   7.943  0.5177  0.8722 -0.2105
  577MOL0     O79496   8.707   8.703   7.834  0.3120 -0.2232  0.0954
  577MOL0     C79497   8.603   8.810   7.827 -0.4733 -0.1231 -0.4661
  577MOL0     C79498   8.643   8.934   7.741 -0.5148 -1.2324  0.6088
  577MOL0     C79499   8.707   8.898   7.603 -0.2593 -0.0653 -0.2685
  577MOL0     C79500   8.642   8.776   7.530  0.0059  0.2693  0.2415
  577MOL0     C79501   8.684   8.757   7.390  0.3889 -0.3603  0.0968
  577MOL0     C79502   8.820   8.690   7.382  0.3087  0.7146  0.5496
  577MOL0     C79503   8.886   8.671   7.245 -0.0964  0.3466  0.1271
  577MOL0     C79504   8.977   8.787   7.209 -1.0381 -0.0775  0.8729
  577MOL0     N79505   8.919   8.921   7.188  0.1033 -0.8478 -0.3613
  577MOL0     C79506   8.917   9.015   7.285 -0.4288 -0.0314 -0.1796
  577MOL0     C79507   8.852   9.120   7.233 -0.9482 -0.0523 -0.0342
  577MOL0     C79508   8.807   9.244   7.320  0.5609 -0.8831  0.0859
  577MOL0     C79509   8.855   9.384   7.267 -0.0848  0.8018  0.3294
  577MOL0     C79510   9.007   9.406   7.261  0.0083 -0.1222  0.2335
  577MOL0     C79511   9.079   9.428   7.385 -0.8346  0.4205 -0.7210
  577MOL0     O79512   9.074   9.322   7.482 -0.1479 -0.6012 -0.5501
  577MOL0     C79513   9.146   9.208   7.471 -0.1108 -0.2443  0.7384
  577MOL0     C79514   9.242   9.171   7.368 -0.2489  0.6935 -0.9338
  577MOL0     C79515   9.293   9.041   7.362  0.7022  0.5011 -0.1655
  577MOL0     C79516   9.387   9.014   7.245  0.0687 -1.0176  0.2901
  577MOL0     C79517   9.254   8.947   7.464 -0.8517  0.4539  0.6106
  577MOL0     C79518   9.294   8.804   7.461  0.0728  0.1163  0.9812
  577MOL0     O79519   9.321   8.754   7.586  0.7689 -0.3910  0.6140
  577MOL0     C79520   9.321   8.613   7.586  0.5925 -0.8857  0.4293
  577MOL0     C79521   9.431   8.529   7.559  0.0217 -0.6433  0.7372
  577MOL0     C79522   9.436   8.393   7.586  0.4367 -0.5860  0.5702
  577MOL0     C79523   9.330   8.331   7.648 -0.7013 -0.0439 -0.1469
  577MOL0     O79524   9.335   8.199   7.662  0.3285  0.3813  0.3204
  577MOL0     C79525   9.234   8.143   7.749 -0.5284  0.4299  0.0815
  577MOL0     C79526   9.251   7.984   7.753  0.0450 -0.8119 -0.1240
  577MOL0     C79527   9.287   7.912   7.619  0.4063 -0.0326 -0.4203
  577MOL0     C79528   9.284   7.751   7.632 -0.0223 -1.0495 -0.4685
  577MOL0     C79529   9.283   7.697   7.489  0.2238  0.4572  0.2309
  577MOL0     C79530   9.220   7.552   7.490  0.0861  0.8399 -0.5898
  577MOL0     C79531   9.201   7.484   7.348 -0.4020 -1.0805 -0.6481
  577MOL0     C79532   9.340   7.467   7.273  0.5672  0.0840 -0.0691
  577MOL0    Cl79533   9.435   7.353   7.356 -0.1685 -0.1884 -0.4181
  577MOL0     C79534   9.218   8.411   7.680  0.3570  0.0203 -0.5043
  577MOL0     C79535   9.217   8.550   7.649  0.7022  1.2402 -0.1434
  577MOL0     O79536   9.313   8.743   7.359  0.1870 -1.0204  0.0602
  577MOL0     C79537   9.179   8.995   7.570 -0.3044  0.3658  1.1312
  577MOL0     C79538   9.124   9.120   7.579  0.9596 -0.6287  0.5128
  577MOL0     N79539   8.831   9.087   7.104 -0.2354 -0.3197  0.0689
  577MOL0     N79540   8.879   8.972   7.069 -0.3393  0.6560  1.4713
  577MOL0     C79541   8.768   8.483   7.935 -0.8461  0.1866  1.1101
  577MOL0     C79542   8.777   8.401   8.048  0.3955  0.6079  0.8200
  577MOL0     C79543   8.759   8.306   8.500 -0.1262 -0.0581  0.1720
  577MOL0     C79544   8.639   8.220   8.482 -0.7100 -1.3506  0.1682
  577MOL0     C79545   8.584   8.156   8.592  0.4900  0.8869  0.1677
  577MOL0     C79546   8.632   8.173   8.720 -0.3087 -0.4632  0.6290
  577MOL0     O79547   8.574   8.132   8.837  0.3657  0.3124  1.4236
  577MOL0     C79548   8.636   8.017   8.893  0.4036 -0.0534  1.1861
  577MOL0     C79549   8.644   8.033   9.036  0.4131  0.4752 -0.2169
  577MOL0     C79550   8.514   8.041   9.115 -0.9565  0.3943 -0.1515
  577MOL0     C79551   8.530   8.074   9.262  0.9882  0.2694 -1.5034
  577MOL0     C79552   8.541   8.216   9.291 -0.3258  0.5647  0.8383
  577MOL0     C79553   8.560   8.333   9.297  0.0481 -0.1146 -1.4826
  577MOL0     C79554   8.736   8.267   8.735 -0.9087 -0.1688  0.0942
  577MOL0     C79555   8.809   8.331   8.629 -0.3700  0.2353 -0.8404
  577MOL0     C79556   8.910   8.441   8.670  0.0860  0.6453 -0.4704
  577MOL0     H79557   8.643   8.619   8.269 -0.8805 -0.0162 -0.2635
  577MOL0     H79558   8.632   8.759   8.078 -0.9538 -0.1408 -1.0774
  577MOL0     H79559   8.564   8.850   7.921 -0.1411  0.9827 -0.7844
  577MOL0     H79560   8.509   8.772   7.785 -0.8727  0.2588  0.0627
  577MOL0     H79561   8.563   9.004   7.715  1.6986  1.9072  1.6706
  577MOL0     H79562   8.712   8.994   7.801 -0.4551  0.3726 -0.9686
  577MOL0     H79563   8.707   8.983   7.534 -1.1690 -0.9095 -1.3342
  577MOL0     H79564   8.810   8.875   7.630 -0.2089  2.2321  1.8564
  577MOL0     H79565   8.665   8.684   7.584 -0.8168 -1.6386 -2.4307
  577MOL0     H79566   8.534   8.788   7.534 -0.2060 -1.3259  0.1119
  577MOL0     H79567   8.689   8.855   7.342 -1.0425  0.5043  1.6023
  577MOL0     H79568   8.620   8.698   7.324 -0.7085  0.6972  0.1751
  577MOL0     H79569   8.892   8.742   7.446  0.5864  1.0762 -0.0501
  577MOL0     H79570   8.804   8.592   7.428 -0.7854  0.3186 -0.6083
  577MOL0     H79571   8.821   8.633   7.167  1.6132 -1.5743 -0.4566
  577MOL0     H79572   8.956   8.587   7.254 -0.5234  0.0005  0.2964
  577MOL0     H79573   9.052   8.793   7.289 -0.1053 -0.5033  0.0614
  577MOL0     H79574   9.043   8.766   7.124  0.7456  2.8365  1.3875
  577MOL0     H79575   8.956   9.005   7.386 -0.7345 -2.1762 -0.2148
  577MOL0     H79576   8.830   9.232   7.426  0.7736 -0.3253  0.1052
  577MOL0     H79577   8.702   9.260   7.295  0.7018 -2.4084 -1.7125
  577MOL0     H79578   8.810   9.393   7.167  2.1956 -2.6185 -1.2024
  577MOL0     H79579   8.801   9.466   7.314 -3.2453 -0.0675 -1.5017
  577MOL0     H79580   9.043   9.314   7.213  2.6490  1.3293 -0.7520
  577MOL0     H79581   9.032   9.480   7.185 -1.1438 -2.9483 -3.1720
  577MOL0     H79582   9.185   9.445   7.361 -0.4120  0.3438  1.0001
  577MOL0     H79583   9.043   9.519   7.432 -0.2260  2.2848 -3.5713
  577MOL0     H79584   9.266   9.254   7.303  1.6790  0.8758 -0.0477
  577MOL0     H79585   9.357   8.920   7.196 -3.2118  1.3724 -2.8569
  577MOL0     H79586   9.489   9.012   7.282  0.2546  1.7532  0.1380
  577MOL0     H79587   9.373   9.090   7.167 -2.2312 -3.4820 -1.9298
  577MOL0     H79588   9.523   8.573   7.523  0.2115  1.2046  3.1989
  577MOL0     H79589   9.517   8.323   7.567 -0.2100 -1.1479 -0.2063
  577MOL0     H79590   9.258   8.169   7.852  1.3945 -1.4761  0.1856
  577MOL0     H79591   9.129   8.172   7.736 -0.5504  1.2308  1.7926
  577MOL0     H79592   9.339   7.963   7.815 -0.0950  1.6441  1.0293
  577MOL0     H79593   9.159   7.951   7.800 -0.8614  1.8502  0.1553
  577MOL0     H79594   9.389   7.949   7.606  0.5084  1.4148  3.3950
  577MOL0     H79595   9.228   7.941   7.532 -0.8997 -0.8553  0.1537
  577MOL0     H79596   9.191   7.718   7.678  0.8944 -1.1693  1.3906
  577MOL0     H79597   9.367   7.705   7.687 -1.4172  1.0585  3.9082
  577MOL0     H79598   9.230   7.758   7.415 -0.0353  1.1389  0.9663
  577MOL0     H79599   9.387   7.679   7.459 -0.1573 -2.7798  0.4723
  577MOL0     H79600   9.125   7.542   7.545  0.1147 -4.2020 -0.9512
  577MOL0     H79601   9.289   7.486   7.542  0.2688  0.7804 -0.9102
  577MOL0     H79602   9.131   7.552   7.298  0.2039  1.0265  1.1641
  577MOL0     H79603   9.152   7.387   7.360 -1.1747 -0.7174 -0.7671
  577MOL0     H79604   9.390   7.564   7.269 -0.8481  0.8640  0.3345
  577MOL0     H79605   9.321   7.439   7.169 -3.9478  1.2248  0.2293
  577MOL0     H79606   9.122   8.374   7.715 -0.0848  0.4015 -1.2784
  577MOL0     H79607   9.133   8.604   7.690  1.3712  0.2983  2.6840
  577MOL0     H79608   9.139   8.916   7.632  1.3789 -1.8376 -0.4115
  577MOL0     H79609   9.057   9.158   7.656  1.9088  1.5515  0.3309
  577MOL0     H79610   8.788   8.428   7.844  2.3077 -0.0529  1.8380
  577MOL0     H79611   8.806   8.297   8.046  0.3684  0.5875 -1.4810
  577MOL0     H79612   8.582   8.206   8.391  0.0736 -2.4261 -0.1823
  577MOL0     H79613   8.491   8.099   8.589 -0.3225  2.1238  1.1468
  577MOL0     H79614   8.596   7.925   8.847  0.8757  1.1977 -2.0193
  577MOL0     H79615   8.737   8.024   8.853 -0.2168 -1.7798 -0.8668
  577MOL0     H79616   8.690   8.127   9.069  2.2169 -0.9366  1.5874
  577MOL0     H79617   8.707   7.956   9.082  1.4845  1.8490  0.7104
  577MOL0     H79618   8.456   8.115   9.060  0.5693  0.8069 -1.2601
  577MOL0     H79619   8.474   7.940   9.104  0.2605  0.0830 -2.2234
  577MOL0     H79620   8.616   8.024   9.307  0.5727  0.9747  0.1557
  577MOL0     H79621   8.434   8.063   9.315 -0.2412  4.0789 -2.5753
  577MOL0     H79622   8.577   8.438   9.304  1.3958 -0.3098 -1.5607
  577MOL0     H79623   8.759   8.293   8.838  2.1303 -2.1309  0.0405
  577MOL0     H79624   9.006   8.406   8.631  0.5913 -2.3245  2.9321
  577MOL0     H79625   8.886   8.532   8.614 -4.7034  0.6889  1.1367
  577MOL0     H79626   8.921   8.449   8.779 -2.5102 -0.5744 -0.0285
  578MOL0     O79627   9.055   9.268   5.571  0.7152 -0.6167 -0.0233
  578MOL0     C79628   9.034   9.190   5.470  0.9881 -0.1614 -0.7166
  578MOL0     O79629   9.132   9.118   5.404  0.0481 -0.6995 -0.8289
  578MOL0     C79630   9.265   9.121   5.443 -0.3521  0.1121  0.7142
  578MOL0     C79631   9.318   9.144   5.578  0.3424  0.8372 -0.0463
  578MOL0     C79632   9.453   9.160   5.613  0.7678  0.4882  0.0818
  578MOL0     C79633   9.545   9.161   5.508  0.1838 -0.0692  0.0647
  578MOL0     O79634   9.679   9.184   5.511  0.0075 -0.5440  0.8147
  578MOL0     C79635   9.713   9.279   5.613 -0.4740 -0.1283  0.6323
  578MOL0     C79636   9.859   9.320   5.609 -0.5085 -0.0870 -0.1607
  578MOL0     C79637   9.888   9.461   5.657  0.6735  0.5476  0.1325
  578MOL0     C79638  10.043   9.484   5.627  0.4233 -0.6143  0.5227
  578MOL0     C79639  10.063   9.634   5.670  0.5563 -0.0368 -0.0547
  578MOL0     C79640  10.200   9.678   5.707 -1.1446 -0.0696 -0.5595
  578MOL0     C79641  10.287   9.706   5.580  0.0230  0.0837 -0.1434
  578MOL0     C79642  10.410   9.794   5.629  0.0992 -0.2685  0.1800
  578MOL0     N79643  10.490   9.724   5.735 -0.2329 -0.6443  0.0484
  578MOL0     C79644  10.472   9.730   5.871  0.4470 -0.3134  0.5083
  578MOL0     C79645  10.557   9.633   5.910 -1.0434 -0.3006  0.2568
  578MOL0     C79646  10.597   9.607   6.040  0.1354  0.7114 -0.1623
  578MOL0     C79647  10.674   9.471   6.051 -0.0636  0.9164 -0.2018
  578MOL0     C79648  10.719   9.410   6.190  0.7321  0.3109 -0.8599
  578MOL0     C79649  10.601   9.382   6.272  0.1140 -0.3792  0.2569
  578MOL0     O79650  10.532   9.267   6.223  0.3415  0.1699  0.0558
  578MOL0     C79651  10.395   9.267   6.211 -0.5491 -0.0122 -0.3964
  578MOL0     C79652  10.334   9.364   6.130  0.6309  1.1592  0.1275
  578MOL0     C79653  10.197   9.366   6.108  0.0423 -0.6271  0.8063
  578MOL0     C79654  10.145   9.461   6.011 -0.1586 -0.2814 -0.0113
  578MOL0     C79655  10.119   9.266   6.182  0.0878 -0.5331  0.3300
  578MOL0     C79656   9.970   9.281   6.185 -1.1535  0.3340  0.1640
  578MOL0     O79657   9.906   9.181   6.251  1.2630  0.5739 -0.1699
  578MOL0     C79658   9.771   9.199   6.297 -0.5849 -0.5323 -0.0276
  578MOL0     C79659   9.751   9.234   6.430  0.0534  0.3244 -1.0041
  578MOL0     C79660   9.626   9.220   6.499 -0.6163 -0.4860 -0.0050
  578MOL0     C79661   9.516   9.184   6.418  0.6469 -0.6232 -0.9902
  578MOL0     O79662   9.389   9.180   6.479 -0.0882 -0.4321  0.7007
  578MOL0     C79663   9.265   9.150   6.415 -0.9286 -0.0737  0.0909
  578MOL0     C79664   9.163   9.136   6.528  0.0173 -0.0360 -0.5157
  578MOL0     C79665   9.018   9.156   6.481 -0.2088  0.1675 -0.1814
  578MOL0     C79666   8.913   9.127   6.595  0.4200  1.3388  0.4223
  578MOL0     C79667   8.932   8.990   6.659  0.0813 -0.9375 -0.2876
  578MOL0     C79668   8.922   8.868   6.569  0.1527 -0.3879  0.7052
  578MOL0     C79669   8.792   8.874   6.477  0.8299  0.4557  0.2501
  578MOL0     C79670   8.721   8.741   6.473  0.3496 -0.8699  0.5157
  578MOL0    Cl79671   8.827   8.652   6.361  0.1771  0.0795 -0.2196
  578MOL0     C79672   9.540   9.157   6.281  1.1087  0.2038 -0.4993
  578MOL0     C79673   9.669   9.147   6.224 -0.3176 -0.2456 -0.1606
  578MOL0     O79674   9.912   9.386   6.147  0.0401 -0.1664 -0.7240
  578MOL0     C79675  10.185   9.176   6.263 -0.3916  0.1119  0.4191
  578MOL0     C79676  10.322   9.168   6.266  0.4009 -1.1009 -0.7011
  578MOL0     N79677  10.632   9.588   5.800 -0.2987  0.2146  0.2409
  578MOL0     N79678  10.588   9.635   5.695 -0.2246 -0.0601 -0.5855
  578MOL0     C79679   9.506   9.111   5.381 -0.3090 -0.5549  0.2620
  578MOL0     C79680   9.367   9.094   5.345  0.2709 -0.5981 -0.3830
  578MOL0     C79681   8.895   9.200   5.412 -0.4639 -1.1516 -0.1291
  578MOL0     C79682   8.885   9.194   5.268  0.2001  1.0196 -0.2132
  578MOL0     C79683   8.767   9.201   5.200 -0.8919  0.8239 -1.2316
  578MOL0     C79684   8.646   9.217   5.272  0.5930  0.7241  0.8443
  578MOL0     O79685   8.524   9.182   5.213 -0.0532 -0.0700  0.3114
  578MOL0     C79686   8.480   9.252   5.091 -0.8302 -0.2273 -0.1798
  578MOL0     C79687   8.328   9.245   5.097  0.1497  0.7684  0.1468
  578MOL0     C79688   8.250   9.267   4.957  0.0526  0.6722 -0.7885
  578MOL0     C79689   8.252   9.409   4.908  0.3544  0.3554  0.5823
  578MOL0     C79690   8.193   9.412   4.774 -1.9580 -0.0659 -0.0909
  578MOL0     C79691   8.142   9.414   4.664 -0.4502 -0.0819  0.1350
  578MOL0     C79692   8.654   9.234   5.405  0.3749 -0.0243 -0.7149
  578MOL0     C79693   8.774   9.238   5.477 -0.1464  0.4071  0.5772
  578MOL0     C79694   8.772   9.271   5.620  0.2210  0.5477  0.3124
  578MOL0     H79695   9.250   9.144   5.663 -3.6739  2.2171 -2.9444
  578MOL0     H79696   9.473   9.192   5.715  0.1648 -0.9077  0.6678
  578MOL0     H79697   9.685   9.250   5.714 -0.3569 -2.5892  0.0374
  578MOL0     H79698   9.652   9.366   5.587 -1.0165 -0.9203 -0.8790
  578MOL0     H79699   9.913   9.236   5.654 -1.4722 -1.5045 -1.5361
  578MOL0     H79700   9.879   9.307   5.502 -2.4343 -1.3786 -0.4142
  578MOL0     H79701   9.832   9.536   5.600  0.4752 -1.2870 -2.2421
  578MOL0     H79702   9.866   9.461   5.764 -2.5256  0.6367 -0.4182
  578MOL0     H79703  10.104   9.410   5.680 -0.3498 -2.7413 -1.4429
  578MOL0     H79704  10.078   9.471   5.524 -1.4993 -0.9821 -0.1172
  578MOL0     H79705  10.009   9.651   5.764  0.9317 -0.5752  0.2630
  578MOL0     H79706  10.014   9.695   5.594 -1.7879 -1.6664  0.0430
  578MOL0     H79707  10.203   9.757   5.782  1.7888 -1.5513  1.0542
  578MOL0     H79708  10.253   9.596   5.756 -0.4656 -1.5401 -3.5144
  578MOL0     H79709  10.224   9.766   5.514  1.6299  1.9150 -0.0944
  578MOL0     H79710  10.333   9.622   5.528 -0.3340 -0.6359  0.6743
  578MOL0     H79711  10.482   9.798   5.547  1.4126 -3.0026  1.0502
  578MOL0     H79712  10.390   9.896   5.663  0.1045 -0.4860  0.8483
  578MOL0     H79713  10.418   9.792   5.941  0.6949 -1.6053  1.8888
  578MOL0     H79714  10.514   9.613   6.111  0.5574  1.4875  0.2725
  578MOL0     H79715  10.669   9.682   6.072 -1.2858  1.3072  1.8281
  578MOL0     H79716  10.606   9.399   6.003 -1.9214  2.5730 -0.1501
  578MOL0     H79717  10.766   9.477   5.992  1.2223  3.2073  1.8799
  578MOL0     H79718  10.759   9.309   6.179 -2.0937 -1.0567  0.1821
  578MOL0     H79719  10.788   9.475   6.245 -1.6552 -0.0500  2.9124
  578MOL0     H79720  10.630   9.357   6.374  0.3256 -1.1192  0.0183
  578MOL0     H79721  10.537   9.471   6.271  0.4982 -0.0867  1.1123
  578MOL0     H79722  10.402   9.434   6.083  2.2767 -0.7756 -0.5228
  578MOL0     H79723  10.097   9.546   6.062 -0.1047 -1.3915  2.0090
  578MOL0     H79724  10.076   9.402   5.950 -0.9301 -0.8833  1.3806
  578MOL0     H79725  10.228   9.502   5.954  0.1066 -0.5739  0.1615
  578MOL0     H79726   9.827   9.252   6.505 -0.0714 -2.3895 -0.1110
  578MOL0     H79727   9.611   9.252   6.602 -0.3987  0.2754 -0.2020
  578MOL0     H79728   9.234   9.232   6.350 -3.3480 -1.1763 -0.2355
  578MOL0     H79729   9.279   9.055   6.363  1.9664 -0.2921  1.0679
  578MOL0     H79730   9.184   9.039   6.573  1.7314  0.4691 -0.1564
  578MOL0     H79731   9.174   9.215   6.603 -3.4648  1.0707 -1.0004
  578MOL0     H79732   8.996   9.084   6.402  0.4400 -4.0987  3.1232
  578MOL0     H79733   8.998   9.258   6.448  0.1396  0.9761  1.9240
  578MOL0     H79734   8.811   9.126   6.555 -0.0433 -2.7295  1.2977
  578MOL0     H79735   8.928   9.194   6.681 -1.4094  1.7706  0.4594
  578MOL0     H79736   9.029   8.991   6.710  0.2947 -2.2924 -0.6371
  578MOL0     H79737   8.858   8.986   6.740  1.2976 -2.9992  0.8061
  578MOL0     H79738   8.928   8.771   6.619 -2.6713 -1.2444 -0.3767
  578MOL0     H79739   9.008   8.869   6.502 -0.3802 -1.9249 -0.0538
  578MOL0     H79740   8.809   8.899   6.372 -3.6576 -0.5792 -0.9352
  578MOL0     H79741   8.722   8.947   6.520  1.2587  0.7789  0.4021
  578MOL0     H79742   8.617   8.759   6.444  0.4196 -0.6396  0.4011
  578MOL0     H79743   8.733   8.686   6.567  3.6898  2.7906  2.5596
  578MOL0     H79744   9.466   9.104   6.221  0.3732 -0.9620  1.3379
  578MOL0     H79745   9.685   9.124   6.119  0.3687 -1.9980  0.2917
  578MOL0     H79746  10.137   9.098   6.322 -0.1781  0.9190  1.7034
  578MOL0     H79747  10.370   9.089   6.323  1.5754  0.2333  0.2258
  578MOL0     H79748   9.580   9.098   5.302  2.1484 -2.0468  2.6404
  578MOL0     H79749   9.324   9.057   5.252 -0.2306  3.8109 -2.1481
  578MOL0     H79750   8.970   9.178   5.203 -0.6698  0.1023 -1.1708
  578MOL0     H79751   8.768   9.173   5.095  2.0100 -2.1645 -0.5554
  578MOL0     H79752   8.514   9.356   5.095  3.2631 -1.3929  0.4004
  578MOL0     H79753   8.522   9.215   4.997  2.4096  2.4690 -0.0064
  578MOL0     H79754   8.290   9.313   5.174  0.2035  0.2860  0.6058
  578MOL0     H79755   8.304   9.145   5.135  3.9859 -0.6540 -0.7492
  578MOL0     H79756   8.295   9.192   4.892 -2.0616  0.9822 -2.7099
  578MOL0     H79757   8.144   9.251   4.983  0.4670 -3.1848 -0.8753
  578MOL0     H79758   8.352   9.452   4.906 -0.4801  2.4978  1.5255
  578MOL0     H79759   8.201   9.474   4.980 -1.0797 -0.3486  0.2380
  578MOL0     H79760   8.104   9.429   4.564  0.0174  3.7209  0.3736
  578MOL0     H79761   8.564   9.254   5.463  1.1763  0.0174  0.5319
  578MOL0     H79762   8.842   9.212   5.680  1.6950  1.9035 -0.0078
  578MOL0     H79763   8.804   9.374   5.641  0.2321  0.4966  0.5498
  578MOL0     H79764   8.668   9.252   5.648  0.1624  0.8573  0.3186
  579MOL0     O79765   8.710   3.965   2.892  0.1013  0.1087  0.0589
  579MOL0     C79766   8.726   4.027   3.000  0.9167 -0.9920  0.6762
  579MOL0     O79767   8.674   3.972   3.116 -0.1218 -0.1971 -0.6523
  579MOL0     C79768   8.618   3.849   3.099  0.4187 -0.4641 -0.6678
  579MOL0     C79769   8.494   3.839   3.041 -0.3343  0.3335  1.0118
  579MOL0     C79770   8.428   3.723   3.044  0.1618  1.1954  0.7439
  579MOL0     C79771   8.483   3.606   3.102 -0.4502  0.0163 -0.6914
  579MOL0     O79772   8.413   3.488   3.111  0.3065  0.1759  0.0732
  579MOL0     C79773   8.478   3.356   3.095  1.4078 -0.5460  0.1985
  579MOL0     C79774   8.499   3.321   2.953  0.8230  0.3190  0.8201
  579MOL0     C79775   8.608   3.220   2.917  0.2051  0.3525  0.5395
  579MOL0     C79776   8.734   3.286   2.841 -0.4575  0.3853  0.4481
  579MOL0     C79777   8.822   3.368   2.938  0.5773  0.4536  0.7244
  579MOL0     C79778   8.956   3.415   2.870  0.2246  0.1049 -0.4233
  579MOL0     C79779   8.920   3.522   2.769 -0.3011 -0.3672  0.1814
  579MOL0     C79780   9.048   3.543   2.679 -0.6871 -0.1845  1.0503
  579MOL0     N79781   9.021   3.638   2.570  0.6337  0.7920  0.0121
  579MOL0     C79782   8.998   3.765   2.582 -0.0264  1.0955  1.1962
  579MOL0     C79783   8.967   3.802   2.450 -0.0568 -0.2067 -1.2788
  579MOL0     C79784   8.912   3.931   2.400  0.0564  0.9809 -0.3558
  579MOL0     C79785   8.759   3.932   2.385 -1.1374  0.3044 -0.6431
  579MOL0     C79786   8.707   4.044   2.287 -0.6074  0.8453  0.4239
  579MOL0     C79787   8.696   4.176   2.373  0.7098  0.1300  0.5121
  579MOL0     O79788   8.582   4.175   2.466 -0.5083  0.2630  0.0068
  579MOL0     C79789   8.557   4.274   2.545 -1.0617 -0.6609 -0.8765
  579MOL0     C79790   8.514   4.238   2.670  0.1256 -0.2369 -0.1346
  579MOL0     C79791   8.497   4.336   2.777  0.2645 -0.0525  0.1374
  579MOL0     C79792   8.443   4.280   2.909 -0.7640 -0.0694  0.3063
  579MOL0     C79793   8.517   4.471   2.753  0.3230  1.1266  0.8075
  579MOL0     C79794   8.488   4.585   2.847 -0.0554  0.3552  0.1649
  579MOL0     O79795   8.433   4.562   2.972 -0.0788 -0.2705  0.3517
  579MOL0     C79796   8.469   4.651   3.070  0.2938  0.6279  0.5833
  579MOL0     C79797   8.396   4.759   3.092  0.3114  0.5418 -0.2379
  579MOL0     C79798   8.423   4.845   3.206  0.3636 -0.4144  0.0202
  579MOL0     C79799   8.542   4.832   3.282 -0.1076 -0.3174  0.0761
  579MOL0     O79800   8.582   4.907   3.392  0.4511 -0.6742  0.8973
  579MOL0     C79801   8.473   4.964   3.467 -0.0918  0.4717  0.1018
  579MOL0     C79802   8.496   4.962   3.621 -0.5859  0.4080 -0.3158
  579MOL0     C79803   8.463   4.822   3.690 -0.6493  0.1931 -0.8451
  579MOL0     C79804   8.314   4.788   3.694 -1.0595 -0.4469  1.3260
  579MOL0     C79805   8.274   4.651   3.745 -0.6386  0.9207 -0.3459
  579MOL0     C79806   8.333   4.547   3.653  0.5140 -0.2655  0.8107
  579MOL0     C79807   8.252   4.411   3.669  0.3601  0.1574  0.2634
  579MOL0     C79808   8.307   4.329   3.782  0.0879 -0.9122  0.1168
  579MOL0    Cl79809   8.248   4.164   3.804  0.2166 -0.0033  0.0681
  579MOL0     C79810   8.627   4.740   3.231 -0.3383 -0.5385 -0.1157
  579MOL0     C79811   8.598   4.648   3.127 -0.0521  0.1522  0.3437
  579MOL0     O79812   8.509   4.699   2.809  0.0544  0.1021  0.2060
  579MOL0     C79813   8.566   4.502   2.619  0.5908  0.6374  0.4251
  579MOL0     C79814   8.587   4.408   2.518 -0.4792  0.1485 -0.1080
  579MOL0     N79815   8.976   3.696   2.365 -0.0702 -0.1524 -0.6236
  579MOL0     N79816   9.019   3.597   2.440 -0.4967  0.0898 -0.1383
  579MOL0     C79817   8.609   3.615   3.163  0.8375  0.6069 -0.3312
  579MOL0     C79818   8.673   3.736   3.166 -0.0940  0.4717 -0.2379
  579MOL0     C79819   8.792   4.170   2.992  0.7111  1.2828  0.3545
  579MOL0     C79820   8.802   4.221   2.865 -0.3576 -0.8502 -0.2151
  579MOL0     C79821   8.862   4.350   2.846  0.3794 -0.2256  0.3043
  579MOL0     C79822   8.898   4.434   2.951 -0.9538  0.3030  0.1660
  579MOL0     O79823   8.957   4.565   2.947 -0.3078 -0.2883 -0.2819
  579MOL0     C79824   8.904   4.633   2.831 -0.4596  0.2686 -0.1838
  579MOL0     C79825   8.942   4.780   2.836 -0.9268  0.5293  0.3262
  579MOL0     C79826   9.098   4.800   2.831  1.0288 -0.5745  0.7835
  579MOL0     C79827   9.132   4.954   2.847  0.6399  0.0535  0.1547
  579MOL0     C79828   9.075   5.046   2.743  0.7176 -0.3562 -0.7553
  579MOL0     C79829   9.015   5.112   2.663  0.9090 -0.0957  0.8517
  579MOL0     C79830   8.876   4.376   3.077  0.0327 -0.4733  0.1484
  579MOL0     C79831   8.820   4.246   3.105 -0.7074 -0.5851 -0.8106
  579MOL0     C79832   8.802   4.201   3.253 -0.3188  0.3689 -0.2605
  579MOL0     H79833   8.455   3.934   3.007  1.1662  1.0483  1.1839
  579MOL0     H79834   8.327   3.718   3.006 -1.1914 -0.6957  4.1144
  579MOL0     H79835   8.406   3.286   3.140 -0.6520  1.1661 -0.2473
  579MOL0     H79836   8.573   3.350   3.149  1.7004  1.0296 -0.0924
  579MOL0     H79837   8.408   3.298   2.898  2.4654  0.1716 -2.0481
  579MOL0     H79838   8.525   3.416   2.905  2.6482 -1.3787 -1.8273
  579MOL0     H79839   8.645   3.158   3.000  1.5832 -0.3259 -0.5267
  579MOL0     H79840   8.568   3.145   2.848  1.4117  1.0943 -1.0142
  579MOL0     H79841   8.802   3.213   2.796 -3.2094 -2.3813  0.4177
  579MOL0     H79842   8.697   3.345   2.756 -1.7291  0.5961  1.1306
  579MOL0     H79843   8.843   3.299   3.020 -1.4773  0.3412  1.1939
  579MOL0     H79844   8.764   3.452   2.977  0.4734  0.6744  0.1027
  579MOL0     H79845   9.034   3.442   2.941  0.3752 -4.8336  1.7498
  579MOL0     H79846   8.986   3.323   2.818  2.3304 -0.3419  1.4577
  579MOL0     H79847   8.896   3.614   2.822 -1.9053 -0.3221 -0.5691
  579MOL0     H79848   8.835   3.500   2.703  0.8923  3.3963 -3.0228
  579MOL0     H79849   9.137   3.571   2.735 -0.3905  0.9676  0.0336
  579MOL0     H79850   9.078   3.447   2.635  1.1796  0.9086 -0.1960
  579MOL0     H79851   8.985   3.825   2.672 -1.0056  1.9224  0.5196
  579MOL0     H79852   8.959   3.945   2.303  0.3334 -0.7126 -0.4875
  579MOL0     H79853   8.945   4.014   2.463  2.4935 -1.3552  1.6898
  579MOL0     H79854   8.727   3.836   2.343 -0.2083  0.7169 -2.4007
  579MOL0     H79855   8.711   3.937   2.483  1.0769 -3.7927  0.9224
  579MOL0     H79856   8.785   4.055   2.212 -0.6231 -2.1942 -0.1454
  579MOL0     H79857   8.616   4.008   2.239 -1.0863  3.1068 -0.5163
  579MOL0     H79858   8.784   4.195   2.435  0.0437 -0.6336  1.7359
  579MOL0     H79859   8.681   4.256   2.300 -0.8824 -1.1995 -0.6825
  579MOL0     H79860   8.510   4.131   2.684  1.6873 -0.2966 -0.0199
  579MOL0     H79861   8.510   4.303   2.992 -1.8571  4.4290  0.1777
  579MOL0     H79862   8.426   4.172   2.902 -0.6107 -0.1437  0.9680
  579MOL0     H79863   8.348   4.333   2.921  0.1497  2.3177 -2.0100
  579MOL0     H79864   8.299   4.765   3.044 -0.0335  1.1898  0.5297
  579MOL0     H79865   8.368   4.938   3.214  1.4761  0.3415 -0.7850
  579MOL0     H79866   8.444   5.064   3.434 -2.8729  0.6249  2.6019
  579MOL0     H79867   8.389   4.896   3.448  1.0470 -0.8213 -0.4966
  579MOL0     H79868   8.595   5.004   3.641  0.1777  0.7968 -4.1670
  579MOL0     H79869   8.428   5.037   3.662 -0.5483  0.5551 -0.5203
  579MOL0     H79870   8.490   4.826   3.796 -0.0571  1.3764 -1.0315
  579MOL0     H79871   8.530   4.743   3.654  1.0222  2.0109 -1.9685
  579MOL0     H79872   8.272   4.811   3.596  0.6806  0.3002  0.7037
  579MOL0     H79873   8.277   4.865   3.762 -3.1478 -0.8664  0.7407
  579MOL0     H79874   8.326   4.647   3.842 -0.7952  1.8211 -0.2078
  579MOL0     H79875   8.167   4.637   3.760 -0.0075 -0.4610  5.3467
  579MOL0     H79876   8.436   4.527   3.684  1.3027 -0.3602 -1.6738
  579MOL0     H79877   8.331   4.572   3.547 -1.3868 -1.8611  0.4164
  579MOL0     H79878   8.273   4.350   3.580 -0.4140  1.8612 -1.1382
  579MOL0     H79879   8.144   4.427   3.673 -0.0182 -1.4822 -1.6526
  579MOL0     H79880   8.287   4.385   3.874 -0.8409 -0.1965 -0.5018
  579MOL0     H79881   8.414   4.318   3.764  0.2291 -3.1114  1.8502
  579MOL0     H79882   8.729   4.741   3.267  0.0075 -1.3561 -1.0445
  579MOL0     H79883   8.663   4.575   3.079 -1.2930 -0.0241 -1.1419
  579MOL0     H79884   8.582   4.604   2.588 -0.7108 -0.0385 -2.8670
  579MOL0     H79885   8.622   4.452   2.425 -1.5169  1.8405  0.2698
  579MOL0     H79886   8.649   3.526   3.209 -1.0035 -0.4686 -0.7187
  579MOL0     H79887   8.769   3.745   3.216 -0.1137 -0.4294 -0.0146
  579MOL0     H79888   8.787   4.158   2.778  1.7897 -1.2867 -0.3057
  579MOL0     H79889   8.884   4.383   2.745 -1.1099 -0.0996 -0.0032
  579MOL0     H79890   8.939   4.594   2.735  3.5303  3.0567 -0.0959
  579MOL0     H79891   8.795   4.623   2.838 -0.3595  0.3045  2.6551
  579MOL0     H79892   8.903   4.831   2.925  0.9485  1.2609  0.7684
  579MOL0     H79893   8.909   4.831   2.745 -1.0940  2.6063  1.5041
  579MOL0     H79894   9.161   4.742   2.899  2.5884  0.4941  0.3062
  579MOL0     H79895   9.124   4.780   2.726  0.8682  1.9382  0.2111
  579MOL0     H79896   9.241   4.958   2.835  0.6233 -2.5520 -1.6486
  579MOL0     H79897   9.104   4.981   2.950  0.5550  1.4585 -0.2103
  579MOL0     H79898   8.954   5.165   2.593 -0.5782 -1.5832  0.9528
  579MOL0     H79899   8.906   4.438   3.160 -0.8437  1.1208 -0.6638
  579MOL0     H79900   8.830   4.286   3.316  2.1756 -0.3554 -0.2792
  579MOL0     H79901   8.701   4.164   3.271 -0.1321 -0.6060 -1.1278
  579MOL0     H79902   8.878   4.126   3.276  0.4907  1.8878  2.5576
  580MOL0     O79903   4.046  10.967   5.128 -0.1851 -0.3361 -0.1574
  580MOL0     C79904   3.991  11.071   5.091  1.1634  0.3637  0.5800
  580MOL0     O79905   4.039  11.148   5.000 -0.6242 -0.5373 -1.0836
  580MOL0     C79906   4.176  11.160   4.975  0.0463 -0.4790  1.1614
  580MOL0     C79907   4.258  11.182   5.086 -0.2829  0.0327 -0.4444
  580MOL0     C79908   4.399  11.181   5.072  0.2383  0.5594 -0.6540
  580MOL0     C79909   4.457  11.147   4.950 -0.0366  0.3663 -0.3803
  580MOL0     O79910   4.592  11.134   4.939 -0.1693  0.6297  1.1399
  580MOL0     C79911   4.672  11.097   5.053  0.2457  0.4158  0.1550
  580MOL0     C79912   4.813  11.113   5.012 -0.0182 -0.9315 -0.0780
  580MOL0     C79913   4.900  11.100   5.139  0.2070  0.1222  0.1322
  580MOL0     C79914   5.057  11.131   5.111  0.0942  0.4658 -0.3610
  580MOL0     C79915   5.157  11.086   5.234  0.2601 -0.1790 -0.7258
  580MOL0     C79916   5.300  11.109   5.180  0.3373 -0.5112 -0.0462
  580MOL0     C79917   5.388  11.092   5.302 -0.4160  0.8517 -0.4237
  580MOL0     C79918   5.528  11.086   5.261 -0.2669 -0.8635 -0.4693
  580MOL0     N79919   5.575  10.984   5.168 -0.2418  0.7339 -1.0201
  580MOL0     C79920   5.533  10.847   5.147  0.8047  0.0899 -0.3387
  580MOL0     C79921   5.602  10.802   5.041  0.8141  0.5433  0.0348
  580MOL0     C79922   5.591  10.670   4.978 -0.1494  0.0573 -0.0506
  580MOL0     C79923   5.707  10.572   4.995 -0.6873  0.5481 -0.2260
  580MOL0     C79924   5.711  10.538   5.148 -0.2929  0.1017  0.9519
  580MOL0     C79925   5.824  10.446   5.184  0.0386 -0.4516  0.3256
  580MOL0     O79926   5.836  10.432   5.324  0.3003 -0.1732 -0.2409
  580MOL0     C79927   5.925  10.336   5.362 -0.7372 -0.5100  0.5902
  580MOL0     C79928   6.056  10.374   5.366 -0.0719  0.2058  0.0565
  580MOL0     C79929   6.159  10.280   5.399 -0.9052  0.4822  0.5394
  580MOL0     C79930   6.305  10.330   5.388  0.6287 -0.9022 -0.6711
  580MOL0     C79931   6.125  10.141   5.416 -0.9179  0.2073 -1.3873
  580MOL0     C79932   6.225  10.034   5.454 -0.0527  0.0508 -0.4058
  580MOL0     O79933   6.162   9.921   5.504 -0.2136  0.1302 -0.5022
  580MOL0     C79934   6.224   9.805   5.539 -0.1453 -0.6493  0.2901
  580MOL0     C79935   6.330   9.750   5.458  0.8035  0.1095 -0.3227
  580MOL0     C79936   6.387   9.624   5.483  0.0221 -1.0712 -0.5313
  580MOL0     C79937   6.314   9.537   5.569 -0.2592 -0.0515 -0.3851
  580MOL0     O79938   6.326   9.406   5.586  0.5605  0.0601  0.0354
  580MOL0     C79939   6.319   9.321   5.463 -0.6509  0.4827 -0.6186
  580MOL0     C79940   6.334   9.174   5.503 -0.4779  0.1489  1.2543
  580MOL0     C79941   6.475   9.135   5.565  0.2284  0.2233  0.3446
  580MOL0     C79942   6.479   8.990   5.630  0.2059  0.3225  0.3318
  580MOL0     C79943   6.493   8.876   5.532  0.4533 -1.0848 -0.2190
  580MOL0     C79944   6.517   8.740   5.605 -0.5617 -0.6234  0.2460
  580MOL0     C79945   6.532   8.630   5.503 -0.1231 -0.0368 -0.1209
  580MOL0     C79946   6.680   8.589   5.475  0.8537  0.9632  0.2223
  580MOL0    Cl79947   6.677   8.427   5.400 -0.5132 -0.3518  0.0355
  580MOL0     C79948   6.207   9.591   5.638 -0.2028 -0.1265  0.5002
  580MOL0     C79949   6.161   9.719   5.628 -0.4104 -1.1025 -0.1720
  580MOL0     O79950   6.345  10.054   5.461 -0.3548 -0.3816  0.1934
  580MOL0     C79951   5.990  10.110   5.422  0.3674  0.5185 -0.1943
  580MOL0     C79952   5.887  10.210   5.398  0.6692  0.1315  0.0385
  580MOL0     N79953   5.689  10.901   5.001  0.0146  0.5638 -0.5300
  580MOL0     N79954   5.674  11.003   5.073 -0.1897 -0.4239 -0.4790
  580MOL0     C79955   4.382  11.129   4.837  0.9561  0.2981  0.4675
  580MOL0     C79956   4.241  11.132   4.851 -0.1520  0.1975  0.5626
  580MOL0     C79957   3.857  11.113   5.148  0.0633  0.6209  0.3193
  580MOL0     C79958   3.780  11.212   5.079  0.4748  0.4209  1.0692
  580MOL0     C79959   3.658  11.252   5.124  0.0312 -0.0506 -0.0453
  580MOL0     C79960   3.611  11.229   5.254  0.4443 -0.1642 -0.0378
  580MOL0     O79961   3.494  11.279   5.292  0.0598 -0.8634 -0.3780
  580MOL0     C79962   3.472  11.276   5.442  0.2453  1.1628  0.9654
  580MOL0     C79963   3.323  11.294   5.492 -0.1730  0.6447  0.2257
  580MOL0     C79964   3.295  11.273   5.643  0.3192 -0.8351 -1.3434
  580MOL0     C79965   3.223  11.140   5.671 -0.4569 -0.1119  0.5666
  580MOL0     C79966   3.313  11.023   5.667  0.6798  0.2980 -0.2882
  580MOL0     C79967   3.385  10.924   5.661  0.1939  0.3332 -0.0988
  580MOL0     C79968   3.683  11.131   5.323 -0.3768 -0.4546  0.4985
  580MOL0     C79969   3.802  11.074   5.273  0.2302 -0.2566  0.7219
  580MOL0     C79970   3.864  10.968   5.367  0.2756  0.2733 -0.0324
  580MOL0     H79971   4.211  11.202   5.182 -0.5316  0.6207 -0.6906
  580MOL0     H79972   4.442  11.196   5.171 -0.1302  1.6650 -0.6526
  580MOL0     H79973   4.658  10.991   5.073  2.5312  0.0289 -0.0525
  580MOL0     H79974   4.650  11.153   5.144  0.1370  0.7579 -0.0798
  580MOL0     H79975   4.828  11.036   4.936 -3.5136 -1.9622  0.0823
  580MOL0     H79976   4.825  11.215   4.975 -0.1302 -0.4261  1.2456
  580MOL0     H79977   4.858  11.169   5.212  0.1188  1.3066 -1.0019
  580MOL0     H79978   4.874  11.000   5.174 -2.5074 -0.7385 -3.7149
  580MOL0     H79979   5.074  11.083   5.014 -2.7282  0.4275 -0.9073
  580MOL0     H79980   5.079  11.237   5.090 -0.4066  0.6379 -0.0191
  580MOL0     H79981   5.146  10.983   5.269  3.7972  0.1863  2.0242
  580MOL0     H79982   5.143  11.150   5.321  3.0775 -0.6508  0.1832
  580MOL0     H79983   5.317  11.033   5.104 -0.3006 -0.2429 -0.4690
  580MOL0     H79984   5.317  11.210   5.141  1.5877 -0.8663 -0.4551
  580MOL0     H79985   5.369  10.999   5.356  0.8643  0.5386 -0.4764
  580MOL0     H79986   5.390  11.175   5.373  2.8222 -0.9044  1.7723
  580MOL0     H79987   5.561  11.184   5.225 -0.0926 -1.1502 -1.1089
  580MOL0     H79988   5.584  11.083   5.355 -2.3084 -0.0439  0.8463
  580MOL0     H79989   5.453  10.790   5.192 -0.2589 -0.2346 -2.4864
  580MOL0     H79990   5.573  10.711   4.878 -3.3618  2.5969  1.4016
  580MOL0     H79991   5.502  10.626   5.023 -0.0627  0.5553  0.6075
  580MOL0     H79992   5.677  10.478   4.948 -0.1784  1.2484 -2.0044
  580MOL0     H79993   5.803  10.602   4.953  0.0413 -1.9163 -0.4713
  580MOL0     H79994   5.726  10.635   5.198 -0.7063  1.4987 -1.4851
  580MOL0     H79995   5.623  10.486   5.187  0.0109  0.0609  1.5928
  580MOL0     H79996   5.804  10.349   5.138 -0.9691  0.2511 -0.7773
  580MOL0     H79997   5.915  10.491   5.143 -0.7965 -0.5910 -1.7870
  580MOL0     H79998   6.076  10.478   5.345  1.6315 -0.1567 -0.1929
  580MOL0     H79999   6.362  10.297   5.476 -1.1615 -2.2477  0.0429
  580MOL0     H80000   6.296  10.439   5.397  1.8567 -0.5233 -3.1842
  580MOL0     H80001   6.340  10.307   5.287 -2.1588  1.1651 -2.2600
  580MOL0     H80002   6.386   9.794   5.376  1.8436 -0.4268  0.0742
  580MOL0     H80003   6.473   9.589   5.425  0.9515  1.1997 -0.6212
  580MOL0     H80004   6.225   9.341   5.412 -0.7136  1.6552 -0.0839
  580MOL0     H80005   6.404   9.348   5.399 -0.2466  4.1138  1.1586
  580MOL0     H80006   6.258   9.136   5.572  0.2445 -2.6469  0.6449
  580MOL0     H80007   6.325   9.118   5.410 -0.5104 -1.1267  2.0071
  580MOL0     H80008   6.505   9.205   5.644  0.7711  0.1808  0.1808
  580MOL0     H80009   6.558   9.143   5.494  3.0130 -4.0999  2.6524
  580MOL0     H80010   6.388   8.972   5.688 -0.9734 -1.4598 -1.8755
  580MOL0     H80011   6.571   8.993   5.690 -0.8750 -0.8528  2.1477
  580MOL0     H80012   6.405   8.871   5.467  1.0135 -2.7343 -0.8990
  580MOL0     H80013   6.577   8.893   5.465  0.7871  3.3318  1.0528
  580MOL0     H80014   6.436   8.721   5.677  0.5524  0.8412  1.9694
  580MOL0     H80015   6.605   8.754   5.668 -0.3999  3.2154 -0.5600
  580MOL0     H80016   6.467   8.658   5.419 -1.1774  1.8690  1.2468
  580MOL0     H80017   6.483   8.539   5.537 -0.1075  0.5423  1.5150
  580MOL0     H80018   6.734   8.607   5.569 -1.9266  4.5810  1.3464
  580MOL0     H80019   6.738   8.651   5.406 -0.1458  0.2798 -1.2936
  580MOL0     H80020   6.163   9.533   5.718  3.2990 -2.8434  0.7069
  580MOL0     H80021   6.078   9.752   5.691 -1.4945 -1.4755 -1.3672
  580MOL0     H80022   5.960  10.011   5.454 -2.9915  1.7501  0.9376
  580MOL0     H80023   5.784  10.178   5.390  1.0564 -0.7401 -2.4017
  580MOL0     H80024   4.416  11.113   4.735  2.5820  2.0093  0.7040
  580MOL0     H80025   4.178  11.125   4.763 -0.0262 -1.6500  0.5840
  580MOL0     H80026   3.817  11.243   4.982 -0.2525 -2.1270 -0.1059
  580MOL0     H80027   3.610  11.306   5.044  1.3391 -0.2651 -0.9997
  580MOL0     H80028   3.507  11.185   5.490  0.9915  1.3455  0.7863
  580MOL0     H80029   3.532  11.356   5.487 -1.9182  2.2237  2.0993
  580MOL0     H80030   3.250  11.226   5.448 -0.0033  0.9605 -0.5607
  580MOL0     H80031   3.296  11.394   5.458  1.3923  1.2900  0.7911
  580MOL0     H80032   3.390  11.260   5.697  1.1437  2.1506 -1.9018
  580MOL0     H80033   3.246  11.359   5.689 -3.8691 -3.2102 -0.8535
  580MOL0     H80034   3.131  11.142   5.612 -0.2334  2.4902  0.1702
  580MOL0     H80035   3.187  11.157   5.773 -1.9311  2.5131 -0.2908
  580MOL0     H80036   3.450  10.839   5.654 -0.8981 -0.7882  2.3401
  580MOL0     H80037   3.648  11.084   5.415  1.5336  1.4714  2.3356
  580MOL0     H80038   3.816  10.960   5.465 -0.3796  3.2994 -0.0106
  580MOL0     H80039   3.859  10.875   5.311 -1.8462 -0.9217  1.9695
  580MOL0     H80040   3.968  10.994   5.387  0.3231 -0.5449  0.8585
  581MOL0     O80041   1.431  11.247   5.765  0.0832 -0.5823  0.7634
  581MOL0     C80042   1.489  11.305   5.857  0.2204 -0.3810 -0.0155
  581MOL0     O80043   1.596  11.259   5.912 -0.8464  0.6933  0.6354
  581MOL0     C80044   1.663  11.146   5.870 -0.2099  0.4763  0.8051
  581MOL0     C80045   1.682  11.048   5.973 -0.2614  0.9347  0.4254
  581MOL0     C80046   1.724  10.916   5.939 -1.1043 -0.8505  0.8164
  581MOL0     C80047   1.783  10.892   5.816 -1.0437 -0.0035  0.2433
  581MOL0     O80048   1.842  10.774   5.805 -0.3159 -0.0595 -0.3429
  581MOL0     C80049   1.916  10.763   5.680 -0.2095  1.3144 -0.9211
  581MOL0     C80050   1.983  10.623   5.677  0.1991  0.1673 -0.2066
  581MOL0     C80051   2.086  10.602   5.794  0.7074 -0.1142  0.1866
  581MOL0     C80052   2.183  10.481   5.794  0.3415  0.3805  0.5835
  581MOL0     C80053   2.279  10.488   5.910  0.0668 -0.4158 -0.1020
  581MOL0     C80054   2.213  10.445   6.042  0.8878  0.0808  0.1293
  581MOL0     C80055   2.320  10.437   6.155 -0.4269  0.4214  0.3453
  581MOL0     C80056   2.250  10.446   6.291 -0.5798  0.2567 -0.0329
  581MOL0     N80057   2.265  10.319   6.369  0.2830 -0.1354  0.4073
  581MOL0     C80058   2.377  10.277   6.439  0.0871 -0.7184  0.5460
  581MOL0     C80059   2.347  10.154   6.485  0.1882 -0.7495  0.7826
  581MOL0     C80060   2.424  10.065   6.581  0.2720  0.3719  1.4394
  581MOL0     C80061   2.424  10.136   6.718  0.5874 -0.2160 -0.5476
  581MOL0     C80062   2.541  10.099   6.803  0.2988  0.5861 -0.0483
  581MOL0     C80063   2.557  10.168   6.936 -0.3808  0.0979  0.2644
  581MOL0     O80064   2.439  10.130   7.016  0.3699 -0.7832 -0.0985
  581MOL0     C80065   2.461  10.029   7.109 -0.4007  0.3338  0.8523
  581MOL0     C80066   2.577  10.030   7.192 -0.5214 -1.3042 -0.0023
  581MOL0     C80067   2.600   9.934   7.284  1.1430 -0.1236 -1.0048
  581MOL0     C80068   2.729   9.938   7.359 -0.0894 -0.4083 -0.4283
  581MOL0     C80069   2.500   9.837   7.300  0.2179 -0.8587  0.0402
  581MOL0     C80070   2.498   9.713   7.381 -0.0327  0.3903 -0.0416
  581MOL0     O80071   2.383   9.656   7.440 -0.2881 -0.7503  0.2936
  581MOL0     C80072   2.398   9.544   7.514 -0.5136 -0.2488 -0.5022
  581MOL0     C80073   2.402   9.417   7.456 -0.9448  1.1693  0.7211
  581MOL0     C80074   2.417   9.310   7.553  0.9147  0.1195  0.0675
  581MOL0     C80075   2.430   9.328   7.692  1.0052 -0.4808  0.5337
  581MOL0     O80076   2.462   9.210   7.758 -0.1560  0.1270 -1.4808
  581MOL0     C80077   2.479   9.203   7.895  0.0353 -0.0722 -0.2941
  581MOL0     C80078   2.622   9.205   7.948 -0.0385  0.5136 -0.5676
  581MOL0     C80079   2.685   9.065   7.973  0.3801 -0.8918  0.2499
  581MOL0     C80080   2.824   9.070   8.020  0.7937 -0.5491 -1.2073
  581MOL0     C80081   2.845   9.087   8.177  0.5328 -0.1810 -0.0495
  581MOL0     C80082   2.769   8.979   8.265 -0.8789  0.2812 -0.6953
  581MOL0     C80083   2.825   8.978   8.405  0.4548  0.5586 -0.1945
  581MOL0     C80084   2.784   9.094   8.497  0.3229  0.0867  0.7244
  581MOL0    Cl80085   2.606   9.064   8.527  0.1016 -0.1858  0.1840
  581MOL0     C80086   2.411   9.457   7.748 -0.7123  0.1402  0.9177
  581MOL0     C80087   2.393   9.559   7.656 -0.0002 -0.0128  0.3478
  581MOL0     O80088   2.607   9.665   7.385  0.0872  0.2050  0.5927
  581MOL0     C80089   2.385   9.837   7.216 -0.0323  0.1245  0.3347
  581MOL0     C80090   2.356   9.939   7.132 -0.7630  0.2397 -0.7253
  581MOL0     N80091   2.218  10.129   6.440 -0.0738 -0.1837 -0.2277
  581MOL0     N80092   2.165  10.234   6.386  0.2501  0.5608  0.1591
  581MOL0     C80093   1.766  10.990   5.711  0.5305  0.2663 -0.6372
  581MOL0     C80094   1.709  11.112   5.739 -0.3526 -1.1466  0.2592
  581MOL0     C80095   1.424  11.417   5.928  0.0028 -1.1816 -0.3711
  581MOL0     C80096   1.424  11.416   6.067  0.0422 -1.2417  0.5480
  581MOL0     C80097   1.364  11.521   6.138  0.6344  0.1501  0.6070
  581MOL0     C80098   1.316  11.627   6.067  1.1027  0.2950 -0.1895
  581MOL0     O80099   1.263  11.727   6.132  1.2665  0.2255 -0.6496
  581MOL0     C80100   1.124  11.717   6.183  0.1668 -0.5401  0.2545
  581MOL0     C80101   1.026  11.787   6.086 -0.9698 -0.5351 -0.5850
  581MOL0     C80102   0.894  11.836   6.145  0.2556 -0.1752 -0.6058
  581MOL0     C80103   0.820  11.897   6.029  0.0056 -0.4955  0.5206
  581MOL0     C80104   0.691  11.953   6.081 -0.2342 -0.2988 -1.1568
  581MOL0     C80105   0.590  12.000   6.145 -0.2516 -0.0716  0.2050
  581MOL0     C80106   1.312  11.637   5.932 -0.6388 -0.0363  0.0672
  581MOL0     C80107   1.360  11.523   5.863  0.5893  0.0877 -0.0033
  581MOL0     C80108   1.360  11.520   5.715 -0.2925 -0.1337  0.3553
  581MOL0     H80109   1.641  11.086   6.066  0.6312  2.7432  0.1168
  581MOL0     H80110   1.726  10.840   6.017 -0.3152 -1.1165  0.5485
  581MOL0     H80111   1.997  10.836   5.683  2.4663 -1.4551  0.6434
  581MOL0     H80112   1.851  10.773   5.593  1.9397  2.6980 -2.4710
  581MOL0     H80113   1.906  10.547   5.669  0.5355 -0.2187  0.1972
  581MOL0     H80114   2.031  10.606   5.580  0.1877 -1.2145  0.0204
  581MOL0     H80115   2.130  10.701   5.804 -1.5626  1.3338 -2.5849
  581MOL0     H80116   2.019  10.581   5.879 -0.6545  1.9485 -0.3099
  581MOL0     H80117   2.119  10.392   5.794 -2.0792  2.0298  0.6802
  581MOL0     H80118   2.247  10.491   5.706  0.8938  0.2321  0.9556
  581MOL0     H80119   2.309  10.593   5.919 -0.0747 -0.4891  1.5302
  581MOL0     H80120   2.362  10.419   5.891 -3.3518 -5.1714  0.5309
  581MOL0     H80121   2.132  10.516   6.061 -0.5618 -2.1435  2.8249
  581MOL0     H80122   2.159  10.351   6.027  1.0118 -0.2707  1.7684
  581MOL0     H80123   2.372  10.532   6.140 -1.8724  1.0920 -0.7270
  581MOL0     H80124   2.396  10.358   6.147 -0.7527 -0.1474  2.3704
  581MOL0     H80125   2.301  10.519   6.355 -1.3798 -0.0966  1.0382
  581MOL0     H80126   2.150  10.488   6.279 -1.5634 -1.9905 -0.3409
  581MOL0     H80127   2.473  10.328   6.440  0.8852 -1.5510 -4.7130
  581MOL0     H80128   2.524  10.046   6.540 -0.3592  0.4475 -0.1881
  581MOL0     H80129   2.366   9.972   6.580  1.4990 -0.5293 -2.0160
  581MOL0     H80130   2.426  10.244   6.702 -6.5384  0.4654 -0.2349
  581MOL0     H80131   2.330  10.128   6.775 -0.4774 -0.2777 -2.2418
  581MOL0     H80132   2.545   9.990   6.805  2.3934  0.6338  0.7751
  581MOL0     H80133   2.630  10.120   6.742 -0.2666 -1.6053 -1.7687
  581MOL0     H80134   2.654  10.133   6.971  2.3329  1.1741 -5.0634
  581MOL0     H80135   2.564  10.277   6.936 -0.2858  0.0990  1.6517
  581MOL0     H80136   2.656  10.101   7.170 -0.3503 -1.8708 -1.3021
  581MOL0     H80137   2.791   9.851   7.335 -0.1096 -0.3859 -0.5670
  581MOL0     H80138   2.714   9.943   7.467 -2.3360 -5.5449 -0.2415
  581MOL0     H80139   2.781  10.033   7.342 -2.0167  0.5368 -1.3411
  581MOL0     H80140   2.393   9.396   7.350 -0.0590  2.7999  0.2808
  581MOL0     H80141   2.409   9.210   7.513 -4.4747  1.1461 -2.3846
  581MOL0     H80142   2.418   9.283   7.938 -1.1352 -2.7512  3.5958
  581MOL0     H80143   2.435   9.108   7.927  2.4079 -1.3611 -0.6277
  581MOL0     H80144   2.679   9.260   7.873 -0.2058 -1.2872 -2.0916
  581MOL0     H80145   2.616   9.245   8.049 -1.7246  0.1431 -0.4844
  581MOL0     H80146   2.688   9.015   7.876 -2.2452  1.4165 -1.1713
  581MOL0     H80147   2.616   9.009   8.038 -0.2628 -0.3048  0.0845
  581MOL0     H80148   2.880   9.148   7.968 -2.6710  2.8353 -0.3194
  581MOL0     H80149   2.867   8.972   7.999  0.1958 -0.8915 -0.8502
  581MOL0     H80150   2.953   9.077   8.178  0.5593 -0.0350 -0.7013
  581MOL0     H80151   2.818   9.185   8.218 -0.5792 -0.3449 -0.3571
  581MOL0     H80152   2.782   8.882   8.216 -0.0789 -1.3385  2.3990
  581MOL0     H80153   2.660   8.979   8.263 -0.9177 -1.1742 -0.3023
  581MOL0     H80154   2.935   8.974   8.410  0.3936 -2.8563  0.3338
  581MOL0     H80155   2.779   8.888   8.447 -2.0510  0.6502 -2.4639
  581MOL0     H80156   2.807   9.197   8.466 -0.3918  0.3957  1.1937
  581MOL0     H80157   2.849   9.097   8.586 -0.2780  2.1143  1.1521
  581MOL0     H80158   2.436   9.476   7.852 -2.4565  1.2784  1.1695
  581MOL0     H80159   2.392   9.660   7.696  3.2052 -0.4265  1.7589
  581MOL0     H80160   2.311   9.758   7.208  2.2955 -2.1308 -0.3332
  581MOL0     H80161   2.259   9.941   7.085 -1.8958  0.7855  1.5061
  581MOL0     H80162   1.798  10.971   5.609  0.6727 -2.2895 -0.1898
  581MOL0     H80163   1.694  11.188   5.663  0.1032  0.3303  1.5822
  581MOL0     H80164   1.478  11.340   6.123  2.2413 -0.0331  0.1830
  581MOL0     H80165   1.352  11.526   6.246  0.3278 -0.8490  0.6293
  581MOL0     H80166   1.099  11.610   6.184 -0.3013 -0.4372  1.4438
  581MOL0     H80167   1.109  11.758   6.283 -1.4712  0.8244 -0.5124
  581MOL0     H80168   1.004  11.722   6.001 -1.8420 -0.2011 -0.6253
  581MOL0     H80169   1.079  11.876   6.052 -1.1299 -0.2574 -0.1180
  581MOL0     H80170   0.840  11.753   6.192  0.6757  0.2569  0.6756
  581MOL0     H80171   0.915  11.911   6.221  0.6141 -0.2222 -0.6580
  581MOL0     H80172   0.798  11.827   5.948 -1.3626 -0.7569  1.0953
  581MOL0     H80173   0.863  11.989   5.989  1.5033 -0.7169  1.5547
  581MOL0     H80174   0.508  12.056   6.184  1.9550  3.5216  0.2037
  581MOL0     H80175   1.275  11.732   5.894  0.5815  0.9758  1.2769
  581MOL0     H80176   1.459  11.497   5.676 -0.8507 -1.1245 -0.5222
  581MOL0     H80177   1.290  11.452   5.667  1.1924  0.7831 -3.4817
  581MOL0     H80178   1.324  11.619   5.683  3.1424  0.7013 -1.4930
  582MOL0     O80179   7.502   6.600   8.915  0.8877  0.5941  0.2646
  582MOL0     C80180   7.511   6.578   9.034 -0.2484 -1.3490  0.3353
  582MOL0     O80181   7.424   6.510   9.115  0.2870 -0.2392 -0.3109
  582MOL0     C80182   7.308   6.470   9.058  0.8005 -0.7975  0.7253
  582MOL0     C80183   7.294   6.341   9.004  0.1192 -0.7536  0.8298
  582MOL0     C80184   7.170   6.299   8.956  0.0539  0.5291  0.3332
  582MOL0     C80185   7.051   6.371   8.988  0.0349  0.5706  0.0656
  582MOL0     O80186   6.932   6.327   8.952  0.3504  0.5572 -0.1041
  582MOL0     C80187   6.921   6.239   8.844  0.0349 -0.1242 -0.2058
  582MOL0     C80188   6.794   6.246   8.780  0.0971  0.1300 -0.1539
  582MOL0     C80189   6.720   6.377   8.743  0.0291  0.1288  0.0174
  582MOL0     C80190   6.778   6.471   8.633  0.6679  0.3602 -0.4430
  582MOL0     C80191   6.904   6.548   8.692  0.3631  0.4005 -0.3909
  582MOL0     C80192   6.883   6.687   8.737  0.8217 -1.6144  1.0052
  582MOL0     C80193   6.782   6.688   8.855 -0.5224  0.3274  0.1721
  582MOL0     C80194   6.785   6.832   8.913  0.0817  0.3639  0.1036
  582MOL0     N80195   6.700   6.852   9.029 -0.0089 -0.7788 -0.5278
  582MOL0     C80196   6.730   6.931   9.138  0.2190 -0.5457 -0.6736
  582MOL0     C80197   6.623   6.935   9.218  0.0272 -0.3683 -0.2224
  582MOL0     C80198   6.616   7.031   9.334 -0.3724 -0.5703  0.4459
  582MOL0     C80199   6.489   7.038   9.416  0.6887 -0.2028 -0.0029
  582MOL0     C80200   6.478   7.161   9.504  0.2188 -0.3241 -0.5766
  582MOL0     C80201   6.520   7.132   9.654  0.7973 -0.7587  0.5108
  582MOL0     O80202   6.662   7.111   9.645  0.5675 -1.1437 -0.1437
  582MOL0     C80203   6.729   7.006   9.707  0.7105  0.3942  0.3485
  582MOL0     C80204   6.693   6.870   9.748 -0.1802 -0.1568 -0.3148
  582MOL0     C80205   6.789   6.782   9.815  0.4533 -1.0657  0.4074
  582MOL0     C80206   6.729   6.657   9.854  0.2412 -0.8085 -0.0179
  582MOL0     C80207   6.919   6.828   9.847  0.7465 -0.4414 -0.5163
  582MOL0     C80208   7.021   6.754   9.919  0.3737  0.4910  0.2110
  582MOL0     O80209   7.123   6.816   9.979  0.1839 -0.0160 -0.4103
  582MOL0     C80210   7.228   6.767  10.054 -0.5570  0.4715  0.7039
  582MOL0     C80211   7.285   6.852  10.153  0.9675  0.1994  0.0607
  582MOL0     C80212   7.384   6.806  10.231 -0.6907 -0.2050 -0.1257
  582MOL0     C80213   7.443   6.682  10.210  0.6894  0.0577 -1.1794
  582MOL0     O80214   7.544   6.647  10.290 -0.4028 -0.0595 -0.4377
  582MOL0     C80215   7.621   6.742  10.353 -0.5982  0.3428  1.1896
  582MOL0     C80216   7.748   6.679  10.407  0.0282  0.3827 -0.0884
  582MOL0     C80217   7.840   6.640  10.288  0.1316  0.9295 -0.0311
  582MOL0     C80218   7.936   6.526  10.323 -0.4253 -0.1108 -0.4179
  582MOL0     C80219   8.032   6.501  10.210  0.9024  0.1800  0.1817
  582MOL0     C80220   8.131   6.617  10.177  0.7447  1.1157 -1.3540
  582MOL0     C80221   8.261   6.616  10.253  0.7215 -1.4803 -0.9792
  582MOL0     C80222   8.361   6.509  10.210 -0.0043 -0.3408 -0.2345
  582MOL0    Cl80223   8.439   6.551  10.060  0.3559  0.0782 -0.0099
  582MOL0     C80224   7.390   6.596  10.114  0.7462  0.1943  0.5106
  582MOL0     C80225   7.280   6.631  10.033  0.0096  0.7898  0.0985
  582MOL0     O80226   7.003   6.636   9.915  0.1249  0.0794 -0.4844
  582MOL0     C80227   6.951   6.962   9.815  0.5782 -0.0402  0.7738
  582MOL0     C80228   6.860   7.042   9.749  0.4874 -2.1767  0.0383
  582MOL0     N80229   6.530   6.848   9.163 -1.1215  0.2509 -0.4218
  582MOL0     N80230   6.573   6.795   9.046 -0.3321 -0.3518 -0.2543
  582MOL0     C80231   7.062   6.492   9.059  0.3924  0.4826  0.2409
  582MOL0     C80232   7.193   6.546   9.086 -0.5722 -0.5275 -0.6048
  582MOL0     C80233   7.637   6.633   9.090  0.7347  0.3166 -0.9582
  582MOL0     C80234   7.731   6.697   9.008  0.7341 -0.1170  0.7855
  582MOL0     C80235   7.842   6.764   9.058 -0.0307 -0.3712 -0.8135
  582MOL0     C80236   7.866   6.769   9.196  0.1051  0.2549  0.4764
  582MOL0     O80237   7.975   6.835   9.243 -0.7416 -0.5320 -0.2046
  582MOL0     C80238   8.061   6.741   9.312 -0.0906  0.2483 -0.4798
  582MOL0     C80239   8.145   6.824   9.413  0.3620 -1.0410 -0.3736
  582MOL0     C80240   8.240   6.734   9.495 -0.1084 -0.4572 -0.2671
  582MOL0     C80241   8.325   6.800   9.608  0.4954 -1.0456  0.0632
  582MOL0     C80242   8.441   6.724   9.646 -0.0516  0.1476 -0.7578
  582MOL0     C80243   8.546   6.660   9.671  0.9769 -0.7161  0.2481
  582MOL0     C80244   7.771   6.708   9.282 -0.6763 -0.0694  0.5856
  582MOL0     C80245   7.658   6.644   9.232  0.4903  0.3921 -0.0788
  582MOL0     C80246   7.568   6.599   9.344 -0.2863  0.1907 -0.1893
  582MOL0     H80247   7.379   6.285   8.967 -1.1632 -0.2792 -3.3490
  582MOL0     H80248   7.153   6.199   8.917 -2.7708  1.3761 -0.8916
  582MOL0     H80249   6.935   6.137   8.881  0.0237 -0.9962 -2.4650
  582MOL0     H80250   7.002   6.259   8.773 -1.4088 -0.7331 -2.1098
  582MOL0     H80251   6.814   6.190   8.687  4.7138 -0.1722  0.7775
  582MOL0     H80252   6.727   6.200   8.853  0.5270  1.8653  1.4153
  582MOL0     H80253   6.621   6.344   8.710 -0.0378  1.8494 -1.6978
  582MOL0     H80254   6.704   6.434   8.835 -2.0884  0.5809 -0.5831
  582MOL0     H80255   6.809   6.417   8.543  2.7247  2.8983 -1.4094
  582MOL0     H80256   6.705   6.549   8.613 -0.1523 -0.9009 -2.7150
  582MOL0     H80257   6.986   6.561   8.620  0.6624 -1.1244 -0.3632
  582MOL0     H80258   6.949   6.484   8.769  1.1238  0.4759 -0.7561
  582MOL0     H80259   6.979   6.731   8.765  0.0960 -0.1471  1.2944
  582MOL0     H80260   6.854   6.744   8.649 -0.0021 -2.0985  0.9573
  582MOL0     H80261   6.823   6.615   8.925 -3.9132 -1.2032  0.7955
  582MOL0     H80262   6.683   6.655   8.821 -0.3544  1.2125 -1.3163
  582MOL0     H80263   6.889   6.858   8.933 -0.3940  2.3058  0.2393
  582MOL0     H80264   6.750   6.894   8.829  0.3482  0.3150 -0.0450
  582MOL0     H80265   6.825   6.982   9.150 -0.2719  1.4503 -3.9841
  582MOL0     H80266   6.639   7.131   9.297  0.0088 -1.1961 -1.0808
  582MOL0     H80267   6.702   7.011   9.399  1.4806 -0.7289 -1.8770
  582MOL0     H80268   6.402   7.044   9.350  2.8734 -1.2363 -3.2739
  582MOL0     H80269   6.473   6.951   9.481 -1.0061  0.7821  0.9548
  582MOL0     H80270   6.533   7.244   9.460  2.0792 -0.9168  0.5363
  582MOL0     H80271   6.374   7.197   9.500  0.2428 -0.3477 -2.0960
  582MOL0     H80272   6.478   7.211   9.717  0.4288  0.7374 -1.5082
  582MOL0     H80273   6.464   7.046   9.692  0.2003 -0.5212  0.1835
  582MOL0     H80274   6.595   6.830   9.722  0.2804 -2.0083  0.6572
  582MOL0     H80275   6.749   6.640   9.960 -0.7699 -0.2217  0.2706
  582MOL0     H80276   6.781   6.581   9.795 -0.2788 -1.4721  0.3795
  582MOL0     H80277   6.623   6.647   9.831 -0.7248  5.4064 -0.1309
  582MOL0     H80278   7.250   6.954  10.160  2.8897  0.9789 -1.0909
  582MOL0     H80279   7.416   6.877  10.307 -1.7920  1.0347 -0.7791
  582MOL0     H80280   7.653   6.827  10.293  1.0756 -0.3432  1.0655
  582MOL0     H80281   7.570   6.787  10.439  1.7211  1.0933  2.2613
  582MOL0     H80282   7.807   6.747  10.469 -0.1658 -0.4670  1.0694
  582MOL0     H80283   7.717   6.588  10.459 -3.0608  2.9442  3.0022
  582MOL0     H80284   7.886   6.732  10.251 -1.1141  3.5698  4.3094
  582MOL0     H80285   7.777   6.600  10.207  1.9925  0.4385 -1.3027
  582MOL0     H80286   7.878   6.435  10.336  0.2011 -0.3037  1.1851
  582MOL0     H80287   8.003   6.547  10.407  0.2941 -1.1551 -0.7128
  582MOL0     H80288   8.089   6.412  10.237  1.5580  0.5226 -0.0536
  582MOL0     H80289   7.965   6.484  10.126 -1.0503  0.2224  1.6601
  582MOL0     H80290   8.070   6.706  10.196 -3.1435 -1.3125 -1.1141
  582MOL0     H80291   8.147   6.614  10.069 -1.6166 -0.8546 -1.7723
  582MOL0     H80292   8.255   6.603  10.362 -0.6359 -2.9522 -1.1933
  582MOL0     H80293   8.307   6.715  10.248  1.3445 -1.5675  1.6658
  582MOL0     H80294   8.304   6.418  10.187  1.1934 -0.9379 -0.9477
  582MOL0     H80295   8.429   6.486  10.292  0.4516  0.3577 -0.4056
  582MOL0     H80296   7.442   6.501  10.099  1.4703  0.7350 -0.5746
  582MOL0     H80297   7.231   6.559   9.968 -1.3879  2.3549 -0.6379
  582MOL0     H80298   7.049   7.006   9.833  0.5732  1.1523 -1.6257
  582MOL0     H80299   6.892   7.142   9.725  1.3947 -2.8773 -1.8829
  582MOL0     H80300   6.976   6.549   9.094 -1.0288 -1.0838 -0.5870
  582MOL0     H80301   7.194   6.638   9.144 -2.3060 -0.8586 -0.0008
  582MOL0     H80302   7.718   6.687   8.900  1.6667  0.3664  0.6181
  582MOL0     H80303   7.918   6.814   8.998  0.8552  1.7874  1.9192
  582MOL0     H80304   8.004   6.668   9.370  1.3539  0.9541  1.9756
  582MOL0     H80305   8.121   6.688   9.236  0.1970  0.0636 -0.1282
  582MOL0     H80306   8.068   6.877   9.469 -0.9053 -3.2160  0.0733
  582MOL0     H80307   8.205   6.898   9.360 -0.9221 -1.0117 -1.8723
  582MOL0     H80308   8.182   6.658   9.547  1.3955  0.5515  3.1521
  582MOL0     H80309   8.310   6.684   9.427 -0.5973 -3.4949  1.3088
  582MOL0     H80310   8.256   6.821   9.691  0.4621 -1.0390  0.0335
  582MOL0     H80311   8.358   6.894   9.563 -0.5492 -1.0188 -0.6844
  582MOL0     H80312   8.629   6.594   9.687  2.3047  0.9310  0.4100
  582MOL0     H80313   7.785   6.707   9.390 -0.1324 -2.7589  0.5638
  582MOL0     H80314   7.481   6.664   9.353 -1.1036 -0.7003 -1.3224
  582MOL0     H80315   7.544   6.493   9.331  0.7711 -0.2719  1.2663
  582MOL0     H80316   7.624   6.593   9.438  0.9079  1.9877 -0.7202
  583MOL0     O80317   5.971   0.576   5.775 -0.0894 -0.1572 -0.2312
  583MOL0     C80318   5.850   0.588   5.754 -0.7042  1.6618  0.5495
  583MOL0     O80319   5.765   0.481   5.741 -0.9994  0.1562  0.2293
  583MOL0     C80320   5.779   0.379   5.642 -0.8204  0.1804 -0.5460
  583MOL0     C80321   5.892   0.353   5.548 -0.7389  0.0721  0.5311
  583MOL0     C80322   5.888   0.235   5.475  0.7075  0.2393  0.2578
  583MOL0     C80323   5.779   0.146   5.465 -0.9845 -0.6667 -0.7357
  583MOL0     O80324   5.766   0.038   5.389 -0.2335  0.0366 -0.7686
  583MOL0     C80325   5.887  -0.035   5.338  0.2635  0.0406 -0.5842
  583MOL0     C80326   5.950  -0.124   5.445 -0.1375  0.2607 -1.4095
  583MOL0     C80327   6.078  -0.190   5.391  0.0015  0.5761 -0.5245
  583MOL0     C80328   6.021  -0.327   5.316  0.2943  0.2743 -0.2344
  583MOL0     C80329   6.003  -0.443   5.412  0.4570 -0.0168  1.0059
  583MOL0     C80330   5.963  -0.573   5.337 -0.0730 -0.9858  0.2535
  583MOL0     C80331   5.944  -0.691   5.428  0.6738 -0.2970  0.6673
  583MOL0     C80332   5.942  -0.826   5.363 -0.1866 -0.7801 -0.2908
  583MOL0     N80333   6.046  -0.847   5.263  1.0472  0.8421  1.0435
  583MOL0     C80334   6.011  -0.883   5.126 -0.4316 -0.0036 -1.0617
  583MOL0     C80335   6.129  -0.927   5.083 -0.8357 -0.8791  0.4089
  583MOL0     C80336   6.165  -0.961   4.946 -0.3223 -0.3204 -0.5687
  583MOL0     C80337   6.205  -1.104   4.941  0.3368 -1.1268  0.1530
  583MOL0     C80338   6.228  -1.143   4.789 -0.2454 -0.5445  0.3197
  583MOL0     C80339   6.338  -1.053   4.716  0.8710 -0.2010  0.3616
  583MOL0     O80340   6.398  -1.122   4.607 -0.5175  0.0313  0.1809
  583MOL0     C80341   6.318  -1.175   4.509 -0.0040  0.4837  1.6131
  583MOL0     C80342   6.211  -1.088   4.458  0.0895  0.2818 -0.5470
  583MOL0     C80343   6.139  -1.126   4.343 -0.9475  0.5165  0.0771
  583MOL0     C80344   6.038  -1.032   4.297  0.2345 -0.2916 -0.6770
  583MOL0     C80345   6.166  -1.253   4.285 -0.6946 -1.3510  0.1869
  583MOL0     C80346   6.097  -1.298   4.166  0.4610  0.1536  0.0748
  583MOL0     O80347   5.972  -1.251   4.139 -0.4278 -0.0085  0.4355
  583MOL0     C80348   5.902  -1.316   4.040 -0.2392 -0.2373 -0.4995
  583MOL0     C80349   5.954  -1.359   3.916  0.2572 -0.3182  0.0343
  583MOL0     C80350   5.870  -1.391   3.810 -0.3076 -0.5627  1.1826
  583MOL0     C80351   5.733  -1.368   3.817 -0.4017 -0.3993 -0.4688
  583MOL0     O80352   5.660  -1.386   3.710 -0.3363 -0.4263  0.6947
  583MOL0     C80353   5.695  -1.489   3.607  0.8322 -0.2048  0.3895
  583MOL0     C80354   5.558  -1.556   3.578 -0.0970  0.2418  0.1004
  583MOL0     C80355   5.539  -1.708   3.590  0.3642 -0.0149 -0.5333
  583MOL0     C80356   5.417  -1.755   3.678  0.4648  1.4072 -0.2624
  583MOL0     C80357   5.427  -1.907   3.719 -0.8076 -0.2041  0.5957
  583MOL0     C80358   5.296  -1.959   3.762 -1.2301 -0.2314  0.4316
  583MOL0     C80359   5.311  -2.099   3.822  0.2013 -0.4129  0.6792
  583MOL0     C80360   5.177  -2.172   3.846 -0.3144 -1.2613 -0.4395
  583MOL0    Cl80361   5.119  -2.269   3.705 -0.0537  0.8118  0.5877
  583MOL0     C80362   5.682  -1.311   3.941 -0.1417  0.7929  0.5602
  583MOL0     C80363   5.767  -1.290   4.048 -0.0002  1.0765  0.0682
  583MOL0     O80364   6.154  -1.397   4.111 -0.0007 -0.6030 -0.8332
  583MOL0     C80365   6.270  -1.339   4.339 -0.0380 -0.1858 -0.6221
  583MOL0     C80366   6.342  -1.299   4.449  0.2048 -0.9075  0.3127
  583MOL0     N80367   6.227  -0.920   5.179  0.0453  0.4043  0.3683
  583MOL0     N80368   6.177  -0.876   5.292 -0.0347  0.6723  0.0201
  583MOL0     C80369   5.681   0.171   5.551 -0.7563  0.0733 -1.0053
  583MOL0     C80370   5.674   0.290   5.628 -0.8940 -0.0810 -0.4826
  583MOL0     C80371   5.799   0.723   5.762 -0.1250 -1.5532  0.7592
  583MOL0     C80372   5.673   0.747   5.815 -1.0440  0.4328  0.1512
  583MOL0     C80373   5.608   0.867   5.802  0.0539  0.1777 -0.1794
  583MOL0     C80374   5.662   0.970   5.741 -0.2662 -1.1077 -0.0775
  583MOL0     O80375   5.592   1.092   5.737 -0.2065  0.3385  0.2634
  583MOL0     C80376   5.620   1.195   5.642  0.2646 -0.4171  0.2161
  583MOL0     C80377   5.535   1.312   5.676  1.2065  0.3217  0.3895
  583MOL0     C80378   5.588   1.403   5.798  0.4909 -0.4906 -0.5723
  583MOL0     C80379   5.695   1.509   5.770 -0.0910 -0.1609  0.2031
  583MOL0     C80380   5.823   1.456   5.820  0.5650  0.1182  0.2750
  583MOL0     C80381   5.929   1.401   5.844  0.6283  0.5548 -0.6388
  583MOL0     C80382   5.798   0.965   5.695  0.0592  0.7625 -0.6942
  583MOL0     C80383   5.865   0.839   5.702 -0.2671 -0.6543 -0.2392
  583MOL0     C80384   5.999   0.842   5.640 -0.5938 -1.7291  0.6610
  583MOL0     H80385   5.976   0.422   5.539 -0.8963 -0.0245 -2.4986
  583MOL0     H80386   5.972   0.209   5.411 -0.0353  0.6497 -0.9160
  583MOL0     H80387   5.955   0.037   5.292  0.6627 -1.2290 -2.0670
  583MOL0     H80388   5.853  -0.104   5.260  4.3802 -0.3464 -2.3078
  583MOL0     H80389   5.980  -0.067   5.534 -1.1206 -3.4638  1.5917
  583MOL0     H80390   5.883  -0.206   5.471 -0.7084  0.1715 -3.0777
  583MOL0     H80391   6.120  -0.117   5.321  2.7970  0.6455  1.0697
  583MOL0     H80392   6.149  -0.213   5.472 -0.0397  2.5937  0.1344
  583MOL0     H80393   5.925  -0.303   5.270 -0.0097  0.1340  0.3129
  583MOL0     H80394   6.088  -0.366   5.239  1.0838  1.1569 -0.0120
  583MOL0     H80395   5.931  -0.420   5.491  1.6484 -0.0191  2.1335
  583MOL0     H80396   6.102  -0.465   5.453  0.6533 -0.2450  0.4111
  583MOL0     H80397   5.863  -0.554   5.295  0.6202 -1.1885 -1.5870
  583MOL0     H80398   6.041  -0.595   5.263 -1.3509 -0.9527 -1.1688
  583MOL0     H80399   5.840  -0.684   5.462  0.0024  0.2757 -1.3684
  583MOL0     H80400   6.030  -0.697   5.495  2.2358  0.1746 -1.2231
  583MOL0     H80401   5.932  -0.908   5.434 -0.2777 -1.7539 -1.4038
  583MOL0     H80402   5.846  -0.826   5.311  0.0652  1.5471 -0.8740
  583MOL0     H80403   5.916  -0.870   5.075  0.4940  1.9108 -2.4344
  583MOL0     H80404   6.250  -0.902   4.912  2.5796 -3.1967  1.1197
  583MOL0     H80405   6.074  -0.939   4.888  1.8843  4.4544 -2.8305
  583MOL0     H80406   6.297  -1.119   4.999  0.6290 -1.2572 -0.3397
  583MOL0     H80407   6.126  -1.165   4.985 -0.1516  1.3306  3.0832
  583MOL0     H80408   6.266  -1.246   4.790 -1.0254 -0.9128 -1.9953
  583MOL0     H80409   6.142  -1.137   4.721 -0.2797  1.4243  0.4799
  583MOL0     H80410   6.290  -0.958   4.688 -0.2300 -0.7855  0.2157
  583MOL0     H80411   6.428  -1.041   4.777  3.2003 -2.5849 -2.2844
  583MOL0     H80412   6.193  -0.987   4.495  0.9559  0.6740 -1.1637
  583MOL0     H80413   6.065  -1.023   4.191  3.6635 -4.4865 -0.4488
  583MOL0     H80414   6.060  -0.934   4.339  0.1850  0.5636 -2.5222
  583MOL0     H80415   5.931  -1.056   4.304 -0.0249  0.5493 -1.4417
  583MOL0     H80416   6.060  -1.374   3.897 -0.1763 -0.5947 -2.4382
  583MOL0     H80417   5.908  -1.432   3.717  1.9294  2.1119  0.8023
  583MOL0     H80418   5.722  -1.440   3.514  0.9951 -4.0693 -1.7846
  583MOL0     H80419   5.762  -1.568   3.642 -1.5033 -1.7844  1.5615
  583MOL0     H80420   5.475  -1.508   3.629 -1.2851 -0.8871 -0.7090
  583MOL0     H80421   5.536  -1.515   3.479  1.8394 -3.0606 -1.8786
  583MOL0     H80422   5.632  -1.746   3.634 -0.0482 -0.2133  0.1772
  583MOL0     H80423   5.520  -1.748   3.490  1.8573 -2.6353  0.1286
  583MOL0     H80424   5.324  -1.736   3.623 -1.2437 -1.1246  1.5518
  583MOL0     H80425   5.408  -1.702   3.773  2.2828  0.6210  0.4036
  583MOL0     H80426   5.474  -1.969   3.642  2.1031  1.0161  1.2887
  583MOL0     H80427   5.499  -1.922   3.799 -2.2241 -1.0115  1.7741
  583MOL0     H80428   5.226  -1.958   3.678 -2.6211 -0.4145  1.5485
  583MOL0     H80429   5.268  -1.884   3.836 -1.0827 -1.2557  1.5735
  583MOL0     H80430   5.365  -2.089   3.917  0.5416  3.6161  0.2594
  583MOL0     H80431   5.364  -2.155   3.744  0.6741 -4.1990  3.4407
  583MOL0     H80432   5.104  -2.093   3.867 -0.2616 -0.9546 -1.3465
  583MOL0     H80433   5.181  -2.239   3.932  1.1248 -0.0678  0.4642
  583MOL0     H80434   5.576  -1.289   3.950 -1.0067 -1.6848 -1.9081
  583MOL0     H80435   5.722  -1.251   4.139 -1.6098  1.6649 -0.9337
  583MOL0     H80436   6.314  -1.431   4.301  0.9996 -1.0392  2.3487
  583MOL0     H80437   6.406  -1.375   4.494 -1.7041 -3.3358 -0.8634
  583MOL0     H80438   5.597   0.101   5.554 -1.1106  0.4459 -2.0364
  583MOL0     H80439   5.595   0.307   5.700 -0.4068  2.5846 -0.4844
  583MOL0     H80440   5.616   0.664   5.856  1.2042 -0.0753  2.4751
  583MOL0     H80441   5.507   0.881   5.841  0.8350  0.1936  1.9461
  583MOL0     H80442   5.727   1.217   5.641  0.3188 -0.6776 -0.6824
  583MOL0     H80443   5.595   1.153   5.544 -0.5969  0.0050  0.2476
  583MOL0     H80444   5.435   1.280   5.704  1.5742 -0.5231  0.7833
  583MOL0     H80445   5.528   1.376   5.588  1.5967 -0.0743  0.0603
  583MOL0     H80446   5.501   1.464   5.825  3.2898  2.9923  1.3679
  583MOL0     H80447   5.619   1.341   5.883  0.4489  2.5187  1.8119
  583MOL0     H80448   5.681   1.603   5.824 -0.1662  1.2602 -2.1371
  583MOL0     H80449   5.704   1.527   5.662  1.8069 -0.3693  0.2961
  583MOL0     H80450   6.013   1.340   5.871 -0.3896 -0.8675 -0.5927
  583MOL0     H80451   5.850   1.051   5.654 -2.0140  1.9387 -0.9986
  583MOL0     H80452   6.079   0.851   5.714 -2.1362  1.2303  2.1541
  583MOL0     H80453   6.018   0.746   5.591  1.7706 -0.8569 -0.2830
  583MOL0     H80454   6.010   0.924   5.569 -3.2914 -1.9542 -0.1147
  584MOL0     O80455   7.373   8.149   2.043  0.6521 -0.1017  0.8088
  584MOL0     C80456   7.356   8.127   1.921  0.7324 -1.3740 -0.8759
  584MOL0     O80457   7.450   8.148   1.831 -0.2560 -0.1840  0.0385
  584MOL0     C80458   7.578   8.196   1.859 -0.3933 -0.5626  0.2402
  584MOL0     C80459   7.679   8.103   1.840  0.2526  1.4706 -0.3701
  584MOL0     C80460   7.811   8.152   1.845  0.5548 -1.0829  0.5296
  584MOL0     C80461   7.837   8.294   1.866 -0.4171 -0.1522  0.3628
  584MOL0     O80462   7.959   8.353   1.858  0.0520  0.1648  0.1938
  584MOL0     C80463   8.076   8.292   1.804 -0.0456 -0.5844 -0.3910
  584MOL0     C80464   8.189   8.386   1.815 -0.2286 -0.3568 -0.4096
  584MOL0     C80465   8.166   8.532   1.798 -0.4377 -0.3597  0.5706
  584MOL0     C80466   8.306   8.600   1.797  0.1109 -0.3608  0.1629
  584MOL0     C80467   8.298   8.751   1.835 -0.8462  0.0425  0.3780
  584MOL0     C80468   8.431   8.819   1.825 -1.2213 -0.5550  0.2868
  584MOL0     C80469   8.429   8.958   1.889 -0.3658 -0.2316 -0.7996
  584MOL0     C80470   8.552   9.039   1.845  0.5926 -0.7155  0.3906
  584MOL0     N80471   8.537   9.179   1.892  0.1151 -0.5224 -1.0390
  584MOL0     C80472   8.444   9.276   1.852 -0.2461  0.9233  0.2392
  584MOL0     C80473   8.501   9.386   1.902  0.1011 -0.5221 -0.1258
  584MOL0     C80474   8.464   9.531   1.879 -0.0015 -0.0048 -0.3985
  584MOL0     C80475   8.328   9.553   1.814 -0.2724  0.2044 -0.0888
  584MOL0     C80476   8.282   9.694   1.833  0.5797 -0.7422 -0.6217
  584MOL0     C80477   8.201   9.711   1.958 -0.5754  0.3236 -0.5625
  584MOL0     O80478   8.088   9.623   1.960  0.0181  0.7253  0.8113
  584MOL0     C80479   7.970   9.672   1.943  0.1302 -0.1206 -0.2578
  584MOL0     C80480   7.929   9.798   1.917  0.5871  0.3560  0.1774
  584MOL0     C80481   7.795   9.838   1.911  0.1475  0.1774 -0.2000
  584MOL0     C80482   7.765   9.989   1.885 -0.4698 -0.7075 -0.5178
  584MOL0     C80483   7.691   9.739   1.918  0.5710  0.2147 -0.0783
  584MOL0     C80484   7.540   9.754   1.898 -0.2238  0.2201 -0.3308
  584MOL0     O80485   7.486   9.874   1.921  0.4894  0.1915 -0.0577
  584MOL0     C80486   7.364   9.906   1.875  0.9170 -0.2074 -0.1996
  584MOL0     C80487   7.352  10.047   1.861  0.8711 -0.1232  0.5134
  584MOL0     C80488   7.225  10.100   1.815 -0.0827  0.2473  0.6057
  584MOL0     C80489   7.121  10.015   1.772  0.6930  0.3654 -0.7211
  584MOL0     O80490   6.992  10.039   1.733 -0.4323 -0.6622  0.0216
  584MOL0     C80491   6.963  10.158   1.657  0.0539 -0.1875  0.8874
  584MOL0     C80492   6.915  10.281   1.737 -0.6472  1.9339  0.4491
  584MOL0     C80493   6.773  10.273   1.774 -0.7064  0.0089  0.5490
  584MOL0     C80494   6.669  10.270   1.652 -0.3852  0.3082 -0.5867
  584MOL0     C80495   6.543  10.362   1.660 -1.1922 -0.1677  0.3170
  584MOL0     C80496   6.478  10.348   1.801 -0.0516  0.3629 -0.0382
  584MOL0     C80497   6.356  10.442   1.817 -0.8509  0.7643 -0.1138
  584MOL0     C80498   6.309  10.438   1.964 -0.8221  0.5598 -0.1691
  584MOL0    Cl80499   6.188  10.575   1.989  0.0742  0.3305 -0.3180
  584MOL0     C80500   7.147   9.876   1.795 -0.2558 -0.0919  0.0357
  584MOL0     C80501   7.258   9.823   1.844 -0.0313 -0.1037 -0.7060
  584MOL0     O80502   7.480   9.650   1.861  0.1864 -0.5321 -0.0029
  584MOL0     C80503   7.733   9.603   1.950  0.5749 -1.0391  0.9324
  584MOL0     C80504   7.875   9.577   1.963  0.2220  0.5088 -0.7521
  584MOL0     N80505   8.628   9.367   1.948 -0.2850  0.5988  0.0925
  584MOL0     N80506   8.646   9.239   1.951 -0.3780 -0.6697  0.2829
  584MOL0     C80507   7.733   8.380   1.888  0.0445  0.5843 -0.8319
  584MOL0     C80508   7.596   8.333   1.879  0.4875 -0.2072  0.7791
  584MOL0     C80509   7.213   8.103   1.878 -0.0903  0.6634 -0.7275
  584MOL0     C80510   7.126   8.044   1.976  0.0555 -0.0555 -0.1293
  584MOL0     C80511   6.992   8.015   1.936  0.9424  0.5056 -0.6933
  584MOL0     C80512   6.944   8.044   1.807 -0.0807 -0.2632 -0.2413
  584MOL0     O80513   6.823   8.013   1.756  0.7389  0.0974  0.1717
  584MOL0     C80514   6.781   7.868   1.768  0.4611  0.1592  0.5975
  584MOL0     C80515   6.888   7.771   1.714 -0.1314 -0.9660  0.1591
  584MOL0     C80516   6.833   7.635   1.680 -0.7124  0.3707  0.2768
  584MOL0     C80517   6.945   7.544   1.634  0.6759  1.4865  0.0194
  584MOL0     C80518   6.913   7.428   1.557 -0.7077 -1.4403 -0.3727
  584MOL0     C80519   6.893   7.327   1.499  0.2131  0.0600  0.0408
  584MOL0     C80520   7.035   8.103   1.721  0.3649 -0.2857  0.3022
  584MOL0     C80521   7.166   8.135   1.749 -1.4040  0.2948 -0.5136
  584MOL0     C80522   7.248   8.199   1.646  0.2392 -0.6115  0.2683
  584MOL0     H80523   7.658   8.002   1.806 -0.3580  0.4777  2.6866
  584MOL0     H80524   7.887   8.075   1.835  1.8844  0.3427 -0.9374
  584MOL0     H80525   8.066   8.264   1.698 -1.0219  0.7639 -0.6796
  584MOL0     H80526   8.094   8.208   1.871  2.4036  0.4093  0.3041
  584MOL0     H80527   8.236   8.376   1.914  1.5225  1.2035 -1.0304
  584MOL0     H80528   8.266   8.367   1.740  1.7733  0.7109  1.2613
  584MOL0     H80529   8.111   8.547   1.704  2.0411  0.1436 -0.8803
  584MOL0     H80530   8.098   8.564   1.878  1.6059  3.1264  1.1477
  584MOL0     H80531   8.377   8.546   1.861 -0.4191  0.1564  1.2235
  584MOL0     H80532   8.345   8.589   1.696 -1.3497 -2.9153 -0.2222
  584MOL0     H80533   8.246   8.741   1.930 -3.5440 -0.4838 -1.0359
  584MOL0     H80534   8.236   8.817   1.774 -2.9101 -0.7378  1.5466
  584MOL0     H80535   8.516   8.762   1.862  0.8231  0.6621 -2.2049
  584MOL0     H80536   8.464   8.815   1.721 -1.7341 -2.1913  0.1625
  584MOL0     H80537   8.425   8.957   1.999 -4.2477  1.3099 -0.8033
  584MOL0     H80538   8.339   9.016   1.868  0.2832  1.4057  0.6505
  584MOL0     H80539   8.645   8.997   1.884  2.1100  1.5761 -0.5734
  584MOL0     H80540   8.568   9.038   1.737 -0.3006  5.7469 -0.1842
  584MOL0     H80541   8.352   9.252   1.800  0.1718 -1.1658  0.3600
  584MOL0     H80542   8.531   9.571   1.802 -0.8682 -2.4607 -2.5636
  584MOL0     H80543   8.471   9.587   1.973  0.9411 -0.4011 -0.2225
  584MOL0     H80544   8.343   9.540   1.706  6.3384 -2.9910  0.6458
  584MOL0     H80545   8.241   9.490   1.834 -0.8117  0.5872 -1.1458
  584MOL0     H80546   8.368   9.762   1.836  0.1160 -0.1364 -0.8670
  584MOL0     H80547   8.222   9.711   1.743  0.1186 -2.7155 -0.7218
  584MOL0     H80548   8.262   9.694   2.047  0.1401 -1.1416 -1.3171
  584MOL0     H80549   8.176   9.818   1.962 -1.9124  0.0111  1.1205
  584MOL0     H80550   8.002   9.878   1.914  0.9291  0.0502  0.2402
  584MOL0     H80551   7.755  10.050   1.975 -2.9519  1.3697 -2.0518
  584MOL0     H80552   7.679  10.003   1.819  0.5712  0.3815 -1.6983
  584MOL0     H80553   7.847  10.038   1.832 -0.1424  0.0851  0.6664
  584MOL0     H80554   7.437  10.107   1.890  1.6182  0.0355 -1.7657
  584MOL0     H80555   7.214  10.208   1.818 -1.3195  0.4713 -4.2232
  584MOL0     H80556   7.054  10.189   1.605  0.0482 -0.8418  0.4703
  584MOL0     H80557   6.883  10.128   1.589  0.3413  1.6111 -0.3064
  584MOL0     H80558   6.978  10.301   1.825  0.1883  1.0985  0.0582
  584MOL0     H80559   6.919  10.364   1.666 -2.9203  1.5216 -0.2307
  584MOL0     H80560   6.739  10.359   1.832 -1.7701  0.4727 -0.7025
  584MOL0     H80561   6.761  10.185   1.838 -2.2230 -0.5215 -0.4017
  584MOL0     H80562   6.633  10.169   1.632 -0.5039  0.1936  0.1786
  584MOL0     H80563   6.723  10.306   1.563 -0.0598  1.3732  0.0265
  584MOL0     H80564   6.598  10.453   1.635  0.9912 -1.3938  0.4139
  584MOL0     H80565   6.469  10.327   1.587 -0.7458 -0.1751 -0.1320
  584MOL0     H80566   6.549  10.372   1.880  1.5380 -0.6479 -1.1074
  584MOL0     H80567   6.443  10.246   1.820  0.8195 -0.2112 -1.3474
  584MOL0     H80568   6.276  10.397   1.758 -1.7346 -1.4810  2.5804
  584MOL0     H80569   6.386  10.544   1.790 -0.9029  0.5067 -1.1461
  584MOL0     H80570   6.394  10.457   2.030 -0.3829 -3.0166  0.4646
  584MOL0     H80571   6.276  10.338   1.992  0.7616  0.2636  0.7213
  584MOL0     H80572   7.071   9.803   1.768 -0.0221  0.5714 -2.7528
  584MOL0     H80573   7.242   9.719   1.869 -0.5768  0.3441  0.9397
  584MOL0     H80574   7.658   9.528   1.969 -0.8372  0.1144  0.1699
  584MOL0     H80575   7.922   9.484   1.993  1.6539  1.6302  0.6363
  584MOL0     H80576   7.771   8.481   1.893  0.2413  0.6992 -3.3275
  584MOL0     H80577   7.506   8.393   1.881  0.6942  0.2278 -1.1639
  584MOL0     H80578   7.166   8.018   2.073  0.5667 -2.0246 -0.8184
  584MOL0     H80579   6.925   7.969   2.009  0.7235  0.9893 -0.5862
  584MOL0     H80580   6.763   7.833   1.870  0.6786 -0.4382  0.4376
  584MOL0     H80581   6.686   7.866   1.714  1.5254 -0.2522 -1.3510
  584MOL0     H80582   6.967   7.752   1.788  2.0171 -6.9054 -3.0198
  584MOL0     H80583   6.935   7.813   1.625  0.7097 -0.3374  0.8708
  584MOL0     H80584   6.781   7.585   1.763  2.0193  0.7165  2.3181
  584MOL0     H80585   6.774   7.654   1.590  0.2201  0.0805 -0.4056
  584MOL0     H80586   7.001   7.504   1.719 -0.2528 -4.7594 -1.8098
  584MOL0     H80587   7.014   7.598   1.568  0.6217 -0.1689 -1.4789
  584MOL0     H80588   6.863   7.238   1.448 -1.0428  1.1983 -1.3081
  584MOL0     H80589   6.996   8.138   1.625  0.4809 -1.7221 -0.2866
  584MOL0     H80590   7.325   8.268   1.682  2.3881 -2.2065 -0.9984
  584MOL0     H80591   7.304   8.131   1.581  1.0544 -0.9183  1.2543
  584MOL0     H80592   7.182   8.268   1.593  1.6937 -0.5328 -1.5597
  585MOL0     O80593   3.474   5.457   6.012 -0.4922 -0.5840  0.4356
  585MOL0     C80594   3.357   5.443   6.043  1.3681 -0.2581 -0.5184
  585MOL0     O80595   3.306   5.514   6.154 -0.7529  0.2577  0.5697
  585MOL0     C80596   3.384   5.598   6.218 -0.3528  0.0197  0.5346
  585MOL0     C80597   3.315   5.704   6.273  0.0225  0.5231 -0.0598
  585MOL0     C80598   3.371   5.795   6.361  0.3182 -0.5053 -1.0260
  585MOL0     C80599   3.497   5.782   6.410  0.2776  0.6872  0.0897
  585MOL0     O80600   3.555   5.869   6.493 -0.7702 -0.1420 -0.5120
  585MOL0     C80601   3.576   5.825   6.631  0.5828 -0.2415  0.4846
  585MOL0     C80602   3.705   5.879   6.691  0.0488 -0.0802  0.7860
  585MOL0     C80603   3.830   5.831   6.619 -0.7980 -0.3362 -0.8811
  585MOL0     C80604   3.952   5.871   6.690 -0.6137  1.1406 -0.5358
  585MOL0     C80605   4.074   5.842   6.609  0.8228  0.6277  0.5771
  585MOL0     C80606   4.194   5.838   6.699  0.3229  0.6261 -0.3451
  585MOL0     C80607   4.322   5.856   6.626  0.1660 -0.5780 -0.6176
  585MOL0     C80608   4.442   5.827   6.719  0.1592  0.0594  0.7462
  585MOL0     N80609   4.454   5.685   6.744 -0.0183  0.4571  0.6078
  585MOL0     C80610   4.449   5.578   6.663  0.5471  0.1084 -0.3389
  585MOL0     C80611   4.481   5.472   6.745  0.0019  0.7465  1.0369
  585MOL0     C80612   4.480   5.336   6.689  0.0338 -0.5536 -0.2638
  585MOL0     C80613   4.609   5.256   6.707 -0.3008  0.3372  0.0858
  585MOL0     C80614   4.741   5.285   6.627 -1.4173  0.8372  0.0530
  585MOL0     C80615   4.780   5.428   6.597  0.4903  0.2418 -0.3792
  585MOL0     O80616   4.693   5.470   6.500 -0.2665 -0.7502  0.2345
  585MOL0     C80617   4.688   5.607   6.459 -0.3384  0.0179  0.2994
  585MOL0     C80618   4.735   5.709   6.520 -0.0299 -0.4970 -0.0740
  585MOL0     C80619   4.734   5.837   6.473  0.2462 -0.1128  0.1034
  585MOL0     C80620   4.796   5.937   6.564 -0.9829  1.0081 -0.0766
  585MOL0     C80621   4.654   5.863   6.355  0.9646  0.0482 -0.6676
  585MOL0     C80622   4.627   6.000   6.302  0.0330 -0.5604  0.7042
  585MOL0     O80623   4.530   6.011   6.203  0.1178 -0.5496 -0.2826
  585MOL0     C80624   4.514   6.101   6.095  0.1353  0.0095 -0.8164
  585MOL0     C80625   4.440   6.056   5.979  0.2653  0.0456 -1.3247
  585MOL0     C80626   4.424   6.139   5.869  0.3710 -1.0406 -0.7485
  585MOL0     C80627   4.499   6.265   5.866  0.3598 -0.8289  0.1057
  585MOL0     O80628   4.499   6.336   5.746 -0.5376  0.0085  0.5417
  585MOL0     C80629   4.582   6.450   5.730  0.0035 -0.1999 -0.0484
  585MOL0     C80630   4.548   6.536   5.609 -0.4077 -0.7981 -0.8141
  585MOL0     C80631   4.640   6.651   5.616  0.3647 -0.2836  0.8012
  585MOL0     C80632   4.628   6.740   5.498  0.3440 -0.2729  0.7602
  585MOL0     C80633   4.695   6.873   5.522  0.6704  0.0126 -0.3636
  585MOL0     C80634   4.665   6.976   5.394  0.3654  0.5389 -0.8750
  585MOL0     C80635   4.743   6.935   5.268 -0.5636  0.4243  0.0333
  585MOL0     C80636   4.773   7.064   5.174 -0.7839  0.3172  0.6547
  585MOL0    Cl80637   4.892   7.166   5.269 -0.3109 -0.5459  0.1086
  585MOL0     C80638   4.571   6.301   5.984  0.3403 -0.7661 -0.2764
  585MOL0     C80639   4.578   6.224   6.093  0.8348  0.6598 -0.8272
  585MOL0     O80640   4.702   6.091   6.320  0.0884  0.8618 -0.0893
  585MOL0     C80641   4.602   5.756   6.286  0.5144  0.5031  0.7922
  585MOL0     C80642   4.613   5.631   6.343 -0.5191  0.1631  0.7644
  585MOL0     N80643   4.512   5.518   6.867  0.3227 -0.1081 -0.0686
  585MOL0     N80644   4.494   5.641   6.870 -0.3404  0.1984 -0.8728
  585MOL0     C80645   3.573   5.682   6.343  0.0429  0.1506  0.5718
  585MOL0     C80646   3.521   5.594   6.251 -0.6062  0.4149 -0.1337
  585MOL0     C80647   3.266   5.363   5.965  0.1929  0.2781 -0.5440
  585MOL0     C80648   3.136   5.411   5.970  0.0584  0.7218  0.4423
  585MOL0     C80649   3.038   5.343   5.893  0.2460 -0.2592 -0.9197
  585MOL0     C80650   3.060   5.226   5.812 -0.5626 -0.4495 -0.3751
  585MOL0     O80651   2.970   5.168   5.730  0.2630 -0.5053  0.7529
  585MOL0     C80652   2.833   5.205   5.743  0.7121  0.3870 -0.6049
  585MOL0     C80653   2.763   5.195   5.608  0.6551 -0.5335 -0.8623
  585MOL0     C80654   2.832   5.255   5.488 -0.2150  0.7642 -0.2927
  585MOL0     C80655   2.730   5.258   5.380 -0.2277 -0.3663  0.4436
  585MOL0     C80656   2.804   5.272   5.253 -0.0054 -0.0529 -0.5682
  585MOL0     C80657   2.863   5.300   5.152 -0.6653  0.1387 -0.1589
  585MOL0     C80658   3.192   5.179   5.818  0.5470 -0.0134  0.3316
  585MOL0     C80659   3.291   5.238   5.899 -0.4888  0.7540  0.0389
  585MOL0     C80660   3.418   5.166   5.921 -0.2208  0.5584 -0.5109
  585MOL0     H80661   3.217   5.720   6.228 -0.0218 -0.3303 -0.2860
  585MOL0     H80662   3.296   5.870   6.383 -2.1735 -2.6567 -1.6776
  585MOL0     H80663   3.574   5.716   6.637 -1.7095 -0.2521  0.3663
  585MOL0     H80664   3.485   5.852   6.685 -2.0306  0.1913 -3.6635
  585MOL0     H80665   3.695   5.987   6.673 -2.9984 -0.4087 -0.0021
  585MOL0     H80666   3.723   5.869   6.798  1.1582  1.9040  0.8356
  585MOL0     H80667   3.816   5.723   6.606 -3.1975  0.0519 -2.2159
  585MOL0     H80668   3.831   5.878   6.520 -2.4622 -2.1374 -1.8412
  585MOL0     H80669   3.959   5.971   6.732  3.6771 -0.1364  2.4368
  585MOL0     H80670   3.960   5.802   6.775 -1.9774  2.0034  0.3183
  585MOL0     H80671   4.089   5.910   6.525  2.3839 -0.9756 -0.5106
  585MOL0     H80672   4.055   5.747   6.560  0.6463  1.5469 -1.2001
  585MOL0     H80673   4.190   5.913   6.778  0.1727 -0.2891  0.5355
  585MOL0     H80674   4.195   5.745   6.756  1.0214  1.6511  1.4056
  585MOL0     H80675   4.321   5.960   6.590 -1.7791 -0.7676 -1.2400
  585MOL0     H80676   4.338   5.800   6.533  3.5345 -1.5113  0.3993
  585MOL0     H80677   4.536   5.865   6.677  0.8253  0.2405  2.3253
  585MOL0     H80678   4.416   5.875   6.814 -0.1067  1.9604 -0.2573
  585MOL0     H80679   4.424   5.575   6.558 -0.5322  2.2362 -0.1996
  585MOL0     H80680   4.445   5.333   6.585 -0.5499 -1.8909 -0.0414
  585MOL0     H80681   4.397   5.290   6.744 -1.9581  1.7707 -1.1291
  585MOL0     H80682   4.639   5.250   6.812  2.0556  0.4378 -0.5237
  585MOL0     H80683   4.577   5.155   6.683 -0.8000  0.3737  0.5706
  585MOL0     H80684   4.826   5.249   6.686  0.2896  2.6703 -1.1348
  585MOL0     H80685   4.756   5.236   6.531  1.9932  0.7972  0.4657
  585MOL0     H80686   4.757   5.491   6.684 -2.6669  1.8717 -2.1905
  585MOL0     H80687   4.885   5.435   6.566  0.2763  1.3424 -0.9022
  585MOL0     H80688   4.773   5.693   6.621 -2.0369 -3.4023  0.3480
  585MOL0     H80689   4.849   6.018   6.514  0.8515 -0.0908 -0.0064
  585MOL0     H80690   4.860   5.891   6.641 -0.1851  3.8733  1.0889
  585MOL0     H80691   4.710   5.970   6.623 -0.8782 -1.5212  1.6769
  585MOL0     H80692   4.395   5.957   5.983 -1.1470  0.7025  0.6897
  585MOL0     H80693   4.359   6.108   5.787 -1.0051  1.5856 -0.7727
  585MOL0     H80694   4.567   6.521   5.812  0.0901  1.8276 -1.7026
  585MOL0     H80695   4.689   6.429   5.721 -0.0466 -1.4756  1.7437
  585MOL0     H80696   4.558   6.488   5.511 -0.1292  1.7093 -2.1016
  585MOL0     H80697   4.443   6.568   5.606  0.0198  1.5873  3.0330
  585MOL0     H80698   4.745   6.627   5.638  0.1014 -1.8614  0.4684
  585MOL0     H80699   4.612   6.711   5.704 -3.2773 -0.7232  0.1065
  585MOL0     H80700   4.522   6.755   5.474 -0.5604 -2.7197  2.7539
  585MOL0     H80701   4.682   6.691   5.416 -1.8565  1.0426 -1.6428
  585MOL0     H80702   4.650   6.923   5.608  0.9100  1.3291 -0.9772
  585MOL0     H80703   4.802   6.866   5.543  0.7598  4.6122  2.2563
  585MOL0     H80704   4.683   7.082   5.415  2.1523 -0.0842  1.0503
  585MOL0     H80705   4.559   6.967   5.368  0.2993 -4.3779  0.0424
  585MOL0     H80706   4.687   6.860   5.212  0.2222 -0.0059 -0.1877
  585MOL0     H80707   4.834   6.895   5.313 -2.4116 -2.0386  1.8887
  585MOL0     H80708   4.683   7.127   5.173  0.6893  2.6010  1.8384
  585MOL0     H80709   4.814   7.031   5.077 -3.0276  0.5508 -0.4320
  585MOL0     H80710   4.631   6.392   5.981 -0.7804  0.1919  2.8737
  585MOL0     H80711   4.637   6.256   6.178  0.1702 -0.7960  0.2335
  585MOL0     H80712   4.552   5.787   6.195  1.2793  2.4801  1.0151
  585MOL0     H80713   4.579   5.549   6.280  0.4801  0.2926  0.0307
  585MOL0     H80714   3.677   5.691   6.373 -0.0663  1.4607  0.6330
  585MOL0     H80715   3.579   5.507   6.222 -3.3998 -1.6828  0.2122
  585MOL0     H80716   3.106   5.505   6.017 -2.4377  1.2424 -1.8873
  585MOL0     H80717   2.941   5.389   5.905 -1.0450 -2.8916 -0.5613
  585MOL0     H80718   2.780   5.158   5.826  1.5117 -0.0164 -0.3137
  585MOL0     H80719   2.838   5.313   5.763  0.5038  0.2166  0.4051
  585MOL0     H80720   2.664   5.239   5.623  2.2140  3.4906 -1.1813
  585MOL0     H80721   2.738   5.089   5.595 -0.7183 -1.2980  5.1997
  585MOL0     H80722   2.871   5.355   5.509 -1.1131  1.1672 -0.4725
  585MOL0     H80723   2.924   5.199   5.473  0.9736  1.8734  2.2378
  585MOL0     H80724   2.670   5.348   5.391  1.0361  0.7982 -1.5255
  585MOL0     H80725   2.667   5.169   5.379 -2.8964  1.3547 -1.9556
  585MOL0     H80726   2.897   5.328   5.054 -0.4712  0.4751  0.0020
  585MOL0     H80727   3.218   5.094   5.755  0.0056 -0.9499  1.3595
  585MOL0     H80728   3.504   5.212   5.872 -1.3116  2.2434 -0.9030
  585MOL0     H80729   3.443   5.168   6.028 -0.1133 -0.8480 -0.4873
  585MOL0     H80730   3.416   5.065   5.878  0.6436  0.0092  0.6607
  586MOL0     O80731   2.110   5.573   8.290  0.5141  0.1891 -0.2370
  586MOL0     C80732   2.008   5.552   8.221  0.5733 -0.0369 -0.8236
  586MOL0     O80733   1.979   5.626   8.109 -0.1083  0.4039  0.3538
  586MOL0     C80734   2.071   5.725   8.079  0.2004  0.2520 -0.0602
  586MOL0     C80735   2.195   5.693   8.027 -0.2196  0.0544 -0.2459
  586MOL0     C80736   2.287   5.798   7.994  0.0092  0.7832 -0.4272
  586MOL0     C80737   2.257   5.930   7.998  0.4271  0.9777 -0.0821
  586MOL0     O80738   2.344   6.027   7.980 -0.3317  0.5310  1.1291
  586MOL0     C80739   2.304   6.162   7.997  0.2461  0.2882 -0.1987
  586MOL0     C80740   2.410   6.257   7.961 -0.1221 -0.7878  0.3295
  586MOL0     C80741   2.523   6.269   8.071  0.4416 -1.0038 -0.1516
  586MOL0     C80742   2.625   6.372   8.053  0.0845  0.0844 -0.8122
  586MOL0     C80743   2.759   6.352   8.123  0.0095  0.2421  0.6161
  586MOL0     C80744   2.763   6.325   8.278 -0.7935  0.2459  0.5855
  586MOL0     C80745   2.760   6.456   8.373  0.4214 -0.0400 -0.3111
  586MOL0     C80746   2.875   6.564   8.359  0.4816  1.2367  0.0095
  586MOL0     N80747   2.846   6.656   8.240  1.0951  0.5511 -0.3684
  586MOL0     C80748   2.943   6.718   8.165 -0.5771 -0.0780  1.0839
  586MOL0     C80749   2.864   6.779   8.072  0.2121  0.8129 -1.1251
  586MOL0     C80750   2.904   6.849   7.946 -0.4277  0.6594 -0.5694
  586MOL0     C80751   3.003   6.958   7.971 -0.2629  0.3572 -0.3757
  586MOL0     C80752   2.987   7.069   8.077 -0.0489 -0.3325  0.8579
  586MOL0     C80753   3.122   7.155   8.088  0.5171 -0.4955  0.4224
  586MOL0     O80754   3.246   7.083   8.068 -0.1131  0.1209 -0.1707
  586MOL0     C80755   3.367   7.148   8.080 -0.5629 -0.4132  0.1826
  586MOL0     C80756   3.389   7.278   8.128  0.0564  0.3047 -0.8963
  586MOL0     C80757   3.519   7.329   8.137 -0.2896 -0.9378  0.1643
  586MOL0     C80758   3.542   7.462   8.200 -0.9564 -0.9934  0.2531
  586MOL0     C80759   3.631   7.244   8.099 -0.0708 -0.5847  0.0071
  586MOL0     C80760   3.763   7.297   8.082 -0.3300 -0.6892  0.8380
  586MOL0     O80761   3.827   7.283   7.964 -0.1541  0.3666  0.7639
  586MOL0     C80762   3.961   7.330   7.946  0.5615 -0.2712 -0.6468
  586MOL0     C80763   3.984   7.430   7.850 -0.5303  0.1149  0.0774
  586MOL0     C80764   4.117   7.478   7.826 -0.0133 -0.2973  0.1959
  586MOL0     C80765   4.219   7.438   7.906  0.1088 -0.3445 -0.1838
  586MOL0     O80766   4.333   7.516   7.903 -0.0522 -0.3057 -0.1629
  586MOL0     C80767   4.457   7.453   7.950 -0.5491  0.0443 -0.0248
  586MOL0     C80768   4.580   7.512   7.870 -0.4613  0.0671 -0.6564
  586MOL0     C80769   4.712   7.466   7.930 -0.0074  0.3158  0.1963
  586MOL0     C80770   4.829   7.538   7.867 -0.0158  0.3901 -0.1816
  586MOL0     C80771   4.963   7.505   7.929 -0.9524  0.4114 -0.2946
  586MOL0     C80772   4.995   7.364   7.959  0.6029 -0.5483  0.0193
  586MOL0     C80773   5.136   7.325   8.001 -0.1967 -0.2996  0.4098
  586MOL0     C80774   5.148   7.174   8.039  0.0211  0.0678 -0.1807
  586MOL0    Cl80775   5.096   7.065   7.918  0.1066  0.5803  0.0111
  586MOL0     C80776   4.188   7.336   7.999 -0.1293  0.1677 -0.1050
  586MOL0     C80777   4.064   7.282   8.018  0.3804 -0.8140 -0.2452
  586MOL0     O80778   3.805   7.347   8.177 -1.0442 -1.1649  0.4375
  586MOL0     C80779   3.603   7.121   8.045 -0.7242 -0.4692 -0.0684
  586MOL0     C80780   3.476   7.068   8.040  1.1466  0.1891 -0.4975
  586MOL0     N80781   2.732   6.762   8.098  0.8992 -1.0673 -0.4631
  586MOL0     N80782   2.720   6.701   8.214 -0.4431  0.5081  0.0797
  586MOL0     C80783   2.118   5.959   8.033  0.4364  0.8352  0.1576
  586MOL0     C80784   2.028   5.857   8.077  0.3544 -0.8190  0.2818
  586MOL0     C80785   1.900   5.468   8.284  1.5788  0.8959 -1.3232
  586MOL0     C80786   1.941   5.354   8.364  0.0752  0.1130 -0.7239
  586MOL0     C80787   1.849   5.273   8.434  0.2260 -0.4147  0.1789
  586MOL0     C80788   1.708   5.298   8.433 -1.2822  1.3118  0.2715
  586MOL0     O80789   1.627   5.201   8.490  0.7078  0.3163  0.5566
  586MOL0     C80790   1.485   5.232   8.502 -0.5735  1.3865  0.2357
  586MOL0     C80791   1.461   5.302   8.636  0.2255 -0.1218 -0.0620
  586MOL0     C80792   1.543   5.262   8.756  0.4474  0.3913 -0.0628
  586MOL0     C80793   1.535   5.360   8.872  0.3681  0.9586 -0.1901
  586MOL0     C80794   1.655   5.359   8.962  0.8396  0.3690 -0.3475
  586MOL0     C80795   1.748   5.359   9.039 -1.1596 -0.5950  0.3886
  586MOL0     C80796   1.669   5.419   8.377  0.9371 -0.4369  0.2224
  586MOL0     C80797   1.757   5.503   8.309  0.5877  0.1042  0.3028
  586MOL0     C80798   1.713   5.633   8.247 -0.9349 -0.3164  0.0593
  586MOL0     H80799   2.216   5.587   8.022 -0.8484 -0.1569  0.9885
  586MOL0     H80800   2.389   5.773   7.967 -0.2137  2.3176 -3.0901
  586MOL0     H80801   2.273   6.186   8.100 -0.2867  0.2817 -0.3565
  586MOL0     H80802   2.219   6.181   7.931  0.5355  4.3578  0.3327
  586MOL0     H80803   2.449   6.240   7.861 -3.9324  0.1206 -1.5030
  586MOL0     H80804   2.358   6.352   7.944 -0.4788 -1.3843 -2.2248
  586MOL0     H80805   2.474   6.276   8.169 -0.0786 -5.0914  0.0829
  586MOL0     H80806   2.582   6.177   8.075 -1.0354 -2.1224 -2.0799
  586MOL0     H80807   2.646   6.381   7.946  2.2550 -0.6746 -0.5010
  586MOL0     H80808   2.571   6.460   8.087 -1.2371 -0.2592 -1.9049
  586MOL0     H80809   2.818   6.440   8.098 -2.6253  1.6752 -0.9380
  586MOL0     H80810   2.804   6.265   8.074 -1.4639 -0.0555 -0.2483
  586MOL0     H80811   2.685   6.252   8.297 -1.3893  0.2443 -1.5942
  586MOL0     H80812   2.863   6.286   8.302 -1.2820 -0.8694  0.8821
  586MOL0     H80813   2.771   6.409   8.471 -0.6840 -0.5149 -0.3957
  586MOL0     H80814   2.664   6.508   8.379 -0.0099 -0.9790  2.7595
  586MOL0     H80815   2.882   6.634   8.443 -1.6168  1.3319  0.1524
  586MOL0     H80816   2.973   6.519   8.342  0.0076  0.5559 -0.9601
  586MOL0     H80817   3.051   6.710   8.164 -0.3563  1.8168  2.8750
  586MOL0     H80818   2.813   6.877   7.892  0.5049  0.7733 -2.1382
  586MOL0     H80819   2.947   6.776   7.878 -3.2853 -2.6780  0.8870
  586MOL0     H80820   3.096   6.905   7.994 -0.4824 -0.9672 -2.3132
  586MOL0     H80821   3.032   7.003   7.875  1.2500  1.2075  0.4349
  586MOL0     H80822   2.900   7.134   8.063  0.3873 -0.0797 -0.8461
  586MOL0     H80823   2.972   7.028   8.177 -0.3134 -1.0340  0.5400
  586MOL0     H80824   3.125   7.235   8.014 -1.1894  1.0541  1.9231
  586MOL0     H80825   3.119   7.200   8.188 -0.4869  0.4252 -0.0075
  586MOL0     H80826   3.294   7.328   8.148 -1.5991 -2.4517 -1.3934
  586MOL0     H80827   3.450   7.520   8.212  0.7127  1.5790  1.7905
  586MOL0     H80828   3.605   7.522   8.133  0.1190 -1.3401  0.9335
  586MOL0     H80829   3.593   7.467   8.297 -0.1189 -0.0907 -0.2071
  586MOL0     H80830   3.905   7.477   7.792 -1.7874 -1.9937 -0.0284
  586MOL0     H80831   4.141   7.558   7.757 -0.5222  0.5212  0.9492
  586MOL0     H80832   4.462   7.449   8.059  0.2897 -4.7311 -0.0443
  586MOL0     H80833   4.464   7.352   7.910  3.5103 -0.1797  0.7923
  586MOL0     H80834   4.571   7.474   7.768  0.9073  0.8848 -1.1180
  586MOL0     H80835   4.568   7.621   7.864  2.7253  0.4335 -2.7433
  586MOL0     H80836   4.719   7.357   7.931  2.2974  0.4042 -0.4140
  586MOL0     H80837   4.709   7.494   8.036  1.5940 -1.5963  0.8201
  586MOL0     H80838   4.807   7.643   7.889  1.3456  0.1370  2.9730
  586MOL0     H80839   4.823   7.518   7.760  0.7014 -3.0364  0.3115
  586MOL0     H80840   5.038   7.537   7.856  3.2192 -0.7059  3.0952
  586MOL0     H80841   4.993   7.576   8.006  1.6535  0.5961 -1.3530
  586MOL0     H80842   4.966   7.310   7.868  1.8612  2.2694 -2.1996
  586MOL0     H80843   4.920   7.334   8.032  2.8482 -2.7249  1.6318
  586MOL0     H80844   5.157   7.386   8.090  2.5276  1.9698 -1.6059
  586MOL0     H80845   5.209   7.358   7.927 -1.6242  4.8369  0.8600
  586MOL0     H80846   5.077   7.149   8.119 -0.0384 -0.1471 -0.2992
  586MOL0     H80847   5.245   7.144   8.082  0.0684  0.3175 -0.1122
  586MOL0     H80848   4.271   7.307   8.063  1.0862  1.9608 -0.7520
  586MOL0     H80849   4.033   7.211   8.095 -2.3122  0.6908  0.2061
  586MOL0     H80850   3.685   7.073   7.993 -0.3087 -0.3609  0.4777
  586MOL0     H80851   3.453   6.965   8.015 -1.4542  0.3257  0.9420
  586MOL0     H80852   2.077   6.056   8.058 -1.4877 -1.0450  6.2040
  586MOL0     H80853   1.928   5.881   8.111 -0.0733  0.2690 -1.5955
  586MOL0     H80854   2.046   5.337   8.387  0.4527 -2.7371 -3.7105
  586MOL0     H80855   1.884   5.189   8.493 -0.6525  1.2335  3.3272
  586MOL0     H80856   1.446   5.287   8.417 -0.4227 -0.7058 -1.2741
  586MOL0     H80857   1.431   5.137   8.494 -0.4222  1.2342  0.8801
  586MOL0     H80858   1.359   5.289   8.672 -0.1425  2.9292  0.2740
  586MOL0     H80859   1.469   5.410   8.621 -2.8427 -0.2575 -5.3898
  586MOL0     H80860   1.514   5.164   8.796  0.9471  0.3225  0.1488
  586MOL0     H80861   1.645   5.245   8.720  0.9126 -1.4500  1.8765
  586MOL0     H80862   1.442   5.340   8.926  0.6363  0.8168  0.2224
  586MOL0     H80863   1.519   5.461   8.833 -1.2680  0.8974  0.2233
  586MOL0     H80864   1.835   5.363   9.101 -2.4973 -1.7277  2.4301
  586MOL0     H80865   1.563   5.438   8.365  0.9453 -1.1089 -1.1795
  586MOL0     H80866   1.704   5.623   8.139  2.4567  1.7728 -0.5720
  586MOL0     H80867   1.616   5.664   8.287  0.3210  3.1858  0.7851
  586MOL0     H80868   1.773   5.722   8.268  0.6533 -1.5234  0.8844
  587MOL0     O80869   6.601  11.038   1.168 -0.7556  0.0177 -0.0251
  587MOL0     C80870   6.484  11.047   1.200 -0.0763 -0.3609  0.1541
  587MOL0     O80871   6.441  11.139   1.277 -0.2755 -1.3412 -0.5545
  587MOL0     C80872   6.500  11.261   1.304 -0.3813 -0.4690  0.1256
  587MOL0     C80873   6.438  11.382   1.265  0.4519 -0.7790  0.0827
  587MOL0     C80874   6.484  11.504   1.306  0.4663 -1.2174 -0.3205
  587MOL0     C80875   6.594  11.516   1.390 -0.7991  0.7044  0.7750
  587MOL0     O80876   6.628  11.630   1.458  0.0488  0.9810 -0.3981
  587MOL0     C80877   6.522  11.681   1.545  0.3813 -0.0843 -0.2050
  587MOL0     C80878   6.568  11.768   1.669  0.0686 -0.7323  0.5803
  587MOL0     C80879   6.649  11.897   1.650 -0.6059  0.3576  0.7355
  587MOL0     C80880   6.681  11.958   1.785  0.1000 -0.2238 -0.6918
  587MOL0     C80881   6.566  12.008   1.863  0.4292  0.2712  0.1898
  587MOL0     C80882   6.466  12.103   1.786  0.9688  0.4850 -0.2974
  587MOL0     C80883   6.350  12.146   1.868 -1.0092 -0.6505  0.2161
  587MOL0     C80884   6.283  12.262   1.792  1.1502  0.8416  0.3753
  587MOL0     N80885   6.155  12.304   1.853  0.5242  1.5206  0.0981
  587MOL0     C80886   6.166  12.394   1.959 -0.3567 -0.4975  0.0719
  587MOL0     C80887   6.036  12.404   2.001  0.7162  0.3114 -0.8213
  587MOL0     C80888   5.975  12.476   2.115  0.2292 -0.1680 -0.3822
  587MOL0     C80889   5.964  12.382   2.244 -1.0010  0.2169 -0.1563
  587MOL0     C80890   5.934  12.234   2.222 -0.2496  0.6390 -0.7489
  587MOL0     C80891   5.939  12.146   2.345 -0.8282 -0.6208  0.3703
  587MOL0     O80892   6.076  12.129   2.375 -0.3982 -0.1684  0.7916
  587MOL0     C80893   6.120  12.145   2.502  0.5256 -0.0946 -0.4232
  587MOL0     C80894   6.117  12.269   2.574  0.5830  0.1355  0.9987
  587MOL0     C80895   6.158  12.287   2.702  0.0271 -0.0294 -0.2261
  587MOL0     C80896   6.141  12.421   2.771 -0.2255  0.0396 -0.0371
  587MOL0     C80897   6.195  12.175   2.780  0.9646  0.0677 -0.1632
  587MOL0     C80898   6.235  12.180   2.922 -0.4386  0.0316  0.7161
  587MOL0     O80899   6.221  12.058   2.990  0.2006  0.0558 -0.7473
  587MOL0     C80900   6.298  12.041   3.097  1.0274 -0.5217 -0.1110
  587MOL0     C80901   6.281  12.115   3.216 -0.0468  0.1199 -0.6174
  587MOL0     C80902   6.361  12.105   3.332  0.7068  0.3996 -0.3246
  587MOL0     C80903   6.464  12.005   3.335  0.2029  0.2920  0.1508
  587MOL0     O80904   6.547  11.991   3.444 -0.0654  0.1752  0.6620
  587MOL0     C80905   6.578  12.104   3.529  0.8061  0.1486  0.2586
  587MOL0     C80906   6.712  12.063   3.598 -0.5352  0.7041  0.9578
  587MOL0     C80907   6.699  11.939   3.695  0.3375 -0.8979  0.0894
  587MOL0     C80908   6.824  11.887   3.779  0.2312  0.0319 -0.0491
  587MOL0     C80909   6.766  11.768   3.872 -0.2913 -0.8461  0.2783
  587MOL0     C80910   6.862  11.720   3.986 -1.0233 -0.5325 -0.6561
  587MOL0     C80911   6.999  11.665   3.937  0.0977  0.4849  1.0597
  587MOL0     C80912   7.080  11.586   4.048  0.2063  0.3004  0.2143
  587MOL0    Cl80913   7.221  11.512   3.951 -0.1955 -0.2001 -0.1984
  587MOL0     C80914   6.465  11.912   3.227 -0.4082  0.2339 -0.5459
  587MOL0     C80915   6.388  11.929   3.112 -0.7391  0.1076  0.1017
  587MOL0     O80916   6.280  12.285   2.969 -0.9581 -0.6041 -0.7607
  587MOL0     C80917   6.201  12.057   2.709  0.0202  0.1663 -0.3186
  587MOL0     C80918   6.179  12.041   2.569  0.7684  1.1754 -0.2594
  587MOL0     N80919   5.950  12.324   1.916 -0.2577 -0.2037  0.6381
  587MOL0     N80920   6.026  12.266   1.827 -0.5680  0.8841  0.2184
  587MOL0     C80921   6.657  11.396   1.430 -0.0682  0.2521 -0.9607
  587MOL0     C80922   6.623  11.274   1.378 -0.0003  0.1976  0.1978
  587MOL0     C80923   6.386  10.947   1.154 -1.0716  0.1084 -0.2785
  587MOL0     C80924   6.262  10.928   1.223 -0.5296 -0.3935 -0.7144
  587MOL0     C80925   6.163  10.833   1.182 -0.2216 -0.5499 -0.2362
  587MOL0     C80926   6.192  10.746   1.077  0.2599 -0.9342  1.2081
  587MOL0     O80927   6.097  10.656   1.023 -0.2353 -0.4354  0.5355
  587MOL0     C80928   5.969  10.629   1.074  0.0449 -0.2100 -0.4177
  587MOL0     C80929   5.898  10.513   0.999 -0.4474  0.2162  0.6372
  587MOL0     C80930   5.937  10.368   1.039 -0.8072  0.6226 -0.0349
  587MOL0     C80931   5.896  10.333   1.185 -0.5528 -0.0846 -0.3462
  587MOL0     C80932   5.918  10.196   1.220 -0.5148 -0.5645 -0.6292
  587MOL0     C80933   5.947  10.084   1.237  0.2689  0.5503  0.0269
  587MOL0     C80934   6.317  10.766   1.013  0.4181 -0.2742 -0.2779
  587MOL0     C80935   6.412  10.865   1.045 -0.1069  0.7444 -0.4052
  587MOL0     C80936   6.528  10.861   0.946 -0.3340 -0.0455 -0.4512
  587MOL0     H80937   6.346  11.382   1.208 -0.2977  0.3199  1.2248
  587MOL0     H80938   6.426  11.591   1.279  0.7140 -1.3913 -1.4615
  587MOL0     H80939   6.460  11.598   1.579  1.4850 -1.3225 -1.1064
  587MOL0     H80940   6.454  11.742   1.484 -0.2274 -2.8685 -2.5517
  587MOL0     H80941   6.482  11.796   1.730  0.8512  1.6674  0.7041
  587MOL0     H80942   6.626  11.704   1.735 -1.1251 -0.3054  2.0915
  587MOL0     H80943   6.742  11.858   1.607 -0.6517 -2.2759  2.7701
  587MOL0     H80944   6.595  11.970   1.589 -0.4462 -0.1504 -0.0414
  587MOL0     H80945   6.723  11.882   1.851 -2.0368 -0.2523  0.7127
  587MOL0     H80946   6.762  12.027   1.760  2.5870 -2.7376 -0.0384
  587MOL0     H80947   6.614  12.058   1.948 -0.3898  1.7464 -0.1782
  587MOL0     H80948   6.520  11.913   1.893  0.2915  0.2977  0.0627
  587MOL0     H80949   6.521  12.197   1.769  1.0173  0.5515  0.2093
  587MOL0     H80950   6.424  12.059   1.695  0.2972  1.4774 -0.4845
  587MOL0     H80951   6.377  12.203   1.958  0.7698  4.2121 -2.9488
  587MOL0     H80952   6.272  12.071   1.881 -2.6897  1.0127  0.1861
  587MOL0     H80953   6.344  12.353   1.796  1.9535  0.2721  2.1714
  587MOL0     H80954   6.274  12.224   1.690 -0.4445 -0.1706  0.8673
  587MOL0     H80955   6.261  12.431   1.997  0.5642 -3.4454  0.8753
  587MOL0     H80956   5.873  12.504   2.090 -0.9936 -1.5864  2.5476
  587MOL0     H80957   6.034  12.565   2.140  0.4710 -0.6504  0.8291
  587MOL0     H80958   6.064  12.392   2.289  0.1053  2.4525 -2.8453
  587MOL0     H80959   5.886  12.410   2.315 -2.3569  0.0052 -1.5027
  587MOL0     H80960   5.830  12.233   2.188 -1.3006 -2.6466  1.9570
  587MOL0     H80961   6.002  12.186   2.150  1.9145 -0.1072  1.6210
  587MOL0     H80962   5.882  12.190   2.428 -0.1173  2.3936 -0.5948
  587MOL0     H80963   5.895  12.051   2.316  0.3898 -0.4341 -2.3609
  587MOL0     H80964   6.091  12.356   2.514 -0.3810 -0.5974  0.3091
  587MOL0     H80965   6.243  12.455   2.792  0.0373  0.4579 -1.8362
  587MOL0     H80966   6.081  12.399   2.860 -0.9522 -2.2930 -1.0293
  587MOL0     H80967   6.093  12.503   2.718 -1.5620  0.2776  1.4794
  587MOL0     H80968   6.203  12.187   3.235  0.9916  0.6694  2.0307
  587MOL0     H80969   6.338  12.166   3.418  0.9506  0.5610 -0.3730
  587MOL0     H80970   6.603  12.197   3.478  1.5278  0.7226  1.6263
  587MOL0     H80971   6.499  12.115   3.605 -0.4305 -0.3136 -0.9230
  587MOL0     H80972   6.785  12.046   3.518 -0.5611  2.3416  0.5550
  587MOL0     H80973   6.740  12.147   3.661 -4.2835  0.6150  3.0821
  587MOL0     H80974   6.688  11.854   3.627  4.1066 -3.0840  1.9170
  587MOL0     H80975   6.612  11.947   3.761  1.1525  0.4599  1.0639
  587MOL0     H80976   6.859  11.971   3.841  0.3827 -0.1130  0.0628
  587MOL0     H80977   6.909  11.847   3.722  0.1961 -0.1055 -0.0041
  587MOL0     H80978   6.677  11.800   3.926 -1.3404 -3.1054 -0.0028
  587MOL0     H80979   6.739  11.678   3.817  1.4148  0.3057 -2.6932
  587MOL0     H80980   6.817  11.636   4.039  1.6855 -1.8142 -0.2648
  587MOL0     H80981   6.883  11.804   4.053  0.7936 -1.7987  0.4533
  587MOL0     H80982   7.059  11.751   3.906  1.6565 -1.4326 -1.6936
  587MOL0     H80983   6.982  11.601   3.849 -1.4744 -0.9860  2.3507
  587MOL0     H80984   7.029  11.497   4.084  0.2298 -0.0066 -0.5027
  587MOL0     H80985   7.100  11.656   4.131  2.1484 -2.0235  1.8445
  587MOL0     H80986   6.511  11.815   3.236 -2.5159 -0.6036  3.5126
  587MOL0     H80987   6.415  11.863   3.030  3.2473  1.8490 -0.2426
  587MOL0     H80988   6.226  11.965   2.760  0.8322 -1.5135 -3.5323
  587MOL0     H80989   6.182  11.944   2.522 -2.6016  1.0319 -0.3998
  587MOL0     H80990   6.744  11.403   1.496 -0.0121  1.2384 -1.1243
  587MOL0     H80991   6.681  11.187   1.405  2.2109  1.7734  0.7736
  587MOL0     H80992   6.233  10.975   1.316 -3.3333  0.9047 -2.1239
  587MOL0     H80993   6.073  10.822   1.242  0.4883 -0.9483  0.7865
  587MOL0     H80994   5.969  10.619   1.183  0.2524 -1.0053 -0.4878
  587MOL0     H80995   5.912  10.722   1.066  1.3279  0.6639  0.1712
  587MOL0     H80996   5.927  10.527   0.895  0.6335  1.5862  1.0919
  587MOL0     H80997   5.789  10.525   1.001 -1.0096 -2.7016 -2.6691
  587MOL0     H80998   5.885  10.309   0.963 -1.9878  1.0756  0.3934
  587MOL0     H80999   6.045  10.367   1.025 -1.1418  1.5712 -3.6251
  587MOL0     H81000   5.791  10.361   1.196 -0.5118 -0.1259  0.2377
  587MOL0     H81001   5.948  10.408   1.246  2.3570 -1.4561 -0.9316
  587MOL0     H81002   5.999   9.990   1.242 -1.6348 -0.5311  0.4623
  587MOL0     H81003   6.352  10.677   0.961 -1.5118 -2.1537  1.4595
  587MOL0     H81004   6.626  10.872   0.993  0.4588 -1.1339 -1.7875
  587MOL0     H81005   6.534  10.770   0.886 -0.5420  2.1666 -4.1670
  587MOL0     H81006   6.518  10.944   0.875 -2.3880  0.3359  0.1920
  588MOL0     O81007   9.382   4.346   0.749 -0.6941  0.0705 -0.5546
  588MOL0     C81008   9.338   4.288   0.849 -0.1476 -0.4370 -0.0210
  588MOL0     O81009   9.301   4.159   0.861 -0.4107  0.1268 -0.0946
  588MOL0     C81010   9.294   4.070   0.758 -0.7982  0.6954  0.0542
  588MOL0     C81011   9.213   3.963   0.771  0.0895  0.1591  0.3000
  588MOL0     C81012   9.224   3.857   0.676  0.1449  0.2836 -0.8735
  588MOL0     C81013   9.333   3.851   0.592  0.7673 -0.7402  0.6084
  588MOL0     O81014   9.341   3.741   0.517  0.8204 -0.6334  0.0756
  588MOL0     C81015   9.447   3.652   0.557  1.0875 -0.8882  0.9794
  588MOL0     C81016   9.488   3.558   0.443 -0.6037  0.8870  0.4277
  588MOL0     C81017   9.406   3.424   0.458  0.3052  0.1023 -0.3554
  588MOL0     C81018   9.460   3.312   0.357 -0.3356  0.6167 -0.4869
  588MOL0     C81019   9.357   3.207   0.321 -0.3891  0.4347 -0.3325
  588MOL0     C81020   9.284   3.151   0.452 -1.3717  0.0611 -0.7267
  588MOL0     C81021   9.215   3.016   0.428  0.2725 -0.2457  0.0831
  588MOL0     C81022   9.125   3.019   0.299  0.2432  1.0687 -0.3953
  588MOL0     N81023   9.034   3.138   0.281  0.0093  0.4883  0.3404
  588MOL0     C81024   8.974   3.203   0.387 -0.2705 -0.8780  0.2974
  588MOL0     C81025   8.939   3.332   0.343 -0.3483  0.2215 -0.5839
  588MOL0     C81026   8.873   3.440   0.429 -0.4621  0.6765  0.0685
  588MOL0     C81027   8.966   3.506   0.529 -0.1417  0.4701  0.4626
  588MOL0     C81028   8.884   3.588   0.635 -0.1925  0.8160 -0.3400
  588MOL0     C81029   8.793   3.698   0.583  0.5928  0.7780  0.0959
  588MOL0     O81030   8.795   3.817   0.666 -0.9568  0.3068 -0.5755
  588MOL0     C81031   8.737   3.804   0.793  0.0504  0.2300  0.1945
  588MOL0     C81032   8.752   3.904   0.887  0.1693 -0.3824 -0.3854
  588MOL0     C81033   8.685   3.913   1.009 -0.3220 -0.4596  0.6000
  588MOL0     C81034   8.716   4.023   1.108 -0.3478 -0.4597  0.4032
  588MOL0     C81035   8.587   3.813   1.032  0.1037  0.7091  1.2969
  588MOL0     C81036   8.508   3.803   1.162 -0.0004 -0.3468 -0.0583
  588MOL0     O81037   8.445   3.679   1.171  0.3121 -0.7018 -0.6119
  588MOL0     C81038   8.374   3.647   1.289  0.0529  0.2788 -0.3570
  588MOL0     C81039   8.263   3.724   1.330 -0.6456 -0.1947  0.6521
  588MOL0     C81040   8.208   3.699   1.451  0.5300  0.0056  0.2456
  588MOL0     C81041   8.256   3.592   1.530 -0.1227  0.5048  0.2109
  588MOL0     O81042   8.200   3.558   1.644  0.7049 -0.6259 -0.2387
  588MOL0     C81043   8.140   3.650   1.738  1.6429  0.6525  0.5004
  588MOL0     C81044   8.078   3.567   1.860  0.1825  1.0633 -0.7488
  588MOL0     C81045   8.000   3.656   1.950  0.5896  0.2527 -0.5444
  588MOL0     C81046   7.990   3.585   2.095 -0.2564  0.1545  0.4265
  588MOL0     C81047   8.085   3.661   2.190 -0.6632 -0.5625 -0.1955
  588MOL0     C81048   8.068   3.610   2.329  0.0499  0.5247  0.1827
  588MOL0     C81049   8.009   3.697   2.436 -0.9342 -0.0501 -0.6245
  588MOL0     C81050   7.856   3.716   2.419  0.4200  1.1205  0.1976
  588MOL0    Cl81051   7.775   3.564   2.483 -0.5007 -0.0250  0.0323
  588MOL0     C81052   8.370   3.523   1.492  0.4608 -0.1159  0.0552
  588MOL0     C81053   8.430   3.551   1.373  0.6092 -0.3684 -0.3572
  588MOL0     O81054   8.496   3.893   1.247  0.2783  0.6229 -0.9195
  588MOL0     C81055   8.585   3.696   0.947  0.0662 -0.7501 -0.4214
  588MOL0     C81056   8.654   3.693   0.826  0.8990  0.8528  0.5236
  588MOL0     N81057   8.982   3.339   0.204  0.7797  0.1545 -1.2484
  588MOL0     N81058   9.038   3.225   0.174  0.6105  0.7003 -0.1453
  588MOL0     C81059   9.432   3.951   0.588 -0.7514  0.2193  0.1761
  588MOL0     C81060   9.412   4.056   0.677 -0.0919  0.2922  0.4639
  588MOL0     C81061   9.299   4.381   0.954  0.0649 -0.4535  0.4353
  588MOL0     C81062   9.185   4.358   1.029 -0.7463  1.0825 -0.8753
  588MOL0     C81063   9.134   4.447   1.118 -0.0240 -0.0531  0.1445
  588MOL0     C81064   9.201   4.563   1.149  0.3836  0.4710  0.2408
  588MOL0     O81065   9.157   4.654   1.236  0.3298  0.2960  0.3062
  588MOL0     C81066   9.080   4.609   1.353  0.2566  0.8714  1.5850
  588MOL0     C81067   9.122   4.666   1.492 -0.8669 -0.4422  0.5156
  588MOL0     C81068   9.144   4.820   1.473 -0.0041  0.3955  0.4548
  588MOL0     C81069   9.190   4.891   1.597 -0.1488  0.3248 -0.3054
  588MOL0     C81070   9.060   4.925   1.663  0.2521  1.4019 -0.0457
  588MOL0     C81071   8.971   4.957   1.733 -0.3564 -0.2664 -0.3945
  588MOL0     C81072   9.318   4.603   1.070 -0.0885  0.0199 -0.1381
  588MOL0     C81073   9.363   4.506   0.975  0.2361 -0.3184  1.0140
  588MOL0     C81074   9.488   4.549   0.897 -0.0426 -0.4304  0.8627
  588MOL0     H81075   9.139   3.962   0.850  1.1980  0.0232  1.3481
  588MOL0     H81076   9.156   3.773   0.678 -0.4759  0.7861 -0.1422
  588MOL0     H81077   9.402   3.599   0.641 -0.3851 -1.1149  0.0842
  588MOL0     H81078   9.536   3.713   0.575  0.9471  0.0983 -1.3381
  588MOL0     H81079   9.463   3.593   0.342 -2.7609 -2.5727 -0.3984
  588MOL0     H81080   9.595   3.538   0.452 -0.4771  2.0240  1.7819
  588MOL0     H81081   9.429   3.383   0.556 -3.4774 -1.4761  0.0251
  588MOL0     H81082   9.301   3.454   0.460 -0.1503 -1.3388 -1.1908
  588MOL0     H81083   9.509   3.358   0.270  3.0699 -0.3834  0.7297
  588MOL0     H81084   9.541   3.254   0.402  1.9153  2.2125 -2.2481
  588MOL0     H81085   9.405   3.129   0.262 -1.7462 -1.3245  0.7468
  588MOL0     H81086   9.276   3.257   0.266 -0.3509 -0.1540 -0.9291
  588MOL0     H81087   9.361   3.132   0.528  0.2941 -0.2666 -2.4201
  588MOL0     H81088   9.224   3.231   0.495  1.0805  1.4738  0.2933
  588MOL0     H81089   9.150   2.996   0.514 -1.0576  1.1537 -0.5579
  588MOL0     H81090   9.279   2.927   0.433  0.3389 -0.1321  2.8702
  588MOL0     H81091   9.191   3.021   0.212  2.6129  1.0876  1.3318
  588MOL0     H81092   9.071   2.924   0.303  1.2186  0.5117 -0.2571
  588MOL0     H81093   8.957   3.163   0.487 -0.7526  0.4014  0.7455
  588MOL0     H81094   8.794   3.394   0.489 -0.1469  0.2861  0.1921
  588MOL0     H81095   8.834   3.514   0.358  1.3993 -0.8027 -2.6959
  588MOL0     H81096   9.029   3.433   0.582  0.9033  0.0018 -1.3520
  588MOL0     H81097   9.032   3.571   0.471  0.9611 -1.8557 -1.0484
  588MOL0     H81098   8.832   3.508   0.689  4.0620 -0.9583  1.6243
  588MOL0     H81099   8.948   3.626   0.715  2.5449 -2.3958 -0.7715
  588MOL0     H81100   8.832   3.723   0.484  1.4450 -1.7821 -0.3148
  588MOL0     H81101   8.690   3.661   0.574 -0.2963  2.4716  2.2809
  588MOL0     H81102   8.827   3.978   0.860  0.0893 -0.3717 -0.5776
  588MOL0     H81103   8.756   3.990   1.204 -2.5438 -1.8947  0.8976
  588MOL0     H81104   8.641   4.102   1.120 -0.4319 -0.6558  1.2688
  588MOL0     H81105   8.799   4.078   1.063  0.3022  0.4416  2.5850
  588MOL0     H81106   8.221   3.799   1.264 -0.2410 -1.1703 -0.7862
  588MOL0     H81107   8.112   3.738   1.480 -1.5189 -3.4990 -1.2074
  588MOL0     H81108   8.210   3.723   1.781  3.2716  0.7572 -2.1032
  588MOL0     H81109   8.059   3.703   1.687  1.7185  0.4405  0.1593
  588MOL0     H81110   8.000   3.495   1.833 -1.9307  0.9759  4.4173
  588MOL0     H81111   8.148   3.508   1.920 -4.5729 -2.2134  2.2987
  588MOL0     H81112   7.892   3.659   1.929 -0.0948  0.5562  2.5037
  588MOL0     H81113   8.037   3.759   1.941  1.0281  0.5757  3.3669
  588MOL0     H81114   8.024   3.481   2.104 -1.6552 -0.3411  0.2599
  588MOL0     H81115   7.883   3.581   2.117 -0.4656  1.6901 -0.1781
  588MOL0     H81116   8.183   3.634   2.150 -0.6394  2.3152 -2.4001
  588MOL0     H81117   8.070   3.768   2.172  0.0246 -0.3082  0.6783
  588MOL0     H81118   8.169   3.573   2.349  1.3860  2.7193 -1.9982
  588MOL0     H81119   8.005   3.521   2.322  0.4298  0.2832 -0.2599
  588MOL0     H81120   8.056   3.796   2.434  0.8603 -0.8559 -0.3973
  588MOL0     H81121   8.032   3.645   2.529 -0.8994  0.5089 -0.3144
  588MOL0     H81122   7.840   3.741   2.314 -0.8104  0.6740  0.2568
  588MOL0     H81123   7.812   3.797   2.478 -0.3384 -0.3262  1.6806
  588MOL0     H81124   8.406   3.440   1.551  0.3985  1.2799  2.1846
  588MOL0     H81125   8.519   3.493   1.356  1.4004 -0.8655  4.2875
  588MOL0     H81126   8.511   3.619   0.961 -0.4200 -0.3471 -0.7468
  588MOL0     H81127   8.641   3.603   0.766  0.4251  0.5075  1.1424
  588MOL0     H81128   9.522   3.928   0.533 -0.4534 -2.8820  1.7193
  588MOL0     H81129   9.489   4.130   0.692 -1.3012  1.9086 -0.9570
  588MOL0     H81130   9.133   4.263   1.013 -1.1467  1.1638 -0.1024
  588MOL0     H81131   9.044   4.420   1.173  2.3836 -1.3946  3.7516
  588MOL0     H81132   8.979   4.633   1.318  1.0525 -1.1422 -2.7374
  588MOL0     H81133   9.081   4.500   1.362  0.8623  0.9607  2.9585
  588MOL0     H81134   9.220   4.626   1.519 -0.6877 -0.9985 -0.8702
  588MOL0     H81135   9.050   4.656   1.574  2.0297  1.9124  3.6660
  588MOL0     H81136   9.223   4.834   1.399 -0.3822  1.1976  0.1794
  588MOL0     H81137   9.055   4.864   1.427  0.2536  1.9857  1.3708
  588MOL0     H81138   9.253   4.976   1.570 -0.2810 -0.0345 -1.8814
  588MOL0     H81139   9.247   4.820   1.658  1.3885  2.0913  0.3923
  588MOL0     H81140   8.896   4.998   1.798  0.9340  2.2567 -0.3829
  588MOL0     H81141   9.358   4.701   1.091 -1.2153  0.5422 -0.3385
  588MOL0     H81142   9.570   4.478   0.908  1.8359  1.5059  0.0548
  588MOL0     H81143   9.473   4.551   0.789  1.3034  1.4044  0.6537
  588MOL0     H81144   9.524   4.647   0.930 -2.0326  0.5177  0.3668
  589MOL0     O81145   3.686   3.470   0.266 -0.1061 -0.3881  0.3135
  589MOL0     C81146   3.596   3.404   0.308 -0.3344  0.6208  0.3059
  589MOL0     O81147   3.601   3.266   0.313 -0.1811  0.1141 -0.5629
  589MOL0     C81148   3.720   3.214   0.349  1.1516  0.0443  0.5172
  589MOL0     C81149   3.808   3.172   0.250  1.0444  0.1111  0.4670
  589MOL0     C81150   3.930   3.118   0.286  0.4005  0.1062 -0.1740
  589MOL0     C81151   3.961   3.103   0.420 -0.5878  0.3608 -0.3659
  589MOL0     O81152   4.086   3.050   0.453 -0.6011 -0.6593 -0.5968
  589MOL0     C81153   4.175   3.124   0.543 -0.6835 -0.1424 -0.0323
  589MOL0     C81154   4.312   3.115   0.475  1.1419 -0.0732 -1.1418
  589MOL0     C81155   4.313   3.200   0.351  0.7042  0.1574 -0.2407
  589MOL0     C81156   4.436   3.180   0.258 -1.3527 -0.5861 -0.2483
  589MOL0     C81157   4.450   3.322   0.182  0.5505  0.3426  0.2189
  589MOL0     C81158   4.556   3.305   0.063 -0.1139  0.4847 -0.0164
  589MOL0     C81159   4.600   3.436  -0.009  0.9161  0.0690  0.2620
  589MOL0     C81160   4.468   3.507  -0.070 -0.0976  0.2669  0.0003
  589MOL0     N81161   4.383   3.579   0.022 -0.3862 -0.4602  0.4085
  589MOL0     C81162   4.251   3.584   0.009  0.1713  0.4170 -0.0952
  589MOL0     C81163   4.205   3.645   0.126 -0.5126  0.2852  0.0814
  589MOL0     C81164   4.058   3.635   0.175  0.3536 -0.3212  0.1529
  589MOL0     C81165   4.028   3.503   0.246 -0.0247 -0.0793  0.1025
  589MOL0     C81166   3.962   3.531   0.383 -0.3970  0.4207 -0.2735
  589MOL0     C81167   4.072   3.578   0.478 -0.2719 -0.6804 -0.2511
  589MOL0     O81168   4.006   3.679   0.564 -0.1412  0.0262  0.8676
  589MOL0     C81169   3.929   3.620   0.662  0.1430  0.4631  0.0645
  589MOL0     C81170   3.798   3.619   0.646  0.3681 -0.2311  0.2220
  589MOL0     C81171   3.710   3.560   0.738  0.3143  0.8740  0.1147
  589MOL0     C81172   3.569   3.530   0.695  0.1833  0.6221  1.0680
  589MOL0     C81173   3.763   3.508   0.860 -0.2505 -0.4079 -0.1241
  589MOL0     C81174   3.676   3.457   0.979  0.6133  0.2045 -0.5593
  589MOL0     O81175   3.741   3.394   1.078  0.1664  0.3235  0.1859
  589MOL0     C81176   3.698   3.418   1.207  0.7103  0.2248 -0.0557
  589MOL0     C81177   3.681   3.552   1.255  0.8054  0.4013  0.7960
  589MOL0     C81178   3.665   3.573   1.392 -0.2260  0.0175 -0.2557
  589MOL0     C81179   3.665   3.462   1.486  0.0471  0.0407 -0.8810
  589MOL0     O81180   3.650   3.498   1.618  0.1467  0.2245  0.1438
  589MOL0     C81181   3.643   3.393   1.711 -0.3129  0.5890 -0.1290
  589MOL0     C81182   3.630   3.448   1.849  0.0553 -0.3110 -0.6275
  589MOL0     C81183   3.739   3.394   1.952 -0.0320 -0.8551  0.0287
  589MOL0     C81184   3.879   3.444   1.954 -0.0675  1.0032 -0.2776
  589MOL0     C81185   3.966   3.366   2.050  0.0549  0.0679 -0.0203
  589MOL0     C81186   4.042   3.256   1.980 -0.5315 -0.6375 -0.4242
  589MOL0     C81187   4.091   3.146   2.076 -0.4640 -1.1813 -0.0896
  589MOL0     C81188   4.220   3.180   2.158 -0.3312  0.0920 -0.3853
  589MOL0    Cl81189   4.356   3.165   2.043  0.4729  0.1981 -0.6007
  589MOL0     C81190   3.688   3.337   1.438 -0.4287  0.0989 -0.7377
  589MOL0     C81191   3.711   3.315   1.301  0.4209  0.4515  1.0657
  589MOL0     O81192   3.553   3.460   0.980  0.0696  0.4848 -0.2514
  589MOL0     C81193   3.903   3.522   0.884  0.0044 -0.4647  0.0109
  589MOL0     C81194   3.985   3.588   0.786 -0.6410  1.2931 -0.7584
  589MOL0     N81195   4.315   3.687   0.197 -0.1010  0.3297  0.2029
  589MOL0     N81196   4.428   3.653   0.129 -0.5031 -0.1630  0.4352
  589MOL0     C81197   3.865   3.144   0.521 -0.5173  0.5190 -0.1950
  589MOL0     C81198   3.744   3.195   0.489 -0.1226  0.4736 -0.3557
  589MOL0     C81199   3.462   3.465   0.329 -0.3065  0.2100  0.4023
  589MOL0     C81200   3.434   3.590   0.266  0.0952 -0.7217 -0.3781
  589MOL0     C81201   3.305   3.649   0.277 -0.0620  0.7280  0.0105
  589MOL0     C81202   3.203   3.586   0.346 -0.2684  0.8709 -0.1403
  589MOL0     O81203   3.079   3.644   0.335 -0.6051  0.1710 -0.1629
  589MOL0     C81204   2.959   3.567   0.371  0.9771  0.8110 -1.3243
  589MOL0     C81205   2.834   3.640   0.331 -0.2029  1.0238 -0.4530
  589MOL0     C81206   2.792   3.630   0.188  0.2958  0.1097 -0.0363
  589MOL0     C81207   2.739   3.773   0.142 -0.1088  0.0854  1.1999
  589MOL0     C81208   2.602   3.797   0.190 -0.2778 -0.6769 -0.6549
  589MOL0     C81209   2.506   3.799   0.270 -0.2067 -0.4463  0.5119
  589MOL0     C81210   3.227   3.454   0.395 -0.2934  0.9551  0.6342
  589MOL0     C81211   3.352   3.401   0.393  0.4780  0.6915  0.9439
  589MOL0     C81212   3.385   3.295   0.489  1.1082  1.5167 -0.2568
  589MOL0     H81213   3.780   3.186   0.146 -0.2094  1.7741  0.9860
  589MOL0     H81214   3.999   3.078   0.212 -0.6011 -3.5294  0.6885
  589MOL0     H81215   4.189   3.069   0.636 -1.2059 -2.2769 -1.1276
  589MOL0     H81216   4.141   3.224   0.570 -1.3265 -1.0073  2.6000
  589MOL0     H81217   4.386   3.172   0.531 -1.0796  1.5028  0.3957
  589MOL0     H81218   4.335   3.012   0.448  4.3588  0.5855 -1.3148
  589MOL0     H81219   4.215   3.191   0.305  0.0696  3.2475  0.3070
  589MOL0     H81220   4.319   3.307   0.372  1.4851  0.3143 -1.1876
  589MOL0     H81221   4.525   3.180   0.321 -0.4916 -0.5117 -1.4113
  589MOL0     H81222   4.428   3.101   0.182  2.8414  0.2108 -1.7944
  589MOL0     H81223   4.492   3.395   0.251  0.4232 -1.1831  1.9857
  589MOL0     H81224   4.354   3.350   0.137  1.2791  2.1639 -0.2954
  589MOL0     H81225   4.651   3.271   0.105  1.0382  2.3187 -1.0370
  589MOL0     H81226   4.514   3.234  -0.010  0.0432  2.9046 -2.6213
  589MOL0     H81227   4.687   3.432  -0.075  1.6641 -0.0998  1.2268
  589MOL0     H81228   4.632   3.504   0.071  0.3444  1.7931 -0.9307
  589MOL0     H81229   4.511   3.566  -0.151  2.8594  2.5720  2.9706
  589MOL0     H81230   4.408   3.428  -0.117 -0.0959  0.7649 -0.8675
  589MOL0     H81231   4.190   3.541  -0.070 -1.3672  1.5283  0.4405
  589MOL0     H81232   3.988   3.666   0.098  1.8508  2.7099 -0.1302
  589MOL0     H81233   4.050   3.719   0.244 -2.7300  0.1959 -0.7212
  589MOL0     H81234   3.959   3.441   0.189 -1.8067  1.6619  0.2731
  589MOL0     H81235   4.118   3.444   0.268  0.5030  0.7701  0.2630
  589MOL0     H81236   3.878   3.598   0.369 -2.0480 -2.0432 -3.4219
  589MOL0     H81237   3.912   3.437   0.410 -2.1271  1.1904 -0.6906
  589MOL0     H81238   4.108   3.490   0.532  1.2582  1.7271  2.9985
  589MOL0     H81239   4.159   3.629   0.434 -0.5021 -0.1373 -0.0909
  589MOL0     H81240   3.749   3.656   0.556  0.3248 -1.2053 -0.1636
  589MOL0     H81241   3.550   3.534   0.587  2.2794 -2.0156  0.5092
  589MOL0     H81242   3.496   3.593   0.747 -0.5846  0.2682  0.4497
  589MOL0     H81243   3.542   3.429   0.727  3.0224 -0.6723 -0.2996
  589MOL0     H81244   3.657   3.636   1.190  0.0926 -1.4226 -1.4375
  589MOL0     H81245   3.650   3.675   1.425  1.1334 -0.0115  0.5102
  589MOL0     H81246   3.565   3.323   1.682  0.8889  0.1380 -2.4444
  589MOL0     H81247   3.734   3.333   1.718 -0.5898  0.2499  0.7899
  589MOL0     H81248   3.667   3.550   1.848  0.5201 -0.4758 -0.2744
  589MOL0     H81249   3.528   3.439   1.889  0.0364  1.1641 -0.3180
  589MOL0     H81250   3.734   3.285   1.965 -0.4242 -0.8404  0.0317
  589MOL0     H81251   3.697   3.442   2.041 -1.3184 -0.8334 -0.5569
  589MOL0     H81252   3.857   3.542   1.999 -1.1054 -0.5845  3.0186
  589MOL0     H81253   3.923   3.453   1.855  4.8432  2.9156  1.7633
  589MOL0     H81254   4.033   3.439   2.094  1.7444 -1.1199 -0.5270
  589MOL0     H81255   3.898   3.325   2.126 -0.6955 -0.5385 -0.9872
  589MOL0     H81256   4.131   3.290   1.926 -1.3538 -0.3692 -1.6613
  589MOL0     H81257   3.976   3.215   1.902 -0.9389  2.7650 -2.0587
  589MOL0     H81258   4.109   3.048   2.031 -1.7790 -1.3274 -0.3571
  589MOL0     H81259   4.011   3.106   2.139  2.4985 -4.2012  2.0922
  589MOL0     H81260   4.248   3.111   2.238  3.7923 -0.2810 -1.9046
  589MOL0     H81261   4.226   3.286   2.187  2.7704  0.2608 -1.2527
  589MOL0     H81262   3.660   3.249   1.496 -1.0641 -0.5507 -2.0058
  589MOL0     H81263   3.724   3.214   1.262  2.7921  2.5213 -4.6410
  589MOL0     H81264   3.969   3.505   0.969 -0.4368 -1.1612  0.2286
  589MOL0     H81265   4.087   3.614   0.809 -0.7403  2.5761 -1.6932
  589MOL0     H81266   3.878   3.138   0.629  0.2047  3.2217 -0.0449
  589MOL0     H81267   3.671   3.221   0.565 -0.7530  3.3029 -1.8156
  589MOL0     H81268   3.514   3.640   0.212 -0.4642 -1.1468 -1.6587
  589MOL0     H81269   3.292   3.749   0.237  1.8693  0.6458 -0.9912
  589MOL0     H81270   2.945   3.474   0.315 -6.2809  1.1756 -0.9648
  589MOL0     H81271   2.951   3.531   0.474 -1.3991 -0.4259 -1.8560
  589MOL0     H81272   2.840   3.739   0.378 -2.6628 -0.3508  3.1422
  589MOL0     H81273   2.756   3.595   0.393 -0.9385  3.1595  0.2764
  589MOL0     H81274   2.873   3.607   0.119  0.2259  2.9284 -1.2261
  589MOL0     H81275   2.714   3.555   0.172 -1.2112  1.0045  2.4166
  589MOL0     H81276   2.733   3.769   0.032  0.5996 -1.4484  1.2043
  589MOL0     H81277   2.812   3.851   0.165  0.1270  0.4463 -0.5866
  589MOL0     H81278   2.435   3.818   0.348  0.1271  1.1249  0.4757
  589MOL0     H81279   3.139   3.405   0.437 -1.9327  2.2920 -1.0953
  589MOL0     H81280   3.466   3.314   0.560 -0.6402  0.8990  2.0292
  589MOL0     H81281   3.301   3.281   0.557  2.4078  1.5256  1.4322
  589MOL0     H81282   3.408   3.201   0.439  1.3879  0.6627  1.4119
  590MOL0     O81283   0.232  10.450   9.527  0.5924 -0.5483  0.3116
  590MOL0     C81284   0.126  10.446   9.457  0.0721 -0.5086 -0.3758
  590MOL0     O81285   0.074  10.338   9.384 -0.3606 -0.4440 -0.2370
  590MOL0     C81286   0.165  10.238   9.375 -0.2851 -0.6601 -0.2928
  590MOL0     C81287   0.128  10.114   9.421  0.5318 -0.8918 -0.2139
  590MOL0     C81288   0.210  10.006   9.400  0.7539  0.0127  0.1215
  590MOL0     C81289   0.323  10.013   9.324 -0.3852 -0.0992 -0.3963
  590MOL0     O81290   0.408   9.906   9.299 -0.1195 -0.4801  0.0850
  590MOL0     C81291   0.375   9.855   9.176  0.5526  0.1677 -0.6502
  590MOL0     C81292   0.506   9.800   9.109 -0.4887 -0.3716  0.7284
  590MOL0     C81293   0.499   9.773   8.949  0.8388  0.3398  0.0466
  590MOL0     C81294   0.591   9.659   8.914 -0.1402 -0.0131  0.0839
  590MOL0     C81295   0.603   9.642   8.770  0.3866 -0.0415 -0.4834
  590MOL0     C81296   0.472   9.592   8.711 -0.6531  0.0798  0.7565
  590MOL0     C81297   0.494   9.545   8.558  0.9044 -0.5992 -0.2225
  590MOL0     C81298   0.538   9.661   8.467 -0.0591  0.3038 -0.1597
  590MOL0     N81299   0.591   9.602   8.348 -0.4206 -1.4142 -0.7405
  590MOL0     C81300   0.702   9.649   8.280  0.1458 -0.3642 -0.2340
  590MOL0     C81301   0.693   9.582   8.162 -0.2493  0.4722  0.6772
  590MOL0     C81302   0.804   9.605   8.058  0.0470 -0.0453  0.4995
  590MOL0     C81303   0.927   9.533   8.103  0.6859 -0.4128  0.2429
  590MOL0     C81304   0.908   9.376   8.094  0.2532 -0.5008  0.0973
  590MOL0     C81305   0.944   9.314   7.959 -0.8501  0.4324 -0.7093
  590MOL0     O81306   1.081   9.298   7.961 -0.1048 -0.1263  0.5236
  590MOL0     C81307   1.126   9.215   7.855  0.0687 -0.5885  0.0265
  590MOL0     C81308   1.103   9.074   7.842 -0.5143 -0.5859 -0.5273
  590MOL0     C81309   1.147   9.012   7.718 -0.2917 -0.5471  0.0330
  590MOL0     C81310   1.113   8.870   7.697  0.2890  0.0116  0.2535
  590MOL0     C81311   1.229   9.074   7.625  0.1025 -0.6835 -0.0566
  590MOL0     C81312   1.296   9.009   7.505  1.2038 -0.9522  0.0359
  590MOL0     O81313   1.296   9.085   7.385 -0.0255  0.1163 -0.6035
  590MOL0     C81314   1.362   9.047   7.268  0.6591 -1.0545 -0.4775
  590MOL0     C81315   1.375   9.156   7.174 -0.2600 -0.4603  0.1081
  590MOL0     C81316   1.448   9.148   7.048  0.8963 -0.2258  1.0557
  590MOL0     C81317   1.483   9.014   7.017 -0.8270  0.4660 -0.1689
  590MOL0     O81318   1.538   8.968   6.896  0.3705 -0.3863 -0.0972
  590MOL0     C81319   1.513   9.046   6.779 -0.6626  0.9817 -0.2808
  590MOL0     C81320   1.608   8.995   6.689  0.0758  0.4657  0.3560
  590MOL0     C81321   1.616   9.086   6.567 -0.4212  0.0953 -0.0175
  590MOL0     C81322   1.662   9.232   6.587  0.7818 -0.7470 -0.1505
  590MOL0     C81323   1.705   9.297   6.456  1.0334  0.2546 -0.3162
  590MOL0     C81324   1.850   9.267   6.420 -0.0842 -0.5483 -0.3523
  590MOL0     C81325   1.898   9.312   6.286 -0.8408  0.5174  1.0970
  590MOL0     C81326   1.856   9.456   6.248  0.0322  0.2218 -0.9136
  590MOL0    Cl81327   1.921   9.517   6.104  0.4231 -0.2292 -0.0958
  590MOL0     C81328   1.484   8.916   7.109 -0.0226  0.1229  1.0560
  590MOL0     C81329   1.418   8.924   7.237 -1.0485  0.3645 -0.1328
  590MOL0     O81330   1.351   8.901   7.524 -0.5009  0.6247  0.3002
  590MOL0     C81331   1.242   9.215   7.639  1.1436  1.3953  0.2217
  590MOL0     C81332   1.194   9.277   7.750 -0.6071  0.0947  0.2467
  590MOL0     N81333   0.578   9.497   8.156 -0.8183  0.6167  0.6088
  590MOL0     N81334   0.527   9.511   8.275 -0.6713  0.5217  1.1282
  590MOL0     C81335   0.366  10.138   9.287 -0.3513  0.6083  0.7072
  590MOL0     C81336   0.289  10.249   9.307  0.3203  0.1658  0.2598
  590MOL0     C81337   0.059  10.578   9.435 -0.0763 -0.2492 -0.3730
  590MOL0     C81338  -0.063  10.585   9.370  0.7698 -0.1091  0.7915
  590MOL0     C81339  -0.128  10.707   9.341  0.7653  0.1287 -0.4307
  590MOL0     C81340  -0.083  10.829   9.373 -0.4639 -0.5716 -1.1942
  590MOL0     O81341  -0.140  10.946   9.338 -0.5401  0.3839  0.2373
  590MOL0     C81342  -0.279  10.942   9.291 -0.1132  0.8879 -0.6735
  590MOL0     C81343  -0.354  11.070   9.322  1.0968 -0.8089 -0.9463
  590MOL0     C81344  -0.283  11.193   9.255 -0.4981 -0.2228 -0.1804
  590MOL0     C81345  -0.382  11.315   9.257 -0.4709  0.4423  0.0935
  590MOL0     C81346  -0.484  11.305   9.154 -0.2355  1.0176  0.4456
  590MOL0     C81347  -0.580  11.311   9.074  0.3955  0.9642 -0.2871
  590MOL0     C81348   0.042  10.825   9.434  0.8117 -0.0141 -0.5228
  590MOL0     C81349   0.112  10.707   9.472  0.1596  0.3007  0.9582
  590MOL0     C81350   0.246  10.722   9.547  0.7675 -0.5434  1.3649
  590MOL0     H81351   0.038  10.112   9.481  0.4253 -1.6632 -0.3851
  590MOL0     H81352   0.192   9.906   9.439 -0.0940  0.7370  1.6850
  590MOL0     H81353   0.309   9.905   9.105  0.9975 -3.5434 -4.0550
  590MOL0     H81354   0.319   9.764   9.201  1.5738 -0.3219 -0.0877
  590MOL0     H81355   0.583   9.878   9.116 -2.3329  1.5040  1.4149
  590MOL0     H81356   0.540   9.716   9.170 -1.3939 -0.3735  1.2418
  590MOL0     H81357   0.398   9.741   8.920  0.9367 -0.5102  0.6077
  590MOL0     H81358   0.514   9.866   8.892 -0.5976  1.0351  0.7563
  590MOL0     H81359   0.691   9.688   8.949  1.3566 -2.9712 -1.3661
  590MOL0     H81360   0.566   9.565   8.964  0.5841 -0.2254  0.0683
  590MOL0     H81361   0.683   9.570   8.752  0.8469  0.1160  0.8799
  590MOL0     H81362   0.634   9.737   8.726 -2.2877  0.5628 -1.2833
  590MOL0     H81363   0.445   9.508   8.776  2.4159  2.1661  5.2464
  590MOL0     H81364   0.402   9.675   8.718 -0.6675  0.0051  1.7109
  590MOL0     H81365   0.396   9.512   8.521 -0.0052  1.3358  0.3089
  590MOL0     H81366   0.557   9.456   8.568 -0.2320 -1.3893  0.2413
  590MOL0     H81367   0.445   9.716   8.449 -0.6454 -1.4536 -3.0422
  590MOL0     H81368   0.609   9.726   8.519 -1.9326  1.2380  1.3599
  590MOL0     H81369   0.778   9.718   8.315  1.5012 -1.5794 -0.7039
  590MOL0     H81370   0.814   9.714   8.060  0.4358  0.2392 -4.7901
  590MOL0     H81371   0.775   9.571   7.959  0.3374 -1.0197  0.7419
  590MOL0     H81372   1.009   9.550   8.033  0.7023 -0.6816  0.1965
  590MOL0     H81373   0.959   9.555   8.205  1.6895 -1.5182  0.1855
  590MOL0     H81374   0.955   9.325   8.179 -1.8850  1.5690  2.6686
  590MOL0     H81375   0.805   9.342   8.109  0.2181  0.1624  1.5407
  590MOL0     H81376   0.896   9.215   7.958 -1.6555  0.8146 -0.2585
  590MOL0     H81377   0.917   9.370   7.869 -0.8469  2.4253  0.4752
  590MOL0     H81378   1.055   9.024   7.925  2.2110  1.1441  2.3268
  590MOL0     H81379   1.204   8.810   7.698  0.9514  0.9989  1.7734
  590MOL0     H81380   1.070   8.871   7.596  1.4125 -0.3175 -0.2367
  590MOL0     H81381   1.047   8.834   7.777  0.2624  0.8729  0.6266
  590MOL0     H81382   1.323   9.244   7.209  0.6168  0.0214  0.2308
  590MOL0     H81383   1.444   9.221   6.968 -3.3866 -3.1527 -1.8299
  590MOL0     H81384   1.410   9.041   6.744 -0.6066 -1.4347 -0.3305
  590MOL0     H81385   1.542   9.149   6.799 -0.6456  0.4725  2.8139
  590MOL0     H81386   1.705   8.985   6.739  0.1858 -5.0022 -0.3931
  590MOL0     H81387   1.587   8.894   6.653  2.7387 -0.7526  1.9370
  590MOL0     H81388   1.519   9.085   6.516 -1.5574 -0.5981  1.9935
  590MOL0     H81389   1.691   9.043   6.501 -0.6867  1.4958 -1.2910
  590MOL0     H81390   1.741   9.243   6.661 -1.3505  0.0078  2.1445
  590MOL0     H81391   1.571   9.282   6.622 -0.5664 -3.7785  0.9581
  590MOL0     H81392   1.633   9.265   6.380 -0.3872  3.6135 -0.5407
  590MOL0     H81393   1.699   9.406   6.465  0.0965  0.1963 -0.1188
  590MOL0     H81394   1.874   9.162   6.443  1.1204 -0.3626 -0.7022
  590MOL0     H81395   1.912   9.319   6.494 -0.2411 -2.7073  1.4080
  590MOL0     H81396   1.860   9.246   6.208 -2.9363  2.9564 -0.0915
  590MOL0     H81397   2.007   9.298   6.283 -0.9241 -0.0752  0.6409
  590MOL0     H81398   1.886   9.516   6.334  2.0466  0.4893 -1.7299
  590MOL0     H81399   1.747   9.463   6.243 -0.1337 -0.8490  0.3466
  590MOL0     H81400   1.540   8.823   7.107 -1.8021 -0.9705  0.1831
  590MOL0     H81401   1.433   8.841   7.304 -2.5067  0.1683 -0.0037
  590MOL0     H81402   1.276   9.292   7.569  1.6951  1.8217  0.9484
  590MOL0     H81403   1.209   9.384   7.752  0.7263 -0.0524 -0.2856
  590MOL0     H81404   0.463  10.151   9.242 -0.5240  2.5104  0.8052
  590MOL0     H81405   0.307  10.346   9.261 -0.4925 -0.2500 -1.0076
  590MOL0     H81406  -0.111  10.491   9.347  1.1994 -0.0242 -0.5860
  590MOL0     H81407  -0.213  10.687   9.276 -0.3427 -0.4493  1.1340
  590MOL0     H81408  -0.273  10.928   9.182  1.6100 -1.2111 -0.3866
  590MOL0     H81409  -0.338  10.863   9.339 -0.0689  0.4365 -1.3385
  590MOL0     H81410  -0.354  11.082   9.430 -0.1635 -0.3263 -0.9854
  590MOL0     H81411  -0.454  11.057   9.281  0.5743 -0.3671  0.1462
  590MOL0     H81412  -0.191  11.232   9.301 -0.9615 -0.9986  1.4902
  590MOL0     H81413  -0.250  11.181   9.152 -0.1479  1.1405 -0.2452
  590MOL0     H81414  -0.338  11.415   9.256  2.7498 -0.7571  2.6871
  590MOL0     H81415  -0.434  11.316   9.353  2.8700  0.5668  2.0432
  590MOL0     H81416  -0.659  11.298   9.003  1.8033  0.5432 -1.8565
  590MOL0     H81417   0.081  10.925   9.447  1.0355 -0.3554  1.9340
  590MOL0     H81418   0.273  10.826   9.570 -0.5367  0.6321 -1.7565
  590MOL0     H81419   0.252  10.660   9.636 -0.6223  0.7364  2.4009
  590MOL0     H81420   0.325  10.695   9.477  0.1840  1.2114 -0.0670
  591MOL0     O81421   5.744   2.021   5.019 -0.4724 -0.2706  0.0228
  591MOL0     C81422   5.654   2.093   5.049  0.1115 -0.4248  0.1024
  591MOL0     O81423   5.674   2.222   5.091  0.1626 -0.3064  0.6731
  591MOL0     C81424   5.803   2.284   5.075  0.1347  0.4016 -0.3548
  591MOL0     C81425   5.837   2.318   4.946 -0.8553 -0.6358  1.0731
  591MOL0     C81426   5.959   2.377   4.920  0.4560  0.1773 -0.5586
  591MOL0     C81427   6.056   2.377   5.025  0.3316 -0.0396  0.7077
  591MOL0     O81428   6.179   2.435   5.002 -1.1041  0.2282  0.1996
  591MOL0     C81429   6.217   2.556   5.068  0.2520 -0.5984  0.2723
  591MOL0     C81430   6.307   2.550   5.190 -0.9791  0.3144 -0.6105
  591MOL0     C81431   6.450   2.553   5.151 -0.2510 -0.0373 -0.4941
  591MOL0     C81432   6.494   2.461   5.045  0.2958  0.5911  0.6090
  591MOL0     C81433   6.648   2.488   5.027  0.0709  0.8952  0.1510
  591MOL0     C81434   6.728   2.393   5.134  0.0092  0.2882  0.2323
  591MOL0     C81435   6.876   2.432   5.132  0.8760  0.3710  0.0521
  591MOL0     C81436   6.946   2.362   5.019  0.1520  1.1441  0.5734
  591MOL0     N81437   7.085   2.397   5.006  0.0379 -0.1220  0.5945
  591MOL0     C81438   7.192   2.327   5.053 -0.5924  0.2636 -0.3919
  591MOL0     C81439   7.294   2.404   5.029 -0.8231 -0.4390  0.5270
  591MOL0     C81440   7.441   2.380   5.058  0.6547 -0.4557  0.1881
  591MOL0     C81441   7.496   2.276   4.954  0.4816  0.1405 -0.4314
  591MOL0     C81442   7.651   2.261   4.946  0.3810  0.5272  0.0028
  591MOL0     C81443   7.685   2.179   4.818 -1.1817  0.3415 -0.4992
  591MOL0     O81444   7.768   2.066   4.867  0.2065 -0.5327  0.0616
  591MOL0     C81445   7.877   2.048   4.790 -0.5685 -0.9613 -0.2930
  591MOL0     C81446   7.868   1.948   4.697 -0.2970  0.2332  0.0235
  591MOL0     C81447   7.969   1.937   4.593  1.3290  2.0730 -0.6285
  591MOL0     C81448   7.932   1.817   4.509 -0.6092  0.4867  1.0096
  591MOL0     C81449   8.082   2.023   4.589  0.1526  0.4051  0.5779
  591MOL0     C81450   8.186   2.021   4.489 -0.9903  0.3185  0.3536
  591MOL0     O81451   8.290   2.110   4.496  0.1152 -0.0350  0.6757
  591MOL0     C81452   8.387   2.109   4.408 -0.5850 -0.0221  0.2771
  591MOL0     C81453   8.431   2.239   4.363  0.4651  0.2437  0.3172
  591MOL0     C81454   8.537   2.257   4.265 -0.3150 -0.2380 -1.1861
  591MOL0     C81455   8.600   2.136   4.228 -0.4015 -0.4639  0.4453
  591MOL0     O81456   8.704   2.143   4.146  0.0543  0.0527  0.1313
  591MOL0     C81457   8.690   2.199   4.021  0.3608  0.4838 -0.3386
  591MOL0     C81458   8.824   2.173   3.952  0.9011  0.3493  0.8462
  591MOL0     C81459   8.828   2.251   3.825 -0.1376  0.2695  0.3153
  591MOL0     C81460   8.765   2.176   3.707  0.6163 -0.3107 -0.2455
  591MOL0     C81461   8.799   2.236   3.564  0.4405 -0.7299 -0.1543
  591MOL0     C81462   8.743   2.148   3.447 -0.6197  0.3724  0.1517
  591MOL0     C81463   8.720   2.222   3.317  0.5427 -0.1378 -0.1275
  591MOL0     C81464   8.657   2.125   3.211  0.0331 -0.7361  0.3289
  591MOL0    Cl81465   8.783   1.993   3.169  0.4482  0.0900 -0.0534
  591MOL0     C81466   8.548   2.005   4.267  0.0258  0.2996  0.3047
  591MOL0     C81467   8.452   1.995   4.369  0.2892 -0.8358  0.3291
  591MOL0     O81468   8.166   1.943   4.392  0.1249 -0.0740  0.0180
  591MOL0     C81469   8.083   2.123   4.691  0.1999 -0.0337  0.1351
  591MOL0     C81470   7.993   2.126   4.796 -0.9968 -0.2454 -0.0950
  591MOL0     N81471   7.250   2.522   4.970  0.3666 -0.9387  0.9919
  591MOL0     N81472   7.122   2.520   4.950 -0.6022  0.9485  0.3662
  591MOL0     C81473   6.017   2.341   5.161 -0.2335 -0.2388  0.3995
  591MOL0     C81474   5.894   2.288   5.181 -0.4210 -1.0403 -0.5598
  591MOL0     C81475   5.529   2.030   5.060  0.0353 -0.1939 -1.0743
  591MOL0     C81476   5.418   2.104   5.122  0.3968  0.3610 -0.6133
  591MOL0     C81477   5.286   2.063   5.120 -1.0775 -0.2598  0.6750
  591MOL0     C81478   5.252   1.946   5.060  0.2465  0.0278  0.7964
  591MOL0     O81479   5.121   1.899   5.042 -0.1124 -0.5877  0.2047
  591MOL0     C81480   5.091   1.757   5.047 -0.2733  0.5732 -0.7530
  591MOL0     C81481   4.965   1.715   5.113  0.4723 -0.3696  0.3599
  591MOL0     C81482   4.849   1.730   5.021 -0.7243 -0.3237 -0.3699
  591MOL0     C81483   4.730   1.685   5.101 -0.0296  0.1761 -0.2692
  591MOL0     C81484   4.608   1.718   5.029  0.7302  0.0935  0.4335
  591MOL0     C81485   4.505   1.745   4.971 -0.0858 -0.1048  0.6989
  591MOL0     C81486   5.360   1.871   5.013 -0.5816  1.5380  0.8504
  591MOL0     C81487   5.494   1.907   5.009  0.0216  0.8613 -0.6890
  591MOL0     C81488   5.589   1.806   4.940 -0.9118  0.1255  0.6851
  591MOL0     H81489   5.768   2.311   4.862  1.7014  2.2969 -1.5303
  591MOL0     H81490   5.986   2.418   4.823 -2.4542 -2.1449 -2.5353
  591MOL0     H81491   6.128   2.614   5.090  0.9785  0.4724  0.4732
  591MOL0     H81492   6.276   2.618   5.000  2.0696 -0.7944  1.5697
  591MOL0     H81493   6.291   2.634   5.258  2.2193  1.5806 -1.2495
  591MOL0     H81494   6.283   2.459   5.245  1.9758  0.0241  0.3684
  591MOL0     H81495   6.471   2.657   5.123  1.8209 -0.2433  0.1526
  591MOL0     H81496   6.511   2.544   5.241 -0.6504 -0.6794 -0.2820
  591MOL0     H81497   6.504   2.354   5.065 -0.4945  0.5230  0.6534
  591MOL0     H81498   6.442   2.481   4.951 -1.6916 -2.3032  0.9916
  591MOL0     H81499   6.667   2.596   5.033 -3.5638  1.6538  0.4941
  591MOL0     H81500   6.678   2.452   4.928  0.3573  1.2547  0.1049
  591MOL0     H81501   6.691   2.421   5.233  1.0522  1.9087  0.1962
  591MOL0     H81502   6.708   2.286   5.129  1.1520 -0.0003  1.4790
  591MOL0     H81503   6.924   2.413   5.229  2.4923  1.1202 -0.5570
  591MOL0     H81504   6.883   2.539   5.111  0.6417  0.0964 -1.5551
  591MOL0     H81505   6.947   2.256   5.045 -0.6842  1.0111  0.0900
  591MOL0     H81506   6.897   2.377   4.923  0.8556  3.2643  0.4922
  591MOL0     H81507   7.189   2.234   5.109  4.3488 -0.8191 -1.4136
  591MOL0     H81508   7.451   2.351   5.164  0.2281 -0.6285  0.1818
  591MOL0     H81509   7.488   2.479   5.053 -0.1262 -0.0522  0.6237
  591MOL0     H81510   7.447   2.182   4.979 -0.2972  0.5174 -0.4992
  591MOL0     H81511   7.454   2.315   4.861 -3.4628  0.3243  1.2548
  591MOL0     H81512   7.697   2.359   4.938 -1.0711  1.1861 -0.7759
  591MOL0     H81513   7.680   2.204   5.035 -0.5463  0.3036  0.1775
  591MOL0     H81514   7.593   2.131   4.786 -1.5696  0.6249  0.1642
  591MOL0     H81515   7.731   2.245   4.744  2.7818 -1.8730 -0.3180
  591MOL0     H81516   7.777   1.890   4.682  0.7709 -2.8400  3.7992
  591MOL0     H81517   7.879   1.847   4.419  1.1703  1.1969  0.1535
  591MOL0     H81518   7.886   1.732   4.561  0.3598  0.1092  1.2934
  591MOL0     H81519   8.028   1.782   4.469 -2.0132  0.6592 -2.9346
  591MOL0     H81520   8.375   2.326   4.397  3.0984  1.7836  1.0048
  591MOL0     H81521   8.566   2.356   4.233  0.9783 -1.6735 -5.1139
  591MOL0     H81522   8.609   2.142   3.975 -0.2428  0.5803  0.5802
  591MOL0     H81523   8.651   2.301   4.016 -6.1244 -1.6097 -1.5029
  591MOL0     H81524   8.904   2.224   4.008  0.0636  1.3976  1.1126
  591MOL0     H81525   8.843   2.065   3.950  1.1126  0.3708  1.3444
  591MOL0     H81526   8.934   2.258   3.800  0.3070  0.3009  2.0850
  591MOL0     H81527   8.801   2.356   3.826  0.0636  0.4088 -2.1571
  591MOL0     H81528   8.658   2.201   3.710  0.6618 -0.1600  0.3787
  591MOL0     H81529   8.758   2.068   3.719 -3.5902 -0.1428  0.5255
  591MOL0     H81530   8.760   2.338   3.562  1.1757 -0.2406  3.5768
  591MOL0     H81531   8.902   2.263   3.542 -0.2370  1.1684 -1.1856
  591MOL0     H81532   8.645   2.103   3.462 -1.8183  3.1428  1.2236
  591MOL0     H81533   8.818   2.071   3.424  0.8284  1.9936 -0.8923
  591MOL0     H81534   8.818   2.262   3.289  1.1555 -3.2625 -3.1361
  591MOL0     H81535   8.646   2.301   3.334 -0.4040 -0.0826 -3.6684
  591MOL0     H81536   8.623   2.190   3.129 -1.3095 -2.9835 -1.0178
  591MOL0     H81537   8.570   2.079   3.258  1.1817 -2.4769  0.8525
  591MOL0     H81538   8.603   1.919   4.230 -1.4529  0.2285 -1.9193
  591MOL0     H81539   8.428   1.897   4.410  0.4697 -1.5861 -1.2431
  591MOL0     H81540   8.155   2.204   4.690  1.4522 -1.1127 -0.7978
  591MOL0     H81541   8.020   2.190   4.879  3.2995  0.5549 -1.8495
  591MOL0     H81542   6.098   2.340   5.233 -0.0675 -1.2188  0.2172
  591MOL0     H81543   5.871   2.231   5.271  1.6766 -2.2346 -0.7160
  591MOL0     H81544   5.443   2.199   5.168 -0.0093  0.7738 -1.2295
  591MOL0     H81545   5.203   2.125   5.156 -0.5453  1.2812 -0.6432
  591MOL0     H81546   5.090   1.714   4.947  0.8710  0.6426 -0.8010
  591MOL0     H81547   5.165   1.707   5.110 -2.9825  0.0088  2.2633
  591MOL0     H81548   4.955   1.780   5.200  1.5479  1.2756 -0.6829
  591MOL0     H81549   4.981   1.618   5.160  0.5452  0.0499  1.2323
  591MOL0     H81550   4.839   1.835   4.992 -0.6218 -0.2730 -0.2252
  591MOL0     H81551   4.873   1.669   4.933 -0.0340 -1.5851  0.6532
  591MOL0     H81552   4.735   1.751   5.189 -0.2438  0.1912 -0.2660
  591MOL0     H81553   4.733   1.579   5.124  1.1305  0.2700  0.0453
  591MOL0     H81554   4.418   1.772   4.914  0.4871  1.0042  0.3128
  591MOL0     H81555   5.338   1.776   4.966  0.0951  2.5426 -1.5991
  591MOL0     H81556   5.659   1.757   5.009  1.2573  2.6296  0.4013
  591MOL0     H81557   5.540   1.718   4.896  2.7841 -0.7899 -2.0751
  591MOL0     H81558   5.645   1.847   4.856 -1.5054 -1.3052 -0.4532
  592MOL0     O81559   0.525   6.800   2.439 -0.0980  0.4796  0.1040
  592MOL0     C81560   0.464   6.875   2.511 -1.3500  0.1546  0.6110
  592MOL0     O81561   0.480   7.010   2.507  0.3046  0.7900  0.5668
  592MOL0     C81562   0.598   7.046   2.441 -0.7268 -0.8095  0.3974
  592MOL0     C81563   0.577   7.127   2.324 -0.5068 -0.1902 -1.0122
  592MOL0     C81564   0.681   7.161   2.245  0.2114 -1.6175  0.4317
  592MOL0     C81565   0.811   7.128   2.288 -0.1176 -0.5809  0.7356
  592MOL0     O81566   0.923   7.147   2.207 -0.3962  0.9381 -0.0555
  592MOL0     C81567   0.930   7.261   2.122  0.0637  0.5967 -1.0021
  592MOL0     C81568   0.897   7.396   2.198 -0.0566  0.2719 -0.9310
  592MOL0     C81569   1.011   7.421   2.305  0.4028  0.3459  0.4755
  592MOL0     C81570   1.164   7.435   2.255 -0.0631 -0.5340 -0.5040
  592MOL0     C81571   1.259   7.457   2.373 -0.5414 -0.6932  0.0703
  592MOL0     C81572   1.402   7.470   2.319  0.8986 -0.1261 -0.3148
  592MOL0     C81573   1.494   7.507   2.432  0.1622 -0.5703 -0.1780
  592MOL0     C81574   1.627   7.554   2.386 -0.1701  0.8677 -1.1477
  592MOL0     N81575   1.614   7.697   2.350 -0.3822  0.2338  0.4055
  592MOL0     C81576   1.570   7.807   2.418 -0.4614 -0.9851  0.0323
  592MOL0     C81577   1.553   7.903   2.318  0.0968  0.7463  0.0599
  592MOL0     C81578   1.505   8.045   2.337  0.1307  0.2010 -0.2454
  592MOL0     C81579   1.568   8.100   2.466  0.7703 -0.1265 -0.3858
  592MOL0     C81580   1.514   8.242   2.495  0.0056 -0.0313  0.0905
  592MOL0     C81581   1.580   8.303   2.617  0.5119 -0.2493 -0.1197
  592MOL0     O81582   1.487   8.327   2.723 -0.6066 -0.4684  0.2095
  592MOL0     C81583   1.528   8.349   2.847 -0.1126 -0.1397  0.6609
  592MOL0     C81584   1.563   8.479   2.881 -0.4903 -0.8770  0.2479
  592MOL0     C81585   1.615   8.514   3.005  0.1952  0.1879  0.2756
  592MOL0     C81586   1.658   8.654   3.026 -0.0375  1.2068  0.3738
  592MOL0     C81587   1.624   8.402   3.104  0.9361 -0.3480 -0.1748
  592MOL0     C81588   1.689   8.416   3.234 -0.0217  0.2147  0.0953
  592MOL0     O81589   1.707   8.540   3.275  0.0905 -0.7580 -0.5839
  592MOL0     C81590   1.765   8.551   3.399  1.1841  0.1571  0.1487
  592MOL0     C81591   1.686   8.547   3.515  0.3709 -0.1731 -0.2512
  592MOL0     C81592   1.744   8.562   3.642 -0.8797 -0.4751  0.5411
  592MOL0     C81593   1.881   8.566   3.655 -0.5186  0.8422 -0.4496
  592MOL0     O81594   1.925   8.572   3.785  0.0504 -0.5473 -0.1994
  592MOL0     C81595   2.063   8.629   3.798  1.0124 -0.9684  0.3790
  592MOL0     C81596   2.091   8.635   3.938  0.2352 -0.1517  0.1303
  592MOL0     C81597   2.237   8.674   3.963  0.7656  0.1917  0.4536
  592MOL0     C81598   2.299   8.563   4.046  0.1005  0.9394  0.0134
  592MOL0     C81599   2.434   8.618   4.110  0.3435 -0.2516 -0.1354
  592MOL0     C81600   2.542   8.657   4.000  0.2789  0.7048  0.5936
  592MOL0     C81601   2.663   8.708   4.080  0.7232 -1.1648  0.2113
  592MOL0     C81602   2.767   8.747   3.991 -0.0860 -0.2264 -0.0019
  592MOL0    Cl81603   2.900   8.798   4.100  0.1478 -0.2877 -0.0885
  592MOL0     C81604   1.963   8.558   3.544 -0.4432 -0.5579  0.0235
  592MOL0     C81605   1.899   8.569   3.414 -0.5814  0.1176  0.0396
  592MOL0     O81606   1.722   8.311   3.293  0.8111 -0.6042 -0.2490
  592MOL0     C81607   1.591   8.275   3.072 -0.0454  0.5244 -0.3319
  592MOL0     C81608   1.542   8.250   2.944 -1.1470  0.0395  0.6321
  592MOL0     N81609   1.561   7.845   2.200  0.0036 -0.6279  0.1161
  592MOL0     N81610   1.616   7.734   2.214 -0.1614  0.4212 -0.5004
  592MOL0     C81611   0.831   7.050   2.404 -0.8704 -0.3337 -0.6117
  592MOL0     C81612   0.727   7.004   2.478 -0.2724 -0.3760 -0.3724
  592MOL0     C81613   0.368   6.820   2.605 -0.0691  0.4155  0.6690
  592MOL0     C81614   0.341   6.685   2.596  0.0497  0.6615 -1.0746
  592MOL0     C81615   0.258   6.612   2.686 -0.8085 -0.4416 -0.0207
  592MOL0     C81616   0.195   6.682   2.781  0.8160 -0.2973  0.2283
  592MOL0     O81617   0.123   6.614   2.878 -0.0915 -0.2186 -0.4908
  592MOL0     C81618   0.096   6.475   2.866 -0.1867 -0.0480 -0.0825
  592MOL0     C81619  -0.031   6.450   2.943 -0.0616 -0.5362 -0.0391
  592MOL0     C81620  -0.015   6.470   3.093  0.0164 -0.1702 -0.0744
  592MOL0     C81621  -0.140   6.423   3.167 -0.5844 -0.1344  0.6777
  592MOL0     C81622  -0.141   6.278   3.188 -0.4254  1.1714  0.3782
  592MOL0     C81623  -0.169   6.159   3.199 -0.0987 -0.1572  0.7312
  592MOL0     C81624   0.211   6.822   2.788  0.3376  0.2900  0.7358
  592MOL0     C81625   0.296   6.892   2.700  0.7788  0.6740  0.3981
  592MOL0     C81626   0.290   7.034   2.732 -0.2334 -0.3381  0.0549
  592MOL0     H81627   0.475   7.158   2.307 -0.7216 -0.3663 -0.0677
  592MOL0     H81628   0.665   7.227   2.161 -2.0092  0.0492  2.0184
  592MOL0     H81629   0.861   7.247   2.037 -1.5987  2.5718 -0.0812
  592MOL0     H81630   1.031   7.268   2.081  1.3702 -2.7132  1.2512
  592MOL0     H81631   0.879   7.488   2.140 -1.2830 -0.9081 -2.5021
  592MOL0     H81632   0.802   7.392   2.252  1.9549 -0.6117  2.8403
  592MOL0     H81633   0.989   7.518   2.350 -1.2636 -0.7272  2.1004
  592MOL0     H81634   1.003   7.343   2.382 -0.8046  1.1052  1.1366
  592MOL0     H81635   1.197   7.349   2.197  0.6263  0.6665 -1.9716
  592MOL0     H81636   1.172   7.520   2.187  1.7550 -0.3981 -0.1719
  592MOL0     H81637   1.243   7.371   2.439 -0.2777 -1.8089 -1.2767
  592MOL0     H81638   1.237   7.549   2.429 -0.7744 -1.0159  0.5199
  592MOL0     H81639   1.448   7.384   2.270  1.6519 -0.8382  1.5589
  592MOL0     H81640   1.403   7.557   2.253  2.8880  2.5360  2.8847
  592MOL0     H81641   1.508   7.413   2.487 -1.6527  0.7372  2.7831
  592MOL0     H81642   1.447   7.581   2.498 -0.5301 -2.6852  1.8567
  592MOL0     H81643   1.700   7.536   2.466 -0.4083 -0.3232 -1.1905
  592MOL0     H81644   1.659   7.493   2.302 -0.4461 -1.8038  0.5767
  592MOL0     H81645   1.550   7.820   2.524 -0.4853  1.4090 -0.2267
  592MOL0     H81646   1.396   8.042   2.344  0.1881 -0.0814  0.6382
  592MOL0     H81647   1.540   8.110   2.257  3.6436 -1.0021  0.1488
  592MOL0     H81648   1.541   8.048   2.558  3.2687 -1.4896 -0.3230
  592MOL0     H81649   1.676   8.114   2.461  0.6579  1.2300  0.4264
  592MOL0     H81650   1.548   8.302   2.411  0.0824  2.0244  1.5172
  592MOL0     H81651   1.406   8.257   2.489  0.4007  2.9961 -4.8343
  592MOL0     H81652   1.656   8.239   2.661  2.5442  0.9269 -1.7400
  592MOL0     H81653   1.632   8.397   2.596  0.0690  0.0320  0.0245
  592MOL0     H81654   1.537   8.559   2.813  5.3784  2.9503  1.7460
  592MOL0     H81655   1.590   8.698   3.099  0.6666  1.7948  0.6797
  592MOL0     H81656   1.654   8.715   2.934 -2.1064  1.2057  0.4097
  592MOL0     H81657   1.761   8.667   3.058 -0.0118  0.7441  0.4768
  592MOL0     H81658   1.578   8.538   3.515 -0.0527  3.3148 -1.5351
  592MOL0     H81659   1.690   8.567   3.736  0.7324 -0.6611  1.5313
  592MOL0     H81660   2.135   8.560   3.755  0.2625 -1.2776 -0.4219
  592MOL0     H81661   2.066   8.730   3.756 -0.3109 -0.8531  0.5200
  592MOL0     H81662   2.027   8.715   3.977  0.2390  0.5202 -1.1960
  592MOL0     H81663   2.057   8.540   3.981 -1.3382 -0.6346 -2.0014
  592MOL0     H81664   2.230   8.766   4.022  0.2961  1.0437 -0.8888
  592MOL0     H81665   2.284   8.687   3.866  0.4300 -2.2742 -0.1258
  592MOL0     H81666   2.325   8.480   3.979  1.9344  2.2047 -0.8963
  592MOL0     H81667   2.231   8.535   4.127 -0.0350  1.3363  0.0376
  592MOL0     H81668   2.416   8.698   4.182 -1.4883  0.3606 -1.2113
  592MOL0     H81669   2.475   8.538   4.173 -1.6931 -1.7886 -0.6419
  592MOL0     H81670   2.510   8.737   3.932  1.3181  1.5134  1.0232
  592MOL0     H81671   2.570   8.569   3.942 -0.9513  1.2813 -0.9387
  592MOL0     H81672   2.694   8.619   4.136 -1.4911 -0.6097  2.4804
  592MOL0     H81673   2.642   8.795   4.142 -0.6412 -0.7347 -0.8172
  592MOL0     H81674   2.742   8.823   3.918 -1.2881 -1.2837 -0.7360
  592MOL0     H81675   2.794   8.660   3.930  2.2298  1.5111 -1.5888
  592MOL0     H81676   2.071   8.567   3.543 -0.5436  0.8279 -0.6296
  592MOL0     H81677   1.961   8.590   3.327 -1.3929 -0.2625 -0.6539
  592MOL0     H81678   1.604   8.188   3.136  0.5430  1.5961  1.0588
  592MOL0     H81679   1.523   8.146   2.922 -2.0572 -0.0520  1.7412
  592MOL0     H81680   0.931   7.020   2.433 -0.9996  1.2550  1.7680
  592MOL0     H81681   0.741   6.932   2.558 -2.2083 -2.9711 -2.2170
  592MOL0     H81682   0.391   6.629   2.518  0.6883  1.1699 -1.0430
  592MOL0     H81683   0.258   6.504   2.679  0.4765 -0.7749  3.3047
  592MOL0     H81684   0.076   6.456   2.760  1.3784 -0.0465 -0.3956
  592MOL0     H81685   0.170   6.409   2.911 -0.4441 -1.4080 -1.5505
  592MOL0     H81686  -0.061   6.349   2.913  0.0931 -0.7258  0.4239
  592MOL0     H81687  -0.108   6.518   2.905  0.3620 -0.2133 -0.3370
  592MOL0     H81688   0.077   6.421   3.126  0.9899  1.3609 -0.3670
  592MOL0     H81689  -0.007   6.576   3.119  2.7656 -0.4318  0.4858
  592MOL0     H81690  -0.233   6.455   3.118 -0.1335 -0.4620 -0.4370
  592MOL0     H81691  -0.134   6.468   3.266  0.8385 -1.3228  1.1588
  592MOL0     H81692  -0.184   6.053   3.194  1.1802 -0.3043 -2.3254
  592MOL0     H81693   0.157   6.873   2.867 -1.4990  1.4856 -1.1594
  592MOL0     H81694   0.230   7.100   2.669  2.0874  2.9320  0.9707
  592MOL0     H81695   0.270   7.053   2.838  1.0008 -0.6563  0.3600
  592MOL0     H81696   0.392   7.070   2.716  0.1424 -1.5291 -0.2774
  593MOL0     O81697   5.999   4.652   0.306  0.2937  0.9084 -0.3375
  593MOL0     C81698   5.897   4.594   0.345  0.1059 -0.9096 -0.6328
  593MOL0     O81699   5.901   4.504   0.442 -0.0018 -0.5219 -0.4626
  593MOL0     C81700   6.023   4.428   0.449  0.4301 -0.8528 -0.4028
  593MOL0     C81701   6.112   4.465   0.553 -0.4914  0.3824  0.9261
  593MOL0     C81702   6.238   4.395   0.553  0.1267  0.3118  0.0147
  593MOL0     C81703   6.255   4.277   0.476 -0.2857 -0.3999  0.2830
  593MOL0     O81704   6.361   4.201   0.465 -0.7308  0.9517  0.2119
  593MOL0     C81705   6.471   4.213   0.556 -0.4049 -0.3144  0.7814
  593MOL0     C81706   6.586   4.108   0.537  0.4684  0.1154 -0.6539
  593MOL0     C81707   6.712   4.135   0.628  0.9705  0.3720 -0.0487
  593MOL0     C81708   6.832   4.059   0.581  0.0386  0.5963  0.3782
  593MOL0     C81709   6.959   4.080   0.666 -0.1320  0.5801  0.3715
  593MOL0     C81710   7.072   4.025   0.585 -0.3444  0.8200 -0.2170
  593MOL0     C81711   7.208   4.021   0.671 -0.1552 -0.8421  0.0009
  593MOL0     C81712   7.321   3.953   0.602 -0.8508  0.1397 -0.7326
  593MOL0     N81713   7.329   3.816   0.668  0.3097  0.2207 -0.0313
  593MOL0     C81714   7.228   3.723   0.643 -0.4809 -0.9566 -0.7241
  593MOL0     C81715   7.267   3.623   0.725 -0.4538 -0.2550  0.3326
  593MOL0     C81716   7.209   3.489   0.698  0.1236 -0.1774 -0.9072
  593MOL0     C81717   7.076   3.482   0.765  0.3302 -0.4275 -0.4493
  593MOL0     C81718   7.012   3.344   0.756  0.2127  0.8093  0.2085
  593MOL0     C81719   6.869   3.345   0.802  1.3198  0.3602 -0.3362
  593MOL0     O81720   6.801   3.226   0.757  0.0347  0.4591  1.1879
  593MOL0     C81721   6.673   3.189   0.791  0.0376  0.2801 -0.0540
  593MOL0     C81722   6.603   3.255   0.891 -0.0990  0.2554  0.7747
  593MOL0     C81723   6.478   3.221   0.936  0.0603 -0.3382  0.8328
  593MOL0     C81724   6.411   3.318   1.031  0.2231 -1.0986 -0.2370
  593MOL0     C81725   6.421   3.099   0.893 -0.3144 -0.2273  0.6138
  593MOL0     C81726   6.315   3.027   0.961  0.1747  0.1615 -0.1167
  593MOL0     O81727   6.321   3.007   1.092 -0.1195 -0.4443 -0.6950
  593MOL0     C81728   6.213   2.959   1.153 -0.2076  0.0561  0.3294
  593MOL0     C81729   6.118   3.052   1.173  0.0682  0.0769  0.7474
  593MOL0     C81730   6.012   3.025   1.253  0.3379 -0.1017 -0.2986
  593MOL0     C81731   5.981   2.899   1.297 -0.7967 -0.2251  0.0337
  593MOL0     O81732   5.863   2.870   1.354  0.4694 -0.1056  0.4765
  593MOL0     C81733   5.800   2.968   1.446  0.4970  1.3378 -0.0538
  593MOL0     C81734   5.683   2.893   1.532 -1.1104  0.4478  0.6356
  593MOL0     C81735   5.608   2.993   1.622  0.2005 -0.8918  1.0051
  593MOL0     C81736   5.459   2.959   1.647  0.9527  0.0056 -0.8394
  593MOL0     C81737   5.383   3.077   1.718  0.1048  0.4385  1.1830
  593MOL0     C81738   5.236   3.043   1.733 -0.2865 -0.0943 -0.0365
  593MOL0     C81739   5.166   3.154   1.819 -0.3811 -0.5350 -0.8341
  593MOL0     C81740   5.017   3.177   1.793  0.3877  0.1699 -0.6388
  593MOL0    Cl81741   4.923   3.025   1.781 -0.0059 -0.2279 -0.0761
  593MOL0     C81742   6.082   2.806   1.272  0.5375 -0.0236 -0.6139
  593MOL0     C81743   6.201   2.827   1.201 -0.0930  0.1299 -0.2346
  593MOL0     O81744   6.214   3.000   0.886 -0.9915  0.5478  0.0931
  593MOL0     C81745   6.499   3.017   0.802 -0.2890 -0.0245  0.4865
  593MOL0     C81746   6.620   3.068   0.756  0.8782 -0.0846  0.1455
  593MOL0     N81747   7.391   3.646   0.787 -0.4629 -0.0357 -1.0322
  593MOL0     N81748   7.428   3.764   0.753  0.1941  0.6562  0.0503
  593MOL0     C81749   6.157   4.244   0.383 -0.3111  0.1562 -0.3923
  593MOL0     C81750   6.041   4.323   0.366 -0.5633  0.2566  0.2344
  593MOL0     C81751   5.760   4.623   0.288 -0.2297  0.1739 -0.0679
  593MOL0     C81752   5.731   4.747   0.242  0.3769  0.8446  0.3327
  593MOL0     C81753   5.605   4.776   0.187  0.6653  0.6996  0.9706
  593MOL0     C81754   5.505   4.672   0.173  0.3715  0.1937  1.0273
  593MOL0     O81755   5.388   4.694   0.112  0.3642 -0.5515  0.3326
  593MOL0     C81756   5.395   4.716  -0.032 -0.3812  1.0812  0.7559
  593MOL0     C81757   5.413   4.574  -0.106  0.7173 -0.5714 -0.3579
  593MOL0     C81758   5.282   4.496  -0.074 -0.1724  0.3140  0.3663
  593MOL0     C81759   5.256   4.386  -0.175  0.3395 -0.2011 -0.3861
  593MOL0     C81760   5.332   4.270  -0.139 -0.4149  0.6322 -0.0215
  593MOL0     C81761   5.403   4.172  -0.113 -0.6206 -0.4066  0.0792
  593MOL0     C81762   5.528   4.551   0.230 -0.5440  0.6541 -0.2436
  593MOL0     C81763   5.651   4.533   0.298 -0.1865  0.9671 -0.2004
  593MOL0     C81764   5.657   4.398   0.381  0.0117 -0.4229  0.9968
  593MOL0     H81765   6.090   4.546   0.623  2.7548  0.1990  2.3431
  593MOL0     H81766   6.322   4.418   0.618 -0.0740 -0.5589  0.6046
  593MOL0     H81767   6.437   4.197   0.659 -3.0876  0.9440  0.1520
  593MOL0     H81768   6.510   4.312   0.533 -0.0591 -0.2640  1.5485
  593MOL0     H81769   6.551   4.008   0.566 -1.5264  1.2443  1.0968
  593MOL0     H81770   6.615   4.101   0.432 -0.4620  3.1316 -1.1983
  593MOL0     H81771   6.726   4.244   0.620  1.8887  0.2475 -0.2160
  593MOL0     H81772   6.688   4.103   0.730 -0.6864  3.0733  0.5247
  593MOL0     H81773   6.810   3.954   0.564  2.1653  0.3064 -1.0055
  593MOL0     H81774   6.851   4.107   0.485  2.3264 -0.1236  0.4118
  593MOL0     H81775   6.950   4.030   0.762  5.8771 -1.1698  0.4537
  593MOL0     H81776   6.985   4.183   0.690 -1.3046  0.4768  2.2490
  593MOL0     H81777   7.046   3.921   0.563  0.7943  0.7257 -1.2490
  593MOL0     H81778   7.079   4.087   0.494  0.5676  1.1290  0.0603
  593MOL0     H81779   7.181   3.973   0.766  0.0592 -0.1355  0.4299
  593MOL0     H81780   7.248   4.118   0.704  0.5755 -0.0144 -3.0090
  593MOL0     H81781   7.296   3.957   0.495  2.0988  2.8888 -1.4807
  593MOL0     H81782   7.420   3.997   0.608 -0.4320 -0.8002 -0.5411
  593MOL0     H81783   7.153   3.732   0.565  1.4984  1.3906 -2.4968
  593MOL0     H81784   7.271   3.410   0.742 -0.8048 -0.8825 -0.8232
  593MOL0     H81785   7.198   3.476   0.590  1.6704  0.3747 -1.1652
  593MOL0     H81786   7.089   3.499   0.872 -0.3013  2.8947 -0.8122
  593MOL0     H81787   7.017   3.564   0.723  0.5408  0.1869  0.4434
  593MOL0     H81788   7.032   3.304   0.656  1.0807  0.4730  0.5062
  593MOL0     H81789   7.073   3.279   0.819  1.1703  2.7159  1.3131
  593MOL0     H81790   6.873   3.352   0.911  0.6379 -1.0847 -0.1871
  593MOL0     H81791   6.818   3.433   0.761 -0.1942 -0.5354 -0.4827
  593MOL0     H81792   6.652   3.344   0.928 -1.8302  1.1952  0.9382
  593MOL0     H81793   6.314   3.282   1.068  0.0914 -0.5444 -0.0249
  593MOL0     H81794   6.391   3.415   0.984  0.7152  0.1380  1.9625
  593MOL0     H81795   6.474   3.330   1.120  1.8397  2.0955 -1.6307
  593MOL0     H81796   6.131   3.149   1.127  1.2119  0.0410  0.9638
  593MOL0     H81797   5.939   3.105   1.258 -0.0226 -0.4388 -0.1042
  593MOL0     H81798   5.887   2.990   1.509  0.2188  0.4437  0.6720
  593MOL0     H81799   5.764   3.054   1.389 -1.5879  0.5026 -0.0775
  593MOL0     H81800   5.616   2.832   1.471  0.6210  0.0741 -1.0046
  593MOL0     H81801   5.738   2.827   1.599  1.2456  0.3053 -1.2604
  593MOL0     H81802   5.615   3.082   1.558 -2.4866 -0.9975  0.4477
  593MOL0     H81803   5.670   3.024   1.706  1.1165  0.0393  0.0208
  593MOL0     H81804   5.462   2.867   1.705 -2.0074 -0.8224 -1.8197
  593MOL0     H81805   5.424   2.939   1.545 -0.2636 -2.5748  0.0092
  593MOL0     H81806   5.441   3.100   1.807  0.2529  2.7090  0.5637
  593MOL0     H81807   5.394   3.166   1.656 -0.5981  0.6942  1.4126
  593MOL0     H81808   5.219   2.939   1.762 -0.3188  0.1414  0.8173
  593MOL0     H81809   5.182   3.051   1.639  0.4011 -2.4753 -0.7066
  593MOL0     H81810   5.225   3.245   1.809 -2.1766  1.1266  2.3107
  593MOL0     H81811   5.187   3.134   1.924  2.5846  1.8901 -0.8172
  593MOL0     H81812   5.014   3.227   1.696  0.8015 -0.0462 -0.7631
  593MOL0     H81813   4.960   3.249   1.854 -0.1698  1.8822 -3.0478
  593MOL0     H81814   6.057   2.707   1.309  2.0851 -0.4201 -0.5930
  593MOL0     H81815   6.276   2.749   1.188 -2.6594 -3.3897  3.4625
  593MOL0     H81816   6.466   2.918   0.774 -3.5002  1.5615 -1.9102
  593MOL0     H81817   6.673   3.005   0.686 -2.3891 -3.0901  0.1310
  593MOL0     H81818   6.171   4.162   0.314 -0.4052 -1.6732  1.6575
  593MOL0     H81819   5.969   4.325   0.284 -1.6411  4.2377  1.0429
  593MOL0     H81820   5.807   4.824   0.242  0.9068  0.4337 -2.3012
  593MOL0     H81821   5.585   4.874   0.145  2.3746  0.7495  0.2150
  593MOL0     H81822   5.301   4.765  -0.060  0.3687  1.8139 -0.5672
  593MOL0     H81823   5.481   4.778  -0.058  0.9542 -0.3582  1.5214
  593MOL0     H81824   5.503   4.522  -0.071 -1.0186 -4.2388 -0.9163
  593MOL0     H81825   5.413   4.596  -0.213  2.4099 -0.9189 -0.4600
  593MOL0     H81826   5.263   4.465   0.029 -2.1813 -3.7453 -0.9885
  593MOL0     H81827   5.203   4.568  -0.096 -0.6923  0.5840  2.8400
  593MOL0     H81828   5.270   4.416  -0.279  0.8324  0.1940 -0.2103
  593MOL0     H81829   5.153   4.358  -0.153  0.7895 -3.3983 -1.7966
  593MOL0     H81830   5.453   4.082  -0.085 -0.1880 -1.1637 -2.8474
  593MOL0     H81831   5.446   4.479   0.226 -1.4559  1.6891 -0.6514
  593MOL0     H81832   5.645   4.417   0.488  0.4906  0.1934  0.9469
  593MOL0     H81833   5.572   4.334   0.357  0.4685 -0.0772 -2.0084
  593MOL0     H81834   5.746   4.337   0.362 -0.9898 -1.5974 -0.0835
  594MOL0     O81835   1.486   6.041   5.140 -0.4145 -0.3897  0.6908
  594MOL0     C81836   1.456   6.016   5.026  0.0066 -0.9100  1.1963
  594MOL0     O81837   1.413   6.112   4.935 -0.0457 -0.5141  0.8507
  594MOL0     C81838   1.390   6.247   4.972  0.3130  1.0159  0.6193
  594MOL0     C81839   1.476   6.327   5.042 -0.9478  0.0467 -0.9772
  594MOL0     C81840   1.448   6.456   5.081  0.6275 -0.4784 -0.2964
  594MOL0     C81841   1.316   6.500   5.061  0.0018 -1.1849 -0.5507
  594MOL0     O81842   1.270   6.608   5.132 -0.1936  0.3261  0.1777
  594MOL0     C81843   1.175   6.695   5.064  0.3388 -0.2268 -0.1497
  594MOL0     C81844   1.180   6.846   5.097  0.0827 -0.5331  0.5113
  594MOL0     C81845   1.158   6.870   5.248 -0.3240  0.3733  0.0750
  594MOL0     C81846   1.220   7.006   5.277 -0.6689 -0.3421  0.1867
  594MOL0     C81847   1.169   7.126   5.184  0.7725  0.1748  0.5527
  594MOL0     C81848   1.230   7.250   5.239  0.1906  0.3016  0.2800
  594MOL0     C81849   1.228   7.358   5.137 -0.2097 -0.5512  0.0350
  594MOL0     C81850   1.278   7.498   5.190 -0.0560 -0.7477 -0.9446
  594MOL0     N81851   1.294   7.599   5.089 -0.1198  0.2873  0.2283
  594MOL0     C81852   1.387   7.598   4.994 -0.8391 -1.0962 -0.4641
  594MOL0     C81853   1.362   7.711   4.923  0.5500  0.5018 -0.0023
  594MOL0     C81854   1.441   7.773   4.815  0.5820 -0.2406  0.5975
  594MOL0     C81855   1.359   7.825   4.689  0.0186  0.4112 -0.1881
  594MOL0     C81856   1.296   7.696   4.615 -0.4584 -0.3087 -0.3601
  594MOL0     C81857   1.261   7.726   4.466  0.5888  0.6525 -2.0917
  594MOL0     O81858   1.360   7.786   4.392  0.3584  0.3976 -0.2221
  594MOL0     C81859   1.451   7.714   4.320 -0.7694  0.1746 -0.3589
  594MOL0     C81860   1.515   7.775   4.214 -0.8432 -0.4287 -0.4790
  594MOL0     C81861   1.589   7.705   4.122  0.3245  0.7832 -0.1948
  594MOL0     C81862   1.647   7.775   4.010  1.0571  0.9210 -0.1333
  594MOL0     C81863   1.612   7.563   4.145 -0.8704 -0.2672 -0.4077
  594MOL0     C81864   1.709   7.491   4.062 -1.1262  0.0605  0.6682
  594MOL0     O81865   1.716   7.518   3.925 -0.0805  0.0391 -0.9484
  594MOL0     C81866   1.817   7.482   3.839  0.0974 -0.1494 -0.3487
  594MOL0     C81867   1.858   7.352   3.824 -0.6472  0.4053 -0.1417
  594MOL0     C81868   1.954   7.323   3.726  0.1843  0.5392  0.1026
  594MOL0     C81869   2.013   7.420   3.637 -0.5730 -0.1634 -0.1609
  594MOL0     O81870   2.121   7.389   3.548 -0.5254 -0.3111  0.0561
  594MOL0     C81871   2.172   7.249   3.541  0.4907  0.1533  0.1706
  594MOL0     C81872   2.282   7.239   3.429 -0.2978 -0.0379 -0.4835
  594MOL0     C81873   2.229   7.206   3.288 -0.5628  1.1264  1.1248
  594MOL0     C81874   2.337   7.233   3.178  0.3255 -1.0463  1.2615
  594MOL0     C81875   2.324   7.139   3.052  0.0913  0.5433  0.1612
  594MOL0     C81876   2.434   7.149   2.934  1.2945 -0.5355  0.2567
  594MOL0     C81877   2.425   7.275   2.838  1.2139 -0.1234 -0.2454
  594MOL0     C81878   2.304   7.277   2.742  0.2324  0.7059 -0.3101
  594MOL0    Cl81879   2.328   7.131   2.643  0.1405  0.1071  0.0969
  594MOL0     C81880   1.966   7.548   3.646 -0.0013 -0.0131  0.5120
  594MOL0     C81881   1.873   7.579   3.753 -0.5039 -0.6171 -0.5516
  594MOL0     O81882   1.788   7.420   4.111 -0.3342 -0.1991  0.6861
  594MOL0     C81883   1.560   7.503   4.262  0.1010  0.3034 -0.5791
  594MOL0     C81884   1.478   7.575   4.342  0.0231 -0.2937 -0.0455
  594MOL0     N81885   1.253   7.777   4.986 -0.4720 -0.1742 -0.2376
  594MOL0     N81886   1.212   7.707   5.082 -0.2037  0.5019  0.1148
  594MOL0     C81887   1.232   6.420   4.983 -0.1905 -0.6909 -0.6040
  594MOL0     C81888   1.269   6.299   4.927 -0.5421  0.2815  0.1269
  594MOL0     C81889   1.471   5.869   4.981 -0.1004 -0.0135  0.5586
  594MOL0     C81890   1.600   5.818   4.985  0.3197 -0.9167 -0.3823
  594MOL0     C81891   1.615   5.680   4.952 -1.1708 -0.4309 -0.5568
  594MOL0     C81892   1.511   5.596   4.914 -1.3986 -0.5761 -0.7645
  594MOL0     O81893   1.540   5.463   4.903  0.1971  0.3367  0.4773
  594MOL0     C81894   1.424   5.371   4.917 -0.3741  0.3100 -0.1071
  594MOL0     C81895   1.481   5.238   4.977 -0.8339 -0.1782 -1.0552
  594MOL0     C81896   1.604   5.182   4.902 -0.3083  0.2479 -0.4844
  594MOL0     C81897   1.646   5.051   4.966  0.0602  0.4593 -0.6218
  594MOL0     C81898   1.715   5.057   5.094 -0.6448 -0.2322 -0.9792
  594MOL0     C81899   1.766   5.050   5.207 -0.4269 -0.0329 -0.6970
  594MOL0     C81900   1.385   5.655   4.911  0.4007 -0.6836 -0.8293
  594MOL0     C81901   1.367   5.796   4.928  0.3778 -0.2776  0.4381
  594MOL0     C81902   1.234   5.855   4.898  1.6776 -0.3579  0.4017
  594MOL0     H81903   1.570   6.284   5.076  0.0855  0.3464 -3.3175
  594MOL0     H81904   1.526   6.513   5.131  0.4191 -0.7032  0.2869
  594MOL0     H81905   1.072   6.661   5.080  0.8940 -2.2981 -0.6516
  594MOL0     H81906   1.196   6.687   4.957  2.2924 -0.3117  0.2029
  594MOL0     H81907   1.283   6.876   5.078 -0.6716  0.9430 -1.6128
  594MOL0     H81908   1.111   6.907   5.038  1.7424  0.3894 -0.5529
  594MOL0     H81909   1.051   6.868   5.272  0.0998  0.3739  2.2181
  594MOL0     H81910   1.205   6.793   5.310 -0.4403 -0.6959 -1.1247
  594MOL0     H81911   1.195   7.023   5.382  0.6134  3.5996  0.0212
  594MOL0     H81912   1.329   6.999   5.271 -0.6678  0.7389 -1.9630
  594MOL0     H81913   1.061   7.120   5.168  1.0536 -1.1871 -1.2265
  594MOL0     H81914   1.204   7.106   5.082  1.7389 -0.7197  1.0399
  594MOL0     H81915   1.165   7.277   5.323 -2.1360 -0.2958 -1.2349
  594MOL0     H81916   1.335   7.235   5.267  1.3215 -0.1556 -3.6240
  594MOL0     H81917   1.132   7.367   5.086  0.5203  2.2010 -1.0326
  594MOL0     H81918   1.306   7.342   5.061 -0.4493  1.5993 -0.7202
  594MOL0     H81919   1.210   7.532   5.269  1.4584 -0.0622  0.0971
  594MOL0     H81920   1.372   7.498   5.246  1.1721 -0.3091 -2.9351
  594MOL0     H81921   1.467   7.528   4.975 -0.1182 -0.3459 -0.2454
  594MOL0     H81922   1.516   7.696   4.792  0.5143 -0.0141 -0.4239
  594MOL0     H81923   1.495   7.860   4.854  0.1706  0.7293 -0.9097
  594MOL0     H81924   1.296   7.904   4.732 -0.8646  0.0041 -0.7129
  594MOL0     H81925   1.423   7.876   4.616  2.6162  1.9303  2.8717
  594MOL0     H81926   1.359   7.607   4.612  1.5425  1.0208 -3.5021
  594MOL0     H81927   1.203   7.668   4.666 -0.2279  0.8878  0.7659
  594MOL0     H81928   1.220   7.644   4.407 -2.3227  1.3777 -1.2587
  594MOL0     H81929   1.182   7.802   4.475 -0.1520 -0.3163  0.2712
  594MOL0     H81930   1.503   7.882   4.200  0.5315 -0.3465 -1.2067
  594MOL0     H81931   1.628   7.881   4.026 -1.8701  0.5860 -0.7997
  594MOL0     H81932   1.597   7.735   3.921 -1.6189  1.6189  0.9872
  594MOL0     H81933   1.755   7.776   3.992  0.8887  0.7768 -1.2066
  594MOL0     H81934   1.809   7.275   3.883 -1.0513 -0.6460 -1.7760
  594MOL0     H81935   1.993   7.222   3.718 -2.2844 -0.4634 -0.1702
  594MOL0     H81936   2.216   7.225   3.638  2.2684  0.2052 -0.5772
  594MOL0     H81937   2.104   7.167   3.516 -0.2259  1.0534 -0.9522
  594MOL0     H81938   2.343   7.329   3.439  1.4324 -1.3928  2.2168
  594MOL0     H81939   2.355   7.163   3.458  2.8430  2.1157 -2.2484
  594MOL0     H81940   2.144   7.269   3.260  0.5117  1.5977 -1.4038
  594MOL0     H81941   2.196   7.102   3.275  1.4477  0.7371 -1.9064
  594MOL0     H81942   2.435   7.200   3.212  1.1609 -3.2213 -2.6384
  594MOL0     H81943   2.328   7.336   3.139 -2.4489 -1.7365 -0.2262
  594MOL0     H81944   2.323   7.036   3.090  0.7156  0.6241  0.4190
  594MOL0     H81945   2.221   7.151   3.017  0.3232 -0.0433 -0.7431
  594MOL0     H81946   2.406   7.061   2.875  0.0063 -1.6538  2.4250
  594MOL0     H81947   2.530   7.129   2.982  2.6445  1.1095 -1.5854
  594MOL0     H81948   2.517   7.264   2.778  3.8208  0.1098  3.3661
  594MOL0     H81949   2.421   7.373   2.885 -0.6418  0.3975 -1.3898
  594MOL0     H81950   2.291   7.366   2.680  4.3278  2.3024  0.8134
  594MOL0     H81951   2.211   7.261   2.798 -1.4110 -1.8264 -3.3894
  594MOL0     H81952   1.986   7.635   3.585  0.8448  1.6542  3.0419
  594MOL0     H81953   1.850   7.685   3.757 -0.7355 -0.6997  1.0221
  594MOL0     H81954   1.584   7.405   4.301 -1.8169 -0.3104 -0.8470
  594MOL0     H81955   1.430   7.511   4.416 -3.6078  1.1977 -0.9187
  594MOL0     H81956   1.127   6.445   4.968  0.0294  2.1011  1.5937
  594MOL0     H81957   1.198   6.241   4.869 -3.5289  2.9551  0.7955
  594MOL0     H81958   1.680   5.883   5.018 -0.6930  0.2257 -0.0744
  594MOL0     H81959   1.716   5.641   4.956 -1.3741 -0.9034  0.8852
  594MOL0     H81960   1.360   5.399   5.001 -2.5969 -3.9633 -0.1267
  594MOL0     H81961   1.371   5.361   4.822  1.0847  3.0080 -1.3157
  594MOL0     H81962   1.408   5.156   4.971  1.3840 -2.2366 -1.1599
  594MOL0     H81963   1.495   5.241   5.086 -2.6860 -1.5721 -0.7158
  594MOL0     H81964   1.586   5.169   4.795  1.5787  0.1564 -0.8138
  594MOL0     H81965   1.682   5.256   4.918  0.5616 -0.5285 -1.0371
  594MOL0     H81966   1.707   4.989   4.899 -2.0860  0.2696 -2.5348
  594MOL0     H81967   1.558   4.988   4.973  0.1199  0.4700  0.3340
  594MOL0     H81968   1.818   5.049   5.300 -0.2332 -0.8370 -0.8092
  594MOL0     H81969   1.293   5.602   4.889 -0.3879  0.9009 -1.5125
  594MOL0     H81970   1.149   5.789   4.877  1.1253  0.7127 -0.8093
  594MOL0     H81971   1.215   5.921   4.983  0.4890  0.9633 -0.8431
  594MOL0     H81972   1.238   5.914   4.807 -2.6618 -1.0546 -0.4872
  595MOL0     O81973   2.474   3.613   2.368 -0.7928  0.4227 -0.5072
  595MOL0     C81974   2.396   3.702   2.374  0.3114  0.4357 -1.2901
  595MOL0     O81975   2.272   3.690   2.437 -0.2819  0.7410  0.8449
  595MOL0     C81976   2.248   3.582   2.517  0.5397 -0.5193 -0.1324
  595MOL0     C81977   2.337   3.494   2.583 -0.3216 -1.1950 -0.0452
  595MOL0     C81978   2.295   3.381   2.657  0.7491  0.1008  0.5687
  595MOL0     C81979   2.158   3.350   2.667  0.2308 -1.1928  0.5262
  595MOL0     O81980   2.109   3.237   2.733  0.0256 -0.0935  0.7699
  595MOL0     C81981   2.170   3.174   2.844 -0.8684 -0.3323 -0.0692
  595MOL0     C81982   2.196   3.281   2.953 -0.4741  0.0272 -0.4889
  595MOL0     C81983   2.297   3.224   3.053  0.9174 -0.6519 -0.6374
  595MOL0     C81984   2.363   3.339   3.132  0.7211 -0.4820  0.0840
  595MOL0     C81985   2.490   3.308   3.214  0.3956  0.4046 -0.6572
  595MOL0     C81986   2.471   3.210   3.340 -0.2185  0.6335 -0.1944
  595MOL0     C81987   2.613   3.165   3.403  0.6479 -0.4432 -0.2079
  595MOL0     C81988   2.592   3.047   3.493  0.0291  0.1498  0.2778
  595MOL0     N81989   2.715   2.974   3.532  0.0378  0.0120  0.2246
  595MOL0     C81990   2.832   3.030   3.572 -1.1281 -0.0096  0.4094
  595MOL0     C81991   2.921   2.934   3.553 -0.5047  0.4871 -0.0108
  595MOL0     C81992   3.055   2.957   3.585  0.0841 -0.4651 -1.2927
  595MOL0     C81993   3.157   2.893   3.493  0.9849  0.0198  0.4967
  595MOL0     C81994   3.295   2.917   3.563 -0.5500  0.4073 -0.4966
  595MOL0     C81995   3.403   2.891   3.457 -0.0929 -0.9227  0.3102
  595MOL0     O81996   3.400   2.749   3.459 -0.6033 -0.4203  0.5394
  595MOL0     C81997   3.373   2.682   3.341  1.2023  0.4936  0.1338
  595MOL0     C81998   3.296   2.562   3.357 -0.2472  0.1555 -0.4754
  595MOL0     C81999   3.275   2.469   3.263 -0.4922  1.0165 -0.6136
  595MOL0     C82000   3.215   2.332   3.316 -0.3109 -0.2222 -0.7770
  595MOL0     C82001   3.320   2.504   3.133  0.1796  0.2583 -0.1798
  595MOL0     C82002   3.297   2.427   3.011  0.6546  0.5137  0.1930
  595MOL0     O82003   3.327   2.480   2.897 -0.1698 -0.2644 -0.4801
  595MOL0     C82004   3.268   2.437   2.776 -1.0344 -0.3028 -0.9236
  595MOL0     C82005   3.341   2.365   2.696  0.7249 -0.2814  0.4573
  595MOL0     C82006   3.291   2.323   2.580 -0.8572 -0.2893 -0.4955
  595MOL0     C82007   3.150   2.334   2.543  0.0572  0.2704  0.2802
  595MOL0     O82008   3.095   2.265   2.436  0.2702 -0.3907 -0.0189
  595MOL0     C82009   3.120   2.126   2.442  0.9311  0.5378  0.3997
  595MOL0     C82010   3.022   2.052   2.340 -0.3562 -0.1491 -0.1230
  595MOL0     C82011   2.873   2.099   2.338  0.5026  0.4477  0.0987
  595MOL0     C82012   2.792   2.025   2.233 -0.1596  0.1994  0.2834
  595MOL0     C82013   2.669   2.107   2.205 -0.4206  0.6260  0.4630
  595MOL0     C82014   2.542   2.028   2.225  0.9364 -0.3393 -0.9979
  595MOL0     C82015   2.542   1.888   2.159  0.4362 -0.2746  0.9054
  595MOL0     C82016   2.407   1.824   2.123  0.1927 -0.1754 -0.2251
  595MOL0    Cl82017   2.291   1.844   2.255  0.6481  0.2969 -0.0999
  595MOL0     C82018   3.071   2.409   2.637  0.3098 -0.4537 -0.0479
  595MOL0     C82019   3.127   2.468   2.750 -0.0328 -0.9804  0.2003
  595MOL0     O82020   3.233   2.316   3.021  0.0571 -0.5217 -0.6173
  595MOL0     C82021   3.381   2.627   3.110 -0.9077 -0.4131 -0.8553
  595MOL0     C82022   3.415   2.712   3.214 -0.6971 -1.5247  0.0776
  595MOL0     N82023   2.863   2.818   3.496  0.9801  0.5052 -0.4433
  595MOL0     N82024   2.739   2.849   3.483 -0.2433  0.7351 -0.5794
  595MOL0     C82025   2.071   3.446   2.614  0.7303 -0.2202  0.5243
  595MOL0     C82026   2.113   3.553   2.538  0.7010 -0.0022  0.3510
  595MOL0     C82027   2.436   3.831   2.313 -0.0010 -0.2630  0.2797
  595MOL0     C82028   2.343   3.935   2.320 -0.0825 -0.0369 -0.4292
  595MOL0     C82029   2.374   4.063   2.272  0.6189  0.2107  0.1317
  595MOL0     C82030   2.491   4.092   2.216  0.5020  0.1242  0.2237
  595MOL0     O82031   2.508   4.221   2.162  0.2961 -0.4583 -0.0293
  595MOL0     C82032   2.636   4.274   2.114  0.6411  0.2131 -0.3711
  595MOL0     C82033   2.671   4.216   1.981 -0.0371 -0.1681 -0.5104
  595MOL0     C82034   2.656   4.310   1.859  0.6875  0.6949 -0.3698
  595MOL0     C82035   2.502   4.310   1.822  0.0864 -0.2167 -0.7165
  595MOL0     C82036   2.470   4.441   1.755  0.0920  0.2671 -0.0249
  595MOL0     C82037   2.453   4.544   1.692 -0.0417  0.9513 -0.1359
  595MOL0     C82038   2.590   3.995   2.211 -0.4011  0.6774  0.0105
  595MOL0     C82039   2.565   3.859   2.251 -0.7744  0.2480  1.2898
  595MOL0     C82040   2.673   3.749   2.225  0.8728  0.8073 -0.4353
  595MOL0     H82041   2.443   3.492   2.563  0.0957 -7.1900  1.0584
  595MOL0     H82042   2.366   3.312   2.701  1.8632  1.9378  1.7761
  595MOL0     H82043   2.268   3.137   2.815 -1.1447  0.6441 -2.4960
  595MOL0     H82044   2.103   3.100   2.889 -1.2122  1.2895  2.3205
  595MOL0     H82045   2.240   3.373   2.915  0.6638  0.7188  2.2778
  595MOL0     H82046   2.097   3.303   2.994 -1.2965 -3.0115 -0.5503
  595MOL0     H82047   2.226   3.167   3.114 -2.7514  2.4761 -1.5895
  595MOL0     H82048   2.359   3.150   3.002 -0.1203 -1.2309 -1.0850
  595MOL0     H82049   2.405   3.416   3.066  0.2241  0.6054  0.9945
  595MOL0     H82050   2.293   3.390   3.199 -0.0115 -2.4194  0.8482
  595MOL0     H82051   2.521   3.403   3.258  2.3048 -0.5840  0.2598
  595MOL0     H82052   2.576   3.275   3.153 -0.3741  0.4756 -1.8197
  595MOL0     H82053   2.397   3.246   3.412 -2.4204 -0.8341 -1.6247
  595MOL0     H82054   2.421   3.116   3.314 -3.7661  1.6819  2.1233
  595MOL0     H82055   2.651   3.257   3.447 -1.1679  1.0716 -1.6190
  595MOL0     H82056   2.682   3.129   3.326  1.3495  0.5129 -0.0481
  595MOL0     H82057   2.546   3.082   3.586 -1.5820  3.5364 -1.5966
  595MOL0     H82058   2.532   2.969   3.444  1.3076 -0.6379 -0.0847
  595MOL0     H82059   2.863   3.129   3.605  1.6196 -0.6052 -0.1421
  595MOL0     H82060   3.061   2.922   3.689 -1.7829  4.2600  0.7136
  595MOL0     H82061   3.082   3.062   3.602  1.8069 -0.9885 -0.6148
  595MOL0     H82062   3.141   2.789   3.466  2.2811  0.0950 -0.6644
  595MOL0     H82063   3.150   2.952   3.401 -3.3819 -1.5479 -0.3751
  595MOL0     H82064   3.306   3.019   3.601 -1.4589  0.2315  0.2634
  595MOL0     H82065   3.306   2.845   3.644 -0.9134  4.7129  3.8816
  595MOL0     H82066   3.382   2.928   3.356 -0.8448 -3.4392 -0.5532
  595MOL0     H82067   3.499   2.929   3.492 -0.1128 -2.9975  2.9547
  595MOL0     H82068   3.259   2.526   3.453  2.1311  2.7335  1.6046
  595MOL0     H82069   3.120   2.364   3.359  0.1462 -2.1919  1.9704
  595MOL0     H82070   3.278   2.283   3.391 -1.1913  0.1576  0.2251
  595MOL0     H82071   3.190   2.255   3.242  2.3177 -3.1345  1.0873
  595MOL0     H82072   3.446   2.350   2.716  1.7738  2.0437 -2.3692
  595MOL0     H82073   3.357   2.296   2.499  1.0981  2.8015 -0.1144
  595MOL0     H82074   3.216   2.101   2.396 -0.0990 -3.1550 -0.0098
  595MOL0     H82075   3.110   2.092   2.546  0.4695 -2.1885 -0.4681
  595MOL0     H82076   3.067   2.051   2.241  1.1959 -0.1576  0.5596
  595MOL0     H82077   3.024   1.945   2.361  1.2564 -0.3314 -1.0937
  595MOL0     H82078   2.877   2.207   2.322  1.7693  0.1261 -2.0992
  595MOL0     H82079   2.830   2.079   2.437 -2.2854  1.4817 -0.8061
  595MOL0     H82080   2.783   1.923   2.271  0.6513  0.5788  1.5627
  595MOL0     H82081   2.852   2.015   2.142  1.4119  1.6930  1.0837
  595MOL0     H82082   2.658   2.189   2.276 -0.1943 -0.7730  2.1937
  595MOL0     H82083   2.666   2.140   2.101 -2.7851  1.4612  0.7477
  595MOL0     H82084   2.471   2.091   2.170  1.4059  1.3307  0.2530
  595MOL0     H82085   2.502   2.021   2.326  0.4381 -0.5109 -1.2038
  595MOL0     H82086   2.605   1.830   2.228  0.7660  2.7922  3.4499
  595MOL0     H82087   2.595   1.883   2.063 -0.5374  2.4855  0.1319
  595MOL0     H82088   2.441   1.722   2.100  1.4991  0.3496 -0.7401
  595MOL0     H82089   2.364   1.868   2.033  1.9898  2.1471 -0.0334
  595MOL0     H82090   2.968   2.439   2.620  0.8700  2.5950  1.2948
  595MOL0     H82091   3.063   2.531   2.811 -0.4150 -0.7436 -0.4455
  595MOL0     H82092   3.402   2.669   3.012  2.6316 -1.8522 -0.8820
  595MOL0     H82093   3.476   2.799   3.195 -2.3607 -0.0240  1.3424
  595MOL0     H82094   1.963   3.437   2.619  0.3097  2.3278 -1.6767
  595MOL0     H82095   2.040   3.614   2.486 -2.5074 -3.1020  0.8528
  595MOL0     H82096   2.239   3.913   2.342 -0.6024 -1.5821 -3.7342
  595MOL0     H82097   2.296   4.138   2.271 -2.0445 -2.3397  1.3147
  595MOL0     H82098   2.622   4.383   2.110 -1.8456 -0.0727 -1.7387
  595MOL0     H82099   2.719   4.253   2.183 -0.7681 -2.7547  0.5583
  595MOL0     H82100   2.619   4.122   1.958 -0.4676 -0.2995  0.9323
  595MOL0     H82101   2.779   4.202   1.992 -0.0773 -0.9884 -1.0359
  595MOL0     H82102   2.684   4.410   1.892 -2.5206  1.1273  1.4016
  595MOL0     H82103   2.733   4.264   1.795  0.8066 -3.7810  2.5456
  595MOL0     H82104   2.434   4.293   1.907  0.9696 -2.7078 -0.4338
  595MOL0     H82105   2.489   4.225   1.756  0.6013 -1.5642  0.8470
  595MOL0     H82106   2.415   4.626   1.635 -0.9169 -0.1141 -1.1499
  595MOL0     H82107   2.683   4.018   2.161 -0.3024  2.1977  0.8262
  595MOL0     H82108   2.638   3.710   2.129  0.5678 -1.1352  0.4035
  595MOL0     H82109   2.764   3.805   2.203  1.0224  0.2210 -1.3787
  595MOL0     H82110   2.689   3.674   2.304  0.0036  0.6079 -0.4395
  596MOL0     O82111   7.466   8.489   8.941 -0.4202 -0.0068  0.0994
  596MOL0     C82112   7.397   8.448   9.034  0.2742 -0.2059 -0.1054
  596MOL0     O82113   7.274   8.505   9.076 -0.3826 -0.3115 -0.4498
  596MOL0     C82114   7.247   8.636   9.058 -0.4497 -0.9299 -0.3858
  596MOL0     C82115   7.345   8.740   9.054  0.2297  0.3688  0.1116
  596MOL0     C82116   7.292   8.878   9.071 -0.5422 -0.2782  0.2132
  596MOL0     C82117   7.156   8.903   9.073  0.8955 -0.0499 -0.0204
  596MOL0     O82118   7.110   9.028   9.098 -0.1470 -0.0558  0.0577
  596MOL0     C82119   6.972   9.061   9.111  0.6906 -0.0220 -0.1615
  596MOL0     C82120   6.932   9.200   9.119  0.4894 -0.1711 -0.4858
  596MOL0     C82121   6.791   9.237   9.076 -0.1179  0.4948 -0.6641
  596MOL0     C82122   6.786   9.390   9.096  0.6546  0.3686  0.4689
  596MOL0     C82123   6.650   9.438   9.045  0.9476 -0.4917  0.4942
  596MOL0     C82124   6.653   9.592   9.019  0.2502  1.0031  0.7102
  596MOL0     C82125   6.658   9.658   9.153 -0.1913 -0.8310 -0.1884
  596MOL0     C82126   6.601   9.798   9.149  0.1266 -0.7301  0.1032
  596MOL0     N82127   6.639   9.885   9.028  0.0458 -0.6580 -1.3582
  596MOL0     C82128   6.575   9.891   8.912  0.2270  1.3779  0.3025
  596MOL0     C82129   6.619  10.009   8.859  1.3389  0.6024  0.5603
  596MOL0     C82130   6.594  10.063   8.718 -0.1029  1.1819  0.7348
  596MOL0     C82131   6.704  10.142   8.655 -0.5428 -0.7007 -0.0861
  596MOL0     C82132   6.824  10.048   8.628  0.1967  0.1353  0.0662
  596MOL0     C82133   6.941  10.104   8.542 -0.0923  0.0170  0.5522
  596MOL0     O82134   6.903  10.202   8.438  0.9688  0.3067 -0.4313
  596MOL0     C82135   6.984  10.222   8.330 -0.4213  0.8372 -0.6042
  596MOL0     C82136   7.092  10.141   8.280  0.7894  0.6388 -1.0423
  596MOL0     C82137   7.166  10.181   8.166 -0.4005  0.0002 -1.0954
  596MOL0     C82138   7.285  10.094   8.120  1.0683 -0.1504  0.4704
  596MOL0     C82139   7.136  10.304   8.105  0.2538  0.4457 -0.3517
  596MOL0     C82140   7.220  10.361   7.997 -0.4466 -0.4228  0.3436
  596MOL0     O82141   7.354  10.362   8.016 -0.2671  0.0388  0.5452
  596MOL0     C82142   7.429  10.387   7.906 -0.4067  1.6926 -1.2334
  596MOL0     C82143   7.469  10.514   7.884  0.1930 -0.3114 -0.5755
  596MOL0     C82144   7.552  10.544   7.778 -0.9728  0.3769  0.2036
  596MOL0     C82145   7.592  10.455   7.686 -0.1647  1.5540  0.0045
  596MOL0     O82146   7.666  10.462   7.567 -0.2352  0.9434 -0.3371
  596MOL0     C82147   7.696  10.592   7.515 -0.6513 -0.2587 -0.3561
  596MOL0     C82148   7.789  10.591   7.390 -0.3025 -1.1368  1.0931
  596MOL0     C82149   7.858  10.727   7.378 -0.0170  0.0601  0.0673
  596MOL0     C82150   7.772  10.831   7.321  1.0241  0.9357 -1.2448
  596MOL0     C82151   7.796  10.971   7.377  0.6929  0.1813 -0.6116
  596MOL0     C82152   7.805  10.980   7.531  0.3049 -0.6429 -0.2739
  596MOL0     C82153   7.770  11.121   7.580 -0.3514  0.0291 -0.8735
  596MOL0     C82154   7.871  11.231   7.534 -0.0982  0.3929 -0.1489
  596MOL0    Cl82155   7.854  11.358   7.656 -0.5928 -0.1248  0.5603
  596MOL0     C82156   7.557  10.321   7.708  0.0954 -0.1593  0.3610
  596MOL0     C82157   7.477  10.288   7.818  0.4416 -0.4024  0.6951
  596MOL0     O82158   7.166  10.416   7.908 -0.2922 -0.0725  0.9319
  596MOL0     C82159   7.031  10.389   8.149 -1.0317  0.3181  0.2108
  596MOL0     C82160   6.956  10.341   8.255  0.3915  1.1538 -0.4184
  596MOL0     N82161   6.724  10.065   8.937 -0.0152 -0.3319 -0.4249
  596MOL0     N82162   6.724   9.988   9.048  0.2857  1.6160  0.0323
  596MOL0     C82163   7.068   8.796   9.068 -0.9557 -0.6962  0.0938
  596MOL0     C82164   7.114   8.661   9.064  1.1516 -0.2711  0.5520
  596MOL0     C82165   7.431   8.315   9.094  0.6011 -0.2516  0.8281
  596MOL0     C82166   7.415   8.286   9.227  0.5861  0.0303 -0.6030
  596MOL0     C82167   7.437   8.157   9.274 -0.4314 -0.4183  0.0504
  596MOL0     C82168   7.493   8.060   9.194  0.3227  0.3674  0.0430
  596MOL0     O82169   7.510   7.940   9.260  0.4851 -0.2036  0.3475
  596MOL0     C82170   7.533   7.826   9.179  0.0564  1.9180 -0.5928
  596MOL0     C82171   7.537   7.696   9.267  0.9724 -0.1699  0.6313
  596MOL0     C82172   7.683   7.641   9.298  0.5735 -0.1849 -0.1216
  596MOL0     C82173   7.711   7.636   9.460  1.2315 -1.0026  1.6232
  596MOL0     C82174   7.612   7.548   9.528  0.0618  0.0741 -0.8562
  596MOL0     C82175   7.536   7.473   9.589 -0.2758 -0.4203 -0.2677
  596MOL0     C82176   7.531   8.084   9.059  0.2353 -0.6272 -0.5375
  596MOL0     C82177   7.487   8.213   9.009  0.8545 -0.7041 -0.2502
  596MOL0     C82178   7.498   8.230   8.853 -0.1229  0.2734 -1.2266
  596MOL0     H82179   7.453   8.726   9.055  1.0778  5.1607  0.1325
  596MOL0     H82180   7.359   8.961   9.090 -3.1178  2.1850 -0.6676
  596MOL0     H82181   6.933   9.004   9.196  0.4051 -4.5211 -2.9579
  596MOL0     H82182   6.923   9.027   9.020  0.8341 -0.2904 -0.1384
  596MOL0     H82183   6.947   9.228   9.223 -3.9325  0.4163  0.1832
  596MOL0     H82184   7.003   9.259   9.060  0.5811  0.2778  0.0617
  596MOL0     H82185   6.774   9.224   8.969 -1.4088 -3.8800 -0.1265
  596MOL0     H82186   6.727   9.183   9.147  0.3986 -0.4067 -0.8623
  596MOL0     H82187   6.807   9.417   9.200  2.2614 -3.5665  1.3387
  596MOL0     H82188   6.864   9.443   9.039 -0.3624 -0.2085 -1.5557
  596MOL0     H82189   6.570   9.392   9.103 -0.6269  1.0277 -0.3935
  596MOL0     H82190   6.642   9.387   8.949  1.5483 -1.9711  1.2068
  596MOL0     H82191   6.736   9.610   8.951 -1.5027 -0.4385 -1.9564
  596MOL0     H82192   6.559   9.619   8.969  1.2467 -0.5377 -2.1902
  596MOL0     H82193   6.761   9.669   9.186 -0.7785 -1.2412  1.9432
  596MOL0     H82194   6.587   9.623   9.229 -1.8283  1.7515 -0.3672
  596MOL0     H82195   6.492   9.794   9.144  0.1139 -0.7413  0.3601
  596MOL0     H82196   6.634   9.855   9.237  1.1990 -3.0247  1.2717
  596MOL0     H82197   6.501   9.824   8.870 -0.1143  2.8789 -1.5853
  596MOL0     H82198   6.498  10.113   8.730 -1.6884 -0.9845 -1.8305
  596MOL0     H82199   6.568   9.977   8.656 -2.4787  1.9064  0.6548
  596MOL0     H82200   6.665  10.184   8.562 -1.9037  1.6280  1.4481
  596MOL0     H82201   6.740  10.222   8.721  2.1102 -1.3284 -0.6211
  596MOL0     H82202   6.864  10.020   8.725 -2.5546 -0.7556  1.0324
  596MOL0     H82203   6.780   9.958   8.584  1.4064  0.5187 -2.0562
  596MOL0     H82204   7.005  10.152   8.617  2.4970  2.2307 -2.8028
  596MOL0     H82205   6.983  10.017   8.492 -5.6321 -2.1434 -1.1372
  596MOL0     H82206   7.132  10.054   8.332  2.7295  2.3143  0.4218
  596MOL0     H82207   7.282  10.082   8.012 -1.8386  3.6133 -0.0997
  596MOL0     H82208   7.287  10.000   8.176 -1.6821  0.3528  1.6252
  596MOL0     H82209   7.372  10.154   8.148 -0.7304  3.6173 -1.2289
  596MOL0     H82210   7.435  10.592   7.952  4.3528 -1.7184  3.7136
  596MOL0     H82211   7.597  10.642   7.765 -0.2014  0.4670  2.9158
  596MOL0     H82212   7.594  10.620   7.489 -1.5441 -5.3020 -3.7494
  596MOL0     H82213   7.741  10.649   7.596  0.5298 -3.1294  1.1545
  596MOL0     H82214   7.866  10.515   7.407  0.1394 -0.9331  0.0952
  596MOL0     H82215   7.730  10.565   7.301 -0.4053 -0.5837  0.9943
  596MOL0     H82216   7.952  10.716   7.323  0.8384  1.9237  1.0485
  596MOL0     H82217   7.895  10.738   7.480  1.3612 -3.2483  0.0516
  596MOL0     H82218   7.669  10.800   7.339  1.0021  0.4998 -2.0714
  596MOL0     H82219   7.773  10.838   7.212  0.4863  3.0960 -1.1669
  596MOL0     H82220   7.880  11.010   7.319  2.0424  0.2428  1.2833
  596MOL0     H82221   7.710  11.029   7.342  0.4406 -1.0496 -2.0889
  596MOL0     H82222   7.905  10.956   7.567  1.9788  0.2799 -3.8834
  596MOL0     H82223   7.728  10.916   7.575 -1.1519  0.6756 -0.8114
  596MOL0     H82224   7.767  11.126   7.689  2.3419  4.5719 -0.7532
  596MOL0     H82225   7.671  11.141   7.538  0.8310  0.1527 -3.8477
  596MOL0     H82226   7.858  11.261   7.429  1.5949 -2.5606 -1.3471
  596MOL0     H82227   7.973  11.191   7.541  0.2022  1.3665  1.8201
  596MOL0     H82228   7.599  10.243   7.646 -1.5475  0.5539 -1.7993
  596MOL0     H82229   7.472  10.182   7.843  0.5937 -1.2791 -2.4835
  596MOL0     H82230   7.007  10.482   8.100 -1.9006  0.3072  0.5936
  596MOL0     H82231   6.877  10.411   8.277  0.3409  0.5890  1.4085
  596MOL0     H82232   6.959   8.794   9.067 -1.0388 -0.4867  2.5588
  596MOL0     H82233   7.048   8.575   9.068  0.6789  0.0996  0.7551
  596MOL0     H82234   7.381   8.354   9.304  1.1715 -1.8647  1.4121
  596MOL0     H82235   7.418   8.135   9.379  4.1495  3.3394  2.0339
  596MOL0     H82236   7.445   7.810   9.115 -1.6602  2.0885  1.5973
  596MOL0     H82237   7.619   7.836   9.112  0.5014  0.0069 -0.3731
  596MOL0     H82238   7.475   7.618   9.222 -1.9351  1.5201  1.4804
  596MOL0     H82239   7.490   7.723   9.362  1.8365  0.6730  0.8292
  596MOL0     H82240   7.690   7.539   9.259 -2.1603  0.4833 -2.7684
  596MOL0     H82241   7.770   7.697   9.263  1.8809 -1.6135  0.7350
  596MOL0     H82242   7.707   7.741   9.491  2.2359 -1.3007  2.8375
  596MOL0     H82243   7.811   7.598   9.481  2.2591  0.1742 -0.7471
  596MOL0     H82244   7.461   7.419   9.643 -0.3863 -0.4909 -0.4930
  596MOL0     H82245   7.575   8.007   8.997  0.9582 -0.5927 -0.0882
  596MOL0     H82246   7.493   8.131   8.807  0.2713 -0.5032  0.3346
  596MOL0     H82247   7.417   8.292   8.814  0.4533 -0.2736 -3.4344
  596MOL0     H82248   7.597   8.273   8.834  1.1912 -0.0797  3.4457
  597MOL0     O82249   1.563   6.397   3.376  0.3348 -0.2249  0.0490
  597MOL0     C82250   1.671   6.421   3.316  0.0878 -0.4033  0.5480
  597MOL0     O82251   1.740   6.545   3.334 -0.8554  0.4006  0.0882
  597MOL0     C82252   1.684   6.646   3.405  0.2382  0.3999  1.0568
  597MOL0     C82253   1.575   6.720   3.349 -0.3684  0.0784 -0.4452
  597MOL0     C82254   1.508   6.809   3.432 -0.6798  0.5160  0.5463
  597MOL0     C82255   1.549   6.839   3.561  0.7241  0.4013  0.2676
  597MOL0     O82256   1.477   6.943   3.615 -0.7660 -0.1163  0.2088
  597MOL0     C82257   1.499   6.978   3.758 -0.2747 -1.0629 -0.2500
  597MOL0     C82258   1.384   7.053   3.810  0.7306  0.5331 -0.1483
  597MOL0     C82259   1.263   6.962   3.822 -0.4046  0.8206 -0.2721
  597MOL0     C82260   1.274   6.808   3.868 -0.6547  0.6061 -0.1027
  597MOL0     C82261   1.139   6.747   3.876  0.8888 -0.2668  0.5683
  597MOL0     C82262   1.142   6.598   3.886  0.7701 -0.0382  0.2113
  597MOL0     C82263   1.001   6.543   3.871  0.3363  0.4052  0.4968
  597MOL0     C82264   0.887   6.609   3.950 -0.3764  0.1766  0.2354
  597MOL0     N82265   0.759   6.535   3.949 -0.8610 -0.1033 -0.4124
  597MOL0     C82266   0.698   6.489   4.064 -0.7007  0.9179 -0.3744
  597MOL0     C82267   0.572   6.449   4.025  0.2217  0.3710  0.5154
  597MOL0     C82268   0.451   6.395   4.101  0.7422  0.0193 -0.1943
  597MOL0     C82269   0.491   6.308   4.227  0.3441 -0.8549  0.2843
  597MOL0     C82270   0.546   6.403   4.338  0.2582  0.2642  0.7691
  597MOL0     C82271   0.585   6.333   4.472 -0.2119 -0.3822  0.5358
  597MOL0     O82272   0.661   6.219   4.445  1.2005  1.1876 -0.3096
  597MOL0     C82273   0.801   6.240   4.458  1.1658 -0.6483 -0.5837
  597MOL0     C82274   0.879   6.198   4.347  0.0157  0.4997 -0.7913
  597MOL0     C82275   1.014   6.200   4.348 -1.4526 -0.5878  0.0697
  597MOL0     C82276   1.082   6.154   4.224  0.3589 -0.2257 -0.8805
  597MOL0     C82277   1.084   6.271   4.452  0.5651 -0.0389  0.2999
  597MOL0     C82278   1.222   6.307   4.449 -0.6880 -0.2779 -0.1970
  597MOL0     O82279   1.283   6.312   4.572 -0.4451 -0.5565 -0.5274
  597MOL0     C82280   1.415   6.326   4.579 -0.6823 -1.1922 -0.8162
  597MOL0     C82281   1.501   6.238   4.640 -0.4062  0.3421  0.4369
  597MOL0     C82282   1.638   6.270   4.653 -0.3332 -0.0617  0.0997
  597MOL0     C82283   1.694   6.376   4.581 -0.4637  0.3947  0.4929
  597MOL0     O82284   1.822   6.399   4.600 -0.2211 -0.2506 -0.4101
  597MOL0     C82285   1.917   6.347   4.511  0.8022 -0.0963  0.5756
  597MOL0     C82286   2.040   6.432   4.505  0.0364  0.4634 -0.4124
  597MOL0     C82287   2.008   6.561   4.432 -0.3042  0.2064  0.1140
  597MOL0     C82288   1.981   6.535   4.282  0.7927  0.6481 -0.9403
  597MOL0     C82289   2.077   6.445   4.204  0.3242 -0.5321  0.7261
  597MOL0     C82290   2.211   6.507   4.180 -0.9038 -0.3514 -0.0420
  597MOL0     C82291   2.319   6.420   4.117  0.1588 -0.2887 -0.2503
  597MOL0     C82292   2.338   6.290   4.190 -0.5439 -0.6353 -0.8199
  597MOL0    Cl82293   2.425   6.301   4.356 -0.1248 -0.2514 -0.5140
  597MOL0     C82294   1.607   6.457   4.504 -0.5951 -1.1282  0.3673
  597MOL0     C82295   1.471   6.438   4.510  0.3002  0.1028  0.0818
  597MOL0     O82296   1.265   6.352   4.344 -0.8855 -0.2523 -0.0476
  597MOL0     C82297   1.008   6.309   4.565 -0.1138  0.2845  0.8383
  597MOL0     C82298   0.867   6.295   4.568 -0.5692 -0.7388  0.2495
  597MOL0     N82299   0.559   6.486   3.884  0.0577 -0.7877 -0.2165
  597MOL0     N82300   0.674   6.522   3.840 -0.0279  0.2791  0.2280
  597MOL0     C82301   1.644   6.759   3.618 -0.5134  0.9791 -0.2118
  597MOL0     C82302   1.726   6.672   3.541 -0.3177 -0.1429  0.8135
  597MOL0     C82303   1.737   6.324   3.235  0.0468  0.7972 -0.1711
  597MOL0     C82304   1.832   6.371   3.142 -0.3942 -0.1189 -0.1555
  597MOL0     C82305   1.887   6.280   3.055  0.0546  0.2981 -0.1801
  597MOL0     C82306   1.857   6.147   3.045 -0.2551  0.2126 -0.4575
  597MOL0     O82307   1.929   6.062   2.965  0.5935 -0.1950  1.0115
  597MOL0     C82308   1.942   6.102   2.829 -0.5134  0.5827  0.0502
  597MOL0     C82309   1.928   5.965   2.756 -1.1369  0.0279 -0.5333
  597MOL0     C82310   2.067   5.886   2.779  1.1774  0.3564 -0.2355
  597MOL0     C82311   2.045   5.727   2.760  0.0073 -0.1650 -0.6023
  597MOL0     C82312   2.169   5.654   2.785  1.0700 -0.1859 -0.3355
  597MOL0     C82313   2.266   5.585   2.814  0.5168  0.8088 -0.1279
  597MOL0     C82314   1.764   6.107   3.135  0.7960 -0.3560  0.7327
  597MOL0     C82315   1.704   6.186   3.233 -0.3269  0.0878 -0.9272
  597MOL0     C82316   1.611   6.117   3.321 -0.6588 -0.4503  0.6691
  597MOL0     H82317   1.552   6.699   3.245 -0.1629  0.4435 -0.5658
  597MOL0     H82318   1.428   6.872   3.395  0.6045  1.7582 -0.2114
  597MOL0     H82319   1.591   7.034   3.773 -0.3398 -1.1515  0.5434
  597MOL0     H82320   1.512   6.884   3.812  0.2788 -0.1029  1.3774
  597MOL0     H82321   1.407   7.079   3.914 -0.6426  0.0838  0.2909
  597MOL0     H82322   1.362   7.135   3.741  3.1888 -0.2147 -1.9751
  597MOL0     H82323   1.203   7.005   3.902  1.8684 -0.7070  2.4517
  597MOL0     H82324   1.211   6.960   3.726 -2.1796 -1.7635  0.6392
  597MOL0     H82325   1.334   6.751   3.797 -1.8055 -1.4249  0.4696
  597MOL0     H82326   1.329   6.808   3.962  1.3072  1.6100 -1.2005
  597MOL0     H82327   1.070   6.780   3.798  0.6058 -1.5516  0.2649
  597MOL0     H82328   1.098   6.788   3.969  2.2676 -0.3828  1.2498
  597MOL0     H82329   1.212   6.566   3.808  1.3021 -0.5546  0.8880
  597MOL0     H82330   1.191   6.559   3.975  1.8324 -0.2486 -0.4449
  597MOL0     H82331   0.989   6.436   3.891  1.6193 -0.5941 -3.2448
  597MOL0     H82332   0.970   6.550   3.766  0.0712 -4.1499  0.0322
  597MOL0     H82333   0.922   6.623   4.053  0.9184  1.5856 -0.3610
  597MOL0     H82334   0.865   6.707   3.907 -0.3746 -0.8567 -2.3205
  597MOL0     H82335   0.741   6.467   4.161 -4.5755 -1.3255  1.0702
  597MOL0     H82336   0.395   6.334   4.029 -1.0707 -0.0372  1.1985
  597MOL0     H82337   0.388   6.481   4.124 -0.1566 -0.9599  1.1073
  597MOL0     H82338   0.406   6.249   4.263 -0.5799  0.1516 -0.2077
  597MOL0     H82339   0.568   6.233   4.204  0.7850  0.4894 -3.3388
  597MOL0     H82340   0.637   6.460   4.313 -0.2055  0.5204 -0.4299
  597MOL0     H82341   0.460   6.466   4.361 -0.7022 -1.3275  1.7276
  597MOL0     H82342   0.648   6.404   4.526 -0.1154  0.0215 -0.0981
  597MOL0     H82343   0.499   6.302   4.532 -2.5142  1.9389 -1.3379
  597MOL0     H82344   0.832   6.161   4.257  0.6688 -0.6813 -0.6627
  597MOL0     H82345   1.021   6.067   4.198 -0.5484 -0.6677  2.3544
  597MOL0     H82346   1.190   6.137   4.226  0.5323  0.7718  1.8062
  597MOL0     H82347   1.070   6.230   4.146 -2.7441  0.8682  0.5041
  597MOL0     H82348   1.455   6.150   4.684 -0.4819  0.4382  0.5503
  597MOL0     H82349   1.698   6.201   4.711  0.4504  2.6723  2.7975
  597MOL0     H82350   1.947   6.249   4.548  1.7519 -0.7482 -1.7000
  597MOL0     H82351   1.876   6.341   4.409  0.9950  0.9811  0.4148
  597MOL0     H82352   2.077   6.449   4.607  2.2964 -1.5010 -0.8221
  597MOL0     H82353   2.130   6.381   4.471  0.4480  1.7522 -1.3350
  597MOL0     H82354   2.092   6.631   4.439 -0.6487  0.6652 -0.2839
  597MOL0     H82355   1.923   6.611   4.478 -0.2660  0.9506 -0.5894
  597MOL0     H82356   1.975   6.632   4.230  1.3520  0.3134 -1.6528
  597MOL0     H82357   1.881   6.492   4.268  0.9536  0.3124 -1.0684
  597MOL0     H82358   2.088   6.347   4.252 -0.2626 -1.1978 -0.4641
  597MOL0     H82359   2.032   6.428   4.106 -5.6057  2.7751  2.3336
  597MOL0     H82360   2.248   6.551   4.274 -2.6150 -3.0136  2.0213
  597MOL0     H82361   2.195   6.589   4.110 -0.6396 -1.5897 -1.6141
  597MOL0     H82362   2.409   6.480   4.104  0.2320  0.2630  2.3268
  597MOL0     H82363   2.280   6.393   4.018  1.5796  1.1941 -1.2620
  597MOL0     H82364   2.406   6.219   4.141  0.3653 -1.4180  1.4505
  597MOL0     H82365   2.248   6.230   4.206 -1.4578  1.0026  0.4553
  597MOL0     H82366   1.654   6.534   4.445 -0.8619 -1.5814 -0.4623
  597MOL0     H82367   1.405   6.514   4.468  0.1909  0.4817  0.9058
  597MOL0     H82368   1.061   6.351   4.650  3.2385 -0.8581 -0.5394
  597MOL0     H82369   0.820   6.350   4.649  0.3655  0.3731  0.0593
  597MOL0     H82370   1.659   6.761   3.726 -0.9417 -5.2180  0.3111
  597MOL0     H82371   1.808   6.622   3.592  1.2229  1.0274 -0.4181
  597MOL0     H82372   1.868   6.473   3.130 -0.1413 -0.0429  1.0970
  597MOL0     H82373   1.970   6.313   2.993  2.2589  1.0392  2.9629
  597MOL0     H82374   1.860   6.171   2.809 -1.9394 -0.5129  1.7037
  597MOL0     H82375   2.031   6.160   2.805 -0.7007  1.8931  2.2519
  597MOL0     H82376   1.912   5.987   2.650 -1.3604  2.0634 -0.1216
  597MOL0     H82377   1.841   5.915   2.800 -3.7559  3.0781 -1.8364
  597MOL0     H82378   2.150   5.924   2.718  2.9603  1.6826  2.7948
  597MOL0     H82379   2.105   5.911   2.878 -1.5794  4.9731 -0.0594
  597MOL0     H82380   2.021   5.710   2.655 -1.0609 -1.6841 -0.1351
  597MOL0     H82381   1.972   5.683   2.828  2.5117  1.4667  3.5766
  597MOL0     H82382   2.338   5.508   2.833 -0.6496 -0.5799 -1.1026
  597MOL0     H82383   1.720   6.009   3.120 -0.9751  0.8489 -3.4678
  597MOL0     H82384   1.507   6.130   3.290  0.0335  0.6235 -1.4296
  597MOL0     H82385   1.637   6.011   3.323  3.9543  0.4981  1.9440
  597MOL0     H82386   1.631   6.152   3.422  4.4033  0.4871 -0.3863
  598MOL0     O82387   2.535   0.422   5.308  0.1418 -0.1054  0.1887
  598MOL0     C82388   2.523   0.525   5.380 -0.7080 -0.3023  0.0471
  598MOL0     O82389   2.523   0.652   5.327  0.0049  0.7438 -0.3193
  598MOL0     C82390   2.535   0.685   5.194 -0.5108 -0.3251 -0.1314
  598MOL0     C82391   2.466   0.803   5.139 -0.5483  0.4990  0.4135
  598MOL0     C82392   2.471   0.822   4.999  1.0199  0.3336  0.1450
  598MOL0     C82393   2.567   0.757   4.920  0.1618 -0.0439  0.5216
  598MOL0     O82394   2.593   0.791   4.789  0.8522  0.5116  0.3119
  598MOL0     C82395   2.516   0.723   4.688 -0.1950 -0.3054 -0.1269
  598MOL0     C82396   2.604   0.618   4.628 -0.0432 -0.2628 -0.2894
  598MOL0     C82397   2.538   0.537   4.507 -0.4302 -0.9462  0.0983
  598MOL0     C82398   2.596   0.401   4.493  0.4466  0.5541 -0.3879
  598MOL0     C82399   2.535   0.308   4.386 -0.3164 -0.1050  0.5839
  598MOL0     C82400   2.384   0.326   4.362  0.2901  1.1972 -0.8620
  598MOL0     C82401   2.328   0.218   4.264  0.2022 -0.0669  0.9963
  598MOL0     C82402   2.177   0.224   4.270  0.0349 -0.4908 -0.5732
  598MOL0     N82403   2.113   0.142   4.174  0.1365  0.3075 -0.3041
  598MOL0     C82404   2.024   0.193   4.076 -0.7397 -0.7723 -0.5799
  598MOL0     C82405   1.986   0.080   4.013 -0.9199  0.0192 -0.1377
  598MOL0     C82406   1.896   0.074   3.907 -0.2948  0.0048  0.7038
  598MOL0     C82407   1.972   0.045   3.767 -0.0031 -0.7098 -0.2714
  598MOL0     C82408   1.999  -0.103   3.718 -1.2465 -0.1640 -0.3898
  598MOL0     C82409   1.881  -0.181   3.652  0.4413 -1.6152 -0.1497
  598MOL0     O82410   1.900  -0.316   3.648  0.0573  0.2148 -0.0069
  598MOL0     C82411   1.864  -0.390   3.756 -0.2947 -0.0846  0.9003
  598MOL0     C82412   1.853  -0.528   3.750  0.4229  0.3964 -0.5615
  598MOL0     C82413   1.807  -0.617   3.844  1.1416 -0.0454 -0.9741
  598MOL0     C82414   1.791  -0.759   3.830 -0.5120  0.4502 -0.1842
  598MOL0     C82415   1.772  -0.567   3.969 -0.7121 -0.8884 -1.1992
  598MOL0     C82416   1.728  -0.644   4.080  0.1718 -0.5394  0.7786
  598MOL0     O82417   1.630  -0.726   4.060  0.3478  0.3722 -0.5742
  598MOL0     C82418   1.600  -0.841   4.122 -0.5059 -0.7105  0.7335
  598MOL0     C82419   1.662  -0.892   4.233 -0.2549  0.5986  0.1058
  598MOL0     C82420   1.631  -1.021   4.285  0.6231 -0.4833  0.1060
  598MOL0     C82421   1.535  -1.099   4.217 -0.8128  0.0632 -0.0963
  598MOL0     O82422   1.499  -1.226   4.269 -0.3859  0.1122 -0.1384
  598MOL0     C82423   1.480  -1.340   4.184  0.2184  0.0992  0.3308
  598MOL0     C82424   1.422  -1.469   4.256 -0.0736 -0.4078  0.0291
  598MOL0     C82425   1.306  -1.426   4.349 -0.6580 -0.0247  0.8920
  598MOL0     C82426   1.262  -1.540   4.446 -0.6690 -0.1577  0.3700
  598MOL0     C82427   1.156  -1.501   4.545  0.6027 -0.1630 -0.3007
  598MOL0     C82428   1.195  -1.502   4.692 -0.6465  0.5194 -0.4097
  598MOL0     C82429   1.073  -1.501   4.785 -0.6888 -1.0701 -0.0806
  598MOL0     C82430   1.026  -1.643   4.829  1.2405 -0.3537 -0.8116
  598MOL0    Cl82431   0.867  -1.633   4.929 -0.3363  0.4250 -1.0405
  598MOL0     C82432   1.480  -1.047   4.105 -0.4844 -0.1599  0.5482
  598MOL0     C82433   1.514  -0.921   4.056 -0.0949  0.9386 -0.1472
  598MOL0     O82434   1.775  -0.606   4.192  0.1064 -0.3091  0.7335
  598MOL0     C82435   1.799  -0.432   3.991  0.1982 -0.0074 -0.8917
  598MOL0     C82436   1.832  -0.346   3.880  0.1912  0.8165  0.0551
  598MOL0     N82437   2.028  -0.030   4.082  0.1905  0.6037 -0.3171
  598MOL0     N82438   2.091   0.012   4.186 -0.2482 -0.7618 -0.1490
  598MOL0     C82439   2.649   0.664   4.984  0.5679 -0.6256  0.8561
  598MOL0     C82440   2.632   0.622   5.113  0.8240 -0.3612 -0.4128
  598MOL0     C82441   2.526   0.511   5.529 -0.0026  0.1864 -0.0745
  598MOL0     C82442   2.542   0.630   5.610 -0.9763  0.6896  0.2373
  598MOL0     C82443   2.538   0.608   5.753 -0.2604 -0.1387  0.1107
  598MOL0     C82444   2.510   0.490   5.813 -0.2097  0.1944 -0.8858
  598MOL0     O82445   2.509   0.486   5.955  0.4012  0.7241  0.2555
  598MOL0     C82446   2.457   0.374   6.037 -0.1234 -0.3746 -0.9117
  598MOL0     C82447   2.478   0.404   6.194  0.3798  0.7756 -0.6809
  598MOL0     C82448   2.475   0.279   6.285 -0.9727 -0.6006 -0.3009
  598MOL0     C82449   2.517   0.318   6.428 -0.3237  0.3740 -0.6478
  598MOL0     C82450   2.490   0.210   6.517 -0.1510  0.4824 -0.5170
  598MOL0     C82451   2.480   0.108   6.579 -0.5559 -0.3062  0.9670
  598MOL0     C82452   2.490   0.376   5.735  0.3083 -0.0536  0.3202
  598MOL0     C82453   2.490   0.390   5.596  0.9017  0.4462  0.3227
  598MOL0     C82454   2.469   0.261   5.524  0.6999 -0.3907  0.1999
  598MOL0     H82455   2.408   0.870   5.203 -1.7142 -0.3235  0.2497
  598MOL0     H82456   2.403   0.892   4.951  0.4816 -0.3382 -0.0750
  598MOL0     H82457   2.508   0.792   4.604  0.5978  0.3226  0.2958
  598MOL0     H82458   2.414   0.695   4.717 -0.8233  1.6287 -0.3084
  598MOL0     H82459   2.697   0.663   4.592  1.7660 -2.7883  0.8935
  598MOL0     H82460   2.624   0.546   4.708 -2.5462 -0.7368 -0.0093
  598MOL0     H82461   2.429   0.535   4.518 -0.4685 -1.0120 -0.2666
  598MOL0     H82462   2.552   0.592   4.413 -1.4665 -0.9289 -0.0617
  598MOL0     H82463   2.700   0.416   4.462  0.3985 -0.0697 -0.8734
  598MOL0     H82464   2.593   0.338   4.582  2.5669 -0.4286 -0.9438
  598MOL0     H82465   2.565   0.204   4.398  0.8184 -0.0901 -1.6224
  598MOL0     H82466   2.573   0.352   4.293  1.7691  0.7751  1.7618
  598MOL0     H82467   2.333   0.319   4.459  3.2351  0.4795  0.7380
  598MOL0     H82468   2.372   0.427   4.322 -1.9009  2.9569  3.4762
  598MOL0     H82469   2.372   0.119   4.280 -1.5899 -1.1406 -0.2423
  598MOL0     H82470   2.364   0.247   4.165  4.3141  0.6398  2.5351
  598MOL0     H82471   2.150   0.208   4.375  0.1568  1.3142 -0.2265
  598MOL0     H82472   2.137   0.324   4.249  1.4415  0.5949  1.5819
  598MOL0     H82473   1.997   0.290   4.034 -2.6450 -1.1722 -0.3670
  598MOL0     H82474   1.850   0.174   3.908  2.3952  1.3599  0.0582
  598MOL0     H82475   1.820  -0.003   3.923  0.9364 -1.2491  0.6730
  598MOL0     H82476   1.912   0.089   3.687 -1.2912  1.3421  1.6865
  598MOL0     H82477   2.069   0.094   3.774 -0.6391  0.3738  3.3583
  598MOL0     H82478   2.073  -0.097   3.638 -2.3353 -2.1438 -1.6298
  598MOL0     H82479   2.045  -0.160   3.798  2.2445  1.2009 -1.2649
  598MOL0     H82480   1.780  -0.167   3.691  1.9266 -0.6392  3.7850
  598MOL0     H82481   1.877  -0.140   3.550 -2.0835 -0.1304  0.4555
  598MOL0     H82482   1.881  -0.559   3.650  3.3195  1.2391 -0.1037
  598MOL0     H82483   1.866  -0.803   3.764 -2.6859 -0.0190 -2.4690
  598MOL0     H82484   1.690  -0.774   3.791  0.1001  0.4279 -1.8419
  598MOL0     H82485   1.806  -0.811   3.925  0.4872 -0.7614 -0.9706
  598MOL0     H82486   1.733  -0.830   4.287  1.7198 -1.2817 -0.1993
  598MOL0     H82487   1.674  -1.064   4.376  2.6264  0.1054 -0.5005
  598MOL0     H82488   1.409  -1.322   4.102 -0.2925 -3.3520 -0.1460
  598MOL0     H82489   1.581  -1.362   4.149 -0.5930  0.2250 -2.3360
  598MOL0     H82490   1.383  -1.530   4.174  1.1018  0.8430 -1.5016
  598MOL0     H82491   1.493  -1.531   4.311 -0.9254 -1.0950  0.3847
  598MOL0     H82492   1.215  -1.401   4.294 -1.2197 -1.6431  1.0482
  598MOL0     H82493   1.319  -1.328   4.397 -0.0208  0.9579 -1.1455
  598MOL0     H82494   1.354  -1.562   4.502 -1.9155  0.5562  2.8668
  598MOL0     H82495   1.229  -1.624   4.385 -1.1893  1.2343 -1.3681
  598MOL0     H82496   1.134  -1.396   4.524  2.9411  0.9589  2.2217
  598MOL0     H82497   1.068  -1.563   4.523  2.9466 -2.6677 -3.6287
  598MOL0     H82498   1.272  -1.433   4.728  2.6233 -2.4551 -1.1003
  598MOL0     H82499   1.236  -1.599   4.723 -3.1074 -0.1673  0.9949
  598MOL0     H82500   0.993  -1.441   4.741 -1.5228 -2.0971  0.0118
  598MOL0     H82501   1.110  -1.455   4.877 -0.6436 -2.5360  0.6489
  598MOL0     H82502   1.111  -1.694   4.876  0.5100 -0.1900  0.7724
  598MOL0     H82503   1.000  -1.701   4.740 -2.4462 -2.2943  1.2658
  598MOL0     H82504   1.407  -1.096   4.041 -1.0809 -0.4478  1.4256
  598MOL0     H82505   1.470  -0.887   3.962 -1.9319 -1.4570 -0.2569
  598MOL0     H82506   1.795  -0.387   4.090 -0.5745  2.0530 -1.8180
  598MOL0     H82507   1.820  -0.241   3.905 -1.2180  0.2906  1.8090
  598MOL0     H82508   2.719   0.609   4.921 -0.6087 -0.0721 -1.0444
  598MOL0     H82509   2.691   0.544   5.161  0.5474 -1.1668 -1.3454
  598MOL0     H82510   2.560   0.729   5.568 -4.3869  1.4448  0.2519
  598MOL0     H82511   2.548   0.686   5.827 -1.7225  2.8349 -2.6182
  598MOL0     H82512   2.352   0.354   6.014  0.8234 -4.4411 -2.4643
  598MOL0     H82513   2.523   0.292   6.007  3.8875  1.8102  1.1281
  598MOL0     H82514   2.391   0.464   6.223  1.0182  1.5666 -0.3863
  598MOL0     H82515   2.563   0.469   6.215 -1.9190  5.3964 -3.8845
  598MOL0     H82516   2.378   0.228   6.282 -2.1494  1.4838  0.4321
  598MOL0     H82517   2.548   0.211   6.241  0.9733  0.0563  1.7130
  598MOL0     H82518   2.459   0.400   6.471 -3.6448 -2.3913  0.7093
  598MOL0     H82519   2.622   0.346   6.421  0.0989 -0.3170  1.9396
  598MOL0     H82520   2.494   0.015   6.631  3.8293  1.8586  4.3176
  598MOL0     H82521   2.472   0.287   5.794 -3.0954 -0.6701 -1.3837
  598MOL0     H82522   2.557   0.244   5.461  2.3171  4.5329  0.7357
  598MOL0     H82523   2.464   0.172   5.588 -1.0457 -3.7517 -4.0812
  598MOL0     H82524   2.372   0.267   5.474  0.4896 -2.3403  0.2895
  599MOL0     O82525   4.055  11.419   6.802  0.4063 -0.2711 -0.3332
  599MOL0     C82526   4.022  11.301   6.784  0.1692 -0.3232  1.0309
  599MOL0     O82527   4.077  11.192   6.838  0.1043  0.1168 -0.1558
  599MOL0     C82528   4.197  11.194   6.903  0.1529 -0.9163 -0.4271
  599MOL0     C82529   4.309  11.251   6.845  0.6611  0.4572  1.4992
  599MOL0     C82530   4.431  11.237   6.908 -0.1044 -0.3523 -1.0099
  599MOL0     C82531   4.447  11.162   7.024 -0.1409 -0.2607 -1.0327
  599MOL0     O82532   4.563  11.152   7.094  0.1228 -0.4350  0.8377
  599MOL0     C82533   4.619  11.015   7.111  0.2973  0.0340 -0.1303
  599MOL0     C82534   4.748  11.016   7.184 -0.7771 -0.3897 -1.4066
  599MOL0     C82535   4.843  11.113   7.103  0.3090  0.5755 -0.7534
  599MOL0     C82536   4.902  11.037   6.995 -0.3062  0.2164 -0.4278
  599MOL0     C82537   5.018  11.118   6.918  0.2622  0.2441 -1.1031
  599MOL0     C82538   4.969  11.231   6.827 -0.6560 -0.9618  0.3701
  599MOL0     C82539   5.083  11.275   6.722 -0.0917 -0.2214 -0.1351
  599MOL0     C82540   5.076  11.424   6.681 -0.8267  0.2149 -0.0802
  599MOL0     N82541   4.950  11.464   6.609 -0.3272 -0.0028  0.5262
  599MOL0     C82542   4.894  11.589   6.608 -0.6867 -0.2163  0.4537
  599MOL0     C82543   4.813  11.588   6.493 -0.5013  0.6791 -0.4537
  599MOL0     C82544   4.736  11.701   6.450 -0.4950  0.1451 -0.0768
  599MOL0     C82545   4.590  11.689   6.511  0.0540 -0.2011  0.0148
  599MOL0     C82546   4.587  11.664   6.660  0.5351  0.2010  0.2845
  599MOL0     C82547   4.445  11.661   6.701 -0.6636 -0.0299 -0.0444
  599MOL0     O82548   4.386  11.789   6.668  0.3561 -0.2081 -0.1892
  599MOL0     C82549   4.269  11.822   6.734  0.4432 -0.3458 -0.0751
  599MOL0     C82550   4.249  11.959   6.761 -0.9631  0.0023 -0.0071
  599MOL0     C82551   4.128  11.996   6.811 -0.7475 -0.3286  0.1543
  599MOL0     C82552   4.109  12.147   6.823  0.4869 -0.0942 -0.2731
  599MOL0     C82553   4.031  11.897   6.847  0.8552  0.4091  0.0905
  599MOL0     C82554   3.893  11.936   6.903  0.5984 -0.7225 -0.3496
  599MOL0     O82555   3.813  11.822   6.920 -0.1148  0.0547 -0.4256
  599MOL0     C82556   3.691  11.821   6.966  0.8737  0.0990 -0.2509
  599MOL0     C82557   3.647  11.861   7.093 -0.4565 -0.7223 -0.0858
  599MOL0     C82558   3.512  11.827   7.127 -0.4419  0.0169 -0.2807
  599MOL0     C82559   3.426  11.762   7.041 -0.3907 -0.3092  0.2529
  599MOL0     O82560   3.309  11.723   7.095 -0.8836 -0.1469 -0.3988
  599MOL0     C82561   3.251  11.593   7.060  0.2583 -0.2212  0.1284
  599MOL0     C82562   3.160  11.539   7.167 -0.0269  0.1055 -0.2011
  599MOL0     C82563   3.219  11.533   7.311 -0.0208 -0.3737  0.6963
  599MOL0     C82564   3.367  11.497   7.334  0.1434 -1.0922 -0.2032
  599MOL0     C82565   3.428  11.553   7.455 -0.4088  0.0509  0.0101
  599MOL0     C82566   3.389  11.470   7.586 -1.6629 -0.0349 -1.1436
  599MOL0     C82567   3.468  11.526   7.707 -0.5182  0.3045 -0.5279
  599MOL0     C82568   3.445  11.673   7.735  0.4846  1.0153 -0.0583
  599MOL0    Cl82569   3.273  11.708   7.742  0.1131  0.0453 -0.1275
  599MOL0     C82570   3.476  11.725   6.917  0.0970 -0.2122 -0.6606
  599MOL0     C82571   3.596  11.757   6.878 -0.3515  0.4248  0.3569
  599MOL0     O82572   3.867  12.052   6.941  0.0980 -0.8307  0.1381
  599MOL0     C82573   4.049  11.757   6.826  0.4110  0.3915  1.2039
  599MOL0     C82574   4.172  11.724   6.775  0.0445  1.0478  0.1769
  599MOL0     N82575   4.837  11.461   6.428 -0.9014  0.4455  0.9091
  599MOL0     N82576   4.918  11.391   6.499 -0.4620  0.3175  0.0176
  599MOL0     C82577   4.336  11.104   7.080  0.5604  1.1516  0.2526
  599MOL0     C82578   4.213  11.114   7.019 -0.1023  0.1310  0.1067
  599MOL0     C82579   3.893  11.276   6.704 -1.3851  0.8623 -0.6240
  599MOL0     C82580   3.817  11.392   6.674  0.6390  0.2987  0.4863
  599MOL0     C82581   3.692  11.389   6.605  0.2121 -1.1527 -1.3345
  599MOL0     C82582   3.640  11.269   6.561  0.3267  0.2659 -0.0590
  599MOL0     O82583   3.520  11.239   6.500  0.5639 -0.0982 -0.0507
  599MOL0     C82584   3.422  11.344   6.511 -0.4009  0.0093 -0.6561
  599MOL0     C82585   3.298  11.295   6.426 -0.0368  0.7905 -0.8046
  599MOL0     C82586   3.238  11.164   6.482 -0.6895 -0.3651  0.4021
  599MOL0     C82587   3.103  11.150   6.421  0.1212 -0.4287 -0.3385
  599MOL0     C82588   3.109  11.068   6.295  0.3453 -0.1375  1.0743
  599MOL0     C82589   3.095  10.985   6.204 -0.0725  0.8886  0.5199
  599MOL0     C82590   3.717  11.164   6.594  0.0686  0.4422 -0.5501
  599MOL0     C82591   3.844  11.158   6.656  1.1347  0.6377 -0.3127
  599MOL0     C82592   3.912  11.021   6.689 -0.9581  1.1323  0.0241
  599MOL0     H82593   4.326  11.272   6.740 -2.2372 -3.1294  0.1039
  599MOL0     H82594   4.520  11.275   6.860  1.1155 -0.5499  0.9988
  599MOL0     H82595   4.631  10.961   7.016  2.1470  2.1263 -1.1766
  599MOL0     H82596   4.556  10.952   7.174  3.5542 -1.4082  1.9393
  599MOL0     H82597   4.732  11.048   7.288  1.3701 -4.6187  0.4925
  599MOL0     H82598   4.771  10.910   7.173 -0.9592 -0.6514  0.4621
  599MOL0     H82599   4.795  11.207   7.074  1.4536  0.5984 -2.7372
  599MOL0     H82600   4.923  11.156   7.164  1.5818 -0.5224 -1.5964
  599MOL0     H82601   4.947  10.947   7.036 -0.1929  0.8116  0.8001
  599MOL0     H82602   4.821  11.013   6.925 -1.1289  4.1692 -1.0956
  599MOL0     H82603   5.096  11.063   6.865  3.0339  3.0270 -0.2185
  599MOL0     H82604   5.084  11.167   6.991 -0.2306  0.7080 -0.9685
  599MOL0     H82605   4.876  11.199   6.781 -1.2862  0.4558  0.6178
  599MOL0     H82606   4.943  11.315   6.892 -1.8412 -0.0885 -1.1927
  599MOL0     H82607   5.098  11.208   6.637 -3.1057 -0.9841 -0.1561
  599MOL0     H82608   5.185  11.276   6.763 -0.1035  1.0174 -0.1007
  599MOL0     H82609   5.085  11.493   6.766 -4.0007  1.8013 -0.8707
  599MOL0     H82610   5.170  11.442   6.627 -0.7958 -1.3629 -0.5805
  599MOL0     H82611   4.913  11.670   6.676  1.8249 -1.4823  1.3870
  599MOL0     H82612   4.720  11.715   6.343 -2.0113 -0.1381  0.0974
  599MOL0     H82613   4.788  11.791   6.486 -0.4927  0.7330 -1.4930
  599MOL0     H82614   4.528  11.776   6.491  0.8167  0.1994 -0.6642
  599MOL0     H82615   4.543  11.604   6.460 -1.7727  1.6870 -1.6126
  599MOL0     H82616   4.630  11.565   6.681  1.5962  0.5111 -0.3489
  599MOL0     H82617   4.644  11.744   6.707  0.0017 -0.3886  2.0175
  599MOL0     H82618   4.388  11.577   6.660  1.1700 -1.0926 -0.4976
  599MOL0     H82619   4.437  11.654   6.810 -1.7019  2.2491  0.0922
  599MOL0     H82620   4.321  12.038   6.747 -1.2005  0.3524  0.6833
  599MOL0     H82621   4.180  12.206   6.764 -1.4977  2.0391 -0.7015
  599MOL0     H82622   4.118  12.171   6.930 -2.0052  5.6474 -0.9599
  599MOL0     H82623   4.010  12.178   6.787 -1.3307 -2.4340  2.2450
  599MOL0     H82624   3.706  11.924   7.158  0.8046  1.4941 -3.1486
  599MOL0     H82625   3.474  11.861   7.223  1.3732  1.5705 -0.0356
  599MOL0     H82626   3.198  11.588   6.964 -1.0120 -0.0426  0.7912
  599MOL0     H82627   3.333  11.523   7.045  1.9437  2.2524 -3.7550
  599MOL0     H82628   3.068  11.598   7.159  0.4631  0.6748 -2.0604
  599MOL0     H82629   3.138  11.432   7.158 -0.9172  0.1311  1.3358
  599MOL0     H82630   3.147  11.473   7.367 -0.2072  0.3058  1.2020
  599MOL0     H82631   3.204  11.634   7.350 -1.7296 -1.5592  3.4330
  599MOL0     H82632   3.426  11.543   7.254  1.8712 -2.4307  0.2344
  599MOL0     H82633   3.393  11.390   7.332 -0.8457 -1.4010  1.7961
  599MOL0     H82634   3.535  11.535   7.442 -0.2138  0.3325  1.1167
  599MOL0     H82635   3.419  11.661   7.469  0.8534 -0.1567  3.4929
  599MOL0     H82636   3.417  11.365   7.574  1.3917  0.4435  0.6549
  599MOL0     H82637   3.282  11.485   7.606 -0.9190  1.9581  2.1981
  599MOL0     H82638   3.575  11.510   7.693  0.3344  2.3634  2.4862
  599MOL0     H82639   3.450  11.460   7.793 -0.4461  1.5551  0.4706
  599MOL0     H82640   3.488  11.742   7.662  0.6814  2.8075  1.6811
  599MOL0     H82641   3.483  11.698   7.835 -1.1649 -2.8406  1.7378
  599MOL0     H82642   3.409  11.677   6.847 -2.3474  1.0500  0.6699
  599MOL0     H82643   3.624  11.721   6.779  2.0181  1.4650  0.5718
  599MOL0     H82644   3.983  11.674   6.849  1.4301 -1.2847 -1.5416
  599MOL0     H82645   4.186  11.617   6.758  0.8040  1.1780 -0.0702
  599MOL0     H82646   4.352  11.047   7.170  1.3829  0.9064 -0.0447
  599MOL0     H82647   4.125  11.060   7.050  0.9827 -0.3285  2.6135
  599MOL0     H82648   3.852  11.492   6.698 -1.1938  0.6104  2.1071
  599MOL0     H82649   3.638  11.482   6.595  2.7624  0.7463  0.8590
  599MOL0     H82650   3.392  11.368   6.613 -1.9950  2.0256 -1.5202
  599MOL0     H82651   3.449  11.435   6.457 -3.6990  1.2778 -0.3954
  599MOL0     H82652   3.332  11.280   6.323  0.8438  0.1761 -0.4400
  599MOL0     H82653   3.233  11.383   6.424 -1.2292 -0.0092  0.9783
  599MOL0     H82654   3.310  11.084   6.464  0.2607  0.5526  0.0369
  599MOL0     H82655   3.229  11.172   6.591 -1.2499  0.4798  0.2998
  599MOL0     H82656   3.056  11.249   6.420  2.5040  0.7786 -0.7103
  599MOL0     H82657   3.043  11.087   6.487  0.8616  1.8500  2.7530
  599MOL0     H82658   3.080  10.922   6.119  0.1213  1.8659 -0.2411
  599MOL0     H82659   3.676  11.065   6.578  0.2997 -0.4200  3.2951
  599MOL0     H82660   3.894  11.000   6.795 -0.7203 -2.7326 -0.5543
  599MOL0     H82661   3.873  10.935   6.634  2.6857 -0.4368 -0.3958
  599MOL0     H82662   4.012  11.014   6.645 -3.2388 -0.7961 -5.7745
  600MOL0     O82663   4.374   9.697   1.171  0.5495  0.2785  0.6536
  600MOL0     C82664   4.418   9.594   1.118  0.5408 -0.2343 -0.5419
  600MOL0     O82665   4.414   9.473   1.175  0.1748  0.3423 -0.0237
  600MOL0     C82666   4.367   9.454   1.304 -0.3520  0.6744  0.3992
  600MOL0     C82667   4.449   9.398   1.400 -0.1816  0.7046  0.2037
  600MOL0     C82668   4.408   9.368   1.532  0.6375 -0.2977 -0.1347
  600MOL0     C82669   4.277   9.395   1.579  0.0458  0.2056  0.1615
  600MOL0     O82670   4.222   9.378   1.708  0.6051  0.0663  0.2385
  600MOL0     C82671   4.294   9.285   1.795 -0.2737 -0.4282  0.2041
  600MOL0     C82672   4.197   9.241   1.904  1.0547 -0.4706 -0.6945
  600MOL0     C82673   4.260   9.164   2.017 -0.5587 -1.2388 -0.0449
  600MOL0     C82674   4.361   9.253   2.115 -0.3090  0.1287 -0.4936
  600MOL0     C82675   4.386   9.174   2.248  0.2104 -0.5306  0.5832
  600MOL0     C82676   4.521   9.223   2.309  0.6932  0.2781 -0.5531
  600MOL0     C82677   4.643   9.128   2.269 -0.5229 -0.7906  1.1066
  600MOL0     C82678   4.665   9.012   2.360  0.2072 -0.6998  0.4358
  600MOL0     N82679   4.681   9.056   2.500 -0.2752  0.0929 -0.9737
  600MOL0     C82680   4.777   9.147   2.546 -0.0401 -0.1447 -0.4048
  600MOL0     C82681   4.771   9.137   2.681  0.1615 -0.1612  0.4564
  600MOL0     C82682   4.856   9.223   2.781 -0.5118  1.3274  0.7835
  600MOL0     C82683   4.790   9.351   2.820  0.9787  0.1988 -0.6178
  600MOL0     C82684   4.782   9.468   2.727 -0.2933 -0.4333 -0.1151
  600MOL0     C82685   4.915   9.501   2.664  0.6210  1.1218  0.5560
  600MOL0     O82686   4.999   9.523   2.762 -0.1688 -0.1169 -0.3775
  600MOL0     C82687   5.136   9.515   2.747 -0.0955  0.8708  0.3615
  600MOL0     C82688   5.201   9.511   2.625 -0.2664  0.7833 -0.0043
  600MOL0     C82689   5.342   9.525   2.615  0.5340 -0.1358  0.0715
  600MOL0     C82690   5.399   9.536   2.475 -0.0346  0.4278 -0.5915
  600MOL0     C82691   5.412   9.533   2.738 -0.1241  0.5088  0.6585
  600MOL0     C82692   5.558   9.528   2.745 -1.1139  0.3266 -0.3713
  600MOL0     O82693   5.596   9.535   2.874 -0.4595 -0.1390 -0.0015
  600MOL0     C82694   5.725   9.541   2.931  0.1540 -0.1640  0.2904
  600MOL0     C82695   5.750   9.595   3.053 -0.2806 -0.7700 -0.8966
  600MOL0     C82696   5.880   9.595   3.110 -0.3640 -1.4823 -0.7033
  600MOL0     C82697   5.983   9.538   3.048 -0.5400 -0.3497 -0.1189
  600MOL0     O82698   6.103   9.518   3.112 -0.6750  0.5529 -1.2796
  600MOL0     C82699   6.217   9.531   3.042 -0.9246 -0.7314 -0.3980
  600MOL0     C82700   6.261   9.679   3.045  0.4219 -0.4254 -0.4832
  600MOL0     C82701   6.179   9.780   2.970 -0.9017  0.2785  0.9777
  600MOL0     C82702   6.256   9.911   2.971  0.4649 -0.0976 -0.1612
  600MOL0     C82703   6.195  10.024   2.886 -0.0890 -0.2549  0.8207
  600MOL0     C82704   6.105  10.114   2.977  0.1194  0.6325  0.5642
  600MOL0     C82705   6.032  10.233   2.907  0.3453 -0.3356  0.5572
  600MOL0     C82706   6.140  10.320   2.840  0.5828  0.5566 -0.2983
  600MOL0    Cl82707   6.069  10.484   2.810 -0.2508  0.2402 -0.0368
  600MOL0     C82708   5.965   9.489   2.923 -1.5569  1.2175 -0.3434
  600MOL0     C82709   5.842   9.491   2.860 -0.4408  0.5615  0.1033
  600MOL0     O82710   5.630   9.509   2.644 -0.5800 -0.4483 -0.2222
  600MOL0     C82711   5.344   9.532   2.863  0.2263 -0.4740 -0.6339
  600MOL0     C82712   5.203   9.522   2.865 -0.2515 -0.4481  0.1174
  600MOL0     N82713   4.675   9.042   2.717 -0.4071  0.7545  0.0891
  600MOL0     N82714   4.620   8.991   2.610  0.7485  0.8878 -1.4262
  600MOL0     C82715   4.188   9.448   1.486 -1.0120  0.2387  0.2662
  600MOL0     C82716   4.236   9.481   1.354 -1.3218 -0.0576  0.1690
  600MOL0     C82717   4.475   9.614   0.985 -0.1850 -0.2716  0.6218
  600MOL0     C82718   4.393   9.671   0.887 -0.0783 -0.1429 -0.8286
  600MOL0     C82719   4.426   9.668   0.745 -0.2177 -0.2652  0.1614
  600MOL0     C82720   4.543   9.603   0.711 -0.0154  0.6835  0.3629
  600MOL0     O82721   4.585   9.600   0.582 -0.5685 -0.3187 -0.8278
  600MOL0     C82722   4.518   9.515   0.493 -1.0906  0.3478  0.6255
  600MOL0     C82723   4.567   9.525   0.347  0.1406 -0.5920  0.1618
  600MOL0     C82724   4.546   9.393   0.256  1.3677 -1.1251  0.6181
  600MOL0     C82725   4.640   9.365   0.136 -0.2160  0.0639 -0.4994
  600MOL0     C82726   4.780   9.359   0.181 -0.1261  0.2710 -0.5106
  600MOL0     C82727   4.899   9.365   0.199 -0.7664 -0.4153  0.2758
  600MOL0     C82728   4.613   9.527   0.799  0.0496  1.1950  0.7623
  600MOL0     C82729   4.586   9.536   0.937 -0.0410 -1.1542  0.2975
  600MOL0     C82730   4.673   9.459   1.033  0.2786  1.0006  0.7256
  600MOL0     H82731   4.549   9.365   1.373  0.1533 -0.5566  2.6695
  600MOL0     H82732   4.479   9.318   1.597  0.1188 -1.1002 -0.1724
  600MOL0     H82733   4.374   9.342   1.843 -0.9035  0.3122  0.4016
  600MOL0     H82734   4.350   9.213   1.736  0.8872  1.8219 -1.6225
  600MOL0     H82735   4.151   9.330   1.950  1.4128 -1.3678  1.5095
  600MOL0     H82736   4.110   9.196   1.856  0.0480 -0.2152  0.8069
  600MOL0     H82737   4.177   9.128   2.077 -0.9751 -1.3074 -0.6468
  600MOL0     H82738   4.316   9.073   1.992 -1.6137 -1.6505 -1.0287
  600MOL0     H82739   4.458   9.262   2.064  0.1514  0.4238  0.4223
  600MOL0     H82740   4.334   9.356   2.140 -0.8196 -0.5407  2.0123
  600MOL0     H82741   4.388   9.065   2.235 -1.1031 -0.4631 -0.4247
  600MOL0     H82742   4.303   9.188   2.318 -0.9704  4.3121 -1.4182
  600MOL0     H82743   4.535   9.329   2.287 -0.5705  1.1907  2.5387
  600MOL0     H82744   4.487   9.215   2.413 -1.4698  0.4526 -1.1856
  600MOL0     H82745   4.737   9.183   2.257 -0.8650 -0.8116 -3.7787
  600MOL0     H82746   4.615   9.087   2.171  1.1948  1.0909 -0.2735
  600MOL0     H82747   4.578   8.946   2.367 -1.0597  0.9608  0.8856
  600MOL0     H82748   4.744   8.947   2.320  1.9277 -0.3695  3.0117
  600MOL0     H82749   4.835   9.204   2.474  2.1242 -1.5709  0.1083
  600MOL0     H82750   4.951   9.236   2.729 -1.2918 -0.4730 -1.2651
  600MOL0     H82751   4.874   9.151   2.862 -0.6680 -2.5602 -2.3322
  600MOL0     H82752   4.686   9.335   2.849  0.0986  0.1034 -3.5177
  600MOL0     H82753   4.842   9.380   2.913 -4.2093  1.5634  2.2316
  600MOL0     H82754   4.715   9.445   2.644 -0.1719 -0.3270 -0.2424
  600MOL0     H82755   4.744   9.561   2.771 -1.7465  1.1792 -4.3327
  600MOL0     H82756   4.951   9.419   2.602 -2.1933  2.7209 -3.6418
  600MOL0     H82757   4.902   9.584   2.594  3.0211  1.0862 -0.0039
  600MOL0     H82758   5.143   9.500   2.535  1.2233  2.4299 -1.2463
  600MOL0     H82759   5.322   9.559   2.401 -1.5728 -1.4235  0.3482
  600MOL0     H82760   5.434   9.436   2.446  0.4787  1.1106 -2.4671
  600MOL0     H82761   5.483   9.606   2.467  0.6313 -0.5408 -5.4016
  600MOL0     H82762   5.660   9.632   3.101 -0.1292  2.7912 -2.9832
  600MOL0     H82763   5.888   9.633   3.211  0.6091  2.4152 -2.0431
  600MOL0     H82764   6.293   9.488   3.107 -3.2217 -1.0723  2.2258
  600MOL0     H82765   6.207   9.503   2.936 -0.1107 -0.6662 -0.4995
  600MOL0     H82766   6.253   9.704   3.151  1.8097 -0.4680 -0.3582
  600MOL0     H82767   6.363   9.672   3.007  0.3958 -3.0481 -0.2801
  600MOL0     H82768   6.073   9.791   2.997 -1.1432  5.6338 -0.7764
  600MOL0     H82769   6.185   9.745   2.866  2.0788  1.7885  0.5362
  600MOL0     H82770   6.359   9.905   2.935  0.6707 -2.4114  0.6745
  600MOL0     H82771   6.271   9.933   3.077  0.7863 -2.0544  0.2359
  600MOL0     H82772   6.268  10.082   2.829 -1.8875  0.1400 -1.1893
  600MOL0     H82773   6.134   9.973   2.810 -2.4052 -0.0385  2.4630
  600MOL0     H82774   6.159  10.164   3.057  1.4890  0.4492 -0.2221
  600MOL0     H82775   6.040  10.039   3.024 -0.0744 -1.1926 -2.3323
  600MOL0     H82776   5.975  10.282   2.987 -0.9323 -1.6904  0.5213
  600MOL0     H82777   5.964  10.199   2.829  1.3298 -1.7910  0.2891
  600MOL0     H82778   6.164  10.280   2.741 -0.5462 -1.1884  0.0680
  600MOL0     H82779   6.227  10.325   2.906 -1.1483  2.7618  1.9989
  600MOL0     H82780   6.028   9.416   2.873 -3.1840  0.0157 -0.7644
  600MOL0     H82781   5.841   9.440   2.764  0.7576  1.6536 -0.5273
  600MOL0     H82782   5.382   9.569   2.957 -2.1935 -1.2508  0.7463
  600MOL0     H82783   5.148   9.531   2.958 -0.5105 -0.4118 -0.0387
  600MOL0     H82784   4.082   9.464   1.502 -1.6975 -1.7161 -1.6872
  600MOL0     H82785   4.175   9.514   1.270 -0.0873  1.6925 -0.0947
  600MOL0     H82786   4.297   9.718   0.903 -0.7900 -1.0265 -2.2543
  600MOL0     H82787   4.363   9.717   0.671  1.0907  2.4584  0.7060
  600MOL0     H82788   4.546   9.415   0.526  4.0155  1.0036 -0.9528
  600MOL0     H82789   4.409   9.522   0.483 -1.0444 -1.2847 -1.9739
  600MOL0     H82790   4.676   9.524   0.348  0.1928 -1.4360 -1.9000
  600MOL0     H82791   4.526   9.612   0.295 -3.1227 -1.3035  1.2830
  600MOL0     H82792   4.561   9.304   0.318  3.5764 -0.6717  0.8033
  600MOL0     H82793   4.442   9.395   0.221  1.9360  2.9265 -1.4251
  600MOL0     H82794   4.624   9.442   0.060  0.8958 -1.0442 -1.9160
  600MOL0     H82795   4.610   9.270   0.091 -2.9192 -0.4279  2.0265
  600MOL0     H82796   5.005   9.363   0.205 -0.6553  0.2536 -1.0288
  600MOL0     H82797   4.680   9.449   0.763 -2.5801 -0.4367 -0.9402
  600MOL0     H82798   4.773   9.446   0.991 -0.6557  1.6882 -1.8487
  600MOL0     H82799   4.695   9.516   1.124  0.7642  1.4714  0.3141
  600MOL0     H82800   4.624   9.366   1.064  1.4498 -0.3443 -1.2548
  601MOL0     O82801   8.126   4.826   9.429 -1.1165  0.3609 -0.1423
  601MOL0     C82802   8.016   4.864   9.467 -0.3642  0.9485  0.0858
  601MOL0     O82803   7.912   4.892   9.379  0.2842 -0.2236  0.2907
  601MOL0     C82804   7.926   4.923   9.246  0.4795  0.9820 -0.9536
  601MOL0     C82805   7.842   4.870   9.150  0.6152  0.1318  0.3569
  601MOL0     C82806   7.853   4.913   9.020  0.1408  0.0890 -0.2871
  601MOL0     C82807   7.958   5.006   8.984  0.2468  0.6451 -0.2959
  601MOL0     O82808   7.980   5.031   8.853 -0.0742 -0.0093  0.5960
  601MOL0     C82809   8.046   4.919   8.780 -0.2821  0.0448  0.0315
  601MOL0     C82810   8.011   4.934   8.630 -0.4302 -0.7286 -0.0283
  601MOL0     C82811   7.864   4.917   8.608  0.3781  1.2275 -0.0220
  601MOL0     C82812   7.851   4.916   8.457  0.3493 -0.2516 -0.2310
  601MOL0     C82813   7.889   5.047   8.382 -0.3291  0.7258  0.5835
  601MOL0     C82814   7.812   5.177   8.426  0.4131  0.0323  0.0822
  601MOL0     C82815   7.849   5.290   8.347 -0.3812  0.9924 -0.6539
  601MOL0     C82816   7.987   5.332   8.385 -0.6140  0.4701 -0.3375
  601MOL0     N82817   8.005   5.478   8.399 -0.4852  0.7985 -0.2344
  601MOL0     C82818   7.966   5.548   8.508 -0.5439  0.4022 -0.3203
  601MOL0     C82819   8.041   5.663   8.494 -0.1840  0.2048  0.4232
  601MOL0     C82820   8.056   5.767   8.596 -0.1495 -0.9804 -0.4808
  601MOL0     C82821   8.114   5.901   8.521  1.0493 -0.4301  0.5583
  601MOL0     C82822   8.138   6.017   8.612 -0.1947 -0.5422  0.3709
  601MOL0     C82823   8.169   6.148   8.533 -0.4557 -0.3554 -0.6301
  601MOL0     O82824   8.062   6.206   8.463 -0.5066 -0.3521 -0.4327
  601MOL0     C82825   8.092   6.313   8.386 -0.9006  0.8415 -0.0338
  601MOL0     C82826   8.221   6.378   8.392  0.8086 -1.0543  0.1873
  601MOL0     C82827   8.242   6.502   8.317 -0.7226  0.6249 -0.2384
  601MOL0     C82828   8.369   6.570   8.320  0.0484 -0.4392 -0.0838
  601MOL0     C82829   8.133   6.540   8.227 -0.1243 -0.3829  0.0003
  601MOL0     C82830   8.147   6.658   8.136 -0.1398 -0.5813  0.9763
  601MOL0     O82831   8.047   6.655   8.038 -0.3337  0.0753  0.5976
  601MOL0     C82832   8.060   6.751   7.933 -0.1545  0.2564  0.3178
  601MOL0     C82833   7.929   6.802   7.894  0.1541  0.1363  0.7253
  601MOL0     C82834   7.910   6.897   7.795 -0.2388 -0.2103 -0.1445
  601MOL0     C82835   8.020   6.933   7.716 -0.3724 -0.3164 -0.0468
  601MOL0     O82836   8.000   7.029   7.614  0.1619  0.6408 -0.1812
  601MOL0     C82837   8.096   7.037   7.506 -0.3420 -0.5781 -0.3619
  601MOL0     C82838   8.046   7.112   7.390  0.7051  0.1764  0.2197
  601MOL0     C82839   8.129   7.091   7.260 -0.5881 -1.4517  0.1008
  601MOL0     C82840   8.056   7.155   7.139 -0.2383  0.7462  0.4831
  601MOL0     C82841   8.133   7.150   7.001  0.2955 -0.4603  0.5075
  601MOL0     C82842   8.125   7.035   6.902  1.2059 -0.2740 -1.5557
  601MOL0     C82843   8.226   7.069   6.797 -0.2290  0.2302  0.5434
  601MOL0     C82844   8.229   6.948   6.710  1.1700 -0.1934  0.3229
  601MOL0    Cl82845   8.340   6.999   6.567 -0.1299 -0.0420  0.1654
  601MOL0     C82846   8.144   6.865   7.741 -0.5882 -0.5613  0.6011
  601MOL0     C82847   8.168   6.779   7.845  0.3946 -0.4803 -0.0142
  601MOL0     O82848   8.238   6.737   8.137  0.7613 -0.3701  0.1765
  601MOL0     C82849   8.013   6.470   8.233  1.0580 -0.1396 -0.1980
  601MOL0     C82850   7.990   6.366   8.313 -0.3349 -0.4235  0.3803
  601MOL0     N82851   8.121   5.644   8.379  0.9916 -0.1780 -0.1782
  601MOL0     N82852   8.102   5.532   8.329  0.5964 -0.8090  0.6638
  601MOL0     C82853   8.029   5.061   9.080  0.4890 -0.8191  0.5635
  601MOL0     C82854   8.017   5.019   9.214 -0.4834  0.4918  0.3290
  601MOL0     C82855   7.990   4.854   9.612 -0.7306  0.4743  0.6008
  601MOL0     C82856   7.866   4.892   9.652 -0.5636 -0.2172  0.1907
  601MOL0     C82857   7.827   4.883   9.786  0.3952  0.9481  0.1437
  601MOL0     C82858   7.906   4.810   9.881 -0.9173 -0.3499 -0.1777
  601MOL0     O82859   7.871   4.794  10.010  0.0074 -0.0872 -0.0224
  601MOL0     C82860   7.851   4.656  10.047  0.3303  0.1638 -0.2808
  601MOL0     C82861   7.735   4.588   9.971 -1.0055 -0.2348  0.1899
  601MOL0     C82862   7.677   4.471  10.047  0.7906  0.5583  0.6163
  601MOL0     C82863   7.586   4.504  10.172 -0.8448  0.0106 -0.1152
  601MOL0     C82864   7.448   4.517  10.142 -0.6523  0.6073 -0.2541
  601MOL0     C82865   7.339   4.550  10.125  0.3325  0.1531 -0.4552
  601MOL0     C82866   8.032   4.773   9.831 -0.2717  0.2120 -0.1604
  601MOL0     C82867   8.084   4.790   9.699  0.3603 -0.7914 -0.1914
  601MOL0     C82868   8.218   4.722   9.671  0.3580 -0.0367 -0.1439
  601MOL0     H82869   7.783   4.780   9.165  1.5293 -0.7618 -1.1450
  601MOL0     H82870   7.801   4.866   8.937  1.0294 -1.7589  0.1516
  601MOL0     H82871   8.034   4.816   8.816 -0.0379  0.6952  2.0867
  601MOL0     H82872   8.152   4.941   8.788 -0.0203  0.0978 -2.6939
  601MOL0     H82873   8.048   5.033   8.601 -0.7588 -0.3914  0.6793
  601MOL0     H82874   8.067   4.850   8.590 -1.7252 -1.5794 -0.1047
  601MOL0     H82875   7.831   4.821   8.647  1.8998  0.0622 -1.4547
  601MOL0     H82876   7.806   5.000   8.651  0.7788  0.6794  1.6588
  601MOL0     H82877   7.907   4.835   8.410  2.1667  0.8230 -0.0378
  601MOL0     H82878   7.744   4.904   8.443  0.4190  0.8895 -2.0649
  601MOL0     H82879   7.861   5.032   8.277  2.3424  2.7495 -0.5188
  601MOL0     H82880   7.997   5.062   8.383 -0.2479  0.1332  1.4213
  601MOL0     H82881   7.706   5.153   8.413  0.6821 -0.8821 -0.4672
  601MOL0     H82882   7.827   5.207   8.531  2.2623 -1.0528  0.1537
  601MOL0     H82883   7.777   5.372   8.354  0.0679  1.2998  0.4882
  601MOL0     H82884   7.832   5.250   8.246 -2.6108  0.3936 -0.1108
  601MOL0     H82885   8.024   5.296   8.482 -0.1029  1.1013 -0.2880
  601MOL0     H82886   8.055   5.292   8.309 -1.0762 -1.4869  0.2243
  601MOL0     H82887   7.930   5.515   8.605  0.9982  1.2759  0.5908
  601MOL0     H82888   8.128   5.733   8.671  1.3524 -0.7411 -1.7516
  601MOL0     H82889   7.961   5.793   8.643 -1.5773 -0.3257 -3.4773
  601MOL0     H82890   8.205   5.876   8.466 -0.2373 -2.0417 -0.9646
  601MOL0     H82891   8.037   5.934   8.451  0.7305  2.0969  1.9574
  601MOL0     H82892   8.051   6.029   8.677 -0.5094 -1.7610  0.2034
  601MOL0     H82893   8.219   5.983   8.676 -0.4968 -1.3991  0.3177
  601MOL0     H82894   8.196   6.217   8.612 -0.1207  0.9541 -1.8435
  601MOL0     H82895   8.259   6.137   8.471  0.3802 -1.2103  0.6805
  601MOL0     H82896   8.315   6.344   8.436  1.1574  0.8620  0.9904
  601MOL0     H82897   8.434   6.521   8.392 -2.6669 -5.1716 -0.4452
  601MOL0     H82898   8.353   6.676   8.340  0.2897  0.3894 -3.5819
  601MOL0     H82899   8.421   6.563   8.224 -1.1850 -1.0310 -0.7355
  601MOL0     H82900   7.844   6.763   7.949  0.9410 -1.4430  0.8894
  601MOL0     H82901   7.817   6.948   7.773  0.9877  2.7654  1.0143
  601MOL0     H82902   8.195   7.067   7.542  0.4739 -1.7834 -1.5145
  601MOL0     H82903   8.110   6.934   7.472  1.7898 -0.7419  0.8176
  601MOL0     H82904   7.941   7.090   7.369  0.1347  3.0571 -0.4552
  601MOL0     H82905   8.043   7.220   7.409  0.9021 -0.0616  1.7088
  601MOL0     H82906   8.160   6.987   7.253  0.5416 -1.0789 -0.6207
  601MOL0     H82907   8.226   7.140   7.272 -1.0039 -1.1229  2.9155
  601MOL0     H82908   8.044   7.262   7.157 -0.7146  0.5111  1.6578
  601MOL0     H82909   7.956   7.117   7.116 -0.0722  0.0912  0.8129
  601MOL0     H82910   8.112   7.241   6.944  3.0941  0.8190  1.2840
  601MOL0     H82911   8.234   7.184   7.029  0.4436 -1.3235  1.0425
  601MOL0     H82912   8.021   7.041   6.870  0.6574 -0.5232  0.0735
  601MOL0     H82913   8.144   6.935   6.942  3.1778  0.4972 -0.4180
  601MOL0     H82914   8.323   7.089   6.845  0.9152  0.3627 -1.7071
  601MOL0     H82915   8.201   7.160   6.742 -2.5645 -1.4631 -1.3882
  601MOL0     H82916   8.135   6.915   6.665  1.7018  2.5490 -3.3188
  601MOL0     H82917   8.259   6.856   6.760 -4.2039 -3.6007 -1.8814
  601MOL0     H82918   8.227   6.892   7.676 -0.5241 -0.8787  0.5459
  601MOL0     H82919   8.270   6.752   7.870  0.1471 -3.6739 -1.9139
  601MOL0     H82920   7.927   6.491   8.170  2.2595 -1.3245 -2.3864
  601MOL0     H82921   7.892   6.321   8.303 -1.5237  2.4318 -2.2565
  601MOL0     H82922   8.118   5.118   9.056 -0.3477 -0.6191 -2.5943
  601MOL0     H82923   8.099   5.052   9.278  1.3757 -5.4301  1.6217
  601MOL0     H82924   7.804   4.945   9.581 -0.0778 -0.0520 -0.1125
  601MOL0     H82925   7.731   4.918   9.820  0.8266  0.2799  2.1983
  601MOL0     H82926   7.944   4.602  10.025  1.1309  1.8933 -1.2858
  601MOL0     H82927   7.830   4.666  10.154 -2.3619  4.0031 -0.9574
  601MOL0     H82928   7.765   4.557   9.870 -1.4968 -4.0088  1.0809
  601MOL0     H82929   7.654   4.657   9.947  0.5303  1.6692  0.1954
  601MOL0     H82930   7.611   4.411   9.984  4.1288 -0.9028 -1.7862
  601MOL0     H82931   7.764   4.413  10.079  1.7396  1.9663  0.7013
  601MOL0     H82932   7.625   4.594  10.222 -0.0301 -0.3439 -0.1079
  601MOL0     H82933   7.589   4.416  10.237 -3.6830 -1.2633 -1.5007
  601MOL0     H82934   7.233   4.562  10.115 -0.1048  2.8310  4.4321
  601MOL0     H82935   8.100   4.731   9.905 -1.6065  0.8920  1.5198
  601MOL0     H82936   8.294   4.795   9.642 -0.9062  1.9998  1.4561
  601MOL0     H82937   8.250   4.669   9.761 -0.2872 -0.7531 -0.3240
  601MOL0     H82938   8.196   4.640   9.602  0.8323 -2.6169  2.5368
  602MOL0     O82939   5.518   7.943   3.234 -0.2770 -0.2572 -0.4457
  602MOL0     C82940   5.490   8.049   3.179  0.2551 -0.7798  0.6636
  602MOL0     O82941   5.408   8.056   3.064  0.5478  0.4098 -0.5139
  602MOL0     C82942   5.352   7.940   3.019 -0.7677 -0.5382  0.0572
  602MOL0     C82943   5.220   7.901   3.061 -0.2116  0.2682  0.4323
  602MOL0     C82944   5.162   7.793   2.992  0.5935  0.4962 -0.0522
  602MOL0     C82945   5.221   7.719   2.895 -0.1323 -0.1629  0.7050
  602MOL0     O82946   5.151   7.619   2.831 -0.2671  0.2820  0.2147
  602MOL0     C82947   5.213   7.556   2.707  0.0352  0.6266 -1.4513
  602MOL0     C82948   5.135   7.422   2.698 -0.4291 -0.7322  0.1368
  602MOL0     C82949   5.173   7.349   2.567 -0.0099  0.2052  0.4425
  602MOL0     C82950   5.121   7.206   2.586 -1.0397 -0.1576 -0.8415
  602MOL0     C82951   5.223   7.100   2.537 -0.1039 -0.7997  0.9541
  602MOL0     C82952   5.333   7.070   2.638 -0.2263  0.4619  0.5781
  602MOL0     C82953   5.392   6.935   2.602 -0.9881  0.4645 -0.0986
  602MOL0     C82954   5.478   6.931   2.475  0.0390  0.1740 -0.3264
  602MOL0     N82955   5.524   6.790   2.458  0.7841  0.0339 -0.0909
  602MOL0     C82956   5.648   6.747   2.506  0.4863 -0.6024  0.1191
  602MOL0     C82957   5.649   6.619   2.465 -0.4783 -0.1122 -0.5356
  602MOL0     C82958   5.747   6.506   2.491 -0.2033  0.7038 -0.0591
  602MOL0     C82959   5.704   6.440   2.628 -1.1032  0.2120  0.1638
  602MOL0     C82960   5.763   6.301   2.647  0.0145  0.0165 -0.4778
  602MOL0     C82961   5.779   6.272   2.789 -0.4970 -0.6748 -1.0965
  602MOL0     O82962   5.836   6.144   2.804  0.1763 -0.3510  0.2764
  602MOL0     C82963   5.748   6.038   2.775 -0.3112 -0.8464  0.5491
  602MOL0     C82964   5.622   6.023   2.831 -0.3592 -0.1352 -0.8560
  602MOL0     C82965   5.543   5.909   2.794  0.0399  0.0186 -0.6941
  602MOL0     C82966   5.421   5.881   2.876  0.1121 -0.3274 -0.6574
  602MOL0     C82967   5.570   5.828   2.674 -1.3079  0.3778 -0.1620
  602MOL0     C82968   5.495   5.718   2.617 -0.0244  0.8028 -0.1624
  602MOL0     O82969   5.502   5.687   2.484 -0.7631  0.1966  0.3094
  602MOL0     C82970   5.430   5.582   2.432 -0.7579  0.2612  0.7542
  602MOL0     C82971   5.323   5.517   2.488  0.4961 -0.4177 -0.2463
  602MOL0     C82972   5.259   5.410   2.425 -0.0287  0.1928 -0.2658
  602MOL0     C82973   5.288   5.380   2.295 -0.6506  0.9905  0.5422
  602MOL0     O82974   5.211   5.277   2.251  0.0230 -0.6791 -0.4096
  602MOL0     C82975   5.282   5.155   2.256  0.5093 -0.7092 -0.0967
  602MOL0     C82976   5.181   5.050   2.205 -0.1794 -0.2764 -0.0156
  602MOL0     C82977   5.249   4.915   2.166  1.1034 -0.3152  0.3305
  602MOL0     C82978   5.330   4.863   2.286 -0.4061  0.4637  0.0066
  602MOL0     C82979   5.380   4.712   2.267  0.7379 -0.7116 -0.1871
  602MOL0     C82980   5.477   4.666   2.368 -0.9723 -0.2535  0.6162
  602MOL0     C82981   5.543   4.531   2.340 -0.5605  0.7928 -0.2917
  602MOL0     C82982   5.445   4.432   2.279 -0.1707 -0.9776 -0.4460
  602MOL0    Cl82983   5.532   4.276   2.252  0.1985 -0.4601 -0.6383
  602MOL0     C82984   5.397   5.440   2.235  0.5885  0.5080 -0.7529
  602MOL0     C82985   5.474   5.534   2.311 -0.3580 -0.1085  0.7642
  602MOL0     O82986   5.454   5.640   2.701  0.2895  0.9740 -0.3107
  602MOL0     C82987   5.692   5.857   2.615 -0.1047  1.0709  0.1719
  602MOL0     C82988   5.778   5.963   2.662  0.5304  0.8245  1.2721
  602MOL0     N82989   5.525   6.591   2.412  0.2345  0.4587 -0.1203
  602MOL0     N82990   5.452   6.691   2.406  0.4439 -0.7811 -0.3769
  602MOL0     C82991   5.353   7.752   2.857  0.1080  0.7893 -0.6304
  602MOL0     C82992   5.419   7.857   2.929 -0.8393 -0.5405 -0.5163
  602MOL0     C82993   5.551   8.173   3.231 -0.1375  0.5573  0.0436
  602MOL0     C82994   5.690   8.164   3.250 -0.0954 -0.3895  0.5105
  602MOL0     C82995   5.767   8.270   3.303  0.6006 -0.2917  0.3958
  602MOL0     C82996   5.704   8.384   3.343 -0.5979  0.9971  0.2177
  602MOL0     O82997   5.769   8.472   3.429  0.1318 -0.2539 -0.2659
  602MOL0     C82998   5.871   8.539   3.363  0.1968  0.0359  0.0320
  602MOL0     C82999   5.871   8.686   3.390 -0.5442 -0.3394 -0.7050
  602MOL0     C83000   5.901   8.705   3.536  1.0100 -0.0033 -0.7274
  602MOL0     C83001   5.937   8.842   3.581 -0.1570 -1.2211  0.6787
  602MOL0     C83002   5.836   8.951   3.562 -0.8732 -0.4146 -0.0864
  602MOL0     C83003   5.741   9.007   3.531 -0.6032 -0.0234  0.3584
  602MOL0     C83004   5.560   8.402   3.318 -0.1203  0.1474  0.5484
  602MOL0     C83005   5.481   8.291   3.272  0.7562  0.6691 -1.3396
  602MOL0     C83006   5.327   8.296   3.282 -0.0207  0.3557  0.3571
  602MOL0     H83007   5.166   7.943   3.146 -0.5151 -3.4095  2.2245
  602MOL0     H83008   5.061   7.776   3.027  0.2782 -0.8411 -1.5362
  602MOL0     H83009   5.319   7.536   2.722 -0.6132 -2.5266 -0.1051
  602MOL0     H83010   5.180   7.624   2.628 -1.1610  0.6147 -0.9865
  602MOL0     H83011   5.168   7.362   2.783  0.0795  0.2237  0.6326
  602MOL0     H83012   5.025   7.430   2.700 -0.8573 -4.6496  2.1363
  602MOL0     H83013   5.124   7.406   2.487  1.8402  1.1146 -0.1135
  602MOL0     H83014   5.282   7.344   2.560  0.0218 -1.5585  1.5053
  602MOL0     H83015   5.101   7.188   2.692 -0.3709  0.1732 -0.6532
  602MOL0     H83016   5.029   7.190   2.529 -1.5207 -0.4098 -0.0206
  602MOL0     H83017   5.265   7.144   2.447 -0.0961 -2.1372  0.2785
  602MOL0     H83018   5.169   7.011   2.502  1.6225 -2.4651  2.2881
  602MOL0     H83019   5.414   7.141   2.617  2.1115 -1.5915  2.1399
  602MOL0     H83020   5.289   7.056   2.737 -0.9048 -2.3267 -0.0260
  602MOL0     H83021   5.301   6.875   2.608 -2.0875  2.2298  2.1876
  602MOL0     H83022   5.456   6.912   2.688  1.4371 -0.1003 -1.9306
  602MOL0     H83023   5.422   6.970   2.390  0.0644  0.1607 -0.3493
  602MOL0     H83024   5.569   6.991   2.479  1.3161 -1.7048  2.3568
  602MOL0     H83025   5.727   6.810   2.545  0.5726 -0.9293  0.4868
  602MOL0     H83026   5.847   6.550   2.492  1.0147 -1.7340  2.9029
  602MOL0     H83027   5.747   6.443   2.402  0.4129 -0.8336  0.9789
  602MOL0     H83028   5.744   6.499   2.711  0.3800 -3.5170  2.3941
  602MOL0     H83029   5.597   6.440   2.651 -0.5259 -0.5284  3.2307
  602MOL0     H83030   5.706   6.230   2.587  0.5948 -0.7673 -0.1173
  602MOL0     H83031   5.863   6.290   2.606 -0.4894 -4.1943 -1.0077
  602MOL0     H83032   5.850   6.339   2.839  0.0925 -2.3977  0.4602
  602MOL0     H83033   5.681   6.283   2.836 -2.5963 -2.2607 -4.7287
  602MOL0     H83034   5.591   6.087   2.913 -1.9867  1.7149 -2.7871
  602MOL0     H83035   5.426   5.940   2.968  1.2337 -1.9192  0.3441
  602MOL0     H83036   5.421   5.784   2.925 -0.7768  0.1217  0.2701
  602MOL0     H83037   5.329   5.909   2.824  0.9843  3.5244 -0.4215
  602MOL0     H83038   5.273   5.551   2.578  1.7218  2.8367 -0.6587
  602MOL0     H83039   5.175   5.367   2.478  0.1258  1.1524  0.7876
  602MOL0     H83040   5.371   5.160   2.193  0.4012  1.5614 -0.1755
  602MOL0     H83041   5.312   5.148   2.361 -1.3756  1.7113  0.7102
  602MOL0     H83042   5.098   5.031   2.274 -0.1933 -4.4168 -0.9104
  602MOL0     H83043   5.143   5.085   2.108 -0.4703 -2.2237 -0.6499
  602MOL0     H83044   5.322   4.910   2.084  0.7891  0.9330 -0.0518
  602MOL0     H83045   5.165   4.849   2.145 -0.7194  1.3924  1.8839
  602MOL0     H83046   5.264   4.860   2.373 -2.9910 -2.7051 -1.7903
  602MOL0     H83047   5.407   4.932   2.320 -0.3485 -0.0766  0.9936
  602MOL0     H83048   5.291   4.648   2.267  0.2993 -0.1141 -0.8154
  602MOL0     H83049   5.417   4.709   2.165 -3.0488  0.5044 -1.7592
  602MOL0     H83050   5.424   4.660   2.464 -0.8134 -1.1961  0.6575
  602MOL0     H83051   5.559   4.737   2.376 -0.1066 -0.9964 -1.1909
  602MOL0     H83052   5.593   4.491   2.429  1.3427 -0.0581 -1.6712
  602MOL0     H83053   5.615   4.544   2.258 -1.3059 -0.6452 -1.2218
  602MOL0     H83054   5.399   4.466   2.186 -4.5638 -2.6097  0.8725
  602MOL0     H83055   5.374   4.413   2.360 -0.8792 -1.8626 -1.2559
  602MOL0     H83056   5.428   5.419   2.133  1.9333 -0.0962 -0.2425
  602MOL0     H83057   5.567   5.575   2.272 -0.2685 -0.5957  0.4540
  602MOL0     H83058   5.742   5.791   2.545 -3.6508 -0.1367 -1.4308
  602MOL0     H83059   5.879   5.979   2.627 -1.1722  2.9930 -3.4540
  602MOL0     H83060   5.419   7.713   2.781 -0.2154  0.6478 -0.8430
  602MOL0     H83061   5.521   7.874   2.896 -0.9468 -1.0873 -1.1455
  602MOL0     H83062   5.738   8.075   3.209 -1.1943  1.2721 -5.1692
  602MOL0     H83063   5.875   8.259   3.307  0.3946 -3.1543  0.3180
  602MOL0     H83064   5.970   8.495   3.375 -0.4948 -1.7972 -0.6785
  602MOL0     H83065   5.855   8.530   3.255 -1.7811  0.2518  0.2760
  602MOL0     H83066   5.775   8.732   3.366 -0.8587 -0.5310  0.1567
  602MOL0     H83067   5.945   8.753   3.343 -1.5757  1.5062  0.2013
  602MOL0     H83068   5.820   8.664   3.596 -2.1875  1.7264 -3.5022
  602MOL0     H83069   5.990   8.644   3.555  1.7797  1.8144  2.3329
  602MOL0     H83070   6.021   8.876   3.520 -0.2220  1.8374  2.0954
  602MOL0     H83071   5.980   8.834   3.681 -0.8968 -1.7995  0.9603
  602MOL0     H83072   5.659   9.067   3.497 -2.3608 -2.3527  0.1448
  602MOL0     H83073   5.507   8.494   3.343 -2.2372 -0.4556 -1.4010
  602MOL0     H83074   5.285   8.315   3.381  1.8152  2.7505  0.7650
  602MOL0     H83075   5.300   8.386   3.227  2.7268  0.7900 -0.4689
  602MOL0     H83076   5.276   8.207   3.244  0.6182 -0.9748  2.4451
  603MOL0     O83077  10.969   9.838   4.318  0.0389  0.0464  0.2100
  603MOL0     C83078  11.032   9.819   4.421 -0.4454 -0.5898  0.7980
  603MOL0     O83079  11.096   9.914   4.493  0.9891  0.7967  0.5270
  603MOL0     C83080  11.128  10.034   4.438  1.0954 -0.2888  0.0134
  603MOL0     C83081  11.094  10.147   4.518 -0.6469  0.3077  0.3224
  603MOL0     C83082  11.136  10.270   4.471 -0.3014  0.5125  0.4196
  603MOL0     C83083  11.192  10.303   4.351 -0.4682  0.1577  0.2085
  603MOL0     O83084  11.231  10.437   4.324 -0.1949 -0.4760 -0.2666
  603MOL0     C83085  11.372  10.448   4.288 -0.0620 -0.1486 -0.0007
  603MOL0     C83086  11.428  10.557   4.381 -1.0185  0.1262 -0.3360
  603MOL0     C83087  11.437  10.506   4.525 -0.7634  0.4295 -1.1236
  603MOL0     C83088  11.527  10.602   4.605  0.9211  0.0676 -0.3978
  603MOL0     C83089  11.513  10.582   4.758  0.4730 -0.2362 -0.7653
  603MOL0     C83090  11.593  10.685   4.837 -0.2933  0.0484 -0.0531
  603MOL0     C83091  11.726  10.616   4.884  0.2424  0.6988  0.2690
  603MOL0     C83092  11.842  10.716   4.901 -0.1862  0.0914 -0.2374
  603MOL0     N83093  11.878  10.764   4.760 -0.4703  0.6959 -0.1880
  603MOL0     C83094  11.902  10.685   4.647  0.1394  0.3545  0.0998
  603MOL0     C83095  11.954  10.769   4.553  1.3862 -0.4597 -0.2613
  603MOL0     C83096  12.011  10.738   4.415 -0.6756 -0.2414 -0.5497
  603MOL0     C83097  11.959  10.616   4.343  0.1485 -0.3124 -0.6245
  603MOL0     C83098  11.825  10.624   4.257 -0.8592 -0.5357 -0.6702
  603MOL0     C83099  11.788  10.489   4.203 -0.2362  0.0700  0.3871
  603MOL0     O83100  11.731  10.399   4.299  0.3822  0.4740  0.0347
  603MOL0     C83101  11.682  10.279   4.256  0.0095 -0.2302  0.7072
  603MOL0     C83102  11.626  10.267   4.130 -0.3819 -0.5172 -1.0675
  603MOL0     C83103  11.568  10.149   4.085 -0.3096  0.2972  0.3850
  603MOL0     C83104  11.519  10.160   3.942  0.2348  0.3248  0.0575
  603MOL0     C83105  11.575  10.032   4.165  0.4861 -0.1875  0.5753
  603MOL0     C83106  11.498   9.907   4.131 -0.4643  0.7589 -0.5792
  603MOL0     O83107  11.550   9.791   4.187  0.0977 -0.0171  0.2082
  603MOL0     C83108  11.470   9.675   4.168 -0.9980 -1.7089  0.2014
  603MOL0     C83109  11.492   9.596   4.061 -0.4187 -0.2432 -0.6321
  603MOL0     C83110  11.417   9.490   4.025 -0.5966  0.3354  0.4259
  603MOL0     C83111  11.314   9.450   4.112  0.9687 -0.2466  0.2017
  603MOL0     O83112  11.246   9.334   4.084 -0.1668 -0.2593 -0.2657
  603MOL0     C83113  11.103   9.350   4.098 -0.8827 -0.5424  0.0299
  603MOL0     C83114  11.041   9.225   4.027  0.7287 -0.0546  0.2971
  603MOL0     C83115  11.085   9.186   3.877 -0.5065  0.5650 -0.8636
  603MOL0     C83116  11.127   9.034   3.872  0.2070  0.0553 -0.2209
  603MOL0     C83117  11.017   8.926   3.915  0.9103 -0.0273  0.1711
  603MOL0     C83118  10.867   8.936   3.853  0.3260  1.0866 -1.1291
  603MOL0     C83119  10.770   8.824   3.886 -0.6479 -0.7605 -0.1309
  603MOL0     C83120  10.660   8.801   3.784 -0.5462  0.1157 -0.0036
  603MOL0    Cl83121  10.544   8.930   3.783  0.2376  0.0642 -0.1087
  603MOL0     C83122  11.285   9.528   4.230 -0.3118 -0.1412 -0.7450
  603MOL0     C83123  11.363   9.646   4.246 -0.5347 -0.0260  0.5502
  603MOL0     O83124  11.407   9.913   4.059 -0.1627  0.5495 -0.1423
  603MOL0     C83125  11.646  10.047   4.290  0.1937  0.6884  1.2321
  603MOL0     C83126  11.702  10.165   4.326  0.5378 -0.4290  0.4972
  603MOL0     N83127  11.950  10.897   4.609  0.0433  0.6358 -0.3635
  603MOL0     N83128  11.912  10.886   4.730  1.8368  0.6666 -0.6365
  603MOL0     C83129  11.221  10.187   4.271  0.7018  0.1195  0.2898
  603MOL0     C83130  11.191  10.054   4.313  0.0764 -0.3272 -0.2049
  603MOL0     C83131  11.029   9.669   4.452  1.0471  0.9346  0.0393
  603MOL0     C83132  11.103   9.645   4.573 -0.0224  0.3413 -0.1166
  603MOL0     C83133  11.092   9.521   4.619 -0.0228  1.0905 -0.3815
  603MOL0     C83134  11.030   9.414   4.547  0.0287 -0.6547 -0.3904
  603MOL0     O83135  11.057   9.295   4.601  0.5904  0.2578  0.4443
  603MOL0     C83136  11.077   9.184   4.513 -0.6965  0.7853  0.1433
  603MOL0     C83137  10.960   9.093   4.532 -0.2965 -0.2766 -0.2420
  603MOL0     C83138  10.972   8.950   4.471  0.1422  0.3197  0.0444
  603MOL0     C83139  10.958   8.945   4.316 -0.1022 -0.2471  0.3464
  603MOL0     C83140  10.829   8.993   4.254  0.9251 -0.0246  0.0202
  603MOL0     C83141  10.726   9.029   4.204  0.2234  0.9697 -0.8085
  603MOL0     C83142  10.956   9.442   4.435 -1.4220 -0.0012 -0.3514
  603MOL0     C83143  10.963   9.569   4.372 -0.2177  0.4191 -1.3362
  603MOL0     C83144  10.874   9.588   4.253  0.5303  0.5086  0.1151
  603MOL0     H83145  11.056  10.138   4.619  0.6184  0.9739  0.8890
  603MOL0     H83146  11.104  10.357   4.527 -2.6347 -0.4064  0.6400
  603MOL0     H83147  11.373  10.479   4.183 -0.1133 -1.2791 -0.3450
  603MOL0     H83148  11.423  10.352   4.302  3.0253  1.2625 -0.5935
  603MOL0     H83149  11.528  10.568   4.338 -1.3729 -0.7994 -1.4447
  603MOL0     H83150  11.376  10.653   4.376 -0.7186  0.3834  1.0708
  603MOL0     H83151  11.339  10.497   4.571 -0.0893 -5.0958  0.0123
  603MOL0     H83152  11.485  10.408   4.535  1.7988  1.8380  2.1078
  603MOL0     H83153  11.634  10.601   4.579  0.7520  1.0801 -1.1772
  603MOL0     H83154  11.488  10.701   4.580  0.2462 -0.3864 -1.1650
  603MOL0     H83155  11.545  10.481   4.783  1.5462 -0.1150 -1.5710
  603MOL0     H83156  11.409  10.602   4.784  0.4248  1.6029 -2.1485
  603MOL0     H83157  11.609  10.774   4.775 -3.1121  1.6647  1.3269
  603MOL0     H83158  11.546  10.709   4.933  0.2611 -0.5322  0.3734
  603MOL0     H83159  11.756  10.543   4.809  1.0680 -0.5674  1.7867
  603MOL0     H83160  11.707  10.557   4.975 -0.3703  1.5321  0.6987
  603MOL0     H83161  11.812  10.794   4.971  0.4085 -0.6902  0.9232
  603MOL0     H83162  11.937  10.672   4.933  1.0437  1.8504 -1.3377
  603MOL0     H83163  11.885  10.578   4.643 -0.5048  0.4031  1.1595
  603MOL0     H83164  12.118  10.729   4.432 -0.6920  0.3980 -0.0542
  603MOL0     H83165  12.001  10.825   4.350 -2.6048 -0.6364 -0.8427
  603MOL0     H83166  12.040  10.583   4.278  1.2165 -1.7532  1.3268
  603MOL0     H83167  11.960  10.536   4.418  4.3005 -0.9601 -1.1004
  603MOL0     H83168  11.740  10.650   4.322 -0.7305 -2.8621  0.5288
  603MOL0     H83169  11.833  10.687   4.168 -0.1376 -2.0676 -1.7229
  603MOL0     H83170  11.728  10.501   4.113  0.6178  2.4182  0.0536
  603MOL0     H83171  11.880  10.445   4.164 -0.0177  2.2719 -1.8102
  603MOL0     H83172  11.620  10.347   4.056  1.4897  1.7141  1.0133
  603MOL0     H83173  11.578  10.228   3.880  0.3957 -0.0900 -0.2444
  603MOL0     H83174  11.415  10.195   3.942  1.3173  4.0072  1.5006
  603MOL0     H83175  11.520  10.062   3.894 -0.4469  0.5741 -0.4906
  603MOL0     H83176  11.591   9.618   4.022 -0.0183  2.2789  1.5609
  603MOL0     H83177  11.447   9.427   3.942 -0.5125  2.2911 -1.1109
  603MOL0     H83178  11.080   9.359   4.205  0.4570  0.4979  0.2680
  603MOL0     H83179  11.067   9.436   4.041 -0.1107  1.5896  2.5633
  603MOL0     H83180  11.063   9.142   4.095  4.2658  0.8971  0.5229
  603MOL0     H83181  10.935   9.240   4.006  1.0098 -0.0694 -1.2307
  603MOL0     H83182  11.164   9.255   3.848 -0.8567  0.2671 -2.6297
  603MOL0     H83183  10.992   9.185   3.819 -2.4345 -2.2120  1.9265
  603MOL0     H83184  11.227   9.014   3.914  0.3131 -0.8068 -0.8504
  603MOL0     H83185  11.141   8.998   3.770  0.9895  0.1547 -0.1576
  603MOL0     H83186  11.053   8.833   3.870 -1.7176 -0.3706 -1.4409
  603MOL0     H83187  11.011   8.913   4.024  3.3425 -0.5993  0.2952
  603MOL0     H83188  10.890   8.941   3.747 -2.6463 -2.8602 -2.2000
  603MOL0     H83189  10.817   9.029   3.883 -2.3584 -0.4619 -0.4144
  603MOL0     H83190  10.728   8.836   3.987 -0.1393 -1.8518  0.2291
  603MOL0     H83191  10.834   8.737   3.903 -2.1205 -1.5000  2.1602
  603MOL0     H83192  10.610   8.715   3.828 -2.7123  1.9449  1.3249
  603MOL0     H83193  10.703   8.786   3.684  1.6449  1.7974  0.6033
  603MOL0     H83194  11.210   9.505   4.304 -0.7333  0.9625 -0.8106
  603MOL0     H83195  11.336   9.702   4.335 -0.1573 -0.2957  0.8416
  603MOL0     H83196  11.658   9.948   4.334 -3.4644 -0.3049  0.2998
  603MOL0     H83197  11.763  10.154   4.415  1.0861 -1.7224 -0.0187
  603MOL0     H83198  11.271  10.210   4.177  3.6723 -1.5811  1.3335
  603MOL0     H83199  11.206   9.977   4.239  0.7813  2.1481 -2.8311
  603MOL0     H83200  11.145   9.728   4.628 -2.6185  1.6783  0.0095
  603MOL0     H83201  11.129   9.492   4.717  0.9789 -2.2694 -1.6255
  603MOL0     H83202  11.092   9.218   4.410  1.9851 -2.6542 -0.7966
  603MOL0     H83203  11.169   9.141   4.553 -0.7742  1.2720  0.8608
  603MOL0     H83204  10.873   9.139   4.484 -1.8183 -4.0534 -1.4858
  603MOL0     H83205  10.941   9.087   4.639 -0.9273  2.7419 -0.1036
  603MOL0     H83206  11.076   8.926   4.494  0.1140 -0.9831 -1.0487
  603MOL0     H83207  10.898   8.886   4.519  0.3493 -0.2964 -0.4444
  603MOL0     H83208  10.966   8.841   4.281  0.1224 -0.2897  0.5288
  603MOL0     H83209  11.039   9.007   4.277  0.4171 -0.3119  1.3007
  603MOL0     H83210  10.625   9.055   4.181 -0.6335 -3.3607 -3.0219
  603MOL0     H83211  10.905   9.359   4.388  0.1506 -0.7979 -0.7411
  603MOL0     H83212  10.939   9.635   4.178  1.4192  0.8683  1.1006
  603MOL0     H83213  10.847   9.495   4.203 -1.2065  2.1116 -2.1794
  603MOL0     H83214  10.779   9.638   4.276 -1.2120 -1.2200 -2.6599
  604MOL0     O83215   3.947  11.270   8.072 -0.4280  0.6557 -0.2538
  604MOL0     C83216   4.057  11.291   8.020 -0.7469  0.7687 -1.1818
  604MOL0     O83217   4.161  11.198   8.000  0.6982  0.6723 -0.9354
  604MOL0     C83218   4.136  11.068   8.047  0.0163 -0.3216 -0.2403
  604MOL0     C83219   4.081  10.972   7.953  0.1661 -0.5493 -0.9193
  604MOL0     C83220   4.065  10.839   7.988  0.7405  0.4532  1.3243
  604MOL0     C83221   4.098  10.807   8.121  0.1813 -0.5876  0.5926
  604MOL0     O83222   4.089  10.681   8.152 -0.0094  0.6177 -0.8142
  604MOL0     C83223   4.010  10.641   8.265 -0.1759 -0.4337 -0.3563
  604MOL0     C83224   3.906  10.538   8.225  1.6679 -0.3143 -0.0610
  604MOL0     C83225   3.803  10.589   8.119 -0.6209  0.1626  0.9448
  604MOL0     C83226   3.705  10.473   8.098  0.7377 -0.0491  0.3841
  604MOL0     C83227   3.586  10.490   8.005  0.4384  0.4838 -0.5598
  604MOL0     C83228   3.618  10.572   7.879  0.4585 -0.2664  0.2765
  604MOL0     C83229   3.513  10.582   7.762  0.0784  0.2320  0.6337
  604MOL0     C83230   3.487  10.438   7.698 -0.0471  0.5385 -0.5553
  604MOL0     N83231   3.595  10.399   7.609  0.0712 -0.2038 -0.3272
  604MOL0     C83232   3.695  10.305   7.647 -0.4261 -0.2440 -0.0895
  604MOL0     C83233   3.786  10.311   7.546  0.2994 -0.0676 -0.2777
  604MOL0     C83234   3.922  10.252   7.522  0.0912  0.0214 -0.1495
  604MOL0     C83235   3.919  10.096   7.513 -0.8555  0.1798 -0.6168
  604MOL0     C83236   3.824  10.035   7.419 -0.0996  0.1424  0.3900
  604MOL0     C83237   3.828  10.084   7.275 -0.0243 -0.0369 -0.1953
  604MOL0     O83238   3.716  10.028   7.215 -0.3522 -0.6005  0.5375
  604MOL0     C83239   3.688  10.046   7.086  0.6365  0.6369  1.2726
  604MOL0     C83240   3.755  10.134   7.001  0.0918 -0.2697 -0.1404
  604MOL0     C83241   3.708  10.154   6.870  0.9290  0.5020  0.9957
  604MOL0     C83242   3.766  10.269   6.799  0.4711  0.5955 -0.7366
  604MOL0     C83243   3.592  10.086   6.814 -0.5871  0.2687  0.3911
  604MOL0     C83244   3.556  10.082   6.672 -0.4037  0.4189  0.6011
  604MOL0     O83245   3.430  10.072   6.642  0.0617 -0.1897 -1.0507
  604MOL0     C83246   3.371  10.023   6.529 -0.5355  0.7795 -0.1251
  604MOL0     C83247   3.421  10.030   6.399 -0.3611 -0.8961 -0.2653
  604MOL0     C83248   3.362   9.976   6.291  0.6320  0.6009 -0.0499
  604MOL0     C83249   3.239   9.907   6.307  1.4409  0.1267  0.2295
  604MOL0     O83250   3.168   9.838   6.211 -0.0136 -0.0448 -0.6367
  604MOL0     C83251   3.189   9.862   6.075  0.2863  1.0096  0.6718
  604MOL0     C83252   3.079   9.793   5.990 -1.3123 -0.8894  0.2756
  604MOL0     C83253   3.111   9.810   5.837 -0.2433 -0.2073 -0.2667
  604MOL0     C83254   3.132   9.948   5.781  0.5201  0.5813  0.6925
  604MOL0     C83255   3.152   9.934   5.632 -0.0225  0.6324  0.2417
  604MOL0     C83256   3.186  10.065   5.565  0.2059  0.3313  0.9617
  604MOL0     C83257   3.331  10.104   5.582  0.0027  0.5271  0.3141
  604MOL0     C83258   3.391  10.097   5.442 -0.0513  0.3238  0.1124
  604MOL0    Cl83259   3.548  10.184   5.434  0.0543 -0.3895 -0.1313
  604MOL0     C83260   3.186   9.895   6.437  1.1022  0.4081 -0.3650
  604MOL0     C83261   3.254   9.957   6.547  0.4596 -0.2209 -1.1756
  604MOL0     O83262   3.648  10.097   6.587 -0.5711 -0.6623  0.0047
  604MOL0     C83263   3.521   9.991   6.894  0.2550  1.2089 -0.1051
  604MOL0     C83264   3.577   9.975   7.027  0.1390  1.1450  0.7157
  604MOL0     N83265   3.729  10.399   7.454  0.1463 -0.4073 -0.3461
  604MOL0     N83266   3.618  10.449   7.490  0.1582  0.1766  0.7663
  604MOL0     C83267   4.143  10.909   8.206 -0.6073  0.4848  1.0645
  604MOL0     C83268   4.160  11.040   8.179  0.3090  0.1671  0.2545
  604MOL0     C83269   4.090  11.424   7.966  0.5406 -0.6221  0.1612
  604MOL0     C83270   4.211  11.434   7.895 -0.6382  0.0628  0.4287
  604MOL0     C83271   4.256  11.548   7.835 -0.2557  0.5685  0.8020
  604MOL0     C83272   4.179  11.665   7.848 -0.4670  1.0406  0.2350
  604MOL0     O83273   4.215  11.771   7.771  0.0079 -0.2228  0.8857
  604MOL0     C83274   4.147  11.892   7.780  0.9120  1.1595  0.2140
  604MOL0     C83275   4.192  11.990   7.670  1.0514 -0.2141 -0.5049
  604MOL0     C83276   4.320  12.067   7.692  0.3781  0.4876 -0.1336
  604MOL0     C83277   4.341  12.170   7.579 -0.3706  0.4933 -0.0342
  604MOL0     C83278   4.450  12.256   7.614 -0.7956 -0.4026 -0.1168
  604MOL0     C83279   4.552  12.315   7.660  1.0146 -0.5773 -0.0314
  604MOL0     C83280   4.072  11.662   7.941  0.7380  0.3492 -0.2129
  604MOL0     C83281   4.017  11.543   7.996 -0.1213  0.0722 -0.6476
  604MOL0     C83282   3.886  11.559   8.069  0.3525  0.0563 -0.5042
  604MOL0     H83283   4.056  11.005   7.853  0.3047  1.0562 -0.4605
  604MOL0     H83284   4.012  10.781   7.913  1.2949 -0.5026  1.6562
  604MOL0     H83285   3.949  10.721   8.307 -0.8556 -0.4185 -1.3296
  604MOL0     H83286   4.067  10.603   8.350 -1.9838  0.0996  1.1564
  604MOL0     H83287   3.948  10.444   8.187 -0.0876 -1.9473  1.8070
  604MOL0     H83288   3.845  10.511   8.312 -3.3197  2.4273 -2.3062
  604MOL0     H83289   3.757  10.681   8.155 -2.1524 -1.3259  3.0618
  604MOL0     H83290   3.856  10.613   8.026 -2.3604 -0.3548 -0.2220
  604MOL0     H83291   3.767  10.389   8.067  1.8806  0.5031  1.1437
  604MOL0     H83292   3.669  10.444   8.197 -1.9060 -2.3732 -1.1175
  604MOL0     H83293   3.499  10.540   8.050  0.3218  1.6985 -2.0599
  604MOL0     H83294   3.557  10.387   7.980  1.8061 -0.2583  0.7021
  604MOL0     H83295   3.631  10.676   7.911 -3.6846  0.7123 -0.5925
  604MOL0     H83296   3.710  10.524   7.845  0.6549 -0.6294  1.2803
  604MOL0     H83297   3.543  10.653   7.685  0.1482 -0.2902  0.1753
  604MOL0     H83298   3.413  10.609   7.798 -1.1223 -2.4562 -0.4505
  604MOL0     H83299   3.460  10.372   7.781 -1.4437  3.3363  1.3636
  604MOL0     H83300   3.396  10.448   7.638  0.7803 -0.4536 -2.0526
  604MOL0     H83301   3.721  10.247   7.734  1.3333 -1.9592 -1.6589
  604MOL0     H83302   3.983  10.264   7.613 -0.6754 -1.4846  0.6080
  604MOL0     H83303   3.965  10.300   7.434  0.9789 -3.0655 -1.5383
  604MOL0     H83304   4.016  10.071   7.469  0.0521 -2.8666  2.6749
  604MOL0     H83305   3.906  10.055   7.614 -2.0614  0.4287 -0.6528
  604MOL0     H83306   3.858   9.932   7.407  1.9470  0.8111  0.0075
  604MOL0     H83307   3.725  10.046   7.464  0.4818  0.0217  1.7683
  604MOL0     H83308   3.824  10.193   7.277  1.9242  0.0563  0.7587
  604MOL0     H83309   3.927  10.056   7.239  0.8138 -1.2891  2.7139
  604MOL0     H83310   3.838  10.187   7.048 -1.1887  0.2139  1.6725
  604MOL0     H83311   3.824  10.330   6.868 -0.7964 -0.1188  1.0350
  604MOL0     H83312   3.692  10.341   6.763  2.3798  2.9520 -0.1566
  604MOL0     H83313   3.829  10.227   6.719  1.5102 -1.4457  1.0542
  604MOL0     H83314   3.513  10.084   6.380 -0.7412 -0.8453 -2.1594
  604MOL0     H83315   3.395   9.988   6.188  1.2102 -1.6502 -0.1666
  604MOL0     H83316   3.181   9.969   6.051 -0.8807  0.6714 -0.5844
  604MOL0     H83317   3.290   9.826   6.055 -0.0903  0.0985  0.3821
  604MOL0     H83318   3.088   9.685   6.006 -0.5751 -0.8010  0.4824
  604MOL0     H83319   2.979   9.830   6.014 -0.5031 -0.0838  2.7776
  604MOL0     H83320   3.042   9.759   5.770 -0.0753 -1.1791  0.2873
  604MOL0     H83321   3.207   9.760   5.819  1.2772  1.8628  1.5567
  604MOL0     H83322   3.220   9.994   5.826  3.1374 -0.0152 -3.2868
  604MOL0     H83323   3.047  10.014   5.800  2.6865  3.5686  0.7803
  604MOL0     H83324   3.226   9.854   5.621 -0.6190  0.2951 -1.5891
  604MOL0     H83325   3.064   9.883   5.592  0.8214 -0.1994 -0.6132
  604MOL0     H83326   3.121  10.141   5.608  0.5256  0.7201  0.7675
  604MOL0     H83327   3.158  10.046   5.461 -2.6426 -0.2584  1.7412
  604MOL0     H83328   3.386  10.044   5.656  1.2084  1.0330 -0.1495
  604MOL0     H83329   3.327  10.210   5.608 -2.7024  0.3795  0.8573
  604MOL0     H83330   3.327  10.145   5.368 -0.9998 -0.7819  0.1946
  604MOL0     H83331   3.400   9.993   5.409  1.7246  0.3237  0.4909
  604MOL0     H83332   3.088   9.850   6.450  1.4227 -0.2640 -0.2294
  604MOL0     H83333   3.225   9.945   6.650  0.0652 -1.6763 -1.4399
  604MOL0     H83334   3.431   9.946   6.853  1.3871 -0.2728 -1.0593
  604MOL0     H83335   3.516   9.924   7.101  0.9280  2.1763  2.1190
  604MOL0     H83336   4.170  10.879   8.307 -0.1944  2.0436  1.4470
  604MOL0     H83337   4.208  11.120   8.234  2.6960 -0.1825 -1.1612
  604MOL0     H83338   4.278  11.349   7.880 -2.5950 -1.5957  0.5841
  604MOL0     H83339   4.348  11.564   7.780 -1.9463  1.6790 -1.9323
  604MOL0     H83340   4.038  11.889   7.784  0.9395  1.1830  2.6724
  604MOL0     H83341   4.179  11.933   7.876  0.5232  0.5710  0.6041
  604MOL0     H83342   4.112  12.066   7.670  0.1210 -1.1356  1.2818
  604MOL0     H83343   4.199  11.936   7.575  1.8396  3.4831 -2.7659
  604MOL0     H83344   4.323  12.115   7.790 -2.7520  0.7534 -0.0568
  604MOL0     H83345   4.399  11.992   7.686  0.6441  0.8275 -0.9840
  604MOL0     H83346   4.250  12.229   7.567  1.1848  2.9108 -0.5669
  604MOL0     H83347   4.363  12.122   7.483 -0.4151  0.3586  0.0232
  604MOL0     H83348   4.637  12.358   7.710  0.7533 -1.3621  1.1388
  604MOL0     H83349   4.028  11.761   7.951  1.6526  0.7908 -0.4873
  604MOL0     H83350   3.838  11.656   8.050 -0.8662 -0.9575 -3.1549
  604MOL0     H83351   3.822  11.484   8.021 -0.2866  0.3415 -0.1113
  604MOL0     H83352   3.902  11.531   8.173  1.8834 -0.1811 -0.7793
  605MOL0     O83353  10.447   4.473   3.903  0.8146  0.2960 -0.6394
  605MOL0     C83354  10.525   4.552   3.955 -0.1078  1.5008 -1.0998
  605MOL0     O83355  10.496   4.687   3.974  0.4147  0.3286 -0.1894
  605MOL0     C83356  10.375   4.739   3.936 -0.0275  0.3001 -0.7239
  605MOL0     C83357  10.258   4.690   3.997 -0.4628 -0.8879  0.2448
  605MOL0     C83358  10.127   4.747   3.977 -0.3698  0.8280 -0.4232
  605MOL0     C83359  10.115   4.846   3.887  0.7360  0.2921 -0.2205
  605MOL0     O83360  10.001   4.917   3.864  0.1232 -0.8976 -0.7328
  605MOL0     C83361   9.882   4.858   3.882  0.4612 -0.0813 -0.1278
  605MOL0     C83362   9.859   4.752   3.773  0.1361  0.0798  0.2796
  605MOL0     C83363   9.712   4.758   3.728 -0.0349 -0.0457 -0.2667
  605MOL0     C83364   9.690   4.651   3.620 -0.2201 -1.2686 -0.0600
  605MOL0     C83365   9.553   4.625   3.611 -0.0758 -0.6838  0.7249
  605MOL0     C83366   9.504   4.528   3.712  0.3043 -0.0354 -0.3360
  605MOL0     C83367   9.363   4.459   3.675 -0.7582 -0.7696  0.2349
  605MOL0     C83368   9.370   4.373   3.543 -0.0733  0.4788 -0.6225
  605MOL0     N83369   9.251   4.279   3.530  0.4258  0.0429 -0.0125
  605MOL0     C83370   9.260   4.155   3.582  0.3049 -0.3803 -0.8619
  605MOL0     C83371   9.135   4.096   3.575  0.4626 -0.4684 -0.1655
  605MOL0     C83372   9.112   3.949   3.594 -1.2613 -0.5128  0.1027
  605MOL0     C83373   8.976   3.888   3.567  0.2074  0.7291  0.0829
  605MOL0     C83374   8.968   3.741   3.600 -0.5122  1.1803  0.6591
  605MOL0     C83375   8.822   3.692   3.612  0.6878  0.6413  0.4164
  605MOL0     O83376   8.815   3.560   3.683 -0.0219 -0.0873  0.1225
  605MOL0     C83377   8.802   3.449   3.602  0.2928 -0.1574  1.1192
  605MOL0     C83378   8.758   3.327   3.662 -0.3432  0.6427  0.3893
  605MOL0     C83379   8.765   3.203   3.595 -0.3908 -0.9609 -0.1913
  605MOL0     C83380   8.701   3.092   3.663 -0.1242 -0.1185 -0.1141
  605MOL0     C83381   8.836   3.196   3.474 -0.1941  0.6039  0.4381
  605MOL0     C83382   8.878   3.057   3.415 -0.3056 -0.8902  0.4627
  605MOL0     O83383   8.906   2.958   3.508  0.5196 -0.0516  0.4418
  605MOL0     C83384   8.977   2.848   3.477 -0.0535 -0.4430  0.1980
  605MOL0     C83385   9.110   2.853   3.488 -0.3683  1.2084  0.2399
  605MOL0     C83386   9.187   2.737   3.464  0.4604 -1.3144 -0.0111
  605MOL0     C83387   9.111   2.624   3.417  0.0082 -0.4975 -0.0373
  605MOL0     O83388   9.175   2.520   3.380 -0.3336  0.1831 -0.4802
  605MOL0     C83389   9.165   2.491   3.242 -0.0624  0.7067  0.3521
  605MOL0     C83390   9.243   2.362   3.210  0.3474 -0.1146 -0.9883
  605MOL0     C83391   9.206   2.256   3.314  0.3664  0.3527  0.3776
  605MOL0     C83392   9.227   2.113   3.260  0.4835 -0.0788  0.0456
  605MOL0     C83393   9.218   2.012   3.372  0.5080  0.2866 -0.6389
  605MOL0     C83394   9.076   1.980   3.414 -1.5048 -0.6990 -0.4218
  605MOL0     C83395   9.070   1.879   3.530  0.9978 -0.2718  0.0766
  605MOL0     C83396   9.022   1.955   3.653  0.0534  0.5986  0.6023
  605MOL0    Cl83397   9.142   2.076   3.724  0.4830  0.3618 -0.2121
  605MOL0     C83398   8.970   2.623   3.407  1.0248 -0.9563  0.5751
  605MOL0     C83399   8.898   2.742   3.442 -0.0658 -0.3616 -0.4632
  605MOL0     O83400   8.903   3.049   3.292 -0.0927  0.0955 -0.0752
  605MOL0     C83401   8.873   3.310   3.405 -0.1611 -0.5614 -0.0995
  605MOL0     C83402   8.846   3.439   3.464  0.4605  0.0818 -0.9350
  605MOL0     N83403   9.052   4.193   3.522  0.1776  0.0613 -0.6626
  605MOL0     N83404   9.123   4.305   3.499  0.5938  0.2306  0.0885
  605MOL0     C83405  10.228   4.898   3.822 -0.0729  0.8501  0.0228
  605MOL0     C83406  10.360   4.848   3.843  0.1433  0.5995  0.5462
  605MOL0     C83407  10.667   4.524   4.002  0.5270  0.8923  0.5979
  605MOL0     C83408  10.749   4.620   4.070 -0.1091  0.4581  0.2551
  605MOL0     C83409  10.873   4.598   4.124 -0.6417 -0.3052 -0.3396
  605MOL0     C83410  10.935   4.482   4.096  0.4903  0.7737  0.2924
  605MOL0     O83411  11.064   4.483   4.136 -0.1422  0.5461  0.7004
  605MOL0     C83412  11.147   4.375   4.083 -0.2994  0.0996 -0.1276
  605MOL0     C83413  11.132   4.265   4.188  0.7319  0.4145 -0.9271
  605MOL0     C83414  11.237   4.161   4.154  0.6386  0.0015 -0.5477
  605MOL0     C83415  11.212   4.089   4.018 -0.3757  1.1898  0.3165
  605MOL0     C83416  11.071   4.045   4.003  0.1245  0.9939  0.7193
  605MOL0     C83417  10.965   3.990   4.016 -0.3072 -0.3848  1.1473
  605MOL0     C83418  10.862   4.376   4.024  0.7322 -0.4525  0.5024
  605MOL0     C83419  10.735   4.397   3.978  1.3110  0.1464  0.8382
  605MOL0     C83420  10.662   4.288   3.915 -0.3484  1.0696  0.5711
  605MOL0     H83421  10.277   4.629   4.085  2.1708 -0.4282  0.0854
  605MOL0     H83422  10.042   4.701   4.026  1.3027 -2.8629 -0.6726
  605MOL0     H83423   9.810   4.939   3.867 -0.2169 -0.6001  0.2838
  605MOL0     H83424   9.854   4.817   3.980 -0.6041 -1.1558 -0.8624
  605MOL0     H83425   9.916   4.779   3.684 -0.5199  1.4553  0.2501
  605MOL0     H83426   9.882   4.655   3.820 -0.1931 -0.0743  0.1269
  605MOL0     H83427   9.637   4.738   3.805 -0.9352  0.8328 -0.8973
  605MOL0     H83428   9.672   4.856   3.698 -1.7148 -0.7901 -0.5681
  605MOL0     H83429   9.719   4.695   3.524  1.8675 -0.2927  0.9577
  605MOL0     H83430   9.744   4.556   3.629  1.4459 -0.5544 -1.8503
  605MOL0     H83431   9.531   4.593   3.508 -0.7755 -0.8615  0.9187
  605MOL0     H83432   9.490   4.714   3.613 -3.5888 -2.7746 -2.2457
  605MOL0     H83433   9.586   4.459   3.734  1.6803  1.6001 -0.0741
  605MOL0     H83434   9.486   4.572   3.810  2.7930 -1.1545  0.6950
  605MOL0     H83435   9.283   4.530   3.654 -0.0920  0.5534  1.9340
  605MOL0     H83436   9.342   4.390   3.757 -1.1182 -0.0584  0.7439
  605MOL0     H83437   9.365   4.441   3.458  3.2311  1.8471  0.1386
  605MOL0     H83438   9.458   4.308   3.547 -0.8474 -0.5677  0.2167
  605MOL0     H83439   9.342   4.089   3.605  2.7776  1.8500 -2.5324
  605MOL0     H83440   9.136   3.923   3.697 -4.4624 -0.0483  1.0687
  605MOL0     H83441   9.188   3.896   3.536 -0.5047  0.7559 -0.1244
  605MOL0     H83442   8.911   3.933   3.643 -1.1666 -0.5979 -0.2706
  605MOL0     H83443   8.939   3.909   3.466 -1.1755  0.8980  0.5936
  605MOL0     H83444   9.025   3.685   3.525  0.6777 -1.1205  3.0944
  605MOL0     H83445   9.016   3.723   3.697  1.9366 -0.0185 -0.6583
  605MOL0     H83446   8.759   3.760   3.672 -0.5911 -0.8520  0.8453
  605MOL0     H83447   8.778   3.683   3.512  0.9328 -0.1877  0.3723
  605MOL0     H83448   8.750   3.320   3.770  1.2709  0.4976  0.5225
  605MOL0     H83449   8.597   3.118   3.687  0.3503 -0.0072  1.9776
  605MOL0     H83450   8.753   3.076   3.757 -0.7695  2.5530  0.7819
  605MOL0     H83451   8.700   3.000   3.603 -1.7144 -1.4093  1.7608
  605MOL0     H83452   9.152   2.950   3.511  0.6964  1.2868 -1.7831
  605MOL0     H83453   9.295   2.743   3.474  0.6285  3.4232 -1.8529
  605MOL0     H83454   9.064   2.470   3.205  0.4187 -0.5782 -0.2868
  605MOL0     H83455   9.200   2.579   3.188  1.6036 -0.3862 -0.4364
  605MOL0     H83456   9.202   2.337   3.112  0.8832  0.8958 -1.4851
  605MOL0     H83457   9.350   2.384   3.202 -0.0451  1.7448 -1.6533
  605MOL0     H83458   9.101   2.279   3.337 -0.1243  0.8646 -2.0219
  605MOL0     H83459   9.268   2.263   3.403 -1.6116 -0.0031  1.8516
  605MOL0     H83460   9.328   2.109   3.218  0.0011 -3.1134 -1.0826
  605MOL0     H83461   9.156   2.089   3.180  1.1302 -2.1360  0.0415
  605MOL0     H83462   9.260   1.916   3.341 -2.7762 -1.6408  0.3853
  605MOL0     H83463   9.275   2.059   3.453 -0.8431  0.3610  0.3009
  605MOL0     H83464   9.035   1.925   3.329  1.3563  1.8442 -3.7376
  605MOL0     H83465   9.019   2.072   3.426 -1.7711 -0.5735 -2.3707
  605MOL0     H83466   9.164   1.834   3.563  0.6729 -2.2930 -1.5122
  605MOL0     H83467   9.005   1.794   3.507  1.0667 -0.8013  1.7160
  605MOL0     H83468   8.990   1.881   3.727 -2.3946 -0.7394 -1.6335
  605MOL0     H83469   8.934   2.011   3.621  0.4497  0.3286 -1.0497
  605MOL0     H83470   8.911   2.536   3.379  0.0243 -0.0823 -0.0738
  605MOL0     H83471   8.790   2.737   3.440 -0.0405 -0.7599 -2.2495
  605MOL0     H83472   8.929   3.300   3.313 -1.2850 -1.8479 -0.6688
  605MOL0     H83473   8.878   3.525   3.406 -0.8906  0.2195 -1.5346
  605MOL0     H83474  10.223   4.978   3.748  0.1490 -1.7011 -2.9717
  605MOL0     H83475  10.443   4.888   3.786  0.6950 -2.2248 -0.8080
  605MOL0     H83476  10.710   4.721   4.081 -3.4286 -0.4681 -1.6244
  605MOL0     H83477  10.926   4.678   4.172 -0.0588 -0.5420 -0.5829
  605MOL0     H83478  11.111   4.346   3.984  1.6715 -1.6231 -0.4115
  605MOL0     H83479  11.254   4.394   4.065  0.5585 -1.3698  2.7767
  605MOL0     H83480  11.033   4.219   4.190  1.5421 -1.4093 -0.9195
  605MOL0     H83481  11.158   4.292   4.291  0.2621  0.7793 -0.8976
  605MOL0     H83482  11.337   4.201   4.173 -0.0481  1.1900  0.8148
  605MOL0     H83483  11.225   4.088   4.235  1.7282  1.3391  0.8709
  605MOL0     H83484  11.282   4.004   4.024 -0.1325  1.4386  1.2066
  605MOL0     H83485  11.245   4.147   3.932 -1.2271 -0.7605 -1.4104
  605MOL0     H83486  10.867   3.947   4.009  1.1686 -3.7749 -1.2267
  605MOL0     H83487  10.903   4.276   4.033 -1.5748 -1.4256  0.9116
  605MOL0     H83488  10.731   4.205   3.894  0.3078  1.4369  1.2651
  605MOL0     H83489  10.593   4.238   3.984  1.0820 -1.8288  0.0706
  605MOL0     H83490  10.609   4.298   3.820 -1.5005  0.3214  1.1180
  606MOL0     O83491   9.879  10.785   7.976  0.8726 -0.3128  0.5699
  606MOL0     C83492   9.948  10.847   8.065  0.5173  0.1678 -0.0181
  606MOL0     O83493  10.025  10.946   8.043 -0.1229  0.2741  0.4549
  606MOL0     C83494  10.067  10.960   7.916 -0.0375 -0.7237 -0.0065
  606MOL0     C83495  10.160  10.872   7.856  0.9092  0.5812 -0.4000
  606MOL0     C83496  10.192  10.895   7.723 -0.4040  0.5585 -0.1154
  606MOL0     C83497  10.153  11.008   7.656  0.8168 -0.2915  0.3650
  606MOL0     O83498  10.179  11.024   7.523  0.1886 -0.3631  0.2213
  606MOL0     C83499  10.312  11.064   7.497 -0.5886  0.0525 -0.0224
  606MOL0     C83500  10.324  11.099   7.346 -0.1470  1.0907  0.8724
  606MOL0     C83501  10.473  11.094   7.309  0.6572 -0.6011  0.0320
  606MOL0     C83502  10.566  11.178   7.400  1.2363  0.3430 -0.6005
  606MOL0     C83503  10.704  11.200   7.347  0.2392 -0.6337 -0.4412
  606MOL0     C83504  10.766  11.319   7.433  0.2099  0.3521 -1.3603
  606MOL0     C83505  10.917  11.309   7.453 -0.0976 -0.0137  0.0587
  606MOL0     C83506  10.975  11.180   7.521 -0.0808 -0.0731  0.0881
  606MOL0     N83507  11.079  11.188   7.626 -0.3510 -0.0007 -0.8802
  606MOL0     C83508  11.048  11.217   7.751  0.0103 -0.1822 -0.1040
  606MOL0     C83509  11.155  11.173   7.822 -0.4045 -0.3279  0.1280
  606MOL0     C83510  11.175  11.166   7.973 -0.5084 -0.0031 -1.6839
  606MOL0     C83511  11.137  11.303   8.034 -0.0421 -0.1628  0.9065
  606MOL0     C83512  11.198  11.426   7.968  0.5200  0.3887 -0.4598
  606MOL0     C83513  11.163  11.555   8.041 -0.6893  0.5428  0.1887
  606MOL0     O83514  11.023  11.589   8.061 -1.0500  0.2295 -0.1563
  606MOL0     C83515  10.960  11.656   7.965  0.2796  0.5323  0.5243
  606MOL0     C83516  10.827  11.691   7.996 -0.6341  0.4308  0.5455
  606MOL0     C83517  10.758  11.765   7.905  0.0806  0.7547  0.2108
  606MOL0     C83518  10.615  11.806   7.935  0.5318 -0.2011  0.1531
  606MOL0     C83519  10.809  11.788   7.776  0.5766  0.2384 -0.1694
  606MOL0     C83520  10.734  11.852   7.676  0.3961 -0.5034  1.3634
  606MOL0     O83521  10.685  11.768   7.572  0.3207 -0.4572 -0.9579
  606MOL0     C83522  10.664  11.817   7.448 -0.0344  0.0186  0.0304
  606MOL0     C83523  10.704  11.747   7.332  0.2498 -0.4685  0.9526
  606MOL0     C83524  10.643  11.777   7.201  0.2313  0.7757 -0.0656
  606MOL0     C83525  10.546  11.889   7.190 -0.1828 -0.2022 -0.5165
  606MOL0     O83526  10.485  11.902   7.067  0.0354  0.4167  0.3787
  606MOL0     C83527  10.373  11.989   7.053  0.3906 -0.0540 -1.2975
  606MOL0     C83528  10.249  11.909   7.029 -0.8342 -0.3504  0.7554
  606MOL0     C83529  10.279  11.816   6.912  0.9491 -0.2527 -0.0148
  606MOL0     C83530  10.145  11.771   6.854 -0.5777  0.0413 -0.3939
  606MOL0     C83531  10.156  11.738   6.704  0.7015 -0.1138  0.3488
  606MOL0     C83532  10.039  11.648   6.665 -0.4927  1.7744  0.3387
  606MOL0     C83533  10.011  11.607   6.520  0.5279 -0.6004  0.4204
  606MOL0     C83534   9.952  11.731   6.443 -1.1732  0.0077  0.2489
  606MOL0    Cl83535  10.089  11.826   6.354  0.1745 -0.1901 -0.3063
  606MOL0     C83536  10.508  11.949   7.311 -0.5078  0.7007  1.1057
  606MOL0     C83537  10.560  11.909   7.431  1.4018  0.2718  0.3422
  606MOL0     O83538  10.734  11.974   7.662 -0.4049 -0.7727 -0.2867
  606MOL0     C83539  10.942  11.751   7.735 -0.2119  1.0359  0.0097
  606MOL0     C83540  11.018  11.685   7.836 -0.6599  0.2311 -0.1243
  606MOL0     N83541  11.251  11.118   7.737 -0.1535 -0.6267 -0.4280
  606MOL0     N83542  11.202  11.124   7.623 -0.0768  0.5407  0.3928
  606MOL0     C83543  10.073  11.100   7.720 -0.4946 -0.4638  0.2847
  606MOL0     C83544  10.028  11.074   7.846  0.0265 -0.0356  0.2822
  606MOL0     C83545   9.934  10.811   8.207  0.2236  0.4759 -0.0384
  606MOL0     C83546   9.961  10.905   8.311 -0.9022 -0.9591 -0.1674
  606MOL0     C83547   9.964  10.863   8.439 -0.2960 -0.6937 -0.5441
  606MOL0     C83548   9.935  10.734   8.480  0.2994 -0.0127 -0.9296
  606MOL0     O83549   9.942  10.713   8.621 -0.0270  0.2710 -0.2230
  606MOL0     C83550   9.944  10.580   8.680 -1.2466 -0.4488  0.2160
  606MOL0     C83551   9.803  10.530   8.698  0.1077  0.1667  1.0373
  606MOL0     C83552   9.802  10.380   8.710  0.5994  0.3638 -0.1648
  606MOL0     C83553   9.848  10.294   8.593  0.6496 -0.8559  0.5543
  606MOL0     C83554   9.775  10.310   8.470 -0.2085  1.2544  0.2833
  606MOL0     C83555   9.731  10.309   8.359 -0.4223 -1.1650 -0.3476
  606MOL0     C83556   9.898  10.637   8.390 -0.4030 -0.0303  0.4006
  606MOL0     C83557   9.907  10.672   8.245  0.4267  0.4144  0.9335
  606MOL0     C83558   9.889  10.570   8.139 -0.3302  0.0155 -0.5768
  606MOL0     H83559  10.196  10.785   7.910  2.0171  1.8116  0.9062
  606MOL0     H83560  10.259  10.834   7.664  0.6006  2.1570 -0.6633
  606MOL0     H83561  10.375  10.978   7.523 -2.7561 -2.0227 -1.2061
  606MOL0     H83562  10.344  11.149   7.558  2.2607 -1.5531  0.9126
  606MOL0     H83563  10.267  11.029   7.284  1.1310 -0.5073  1.4429
  606MOL0     H83564  10.299  11.200   7.311  3.5646  0.5663 -4.4489
  606MOL0     H83565  10.515  10.993   7.305  1.3045 -0.3334 -3.7727
  606MOL0     H83566  10.492  11.129   7.207  2.4035 -0.4316  0.3801
  606MOL0     H83567  10.513  11.270   7.424  0.4104 -0.1504 -0.5211
  606MOL0     H83568  10.585  11.117   7.489 -0.2696 -3.7919 -2.8362
  606MOL0     H83569  10.705  11.239   7.245 -0.1290  0.1335 -0.1584
  606MOL0     H83570  10.769  11.112   7.352  0.5142 -0.4360 -0.4781
  606MOL0     H83571  10.754  11.412   7.377 -1.2800  0.7413 -0.4288
  606MOL0     H83572  10.731  11.320   7.536  1.9191 -2.1282 -0.6437
  606MOL0     H83573  10.946  11.391   7.519  0.6091 -0.5327  0.4064
  606MOL0     H83574  10.975  11.329   7.362 -1.7806  1.2653 -0.7972
  606MOL0     H83575  10.887  11.135   7.569 -3.6043  3.6889 -2.1612
  606MOL0     H83576  11.014  11.119   7.439 -1.6140 -3.4312  1.6519
  606MOL0     H83577  10.961  11.270   7.789  0.7724  0.5119  0.6987
  606MOL0     H83578  11.272  11.134   8.011 -1.1253 -1.6831 -1.3904
  606MOL0     H83579  11.103  11.093   8.013 -1.6274  1.8733 -0.0902
  606MOL0     H83580  11.028  11.314   8.038 -0.0595 -0.1207  0.3488
  606MOL0     H83581  11.171  11.297   8.138  1.3004  1.5979  0.6131
  606MOL0     H83582  11.303  11.398   7.982  1.8301  5.0036  0.5820
  606MOL0     H83583  11.190  11.442   7.860 -0.6590  0.4307 -0.3787
  606MOL0     H83584  11.221  11.555   8.135  5.0397 -2.6744 -2.7832
  606MOL0     H83585  11.211  11.636   7.986 -0.6812  0.1049 -0.4605
  606MOL0     H83586  10.785  11.671   8.095 -1.8363 -0.4229 -0.1122
  606MOL0     H83587  10.596  11.800   8.042  0.6687 -0.5594  0.1588
  606MOL0     H83588  10.538  11.739   7.896 -1.5138  1.0135  1.9446
  606MOL0     H83589  10.587  11.907   7.905  1.1651  0.2718  1.1043
  606MOL0     H83590  10.776  11.666   7.336 -0.1055 -0.8114  0.5315
  606MOL0     H83591  10.645  11.713   7.113 -2.2158 -0.5495  0.7491
  606MOL0     H83592  10.355  12.055   7.138  1.3011 -0.1910 -0.9983
  606MOL0     H83593  10.388  12.058   6.969 -0.5660  1.6036 -0.1641
  606MOL0     H83594  10.206  11.852   7.112 -0.7649 -0.5805  0.6348
  606MOL0     H83595  10.177  11.987   7.004 -2.5013 -2.4475 -1.5673
  606MOL0     H83596  10.337  11.728   6.941 -0.1662 -1.0740 -0.2156
  606MOL0     H83597  10.324  11.874   6.830 -1.1004  0.3428 -0.7878
  606MOL0     H83598  10.068  11.845   6.874  2.8836  3.5950  0.9675
  606MOL0     H83599  10.131  11.680   6.914  1.9229  0.0857  0.3899
  606MOL0     H83600  10.149  11.832   6.648 -3.4215  0.9013  2.1940
  606MOL0     H83601  10.254  11.695   6.681  0.0609 -0.4646 -1.9979
  606MOL0     H83602   9.950  11.694   6.707  0.0546  1.2473  2.1857
  606MOL0     H83603  10.072  11.559   6.721  1.7728  0.6520 -2.5199
  606MOL0     H83604   9.947  11.519   6.528 -0.8109  0.1077 -1.5631
  606MOL0     H83605  10.104  11.589   6.465  1.2884  3.3048  0.0977
  606MOL0     H83606   9.903  11.803   6.508  0.0565  1.9885 -0.9250
  606MOL0     H83607   9.878  11.698   6.370  2.4864 -1.3830 -3.1717
  606MOL0     H83608  10.438  12.031   7.318 -1.4599  0.1436 -1.1392
  606MOL0     H83609  10.532  11.959   7.523  1.6362 -0.7721  1.0008
  606MOL0     H83610  10.987  11.783   7.641  1.7886  1.6534  1.1033
  606MOL0     H83611  11.119  11.653   7.818 -2.0437 -3.8801 -1.7031
  606MOL0     H83612  10.042  11.191   7.671 -1.6513 -2.0157 -2.0335
  606MOL0     H83613   9.964  11.147   7.895 -2.0867 -1.8012  0.3016
  606MOL0     H83614   9.965  11.010   8.285 -2.1261 -0.2798  2.0407
  606MOL0     H83615   9.981  10.956   8.493 -1.0943 -0.7091 -0.2666
  606MOL0     H83616  10.009  10.515   8.620  0.4889  0.4184  1.0599
  606MOL0     H83617   9.993  10.596   8.777  4.8053  0.9677 -2.5981
  606MOL0     H83618   9.759  10.565   8.604  1.5425  0.3578  0.4092
  606MOL0     H83619   9.766  10.579   8.789  0.0894 -1.7640  2.1162
  606MOL0     H83620   9.867  10.358   8.795  2.3110 -1.6969 -1.8939
  606MOL0     H83621   9.700  10.350   8.735  1.4077  1.2364  5.5026
  606MOL0     H83622   9.854  10.189   8.622  1.0710 -0.9398  0.1824
  606MOL0     H83623   9.950  10.325   8.567  1.1108 -1.8829  1.0476
  606MOL0     H83624   9.682  10.313   8.263  0.6460 -3.0683 -1.0224
  606MOL0     H83625   9.873  10.540   8.430 -1.0710 -0.1037 -0.1825
  606MOL0     H83626   9.790  10.584   8.094 -2.1043  1.9774  3.4864
  606MOL0     H83627   9.968  10.574   8.063  1.6797  0.9339  1.4367
  606MOL0     H83628   9.892  10.473   8.190 -2.4672  0.9863  1.5428
  607MOL0     O83629   8.328   0.430   3.872 -0.8375 -0.2138  0.5129
  607MOL0     C83630   8.313   0.510   3.966  0.1115  0.4132 -1.2960
  607MOL0     O83631   8.413   0.532   4.063 -0.4201 -0.4080 -0.2408
  607MOL0     C83632   8.522   0.444   4.069 -0.1946 -0.3513 -0.1307
  607MOL0     C83633   8.651   0.493   4.064 -0.5541  0.5515  0.2890
  607MOL0     C83634   8.757   0.398   4.086  0.2765 -0.4300 -0.8914
  607MOL0     C83635   8.733   0.261   4.112 -0.2580  0.2250 -1.2245
  607MOL0     O83636   8.844   0.188   4.140 -0.2297  0.4432  0.1899
  607MOL0     C83637   8.845   0.039   4.140 -0.4632 -0.8321 -0.7218
  607MOL0     C83638   8.983  -0.024   4.162  0.1699 -0.4010  0.0254
  607MOL0     C83639   9.104   0.055   4.089  0.0653  0.0537 -1.1373
  607MOL0     C83640   9.203  -0.053   4.046  0.6412 -0.3715 -0.8551
  607MOL0     C83641   9.353  -0.010   4.057 -0.3164 -0.4317 -0.8728
  607MOL0     C83642   9.436  -0.111   3.980  0.3781 -0.2166 -0.5472
  607MOL0     C83643   9.589  -0.071   3.982  0.5202  0.7409 -0.1240
  607MOL0     C83644   9.646  -0.064   4.122 -0.0059 -0.1366 -0.5827
  607MOL0     N83645   9.793  -0.090   4.118 -0.1380 -0.1211  0.2218
  607MOL0     C83646   9.838  -0.218   4.122 -0.0871 -0.2753 -0.4282
  607MOL0     C83647   9.952  -0.212   4.054 -0.0002  0.3108 -0.2473
  607MOL0     C83648  10.034  -0.328   4.028  0.1291 -0.4948  0.9082
  607MOL0     C83649   9.959  -0.455   3.983 -0.0602 -0.4146 -0.7443
  607MOL0     C83650   9.905  -0.449   3.835  0.2346  0.3822 -0.0878
  607MOL0     C83651   9.810  -0.561   3.813 -0.3204  0.8666 -0.8310
  607MOL0     O83652   9.759  -0.560   3.684  0.4288 -0.3407 -0.3187
  607MOL0     C83653   9.778  -0.670   3.603  0.2368 -1.4489 -0.4240
  607MOL0     C83654   9.662  -0.744   3.573  0.0940  0.6825  0.2116
  607MOL0     C83655   9.678  -0.878   3.521  0.2112 -1.5094 -0.6902
  607MOL0     C83656   9.553  -0.951   3.488 -0.3072  0.1222  0.2597
  607MOL0     C83657   9.807  -0.925   3.485 -0.2721  0.6074 -0.1401
  607MOL0     C83658   9.829  -1.062   3.446 -0.8464 -0.0053  0.6440
  607MOL0     O83659   9.779  -1.158   3.533  0.5168 -0.6287  0.6750
  607MOL0     C83660   9.794  -1.287   3.508  0.4237 -0.3187  0.9343
  607MOL0     C83661   9.681  -1.368   3.515  0.4718 -0.6527  0.3462
  607MOL0     C83662   9.691  -1.510   3.503 -0.7909  0.0997  0.2144
  607MOL0     C83663   9.814  -1.575   3.478  0.8070  0.7997  1.2281
  607MOL0     O83664   9.806  -1.709   3.465  0.2040  0.4893  0.1519
  607MOL0     C83665   9.885  -1.782   3.372 -1.1423 -0.2750 -0.0320
  607MOL0     C83666   9.906  -1.920   3.430  0.5311 -0.4065 -0.1732
  607MOL0     C83667   9.965  -2.018   3.333 -0.4364  1.1658  0.7088
  607MOL0     C83668   9.873  -2.058   3.215 -0.2106 -0.7643  0.1350
  607MOL0     C83669   9.920  -2.194   3.156 -1.0916 -0.6438  0.0585
  607MOL0     C83670   9.814  -2.237   3.048 -0.2194  0.2366 -0.9353
  607MOL0     C83671   9.868  -2.361   2.980 -0.1695 -0.5986  0.4693
  607MOL0     C83672   9.768  -2.419   2.894 -0.4674  0.1297 -0.2284
  607MOL0    Cl83673   9.649  -2.522   3.005 -0.0657  0.2884  0.4578
  607MOL0     C83674   9.925  -1.494   3.469 -0.6424 -0.5036 -0.5004
  607MOL0     C83675   9.912  -1.353   3.492 -0.9908  0.6762 -0.1333
  607MOL0     O83676   9.895  -1.092   3.344  0.4589  0.2840 -0.4820
  607MOL0     C83677   9.915  -0.841   3.498 -0.7267  0.2055 -0.6433
  607MOL0     C83678   9.905  -0.711   3.557  1.1529  0.0811  0.2701
  607MOL0     N83679   9.981  -0.080   4.018 -0.0640 -0.1297  0.9911
  607MOL0     N83680   9.885  -0.007   4.067 -0.7567  0.3394 -0.0980
  607MOL0     C83681   8.599   0.222   4.116 -0.6615  0.3509  0.0144
  607MOL0     C83682   8.497   0.315   4.110 -0.1448 -0.9829  0.2891
  607MOL0     C83683   8.175   0.559   4.000  0.9524 -0.5254 -0.0280
  607MOL0     C83684   8.138   0.559   4.136  0.9853  0.2966 -0.0361
  607MOL0     C83685   8.016   0.613   4.177 -0.2806 -0.3017  0.6704
  607MOL0     C83686   7.928   0.672   4.080  0.4076  0.4421  0.2424
  607MOL0     O83687   7.811   0.726   4.132  0.0949  0.1778  0.2658
  607MOL0     C83688   7.692   0.768   4.050 -0.5015  0.4310 -1.0148
  607MOL0     C83689   7.617   0.642   4.003 -0.3647 -0.0572  0.2718
  607MOL0     C83690   7.471   0.665   3.949  0.1337  0.1327 -0.3545
  607MOL0     C83691   7.423   0.579   3.827  0.2918  0.1861  1.5427
  607MOL0     C83692   7.277   0.597   3.795 -0.1712  0.6164  0.2581
  607MOL0     C83693   7.158   0.606   3.769  0.1577  0.2637  1.6156
  607MOL0     C83694   7.959   0.669   3.944 -0.1640  0.1360  0.5073
  607MOL0     C83695   8.088   0.618   3.901 -0.1487  0.4488 -0.7773
  607MOL0     C83696   8.128   0.645   3.755  0.1261  0.1913  0.8777
  607MOL0     H83697   8.662   0.596   4.032 -0.5464  0.9655  1.5807
  607MOL0     H83698   8.863   0.424   4.088 -0.2254  2.1312 -2.7128
  607MOL0     H83699   8.782   0.009   4.055 -0.1693 -2.5480 -0.3528
  607MOL0     H83700   8.797   0.003   4.231  2.1921  2.2335  2.1340
  607MOL0     H83701   9.013  -0.030   4.268 -0.2327  1.9439  0.3375
  607MOL0     H83702   8.954  -0.122   4.123 -3.6076  0.0324  1.3478
  607MOL0     H83703   9.069   0.119   4.008 -2.7491 -2.8670 -2.4290
  607MOL0     H83704   9.154   0.120   4.162 -1.5961 -1.4392  1.4786
  607MOL0     H83705   9.189  -0.145   4.104  0.4546  1.4752  2.2579
  607MOL0     H83706   9.182  -0.065   3.939 -0.5963  0.3459 -0.7099
  607MOL0     H83707   9.385   0.007   4.160  2.2358 -3.0023 -1.1262
  607MOL0     H83708   9.362   0.089   4.012  1.1974  1.3060  2.8353
  607MOL0     H83709   9.419  -0.215   4.011 -3.0512  0.5093  0.4009
  607MOL0     H83710   9.405  -0.103   3.876  0.5073  1.5246 -0.4784
  607MOL0     H83711   9.611   0.026   3.935  2.2365 -0.0153 -0.9497
  607MOL0     H83712   9.628  -0.148   3.914 -1.5480  0.0553 -0.6136
  607MOL0     H83713   9.623   0.038   4.155 -1.5526 -0.6463 -0.0156
  607MOL0     H83714   9.606  -0.129   4.200 -0.3940  1.7455  0.8669
  607MOL0     H83715   9.786  -0.301   4.170  0.0744  0.5549  1.2524
  607MOL0     H83716  10.073  -0.350   4.128 -2.9560 -3.8554  1.5952
  607MOL0     H83717  10.124  -0.311   3.969  0.2885 -0.5875  1.1215
  607MOL0     H83718  10.029  -0.539   3.991 -0.7823 -1.1791 -2.0265
  607MOL0     H83719   9.876  -0.482   4.050 -0.2926 -0.1399 -0.9205
  607MOL0     H83720   9.851  -0.356   3.817 -3.5439 -2.0990 -3.0011
  607MOL0     H83721   9.996  -0.447   3.774  1.5863  1.4442  1.8256
  607MOL0     H83722   9.850  -0.662   3.830  0.4437  0.7259 -3.0466
  607MOL0     H83723   9.732  -0.561   3.890  3.0536 -1.5081  2.9653
  607MOL0     H83724   9.568  -0.699   3.602 -0.2395 -1.6023  3.3058
  607MOL0     H83725   9.553  -1.000   3.390 -1.3069  0.0547  0.2820
  607MOL0     H83726   9.473  -0.876   3.482  1.5023  2.1097 -0.4413
  607MOL0     H83727   9.524  -1.033   3.554 -1.2341  0.0565 -0.2076
  607MOL0     H83728   9.583  -1.334   3.549  1.1921  2.5877 -0.5084
  607MOL0     H83729   9.598  -1.566   3.507 -0.9652  0.4463  3.9270
  607MOL0     H83730   9.838  -1.790   3.274 -1.3205  3.6348 -0.4229
  607MOL0     H83731   9.981  -1.731   3.355 -0.0015 -1.9111  1.1946
  607MOL0     H83732   9.963  -1.926   3.523  0.4078  0.9638  0.0118
  607MOL0     H83733   9.809  -1.956   3.463 -1.2253  3.8829 -0.0299
  607MOL0     H83734   9.982  -2.111   3.389 -1.9464  0.0107 -0.6281
  607MOL0     H83735  10.059  -1.975   3.301 -0.8392  2.1568  0.8361
  607MOL0     H83736   9.887  -1.984   3.135  1.4909  0.0892  1.1626
  607MOL0     H83737   9.770  -2.056   3.250 -1.0137 -1.6953 -2.0138
  607MOL0     H83738  10.013  -2.183   3.100 -0.8025 -1.0704  0.4469
  607MOL0     H83739   9.935  -2.265   3.238 -2.2068  1.3950  2.1381
  607MOL0     H83740   9.782  -2.168   2.969 -2.4517 -1.2982 -1.4738
  607MOL0     H83741   9.718  -2.256   3.095  0.8796  1.1393  1.8889
  607MOL0     H83742   9.913  -2.431   3.051  0.9005 -0.6063 -0.1906
  607MOL0     H83743   9.935  -2.325   2.901 -1.8797  1.1898 -0.2559
  607MOL0     H83744   9.817  -2.485   2.822 -0.3904  1.3301 -1.3179
  607MOL0     H83745   9.719  -2.341   2.835 -1.4635 -0.4411 -0.1849
  607MOL0     H83746  10.021  -1.545   3.460 -1.3090 -1.7021 -1.0962
  607MOL0     H83747  10.009  -1.304   3.496  0.8839 -2.7009 -0.2017
  607MOL0     H83748  10.012  -0.875   3.463  0.8081  1.1355  2.3732
  607MOL0     H83749   9.996  -0.655   3.576 -0.0328  2.7192 -1.1977
  607MOL0     H83750   8.582   0.119   4.145  2.1442  0.2554  1.7606
  607MOL0     H83751   8.395   0.280   4.100 -0.7020 -0.1203  2.5987
  607MOL0     H83752   8.202   0.501   4.201 -0.5075 -0.8437  0.4638
  607MOL0     H83753   7.997   0.611   4.284 -1.5782  0.9703  0.4879
  607MOL0     H83754   7.621   0.842   4.089  1.0738  1.7815 -0.6478
  607MOL0     H83755   7.736   0.814   3.962 -1.0617  0.3663 -1.3388
  607MOL0     H83756   7.614   0.573   4.088  1.1562 -0.9868 -0.3850
  607MOL0     H83757   7.679   0.592   3.928 -2.9330 -3.2925  0.0800
  607MOL0     H83758   7.400   0.648   4.030  0.5579  1.3258  0.2810
  607MOL0     H83759   7.456   0.768   3.913  1.4500  0.7391  0.7668
  607MOL0     H83760   7.427   0.472   3.849 -0.3915 -0.3623 -0.7120
  607MOL0     H83761   7.473   0.592   3.730 -0.6478  0.2049  1.0478
  607MOL0     H83762   7.053   0.612   3.747  0.5590  1.2355 -0.3050
  607MOL0     H83763   7.896   0.706   3.864 -0.1855 -2.1534 -0.6071
  607MOL0     H83764   8.062   0.705   3.692  4.1164  0.1102 -4.0539
  607MOL0     H83765   8.223   0.699   3.755  0.5912 -0.5829  2.2496
  607MOL0     H83766   8.130   0.548   3.703 -0.5245 -0.1346  1.4450
  608MOL0     O83767  10.224   0.598   7.549  0.5349  0.3715 -0.6406
  608MOL0     C83768  10.322   0.640   7.596  0.1042 -0.1638 -0.0663
  608MOL0     O83769  10.427   0.695   7.525 -0.5647 -0.0476  0.3307
  608MOL0     C83770  10.409   0.704   7.392 -0.8211 -0.3688  0.8762
  608MOL0     C83771  10.516   0.662   7.312  0.6027  0.3161  0.4188
  608MOL0     C83772  10.513   0.674   7.171 -0.6582 -1.4864  0.3972
  608MOL0     C83773  10.403   0.743   7.106 -0.3494 -0.7225  0.5266
  608MOL0     O83774  10.372   0.736   6.969 -0.9726 -0.4802 -0.2741
  608MOL0     C83775  10.478   0.721   6.876 -0.6064  0.0871 -0.0750
  608MOL0     C83776  10.415   0.719   6.737 -0.4173 -0.2644  0.3815
  608MOL0     C83777  10.351   0.850   6.692  0.0053  0.9873 -0.1349
  608MOL0     C83778  10.442   0.973   6.681 -0.2293  0.2621  0.1983
  608MOL0     C83779  10.385   1.104   6.626  0.3776  1.1734 -0.6815
  608MOL0     C83780  10.280   1.163   6.718 -0.1877 -0.8730 -0.1592
  608MOL0     C83781  10.212   1.295   6.669 -0.0067  0.2897  0.2726
  608MOL0     C83782  10.291   1.425   6.701 -0.3691  0.5342 -1.0195
  608MOL0     N83783  10.258   1.476   6.832 -0.1317 -0.1129 -0.4771
  608MOL0     C83784  10.136   1.486   6.893 -0.0438  0.0341  0.2382
  608MOL0     C83785  10.149   1.579   6.990 -1.1017 -0.6241  0.8666
  608MOL0     C83786  10.053   1.606   7.095  0.4432 -0.3432 -1.0024
  608MOL0     C83787  10.054   1.498   7.215 -0.5848 -0.3616  0.2499
  608MOL0     C83788   9.991   1.560   7.335 -0.0691 -0.7056  0.2302
  608MOL0     C83789   9.853   1.541   7.356  1.5448  0.3038 -0.0873
  608MOL0     O83790   9.768   1.632   7.272  0.1143  0.4031  0.0992
  608MOL0     C83791   9.721   1.731   7.358 -0.2026  0.0158  0.2216
  608MOL0     C83792   9.619   1.712   7.452 -1.0948 -0.4739 -0.9805
  608MOL0     C83793   9.591   1.825   7.534 -1.0302  0.3109  0.3442
  608MOL0     C83794   9.475   1.806   7.631 -0.5705 -0.9493  0.8627
  608MOL0     C83795   9.655   1.951   7.512 -0.4495  0.4830 -0.3075
  608MOL0     C83796   9.618   2.071   7.595 -1.2758  0.3180  0.3952
  608MOL0     O83797   9.731   2.126   7.650  0.4509  0.0165  0.3635
  608MOL0     C83798   9.730   2.252   7.711 -0.4185 -0.5981  0.4900
  608MOL0     C83799   9.849   2.281   7.774 -0.3033  1.1256 -0.9373
  608MOL0     C83800   9.868   2.401   7.851 -0.0294  0.9224  0.3153
  608MOL0     C83801   9.764   2.498   7.848 -1.0863  0.8405 -0.9490
  608MOL0     O83802   9.765   2.617   7.923 -1.1975 -0.2259  0.2642
  608MOL0     C83803   9.842   2.615   8.049 -0.5419  0.2290  0.4752
  608MOL0     C83804   9.795   2.724   8.140  0.1743  0.2740 -0.2484
  608MOL0     C83805   9.653   2.707   8.184  0.7328  0.3097  0.8882
  608MOL0     C83806   9.632   2.584   8.273 -0.2257  0.3929  0.0024
  608MOL0     C83807   9.675   2.598   8.417 -0.5275 -0.1007  0.2986
  608MOL0     C83808   9.631   2.491   8.506  0.7155 -0.3017  0.0898
  608MOL0     C83809   9.675   2.515   8.655  0.3807  0.5068 -0.4036
  608MOL0     C83810   9.615   2.386   8.722 -0.6939  0.1430 -0.2654
  608MOL0    Cl83811   9.442   2.376   8.730 -0.1098 -0.1076  0.5405
  608MOL0     C83812   9.649   2.476   7.776 -0.6711 -0.0638  0.6140
  608MOL0     C83813   9.630   2.350   7.705 -0.2621 -0.3474  0.6899
  608MOL0     O83814   9.504   2.097   7.616  0.2397  0.7662 -0.2278
  608MOL0     C83815   9.756   1.959   7.419 -0.1095 -0.4970  0.5964
  608MOL0     C83816   9.787   1.850   7.332 -0.7106 -1.2174 -0.5717
  608MOL0     N83817  10.279   1.622   6.994  1.4085  0.7459 -0.4034
  608MOL0     N83818  10.341   1.559   6.903 -0.4054  0.9838 -0.4434
  608MOL0     C83819  10.291   0.788   7.183  0.2513 -0.1743 -0.0565
  608MOL0     C83820  10.302   0.772   7.328 -0.3762 -0.4454 -0.8797
  608MOL0     C83821  10.342   0.622   7.734 -0.4188 -0.3432 -0.3181
  608MOL0     C83822  10.388   0.731   7.805  0.2475  0.1745 -0.0714
  608MOL0     C83823  10.407   0.724   7.947 -0.2780 -0.3079 -0.7645
  608MOL0     C83824  10.400   0.602   8.015 -0.2023  0.8431  0.3303
  608MOL0     O83825  10.427   0.581   8.150  0.6698  1.0317  0.3901
  608MOL0     C83826  10.568   0.608   8.175  0.4296  0.2157  0.5538
  608MOL0     C83827  10.624   0.480   8.253 -0.7331 -0.2274 -0.1141
  608MOL0     C83828  10.725   0.509   8.360 -0.5475  0.1488  0.0037
  608MOL0     C83829  10.684   0.610   8.469 -0.5682 -0.4838 -0.2433
  608MOL0     C83830  10.773   0.587   8.583  0.1918 -0.4419  0.7885
  608MOL0     C83831  10.833   0.553   8.675 -1.0553  0.8744  1.0225
  608MOL0     C83832  10.362   0.489   7.940 -0.5272  0.0802 -0.5946
  608MOL0     C83833  10.338   0.501   7.807  0.5567 -0.5907 -0.3280
  608MOL0     C83834  10.301   0.381   7.725 -0.3117  0.4061 -0.1186
  608MOL0     H83835  10.612   0.625   7.347 -0.7055 -2.1660  1.6500
  608MOL0     H83836  10.597   0.634   7.115  0.1112 -1.8256  1.7456
  608MOL0     H83837  10.537   0.632   6.901 -1.0282  0.1289  1.1141
  608MOL0     H83838  10.551   0.802   6.882 -0.2475 -0.2023 -0.4266
  608MOL0     H83839  10.489   0.683   6.664 -0.4905  1.2298 -0.4783
  608MOL0     H83840  10.337   0.643   6.740 -0.2455 -0.4328  0.7132
  608MOL0     H83841  10.299   0.830   6.599 -1.8800 -0.9311  1.2428
  608MOL0     H83842  10.270   0.861   6.765  0.0710 -2.8870  0.7294
  608MOL0     H83843  10.507   0.985   6.768  2.1129 -2.7677 -0.9668
  608MOL0     H83844  10.513   0.952   6.601  0.2419  1.1493  0.3690
  608MOL0     H83845  10.343   1.084   6.527 -0.6311 -3.4992  0.4722
  608MOL0     H83846  10.462   1.181   6.618 -0.9335  2.4162 -2.3466
  608MOL0     H83847  10.203   1.086   6.714 -0.2999 -0.7549 -0.2641
  608MOL0     H83848  10.298   1.163   6.826 -0.0490  0.9929 -0.1523
  608MOL0     H83849  10.113   1.289   6.715  0.3877 -3.1880  0.9853
  608MOL0     H83850  10.207   1.273   6.561  2.0388 -1.3268  0.4279
  608MOL0     H83851  10.398   1.402   6.696 -0.2902  0.3491  0.8328
  608MOL0     H83852  10.255   1.503   6.632 -0.6619  1.6701  0.3766
  608MOL0     H83853  10.039   1.446   6.864 -0.0162 -0.7028  1.1231
  608MOL0     H83854   9.947   1.611   7.069  0.3413 -0.6277 -0.6517
  608MOL0     H83855  10.079   1.702   7.140  0.1234  0.2772 -2.1077
  608MOL0     H83856   9.998   1.407   7.190 -1.1831 -0.8438  2.9468
  608MOL0     H83857  10.159   1.473   7.231  0.3033  1.3509 -2.3604
  608MOL0     H83858  10.046   1.503   7.411 -0.8341 -1.2485  0.3830
  608MOL0     H83859  10.010   1.665   7.358  0.4938 -1.0776  1.5756
  608MOL0     H83860   9.819   1.439   7.335  0.9025  0.7765 -1.4329
  608MOL0     H83861   9.833   1.561   7.462 -0.6712  0.5557 -0.5095
  608MOL0     H83862   9.564   1.619   7.463 -0.7557 -0.5596  0.0753
  608MOL0     H83863   9.382   1.857   7.606  0.3195 -0.0780 -0.8421
  608MOL0     H83864   9.522   1.824   7.729  3.4160 -4.8216 -0.0165
  608MOL0     H83865   9.456   1.698   7.630  2.4023 -1.5553  0.0894
  608MOL0     H83866   9.932   2.214   7.757 -0.8093  0.3762 -0.4663
  608MOL0     H83867   9.956   2.427   7.909  1.1904 -6.5844  2.9387
  608MOL0     H83868   9.836   2.519   8.101 -2.2641  0.6905  1.1943
  608MOL0     H83869   9.947   2.634   8.026 -1.1433  1.4051 -1.5050
  608MOL0     H83870   9.867   2.743   8.220 -0.7437 -1.9442  1.2011
  608MOL0     H83871   9.801   2.814   8.078 -2.1852  1.0063  0.4898
  608MOL0     H83872   9.579   2.712   8.103 -2.2929  3.7879  3.4684
  608MOL0     H83873   9.613   2.791   8.243  0.2219  0.6415  0.0835
  608MOL0     H83874   9.676   2.496   8.227 -0.5597  0.8274 -1.1723
  608MOL0     H83875   9.524   2.563   8.280  0.3417 -2.3649  2.7315
  608MOL0     H83876   9.782   2.621   8.421 -0.8068  1.1103  1.9155
  608MOL0     H83877   9.627   2.685   8.462  1.9026  0.5454  1.8652
  608MOL0     H83878   9.664   2.394   8.469  0.4141 -0.1263 -0.6375
  608MOL0     H83879   9.522   2.486   8.510  0.6088  1.7287  0.5307
  608MOL0     H83880   9.622   2.598   8.702 -1.4620 -1.2888  0.8636
  608MOL0     H83881   9.780   2.537   8.678 -0.0171  3.0646 -0.7459
  608MOL0     H83882   9.655   2.374   8.823  0.6905 -1.9439 -0.9975
  608MOL0     H83883   9.659   2.300   8.671  2.5533  2.0509 -1.0163
  608MOL0     H83884   9.587   2.565   7.767  0.0169  0.1857 -2.8169
  608MOL0     H83885   9.541   2.335   7.644  0.8171  2.3037 -1.7612
  608MOL0     H83886   9.817   2.049   7.420  0.2059 -0.6669 -1.2305
  608MOL0     H83887   9.879   1.861   7.277 -0.6736 -0.0557 -0.3026
  608MOL0     H83888  10.201   0.818   7.130 -1.5621 -0.5282  2.6318
  608MOL0     H83889  10.211   0.813   7.372 -0.3092 -0.6753 -0.5250
  608MOL0     H83890  10.410   0.816   7.741  1.4192 -1.9620 -2.7127
  608MOL0     H83891  10.444   0.807   8.007 -1.9047  0.5982 -0.9708
  608MOL0     H83892  10.626   0.638   8.087  0.2417 -0.1756  0.2948
  608MOL0     H83893  10.594   0.690   8.242  1.1697  0.7124 -0.3228
  608MOL0     H83894  10.678   0.413   8.185  1.2880  0.0444  1.1191
  608MOL0     H83895  10.541   0.429   8.301  1.2770 -4.3625 -0.5605
  608MOL0     H83896  10.738   0.413   8.411  1.2333  1.7981  2.8708
  608MOL0     H83897  10.816   0.537   8.306 -1.6964  1.4312 -1.3778
  608MOL0     H83898  10.587   0.579   8.509 -0.3305 -3.9351 -1.9329
  608MOL0     H83899  10.687   0.714   8.435  0.8499 -0.1100  0.9184
  608MOL0     H83900  10.865   0.511   8.768 -0.5465  0.4129  0.6466
  608MOL0     H83901  10.348   0.392   7.986 -2.0483  0.2356 -0.6944
  608MOL0     H83902  10.193   0.368   7.725 -0.3392 -0.2529  3.4332
  608MOL0     H83903  10.338   0.386   7.622  2.3240  0.5009  0.7444
  608MOL0     H83904  10.345   0.286   7.758  2.2774  0.8064 -2.0398
  609MOL0     O83905   2.296  10.894   6.573  0.0400 -0.3244  0.2189
  609MOL0     C83906   2.232  10.875   6.672  0.1417  0.1573 -0.5971
  609MOL0     O83907   2.206  10.975   6.770 -0.2348 -0.0435  0.2371
  609MOL0     C83908   2.305  11.058   6.810  0.9618 -0.9447  0.4444
  609MOL0     C83909   2.371  11.041   6.931 -0.1096 -0.0137 -0.7146
  609MOL0     C83910   2.475  11.122   6.974 -0.0814  0.1202  0.0470
  609MOL0     C83911   2.514  11.226   6.883 -0.1797  0.6575 -1.0910
  609MOL0     O83912   2.629  11.307   6.886  0.1893  0.4906 -0.6094
  609MOL0     C83913   2.729  11.254   6.802  0.0777 -0.5156  0.7288
  609MOL0     C83914   2.873  11.295   6.850  0.6035  0.3339  0.5446
  609MOL0     C83915   2.927  11.434   6.809  0.1124 -0.7469 -0.4368
  609MOL0     C83916   2.812  11.530   6.830 -0.0975 -0.5528 -0.2269
  609MOL0     C83917   2.858  11.671   6.806  0.2538 -0.0321  0.2831
  609MOL0     C83918   2.744  11.784   6.841 -1.0880 -0.0165  0.6614
  609MOL0     C83919   2.665  11.763   6.963 -0.2680  0.6703 -0.3474
  609MOL0     C83920   2.563  11.881   6.969 -0.5705  0.1488 -0.1794
  609MOL0     N83921   2.491  11.880   7.095  0.3411 -0.5701  0.1689
  609MOL0     C83922   2.372  11.822   7.119  0.5052  0.6587  0.2100
  609MOL0     C83923   2.355  11.848   7.252 -0.1513 -0.0688 -0.0168
  609MOL0     C83924   2.238  11.797   7.335 -0.2629  0.0815 -0.6689
  609MOL0     C83925   2.258  11.810   7.479 -0.2634 -0.3466 -0.0426
  609MOL0     C83926   2.330  11.691   7.541  0.0605  0.4763  0.8818
  609MOL0     C83927   2.440  11.730   7.650 -0.7958 -0.0257  0.5773
  609MOL0     O83928   2.502  11.610   7.695  0.4881 -0.1014 -0.5896
  609MOL0     C83929   2.608  11.640   7.780  0.3428 -0.1291  0.6864
  609MOL0     C83930   2.712  11.548   7.782  0.8720  0.3564  0.3074
  609MOL0     C83931   2.822  11.552   7.872  1.0653 -0.1198  1.2473
  609MOL0     C83932   2.909  11.423   7.877 -0.2034  0.7484  0.1660
  609MOL0     C83933   2.830  11.663   7.962 -0.8933 -0.1298 -0.7703
  609MOL0     C83934   2.939  11.673   8.067  0.2752  0.4849  0.6324
  609MOL0     O83935   2.909  11.764   8.161  0.7744  0.2495  0.1799
  609MOL0     C83936   2.964  11.759   8.283 -0.3089  0.8850  0.7441
  609MOL0     C83937   3.091  11.816   8.309  0.3247 -0.6445  0.2663
  609MOL0     C83938   3.155  11.815   8.430  0.4119 -0.0387 -0.2689
  609MOL0     C83939   3.092  11.750   8.529 -0.6467 -0.0885 -0.1983
  609MOL0     O83940   3.162  11.767   8.648 -0.4087  0.6738 -0.1440
  609MOL0     C83941   3.073  11.792   8.759  0.2342  0.9735  0.0575
  609MOL0     C83942   3.013  11.932   8.771  0.5307 -0.8172 -1.1517
  609MOL0     C83943   3.115  12.035   8.730  0.6985  0.2996 -0.5261
  609MOL0     C83944   3.130  12.142   8.830 -0.2182 -0.0695 -0.7143
  609MOL0     C83945   3.270  12.223   8.814 -0.0710 -0.1242 -0.7356
  609MOL0     C83946   3.262  12.343   8.906 -0.8888 -0.2447  0.4485
  609MOL0     C83947   3.180  12.458   8.843  0.5102  0.8071 -0.0564
  609MOL0     C83948   3.154  12.581   8.938 -0.5184  0.1268 -0.4829
  609MOL0    Cl83949   2.985  12.661   8.916 -0.2059 -0.7108 -0.0755
  609MOL0     C83950   2.975  11.678   8.506 -0.9056  0.3004  0.0297
  609MOL0     C83951   2.907  11.683   8.383 -0.2624 -0.7613  1.3676
  609MOL0     O83952   3.050  11.619   8.053 -0.0328 -0.2936 -0.3898
  609MOL0     C83953   2.728  11.755   7.956 -0.3626  0.8207  0.8093
  609MOL0     C83954   2.626  11.750   7.864  0.1772  0.2946 -0.0468
  609MOL0     N83955   2.469  11.904   7.302  0.1961  0.7704  0.2530
  609MOL0     N83956   2.543  11.938   7.201  0.0308  0.0053 -0.8911
  609MOL0     C83957   2.440  11.250   6.772 -0.4039  0.7800  0.2040
  609MOL0     C83958   2.339  11.170   6.729  0.0090  0.1117 -0.2109
  609MOL0     C83959   2.184  10.743   6.692 -0.5278 -0.8544  0.6882
  609MOL0     C83960   2.059  10.745   6.752 -0.0643  0.8249  0.2096
  609MOL0     C83961   1.997  10.623   6.778 -0.7283 -0.3573 -0.4949
  609MOL0     C83962   2.054  10.503   6.742  0.3584  0.7917  0.3344
  609MOL0     O83963   1.974  10.393   6.764 -0.8197  0.0631  0.0015
  609MOL0     C83964   1.964  10.278   6.675 -0.1206 -0.4146 -0.0535
  609MOL0     C83965   1.883  10.168   6.755 -0.7740  0.9879 -0.2227
  609MOL0     C83966   1.740  10.208   6.790  0.5386 -0.8373  0.6383
  609MOL0     C83967   1.653  10.107   6.862  1.1777  1.2139 -0.1729
  609MOL0     C83968   1.537  10.173   6.912  0.1282 -0.8653 -1.0674
  609MOL0     C83969   1.422  10.210   6.948 -0.7224  0.7875 -0.5579
  609MOL0     C83970   2.185  10.494   6.694 -0.0678 -0.0919 -0.0938
  609MOL0     C83971   2.251  10.618   6.671 -0.5401 -0.0354  0.6009
  609MOL0     C83972   2.399  10.618   6.635  0.1189  0.3389 -0.3526
  609MOL0     H83973   2.348  10.960   6.999 -1.6345 -0.4895 -1.7347
  609MOL0     H83974   2.520  11.115   7.073 -1.7229  0.8886  0.8924
  609MOL0     H83975   2.710  11.291   6.701  2.6710  0.2109  0.4430
  609MOL0     H83976   2.738  11.145   6.808 -1.2483 -0.7758 -1.1417
  609MOL0     H83977   2.879  11.303   6.958  0.3978 -0.0916  0.5889
  609MOL0     H83978   2.942  11.217   6.815  1.0117  1.3585 -1.1004
  609MOL0     H83979   3.012  11.457   6.874  0.5857 -1.9283 -0.6080
  609MOL0     H83980   2.958  11.443   6.705 -0.1468 -1.3602 -0.5741
  609MOL0     H83981   2.731  11.500   6.763  0.4986  0.9020 -1.6715
  609MOL0     H83982   2.776  11.517   6.932 -0.5969 -1.2101 -0.4804
  609MOL0     H83983   2.886  11.687   6.702 -1.0574  2.8185  0.2584
  609MOL0     H83984   2.948  11.683   6.867  0.1335 -0.2745  0.5106
  609MOL0     H83985   2.802  11.876   6.854  1.3976 -1.3808 -0.1433
  609MOL0     H83986   2.668  11.793   6.763 -3.4191 -1.9148  2.5522
  609MOL0     H83987   2.720  11.772   7.057  1.5247  1.0180 -1.3990
  609MOL0     H83988   2.610  11.668   6.968 -1.0499  1.1654  1.8296
  609MOL0     H83989   2.619  11.976   6.967 -0.0544  0.0268  3.1240
  609MOL0     H83990   2.493  11.883   6.885 -1.3979  0.4521  0.5147
  609MOL0     H83991   2.328  11.762   7.040  3.3807 -0.7756 -0.4364
  609MOL0     H83992   2.209  11.693   7.319  0.3469  0.0568 -1.6546
  609MOL0     H83993   2.156  11.866   7.312  0.3961  0.9348 -0.5194
  609MOL0     H83994   2.303  11.908   7.498  2.6532 -1.2110 -1.8363
  609MOL0     H83995   2.163  11.815   7.533  0.6053 -0.6649  1.5940
  609MOL0     H83996   2.257  11.619   7.582  0.2463 -1.2233 -1.5730
  609MOL0     H83997   2.392  11.635   7.470  1.3287  0.9567  1.5812
  609MOL0     H83998   2.514  11.799   7.608 -1.1414 -1.1609 -2.0856
  609MOL0     H83999   2.394  11.786   7.732  0.3426 -0.0450  1.2501
  609MOL0     H84000   2.703  11.461   7.718 -0.7221 -0.5546  1.6793
  609MOL0     H84001   2.948  11.406   7.978  0.0902 -3.5978 -0.4935
  609MOL0     H84002   2.996  11.433   7.811 -2.2779 -2.0772 -3.3677
  609MOL0     H84003   2.852  11.335   7.846 -0.5932  0.8217  0.6727
  609MOL0     H84004   3.134  11.883   8.236 -0.3169 -0.4864  0.0287
  609MOL0     H84005   3.250  11.864   8.452  2.7722 -5.0111  2.3551
  609MOL0     H84006   2.998  11.713   8.768  0.6785  0.4665 -0.6341
  609MOL0     H84007   3.133  11.804   8.850 -1.0496  0.7085  0.9781
  609MOL0     H84008   2.929  11.934   8.700  0.8740  1.0487 -1.5464
  609MOL0     H84009   2.962  11.950   8.866 -0.8761  0.1712 -2.0375
  609MOL0     H84010   3.088  12.087   8.637  1.2685 -0.8745 -1.3668
  609MOL0     H84011   3.214  11.992   8.716  0.4219 -0.2131 -0.9508
  609MOL0     H84012   3.129  12.098   8.931  0.6921 -2.0689 -1.5128
  609MOL0     H84013   3.047  12.212   8.822 -1.1693 -0.9865  0.5754
  609MOL0     H84014   3.361  12.171   8.845  0.8961  0.4967 -2.3663
  609MOL0     H84015   3.287  12.230   8.706 -1.4937 -2.6560 -1.1988
  609MOL0     H84016   3.364  12.382   8.916 -1.3247  0.7773  0.9692
  609MOL0     H84017   3.228  12.325   9.008 -4.0103  4.1093  0.4431
  609MOL0     H84018   3.080  12.420   8.821 -0.0259  1.4959  1.1265
  609MOL0     H84019   3.235  12.492   8.755  3.4264  1.7992  1.9935
  609MOL0     H84020   3.232  12.654   8.916  1.4932 -0.9492  2.3657
  609MOL0     H84021   3.171  12.549   9.041  1.4912  1.4219 -0.3631
  609MOL0     H84022   2.935  11.618   8.587  0.3080  2.0145  1.9880
  609MOL0     H84023   2.817  11.623   8.373 -0.4988 -0.2462  0.2273
  609MOL0     H84024   2.725  11.830   8.035 -1.4490  2.3955 -0.6620
  609MOL0     H84025   2.555  11.832   7.869 -2.1693 -1.4768 -1.7267
  609MOL0     H84026   2.467  11.340   6.717  1.0754  1.7937  2.4168
  609MOL0     H84027   2.278  11.193   6.642  0.0515  0.3028 -0.1926
  609MOL0     H84028   2.002  10.837   6.758 -1.4966  0.7640 -5.9308
  609MOL0     H84029   1.897  10.622   6.821  0.5452  0.0066  2.7755
  609MOL0     H84030   1.900  10.301   6.589 -2.2162 -0.9101  1.3059
  609MOL0     H84031   2.058  10.246   6.628  1.4405 -1.0999  3.2182
  609MOL0     H84032   1.934  10.146   6.849 -2.3886 -3.1295 -0.1182
  609MOL0     H84033   1.879  10.075   6.699  0.1814  1.2124 -0.6812
  609MOL0     H84034   1.763  10.292   6.856  1.5908 -0.5308 -0.0971
  609MOL0     H84035   1.685  10.243   6.702  0.1952 -0.3002  1.0649
  609MOL0     H84036   1.706  10.051   6.940 -1.4196 -0.5744  0.4398
  609MOL0     H84037   1.625  10.037   6.783 -0.0352  0.1189  1.1643
  609MOL0     H84038   1.330  10.250   6.985 -0.0027  0.7652  1.3901
  609MOL0     H84039   2.224  10.395   6.673  1.4060  0.5873 -0.7031
  609MOL0     H84040   2.410  10.637   6.528 -1.8722 -1.2080 -0.8979
  609MOL0     H84041   2.454  10.695   6.690  2.1450 -0.1057 -1.6603
  609MOL0     H84042   2.453  10.526   6.660 -1.6948 -0.2344  1.7393
  610MOL0     O84043   1.693   2.716   4.358  0.5923  0.0929  0.0551
  610MOL0     C84044   1.677   2.684   4.241 -0.3014  0.9017 -0.2946
  610MOL0     O84045   1.767   2.625   4.159  0.6860  0.2862 -0.3245
  610MOL0     C84046   1.908   2.599   4.188 -0.1147 -0.7528 -0.2606
  610MOL0     C84047   1.968   2.604   4.318  1.0950  0.1830  0.7069
  610MOL0     C84048   2.102   2.598   4.330 -0.3454 -0.9969  0.7566
  610MOL0     C84049   2.186   2.565   4.219 -0.5223 -0.2092 -0.3754
  610MOL0     O84050   2.327   2.539   4.235  0.3426 -0.1757  0.3383
  610MOL0     C84051   2.364   2.415   4.171 -0.2817 -0.8111  0.1289
  610MOL0     C84052   2.511   2.381   4.172 -0.0380  0.2913  0.1911
  610MOL0     C84053   2.610   2.451   4.269  0.4967  0.7635 -0.3938
  610MOL0     C84054   2.751   2.386   4.255  0.3365 -0.2401 -0.8974
  610MOL0     C84055   2.852   2.436   4.354 -0.0388  0.5617  0.7691
  610MOL0     C84056   2.848   2.401   4.510  0.4025  0.3245 -0.4307
  610MOL0     C84057   2.802   2.259   4.545 -0.5962 -0.7642 -0.1814
  610MOL0     C84058   2.820   2.230   4.690 -0.9096  0.6211  0.8637
  610MOL0     N84059   2.786   2.092   4.718  0.2688  0.2381  0.6774
  610MOL0     C84060   2.656   2.036   4.717  0.0444 -0.3650  0.4855
  610MOL0     C84061   2.681   1.909   4.755 -0.3519 -0.6532  0.2187
  610MOL0     C84062   2.574   1.808   4.766 -0.9327  0.0671  0.6207
  610MOL0     C84063   2.505   1.810   4.903 -0.2226  0.3911  0.2953
  610MOL0     C84064   2.405   1.919   4.917 -0.9392 -0.7966 -0.0373
  610MOL0     C84065   2.334   1.899   5.041  0.5514  0.6774 -0.0960
  610MOL0     O84066   2.422   1.905   5.160 -0.2457 -0.0977  0.3438
  610MOL0     C84067   2.373   1.867   5.284  0.0756  0.1491  0.0103
  610MOL0     C84068   2.460   1.845   5.388 -0.0748  0.1434 -0.2568
  610MOL0     C84069   2.417   1.822   5.523  0.5500  0.7936  0.4015
  610MOL0     C84070   2.528   1.833   5.625 -0.6018 -0.1811  0.7470
  610MOL0     C84071   2.280   1.802   5.544  0.3884  0.0292  0.2514
  610MOL0     C84072   2.213   1.787   5.685 -0.7600 -0.3021  0.1012
  610MOL0     O84073   2.281   1.841   5.787 -0.0999 -0.0265  0.3911
  610MOL0     C84074   2.212   1.859   5.901  0.3587  0.0217 -0.3444
  610MOL0     C84075   2.217   1.776   6.004 -0.6336 -0.3122  0.4651
  610MOL0     C84076   2.160   1.796   6.132  0.9496  1.1786 -1.0562
  610MOL0     C84077   2.077   1.905   6.145 -0.1113 -0.0621  0.0653
  610MOL0     O84078   1.992   1.928   6.251 -0.4697  0.3547  0.4007
  610MOL0     C84079   2.017   1.863   6.376  0.6006 -0.4395  0.2064
  610MOL0     C84080   1.912   1.907   6.483 -0.3060  0.0656 -0.3469
  610MOL0     C84081   1.934   2.045   6.540  0.2721 -0.0986  0.2129
  610MOL0     C84082   2.081   2.104   6.508  0.4623 -0.4115 -0.1599
  610MOL0     C84083   2.095   2.240   6.583 -0.4051  0.0358  0.0884
  610MOL0     C84084   2.245   2.265   6.620  0.8758  0.1313  0.5913
  610MOL0     C84085   2.251   2.373   6.728  0.1723 -0.1823 -0.1739
  610MOL0     C84086   2.177   2.501   6.715  0.2235 -0.7588 -0.5407
  610MOL0    Cl84087   2.251   2.583   6.574  0.0801  0.6100 -0.4955
  610MOL0     C84088   2.059   1.991   6.031 -0.2748 -0.1743 -0.5170
  610MOL0     C84089   2.137   1.972   5.915 -0.9882  0.6683  0.6406
  610MOL0     O84090   2.099   1.746   5.687 -0.8283 -0.3064 -0.7764
  610MOL0     C84091   2.194   1.815   5.438  0.5411  0.0566 -0.5759
  610MOL0     C84092   2.236   1.859   5.315 -0.8701 -0.2766 -0.9105
  610MOL0     N84093   2.813   1.886   4.790  1.0928 -0.7775  1.1178
  610MOL0     N84094   2.873   1.995   4.761 -0.0796 -1.1481 -0.4317
  610MOL0     C84095   2.124   2.559   4.094  0.8815 -0.4522 -0.3180
  610MOL0     C84096   1.984   2.577   4.079 -0.0476 -1.2170  0.3684
  610MOL0     C84097   1.545   2.718   4.180  0.0529  0.0252  0.3286
  610MOL0     C84098   1.536   2.685   4.046 -0.4945 -0.6606  0.2446
  610MOL0     C84099   1.417   2.719   3.968 -0.1802 -0.4635  0.4703
  610MOL0     C84100   1.308   2.779   4.033 -0.6189  0.5989  0.5223
  610MOL0     O84101   1.202   2.812   3.954  0.9159  0.7529  0.3266
  610MOL0     C84102   1.075   2.789   4.010  0.4100 -0.3003  0.5068
  610MOL0     C84103   0.971   2.820   3.898 -0.4090  0.3904  0.6215
  610MOL0     C84104   0.958   2.972   3.875 -0.2423 -0.0496  0.7669
  610MOL0     C84105   0.812   3.023   3.900  0.6787  0.4770  0.9945
  610MOL0     C84106   0.715   2.968   3.806 -0.6508  0.1727 -0.3863
  610MOL0     C84107   0.638   2.926   3.724 -0.1488 -0.7204 -0.2108
  610MOL0     C84108   1.316   2.801   4.171  0.4923  0.2985 -0.4203
  610MOL0     C84109   1.437   2.784   4.241 -0.6438  0.3597  0.1102
  610MOL0     C84110   1.443   2.820   4.391 -0.2552 -0.9989  0.0385
  610MOL0     H84111   1.907   2.615   4.408  0.5943  1.1162  0.2660
  610MOL0     H84112   2.135   2.610   4.433 -0.4867 -1.1214  0.8162
  610MOL0     H84113   2.325   2.387   4.072 -2.2822  0.6675  0.4250
  610MOL0     H84114   2.321   2.348   4.246 -0.9679 -3.0168 -2.0826
  610MOL0     H84115   2.517   2.273   4.185  3.3799  0.3703  0.1098
  610MOL0     H84116   2.545   2.417   4.074 -2.2621 -0.9005 -1.0992
  610MOL0     H84117   2.629   2.555   4.241  1.9860  0.3641 -0.9281
  610MOL0     H84118   2.568   2.454   4.370 -3.5387  2.9271 -1.8948
  610MOL0     H84119   2.756   2.277   4.266  1.6725 -0.5866 -4.0304
  610MOL0     H84120   2.775   2.404   4.150  1.9219 -1.8424 -0.8640
  610MOL0     H84121   2.847   2.545   4.348  2.3190  0.6462 -1.5370
  610MOL0     H84122   2.942   2.398   4.304 -0.4507  2.5454 -1.6343
  610MOL0     H84123   2.956   2.396   4.528  0.4765 -1.4716 -1.1466
  610MOL0     H84124   2.789   2.475   4.564  2.7878  1.0369  1.3794
  610MOL0     H84125   2.860   2.191   4.482  2.7179  1.8398 -0.2498
  610MOL0     H84126   2.697   2.250   4.514 -0.6226 -2.0540  0.2523
  610MOL0     H84127   2.928   2.232   4.709 -0.7730 -2.6323  1.0104
  610MOL0     H84128   2.757   2.288   4.758 -2.2611 -1.2730  1.3368
  610MOL0     H84129   2.563   2.085   4.692  1.1121  2.9935  2.4988
  610MOL0     H84130   2.623   1.710   4.761 -0.6152  0.2693 -3.2999
  610MOL0     H84131   2.510   1.814   4.678 -0.3930  1.2860  0.2903
  610MOL0     H84132   2.455   1.712   4.912 -0.6111  0.1256 -3.4406
  610MOL0     H84133   2.576   1.820   4.986  0.6812 -3.0708  0.1078
  610MOL0     H84134   2.455   2.015   4.933  1.1317 -1.8617  0.3484
  610MOL0     H84135   2.346   1.935   4.827 -0.5549  0.5837 -0.0662
  610MOL0     H84136   2.261   1.980   5.049  0.0459  0.4277 -1.9016
  610MOL0     H84137   2.282   1.803   5.033  0.7261  0.7038 -1.8124
  610MOL0     H84138   2.565   1.851   5.364 -0.1137 -0.3607 -0.5513
  610MOL0     H84139   2.513   1.785   5.723  2.5087  1.5729  2.2264
  610MOL0     H84140   2.536   1.938   5.655 -1.5620 -0.4641  2.1122
  610MOL0     H84141   2.618   1.795   5.577 -0.7817 -1.9189  1.6688
  610MOL0     H84142   2.277   1.686   6.003 -0.9244 -0.5457  1.7616
  610MOL0     H84143   2.171   1.717   6.206  0.9440  1.1194 -1.1193
  610MOL0     H84144   2.012   1.756   6.354 -1.3178 -0.4199  0.3581
  610MOL0     H84145   2.121   1.885   6.401  0.3660  1.0456 -0.0495
  610MOL0     H84146   1.816   1.910   6.431  1.0507  0.7038 -3.0091
  610MOL0     H84147   1.922   1.840   6.569 -2.9452  1.3324  1.0700
  610MOL0     H84148   1.909   2.046   6.646  1.6769 -1.2990  0.5774
  610MOL0     H84149   1.856   2.108   6.497 -0.7723 -1.8206 -0.5136
  610MOL0     H84150   2.091   2.120   6.400 -1.2995  3.5003  0.0664
  610MOL0     H84151   2.156   2.043   6.558  0.5479 -0.3923 -0.2668
  610MOL0     H84152   2.047   2.322   6.528  0.1305  0.1840 -0.1666
  610MOL0     H84153   2.047   2.234   6.681  0.6834 -1.5278  0.5562
  610MOL0     H84154   2.294   2.302   6.529 -4.2355 -0.6979 -2.8949
  610MOL0     H84155   2.298   2.176   6.656  4.1778  2.1194  1.0658
  610MOL0     H84156   2.352   2.390   6.766 -0.4067 -0.3374  1.5073
  610MOL0     H84157   2.208   2.309   6.805 -1.7799 -3.1649 -3.4155
  610MOL0     H84158   2.202   2.557   6.805 -0.7714  1.5145 -1.6126
  610MOL0     H84159   2.069   2.484   6.720  0.4201 -2.1875 -0.5251
  610MOL0     H84160   2.004   2.084   6.038  3.5111  2.1891  0.7541
  610MOL0     H84161   2.147   2.043   5.833 -0.8158 -2.5225 -2.2838
  610MOL0     H84162   2.087   1.813   5.452  0.7039 -0.1961  0.7194
  610MOL0     H84163   2.158   1.893   5.248  0.0058  0.6213 -1.5214
  610MOL0     H84164   2.179   2.535   4.004  1.1248  3.6885 -1.4863
  610MOL0     H84165   1.938   2.578   3.981  1.8656  4.0588 -0.8120
  610MOL0     H84166   1.620   2.636   3.997 -2.4892 -1.9313 -2.1080
  610MOL0     H84167   1.405   2.699   3.862 -1.7895  1.1404  0.3090
  610MOL0     H84168   1.067   2.685   4.045 -0.1783 -0.0014  1.2852
  610MOL0     H84169   1.060   2.858   4.094  0.7462  1.7877 -1.0723
  610MOL0     H84170   0.876   2.778   3.932 -0.0233 -0.8534  0.2554
  610MOL0     H84171   0.990   2.781   3.797 -1.0751  0.1063  0.6025
  610MOL0     H84172   1.032   3.015   3.944 -1.4238 -1.1370  2.8020
  610MOL0     H84173   0.992   3.013   3.779 -2.6157  2.4379  0.8585
  610MOL0     H84174   0.815   3.130   3.881 -1.6029  0.1445 -1.8579
  610MOL0     H84175   0.777   2.992   3.999 -0.4127  1.5932  0.9813
  610MOL0     H84176   0.567   2.895   3.650 -0.3464  1.1728 -0.8899
  610MOL0     H84177   1.231   2.842   4.224 -1.2458 -1.0655 -2.0311
  610MOL0     H84178   1.525   2.893   4.400 -1.3126  0.3883 -1.0087
  610MOL0     H84179   1.358   2.873   4.435  0.2207  1.0969 -1.3960
  610MOL0     H84180   1.447   2.720   4.434 -1.6099 -0.9168  0.3842
  611MOL0     O84181   3.389   5.094   8.379  0.3185  0.2500  0.8460
  611MOL0     C84182   3.410   5.085   8.257 -0.4977 -0.0118 -0.8406
  611MOL0     O84183   3.531   5.070   8.206 -1.4404  0.8915 -0.6475
  611MOL0     C84184   3.638   5.081   8.296 -0.0747 -0.6897  0.1549
  611MOL0     C84185   3.654   5.183   8.392  0.4618  0.4614  0.0896
  611MOL0     C84186   3.774   5.171   8.471 -0.6078 -0.4259  0.1546
  611MOL0     C84187   3.874   5.076   8.452  0.0704  0.3969 -0.6861
  611MOL0     O84188   3.986   5.071   8.536  0.0071 -0.2339  0.8943
  611MOL0     C84189   4.039   5.193   8.596  0.1289 -0.5610  0.1443
  611MOL0     C84190   4.134   5.140   8.704 -0.3589 -0.8104 -0.2617
  611MOL0     C84191   4.126   5.216   8.834 -0.7094 -0.5751 -0.2055
  611MOL0     C84192   4.239   5.184   8.925  0.7436  1.0458  0.4637
  611MOL0     C84193   4.218   5.265   9.050  0.1896 -0.4327 -0.2040
  611MOL0     C84194   4.316   5.232   9.157  0.2671 -0.3544 -0.2044
  611MOL0     C84195   4.286   5.297   9.291  0.0935  0.5761 -0.3077
  611MOL0     C84196   4.412   5.293   9.388  0.3798 -0.1486  0.3725
  611MOL0     N84197   4.455   5.171   9.441  0.5447 -0.1370 -0.1020
  611MOL0     C84198   4.560   5.104   9.383 -0.1877  0.6011  0.0279
  611MOL0     C84199   4.584   5.004   9.484  0.2399 -0.0908 -0.2184
  611MOL0     C84200   4.704   4.909   9.483  0.0555 -0.4971 -0.2277
  611MOL0     C84201   4.675   4.779   9.552 -0.1107  0.3739 -0.5826
  611MOL0     C84202   4.803   4.685   9.548  0.2960  0.8016 -0.0028
  611MOL0     C84203   4.785   4.560   9.635  0.7635  0.4622  0.4130
  611MOL0     O84204   4.644   4.514   9.616 -0.8372 -0.3812  0.0691
  611MOL0     C84205   4.587   4.458   9.734  0.2886  0.6048  0.8317
  611MOL0     C84206   4.446   4.445   9.734 -0.0197  0.3108 -0.1186
  611MOL0     C84207   4.364   4.393   9.833  0.2171  0.1632 -0.5055
  611MOL0     C84208   4.217   4.378   9.813 -0.2621 -0.1234  0.6456
  611MOL0     C84209   4.429   4.366   9.955 -0.5550  0.5310 -0.2334
  611MOL0     C84210   4.357   4.306  10.073 -0.2850 -0.0479 -0.3583
  611MOL0     O84211   4.443   4.223  10.150 -0.0897 -0.1748 -0.3392
  611MOL0     C84212   4.399   4.189  10.269 -0.0739  0.0783 -0.5600
  611MOL0     C84213   4.317   4.076  10.286 -0.3851 -0.0201 -0.3276
  611MOL0     C84214   4.265   4.039  10.412  0.6109 -0.1514  0.1706
  611MOL0     C84215   4.300   4.113  10.521  0.2602 -0.3826 -0.6580
  611MOL0     O84216   4.243   4.089  10.650 -0.0830  0.0909  0.4676
  611MOL0     C84217   4.188   4.184  10.736  0.3557 -0.6913 -0.5692
  611MOL0     C84218   4.145   4.125  10.878 -0.9347  0.0876  0.9270
  611MOL0     C84219   4.182   4.222  10.990  0.3436 -0.0242 -0.5272
  611MOL0     C84220   4.070   4.322  11.012  0.0345 -0.1703  0.9664
  611MOL0     C84221   4.121   4.409  11.129 -0.0085 -0.8832  0.1875
  611MOL0     C84222   4.019   4.526  11.139  0.8017 -0.0504  0.5697
  611MOL0     C84223   4.080   4.670  11.137 -1.0570  0.8265  0.1863
  611MOL0     C84224   4.192   4.693  11.243  0.1861 -0.2592  0.1104
  611MOL0    Cl84225   4.131   4.636  11.394 -0.1955  0.2753 -0.4452
  611MOL0     C84226   4.387   4.217  10.509  0.8210 -0.4830  0.3181
  611MOL0     C84227   4.437   4.256  10.384  0.1839 -0.4861 -0.1705
  611MOL0     O84228   4.237   4.329  10.087 -0.1148  0.0722 -0.0775
  611MOL0     C84229   4.569   4.381   9.956 -0.2633 -0.0369  0.3020
  611MOL0     C84230   4.646   4.413   9.849  0.5154  0.4244  0.2646
  611MOL0     N84231   4.501   5.018   9.597  0.0468 -0.8197 -0.6134
  611MOL0     N84232   4.416   5.112   9.561 -0.6430  0.6736  0.7738
  611MOL0     C84233   3.850   4.975   8.358  0.3067 -0.1037  1.1201
  611MOL0     C84234   3.728   4.974   8.291  0.1664 -0.4957  0.2992
  611MOL0     C84235   3.296   5.088   8.161  0.6229  0.0124 -0.5106
  611MOL0     C84236   3.321   5.127   8.021  0.4844  0.7233  1.3170
  611MOL0     C84237   3.212   5.161   7.938 -0.9242  0.1653 -1.0761
  611MOL0     C84238   3.085   5.147   7.983 -0.5026  0.7130 -1.7660
  611MOL0     O84239   2.972   5.203   7.926 -0.1406  0.7761  0.2999
  611MOL0     C84240   2.973   5.298   7.819 -0.1958 -0.1463  0.6665
  611MOL0     C84241   2.996   5.436   7.861 -0.0212 -0.0156  0.1097
  611MOL0     C84242   2.978   5.535   7.741 -0.6942  0.0057 -0.6590
  611MOL0     C84243   3.026   5.676   7.783 -0.3086  0.9604  0.6158
  611MOL0     C84244   3.010   5.759   7.665  1.0888  0.1008  0.4865
  611MOL0     C84245   2.997   5.839   7.574  0.4157  0.2398  0.1409
  611MOL0     C84246   3.059   5.085   8.107 -0.6653 -0.7559  0.0286
  611MOL0     C84247   3.164   5.062   8.196 -0.7127  0.2153 -0.1300
  611MOL0     C84248   3.112   5.020   8.334 -0.4314 -0.9731 -0.3087
  611MOL0     H84249   3.596   5.274   8.381  0.2630  0.0265 -3.8723
  611MOL0     H84250   3.797   5.248   8.544 -1.7938  0.6145 -0.5183
  611MOL0     H84251   3.959   5.251   8.643  0.6383  0.8170 -0.6268
  611MOL0     H84252   4.076   5.256   8.515 -0.8694  1.6635  1.3188
  611MOL0     H84253   4.125   5.033   8.726 -0.2971 -1.4513 -3.0376
  611MOL0     H84254   4.226   5.148   8.646 -0.4978  0.5797 -0.3074
  611MOL0     H84255   4.118   5.325   8.828  1.3072 -0.3353  0.6411
  611MOL0     H84256   4.039   5.176   8.887 -0.7638  1.0937  1.0371
  611MOL0     H84257   4.246   5.076   8.939  1.1793  0.7024 -2.0067
  611MOL0     H84258   4.333   5.195   8.870 -1.0285 -0.9308 -3.3482
  611MOL0     H84259   4.122   5.228   9.087  1.0027 -0.2440  2.2651
  611MOL0     H84260   4.207   5.372   9.034 -0.4991 -0.0492  2.3636
  611MOL0     H84261   4.315   5.125   9.179 -1.1537 -0.3341 -0.0889
  611MOL0     H84262   4.419   5.255   9.128  0.1369  3.3314  1.6261
  611MOL0     H84263   4.211   5.238   9.345 -0.7918  2.5455  0.7210
  611MOL0     H84264   4.236   5.394   9.289 -2.8858 -0.8539 -0.9489
  611MOL0     H84265   4.495   5.327   9.325  0.7189 -0.9128  0.4028
  611MOL0     H84266   4.404   5.359   9.474  2.3782  0.4622  0.1344
  611MOL0     H84267   4.616   5.128   9.294 -0.2596 -0.2555 -0.2530
  611MOL0     H84268   4.787   4.954   9.539  1.0045 -1.1957 -1.0482
  611MOL0     H84269   4.728   4.900   9.377 -1.9109 -0.7385 -0.7067
  611MOL0     H84270   4.653   4.805   9.656  0.4689  0.3280 -0.4431
  611MOL0     H84271   4.589   4.727   9.509  0.8427 -0.8806 -1.0132
  611MOL0     H84272   4.818   4.642   9.449  0.2067 -2.7255  1.3359
  611MOL0     H84273   4.894   4.736   9.583 -0.0095 -0.2480  2.5920
  611MOL0     H84274   4.857   4.483   9.604  1.0842  1.1140 -0.5131
  611MOL0     H84275   4.807   4.585   9.739  1.8093  0.3892  0.2278
  611MOL0     H84276   4.393   4.487   9.649  0.8403  0.8116 -0.4153
  611MOL0     H84277   4.166   4.443   9.885 -1.5021  1.3437 -1.4686
  611MOL0     H84278   4.184   4.274   9.822 -3.1314  0.7958  1.9222
  611MOL0     H84279   4.189   4.408   9.712  3.8091  0.6813 -0.4494
  611MOL0     H84280   4.295   4.007  10.205  1.7092 -1.9568  0.6320
  611MOL0     H84281   4.201   3.952  10.423  4.5098 -3.4117 -0.7977
  611MOL0     H84282   4.246   4.274  10.757 -3.4264  1.6152  1.0782
  611MOL0     H84283   4.094   4.214  10.688 -0.8589 -0.5101  1.7853
  611MOL0     H84284   4.041   4.089  10.877 -0.8399 -0.2167 -0.7949
  611MOL0     H84285   4.207   4.037  10.899 -0.8349 -0.3744 -1.1060
  611MOL0     H84286   4.279   4.268  10.968 -1.0024  1.8029 -3.2584
  611MOL0     H84287   4.184   4.161  11.080 -0.7321  0.1102 -0.4000
  611MOL0     H84288   3.978   4.268  11.036  0.7523 -1.4228  0.9831
  611MOL0     H84289   4.046   4.384  10.925 -1.0004 -0.0907  1.2929
  611MOL0     H84290   4.129   4.359  11.226 -1.4333 -0.3047  0.6260
  611MOL0     H84291   4.219   4.451  11.102 -0.3348  0.7844  1.4024
  611MOL0     H84292   3.959   4.503  11.227  3.7229 -1.1274  2.4483
  611MOL0     H84293   3.961   4.530  11.047  0.1883 -0.2762  0.9427
  611MOL0     H84294   4.003   4.747  11.148 -2.1414  0.1906 -2.3189
  611MOL0     H84295   4.129   4.696  11.043 -2.6221  3.0206 -0.0832
  611MOL0     H84296   4.219   4.798  11.257 -1.9439  0.5031 -1.1556
  611MOL0     H84297   4.284   4.634  11.235  2.1980  2.4271  1.7566
  611MOL0     H84298   4.408   4.290  10.587  1.0484  0.6533 -0.7760
  611MOL0     H84299   4.505   4.341  10.375 -0.9577  0.3245 -1.6199
  611MOL0     H84300   4.624   4.343  10.042  0.4991 -0.8832 -0.5270
  611MOL0     H84301   4.754   4.401   9.857  0.3975  0.1305  1.4615
  611MOL0     H84302   3.902   4.883   8.336 -1.4984 -1.2171  1.3183
  611MOL0     H84303   3.714   4.897   8.216 -0.1026  0.1664 -0.3335
  611MOL0     H84304   3.422   5.124   7.980  0.7254  1.0799  1.8816
  611MOL0     H84305   3.235   5.224   7.853 -0.5775  0.7505 -0.5584
  611MOL0     H84306   3.052   5.283   7.745 -1.0719  2.6517 -1.0159
  611MOL0     H84307   2.885   5.291   7.754 -1.5656  2.4800  2.0510
  611MOL0     H84308   3.098   5.443   7.899  0.2874 -0.1616 -0.6553
  611MOL0     H84309   2.914   5.451   7.931 -0.4217 -0.6457 -0.2158
  611MOL0     H84310   3.044   5.502   7.660  1.5990  2.7749 -0.0806
  611MOL0     H84311   2.876   5.538   7.701 -1.3834  1.2386  1.0779
  611MOL0     H84312   3.131   5.682   7.814 -0.0436 -0.9625  0.2557
  611MOL0     H84313   2.964   5.709   7.867  0.2094 -0.6525  1.6929
  611MOL0     H84314   2.984   5.903   7.490  0.5958 -5.0150 -4.4425
  611MOL0     H84315   2.955   5.077   8.136 -0.9469 -3.8436 -1.3999
  611MOL0     H84316   3.178   4.955   8.392 -1.2861 -0.5777  1.1670
  611MOL0     H84317   3.089   5.111   8.390 -2.3025 -3.4102  3.2492
  611MOL0     H84318   3.015   4.969   8.339  1.1376 -4.2085 -0.0133
  612MOL0     O84319   2.484   2.025   4.116 -0.3455  0.6185  0.3326
  612MOL0     C84320   2.564   1.996   4.023 -0.3516 -0.6398  0.4045
  612MOL0     O84321   2.533   1.993   3.890  0.8500  0.1812  0.2878
  612MOL0     C84322   2.414   2.046   3.843 -0.1474  0.6166 -0.3807
  612MOL0     C84323   2.378   2.179   3.868 -0.3952 -0.4017  0.8027
  612MOL0     C84324   2.266   2.238   3.808 -0.7540  0.3557 -0.7164
  612MOL0     C84325   2.180   2.155   3.732 -0.4779 -0.8075  0.4910
  612MOL0     O84326   2.078   2.202   3.651  0.8302  0.3025 -0.4063
  612MOL0     C84327   2.114   2.284   3.541 -0.2930 -0.0642 -0.2974
  612MOL0     C84328   2.105   2.432   3.582  0.3330  0.0231 -0.0593
  612MOL0     C84329   1.965   2.479   3.639 -0.2564 -0.6187  1.1356
  612MOL0     C84330   1.956   2.631   3.678 -0.9278  0.7445 -1.1791
  612MOL0     C84331   1.803   2.667   3.699  0.4236  0.2891  0.3041
  612MOL0     C84332   1.782   2.798   3.766 -0.6708 -0.7000  0.0422
  612MOL0     C84333   1.827   2.921   3.682 -0.4657 -0.4738  0.8855
  612MOL0     C84334   1.782   3.053   3.737 -1.1462  0.0532  0.6143
  612MOL0     N84335   1.842   3.085   3.869  1.0983  0.1953 -0.0584
  612MOL0     C84336   1.811   3.022   3.991 -0.0564  0.9411  0.5865
  612MOL0     C84337   1.873   3.093   4.089 -0.4946 -0.2084  0.3367
  612MOL0     C84338   1.865   3.061   4.227 -0.2260 -0.0239 -0.4764
  612MOL0     C84339   1.827   3.196   4.314 -0.1498  0.4855  0.2373
  612MOL0     C84340   1.800   3.169   4.457 -0.5510 -0.2025 -0.9252
  612MOL0     C84341   1.727   3.297   4.510  0.4719  0.5670 -0.2687
  612MOL0     O84342   1.768   3.301   4.650  0.6063 -0.7973 -0.9202
  612MOL0     C84343   1.739   3.418   4.720  0.5782 -0.3915  0.3866
  612MOL0     C84344   1.721   3.547   4.657  0.2025  0.1055  0.3308
  612MOL0     C84345   1.693   3.657   4.734 -0.0964 -0.3743 -0.0377
  612MOL0     C84346   1.722   3.793   4.678  0.6196  0.2479  0.2900
  612MOL0     C84347   1.684   3.648   4.879  0.4237  0.4267 -0.4451
  612MOL0     C84348   1.662   3.758   4.981  0.6916  0.2071  0.0718
  612MOL0     O84349   1.549   3.734   5.068 -0.1240 -0.1330  0.7174
  612MOL0     C84350   1.501   3.836   5.143  0.1398  0.6390 -0.3303
  612MOL0     C84351   1.523   3.846   5.283 -0.1897  1.0654  0.5598
  612MOL0     C84352   1.486   3.953   5.359 -0.9040 -0.6978  0.2663
  612MOL0     C84353   1.425   4.067   5.302 -0.6427  0.1227 -0.4243
  612MOL0     O84354   1.395   4.177   5.385 -0.0606  0.3645  0.4768
  612MOL0     C84355   1.440   4.197   5.521 -0.4187  1.0332  0.4643
  612MOL0     C84356   1.382   4.320   5.568  0.5600 -0.7742 -0.9602
  612MOL0     C84357   1.429   4.363   5.705  0.2226  1.1894 -0.3588
  612MOL0     C84358   1.381   4.501   5.746 -0.4980 -0.6408  0.9408
  612MOL0     C84359   1.233   4.511   5.775  0.6351 -0.6814 -1.0403
  612MOL0     C84360   1.212   4.475   5.922  0.4137  0.2488  0.4125
  612MOL0     C84361   1.062   4.491   5.966 -0.4273  0.2689 -0.3345
  612MOL0     C84362   0.971   4.374   5.922 -0.4097  0.7461  0.5818
  612MOL0    Cl84363   0.832   4.365   6.035  0.3396 -0.1562 -0.2058
  612MOL0     C84364   1.399   4.060   5.166  0.0494  0.5277 -0.2364
  612MOL0     C84365   1.452   3.955   5.086  0.0563  0.9807 -0.6400
  612MOL0     O84366   1.745   3.847   4.986  0.5786  0.0666 -0.4197
  612MOL0     C84367   1.691   3.517   4.934  0.1176  0.0786  0.8085
  612MOL0     C84368   1.722   3.402   4.850  0.7837  0.4920  0.3389
  612MOL0     N84369   1.945   3.193   4.023  0.4596 -0.3502 -0.4439
  612MOL0     N84370   1.934   3.179   3.895  0.1614  0.2310 -0.6216
  612MOL0     C84371   2.202   2.015   3.724 -0.0259  0.1168 -0.6170
  612MOL0     C84372   2.325   1.962   3.767  0.1334  0.2252  0.6818
  612MOL0     C84373   2.713   2.002   4.070  0.6674 -0.7710  0.4460
  612MOL0     C84374   2.825   2.032   3.980  0.9275  0.4205 -0.3129
  612MOL0     C84375   2.954   2.040   4.021 -0.8555 -0.1142  0.0469
  612MOL0     C84376   2.999   2.019   4.154  0.0994 -0.2277 -0.0310
  612MOL0     O84377   3.136   2.038   4.192  0.2050  0.2493  0.5252
  612MOL0     C84378   3.217   2.128   4.115  0.3030  0.0457 -1.2316
  612MOL0     C84379   3.174   2.269   4.092  0.8164  1.1933  0.0163
  612MOL0     C84380   3.271   2.358   4.027 -0.1506 -0.3380 -0.3090
  612MOL0     C84381   3.270   2.339   3.877  0.1339  0.7647  0.2986
  612MOL0     C84382   3.354   2.446   3.815  0.5819  0.8512 -0.6266
  612MOL0     C84383   3.423   2.534   3.771 -0.9744  0.3278  0.1054
  612MOL0     C84384   2.894   1.982   4.237 -1.4499 -0.4865  0.1277
  612MOL0     C84385   2.759   1.968   4.201  0.2457 -1.0178 -0.7926
  612MOL0     C84386   2.665   1.913   4.307  0.0371 -0.6446 -0.1582
  612MOL0     H84387   2.444   2.246   3.923  0.9616  0.1783 -1.3846
  612MOL0     H84388   2.243   2.344   3.818  1.1664  1.0002 -2.3568
  612MOL0     H84389   2.042   2.254   3.465 -1.6028 -1.5185  1.4120
  612MOL0     H84390   2.219   2.268   3.513  0.9570  3.1503  1.8833
  612MOL0     H84391   2.180   2.458   3.657 -0.2405 -2.1083  1.3302
  612MOL0     H84392   2.132   2.485   3.490  0.4069 -1.7864 -1.1425
  612MOL0     H84393   1.884   2.464   3.567 -0.7042 -0.3222  1.5770
  612MOL0     H84394   1.942   2.416   3.725  1.7565 -2.1005  0.6648
  612MOL0     H84395   2.011   2.648   3.771  0.4392  1.3559 -2.0854
  612MOL0     H84396   2.003   2.687   3.597  0.5317 -0.1169 -0.9695
  612MOL0     H84397   1.752   2.583   3.747  2.7773  0.3548  3.2633
  612MOL0     H84398   1.753   2.670   3.602 -2.3579 -0.0826  1.6266
  612MOL0     H84399   1.679   2.816   3.799 -1.3500 -1.6530 -1.4620
  612MOL0     H84400   1.839   2.783   3.857 -1.1468 -1.7148  0.1846
  612MOL0     H84401   1.799   2.914   3.576  5.4629  2.8542 -1.3808
  612MOL0     H84402   1.933   2.915   3.654 -1.5204 -1.6496 -3.5667
  612MOL0     H84403   1.807   3.131   3.664  2.9657 -1.0897  0.5835
  612MOL0     H84404   1.673   3.051   3.748 -1.1916 -1.3710  0.1277
  612MOL0     H84405   1.749   2.937   4.016  0.3783  0.3629 -0.2490
  612MOL0     H84406   1.960   3.017   4.258 -1.9308 -1.8016  2.8083
  612MOL0     H84407   1.788   2.987   4.254  0.2833  0.2399  1.9549
  612MOL0     H84408   1.905   3.272   4.306  0.2829  0.3059  2.1569
  612MOL0     H84409   1.741   3.233   4.257 -0.1887 -1.0855 -0.7780
  612MOL0     H84410   1.747   3.073   4.462  2.9205 -2.2628 -0.5302
  612MOL0     H84411   1.895   3.151   4.507 -1.0902 -0.8909 -0.1191
  612MOL0     H84412   1.763   3.386   4.459  3.7125 -0.0812  0.6880
  612MOL0     H84413   1.620   3.291   4.489  0.8210 -0.7447 -1.9441
  612MOL0     H84414   1.746   3.567   4.553 -1.0069  0.7881  0.1542
  612MOL0     H84415   1.806   3.834   4.733  2.5764 -2.3701 -0.5088
  612MOL0     H84416   1.631   3.853   4.685  0.6133 -0.0185  4.0974
  612MOL0     H84417   1.751   3.783   4.573  3.7280 -0.1428  1.0803
  612MOL0     H84418   1.591   3.773   5.325  0.4219  1.8151  0.8976
  612MOL0     H84419   1.519   3.954   5.462 -0.6903 -2.5536  0.2454
  612MOL0     H84420   1.409   4.111   5.582  2.8786 -1.2913 -0.8500
  612MOL0     H84421   1.548   4.208   5.535 -0.5247  2.3398  0.3156
  612MOL0     H84422   1.410   4.393   5.491  2.0236 -1.6559 -1.3055
  612MOL0     H84423   1.273   4.312   5.573  0.6245 -1.0421  0.7210
  612MOL0     H84424   1.538   4.361   5.702  0.1896  0.3309 -2.0955
  612MOL0     H84425   1.400   4.288   5.780  0.3247 -0.1213 -1.5776
  612MOL0     H84426   1.399   4.563   5.658 -4.1537  0.2971  0.6809
  612MOL0     H84427   1.433   4.545   5.831  0.2574 -0.9831  0.6627
  612MOL0     H84428   1.207   4.617   5.769  1.3065 -0.2535  1.7308
  612MOL0     H84429   1.162   4.454   5.716 -2.4967 -0.9201  2.5563
  612MOL0     H84430   1.272   4.546   5.979  1.6356 -0.8974  0.6066
  612MOL0     H84431   1.244   4.371   5.931 -1.9020 -0.5047  0.5724
  612MOL0     H84432   1.020   4.589   5.942  0.8069  1.3730  1.7542
  612MOL0     H84433   1.065   4.499   6.075  0.8044  2.2118 -0.4745
  612MOL0     H84434   1.028   4.281   5.916 -1.7764 -0.1531  1.1141
  612MOL0     H84435   0.932   4.366   5.819 -0.8951 -4.9987  0.8760
  612MOL0     H84436   1.340   4.131   5.109  0.4076  0.3320 -0.8643
  612MOL0     H84437   1.452   3.979   4.981 -1.3153  0.3007 -0.8155
  612MOL0     H84438   1.671   3.499   5.040  1.0501 -1.7051  0.7151
  612MOL0     H84439   1.719   3.300   4.885 -1.1522  1.0542  2.0104
  612MOL0     H84440   2.133   1.959   3.662 -0.7564 -0.0057  0.2807
  612MOL0     H84441   2.339   1.855   3.754 -0.3812  0.2441 -0.0537
  612MOL0     H84442   2.804   2.048   3.875  0.8413 -5.3328 -1.5087
  612MOL0     H84443   3.030   2.058   3.946  1.8741 -0.1963  2.6298
  612MOL0     H84444   3.311   2.133   4.170 -0.2735  2.8312 -0.3556
  612MOL0     H84445   3.246   2.079   4.022  0.4713  1.6559 -2.0673
  612MOL0     H84446   3.145   2.316   4.186 -3.2472 -0.1477 -0.3375
  612MOL0     H84447   3.072   2.270   4.051 -1.5361  0.4392  5.0335
  612MOL0     H84448   3.252   2.465   4.040  3.4274  0.7078 -2.3167
  612MOL0     H84449   3.373   2.348   4.065 -0.5400 -0.5719  0.7215
  612MOL0     H84450   3.169   2.353   3.835  1.3606 -0.6057 -3.5408
  612MOL0     H84451   3.299   2.242   3.836 -3.7465 -0.1023 -0.9064
  612MOL0     H84452   3.487   2.600   3.718  2.3969 -1.6567  1.4111
  612MOL0     H84453   2.910   1.939   4.335 -0.6927  0.2367  0.3321
  612MOL0     H84454   2.604   1.835   4.261 -1.2583  1.9990 -3.3626
  612MOL0     H84455   2.723   1.857   4.382 -1.4406 -3.7244 -1.1490
  612MOL0     H84456   2.611   1.994   4.358 -2.3524 -2.0049 -0.3983
  613MOL0     O84457   9.254   4.585   4.730  0.0596  0.5349 -0.4398
  613MOL0     C84458   9.327   4.617   4.630  0.4260  0.0845 -1.0039
  613MOL0     O84459   9.387   4.530   4.541 -0.1469  0.3964  0.8448
  613MOL0     C84460   9.341   4.397   4.540  0.2853  0.2163  0.1397
  613MOL0     C84461   9.198   4.373   4.539 -1.6236 -0.7151  0.6489
  613MOL0     C84462   9.154   4.236   4.528 -0.2544  0.1042  0.8138
  613MOL0     C84463   9.241   4.126   4.537 -0.5885  0.1488  0.6126
  613MOL0     O84464   9.197   4.005   4.556 -1.2720  0.0717  0.0685
  613MOL0     C84465   9.057   3.967   4.542 -0.2831 -0.2838  0.5655
  613MOL0     C84466   9.045   3.876   4.416 -0.4499 -0.1294 -0.8666
  613MOL0     C84467   8.910   3.809   4.419 -0.8825 -0.4390  0.4118
  613MOL0     C84468   8.909   3.679   4.501  0.4788 -0.4908  0.5025
  613MOL0     C84469   8.758   3.660   4.544 -0.4789  0.2783 -0.1925
  613MOL0     C84470   8.716   3.521   4.585  0.4718  0.8280  0.0834
  613MOL0     C84471   8.766   3.422   4.475 -0.3546  0.6041  0.9218
  613MOL0     C84472   8.707   3.284   4.505 -0.3468 -0.7947  0.5171
  613MOL0     N84473   8.787   3.167   4.461  0.4371  0.3107  0.3981
  613MOL0     C84474   8.882   3.108   4.539 -0.5356 -0.0085  1.1765
  613MOL0     C84475   8.940   3.011   4.455 -0.1966 -0.3006 -0.4259
  613MOL0     C84476   9.047   2.922   4.511  0.3053 -0.1127 -0.3031
  613MOL0     C84477   9.062   2.795   4.427 -0.2001  0.8191  0.3929
  613MOL0     C84478   9.173   2.700   4.477  0.5441 -0.1293 -0.6513
  613MOL0     C84479   9.299   2.733   4.414  0.5522 -0.4084  0.4157
  613MOL0     O84480   9.397   2.649   4.478 -0.2393 -0.6011 -0.0662
  613MOL0     C84481   9.502   2.607   4.396  0.4768  0.6272  1.1754
  613MOL0     C84482   9.635   2.625   4.434 -0.0679  0.0252 -0.3168
  613MOL0     C84483   9.735   2.594   4.333 -0.2616 -0.9862  0.4304
  613MOL0     C84484   9.876   2.621   4.372  0.7168  0.7136 -0.5087
  613MOL0     C84485   9.702   2.542   4.202  0.3114 -0.3069 -1.1255
  613MOL0     C84486   9.792   2.500   4.090 -0.1528 -0.5195  0.4441
  613MOL0     O84487   9.747   2.406   4.001 -0.0924 -1.0474 -0.2371
  613MOL0     C84488   9.831   2.372   3.894 -0.2573 -0.1803  0.2805
  613MOL0     C84489   9.870   2.235   3.883 -0.0797  0.1947  0.7833
  613MOL0     C84490   9.953   2.191   3.778  1.2462  0.3404 -0.2420
  613MOL0     C84491   9.988   2.277   3.677 -0.6923 -0.2613 -0.9056
  613MOL0     O84492  10.062   2.235   3.564 -0.5283  0.4226  0.3331
  613MOL0     C84493  10.016   2.122   3.497  0.2732  0.3158  0.3620
  613MOL0     C84494   9.994   2.144   3.350  0.6634  0.2291 -0.0931
  613MOL0     C84495   9.959   2.030   3.254 -0.4427  0.3442 -0.6995
  613MOL0     C84496   9.821   1.977   3.268  0.7233  1.0356 -0.4400
  613MOL0     C84497   9.778   1.937   3.131  0.4614 -0.2558 -0.1513
  613MOL0     C84498   9.627   1.895   3.140 -0.4116  0.1549  0.1929
  613MOL0     C84499   9.562   1.870   3.002 -0.3096 -0.0661 -0.4979
  613MOL0     C84500   9.623   1.752   2.928 -0.1404 -0.9326  0.5522
  613MOL0    Cl84501   9.539   1.721   2.776 -0.2916 -0.3527  0.2817
  613MOL0     C84502   9.961   2.415   3.692 -0.6396  0.2833  0.1582
  613MOL0     C84503   9.874   2.454   3.791 -0.5249  0.2142 -0.7419
  613MOL0     O84504   9.906   2.550   4.088 -0.1511 -0.4601  0.6234
  613MOL0     C84505   9.564   2.517   4.186  0.7217 -0.0424 -0.7071
  613MOL0     C84506   9.468   2.541   4.277  0.0038  1.4678  0.8648
  613MOL0     N84507   8.870   3.022   4.332 -0.1745 -0.2348  0.8152
  613MOL0     N84508   8.769   3.100   4.344  0.1450  0.8324 -0.1216
  613MOL0     C84509   9.380   4.145   4.545  0.5459 -0.8284  0.2401
  613MOL0     C84510   9.422   4.281   4.530  0.0943 -0.4699  0.4981
  613MOL0     C84511   9.317   4.767   4.586 -0.4435  0.7123  0.5368
  613MOL0     C84512   9.299   4.790   4.450  0.1216  0.3725  0.0810
  613MOL0     C84513   9.301   4.916   4.401 -0.6469 -0.3775  0.3044
  613MOL0     C84514   9.326   5.031   4.485 -0.6608  0.4217  0.3015
  613MOL0     O84515   9.343   5.159   4.431 -0.1155 -0.6065  1.0824
  613MOL0     C84516   9.367   5.277   4.509  0.3119 -0.5859 -1.1092
  613MOL0     C84517   9.393   5.401   4.421 -0.3594  0.7882  0.4330
  613MOL0     C84518   9.393   5.524   4.515 -0.3320  0.3392 -0.2299
  613MOL0     C84519   9.468   5.640   4.447 -0.0630  0.1159 -0.0125
  613MOL0     C84520   9.403   5.686   4.314 -0.1041 -0.6390  0.4531
  613MOL0     C84521   9.367   5.716   4.205 -1.2430  0.0928 -0.0506
  613MOL0     C84522   9.344   4.997   4.621 -0.7007 -0.0177  0.9086
  613MOL0     C84523   9.337   4.876   4.674 -0.3863  0.1342  0.6301
  613MOL0     C84524   9.362   4.861   4.819 -0.1701 -0.2428  0.1553
  613MOL0     H84525   9.132   4.456   4.561 -0.5509 -0.0962  1.6689
  613MOL0     H84526   9.046   4.228   4.521 -0.3127  0.7707  0.8890
  613MOL0     H84527   8.979   4.044   4.546 -2.8478 -2.6227 -1.1571
  613MOL0     H84528   9.045   3.905   4.632  0.1121 -0.7204  0.3213
  613MOL0     H84529   9.058   3.935   4.325  0.8170  0.0371 -0.5928
  613MOL0     H84530   9.125   3.802   4.411 -0.7599 -0.5848  0.4468
  613MOL0     H84531   8.846   3.884   4.467  0.7820 -1.3837  4.5963
  613MOL0     H84532   8.886   3.764   4.323  2.3281 -1.8301  0.1533
  613MOL0     H84533   8.964   3.604   4.444  0.1839 -0.8314  0.6613
  613MOL0     H84534   8.971   3.685   4.591  1.0749 -4.1482  0.4944
  613MOL0     H84535   8.700   3.684   4.455 -4.4284 -2.3526  1.3797
  613MOL0     H84536   8.728   3.733   4.620 -0.0206 -0.2146  0.4872
  613MOL0     H84537   8.757   3.512   4.686  2.3259 -1.2997 -0.7926
  613MOL0     H84538   8.607   3.517   4.595  0.4279 -0.8742 -0.8194
  613MOL0     H84539   8.874   3.411   4.483  0.0743  3.6981  0.5688
  613MOL0     H84540   8.745   3.467   4.377  1.4440  2.0317  1.1438
  613MOL0     H84541   8.680   3.271   4.610 -0.1787 -1.6198  0.4612
  613MOL0     H84542   8.612   3.283   4.451 -0.7177  0.8185  1.0706
  613MOL0     H84543   8.920   3.140   4.636  3.0141 -2.0017  0.6148
  613MOL0     H84544   9.025   2.909   4.618 -1.3434 -1.7544 -0.7834
  613MOL0     H84545   9.136   2.984   4.505 -0.5708  0.9877 -3.6137
  613MOL0     H84546   8.972   2.735   4.440  0.3938  0.2948  2.5674
  613MOL0     H84547   9.068   2.823   4.322  1.1546  1.4694  0.6176
  613MOL0     H84548   9.173   2.713   4.585 -2.3798 -0.4143 -0.5393
  613MOL0     H84549   9.139   2.600   4.446  3.3453 -0.8587 -1.6737
  613MOL0     H84550   9.289   2.724   4.305  1.1882  3.5179 -0.1390
  613MOL0     H84551   9.329   2.837   4.433 -0.8355  0.0485  0.2369
  613MOL0     H84552   9.664   2.657   4.534 -0.8203 -1.3968  0.3774
  613MOL0     H84553   9.936   2.669   4.294  0.8778  0.7426 -0.3658
  613MOL0     H84554   9.915   2.520   4.389 -0.5566  0.2908  0.0557
  613MOL0     H84555   9.874   2.675   4.467  1.3982 -2.5643  1.5305
  613MOL0     H84556   9.839   2.179   3.971  1.6454  1.8655  2.5738
  613MOL0     H84557   9.974   2.085   3.771  1.4799  0.4468 -1.3515
  613MOL0     H84558  10.080   2.036   3.518 -0.6826 -0.4503  0.2024
  613MOL0     H84559   9.914   2.109   3.534  0.3819  3.8985  2.3852
  613MOL0     H84560   9.905   2.207   3.344 -0.9364 -2.0359 -2.1458
  613MOL0     H84561  10.085   2.192   3.313 -1.4450  3.9157 -0.9588
  613MOL0     H84562  10.041   1.959   3.262  2.5134  3.6824  2.0983
  613MOL0     H84563   9.974   2.064   3.151 -0.1083 -0.6090 -0.9741
  613MOL0     H84564   9.750   2.047   3.313 -0.5519 -0.4978  0.0160
  613MOL0     H84565   9.821   1.896   3.340  0.3623  2.3365  1.0787
  613MOL0     H84566   9.776   2.027   3.068  0.6989  0.5072  0.8993
  613MOL0     H84567   9.847   1.861   3.093  0.5446 -0.1135 -0.2865
  613MOL0     H84568   9.581   1.979   3.192 -0.8727 -0.4278  0.7366
  613MOL0     H84569   9.625   1.803   3.199 -2.1301 -0.9662 -1.4829
  613MOL0     H84570   9.559   1.955   2.935  2.1161 -1.0278 -1.9377
  613MOL0     H84571   9.459   1.846   3.030  0.5331  0.7415  4.0501
  613MOL0     H84572   9.598   1.667   2.991 -1.1916 -0.2397  1.0906
  613MOL0     H84573   9.729   1.763   2.900 -0.8036 -0.1447 -1.9853
  613MOL0     H84574  10.004   2.485   3.620 -1.2658  0.0574 -0.4374
  613MOL0     H84575   9.843   2.558   3.798 -0.4271  0.1447  1.1158
  613MOL0     H84576   9.530   2.482   4.089 -1.9383  2.4647 -0.8145
  613MOL0     H84577   9.362   2.524   4.264 -0.0525  1.7505  0.9407
  613MOL0     H84578   9.452   4.065   4.553 -0.9640 -2.7535 -3.0119
  613MOL0     H84579   9.528   4.279   4.508 -0.0459  0.7887 -0.3376
  613MOL0     H84580   9.278   4.711   4.378 -1.4237  0.9603 -0.1432
  613MOL0     H84581   9.280   4.928   4.295 -1.7989  2.2283  0.7501
  613MOL0     H84582   9.287   5.297   4.580  1.5988 -0.0037  0.2366
  613MOL0     H84583   9.456   5.255   4.569 -0.1340  0.5816  0.0239
  613MOL0     H84584   9.318   5.414   4.343 -1.5565  0.9865  1.5850
  613MOL0     H84585   9.486   5.394   4.364 -2.3712 -0.1992 -3.0493
  613MOL0     H84586   9.292   5.542   4.555 -1.1117 -1.8354 -1.0484
  613MOL0     H84587   9.450   5.504   4.606  0.0019 -0.4160 -0.5960
  613MOL0     H84588   9.574   5.613   4.436 -0.5520 -1.7833 -0.3070
  613MOL0     H84589   9.474   5.722   4.519 -0.6652 -0.1289  0.3219
  613MOL0     H84590   9.353   5.743   4.102 -0.3159  2.6734  0.4391
  613MOL0     H84591   9.370   5.079   4.687  1.3008 -1.1034  1.5345
  613MOL0     H84592   9.273   4.805   4.848 -1.2594  1.1131 -0.4701
  613MOL0     H84593   9.448   4.795   4.836 -2.2083 -3.4880 -1.0999
  613MOL0     H84594   9.370   4.958   4.867 -1.8792  0.8767 -1.6506
  614MOL0     O84595   6.273   4.890   0.889  0.6321  0.5268  0.1928
  614MOL0     C84596   6.389   4.878   0.845  0.7716  0.6039  0.3366
  614MOL0     O84597   6.499   4.866   0.919  0.1468  0.5822 -0.7516
  614MOL0     C84598   6.506   4.947   1.030  0.3199  0.6285 -0.0383
  614MOL0     C84599   6.571   4.886   1.138  0.0729  0.4938 -0.8146
  614MOL0     C84600   6.580   4.949   1.260  0.1139 -0.2782 -1.3658
  614MOL0     C84601   6.519   5.073   1.278 -0.3989  1.3096  0.0710
  614MOL0     O84602   6.516   5.135   1.392 -0.7099 -0.8771  0.2579
  614MOL0     C84603   6.390   5.127   1.465 -0.2071 -0.3825 -0.5611
  614MOL0     C84604   6.419   5.112   1.611  0.2266  0.7533 -0.3089
  614MOL0     C84605   6.290   5.067   1.693  0.6147  0.4086 -0.0119
  614MOL0     C84606   6.173   5.172   1.681 -0.3999  0.7253  0.3469
  614MOL0     C84607   6.155   5.265   1.798 -0.1885 -1.2170  0.1077
  614MOL0     C84608   6.285   5.359   1.828 -0.3069 -0.2616 -1.1813
  614MOL0     C84609   6.264   5.433   1.958 -0.4673 -0.7153  1.2715
  614MOL0     C84610   6.248   5.581   1.939 -0.7539  0.5728 -0.6551
  614MOL0     N84611   6.108   5.610   1.919  0.0540  0.5214 -0.0663
  614MOL0     C84612   6.041   5.635   1.811 -0.2068  0.2038  0.4437
  614MOL0     C84613   5.906   5.647   1.842 -0.0745 -0.3464 -0.0493
  614MOL0     C84614   5.792   5.628   1.736 -0.2401  0.4553  0.1888
  614MOL0     C84615   5.667   5.564   1.783  0.2464  0.0582 -1.1424
  614MOL0     C84616   5.562   5.580   1.672  0.7378 -0.1799  0.2440
  614MOL0     C84617   5.414   5.560   1.719  0.2234  0.9650 -0.5865
  614MOL0     O84618   5.342   5.510   1.608  0.4086  1.3089  0.6324
  614MOL0     C84619   5.313   5.590   1.496 -0.4138  0.1435  0.8695
  614MOL0     C84620   5.308   5.731   1.493  0.6251  0.5142 -0.5546
  614MOL0     C84621   5.270   5.799   1.373  0.4609  0.2026 -0.8231
  614MOL0     C84622   5.226   5.940   1.396 -0.7254 -0.4636  0.2957
  614MOL0     C84623   5.246   5.723   1.257  0.0874  0.3534 -0.0364
  614MOL0     C84624   5.199   5.791   1.134 -0.7130 -0.5049 -0.2171
  614MOL0     O84625   5.108   5.731   1.063 -0.0275  0.9327 -0.2563
  614MOL0     C84626   5.051   5.807   0.973  0.6905  1.2958  0.0148
  614MOL0     C84627   5.096   5.791   0.840  0.5743 -0.0370  0.6919
  614MOL0     C84628   5.024   5.858   0.738 -0.5442 -0.1334 -1.1522
  614MOL0     C84629   4.938   5.957   0.774  0.0946 -0.0413  0.0092
  614MOL0     O84630   4.884   6.044   0.681 -0.2605  0.7648 -0.1520
  614MOL0     C84631   4.755   6.102   0.702  0.2207 -0.2645 -0.2494
  614MOL0     C84632   4.686   6.158   0.576 -0.5735 -0.0448 -0.3416
  614MOL0     C84633   4.707   6.074   0.446 -0.5108 -0.2039 -0.0648
  614MOL0     C84634   4.647   5.932   0.471  0.1841 -0.7115  0.1898
  614MOL0     C84635   4.663   5.864   0.334  0.5768 -0.5799  0.2145
  614MOL0     C84636   4.792   5.848   0.265  0.2395  0.9191  0.3144
  614MOL0     C84637   4.761   5.739   0.150 -0.6389 -0.0323  0.3284
  614MOL0     C84638   4.873   5.747   0.058 -0.1049  0.1237  0.1845
  614MOL0    Cl84639   4.894   5.906  -0.025  0.2773  0.1685  0.0611
  614MOL0     C84640   4.896   5.972   0.906  0.1059  0.0084  0.7696
  614MOL0     C84641   4.946   5.892   1.010  1.0089  0.4714 -0.5507
  614MOL0     O84642   5.256   5.894   1.104 -0.1103  0.3524  0.2275
  614MOL0     C84643   5.259   5.583   1.260 -0.2545  0.9015  0.8388
  614MOL0     C84644   5.270   5.519   1.386 -1.2778 -0.3155  0.4437
  614MOL0     N84645   5.890   5.648   1.977 -0.2525  1.2223 -0.3608
  614MOL0     N84646   6.014   5.626   2.020 -0.1144  0.3044  0.6930
  614MOL0     C84647   6.465   5.140   1.170 -1.3227 -0.2295  0.4650
  614MOL0     C84648   6.464   5.080   1.047 -0.4556 -0.2759  0.0396
  614MOL0     C84649   6.411   4.827   0.710  0.3394 -0.4326 -0.4032
  614MOL0     C84650   6.535   4.783   0.666 -0.3176  0.2327 -0.6339
  614MOL0     C84651   6.558   4.727   0.539  0.6664 -0.2956  1.2402
  614MOL0     C84652   6.455   4.704   0.449  1.1987 -0.6562  0.5794
  614MOL0     O84653   6.469   4.608   0.344  0.1733  0.6384 -0.4070
  614MOL0     C84654   6.359   4.581   0.253 -0.0589 -0.3415  0.0261
  614MOL0     C84655   6.318   4.691   0.151 -0.1652  0.1918  0.1645
  614MOL0     C84656   6.424   4.722   0.059  0.2562 -0.1507  0.1898
  614MOL0     C84657   6.389   4.838  -0.035  0.0441 -0.7625 -0.7659
  614MOL0     C84658   6.506   4.853  -0.119 -0.8823  0.9226  0.5786
  614MOL0     C84659   6.600   4.861  -0.202  0.0852  0.4922 -0.5279
  614MOL0     C84660   6.328   4.767   0.483  0.4533 -0.0221 -0.1689
  614MOL0     C84661   6.306   4.829   0.612 -0.1637 -0.0839 -0.1078
  614MOL0     C84662   6.170   4.888   0.626 -0.0503 -0.9733  0.7490
  614MOL0     H84663   6.608   4.784   1.130 -0.4768  0.1531  0.6386
  614MOL0     H84664   6.630   4.902   1.344  0.6236  3.8611  0.9173
  614MOL0     H84665   6.316   5.052   1.435 -2.1830  1.0340  0.5546
  614MOL0     H84666   6.343   5.225   1.452  1.1843  0.3341 -0.4178
  614MOL0     H84667   6.496   5.035   1.622  0.5439  1.1661  0.4244
  614MOL0     H84668   6.465   5.204   1.650  3.2230 -1.6316  2.3435
  614MOL0     H84669   6.252   4.972   1.654  1.8477 -0.8949  1.8334
  614MOL0     H84670   6.305   5.067   1.801 -0.8916  1.7889  0.2395
  614MOL0     H84671   6.172   5.218   1.582  2.4331 -1.0459 -0.6278
  614MOL0     H84672   6.078   5.117   1.684 -0.4613  0.8438  2.5817
  614MOL0     H84673   6.123   5.214   1.889 -1.4137  0.6962  0.8132
  614MOL0     H84674   6.084   5.341   1.765 -0.7403 -2.5130 -1.9658
  614MOL0     H84675   6.371   5.293   1.837  2.0193  2.1659 -3.5841
  614MOL0     H84676   6.315   5.420   1.742  0.7066 -0.4654 -0.9843
  614MOL0     H84677   6.348   5.410   2.024  1.1499  2.6899  0.6142
  614MOL0     H84678   6.180   5.383   2.008  1.8633 -1.7367  4.5052
  614MOL0     H84679   6.290   5.617   2.034  1.3656  2.9604 -2.3489
  614MOL0     H84680   6.316   5.610   1.857  3.4143 -4.2406  0.5969
  614MOL0     H84681   6.062   5.644   1.705  0.2740 -1.1698  0.4074
  614MOL0     H84682   5.834   5.575   1.650  2.9844  1.9495  0.7002
  614MOL0     H84683   5.776   5.726   1.691 -1.0475 -0.9430 -2.8028
  614MOL0     H84684   5.689   5.459   1.800 -1.5833 -0.0613  0.8255
  614MOL0     H84685   5.636   5.606   1.879  2.4370 -4.4510  1.8790
  614MOL0     H84686   5.568   5.683   1.638 -1.4781 -0.3403 -0.8029
  614MOL0     H84687   5.583   5.500   1.600  0.6636  0.4321 -0.4673
  614MOL0     H84688   5.416   5.476   1.789  3.5030  1.0501 -0.4192
  614MOL0     H84689   5.361   5.646   1.760 -1.1524 -1.9243  4.6753
  614MOL0     H84690   5.340   5.779   1.585  1.3375 -3.4339  1.4775
  614MOL0     H84691   5.210   6.006   1.310 -0.2017 -0.4402  0.2158
  614MOL0     H84692   5.304   5.992   1.452 -1.4192  1.7194 -0.6635
  614MOL0     H84693   5.134   5.944   1.455  0.5418  0.7996  2.3026
  614MOL0     H84694   5.176   5.726   0.806  0.7717  1.0227 -0.9986
  614MOL0     H84695   5.045   5.846   0.632 -0.2187  0.1856 -1.1284
  614MOL0     H84696   4.683   6.033   0.747 -0.7325  0.2319 -0.9765
  614MOL0     H84697   4.773   6.189   0.766 -0.9937  1.0161 -1.5777
  614MOL0     H84698   4.577   6.168   0.582 -0.6114  0.9267 -1.9405
  614MOL0     H84699   4.718   6.260   0.556 -6.6931  1.9633 -2.1920
  614MOL0     H84700   4.811   6.066   0.412 -0.4868  2.0858 -0.7060
  614MOL0     H84701   4.652   6.115   0.361  0.3979  1.9798  0.3412
  614MOL0     H84702   4.541   5.931   0.497 -0.5790  0.9962 -2.4620
  614MOL0     H84703   4.713   5.881   0.542  2.5316  0.7389 -0.8356
  614MOL0     H84704   4.630   5.761   0.351 -0.2823 -0.2303  0.7208
  614MOL0     H84705   4.595   5.909   0.261  0.2313  0.7061  1.3002
  614MOL0     H84706   4.860   5.811   0.342  1.5805  3.2814  0.3647
  614MOL0     H84707   4.814   5.946   0.222 -3.3083  2.1285  0.9094
  614MOL0     H84708   4.673   5.749   0.086  0.8517 -1.5821 -2.1319
  614MOL0     H84709   4.773   5.640   0.194  1.5316  0.2959  0.6026
  614MOL0     H84710   4.846   5.686  -0.029 -0.5540  2.0608 -1.0770
  614MOL0     H84711   4.963   5.710   0.108  0.5724  1.6748  0.1728
  614MOL0     H84712   4.822   6.041   0.946 -0.4897 -0.7672  1.0305
  614MOL0     H84713   4.892   5.895   1.103  1.2184 -2.5154 -0.2424
  614MOL0     H84714   5.221   5.519   1.181  0.2161  1.2654  0.3169
  614MOL0     H84715   5.262   5.412   1.400  1.7331 -0.6325  0.4606
  614MOL0     H84716   6.432   5.243   1.183  0.0106  0.3604 -0.5265
  614MOL0     H84717   6.406   5.134   0.972 -0.9895 -1.2291 -0.2617
  614MOL0     H84718   6.626   4.778   0.725  0.1815  1.1840 -1.2934
  614MOL0     H84719   6.654   4.684   0.514 -0.3560 -1.9237 -0.0862
  614MOL0     H84720   6.381   4.487   0.201  0.0148 -0.1778 -0.2407
  614MOL0     H84721   6.273   4.569   0.320  1.0893  2.7278  2.2847
  614MOL0     H84722   6.291   4.780   0.208 -0.2328 -1.7981  3.5350
  614MOL0     H84723   6.227   4.652   0.106 -1.4814 -0.9708  3.4733
  614MOL0     H84724   6.515   4.758   0.107  0.8202  0.5741 -1.3423
  614MOL0     H84725   6.446   4.628   0.006 -1.0578 -1.4063  1.7497
  614MOL0     H84726   6.365   4.939  -0.000  3.3412  0.7985 -2.5154
  614MOL0     H84727   6.302   4.805  -0.092  0.3516 -2.5763 -0.2514
  614MOL0     H84728   6.667   4.867  -0.285  1.0166 -0.2225  0.1492
  614MOL0     H84729   6.248   4.772   0.409  0.1107  1.0285  0.2440
  614MOL0     H84730   6.106   4.821   0.685 -0.6281 -0.7283  0.4138
  614MOL0     H84731   6.173   4.986   0.673 -1.2305 -0.3085 -0.4530
  614MOL0     H84732   6.122   4.905   0.529 -1.3328 -1.0418  1.3451
  615MOL0     O84733   9.564   1.444   3.680  0.3531 -0.8494  0.3745
  615MOL0     C84734   9.599   1.347   3.615  0.1184  0.7783 -0.6960
  615MOL0     O84735   9.544   1.309   3.500  0.2686 -0.8941  0.1499
  615MOL0     C84736   9.437   1.373   3.435 -1.0428  0.8658 -0.6861
  615MOL0     C84737   9.337   1.445   3.504 -1.3945  0.0909 -0.7550
  615MOL0     C84738   9.232   1.506   3.440 -0.1622  0.5764 -0.2180
  615MOL0     C84739   9.212   1.474   3.299  0.3471 -0.0481 -0.3725
  615MOL0     O84740   9.108   1.500   3.219 -0.3460  0.2124  0.4146
  615MOL0     C84741   9.006   1.579   3.268  0.3816 -0.3209  0.3687
  615MOL0     C84742   8.883   1.576   3.179 -0.0348 -0.1389  0.3390
  615MOL0     C84743   8.806   1.451   3.168  0.1279 -0.0569  0.6988
  615MOL0     C84744   8.663   1.482   3.107 -0.3189  0.0873  0.1940
  615MOL0     C84745   8.583   1.352   3.068 -0.0220  0.6095 -0.5782
  615MOL0     C84746   8.643   1.297   2.942  0.2533  0.7046  0.0516
  615MOL0     C84747   8.547   1.197   2.882  0.6853 -0.7703 -0.8333
  615MOL0     C84748   8.603   1.113   2.761 -1.2746 -0.5258 -0.5214
  615MOL0     N84749   8.505   1.047   2.680 -0.1172 -0.6575  0.2341
  615MOL0     C84750   8.383   1.109   2.656 -0.3804  0.5092  0.0854
  615MOL0     C84751   8.321   1.019   2.581 -1.4936  0.3577  0.3872
  615MOL0     C84752   8.173   1.014   2.557 -0.0490  0.7323 -0.5520
  615MOL0     C84753   8.133   1.088   2.440  0.2736 -0.1411 -1.0145
  615MOL0     C84754   8.191   1.026   2.301 -0.4139  0.5854  0.3703
  615MOL0     C84755   8.182   1.122   2.186  0.5217  0.0102 -0.6416
  615MOL0     O84756   8.280   1.224   2.209  0.9304 -0.7267  0.2090
  615MOL0     C84757   8.235   1.355   2.233  0.4902 -0.0184  0.3305
  615MOL0     C84758   8.325   1.453   2.191 -1.2831 -0.3799 -0.2467
  615MOL0     C84759   8.302   1.593   2.201 -0.0125  0.0176  0.7689
  615MOL0     C84760   8.414   1.692   2.170  0.5627 -0.8100 -0.0994
  615MOL0     C84761   8.172   1.637   2.240  0.1707 -1.3846  0.4357
  615MOL0     C84762   8.138   1.787   2.248 -0.7954 -0.1453 -1.0407
  615MOL0     O84763   8.014   1.803   2.294 -0.7847  0.1773  0.3632
  615MOL0     C84764   8.002   1.885   2.399  0.3828  0.0671 -0.5576
  615MOL0     C84765   7.912   1.989   2.375  0.4338  0.2071  0.4860
  615MOL0     C84766   7.894   2.085   2.475  0.0251  0.5532  0.1088
  615MOL0     C84767   7.972   2.083   2.593 -0.9302  0.2305 -0.3447
  615MOL0     O84768   7.967   2.179   2.691  0.2851  0.1682  0.2346
  615MOL0     C84769   7.866   2.285   2.681 -0.3373  0.5931 -0.6330
  615MOL0     C84770   7.845   2.319   2.829  0.3630  0.2552  0.8177
  615MOL0     C84771   7.767   2.442   2.840  1.1183 -0.0958 -0.9115
  615MOL0     C84772   7.713   2.469   2.985  0.5392 -0.6636  0.8543
  615MOL0     C84773   7.570   2.429   3.005  0.2569 -0.5625  0.6552
  615MOL0     C84774   7.530   2.445   3.153 -0.1103  0.9245  0.7363
  615MOL0     C84775   7.390   2.451   3.196 -0.2877  0.4835  0.1811
  615MOL0     C84776   7.361   2.422   3.337 -0.3403 -0.3324 -0.3527
  615MOL0    Cl84777   7.389   2.260   3.369  0.1286  0.2692  0.2780
  615MOL0     C84778   8.063   1.976   2.620  0.1194  0.8629  0.1314
  615MOL0     C84779   8.080   1.885   2.515  0.2062  0.4235  0.1825
  615MOL0     O84780   8.215   1.875   2.222  0.4505 -0.3191 -0.4725
  615MOL0     C84781   8.080   1.541   2.284  0.1030  0.7472  0.5192
  615MOL0     C84782   8.113   1.403   2.284 -0.2417 -0.6433  0.2189
  615MOL0     N84783   8.406   0.906   2.557  0.3549 -1.0117  0.9474
  615MOL0     N84784   8.511   0.921   2.631  0.2318 -0.6365  0.2096
  615MOL0     C84785   9.315   1.406   3.224  1.4157 -0.5106 -0.3457
  615MOL0     C84786   9.425   1.363   3.294 -0.3333 -0.1879 -0.2634
  615MOL0     C84787   9.707   1.249   3.662 -0.3300 -0.7363  0.3778
  615MOL0     C84788   9.704   1.119   3.607  0.6920  0.2389  0.1793
  615MOL0     C84789   9.799   1.022   3.645 -1.3036  0.0505  0.5771
  615MOL0     C84790   9.904   1.057   3.733  0.1558  0.6248  0.3257
  615MOL0     O84791   9.991   0.955   3.764  0.0454 -0.8255 -0.1663
  615MOL0     C84792  10.083   0.976   3.874  0.0369  0.6279 -0.1779
  615MOL0     C84793  10.221   1.021   3.829 -0.3480  0.7901 -0.0775
  615MOL0     C84794  10.332   0.927   3.876 -0.1030 -0.1306 -0.4882
  615MOL0     C84795  10.318   0.799   3.798  0.6090  0.0345  0.3139
  615MOL0     C84796  10.439   0.723   3.819  0.1295 -1.0417 -0.2817
  615MOL0     C84797  10.529   0.650   3.856 -0.9372  0.0121 -0.1667
  615MOL0     C84798   9.907   1.184   3.788  0.0957  0.0709  0.5417
  615MOL0     C84799   9.813   1.277   3.755  1.2444 -0.1321  0.2763
  615MOL0     C84800   9.811   1.410   3.832  0.1078  1.1089 -1.6422
  615MOL0     H84801   9.334   1.442   3.612  1.2153 -2.8722 -0.6249
  615MOL0     H84802   9.163   1.555   3.508  0.4659 -1.0005  1.6617
  615MOL0     H84803   9.036   1.683   3.282  0.1632 -0.2615  0.4056
  615MOL0     H84804   8.968   1.550   3.367 -0.0772  1.0924  0.6317
  615MOL0     H84805   8.816   1.662   3.195 -0.3790 -0.0798 -1.2489
  615MOL0     H84806   8.925   1.616   3.086  3.7540  2.8737  3.0139
  615MOL0     H84807   8.867   1.371   3.124  3.7375 -1.2622  6.8135
  615MOL0     H84808   8.788   1.413   3.269 -1.3120 -2.1786 -0.2787
  615MOL0     H84809   8.598   1.522   3.186 -2.6091 -3.2791  0.2446
  615MOL0     H84810   8.674   1.557   3.028  4.6062  0.7113  1.1619
  615MOL0     H84811   8.480   1.385   3.050  0.3899  2.0751 -0.4082
  615MOL0     H84812   8.586   1.285   3.154  1.0351 -0.2406 -1.2611
  615MOL0     H84813   8.648   1.381   2.873 -0.2173 -2.0719 -3.6460
  615MOL0     H84814   8.742   1.256   2.967  0.8996  1.0875 -1.7810
  615MOL0     H84815   8.473   1.265   2.840  0.5123 -0.5033 -0.1134
  615MOL0     H84816   8.503   1.138   2.964 -0.6808  1.7636  0.3554
  615MOL0     H84817   8.662   1.185   2.704  1.1625  0.1090  2.4801
  615MOL0     H84818   8.675   1.039   2.798  1.0727  1.5711 -0.6056
  615MOL0     H84819   8.330   1.197   2.690 -2.3483 -1.1655  1.6864
  615MOL0     H84820   8.122   1.042   2.650  0.0544 -1.2722  0.1566
  615MOL0     H84821   8.149   0.908   2.541 -1.2498  1.2520 -2.5467
  615MOL0     H84822   8.025   1.073   2.438  0.3528 -1.0377  0.1387
  615MOL0     H84823   8.167   1.191   2.452  0.0862 -0.1656 -0.2423
  615MOL0     H84824   8.297   1.002   2.314 -0.7224 -1.3746 -0.3517
  615MOL0     H84825   8.145   0.934   2.265 -0.6744  1.0542 -0.5239
  615MOL0     H84826   8.202   1.071   2.091 -2.2944  0.5679 -1.6346
  615MOL0     H84827   8.077   1.149   2.179  0.2145 -1.1062 -0.4447
  615MOL0     H84828   8.423   1.415   2.161 -1.1105 -2.1517  2.2420
  615MOL0     H84829   8.456   1.736   2.261  1.6624 -0.4822 -0.7556
  615MOL0     H84830   8.380   1.769   2.100 -0.4886  2.0036  3.2017
  615MOL0     H84831   8.489   1.634   2.117  1.2233 -0.4020  0.3673
  615MOL0     H84832   7.849   1.979   2.287 -0.6261 -2.1902  1.4368
  615MOL0     H84833   7.853   2.181   2.445  0.0938  0.5263 -0.0738
  615MOL0     H84834   7.927   2.359   2.629  0.3088  1.1885  0.9215
  615MOL0     H84835   7.777   2.256   2.625  0.7692 -2.5507 -0.9962
  615MOL0     H84836   7.783   2.240   2.872 -1.3856  0.5888 -0.9145
  615MOL0     H84837   7.941   2.317   2.880  0.2712  1.9044  1.1236
  615MOL0     H84838   7.677   2.448   2.778 -1.4195 -3.2583  2.0770
  615MOL0     H84839   7.834   2.522   2.807  4.4472 -2.4135 -0.1693
  615MOL0     H84840   7.717   2.577   3.001 -0.1034 -0.6541  0.9886
  615MOL0     H84841   7.781   2.412   3.049  1.2697 -0.3021  0.4172
  615MOL0     H84842   7.505   2.465   2.924  1.1775  0.3557  0.3024
  615MOL0     H84843   7.578   2.323   2.981  3.2865  0.1221 -2.1480
  615MOL0     H84844   7.579   2.534   3.194 -0.3196  0.6282  1.6533
  615MOL0     H84845   7.580   2.358   3.197  0.1389 -0.2115 -1.6115
  615MOL0     H84846   7.341   2.378   3.131 -0.8919  0.0752  1.0672
  615MOL0     H84847   7.350   2.552   3.178  2.7231  2.3372  2.8303
  615MOL0     H84848   7.263   2.450   3.376 -1.1927  0.5776 -2.9365
  615MOL0     H84849   7.423   2.482   3.403 -1.0524 -1.8564  1.8150
  615MOL0     H84850   8.108   1.980   2.719  0.5212  1.1255 -0.0555
  615MOL0     H84851   8.151   1.804   2.524 -1.7849 -1.5331 -0.8415
  615MOL0     H84852   7.978   1.562   2.313 -0.5341  0.9216 -1.7253
  615MOL0     H84853   8.036   1.331   2.309  2.5679 -4.6251 -1.5414
  615MOL0     H84854   9.290   1.387   3.120  1.1427 -0.4333 -0.2962
  615MOL0     H84855   9.516   1.333   3.243 -0.6375  1.6699 -2.0056
  615MOL0     H84856   9.629   1.095   3.532  1.9768  0.6809 -1.3153
  615MOL0     H84857   9.797   0.921   3.604 -2.9940  0.1493  0.3500
  615MOL0     H84858  10.038   1.036   3.954 -0.2074 -0.5562  0.6084
  615MOL0     H84859  10.093   0.874   3.914 -1.7455  1.3207  2.3257
  615MOL0     H84860  10.250   1.113   3.881  0.9635  0.6597 -0.5510
  615MOL0     H84861  10.225   1.035   3.721 -0.7612 -2.3056 -0.5652
  615MOL0     H84862  10.434   0.964   3.864  2.6569 -6.1624  0.5158
  615MOL0     H84863  10.316   0.912   3.983 -3.3835  3.2027 -0.3005
  615MOL0     H84864  10.301   0.809   3.691  2.3622 -4.1419 -0.5594
  615MOL0     H84865  10.228   0.743   3.827  1.6404 -2.1093 -0.3960
  615MOL0     H84866  10.606   0.580   3.880  1.1062  1.5401 -1.9485
  615MOL0     H84867  10.001   1.207   3.839  2.5282 -3.5150 -1.8592
  615MOL0     H84868   9.900   1.431   3.891  0.3980  0.7285 -1.9403
  615MOL0     H84869   9.816   1.494   3.762  3.1277  0.6165 -2.1525
  615MOL0     H84870   9.725   1.411   3.899  0.2572 -0.8347 -1.3736
  616MOL0     O84871   5.005   9.409   9.670 -0.2639  0.4460  0.3390
  616MOL0     C84872   5.008   9.450   9.779  0.6056  0.0741 -0.1198
  616MOL0     O84873   5.055   9.575   9.817  0.0316 -0.2666 -0.8980
  616MOL0     C84874   5.097   9.665   9.716  0.4595  0.1560  0.8619
  616MOL0     C84875   5.233   9.671   9.676 -0.3598  0.1699 -0.3216
  616MOL0     C84876   5.290   9.759   9.590 -0.0188 -0.1472  0.7094
  616MOL0     C84877   5.209   9.858   9.527 -0.1735  0.5414 -0.2264
  616MOL0     O84878   5.280   9.940   9.443 -0.2928  0.9268  0.0869
  616MOL0     C84879   5.208  10.003   9.336  0.0908 -0.4366 -0.1753
  616MOL0     C84880   5.294  10.114   9.266  0.0772  0.0166 -0.8227
  616MOL0     C84881   5.231  10.161   9.142  0.5837 -0.9313 -0.4840
  616MOL0     C84882   5.316  10.272   9.078  0.2488 -0.0738  0.1376
  616MOL0     C84883   5.290  10.347   8.945 -0.0424 -0.0326 -0.1768
  616MOL0     C84884   5.207  10.465   8.975  0.6715  0.4015 -0.1100
  616MOL0     C84885   5.176  10.527   8.841 -1.2182 -0.0048  0.1456
  616MOL0     C84886   5.075  10.642   8.866 -0.3420 -0.3167  0.7403
  616MOL0     N84887   4.929  10.630   8.821 -0.6183  0.5528 -0.2969
  616MOL0     C84888   4.893  10.573   8.702 -0.2123 -1.2416 -0.9516
  616MOL0     C84889   4.758  10.565   8.711  0.5275 -0.5948 -1.1020
  616MOL0     C84890   4.668  10.512   8.600 -0.7993 -0.9119 -0.3272
  616MOL0     C84891   4.590  10.620   8.528  0.3558  0.3377  0.7249
  616MOL0     C84892   4.486  10.557   8.426 -0.0077 -0.2343 -0.4157
  616MOL0     C84893   4.426  10.669   8.345 -0.3717 -0.2370 -0.2557
  616MOL0     O84894   4.522  10.716   8.251  0.7199  0.6753 -0.1323
  616MOL0     C84895   4.533  10.649   8.135 -0.0591 -0.2466  0.1644
  616MOL0     C84896   4.653  10.619   8.071 -0.2383 -0.4311 -0.1740
  616MOL0     C84897   4.670  10.561   7.940 -0.4440 -0.0542  0.2810
  616MOL0     C84898   4.816  10.559   7.888  0.7982 -0.0526 -0.5171
  616MOL0     C84899   4.554  10.524   7.865  0.4726  0.0591  0.9627
  616MOL0     C84900   4.561  10.459   7.732  0.0060  0.3947  0.1269
  616MOL0     O84901   4.463  10.380   7.677 -0.3504 -0.4062  0.0019
  616MOL0     C84902   4.497  10.297   7.576  0.3410  0.2308  0.1432
  616MOL0     C84903   4.415  10.284   7.470 -0.2461 -0.0060  0.3433
  616MOL0     C84904   4.449  10.196   7.366 -0.7178  0.5293  0.0648
  616MOL0     C84905   4.562  10.114   7.375 -0.6785  0.7314 -0.0392
  616MOL0     O84906   4.610  10.036   7.276 -0.7053 -0.2145 -0.2384
  616MOL0     C84907   4.584  10.072   7.144 -1.0513  0.9167 -0.4102
  616MOL0     C84908   4.668  10.011   7.039 -0.8496 -0.0400 -0.7596
  616MOL0     C84909   4.644  10.064   6.898  0.3078  0.9135  0.9269
  616MOL0     C84910   4.725   9.997   6.788 -1.3655  0.0623  0.0806
  616MOL0     C84911   4.650   9.956   6.663  0.1961 -0.1844  0.1950
  616MOL0     C84912   4.676  10.045   6.541 -0.9286  0.3604  0.6264
  616MOL0     C84913   4.616  10.188   6.549  0.3400 -0.6944  0.3022
  616MOL0     C84914   4.617  10.290   6.429  0.4038  0.0814 -0.8906
  616MOL0    Cl84915   4.511  10.421   6.466 -0.6367 -0.5540 -0.3322
  616MOL0     C84916   4.647  10.128   7.482 -1.2325  1.2174  0.5110
  616MOL0     C84917   4.616  10.223   7.579 -0.7383 -0.1229  0.3027
  616MOL0     O84918   4.659  10.502   7.665 -0.5519 -0.0970  0.2266
  616MOL0     C84919   4.424  10.558   7.923 -0.6750  1.2048  0.6613
  616MOL0     C84920   4.421  10.625   8.051  1.1297 -0.7292  0.2361
  616MOL0     N84921   4.722  10.617   8.828  0.3682 -0.9293  0.2291
  616MOL0     N84922   4.822  10.665   8.889  1.3093 -0.1729 -0.0886
  616MOL0     C84923   5.074   9.860   9.569  0.2930 -0.3284  0.6600
  616MOL0     C84924   5.021   9.765   9.656  0.1281 -0.7583  0.2653
  616MOL0     C84925   4.943   9.359   9.875  0.5540  0.0479 -0.4982
  616MOL0     C84926   4.985   9.223   9.869 -0.2724 -0.4658 -0.2464
  616MOL0     C84927   4.929   9.117   9.947  0.0138  0.5168 -0.0747
  616MOL0     C84928   4.835   9.150  10.046  0.1354  0.8915 -0.5169
  616MOL0     O84929   4.781   9.044  10.114  0.5556 -0.4684 -0.3790
  616MOL0     C84930   4.658   9.053  10.176  0.5215  0.0221 -0.9328
  616MOL0     C84931   4.581   8.920  10.172 -0.4641  0.7487 -0.0957
  616MOL0     C84932   4.543   8.883  10.025  0.1918  1.2433  0.5545
  616MOL0     C84933   4.431   8.781  10.022  0.0851 -1.0296 -0.1420
  616MOL0     C84934   4.387   8.756   9.881  0.1881  1.1086  0.1897
  616MOL0     C84935   4.359   8.741   9.763  1.2806 -0.6527  0.7363
  616MOL0     C84936   4.801   9.289  10.068  0.3974  0.2008  0.6878
  616MOL0     C84937   4.853   9.394   9.986 -0.6368  0.3688 -0.5893
  616MOL0     C84938   4.819   9.541  10.029 -0.2448  0.8031  0.2923
  616MOL0     H84939   5.303   9.594   9.707  0.1211  0.9082  0.4563
  616MOL0     H84940   5.397   9.760   9.570 -0.5107  3.5530 -3.4738
  616MOL0     H84941   5.127  10.060   9.383  0.5230  0.6049 -0.6449
  616MOL0     H84942   5.167   9.931   9.265 -2.1421  1.0158 -0.4461
  616MOL0     H84943   5.329  10.197   9.328  4.1607 -3.1448  1.6322
  616MOL0     H84944   5.383  10.057   9.238  0.8539 -1.3186  3.5577
  616MOL0     H84945   5.242  10.083   9.066 -1.5605 -1.3253 -0.4568
  616MOL0     H84946   5.125  10.188   9.148  0.9418  0.7527 -1.1425
  616MOL0     H84947   5.343  10.331   9.166 -0.2296 -2.7067  2.1977
  616MOL0     H84948   5.408  10.217   9.057  1.3800  1.6024  0.4998
  616MOL0     H84949   5.230  10.278   8.885  1.3454 -0.2575 -1.3433
  616MOL0     H84950   5.378  10.391   8.896 -0.4213  2.7874  1.4246
  616MOL0     H84951   5.112  10.439   9.023  0.2249 -0.6112 -1.4694
  616MOL0     H84952   5.261  10.532   9.042 -1.5206  1.0364  1.0881
  616MOL0     H84953   5.133  10.452   8.773  2.3057  0.7753 -3.2631
  616MOL0     H84954   5.267  10.565   8.795 -1.4553 -0.6188 -0.8597
  616MOL0     H84955   5.071  10.671   8.972  0.2300 -1.6065  1.1384
  616MOL0     H84956   5.103  10.740   8.826 -3.2938  0.8835  1.3442
  616MOL0     H84957   4.958  10.550   8.618  0.2455  1.8226 -1.5413
  616MOL0     H84958   4.596  10.441   8.642 -1.1841  0.2431  1.0379
  616MOL0     H84959   4.726  10.448   8.532 -0.5608 -1.4895  0.3946
  616MOL0     H84960   4.532  10.686   8.591 -0.8839 -1.1219  1.1794
  616MOL0     H84961   4.664  10.678   8.472  2.4962 -3.3424 -0.7031
  616MOL0     H84962   4.530  10.476   8.367 -1.0686  0.4838 -2.2696
  616MOL0     H84963   4.406  10.514   8.488  0.6225 -0.7894  0.0236
  616MOL0     H84964   4.334  10.634   8.297 -1.8198  1.0658  1.4307
  616MOL0     H84965   4.395  10.754   8.406  0.1333  0.8164 -1.4298
  616MOL0     H84966   4.742  10.652   8.123 -1.1534 -3.5218  3.8554
  616MOL0     H84967   4.880  10.611   7.959  1.2214  1.2256 -1.7902
  616MOL0     H84968   4.832  10.600   7.788  0.9743  1.5461  0.1480
  616MOL0     H84969   4.853  10.456   7.888  0.8510 -0.0350 -0.1777
  616MOL0     H84970   4.324  10.340   7.488  1.0394  1.0622  4.9587
  616MOL0     H84971   4.380  10.189   7.282 -0.9940 -0.5728  0.3529
  616MOL0     H84972   4.482  10.041   7.122  0.2093 -3.3146 -1.2186
  616MOL0     H84973   4.596  10.181   7.152  0.2159  0.8198 -0.7556
  616MOL0     H84974   4.776  10.032   7.046 -0.8631  1.1718 -3.1671
  616MOL0     H84975   4.645   9.905   7.052 -2.5502  0.4703  0.6248
  616MOL0     H84976   4.658  10.172   6.889 -2.7078  1.2669 -1.3674
  616MOL0     H84977   4.537  10.047   6.880 -0.2188  3.5257  1.1425
  616MOL0     H84978   4.767   9.901   6.821  1.7820  1.7638  1.4064
  616MOL0     H84979   4.814  10.055   6.760 -0.4310 -1.2625  0.2033
  616MOL0     H84980   4.687   9.859   6.631  4.8658 -0.2108  4.4622
  616MOL0     H84981   4.544   9.938   6.686 -0.1236 -0.0526 -1.1221
  616MOL0     H84982   4.637  10.004   6.447  3.1655  0.9991 -1.5702
  616MOL0     H84983   4.782  10.057   6.515 -1.7338  2.5639 -2.1406
  616MOL0     H84984   4.677  10.241   6.622  2.6519  0.1554 -2.0647
  616MOL0     H84985   4.515  10.184   6.590  0.2562  1.2490  0.3535
  616MOL0     H84986   4.574  10.235   6.344  2.7002 -2.7401 -0.4016
  616MOL0     H84987   4.718  10.316   6.398  1.4400 -0.9065  1.3836
  616MOL0     H84988   4.728  10.056   7.486 -1.8498  0.1108 -2.9585
  616MOL0     H84989   4.677  10.232   7.668 -0.2927 -1.8084  0.2011
  616MOL0     H84990   4.328  10.532   7.882  0.4200  1.1076 -2.0221
  616MOL0     H84991   4.327  10.669   8.083  0.7983 -1.5213  0.3766
  616MOL0     H84992   5.005   9.937   9.535 -0.5735 -1.0095  0.8526
  616MOL0     H84993   4.915   9.759   9.677 -0.7592  0.2057 -3.3085
  616MOL0     H84994   5.075   9.207   9.811  2.4716 -0.0041  3.5509
  616MOL0     H84995   4.970   9.019   9.929  0.1141  0.8527 -1.9484
  616MOL0     H84996   4.681   9.073  10.281  2.5761  1.6110 -1.6252
  616MOL0     H84997   4.597   9.133  10.133 -1.5963 -0.4225  1.0424
  616MOL0     H84998   4.491   8.922  10.235  0.2623  0.6978  0.9763
  616MOL0     H84999   4.644   8.839  10.211 -0.1961  0.1820 -1.6419
  616MOL0     H85000   4.524   8.973   9.965 -1.1310  0.8494  0.3476
  616MOL0     H85001   4.637   8.844   9.985  1.0050 -0.9168  4.2149
  616MOL0     H85002   4.345   8.817  10.079  0.4795 -0.0757 -0.1153
  616MOL0     H85003   4.459   8.682  10.059  0.7286 -1.1228 -0.8338
  616MOL0     H85004   4.344   8.708   9.662 -2.1978  1.3325  0.4640
  616MOL0     H85005   4.734   9.326  10.145 -0.9674  2.2346 -1.3754
  616MOL0     H85006   4.725   9.541  10.084 -0.5795 -1.2329 -0.1597
  616MOL0     H85007   4.894   9.580  10.098 -0.8114  1.5949  0.4773
  616MOL0     H85008   4.809   9.613   9.947  0.3055  0.0986 -0.4116
  617MOL0     O85009   6.872   7.819  11.496 -0.3253  0.1011  0.0025
  617MOL0     C85010   6.803   7.888  11.566 -0.6047 -0.6704  0.1682
  617MOL0     O85011   6.679   7.937  11.544 -0.0820 -1.2415  0.4922
  617MOL0     C85012   6.599   7.897  11.434 -0.5238 -0.6682  0.4155
  617MOL0     C85013   6.649   7.895  11.303 -0.5552  0.1057  0.4312
  617MOL0     C85014   6.569   7.855  11.193 -0.3044 -0.2785  0.5931
  617MOL0     C85015   6.437   7.813  11.211  0.1651  0.4029 -0.8199
  617MOL0     O85016   6.380   7.767  11.097 -0.2457 -0.1620 -0.1132
  617MOL0     C85017   6.242   7.800  11.072 -0.7338 -0.4044  0.0389
  617MOL0     C85018   6.204   7.817  10.923  0.8345  0.6943 -0.3144
  617MOL0     C85019   6.197   7.693  10.831  1.2204 -0.3296 -0.4739
  617MOL0     C85020   6.330   7.634  10.834  0.4176  0.4664 -0.3488
  617MOL0     C85021   6.353   7.534  10.720  0.3849  0.5779 -0.0437
  617MOL0     C85022   6.492   7.468  10.717  0.5361 -0.2126  1.2120
  617MOL0     C85023   6.501   7.341  10.631  0.2664 -0.7233  0.4147
  617MOL0     C85024   6.419   7.221  10.690  0.2448 -0.8012  0.1069
  617MOL0     N85025   6.459   7.203  10.826 -0.6167  0.1808  0.4502
  617MOL0     C85026   6.382   7.192  10.941 -0.3477 -1.3096  0.9998
  617MOL0     C85027   6.475   7.193  11.036  0.4017 -0.4391 -0.1663
  617MOL0     C85028   6.440   7.195  11.186 -0.4199  0.6926 -1.2560
  617MOL0     C85029   6.369   7.321  11.216  0.3930  0.3590  0.4531
  617MOL0     C85030   6.469   7.445  11.223  0.3635  0.8558 -0.4649
  617MOL0     C85031   6.504   7.495  11.368  0.7157 -0.7056  0.6357
  617MOL0     O85032   6.550   7.387  11.448  0.1141 -0.1264 -0.6944
  617MOL0     C85033   6.635   7.414  11.555 -0.3179  0.0666  0.3199
  617MOL0     C85034   6.686   7.298  11.618  0.2281  0.6799 -0.2111
  617MOL0     C85035   6.772   7.310  11.730 -0.5813  0.4855 -0.6848
  617MOL0     C85036   6.798   7.169  11.789 -0.0033 -0.2043  1.3014
  617MOL0     C85037   6.825   7.442  11.773  0.2791  0.0139  0.0827
  617MOL0     C85038   6.933   7.475  11.871 -0.5343 -0.3005 -0.0478
  617MOL0     O85039   6.987   7.605  11.874 -0.5887 -0.6719 -0.3699
  617MOL0     C85040   7.099   7.621  11.951 -0.6027 -0.0638  0.2239
  617MOL0     C85041   7.231   7.608  11.905  0.2248  0.3167 -0.6119
  617MOL0     C85042   7.345   7.611  11.989  0.9047 -0.1789  0.6305
  617MOL0     C85043   7.336   7.637  12.120  1.0180 -0.4865 -0.8202
  617MOL0     O85044   7.454   7.649  12.199 -0.0417  0.1058 -0.1074
  617MOL0     C85045   7.462   7.603  12.330  0.2860  0.0522  0.3956
  617MOL0     C85046   7.524   7.466  12.328  0.0759 -0.7535  0.4725
  617MOL0     C85047   7.553   7.399  12.459 -0.7978  0.4505 -0.0353
  617MOL0     C85048   7.594   7.251  12.445 -0.3786  0.6003  0.5397
  617MOL0     C85049   7.629   7.207  12.579  0.0513  0.5815 -0.7765
  617MOL0     C85050   7.654   7.051  12.581  0.8655 -0.4208  0.5249
  617MOL0     C85051   7.784   6.998  12.515  0.5098  0.5345 -0.4277
  617MOL0     C85052   7.900   6.969  12.609  0.2152 -0.1599 -0.8979
  617MOL0    Cl85053   8.066   6.974  12.527 -0.1945  0.0727  0.2865
  617MOL0     C85054   7.196   7.656  12.171  0.1146 -0.3823 -0.9351
  617MOL0     C85055   7.089   7.654  12.085  0.3152 -0.0413 -0.5566
  617MOL0     O85056   6.952   7.389  11.952 -0.7000 -0.2743  0.2256
  617MOL0     C85057   6.765   7.550  11.707  0.2475  0.1672 -0.2245
  617MOL0     C85058   6.672   7.539  11.607 -0.4931  0.0435  0.2696
  617MOL0     N85059   6.601   7.177  10.991  0.2689 -0.1679  0.3864
  617MOL0     N85060   6.584   7.173  10.862 -0.3482 -0.7577 -0.6289
  617MOL0     C85061   6.381   7.805  11.342 -0.2361  0.3303  0.8240
  617MOL0     C85062   6.460   7.859  11.447 -0.4321 -0.8554 -0.7133
  617MOL0     C85063   6.847   7.909  11.704  0.2819 -0.4070  0.6163
  617MOL0     C85064   6.747   7.920  11.800 -0.5743 -0.1792  0.7266
  617MOL0     C85065   6.769   7.963  11.929  0.2723 -0.1537 -0.0016
  617MOL0     C85066   6.896   7.989  11.972  0.0010  0.6349 -0.3952
  617MOL0     O85067   6.916   8.035  12.099  0.2925  0.0637  0.5179
  617MOL0     C85068   7.038   8.026  12.172 -0.2218 -0.4083 -0.1324
  617MOL0     C85069   7.122   8.156  12.176 -0.3617 -0.2236 -0.4748
  617MOL0     C85070   7.055   8.260  12.266  0.1053  0.7400 -0.2486
  617MOL0     C85071   7.137   8.384  12.276  0.2479 -0.3971 -0.0371
  617MOL0     C85072   7.058   8.496  12.334  0.3853  0.0018  0.7567
  617MOL0     C85073   6.970   8.574  12.375 -0.6173  0.4136 -0.6496
  617MOL0     C85074   7.002   7.973  11.874  0.5347  0.3708 -0.0498
  617MOL0     C85075   6.972   7.933  11.749  0.3742 -0.8117  0.0409
  617MOL0     C85076   7.084   7.926  11.652  0.1818 -0.0889  0.3845
  617MOL0     H85077   6.754   7.918  11.288 -0.3781  1.4335  3.2264
  617MOL0     H85078   6.623   7.857  11.098  0.1760 -0.7929  0.8539
  617MOL0     H85079   6.229   7.900  11.116  0.6614  1.2293 -3.0012
  617MOL0     H85080   6.176   7.731  11.126  0.2412  0.2735  2.2417
  617MOL0     H85081   6.108   7.869  10.933 -0.2016 -1.1951  0.1664
  617MOL0     H85082   6.277   7.887  10.881  1.6209  0.5585  0.7868
  617MOL0     H85083   6.117   7.629  10.869 -0.7121  3.7453  3.3961
  617MOL0     H85084   6.162   7.720  10.731 -0.7873  1.8092  0.6908
  617MOL0     H85085   6.398   7.718  10.816 -1.7824  2.2380 -0.8065
  617MOL0     H85086   6.348   7.598  10.936 -1.7932 -1.2385 -0.4652
  617MOL0     H85087   6.335   7.563  10.616 -0.8819 -1.1094 -0.3294
  617MOL0     H85088   6.284   7.451  10.736 -0.1234  0.8989 -0.5380
  617MOL0     H85089   6.562   7.544  10.680 -1.5839  1.9854  1.4535
  617MOL0     H85090   6.526   7.447  10.819  2.0998  0.3906  0.8431
  617MOL0     H85091   6.607   7.320  10.616  0.2318 -0.1591 -0.7246
  617MOL0     H85092   6.462   7.370  10.533 -0.3042  3.7556  1.7070
  617MOL0     H85093   6.312   7.243  10.694  0.0332 -1.1207 -2.2473
  617MOL0     H85094   6.430   7.125  10.638 -3.7544 -1.5881  0.3807
  617MOL0     H85095   6.274   7.189  10.942 -0.3994 -2.1191 -1.0019
  617MOL0     H85096   6.527   7.171  11.247  0.0263 -0.6200 -2.3533
  617MOL0     H85097   6.368   7.113  11.185  0.5428 -0.1806 -0.4659
  617MOL0     H85098   6.294   7.335  11.137 -0.3108 -2.0953  0.6131
  617MOL0     H85099   6.318   7.305  11.311  0.1441 -3.3578 -0.1478
  617MOL0     H85100   6.565   7.431  11.172 -0.3206 -0.8142 -1.3665
  617MOL0     H85101   6.429   7.533  11.172  0.9975  1.8079  0.6133
  617MOL0     H85102   6.584   7.568  11.353  1.4519 -1.5988  0.1299
  617MOL0     H85103   6.415   7.547  11.404 -1.4757 -1.7115 -2.8522
  617MOL0     H85104   6.658   7.204  11.572 -0.6320  0.6951  0.2590
  617MOL0     H85105   6.907   7.161  11.788  0.2888  2.5147 -0.3727
  617MOL0     H85106   6.764   7.089  11.723  0.7369 -0.1417  0.8250
  617MOL0     H85107   6.752   7.160  11.887  1.5091 -3.0112  1.8573
  617MOL0     H85108   7.227   7.571  11.803 -3.0965 -0.5398 -0.2937
  617MOL0     H85109   7.441   7.594  11.940  0.8967 -0.5474  0.7425
  617MOL0     H85110   7.517   7.672  12.395 -2.2055  1.0014  1.6257
  617MOL0     H85111   7.362   7.591  12.371 -0.6475 -1.5954 -2.1554
  617MOL0     H85112   7.462   7.400  12.266  1.8874 -0.0574 -2.2273
  617MOL0     H85113   7.620   7.458  12.277  0.7400 -5.1740  1.9331
  617MOL0     H85114   7.472   7.412  12.531 -0.9631 -0.8277  0.0161
  617MOL0     H85115   7.646   7.446  12.492 -0.2244  0.9197 -2.1575
  617MOL0     H85116   7.678   7.248  12.375 -0.7630 -1.7855  0.1012
  617MOL0     H85117   7.512   7.199  12.396 -0.1528  1.4886 -0.8283
  617MOL0     H85118   7.712   7.264  12.620  0.1582  1.8475 -2.6630
  617MOL0     H85119   7.553   7.250  12.645  1.0465  0.5350  0.4457
  617MOL0     H85120   7.566   7.001  12.540  1.3827 -2.0923  1.3597
  617MOL0     H85121   7.653   7.019  12.685  0.1076 -2.8032 -0.1479
  617MOL0     H85122   7.813   7.069  12.436 -5.0966  2.8148 -0.9183
  617MOL0     H85123   7.750   6.902  12.477 -3.5792  1.8628 -0.5902
  617MOL0     H85124   7.890   6.868  12.651  1.0981  0.3247  0.5349
  617MOL0     H85125   7.898   7.044  12.688  2.4877  1.0894 -1.9296
  617MOL0     H85126   7.183   7.672  12.278  2.8158 -2.5013 -0.1779
  617MOL0     H85127   6.994   7.660  12.137  2.0779  2.6436  2.7504
  617MOL0     H85128   6.801   7.649  11.732  1.8405 -0.3993 -0.1531
  617MOL0     H85129   6.644   7.632  11.559  3.0350  1.2714  0.3590
  617MOL0     H85130   6.301   7.737  11.371  1.2639 -0.5601  3.2448
  617MOL0     H85131   6.419   7.866  11.547  3.1356  0.4982  0.8289
  617MOL0     H85132   6.640   7.903  11.797 -0.0942 -5.4032  2.9547
  617MOL0     H85133   6.680   7.989  11.985  2.0645  2.1152  2.0098
  617MOL0     H85134   7.002   7.990  12.269 -1.2207  0.7834 -0.0393
  617MOL0     H85135   7.104   7.947  12.136 -0.0235 -0.3298  0.0598
  617MOL0     H85136   7.124   8.196  12.074 -0.0341  2.5113  0.5066
  617MOL0     H85137   7.223   8.132  12.210 -1.6865 -4.2748  1.1951
  617MOL0     H85138   6.954   8.282  12.228 -0.3655 -0.3176  0.3412
  617MOL0     H85139   7.040   8.218  12.365  0.3509  1.5961  0.1609
  617MOL0     H85140   7.168   8.414  12.176  0.3132 -0.5583 -0.0649
  617MOL0     H85141   7.227   8.359  12.333 -0.2479 -0.7094  0.6239
  617MOL0     H85142   6.899   8.626  12.436 -1.5079 -1.4517 -0.0363
  617MOL0     H85143   7.101   8.004  11.909  1.7157 -2.4845 -0.5814
  617MOL0     H85144   7.046   7.956  11.554  0.6509 -1.6664 -0.3242
  617MOL0     H85145   7.165   7.995  11.678 -1.2654  1.8796 -0.0883
  617MOL0     H85146   7.112   7.823  11.627 -1.3650 -1.6391  4.3323
  618MOL0     O85147   0.394   3.279   8.041  0.3372 -0.2459 -0.6032
  618MOL0     C85148   0.437   3.290   7.929  0.4923 -0.3409  0.1559
  618MOL0     O85149   0.390   3.218   7.821  0.1283 -0.1827  0.3361
  618MOL0     C85150   0.259   3.175   7.805 -0.5537  0.3633 -0.2150
  618MOL0     C85151   0.153   3.236   7.868  0.2126 -0.2071 -0.0481
  618MOL0     C85152   0.025   3.180   7.855 -0.6315  0.3016 -0.2740
  618MOL0     C85153   0.005   3.068   7.772 -0.0942  0.7986  0.2858
  618MOL0     O85154  -0.109   3.004   7.733 -0.4751  0.0201  0.1352
  618MOL0     C85155  -0.234   3.072   7.770  0.0298 -0.2831 -0.5517
  618MOL0     C85156  -0.351   2.997   7.697  0.3468  0.4180 -0.2411
  618MOL0     C85157  -0.492   3.042   7.736 -0.3344 -0.3777  0.1481
  618MOL0     C85158  -0.515   3.196   7.751  0.8803  1.0429 -0.3070
  618MOL0     C85159  -0.668   3.221   7.746 -0.1984  0.5973 -0.3894
  618MOL0     C85160  -0.730   3.185   7.882 -0.4894 -0.0233 -0.2570
  618MOL0     C85161  -0.885   3.203   7.871  0.2682  0.6392 -0.4001
  618MOL0     C85162  -0.937   3.347   7.883 -0.3202 -0.8188  0.4751
  618MOL0     N85163  -1.082   3.359   7.918  1.1289 -0.4178 -0.6985
  618MOL0     C85164  -1.165   3.273   7.986  0.4521 -0.3985  0.7853
  618MOL0     C85165  -1.289   3.334   7.985 -0.7164 -0.2835  0.4675
  618MOL0     C85166  -1.415   3.288   8.046  0.1980 -0.4924  0.1816
  618MOL0     C85167  -1.491   3.187   7.962 -0.1154  0.1150 -0.5227
  618MOL0     C85168  -1.419   3.065   7.914  0.2254  0.9885  0.8368
  618MOL0     C85169  -1.500   2.985   7.820  0.8315 -0.1846  0.3081
  618MOL0     O85170  -1.410   2.894   7.753 -0.3793 -1.0813 -0.7878
  618MOL0     C85171  -1.456   2.785   7.685  0.2736  0.1822 -0.2631
  618MOL0     C85172  -1.366   2.705   7.620 -0.0010 -0.0406  0.1663
  618MOL0     C85173  -1.399   2.598   7.529 -0.6835  0.2267 -0.7915
  618MOL0     C85174  -1.279   2.553   7.450 -0.5323  0.2652  0.1406
  618MOL0     C85175  -1.537   2.568   7.510  0.0905  0.8958  0.2992
  618MOL0     C85176  -1.591   2.459   7.427 -0.8146  0.4917 -0.2581
  618MOL0     O85177  -1.723   2.454   7.400 -0.2996  0.8364 -0.4035
  618MOL0     C85178  -1.769   2.372   7.305 -0.1864  0.0066 -0.1018
  618MOL0     C85179  -1.726   2.359   7.175 -0.1167  0.1691  0.0607
  618MOL0     C85180  -1.806   2.291   7.078  0.0772  0.1215  0.7403
  618MOL0     C85181  -1.929   2.234   7.114  0.6664 -0.6258  0.2203
  618MOL0     O85182  -2.012   2.175   7.026 -0.2255  0.2214 -0.3113
  618MOL0     C85183  -1.957   2.125   6.899  0.4122  0.1030  0.0333
  618MOL0     C85184  -1.913   1.985   6.933  0.0656  0.0635  0.3351
  618MOL0     C85185  -2.031   1.890   6.961  0.0218  0.6292  0.7128
  618MOL0     C85186  -1.986   1.740   6.956 -1.2155 -0.5182 -0.2358
  618MOL0     C85187  -2.088   1.655   7.021  0.3051 -0.2866 -0.2233
  618MOL0     C85188  -2.054   1.510   6.967 -0.0321  0.0133 -0.6235
  618MOL0     C85189  -2.176   1.410   7.017  0.0792  0.4340  0.4871
  618MOL0     C85190  -2.159   1.274   6.964 -0.0683 -0.2492  0.5622
  618MOL0    Cl85191  -2.297   1.255   6.842  0.2165  0.2177  0.0757
  618MOL0     C85192  -1.971   2.241   7.241  0.0444 -0.2166 -0.4327
  618MOL0     C85193  -1.898   2.311   7.334 -0.1444 -0.3745  0.8943
  618MOL0     O85194  -1.504   2.385   7.376  0.2419  0.4733  0.2828
  618MOL0     C85195  -1.634   2.647   7.585 -0.2079 -0.2522 -0.7793
  618MOL0     C85196  -1.587   2.757   7.662  0.2322 -0.7496  0.1370
  618MOL0     N85197  -1.277   3.462   7.936  0.6302  0.3922  0.4603
  618MOL0     N85198  -1.155   3.466   7.888  0.4607 -0.5428 -0.7957
  618MOL0     C85199   0.114   3.008   7.708 -0.1005 -0.3518 -0.0355
  618MOL0     C85200   0.240   3.065   7.723 -0.4720  0.7384 -0.2849
  618MOL0     C85201   0.559   3.349   7.913 -0.3795 -0.7192  0.0967
  618MOL0     C85202   0.566   3.475   7.987 -0.1382  0.7288 -0.7568
  618MOL0     C85203   0.681   3.551   7.973 -0.1686  0.3534  0.4780
  618MOL0     C85204   0.789   3.506   7.902  0.0370  0.1191  0.1726
  618MOL0     O85205   0.911   3.578   7.888  0.3627  0.6585 -0.9401
  618MOL0     C85206   0.926   3.713   7.944  0.1396  1.0454  0.5953
  618MOL0     C85207   0.940   3.716   8.089  0.1959  0.2930 -0.2777
  618MOL0     C85208   1.000   3.853   8.127 -0.1952 -0.4259  0.8426
  618MOL0     C85209   1.042   3.861   8.275  0.3044  1.0506 -0.5512
  618MOL0     C85210   0.945   3.811   8.383  0.6617 -1.0369 -0.0231
  618MOL0     C85211   0.868   3.770   8.467  0.1230  0.3123 -0.3498
  618MOL0     C85212   0.781   3.384   7.837 -0.3607  0.7584 -0.1559
  618MOL0     C85213   0.668   3.306   7.849 -0.6290 -0.1104  1.0758
  618MOL0     C85214   0.675   3.179   7.749 -0.2995 -0.0074 -0.2907
  618MOL0     H85215   0.169   3.325   7.929  2.7155  0.1570 -1.1093
  618MOL0     H85216  -0.061   3.230   7.900  0.0407 -0.4729  2.0369
  618MOL0     H85217  -0.226   3.178   7.744 -1.2468 -0.0844 -0.2319
  618MOL0     H85218  -0.240   3.062   7.879 -1.3918  2.0985 -0.3437
  618MOL0     H85219  -0.344   2.997   7.588  0.3970  2.6307 -0.2769
  618MOL0     H85220  -0.335   2.891   7.719  1.7025  0.4779 -0.8473
  618MOL0     H85221  -0.570   2.991   7.677 -1.0556 -1.0308  1.6159
  618MOL0     H85222  -0.485   3.007   7.839 -0.0246 -0.9367 -0.0558
  618MOL0     H85223  -0.476   3.243   7.842  2.4195 -0.1417 -0.3074
  618MOL0     H85224  -0.461   3.238   7.666 -2.7963 -1.7893 -4.4870
  618MOL0     H85225  -0.715   3.167   7.664  0.6980 -4.8913  2.2572
  618MOL0     H85226  -0.671   3.328   7.722 -0.0136 -0.0184 -3.4491
  618MOL0     H85227  -0.701   3.081   7.901 -0.0858 -0.0515 -0.9975
  618MOL0     H85228  -0.679   3.245   7.959 -0.1033  2.7302 -2.5096
  618MOL0     H85229  -0.936   3.149   7.951  3.7157 -0.0084  1.5603
  618MOL0     H85230  -0.928   3.169   7.776  2.1323 -1.7882 -0.4695
  618MOL0     H85231  -0.876   3.396   7.959 -0.1551 -0.4475  0.1033
  618MOL0     H85232  -0.923   3.389   7.783 -1.8237  0.0512  0.6050
  618MOL0     H85233  -1.142   3.174   8.026 -1.0038 -0.0229  2.7020
  618MOL0     H85234  -1.468   3.381   8.068  1.1231 -0.6472  3.6387
  618MOL0     H85235  -1.407   3.239   8.143  0.2565 -2.5659 -0.7973
  618MOL0     H85236  -1.579   3.154   8.019 -2.4140  1.2005 -3.1845
  618MOL0     H85237  -1.530   3.249   7.881  1.7906 -0.1301 -1.6789
  618MOL0     H85238  -1.338   3.103   7.851 -0.3546 -0.9581 -1.2221
  618MOL0     H85239  -1.380   3.002   7.994  1.8815 -0.0610 -0.7160
  618MOL0     H85240  -1.589   2.938   7.864  1.2602 -1.5618 -0.2357
  618MOL0     H85241  -1.553   3.057   7.758 -2.5668 -0.3954  2.6990
  618MOL0     H85242  -1.262   2.733   7.633  0.5631 -1.0967 -1.7525
  618MOL0     H85243  -1.310   2.539   7.346 -0.3618  0.0799  0.1135
  618MOL0     H85244  -1.238   2.466   7.503 -3.7689 -0.0466  2.4103
  618MOL0     H85245  -1.195   2.623   7.454  0.4901 -0.9538  1.1986
  618MOL0     H85246  -1.635   2.409   7.142 -1.0461  2.0540  0.2290
  618MOL0     H85247  -1.768   2.293   6.976 -2.0432 -1.0953 -0.1373
  618MOL0     H85248  -2.038   2.131   6.825  2.0082  1.1902 -1.7198
  618MOL0     H85249  -1.874   2.181   6.855  2.1527 -0.2280  2.6833
  618MOL0     H85250  -1.867   1.950   6.840 -0.5278  0.0344  0.0410
  618MOL0     H85251  -1.846   1.979   7.018 -1.9934  3.2401  2.4152
  618MOL0     H85252  -2.102   1.905   6.879  1.6143  0.6998 -0.6944
  618MOL0     H85253  -2.071   1.901   7.063  0.3572 -0.9006  1.0333
  618MOL0     H85254  -1.894   1.726   7.014 -1.3313 -1.8565 -0.3536
  618MOL0     H85255  -1.973   1.720   6.849  0.9491 -0.7861  0.0368
  618MOL0     H85256  -2.083   1.673   7.128  1.8593 -1.3037 -0.0978
  618MOL0     H85257  -2.184   1.694   6.985  0.0939 -2.0493 -1.7732
  618MOL0     H85258  -1.957   1.483   7.009  0.1224 -0.5070 -1.2855
  618MOL0     H85259  -2.030   1.515   6.860  3.2855 -0.0710  0.0197
  618MOL0     H85260  -2.277   1.444   6.992 -0.5783 -1.7202  0.0093
  618MOL0     H85261  -2.166   1.400   7.125 -0.4274  1.5046  0.6511
  618MOL0     H85262  -2.162   1.206   7.049  1.2370 -1.5299 -0.3620
  618MOL0     H85263  -2.061   1.257   6.919 -1.1934 -0.6977 -1.9080
  618MOL0     H85264  -2.072   2.204   7.256 -1.2277  2.0860 -2.5404
  618MOL0     H85265  -1.946   2.319   7.431 -1.4695  1.1767  0.1508
  618MOL0     H85266  -1.740   2.629   7.576 -0.4455  1.9796 -4.3805
  618MOL0     H85267  -1.662   2.822   7.707  1.5212  2.1664 -1.6765
  618MOL0     H85268   0.105   2.935   7.628 -3.8993  1.5273 -1.6227
  618MOL0     H85269   0.324   3.027   7.666 -0.4231 -1.9782  1.4128
  618MOL0     H85270   0.485   3.511   8.050  1.2254  0.2741  1.3694
  618MOL0     H85271   0.700   3.635   8.039 -0.4404 -1.0569  2.4424
  618MOL0     H85272   1.028   3.733   7.909  0.9121  1.3666  2.8981
  618MOL0     H85273   0.845   3.774   7.903 -4.6695 -2.4386  3.9135
  618MOL0     H85274   1.011   3.637   8.115  2.2874  1.1035 -2.9980
  618MOL0     H85275   0.844   3.694   8.136 -0.4403 -0.4230 -1.8069
  618MOL0     H85276   1.088   3.876   8.067  0.4099 -0.9207  1.5225
  618MOL0     H85277   0.922   3.927   8.106 -0.3467  0.2703  3.4649
  618MOL0     H85278   1.086   3.958   8.299  0.3713  0.4661  2.0480
  618MOL0     H85279   1.122   3.787   8.289  0.5720  1.0981 -1.7595
  618MOL0     H85280   0.799   3.736   8.542  0.3929 -1.6847 -0.9575
  618MOL0     H85281   0.868   3.346   7.784 -1.0148  0.1801 -0.8394
  618MOL0     H85282   0.578   3.145   7.712  0.2497  1.6205 -3.5990
  618MOL0     H85283   0.733   3.199   7.658  0.1357 -1.8034 -0.4440
  618MOL0     H85284   0.709   3.095   7.810 -3.5365  0.3846  2.3155
  619MOL0     O85285   2.284   8.300   5.282  0.4099  0.1814  0.1269
  619MOL0     C85286   2.364   8.208   5.255  0.0765 -0.5463 -0.3421
  619MOL0     O85287   2.364   8.142   5.139 -0.4283  0.5532 -0.7018
  619MOL0     C85288   2.251   8.156   5.054  0.0447 -0.2632  0.9638
  619MOL0     C85289   2.116   8.119   5.086 -0.2540  0.9093  0.1997
  619MOL0     C85290   2.020   8.121   4.987 -0.1817  0.4486 -0.0468
  619MOL0     C85291   2.058   8.160   4.864  0.5114  0.0235  0.5621
  619MOL0     O85292   1.945   8.160   4.784  0.2552  0.4112  0.0153
  619MOL0     C85293   1.977   8.151   4.643  0.4177 -0.3334 -0.8991
  619MOL0     C85294   2.044   8.029   4.585  0.3123  0.3420  0.1685
  619MOL0     C85295   1.941   7.920   4.556  0.5206  0.3597 -0.4276
  619MOL0     C85296   1.981   7.813   4.454  1.0340 -0.3559  0.1841
  619MOL0     C85297   1.854   7.745   4.399 -0.1826  0.0954  0.4649
  619MOL0     C85298   1.837   7.610   4.463  0.5593 -0.0790 -0.1480
  619MOL0     C85299   1.769   7.611   4.594 -0.4011  0.3013 -0.0538
  619MOL0     C85300   1.801   7.485   4.679 -0.4611  0.0797 -0.1603
  619MOL0     N85301   1.750   7.368   4.608 -0.2483  0.2610 -0.4813
  619MOL0     C85302   1.827   7.261   4.576  0.1759  1.1574 -0.9760
  619MOL0     C85303   1.753   7.187   4.490  1.1443 -0.1121  1.0722
  619MOL0     C85304   1.786   7.065   4.413  0.1068 -1.2379 -0.6304
  619MOL0     C85305   1.900   7.100   4.318 -0.1138  0.3821 -0.2048
  619MOL0     C85306   1.968   6.978   4.259 -0.6959 -0.8581  0.2454
  619MOL0     C85307   2.081   7.000   4.165  0.2517 -0.2114 -0.3524
  619MOL0     O85308   2.184   6.902   4.156  0.9023 -0.1868 -1.1470
  619MOL0     C85309   2.308   6.947   4.128 -0.0572  1.2474 -0.4269
  619MOL0     C85310   2.404   6.854   4.157 -1.1559 -0.8175  1.5794
  619MOL0     C85311   2.538   6.877   4.122  0.6449 -0.1085  0.2503
  619MOL0     C85312   2.636   6.778   4.177  0.6168  0.2748 -0.5350
  619MOL0     C85313   2.574   7.000   4.049  0.4073 -0.9357 -0.5553
  619MOL0     C85314   2.708   7.044   4.000  0.9046  0.0175  0.2106
  619MOL0     O85315   2.729   7.169   3.953 -0.1347  0.2310 -0.9772
  619MOL0     C85316   2.852   7.231   3.933  0.3840  0.5545 -0.1942
  619MOL0     C85317   2.850   7.370   3.907  0.1293  0.8114  0.5019
  619MOL0     C85318   2.970   7.425   3.862 -0.0299  0.0306 -0.4272
  619MOL0     C85319   3.093   7.362   3.856 -0.9605  0.0592  0.8138
  619MOL0     O85320   3.209   7.442   3.830  0.8825 -0.6918  0.2090
  619MOL0     C85321   3.329   7.390   3.873 -0.0916  0.4441  0.1006
  619MOL0     C85322   3.410   7.304   3.769  0.2832 -0.2634 -0.3871
  619MOL0     C85323   3.471   7.384   3.665 -0.5178 -0.2314 -0.7387
  619MOL0     C85324   3.369   7.439   3.567 -0.0722  0.7168  0.0339
  619MOL0     C85325   3.436   7.509   3.454 -0.4773  0.5835 -0.4575
  619MOL0     C85326   3.532   7.618   3.495  0.7069 -0.0077  0.2322
  619MOL0     C85327   3.599   7.688   3.370  0.4955  0.2374 -0.6607
  619MOL0     C85328   3.726   7.767   3.401  0.2263  0.6721  0.1541
  619MOL0    Cl85329   3.856   7.650   3.437 -0.4452 -0.1042  0.4515
  619MOL0     C85330   3.085   7.230   3.886 -0.7583  0.5228 -0.5135
  619MOL0     C85331   2.977   7.170   3.941  0.6488 -0.0201  0.5236
  619MOL0     O85332   2.787   6.956   4.007 -0.2547 -0.2787  0.3988
  619MOL0     C85333   2.462   7.083   4.021  0.4362 -1.3934  0.5375
  619MOL0     C85334   2.335   7.065   4.064  0.0850 -0.0817  0.0261
  619MOL0     N85335   1.630   7.250   4.480  0.1953  0.5109  0.2889
  619MOL0     N85336   1.630   7.364   4.544 -0.0901 -0.0141 -0.1819
  619MOL0     C85337   2.189   8.193   4.828  1.5667  0.4106  0.6514
  619MOL0     C85338   2.284   8.192   4.925 -0.2290 -0.4981 -0.5413
  619MOL0     C85339   2.464   8.186   5.356 -0.4736  0.0650  0.0061
  619MOL0     C85340   2.559   8.088   5.331  0.0758  0.7915  1.4797
  619MOL0     C85341   2.662   8.055   5.421 -0.0650  0.5533 -0.3161
  619MOL0     C85342   2.660   8.119   5.541  1.1031  0.4364 -0.4738
  619MOL0     O85343   2.743   8.094   5.640 -0.2274 -0.2359 -0.3237
  619MOL0     C85344   2.828   8.193   5.699  0.5605 -0.4051  0.7733
  619MOL0     C85345   2.942   8.122   5.774 -1.0938  0.1498 -0.0172
  619MOL0     C85346   2.896   8.061   5.910  0.4229 -0.1705 -0.6131
  619MOL0     C85347   2.961   8.127   6.036  0.5129 -0.8339  0.2987
  619MOL0     C85348   2.904   8.263   6.051 -0.1774 -0.0709 -0.6028
  619MOL0     C85349   2.865   8.379   6.047  0.5582 -0.8145  0.2455
  619MOL0     C85350   2.572   8.232   5.566 -0.2553 -0.4736  0.8731
  619MOL0     C85351   2.467   8.260   5.476  0.3673  0.1485 -0.1017
  619MOL0     C85352   2.382   8.387   5.514 -0.9611  1.1890 -0.0406
  619MOL0     H85353   2.080   8.090   5.184 -0.2093 -3.0237 -0.7585
  619MOL0     H85354   1.914   8.111   5.011 -0.3688  2.7473  0.2756
  619MOL0     H85355   2.044   8.236   4.627  0.9771 -0.2612  1.4423
  619MOL0     H85356   1.886   8.174   4.587  1.2995  1.9182 -1.5511
  619MOL0     H85357   2.095   8.077   4.500  1.3154  4.2736  2.7172
  619MOL0     H85358   2.127   7.993   4.646  0.4234  2.4686  1.3743
  619MOL0     H85359   1.930   7.862   4.648 -1.9467  0.7637 -0.4102
  619MOL0     H85360   1.842   7.961   4.537  1.0458  3.1413  2.0609
  619MOL0     H85361   2.053   7.854   4.383  2.3250  0.4439  1.8588
  619MOL0     H85362   2.036   7.745   4.520  0.9519 -0.7389 -0.1446
  619MOL0     H85363   1.878   7.739   4.292  0.0888  1.4808  0.4320
  619MOL0     H85364   1.760   7.800   4.397 -1.2202 -1.5124 -2.5974
  619MOL0     H85365   1.754   7.556   4.415  0.4225  0.2907 -0.3289
  619MOL0     H85366   1.927   7.552   4.439  1.4588  1.6453 -1.1316
  619MOL0     H85367   1.660   7.622   4.594 -0.7616 -1.9881  2.5868
  619MOL0     H85368   1.808   7.693   4.653 -2.1863  1.1660 -0.0023
  619MOL0     H85369   1.910   7.488   4.689 -0.4376  2.7645 -0.4576
  619MOL0     H85370   1.745   7.503   4.771  0.4499  2.8287 -0.0556
  619MOL0     H85371   1.925   7.240   4.618 -0.6752 -0.8856  0.1448
  619MOL0     H85372   1.693   7.030   4.367  1.0002 -1.1563 -2.6366
  619MOL0     H85373   1.806   6.984   4.484 -2.6643  0.2153  2.0522
  619MOL0     H85374   1.862   7.167   4.239 -1.4578  0.1869  0.2497
  619MOL0     H85375   1.974   7.154   4.377 -0.1837  2.0496 -1.5764
  619MOL0     H85376   1.994   6.932   4.355 -2.4898  0.1865  1.2835
  619MOL0     H85377   1.900   6.909   4.209  1.8905 -4.2448  1.0322
  619MOL0     H85378   2.037   7.002   4.065 -1.9229 -1.1854  0.5155
  619MOL0     H85379   2.123   7.099   4.186  5.7736 -1.6510 -2.6929
  619MOL0     H85380   2.391   6.757   4.203  2.8123 -2.1379  0.3192
  619MOL0     H85381   2.594   6.685   4.216  1.6001  0.1373  0.2231
  619MOL0     H85382   2.696   6.824   4.256 -1.7867 -2.9379  3.5614
  619MOL0     H85383   2.696   6.734   4.096 -1.1608 -0.5722 -1.4515
  619MOL0     H85384   2.758   7.426   3.919  1.3972  2.9646  0.6062
  619MOL0     H85385   2.970   7.531   3.839 -3.0752  0.0279 -0.9523
  619MOL0     H85386   3.379   7.462   3.938 -1.5012 -1.7876  4.0362
  619MOL0     H85387   3.309   7.334   3.965  0.0361  2.9921  1.7736
  619MOL0     H85388   3.482   7.265   3.842  0.3022  1.9635  0.8821
  619MOL0     H85389   3.352   7.215   3.741 -0.5273 -0.6928  2.3070
  619MOL0     H85390   3.529   7.310   3.609  1.8777 -0.9669  2.4587
  619MOL0     H85391   3.542   7.457   3.703  0.1081 -0.0930 -2.1131
  619MOL0     H85392   3.313   7.515   3.623  0.9347  0.6556  1.1706
  619MOL0     H85393   3.298   7.363   3.531  0.9591  0.3365 -1.2820
  619MOL0     H85394   3.489   7.432   3.398 -2.8281 -0.3313 -1.5722
  619MOL0     H85395   3.354   7.550   3.394 -3.5795 -0.5272  2.6610
  619MOL0     H85396   3.602   7.560   3.555 -1.1269 -2.3056  0.3102
  619MOL0     H85397   3.482   7.692   3.558  2.7557  1.7637 -0.1354
  619MOL0     H85398   3.527   7.760   3.331  1.3899  0.0678 -2.7578
  619MOL0     H85399   3.633   7.622   3.289  0.3111 -1.0691  0.2962
  619MOL0     H85400   3.710   7.836   3.484 -0.6230 -0.1288  0.6884
  619MOL0     H85401   3.759   7.832   3.320 -0.6136  0.1652 -0.6062
  619MOL0     H85402   3.178   7.175   3.890 -1.3006 -0.3808  0.1095
  619MOL0     H85403   2.983   7.067   3.975  1.1226 -0.1159  0.1475
  619MOL0     H85404   2.494   7.178   3.980  1.4314 -1.1602  1.8064
  619MOL0     H85405   2.261   7.134   4.025  0.3279  0.1545 -0.0152
  619MOL0     H85406   2.211   8.243   4.734 -2.4169  0.4055 -0.4957
  619MOL0     H85407   2.388   8.221   4.921 -0.3994  0.0937 -0.8828
  619MOL0     H85408   2.563   8.048   5.231 -1.0426  0.7859  1.4249
  619MOL0     H85409   2.732   7.975   5.397  0.9685  1.3890 -0.1491
  619MOL0     H85410   2.866   8.273   5.634  1.2548 -1.0083  0.4235
  619MOL0     H85411   2.770   8.252   5.770  1.7135  0.8726  0.6870
  619MOL0     H85412   3.017   8.199   5.793 -0.1649 -0.8102  0.3066
  619MOL0     H85413   2.989   8.048   5.709 -1.4797  0.3764 -0.5592
  619MOL0     H85414   2.787   8.060   5.925  0.6538 -1.7022  1.4481
  619MOL0     H85415   2.936   7.960   5.898  1.7976  0.0374  1.6158
  619MOL0     H85416   3.069   8.138   6.024  0.1234  1.5922 -2.3172
  619MOL0     H85417   2.956   8.059   6.121  1.4852 -2.0316 -0.5527
  619MOL0     H85418   2.842   8.482   6.059  3.2800  0.0206 -0.8857
  619MOL0     H85419   2.582   8.286   5.660 -1.0671  2.3297 -0.5358
  619MOL0     H85420   2.399   8.466   5.440  1.3271 -1.4443 -2.5684
  619MOL0     H85421   2.274   8.384   5.533 -1.2702  0.0704 -1.7672
  619MOL0     H85422   2.426   8.426   5.606  1.6910 -1.2924 -0.1383
  620MOL0     O85423   7.762   7.901   6.223  0.2387 -0.2014  0.3940
  620MOL0     C85424   7.880   7.856   6.225 -0.3078 -0.1282 -0.0341
  620MOL0     O85425   7.990   7.930   6.176 -0.6190  0.5297  0.2679
  620MOL0     C85426   7.961   8.054   6.125  1.0807 -0.0380  0.8870
  620MOL0     C85427   7.992   8.158   6.202 -0.0602 -0.0574  0.4235
  620MOL0     C85428   7.972   8.290   6.157 -0.4803  0.4899 -0.5502
  620MOL0     C85429   7.920   8.315   6.031 -0.3886  0.5218 -0.1520
  620MOL0     O85430   7.898   8.443   5.983  0.2385 -0.2025 -0.9920
  620MOL0     C85431   7.915   8.468   5.847 -0.2670  0.4274 -0.4493
  620MOL0     C85432   8.061   8.481   5.806  0.2230 -0.4369 -0.2798
  620MOL0     C85433   8.092   8.496   5.658 -0.0042  0.0912  0.0970
  620MOL0     C85434   8.059   8.360   5.587  0.0799  1.2701  0.6295
  620MOL0     C85435   8.088   8.379   5.446  0.7810  0.0505  0.3770
  620MOL0     C85436   8.096   8.237   5.384  1.0927 -0.0178 -0.0244
  620MOL0     C85437   7.950   8.177   5.363  0.0970  0.7127  0.4633
  620MOL0     C85438   7.973   8.039   5.291 -0.4922 -0.6553  0.3948
  620MOL0     N85439   7.847   7.971   5.285  0.4627 -0.1022 -0.3289
  620MOL0     C85440   7.737   7.993   5.202  1.1542 -0.6286 -0.2655
  620MOL0     C85441   7.658   7.879   5.218  0.8043 -0.0501 -0.5949
  620MOL0     C85442   7.526   7.848   5.146 -0.6141  0.0896 -0.4907
  620MOL0     C85443   7.440   7.971   5.115 -0.0604 -0.0384 -0.1332
  620MOL0     C85444   7.288   7.944   5.101  0.6721 -0.2017  0.5140
  620MOL0     C85445   7.257   7.872   4.978 -0.5553  0.3459  0.8740
  620MOL0     O85446   7.286   7.962   4.869  0.0272  0.1536  0.0229
  620MOL0     C85447   7.275   7.907   4.739 -2.0784 -0.5133  0.5197
  620MOL0     C85448   7.236   7.776   4.703  0.3282 -0.4640  0.4826
  620MOL0     C85449   7.221   7.738   4.575  0.2170  0.1541  0.4096
  620MOL0     C85450   7.173   7.596   4.553 -0.5193 -0.0360 -0.0251
  620MOL0     C85451   7.252   7.829   4.466 -0.4418 -1.1027 -0.3923
  620MOL0     C85452   7.240   7.795   4.318 -0.4161 -0.4920  0.3733
  620MOL0     O85453   7.308   7.878   4.235  0.3264 -0.4553  0.7727
  620MOL0     C85454   7.274   7.864   4.105 -0.6690  0.1990 -0.7787
  620MOL0     C85455   7.197   7.968   4.047 -0.3595  0.0070 -0.3966
  620MOL0     C85456   7.179   7.966   3.905  1.2375 -0.2328  0.2697
  620MOL0     C85457   7.222   7.854   3.829 -0.1216 -0.8457 -0.3574
  620MOL0     O85458   7.190   7.856   3.705  0.1118  0.0851  0.2784
  620MOL0     C85459   7.050   7.811   3.682 -0.2239 -0.3149  0.0305
  620MOL0     C85460   7.026   7.663   3.697  0.0956  0.1391  0.4126
  620MOL0     C85461   6.949   7.623   3.830  0.0693 -0.7979 -0.0468
  620MOL0     C85462   6.954   7.478   3.849 -0.3560 -0.5484  1.1009
  620MOL0     C85463   7.095   7.415   3.884  1.1101  0.1806  0.4371
  620MOL0     C85464   7.120   7.446   4.030  0.1870 -1.7370 -0.9848
  620MOL0     C85465   7.205   7.330   4.086 -0.2764  0.4689  0.5086
  620MOL0     C85466   7.275   7.371   4.205 -0.8642  0.0970 -0.4563
  620MOL0    Cl85467   7.395   7.246   4.278  0.2326 -0.0134 -0.2541
  620MOL0     C85468   7.304   7.755   3.887  0.7742  1.0780 -0.6530
  620MOL0     C85469   7.335   7.767   4.028 -0.6692  0.2663  0.0826
  620MOL0     O85470   7.168   7.705   4.285  0.5989  0.2644  0.4412
  620MOL0     C85471   7.305   7.960   4.496  0.6959 -0.8881 -0.0925
  620MOL0     C85472   7.315   7.988   4.633 -0.9981 -0.5186 -0.4151
  620MOL0     N85473   7.716   7.792   5.310 -0.0837  0.6688 -0.1303
  620MOL0     N85474   7.826   7.854   5.352  0.9438 -0.1923  0.3250
  620MOL0     C85475   7.891   8.199   5.944 -0.5067 -0.2445  0.1442
  620MOL0     C85476   7.907   8.071   5.998  1.1730 -0.0750 -0.7673
  620MOL0     C85477   7.912   7.725   6.278  0.0360 -0.5051  0.5062
  620MOL0     C85478   8.043   7.679   6.263  0.6836  0.4202 -0.5685
  620MOL0     C85479   8.089   7.564   6.323  0.4457 -0.7335  0.2924
  620MOL0     C85480   8.011   7.491   6.409  0.6168  0.7094  1.3816
  620MOL0     O85481   8.040   7.379   6.473 -0.2728  0.1023 -0.4822
  620MOL0     C85482   8.160   7.322   6.426  0.4852  0.9090 -0.7966
  620MOL0     C85483   8.277   7.382   6.504 -1.3041  0.6342 -0.0554
  620MOL0     C85484   8.408   7.342   6.431  0.1236 -0.0640  0.1078
  620MOL0     C85485   8.538   7.395   6.495  0.3164 -0.8522 -0.5498
  620MOL0     C85486   8.591   7.308   6.610 -0.2719  0.6025 -0.2017
  620MOL0     C85487   8.651   7.237   6.695 -0.6407  0.2481  0.2497
  620MOL0     C85488   7.877   7.525   6.415  0.0894 -0.7706  0.5483
  620MOL0     C85489   7.826   7.642   6.360 -0.5115  0.1539 -0.5521
  620MOL0     C85490   7.686   7.673   6.400  0.2707 -0.9401  0.1317
  620MOL0     H85491   8.042   8.145   6.297  3.0427 -2.9988 -1.3790
  620MOL0     H85492   7.983   8.370   6.229 -1.2394 -3.0295  3.9307
  620MOL0     H85493   7.871   8.567   5.832 -1.9440 -0.0387  1.1031
  620MOL0     H85494   7.869   8.389   5.786  1.8663 -0.6096 -0.8342
  620MOL0     H85495   8.101   8.561   5.869 -1.9231  0.4883 -0.0249
  620MOL0     H85496   8.118   8.393   5.838  0.6338 -0.0893 -0.0240
  620MOL0     H85497   8.036   8.579   5.614  2.1842  0.8024 -1.4858
  620MOL0     H85498   8.198   8.519   5.649  0.3604 -1.3514  0.4087
  620MOL0     H85499   8.120   8.280   5.631 -0.6503  0.0572 -0.5056
  620MOL0     H85500   7.955   8.331   5.600  0.0140  1.9449  1.7380
  620MOL0     H85501   8.184   8.430   5.432 -0.8133  2.6304 -2.4946
  620MOL0     H85502   8.011   8.438   5.393  3.7950  2.4580 -1.6846
  620MOL0     H85503   8.140   8.236   5.284  1.0043  1.4804 -0.0968
  620MOL0     H85504   8.148   8.170   5.453 -0.9367 -0.1137  1.5129
  620MOL0     H85505   7.877   8.233   5.304  0.7089 -0.9462 -1.9844
  620MOL0     H85506   7.896   8.157   5.457 -2.0076 -1.6242 -1.0945
  620MOL0     H85507   8.021   8.051   5.193  1.0676  1.9307  1.3950
  620MOL0     H85508   8.034   7.965   5.344  0.2392 -1.1627 -1.0868
  620MOL0     H85509   7.710   8.075   5.137 -0.3635 -3.5346 -3.6593
  620MOL0     H85510   7.475   7.781   5.215  0.6788  2.0631  2.5925
  620MOL0     H85511   7.555   7.799   5.052 -0.3306 -0.9059  0.1006
  620MOL0     H85512   7.450   8.045   5.195  1.0174  0.6071 -0.8357
  620MOL0     H85513   7.479   8.010   5.020 -3.3158  0.1168 -1.5412
  620MOL0     H85514   7.266   7.876   5.184  1.1850  1.7345  2.3334
  620MOL0     H85515   7.231   8.036   5.087 -0.8199 -1.0978  0.4241
  620MOL0     H85516   7.319   7.784   4.959  0.0030  0.9995 -0.4724
  620MOL0     H85517   7.156   7.830   4.970 -1.3669  2.4487 -0.8691
  620MOL0     H85518   7.203   7.708   4.781 -0.3854 -1.2353 -0.4678
  620MOL0     H85519   7.237   7.530   4.493  1.9697  2.6801 -0.6296
  620MOL0     H85520   7.080   7.606   4.497  0.2519  1.7542 -1.0917
  620MOL0     H85521   7.141   7.549   4.646 -0.4569  0.9627  0.5171
  620MOL0     H85522   7.162   8.055   4.102  2.6610  1.7319 -1.0027
  620MOL0     H85523   7.135   8.047   3.849  1.3096 -0.2745  0.1518
  620MOL0     H85524   6.976   7.865   3.743  0.4965  0.5358  0.1624
  620MOL0     H85525   7.023   7.841   3.580  0.0507 -1.9144 -0.5269
  620MOL0     H85526   6.968   7.631   3.610 -0.9944  1.6211  0.5664
  620MOL0     H85527   7.117   7.606   3.676  0.1086 -0.3998  1.8066
  620MOL0     H85528   6.844   7.653   3.830 -0.0041 -1.0317 -0.7616
  620MOL0     H85529   7.000   7.669   3.915 -2.1141  1.5082  0.1234
  620MOL0     H85530   6.916   7.429   3.759 -1.9139  0.0858  1.3875
  620MOL0     H85531   6.888   7.445   3.929  0.1804  0.1721  1.8525
  620MOL0     H85532   7.069   7.309   3.877 -4.4059  1.2500 -0.1049
  620MOL0     H85533   7.173   7.443   3.813 -0.6066  3.2797 -0.4340
  620MOL0     H85534   7.025   7.455   4.084  1.6273 -1.1482  1.6208
  620MOL0     H85535   7.180   7.537   4.037 -1.9391 -0.2329 -1.2867
  620MOL0     H85536   7.270   7.293   4.007 -0.4596 -0.6841  0.8839
  620MOL0     H85537   7.143   7.244   4.114 -0.3745  0.1991 -0.5165
  620MOL0     H85538   7.199   7.378   4.284  0.7196  0.2553  1.1280
  620MOL0     H85539   7.330   7.465   4.190  0.2230 -0.1096  1.8611
  620MOL0     H85540   7.344   7.674   3.826 -1.3491  0.2377 -1.0181
  620MOL0     H85541   7.388   7.703   4.098 -3.2225  0.2004  2.1328
  620MOL0     H85542   7.338   8.038   4.428  0.3736  1.4290  2.2264
  620MOL0     H85543   7.369   8.081   4.651 -0.7704 -0.4178 -1.5524
  620MOL0     H85544   7.855   8.197   5.842  0.9459 -0.4064 -0.3799
  620MOL0     H85545   7.884   7.993   5.926  3.8188  2.2081 -4.4371
  620MOL0     H85546   8.123   7.735   6.218  2.1391 -1.7349 -0.8008
  620MOL0     H85547   8.196   7.556   6.308  0.2343  0.8611 -2.9531
  620MOL0     H85548   8.151   7.215   6.447  2.6435  0.9262  0.4277
  620MOL0     H85549   8.164   7.318   6.317 -1.3494 -0.1026 -0.8658
  620MOL0     H85550   8.280   7.359   6.611  3.3878  0.9119  0.0969
  620MOL0     H85551   8.275   7.492   6.500  0.0461  0.6665 -0.4563
  620MOL0     H85552   8.421   7.235   6.414  1.7703  0.1732 -0.3276
  620MOL0     H85553   8.407   7.394   6.334  1.5433 -2.4807 -1.2936
  620MOL0     H85554   8.530   7.498   6.529  0.3496 -0.7811 -0.7581
  620MOL0     H85555   8.615   7.403   6.418  0.1270  1.2092 -0.5627
  620MOL0     H85556   8.713   7.181   6.762  1.0395  1.0739 -0.5546
  620MOL0     H85557   7.810   7.457   6.468 -3.6049 -1.1056 -3.9241
  620MOL0     H85558   7.695   7.768   6.453  2.2629 -1.6774  1.2212
  620MOL0     H85559   7.628   7.699   6.310 -0.4273 -2.1589  0.2149
  620MOL0     H85560   7.633   7.602   6.464  1.1518 -2.7386 -1.0469
  621MOL0     O85561   1.453   7.467   3.013  0.5097  0.7169 -0.2261
  621MOL0     C85562   1.570   7.468   3.058  1.0984 -1.0572  0.4787
  621MOL0     O85563   1.610   7.442   3.189 -0.4687 -0.1891  0.6273
  621MOL0     C85564   1.523   7.405   3.291 -0.7618 -0.3602 -1.0021
  621MOL0     C85565   1.395   7.467   3.289  0.0654  0.3109 -0.0263
  621MOL0     C85566   1.313   7.449   3.406 -0.5279  0.2613 -0.2685
  621MOL0     C85567   1.373   7.395   3.531  0.5087 -0.5770  0.6810
  621MOL0     O85568   1.312   7.386   3.656 -0.3934  0.5220 -0.0812
  621MOL0     C85569   1.195   7.456   3.690 -0.3590  0.1043 -0.5025
  621MOL0     C85570   1.073   7.384   3.645  0.5262 -0.0268  0.0943
  621MOL0     C85571   1.059   7.235   3.689  0.4924  0.5432 -0.1892
  621MOL0     C85572   0.917   7.191   3.718 -0.1810 -0.0965 -0.4821
  621MOL0     C85573   0.891   7.043   3.716 -0.0932  0.3442  0.6033
  621MOL0     C85574   0.740   7.021   3.698  0.7357 -0.1222 -0.3688
  621MOL0     C85575   0.695   6.877   3.726  0.2383 -0.9570  0.3361
  621MOL0     C85576   0.547   6.861   3.682 -1.5350 -0.4196 -0.0137
  621MOL0     N85577   0.455   6.888   3.805 -0.8499  0.8415 -0.1928
  621MOL0     C85578   0.458   6.810   3.918 -0.4432 -0.3348  0.4871
  621MOL0     C85579   0.391   6.878   4.011 -1.2720 -0.4323  0.2481
  621MOL0     C85580   0.368   6.836   4.149 -0.2131 -0.0817  0.1966
  621MOL0     C85581   0.496   6.868   4.231 -0.4642 -0.2272  0.0352
  621MOL0     C85582   0.602   6.764   4.216  0.3398 -0.8296  0.3330
  621MOL0     C85583   0.699   6.773   4.335 -0.2765 -0.2199 -0.1641
  621MOL0     O85584   0.803   6.679   4.325 -0.1175 -0.0963 -0.0845
  621MOL0     C85585   0.915   6.698   4.405  0.6062 -0.8845  0.5576
  621MOL0     C85586   0.896   6.762   4.531 -0.4458 -1.4153 -0.0932
  621MOL0     C85587   1.004   6.787   4.616 -0.7336  0.1024 -0.1983
  621MOL0     C85588   0.958   6.844   4.746  0.7552 -0.2074  0.4031
  621MOL0     C85589   1.134   6.766   4.579 -0.5423 -0.3031  0.6248
  621MOL0     C85590   1.264   6.785   4.657  1.2966  0.0232 -0.1248
  621MOL0     O85591   1.379   6.724   4.615  0.0180  0.0657 -0.7491
  621MOL0     C85592   1.485   6.747   4.688  0.2434 -0.2199  0.3742
  621MOL0     C85593   1.535   6.649   4.770  0.4102 -0.4042  0.5183
  621MOL0     C85594   1.667   6.665   4.807 -1.1270 -0.2160 -1.1082
  621MOL0     C85595   1.749   6.785   4.793 -0.1636 -0.2850 -0.1068
  621MOL0     O85596   1.877   6.775   4.835 -0.3173  0.4622  0.1051
  621MOL0     C85597   1.970   6.790   4.722 -0.6433  0.7393  0.0724
  621MOL0     C85598   2.108   6.754   4.777  0.5018  0.5460  0.5077
  621MOL0     C85599   2.226   6.816   4.701 -0.0986 -0.7244  0.1158
  621MOL0     C85600   2.352   6.722   4.708  0.4819 -0.0968 -0.7165
  621MOL0     C85601   2.448   6.721   4.590  0.3003 -0.9016 -0.3707
  621MOL0     C85602   2.540   6.592   4.599 -0.6765 -0.7311 -0.2223
  621MOL0     C85603   2.676   6.636   4.546 -0.1095  0.4637  0.3459
  621MOL0     C85604   2.797   6.535   4.568  0.7745  0.4595  0.6115
  621MOL0    Cl85605   2.775   6.418   4.432  0.1779 -0.8097  0.3017
  621MOL0     C85606   1.687   6.880   4.715 -0.6157  0.3605 -0.8044
  621MOL0     C85607   1.559   6.865   4.663 -0.2724  0.2059 -0.4090
  621MOL0     O85608   1.245   6.855   4.761 -0.4026  0.5244  0.0522
  621MOL0     C85609   1.150   6.707   4.445 -0.7102  0.3206 -0.5816
  621MOL0     C85610   1.043   6.673   4.362 -0.0031 -0.9861  0.1944
  621MOL0     N85611   0.334   6.990   3.945 -0.9384  0.2122  1.5433
  621MOL0     N85612   0.375   6.995   3.821 -0.1738 -0.1939 -0.0339
  621MOL0     C85613   1.501   7.338   3.522 -0.0725 -0.6752 -0.6272
  621MOL0     C85614   1.573   7.347   3.408 -0.1690  0.6334  0.0733
  621MOL0     C85615   1.671   7.495   2.953  0.8059  0.3185 -0.8144
  621MOL0     C85616   1.803   7.455   2.989  0.2342 -1.0381 -0.0121
  621MOL0     C85617   1.911   7.482   2.911  0.1898  0.4552 -0.8065
  621MOL0     C85618   1.897   7.539   2.779 -0.3973 -0.2969 -0.3358
  621MOL0     O85619   2.019   7.554   2.710  0.2473  0.4116  0.2424
  621MOL0     C85620   2.007   7.602   2.580 -0.2992 -0.6054  0.5683
  621MOL0     C85621   2.137   7.561   2.506  0.6341  0.5135 -0.1681
  621MOL0     C85622   2.240   7.677   2.531 -0.4785  0.2031 -0.3073
  621MOL0     C85623   2.372   7.682   2.449  0.2810  0.6391  0.0495
  621MOL0     C85624   2.467   7.573   2.488 -0.6473 -0.2122 -1.0741
  621MOL0     C85625   2.554   7.487   2.502 -0.4111 -0.6975 -0.6233
  621MOL0     C85626   1.771   7.578   2.741 -0.1195  0.6424 -0.1389
  621MOL0     C85627   1.659   7.568   2.830 -0.0087  1.0318  0.2676
  621MOL0     C85628   1.532   7.637   2.782 -0.9381 -0.4074 -0.5578
  621MOL0     H85629   1.353   7.519   3.204  1.1859  0.9003 -0.2349
  621MOL0     H85630   1.220   7.506   3.403  0.0531  1.3576 -4.3574
  621MOL0     H85631   1.187   7.557   3.649 -2.3428  0.6971  1.2004
  621MOL0     H85632   1.192   7.476   3.797 -3.8857 -1.0642 -0.2749
  621MOL0     H85633   0.988   7.439   3.687  0.1566 -0.1291 -0.5011
  621MOL0     H85634   1.068   7.398   3.536  1.5657  1.3824  0.1935
  621MOL0     H85635   1.098   7.179   3.603 -3.9869  0.1917 -2.2842
  621MOL0     H85636   1.131   7.217   3.769  0.9622 -0.9746 -0.9022
  621MOL0     H85637   0.899   7.240   3.814  0.2114  1.9261 -1.3781
  621MOL0     H85638   0.853   7.246   3.649  0.6847  1.1333 -0.3422
  621MOL0     H85639   0.930   6.982   3.798  0.6130 -3.5334 -2.3185
  621MOL0     H85640   0.944   6.989   3.637  0.8436 -1.4105  2.3275
  621MOL0     H85641   0.676   7.080   3.765  0.4048  1.8894 -2.3523
  621MOL0     H85642   0.696   7.047   3.602  1.0255 -3.0398 -1.4056
  621MOL0     H85643   0.702   6.848   3.831  2.8071 -3.6712 -0.4342
  621MOL0     H85644   0.762   6.807   3.675  2.2671  0.3120  1.1368
  621MOL0     H85645   0.507   6.934   3.611 -1.4897  2.7852  2.9778
  621MOL0     H85646   0.541   6.758   3.646  0.5896 -0.6114  0.0486
  621MOL0     H85647   0.523   6.722   3.918  0.1143 -0.0648 -2.9361
  621MOL0     H85648   0.338   6.732   4.165 -4.1161  0.9825  0.7168
  621MOL0     H85649   0.287   6.896   4.192  0.9370  1.2719  0.5487
  621MOL0     H85650   0.543   6.964   4.206  0.9450 -0.5828  1.1422
  621MOL0     H85651   0.478   6.882   4.338  0.2203 -0.6504  0.2158
  621MOL0     H85652   0.548   6.669   4.222  0.5245 -0.9493  0.1440
  621MOL0     H85653   0.658   6.780   4.123  1.6849 -0.9797  1.0939
  621MOL0     H85654   0.747   6.870   4.350  0.5461 -0.5733 -0.4591
  621MOL0     H85655   0.648   6.738   4.425 -0.8471 -1.8195 -1.0593
  621MOL0     H85656   0.796   6.788   4.563 -2.5826 -5.6392 -2.5074
  621MOL0     H85657   0.851   6.867   4.753 -0.1469 -2.8446 -2.4489
  621MOL0     H85658   1.000   6.944   4.733 -0.4568  0.2890  0.1203
  621MOL0     H85659   0.992   6.803   4.842 -2.1125 -0.7209  1.3179
  621MOL0     H85660   1.486   6.555   4.792 -0.0044 -0.8781 -2.0358
  621MOL0     H85661   1.709   6.572   4.844  1.6831  0.7394 -1.6690
  621MOL0     H85662   1.949   6.718   4.643 -0.1462  1.7540 -1.0194
  621MOL0     H85663   1.963   6.896   4.697  2.8305  1.1282  0.2592
  621MOL0     H85664   2.101   6.790   4.880  1.3110  0.3493  0.6335
  621MOL0     H85665   2.109   6.645   4.782  1.2677  0.3807 -1.8881
  621MOL0     H85666   2.254   6.915   4.738 -1.1099  0.4448 -2.0459
  621MOL0     H85667   2.204   6.829   4.595  1.1400  0.8743  0.0098
  621MOL0     H85668   2.304   6.626   4.726  2.1752 -0.6594  1.1449
  621MOL0     H85669   2.407   6.748   4.799 -2.3687 -0.0456  1.1177
  621MOL0     H85670   2.395   6.723   4.495 -0.3226 -0.1165 -0.0243
  621MOL0     H85671   2.509   6.812   4.594  0.6378 -1.1393  2.9954
  621MOL0     H85672   2.500   6.512   4.535  1.1949 -0.9360 -1.2340
  621MOL0     H85673   2.556   6.563   4.703 -0.5237 -0.8581 -0.2797
  621MOL0     H85674   2.713   6.729   4.591  0.6917  1.0625 -1.4529
  621MOL0     H85675   2.662   6.662   4.440  0.8563  0.4218  0.1999
  621MOL0     H85676   2.795   6.488   4.667  2.4729 -0.8813  0.0700
  621MOL0     H85677   2.891   6.593   4.568  0.1887  1.4467  1.5034
  621MOL0     H85678   1.732   6.978   4.701 -1.9013  1.2430  0.9058
  621MOL0     H85679   1.529   6.942   4.592  0.5370  0.5064 -0.4428
  621MOL0     H85680   1.242   6.667   4.405  0.5427 -0.5858  2.8175
  621MOL0     H85681   1.057   6.612   4.273  2.5833  0.1201 -0.2498
  621MOL0     H85682   1.539   7.303   3.617 -2.4517 -1.0553  0.2665
  621MOL0     H85683   1.679   7.324   3.403 -0.4746 -1.7590  2.2728
  621MOL0     H85684   1.836   7.401   3.078  2.0740  0.9705  0.6161
  621MOL0     H85685   2.016   7.465   2.932  2.1058  3.2259 -6.1425
  621MOL0     H85686   1.924   7.562   2.521 -1.9433  3.0068  0.1318
  621MOL0     H85687   1.986   7.710   2.580  0.8656 -0.3580 -0.7226
  621MOL0     H85688   2.101   7.547   2.403  0.7588  0.3111 -0.1849
  621MOL0     H85689   2.186   7.467   2.530 -1.1173 -0.7686 -1.3144
  621MOL0     H85690   2.186   7.771   2.521  1.1359  1.1687 -0.3678
  621MOL0     H85691   2.266   7.660   2.636 -0.6887 -2.4182 -0.6162
  621MOL0     H85692   2.428   7.774   2.470  0.1995  0.6148  0.3734
  621MOL0     H85693   2.346   7.682   2.343  3.2243 -2.2278 -0.8584
  621MOL0     H85694   2.623   7.405   2.499 -0.6656 -0.9030 -0.7964
  621MOL0     H85695   1.768   7.644   2.655 -0.8438 -0.5226 -1.0269
  621MOL0     H85696   1.443   7.577   2.765 -2.3022  0.5087  2.6611
  621MOL0     H85697   1.507   7.724   2.843 -0.7995 -0.4836 -0.3894
  621MOL0     H85698   1.567   7.678   2.686  1.4721 -1.6415 -0.2989
  622MOL0     O85699   6.700   8.731   4.072 -0.2368  0.2168  0.6613
  622MOL0     C85700   6.813   8.785   4.069 -0.3695 -1.1898  0.1836
  622MOL0     O85701   6.935   8.710   4.080 -0.0620 -0.9283 -0.3703
  622MOL0     C85702   6.941   8.575   4.105  0.2516  0.9228 -0.3791
  622MOL0     C85703   6.871   8.480   4.036 -0.0018 -0.2216  0.3554
  622MOL0     C85704   6.866   8.345   4.073 -0.0498 -0.3621 -0.0693
  622MOL0     C85705   6.927   8.302   4.194 -0.6688 -0.2662  0.0543
  622MOL0     O85706   6.933   8.172   4.243  0.2848  0.2151  0.3608
  622MOL0     C85707   6.862   8.064   4.184  1.2528 -0.1957 -0.2359
  622MOL0     C85708   6.884   7.934   4.252 -0.8130 -0.4052 -0.2016
  622MOL0     C85709   6.804   7.822   4.184  0.8335  0.9235  0.4667
  622MOL0     C85710   6.794   7.701   4.269 -0.1637 -0.7035  0.2493
  622MOL0     C85711   6.721   7.575   4.212  0.1917  0.3050 -0.4931
  622MOL0     C85712   6.587   7.607   4.148 -0.4777  0.7293 -0.7385
  622MOL0     C85713   6.464   7.593   4.240 -0.1672  0.3328 -0.2371
  622MOL0     C85714   6.454   7.697   4.358  0.7934  0.4791  1.0234
  622MOL0     N85715   6.457   7.838   4.312 -0.3278 -0.0734  0.2285
  622MOL0     C85716   6.504   7.960   4.358  0.4714  1.5313  0.9283
  622MOL0     C85717   6.427   8.053   4.302  0.1779 -0.5324  0.4005
  622MOL0     C85718   6.416   8.196   4.345  0.2772  1.1568 -0.1738
  622MOL0     C85719   6.263   8.232   4.359 -0.6547  1.3868 -0.1025
  622MOL0     C85720   6.246   8.375   4.394  0.2413 -0.0821  0.2711
  622MOL0     C85721   6.091   8.405   4.412  0.6467  0.0386  0.1804
  622MOL0     O85722   5.994   8.358   4.305  0.4579 -0.1723  0.1448
  622MOL0     C85723   5.861   8.379   4.326 -0.8531  0.1898 -0.1407
  622MOL0     C85724   5.778   8.320   4.239  1.3732 -0.2496  0.1595
  622MOL0     C85725   5.639   8.323   4.250  0.0457 -0.3899  0.0226
  622MOL0     C85726   5.561   8.272   4.135  0.1019  0.2207 -0.3389
  622MOL0     C85727   5.587   8.380   4.371 -0.5678  0.1637 -0.8922
  622MOL0     C85728   5.444   8.375   4.398 -0.2301  0.6508  1.3127
  622MOL0     O85729   5.387   8.247   4.393 -0.5456  0.3101  0.5498
  622MOL0     C85730   5.262   8.235   4.454 -0.4072  0.2724  0.1441
  622MOL0     C85731   5.272   8.253   4.595 -0.1634  0.4797  0.4586
  622MOL0     C85732   5.155   8.233   4.674  0.3913 -0.3416 -0.9450
  622MOL0     C85733   5.032   8.195   4.615  0.0698  0.2376 -0.2811
  622MOL0     O85734   4.913   8.182   4.677  0.6752  0.3447 -0.1427
  622MOL0     C85735   4.914   8.132   4.811  0.1310  0.4259 -0.2443
  622MOL0     C85736   4.776   8.148   4.877  0.4805  0.3839 -0.8406
  622MOL0     C85737   4.772   8.273   4.982  0.6093  0.2870  0.4102
  622MOL0     C85738   4.804   8.399   4.917  0.1036  0.3735 -0.0841
  622MOL0     C85739   4.696   8.447   4.811 -0.5608  0.1094 -0.0625
  622MOL0     C85740   4.690   8.605   4.826  1.1814  0.3122 -0.1663
  622MOL0     C85741   4.589   8.672   4.729  0.2077  0.7646 -0.5731
  622MOL0     C85742   4.446   8.636   4.746  0.1733  0.0315 -0.7098
  622MOL0    Cl85743   4.379   8.677   4.909 -0.2560  0.1542 -0.3975
  622MOL0     C85744   5.026   8.177   4.481  0.4116 -0.9487  0.2074
  622MOL0     C85745   5.140   8.189   4.403 -0.1180 -1.0373  0.1503
  622MOL0     O85746   5.390   8.471   4.443  0.9898  0.0769 -0.3859
  622MOL0     C85747   5.673   8.440   4.469  0.0737  0.6946  0.4868
  622MOL0     C85748   5.815   8.450   4.441  0.5695 -0.8983 -0.2679
  622MOL0     N85749   6.350   7.999   4.203 -0.3348  0.4271  0.7240
  622MOL0     N85750   6.375   7.870   4.203  0.4048 -0.5020 -0.1524
  622MOL0     C85751   6.997   8.403   4.265  0.7578  0.5658  0.3945
  622MOL0     C85752   6.992   8.538   4.235 -0.1731  0.2603  0.4937
  622MOL0     C85753   6.838   8.931   4.073  0.2469  0.5862  0.1158
  622MOL0     C85754   6.965   8.980   4.116 -0.3119  0.1343  0.4226
  622MOL0     C85755   6.990   9.118   4.124  0.4040  0.1193  0.6343
  622MOL0     C85756   6.891   9.215   4.092  0.0388  0.5774  0.4312
  622MOL0     O85757   6.930   9.348   4.108 -0.7796 -0.0437 -0.3654
  622MOL0     C85758   6.821   9.427   4.169  0.0602  0.1335  0.3510
  622MOL0     C85759   6.874   9.509   4.281  0.7379 -0.7305 -0.6651
  622MOL0     C85760   6.777   9.619   4.314 -0.2187 -1.1868 -1.0504
  622MOL0     C85761   6.841   9.733   4.408 -0.7611  0.2928  0.2403
  622MOL0     C85762   6.901   9.695   4.533 -1.1102  0.6991  0.2642
  622MOL0     C85763   6.945   9.644   4.635 -0.3091  0.5482 -0.7840
  622MOL0     C85764   6.767   9.169   4.041 -0.7315  0.6736 -0.3530
  622MOL0     C85765   6.738   9.032   4.029 -0.7187  0.8099 -0.0225
  622MOL0     C85766   6.607   8.983   3.993  0.4263 -0.2154 -0.7677
  622MOL0     H85767   6.816   8.514   3.949 -0.3608 -3.0089 -0.5968
  622MOL0     H85768   6.803   8.289   4.004 -0.8637 -0.5651  0.8142
  622MOL0     H85769   6.887   8.060   4.077  1.3305  0.4896 -0.2475
  622MOL0     H85770   6.756   8.083   4.201  1.6791  0.4960  1.8615
  622MOL0     H85771   6.988   7.905   4.236 -0.5867 -0.3134  1.0027
  622MOL0     H85772   6.878   7.950   4.360  3.5801  3.1080 -0.1907
  622MOL0     H85773   6.707   7.868   4.164  1.0080 -0.0883 -3.6194
  622MOL0     H85774   6.848   7.792   4.088 -0.7631 -0.9607  0.2690
  622MOL0     H85775   6.899   7.682   4.292 -0.4692  0.0628  2.5250
  622MOL0     H85776   6.753   7.731   4.366  3.0397  2.1562  0.9109
  622MOL0     H85777   6.719   7.489   4.280  4.1697 -2.5687 -3.5404
  622MOL0     H85778   6.793   7.554   4.133  3.0274  1.9496  1.4874
  622MOL0     H85779   6.592   7.703   4.096  1.1749  0.3160 -1.4184
  622MOL0     H85780   6.581   7.530   4.070  3.3067 -1.0653  0.4659
  622MOL0     H85781   6.449   7.492   4.280  0.4986 -1.6923 -4.4881
  622MOL0     H85782   6.376   7.603   4.177  1.1507  3.9032 -1.7649
  622MOL0     H85783   6.353   7.679   4.396 -1.1242  1.5339 -3.0225
  622MOL0     H85784   6.536   7.662   4.422  2.5238  2.3065 -0.0462
  622MOL0     H85785   6.576   7.974   4.438  1.3430 -2.0517  0.9317
  622MOL0     H85786   6.470   8.263   4.277  1.3419  2.5526  1.9406
  622MOL0     H85787   6.465   8.211   4.442  4.0916 -1.6428 -1.4202
  622MOL0     H85788   6.213   8.206   4.265  1.5944  0.6553 -1.1741
  622MOL0     H85789   6.209   8.175   4.436 -3.9237  1.4469 -2.1680
  622MOL0     H85790   6.299   8.412   4.483 -0.2130  2.0920 -0.3103
  622MOL0     H85791   6.284   8.427   4.306 -0.3115  0.7101  0.4847
  622MOL0     H85792   6.077   8.335   4.495  1.0051  0.0955  0.2886
  622MOL0     H85793   6.082   8.509   4.446 -2.9227 -0.5505  1.4881
  622MOL0     H85794   5.830   8.278   4.153  2.3234  0.6406  0.2823
  622MOL0     H85795   5.520   8.174   4.160 -5.0702  1.0420 -4.0845
  622MOL0     H85796   5.618   8.264   4.042 -0.6303 -0.1267 -0.7631
  622MOL0     H85797   5.486   8.350   4.119  1.1347  1.7382  1.7501
  622MOL0     H85798   5.362   8.283   4.646  0.9803 -1.4409 -0.3266
  622MOL0     H85799   5.172   8.259   4.778  0.8214  0.8447 -1.2997
  622MOL0     H85800   4.950   8.029   4.811  1.2826  0.8054  0.8986
  622MOL0     H85801   4.990   8.190   4.864  0.8774  1.8304 -2.6890
  622MOL0     H85802   4.700   8.170   4.802 -1.1223  3.1350  1.3931
  622MOL0     H85803   4.746   8.057   4.930 -3.1538  3.3897  2.9434
  622MOL0     H85804   4.840   8.244   5.063  0.5773 -1.6020 -0.1912
  622MOL0     H85805   4.677   8.278   5.034 -0.3556 -0.2339 -1.2357
  622MOL0     H85806   4.890   8.389   4.850 -1.0578 -0.4674 -1.5130
  622MOL0     H85807   4.806   8.481   4.989 -0.2039  2.4004 -2.2388
  622MOL0     H85808   4.727   8.426   4.708 -3.1689  0.9382 -1.0800
  622MOL0     H85809   4.595   8.410   4.826 -0.6730  1.1487  2.1703
  622MOL0     H85810   4.784   8.652   4.796  0.7631  0.7159 -0.8689
  622MOL0     H85811   4.668   8.639   4.928  1.8846  1.4314 -0.3694
  622MOL0     H85812   4.624   8.659   4.627  0.4961  2.8698 -0.7937
  622MOL0     H85813   4.602   8.778   4.754  2.5383  1.1966 -3.1777
  622MOL0     H85814   4.422   8.532   4.723 -2.0092  0.5502 -0.9795
  622MOL0     H85815   4.385   8.695   4.677  1.7034 -0.1600 -2.3218
  622MOL0     H85816   4.934   8.143   4.434 -0.0016 -0.9935  1.0255
  622MOL0     H85817   5.135   8.162   4.298  2.6602 -1.6974  0.0956
  622MOL0     H85818   5.625   8.489   4.553 -0.7743  3.8372 -1.6782
  622MOL0     H85819   5.878   8.512   4.504 -1.9405  2.9286 -1.1657
  622MOL0     H85820   7.037   8.365   4.359 -0.3615  3.0743  1.9859
  622MOL0     H85821   7.028   8.609   4.308  3.9510 -1.2305  0.1439
  622MOL0     H85822   7.043   8.912   4.150 -0.1932 -0.9405 -1.8253
  622MOL0     H85823   7.083   9.162   4.157  1.5419 -2.4677  1.1662
  622MOL0     H85824   6.774   9.489   4.092 -3.5389 -2.4200  0.1926
  622MOL0     H85825   6.741   9.363   4.208 -0.6940 -0.2003 -1.5915
  622MOL0     H85826   6.973   9.547   4.254  1.7351 -2.0326  0.9561
  622MOL0     H85827   6.881   9.436   4.362 -1.0294 -2.0247 -1.6109
  622MOL0     H85828   6.753   9.664   4.218 -4.1532  1.4687  0.9117
  622MOL0     H85829   6.686   9.585   4.364 -2.0072  3.6093 -0.4713
  622MOL0     H85830   6.762   9.808   4.419 -1.4977 -0.4182 -0.1773
  622MOL0     H85831   6.930   9.769   4.355  0.7919 -2.4756  0.7823
  622MOL0     H85832   6.974   9.592   4.724  2.7989 -1.8965 -3.0120
  622MOL0     H85833   6.690   9.240   4.016 -2.1764 -0.3021  1.1236
  622MOL0     H85834   6.617   8.905   3.917  1.9411  0.3639 -1.1960
  622MOL0     H85835   6.542   8.944   4.072 -0.6892 -0.2512 -1.6619
  622MOL0     H85836   6.549   9.057   3.937  1.5481  1.9910  0.8319
  623MOL0     O85837   3.021   6.311   9.595 -1.0700 -0.4640 -0.7418
  623MOL0     C85838   2.986   6.424   9.638  0.2680 -0.0190  0.6289
  623MOL0     O85839   3.007   6.550   9.578  0.8976  0.0507  0.6278
  623MOL0     C85840   3.044   6.561   9.446  0.0423 -1.2835  0.0762
  623MOL0     C85841   3.104   6.458   9.364 -0.4488  0.1203 -0.2869
  623MOL0     C85842   3.158   6.491   9.234 -0.1329  0.4272 -0.1093
  623MOL0     C85843   3.139   6.623   9.183  0.1407 -0.3147 -0.0325
  623MOL0     O85844   3.189   6.663   9.069 -0.0190 -0.0210  0.6381
  623MOL0     C85845   3.327   6.691   9.085  0.4731  0.2714 -0.0190
  623MOL0     C85846   3.354   6.799   8.983 -0.6268 -0.8084 -0.2750
  623MOL0     C85847   3.506   6.840   8.994  0.5348 -0.3124 -0.2620
  623MOL0     C85848   3.544   6.911   8.866 -0.2058 -0.8341 -0.0932
  623MOL0     C85849   3.688   6.941   8.878 -0.2496 -0.0566 -0.3568
  623MOL0     C85850   3.774   6.821   8.847  0.5969 -0.5839 -2.1517
  623MOL0     C85851   3.917   6.844   8.804 -0.3294  1.4146  0.9453
  623MOL0     C85852   3.969   6.718   8.727 -0.7148 -0.1098  0.0099
  623MOL0     N85853   4.111   6.717   8.689  0.4068 -0.1409 -0.2852
  623MOL0     C85854   4.157   6.636   8.584 -0.8941  0.1383  0.0291
  623MOL0     C85855   4.291   6.624   8.602  0.1515 -0.0334 -0.9947
  623MOL0     C85856   4.387   6.521   8.542  0.5371  0.4936 -0.0405
  623MOL0     C85857   4.384   6.520   8.387  0.0660  1.1184 -0.6541
  623MOL0     C85858   4.384   6.656   8.311 -0.5038 -0.3174 -0.0956
  623MOL0     C85859   4.429   6.642   8.165  0.3357 -0.3584 -0.5241
  623MOL0     O85860   4.340   6.550   8.101 -0.0626  0.4305  0.1834
  623MOL0     C85861   4.387   6.504   7.976 -0.0750 -0.7550 -0.0074
  623MOL0     C85862   4.416   6.587   7.876  0.2083 -0.1822 -0.7066
  623MOL0     C85863   4.506   6.544   7.774  0.5769  0.1368 -0.2645
  623MOL0     C85864   4.551   6.644   7.682  1.2290 -0.8239  0.3880
  623MOL0     C85865   4.559   6.412   7.775 -0.5200  0.3724  0.0963
  623MOL0     C85866   4.656   6.350   7.684  0.0936  0.7167 -0.8194
  623MOL0     O85867   4.665   6.399   7.553  0.4207 -1.2915 -0.9760
  623MOL0     C85868   4.779   6.356   7.480  0.1654 -0.3890  0.0766
  623MOL0     C85869   4.887   6.450   7.470 -0.5278  0.6244 -0.5572
  623MOL0     C85870   5.005   6.413   7.419 -0.3456  0.2359 -1.1346
  623MOL0     C85871   5.019   6.293   7.351 -0.0141 -0.3552 -0.1862
  623MOL0     O85872   5.141   6.260   7.289 -0.2853 -0.3692 -0.2069
  623MOL0     C85873   5.227   6.370   7.245  0.4468 -0.8775 -0.5381
  623MOL0     C85874   5.330   6.323   7.152 -0.9545  0.2199 -0.0356
  623MOL0     C85875   5.433   6.223   7.214  0.3260  1.0903  0.5831
  623MOL0     C85876   5.548   6.175   7.127 -0.0321  0.5139 -0.0633
  623MOL0     C85877   5.671   6.142   7.213  0.6854 -0.3910 -0.9459
  623MOL0     C85878   5.790   6.095   7.129  0.1708  0.1771 -0.0738
  623MOL0     C85879   5.910   6.055   7.203  0.3225  1.0207 -0.6406
  623MOL0     C85880   5.994   5.969   7.106  0.2999 -0.3219 -0.5911
  623MOL0    Cl85881   6.167   5.969   7.166  0.1015 -0.9212  0.0832
  623MOL0     C85882   4.918   6.201   7.346  0.0721 -0.8686  0.2021
  623MOL0     C85883   4.797   6.233   7.407  0.0855  0.2276  0.0079
  623MOL0     O85884   4.729   6.255   7.736  0.9166 -0.3620 -0.0621
  623MOL0     C85885   4.507   6.325   7.873 -0.3628  0.3170 -0.3379
  623MOL0     C85886   4.426   6.371   7.971 -0.4235  0.2594 -0.5954
  623MOL0     N85887   4.321   6.701   8.716 -0.3679  0.1968 -0.6658
  623MOL0     N85888   4.214   6.756   8.766  0.0815  0.8237  0.7487
  623MOL0     C85889   3.072   6.720   9.257 -1.1698  0.2300  0.4159
  623MOL0     C85890   3.027   6.687   9.387 -0.4256  0.5705  0.2170
  623MOL0     C85891   2.922   6.413   9.766  0.5929  0.7232  0.7115
  623MOL0     C85892   2.795   6.477   9.788 -0.3768 -0.1986 -0.0114
  623MOL0     C85893   2.731   6.470   9.903 -0.1327 -0.7760 -0.8350
  623MOL0     C85894   2.784   6.404  10.013 -0.1960  0.3493 -0.1616
  623MOL0     O85895   2.711   6.391  10.125 -0.7256 -0.2635 -0.3387
  623MOL0     C85896   2.758   6.467  10.238  1.2939 -0.2754 -0.3982
  623MOL0     C85897   2.723   6.619  10.225  0.3729 -0.0106 -0.0689
  623MOL0     C85898   2.783   6.702  10.356  0.2294  0.2786  0.6969
  623MOL0     C85899   2.661   6.740  10.431 -0.6722  0.6125  0.6624
  623MOL0     C85900   2.593   6.863  10.376  0.1146 -0.2604  0.0418
  623MOL0     C85901   2.531   6.958  10.327  0.8907  0.1002 -0.5663
  623MOL0     C85902   2.905   6.328   9.986  1.2160 -0.1479 -1.0989
  623MOL0     C85903   2.972   6.329   9.868 -0.0971  0.1170  0.0656
  623MOL0     C85904   3.102   6.255   9.851 -1.4051 -0.0245 -0.9230
  623MOL0     H85905   3.110   6.353   9.393 -1.7325 -0.4003 -1.7424
  623MOL0     H85906   3.212   6.409   9.188  0.7622 -0.7417  2.7946
  623MOL0     H85907   3.373   6.599   9.048 -0.0340 -0.9468  2.1618
  623MOL0     H85908   3.357   6.697   9.190 -1.1551  0.3002  0.4802
  623MOL0     H85909   3.329   6.770   8.880 -0.1356  1.1190 -0.9732
  623MOL0     H85910   3.305   6.893   9.009  2.1157 -0.3768  4.4226
  623MOL0     H85911   3.529   6.899   9.083 -0.1701  0.8166 -0.8038
  623MOL0     H85912   3.568   6.750   8.996  0.8377 -0.1133 -0.5923
  623MOL0     H85913   3.527   6.859   8.771 -0.7513  0.0029 -0.4673
  623MOL0     H85914   3.486   7.004   8.866  0.5200 -0.3611 -1.1675
  623MOL0     H85915   3.706   6.985   8.976 -1.3195  4.7630 -2.0271
  623MOL0     H85916   3.709   7.022   8.807  0.1460 -1.7071 -2.2234
  623MOL0     H85917   3.766   6.753   8.932 -1.1534  1.2511 -0.7587
  623MOL0     H85918   3.724   6.773   8.762 -2.4026 -4.6058  1.4115
  623MOL0     H85919   3.990   6.857   8.885  2.1256 -3.7270 -0.0293
  623MOL0     H85920   3.924   6.933   8.741 -1.2729 -0.3530 -1.8191
  623MOL0     H85921   3.958   6.639   8.801  2.9065 -1.3781 -0.6241
  623MOL0     H85922   3.903   6.691   8.644 -1.0573 -0.0836  0.2742
  623MOL0     H85923   4.098   6.588   8.507 -0.8445  0.0952  0.0185
  623MOL0     H85924   4.381   6.419   8.581  3.4784  0.7762  1.4947
  623MOL0     H85925   4.482   6.561   8.580  1.4615 -1.9759  0.3860
  623MOL0     H85926   4.468   6.454   8.362  0.4130  0.0636  2.6622
  623MOL0     H85927   4.288   6.473   8.363 -2.0870  3.8027  1.8669
  623MOL0     H85928   4.289   6.709   8.321  0.6960  2.2711 -1.3837
  623MOL0     H85929   4.467   6.708   8.359  1.1575 -1.1143 -1.9617
  623MOL0     H85930   4.429   6.745   8.126  3.3046  0.1466  0.5630
  623MOL0     H85931   4.531   6.604   8.165  0.4032 -0.2745  1.1616
  623MOL0     H85932   4.399   6.694   7.885  0.3553 -0.3221  2.8099
  623MOL0     H85933   4.638   6.699   7.719 -0.8477  1.1153  2.7540
  623MOL0     H85934   4.478   6.725   7.671  1.3451 -0.2648  3.1503
  623MOL0     H85935   4.554   6.598   7.582  3.9015 -2.8106  1.2613
  623MOL0     H85936   4.879   6.545   7.522 -0.0267  0.8079 -0.8094
  623MOL0     H85937   5.088   6.481   7.437 -0.4727  0.3882 -1.1276
  623MOL0     H85938   5.167   6.440   7.186  0.0155 -0.6219  0.1965
  623MOL0     H85939   5.265   6.415   7.337 -0.7697  0.3443 -0.5988
  623MOL0     H85940   5.278   6.274   7.069 -0.2762 -0.3879 -0.1179
  623MOL0     H85941   5.383   6.412   7.115  1.8072 -0.3858  2.1573
  623MOL0     H85942   5.374   6.147   7.267  0.4802  0.7248  0.2402
  623MOL0     H85943   5.478   6.269   7.302  0.5461 -1.2091  1.7476
  623MOL0     H85944   5.574   6.253   7.054  0.8838  2.7692  2.5081
  623MOL0     H85945   5.521   6.084   7.073  1.0186  0.2282 -0.1293
  623MOL0     H85946   5.723   6.226   7.261 -1.1972 -0.6766  1.8760
  623MOL0     H85947   5.639   6.060   7.279  3.2857  0.2182  1.2543
  623MOL0     H85948   5.816   6.175   7.060  0.6766  0.5663  0.5573
  623MOL0     H85949   5.751   6.005   7.081 -1.0587 -0.1836  1.4789
  623MOL0     H85950   5.900   6.001   7.297  0.4152 -1.5429 -2.0230
  623MOL0     H85951   5.967   6.146   7.226  0.6170  0.8309 -0.6106
  623MOL0     H85952   5.995   6.015   7.007  0.5547  0.1209 -0.3851
  623MOL0     H85953   5.955   5.866   7.104 -0.6309 -0.2194  3.6092
  623MOL0     H85954   4.929   6.106   7.295  2.4522  0.1874 -1.4546
  623MOL0     H85955   4.721   6.157   7.392 -0.3702  0.7066 -0.1970
  623MOL0     H85956   4.555   6.229   7.894  1.2839  0.9250 -1.1334
  623MOL0     H85957   4.397   6.304   8.052 -2.2523  2.3285  0.5725
  623MOL0     H85958   3.044   6.818   9.220 -0.9685  0.6235  1.2704
  623MOL0     H85959   2.979   6.758   9.455  0.2256 -1.3339  2.8228
  623MOL0     H85960   2.746   6.539   9.713  1.6600 -0.7421 -1.9020
  623MOL0     H85961   2.635   6.520   9.910  0.1716 -0.2748 -0.0792
  623MOL0     H85962   2.711   6.431  10.329  0.8805  2.8688  0.7632
  623MOL0     H85963   2.864   6.441  10.251  0.6490 -2.3610  1.2762
  623MOL0     H85964   2.615   6.630  10.223  0.2625 -0.1336  2.2868
  623MOL0     H85965   2.776   6.670  10.144  0.0203 -0.6143 -0.6959
  623MOL0     H85966   2.847   6.634  10.412  1.4876  3.4329  3.4420
  623MOL0     H85967   2.855   6.781  10.331 -0.1838  0.5760  0.4185
  623MOL0     H85968   2.686   6.763  10.535 -0.7639 -3.5961  1.7953
  623MOL0     H85969   2.591   6.656  10.422  0.3793 -0.1379 -0.9979
  623MOL0     H85970   2.467   7.038  10.293 -0.9822 -1.1577 -0.1508
  623MOL0     H85971   2.936   6.272  10.074 -2.3284  0.2134  0.5410
  623MOL0     H85972   3.123   6.197   9.941 -3.9091 -0.1140 -0.3293
  623MOL0     H85973   3.093   6.177   9.775 -4.2749 -1.5657  0.8424
  623MOL0     H85974   3.190   6.316   9.828  1.1774 -0.9818  4.7774
  624MOL0     O85975   7.000   3.996   6.603 -0.2281 -0.0243 -0.9811
  624MOL0     C85976   7.015   4.037   6.719 -0.3750  0.8122  0.5261
  624MOL0     O85977   7.085   4.148   6.755 -1.0305 -0.4791  0.5745
  624MOL0     C85978   7.176   4.202   6.658 -0.0216  0.2008  0.1124
  624MOL0     C85979   7.135   4.319   6.595 -0.1677 -0.2693 -0.3588
  624MOL0     C85980   7.219   4.398   6.501  0.3756  0.8126  0.1294
  624MOL0     C85981   7.342   4.343   6.469  0.3009 -0.3171 -0.7233
  624MOL0     O85982   7.428   4.394   6.373  0.5472 -0.1685  0.6866
  624MOL0     C85983   7.394   4.518   6.313  1.0241  0.9085 -0.0985
  624MOL0     C85984   7.481   4.551   6.191  1.3641 -0.0296 -0.3663
  624MOL0     C85985   7.612   4.475   6.195 -0.1769  0.6271 -1.1159
  624MOL0     C85986   7.698   4.522   6.079  0.5783 -0.5095  0.3029
  624MOL0     C85987   7.844   4.490   6.111 -0.5509  0.1891  1.4324
  624MOL0     C85988   7.910   4.613   6.196  0.5729  1.1821 -0.2339
  624MOL0     C85989   8.044   4.572   6.250  0.0475  0.1424 -1.0201
  624MOL0     C85990   8.151   4.638   6.170 -0.4004  0.3921 -1.0189
  624MOL0     N85991   8.287   4.610   6.210 -0.4460  0.5581  0.7991
  624MOL0     C85992   8.343   4.478   6.224  0.0793 -0.0250 -0.5988
  624MOL0     C85993   8.467   4.501   6.275  0.4656 -0.2362 -0.5363
  624MOL0     C85994   8.566   4.394   6.332 -0.6787  1.2031  0.1342
  624MOL0     C85995   8.620   4.314   6.210 -0.0090  0.7799 -0.1938
  624MOL0     C85996   8.754   4.373   6.147  0.9971 -1.1344  0.2809
  624MOL0     C85997   8.861   4.267   6.174 -0.8816  0.3760  0.2183
  624MOL0     O85998   8.856   4.149   6.092 -0.1753 -0.5709 -0.6122
  624MOL0     C85999   8.947   4.051   6.104 -0.4973 -0.4256 -0.4408
  624MOL0     C86000   8.923   3.934   6.033  0.6711 -0.6635  0.6467
  624MOL0     C86001   9.024   3.835   6.051  0.5285 -0.1676 -0.1794
  624MOL0     C86002   9.010   3.713   5.969  0.4474  0.0738 -0.4569
  624MOL0     C86003   9.144   3.849   6.131  0.3926 -0.7232 -0.4985
  624MOL0     C86004   9.249   3.737   6.129 -0.4008  0.1971 -0.9727
  624MOL0     O86005   9.296   3.694   6.012 -0.0463  0.3337  0.0168
  624MOL0     C86006   9.404   3.610   6.002 -0.3837  0.5041 -1.1972
  624MOL0     C86007   9.534   3.645   6.029 -0.9902 -0.3104  0.1207
  624MOL0     C86008   9.640   3.564   6.043 -1.4380  0.8062 -0.2235
  624MOL0     C86009   9.627   3.430   6.008  0.0188 -0.1613 -0.8960
  624MOL0     O86010   9.743   3.358   6.011 -0.0930  0.2669  0.0498
  624MOL0     C86011   9.732   3.215   6.018  0.2509  0.5514  0.3578
  624MOL0     C86012   9.878   3.155   6.000 -0.2022 -0.0181 -0.1159
  624MOL0     C86013   9.901   3.009   5.989  1.2589 -0.1579 -0.2710
  624MOL0     C86014   9.768   2.932   5.962 -0.0857  0.1149  0.7196
  624MOL0     C86015   9.794   2.781   5.985 -0.2051 -0.6435  0.3664
  624MOL0     C86016   9.789   2.687   5.868  0.2595  0.0622  1.0542
  624MOL0     C86017   9.912   2.695   5.774  0.2173 -0.5578 -0.8582
  624MOL0     C86018   9.906   2.595   5.663 -0.5556  0.0991  0.0050
  624MOL0    Cl86019   9.972   2.433   5.720 -0.5513 -0.3311  0.3129
  624MOL0     C86020   9.503   3.376   5.984 -0.4584 -0.4049  0.7561
  624MOL0     C86021   9.387   3.469   5.985 -0.6974  0.4757 -0.4790
  624MOL0     O86022   9.308   3.722   6.238 -0.7051 -0.1119  0.0148
  624MOL0     C86023   9.163   3.968   6.185 -0.3367  0.1746 -0.0614
  624MOL0     C86024   9.068   4.067   6.174 -0.4140  0.1014 -0.1695
  624MOL0     N86025   8.496   4.636   6.266  0.6558 -1.8511 -0.1422
  624MOL0     N86026   8.390   4.704   6.229  0.2090 -0.2847 -0.6424
  624MOL0     C86027   7.383   4.224   6.536  0.1040  0.3794  0.9401
  624MOL0     C86028   7.298   4.145   6.616  1.2470 -0.2550 -0.4928
  624MOL0     C86029   6.973   3.939   6.820  0.5771  0.3721  0.4901
  624MOL0     C86030   6.856   3.871   6.795  0.4940  0.3233  0.3625
  624MOL0     C86031   6.806   3.778   6.884  0.0184  0.5710  0.2700
  624MOL0     C86032   6.874   3.748   6.998  0.6249 -0.2604  0.1916
  624MOL0     O86033   6.839   3.641   7.075 -1.0799  0.3768  0.4194
  624MOL0     C86034   6.725   3.552   7.050 -0.6258  1.4399 -0.5208
  624MOL0     C86035   6.720   3.477   7.186  1.0698 -0.4542 -0.1285
  624MOL0     C86036   6.684   3.577   7.292 -0.5706  1.1089 -1.0193
  624MOL0     C86037   6.794   3.578   7.409 -0.0731 -0.1012 -0.5161
  624MOL0     C86038   6.826   3.452   7.477 -0.6840 -0.0437  1.0002
  624MOL0     C86039   6.853   3.339   7.509 -1.3830 -0.0298 -0.4492
  624MOL0     C86040   6.995   3.810   7.027 -0.2210 -0.6101  0.5237
  624MOL0     C86041   7.054   3.906   6.932  0.1930 -0.1625 -0.9594
  624MOL0     C86042   7.183   3.975   6.978  0.4191 -0.5440  0.5980
  624MOL0     H86043   7.039   4.364   6.618 -2.3489 -4.0764 -1.1807
  624MOL0     H86044   7.175   4.488   6.458  0.0133  0.3697 -0.4388
  624MOL0     H86045   7.416   4.588   6.394 -0.5117 -1.8821  2.9236
  624MOL0     H86046   7.289   4.509   6.283  1.0678 -1.8478  0.3578
  624MOL0     H86047   7.423   4.525   6.102 -1.4967  0.9209  1.0947
  624MOL0     H86048   7.504   4.657   6.175 -0.9898  0.4826 -0.6346
  624MOL0     H86049   7.665   4.496   6.288  1.8277  2.5010 -2.5706
  624MOL0     H86050   7.599   4.367   6.184 -0.1678  0.5745 -0.6228
  624MOL0     H86051   7.674   4.467   5.988  3.7025 -0.4367 -0.6659
  624MOL0     H86052   7.694   4.628   6.053  1.9712 -0.3693  0.5888
  624MOL0     H86053   7.898   4.471   6.018 -0.3924 -3.3919  2.1079
  624MOL0     H86054   7.855   4.391   6.156 -2.3375 -0.3776  0.7143
  624MOL0     H86055   7.927   4.701   6.133  0.6477  1.1485 -0.2594
  624MOL0     H86056   7.844   4.644   6.278 -2.0189  0.0049 -1.7544
  624MOL0     H86057   8.055   4.463   6.251 -2.7743 -0.2640  1.9487
  624MOL0     H86058   8.038   4.610   6.352  0.5922 -0.5941 -0.7036
  624MOL0     H86059   8.153   4.612   6.063  0.6391 -1.0279 -0.6871
  624MOL0     H86060   8.133   4.746   6.174 -1.1034  0.2694 -0.6923
  624MOL0     H86061   8.289   4.384   6.217 -1.9480  0.9063  1.4033
  624MOL0     H86062   8.523   4.322   6.402  0.7703 -0.6409 -0.7743
  624MOL0     H86063   8.642   4.454   6.382 -0.7797  1.9974 -0.6299
  624MOL0     H86064   8.640   4.214   6.250  0.7779  1.6146  1.5947
  624MOL0     H86065   8.545   4.304   6.131  1.4945 -5.1931 -1.3994
  624MOL0     H86066   8.739   4.392   6.040 -2.9843  4.3406  1.3758
  624MOL0     H86067   8.773   4.470   6.194 -2.0803 -0.6315  0.6838
  624MOL0     H86068   8.958   4.315   6.154  0.0461 -2.0353 -1.7088
  624MOL0     H86069   8.846   4.244   6.280  1.9113 -2.7927  0.1400
  624MOL0     H86070   8.843   3.914   5.962 -0.5937 -1.6356  2.2826
  624MOL0     H86071   8.915   3.709   5.915  0.1779  1.8222 -0.1734
  624MOL0     H86072   9.025   3.630   6.038 -0.4019  2.3850  2.7419
  624MOL0     H86073   9.090   3.713   5.895  2.0629 -5.8412  0.8159
  624MOL0     H86074   9.557   3.744   6.068 -2.6653 -0.2550  1.0553
  624MOL0     H86075   9.737   3.602   6.072 -0.4192 -2.6612  1.5237
  624MOL0     H86076   9.688   3.186   6.113 -0.7008 -1.7897 -0.7114
  624MOL0     H86077   9.667   3.185   5.935 -1.7614  0.2203  1.9915
  624MOL0     H86078   9.922   3.195   5.908  0.8112 -1.7746 -0.4498
  624MOL0     H86079   9.946   3.189   6.079  1.2818 -0.6983 -1.0603
  624MOL0     H86080   9.938   2.980   6.088  1.9692 -0.8334 -0.7264
  624MOL0     H86081   9.977   2.987   5.914  1.7451  1.7967 -0.4178
  624MOL0     H86082   9.744   2.960   5.859 -2.8342 -3.9299  0.0291
  624MOL0     H86083   9.684   2.962   6.026 -2.3192 -1.6855 -1.1973
  624MOL0     H86084   9.893   2.769   6.031  0.8587  2.5375 -0.8265
  624MOL0     H86085   9.727   2.746   6.064 -0.2106  0.3097  0.8013
  624MOL0     H86086   9.695   2.721   5.824  0.2232  0.3213  1.3271
  624MOL0     H86087   9.775   2.584   5.903  1.8999 -1.4814 -2.3621
  624MOL0     H86088   9.996   2.667   5.838 -0.8047 -0.9167  0.3725
  624MOL0     H86089   9.911   2.799   5.739 -3.4745  0.5460  1.8614
  624MOL0     H86090   9.982   2.631   5.592  1.6720 -0.1346  2.1179
  624MOL0     H86091   9.806   2.597   5.620 -1.4170  0.0054  1.8915
  624MOL0     H86092   9.480   3.270   5.974  1.4670 -0.8681  0.9086
  624MOL0     H86093   9.285   3.432   5.989 -0.0997 -1.1846  1.2200
  624MOL0     H86094   9.262   3.982   6.228  1.6981 -2.6015 -3.2725
  624MOL0     H86095   9.089   4.157   6.230  3.3105 -0.1382 -0.9352
  624MOL0     H86096   7.474   4.177   6.500 -1.8994 -3.3530  0.1772
  624MOL0     H86097   7.318   4.043   6.649 -4.1707 -1.7353 -0.7405
  624MOL0     H86098   6.798   3.878   6.703  2.6813 -3.8700 -1.6497
  624MOL0     H86099   6.728   3.715   6.843 -0.3578 -0.2146  2.1122
  624MOL0     H86100   6.629   3.598   7.023 -1.0446  1.3014  0.6384
  624MOL0     H86101   6.755   3.489   6.966 -1.4022  3.6027 -2.5464
  624MOL0     H86102   6.819   3.437   7.209  2.2641  3.1692  1.7741
  624MOL0     H86103   6.635   3.408   7.189 -0.2089  1.1035  1.1566
  624MOL0     H86104   6.684   3.683   7.264  1.1000  0.6293 -3.0915
  624MOL0     H86105   6.590   3.549   7.340  0.1604 -1.4022 -0.8976
  624MOL0     H86106   6.764   3.648   7.487 -1.9877 -0.6951 -0.6654
  624MOL0     H86107   6.885   3.628   7.375 -1.0931  2.3779  0.1693
  624MOL0     H86108   6.893   3.252   7.557  1.3865  2.1878  1.6239
  624MOL0     H86109   7.045   3.773   7.116 -1.9205  0.6160  2.0617
  624MOL0     H86110   7.231   3.909   7.051  1.2651 -1.6360 -0.8749
  624MOL0     H86111   7.253   3.995   6.896 -0.5338  0.2277 -0.0537
  624MOL0     H86112   7.155   4.072   7.020  2.8956  0.2285  0.6131
  625MOL0     O86113   5.105   4.283   0.886 -0.3576 -0.3986  0.1930
  625MOL0     C86114   5.134   4.170   0.872  0.0825  0.0656  1.1101
  625MOL0     O86115   5.063   4.083   0.795 -1.1486  0.4687 -1.0416
  625MOL0     C86116   4.938   4.099   0.737 -0.0692 -0.6473  0.6051
  625MOL0     C86117   4.924   4.095   0.604  0.4104  0.1820  0.1782
  625MOL0     C86118   4.807   4.095   0.533  0.6850 -0.0676  0.6046
  625MOL0     C86119   4.687   4.118   0.602  0.3469 -0.6090 -0.2325
  625MOL0     O86120   4.565   4.111   0.547  0.2412  0.1817  0.5678
  625MOL0     C86121   4.542   4.002   0.452  0.2933 -0.4715 -0.2821
  625MOL0     C86122   4.408   4.026   0.393  0.5720  1.3523  0.7809
  625MOL0     C86123   4.299   3.995   0.496 -0.5431 -0.0486  1.0125
  625MOL0     C86124   4.163   4.061   0.451 -0.3573  0.0760 -0.1873
  625MOL0     C86125   4.038   4.026   0.550 -0.2920  0.1761  0.4112
  625MOL0     C86126   3.909   4.071   0.501  0.8886 -1.1013  0.5499
  625MOL0     C86127   3.801   4.031   0.592  1.0963  0.1591 -1.1090
  625MOL0     C86128   3.692   4.138   0.645 -0.2199  0.2049  0.2645
  625MOL0     N86129   3.749   4.253   0.713  0.1381 -0.2353  0.1000
  625MOL0     C86130   3.795   4.360   0.641 -0.4325  0.0062 -0.0419
  625MOL0     C86131   3.856   4.433   0.741  0.4992  0.8695  0.4704
  625MOL0     C86132   3.920   4.564   0.724 -0.2275 -0.2453 -0.0153
  625MOL0     C86133   4.058   4.557   0.654  0.2054 -0.0513 -0.5580
  625MOL0     C86134   4.049   4.587   0.498  0.0430 -0.1051  0.3197
  625MOL0     C86135   4.039   4.461   0.409 -0.5340  0.3000 -0.9113
  625MOL0     O86136   4.055   4.512   0.270  0.2902 -0.2656  1.5335
  625MOL0     C86137   4.107   4.421   0.173 -1.3203  0.9223 -1.2365
  625MOL0     C86138   4.082   4.277   0.154 -0.4593  0.6218 -0.4328
  625MOL0     C86139   4.151   4.203   0.053 -0.3861  0.1486  1.3338
  625MOL0     C86140   4.133   4.055   0.051  0.1617  0.2735 -0.8244
  625MOL0     C86141   4.250   4.266  -0.026 -0.2254 -0.1032 -0.3590
  625MOL0     C86142   4.350   4.213  -0.117 -0.3012 -0.6849 -0.2305
  625MOL0     O86143   4.393   4.293  -0.231 -0.7322 -0.2464 -1.1110
  625MOL0     C86144   4.517   4.256  -0.288  0.0444  0.2172 -0.8271
  625MOL0     C86145   4.538   4.237  -0.426 -0.8607 -0.1154  0.3256
  625MOL0     C86146   4.660   4.179  -0.478  0.7660 -0.0074 -0.0005
  625MOL0     C86147   4.772   4.164  -0.399  0.8276  0.2695  1.1372
  625MOL0     O86148   4.895   4.124  -0.456 -0.5182 -1.4505  0.1206
  625MOL0     C86149   5.015   4.133  -0.373 -0.0920 -0.4382  0.3086
  625MOL0     C86150   5.148   4.116  -0.457  0.8228  1.3934 -0.1390
  625MOL0     C86151   5.176   4.249  -0.543 -0.4754  0.5540 -1.1958
  625MOL0     C86152   5.304   4.231  -0.619  0.1826 -0.4219  0.5299
  625MOL0     C86153   5.439   4.240  -0.534  0.6505 -0.6375 -0.4902
  625MOL0     C86154   5.471   4.379  -0.496 -0.4394  0.0945 -0.4272
  625MOL0     C86155   5.593   4.401  -0.402 -0.2789 -0.3649  0.1852
  625MOL0     C86156   5.719   4.363  -0.470  0.4235  0.4070  0.2371
  625MOL0    Cl86157   5.746   4.190  -0.421 -0.0658 -0.0475 -0.1785
  625MOL0     C86158   4.762   4.198  -0.260  0.9483  0.3061  0.4890
  625MOL0     C86159   4.632   4.238  -0.210  0.9840  0.7807  0.0702
  625MOL0     O86160   4.399   4.103  -0.089 -0.3491 -0.4414  0.3689
  625MOL0     C86161   4.272   4.404   0.001  0.2574 -0.0093  0.3856
  625MOL0     C86162   4.206   4.481   0.087 -0.3937  0.4657 -1.0088
  625MOL0     N86163   3.839   4.367   0.864  0.2372 -0.4675 -0.1675
  625MOL0     N86164   3.769   4.269   0.847  0.2251 -0.2997  0.2200
  625MOL0     C86165   4.693   4.134   0.744 -0.3668 -0.3454 -0.4449
  625MOL0     C86166   4.818   4.113   0.813  0.2306  0.1855  1.1196
  625MOL0     C86167   5.256   4.107   0.940 -0.3532 -0.3146  0.4592
  625MOL0     C86168   5.241   3.971   0.969  0.4545 -0.5745  0.0235
  625MOL0     C86169   5.342   3.900   1.016  0.5256  0.6637  0.6270
  625MOL0     C86170   5.470   3.958   1.041  0.3015  0.0675  0.1404
  625MOL0     O86171   5.561   3.862   1.072 -0.2621  0.3219  0.4237
  625MOL0     C86172   5.701   3.890   1.025  0.2120  0.7049 -0.2614
  625MOL0     C86173   5.794   3.899   1.141 -0.4491  0.2170  0.4185
  625MOL0     C86174   5.779   4.022   1.227  0.3003  0.3586 -1.1667
  625MOL0     C86175   5.906   4.046   1.311 -0.4572  0.0420  0.0023
  625MOL0     C86176   5.974   4.166   1.259  0.3269 -0.1306  0.1738
  625MOL0     C86177   6.018   4.266   1.203  0.4019 -0.2376 -0.7377
  625MOL0     C86178   5.481   4.102   1.017 -0.4359 -0.7446  0.3192
  625MOL0     C86179   5.372   4.176   0.973  0.6492 -0.3604  0.2370
  625MOL0     C86180   5.391   4.322   0.961  0.5433 -0.2434 -0.3716
  625MOL0     H86181   5.022   4.094   0.556  0.4256  0.2699  0.2064
  625MOL0     H86182   4.805   4.079   0.426 -0.8618 -0.4209  0.6664
  625MOL0     H86183   4.544   3.905   0.501  2.7459 -3.3342 -5.2589
  625MOL0     H86184   4.622   4.007   0.378  1.5635  2.2542  1.1141
  625MOL0     H86185   4.403   4.129   0.356 -1.9884  1.5228  1.3953
  625MOL0     H86186   4.399   3.965   0.302 -0.2119 -1.6324  2.7077
  625MOL0     H86187   4.279   3.887   0.499 -0.5924 -0.0947 -0.3920
  625MOL0     H86188   4.316   4.025   0.600  1.8090  2.9894 -0.1149
  625MOL0     H86189   4.166   4.170   0.459  3.0857 -0.0477  4.9566
  625MOL0     H86190   4.134   4.037   0.348 -2.2171 -1.3420  0.6110
  625MOL0     H86191   4.061   4.083   0.641  1.0423  0.6320 -0.1827
  625MOL0     H86192   4.050   3.923   0.584  1.8929  0.2839  0.1053
  625MOL0     H86193   3.900   4.180   0.490 -0.1538 -1.0582  1.6544
  625MOL0     H86194   3.889   4.022   0.405 -1.4781 -2.3134  1.6033
  625MOL0     H86195   3.861   4.015   0.682  1.2680  2.9062 -0.6411
  625MOL0     H86196   3.747   3.940   0.566  1.1802  0.0749 -0.9941
  625MOL0     H86197   3.636   4.181   0.562  1.5071  4.5941  1.1284
  625MOL0     H86198   3.621   4.081   0.707 -0.7859  2.7665  2.1138
  625MOL0     H86199   3.773   4.386   0.538 -1.6735  1.1781  0.4862
  625MOL0     H86200   3.930   4.611   0.823 -1.4274  0.3774 -0.1580
  625MOL0     H86201   3.851   4.627   0.666  1.1805  0.0927 -1.3893
  625MOL0     H86202   4.127   4.625   0.704 -2.0241  0.1550  2.5216
  625MOL0     H86203   4.099   4.458   0.676  2.9361  0.8082 -1.3551
  625MOL0     H86204   3.985   4.671   0.472 -0.6974  0.8455  4.4333
  625MOL0     H86205   4.153   4.609   0.471 -0.4897  1.1950 -0.7632
  625MOL0     H86206   4.113   4.384   0.431 -2.9199 -1.7442  0.4465
  625MOL0     H86207   3.938   4.424   0.430  0.0521  1.0901  4.8567
  625MOL0     H86208   4.015   4.224   0.221  1.7570 -1.1851  0.4723
  625MOL0     H86209   4.169   4.017  -0.046 -0.8765 -2.4718 -0.2191
  625MOL0     H86210   4.032   4.023   0.076  1.5203 -3.1652  0.9860
  625MOL0     H86211   4.210   4.005   0.111  0.5464  1.5831 -0.1931
  625MOL0     H86212   4.447   4.255  -0.482 -1.0620  0.8763  0.9545
  625MOL0     H86213   4.655   4.168  -0.586 -3.4100  3.8590 -0.5238
  625MOL0     H86214   5.015   4.232  -0.327  1.5456  0.9859 -2.4764
  625MOL0     H86215   5.032   4.053  -0.301  2.6239  0.0671  0.3088
  625MOL0     H86216   5.217   4.095  -0.375 -0.4880 -1.2612  0.4032
  625MOL0     H86217   5.139   4.028  -0.522 -0.7347  1.0947  0.4469
  625MOL0     H86218   5.202   4.329  -0.472 -1.9969  0.9868 -1.0914
  625MOL0     H86219   5.087   4.278  -0.600 -1.8125  1.9786  1.4303
  625MOL0     H86220   5.309   4.301  -0.703 -2.4094  0.4196  0.9918
  625MOL0     H86221   5.291   4.139  -0.678  2.8656  1.9057 -4.2655
  625MOL0     H86222   5.410   4.187  -0.442 -0.9202 -0.5271 -0.8867
  625MOL0     H86223   5.521   4.193  -0.589  0.0338 -0.9930 -1.1246
  625MOL0     H86224   5.378   4.415  -0.449  0.4614 -0.1951  1.7037
  625MOL0     H86225   5.500   4.434  -0.586 -0.2757 -0.5973 -0.7993
  625MOL0     H86226   5.585   4.341  -0.311  1.8868 -0.8599  0.1094
  625MOL0     H86227   5.602   4.503  -0.365  1.0594 -1.4777  3.2937
  625MOL0     H86228   5.802   4.424  -0.433  1.7939 -2.4461  2.2351
  625MOL0     H86229   5.718   4.369  -0.579 -4.7890 -0.9102 -0.0784
  625MOL0     H86230   4.853   4.212  -0.202  0.1111  1.9290  1.4788
  625MOL0     H86231   4.627   4.263  -0.105 -2.5846  1.6637 -0.1784
  625MOL0     H86232   4.349   4.465  -0.046 -1.5980  2.6686  0.6079
  625MOL0     H86233   4.249   4.578   0.112  2.2268 -1.3570  2.3233
  625MOL0     H86234   4.602   4.156   0.798 -0.4436  0.1709 -0.7703
  625MOL0     H86235   4.797   4.132   0.918  3.5644 -1.8721  2.3369
  625MOL0     H86236   5.150   3.917   0.945 -1.1639  0.8332  2.4595
  625MOL0     H86237   5.335   3.794   1.037  2.8090  0.4303  0.4058
  625MOL0     H86238   5.724   3.798   0.969 -1.2257 -1.3624  2.3205
  625MOL0     H86239   5.703   3.982   0.967 -0.9541  0.1506 -1.2388
  625MOL0     H86240   5.896   3.891   1.103  0.3672 -2.9399  2.8384
  625MOL0     H86241   5.779   3.804   1.193 -0.0761 -0.5237 -0.7761
  625MOL0     H86242   5.753   4.108   1.166 -2.1748 -0.3956 -1.2925
  625MOL0     H86243   5.686   3.999   1.282 -0.0404  1.4372 -1.2756
  625MOL0     H86244   5.977   3.962   1.311 -0.9815 -0.4091  0.7364
  625MOL0     H86245   5.881   4.051   1.417 -1.4686 -2.5415 -0.0352
  625MOL0     H86246   6.067   4.356   1.172  3.2521 -0.9980  1.1469
  625MOL0     H86247   5.571   4.152   1.053 -1.2517  1.2683 -0.2833
  625MOL0     H86248   5.332   4.378   1.034  0.8664 -0.0107 -0.2853
  625MOL0     H86249   5.491   4.363   0.975  0.5566 -0.4645  0.2048
  625MOL0     H86250   5.359   4.360   0.864 -3.5183  3.1462  1.9732
  626MOL0     O86251   0.930  10.047   3.953 -0.7706  0.1517 -0.8537
  626MOL0     C86252   0.808  10.031   3.985 -0.1766  1.0208  0.5686
  626MOL0     O86253   0.708   9.983   3.903 -0.5262 -0.3209  0.0185
  626MOL0     C86254   0.761   9.978   3.777 -0.2198 -0.4762  0.5540
  626MOL0     C86255   0.834   9.866   3.730  0.2822  0.1211  0.1854
  626MOL0     C86256   0.906   9.866   3.605  1.0144  0.9146 -0.0824
  626MOL0     C86257   0.892   9.991   3.536  1.1493  0.3713 -0.6514
  626MOL0     O86258   0.961   9.998   3.420 -0.2709 -0.2911 -0.2413
  626MOL0     C86259   0.895   9.990   3.290 -0.1771 -0.5982 -1.2342
  626MOL0     C86260   1.001  10.002   3.185 -0.3029  0.3574 -0.1391
  626MOL0     C86261   0.943  10.020   3.048  0.6132 -0.4377  0.1825
  626MOL0     C86262   1.063  10.055   2.960 -0.2896 -1.2298 -0.8709
  626MOL0     C86263   1.098  10.201   2.958 -0.0540  0.2927  1.0519
  626MOL0     C86264   1.229  10.230   2.891 -0.8315  0.3305  0.5489
  626MOL0     C86265   1.290  10.358   2.953  0.2251  0.4055  0.2331
  626MOL0     C86266   1.182  10.484   2.941 -0.5567 -0.6591  0.4566
  626MOL0     N86267   1.249  10.611   2.952  0.0640 -0.2531 -0.4392
  626MOL0     C86268   1.301  10.669   3.069 -1.0249  0.0769  0.4493
  626MOL0     C86269   1.341  10.788   3.027 -0.1161 -0.3082  0.2163
  626MOL0     C86270   1.418  10.893   3.106  0.2897  1.3862  0.0836
  626MOL0     C86271   1.352  11.030   3.090  0.1768  0.4888 -1.2484
  626MOL0     C86272   1.446  11.136   3.152  0.5062  0.6284  0.8468
  626MOL0     C86273   1.400  11.276   3.147 -0.8935  0.0140  0.4067
  626MOL0     O86274   1.268  11.270   3.204 -0.1919 -0.4151  1.1235
  626MOL0     C86275   1.223  11.382   3.247 -0.3558 -0.4842  0.4152
  626MOL0     C86276   1.193  11.490   3.163  0.0887 -0.1890  0.0947
  626MOL0     C86277   1.116  11.601   3.214 -1.3729  1.2380  0.1837
  626MOL0     C86278   1.077  11.714   3.121  0.1966 -0.5792 -0.3247
  626MOL0     C86279   1.088  11.602   3.352 -0.8121 -0.0244  0.0345
  626MOL0     C86280   1.020  11.714   3.417  0.0112 -0.0247  1.1526
  626MOL0     O86281   1.086  11.819   3.477  0.5068 -0.5277 -0.1364
  626MOL0     C86282   1.006  11.930   3.491 -0.1849  0.5792 -0.1698
  626MOL0     C86283   0.952  11.964   3.618  0.7461  0.3429  0.6538
  626MOL0     C86284   0.861  12.069   3.634 -0.3603 -0.1100  0.3593
  626MOL0     C86285   0.833  12.156   3.524  0.7612  0.9172  0.6652
  626MOL0     O86286   0.731  12.256   3.531 -1.0514 -0.2434 -0.4505
  626MOL0     C86287   0.722  12.327   3.660 -0.7224 -0.3942  0.8689
  626MOL0     C86288   0.583  12.393   3.665 -0.0818  0.3535 -0.2002
  626MOL0     C86289   0.571  12.504   3.560 -1.1735  0.0174 -0.1716
  626MOL0     C86290   0.448  12.596   3.593  0.0567  1.3222  0.5063
  626MOL0     C86291   0.423  12.706   3.495  0.4387 -0.7366 -0.5630
  626MOL0     C86292   0.273  12.744   3.478  0.1321 -0.0353  0.1415
  626MOL0     C86293   0.196  12.631   3.404 -0.1463  0.4538 -2.5055
  626MOL0     C86294   0.056  12.664   3.370  0.0695 -0.1058 -0.4257
  626MOL0    Cl86295   0.040  12.811   3.248 -0.0821  0.1905  0.1372
  626MOL0     C86296   0.883  12.124   3.398 -0.5362 -0.0786  0.4444
  626MOL0     C86297   0.964  12.008   3.383 -0.5472 -0.5173  0.1032
  626MOL0     O86298   0.903  11.702   3.391  1.0345 -0.2038 -0.3134
  626MOL0     C86299   1.135  11.502   3.426 -0.1684  1.3632 -1.3002
  626MOL0     C86300   1.192  11.383   3.383  0.2134 -0.9021 -0.4408
  626MOL0     N86301   1.312  10.811   2.894  0.7774 -0.4513  0.2043
  626MOL0     N86302   1.256  10.700   2.848 -0.1481 -0.5932 -0.5795
  626MOL0     C86303   0.820  10.104   3.580  0.7674  0.8385 -0.3087
  626MOL0     C86304   0.752  10.098   3.699  0.0644  0.1879  0.2798
  626MOL0     C86305   0.770  10.034   4.126 -0.4431 -0.5056  0.3416
  626MOL0     C86306   0.657   9.954   4.172 -1.0410 -0.1136  0.5887
  626MOL0     C86307   0.636   9.946   4.308 -1.1734 -0.3765 -0.3492
  626MOL0     C86308   0.714  10.014   4.394  0.4605 -0.5194 -0.5204
  626MOL0     O86309   0.664   9.994   4.526  0.0810  0.4104  0.0692
  626MOL0     C86310   0.649  10.107   4.616  0.5332  0.3126 -0.2720
  626MOL0     C86311   0.527  10.186   4.569 -0.5270  0.5328  0.4198
  626MOL0     C86312   0.473  10.301   4.661  0.8696  0.1107  0.3594
  626MOL0     C86313   0.567  10.423   4.627 -1.1113 -0.9933 -1.1269
  626MOL0     C86314   0.593  10.493   4.753 -0.2992 -0.3612 -0.2708
  626MOL0     C86315   0.601  10.551   4.853  0.0473  0.7362 -0.9482
  626MOL0     C86316   0.827  10.092   4.356  0.5320 -0.0641  0.6356
  626MOL0     C86317   0.849  10.103   4.215  0.4320  0.3417 -0.1787
  626MOL0     C86318   0.965  10.196   4.187 -0.1780 -0.0039  0.1708
  626MOL0     H86319   0.843   9.782   3.798  0.9681 -0.8535 -1.0833
  626MOL0     H86320   0.959   9.776   3.574  1.2160  1.1757 -0.5032
  626MOL0     H86321   0.814  10.064   3.282  1.7323  1.5287 -2.3320
  626MOL0     H86322   0.862   9.886   3.296  0.5627 -0.8223 -0.9511
  626MOL0     H86323   1.061  10.090   3.210  1.3845 -0.0428 -2.4553
  626MOL0     H86324   1.061   9.911   3.188 -0.3764 -0.0665 -4.3703
  626MOL0     H86325   0.886   9.929   3.028 -0.6184 -0.0388  1.6418
  626MOL0     H86326   0.872  10.104   3.049  1.1639  0.1269  3.8863
  626MOL0     H86327   1.138   9.989   3.004 -0.7104  0.2658  2.3569
  626MOL0     H86328   1.058  10.020   2.856  1.9369 -0.1553 -1.4048
  626MOL0     H86329   1.085  10.231   3.062  1.9764 -0.6639  1.6394
  626MOL0     H86330   1.026  10.247   2.890  2.3302 -0.4140 -2.2146
  626MOL0     H86331   1.291  10.140   2.891 -2.2562 -0.6725  0.9070
  626MOL0     H86332   1.220  10.252   2.785  1.7989 -1.0903 -0.0379
  626MOL0     H86333   1.383  10.381   2.900  1.3468 -1.9850  0.9743
  626MOL0     H86334   1.315  10.342   3.058 -0.3747 -0.0242  0.3157
  626MOL0     H86335   1.145  10.466   2.839  1.4157 -0.2092 -0.3850
  626MOL0     H86336   1.101  10.477   3.014 -3.0339 -2.7366 -2.2155
  626MOL0     H86337   1.312  10.635   3.171 -1.6892 -0.2126  0.4329
  626MOL0     H86338   1.519  10.891   3.066  0.7053 -3.3477  0.8630
  626MOL0     H86339   1.411  10.878   3.215 -0.1018 -0.2226 -0.1409
  626MOL0     H86340   1.324  11.059   2.988 -0.8064  0.4963 -0.9933
  626MOL0     H86341   1.265  11.034   3.157  2.0013  1.6726  1.2323
  626MOL0     H86342   1.459  11.104   3.256 -2.1257  0.2750  1.1487
  626MOL0     H86343   1.537  11.122   3.093 -1.3939 -0.8030 -1.9939
  626MOL0     H86344   1.466  11.336   3.211  3.2013 -0.9499 -2.5504
  626MOL0     H86345   1.393  11.314   3.045  1.2847  1.8407  0.8542
  626MOL0     H86346   1.212  11.476   3.058  0.6737 -0.5842  0.2497
  626MOL0     H86347   1.128  11.802   3.160 -1.6251 -0.1097  1.1035
  626MOL0     H86348   0.973  11.737   3.144  0.0318 -1.2270 -0.3873
  626MOL0     H86349   1.097  11.691   3.015 -3.2954 -3.8465 -0.4839
  626MOL0     H86350   0.972  11.903   3.706  2.0675 -0.8572 -0.4255
  626MOL0     H86351   0.818  12.090   3.731  0.3176  0.3588  0.5611
  626MOL0     H86352   0.723  12.265   3.751  0.5031 -1.1730  0.3506
  626MOL0     H86353   0.807  12.395   3.664  0.4262 -1.6210 -1.1709
  626MOL0     H86354   0.497  12.328   3.651 -0.1608 -0.5406  3.3645
  626MOL0     H86355   0.575  12.428   3.769 -2.2432 -1.9497  0.5086
  626MOL0     H86356   0.566  12.462   3.459 -4.3435  0.6779 -0.3954
  626MOL0     H86357   0.660  12.565   3.575 -1.9138  0.6722  1.8925
  626MOL0     H86358   0.449  12.624   3.699 -0.2519  0.4931  0.7352
  626MOL0     H86359   0.370  12.520   3.585  1.7243 -0.4931  0.7223
  626MOL0     H86360   0.480  12.793   3.529 -0.7362 -0.7753  1.6831
  626MOL0     H86361   0.469  12.683   3.398  3.4042 -0.1232  0.5669
  626MOL0     H86362   0.259  12.842   3.433  0.6058 -0.7456 -1.6447
  626MOL0     H86363   0.245  12.748   3.584  0.6558  0.4781  0.2611
  626MOL0     H86364   0.218  12.544   3.466  2.7659  4.1072  2.2889
  626MOL0     H86365   0.248  12.623   3.308  3.8448  1.0151 -0.6074
  626MOL0     H86366  -0.005  12.677   3.460 -2.2366 -2.0082 -1.5920
  626MOL0     H86367   0.004  12.583   3.318  2.1158 -0.1606 -2.5864
  626MOL0     H86368   0.883  12.205   3.325 -1.8044  2.0257  2.5996
  626MOL0     H86369   1.001  11.986   3.283 -1.5562  0.1720 -0.4450
  626MOL0     H86370   1.103  11.521   3.528  1.0838  2.1935 -1.0444
  626MOL0     H86371   1.211  11.301   3.452  0.5899  2.3263  3.6864
  626MOL0     H86372   0.830  10.198   3.526  0.1189  0.3299 -1.3683
  626MOL0     H86373   0.703  10.186   3.739  0.4189 -0.0751  1.3550
  626MOL0     H86374   0.609   9.884   4.104 -1.3681 -2.5003  3.0819
  626MOL0     H86375   0.560   9.882   4.352 -0.7946 -0.6303 -0.0651
  626MOL0     H86376   0.628  10.066   4.715 -1.2114  2.5121  0.3500
  626MOL0     H86377   0.737  10.171   4.622  1.7409 -1.3566  0.7196
  626MOL0     H86378   0.443  10.121   4.543 -2.2727  2.9642 -0.3901
  626MOL0     H86379   0.542  10.232   4.471 -3.3160 -1.2713 -0.9873
  626MOL0     H86380   0.374  10.334   4.627  1.7019  2.6299  0.1694
  626MOL0     H86381   0.463  10.274   4.767  1.8586  5.5411  2.1356
  626MOL0     H86382   0.517  10.479   4.548 -2.0750  2.1134  1.4331
  626MOL0     H86383   0.660  10.391   4.579 -0.7811 -4.0052  1.1835
  626MOL0     H86384   0.604  10.609   4.943  0.5354 -1.2542  0.3880
  626MOL0     H86385   0.904  10.138   4.416  0.5441  0.0806  0.5098
  626MOL0     H86386   0.926  10.256   4.104 -0.4117  1.3919  1.2518
  626MOL0     H86387   0.993  10.265   4.267  0.2721  0.8454 -0.6819
  626MOL0     H86388   1.048  10.140   4.144 -0.2894 -1.6478  1.9970
  627MOL0     O86389  10.101   9.466   0.593 -0.2946  0.6450  0.5128
  627MOL0     C86390  10.037   9.365   0.635  0.7682 -0.3435 -0.4307
  627MOL0     O86391  10.036   9.330   0.763 -0.3886  1.0441 -0.4143
  627MOL0     C86392  10.105   9.398   0.859  0.0526 -0.2187  0.5122
  627MOL0     C86393  10.200   9.328   0.927  0.0740  0.1930 -0.0406
  627MOL0     C86394  10.288   9.382   1.024 -0.5038 -1.0601  0.8192
  627MOL0     C86395  10.277   9.508   1.065  0.5930  0.5896  0.5480
  627MOL0     O86396  10.339   9.573   1.161 -1.4671 -0.4192  0.3703
  627MOL0     C86397  10.487   9.560   1.172 -0.1885 -1.3550 -0.0798
  627MOL0     C86398  10.546   9.597   1.316  0.5748 -0.8307 -0.2322
  627MOL0     C86399  10.493   9.499   1.423 -0.5107 -0.1930 -0.2900
  627MOL0     C86400  10.573   9.364   1.405  0.4293  0.0235  0.3976
  627MOL0     C86401  10.516   9.255   1.482  0.3179  0.6979  0.2785
  627MOL0     C86402  10.619   9.139   1.532 -0.3823 -0.1605 -0.3561
  627MOL0     C86403  10.548   9.037   1.619  0.6294  0.3288 -0.5558
  627MOL0     C86404  10.638   8.914   1.660 -0.6008 -0.1102 -0.3162
  627MOL0     N86405  10.675   8.822   1.556 -0.1659  1.2688 -0.0339
  627MOL0     C86406  10.768   8.839   1.454 -0.4255 -1.2824 -0.4585
  627MOL0     C86407  10.768   8.714   1.393  0.7105  0.8739  0.0683
  627MOL0     C86408  10.842   8.671   1.265 -1.1389 -0.7790  0.1764
  627MOL0     C86409  10.986   8.616   1.306 -0.1762  0.0545 -0.0436
  627MOL0     C86410  11.066   8.563   1.187 -0.9918  0.6756  0.3602
  627MOL0     C86411  11.072   8.410   1.200 -0.5197 -0.4082 -0.5833
  627MOL0     O86412  11.148   8.378   1.078 -0.2945 -0.4546 -0.9741
  627MOL0     C86413  11.184   8.244   1.047  0.5591  0.9982  0.2896
  627MOL0     C86414  11.276   8.221   0.953 -0.3727 -0.2147 -0.0328
  627MOL0     C86415  11.311   8.093   0.908 -0.1136 -0.1648 -0.2220
  627MOL0     C86416  11.447   8.079   0.839  0.6111  1.4644 -0.4741
  627MOL0     C86417  11.232   7.980   0.943 -0.0794  0.1426 -0.1275
  627MOL0     C86418  11.268   7.849   0.873  1.3242  0.8020  0.8246
  627MOL0     O86419  11.398   7.798   0.874  0.0502 -1.2719 -0.5807
  627MOL0     C86420  11.440   7.672   0.854 -0.5788 -0.5446  0.7785
  627MOL0     C86421  11.489   7.634   0.727  0.4965 -0.6209  0.7842
  627MOL0     C86422  11.564   7.520   0.717 -0.6412 -0.0674 -0.4642
  627MOL0     C86423  11.570   7.424   0.825 -0.0798 -1.4717  0.8424
  627MOL0     O86424  11.640   7.307   0.813  0.6994  0.1724  0.1507
  627MOL0     C86425  11.594   7.193   0.886  0.7141 -0.6284 -0.2788
  627MOL0     C86426  11.681   7.072   0.870 -0.4715  0.2226 -0.3381
  627MOL0     C86427  11.626   6.932   0.913 -0.2379 -0.0358  0.2438
  627MOL0     C86428  11.604   6.900   1.064 -0.6577 -0.8957  0.4461
  627MOL0     C86429  11.735   6.935   1.135 -0.1680 -0.5103 -0.7480
  627MOL0     C86430  11.732   6.906   1.285  0.1812 -0.3232 -0.8857
  627MOL0     C86431  11.863   6.960   1.355  0.5254  0.3812  0.6062
  627MOL0     C86432  11.834   7.102   1.416  0.5583 -0.2919  0.4271
  627MOL0    Cl86433  11.712   7.103   1.549 -0.2138  0.5560  0.3286
  627MOL0     C86434  11.513   7.464   0.945 -0.9343  0.4820  1.3710
  627MOL0     C86435  11.456   7.589   0.960 -0.3493  0.4639 -0.5148
  627MOL0     O86436  11.173   7.782   0.840 -0.0310 -0.6737  0.4893
  627MOL0     C86437  11.134   8.010   1.029  0.8990  0.4471  0.0300
  627MOL0     C86438  11.104   8.135   1.082 -0.4168  0.1920 -0.5253
  627MOL0     N86439  10.682   8.630   1.466  0.1221 -0.4978 -0.9776
  627MOL0     N86440  10.630   8.692   1.569  0.8508  0.2834 -0.3601
  627MOL0     C86441  10.183   9.592   1.000 -0.0263 -0.6001  0.6870
  627MOL0     C86442  10.103   9.539   0.890 -0.6586  0.2753 -1.1082
  627MOL0     C86443   9.953   9.274   0.545 -0.3415 -0.2640 -1.6902
  627MOL0     C86444   9.912   9.155   0.596  0.1526  0.4355  0.5418
  627MOL0     C86445   9.840   9.058   0.532 -0.7436  0.3365  0.6364
  627MOL0     C86446   9.802   9.077   0.398  0.2503  0.5115 -0.2670
  627MOL0     O86447   9.732   8.985   0.324  0.0912  0.1108 -0.1368
  627MOL0     C86448   9.718   8.858   0.377 -0.0556  0.3924 -0.2791
  627MOL0     C86449   9.585   8.842   0.442 -0.3771 -0.3332 -0.4208
  627MOL0     C86450   9.460   8.833   0.353 -0.3185  0.7783  0.7005
  627MOL0     C86451   9.320   8.795   0.417 -0.5079  0.2557 -0.3444
  627MOL0     C86452   9.315   8.657   0.411  0.9560 -0.0756 -1.0008
  627MOL0     C86453   9.315   8.537   0.392 -0.3913  0.1854 -1.5017
  627MOL0     C86454   9.837   9.193   0.335 -0.8177  0.3803 -0.0266
  627MOL0     C86455   9.921   9.293   0.413  0.4387 -0.3142 -0.7818
  627MOL0     C86456   9.933   9.425   0.343  0.0700  0.4294 -1.7820
  627MOL0     H86457  10.214   9.224   0.900  0.3203 -0.2487  1.6785
  627MOL0     H86458  10.366   9.317   1.063  1.1763  1.1124  1.2246
  627MOL0     H86459  10.545   9.627   1.107 -0.9905 -0.3028  0.2461
  627MOL0     H86460  10.535   9.465   1.148  3.0425  0.1090  0.1572
  627MOL0     H86461  10.655   9.591   1.321  0.6106  0.2235  3.4549
  627MOL0     H86462  10.517   9.700   1.337  0.0568 -0.9584 -0.3058
  627MOL0     H86463  10.510   9.536   1.525 -2.6482 -1.2036  0.5110
  627MOL0     H86464  10.384   9.491   1.413 -0.5423  1.9553 -2.5933
  627MOL0     H86465  10.577   9.336   1.299 -1.7958 -0.0981  0.2942
  627MOL0     H86466  10.673   9.385   1.444  0.4835  1.5479 -0.4751
  627MOL0     H86467  10.432   9.209   1.430 -0.5936  3.0959 -0.5259
  627MOL0     H86468  10.472   9.300   1.572 -0.6778  2.1880 -0.9007
  627MOL0     H86469  10.672   9.091   1.450 -0.7387 -2.8071  0.8558
  627MOL0     H86470  10.691   9.183   1.603 -1.6625 -0.0921  0.9494
  627MOL0     H86471  10.458   8.998   1.571  0.7692 -1.9745  0.8748
  627MOL0     H86472  10.508   9.082   1.711 -1.2307 -5.2057  1.7755
  627MOL0     H86473  10.731   8.962   1.693 -1.5071  1.2675  0.3076
  627MOL0     H86474  10.594   8.852   1.739 -0.0206 -0.0055  0.0936
  627MOL0     H86475  10.803   8.936   1.419 -2.3366 -0.5539 -0.4559
  627MOL0     H86476  10.859   8.767   1.216 -0.5600 -0.3758  1.1476
  627MOL0     H86477  10.774   8.606   1.209  0.0498  0.1770 -2.5762
  627MOL0     H86478  11.059   8.689   1.342  0.8545  0.0581 -1.9577
  627MOL0     H86479  10.976   8.541   1.384  1.5176  0.9079  1.0584
  627MOL0     H86480  11.012   8.582   1.094 -0.3545 -2.3674 -0.7316
  627MOL0     H86481  11.167   8.604   1.197 -1.2444  1.8544 -1.3605
  627MOL0     H86482  11.118   8.359   1.286 -0.6888 -0.2431 -0.3943
  627MOL0     H86483  10.976   8.359   1.185 -0.4749  0.1239 -3.0477
  627MOL0     H86484  11.337   8.298   0.907 -0.2526 -0.7250 -0.7349
  627MOL0     H86485  11.497   8.175   0.823  3.0199 -0.1801 -4.0839
  627MOL0     H86486  11.426   8.035   0.741 -1.0027 -0.0184  0.4728
  627MOL0     H86487  11.508   8.020   0.908 -0.5836 -0.6953 -1.1795
  627MOL0     H86488  11.482   7.696   0.639 -4.5261  2.1439  2.7356
  627MOL0     H86489  11.611   7.488   0.624 -2.2899  1.1337 -1.7649
  627MOL0     H86490  11.606   7.217   0.992 -2.9892 -2.8049  0.8354
  627MOL0     H86491  11.487   7.177   0.870  0.9353 -1.4528 -1.0415
  627MOL0     H86492  11.703   7.069   0.763  0.2356 -0.7000 -0.1749
  627MOL0     H86493  11.775   7.088   0.923 -1.6967  1.4328  1.6032
  627MOL0     H86494  11.688   6.854   0.867 -3.4971 -1.3766 -2.3540
  627MOL0     H86495  11.531   6.913   0.862  1.0977 -1.2274 -2.0171
  627MOL0     H86496  11.569   6.799   1.088 -2.8150 -0.1118  0.8060
  627MOL0     H86497  11.524   6.965   1.100 -1.8089 -1.3868 -1.1102
  627MOL0     H86498  11.815   6.871   1.099 -1.2843 -0.9506 -2.5470
  627MOL0     H86499  11.765   7.040   1.129 -3.3477  0.4209 -2.4919
  627MOL0     H86500  11.735   6.798   1.301  0.2598 -0.2814 -0.6148
  627MOL0     H86501  11.640   6.938   1.334  0.2377 -2.7453  0.9981
  627MOL0     H86502  11.938   6.982   1.278  0.5342 -1.5616  0.0131
  627MOL0     H86503  11.900   6.898   1.437  1.3098 -0.4394 -0.3361
  627MOL0     H86504  11.788   7.159   1.334  0.4946  1.1843  1.4437
  627MOL0     H86505  11.925   7.153   1.449 -1.6332  3.6843  0.9602
  627MOL0     H86506  11.519   7.405   1.036 -1.5832 -1.7725  0.0314
  627MOL0     H86507  11.426   7.618   1.060  6.5753  1.1278  1.9471
  627MOL0     H86508  11.070   7.928   1.059  0.3363  1.2596  1.1280
  627MOL0     H86509  11.011   8.150   1.136 -0.5472 -4.5237  0.9735
  627MOL0     H86510  10.173   9.690   1.045 -0.4491 -1.4869  2.6157
  627MOL0     H86511  10.026   9.607   0.856 -0.1199  3.2597  2.9115
  627MOL0     H86512   9.944   9.131   0.697  4.0499  2.3432 -0.0531
  627MOL0     H86513   9.814   8.964   0.578  0.9634 -0.2112  0.5438
  627MOL0     H86514   9.723   8.781   0.299 -2.0665 -0.5407  0.4301
  627MOL0     H86515   9.802   8.835   0.444 -0.2737  1.0499  0.2320
  627MOL0     H86516   9.564   8.923   0.512 -1.1773 -0.9681  0.0998
  627MOL0     H86517   9.601   8.742   0.483  1.4075 -0.8941 -2.3326
  627MOL0     H86518   9.439   8.933   0.314 -0.0492  1.4910  2.3005
  627MOL0     H86519   9.456   8.765   0.268 -0.9015  2.5949 -0.7771
  627MOL0     H86520   9.233   8.829   0.359  0.4234 -0.4091 -2.1928
  627MOL0     H86521   9.331   8.835   0.518 -0.0749  2.6097 -1.2440
  627MOL0     H86522   9.333   8.432   0.399 -1.9452  0.0072  3.2591
  627MOL0     H86523   9.808   9.220   0.234 -1.4076  1.0036  0.3012
  627MOL0     H86524   9.893   9.485   0.425 -2.8796 -2.7870 -0.5953
  627MOL0     H86525  10.033   9.458   0.316  1.1798 -0.4268  0.8921
  627MOL0     H86526   9.875   9.433   0.250  2.0344 -0.5753 -3.1516
  628MOL0     O86527   1.347   3.335  10.033 -0.1536  0.4945 -0.2371
  628MOL0     C86528   1.242   3.312   9.965  0.4550 -0.1216  0.0374
  628MOL0     O86529   1.125   3.273  10.021 -0.2563 -0.1173 -0.1696
  628MOL0     C86530   1.113   3.281  10.157 -1.0515 -0.2101  0.0349
  628MOL0     C86531   1.092   3.398  10.233  0.4290  0.2816  0.1398
  628MOL0     C86532   1.065   3.387  10.370 -0.7737  0.6208 -1.0936
  628MOL0     C86533   1.078   3.265  10.445 -1.0548  0.0251 -0.2695
  628MOL0     O86534   1.068   3.252  10.586 -0.5177  1.2311 -1.2360
  628MOL0     C86535   1.044   3.371  10.661 -0.1214  0.2743  0.1110
  628MOL0     C86536   1.022   3.336  10.813  0.1237  0.5151 -0.2758
  628MOL0     C86537   1.155   3.282  10.878 -0.2395 -0.1961 -0.4696
  628MOL0     C86538   1.266   3.383  10.865 -0.8084  0.0934  0.1445
  628MOL0     C86539   1.402   3.330  10.928  0.6759 -0.0963  1.3183
  628MOL0     C86540   1.501   3.443  10.930  0.1546 -0.5354 -0.2663
  628MOL0     C86541   1.631   3.400  10.996  0.5174  0.7121 -0.1021
  628MOL0     C86542   1.737   3.502  10.945  0.2757  0.3062 -0.1061
  628MOL0     N86543   1.756   3.624  11.034 -0.0378 -0.4002 -0.6118
  628MOL0     C86544   1.661   3.722  11.069 -0.4793  0.3779  0.6016
  628MOL0     C86545   1.729   3.818  11.140 -0.7253 -0.1196  0.3510
  628MOL0     C86546   1.672   3.946  11.198 -0.4736 -0.2798 -0.2254
  628MOL0     C86547   1.557   3.914  11.287 -0.4716  0.4517  0.9234
  628MOL0     C86548   1.501   4.035  11.357 -0.4053  0.4545 -0.0448
  628MOL0     C86549   1.393   4.007  11.454 -0.3830  0.9178 -0.0025
  628MOL0     O86550   1.451   3.957  11.576  0.1852 -0.2243  0.4511
  628MOL0     C86551   1.360   3.899  11.668  0.6874  0.6766  0.7610
  628MOL0     C86552   1.302   3.774  11.638  0.0547 -0.9702 -0.3529
  628MOL0     C86553   1.206   3.724  11.723  0.6694  0.0006  0.3290
  628MOL0     C86554   1.146   3.598  11.684 -0.3718 -0.0162 -0.8924
  628MOL0     C86555   1.171   3.798  11.839 -0.2347  0.4164  0.3896
  628MOL0     C86556   1.080   3.746  11.943 -0.0415 -0.6861 -0.6412
  628MOL0     O86557   0.980   3.823  12.001 -0.1762 -0.2080  0.5932
  628MOL0     C86558   0.923   3.792  12.127 -0.5819  0.1750  1.4736
  628MOL0     C86559   0.845   3.675  12.155  0.0421  0.6806  0.5340
  628MOL0     C86560   0.803   3.631  12.277  0.2039  0.3477 -0.0744
  628MOL0     C86561   0.836   3.716  12.390  0.0400 -0.8009 -0.3325
  628MOL0     O86562   0.795   3.702  12.519  0.5254  0.2352 -0.3795
  628MOL0     C86563   0.763   3.570  12.563 -0.2382  0.3623  0.9054
  628MOL0     C86564   0.716   3.570  12.702  1.0496  0.6145 -0.2245
  628MOL0     C86565   0.817   3.632  12.803 -0.3357  1.1269 -0.2455
  628MOL0     C86566   0.763   3.652  12.945 -0.9583 -0.5997 -0.3601
  628MOL0     C86567   0.739   3.512  13.012 -0.3389  0.8806  0.5161
  628MOL0     C86568   0.733   3.497  13.166  0.3456 -0.2117 -0.8351
  628MOL0     C86569   0.742   3.341  13.203  0.4673  0.6313 -0.3073
  628MOL0     C86570   0.609   3.263  13.198 -0.0838 -0.4926 -0.1184
  628MOL0    Cl86571   0.649   3.083  13.173 -0.0594 -0.0213 -0.0825
  628MOL0     C86572   0.916   3.834  12.369  0.1909 -0.0154  0.9187
  628MOL0     C86573   0.968   3.872  12.235  0.4189  1.5314  0.1055
  628MOL0     O86574   1.092   3.626  11.968  0.4036 -0.3787 -0.6162
  628MOL0     C86575   1.221   3.924  11.865  0.4447 -0.1405  1.4812
  628MOL0     C86576   1.314   3.978  11.773 -0.8688 -0.2610 -0.6672
  628MOL0     N86577   1.866   3.782  11.136  0.0656  0.3920 -0.3046
  628MOL0     N86578   1.877   3.670  11.072 -0.7140  0.1749  0.0217
  628MOL0     C86579   1.114   3.152  10.364  0.1223  0.0085  0.1584
  628MOL0     C86580   1.128   3.165  10.227 -0.2379  0.1137 -0.1304
  628MOL0     C86581   1.243   3.349   9.827  0.8786  0.1323  0.2158
  628MOL0     C86582   1.133   3.318   9.739 -0.0770  0.6648  0.4021
  628MOL0     C86583   1.135   3.339   9.600 -0.0820  0.9182  0.5451
  628MOL0     C86584   1.239   3.407   9.536 -0.5257  0.6364 -0.4592
  628MOL0     O86585   1.226   3.450   9.409 -1.0932 -0.3102  0.0308
  628MOL0     C86586   1.346   3.520   9.358  0.1020  0.4273 -0.0272
  628MOL0     C86587   1.328   3.566   9.215  0.5488  1.0839  0.7928
  628MOL0     C86588   1.193   3.634   9.197 -0.3730 -0.6787  0.8864
  628MOL0     C86589   1.162   3.677   9.054 -0.5016 -0.3607 -0.4117
  628MOL0     C86590   1.031   3.741   9.073 -0.4388  1.0239  0.1147
  628MOL0     C86591   0.933   3.806   9.097  1.0074  0.1920  0.2379
  628MOL0     C86592   1.349   3.433   9.612  0.0322  0.4355 -0.6887
  628MOL0     C86593   1.351   3.408   9.756 -0.5413 -0.2470 -0.8894
  628MOL0     C86594   1.481   3.449   9.817 -0.0963 -0.7634  1.1258
  628MOL0     H86595   1.094   3.495  10.185 -3.7704  0.1444 -0.7029
  628MOL0     H86596   1.042   3.482  10.419 -3.2478  0.9177 -2.6730
  628MOL0     H86597   0.954   3.416  10.619  0.0099 -0.7655 -1.3681
  628MOL0     H86598   1.120   3.446  10.640 -0.7401  0.5842 -1.0541
  628MOL0     H86599   0.988   3.417  10.878  2.5070  1.0255  0.4175
  628MOL0     H86600   0.947   3.257  10.825 -2.3651  2.9727  1.5134
  628MOL0     H86601   1.154   3.270  10.987  2.8579  2.6705  0.0573
  628MOL0     H86602   1.189   3.188  10.835  0.9146 -0.5952  1.1849
  628MOL0     H86603   1.285   3.405  10.760  4.2003  2.9489  1.2670
  628MOL0     H86604   1.247   3.473  10.924  1.4348  0.0960  0.9995
  628MOL0     H86605   1.443   3.246  10.872 -1.3774 -0.5700  0.4569
  628MOL0     H86606   1.391   3.295  11.031  0.2550  1.2871  1.7700
  628MOL0     H86607   1.531   3.479  10.831  1.7579  0.8114  0.6378
  628MOL0     H86608   1.461   3.531  10.982 -0.8570 -0.6499 -0.8354
  628MOL0     H86609   1.650   3.296  10.968 -2.0059 -0.2919  1.4760
  628MOL0     H86610   1.614   3.403  11.104  0.1963  1.4432 -0.1645
  628MOL0     H86611   1.835   3.454  10.942  1.2129  2.1033 -0.0056
  628MOL0     H86612   1.721   3.537  10.842  2.5871 -2.0085 -1.3518
  628MOL0     H86613   1.555   3.702  11.066  0.0031 -2.3843 -0.8479
  628MOL0     H86614   1.621   4.001  11.119  2.4052  1.2832 -1.1331
  628MOL0     H86615   1.746   4.000  11.257 -0.5258 -0.7225  0.2569
  628MOL0     H86616   1.478   3.854  11.241 -1.5988  1.2731  1.7240
  628MOL0     H86617   1.604   3.856  11.367  2.7463  3.7698  1.6709
  628MOL0     H86618   1.576   4.087  11.417  0.3149 -4.5907  4.1223
  628MOL0     H86619   1.451   4.105  11.290 -2.3465  0.7183  1.5857
  628MOL0     H86620   1.321   4.089  11.462  0.0895  1.3376  0.0092
  628MOL0     H86621   1.339   3.921  11.414  3.0315 -0.8751 -1.2088
  628MOL0     H86622   1.321   3.716  11.548 -0.5992 -0.2301 -0.9829
  628MOL0     H86623   1.184   3.516  11.745  0.1140 -0.5192 -1.8474
  628MOL0     H86624   1.179   3.548  11.593  0.8335 -1.1147  0.1122
  628MOL0     H86625   1.037   3.605  11.696 -0.4021  3.1767 -2.1588
  628MOL0     H86626   0.815   3.612  12.072 -2.0925  0.4176  1.4305
  628MOL0     H86627   0.738   3.544  12.275  1.7119 -0.8114 -0.2256
  628MOL0     H86628   0.686   3.520  12.504  1.4264 -3.9078  2.0349
  628MOL0     H86629   0.853   3.509  12.556  0.6983  1.7434  0.5711
  628MOL0     H86630   0.617   3.612  12.717  1.0824  1.6684 -2.5492
  628MOL0     H86631   0.724   3.464  12.728  0.4594  1.0629  1.9541
  628MOL0     H86632   0.850   3.732  12.773  2.1318  1.7100  3.6807
  628MOL0     H86633   0.903   3.565  12.812  1.4145  2.9252 -2.5263
  628MOL0     H86634   0.675   3.716  12.949 -0.5135 -0.0251  1.7837
  628MOL0     H86635   0.842   3.703  13.002 -0.9513 -2.0812  1.0312
  628MOL0     H86636   0.638   3.483  12.980  0.2338 -0.5531 -0.1084
  628MOL0     H86637   0.811   3.439  12.974  0.2696  2.0358 -0.6216
  628MOL0     H86638   0.638   3.537  13.201  0.6182  0.8716 -1.2933
  628MOL0     H86639   0.816   3.555  13.210 -0.9652 -0.5016  2.2966
  628MOL0     H86640   0.787   3.318  13.300  0.6277  3.7636  0.4760
  628MOL0     H86641   0.819   3.288  13.145 -1.6612 -4.4881  1.0190
  628MOL0     H86642   0.545   3.279  13.111 -0.0653  0.8239  0.0960
  628MOL0     H86643   0.553   3.289  13.288 -0.7346 -0.6812 -0.4580
  628MOL0     H86644   0.941   3.906  12.445  0.8179  1.1849 -0.3775
  628MOL0     H86645   1.022   3.964  12.216  2.5078  0.2640 -0.3897
  628MOL0     H86646   1.207   3.971  11.961 -0.0463  0.9333  0.8992
  628MOL0     H86647   1.358   4.075  11.793 -0.5977 -0.3219 -0.9564
  628MOL0     H86648   1.134   3.056  10.412 -0.4439 -1.6468 -2.6774
  628MOL0     H86649   1.132   3.070  10.174  1.9518  1.1523 -1.9620
  628MOL0     H86650   1.050   3.266   9.786 -0.4070  0.3713 -0.4951
  628MOL0     H86651   1.046   3.307   9.548  0.5963  2.7677 -1.9589
  628MOL0     H86652   1.360   3.603   9.427 -0.7095  0.7429 -0.2316
  628MOL0     H86653   1.426   3.445   9.360 -1.8008 -1.7182  1.6906
  628MOL0     H86654   1.314   3.472   9.161 -2.5029  0.2625  2.7563
  628MOL0     H86655   1.420   3.618   9.187  0.8471 -0.1295 -0.6031
  628MOL0     H86656   1.113   3.566   9.227 -0.0248 -2.4186 -1.8034
  628MOL0     H86657   1.180   3.723   9.259 -1.7808  0.2763 -0.6847
  628MOL0     H86658   1.169   3.595   8.982 -1.2494 -0.2851 -0.5784
  628MOL0     H86659   1.227   3.757   9.018  0.1450  1.6158  4.4016
  628MOL0     H86660   0.851   3.874   9.103  0.4264 -0.5884  1.7929
  628MOL0     H86661   1.443   3.464   9.567 -0.3752  1.1951 -1.0297
  628MOL0     H86662   1.533   3.367   9.866  0.9277  0.3559  1.9765
  628MOL0     H86663   1.559   3.486   9.750 -0.0840  0.2183  1.6538
  628MOL0     H86664   1.473   3.515   9.904 -1.9749 -0.4912  0.7958
  629MOL0     O86665   3.393   1.822   7.398  0.1541  0.1909  0.1095
  629MOL0     C86666   3.368   1.812   7.517 -0.4787 -0.7219  0.5014
  629MOL0     O86667   3.249   1.779   7.574 -0.3199  0.0867 -0.2487
  629MOL0     C86668   3.176   1.689   7.498  0.5071  1.1194  0.0453
  629MOL0     C86669   3.233   1.564   7.455 -0.3896 -0.1591 -0.0454
  629MOL0     C86670   3.159   1.477   7.375  0.0881  0.4077 -1.3352
  629MOL0     C86671   3.020   1.498   7.369  0.6656  0.0713 -0.5685
  629MOL0     O86672   2.927   1.409   7.311  0.9685  0.8470  0.2717
  629MOL0     C86673   2.972   1.285   7.260  0.3427  0.1021  0.2532
  629MOL0     C86674   2.854   1.192   7.221  0.2586  0.0093 -0.1984
  629MOL0     C86675   2.726   1.240   7.143 -0.2130 -0.6999 -0.5152
  629MOL0     C86676   2.773   1.301   7.011  0.5674  0.5174 -0.3064
  629MOL0     C86677   2.648   1.361   6.943  0.5060 -0.2626 -1.4006
  629MOL0     C86678   2.535   1.263   6.912  1.0933  0.2583 -0.4620
  629MOL0     C86679   2.438   1.310   6.800 -0.1305 -0.1184  1.3487
  629MOL0     C86680   2.448   1.262   6.663 -0.5301 -0.4959 -0.4960
  629MOL0     N86681   2.560   1.323   6.592  0.3508  0.5568 -0.0527
  629MOL0     C86682   2.682   1.261   6.585  0.9352  0.4070  0.5345
  629MOL0     C86683   2.768   1.357   6.543 -0.0315  0.0621  0.6828
  629MOL0     C86684   2.908   1.336   6.516 -1.1990  0.0604 -0.5607
  629MOL0     C86685   3.000   1.420   6.609 -0.4572 -0.1962  0.8393
  629MOL0     C86686   2.987   1.368   6.755 -0.1613 -0.7700  0.3341
  629MOL0     C86687   3.085   1.414   6.860  0.2436 -0.4658  1.0682
  629MOL0     O86688   3.204   1.333   6.848 -0.3758  0.3491  0.2920
  629MOL0     C86689   3.306   1.355   6.936  0.3834 -0.3900  0.8165
  629MOL0     C86690   3.423   1.278   6.919 -0.1083  0.4352 -0.6135
  629MOL0     C86691   3.533   1.293   7.012  1.3683 -0.4985  0.4390
  629MOL0     C86692   3.639   1.190   6.999  0.8672  0.4451  0.6048
  629MOL0     C86693   3.526   1.394   7.113  1.0238  0.2570  0.7025
  629MOL0     C86694   3.633   1.424   7.210  0.7657 -0.5796  0.1101
  629MOL0     O86695   3.597   1.515   7.307 -0.7599  0.6123  0.6532
  629MOL0     C86696   3.701   1.544   7.391 -0.2742 -0.6032  0.0245
  629MOL0     C86697   3.806   1.620   7.352 -0.5889 -0.4727  0.2825
  629MOL0     C86698   3.912   1.650   7.443 -0.3898 -0.3924 -0.2583
  629MOL0     C86699   3.906   1.600   7.572 -0.5163  0.6450 -0.9350
  629MOL0     O86700   4.010   1.629   7.656  0.5016  0.4734  0.7844
  629MOL0     C86701   4.092   1.504   7.682  0.5645  0.1626  0.2168
  629MOL0     C86702   4.207   1.531   7.770  0.6173 -0.0283  0.1713
  629MOL0     C86703   4.310   1.427   7.750 -0.0003  1.0565  0.4212
  629MOL0     C86704   4.423   1.451   7.843  0.2245 -0.0706 -0.4443
  629MOL0     C86705   4.508   1.571   7.826 -0.9076  0.8959  1.2040
  629MOL0     C86706   4.621   1.603   7.917  0.7789  0.0796  0.1686
  629MOL0     C86707   4.567   1.631   8.051 -0.6524  0.3838  0.2729
  629MOL0     C86708   4.645   1.742   8.114 -0.1835  0.4750 -0.5146
  629MOL0    Cl86709   4.621   1.749   8.305  0.0698  0.2206  0.3361
  629MOL0     C86710   3.801   1.510   7.613  0.0106 -0.5816 -0.3974
  629MOL0     C86711   3.702   1.491   7.520  0.3163  0.5279  0.1583
  629MOL0     O86712   3.729   1.350   7.210 -0.5084  0.7533 -0.3489
  629MOL0     C86713   3.411   1.478   7.117  0.1658 -0.0327  0.0659
  629MOL0     C86714   3.306   1.464   7.027  0.6812  0.6414  1.0245
  629MOL0     N86715   2.697   1.480   6.533 -0.3359  0.6623 -0.7437
  629MOL0     N86716   2.571   1.462   6.560 -0.1243  1.3731 -0.0197
  629MOL0     C86717   2.966   1.605   7.433  0.1174  0.8242  0.1800
  629MOL0     C86718   3.045   1.703   7.487  0.3635 -0.2858  0.6116
  629MOL0     C86719   3.475   1.843   7.614 -0.8442 -0.3008  0.0910
  629MOL0     C86720   3.613   1.846   7.573 -0.4190 -0.4098 -0.7207
  629MOL0     C86721   3.722   1.881   7.662  1.1269 -0.0368  0.3112
  629MOL0     C86722   3.686   1.906   7.790 -1.2783 -0.6262  0.1690
  629MOL0     O86723   3.781   1.921   7.891 -0.1237 -0.3027 -0.5845
  629MOL0     C86724   3.922   1.951   7.852 -0.0585 -0.1632 -0.3948
  629MOL0     C86725   4.005   1.980   7.983  0.6158 -0.0508 -0.1409
  629MOL0     C86726   4.145   2.018   7.953 -0.1439  0.4603  0.1773
  629MOL0     C86727   4.243   2.051   8.079 -0.2217 -0.1899 -0.9252
  629MOL0     C86728   4.268   1.930   8.168  0.0013 -1.0435  0.9410
  629MOL0     C86729   4.285   1.820   8.211  0.2028 -0.2043  0.6073
  629MOL0     C86730   3.551   1.901   7.831 -0.9165  0.4961  0.9509
  629MOL0     C86731   3.442   1.885   7.750  0.2701 -0.8950  0.7419
  629MOL0     C86732   3.307   1.896   7.813 -0.1393  0.0334 -0.1388
  629MOL0     H86733   3.327   1.524   7.492  0.2790 -0.0575 -1.5590
  629MOL0     H86734   3.205   1.391   7.328  0.6319  0.4844 -0.9448
  629MOL0     H86735   3.030   1.227   7.333  1.1609  1.6880  0.9059
  629MOL0     H86736   3.029   1.294   7.167  2.5522  3.3403  1.7432
  629MOL0     H86737   2.897   1.107   7.168 -2.0269 -0.2279 -1.8469
  629MOL0     H86738   2.820   1.176   7.324  0.0193  0.1771 -0.2511
  629MOL0     H86739   2.662   1.153   7.125  3.3373 -3.5109 -0.8352
  629MOL0     H86740   2.687   1.324   7.200 -1.4796 -2.8662  2.0381
  629MOL0     H86741   2.847   1.378   7.032  0.7938  0.1145  0.4343
  629MOL0     H86742   2.814   1.210   6.967  0.8597 -0.5315  1.9509
  629MOL0     H86743   2.687   1.396   6.847  1.8585 -1.5965 -1.3790
  629MOL0     H86744   2.601   1.441   7.001 -0.6887 -1.7656 -0.1641
  629MOL0     H86745   2.581   1.167   6.887  2.6492  1.3165 -1.9029
  629MOL0     H86746   2.480   1.250   7.005 -0.0970  0.4391 -1.1197
  629MOL0     H86747   2.445   1.419   6.795  0.4603 -0.0435  3.2047
  629MOL0     H86748   2.340   1.282   6.841 -0.0417 -3.6136 -0.4816
  629MOL0     H86749   2.445   1.152   6.660  2.3613 -0.6272 -0.7384
  629MOL0     H86750   2.357   1.298   6.613 -2.4525  0.4871  3.2996
  629MOL0     H86751   2.716   1.161   6.608  0.7834 -0.5503 -2.8627
  629MOL0     H86752   2.927   1.364   6.412 -0.9670 -0.2535 -0.6018
  629MOL0     H86753   2.931   1.231   6.532 -0.8154  0.5333  2.6666
  629MOL0     H86754   3.105   1.404   6.586  0.3078  5.0755 -0.6167
  629MOL0     H86755   2.986   1.528   6.599 -3.0549 -0.6958 -2.8857
  629MOL0     H86756   2.890   1.409   6.785  1.3172  2.0726  1.6956
  629MOL0     H86757   2.992   1.259   6.755  3.2256 -0.8447 -3.0961
  629MOL0     H86758   3.099   1.521   6.842 -2.7558  0.3739  2.9648
  629MOL0     H86759   3.046   1.416   6.963 -0.3948  0.7582  0.8287
  629MOL0     H86760   3.429   1.213   6.832 -3.0742  0.1042 -0.6591
  629MOL0     H86761   3.595   1.101   6.953 -0.4499  1.6213 -0.4864
  629MOL0     H86762   3.695   1.153   7.085  1.1280 -4.1074 -1.2684
  629MOL0     H86763   3.717   1.220   6.929 -0.9359  0.4650 -1.5074
  629MOL0     H86764   3.820   1.664   7.254  0.7539  0.6982  0.9586
  629MOL0     H86765   4.003   1.700   7.410  1.7055 -1.8299  2.9092
  629MOL0     H86766   4.035   1.418   7.717 -0.2500 -0.6120 -2.7281
  629MOL0     H86767   4.135   1.466   7.589 -1.3578 -3.3926  0.6244
  629MOL0     H86768   4.231   1.633   7.737 -0.7313  1.1735  2.5800
  629MOL0     H86769   4.179   1.552   7.874  1.7796  1.9735  0.1200
  629MOL0     H86770   4.351   1.419   7.649 -0.4281  0.6172  0.2806
  629MOL0     H86771   4.261   1.334   7.779 -0.3349  0.3812 -2.0849
  629MOL0     H86772   4.494   1.368   7.837  1.7388  1.2638 -1.5797
  629MOL0     H86773   4.374   1.442   7.941 -0.5909  0.9520 -0.7433
  629MOL0     H86774   4.552   1.558   7.726  1.5769  0.2940  2.2746
  629MOL0     H86775   4.446   1.660   7.824  1.2195  2.4695  1.6495
  629MOL0     H86776   4.676   1.693   7.889 -2.1982  1.8883 -0.3152
  629MOL0     H86777   4.694   1.523   7.927  3.0325  1.6987 -2.0648
  629MOL0     H86778   4.587   1.542   8.112 -0.0853 -0.9031 -1.6860
  629MOL0     H86779   4.461   1.653   8.043 -1.0808 -1.1115  1.5477
  629MOL0     H86780   4.626   1.833   8.057 -0.5587  1.7259  1.4806
  629MOL0     H86781   4.747   1.705   8.105  0.7466  1.9532  2.5688
  629MOL0     H86782   3.806   1.454   7.706 -1.3825  1.3127  0.8886
  629MOL0     H86783   3.623   1.431   7.563 -1.8085  2.4573 -0.8327
  629MOL0     H86784   3.404   1.570   7.174 -3.9052  1.9948 -3.1610
  629MOL0     H86785   3.229   1.539   7.039 -1.8266 -1.6110 -0.2547
  629MOL0     H86786   2.859   1.624   7.430 -0.7454 -3.2033  0.1879
  629MOL0     H86787   3.005   1.789   7.540  0.3128  0.0127  0.0996
  629MOL0     H86788   3.638   1.810   7.473 -1.9342 -2.2867 -0.4703
  629MOL0     H86789   3.824   1.870   7.627 -0.2427 -1.2630 -3.8611
  629MOL0     H86790   3.974   1.862   7.813  0.2939  1.0736 -2.9651
  629MOL0     H86791   3.921   2.030   7.776 -1.5230  0.3380  0.1178
  629MOL0     H86792   4.007   1.893   8.050  0.9906 -0.2537 -0.4089
  629MOL0     H86793   3.969   2.074   8.025  2.0082  0.3829  0.1318
  629MOL0     H86794   4.191   1.935   7.899 -0.9166 -1.3007  2.0461
  629MOL0     H86795   4.139   2.109   7.893 -0.6850  0.3188  0.0067
  629MOL0     H86796   4.201   2.123   8.150 -0.3296 -1.7946  0.6922
  629MOL0     H86797   4.340   2.093   8.053  0.2200 -1.2039 -0.9294
  629MOL0     H86798   4.294   1.717   8.239  1.5549 -0.6413 -1.2197
  629MOL0     H86799   3.545   1.924   7.937  2.1477  2.0026  0.9213
  629MOL0     H86800   3.318   1.935   7.915 -1.0021 -2.9886  1.2464
  629MOL0     H86801   3.240   1.955   7.750 -0.9544 -1.9065 -1.1537
  629MOL0     H86802   3.253   1.802   7.824 -1.9944  1.1834  1.1806
  630MOL0     O86803  10.231   8.243   0.431  0.3006 -0.2863  0.0938
  630MOL0     C86804  10.272   8.154   0.510 -0.4103  0.8073  0.3495
  630MOL0     O86805  10.410   8.133   0.526  0.2601  0.2677 -0.0219
  630MOL0     C86806  10.507   8.210   0.469 -0.0641  0.1652  0.7742
  630MOL0     C86807  10.493   8.347   0.438 -0.2460 -0.2517  0.1548
  630MOL0     C86808  10.602   8.424   0.388 -0.0155 -0.6820  0.1114
  630MOL0     C86809  10.731   8.370   0.381  0.5874  0.4629  0.3044
  630MOL0     O86810  10.832   8.468   0.359  0.9504  0.6870 -0.2826
  630MOL0     C86811  10.970   8.432   0.389 -0.5287  0.4478  0.7771
  630MOL0     C86812  10.979   8.458   0.538 -0.6336  0.4945 -0.4308
  630MOL0     C86813  11.034   8.599   0.560  0.1064  0.3598  0.3314
  630MOL0     C86814  11.186   8.607   0.535 -0.9753  0.3732 -0.1351
  630MOL0     C86815  11.226   8.749   0.583  0.6329  0.6130 -0.2781
  630MOL0     C86816  11.372   8.783   0.586  0.6200 -0.2003 -0.5826
  630MOL0     C86817  11.464   8.660   0.600  0.5810  0.4238 -1.0029
  630MOL0     C86818  11.618   8.698   0.596  0.2485  0.2851  0.5308
  630MOL0     N86819  11.644   8.781   0.477 -0.6400 -0.0114  0.1158
  630MOL0     C86820  11.697   8.915   0.481 -0.2896  0.0815 -0.4904
  630MOL0     C86821  11.700   8.958   0.352 -0.6100  0.3329 -0.3728
  630MOL0     C86822  11.752   9.088   0.312 -0.3001 -0.5843  0.7349
  630MOL0     C86823  11.902   9.102   0.342  0.1187  0.0602  0.4295
  630MOL0     C86824  11.986   9.208   0.269 -0.1933  0.8384  0.0448
  630MOL0     C86825  12.076   9.157   0.146 -1.1344  0.7294 -0.3788
  630MOL0     O86826  12.011   9.055   0.073 -0.3487  0.0646  0.3102
  630MOL0     C86827  12.079   8.948   0.019  0.8311 -0.7268  0.5506
  630MOL0     C86828  12.171   8.961  -0.083  0.2167  0.5585  0.1495
  630MOL0     C86829  12.229   8.850  -0.152 -0.4722 -0.7805 -0.4670
  630MOL0     C86830  12.343   8.892  -0.245  0.3635  0.5363 -0.5155
  630MOL0     C86831  12.192   8.719  -0.115 -0.1750 -0.1620  0.8217
  630MOL0     C86832  12.245   8.596  -0.174 -0.0154 -0.2765 -0.2951
  630MOL0     O86833  12.153   8.502  -0.192  0.0368 -0.2325 -0.2933
  630MOL0     C86834  12.184   8.395  -0.268 -0.7505  0.5704  0.2847
  630MOL0     C86835  12.192   8.391  -0.409 -0.3789 -0.9212  0.4506
  630MOL0     C86836  12.198   8.263  -0.465 -0.6849  0.4232 -0.8628
  630MOL0     C86837  12.188   8.144  -0.391 -0.7669 -0.4870  0.5315
  630MOL0     O86838  12.181   8.016  -0.438  0.5707  0.1265  0.4823
  630MOL0     C86839  12.171   7.986  -0.573 -0.4954  0.4079  1.0829
  630MOL0     C86840  12.311   7.948  -0.630 -0.9661 -0.4384  0.5873
  630MOL0     C86841  12.316   7.910  -0.781 -0.1599  0.6937  0.3998
  630MOL0     C86842  12.444   7.819  -0.815 -0.6824  0.2254  0.5134
  630MOL0     C86843  12.479   7.792  -0.966 -1.0194 -0.9637  0.2202
  630MOL0     C86844  12.632   7.778  -0.981 -0.3955  0.2963 -0.4949
  630MOL0     C86845  12.659   7.723  -1.126  1.1959  1.0298  0.5879
  630MOL0     C86846  12.628   7.832  -1.235 -0.0899 -0.3401 -0.2489
  630MOL0    Cl86847  12.452   7.832  -1.272  0.0839  0.6209  0.1287
  630MOL0     C86848  12.202   8.154  -0.255  0.6751 -0.2341 -0.6693
  630MOL0     C86849  12.191   8.278  -0.185  0.1427 -0.1544 -0.4748
  630MOL0     O86850  12.355   8.597  -0.212 -0.4859 -0.1864  0.3082
  630MOL0     C86851  12.092   8.699  -0.014 -1.0238  0.5360  0.5075
  630MOL0     C86852  12.035   8.818   0.046  0.4506  0.0669  0.6672
  630MOL0     N86853  11.645   8.850   0.275 -0.7719 -0.2922 -0.8222
  630MOL0     N86854  11.613   8.749   0.349  0.3664 -0.1328  0.5025
  630MOL0     C86855  10.733   8.228   0.404  0.0483 -0.1949 -0.6019
  630MOL0     C86856  10.632   8.151   0.456  0.0517 -0.6264  0.8625
  630MOL0     C86857  10.183   8.070   0.600 -0.5889 -0.0166 -0.1055
  630MOL0     C86858  10.074   8.136   0.647  0.1498  0.5850  0.6974
  630MOL0     C86859   9.979   8.075   0.729 -0.0462 -0.3748 -0.2219
  630MOL0     C86860   9.986   7.943   0.759 -0.2695 -0.1324  0.6021
  630MOL0     O86861   9.885   7.887   0.836 -0.7048 -0.3391  0.4071
  630MOL0     C86862   9.901   7.754   0.869 -0.8325  0.3072  0.9349
  630MOL0     C86863   9.800   7.730   0.989  0.9162 -0.5683  0.3038
  630MOL0     C86864   9.798   7.586   1.023  0.4781  0.0157  0.7430
  630MOL0     C86865   9.672   7.523   0.948 -0.2290  0.3408 -0.3593
  630MOL0     C86866   9.619   7.414   1.033  0.0479  0.2954  0.7034
  630MOL0     C86867   9.569   7.328   1.101 -1.2452 -0.4936  0.6181
  630MOL0     C86868  10.103   7.871   0.706 -0.6105  0.3459  1.1479
  630MOL0     C86869  10.205   7.933   0.629 -0.1767  1.1814  0.5633
  630MOL0     C86870  10.317   7.853   0.569 -0.0546 -0.9166  0.0638
  630MOL0     H86871  10.401   8.403   0.452  1.0677  2.7537 -2.1706
  630MOL0     H86872  10.589   8.531   0.373  1.1777 -0.6111 -0.5873
  630MOL0     H86873  11.044   8.485   0.327 -2.4357  0.0736 -1.9793
  630MOL0     H86874  10.982   8.326   0.365 -4.2895  0.2177 -0.7521
  630MOL0     H86875  10.878   8.455   0.580 -0.5191  1.5330 -0.0583
  630MOL0     H86876  11.044   8.381   0.580  1.0813  2.5013  0.7693
  630MOL0     H86877  10.984   8.674   0.499  5.2852  2.3011 -2.1269
  630MOL0     H86878  11.007   8.620   0.664 -2.6077  2.3888 -0.6620
  630MOL0     H86879  11.236   8.533   0.599 -0.4794  2.7906  2.4734
  630MOL0     H86880  11.215   8.590   0.431 -1.9233 -2.6045 -0.0172
  630MOL0     H86881  11.187   8.765   0.684  0.1239  1.5247 -0.6062
  630MOL0     H86882  11.182   8.828   0.521  2.0517  0.5758 -1.3822
  630MOL0     H86883  11.397   8.831   0.491  0.9832  2.5520  0.7877
  630MOL0     H86884  11.397   8.855   0.664  0.3998 -0.5746 -0.1633
  630MOL0     H86885  11.447   8.578   0.529 -0.7866  0.2364 -0.4871
  630MOL0     H86886  11.447   8.624   0.702  2.0043  1.5223 -0.3459
  630MOL0     H86887  11.631   8.762   0.684  1.9897  1.1621 -0.3032
  630MOL0     H86888  11.687   8.613   0.592 -0.0463  0.0832 -0.8468
  630MOL0     H86889  11.722   8.969   0.572 -1.0233 -0.7659  0.2327
  630MOL0     H86890  11.696   9.172   0.353  0.2856  0.5945 -0.7734
  630MOL0     H86891  11.750   9.102   0.203  0.2885  1.0850  0.9071
  630MOL0     H86892  11.918   9.122   0.448  0.2951  1.3200  0.1840
  630MOL0     H86893  11.946   9.006   0.312 -0.5285  0.9105 -4.0364
  630MOL0     H86894  11.924   9.284   0.221 -2.0590 -1.2940 -1.1112
  630MOL0     H86895  12.041   9.257   0.350 -1.6397  1.7808  0.5004
  630MOL0     H86896  12.105   9.241   0.083  1.0617  0.8920  0.7816
  630MOL0     H86897  12.166   9.115   0.191 -1.2467  1.6293  0.7385
  630MOL0     H86898  12.203   9.060  -0.115 -1.6993  1.1236 -0.1563
  630MOL0     H86899  12.439   8.874  -0.196  1.6454  1.5053 -2.5482
  630MOL0     H86900  12.336   9.001  -0.256  0.6221  0.6431  0.2511
  630MOL0     H86901  12.331   8.844  -0.342 -2.1919  0.8048 -0.4144
  630MOL0     H86902  12.193   8.479  -0.473 -1.1898  0.7786  2.6515
  630MOL0     H86903  12.223   8.274  -0.571 -0.8030  0.5038 -0.8825
  630MOL0     H86904  12.118   7.891  -0.582 -0.3177  0.4131 -0.1306
  630MOL0     H86905  12.123   8.068  -0.628 -1.8834 -0.0122  1.6344
  630MOL0     H86906  12.381   8.027  -0.602  0.2640 -0.5618 -1.8559
  630MOL0     H86907  12.340   7.856  -0.579  1.2188 -1.4598 -2.2163
  630MOL0     H86908  12.319   7.994  -0.851 -1.4127 -0.5426 -1.2130
  630MOL0     H86909  12.218   7.862  -0.792 -2.5810  4.3295  3.3638
  630MOL0     H86910  12.445   7.717  -0.777  3.1084 -0.2606 -0.3988
  630MOL0     H86911  12.532   7.873  -0.778 -1.3724  0.2209  2.2153
  630MOL0     H86912  12.423   7.705  -1.001  0.0692 -2.2004  1.4618
  630MOL0     H86913  12.448   7.874  -1.031 -0.5969 -0.8912  0.1067
  630MOL0     H86914  12.653   7.703  -0.904 -1.5823  1.3001  0.8579
  630MOL0     H86915  12.679   7.876  -0.962  1.6599 -1.1805  3.0767
  630MOL0     H86916  12.589   7.640  -1.137  1.2396  1.0870 -0.1300
  630MOL0     H86917  12.756   7.678  -1.148  0.5722 -0.6064  1.0143
  630MOL0     H86918  12.675   7.802  -1.329  0.1955 -2.3928  0.4960
  630MOL0     H86919  12.669   7.929  -1.204 -1.6217  0.6294 -1.1336
  630MOL0     H86920  12.227   8.065  -0.198 -5.8577 -0.2431  3.0696
  630MOL0     H86921  12.194   8.281  -0.076 -0.7600  3.2869 -0.4019
  630MOL0     H86922  12.062   8.602   0.023 -2.1612  0.4762 -0.5308
  630MOL0     H86923  11.962   8.814   0.126 -1.5509  0.7850 -1.0447
  630MOL0     H86924  10.829   8.177   0.402 -1.0163 -2.3125 -0.5164
  630MOL0     H86925  10.650   8.045   0.474 -0.9429 -0.3398  4.1454
  630MOL0     H86926  10.062   8.241   0.624 -1.1251  0.8749  2.4992
  630MOL0     H86927   9.893   8.131   0.766 -0.8702  0.1749 -2.8132
  630MOL0     H86928   9.885   7.699   0.776 -1.2260 -0.0789  1.2315
  630MOL0     H86929  10.002   7.740   0.910  0.0833  5.6582  1.2279
  630MOL0     H86930   9.697   7.765   0.976  0.2367 -2.2099  1.0385
  630MOL0     H86931   9.838   7.777   1.080 -0.4895  1.4771 -0.0745
  630MOL0     H86932   9.886   7.530   0.992 -1.2578 -0.7236 -3.4381
  630MOL0     H86933   9.783   7.574   1.131 -1.4052 -0.4766  0.4754
  630MOL0     H86934   9.688   7.481   0.848 -1.6583  0.8748 -0.8468
  630MOL0     H86935   9.591   7.597   0.944 -0.1892  0.3430 -1.4548
  630MOL0     H86936   9.535   7.250   1.167  0.6735 -1.3253  0.6921
  630MOL0     H86937  10.117   7.768   0.739  1.8725  0.9409  2.2107
  630MOL0     H86938  10.359   7.789   0.647 -1.4744 -1.4243  0.4504
  630MOL0     H86939  10.275   7.794   0.487 -1.8053 -1.1289  1.0613
  630MOL0     H86940  10.403   7.910   0.532  1.5843 -3.7355 -0.7540
  631MOL0     O86941   7.041   0.812  10.423 -0.5629 -0.4688 -0.9849
  631MOL0     C86942   7.003   0.777  10.309 -0.1692 -1.0213 -0.1803
  631MOL0     O86943   7.084   0.725  10.211  0.9160  0.4715 -0.0139
  631MOL0     C86944   7.209   0.689  10.256  0.4320  0.6548 -0.3935
  631MOL0     C86945   7.224   0.572  10.335  0.5751 -0.2428  0.6911
  631MOL0     C86946   7.347   0.518  10.376 -0.4867  0.3539 -0.5009
  631MOL0     C86947   7.463   0.587  10.343 -0.0599 -0.2735 -0.1168
  631MOL0     O86948   7.592   0.532  10.361  0.2228  0.2903  0.4475
  631MOL0     C86949   7.609   0.407  10.424  0.1118  0.1962  0.9752
  631MOL0     C86950   7.749   0.384  10.473 -0.3554  0.5812  0.6216
  631MOL0     C86951   7.849   0.316  10.371  0.9179  0.6031 -0.1370
  631MOL0     C86952   7.985   0.257  10.430  0.0911  0.6208  0.6403
  631MOL0     C86953   8.060   0.181  10.315  0.1897 -0.9463  0.5979
  631MOL0     C86954   8.208   0.212  10.318  1.2505  0.2156  0.6863
  631MOL0     C86955   8.268   0.104  10.222 -0.2071 -0.0954  0.6060
  631MOL0     C86956   8.412   0.144  10.193  0.3628  0.2284  0.3082
  631MOL0     N86957   8.510   0.120  10.296 -0.4420  0.2809 -0.6033
  631MOL0     C86958   8.647   0.108  10.267  0.6152 -0.1785  1.0699
  631MOL0     C86959   8.719   0.102  10.378 -0.2070 -0.2181  1.2036
  631MOL0     C86960   8.865   0.110  10.394 -0.4901  0.1970 -0.2777
  631MOL0     C86961   8.924   0.234  10.318  0.3849  0.5441  0.2618
  631MOL0     C86962   9.053   0.283  10.387 -0.6204  0.3712 -0.7888
  631MOL0     C86963   9.130   0.386  10.303  0.4026 -0.2312  0.6092
  631MOL0     O86964   9.264   0.418  10.341  0.6869 -0.2721  0.8496
  631MOL0     C86965   9.306   0.496  10.449 -0.5447 -0.8975  0.1227
  631MOL0     C86966   9.439   0.489  10.460 -1.4341 -0.6268 -0.3948
  631MOL0     C86967   9.502   0.542  10.570 -0.2229 -0.4424 -0.7139
  631MOL0     C86968   9.653   0.545  10.566 -0.3127  0.1285  0.8487
  631MOL0     C86969   9.422   0.597  10.684 -0.7095 -0.2448  0.1359
  631MOL0     C86970   9.479   0.643  10.816  0.5391 -0.8983  0.0874
  631MOL0     O86971   9.566   0.564  10.871 -0.2806 -0.4876 -0.6483
  631MOL0     C86972   9.679   0.617  10.920 -0.1321  0.5013  0.1400
  631MOL0     C86973   9.758   0.538  11.004 -0.0299 -0.6476 -0.9184
  631MOL0     C86974   9.881   0.589  11.048 -0.9440 -0.3758  1.4052
  631MOL0     C86975   9.921   0.719  11.012 -0.2607  0.5436  0.3580
  631MOL0     O86976  10.041   0.766  11.042  0.1315 -0.3829  0.2576
  631MOL0     C86977  10.092   0.752  11.174 -0.4033  0.4187 -0.8534
  631MOL0     C86978  10.217   0.842  11.193 -0.1906 -0.8881  0.0764
  631MOL0     C86979  10.242   0.882  11.334 -0.3800 -0.5678 -0.7858
  631MOL0     C86980  10.348   0.992  11.310  0.3167 -0.0013  0.4271
  631MOL0     C86981  10.371   1.079  11.435 -0.4943  0.0864  0.1109
  631MOL0     C86982  10.399   0.997  11.562  0.0567 -0.3291  0.0676
  631MOL0     C86983  10.457   1.085  11.668 -1.2350 -0.0105 -0.4766
  631MOL0     C86984  10.505   1.009  11.786  0.4103  0.3676  0.1473
  631MOL0    Cl86985  10.543   1.132  11.922 -0.2376  0.4185 -0.6131
  631MOL0     C86986   9.844   0.785  10.923 -1.5248 -1.0668  0.6599
  631MOL0     C86987   9.729   0.740  10.877 -0.0214 -0.0785 -0.1074
  631MOL0     O86988   9.439   0.752  10.863  0.0698  0.4280 -0.5077
  631MOL0     C86989   9.282   0.607  10.658  0.3526 -0.7017 -0.4981
  631MOL0     C86990   9.222   0.554  10.541  0.3518  0.5689  0.1414
  631MOL0     N86991   8.631   0.111  10.494  0.7190 -0.3960 -0.0220
  631MOL0     N86992   8.512   0.111  10.438 -0.0228 -0.3883 -0.4395
  631MOL0     C86993   7.450   0.710  10.272 -0.1337 -0.4152 -0.7413
  631MOL0     C86994   7.323   0.761  10.234  0.7305 -0.4417  0.3066
  631MOL0     C86995   6.867   0.813  10.259  0.4306  0.1465  0.4651
  631MOL0     C86996   6.838   0.854  10.129 -0.2722  1.2481 -0.1518
  631MOL0     C86997   6.708   0.885  10.091  0.2542  0.8247 -0.3270
  631MOL0     C86998   6.598   0.898  10.181 -1.0212  0.3825 -0.1960
  631MOL0     O86999   6.482   0.935  10.117 -0.2898  0.1089 -0.3570
  631MOL0     C87000   6.376   0.974  10.208 -0.8650  0.1595  0.7283
  631MOL0     C87001   6.386   1.126  10.219 -0.0575 -1.0477 -0.3380
  631MOL0     C87002   6.374   1.215  10.092  0.7519 -0.7683  0.9698
  631MOL0     C87003   6.393   1.364  10.134 -0.2534  0.7722 -0.5848
  631MOL0     C87004   6.536   1.399  10.172 -0.6610  0.9871 -0.3123
  631MOL0     C87005   6.648   1.413  10.216 -0.0522  0.1366 -0.3101
  631MOL0     C87006   6.627   0.883  10.314  0.2525  0.0375  0.7393
  631MOL0     C87007   6.758   0.832  10.353 -0.0073  1.1483  1.2800
  631MOL0     C87008   6.774   0.805  10.502  0.0014 -0.4017 -0.1033
  631MOL0     H87009   7.132   0.528  10.373 -1.0556  1.1142 -1.4246
  631MOL0     H87010   7.357   0.424  10.430  2.8710  0.3891 -0.8817
  631MOL0     H87011   7.562   0.332  10.359 -3.2928  3.8747 -1.2824
  631MOL0     H87012   7.543   0.411  10.511 -0.4320  0.0328  0.5767
  631MOL0     H87013   7.796   0.482  10.485 -0.2618  0.6417 -0.2115
  631MOL0     H87014   7.755   0.324  10.565  1.1299  0.1272  0.2536
  631MOL0     H87015   7.794   0.231  10.330  1.3582  0.2473 -0.0046
  631MOL0     H87016   7.865   0.386  10.288 -1.1819  4.4324  2.3528
  631MOL0     H87017   8.048   0.335  10.473 -2.2275  1.1267  3.4755
  631MOL0     H87018   7.967   0.194  10.518 -0.4525  3.1700  2.4617
  631MOL0     H87019   8.015   0.215  10.221  1.1899 -1.2396 -0.0027
  631MOL0     H87020   8.046   0.072  10.321 -0.2517 -1.0921 -2.0905
  631MOL0     H87021   8.226   0.309  10.270 -2.8063  0.8538  0.0733
  631MOL0     H87022   8.253   0.215  10.417  3.1866  0.8310 -0.1712
  631MOL0     H87023   8.209   0.117  10.131  2.6771  1.6247 -1.1495
  631MOL0     H87024   8.270   0.003  10.266  4.3487 -1.2485 -1.6257
  631MOL0     H87025   8.455   0.103  10.101  1.5497  3.6004 -0.7760
  631MOL0     H87026   8.418   0.251  10.174 -0.9900  0.2572 -0.0951
  631MOL0     H87027   8.675   0.120  10.163 -2.1908  0.1533  0.2632
  631MOL0     H87028   8.902   0.008  10.379 -2.1219 -0.3912 -0.4817
  631MOL0     H87029   8.886   0.123  10.500 -0.2674  0.6466 -0.3738
  631MOL0     H87030   8.938   0.208  10.212 -3.5919 -2.0222  0.1422
  631MOL0     H87031   8.857   0.320  10.314  0.6007  1.0345  4.0178
  631MOL0     H87032   9.026   0.324  10.484 -0.7870 -1.6938  0.0729
  631MOL0     H87033   9.117   0.195  10.400  0.7592  0.8446 -3.5005
  631MOL0     H87034   9.144   0.357  10.198  2.1291 -0.5946  0.8972
  631MOL0     H87035   9.081   0.484  10.300  3.2087  1.5621  4.4543
  631MOL0     H87036   9.495   0.442  10.380 -0.5889  0.5606 -0.5286
  631MOL0     H87037   9.690   0.647  10.576 -0.6370  0.6018 -1.9175
  631MOL0     H87038   9.688   0.512  10.467 -5.1023 -2.5111 -0.2939
  631MOL0     H87039   9.691   0.470  10.636  0.0756 -0.1473  0.3483
  631MOL0     H87040   9.716   0.452  11.054 -0.2172  0.6934  1.3706
  631MOL0     H87041   9.944   0.537  11.119  2.0508  2.2973  0.8979
  631MOL0     H87042  10.024   0.790  11.251  1.8048 -0.8217  1.9219
  631MOL0     H87043  10.118   0.650  11.202 -1.4141 -0.0287 -1.4921
  631MOL0     H87044  10.303   0.792  11.146  3.1419 -0.1429  4.5835
  631MOL0     H87045  10.192   0.924  11.127 -1.5982 -0.8562  0.6228
  631MOL0     H87046  10.278   0.793  11.385  0.7831  1.4247  2.1046
  631MOL0     H87047  10.154   0.932  11.375  0.5489  0.0846  0.4472
  631MOL0     H87048  10.330   1.053  11.221  1.0815 -0.8867 -0.3562
  631MOL0     H87049  10.439   0.933  11.293 -0.7321 -2.3826  2.4891
  631MOL0     H87050  10.448   1.152  11.412  0.7408 -0.3468  2.5276
  631MOL0     H87051  10.286   1.145  11.458 -0.8457 -1.3792  3.7333
  631MOL0     H87052  10.458   0.911  11.531 -2.3420 -1.6869 -1.0597
  631MOL0     H87053  10.310   0.952  11.609  0.4585 -0.2622  0.9189
  631MOL0     H87054  10.382   1.155  11.706 -1.7920 -0.5972 -0.4624
  631MOL0     H87055  10.539   1.149  11.635  0.7813 -1.4737  1.3521
  631MOL0     H87056  10.586   0.942  11.757  1.7938  1.6686  0.8343
  631MOL0     H87057  10.423   0.950  11.828  0.8620  2.1667  3.9722
  631MOL0     H87058   9.886   0.880  10.892 -1.6634  0.0093  3.4865
  631MOL0     H87059   9.681   0.802  10.802 -4.5657 -1.6847  1.1528
  631MOL0     H87060   9.216   0.645  10.736  1.1677  0.4415 -0.3355
  631MOL0     H87061   9.116   0.560  10.517  0.0067 -0.7437  1.2312
  631MOL0     H87062   7.535   0.773  10.247 -1.0665  0.9629 -0.5591
  631MOL0     H87063   7.309   0.865  10.208  0.2552 -0.2365  1.3216
  631MOL0     H87064   6.914   0.843  10.052 -0.0163 -0.3582  0.3036
  631MOL0     H87065   6.687   0.874   9.985  2.5237 -0.1215 -0.7192
  631MOL0     H87066   6.283   0.965  10.150 -0.1940  1.0840 -0.5256
  631MOL0     H87067   6.354   0.920  10.301  1.5084 -1.8780  0.1956
  631MOL0     H87068   6.483   1.162  10.253 -0.7104 -0.5326  1.0827
  631MOL0     H87069   6.309   1.151  10.293 -1.2165 -4.0283 -0.4130
  631MOL0     H87070   6.439   1.184  10.010  1.8317 -0.8627  1.8425
  631MOL0     H87071   6.272   1.212  10.051  0.9497  2.6267 -0.1159
  631MOL0     H87072   6.322   1.396  10.211 -1.7899 -1.2523 -1.1034
  631MOL0     H87073   6.370   1.418  10.042  0.9412  3.3202  0.4980
  631MOL0     H87074   6.750   1.431  10.243  0.8328 -1.8958 -1.9228
  631MOL0     H87075   6.555   0.895  10.394 -2.1715 -0.2707 -1.2887
  631MOL0     H87076   6.838   0.718  10.520  1.3008  0.5342 -0.0292
  631MOL0     H87077   6.833   0.883  10.552 -0.2487 -2.6569  4.0960
  631MOL0     H87078   6.676   0.788  10.547 -2.2793  0.9218 -4.0279
  632MOL0     O87079   5.660   8.154   6.258 -0.4693  0.0736 -0.2087
  632MOL0     C87080   5.645   8.024   6.260 -0.0164 -0.4804 -0.3309
  632MOL0     O87081   5.542   7.953   6.192 -0.2003  0.0989  0.9014
  632MOL0     C87082   5.444   8.037   6.154 -0.5811 -0.1133  0.4589
  632MOL0     C87083   5.363   8.120   6.239  0.8354 -1.3814 -1.1692
  632MOL0     C87084   5.274   8.200   6.170 -0.3349  0.0208 -0.5196
  632MOL0     C87085   5.243   8.190   6.031 -0.5615 -0.8134 -1.3235
  632MOL0     O87086   5.143   8.260   5.976  0.3578  0.6334  0.2716
  632MOL0     C87087   5.018   8.201   6.015  1.0226 -0.1419  0.2197
  632MOL0     C87088   4.917   8.254   5.908 -0.3465 -0.5042 -0.5728
  632MOL0     C87089   4.799   8.160   5.885 -0.1549 -0.5818  0.1910
  632MOL0     C87090   4.684   8.213   5.807 -0.2824  0.0217  0.9410
  632MOL0     C87091   4.558   8.129   5.803  0.2195  0.4607 -1.4273
  632MOL0     C87092   4.588   7.984   5.775  0.7280 -0.5894  0.3243
  632MOL0     C87093   4.467   7.900   5.735  1.2244 -0.8055 -0.0149
  632MOL0     C87094   4.392   7.930   5.605 -0.7844 -0.6831  0.1306
  632MOL0     N87095   4.480   7.873   5.499  0.3715 -0.6790 -0.6675
  632MOL0     C87096   4.466   7.741   5.453 -0.2576  0.4934  0.2735
  632MOL0     C87097   4.560   7.734   5.361 -0.0645 -0.6363  0.4155
  632MOL0     C87098   4.589   7.609   5.288 -0.8122  0.1826 -0.7148
  632MOL0     C87099   4.580   7.621   5.134  0.7382 -0.5267 -0.7714
  632MOL0     C87100   4.613   7.482   5.069 -0.6748  0.1624 -0.5014
  632MOL0     C87101   4.604   7.474   4.921 -0.0568  0.9406  1.8306
  632MOL0     O87102   4.640   7.351   4.859 -0.6644  0.1009  0.5948
  632MOL0     C87103   4.574   7.241   4.891  0.1686  0.6882  0.5427
  632MOL0     C87104   4.434   7.231   4.911  0.3670 -0.8314  1.8670
  632MOL0     C87105   4.369   7.118   4.947 -0.9141  1.3634 -0.3069
  632MOL0     C87106   4.213   7.136   4.966 -0.3840 -0.3899  0.0438
  632MOL0     C87107   4.437   7.001   4.966  0.0558 -0.9331  1.0328
  632MOL0     C87108   4.384   6.885   5.038  0.3988  1.5416  0.7960
  632MOL0     O87109   4.446   6.808   5.138  0.5008 -0.5658  0.9658
  632MOL0     C87110   4.388   6.699   5.185 -1.1927  0.0713  0.6999
  632MOL0     C87111   4.274   6.693   5.259 -0.0210 -0.5227  0.0320
  632MOL0     C87112   4.239   6.582   5.338 -0.0014 -0.6859  0.3187
  632MOL0     C87113   4.322   6.465   5.330  0.6682  0.0462  0.0153
  632MOL0     O87114   4.295   6.351   5.406 -0.5181 -0.7864  0.1575
  632MOL0     C87115   4.236   6.257   5.325  0.3342  1.2319  0.1044
  632MOL0     C87116   4.088   6.301   5.287  0.7663 -0.7247  0.9236
  632MOL0     C87117   3.987   6.198   5.230  0.1136  0.5190  0.5381
  632MOL0     C87118   4.053   6.111   5.125  0.3906  0.0282  1.0382
  632MOL0     C87119   3.960   6.070   5.012 -0.0373 -0.5845 -0.8850
  632MOL0     C87120   3.863   5.958   5.056 -0.0040  0.7275 -0.2127
  632MOL0     C87121   3.885   5.822   4.988 -0.3176 -0.3432  0.1213
  632MOL0     C87122   3.760   5.739   4.992  0.2725 -0.1904  0.5797
  632MOL0    Cl87123   3.805   5.571   4.934  0.3094  0.5796  0.3467
  632MOL0     C87124   4.437   6.472   5.245 -0.5649  0.3101  0.7309
  632MOL0     C87125   4.472   6.592   5.178 -0.0243 -0.3220 -0.2318
  632MOL0     O87126   4.267   6.865   4.992 -0.6495  1.0839 -0.5136
  632MOL0     C87127   4.572   7.003   4.941  0.3377 -0.0158  0.5117
  632MOL0     C87128   4.645   7.118   4.900  0.4810  0.6183  0.0695
  632MOL0     N87129   4.638   7.851   5.365  0.2033  0.1155 -0.9235
  632MOL0     N87130   4.579   7.941   5.444 -0.7200 -0.9054  0.2752
  632MOL0     C87131   5.311   8.103   5.963  0.4194 -0.3033  0.7821
  632MOL0     C87132   5.411   8.024   6.016 -0.9290  0.1929  0.5327
  632MOL0     C87133   5.748   7.942   6.327  1.1341 -0.4831 -0.0062
  632MOL0     C87134   5.700   7.823   6.379 -0.5221  0.1280  0.1798
  632MOL0     C87135   5.777   7.735   6.453 -0.3922  1.1933 -0.0806
  632MOL0     C87136   5.912   7.774   6.477 -1.1134 -1.4459 -0.6405
  632MOL0     O87137   6.003   7.704   6.550 -0.3445 -0.0289  0.6908
  632MOL0     C87138   5.970   7.595   6.635 -0.0670  0.1710  0.0803
  632MOL0     C87139   5.900   7.658   6.756  0.2076  0.8109  0.2772
  632MOL0     C87140   5.909   7.564   6.877  0.5710  0.1801  0.1941
  632MOL0     C87141   5.811   7.443   6.885  0.6971 -0.2588 -0.0123
  632MOL0     C87142   5.826   7.338   6.789 -0.1464 -0.2756 -0.6430
  632MOL0     C87143   5.850   7.248   6.709  0.1817  0.0313 -0.7861
  632MOL0     C87144   5.963   7.893   6.424  0.4129 -0.1636 -0.7028
  632MOL0     C87145   5.875   7.977   6.347 -0.6576 -0.1717  0.5180
  632MOL0     C87146   5.930   8.102   6.288 -0.2253  0.1877 -0.3808
  632MOL0     H87147   5.369   8.139   6.346 -0.0022  0.1710 -1.3599
  632MOL0     H87148   5.207   8.266   6.225 -1.7410 -0.8233 -1.1406
  632MOL0     H87149   4.974   8.202   6.116 -4.0541 -3.8131 -1.5246
  632MOL0     H87150   5.024   8.096   5.985  2.4911 -1.7646  5.2085
  632MOL0     H87151   4.890   8.359   5.924  1.5784  0.4630 -2.9240
  632MOL0     H87152   4.967   8.268   5.812 -0.0153 -1.0933 -0.4885
  632MOL0     H87153   4.837   8.079   5.823  0.1844 -0.4123  0.1733
  632MOL0     H87154   4.756   8.128   5.980 -2.1238  0.0809 -0.4276
  632MOL0     H87155   4.652   8.314   5.837 -1.9461 -0.1957  0.0264
  632MOL0     H87156   4.723   8.237   5.708 -1.6690  2.0167  0.8127
  632MOL0     H87157   4.490   8.164   5.725 -3.5352 -0.8103  0.9783
  632MOL0     H87158   4.495   8.140   5.892 -0.0343 -2.1421 -1.2150
  632MOL0     H87159   4.672   7.982   5.705  1.3209 -2.4780  1.0010
  632MOL0     H87160   4.624   7.933   5.866  1.5515 -1.2987 -0.3732
  632MOL0     H87161   4.395   7.912   5.816 -1.8666 -0.6366 -2.5934
  632MOL0     H87162   4.515   7.802   5.724 -0.2291 -1.2550 -3.7641
  632MOL0     H87163   4.294   7.882   5.600 -0.5639 -1.1160 -0.1714
  632MOL0     H87164   4.378   8.038   5.596  1.7996 -0.4037 -1.6785
  632MOL0     H87165   4.396   7.661   5.477 -0.5749  0.2352 -1.4272
  632MOL0     H87166   4.515   7.537   5.326  0.8899 -1.5133 -0.4806
  632MOL0     H87167   4.688   7.572   5.315 -1.2573 -2.0538 -1.9173
  632MOL0     H87168   4.475   7.645   5.115  0.4429  2.5345  3.4021
  632MOL0     H87169   4.642   7.708   5.108  2.7499 -1.0508  1.9315
  632MOL0     H87170   4.710   7.456   5.111  0.9109  0.5371 -3.6127
  632MOL0     H87171   4.547   7.404   5.107 -0.2296  0.0864  0.1388
  632MOL0     H87172   4.503   7.510   4.898 -0.6189 -2.0250 -1.0578
  632MOL0     H87173   4.672   7.549   4.879  2.1469 -2.9606 -2.5218
  632MOL0     H87174   4.380   7.323   4.892  2.1000  0.0246  0.7844
  632MOL0     H87175   4.160   7.086   4.885  1.9272 -1.3563 -0.9554
  632MOL0     H87176   4.190   7.241   4.988 -0.2495 -0.5143  0.8325
  632MOL0     H87177   4.186   7.089   5.061 -3.1543  2.0280  0.6044
  632MOL0     H87178   4.203   6.775   5.266  0.5841 -0.1476  4.0273
  632MOL0     H87179   4.141   6.578   5.385 -0.0308  0.8575  0.4221
  632MOL0     H87180   4.292   6.229   5.235 -0.5511  1.5421 -0.5626
  632MOL0     H87181   4.232   6.170   5.390  2.3421  0.9492 -0.0896
  632MOL0     H87182   4.036   6.348   5.371 -1.1161 -0.4417 -0.3124
  632MOL0     H87183   4.095   6.379   5.211 -0.2310 -1.5289 -0.0337
  632MOL0     H87184   3.906   6.252   5.182  2.3633  0.8843 -3.2725
  632MOL0     H87185   3.967   6.132   5.315  3.5525  0.6510  1.6250
  632MOL0     H87186   4.105   6.027   5.171  1.4904 -0.1201 -0.4293
  632MOL0     H87187   4.128   6.170   5.072  0.3377 -1.1678 -0.4220
  632MOL0     H87188   3.903   6.155   4.974 -1.3377 -0.5036  1.1216
  632MOL0     H87189   4.018   6.050   4.922  1.0369  0.7663 -0.5223
  632MOL0     H87190   3.762   5.993   5.035  0.3760  0.1893 -3.7245
  632MOL0     H87191   3.885   5.948   5.162 -1.7796  3.9913  0.5802
  632MOL0     H87192   3.961   5.768   5.045  0.3774  0.5928  0.1037
  632MOL0     H87193   3.921   5.829   4.885  1.4217 -1.9770  0.5557
  632MOL0     H87194   3.697   5.778   4.912  0.1014 -3.4122 -1.0151
  632MOL0     H87195   3.708   5.732   5.089  0.7795  0.0016  0.8708
  632MOL0     H87196   4.499   6.384   5.253 -2.0521 -0.7750  0.5979
  632MOL0     H87197   4.563   6.592   5.119 -0.7969 -0.9583 -1.4572
  632MOL0     H87198   4.632   6.913   4.954 -2.5658 -2.3658 -1.0965
  632MOL0     H87199   4.752   7.109   4.884  0.3313 -3.4016  0.2990
  632MOL0     H87200   5.288   8.093   5.858  1.0978  4.0268  0.0488
  632MOL0     H87201   5.457   7.955   5.946 -2.0842  1.3269 -1.4364
  632MOL0     H87202   5.602   7.779   6.362  1.3777 -4.0345 -1.5202
  632MOL0     H87203   5.733   7.636   6.464 -2.0171  2.0625  1.7350
  632MOL0     H87204   5.903   7.523   6.587 -2.1576 -0.1787  3.1965
  632MOL0     H87205   6.064   7.545   6.660 -1.0536 -1.5108  0.5733
  632MOL0     H87206   5.797   7.688   6.731  0.9019  2.8502 -0.3777
  632MOL0     H87207   5.961   7.747   6.773 -0.3861  1.2582  0.1400
  632MOL0     H87208   6.009   7.521   6.885  0.9052  1.0246  0.6820
  632MOL0     H87209   5.899   7.628   6.965  1.0645 -0.3273  0.6241
  632MOL0     H87210   5.714   7.490   6.864  0.6997  0.7153  1.9177
  632MOL0     H87211   5.794   7.410   6.988 -3.2455  1.9303  0.2374
  632MOL0     H87212   5.894   7.164   6.660  0.2759 -1.8606  2.2680
  632MOL0     H87213   6.069   7.914   6.439 -0.0402  0.7530  1.7526
  632MOL0     H87214   5.912   8.104   6.180  1.8180 -1.1816 -0.7897
  632MOL0     H87215   5.879   8.185   6.339 -1.2610 -1.9426  2.2892
  632MOL0     H87216   6.038   8.108   6.303 -0.0845  2.2997 -1.7813
  633MOL0     O87217   5.916   8.065   1.199  0.4968  0.0374  0.1466
  633MOL0     C87218   5.872   8.003   1.296 -0.0516 -0.6539 -0.4952
  633MOL0     O87219   5.798   7.884   1.287 -0.2394  0.2299 -0.4167
  633MOL0     C87220   5.753   7.836   1.165 -0.4317 -0.2220  0.0383
  633MOL0     C87221   5.771   7.881   1.031  0.9779 -0.1816 -0.3293
  633MOL0     C87222   5.734   7.804   0.921  0.9218  0.4657  0.5071
  633MOL0     C87223   5.659   7.685   0.942 -0.1218  0.3337 -0.0507
  633MOL0     O87224   5.619   7.612   0.826  0.3350 -0.1870  0.0527
  633MOL0     C87225   5.560   7.485   0.834  0.8290  0.6971  0.4175
  633MOL0     C87226   5.412   7.487   0.863  1.3888 -0.4045 -0.5634
  633MOL0     C87227   5.332   7.401   0.779  1.3251 -0.4633  0.4197
  633MOL0     C87228   5.357   7.253   0.807 -0.5515  0.8101 -0.0634
  633MOL0     C87229   5.234   7.166   0.779  0.1343  1.2064  0.0725
  633MOL0     C87230   5.280   7.015   0.740  0.0235  0.5322  0.1806
  633MOL0     C87231   5.163   6.921   0.711 -0.2308  0.1056 -0.8124
  633MOL0     C87232   5.069   6.896   0.831  0.5032 -0.1593  0.3544
  633MOL0     N87233   5.147   6.854   0.944  0.5393  0.1003  0.7522
  633MOL0     C87234   5.166   6.933   1.060 -0.3328  0.9571  0.7897
  633MOL0     C87235   5.236   6.850   1.140 -0.0882 -0.0211  0.9869
  633MOL0     C87236   5.293   6.887   1.269 -0.1011  0.8035 -0.7897
  633MOL0     C87237   5.407   6.987   1.255 -0.0140  0.3415  0.2361
  633MOL0     C87238   5.383   7.134   1.208  0.6813 -0.2218  0.3976
  633MOL0     C87239   5.490   7.237   1.253  0.0514  0.4433  0.5590
  633MOL0     O87240   5.461   7.377   1.214 -0.1164  0.0755  0.1908
  633MOL0     C87241   5.387   7.447   1.297 -0.1472  0.9054 -0.0156
  633MOL0     C87242   5.443   7.539   1.385 -0.2700 -0.0647  0.3950
  633MOL0     C87243   5.368   7.626   1.469  0.7978  0.3125 -0.1488
  633MOL0     C87244   5.450   7.722   1.542  1.2121  0.2125 -1.0462
  633MOL0     C87245   5.226   7.615   1.466 -0.6779 -0.5724  0.9416
  633MOL0     C87246   5.131   7.688   1.554 -0.4142  0.0922  0.3684
  633MOL0     O87247   4.997   7.696   1.524  0.1054 -0.9273 -0.7837
  633MOL0     C87248   4.916   7.766   1.605 -0.6580  0.2248 -1.0936
  633MOL0     C87249   4.888   7.895   1.544 -0.4434  0.3484  0.9932
  633MOL0     C87250   4.801   7.987   1.606 -0.4256 -0.3922  0.6838
  633MOL0     C87251   4.743   7.951   1.720  0.8626  0.1111 -1.3170
  633MOL0     O87252   4.667   8.045   1.784 -0.2060 -0.9536 -0.2905
  633MOL0     C87253   4.709   8.061   1.918  0.4012 -0.6328  0.1849
  633MOL0     C87254   4.662   8.199   1.967 -0.2648 -0.1461 -1.4275
  633MOL0     C87255   4.505   8.203   1.977 -0.6386  0.0625  0.7107
  633MOL0     C87256   4.440   8.182   2.117 -0.5317  0.3501  0.2643
  633MOL0     C87257   4.287   8.150   2.099 -0.2758 -0.4536  0.1094
  633MOL0     C87258   4.206   8.136   2.226  0.4094  0.1606 -0.8684
  633MOL0     C87259   4.056   8.153   2.196  0.2646  0.0647  0.0993
  633MOL0     C87260   3.970   8.195   2.319 -0.3603 -0.3417 -0.7165
  633MOL0    Cl87261   3.990   8.061   2.437  0.7065  0.2671  0.4033
  633MOL0     C87262   4.780   7.827   1.785 -0.5409  0.0593 -0.4064
  633MOL0     C87263   4.864   7.723   1.726  0.5610 -0.3336  0.5201
  633MOL0     O87264   5.177   7.732   1.657 -0.9799 -0.0018  0.0642
  633MOL0     C87265   5.173   7.523   1.370  0.1270 -0.2784 -0.7101
  633MOL0     C87266   5.246   7.453   1.276 -0.0243 -0.5282  0.0181
  633MOL0     N87267   5.267   6.734   1.073 -0.6516 -0.8077 -0.3880
  633MOL0     N87268   5.201   6.730   0.960  0.2378 -0.1401 -0.5347
  633MOL0     C87269   5.628   7.642   1.072 -0.1191 -0.5086 -0.1546
  633MOL0     C87270   5.685   7.722   1.173  0.1779 -0.4681 -1.2401
  633MOL0     C87271   5.910   8.040   1.441  0.7098  0.2710  0.1140
  633MOL0     C87272   5.851   7.968   1.553  0.1359  1.7943  1.4259
  633MOL0     C87273   5.892   7.995   1.680  0.6507 -1.4764 -0.0527
  633MOL0     C87274   5.978   8.092   1.705  0.8271 -1.2165 -0.6108
  633MOL0     O87275   6.036   8.121   1.822  0.1391 -1.0888  0.0095
  633MOL0     C87276   5.975   8.062   1.944 -0.6370  1.3197  0.7972
  633MOL0     C87277   6.066   8.090   2.069  0.3994 -0.1846 -0.5072
  633MOL0     C87278   6.199   8.024   2.081  0.2980 -0.4750  0.1846
  633MOL0     C87279   6.302   8.094   2.165 -0.2978 -0.8073 -0.4737
  633MOL0     C87280   6.251   8.118   2.307  0.0302 -0.1256  0.1988
  633MOL0     C87281   6.189   8.142   2.409 -0.5867 -1.0099 -0.4048
  633MOL0     C87282   6.035   8.169   1.603  0.2601 -0.2563  0.0524
  633MOL0     C87283   5.998   8.145   1.466  0.8335  0.3717  0.0548
  633MOL0     C87284   6.067   8.225   1.363 -0.0842 -0.6438 -0.4994
  633MOL0     H87285   5.815   7.978   1.015  3.0140 -0.8074  1.1733
  633MOL0     H87286   5.742   7.842   0.819  3.5418 -0.2112  0.3920
  633MOL0     H87287   5.601   7.412   0.905 -0.0607 -0.5942 -0.3520
  633MOL0     H87288   5.582   7.443   0.735 -1.4165  2.0144 -0.7177
  633MOL0     H87289   5.390   7.466   0.968 -0.2030  1.4524 -0.4803
  633MOL0     H87290   5.377   7.589   0.851 -2.0581 -1.0467  2.3823
  633MOL0     H87291   5.229   7.421   0.812  2.0395  4.5861  0.4275
  633MOL0     H87292   5.331   7.417   0.670  1.0499 -0.5432  0.4082
  633MOL0     H87293   5.449   7.231   0.753 -0.1382 -2.6255  1.7589
  633MOL0     H87294   5.381   7.256   0.914  0.8380  2.0680 -0.3873
  633MOL0     H87295   5.189   7.220   0.695  1.6134 -1.0617 -2.3484
  633MOL0     H87296   5.159   7.160   0.858 -0.2981 -0.4690 -0.4172
  633MOL0     H87297   5.340   7.018   0.648 -1.7225 -1.3192 -1.1094
  633MOL0     H87298   5.354   6.979   0.812  0.1915 -1.0312 -0.7367
  633MOL0     H87299   5.200   6.828   0.667 -0.6026 -0.7559  0.6204
  633MOL0     H87300   5.117   6.975   0.628  1.6076  1.0111 -1.2838
  633MOL0     H87301   5.001   6.979   0.850  0.3935 -0.8134  3.3262
  633MOL0     H87302   4.999   6.813   0.815 -0.7710  1.2063 -1.6258
  633MOL0     H87303   5.134   7.035   1.080  2.0032  2.1967 -1.0883
  633MOL0     H87304   5.336   6.801   1.322 -2.6348 -1.4458 -2.1443
  633MOL0     H87305   5.211   6.939   1.319  1.7422  4.1591 -1.0078
  633MOL0     H87306   5.441   6.977   1.359  0.5780 -1.3548 -0.0743
  633MOL0     H87307   5.471   6.942   1.178  2.0097  1.5402  1.1408
  633MOL0     H87308   5.378   7.129   1.099 -0.0130 -5.0039  0.4669
  633MOL0     H87309   5.281   7.160   1.240 -0.3541 -1.8585 -1.3824
  633MOL0     H87310   5.519   7.234   1.359  2.5981 -0.5981 -0.1158
  633MOL0     H87311   5.579   7.213   1.195  0.9211 -0.0991  2.0651
  633MOL0     H87312   5.551   7.548   1.384 -0.0734 -1.8008 -1.5543
  633MOL0     H87313   5.489   7.685   1.637 -0.4885 -2.0265 -1.1312
  633MOL0     H87314   5.383   7.807   1.557 -0.9336 -1.1385 -2.4920
  633MOL0     H87315   5.532   7.767   1.485  0.9805  1.9288 -0.0796
  633MOL0     H87316   4.947   7.918   1.455 -3.1485  0.5248 -0.8753
  633MOL0     H87317   4.783   8.089   1.573  0.0560 -0.2893  0.7332
  633MOL0     H87318   4.660   7.985   1.980 -0.1647  0.7825  1.5301
  633MOL0     H87319   4.817   8.049   1.928  0.1960 -2.0447  0.9801
  633MOL0     H87320   4.715   8.214   2.061  0.7389  0.9138 -2.1285
  633MOL0     H87321   4.697   8.276   1.898  0.8308  1.9373  1.3166
  633MOL0     H87322   4.462   8.133   1.904  0.8180 -1.9381  1.6600
  633MOL0     H87323   4.467   8.303   1.958  1.9617  1.6976  3.3181
  633MOL0     H87324   4.459   8.266   2.184 -0.8356  1.3164 -0.8255
  633MOL0     H87325   4.485   8.093   2.162  0.4503  0.5532 -0.2674
  633MOL0     H87326   4.244   8.223   2.030 -0.4809 -0.8952 -0.2271
  633MOL0     H87327   4.285   8.057   2.042  0.5499  1.6108 -3.6405
  633MOL0     H87328   4.233   8.206   2.306 -1.4996  0.5254 -0.4860
  633MOL0     H87329   4.233   8.036   2.261  2.6018  0.1324 -2.4253
  633MOL0     H87330   4.012   8.063   2.152 -0.8788  2.2788 -3.7293
  633MOL0     H87331   4.033   8.221   2.114 -1.2147 -2.0749 -1.3905
  633MOL0     H87332   3.864   8.206   2.298 -0.8847 -0.7107  1.5223
  633MOL0     H87333   4.007   8.285   2.369  1.1366 -0.2880 -1.8298
  633MOL0     H87334   4.752   7.811   1.889 -1.6270  1.3215 -0.4922
  633MOL0     H87335   4.907   7.642   1.784  2.6492  0.9976  0.9452
  633MOL0     H87336   5.065   7.531   1.361 -0.1508  0.9296  2.4947
  633MOL0     H87337   5.210   7.394   1.192  2.7237  0.1244 -1.7661
  633MOL0     H87338   5.572   7.550   1.083  0.8233 -1.2704 -1.4080
  633MOL0     H87339   5.653   7.704   1.276  0.5418  3.1940 -0.3366
  633MOL0     H87340   5.782   7.885   1.541  0.2460  1.8888 -0.0590
  633MOL0     H87341   5.853   7.936   1.762  0.7015  0.4774  1.4655
  633MOL0     H87342   5.877   8.109   1.960 -0.9203  0.9295  0.2468
  633MOL0     H87343   5.971   7.953   1.937  0.1074  0.9983  3.8371
  633MOL0     H87344   6.006   8.060   2.154 -0.0886 -0.8559 -1.0792
  633MOL0     H87345   6.086   8.196   2.084 -0.9556  0.0507 -0.2577
  633MOL0     H87346   6.190   7.927   2.129 -0.3217 -0.7618 -0.5034
  633MOL0     H87347   6.252   8.009   1.986 -1.6171  1.4087 -1.3005
  633MOL0     H87348   6.324   8.193   2.124  1.4326 -2.1815 -3.1342
  633MOL0     H87349   6.400   8.046   2.166  1.7522  3.0404  0.3748
  633MOL0     H87350   6.136   8.185   2.493  0.5131  0.5064 -0.4330
  633MOL0     H87351   6.118   8.234   1.626  1.9046 -1.1311 -2.8743
  633MOL0     H87352   5.996   8.284   1.304 -0.1153  0.8628  0.9816
  633MOL0     H87353   6.145   8.286   1.410 -0.7049  0.4355 -0.8323
  633MOL0     H87354   6.123   8.155   1.301  2.1112  1.0025 -0.5046
  634MOL0     O87355   5.758   5.252   4.655  0.2191 -0.0901 -0.6301
  634MOL0     C87356   5.645   5.224   4.701  0.2018 -0.0278  0.7322
  634MOL0     O87357   5.526   5.272   4.642 -1.0424  0.3149  0.6697
  634MOL0     C87358   5.530   5.396   4.586 -0.3754  1.6704  0.0337
  634MOL0     C87359   5.463   5.501   4.650 -0.2438  0.8685 -0.2193
  634MOL0     C87360   5.450   5.624   4.591  0.7882 -0.3079 -0.0070
  634MOL0     C87361   5.512   5.654   4.467  0.2536 -0.6015  0.0296
  634MOL0     O87362   5.500   5.784   4.431  0.4625 -0.4464  0.1066
  634MOL0     C87363   5.617   5.849   4.386 -0.5260 -0.1137  0.4130
  634MOL0     C87364   5.626   5.998   4.439 -0.2132  0.2405 -0.5385
  634MOL0     C87365   5.512   6.095   4.407  0.8444  0.3662  1.5138
  634MOL0     C87366   5.483   6.132   4.254 -0.5976 -0.6394 -0.3100
  634MOL0     C87367   5.357   6.223   4.241 -0.7242  0.1345  1.4530
  634MOL0     C87368   5.340   6.251   4.087 -0.0916 -0.2412 -0.2915
  634MOL0     C87369   5.239   6.363   4.050 -0.2612 -0.3981  0.4250
  634MOL0     C87370   5.098   6.367   4.117  0.3574 -0.3637  0.4359
  634MOL0     N87371   5.094   6.403   4.261 -0.4210  0.8987  1.2720
  634MOL0     C87372   5.155   6.517   4.314 -0.1780  0.8672 -0.2436
  634MOL0     C87373   5.131   6.507   4.447 -1.1738 -0.0908 -1.0690
  634MOL0     C87374   5.157   6.612   4.553  0.7842 -0.1180 -1.2703
  634MOL0     C87375   5.286   6.571   4.636  0.2686  0.1987 -0.2487
  634MOL0     C87376   5.316   6.687   4.724  0.2325  0.1007  0.2335
  634MOL0     C87377   5.466   6.723   4.727  0.1683 -0.3576  0.3209
  634MOL0     O87378   5.491   6.755   4.590 -0.4272 -0.3003  0.2945
  634MOL0     C87379   5.502   6.891   4.560  0.0815 -0.7934 -1.2574
  634MOL0     C87380   5.393   6.974   4.541 -1.1434 -1.2645  0.0626
  634MOL0     C87381   5.408   7.115   4.514  0.9254 -0.3253  0.7310
  634MOL0     C87382   5.279   7.194   4.504  0.3118 -0.5163  0.7179
  634MOL0     C87383   5.539   7.161   4.479  0.0913 -0.2705 -0.1268
  634MOL0     C87384   5.566   7.296   4.409 -0.1701 -0.4173 -0.3853
  634MOL0     O87385   5.682   7.356   4.442 -0.0322 -0.2068  0.2465
  634MOL0     C87386   5.717   7.467   4.368  0.0520 -0.9741  0.7614
  634MOL0     C87387   5.837   7.471   4.302 -0.2204  0.5145  0.3825
  634MOL0     C87388   5.886   7.582   4.224  0.3291 -0.4653 -0.0322
  634MOL0     C87389   5.803   7.696   4.221 -0.3381 -0.5021  0.3830
  634MOL0     O87390   5.833   7.800   4.138  0.3546  0.5991 -0.3023
  634MOL0     C87391   5.950   7.874   4.187  0.2986 -0.7138 -0.5339
  634MOL0     C87392   6.017   7.956   4.092  0.5515 -0.4347  0.0048
  634MOL0     C87393   6.068   7.873   3.973 -0.3878  0.3509  0.2758
  634MOL0     C87394   5.995   7.928   3.850  0.6047 -0.3575  0.0073
  634MOL0     C87395   6.069   7.881   3.726  0.3968  0.0102 -0.1539
  634MOL0     C87396   6.024   7.950   3.595  0.4943 -0.3016  1.4112
  634MOL0     C87397   6.069   7.862   3.468 -0.7873  0.5467 -0.1171
  634MOL0     C87398   6.073   7.955   3.349 -0.3881 -0.9625 -0.2012
  634MOL0    Cl87399   6.124   7.878   3.196 -0.7055  0.2669  0.3040
  634MOL0     C87400   5.675   7.698   4.281  0.1309  0.2098 -0.1584
  634MOL0     C87401   5.629   7.576   4.345  0.3762 -1.2224 -0.3284
  634MOL0     O87402   5.489   7.321   4.317 -0.2466 -0.4660 -0.3602
  634MOL0     C87403   5.648   7.078   4.493  0.1935  0.3607  0.7311
  634MOL0     C87404   5.630   6.945   4.533  0.1495 -0.3519  0.5965
  634MOL0     N87405   5.046   6.403   4.466  0.1094  0.9401 -0.0509
  634MOL0     N87406   5.018   6.339   4.356 -0.4958  0.8644  0.0625
  634MOL0     C87407   5.581   5.549   4.406  0.0172 -0.0813  0.3721
  634MOL0     C87408   5.596   5.427   4.468 -0.7100 -0.3381 -0.1688
  634MOL0     C87409   5.619   5.143   4.822 -0.6664 -0.1825  0.0519
  634MOL0     C87410   5.484   5.116   4.877  0.5948 -0.5537  0.6926
  634MOL0     C87411   5.454   5.046   4.988  0.0541  0.2839  1.0217
  634MOL0     C87412   5.557   4.987   5.059 -0.6242  0.7586  0.5253
  634MOL0     O87413   5.536   4.891   5.156 -0.3729 -0.1719  0.1222
  634MOL0     C87414   5.418   4.889   5.228  0.6873 -1.1222 -0.4737
  634MOL0     C87415   5.427   4.793   5.340  0.5098 -0.0614 -0.7617
  634MOL0     C87416   5.414   4.646   5.294 -0.5679 -0.1682 -0.1502
  634MOL0     C87417   5.455   4.547   5.406 -0.3834 -0.3117 -0.8383
  634MOL0     C87418   5.354   4.512   5.500 -0.1291 -1.0621 -0.0203
  634MOL0     C87419   5.274   4.474   5.580  0.1735 -0.3099 -0.4003
  634MOL0     C87420   5.683   5.003   5.007 -0.2003  0.4527  0.0280
  634MOL0     C87421   5.714   5.081   4.894 -1.6528  0.1486  0.8655
  634MOL0     C87422   5.859   5.102   4.872 -0.5605 -0.6177  0.6614
  634MOL0     H87423   5.426   5.476   4.749  1.0607 -2.6896 -0.4756
  634MOL0     H87424   5.402   5.696   4.655  0.6834 -1.5594  1.3766
  634MOL0     H87425   5.627   5.840   4.277 -2.9391 -0.7693  0.1995
  634MOL0     H87426   5.707   5.802   4.428 -0.1892  0.1402 -0.0047
  634MOL0     H87427   5.630   5.991   4.548 -1.9169  2.4318 -0.2648
  634MOL0     H87428   5.723   6.033   4.404  0.6385 -1.0429  0.4080
  634MOL0     H87429   5.417   6.064   4.451 -0.4641  2.1794  0.1157
  634MOL0     H87430   5.535   6.192   4.451 -0.8836  1.5658 -0.0487
  634MOL0     H87431   5.568   6.180   4.204 -1.9697  3.0056  0.5340
  634MOL0     H87432   5.468   6.040   4.198  0.8934 -0.8768 -0.3669
  634MOL0     H87433   5.365   6.322   4.289  3.6448  1.2834 -1.1148
  634MOL0     H87434   5.264   6.176   4.273 -0.6312  0.6059  2.4539
  634MOL0     H87435   5.437   6.286   4.050 -0.0553  0.4251  0.4124
  634MOL0     H87436   5.322   6.153   4.041  0.1197 -1.3518  1.8588
  634MOL0     H87437   5.215   6.346   3.944 -1.2259 -1.6014  0.8213
  634MOL0     H87438   5.286   6.461   4.067  2.1505 -1.6491  1.5275
  634MOL0     H87439   5.029   6.436   4.067 -0.5874 -1.2326  0.5065
  634MOL0     H87440   5.050   6.271   4.099 -0.8078  0.2436  0.2180
  634MOL0     H87441   5.204   6.594   4.255  0.8073 -0.5591 -1.3814
  634MOL0     H87442   5.081   6.627   4.631  4.2990  2.5828  2.0187
  634MOL0     H87443   5.174   6.709   4.506 -1.7365  0.4110 -1.2264
  634MOL0     H87444   5.262   6.491   4.708 -0.7796 -1.7269 -2.6044
  634MOL0     H87445   5.369   6.534   4.576 -0.8775 -2.6328 -0.2837
  634MOL0     H87446   5.258   6.774   4.692 -3.6999 -2.0027  1.0452
  634MOL0     H87447   5.293   6.651   4.825  1.9670  1.3093  1.1043
  634MOL0     H87448   5.483   6.801   4.801 -4.7439  0.8953  0.4761
  634MOL0     H87449   5.527   6.636   4.753  2.0560  0.5884 -0.7455
  634MOL0     H87450   5.295   6.930   4.553 -1.5657 -0.2388  0.4888
  634MOL0     H87451   5.224   7.158   4.416  0.8666 -1.0160  0.5714
  634MOL0     H87452   5.310   7.295   4.477  5.3282 -2.8333 -4.2517
  634MOL0     H87453   5.214   7.174   4.590 -0.0478 -1.5468  0.2330
  634MOL0     H87454   5.910   7.391   4.312 -0.6748  0.0170 -0.1762
  634MOL0     H87455   5.986   7.589   4.183 -0.3849  3.4211 -1.4756
  634MOL0     H87456   5.913   7.937   4.268  3.0847 -0.3329  0.5572
  634MOL0     H87457   6.031   7.814   4.228  1.1538 -0.7965 -2.2588
  634MOL0     H87458   5.950   8.036   4.059  0.5035  0.1626  1.5176
  634MOL0     H87459   6.107   7.996   4.138  0.1347  1.5768 -0.8011
  634MOL0     H87460   6.049   7.766   3.986 -0.2278  0.1167 -1.2317
  634MOL0     H87461   6.174   7.899   3.963 -0.9676  1.7799 -4.4238
  634MOL0     H87462   5.994   8.037   3.850  2.6144 -0.2539 -1.6957
  634MOL0     H87463   5.889   7.901   3.854  0.5862 -0.4754 -0.9315
  634MOL0     H87464   6.176   7.896   3.742  0.3871  1.2938 -1.1190
  634MOL0     H87465   6.051   7.774   3.720  2.9593 -0.5447  0.7387
  634MOL0     H87466   6.063   8.052   3.595 -2.6234  0.9790  1.2430
  634MOL0     H87467   5.915   7.948   3.596  0.5018 -1.6876  2.1684
  634MOL0     H87468   5.993   7.790   3.437 -1.3154  1.2732 -0.5323
  634MOL0     H87469   6.158   7.801   3.487 -1.3086  0.1363  1.1362
  634MOL0     H87470   6.138   8.036   3.384 -2.0037  0.1108  0.4300
  634MOL0     H87471   5.974   7.998   3.335 -0.1779  0.6404  2.5250
  634MOL0     H87472   5.619   7.790   4.265  2.1232  1.3916 -0.6324
  634MOL0     H87473   5.529   7.578   4.389  0.6923 -1.2843  0.4076
  634MOL0     H87474   5.745   7.112   4.459  1.9419 -4.9672 -0.4092
  634MOL0     H87475   5.716   6.880   4.532  3.0241  2.9741 -3.5735
  634MOL0     H87476   5.617   5.564   4.305 -0.1399  0.2844  0.3662
  634MOL0     H87477   5.650   5.355   4.408 -3.3164 -2.4352 -0.1988
  634MOL0     H87478   5.399   5.155   4.823  3.6423  1.3435 -3.3317
  634MOL0     H87479   5.348   5.028   5.001  0.0450 -0.8465 -0.3340
  634MOL0     H87480   5.388   4.991   5.254  0.5283 -0.8410 -1.7244
  634MOL0     H87481   5.328   4.860   5.173  0.2328 -0.7035  0.0391
  634MOL0     H87482   5.347   4.823   5.409  1.7829  0.3360  0.5934
  634MOL0     H87483   5.523   4.811   5.388 -0.7676  0.4680  1.7702
  634MOL0     H87484   5.320   4.624   5.242 -0.0984  1.8517 -2.0457
  634MOL0     H87485   5.486   4.639   5.212  3.4644  1.2630  2.9693
  634MOL0     H87486   5.541   4.584   5.461 -0.6934 -2.2807  1.1085
  634MOL0     H87487   5.490   4.449   5.372 -1.7360 -2.1865  2.6654
  634MOL0     H87488   5.199   4.437   5.646  1.2789  0.7813  1.5572
  634MOL0     H87489   5.759   4.949   5.062  0.1851  1.1198  0.1587
  634MOL0     H87490   5.873   5.083   4.765  1.7985  4.1943 -0.1630
  634MOL0     H87491   5.890   5.206   4.882 -0.0518 -0.4934 -1.6468
  634MOL0     H87492   5.929   5.037   4.925 -1.5715 -2.5267 -0.2519
  635MOL0     O87493   3.199   9.139   9.801 -0.8100  0.3206  0.0079
  635MOL0     C87494   3.111   9.197   9.862 -0.0768 -0.1523  0.0422
  635MOL0     O87495   3.019   9.137   9.941  0.4531 -0.3198  0.5423
  635MOL0     C87496   3.036   8.999   9.957 -0.1196 -0.0559  0.1266
  635MOL0     C87497   3.136   8.936  10.028 -1.5838  0.5552 -0.5839
  635MOL0     C87498   3.147   8.799  10.034  0.2558  0.9619  0.1135
  635MOL0     C87499   3.062   8.717   9.956  0.5603 -0.2825  0.0898
  635MOL0     O87500   3.082   8.580   9.959  0.2025 -0.1239 -0.3605
  635MOL0     C87501   2.958   8.504   9.998  0.4817  0.0688  0.0732
  635MOL0     C87502   2.876   8.460   9.870 -0.7416 -0.5349 -0.0963
  635MOL0     C87503   2.979   8.411   9.765  0.3366  0.1081 -0.3965
  635MOL0     C87504   2.910   8.358   9.637 -0.3563 -0.2193 -0.5690
  635MOL0     C87505   3.034   8.338   9.535 -0.4717  0.2232 -0.4881
  635MOL0     C87506   2.982   8.288   9.399  0.1410  0.9824  1.1541
  635MOL0     C87507   3.082   8.240   9.300  0.3558  0.5610  0.1755
  635MOL0     C87508   3.022   8.144   9.205  0.0865 -0.5628  0.6843
  635MOL0     N87509   3.101   8.141   9.076  0.3262 -0.4599 -0.4131
  635MOL0     C87510   3.123   8.016   9.020  0.1493  0.3917 -0.5714
  635MOL0     C87511   3.143   8.042   8.891  0.0525 -0.3219  1.2166
  635MOL0     C87512   3.173   7.940   8.784 -0.6225  0.9868 -0.1586
  635MOL0     C87513   3.111   7.965   8.654  0.4470  0.1795 -0.2812
  635MOL0     C87514   2.955   7.954   8.658  0.4149  0.2695 -1.0380
  635MOL0     C87515   2.906   7.847   8.756 -0.1278 -0.0327 -0.7967
  635MOL0     O87516   2.961   7.712   8.719  0.7008 -1.0753  0.3348
  635MOL0     C87517   2.907   7.631   8.635  0.2370 -0.4955  0.0047
  635MOL0     C87518   2.993   7.530   8.594 -0.6205  0.0671  0.2274
  635MOL0     C87519   2.958   7.440   8.497  0.6831 -0.0648 -0.2552
  635MOL0     C87520   3.054   7.342   8.450  0.3504 -0.7976 -0.1575
  635MOL0     C87521   2.822   7.434   8.453  0.2303 -0.0390 -0.4135
  635MOL0     C87522   2.778   7.339   8.346  0.0497  1.0279 -0.2789
  635MOL0     O87523   2.662   7.274   8.366  0.1629  0.2699  0.3365
  635MOL0     C87524   2.592   7.226   8.266 -1.1626 -0.3623 -0.0900
  635MOL0     C87525   2.621   7.102   8.213  0.4465 -0.1178  0.6596
  635MOL0     C87526   2.541   7.059   8.106 -0.6402  0.3963 -0.3157
  635MOL0     C87527   2.446   7.143   8.040  0.1740  0.5847  0.4093
  635MOL0     O87528   2.394   7.097   7.920 -0.5890 -0.8097 -0.8254
  635MOL0     C87529   2.289   7.160   7.863  0.3925 -0.3200  0.0086
  635MOL0     C87530   2.191   7.070   7.787  1.1031  1.0606  1.2289
  635MOL0     C87531   2.075   7.131   7.699  0.5502 -0.6449  0.5967
  635MOL0     C87532   2.108   7.186   7.554  0.2186  0.2140 -0.4469
  635MOL0     C87533   1.978   7.184   7.468  1.0966  0.2693 -0.9316
  635MOL0     C87534   2.006   7.198   7.317  0.2885 -0.5016  0.7803
  635MOL0     C87535   1.874   7.164   7.243  0.0014 -0.3985  0.1025
  635MOL0     C87536   1.882   7.176   7.089 -0.3941 -0.3205 -0.3253
  635MOL0    Cl87537   1.994   7.050   7.055 -0.1716  0.0675  0.2017
  635MOL0     C87538   2.420   7.261   8.101  0.1238 -0.7172 -0.3918
  635MOL0     C87539   2.486   7.304   8.218 -0.4419  0.9492  0.1870
  635MOL0     O87540   2.838   7.339   8.235 -0.1347 -0.1297 -0.5460
  635MOL0     C87541   2.734   7.540   8.492  0.1287  0.7886  0.2932
  635MOL0     C87542   2.782   7.636   8.580  0.4709 -0.3164 -0.6375
  635MOL0     N87543   3.130   8.177   8.871 -0.1785 -1.2055  0.2176
  635MOL0     N87544   3.091   8.231   8.976 -0.0572  0.0722 -1.1431
  635MOL0     C87545   2.960   8.783   9.882 -0.9677  1.2832 -0.8907
  635MOL0     C87546   2.937   8.922   9.894  0.4239  0.1419  1.1401
  635MOL0     C87547   3.107   9.350   9.884 -0.1277  0.4410 -0.1994
  635MOL0     C87548   2.989   9.417   9.915  0.6025 -0.3524  0.6905
  635MOL0     C87549   2.986   9.557   9.943  0.1098  1.2354 -0.2606
  635MOL0     C87550   3.106   9.625   9.957 -0.0188 -0.7538  0.4306
  635MOL0     O87551   3.090   9.757   9.991  0.4304 -0.6789  1.0549
  635MOL0     C87552   3.192   9.829  10.064  0.8538  0.5657 -1.0782
  635MOL0     C87553   3.194   9.781  10.206 -0.0834 -0.0494 -0.1982
  635MOL0     C87554   3.267   9.888  10.296 -0.0044 -0.3796 -0.4813
  635MOL0     C87555   3.313   9.822  10.440  0.4474 -0.2979  0.3828
  635MOL0     C87556   3.197   9.752  10.502  1.1395  0.1196 -0.2238
  635MOL0     C87557   3.102   9.706  10.566  0.0923 -0.5565  1.3587
  635MOL0     C87558   3.228   9.563   9.935 -0.2912  0.3904 -0.1386
  635MOL0     C87559   3.225   9.426   9.898 -0.7598  1.4740  0.0454
  635MOL0     C87560   3.367   9.368   9.881  0.5315  0.5249 -0.9504
  635MOL0     H87561   3.213   8.987  10.085 -0.7832 -0.5633 -0.6380
  635MOL0     H87562   3.228   8.736  10.069 -0.2530 -0.5450 -1.2397
  635MOL0     H87563   2.888   8.557  10.063 -0.1293 -3.4178  2.5296
  635MOL0     H87564   2.985   8.412  10.051 -1.2335 -2.8258 -3.5944
  635MOL0     H87565   2.794   8.389   9.888 -2.7512  0.8746 -2.8566
  635MOL0     H87566   2.813   8.544   9.839  0.5478  0.6221  0.3303
  635MOL0     H87567   3.057   8.482   9.738  1.1281 -0.4303  0.4364
  635MOL0     H87568   3.032   8.323   9.802 -1.2893  0.5046  3.3094
  635MOL0     H87569   2.842   8.273   9.645  0.4004 -0.7395  0.7254
  635MOL0     H87570   2.855   8.438   9.587  2.1352  2.5313  0.8010
  635MOL0     H87571   3.088   8.261   9.591 -3.2047  1.2592  4.1521
  635MOL0     H87572   3.094   8.430   9.541  1.0844 -0.7981  4.2139
  635MOL0     H87573   2.923   8.197   9.417  2.2437 -0.7239 -0.1030
  635MOL0     H87574   2.927   8.363   9.342  0.0068 -0.9493 -1.4365
  635MOL0     H87575   3.163   8.192   9.355  3.4477  3.9128 -1.0594
  635MOL0     H87576   3.125   8.316   9.234  0.8741 -1.4483 -1.9064
  635MOL0     H87577   3.034   8.042   9.240  3.6821 -0.6079 -0.2758
  635MOL0     H87578   2.914   8.159   9.198 -0.2219 -3.0278 -1.2381
  635MOL0     H87579   3.143   7.932   9.087 -2.1083  2.2380  2.6993
  635MOL0     H87580   3.167   7.841   8.829  5.3710  0.4434  0.2995
  635MOL0     H87581   3.279   7.952   8.760  0.3835 -1.2527  2.6348
  635MOL0     H87582   3.136   8.061   8.608  0.2154  1.2803  1.7637
  635MOL0     H87583   3.163   7.892   8.592  1.3049 -0.4993  1.2036
  635MOL0     H87584   2.904   8.043   8.696 -1.5983 -2.5932  3.8779
  635MOL0     H87585   2.918   7.921   8.560 -0.7087 -1.5573 -0.0589
  635MOL0     H87586   2.932   7.860   8.861 -2.9736 -0.5420  0.0533
  635MOL0     H87587   2.797   7.842   8.757 -0.2327 -0.1134 -3.8744
  635MOL0     H87588   3.094   7.534   8.634 -0.7908  2.1141  0.5310
  635MOL0     H87589   3.081   7.359   8.346  2.9361  0.3090  0.6320
  635MOL0     H87590   3.008   7.243   8.452 -0.3460 -0.9920 -6.4420
  635MOL0     H87591   3.146   7.347   8.509  0.0499 -1.5232  0.3951
  635MOL0     H87592   2.700   7.036   8.246  1.7897  0.5270 -1.1172
  635MOL0     H87593   2.578   6.968   8.060 -0.7099 -0.1112  0.5970
  635MOL0     H87594   2.222   7.217   7.928 -0.5994  0.0998 -1.3388
  635MOL0     H87595   2.346   7.224   7.795  1.7639 -1.1130  0.3761
  635MOL0     H87596   2.250   7.006   7.720 -3.8094 -1.1210 -1.5545
  635MOL0     H87597   2.141   6.993   7.847  1.2724 -1.2654 -1.4001
  635MOL0     H87598   2.022   7.206   7.758  0.0691 -1.9842  1.9602
  635MOL0     H87599   2.007   7.045   7.693 -1.2347  0.5449  2.3784
  635MOL0     H87600   2.174   7.110   7.513  0.0510 -1.1727  1.6866
  635MOL0     H87601   2.162   7.281   7.555  0.8573 -0.1427  1.2376
  635MOL0     H87602   1.933   7.085   7.483  1.8915  0.3102  2.4826
  635MOL0     H87603   1.910   7.260   7.510  1.9602  0.5558 -0.0105
  635MOL0     H87604   2.092   7.136   7.288  1.7414  2.1540 -0.9704
  635MOL0     H87605   2.035   7.300   7.289 -2.5684  0.1483 -0.1178
  635MOL0     H87606   1.801   7.239   7.273  0.6599 -0.4895  2.0467
  635MOL0     H87607   1.842   7.063   7.271  2.6582 -1.6825 -1.1013
  635MOL0     H87608   1.927   7.268   7.052 -2.8136  0.5039 -1.4050
  635MOL0     H87609   1.782   7.151   7.052  0.3336 -4.1281 -0.1335
  635MOL0     H87610   2.349   7.332   8.062 -0.7865 -0.1935  2.0642
  635MOL0     H87611   2.453   7.393   8.271 -1.1201  1.0189 -0.3387
  635MOL0     H87612   2.633   7.530   8.453  1.1948 -0.2345 -2.4676
  635MOL0     H87613   2.712   7.709   8.618 -0.9540 -1.1316 -1.5933
  635MOL0     H87614   2.892   8.728   9.818 -2.7570  1.1064  1.0433
  635MOL0     H87615   2.856   8.967   9.838  0.7706 -2.7001 -1.9315
  635MOL0     H87616   2.889   9.374   9.905  0.1636  1.0056 -1.4143
  635MOL0     H87617   2.890   9.606   9.956 -1.0399 -1.2234  0.9543
  635MOL0     H87618   3.285   9.805  10.012  3.0215 -1.0577  3.0922
  635MOL0     H87619   3.168   9.936  10.065  2.6443  0.9919 -1.2059
  635MOL0     H87620   3.233   9.680  10.220 -0.8001 -0.0651  2.2588
  635MOL0     H87621   3.092   9.774  10.245  0.4818  1.5579  1.7617
  635MOL0     H87622   3.351   9.934  10.243  0.9828 -0.0275  1.3290
  635MOL0     H87623   3.188   9.964  10.308  0.9802  0.3728  1.9079
  635MOL0     H87624   3.352   9.903  10.503  0.3542  2.6061 -3.0028
  635MOL0     H87625   3.390   9.746  10.427  2.1561  1.2929  0.7689
  635MOL0     H87626   3.015   9.660  10.610  1.0445 -0.9124  2.9461
  635MOL0     H87627   3.327   9.608   9.936 -0.7026  1.3510 -0.7895
  635MOL0     H87628   3.362   9.318   9.783  1.6241 -0.7754 -0.3687
  635MOL0     H87629   3.441   9.448   9.870 -0.0910  1.2606 -0.0144
  635MOL0     H87630   3.388   9.306   9.968 -0.2966  1.6038  0.0473
  636MOL0     O87631   8.376   8.895   0.599  0.3908 -0.3210  0.1532
  636MOL0     C87632   8.286   8.950   0.538  0.2767  0.0043  0.1758
  636MOL0     O87633   8.156   8.986   0.591  0.0314 -0.0465  0.2947
  636MOL0     C87634   8.118   8.941   0.710 -0.3539  0.1774 -0.2924
  636MOL0     C87635   8.008   8.851   0.720 -0.2907 -0.6453  0.0110
  636MOL0     C87636   7.984   8.795   0.844 -0.1263  0.5364  0.0476
  636MOL0     C87637   8.048   8.845   0.960  0.1509  0.3538  0.5255
  636MOL0     O87638   8.032   8.804   1.089  0.8163 -1.0693 -0.1648
  636MOL0     C87639   7.945   8.697   1.118  0.2876  0.0229  0.1213
  636MOL0     C87640   7.998   8.553   1.090 -0.6290  0.1946 -0.2778
  636MOL0     C87641   7.917   8.432   1.135  0.5499  0.5236  0.3369
  636MOL0     C87642   7.919   8.412   1.284 -0.1992  0.6222  0.0159
  636MOL0     C87643   7.820   8.301   1.316 -0.2589  0.1444 -0.2392
  636MOL0     C87644   7.797   8.291   1.469  0.4117 -0.2933  0.3887
  636MOL0     C87645   7.697   8.178   1.492 -0.0463 -0.2387 -0.2511
  636MOL0     C87646   7.758   8.039   1.484  0.0426  0.1017  0.9307
  636MOL0     N87647   7.656   7.934   1.490 -0.3839  0.0853 -0.1106
  636MOL0     C87648   7.548   7.935   1.572 -0.3644  0.3902 -0.0134
  636MOL0     C87649   7.495   7.807   1.561 -0.9395  0.2216  0.1916
  636MOL0     C87650   7.358   7.776   1.612  0.3256  0.2628 -0.5721
  636MOL0     C87651   7.348   7.759   1.762 -0.3829 -0.2077  0.5669
  636MOL0     C87652   7.462   7.672   1.816 -0.5949  0.1225  0.2040
  636MOL0     C87653   7.448   7.679   1.969  0.1403 -1.0875  0.1482
  636MOL0     O87654   7.570   7.644   2.029  0.4712 -0.7528  0.7073
  636MOL0     C87655   7.657   7.741   2.066 -0.5028 -0.2151  0.7199
  636MOL0     C87656   7.790   7.698   2.080 -0.3024  0.2396  0.1098
  636MOL0     C87657   7.907   7.770   2.108  0.4220  0.3305 -0.1424
  636MOL0     C87658   8.037   7.699   2.118 -0.1321 -0.5373  0.4705
  636MOL0     C87659   7.888   7.907   2.138  0.2456 -0.8030  0.8536
  636MOL0     C87660   7.990   8.007   2.167  0.0538 -0.0103  0.1290
  636MOL0     O87661   7.951   8.114   2.243  0.1048  0.3282  0.5530
  636MOL0     C87662   8.026   8.227   2.255 -1.0021  1.0570 -0.2016
  636MOL0     C87663   7.975   8.354   2.236 -0.3967 -0.8143  0.0832
  636MOL0     C87664   8.067   8.463   2.247 -0.3688 -0.2600  0.4820
  636MOL0     C87665   8.201   8.453   2.263 -0.2978  1.2578 -1.2063
  636MOL0     O87666   8.274   8.561   2.259  0.2679 -0.4093 -0.1660
  636MOL0     C87667   8.300   8.605   2.398 -0.6819 -0.1813  0.3038
  636MOL0     C87668   8.447   8.593   2.424 -0.1586 -0.0550  0.3421
  636MOL0     C87669   8.488   8.637   2.566  0.9938  0.1944  0.4639
  636MOL0     C87670   8.428   8.769   2.622  1.0706 -1.1033 -0.2491
  636MOL0     C87671   8.466   8.805   2.762  0.4199 -0.3990 -0.2287
  636MOL0     C87672   8.601   8.874   2.784  0.6977  0.2304 -0.1218
  636MOL0     C87673   8.608   8.951   2.926 -0.6483  0.4723 -0.0545
  636MOL0     C87674   8.631   8.867   3.054 -0.3226 -0.1770  0.6066
  636MOL0    Cl87675   8.759   8.739   3.032  0.4105  0.0646  0.6889
  636MOL0     C87676   8.247   8.322   2.293 -0.0191 -0.1284 -0.6640
  636MOL0     C87677   8.162   8.222   2.291 -0.0078 -0.0671 -0.5919
  636MOL0     O87678   8.098   7.991   2.110 -0.3576  0.0890 -0.3330
  636MOL0     C87679   7.749   7.956   2.134 -0.0820  0.4082 -0.2412
  636MOL0     C87680   7.635   7.880   2.094  0.3735 -0.3729  0.0371
  636MOL0     N87681   7.579   7.740   1.477 -0.1990 -0.4679  0.0145
  636MOL0     N87682   7.673   7.816   1.445 -0.2280 -0.1968 -0.2861
  636MOL0     C87683   8.132   8.949   0.944 -0.1124 -0.0181  0.1936
  636MOL0     C87684   8.171   8.993   0.823  0.3662  0.3755  0.3040
  636MOL0     C87685   8.322   9.016   0.405 -0.3256 -0.1209 -0.8508
  636MOL0     C87686   8.448   8.996   0.344  0.5807  0.3288 -0.4471
  636MOL0     C87687   8.496   9.069   0.228 -0.7880 -0.6409 -0.1261
  636MOL0     C87688   8.406   9.164   0.174  0.2790 -0.1787 -0.4701
  636MOL0     O87689   8.435   9.245   0.074 -0.2590  0.6635  0.2617
  636MOL0     C87690   8.489   9.187  -0.044 -0.4579 -0.3312  0.6741
  636MOL0     C87691   8.367   9.133  -0.121  0.4352  0.0960 -0.1189
  636MOL0     C87692   8.391   9.110  -0.268  0.2057  0.1515 -0.6842
  636MOL0     C87693   8.292   9.020  -0.335  0.2348  0.7436  0.2608
  636MOL0     C87694   8.174   9.103  -0.363  0.1055  1.0861 -0.5023
  636MOL0     C87695   8.082   9.187  -0.378  0.2021  1.0937 -0.4460
  636MOL0     C87696   8.271   9.168   0.215 -0.3049 -1.2405 -0.5449
  636MOL0     C87697   8.232   9.103   0.327  0.7391  0.6493 -0.1741
  636MOL0     C87698   8.081   9.102   0.345 -0.1565  0.9368 -0.7247
  636MOL0     H87699   7.950   8.822   0.632  2.3775  3.7640 -3.6398
  636MOL0     H87700   7.903   8.723   0.850  0.0925  0.1517 -1.1749
  636MOL0     H87701   7.842   8.711   1.085 -0.4037  2.2690  2.8138
  636MOL0     H87702   7.947   8.709   1.227 -0.9166  1.1884  0.0342
  636MOL0     H87703   8.016   8.540   0.983 -0.8888  0.2525 -0.3281
  636MOL0     H87704   8.096   8.552   1.138 -0.1246 -2.5327 -1.1933
  636MOL0     H87705   7.821   8.421   1.084  1.5415  1.4814 -1.9050
  636MOL0     H87706   7.982   8.352   1.098  0.0238  0.5075 -0.5861
  636MOL0     H87707   8.016   8.379   1.322 -0.6109 -1.7993 -0.8815
  636MOL0     H87708   7.880   8.495   1.344 -0.0305  1.6720 -1.2953
  636MOL0     H87709   7.847   8.211   1.260 -0.7016  0.3713 -0.8287
  636MOL0     H87710   7.723   8.315   1.267 -0.5179  1.1294  0.5150
  636MOL0     H87711   7.898   8.270   1.504  0.0553  1.7237  2.9588
  636MOL0     H87712   7.759   8.385   1.511  1.2671  1.0664 -1.7274
  636MOL0     H87713   7.618   8.183   1.416  0.4233 -0.9229 -0.7930
  636MOL0     H87714   7.639   8.181   1.585  0.7678 -2.3078  0.3806
  636MOL0     H87715   7.816   8.034   1.392 -0.1129 -1.3043  0.8942
  636MOL0     H87716   7.839   8.034   1.558  1.4660 -0.2260 -0.6049
  636MOL0     H87717   7.511   8.014   1.636 -0.1976  0.9228 -0.5543
  636MOL0     H87718   7.324   7.689   1.555  1.7041 -0.7393  0.0887
  636MOL0     H87719   7.287   7.853   1.582 -2.0368 -1.9592 -1.0370
  636MOL0     H87720   7.356   7.852   1.819  0.8716 -0.6859  1.2160
  636MOL0     H87721   7.258   7.704   1.791  0.4418 -1.2326  1.2745
  636MOL0     H87722   7.471   7.569   1.781 -3.4779 -0.5471  1.1270
  636MOL0     H87723   7.553   7.726   1.789  0.0768 -1.8894 -1.8111
  636MOL0     H87724   7.407   7.771   2.011 -1.1357 -1.2994 -0.6100
  636MOL0     H87725   7.380   7.597   1.993 -0.8589 -0.1786  0.4510
  636MOL0     H87726   7.822   7.595   2.067  4.0308  0.5429  5.0811
  636MOL0     H87727   8.061   7.686   2.012 -0.2233  3.7579 -0.2726
  636MOL0     H87728   8.028   7.604   2.172 -0.6724  0.7193  2.7201
  636MOL0     H87729   8.118   7.759   2.161 -0.1591 -0.5103  0.4838
  636MOL0     H87730   7.869   8.366   2.213 -0.7723 -4.6379 -0.8596
  636MOL0     H87731   8.040   8.568   2.234 -4.3450 -1.3655 -1.7235
  636MOL0     H87732   8.267   8.705   2.426  0.6004  0.1638  0.6376
  636MOL0     H87733   8.261   8.535   2.471  1.8910 -3.8311 -1.5075
  636MOL0     H87734   8.488   8.492   2.413  2.0113  0.9814 -2.1032
  636MOL0     H87735   8.503   8.653   2.352  1.6381  1.0289  2.5149
  636MOL0     H87736   8.597   8.643   2.559  1.4218 -3.5867  1.4507
  636MOL0     H87737   8.473   8.566   2.648 -0.6822 -0.2540 -0.1919
  636MOL0     H87738   8.320   8.768   2.604  0.9504 -2.3904  0.4616
  636MOL0     H87739   8.464   8.848   2.555 -0.0005 -2.0360 -1.9626
  636MOL0     H87740   8.383   8.869   2.795  1.1114  1.0148 -1.1433
  636MOL0     H87741   8.465   8.714   2.822  1.0251  1.1788  2.3418
  636MOL0     H87742   8.608   8.948   2.704 -0.2891 -0.7194 -1.1193
  636MOL0     H87743   8.681   8.800   2.774  2.1578  1.9624 -2.1290
  636MOL0     H87744   8.514   9.005   2.935 -1.0854 -0.3419  0.4009
  636MOL0     H87745   8.693   9.020   2.917  1.8617 -2.3003  0.5599
  636MOL0     H87746   8.547   8.800   3.074  1.8346 -2.8664  1.4452
  636MOL0     H87747   8.655   8.935   3.137 -1.1475  0.6864  0.1478
  636MOL0     H87748   8.354   8.307   2.308 -0.2547 -2.3362 -0.7902
  636MOL0     H87749   8.213   8.134   2.329 -0.7678  0.8622  2.9645
  636MOL0     H87750   7.741   8.059   2.166  2.6215  1.6147 -2.9573
  636MOL0     H87751   7.539   7.930   2.083 -0.4653 -2.2610 -2.4653
  636MOL0     H87752   8.173   8.991   1.036 -0.8237  1.1110  0.0095
  636MOL0     H87753   8.256   9.061   0.821  0.7453  0.0862  2.9655
  636MOL0     H87754   8.516   8.927   0.393  0.8689  1.8285  1.3384
  636MOL0     H87755   8.600   9.069   0.199 -0.0725 -0.5738  2.1973
  636MOL0     H87756   8.536   9.263  -0.107 -1.0759  0.0736  0.6979
  636MOL0     H87757   8.571   9.116  -0.027  1.2482  0.4507 -3.1994
  636MOL0     H87758   8.290   9.208  -0.099 -0.5137 -1.5173  2.5554
  636MOL0     H87759   8.348   9.040  -0.068 -0.4815  0.8215  0.8646
  636MOL0     H87760   8.399   9.212  -0.308 -1.1952  1.0615  1.2448
  636MOL0     H87761   8.490   9.064  -0.281  1.9518  3.6886 -1.3175
  636MOL0     H87762   8.267   8.936  -0.269  0.8258  1.3236  1.2613
  636MOL0     H87763   8.328   8.976  -0.428  0.0722 -0.2886  0.6704
  636MOL0     H87764   8.013   9.267  -0.396 -1.3709 -0.2848 -0.7616
  636MOL0     H87765   8.203   9.231   0.158 -2.0810 -3.6984 -1.2785
  636MOL0     H87766   8.018   9.135   0.261 -0.3350  0.9195 -0.5973
  636MOL0     H87767   8.056   8.996   0.356 -0.7040  1.1163 -0.1896
  636MOL0     H87768   8.045   9.154   0.434  0.6505 -0.0854  0.2319
  637MOL0     O87769   3.448   5.812   4.714  0.3922 -0.6261 -0.3434
  637MOL0     C87770   3.449   5.857   4.600  0.0197  0.4258  0.5901
  637MOL0     O87771   3.382   5.787   4.495 -0.2579  0.2630 -0.4377
  637MOL0     C87772   3.292   5.690   4.531 -0.6677  0.3250  0.2646
  637MOL0     C87773   3.328   5.572   4.605 -0.0955 -0.4812  0.2742
  637MOL0     C87774   3.229   5.480   4.647  0.6576  1.0318 -1.2579
  637MOL0     C87775   3.094   5.498   4.620  0.2128  0.5031 -0.3014
  637MOL0     O87776   3.009   5.410   4.678  0.0495 -0.7630  0.3371
  637MOL0     C87777   2.863   5.433   4.668 -0.3869  0.3288  0.1661
  637MOL0     C87778   2.784   5.347   4.764  0.3535  0.7541 -0.7005
  637MOL0     C87779   2.756   5.205   4.693 -0.0015  0.1584 -0.2814
  637MOL0     C87780   2.685   5.100   4.778 -0.2329  0.0955 -0.4127
  637MOL0     C87781   2.644   4.985   4.681 -0.2657 -1.2245 -0.1411
  637MOL0     C87782   2.759   4.920   4.600 -0.6432  0.9466 -0.8261
  637MOL0     C87783   2.733   4.755   4.587  0.0441 -0.4311  0.1487
  637MOL0     C87784   2.828   4.673   4.511 -0.0932 -0.3200 -0.4730
  637MOL0     N87785   2.967   4.693   4.548  0.4815  0.5592 -0.0434
  637MOL0     C87786   3.019   4.683   4.681  0.1832 -0.1345  0.7943
  637MOL0     C87787   3.153   4.675   4.658  0.7053 -0.0890  0.6779
  637MOL0     C87788   3.255   4.677   4.768 -0.5365 -0.2325 -0.3466
  637MOL0     C87789   3.260   4.555   4.854  0.9732  0.7535 -0.7156
  637MOL0     C87790   3.127   4.509   4.930  0.4157 -0.2136  1.8038
  637MOL0     C87791   3.149   4.416   5.051  0.5483  0.1319  0.4272
  637MOL0     O87792   3.180   4.277   5.020  0.3694 -0.5812 -0.2949
  637MOL0     C87793   3.096   4.190   4.951  0.4160 -0.1811  0.6319
  637MOL0     C87794   2.963   4.211   4.897  0.4094  1.1032 -0.3926
  637MOL0     C87795   2.883   4.109   4.829  0.0701 -0.3551  0.0228
  637MOL0     C87796   2.730   4.143   4.800 -0.1512 -0.2184  0.1736
  637MOL0     C87797   2.941   3.980   4.800 -0.7629 -0.2086  1.2608
  637MOL0     C87798   2.869   3.870   4.736 -0.3975  1.8730  0.1402
  637MOL0     O87799   2.941   3.755   4.751  0.5776 -0.0004  0.1927
  637MOL0     C87800   2.915   3.639   4.673 -0.2229  0.7882 -0.5400
  637MOL0     C87801   2.826   3.624   4.563  0.6149 -0.1999 -0.9754
  637MOL0     C87802   2.800   3.505   4.505  0.6169 -0.2789 -0.0796
  637MOL0     C87803   2.856   3.386   4.553  1.2067 -0.1096  0.9678
  637MOL0     O87804   2.834   3.269   4.487 -0.1239  0.2499 -0.8530
  637MOL0     C87805   2.721   3.240   4.405  0.3578  0.6044 -0.1918
  637MOL0     C87806   2.697   3.094   4.397 -0.8012  0.0264 -0.6431
  637MOL0     C87807   2.808   3.023   4.327  0.5452  0.1079  0.4440
  637MOL0     C87808   2.761   2.905   4.234 -0.6494 -0.5839  0.0792
  637MOL0     C87809   2.890   2.834   4.174 -0.1267 -0.7098  0.7135
  637MOL0     C87810   2.857   2.734   4.065  0.4680  0.2825 -0.8586
  637MOL0     C87811   2.977   2.706   3.975  0.4592 -0.0201 -0.6020
  637MOL0     C87812   2.921   2.678   3.822 -0.0716  0.4274 -0.5023
  637MOL0    Cl87813   3.063   2.616   3.735  0.4675  0.5608 -0.4084
  637MOL0     C87814   2.937   3.396   4.662 -0.6668 -0.3358 -0.8015
  637MOL0     C87815   2.973   3.520   4.724 -0.1111  0.1389  0.7724
  637MOL0     O87816   2.757   3.878   4.681 -0.4804 -0.2080  0.4913
  637MOL0     C87817   3.083   3.970   4.830  0.2879  0.1526  0.3381
  637MOL0     C87818   3.151   4.063   4.920  0.8959  0.2652  0.4836
  637MOL0     N87819   3.176   4.683   4.515 -0.4172 -0.2647  0.1302
  637MOL0     N87820   3.067   4.697   4.457  0.3042  0.2302 -0.5435
  637MOL0     C87821   3.056   5.614   4.555 -0.0048  1.8177 -0.3751
  637MOL0     C87822   3.152   5.712   4.507 -0.7993 -0.4351  0.1618
  637MOL0     C87823   3.514   5.987   4.567 -0.2902  0.0900 -0.4826
  637MOL0     C87824   3.468   6.065   4.448 -0.3027  0.8405 -0.2893
  637MOL0     C87825   3.515   6.182   4.425  0.4977 -0.2529 -1.1477
  637MOL0     C87826   3.603   6.252   4.505  0.6265 -0.1196 -0.3612
  637MOL0     O87827   3.639   6.385   4.488  0.3959  0.0932  0.2106
  637MOL0     C87828   3.597   6.469   4.372  0.5082  0.8553 -0.5762
  637MOL0     C87829   3.667   6.424   4.240 -0.5232  0.0781  0.0640
  637MOL0     C87830   3.812   6.488   4.219 -0.1078  0.0952 -0.0035
  637MOL0     C87831   3.916   6.428   4.318 -0.5038  0.6798  1.0880
  637MOL0     C87832   4.045   6.501   4.322  0.0669 -1.2335  0.4363
  637MOL0     C87833   4.150   6.560   4.327  0.8318  0.8713 -0.1793
  637MOL0     C87834   3.645   6.189   4.612 -0.2019 -0.0839  0.0791
  637MOL0     C87835   3.616   6.052   4.650  0.3511 -0.7016  0.4434
  637MOL0     C87836   3.680   5.989   4.772  0.7043  0.5292  0.0907
  637MOL0     H87837   3.427   5.548   4.641  0.3091 -2.8364 -2.1277
  637MOL0     H87838   3.260   5.397   4.709 -1.0314  1.8012  0.7565
  637MOL0     H87839   2.832   5.406   4.566  1.6845  0.4348 -0.5467
  637MOL0     H87840   2.852   5.541   4.683  1.6157  0.6218 -0.0782
  637MOL0     H87841   2.840   5.338   4.858 -2.7925 -1.0042  1.1909
  637MOL0     H87842   2.696   5.405   4.795  1.8559  1.2241  3.3064
  637MOL0     H87843   2.710   5.213   4.594  0.7874 -1.3116 -0.7885
  637MOL0     H87844   2.853   5.159   4.672 -2.2403 -4.6134 -1.4007
  637MOL0     H87845   2.740   5.059   4.862 -1.8296  0.9852  1.1249
  637MOL0     H87846   2.597   5.142   4.827 -1.4397 -1.9998 -0.6531
  637MOL0     H87847   2.586   5.038   4.605 -1.6209 -1.3695  0.7501
  637MOL0     H87848   2.570   4.911   4.712 -1.6931  0.5879  1.0550
  637MOL0     H87849   2.792   4.972   4.509  1.2634  2.0687  0.4283
  637MOL0     H87850   2.853   4.933   4.655  0.2919  1.2597 -2.4161
  637MOL0     H87851   2.638   4.731   4.537  0.8831 -2.9620 -0.3752
  637MOL0     H87852   2.721   4.717   4.689 -3.4909 -1.5410 -0.5596
  637MOL0     H87853   2.793   4.570   4.524 -1.0322  0.0066 -0.3490
  637MOL0     H87854   2.808   4.700   4.407 -1.6996 -0.8761 -0.3326
  637MOL0     H87855   2.974   4.709   4.776  1.0774  1.7765  0.7400
  637MOL0     H87856   3.250   4.767   4.831  1.0209  0.6172 -1.3466
  637MOL0     H87857   3.354   4.699   4.727 -0.0869 -0.0153  0.8178
  637MOL0     H87858   3.293   4.472   4.791 -0.9446 -2.6669  2.3710
  637MOL0     H87859   3.340   4.576   4.926  0.5258  0.9076 -0.2532
  637MOL0     H87860   3.071   4.596   4.965 -1.6982 -1.9121  2.8619
  637MOL0     H87861   3.060   4.469   4.853 -2.1813 -0.6308  4.1411
  637MOL0     H87862   3.232   4.448   5.115 -0.0724  0.4108  1.0921
  637MOL0     H87863   3.061   4.425   5.114 -2.8802  1.1883 -4.0048
  637MOL0     H87864   2.914   4.308   4.903 -3.6530 -0.7451 -0.8320
  637MOL0     H87865   2.658   4.073   4.842 -1.1518 -0.1193 -1.2942
  637MOL0     H87866   2.710   4.130   4.693 -0.6133 -0.7709  0.3209
  637MOL0     H87867   2.706   4.244   4.834  2.2015 -0.3085  2.3716
  637MOL0     H87868   2.791   3.713   4.511  1.5697  0.8343  0.1064
  637MOL0     H87869   2.735   3.503   4.418 -1.0902  2.2277  1.0566
  637MOL0     H87870   2.631   3.282   4.451 -0.8466 -2.3418  0.4048
  637MOL0     H87871   2.730   3.288   4.307  1.3921  2.5211  0.7875
  637MOL0     H87872   2.690   3.049   4.497 -1.1695 -0.8378 -1.0439
  637MOL0     H87873   2.600   3.081   4.348  0.0523 -0.6893 -2.1970
  637MOL0     H87874   2.879   2.988   4.402 -0.5014  2.3237  2.6099
  637MOL0     H87875   2.854   3.093   4.258 -2.1630 -0.0855 -1.7109
  637MOL0     H87876   2.685   2.938   4.162 -0.7650 -0.1690  0.3855
  637MOL0     H87877   2.722   2.823   4.294  2.3413 -2.2286 -0.0287
  637MOL0     H87878   2.941   2.916   4.122  1.9157 -2.2520  0.1568
  637MOL0     H87879   2.961   2.802   4.250  0.5519 -2.8547 -0.7326
  637MOL0     H87880   2.774   2.765   4.001  0.5548  2.0069 -0.1973
  637MOL0     H87881   2.826   2.636   4.101  1.8126  0.7953  1.9341
  637MOL0     H87882   3.044   2.631   4.017  0.4970 -0.5210 -1.5245
  637MOL0     H87883   3.036   2.797   3.974  2.4137 -1.0142  3.3411
  637MOL0     H87884   2.873   2.774   3.797 -0.9539  0.1820  0.1962
  637MOL0     H87885   2.839   2.607   3.831 -0.9001  1.4785  0.5370
  637MOL0     H87886   2.989   3.305   4.690  2.0854  0.3607 -3.1273
  637MOL0     H87887   3.045   3.530   4.804  1.5337  0.3582 -0.6687
  637MOL0     H87888   3.140   3.879   4.816 -2.3040 -1.5251 -0.0547
  637MOL0     H87889   3.248   4.038   4.962  2.1849  5.1892  1.0245
  637MOL0     H87890   2.951   5.634   4.534 -0.5544 -0.3214  0.1396
  637MOL0     H87891   3.125   5.796   4.444  0.5209 -0.8427 -0.9868
  637MOL0     H87892   3.396   6.017   4.382 -1.1804 -1.0338  1.8999
  637MOL0     H87893   3.463   6.233   4.344  2.4980  0.8112 -1.8180
  637MOL0     H87894   3.491   6.444   4.360  0.1770  1.2135  1.3218
  637MOL0     H87895   3.613   6.577   4.380  0.0866  0.8016  1.5981
  637MOL0     H87896   3.604   6.452   4.155  0.9269 -1.4246 -1.6021
  637MOL0     H87897   3.685   6.316   4.234  1.4110  0.1525  2.7743
  637MOL0     H87898   3.835   6.479   4.112 -0.2845  2.0501 -0.2491
  637MOL0     H87899   3.814   6.594   4.248 -1.4723 -0.2741  1.6029
  637MOL0     H87900   3.937   6.321   4.304 -0.8537  0.6921  0.4524
  637MOL0     H87901   3.876   6.424   4.420 -2.0331  0.5994  0.5156
  637MOL0     H87902   4.246   6.609   4.324  0.1039  2.3265 -2.4775
  637MOL0     H87903   3.709   6.251   4.674  0.9808 -0.9958 -0.1937
  637MOL0     H87904   3.605   5.962   4.847  1.4979 -0.7002  0.4753
  637MOL0     H87905   3.738   5.902   4.739  1.4147  0.4474  1.4699
  637MOL0     H87906   3.742   6.066   4.820 -0.1626  1.3138 -0.0137
  638MOL0     O87907   7.863  10.781  11.017 -0.2862  0.3001  0.3624
  638MOL0     C87908   7.800  10.880  11.058  0.9208  1.1152  0.0977
  638MOL0     O87909   7.811  11.004  11.008 -0.5964 -0.3865  0.0882
  638MOL0     C87910   7.930  11.015  10.935  0.9718 -0.0830  0.5864
  638MOL0     C87911   7.917  11.025  10.797  0.6431 -0.0130  0.4137
  638MOL0     C87912   8.027  11.056  10.713 -0.8069 -0.3167 -0.4497
  638MOL0     C87913   8.155  11.062  10.763  0.4100 -0.4870 -0.1359
  638MOL0     O87914   8.258  11.079  10.676  0.2504 -0.3218  0.7170
  638MOL0     C87915   8.385  11.025  10.710  0.3731  0.2604 -0.1548
  638MOL0     C87916   8.496  11.076  10.619  0.6120  0.1948 -0.4778
  638MOL0     C87917   8.638  11.007  10.668  1.9594 -1.1986 -0.1843
  638MOL0     C87918   8.635  10.869  10.601 -0.1393  0.3974 -0.5231
  638MOL0     C87919   8.770  10.793  10.609  1.1402  0.7048  0.8077
  638MOL0     C87920   8.791  10.699  10.727 -0.1706 -0.1605 -0.2563
  638MOL0     C87921   8.703  10.572  10.712  0.4310 -0.4094  0.1875
  638MOL0     C87922   8.716  10.475  10.836 -0.1006 -0.1588  0.8101
  638MOL0     N87923   8.847  10.412  10.819  0.3426  0.1863  0.6472
  638MOL0     C87924   8.882  10.311  10.731 -0.5804 -0.2547  0.5769
  638MOL0     C87925   9.011  10.280  10.748  0.3687 -0.4934  0.2848
  638MOL0     C87926   9.099  10.200  10.658 -0.6523  0.3312  0.4878
  638MOL0     C87927   9.042  10.064  10.634 -0.2103 -0.8965 -0.2244
  638MOL0     C87928   9.147   9.983  10.563  0.0208  0.3909  0.0554
  638MOL0     C87929   9.108   9.837  10.546 -0.1914 -1.0305 -0.1152
  638MOL0     O87930   9.164   9.766  10.648  0.1706  0.7680  0.2660
  638MOL0     C87931   9.078   9.664  10.698 -0.2761  0.3117  1.2153
  638MOL0     C87932   9.141   9.541  10.721 -0.2981 -0.3091 -0.4361
  638MOL0     C87933   9.077   9.419  10.742  0.6684  0.6810 -0.8562
  638MOL0     C87934   9.154   9.285  10.742  0.4462  0.1223  0.1215
  638MOL0     C87935   8.938   9.419  10.755  0.3215 -0.5442  0.3145
  638MOL0     C87936   8.855   9.296  10.797  0.4596 -0.2771  0.2147
  638MOL0     O87937   8.921   9.187  10.842 -0.5012  0.4677  0.0587
  638MOL0     C87938   8.859   9.072  10.891 -1.2223 -1.0271 -0.7125
  638MOL0     C87939   8.724   9.037  10.879 -0.0195 -0.2647 -0.1781
  638MOL0     C87940   8.682   8.929  10.951  0.5901  1.5844  0.4251
  638MOL0     C87941   8.769   8.846  11.024  0.1477 -0.2635  0.0050
  638MOL0     O87942   8.709   8.745  11.104 -0.3875 -0.0112 -0.2176
  638MOL0     C87943   8.755   8.609  11.077  0.0683 -0.1406  0.4162
  638MOL0     C87944   8.623   8.526  11.050  0.2523  0.9213  0.8215
  638MOL0     C87945   8.631   8.378  11.057  0.0429  0.0688 -0.1681
  638MOL0     C87946   8.723   8.331  10.943  0.3084 -0.3929 -0.1598
  638MOL0     C87947   8.767   8.186  10.956  0.5379 -0.4785 -0.0110
  638MOL0     C87948   8.634   8.107  10.918  0.1893 -0.7215  0.3084
  638MOL0     C87949   8.666   7.965  10.865  0.3682 -0.9554  0.8684
  638MOL0     C87950   8.750   7.964  10.730  0.1202 -1.0766 -0.0139
  638MOL0    Cl87951   8.746   7.800  10.654  0.0261  0.3245  0.3059
  638MOL0     C87952   8.903   8.860  11.012  0.0107  0.1924  0.6081
  638MOL0     C87953   8.946   8.981  10.952  0.5356  0.4657  0.0833
  638MOL0     O87954   8.735   9.319  10.813 -0.3217  0.1877 -0.6635
  638MOL0     C87955   8.866   9.536  10.729  0.4046  0.2890  0.1910
  638MOL0     C87956   8.941   9.658  10.700  0.7458 -0.0699 -0.3229
  638MOL0     N87957   9.049  10.359  10.852  0.4018 -0.2505  0.6497
  638MOL0     N87958   8.957  10.436  10.895 -0.2561  0.0171  0.1887
  638MOL0     C87959   8.164  11.049  10.904 -0.2501  0.6810  1.2762
  638MOL0     C87960   8.049  11.028  10.986 -0.4834  0.3667  0.0187
  638MOL0     C87961   7.687  10.846  11.149 -0.3131 -0.3714 -0.7491
  638MOL0     C87962   7.632  10.718  11.140 -0.8246  0.3064  0.4469
  638MOL0     C87963   7.526  10.679  11.228 -0.5832  1.2696  0.7058
  638MOL0     C87964   7.469  10.767  11.314  1.2362  0.5397  0.2729
  638MOL0     O87965   7.352  10.744  11.378 -1.1314 -0.3807  0.1709
  638MOL0     C87966   7.365  10.690  11.504 -0.4646 -0.4097 -0.7066
  638MOL0     C87967   7.294  10.793  11.595 -0.1991  0.0502 -0.0333
  638MOL0     C87968   7.247  10.724  11.724  0.8406 -0.4665 -0.0210
  638MOL0     C87969   7.362  10.697  11.819  0.2409  0.7775 -0.0676
  638MOL0     C87970   7.314  10.640  11.948  0.7396 -0.0108 -0.0138
  638MOL0     C87971   7.254  10.608  12.057 -0.7756 -0.5250  0.0375
  638MOL0     C87972   7.523  10.895  11.325 -0.3123 -0.2789  0.0724
  638MOL0     C87973   7.636  10.936  11.249  0.2940  0.0425 -0.0417
  638MOL0     C87974   7.670  11.081  11.275 -0.7470 -0.5258  0.2678
  638MOL0     H87975   7.818  11.015  10.752 -0.6626  1.7144  2.6628
  638MOL0     H87976   7.998  11.065  10.608 -1.0575  0.0235 -0.3514
  638MOL0     H87977   8.373  10.917  10.698  2.8054 -0.3127  1.7644
  638MOL0     H87978   8.416  11.033  10.815 -1.8245 -1.2368  0.7040
  638MOL0     H87979   8.468  11.048  10.517 -1.9524  0.8015 -0.0275
  638MOL0     H87980   8.508  11.185  10.625  1.5314  0.1185 -0.7960
  638MOL0     H87981   8.725  11.060  10.630  1.6249  2.0232  3.0823
  638MOL0     H87982   8.641  11.013  10.777 -0.1863 -0.6313 -0.0991
  638MOL0     H87983   8.557  10.805  10.643  1.4061 -1.6441 -0.6550
  638MOL0     H87984   8.618  10.888  10.495 -2.4348 -1.7658 -0.6215
  638MOL0     H87985   8.852  10.865  10.611  0.1606  1.8999 -0.5921
  638MOL0     H87986   8.786  10.734  10.518  1.3655  0.4844  0.9880
  638MOL0     H87987   8.893  10.661  10.725 -1.4925 -4.2907  0.4254
  638MOL0     H87988   8.777  10.750  10.823  1.0222 -0.8347  0.2960
  638MOL0     H87989   8.734  10.532  10.615  2.0314 -1.1932  0.9709
  638MOL0     H87990   8.596  10.594  10.708  0.3062 -0.8244  0.9566
  638MOL0     H87991   8.702  10.532  10.928  1.4016  1.8862 -0.1529
  638MOL0     H87992   8.637  10.399  10.840 -2.2436  1.9824  2.6994
  638MOL0     H87993   8.830  10.268  10.646 -0.8391  0.7863  0.1885
  638MOL0     H87994   9.200  10.196  10.701  0.6273  0.5257 -2.3067
  638MOL0     H87995   9.103  10.247  10.559  1.2210 -1.3738 -0.3232
  638MOL0     H87996   9.036  10.021  10.734  1.6195  1.4166  0.9738
  638MOL0     H87997   8.947  10.066  10.578 -0.1185  0.2761 -0.3626
  638MOL0     H87998   9.163  10.023  10.462  0.8976  3.1227  1.1860
  638MOL0     H87999   9.240   9.991  10.620 -0.4818 -0.2301  0.9766
  638MOL0     H88000   9.001   9.824  10.528 -0.5445 -0.0716  1.1473
  638MOL0     H88001   9.157   9.805  10.453 -2.9625 -0.5232 -1.8603
  638MOL0     H88002   9.249   9.556  10.719 -0.6305  2.9030  0.1610
  638MOL0     H88003   9.113   9.207  10.677  1.7830 -1.1820  0.7946
  638MOL0     H88004   9.161   9.251  10.846 -0.4354  1.8551  0.7781
  638MOL0     H88005   9.259   9.294  10.712  0.2944 -1.3684 -1.0291
  638MOL0     H88006   8.644   9.091  10.830 -1.5720 -1.9152  0.4372
  638MOL0     H88007   8.577   8.901  10.959  0.6788  0.9349 -0.5215
  638MOL0     H88008   8.825   8.591  10.995 -2.3301  1.9070 -2.2905
  638MOL0     H88009   8.794   8.560  11.167 -0.8630 -0.4581  0.6640
  638MOL0     H88010   8.540   8.553  11.117 -2.8530  0.1873 -2.3887
  638MOL0     H88011   8.581   8.559  10.954 -2.0674 -1.5005  0.8928
  638MOL0     H88012   8.528   8.344  11.043  0.0984  0.1221 -0.6873
  638MOL0     H88013   8.659   8.345  11.158 -1.0285 -2.4928 -0.6305
  638MOL0     H88014   8.812   8.395  10.947 -0.7275  1.0942 -0.0239
  638MOL0     H88015   8.670   8.365  10.853 -0.5564 -1.6705 -0.1485
  638MOL0     H88016   8.844   8.168  10.881 -1.1286 -0.4321 -1.8143
  638MOL0     H88017   8.792   8.165  11.060 -2.1016  0.6737  0.9424
  638MOL0     H88018   8.577   8.163  10.844  1.4438 -0.7408 -0.7116
  638MOL0     H88019   8.566   8.101  11.003 -2.0055  3.9594 -0.8164
  638MOL0     H88020   8.564   7.939  10.833  0.2963  0.6248 -0.3694
  638MOL0     H88021   8.708   7.905  10.945 -1.8084 -1.3291  1.8119
  638MOL0     H88022   8.854   7.995  10.744  0.0360 -0.7354 -0.1340
  638MOL0     H88023   8.721   8.037  10.654  2.3793  1.3546  1.2995
  638MOL0     H88024   8.983   8.793  11.045 -0.2856 -2.5681 -3.5403
  638MOL0     H88025   9.052   9.002  10.953  0.6453  0.1866 -1.7059
  638MOL0     H88026   8.758   9.546  10.738  0.1918 -2.2470  1.0819
  638MOL0     H88027   8.876   9.745  10.690 -0.5079 -0.0387  5.0471
  638MOL0     H88028   8.261  11.065  10.951 -0.4360 -0.0907  1.9525
  638MOL0     H88029   8.078  11.022  11.091 -1.1142 -4.3546  0.1460
  638MOL0     H88030   7.654  10.640  11.068 -2.3798 -0.4427  0.7471
  638MOL0     H88031   7.477  10.582  11.221  3.7330 -1.2017  1.0524
  638MOL0     H88032   7.325  10.590  11.521  0.3045 -0.3048  2.2474
  638MOL0     H88033   7.467  10.686  11.544 -0.9877 -0.4135  0.6976
  638MOL0     H88034   7.204  10.826  11.542  0.6419 -0.6713 -2.0292
  638MOL0     H88035   7.353  10.883  11.615  1.0811 -0.9573  0.8880
  638MOL0     H88036   7.178  10.799  11.764 -1.9310 -2.3173 -1.0405
  638MOL0     H88037   7.181  10.641  11.698  1.0914 -0.6579 -0.0519
  638MOL0     H88038   7.425  10.782  11.848 -0.9573  0.7473  3.0676
  638MOL0     H88039   7.415  10.611  11.777 -2.0321 -1.6296  1.6737
  638MOL0     H88040   7.210  10.591  12.153  3.3694 -2.8820  1.7965
  638MOL0     H88041   7.479  10.950  11.408 -0.7364 -0.7433  0.1647
  638MOL0     H88042   7.667  11.107  11.382 -0.4969  1.3952 -0.1533
  638MOL0     H88043   7.771  11.102  11.238 -1.6348  1.8390 -1.0448
  638MOL0     H88044   7.599  11.147  11.225 -0.8036  1.3045  2.5560
  639MOL0     O88045   1.273   5.296   8.037 -0.3817  0.3494 -1.1186
  639MOL0     C88046   1.349   5.212   8.071 -1.3657 -0.3371  0.4803
  639MOL0     O88047   1.346   5.128   8.179  0.4480 -0.0448  0.5605
  639MOL0     C88048   1.230   5.109   8.251  0.3314 -1.2502 -0.2294
  639MOL0     C88049   1.202   4.986   8.300 -0.8703  0.3635  0.2045
  639MOL0     C88050   1.101   4.953   8.385  0.6108 -1.6024 -1.3289
  639MOL0     C88051   1.034   5.054   8.454  0.6322 -0.4337 -0.3241
  639MOL0     O88052   0.959   5.036   8.569  0.4002 -0.5195  0.0504
  639MOL0     C88053   0.926   4.898   8.614  0.7527 -0.4171 -0.4642
  639MOL0     C88054   0.817   4.912   8.722  0.1393  0.4106  0.2620
  639MOL0     C88055   0.855   4.989   8.850  0.2725 -0.6906 -1.1281
  639MOL0     C88056   0.728   5.015   8.933  0.5297 -0.5380  0.0035
  639MOL0     C88057   0.747   5.147   9.009  0.7942 -0.0365  0.7367
  639MOL0     C88058   0.846   5.132   9.123 -0.5211  0.6906  0.6641
  639MOL0     C88059   0.877   5.260   9.209  0.6025  0.3166  0.4394
  639MOL0     C88060   0.984   5.357   9.159 -0.7369 -0.4608 -0.4686
  639MOL0     N88061   1.113   5.324   9.217 -0.2500  0.1956 -0.4385
  639MOL0     C88062   1.196   5.226   9.170  0.2116  0.3177  0.2393
  639MOL0     C88063   1.313   5.242   9.235 -0.4709  0.3820 -0.4392
  639MOL0     C88064   1.434   5.173   9.201 -0.5543 -0.3849  0.4839
  639MOL0     C88065   1.515   5.126   9.328 -0.1415 -0.9063  0.7123
  639MOL0     C88066   1.673   5.127   9.305  1.2652  0.1828  0.3461
  639MOL0     C88067   1.716   5.033   9.198 -0.5306  0.6846  0.5487
  639MOL0     O88068   1.848   5.060   9.152 -0.5598 -0.2858  0.3081
  639MOL0     C88069   1.872   5.036   9.021 -0.3438 -0.8086  0.1993
  639MOL0     C88070   1.966   5.121   8.959  0.7431 -0.5072  0.3440
  639MOL0     C88071   2.006   5.114   8.824 -0.4971 -0.2688 -0.9583
  639MOL0     C88072   2.094   5.225   8.778 -0.1356  0.0271 -0.5378
  639MOL0     C88073   1.952   5.010   8.749 -0.7460  0.4384 -1.3892
  639MOL0     C88074   2.001   4.973   8.610  0.2422  0.1809  0.1907
  639MOL0     O88075   2.132   4.996   8.579  0.1496 -0.4313 -0.2516
  639MOL0     C88076   2.174   4.951   8.454 -0.1913  0.5483 -0.1665
  639MOL0     C88077   2.104   4.977   8.334 -1.0020  0.3380 -0.0194
  639MOL0     C88078   2.147   4.912   8.213  0.1124  0.4075 -0.2341
  639MOL0     C88079   2.255   4.822   8.222 -0.0195 -0.6323 -0.0856
  639MOL0     O88080   2.273   4.749   8.105  0.1638 -0.5776  0.3379
  639MOL0     C88081   2.407   4.734   8.036  0.5609 -0.5222 -0.2087
  639MOL0     C88082   2.435   4.862   7.947 -0.2718  0.7708 -0.3132
  639MOL0     C88083   2.552   4.945   8.002 -0.2587  0.7258 -0.7592
  639MOL0     C88084   2.558   5.094   7.948 -1.0588  0.6033  0.8652
  639MOL0     C88085   2.519   5.201   8.040 -0.3812  0.0148 -0.4615
  639MOL0     C88086   2.374   5.193   8.100 -0.5224  0.3082 -0.1684
  639MOL0     C88087   2.352   5.312   8.195 -0.0265 -0.5559 -0.4094
  639MOL0     C88088   2.409   5.301   8.331 -0.0972  1.2798 -0.1261
  639MOL0    Cl88089   2.271   5.271   8.449  0.2410 -0.2977  0.0873
  639MOL0     C88090   2.331   4.803   8.333 -0.8837 -0.4259 -0.3288
  639MOL0     C88091   2.292   4.876   8.451 -0.5852  0.2012 -0.5963
  639MOL0     O88092   1.915   4.922   8.543 -0.1041  0.3565 -0.4501
  639MOL0     C88093   1.860   4.920   8.815  0.3978 -0.4165 -0.0634
  639MOL0     C88094   1.822   4.930   8.950 -0.3940 -0.0445 -0.0013
  639MOL0     N88095   1.295   5.337   9.332 -0.1916  0.3004  0.9071
  639MOL0     N88096   1.182   5.391   9.318  0.0386 -0.0225 -0.3700
  639MOL0     C88097   1.058   5.191   8.415 -0.0756 -0.2963  0.5421
  639MOL0     C88098   1.147   5.215   8.310 -0.1855  0.1839  0.4881
  639MOL0     C88099   1.472   5.208   7.988  0.2327 -0.8163 -0.2071
  639MOL0     C88100   1.565   5.110   8.020 -0.1625  0.2285 -0.5910
  639MOL0     C88101   1.693   5.098   7.959 -0.3108  0.5530 -0.3641
  639MOL0     C88102   1.735   5.206   7.881 -0.3138  0.4169  0.6288
  639MOL0     O88103   1.863   5.202   7.824  0.1614  0.3875 -0.1728
  639MOL0     C88104   1.922   5.322   7.786  0.0882  0.2939 -0.8495
  639MOL0     C88105   2.072   5.315   7.813 -0.1629  0.1041  1.2071
  639MOL0     C88106   2.128   5.209   7.724  1.2052 -0.4415 -0.0151
  639MOL0     C88107   2.137   5.241   7.584 -0.5480 -0.1890  0.5773
  639MOL0     C88108   2.119   5.117   7.512 -0.5467 -0.9714  0.2760
  639MOL0     C88109   2.128   5.008   7.456  0.1817 -0.6529  0.5006
  639MOL0     C88110   1.635   5.302   7.844  1.0164 -0.6546 -0.4195
  639MOL0     C88111   1.510   5.310   7.901  0.5490 -0.7798  0.4195
  639MOL0     C88112   1.429   5.440   7.869 -0.2553  0.6348  0.1587
  639MOL0     H88113   1.276   4.915   8.267  0.0662  1.4019  0.0164
  639MOL0     H88114   1.096   4.850   8.416 -3.9738 -1.7077 -1.7991
  639MOL0     H88115   1.022   4.860   8.650  2.3737  2.2377 -1.6691
  639MOL0     H88116   0.886   4.837   8.532 -1.8207 -2.6545  2.2320
  639MOL0     H88117   0.733   4.972   8.684 -2.3705 -0.3177  4.0157
  639MOL0     H88118   0.775   4.812   8.736 -2.3652  1.2506 -0.7056
  639MOL0     H88119   0.929   4.943   8.916  1.2916 -0.1019 -1.8450
  639MOL0     H88120   0.889   5.087   8.816  0.7994 -0.2609  0.5704
  639MOL0     H88121   0.643   5.007   8.866 -0.2014 -0.3509  0.8837
  639MOL0     H88122   0.720   4.935   9.007  2.4485 -0.8272 -0.0522
  639MOL0     H88123   0.648   5.170   9.048  1.4604 -1.6689  3.6255
  639MOL0     H88124   0.771   5.219   8.930 -1.7228  0.1591  0.0642
  639MOL0     H88125   0.793   5.059   9.184 -4.7058  2.8425 -0.0499
  639MOL0     H88126   0.943   5.105   9.080 -0.1527 -1.2196  2.5196
  639MOL0     H88127   0.914   5.224   9.306 -0.6237  1.1310  1.2268
  639MOL0     H88128   0.786   5.315   9.230  0.1132 -0.5587  0.6797
  639MOL0     H88129   0.988   5.359   9.050  1.9710  0.2338 -0.4239
  639MOL0     H88130   0.966   5.457   9.201  2.3717  0.0388 -0.1374
  639MOL0     H88131   1.168   5.160   9.089  1.5204  0.1944 -0.1206
  639MOL0     H88132   1.486   5.253   9.146 -1.4690  0.7667  1.2430
  639MOL0     H88133   1.420   5.086   9.136 -3.2248 -1.1010  1.8892
  639MOL0     H88134   1.485   5.188   9.413  0.9395 -1.6329  1.6618
  639MOL0     H88135   1.491   5.023   9.353 -1.6003 -0.4240  1.4290
  639MOL0     H88136   1.695   5.228   9.270  1.8160 -0.3121 -0.7801
  639MOL0     H88137   1.735   5.101   9.392  0.2481 -0.0615  1.0188
  639MOL0     H88138   1.717   4.928   9.227  0.5437 -0.5322 -3.3261
  639MOL0     H88139   1.663   5.038   9.103 -1.0115 -3.4522  0.4207
  639MOL0     H88140   1.992   5.202   9.027  0.5004  2.2964 -2.6086
  639MOL0     H88141   2.041   5.280   8.700 -0.3778 -1.1388 -1.2157
  639MOL0     H88142   2.178   5.183   8.722 -0.6584  1.2553 -2.3228
  639MOL0     H88143   2.120   5.303   8.850 -2.7387  1.6916 -1.2780
  639MOL0     H88144   2.034   5.059   8.343 -1.4766 -0.0352 -0.3073
  639MOL0     H88145   2.110   4.934   8.113 -1.5286  0.8647  0.4421
  639MOL0     H88146   2.488   4.720   8.108 -0.9928 -0.2521  1.7053
  639MOL0     H88147   2.393   4.648   7.970 -0.1810  1.2206 -2.4470
  639MOL0     H88148   2.438   4.832   7.842  0.9467 -1.3884  0.2800
  639MOL0     H88149   2.352   4.931   7.965  0.3195  1.5798 -0.6363
  639MOL0     H88150   2.639   4.884   7.977 -0.9734 -0.5146 -0.2691
  639MOL0     H88151   2.545   4.940   8.111 -1.1113 -1.0879 -0.8732
  639MOL0     H88152   2.509   5.101   7.851  1.1070  0.0544 -0.3511
  639MOL0     H88153   2.665   5.113   7.935 -0.8605 -1.7884 -2.0615
  639MOL0     H88154   2.584   5.206   8.128 -3.6906 -0.9805  2.2396
  639MOL0     H88155   2.527   5.297   7.989  0.6865  0.7769  1.0692
  639MOL0     H88156   2.352   5.097   8.147  0.2125  1.1987  2.1521
  639MOL0     H88157   2.303   5.192   8.017 -1.3436 -2.3616  0.4805
  639MOL0     H88158   2.245   5.322   8.218 -0.1787 -1.1429 -0.8363
  639MOL0     H88159   2.373   5.413   8.158 -0.8319  0.0608  0.7559
  639MOL0     H88160   2.455   5.398   8.355  1.1012  0.5305  0.6613
  639MOL0     H88161   2.485   5.223   8.338  0.4446  1.8860  1.2120
  639MOL0     H88162   2.408   4.727   8.339  0.6686  1.1023  0.2564
  639MOL0     H88163   2.329   4.861   8.552 -1.6824  2.5701  0.2178
  639MOL0     H88164   1.831   4.831   8.758  1.8830 -3.4276  3.4656
  639MOL0     H88165   1.775   4.839   8.986  2.3512 -0.1881  3.9044
  639MOL0     H88166   1.025   5.269   8.483 -4.2793  0.6931 -2.2329
  639MOL0     H88167   1.157   5.319   8.283 -1.1100  0.1073 -0.2071
  639MOL0     H88168   1.522   5.037   8.089 -1.2561  2.2578  0.9650
  639MOL0     H88169   1.771   5.034   8.001 -2.6243 -2.9790 -0.9803
  639MOL0     H88170   1.902   5.353   7.682 -0.6238 -0.1857 -0.8626
  639MOL0     H88171   1.887   5.394   7.861  3.2560 -0.8732  1.9368
  639MOL0     H88172   2.094   5.277   7.913  2.4069 -0.3023  0.5675
  639MOL0     H88173   2.125   5.409   7.793  4.0214 -1.7802  2.2170
  639MOL0     H88174   2.228   5.182   7.758  2.4347  2.2117 -1.2343
  639MOL0     H88175   2.072   5.116   7.740 -1.7530  0.6246 -2.8896
  639MOL0     H88176   2.227   5.299   7.563 -0.7727  0.5483  1.5485
  639MOL0     H88177   2.050   5.302   7.558  0.1172  0.1594 -0.9517
  639MOL0     H88178   2.139   4.909   7.417 -0.3359 -1.3306  1.9851
  639MOL0     H88179   1.662   5.381   7.774 -4.5060  1.7083 -0.3878
  639MOL0     H88180   1.478   5.489   7.784  5.4715 -2.1906  1.3790
  639MOL0     H88181   1.330   5.420   7.826 -1.6769  2.3167  2.4572
  639MOL0     H88182   1.425   5.496   7.963 -0.1600 -1.1859  1.2948
  640MOL0     O88183  11.220   1.826   2.208 -0.1856  0.8965 -0.0174
  640MOL0     C88184  11.151   1.747   2.153  0.0294  0.4962  0.8805
  640MOL0     O88185  11.194   1.649   2.069 -0.2320 -0.0970 -0.1363
  640MOL0     C88186  11.321   1.649   2.034 -0.0186 -0.1776 -0.6352
  640MOL0     C88187  11.355   1.710   1.913  0.7522  0.5228 -0.0602
  640MOL0     C88188  11.491   1.731   1.883  0.5721  0.0121  0.3087
  640MOL0     C88189  11.589   1.702   1.979  0.0473  0.3167 -0.2774
  640MOL0     O88190  11.715   1.741   1.964  0.2231  0.4131 -0.1140
  640MOL0     C88191  11.823   1.648   1.993  0.4204  0.0036 -1.0200
  640MOL0     C88192  11.910   1.663   1.872 -0.1294  0.4352 -0.5438
  640MOL0     C88193  11.960   1.811   1.842  0.7374 -0.0265 -0.3017
  640MOL0     C88194  11.929   1.858   1.710 -0.4332 -0.2953  1.0744
  640MOL0     C88195  12.010   1.976   1.656  0.7674 -0.0222 -1.0098
  640MOL0     C88196  11.926   2.099   1.668 -0.7786  1.1506 -0.1397
  640MOL0     C88197  12.007   2.215   1.597  0.0910 -0.4497  0.1544
  640MOL0     C88198  11.929   2.349   1.606 -0.1233 -0.5807  0.3720
  640MOL0     N88199  11.960   2.417   1.735  0.5459 -0.0281  0.7845
  640MOL0     C88200  12.076   2.467   1.796 -0.0336 -0.9976 -0.5182
  640MOL0     C88201  12.044   2.527   1.915  0.3140  0.0771  0.8971
  640MOL0     C88202  12.121   2.605   2.033  0.0360 -0.2476  0.7544
  640MOL0     C88203  12.130   2.511   2.152  0.0455 -0.5640  0.4497
  640MOL0     C88204  12.185   2.590   2.278  0.8663  0.1300  0.1086
  640MOL0     C88205  12.072   2.683   2.323 -0.5551 -1.0779 -0.0940
  640MOL0     O88206  12.112   2.734   2.451  0.8385 -0.1702  0.2831
  640MOL0     C88207  12.112   2.871   2.469  0.4175  0.0921 -0.2700
  640MOL0     C88208  12.017   2.953   2.409  0.2820 -0.3951 -0.1273
  640MOL0     C88209  12.001   3.085   2.440 -0.6824  0.0941  0.4458
  640MOL0     C88210  11.916   3.161   2.350 -0.4683 -1.0579 -0.1979
  640MOL0     C88211  12.079   3.144   2.538  0.3332  0.3546 -0.3468
  640MOL0     C88212  12.060   3.293   2.579  0.6675  0.5056 -0.2035
  640MOL0     O88213  12.097   3.330   2.703 -0.6876 -0.0210 -0.3438
  640MOL0     C88214  12.090   3.460   2.728 -0.1717  0.5769 -0.8468
  640MOL0     C88215  12.147   3.554   2.659 -0.2745 -0.4170 -0.4277
  640MOL0     C88216  12.131   3.690   2.699  0.9054 -0.2710  0.2837
  640MOL0     C88217  12.063   3.726   2.823 -0.7031  0.0171  0.0663
  640MOL0     O88218  12.048   3.860   2.861 -0.3382 -0.5641  0.6399
  640MOL0     C88219  12.011   3.895   2.996  0.0535 -0.2951 -0.9419
  640MOL0     C88220  12.035   4.038   2.996 -0.2199 -0.2609 -0.1724
  640MOL0     C88221  11.985   4.132   3.110  0.0742 -0.1820 -0.4370
  640MOL0     C88222  12.037   4.274   3.082  0.9630  0.9438 -0.1707
  640MOL0     C88223  11.946   4.391   3.092  0.8684  0.2786 -0.9333
  640MOL0     C88224  11.895   4.407   3.236  0.7314 -0.8545 -0.7236
  640MOL0     C88225  11.800   4.533   3.264  0.5119 -1.1900  0.5928
  640MOL0     C88226  11.748   4.520   3.405  0.3497  0.7483 -0.6335
  640MOL0    Cl88227  11.677   4.674   3.483  1.0967 -0.1075 -0.1665
  640MOL0     C88228  12.024   3.615   2.896  0.2464 -0.3888  0.5783
  640MOL0     C88229  12.033   3.493   2.852  0.3532  1.0902 -0.4821
  640MOL0     O88230  11.986   3.362   2.509 -0.5593 -0.4087  0.3192
  640MOL0     C88231  12.168   3.062   2.609 -0.8060  0.8624 -1.5476
  640MOL0     C88232  12.185   2.927   2.578 -0.2329  0.1071  0.8533
  640MOL0     N88233  11.905   2.515   1.927 -0.4866 -0.1123 -0.0583
  640MOL0     N88234  11.864   2.431   1.834  0.2431 -0.8196 -1.8916
  640MOL0     C88235  11.549   1.644   2.106  0.1950 -1.8563  0.6413
  640MOL0     C88236  11.418   1.608   2.127 -0.1037  0.4600 -0.1373
  640MOL0     C88237  11.008   1.749   2.186  0.2237  0.0546 -0.9773
  640MOL0     C88238  10.972   1.849   2.282  0.1983 -0.3671 -0.3130
  640MOL0     C88239  10.832   1.858   2.310  0.3854  1.0358 -0.2133
  640MOL0     C88240  10.741   1.768   2.262  0.6944 -0.9424 -0.7726
  640MOL0     O88241  10.601   1.798   2.280 -0.4487  0.4107  0.0985
  640MOL0     C88242  10.501   1.682   2.291 -0.1116  0.4885 -0.5781
  640MOL0     C88243  10.524   1.591   2.410  0.0791  0.5942 -0.3022
  640MOL0     C88244  10.534   1.673   2.541  0.0351  0.1883 -0.1366
  640MOL0     C88245  10.403   1.732   2.576 -0.0266 -0.0207 -0.8301
  640MOL0     C88246  10.426   1.834   2.681 -0.5235 -0.2397  0.2364
  640MOL0     C88247  10.441   1.923   2.767  0.9698  0.5133 -0.3130
  640MOL0     C88248  10.780   1.663   2.188  0.3205  0.4270 -0.2811
  640MOL0     C88249  10.913   1.652   2.146  0.1428 -0.7449 -0.7978
  640MOL0     C88250  10.937   1.547   2.042 -0.5924  0.1148  0.1063
  640MOL0     H88251  11.283   1.758   1.848  1.0227  1.5403  0.3668
  640MOL0     H88252  11.514   1.771   1.785 -1.4036  1.6342  0.4566
  640MOL0     H88253  11.789   1.545   2.010  0.0464  0.2460 -0.2595
  640MOL0     H88254  11.876   1.697   2.075  1.5722 -3.2274  0.3054
  640MOL0     H88255  11.988   1.592   1.900 -1.1566 -0.4381  0.1682
  640MOL0     H88256  11.852   1.619   1.791 -0.0615  0.7525 -0.7710
  640MOL0     H88257  11.928   1.880   1.920  3.3588  1.8385 -0.7468
  640MOL0     H88258  12.069   1.814   1.848  0.7215  1.6026 -0.3870
  640MOL0     H88259  11.962   1.776   1.645  0.4414 -0.4344  1.6693
  640MOL0     H88260  11.823   1.884   1.701 -0.9850 -2.7072 -0.3586
  640MOL0     H88261  12.029   1.951   1.551  2.2534 -3.8453  0.0054
  640MOL0     H88262  12.099   1.998   1.715 -1.6371  1.7225  2.2970
  640MOL0     H88263  11.838   2.085   1.605 -0.8020  0.7969 -0.0317
  640MOL0     H88264  11.899   2.124   1.770  1.4252  2.0717  0.2803
  640MOL0     H88265  12.009   2.189   1.491 -0.9482 -4.2137  0.8922
  640MOL0     H88266  12.106   2.237   1.637 -0.0898  3.5448 -1.1771
  640MOL0     H88267  11.975   2.405   1.524 -0.8077 -0.1608  0.2711
  640MOL0     H88268  11.821   2.336   1.607 -0.3260  0.9429  0.7498
  640MOL0     H88269  12.178   2.455   1.759  0.9051 -0.7833  1.7940
  640MOL0     H88270  12.063   2.696   2.047  0.0798  0.1889 -1.4530
  640MOL0     H88271  12.225   2.640   2.023  0.2192 -0.8430  0.4844
  640MOL0     H88272  12.033   2.468   2.178 -1.2058  4.5693  6.7679
  640MOL0     H88273  12.208   2.435   2.135  1.5072  0.7629  0.9526
  640MOL0     H88274  12.214   2.512   2.349  0.5365  1.7870  2.1710
  640MOL0     H88275  12.267   2.656   2.247  1.2954  0.2943  1.5050
  640MOL0     H88276  12.056   2.761   2.248 -0.2294 -2.4154 -1.6016
  640MOL0     H88277  11.975   2.633   2.332 -1.0422 -0.0301  0.7734
  640MOL0     H88278  11.967   2.915   2.320  2.6634  0.0537 -1.7512
  640MOL0     H88279  11.862   3.092   2.285 -0.9716  0.0255 -0.9546
  640MOL0     H88280  11.978   3.231   2.293  0.3999 -0.6860  1.1768
  640MOL0     H88281  11.846   3.222   2.407  0.1467 -1.5317  1.1107
  640MOL0     H88282  12.215   3.526   2.578 -2.1335 -2.4602 -1.4123
  640MOL0     H88283  12.164   3.771   2.635 -0.2532 -1.1019 -1.4545
  640MOL0     H88284  11.909   3.860   3.017  0.0780 -0.4836 -1.1284
  640MOL0     H88285  12.076   3.849   3.071  0.5117  0.5198 -0.8390
  640MOL0     H88286  12.141   4.056   2.978 -0.2792  1.8704  1.3350
  640MOL0     H88287  11.982   4.074   2.907 -2.0980 -2.4116 -0.0551
  640MOL0     H88288  12.030   4.101   3.204 -0.7236 -0.6715 -0.2089
  640MOL0     H88289  11.877   4.127   3.127  0.5745  1.3305  5.0285
  640MOL0     H88290  12.077   4.272   2.980 -2.5198 -2.1292 -1.7445
  640MOL0     H88291  12.119   4.287   3.152  0.8476 -0.9944  0.4007
  640MOL0     H88292  12.002   4.484   3.079 -1.2046  1.3749 -2.8178
  640MOL0     H88293  11.857   4.405   3.029  1.6453 -0.4833 -2.2465
  640MOL0     H88294  11.984   4.419   3.298  1.0931 -1.5376 -1.0947
  640MOL0     H88295  11.842   4.325   3.283 -2.4682  1.7462  0.6320
  640MOL0     H88296  11.708   4.545   3.206  1.0065  1.0766  0.1652
  640MOL0     H88297  11.862   4.619   3.237 -0.3286 -1.1362 -1.2937
  640MOL0     H88298  11.833   4.484   3.463 -1.1233 -2.2354 -0.1428
  640MOL0     H88299  11.680   4.435   3.398  4.3784 -2.6306 -2.6049
  640MOL0     H88300  11.986   3.629   2.997 -1.7276  1.8922 -0.3844
  640MOL0     H88301  11.998   3.409   2.912  2.6347 -1.0383 -1.9129
  640MOL0     H88302  12.235   3.103   2.684 -0.5604  0.4217 -1.5247
  640MOL0     H88303  12.231   2.863   2.653 -2.3090 -1.0867  1.1593
  640MOL0     H88304  11.631   1.635   2.178  0.7955  0.1525  0.2783
  640MOL0     H88305  11.391   1.564   2.223 -2.4795  5.3164  1.7874
  640MOL0     H88306  11.038   1.930   2.312  1.1681  0.3314 -3.9398
  640MOL0     H88307  10.797   1.945   2.363  0.7871  1.2336 -0.2664
  640MOL0     H88308  10.399   1.722   2.291 -0.7431 -1.0730 -0.7244
  640MOL0     H88309  10.498   1.619   2.201 -0.5472  2.8842 -2.3527
  640MOL0     H88310  10.610   1.525   2.396 -0.5428 -1.6289  4.4601
  640MOL0     H88311  10.435   1.530   2.422  1.1881 -1.4085 -1.7141
  640MOL0     H88312  10.578   1.615   2.623  0.9061 -0.4308 -1.0115
  640MOL0     H88313  10.611   1.750   2.530  0.8751 -0.8860 -2.5016
  640MOL0     H88314  10.344   1.653   2.623  0.6933  0.7446  1.4855
  640MOL0     H88315  10.342   1.776   2.496 -1.4492  1.8074  1.1743
  640MOL0     H88316  10.450   1.999   2.842 -0.8888 -0.1824  0.6996
  640MOL0     H88317  10.712   1.597   2.133  0.4309  1.2115 -1.4014
  640MOL0     H88318  10.931   1.586   1.940 -2.0484  0.3222  0.2484
  640MOL0     H88319  11.031   1.492   2.053 -0.3649  0.6425  0.9284
  640MOL0     H88320  10.862   1.468   2.049  2.9209 -3.3814  2.1262
  641MOL0     O88321   3.919  10.597   6.535  0.1620 -0.4638 -0.1347
  641MOL0     C88322   3.829  10.604   6.616  0.0884 -0.0537  0.3686
  641MOL0     O88323   3.694  10.596   6.582 -0.0167 -0.2280  0.2461
  641MOL0     C88324   3.660  10.530   6.469  0.0625 -0.3250  0.9335
  641MOL0     C88325   3.717  10.532   6.339  0.7195  0.6005  0.7509
  641MOL0     C88326   3.657  10.446   6.241 -0.0859  0.9089  0.8975
  641MOL0     C88327   3.546  10.359   6.263  1.0480  0.9559  0.3089
  641MOL0     O88328   3.493  10.267   6.187  0.0935 -0.6053 -0.4385
  641MOL0     C88329   3.505  10.284   6.045 -0.0104 -0.5914 -0.2101
  641MOL0     C88330   3.406  10.382   5.987  0.6770  0.0302  0.0240
  641MOL0     C88331   3.267  10.334   5.962  0.0314  0.1872 -0.8794
  641MOL0     C88332   3.197  10.268   6.077  0.3251  0.3147 -0.0126
  641MOL0     C88333   3.044  10.236   6.048 -0.2425  0.4316  0.3944
  641MOL0     C88334   2.987  10.180   6.171  0.3202  0.0418 -0.0201
  641MOL0     C88335   2.837  10.174   6.170  0.3162  0.6367  0.0134
  641MOL0     C88336   2.795  10.079   6.284 -0.6476 -0.0376  0.8736
  641MOL0     N88337   2.787  10.152   6.408 -0.2193  0.3267 -0.6230
  641MOL0     C88338   2.893  10.159   6.503 -0.0610 -0.3506 -0.0437
  641MOL0     C88339   2.864  10.260   6.584 -0.1533 -0.4121  0.4746
  641MOL0     C88340   2.951  10.311   6.696 -1.0044 -0.0641  0.0107
  641MOL0     C88341   3.098  10.296   6.661  0.4355  0.9196  0.9314
  641MOL0     C88342   3.183  10.305   6.792 -0.2261 -0.2921 -0.6193
  641MOL0     C88343   3.191  10.181   6.886 -0.5483  0.1004  0.1580
  641MOL0     O88344   3.283  10.208   6.995  0.1443 -0.0267  0.8236
  641MOL0     C88345   3.237  10.205   7.119 -1.0626  0.5118 -0.0091
  641MOL0     C88346   3.327  10.195   7.228  0.0908  0.1209  0.3577
  641MOL0     C88347   3.287  10.182   7.355  0.0651 -0.0341  1.0699
  641MOL0     C88348   3.387  10.145   7.459  0.3188  0.0456  0.2836
  641MOL0     C88349   3.150  10.186   7.400 -0.1562  0.7159  0.2552
  641MOL0     C88350   3.101  10.166   7.542  0.0978 -0.1326 -0.0607
  641MOL0     O88351   3.179  10.125   7.646  0.3086  0.2392  0.4494
  641MOL0     C88352   3.121  10.111   7.775 -0.4356  0.0544  0.2715
  641MOL0     C88353   3.062  10.212   7.847 -0.1899  0.2014  0.1213
  641MOL0     C88354   3.030  10.215   7.989  0.4019  0.2860  1.0775
  641MOL0     C88355   3.056  10.092   8.051 -0.8456  1.4729 -0.4863
  641MOL0     O88356   3.039  10.075   8.188 -0.6214  0.3997 -0.9999
  641MOL0     C88357   2.928   9.987   8.231 -0.5141 -0.1990 -0.5423
  641MOL0     C88358   2.781  10.046   8.210  0.2377  0.1161  0.1107
  641MOL0     C88359   2.762  10.180   8.284  1.3462 -0.0153 -1.0910
  641MOL0     C88360   2.605  10.215   8.309 -0.5062  0.0343  0.0670
  641MOL0     C88361   2.582  10.338   8.399  0.2305  0.3494  0.5832
  641MOL0     C88362   2.622  10.472   8.359 -0.2363  0.0940  1.3381
  641MOL0     C88363   2.558  10.533   8.225 -0.1779  1.0788  0.2982
  641MOL0     C88364   2.637  10.498   8.095 -0.6170 -0.2432 -0.5366
  641MOL0    Cl88365   2.802  10.556   8.100 -0.1999 -0.3932 -0.3045
  641MOL0     C88366   3.127   9.986   7.985  0.3027 -0.0365  0.9295
  641MOL0     C88367   3.161  10.002   7.845 -0.3986  0.2827 -1.1866
  641MOL0     O88368   2.984  10.194   7.558 -0.8351  0.9260  0.2798
  641MOL0     C88369   3.059  10.201   7.285  0.3149 -0.5821 -0.4414
  641MOL0     C88370   3.099  10.213   7.153 -0.4742  0.3654  0.3551
  641MOL0     N88371   2.742  10.313   6.542  0.0933  0.1517 -0.7925
  641MOL0     N88372   2.706  10.252   6.439  1.6274 -0.5046 -0.2732
  641MOL0     C88373   3.477  10.380   6.389  0.5185 -0.1499  0.2836
  641MOL0     C88374   3.536  10.475   6.483 -0.3265  0.0489 -0.7226
  641MOL0     C88375   3.863  10.618   6.768  0.3970  0.2287 -1.5492
  641MOL0     C88376   3.999  10.611   6.797 -0.1576 -0.3750 -0.6138
  641MOL0     C88377   4.056  10.613   6.924  1.3212 -0.3737 -0.6749
  641MOL0     C88378   3.972  10.638   7.029  0.0911 -0.3731 -0.0767
  641MOL0     O88379   4.023  10.655   7.151  0.0737 -1.3238 -0.7969
  641MOL0     C88380   3.975  10.605   7.272 -0.1189  0.6873  0.4082
  641MOL0     C88381   4.084  10.613   7.380 -0.2762  0.6810 -0.5153
  641MOL0     C88382   4.010  10.609   7.516 -0.7794  0.7609 -1.4957
  641MOL0     C88383   4.112  10.607   7.634 -0.3710  0.4536 -0.0593
  641MOL0     C88384   4.069  10.518   7.744 -0.8789 -0.2777 -0.4463
  641MOL0     C88385   4.019  10.466   7.843  0.3365  0.5377 -0.2207
  641MOL0     C88386   3.835  10.643   7.010  0.9017 -0.1992 -0.3758
  641MOL0     C88387   3.778  10.632   6.880 -0.4259  0.1465 -0.0355
  641MOL0     C88388   3.628  10.633   6.863  1.5791  0.7510  0.5736
  641MOL0     H88389   3.799  10.595   6.306  0.6210 -0.0999 -0.8864
  641MOL0     H88390   3.705  10.440   6.143  2.5036  0.0960  2.1371
  641MOL0     H88391   3.487  10.187   5.998 -1.1900 -1.1042  1.2428
  641MOL0     H88392   3.606  10.310   6.011  0.3276 -1.2180  0.2973
  641MOL0     H88393   3.393  10.470   6.050  2.8930 -1.4236  2.7371
  641MOL0     H88394   3.450  10.402   5.889  0.5011  0.9964  0.1351
  641MOL0     H88395   3.216  10.424   5.927  0.3673  1.3570  1.4390
  641MOL0     H88396   3.278  10.254   5.887 -0.7047 -2.0678  1.2805
  641MOL0     H88397   3.251  10.177   6.106 -0.6326 -0.1633  0.3222
  641MOL0     H88398   3.197  10.333   6.165 -4.3625 -3.1673  3.0704
  641MOL0     H88399   3.040  10.167   5.964  0.8550  0.5570  0.2292
  641MOL0     H88400   2.995  10.326   6.010 -0.0044  0.1312 -0.6473
  641MOL0     H88401   3.038  10.085   6.191 -0.5891 -0.9049 -1.9974
  641MOL0     H88402   3.013  10.250   6.251 -1.4425  1.9637 -1.0437
  641MOL0     H88403   2.807  10.135   6.072 -1.8436  4.3357 -0.9659
  641MOL0     H88404   2.793  10.273   6.173 -0.2393  0.4115 -0.4902
  641MOL0     H88405   2.697  10.032   6.266 -1.2601  2.3392 -2.8996
  641MOL0     H88406   2.861   9.991   6.290 -0.3822 -0.3785 -3.8466
  641MOL0     H88407   2.975  10.089   6.495  0.4178  0.3209 -5.9774
  641MOL0     H88408   2.931  10.257   6.789  0.1212 -0.8819 -0.2038
  641MOL0     H88409   2.938  10.419   6.705 -1.2654 -0.1646  0.9209
  641MOL0     H88410   3.127  10.198   6.620  1.3658  1.3885  0.4509
  641MOL0     H88411   3.124  10.370   6.585 -0.3062  0.7900  0.5435
  641MOL0     H88412   3.289  10.315   6.765  0.3015 -0.3074  1.2836
  641MOL0     H88413   3.154  10.384   6.862  2.8900  2.4961 -2.1747
  641MOL0     H88414   3.089  10.152   6.911  0.5045 -2.8427  1.5866
  641MOL0     H88415   3.226  10.099   6.822 -3.2533 -0.0353 -1.2598
  641MOL0     H88416   3.431  10.179   7.201 -0.0609  0.7456 -0.6389
  641MOL0     H88417   3.372  10.046   7.503 -1.9936 -0.9089 -2.2964
  641MOL0     H88418   3.383  10.222   7.537 -2.2036 -0.8749  1.1649
  641MOL0     H88419   3.485  10.154   7.412 -0.7359  0.2576 -2.0202
  641MOL0     H88420   3.046  10.297   7.782  0.2785  1.8558  2.0798
  641MOL0     H88421   2.985  10.294   8.048 -0.6030 -0.9405  2.0079
  641MOL0     H88422   2.929   9.894   8.174  1.1635 -1.3601  1.2571
  641MOL0     H88423   2.932   9.955   8.335  0.0811 -1.4711 -0.9322
  641MOL0     H88424   2.754  10.067   8.106  0.9386 -1.4123 -0.4236
  641MOL0     H88425   2.714   9.967   8.246  1.0112 -0.2729  0.7510
  641MOL0     H88426   2.808  10.265   8.233  4.0436 -0.8716 -0.3168
  641MOL0     H88427   2.809  10.175   8.383  0.1492 -0.3079 -0.5179
  641MOL0     H88428   2.561  10.131   8.363  0.3450 -0.6625 -0.3048
  641MOL0     H88429   2.562  10.214   8.208 -1.5188 -3.8419  0.3845
  641MOL0     H88430   2.475  10.341   8.421 -0.1620 -1.4618 -0.8320
  641MOL0     H88431   2.625  10.317   8.497  0.2249  0.3566  0.5870
  641MOL0     H88432   2.730  10.488   8.352 -0.2679  0.8160  2.2085
  641MOL0     H88433   2.594  10.544   8.437 -1.7392  1.2158 -0.1614
  641MOL0     H88434   2.568  10.642   8.233  1.6544  0.9182  0.5699
  641MOL0     H88435   2.457  10.491   8.226  0.4133 -0.4077  1.6474
  641MOL0     H88436   2.585  10.541   8.009  1.4088 -1.5757 -2.5175
  641MOL0     H88437   2.637  10.389   8.086 -1.2924 -0.1985 -1.1790
  641MOL0     H88438   3.168   9.902   8.039 -1.3647 -1.4117  0.1716
  641MOL0     H88439   3.227   9.927   7.804 -1.8064 -1.8506  0.2449
  641MOL0     H88440   2.953  10.197   7.307  0.6718 -1.0000  1.4512
  641MOL0     H88441   3.018  10.223   7.081 -1.4300 -1.3509  1.1304
  641MOL0     H88442   3.380  10.336   6.406  2.6031 -4.3054  3.0254
  641MOL0     H88443   3.483  10.502   6.574  0.2815  0.2266 -0.4154
  641MOL0     H88444   4.069  10.572   6.724 -2.3174 -1.8458 -2.0002
  641MOL0     H88445   4.162  10.609   6.948  0.6894  0.1452  2.7693
  641MOL0     H88446   3.887  10.664   7.300  0.4105  1.1332  1.1575
  641MOL0     H88447   3.939  10.502   7.260 -0.4227  0.5358  2.4130
  641MOL0     H88448   4.140  10.705   7.370 -0.1617  0.7221  0.5167
  641MOL0     H88449   4.149  10.528   7.355 -1.4301  0.7655 -4.6838
  641MOL0     H88450   3.940  10.693   7.522  0.9123  2.2041 -0.8484
  641MOL0     H88451   3.950  10.520   7.534 -1.2526  1.4715  0.7481
  641MOL0     H88452   4.123  10.700   7.690  2.2578 -0.3004  0.8201
  641MOL0     H88453   4.210  10.570   7.602 -1.6006 -1.1339 -2.2318
  641MOL0     H88454   3.991  10.423   7.937 -0.5887  3.3489  0.9258
  641MOL0     H88455   3.765  10.652   7.093  2.0525 -2.7651  0.9963
  641MOL0     H88456   3.608  10.691   6.772  3.0026  2.5548  1.3567
  641MOL0     H88457   3.585  10.533   6.848 -0.1459  1.3476  1.3026
  641MOL0     H88458   3.572  10.689   6.939  1.7915  0.1468  1.1877
  642MOL0     O88459   0.169   4.860   5.843 -0.0053 -0.3435  0.5404
  642MOL0     C88460   0.111   4.866   5.728  0.7026  0.9044 -0.2464
  642MOL0     O88461   0.041   4.974   5.690 -0.1867  0.3906  0.5765
  642MOL0     C88462   0.082   5.100   5.722  0.9417 -0.6970  1.0058
  642MOL0     C88463  -0.004   5.206   5.677  0.7952  0.2521  0.0079
  642MOL0     C88464   0.035   5.345   5.685  0.1347  0.1008 -0.7889
  642MOL0     C88465   0.163   5.369   5.740  0.6478 -0.5746  0.1995
  642MOL0     O88466   0.185   5.500   5.766 -0.4303 -0.2721  0.3986
  642MOL0     C88467   0.314   5.541   5.819 -0.1571  0.3968 -0.3942
  642MOL0     C88468   0.319   5.699   5.832  0.3536 -0.2105  0.6023
  642MOL0     C88469   0.313   5.725   5.980 -0.8169  0.2870  0.0362
  642MOL0     C88470   0.339   5.876   6.006  0.1782  0.3097  0.2885
  642MOL0     C88471   0.272   5.922   6.136  0.8138 -0.5460  0.4858
  642MOL0     C88472   0.287   6.072   6.164  0.0082  0.3507 -0.0268
  642MOL0     C88473   0.188   6.117   6.275 -0.2725 -0.0305  0.1890
  642MOL0     C88474   0.056   6.156   6.220 -0.0375 -0.6890  0.5506
  642MOL0     N88475   0.051   6.280   6.132 -0.0676 -0.0454 -0.6397
  642MOL0     C88476   0.140   6.381   6.151  0.5057  0.2332 -0.6398
  642MOL0     C88477   0.106   6.456   6.052 -0.1106 -0.5984  1.1238
  642MOL0     C88478   0.190   6.577   6.011  0.0109  1.2079  0.0100
  642MOL0     C88479   0.190   6.696   6.108 -0.2272  0.2918  0.7926
  642MOL0     C88480   0.068   6.775   6.124  0.0026  0.5946  0.0698
  642MOL0     C88481   0.027   6.847   6.000 -0.0428  0.7621 -0.3455
  642MOL0     O88482  -0.070   6.947   6.035  0.5889 -0.4775 -0.5266
  642MOL0     C88483  -0.197   6.937   5.972  0.6771 -0.3915 -0.0107
  642MOL0     C88484  -0.319   6.910   6.035 -0.6430  0.0617 -0.8927
  642MOL0     C88485  -0.435   6.909   5.961 -0.1903 -0.4903 -0.3704
  642MOL0     C88486  -0.541   6.844   6.043  0.8150 -0.1553 -0.3355
  642MOL0     C88487  -0.445   6.956   5.830 -0.0543  0.3282 -0.5068
  642MOL0     C88488  -0.562   6.958   5.739 -0.3727 -0.3194  0.3709
  642MOL0     O88489  -0.686   6.890   5.773  0.0178 -0.2965  0.4409
  642MOL0     C88490  -0.772   6.862   5.661 -1.4268 -0.1059 -0.6576
  642MOL0     C88491  -0.906   6.905   5.654 -0.3380 -0.2577  0.8470
  642MOL0     C88492  -0.993   6.849   5.559 -0.0258 -0.2524  0.0417
  642MOL0     C88493  -0.951   6.765   5.463 -0.5790 -0.0173  0.4353
  642MOL0     O88494  -1.041   6.695   5.387  0.1908  0.0889  0.4112
  642MOL0     C88495  -1.158   6.650   5.467 -0.9721 -0.1017  0.2156
  642MOL0     C88496  -1.200   6.508   5.425 -0.5300 -0.7392 -0.2595
  642MOL0     C88497  -1.079   6.409   5.416  0.0461  0.7575 -0.2951
  642MOL0     C88498  -1.124   6.264   5.383 -0.0956  0.3085 -0.2367
  642MOL0     C88499  -1.200   6.187   5.497 -0.4589  0.3664 -0.2817
  642MOL0     C88500  -1.221   6.030   5.472  1.2241 -0.8059 -0.0585
  642MOL0     C88501  -1.104   5.943   5.506  0.6554 -0.2844 -0.3157
  642MOL0     C88502  -1.129   5.801   5.480  0.1986  0.1267 -0.3780
  642MOL0    Cl88503  -1.237   5.736   5.615 -0.4712  0.1961 -0.1057
  642MOL0     C88504  -0.818   6.727   5.461  0.3367 -0.1619 -0.9369
  642MOL0     C88505  -0.734   6.778   5.555  0.7810 -0.9269  0.5135
  642MOL0     O88506  -0.542   7.019   5.633 -0.1151 -0.2828 -0.1957
  642MOL0     C88507  -0.317   6.992   5.771  0.6159  0.2276 -1.1430
  642MOL0     C88508  -0.198   6.978   5.840 -0.3518  0.4285 -0.8677
  642MOL0     N88509  -0.005   6.406   5.973  0.4056 -0.2327 -0.5200
  642MOL0     N88510  -0.038   6.294   6.031  0.8074  0.1643  0.0113
  642MOL0     C88511   0.245   5.266   5.792  0.2108  0.5755 -0.3544
  642MOL0     C88512   0.204   5.137   5.778 -0.2874 -0.1180 -0.5479
  642MOL0     C88513   0.110   4.758   5.626 -1.4290  0.4503  0.6375
  642MOL0     C88514   0.067   4.782   5.490 -0.2985 -0.0823 -0.3391
  642MOL0     C88515   0.063   4.682   5.395 -0.4902  0.1218 -0.0358
  642MOL0     C88516   0.122   4.555   5.429 -0.2566  0.9907 -1.1584
  642MOL0     O88517   0.137   4.448   5.351 -0.3193 -0.1196 -0.1696
  642MOL0     C88518   0.132   4.469   5.204 -0.8466  0.2658 -0.3575
  642MOL0     C88519  -0.006   4.429   5.147 -0.5122  0.3387  0.0446
  642MOL0     C88520  -0.010   4.358   5.005  0.3473 -0.8705  0.3035
  642MOL0     C88521  -0.160   4.355   4.950  0.0022 -0.1623  0.0353
  642MOL0     C88522  -0.218   4.477   4.890 -0.8057 -0.5325 -0.6935
  642MOL0     C88523  -0.220   4.575   4.827 -0.7648 -0.7773 -0.0501
  642MOL0     C88524   0.169   4.528   5.560  0.3646 -0.0056 -0.4512
  642MOL0     C88525   0.155   4.625   5.660  1.2709 -0.4796 -0.3624
  642MOL0     C88526   0.183   4.581   5.801 -0.3112 -0.0471  0.6951
  642MOL0     H88527  -0.099   5.186   5.628 -0.4253 -0.2528  2.4319
  642MOL0     H88528  -0.032   5.422   5.648 -0.1316 -1.1647 -3.1212
  642MOL0     H88529   0.386   5.498   5.749  0.1777 -1.3277  0.9418
  642MOL0     H88530   0.326   5.494   5.917  1.0702 -0.4568 -0.9340
  642MOL0     H88531   0.415   5.737   5.796  0.4350  0.6387  1.6692
  642MOL0     H88532   0.234   5.742   5.779  0.1893 -0.8070  0.3691
  642MOL0     H88533   0.220   5.682   6.019  1.2505 -1.6215  3.2578
  642MOL0     H88534   0.400   5.674   6.022 -0.3420 -1.1033 -2.4803
  642MOL0     H88535   0.447   5.892   6.017  1.2120 -2.1538 -3.8842
  642MOL0     H88536   0.293   5.927   5.921 -2.3853 -0.8191  0.8977
  642MOL0     H88537   0.308   5.872   6.226  0.0232 -0.0249  1.1035
  642MOL0     H88538   0.166   5.896   6.122  1.0481 -0.8847 -0.7910
  642MOL0     H88539   0.388   6.080   6.204 -0.2420 -0.0341  0.7064
  642MOL0     H88540   0.280   6.132   6.073  0.4592  1.6944  0.8038
  642MOL0     H88541   0.225   6.197   6.339 -2.1965  0.8831  0.2230
  642MOL0     H88542   0.172   6.034   6.344  2.4025 -1.3908 -0.6874
  642MOL0     H88543   0.025   6.068   6.162 -0.8029  1.5828 -2.7530
  642MOL0     H88544  -0.015   6.178   6.300  2.2604  1.7301  2.0609
  642MOL0     H88545   0.221   6.379   6.223 -1.1707  0.5587  1.3665
  642MOL0     H88546   0.163   6.614   5.911  3.7709  4.2080 -0.1139
  642MOL0     H88547   0.293   6.542   6.018  0.3140  2.2937  1.7692
  642MOL0     H88548   0.215   6.676   6.212 -1.1679  2.1547  1.4114
  642MOL0     H88549   0.253   6.779   6.076 -1.2822  0.4520 -1.0225
  642MOL0     H88550  -0.020   6.713   6.146 -2.1215  2.9715 -1.2563
  642MOL0     H88551   0.085   6.838   6.212 -2.0587 -0.8541  1.6387
  642MOL0     H88552   0.116   6.893   5.955  2.4881 -0.6757  2.7797
  642MOL0     H88553  -0.008   6.764   5.939  2.5789 -1.2908  0.7270
  642MOL0     H88554  -0.315   6.879   6.138  1.9379  2.4629 -0.1392
  642MOL0     H88555  -0.609   6.785   5.981 -1.7494 -0.5924  2.6184
  642MOL0     H88556  -0.586   6.920   6.108 -1.1401  0.0222 -1.7938
  642MOL0     H88557  -0.510   6.764   6.111 -2.3830 -0.5804  0.8243
  642MOL0     H88558  -0.956   6.975   5.719 -0.9837 -1.3484  1.5573
  642MOL0     H88559  -1.100   6.865   5.565 -0.1826 -0.4501 -1.7260
  642MOL0     H88560  -1.135   6.639   5.573 -4.2944 -3.7463  0.7575
  642MOL0     H88561  -1.236   6.727   5.456  1.0222  2.1624  0.9272
  642MOL0     H88562  -1.274   6.469   5.496  0.5166 -0.6268  0.9132
  642MOL0     H88563  -1.240   6.521   5.324 -1.6063  2.8389  0.4959
  642MOL0     H88564  -1.036   6.399   5.516 -0.8944 -0.4830 -0.0003
  642MOL0     H88565  -1.003   6.450   5.348 -0.4753  2.0293 -0.1507
  642MOL0     H88566  -1.030   6.219   5.349  0.9521  1.3071  1.1923
  642MOL0     H88567  -1.186   6.255   5.294 -1.4731  1.1908  0.5993
  642MOL0     H88568  -1.131   6.198   5.581  1.6414 -0.4002 -1.8141
  642MOL0     H88569  -1.303   6.223   5.504 -0.7822 -0.2817 -1.4837
  642MOL0     H88570  -1.249   6.012   5.367  3.3489 -1.2470 -0.6007
  642MOL0     H88571  -1.304   6.000   5.536  0.6735 -2.6369 -1.5253
  642MOL0     H88572  -1.067   5.974   5.604 -1.6542  3.1373 -0.3452
  642MOL0     H88573  -1.028   5.968   5.431  1.6040  1.4961  1.1453
  642MOL0     H88574  -1.036   5.744   5.481  0.5250  0.6332 -1.1873
  642MOL0     H88575  -1.182   5.789   5.385 -1.9358  2.7061  0.3768
  642MOL0     H88576  -0.783   6.664   5.380  2.4375  0.3060 -0.4360
  642MOL0     H88577  -0.632   6.739   5.554  1.2255  0.2015  0.3499
  642MOL0     H88578  -0.304   7.032   5.671  0.0020  2.3770 -0.4209
  642MOL0     H88579  -0.099   6.998   5.800  0.7825  2.0343  2.4539
  642MOL0     H88580   0.340   5.290   5.840  0.6787 -1.6728 -0.0305
  642MOL0     H88581   0.274   5.057   5.799 -1.2209 -0.4518  1.5124
  642MOL0     H88582   0.039   4.884   5.467  2.4040  0.2096 -3.0003
  642MOL0     H88583   0.031   4.713   5.296  1.6908 -0.2464 -0.8932
  642MOL0     H88584   0.165   4.571   5.180  0.7251  0.7596  3.2110
  642MOL0     H88585   0.209   4.405   5.160  0.6034  0.7159  1.3768
  642MOL0     H88586  -0.062   4.523   5.154 -0.4102  0.4303 -0.3359
  642MOL0     H88587  -0.065   4.363   5.212 -3.1224 -1.6937 -4.0242
  642MOL0     H88588   0.049   4.425   4.941 -2.3929  3.2401  1.6948
  642MOL0     H88589   0.027   4.256   5.015 -1.6009 -1.4508  2.1585
  642MOL0     H88590  -0.224   4.298   5.018 -0.1221 -3.6774 -2.7912
  642MOL0     H88591  -0.155   4.291   4.862  1.9271  1.1677 -0.8844
  642MOL0     H88592  -0.217   4.665   4.769  0.8422 -0.0733  1.0613
  642MOL0     H88593   0.215   4.433   5.588 -0.2947 -0.4461 -0.8542
  642MOL0     H88594   0.091   4.607   5.856  0.6324 -3.1417  4.1730
  642MOL0     H88595   0.206   4.475   5.808 -0.0164 -0.1245 -1.1607
  642MOL0     H88596   0.272   4.629   5.842 -0.4490  1.0938 -0.2722
  643MOL0     O88597   3.684   3.452  10.886  0.2965  0.2852  0.4979
  643MOL0     C88598   3.625   3.563  10.910  0.0587  0.3053  0.0081
  643MOL0     O88599   3.680   3.685  10.895 -0.2662 -0.0772 -1.2794
  643MOL0     C88600   3.815   3.697  10.863  0.5536 -1.2338  0.0941
  643MOL0     C88601   3.916   3.657  10.940  0.3598  0.0521  0.2992
  643MOL0     C88602   4.053   3.670  10.896  0.5680  0.3444 -0.9740
  643MOL0     C88603   4.089   3.736  10.780  0.9206  0.5776  1.1066
  643MOL0     O88604   4.218   3.757  10.737  0.0611  0.6808 -0.3330
  643MOL0     C88605   4.329   3.722  10.823 -0.4861 -0.4045 -0.3887
  643MOL0     C88606   4.459   3.783  10.758  0.8084  1.0291 -0.1094
  643MOL0     C88607   4.579   3.730  10.836  0.0986  0.3305 -0.5687
  643MOL0     C88608   4.711   3.779  10.785 -0.1014  1.1356 -0.2023
  643MOL0     C88609   4.826   3.718  10.875 -0.1467 -0.3712  0.1444
  643MOL0     C88610   4.844   3.562  10.862 -1.0902 -0.4177 -0.1000
  643MOL0     C88611   4.992   3.508  10.890 -0.5767 -0.1963  0.4981
  643MOL0     C88612   4.990   3.360  10.882 -0.0515 -1.1514  0.0728
  643MOL0     N88613   4.997   3.289  10.755  1.1298  0.1521  1.1511
  643MOL0     C88614   5.028   3.341  10.625 -1.3225 -0.8409 -0.8938
  643MOL0     C88615   5.015   3.236  10.538 -0.2540  0.4644 -0.4224
  643MOL0     C88616   5.008   3.236  10.384  0.5987 -0.5215 -0.2122
  643MOL0     C88617   4.884   3.312  10.333 -0.0741  1.0960 -0.8171
  643MOL0     C88618   4.839   3.269  10.194  0.2518 -0.8874  0.2958
  643MOL0     C88619   4.778   3.392  10.118  0.0750  0.5850  0.3935
  643MOL0     O88620   4.657   3.427  10.168 -0.4255 -0.7966 -0.2185
  643MOL0     C88621   4.554   3.398  10.084  1.3351 -0.9276 -0.7136
  643MOL0     C88622   4.467   3.290  10.102 -0.1072  0.3030 -0.0571
  643MOL0     C88623   4.352   3.264  10.025  0.7578 -0.0813  0.2663
  643MOL0     C88624   4.267   3.151  10.077 -0.5772  0.0635 -0.4522
  643MOL0     C88625   4.340   3.345   9.907  0.6688  0.6719 -0.4759
  643MOL0     C88626   4.243   3.308   9.801 -0.1687  0.4181 -0.5975
  643MOL0     O88627   4.270   3.368   9.678  0.2876 -0.4834 -0.2016
  643MOL0     C88628   4.204   3.342   9.563  0.0705 -1.2217 -0.0827
  643MOL0     C88629   4.062   3.336   9.543 -1.1466 -0.1331  0.4369
  643MOL0     C88630   4.005   3.310   9.416 -0.9776 -0.3404  1.2731
  643MOL0     C88631   4.098   3.289   9.302  0.2533 -0.3837  0.1713
  643MOL0     O88632   4.050   3.269   9.178  0.0858 -0.4886  0.5269
  643MOL0     C88633   3.914   3.289   9.154  1.1169 -0.9587 -0.0747
  643MOL0     C88634   3.865   3.252   9.023 -0.3195 -0.3949  0.3679
  643MOL0     C88635   3.715   3.264   9.003 -0.0438 -0.5244 -0.6754
  643MOL0     C88636   3.677   3.231   8.859 -0.4488  0.4702 -0.5708
  643MOL0     C88637   3.522   3.250   8.842  0.2963  0.3248 -0.4501
  643MOL0     C88638   3.433   3.130   8.883 -0.1906 -0.3394 -0.0063
  643MOL0     C88639   3.450   2.992   8.812  0.1696 -0.2012  0.2341
  643MOL0     C88640   3.322   2.952   8.736  0.1110  0.1206 -0.4609
  643MOL0    Cl88641   3.162   2.999   8.804 -0.0756 -0.1124  0.4001
  643MOL0     C88642   4.240   3.301   9.323 -0.8597 -0.2625  0.4260
  643MOL0     C88643   4.291   3.322   9.454  0.4815  0.1200 -0.9180
  643MOL0     O88644   4.148   3.241   9.832  0.2286  0.4557  0.2238
  643MOL0     C88645   4.430   3.455   9.886  0.1781 -0.0176  0.1551
  643MOL0     C88646   4.525   3.484   9.987 -0.1006 -0.3554  0.3323
  643MOL0     N88647   4.950   3.134  10.604 -0.3136  0.7633 -0.3737
  643MOL0     N88648   4.944   3.162  10.733 -0.1755  0.5525  0.1957
  643MOL0     C88649   3.984   3.797  10.706  0.8005  0.2855  0.0627
  643MOL0     C88650   3.848   3.777  10.751  0.2180 -0.6905 -0.1558
  643MOL0     C88651   3.489   3.561  10.966 -0.2030  0.1502  0.0239
  643MOL0     C88652   3.458   3.669  11.045  0.6038 -0.0822 -1.4256
  643MOL0     C88653   3.334   3.672  11.105  0.0478 -0.1071  0.3665
  643MOL0     C88654   3.243   3.563  11.095 -0.0968 -0.5672 -0.4019
  643MOL0     O88655   3.122   3.552  11.163 -0.1701 -0.3112  0.3779
  643MOL0     C88656   3.081   3.644  11.266 -0.3939  0.3061  0.5589
  643MOL0     C88657   3.148   3.607  11.401 -0.1295  0.0601  0.1548
  643MOL0     C88658   3.140   3.723  11.499  0.5420  0.1852  0.4642
  643MOL0     C88659   3.007   3.775  11.539 -0.4612  1.0011 -0.6649
  643MOL0     C88660   2.979   3.917  11.515 -0.5789  0.0076 -0.5633
  643MOL0     C88661   2.961   4.029  11.496  0.7033  0.0430 -0.0190
  643MOL0     C88662   3.268   3.458  11.003  0.1884  0.1082  0.2562
  643MOL0     C88663   3.391   3.455  10.939 -0.2378 -1.0429  0.4465
  643MOL0     C88664   3.400   3.348  10.833  0.8397  0.3555 -0.7850
  643MOL0     H88665   3.885   3.590  11.020  1.0901 -1.0509 -0.3156
  643MOL0     H88666   4.120   3.609  10.955  0.6682  2.2277  0.9636
  643MOL0     H88667   4.341   3.615  10.843 -2.3192 -0.7871 -1.1289
  643MOL0     H88668   4.301   3.768  10.919 -0.5938 -1.5845  0.1645
  643MOL0     H88669   4.461   3.742  10.657 -3.7499  1.1987 -0.4961
  643MOL0     H88670   4.459   3.892  10.752 -3.1080  1.0817 -2.3674
  643MOL0     H88671   4.577   3.763  10.940 -1.6392  0.9168 -0.7589
  643MOL0     H88672   4.579   3.622  10.857  1.5905  0.8423  2.8196
  643MOL0     H88673   4.723   3.736  10.685 -2.7780 -2.0693  0.6700
  643MOL0     H88674   4.725   3.887  10.780 -0.0917  1.3391  2.7953
  643MOL0     H88675   4.814   3.740  10.981  1.1163 -0.7085  0.3634
  643MOL0     H88676   4.911   3.764  10.823  0.0774  1.6106  2.1314
  643MOL0     H88677   4.769   3.507  10.919 -2.3355  2.2155  0.9601
  643MOL0     H88678   4.831   3.546  10.755 -1.2374  0.0078 -0.1441
  643MOL0     H88679   5.025   3.540  10.989  0.1149  0.5372  0.0481
  643MOL0     H88680   5.056   3.540  10.806  0.3156  0.8189  1.5338
  643MOL0     H88681   5.069   3.336  10.955 -0.6004  1.0290  1.5004
  643MOL0     H88682   4.896   3.320  10.921 -1.4702  0.1479 -1.8565
  643MOL0     H88683   5.058   3.443  10.606 -2.0404 -0.7513 -1.6511
  643MOL0     H88684   5.009   3.138  10.335  0.3520 -0.7419  0.2080
  643MOL0     H88685   5.093   3.289  10.341  0.1517  0.1853 -0.2308
  643MOL0     H88686   4.807   3.289  10.407  0.0740 -0.2488 -1.0514
  643MOL0     H88687   4.902   3.420  10.335  0.3851  1.0191 -0.1731
  643MOL0     H88688   4.925   3.244  10.132 -0.2110 -0.5867 -0.4777
  643MOL0     H88689   4.773   3.181  10.200  0.4191 -1.1843 -1.7110
  643MOL0     H88690   4.848   3.476  10.123 -0.9943  1.4897  0.4587
  643MOL0     H88691   4.771   3.372  10.011 -2.1426 -0.0119  0.5999
  643MOL0     H88692   4.476   3.239  10.197 -1.7032 -1.5086 -0.8378
  643MOL0     H88693   4.245   3.083   9.995 -1.4482  0.2224 -0.3609
  643MOL0     H88694   4.182   3.193  10.132  0.5521  2.0483 -0.1102
  643MOL0     H88695   4.317   3.092  10.155  0.5785  0.8561 -0.5564
  643MOL0     H88696   3.998   3.335   9.631 -2.6553  1.2910 -0.5744
  643MOL0     H88697   3.898   3.293   9.416 -0.4772 -4.7428  1.5327
  643MOL0     H88698   3.861   3.222   9.222  1.2594  0.1254  1.1605
  643MOL0     H88699   3.888   3.394   9.173 -4.2081 -2.2395  1.5423
  643MOL0     H88700   3.912   3.319   8.950  1.3410 -0.1489  1.6284
  643MOL0     H88701   3.896   3.148   9.012  0.1681 -0.3166  0.9876
  643MOL0     H88702   3.687   3.368   9.024 -0.3265 -0.7643  0.1736
  643MOL0     H88703   3.657   3.196   9.066 -3.8557  2.3742 -0.6904
  643MOL0     H88704   3.712   3.132   8.828  1.7628  1.0123 -0.0062
  643MOL0     H88705   3.731   3.300   8.794 -2.5515  0.4999 -2.4110
  643MOL0     H88706   3.482   3.334   8.899 -0.7091 -0.9278  0.7830
  643MOL0     H88707   3.495   3.266   8.737 -3.2690  2.9371  0.6776
  643MOL0     H88708   3.334   3.167   8.858  0.2289  0.5845 -0.3657
  643MOL0     H88709   3.440   3.127   8.992 -2.0519  1.8036  0.2250
  643MOL0     H88710   3.459   2.909   8.883  1.1167 -1.3995 -1.2093
  643MOL0     H88711   3.536   2.986   8.744 -1.2773  0.3813 -1.7333
  643MOL0     H88712   3.312   2.845   8.720 -1.3487  0.0227  0.8849
  643MOL0     H88713   3.329   2.994   8.635 -1.3507 -0.4352 -0.8164
  643MOL0     H88714   4.315   3.284   9.245  2.6045 -1.8373  3.7514
  643MOL0     H88715   4.398   3.324   9.471  0.3428  0.3726 -0.0738
  643MOL0     H88716   4.426   3.522   9.801 -0.3916 -1.5498 -1.0668
  643MOL0     H88717   4.588   3.573   9.985 -2.9004  1.8210  1.1993
  643MOL0     H88718   4.000   3.838  10.608  0.4432 -0.8849 -0.5067
  643MOL0     H88719   3.764   3.813  10.693  0.3156  0.9120  0.6478
  643MOL0     H88720   3.527   3.750  11.063 -1.9564  1.5627  2.4438
  643MOL0     H88721   3.314   3.751  11.177 -2.0891  1.5606 -1.8955
  643MOL0     H88722   3.113   3.743  11.233 -0.2868  0.4806  1.1665
  643MOL0     H88723   2.972   3.653  11.274 -0.0971  3.4281  2.9197
  643MOL0     H88724   3.255   3.586  11.390  0.3639  2.1116  0.7242
  643MOL0     H88725   3.100   3.517  11.443 -1.2875  1.7088  2.5986
  643MOL0     H88726   3.181   3.685  11.593  0.3812 -0.6195  0.2181
  643MOL0     H88727   3.205   3.800  11.455  1.6570 -1.4678 -0.9457
  643MOL0     H88728   3.005   3.778  11.648 -0.4740  4.2816 -0.6461
  643MOL0     H88729   2.927   3.722  11.487  1.7470  0.5245 -3.8527
  643MOL0     H88730   2.931   4.129  11.472  1.5988 -0.1659 -2.2263
  643MOL0     H88731   3.186   3.392  10.978  0.9921 -0.5968 -0.5901
  643MOL0     H88732   3.472   3.379  10.757 -0.4458  2.2688 -1.3020
  643MOL0     H88733   3.423   3.251  10.878 -0.6835  1.1558  1.9336
  643MOL0     H88734   3.308   3.336  10.776 -0.1420 -2.9255  1.2154
  644MOL0     O88735   4.480   6.728   1.459  0.5205  0.4294 -0.1754
  644MOL0     C88736   4.403   6.814   1.413 -0.1719 -1.1784 -0.4081
  644MOL0     O88737   4.307   6.883   1.484  0.5338  0.2585  0.0464
  644MOL0     C88738   4.326   6.851   1.613  0.5021 -1.0244  0.3197
  644MOL0     C88739   4.391   6.936   1.694 -0.7731 -0.6620 -0.7793
  644MOL0     C88740   4.376   6.916   1.828 -0.0530 -0.7556 -0.1568
  644MOL0     C88741   4.323   6.799   1.879 -0.5693 -0.0784  0.5200
  644MOL0     O88742   4.315   6.782   2.018 -0.1738 -0.5307  0.4457
  644MOL0     C88743   4.451   6.752   2.066 -0.3651  0.5685 -0.1260
  644MOL0     C88744   4.512   6.618   2.020  0.1381 -0.4245 -0.3258
  644MOL0     C88745   4.436   6.503   2.078  0.3875 -0.6164 -0.0740
  644MOL0     C88746   4.448   6.381   1.983  0.1864 -0.4617  0.4320
  644MOL0     C88747   4.573   6.295   1.998  0.3944 -0.1197 -0.9260
  644MOL0     C88748   4.585   6.162   1.912  0.0080 -0.5377 -0.3552
  644MOL0     C88749   4.545   6.026   1.979 -0.2345  0.7499 -0.0633
  644MOL0     C88750   4.600   5.982   2.115 -0.7969 -0.3190 -0.1914
  644MOL0     N88751   4.586   5.833   2.126 -0.7087  0.1152 -1.3464
  644MOL0     C88752   4.464   5.764   2.139  0.5634 -0.5405  0.5823
  644MOL0     C88753   4.498   5.643   2.170 -0.1732  0.6190 -0.2616
  644MOL0     C88754   4.405   5.528   2.209  0.0480  0.0828 -1.0957
  644MOL0     C88755   4.378   5.427   2.104 -0.0781 -0.1904 -0.2663
  644MOL0     C88756   4.308   5.488   1.973 -0.2254 -0.1718  0.0338
  644MOL0     C88757   4.268   5.383   1.878  0.3487  0.0590  0.2266
  644MOL0     O88758   4.190   5.434   1.761 -0.3438 -0.1978 -0.9739
  644MOL0     C88759   4.095   5.337   1.724  0.0665  0.8732 -1.0512
  644MOL0     C88760   3.957   5.359   1.747 -0.3166  0.2406  0.2406
  644MOL0     C88761   3.862   5.275   1.687  0.7272 -1.0058 -0.7380
  644MOL0     C88762   3.716   5.319   1.698 -0.8007 -0.1045 -0.5210
  644MOL0     C88763   3.892   5.158   1.618  0.0452  0.4329  0.2455
  644MOL0     C88764   3.808   5.077   1.530  0.6508 -1.0536  0.1428
  644MOL0     O88765   3.865   5.031   1.415 -0.1196  0.4239  0.5487
  644MOL0     C88766   3.790   4.947   1.339  0.1183 -0.1740  0.4692
  644MOL0     C88767   3.774   4.814   1.371 -0.0098 -0.4854  0.7178
  644MOL0     C88768   3.690   4.729   1.299  0.9623  0.1440 -0.3424
  644MOL0     C88769   3.631   4.773   1.176 -0.9153  0.3346 -0.5515
  644MOL0     O88770   3.567   4.688   1.091  0.2403  0.7443  0.5382
  644MOL0     C88771   3.529   4.551   1.117  0.6696  0.6353 -0.0344
  644MOL0     C88772   3.535   4.471   0.988 -1.2417 -0.3149  0.6389
  644MOL0     C88773   3.404   4.462   0.900 -0.0677  0.2196 -0.1486
  644MOL0     C88774   3.284   4.412   0.982  0.7250 -0.3417 -0.5055
  644MOL0     C88775   3.165   4.343   0.906  0.8222  0.1530  0.2396
  644MOL0     C88776   3.061   4.446   0.867  0.3874  0.8007  0.4842
  644MOL0     C88777   2.957   4.496   0.979  0.4728 -0.1889  0.2061
  644MOL0     C88778   2.853   4.403   1.032  0.3010 -0.0540  0.1894
  644MOL0    Cl88779   2.728   4.371   0.900  0.1393  0.5330  0.2994
  644MOL0     C88780   3.651   4.908   1.147  0.4547 -0.0167  0.2052
  644MOL0     C88781   3.727   4.995   1.217 -0.0652 -0.2014  0.5347
  644MOL0     O88782   3.686   5.078   1.553  0.4703  0.1477 -0.2612
  644MOL0     C88783   4.033   5.130   1.607 -0.7167 -1.1169  0.5992
  644MOL0     C88784   4.133   5.223   1.658 -0.4450 -0.2789 -0.4217
  644MOL0     N88785   4.638   5.631   2.173 -0.6106 -0.2920 -0.3130
  644MOL0     N88786   4.691   5.746   2.152 -0.7448  1.0228 -0.3972
  644MOL0     C88787   4.255   6.712   1.795 -0.3184  0.1592  0.5646
  644MOL0     C88788   4.256   6.741   1.656 -0.0075  0.9620 -0.8349
  644MOL0     C88789   4.414   6.840   1.275 -0.1535 -1.0528  0.0796
  644MOL0     C88790   4.311   6.810   1.188 -0.4142 -0.4035 -0.6300
  644MOL0     C88791   4.316   6.849   1.055 -0.3907  0.1000  0.1019
  644MOL0     C88792   4.422   6.930   0.999 -0.2016 -0.1733 -0.5856
  644MOL0     O88793   4.442   6.978   0.875  0.0705  0.1823  0.4125
  644MOL0     C88794   4.367   6.915   0.771 -0.3978  0.5865  0.8240
  644MOL0     C88795   4.472   6.845   0.683  0.2848  0.0562 -0.9047
  644MOL0     C88796   4.409   6.790   0.559  1.4711 -0.4894  0.2093
  644MOL0     C88797   4.442   6.878   0.439  0.0309 -0.3184  0.4701
  644MOL0     C88798   4.347   6.852   0.333 -0.0910 -0.4626  0.1756
  644MOL0     C88799   4.271   6.841   0.245 -0.6246 -1.2330  0.0396
  644MOL0     C88800   4.527   6.959   1.086 -0.5591  0.8726  0.2853
  644MOL0     C88801   4.521   6.913   1.216  0.7930  0.0058  0.3524
  644MOL0     C88802   4.635   6.962   1.299 -2.0585  0.5639  0.0596
  644MOL0     H88803   4.440   7.019   1.645  1.6576 -1.9198 -0.6702
  644MOL0     H88804   4.425   6.988   1.892  1.1026 -3.4537  2.1911
  644MOL0     H88805   4.443   6.751   2.175 -0.2430 -0.4145 -0.1194
  644MOL0     H88806   4.518   6.832   2.031  0.7924 -0.7916 -1.1350
  644MOL0     H88807   4.525   6.613   1.911  1.9918  0.1071 -0.1614
  644MOL0     H88808   4.613   6.617   2.062  0.3646 -0.2945 -0.8586
  644MOL0     H88809   4.464   6.480   2.182  1.8109 -0.3597 -0.3870
  644MOL0     H88810   4.328   6.523   2.085  0.2966 -0.5245 -1.4360
  644MOL0     H88811   4.364   6.317   2.013  0.6464 -1.5015 -0.4186
  644MOL0     H88812   4.432   6.397   1.876 -4.3346 -0.6345  0.8715
  644MOL0     H88813   4.607   6.275   2.100  1.4879  3.9730 -0.3167
  644MOL0     H88814   4.651   6.363   1.964  0.9824  1.4490  3.0135
  644MOL0     H88815   4.527   6.183   1.822 -1.7581  2.4455  1.3307
  644MOL0     H88816   4.685   6.151   1.869 -0.1401  0.9748 -1.1426
  644MOL0     H88817   4.561   5.948   1.905  3.8188  2.1842 -0.9686
  644MOL0     H88818   4.441   6.060   1.988 -0.7381  0.1011 -2.7236
  644MOL0     H88819   4.708   6.001   2.107 -0.1706 -2.5263  1.8861
  644MOL0     H88820   4.554   6.038   2.196 -3.0392  0.4042 -1.8727
  644MOL0     H88821   4.363   5.797   2.117  0.4765 -1.6070 -0.7896
  644MOL0     H88822   4.317   5.559   2.266  1.0016 -0.1857  0.5580
  644MOL0     H88823   4.446   5.475   2.295 -3.2645  0.2747  0.7751
  644MOL0     H88824   4.470   5.372   2.082  1.0358  1.0139  1.2619
  644MOL0     H88825   4.311   5.352   2.146 -1.3902  1.1936  0.1935
  644MOL0     H88826   4.226   5.553   2.004 -0.4690  0.0323 -1.0118
  644MOL0     H88827   4.385   5.549   1.925  0.1710 -0.7250 -0.0376
  644MOL0     H88828   4.363   5.347   1.836 -0.9326 -2.9290 -0.3620
  644MOL0     H88829   4.224   5.302   1.936  0.0353 -0.5571 -0.8486
  644MOL0     H88830   3.925   5.444   1.807 -3.7472 -0.8109  0.0872
  644MOL0     H88831   3.658   5.237   1.741  0.5471 -1.2971 -0.8710
  644MOL0     H88832   3.683   5.351   1.599 -1.0896 -0.9569 -0.7130
  644MOL0     H88833   3.714   5.405   1.765  0.8726 -0.2100 -0.2938
  644MOL0     H88834   3.842   4.795   1.453  0.9041 -0.2271  0.0462
  644MOL0     H88835   3.688   4.627   1.336 -1.3670  0.7581  1.4126
  644MOL0     H88836   3.593   4.497   1.187 -2.1652 -1.5447  1.0752
  644MOL0     H88837   3.425   4.553   1.152  0.7493  1.9636  0.2017
  644MOL0     H88838   3.606   4.510   0.914  0.3472 -1.0654  1.7108
  644MOL0     H88839   3.574   4.371   1.009 -3.1189 -1.3404 -0.4094
  644MOL0     H88840   3.431   4.385   0.827  0.5840 -1.6143  1.9248
  644MOL0     H88841   3.375   4.559   0.859  2.7022  1.1893 -0.0522
  644MOL0     H88842   3.242   4.492   1.042  0.4792  1.6771 -3.2014
  644MOL0     H88843   3.330   4.347   1.057  2.7113  2.3019  0.7134
  644MOL0     H88844   3.198   4.289   0.817 -1.3767 -1.1377  0.1454
  644MOL0     H88845   3.112   4.273   0.970 -2.1032 -0.6675 -2.8126
  644MOL0     H88846   3.010   4.401   0.781 -1.1857 -1.7044  2.5942
  644MOL0     H88847   3.108   4.537   0.827  2.7472 -0.2391  0.7068
  644MOL0     H88848   2.894   4.575   0.938  0.3180 -1.1891 -1.5504
  644MOL0     H88849   3.008   4.540   1.065  2.0506 -3.1932  0.9553
  644MOL0     H88850   2.796   4.449   1.114 -0.0033 -0.1875  0.0575
  644MOL0     H88851   2.897   4.308   1.063  1.9139  0.7368  0.3964
  644MOL0     H88852   3.621   4.941   1.048  1.6036  1.1101  0.2013
  644MOL0     H88853   3.743   5.098   1.188  0.6667 -0.2653  0.6944
  644MOL0     H88854   4.077   5.048   1.551  0.7726  0.3844 -0.5640
  644MOL0     H88855   4.238   5.200   1.640  0.3179  0.1834  2.7948
  644MOL0     H88856   4.205   6.625   1.836 -1.1639  0.0001 -0.7169
  644MOL0     H88857   4.212   6.669   1.587  0.7409 -0.6340  0.2663
  644MOL0     H88858   4.220   6.770   1.232 -0.4179  0.4892  0.2119
  644MOL0     H88859   4.239   6.822   0.984  1.3084  3.0071 -3.1476
  644MOL0     H88860   4.296   6.839   0.803  1.2541  0.0889  3.7007
  644MOL0     H88861   4.321   6.995   0.712  0.3598  0.8752  0.6115
  644MOL0     H88862   4.516   6.764   0.742  0.2331 -0.3685 -1.4404
  644MOL0     H88863   4.545   6.925   0.669 -0.1525  0.6788  0.2879
  644MOL0     H88864   4.448   6.692   0.529  0.4816 -0.0309 -2.9505
  644MOL0     H88865   4.302   6.774   0.575  1.6847 -1.3089  0.9045
  644MOL0     H88866   4.543   6.855   0.405 -0.1027  1.0307 -0.9650
  644MOL0     H88867   4.423   6.982   0.467  0.7266 -0.9530  3.7433
  644MOL0     H88868   4.212   6.828   0.156 -0.4560 -3.1890  0.1683
  644MOL0     H88869   4.623   7.000   1.058  1.1055 -1.9242  1.4567
  644MOL0     H88870   4.638   6.909   1.395  0.3288  2.2221  1.0007
  644MOL0     H88871   4.736   6.943   1.261 -1.6115  0.6562  1.1712
  644MOL0     H88872   4.642   7.068   1.323  2.4574  0.6706 -0.8996
  645MOL0     O88873   3.696   4.889   6.460 -0.1575 -0.1396  0.5366
  645MOL0     C88874   3.640   4.975   6.385 -0.4485  1.0446  0.1041
  645MOL0     O88875   3.664   4.990   6.247  0.8545  0.1643  0.3772
  645MOL0     C88876   3.781   4.943   6.192 -0.2961 -0.9109 -0.8271
  645MOL0     C88877   3.790   4.822   6.128 -0.2180  0.1241 -0.5334
  645MOL0     C88878   3.914   4.787   6.066  0.4650  0.9375 -0.3419
  645MOL0     C88879   4.029   4.868   6.081  0.1118 -0.4942  0.3186
  645MOL0     O88880   4.151   4.827   6.030  0.4638 -0.9148 -0.2278
  645MOL0     C88881   4.154   4.861   5.884 -0.6270 -0.5730 -1.5462
  645MOL0     C88882   4.301   4.843   5.844 -0.5182 -0.8767  1.0924
  645MOL0     C88883   4.326   4.868   5.691 -0.6388 -0.0393  0.1641
  645MOL0     C88884   4.228   4.970   5.630  0.7685 -1.1560 -0.6125
  645MOL0     C88885   4.266   5.019   5.485 -0.3230 -0.6262 -0.0071
  645MOL0     C88886   4.172   5.138   5.442 -0.7631 -0.2600  0.3088
  645MOL0     C88887   4.207   5.167   5.299  0.3859  0.3040 -0.8015
  645MOL0     C88888   4.084   5.244   5.241  0.3018 -0.8045 -0.2480
  645MOL0     N88889   4.097   5.272   5.092 -0.8910 -1.0919 -0.5729
  645MOL0     C88890   4.006   5.238   4.998 -0.9010 -0.5729 -0.9410
  645MOL0     C88891   4.050   5.289   4.881  0.0389 -0.1151 -0.2233
  645MOL0     C88892   3.996   5.294   4.740 -0.3032 -0.4432 -0.8121
  645MOL0     C88893   3.904   5.175   4.710  0.9581 -0.6739 -0.2293
  645MOL0     C88894   3.992   5.054   4.675  0.2121  0.0705 -0.4312
  645MOL0     C88895   4.076   4.987   4.789 -0.7045  0.2888 -0.0328
  645MOL0     O88896   4.000   4.926   4.887  1.1713 -0.6246 -0.0077
  645MOL0     C88897   4.068   4.849   4.979  0.2072 -0.7180 -0.1253
  645MOL0     C88898   3.990   4.826   5.088 -0.2214  0.1988  0.1808
  645MOL0     C88899   4.032   4.759   5.203  0.4599 -0.2187  0.0690
  645MOL0     C88900   3.928   4.757   5.311 -0.2877 -0.4489 -0.3650
  645MOL0     C88901   4.162   4.693   5.196 -0.4375 -0.6682 -0.3718
  645MOL0     C88902   4.223   4.611   5.303  0.1601  0.7027  1.6490
  645MOL0     O88903   4.340   4.552   5.263  0.5074 -0.8214  0.5377
  645MOL0     C88904   4.415   4.506   5.365  1.2623  0.3191 -1.0222
  645MOL0     C88905   4.468   4.587   5.466  0.0968 -0.5064  0.7530
  645MOL0     C88906   4.558   4.538   5.554 -0.1587 -0.0903  0.5311
  645MOL0     C88907   4.597   4.411   5.547  0.0775  1.0322  0.7818
  645MOL0     O88908   4.690   4.374   5.641 -0.1826  0.2181  0.3045
  645MOL0     C88909   4.809   4.311   5.604 -0.2010  0.1652 -0.4792
  645MOL0     C88910   4.906   4.321   5.717 -0.0804 -0.6655 -0.3854
  645MOL0     C88911   5.008   4.207   5.735  0.0313  1.6713 -0.3071
  645MOL0     C88912   4.949   4.090   5.811 -0.9600  0.5899 -0.5909
  645MOL0     C88913   5.013   4.078   5.951  0.0888 -0.4098  0.1582
  645MOL0     C88914   4.923   3.993   6.039 -0.2800 -0.1447 -0.3846
  645MOL0     C88915   4.983   3.962   6.183 -0.2189  0.0388  0.6986
  645MOL0     C88916   4.931   4.050   6.289  0.5680  0.3560 -0.9252
  645MOL0    Cl88917   4.993   3.991   6.455 -0.1644 -0.1055  0.3405
  645MOL0     C88918   4.541   4.324   5.445 -0.4750  0.4424 -0.6372
  645MOL0     C88919   4.447   4.372   5.352  0.2337 -0.2330  0.6634
  645MOL0     O88920   4.163   4.605   5.407  0.6744  0.9228 -0.1130
  645MOL0     C88921   4.229   4.699   5.074  0.4519 -0.4554 -0.7800
  645MOL0     C88922   4.188   4.785   4.973  0.2578 -0.9775 -0.6737
  645MOL0     N88923   4.173   5.347   4.913 -0.0507 -0.0068  0.2115
  645MOL0     N88924   4.200   5.337   5.037 -0.9807 -0.1898  0.3135
  645MOL0     C88925   4.014   4.982   6.152 -0.0281 -0.5965  0.9024
  645MOL0     C88926   3.893   5.024   6.204  0.8869 -0.3498 -0.6082
  645MOL0     C88927   3.532   5.057   6.438  0.4589 -1.2986 -0.0206
  645MOL0     C88928   3.505   5.178   6.376 -0.1273 -0.9534  0.4363
  645MOL0     C88929   3.411   5.263   6.423  1.5183  0.1671  0.9790
  645MOL0     C88930   3.323   5.231   6.533  0.5489  0.0347 -0.2215
  645MOL0     O88931   3.244   5.321   6.590  0.5890 -0.2181 -0.1877
  645MOL0     C88932   3.226   5.454   6.539  0.5603  0.0224 -0.3317
  645MOL0     C88933   3.121   5.542   6.616  0.0044  0.5042  0.7174
  645MOL0     C88934   3.132   5.522   6.765 -0.0996 -0.1046 -0.2168
  645MOL0     C88935   3.061   5.626   6.852 -0.2455  0.2910 -0.2771
  645MOL0     C88936   3.128   5.753   6.843 -0.4023  0.1701  0.7762
  645MOL0     C88937   3.174   5.866   6.826 -0.4315  0.2174 -0.7505
  645MOL0     C88938   3.351   5.115   6.596  0.4602 -0.2714  1.2119
  645MOL0     C88939   3.445   5.023   6.546 -0.5903 -0.1857 -0.3517
  645MOL0     C88940   3.455   4.890   6.626 -0.7764 -0.1728  0.3640
  645MOL0     H88941   3.705   4.756   6.116 -0.6632  0.3983  0.9170
  645MOL0     H88942   3.923   4.703   5.998 -0.1667  0.6586 -0.0928
  645MOL0     H88943   4.108   4.953   5.848  1.0696 -0.6495 -4.1141
  645MOL0     H88944   4.100   4.786   5.826 -0.4260 -2.5431  0.6706
  645MOL0     H88945   4.356   4.917   5.903 -0.7453  0.7310 -0.6046
  645MOL0     H88946   4.344   4.747   5.873  0.2890  0.0052  2.9621
  645MOL0     H88947   4.428   4.907   5.680 -1.0809  1.1969  0.3576
  645MOL0     H88948   4.327   4.769   5.644  1.2268 -1.7902  3.5513
  645MOL0     H88949   4.124   4.935   5.633  0.8533 -1.3416  0.6099
  645MOL0     H88950   4.248   5.056   5.695  1.2164 -2.3791  0.9318
  645MOL0     H88951   4.268   4.938   5.411 -0.5229 -0.7701  0.1454
  645MOL0     H88952   4.366   5.062   5.488 -0.3278 -0.6590  0.9431
  645MOL0     H88953   4.069   5.104   5.454 -1.3893  1.0586 -0.9987
  645MOL0     H88954   4.196   5.225   5.504 -1.9598  2.0640 -2.2835
  645MOL0     H88955   4.238   5.080   5.240  1.4318  0.8902 -1.1619
  645MOL0     H88956   4.294   5.234   5.294  2.5762 -2.2679  0.1758
  645MOL0     H88957   3.991   5.190   5.261 -0.5343  0.2426 -1.1870
  645MOL0     H88958   4.085   5.343   5.287  2.1685 -1.1000  0.4668
  645MOL0     H88959   3.922   5.174   5.021 -0.3115 -0.3976  2.0921
  645MOL0     H88960   4.077   5.297   4.668 -0.5386  0.5941 -1.0563
  645MOL0     H88961   3.937   5.386   4.730 -0.8339 -0.8106 -1.0987
  645MOL0     H88962   3.836   5.154   4.793  0.5654  1.0982 -0.0539
  645MOL0     H88963   3.837   5.192   4.626  0.0811  3.0971  1.0267
  645MOL0     H88964   3.933   4.971   4.635  1.8238 -0.6404 -1.4627
  645MOL0     H88965   4.071   5.083   4.606 -0.4955  0.9822 -0.8775
  645MOL0     H88966   4.131   4.912   4.733 -2.1648 -0.7305 -0.1517
  645MOL0     H88967   4.148   5.059   4.830 -0.1480 -1.0356  1.4243
  645MOL0     H88968   3.895   4.875   5.074  1.1093  2.5701 -1.0231
  645MOL0     H88969   3.913   4.654   5.344 -1.5314  0.6213  2.8037
  645MOL0     H88970   3.833   4.795   5.271 -0.1906  1.0683  0.7415
  645MOL0     H88971   3.946   4.816   5.401 -3.3215 -3.2204  2.3060
  645MOL0     H88972   4.450   4.694   5.466 -0.5606 -0.5976 -0.5588
  645MOL0     H88973   4.606   4.594   5.635 -0.4465 -1.2587  1.5399
  645MOL0     H88974   4.796   4.206   5.576 -1.9801  0.4904 -0.9906
  645MOL0     H88975   4.863   4.362   5.524  0.7373 -0.3770 -0.2058
  645MOL0     H88976   4.975   4.403   5.695 -0.3474 -0.3814 -0.1759
  645MOL0     H88977   4.855   4.347   5.810 -0.2819 -1.2996 -0.3135
  645MOL0     H88978   5.097   4.248   5.783  0.3874 -0.3498  0.8498
  645MOL0     H88979   5.042   4.170   5.638 -0.7903  1.3223 -0.4675
  645MOL0     H88980   4.975   3.998   5.758 -0.9019  0.8852 -1.0771
  645MOL0     H88981   4.840   4.083   5.814 -1.0032  1.2932 -0.3982
  645MOL0     H88982   5.116   4.040   5.950  0.2979  0.0386  1.8036
  645MOL0     H88983   5.019   4.178   5.996  2.3320 -0.4280  0.0218
  645MOL0     H88984   4.930   3.900   5.981  1.3963 -1.8439  2.3020
  645MOL0     H88985   4.820   4.030   6.042  0.0011  0.6047  0.5136
  645MOL0     H88986   5.093   3.961   6.187 -0.2408  0.9584  2.9809
  645MOL0     H88987   4.948   3.862   6.209 -1.0319  0.2670  0.5176
  645MOL0     H88988   4.823   4.035   6.294  0.4397  1.2481  3.3761
  645MOL0     H88989   4.946   4.154   6.262 -1.5396  2.4688  4.5035
  645MOL0     H88990   4.569   4.219   5.434 -1.1295  0.5356 -4.4331
  645MOL0     H88991   4.391   4.327   5.271  0.5791 -0.7542  0.7079
  645MOL0     H88992   4.326   4.652   5.062  2.0246  2.8490 -2.2983
  645MOL0     H88993   4.239   4.799   4.878 -2.4755  2.8240 -1.8113
  645MOL0     H88994   4.103   5.043   6.167  0.2942 -1.4792  2.8379
  645MOL0     H88995   3.886   5.117   6.258 -3.0972 -1.5975  1.3923
  645MOL0     H88996   3.568   5.216   6.296  1.0100  0.1227  1.7845
  645MOL0     H88997   3.406   5.359   6.374  3.7713  0.1965  0.7045
  645MOL0     H88998   3.318   5.510   6.561 -0.4772  0.8289  2.5205
  645MOL0     H88999   3.222   5.453   6.430  1.2382 -5.0512 -0.5379
  645MOL0     H89000   3.023   5.509   6.580  0.2392  1.3843 -0.8038
  645MOL0     H89001   3.142   5.645   6.586  0.6796  0.4218  0.8949
  645MOL0     H89002   3.084   5.428   6.796 -1.4781  0.1491 -1.4740
  645MOL0     H89003   3.237   5.529   6.796  0.8968 -0.5536 -3.1753
  645MOL0     H89004   3.050   5.600   6.957  0.5979 -0.6760 -0.4037
  645MOL0     H89005   2.962   5.640   6.808  0.1770 -1.2930 -1.8783
  645MOL0     H89006   3.199   5.969   6.811  0.4352  0.8032  3.3864
  645MOL0     H89007   3.290   5.092   6.683  3.0728 -0.9771  2.9938
  645MOL0     H89008   3.408   4.896   6.724 -1.5372 -1.0628  0.0719
  645MOL0     H89009   3.402   4.811   6.572 -1.6097 -0.1934  1.1855
  645MOL0     H89010   3.559   4.865   6.650 -1.1934 -4.7237 -1.5921
  646MOL0     O89011   8.945   0.996  10.206  0.0742 -0.0190  1.2063
  646MOL0     C89012   8.959   1.111  10.246 -1.3551 -0.4381  1.1369
  646MOL0     O89013   9.002   1.148  10.366 -0.0931  0.1970  0.4521
  646MOL0     C89014   8.986   1.059  10.457 -0.2980  0.6478 -0.8470
  646MOL0     C89015   8.872   1.030  10.517  0.5620  0.5192  0.2017
  646MOL0     C89016   8.861   0.928  10.618  0.6535 -0.4187 -1.1415
  646MOL0     C89017   8.974   0.863  10.664 -0.3750  0.2284 -0.4855
  646MOL0     O89018   8.981   0.764  10.759 -0.3297  0.2856 -0.5848
  646MOL0     C89019   8.864   0.731  10.841  0.6137 -0.5177 -0.8442
  646MOL0     C89020   8.903   0.626  10.937  0.9068  0.5893 -0.2820
  646MOL0     C89021   8.776   0.576  11.013  0.6574  1.0362 -0.7254
  646MOL0     C89022   8.815   0.468  11.117  0.8240  0.2814 -0.7373
  646MOL0     C89023   8.682   0.408  11.188  1.1804  1.2051 -0.1332
  646MOL0     C89024   8.724   0.343  11.315  0.5815 -0.0518 -0.9132
  646MOL0     C89025   8.611   0.326  11.414 -0.6246 -0.8045 -1.0395
  646MOL0     C89026   8.509   0.241  11.350 -0.9002  0.7278  0.0859
  646MOL0     N89027   8.532   0.094  11.360 -0.2330  1.0199  1.1025
  646MOL0     C89028   8.502  -0.003  11.256  0.6476  0.3345  0.3444
  646MOL0     C89029   8.499  -0.119  11.327  0.3492  0.3338 -0.3524
  646MOL0     C89030   8.483  -0.256  11.251  0.1559 -0.8449 -0.0680
  646MOL0     C89031   8.390  -0.350  11.320  0.3444 -0.7856  0.3074
  646MOL0     C89032   8.249  -0.291  11.361  0.3619  0.0125  0.9698
  646MOL0     C89033   8.163  -0.252  11.245 -0.5418 -0.3063 -0.6944
  646MOL0     O89034   8.050  -0.176  11.291  0.8925 -0.9283 -0.9586
  646MOL0     C89035   7.937  -0.181  11.212  0.0042 -0.2706  1.0038
  646MOL0     C89036   7.915  -0.216  11.075 -1.4067 -0.8498  0.0468
  646MOL0     C89037   7.795  -0.189  11.009 -0.5700 -0.1521 -0.0384
  646MOL0     C89038   7.807  -0.226  10.865  0.6296  0.1885 -0.2937
  646MOL0     C89039   7.684  -0.142  11.085  0.5511  0.4121 -0.1719
  646MOL0     C89040   7.551  -0.129  11.028  0.4703  0.5135  0.1076
  646MOL0     O89041   7.449  -0.101  11.117  0.3635  0.2706  0.3685
  646MOL0     C89042   7.375  -0.213  11.155 -0.4101 -1.3606 -0.4754
  646MOL0     C89043   7.315  -0.306  11.076  0.5451 -0.0866 -0.5212
  646MOL0     C89044   7.216  -0.405  11.124 -0.6676  0.1110 -0.0609
  646MOL0     C89045   7.206  -0.412  11.258 -0.5330  0.2614 -0.8099
  646MOL0     O89046   7.108  -0.485  11.316  0.6020  0.0017  0.5765
  646MOL0     C89047   7.065  -0.607  11.255 -0.5150  0.3808 -0.7968
  646MOL0     C89048   6.982  -0.679  11.359 -0.6279  0.1988 -0.1292
  646MOL0     C89049   6.985  -0.835  11.322 -0.3931  0.8591  0.6358
  646MOL0     C89050   6.936  -0.938  11.429  0.0144 -0.1428  0.4077
  646MOL0     C89051   6.917  -1.070  11.352  0.4376  0.1788  0.7905
  646MOL0     C89052   6.850  -1.193  11.420 -0.4412 -0.5301 -0.5619
  646MOL0     C89053   6.887  -1.320  11.335 -0.2278 -0.6460 -0.1110
  646MOL0     C89054   6.800  -1.436  11.374 -0.3464 -0.9248  0.1054
  646MOL0    Cl89055   6.862  -1.493  11.530  0.5863  0.3242 -0.1467
  646MOL0     C89056   7.269  -0.321  11.340  0.1961  1.6531 -0.2718
  646MOL0     C89057   7.352  -0.221  11.292  0.8858 -0.8380 -0.4365
  646MOL0     O89058   7.536  -0.138  10.900  0.9615 -0.0261 -0.3153
  646MOL0     C89059   7.703  -0.131  11.220  0.6316 -0.2744 -0.2639
  646MOL0     C89060   7.827  -0.144  11.278  0.2686 -0.5368 -0.5161
  646MOL0     N89061   8.552  -0.094  11.448 -0.0772  0.1058 -0.3437
  646MOL0     N89062   8.558   0.027  11.472 -0.8769  0.6606 -0.6469
  646MOL0     C89063   9.103   0.910  10.607  0.0505 -0.0172  0.4160
  646MOL0     C89064   9.103   1.001  10.511 -0.4414  0.3013  0.1777
  646MOL0     C89065   8.979   1.201  10.123  1.0145  0.1845  0.2738
  646MOL0     C89066   9.097   1.278  10.121  0.0141 -1.6763 -0.4472
  646MOL0     C89067   9.132   1.369  10.017  0.1905 -0.0630 -1.0520
  646MOL0     C89068   9.040   1.390   9.916  0.1248 -0.4603 -0.3134
  646MOL0     O89069   9.075   1.488   9.824 -0.1976  0.2140 -0.4353
  646MOL0     C89070   8.963   1.565   9.775 -0.4968 -0.4522  0.2157
  646MOL0     C89071   8.950   1.556   9.628  0.9410  0.6821  1.3856
  646MOL0     C89072   8.834   1.661   9.573 -0.4014 -0.7854 -0.2474
  646MOL0     C89073   8.835   1.656   9.418  1.2712  0.1751 -0.4728
  646MOL0     C89074   8.947   1.726   9.347 -0.6898  0.2012 -0.4656
  646MOL0     C89075   9.046   1.758   9.279 -0.2919 -0.4181 -0.8210
  646MOL0     C89076   8.936   1.301   9.905  1.0759 -0.5298 -0.5930
  646MOL0     C89077   8.904   1.204  10.001 -1.0497  0.6851  0.5941
  646MOL0     C89078   8.776   1.122   9.975  0.3534 -0.5849 -0.8408
  646MOL0     H89079   8.776   1.077  10.498 -1.1843 -2.8705 -0.0999
  646MOL0     H89080   8.763   0.924  10.664  2.0174  0.9852  2.1920
  646MOL0     H89081   8.783   0.700  10.775 -0.4800 -1.0566  0.7111
  646MOL0     H89082   8.833   0.821  10.896 -0.1883  0.9336 -3.5059
  646MOL0     H89083   8.951   0.541  10.886  0.7321  0.3640 -0.0705
  646MOL0     H89084   8.969   0.680  11.004 -0.2210  3.1959 -1.1396
  646MOL0     H89085   8.718   0.662  11.048 -1.9904  0.4649 -3.3309
  646MOL0     H89086   8.703   0.532  10.946 -0.6788 -0.5727  1.6501
  646MOL0     H89087   8.872   0.391  11.065  0.3569 -1.3293  0.9982
  646MOL0     H89088   8.881   0.516  11.190  0.3714  1.2670 -0.9614
  646MOL0     H89089   8.622   0.342  11.123 -0.0127  1.7839  0.3489
  646MOL0     H89090   8.605   0.486  11.196 -3.7639 -2.3476 -5.0474
  646MOL0     H89091   8.762   0.243  11.293 -2.8055 -1.6248 -0.3019
  646MOL0     H89092   8.806   0.394  11.366 -0.0306  0.0100  0.0261
  646MOL0     H89093   8.570   0.425  11.437  0.1917 -0.4251 -1.1657
  646MOL0     H89094   8.638   0.283  11.511  1.0983 -1.1309 -1.6204
  646MOL0     H89095   8.416   0.267  11.401 -0.2040  1.1407  1.1838
  646MOL0     H89096   8.492   0.258  11.243 -1.9646 -1.2552 -0.0974
  646MOL0     H89097   8.481   0.028  11.154 -0.9271  1.8671  1.0814
  646MOL0     H89098   8.581  -0.303  11.238  0.1812 -1.7968  2.7888
  646MOL0     H89099   8.434  -0.228  11.158  1.8199  1.6539 -0.3071
  646MOL0     H89100   8.372  -0.440  11.260 -0.7183 -0.0893 -0.4603
  646MOL0     H89101   8.445  -0.375  11.411  1.7472 -2.7999 -1.0202
  646MOL0     H89102   8.192  -0.362  11.422  1.4403  0.4384  2.5516
  646MOL0     H89103   8.267  -0.207  11.428  1.1060 -0.4921  1.4185
  646MOL0     H89104   8.211  -0.190  11.169 -0.9492 -1.3314 -1.8154
  646MOL0     H89105   8.134  -0.340  11.187 -1.1654 -0.0595 -0.7605
  646MOL0     H89106   8.004  -0.248  11.022 -2.9046 -1.8149 -2.0138
  646MOL0     H89107   7.913  -0.240  10.840  0.1079  0.9049 -3.4053
  646MOL0     H89108   7.761  -0.152  10.799 -1.6594  0.7313  1.7926
  646MOL0     H89109   7.758  -0.324  10.863 -1.5534  1.0601  2.8639
  646MOL0     H89110   7.339  -0.310  10.971  3.8937  2.1844  0.0278
  646MOL0     H89111   7.169  -0.474  11.055  2.7549 -0.5932 -1.8826
  646MOL0     H89112   7.014  -0.587  11.160 -1.6153  1.4805  0.0020
  646MOL0     H89113   7.147  -0.671  11.221 -1.8885 -0.3865 -2.8780
  646MOL0     H89114   7.028  -0.671  11.458  0.2427  1.9261 -0.6442
  646MOL0     H89115   6.880  -0.640  11.368 -0.2219  1.5154 -1.0228
  646MOL0     H89116   7.084  -0.856  11.283 -0.1764  0.7287  1.2423
  646MOL0     H89117   6.927  -0.843  11.230  1.7532  1.7557 -0.8625
  646MOL0     H89118   6.837  -0.911  11.468 -0.7056 -1.4751 -0.4223
  646MOL0     H89119   6.999  -0.967  11.513  0.4430 -2.2595 -0.5877
  646MOL0     H89120   6.858  -1.050  11.262 -2.1543  0.7309  2.4833
  646MOL0     H89121   7.016  -1.107  11.322  0.8731  1.3212  0.7823
  646MOL0     H89122   6.746  -1.190  11.451  0.5022  2.1353  2.9147
  646MOL0     H89123   6.902  -1.213  11.514 -0.6274  0.8314 -0.1569
  646MOL0     H89124   6.994  -1.334  11.353 -0.4706 -0.6742  1.4959
  646MOL0     H89125   6.865  -1.294  11.231  0.2591  2.7249  0.5202
  646MOL0     H89126   6.824  -1.510  11.296  1.5567 -2.1561  1.7556
  646MOL0     H89127   6.693  -1.417  11.383 -0.2320 -0.1389 -0.1097
  646MOL0     H89128   7.243  -0.307  11.444 -2.0782  2.1316 -0.8522
  646MOL0     H89129   7.361  -0.134  11.356  0.4374 -0.3600 -1.0060
  646MOL0     H89130   7.621  -0.119  11.290  1.2813 -1.1991  0.7024
  646MOL0     H89131   7.841  -0.135  11.385 -1.8106 -2.8364  0.0493
  646MOL0     H89132   9.196   0.877  10.654  0.0620  3.2602  3.0617
  646MOL0     H89133   9.201   1.023  10.471  1.3195 -3.0396  2.1741
  646MOL0     H89134   9.176   1.256  10.193  0.0943 -0.2549 -0.0848
  646MOL0     H89135   9.222   1.430  10.017  1.7573 -2.2270  0.1456
  646MOL0     H89136   8.865   1.546   9.820 -0.4841  0.5674  0.7160
  646MOL0     H89137   8.966   1.665   9.819  0.3849 -0.5683  0.4375
  646MOL0     H89138   8.925   1.455   9.594  5.1647 -0.5688  1.5048
  646MOL0     H89139   9.040   1.576   9.570 -2.0937  4.4604 -2.8180
  646MOL0     H89140   8.735   1.630   9.606 -0.3335  1.6379  2.6519
  646MOL0     H89141   8.855   1.762   9.612 -1.2528 -0.8151  0.2972
  646MOL0     H89142   8.739   1.700   9.391 -0.6033 -3.5501 -0.5825
  646MOL0     H89143   8.826   1.550   9.392 -0.9432 -0.5048  2.5722
  646MOL0     H89144   9.132   1.799   9.230 -0.0542  0.4622  0.2991
  646MOL0     H89145   8.878   1.322   9.816 -0.5589  3.0663  1.1060
  646MOL0     H89146   8.787   1.022  10.018  1.2203 -0.4135 -0.6465
  646MOL0     H89147   8.688   1.150  10.033  1.7358 -2.1380  2.2524
  646MOL0     H89148   8.756   1.116   9.868  0.6824  0.0429 -0.9393
  647MOL0     O89149   1.387  11.582   9.237  0.3145  0.4097 -0.2213
  647MOL0     C89150   1.418  11.473   9.194 -0.4233  0.2601 -1.1981
  647MOL0     O89151   1.518  11.446   9.091  0.3312  1.0267 -0.1958
  647MOL0     C89152   1.561  11.543   9.009  0.7768 -0.5309  0.4103
  647MOL0     C89153   1.687  11.540   8.951  0.4245  0.1021  0.5643
  647MOL0     C89154   1.734  11.639   8.870 -0.2988  0.0857  0.2059
  647MOL0     C89155   1.649  11.738   8.825  0.1886  0.3108  0.1848
  647MOL0     O89156   1.706  11.807   8.723 -0.6227 -0.7209  0.7296
  647MOL0     C89157   1.630  11.933   8.691 -0.2323  0.4148  1.6396
  647MOL0     C89158   1.729  12.019   8.607 -0.6391 -1.0165  0.1154
  647MOL0     C89159   1.651  12.139   8.539 -0.4959 -0.4773  0.1465
  647MOL0     C89160   1.758  12.248   8.509 -0.0514 -0.2075  0.1765
  647MOL0     C89161   1.703  12.385   8.462  0.1086 -0.1533 -0.6573
  647MOL0     C89162   1.789  12.507   8.481 -0.2727 -0.6513  0.1574
  647MOL0     C89163   1.719  12.619   8.555  0.1114 -0.3731  0.0875
  647MOL0     C89164   1.680  12.592   8.700  0.0874 -0.8756  0.4401
  647MOL0     N89165   1.537  12.629   8.723  0.6042  0.3540  1.1013
  647MOL0     C89166   1.486  12.746   8.768  0.0634 -0.1092  0.4773
  647MOL0     C89167   1.365  12.771   8.710 -0.5187  0.1193  1.0631
  647MOL0     C89168   1.269  12.890   8.742 -0.7052 -0.3669  0.5792
  647MOL0     C89169   1.186  12.925   8.612  0.8695 -0.5835 -0.4354
  647MOL0     C89170   1.096  13.053   8.643  0.3305  0.7673 -0.2787
  647MOL0     C89171   1.025  13.105   8.519 -0.1486  0.4198 -0.4413
  647MOL0     O89172   0.929  12.998   8.489  0.4531  0.2488  0.1416
  647MOL0     C89173   0.816  13.011   8.400  0.8744 -1.1848  0.0174
  647MOL0     C89174   0.755  12.889   8.380  1.1363  0.6128  0.4559
  647MOL0     C89175   0.641  12.877   8.300 -0.8039 -0.8874  0.6090
  647MOL0     C89176   0.589  12.732   8.296 -0.2702 -1.0747  0.4151
  647MOL0     C89177   0.588  13.000   8.244 -0.0180  0.3221 -0.1008
  647MOL0     C89178   0.469  12.993   8.156 -0.1177 -0.2420  0.7069
  647MOL0     O89179   0.477  13.101   8.070 -0.5243  0.3439  0.4217
  647MOL0     C89180   0.370  13.156   8.005  0.0304 -0.4007 -0.0515
  647MOL0     C89181   0.395  13.245   7.899 -0.3263  0.0861 -0.6480
  647MOL0     C89182   0.278  13.316   7.841  0.5861  0.9832 -0.3802
  647MOL0     C89183   0.153  13.307   7.902 -0.6105 -0.5504  0.6456
  647MOL0     O89184   0.040  13.370   7.845  0.5526 -0.8188 -0.3376
  647MOL0     C89185   0.070  13.500   7.798  0.5179 -0.1209  0.3777
  647MOL0     C89186   0.076  13.514   7.646  1.3466 -0.0478 -0.0764
  647MOL0     C89187   0.043  13.664   7.608 -0.1792 -0.3680  0.1536
  647MOL0     C89188   0.065  13.690   7.460 -0.1857  0.7197 -0.4419
  647MOL0     C89189   0.034  13.830   7.421 -0.3269  0.2626  0.7349
  647MOL0     C89190  -0.113  13.865   7.394  0.1377  0.8552 -0.5582
  647MOL0     C89191  -0.115  14.016   7.350  0.1168 -0.5906  0.2018
  647MOL0     C89192  -0.060  14.119   7.449 -0.1190 -0.9801 -0.9489
  647MOL0    Cl89193  -0.088  14.291   7.387  0.2822  0.0316 -0.2939
  647MOL0     C89194   0.144  13.229   8.020  0.0012  0.6364 -0.4562
  647MOL0     C89195   0.246  13.155   8.074 -0.1120 -0.2723  0.3810
  647MOL0     O89196   0.396  12.893   8.144 -0.1663  0.0609 -0.3101
  647MOL0     C89197   0.640  13.123   8.280  0.2222 -0.1506 -0.7182
  647MOL0     C89198   0.754  13.134   8.358  0.7060  0.4141 -0.3483
  647MOL0     N89199   1.347  12.664   8.618 -0.6469 -0.2622 -0.5488
  647MOL0     N89200   1.439  12.578   8.633 -0.6080  0.1389  0.1845
  647MOL0     C89201   1.521  11.748   8.877  0.2809  0.5805  0.3745
  647MOL0     C89202   1.474  11.649   8.963 -0.1522 -0.0686 -0.0655
  647MOL0     C89203   1.371  11.361   9.280 -0.4451 -0.5891 -1.0431
  647MOL0     C89204   1.401  11.369   9.421 -0.2476  0.3306  0.7148
  647MOL0     C89205   1.397  11.250   9.497 -0.1516  0.2307 -0.1458
  647MOL0     C89206   1.350  11.135   9.439  0.4623 -0.4413  0.7490
  647MOL0     O89207   1.331  11.005   9.486 -0.5926  0.2448  0.8965
  647MOL0     C89208   1.338  10.989   9.631  0.3980  1.0032 -0.3528
  647MOL0     C89209   1.204  11.030   9.700 -0.0123 -0.2125  0.5031
  647MOL0     C89210   1.213  11.055   9.850 -1.1416 -0.1468 -0.7194
  647MOL0     C89211   1.118  10.955   9.925 -0.3319 -1.0355  0.6670
  647MOL0     C89212   1.171  10.826   9.899  0.3853  0.9038 -0.3572
  647MOL0     C89213   1.236  10.726   9.856  0.3804  0.2831 -0.0427
  647MOL0     C89214   1.313  11.133   9.305  0.9788 -0.3400  0.3494
  647MOL0     C89215   1.317  11.247   9.225 -0.6383  0.7307  0.3207
  647MOL0     C89216   1.273  11.239   9.082  0.8456 -1.6367 -1.0526
  647MOL0     H89217   1.758  11.459   8.964 -1.0841 -1.2531  0.5919
  647MOL0     H89218   1.833  11.628   8.828  0.0539  0.3996  0.9385
  647MOL0     H89219   1.604  11.988   8.782 -1.0665 -0.3662  1.8880
  647MOL0     H89220   1.537  11.921   8.634 -1.0722  2.2126  2.5191
  647MOL0     H89221   1.807  12.057   8.674 -1.6778  2.3671 -0.3732
  647MOL0     H89222   1.768  11.961   8.523  3.0224 -2.3862  2.5176
  647MOL0     H89223   1.599  12.111   8.447 -0.3521  1.9626 -0.7509
  647MOL0     H89224   1.570  12.182   8.598 -0.0288  1.1999 -0.3821
  647MOL0     H89225   1.818  12.259   8.600 -2.1052  0.8993  1.4805
  647MOL0     H89226   1.813  12.196   8.430  0.9260  0.0582  0.6674
  647MOL0     H89227   1.602  12.399   8.500 -0.5284 -0.8506 -2.0253
  647MOL0     H89228   1.683  12.356   8.358 -2.0692  0.7763 -0.5417
  647MOL0     H89229   1.879  12.485   8.539 -1.4907 -3.6652  1.0776
  647MOL0     H89230   1.807  12.543   8.379 -0.3076  0.4173  0.5133
  647MOL0     H89231   1.636  12.642   8.488  1.7648  0.0790 -1.9105
  647MOL0     H89232   1.783  12.708   8.553 -0.2219 -0.1404 -0.6351
  647MOL0     H89233   1.689  12.485   8.718  0.4916 -0.6436  1.7966
  647MOL0     H89234   1.745  12.634   8.778 -1.5851 -0.4306  1.6589
  647MOL0     H89235   1.527  12.817   8.838  0.7508 -2.2635  2.3789
  647MOL0     H89236   1.334  12.975   8.765  3.2729 -2.1201 -2.8482
  647MOL0     H89237   1.207  12.857   8.826 -0.5474 -1.6094  0.2345
  647MOL0     H89238   1.257  12.958   8.535  2.3712 -0.4029  0.9751
  647MOL0     H89239   1.129  12.840   8.574 -0.3673  0.6898 -1.5519
  647MOL0     H89240   1.019  13.051   8.721 -1.7055 -1.3186 -2.1966
  647MOL0     H89241   1.169  13.129   8.675 -1.5378  2.0477  1.1545
  647MOL0     H89242   0.979  13.203   8.535  1.5138  1.6438 -2.5636
  647MOL0     H89243   1.094  13.123   8.436 -0.0380  1.3504 -0.1581
  647MOL0     H89244   0.814  12.804   8.414 -1.4192 -1.0395  1.0940
  647MOL0     H89245   0.497  12.713   8.352  0.1904 -1.3221  1.1024
  647MOL0     H89246   0.667  12.672   8.346  0.7565 -2.6130 -2.7838
  647MOL0     H89247   0.589  12.695   8.193  2.2633  2.9446 -1.2608
  647MOL0     H89248   0.497  13.256   7.863  0.5723 -4.9188 -0.3359
  647MOL0     H89249   0.281  13.364   7.743 -0.5374 -1.5243 -1.7602
  647MOL0     H89250  -0.015  13.560   7.833 -1.6744 -1.7170 -1.8596
  647MOL0     H89251   0.159  13.546   7.841 -1.2918  1.7272  2.3714
  647MOL0     H89252   0.178  13.485   7.620  0.1558 -4.2671 -0.7461
  647MOL0     H89253   0.005  13.439   7.609  0.7575  0.7229 -0.5436
  647MOL0     H89254   0.117  13.721   7.665  0.0655 -0.6240  0.0973
  647MOL0     H89255  -0.060  13.692   7.632 -0.2903 -1.9182  1.7020
  647MOL0     H89256   0.004  13.624   7.398  0.0340 -0.0460  0.1436
  647MOL0     H89257   0.170  13.668   7.435 -0.0685  2.2051 -1.3296
  647MOL0     H89258   0.080  13.890   7.501  0.5005 -0.2417  0.6457
  647MOL0     H89259   0.090  13.848   7.329  0.1288 -0.2181  0.9154
  647MOL0     H89260  -0.179  13.843   7.478 -0.7766  2.1691 -0.9100
  647MOL0     H89261  -0.151  13.796   7.318 -0.8172  2.7803 -1.9085
  647MOL0     H89262  -0.214  14.054   7.325  0.7408 -0.8030 -3.0878
  647MOL0     H89263  -0.060  14.030   7.256 -0.5450  2.6154  0.1852
  647MOL0     H89264   0.046  14.109   7.477 -0.0861 -1.0625 -1.0998
  647MOL0     H89265  -0.120  14.123   7.540  0.8237 -0.1142 -0.3360
  647MOL0     H89266   0.040  13.223   8.051 -0.1459  4.2485  0.2545
  647MOL0     H89267   0.233  13.083   8.154  0.2555 -0.8636 -0.0839
  647MOL0     H89268   0.578  13.210   8.261 -0.5268 -0.8499 -1.5638
  647MOL0     H89269   0.784  13.234   8.390  1.7664  0.4672 -1.4314
  647MOL0     H89270   1.457  11.826   8.837  0.2512  0.1190 -0.5100
  647MOL0     H89271   1.372  11.668   8.994  0.9716 -0.1754  4.4806
  647MOL0     H89272   1.455  11.453   9.462  2.2127 -0.0621 -1.4786
  647MOL0     H89273   1.437  11.244   9.597 -0.5048 -1.3404 -0.0754
  647MOL0     H89274   1.357  10.885   9.656 -1.3003  0.7165 -0.1216
  647MOL0     H89275   1.419  11.050   9.672  2.7318 -1.5269 -0.9604
  647MOL0     H89276   1.128  10.953   9.684 -1.5241  1.8662 -3.8065
  647MOL0     H89277   1.173  11.125   9.658 -0.1707 -0.4101  0.1686
  647MOL0     H89278   1.317  11.032   9.877 -1.4524 -1.6817 -0.7550
  647MOL0     H89279   1.198  11.160   9.877  0.8180  0.9078 -3.2499
  647MOL0     H89280   1.014  10.959   9.891  0.7563  2.7487 -3.1287
  647MOL0     H89281   1.119  10.969  10.034  0.5159  0.1571  0.5275
  647MOL0     H89282   1.288  10.636   9.833 -2.7894 -1.2185 -1.9128
  647MOL0     H89283   1.282  11.038   9.264 -1.3513 -0.0305  1.2371
  647MOL0     H89284   1.326  11.154   9.037 -0.5236 -2.3897 -1.2829
  647MOL0     H89285   1.165  11.220   9.079  0.0688  1.8103  0.6415
  647MOL0     H89286   1.297  11.335   9.035  0.1137 -0.1134  1.4950
  648MOL0     O89287   6.749   1.724   6.873 -0.0557 -0.3945  0.5339
  648MOL0     C89288   6.807   1.780   6.966 -0.4412  0.1347  1.1512
  648MOL0     O89289   6.744   1.812   7.081  0.2598 -0.2745  0.6061
  648MOL0     C89290   6.611   1.795   7.101  0.4104 -0.0287 -0.7435
  648MOL0     C89291   6.583   1.760   7.230  0.1258  0.0301 -0.4058
  648MOL0     C89292   6.452   1.733   7.270  0.5666  0.0098 -0.0430
  648MOL0     C89293   6.344   1.744   7.178 -1.3461  0.4639 -0.6017
  648MOL0     O89294   6.214   1.716   7.214 -0.0679  1.1882 -0.2386
  648MOL0     C89295   6.182   1.659   7.346 -0.5185 -0.0902  0.6179
  648MOL0     C89296   6.031   1.688   7.348 -0.3449 -0.1604  0.6118
  648MOL0     C89297   5.979   1.654   7.488  0.1392 -0.5259 -0.9866
  648MOL0     C89298   5.823   1.632   7.483 -0.4706  1.3952  0.4329
  648MOL0     C89299   5.778   1.566   7.614 -0.6985 -0.5538 -0.3441
  648MOL0     C89300   5.631   1.511   7.601  0.6102  0.2893  0.0768
  648MOL0     C89301   5.582   1.444   7.726 -0.4419  0.1906  0.9079
  648MOL0     C89302   5.437   1.386   7.706 -0.2481 -0.7310 -0.4853
  648MOL0     N89303   5.454   1.238   7.686  0.0183 -0.5677 -0.0246
  648MOL0     C89304   5.512   1.180   7.573  0.9972  0.2996  0.3529
  648MOL0     C89305   5.570   1.062   7.617  0.0062 -0.8659  0.0286
  648MOL0     C89306   5.657   0.982   7.527  0.6508  0.1520  0.6857
  648MOL0     C89307   5.580   0.888   7.441 -0.5464  0.8607 -0.5347
  648MOL0     C89308   5.495   0.959   7.336 -0.6724  0.0736 -1.0722
  648MOL0     C89309   5.428   0.865   7.231  0.2059  0.1073 -0.3298
  648MOL0     O89310   5.372   0.951   7.134  0.2292  0.3128  0.4328
  648MOL0     C89311   5.313   0.909   7.021 -0.1176  0.6688  0.1509
  648MOL0     C89312   5.307   0.778   6.978 -0.6679 -0.3886  0.7211
  648MOL0     C89313   5.227   0.745   6.859 -0.3786  0.2920  0.3968
  648MOL0     C89314   5.220   0.593   6.827  0.1509  0.1663 -0.2850
  648MOL0     C89315   5.167   0.850   6.782  0.2094  0.4421 -0.7300
  648MOL0     C89316   5.083   0.837   6.668  0.8790  0.1511  0.2405
  648MOL0     O89317   5.025   0.951   6.612  0.3619 -0.2468  0.7063
  648MOL0     C89318   4.927   0.940   6.512 -0.2282 -0.0461 -0.4631
  648MOL0     C89319   4.908   0.838   6.417  0.6928  0.0835  0.3890
  648MOL0     C89320   4.808   0.857   6.318  0.6287  0.3569  0.3340
  648MOL0     C89321   4.711   0.966   6.311 -1.0963  0.0780 -0.2996
  648MOL0     O89322   4.613   0.974   6.227 -0.2852 -0.2786  0.3444
  648MOL0     C89323   4.608   0.901   6.102 -0.2562  0.4869 -0.1048
  648MOL0     C89324   4.480   0.811   6.117 -1.0592 -0.0597 -0.7540
  648MOL0     C89325   4.419   0.759   5.991  0.2883 -0.7666 -0.1234
  648MOL0     C89326   4.509   0.650   5.921  1.0343  0.1400  0.1666
  648MOL0     C89327   4.439   0.531   5.849 -0.8784  0.4158 -0.3703
  648MOL0     C89328   4.346   0.450   5.932  0.0372 -0.0087 -0.2385
  648MOL0     C89329   4.430   0.369   6.031 -0.2572  0.1094  0.4450
  648MOL0     C89330   4.341   0.295   6.129  0.0896 -0.6251 -0.7277
  648MOL0    Cl89331   4.450   0.276   6.270  0.6013 -0.0000  0.3482
  648MOL0     C89332   4.731   1.054   6.414  0.1361 -0.8419 -0.4791
  648MOL0     C89333   4.832   1.046   6.512  0.2776  0.1407 -0.0619
  648MOL0     O89334   5.054   0.720   6.629 -0.7629  0.7857 -0.7613
  648MOL0     C89335   5.183   0.980   6.830  0.3615  0.5485  0.3033
  648MOL0     C89336   5.252   1.001   6.945 -0.0717  0.3905  0.1293
  648MOL0     N89337   5.522   1.033   7.745  0.7237 -0.2272  0.3320
  648MOL0     N89338   5.470   1.147   7.786  0.1847 -0.8620  0.7904
  648MOL0     C89339   6.370   1.778   7.044  1.0636  0.4685  1.6078
  648MOL0     C89340   6.503   1.804   7.008 -0.3719  0.1548  0.6707
  648MOL0     C89341   6.964   1.812   6.962 -1.0506  0.6012 -0.4190
  648MOL0     C89342   7.030   1.831   7.084 -0.0136  0.3295 -0.1057
  648MOL0     C89343   7.171   1.833   7.087  0.0646 -0.2384 -0.0313
  648MOL0     C89344   7.249   1.809   6.968  0.7559 -0.0757 -0.6441
  648MOL0     O89345   7.388   1.814   6.957 -0.3007  0.3802  0.1497
  648MOL0     C89346   7.467   1.794   7.080 -0.3261  0.3836  0.1138
  648MOL0     C89347   7.528   1.928   7.112 -0.2379 -0.5945 -0.7627
  648MOL0     C89348   7.605   1.917   7.243  0.1130 -0.8954  0.2674
  648MOL0     C89349   7.743   1.856   7.223  0.2865  0.7464  0.4477
  648MOL0     C89350   7.812   1.843   7.353 -0.1314 -0.4928 -0.7750
  648MOL0     C89351   7.885   1.837   7.444  0.7152  0.3842 -0.1306
  648MOL0     C89352   7.183   1.818   6.851 -0.5026  0.2448  0.0738
  648MOL0     C89353   7.036   1.820   6.844 -0.8414 -0.0041 -0.5455
  648MOL0     C89354   6.971   1.836   6.706  0.4922  0.2537 -0.4415
  648MOL0     H89355   6.662   1.736   7.300 -2.6694 -2.6984  2.1451
  648MOL0     H89356   6.432   1.699   7.372 -1.7785 -0.9673 -0.7750
  648MOL0     H89357   6.224   1.720   7.427 -1.5284 -1.0763  1.9242
  648MOL0     H89358   6.199   1.552   7.361  1.5374 -0.0822 -1.0896
  648MOL0     H89359   6.004   1.785   7.305 -0.6749 -1.4444 -2.3176
  648MOL0     H89360   5.988   1.609   7.285  1.6040 -1.7714  1.2017
  648MOL0     H89361   6.014   1.557   7.524 -1.2293 -0.5137  0.4472
  648MOL0     H89362   6.008   1.733   7.558  0.6153 -2.9685  1.7878
  648MOL0     H89363   5.778   1.729   7.458  1.6926  1.9871 -1.4726
  648MOL0     H89364   5.799   1.554   7.410  0.0064 -0.2058  1.9045
  648MOL0     H89365   5.796   1.631   7.700 -2.4638 -1.8465  1.0823
  648MOL0     H89366   5.839   1.476   7.629  0.9649  0.0187 -2.9899
  648MOL0     H89367   5.557   1.585   7.567 -1.2846 -1.8384 -0.7118
  648MOL0     H89368   5.636   1.435   7.522 -2.6972  1.4247 -1.4203
  648MOL0     H89369   5.571   1.527   7.796 -1.1875  0.9283 -0.0642
  648MOL0     H89370   5.650   1.366   7.763 -0.0164 -1.8712 -3.5357
  648MOL0     H89371   5.373   1.415   7.789 -0.3615 -2.7463  0.1831
  648MOL0     H89372   5.409   1.431   7.610  0.7535 -0.0975 -0.4959
  648MOL0     H89373   5.520   1.217   7.471  0.0488  1.6125  0.7310
  648MOL0     H89374   5.732   0.933   7.590  1.7264  3.8282  2.5315
  648MOL0     H89375   5.710   1.055   7.465 -0.9020  1.6500  1.0618
  648MOL0     H89376   5.649   0.823   7.387  1.8833 -0.5816  3.8140
  648MOL0     H89377   5.520   0.827   7.510 -1.9503  0.9206 -1.6580
  648MOL0     H89378   5.410   1.010   7.382 -0.5753 -0.4584 -0.2936
  648MOL0     H89379   5.554   1.039   7.291 -0.8941  2.4048  2.4476
  648MOL0     H89380   5.509   0.809   7.183 -2.5552 -3.0681 -1.6746
  648MOL0     H89381   5.371   0.789   7.285  0.1843  0.2368 -0.1696
  648MOL0     H89382   5.361   0.702   7.033 -1.0639 -0.9747  0.3126
  648MOL0     H89383   5.254   0.572   6.725 -2.3178 -1.5292 -0.8306
  648MOL0     H89384   5.117   0.558   6.829 -0.1058  0.9090 -0.3610
  648MOL0     H89385   5.264   0.531   6.905 -2.0002 -0.7749  0.2219
  648MOL0     H89386   4.972   0.750   6.412  1.1838  0.5127 -2.2493
  648MOL0     H89387   4.793   0.780   6.244  3.0414 -1.7285  1.8406
  648MOL0     H89388   4.591   0.963   6.014 -0.1821 -1.7533 -1.7641
  648MOL0     H89389   4.695   0.839   6.079 -0.3116 -0.3671  1.7650
  648MOL0     H89390   4.509   0.726   6.179  3.9588  1.7579 -0.1872
  648MOL0     H89391   4.401   0.862   6.173 -0.0950  0.0191  0.5838
  648MOL0     H89392   4.407   0.844   5.923  0.9795 -0.1302  0.5357
  648MOL0     H89393   4.321   0.722   6.023  0.2577 -1.0725 -0.5599
  648MOL0     H89394   4.572   0.596   5.992 -2.2412 -1.8061  1.8305
  648MOL0     H89395   4.571   0.705   5.849  1.9770  0.1260  0.9464
  648MOL0     H89396   4.375   0.574   5.772 -2.1063  1.1281  1.0019
  648MOL0     H89397   4.510   0.473   5.790  0.3869  1.1178  0.4237
  648MOL0     H89398   4.293   0.374   5.874  1.5656 -2.3284  1.2568
  648MOL0     H89399   4.275   0.523   5.972 -0.7617  1.4248 -3.8533
  648MOL0     H89400   4.503   0.428   6.087 -1.8218  1.5174  1.1132
  648MOL0     H89401   4.486   0.295   5.973 -0.2873  0.2476  0.2424
  648MOL0     H89402   4.315   0.195   6.091  3.6889 -0.7631 -3.2801
  648MOL0     H89403   4.248   0.347   6.155  1.7041  1.9675  0.1288
  648MOL0     H89404   4.655   1.131   6.409 -1.0402 -1.7474  1.7194
  648MOL0     H89405   4.846   1.110   6.599 -1.9587 -3.5330  3.3163
  648MOL0     H89406   5.133   1.066   6.786 -1.9940  1.3394  4.0817
  648MOL0     H89407   5.262   1.104   6.978  3.5724 -0.0622  0.9455
  648MOL0     H89408   6.281   1.788   6.983  1.9417 -1.6085 -0.1519
  648MOL0     H89409   6.525   1.814   6.903  2.1524 -2.5092  0.8060
  648MOL0     H89410   6.986   1.838   7.183  2.0120  2.3647  0.7573
  648MOL0     H89411   7.219   1.834   7.184 -1.4478 -1.5113  0.7867
  648MOL0     H89412   7.413   1.752   7.165 -4.1964  1.2903 -1.7108
  648MOL0     H89413   7.542   1.722   7.044  1.8952  2.6137  0.0138
  648MOL0     H89414   7.447   1.999   7.131  1.7938  0.9317  3.9532
  648MOL0     H89415   7.595   1.966   7.035  0.1534 -1.1045 -0.6791
  648MOL0     H89416   7.618   2.012   7.296  0.6501 -0.7672 -0.0798
  648MOL0     H89417   7.549   1.855   7.314  2.4808 -0.8942  2.3135
  648MOL0     H89418   7.814   1.911   7.161  0.1713 -0.8471 -1.1953
  648MOL0     H89419   7.732   1.755   7.182  0.8135  0.5569  0.7686
  648MOL0     H89420   7.952   1.841   7.528 -3.3102 -1.0060  3.5596
  648MOL0     H89421   7.246   1.807   6.763  0.0400 -2.8844  0.7389
  648MOL0     H89422   6.898   1.916   6.686  1.4289  0.5226 -3.1601
  648MOL0     H89423   7.052   1.845   6.634 -0.5121  1.8494 -1.4401
  648MOL0     H89424   6.917   1.742   6.690  1.5703 -0.4531 -0.0206
  649MOL0     O89425   5.780   2.325  11.292 -0.0250  0.1490  0.1351
  649MOL0     C89426   5.809   2.302  11.175 -0.3404  0.6073 -0.2110
  649MOL0     O89427   5.929   2.316  11.116 -0.7160 -0.2255 -0.0303
  649MOL0     C89428   6.031   2.370  11.188 -0.0126 -0.3126 -0.4500
  649MOL0     C89429   6.091   2.316  11.301  0.8531  0.2493 -0.6622
  649MOL0     C89430   6.195   2.384  11.375  1.7618 -0.2141 -0.0557
  649MOL0     C89431   6.226   2.519  11.333 -0.3950  0.5589 -0.0497
  649MOL0     O89432   6.309   2.604  11.400  0.1512  0.8737 -0.2757
  649MOL0     C89433   6.427   2.553  11.462 -1.1862  0.3565  0.4298
  649MOL0     C89434   6.495   2.660  11.545 -0.6728  1.1651  0.2288
  649MOL0     C89435   6.501   2.791  11.463  0.0154  0.3616 -0.4920
  649MOL0     C89436   6.579   2.899  11.541 -0.3288 -0.6960 -1.1696
  649MOL0     C89437   6.649   2.991  11.435 -0.1568  0.4106  1.3463
  649MOL0     C89438   6.702   3.118  11.502  0.2797  0.2738  0.2576
  649MOL0     C89439   6.803   3.189  11.418  0.2957  0.7295  0.2993
  649MOL0     C89440   6.946   3.131  11.405 -0.5363  0.2886  0.0449
  649MOL0     N89441   7.055   3.230  11.379 -0.9257 -0.1405 -0.1106
  649MOL0     C89442   7.088   3.327  11.473  0.1669  0.5605 -0.2470
  649MOL0     C89443   7.144   3.426  11.405 -0.0250  0.3323  0.8862
  649MOL0     C89444   7.196   3.554  11.458 -0.2172 -0.5064 -0.8486
  649MOL0     C89445   7.304   3.627  11.375  0.1230  0.6855 -0.5048
  649MOL0     C89446   7.357   3.762  11.432  0.7582  0.3538  0.1799
  649MOL0     C89447   7.451   3.831  11.334  1.3325  0.2259 -0.8935
  649MOL0     O89448   7.356   3.882  11.244  0.7302  0.4237  0.8564
  649MOL0     C89449   7.398   3.970  11.149 -0.9622 -0.1522  0.0623
  649MOL0     C89450   7.535   4.006  11.131  0.1045  0.5400 -0.9523
  649MOL0     C89451   7.572   4.094  11.025 -0.4481 -0.1360  0.5490
  649MOL0     C89452   7.722   4.121  11.013 -0.1339 -0.5097  0.2754
  649MOL0     C89453   7.475   4.159  10.943 -0.0313 -0.3086 -0.1940
  649MOL0     C89454   7.502   4.253  10.836 -0.6939 -0.3646  0.2130
  649MOL0     O89455   7.622   4.304  10.830  1.1929 -0.7921  0.6621
  649MOL0     C89456   7.634   4.428  10.768  0.8510  0.5073 -0.0442
  649MOL0     C89457   7.625   4.441  10.629 -0.1483 -0.3055  0.1819
  649MOL0     C89458   7.623   4.568  10.574 -0.3891  0.2688  0.1238
  649MOL0     C89459   7.630   4.683  10.653 -0.1638  0.1948 -1.1714
  649MOL0     O89460   7.606   4.798  10.593 -0.7248 -0.4316 -0.9100
  649MOL0     C89461   7.606   4.928  10.663 -0.3286 -0.1420  0.1190
  649MOL0     C89462   7.753   4.964  10.700  0.5673 -0.1868  0.0789
  649MOL0     C89463   7.828   5.008  10.574  1.1103  0.4278 -0.5596
  649MOL0     C89464   7.968   5.060  10.594 -0.1711 -0.1977 -0.5239
  649MOL0     C89465   8.061   4.970  10.669 -0.7978  0.0532 -1.0111
  649MOL0     C89466   8.210   4.972  10.615  0.2254 -0.6752 -0.4228
  649MOL0     C89467   8.301   4.904  10.712 -1.5921  0.1223 -0.4482
  649MOL0     C89468   8.451   4.940  10.681 -0.1248  0.4896 -0.6193
  649MOL0    Cl89469   8.494   4.896  10.511 -0.0793  0.1162  0.0823
  649MOL0     C89470   7.649   4.665  10.788  0.0348  0.5849 -0.1476
  649MOL0     C89471   7.636   4.540  10.846  0.8087 -0.4132 -0.0434
  649MOL0     O89472   7.401   4.295  10.777  0.3078  0.2200 -0.4524
  649MOL0     C89473   7.339   4.118  10.964 -0.3586  0.4733  0.0737
  649MOL0     C89474   7.308   4.018  11.056 -0.0667  0.2444  0.5784
  649MOL0     N89475   7.150   3.385  11.270 -0.0049 -0.1846  0.0458
  649MOL0     N89476   7.105   3.265  11.253 -0.3963  0.1733 -1.0832
  649MOL0     C89477   6.182   2.561  11.208  0.9684  0.0307 -0.2047
  649MOL0     C89478   6.077   2.488  11.140 -0.4237 -0.1275 -0.0636
  649MOL0     C89479   5.703   2.231  11.092 -0.0056  0.1841  0.4093
  649MOL0     C89480   5.742   2.153  10.984 -0.5928 -0.5939  0.3689
  649MOL0     C89481   5.647   2.072  10.920  1.0850  0.5417  0.6635
  649MOL0     C89482   5.513   2.060  10.952  0.1594  0.1852  0.7083
  649MOL0     O89483   5.439   1.966  10.883  0.5040  0.3802 -0.1190
  649MOL0     C89484   5.302   1.984  10.890  0.3531 -0.0330 -0.2116
  649MOL0     C89485   5.237   1.864  10.817  0.3726 -0.4382  0.1037
  649MOL0     C89486   5.085   1.875  10.788  0.7548  0.3344  0.4923
  649MOL0     C89487   4.986   1.862  10.904  1.1303 -0.1156 -0.5139
  649MOL0     C89488   4.995   1.737  10.982 -0.1104  0.9832 -1.0361
  649MOL0     C89489   5.019   1.624  11.025  0.1741  0.7588 -1.0057
  649MOL0     C89490   5.474   2.154  11.050 -0.2103  0.7194  0.0622
  649MOL0     C89491   5.566   2.240  11.118  1.1370  0.2199 -1.6116
  649MOL0     C89492   5.507   2.339  11.224  0.3795  0.0190 -1.2212
  649MOL0     H89493   6.052   2.219  11.331 -4.3872  1.5318 -2.2583
  649MOL0     H89494   6.229   2.351  11.472 -0.6713 -1.6552  0.3927
  649MOL0     H89495   6.506   2.522  11.393 -1.3203  1.1530 -0.1095
  649MOL0     H89496   6.408   2.469  11.528  0.3142  0.8969  1.5978
  649MOL0     H89497   6.431   2.679  11.631  0.4348 -0.9781  1.6179
  649MOL0     H89498   6.591   2.622  11.581 -1.8830 -2.3560  0.1556
  649MOL0     H89499   6.549   2.771  11.367  0.3469  2.3701 -0.7818
  649MOL0     H89500   6.399   2.818  11.434  0.6196  1.1605 -1.9964
  649MOL0     H89501   6.527   2.955  11.619 -0.4444 -2.0302 -0.2558
  649MOL0     H89502   6.657   2.841  11.592  1.2422  0.6406 -1.9280
  649MOL0     H89503   6.576   3.006  11.355 -4.3766 -0.1633  4.7264
  649MOL0     H89504   6.731   2.947  11.377 -1.6216  1.3602 -1.6507
  649MOL0     H89505   6.614   3.178  11.527  0.1409  0.3449 -0.4070
  649MOL0     H89506   6.750   3.086  11.596  2.0768 -0.3743 -0.8382
  649MOL0     H89507   6.824   3.283  11.469 -1.8687  0.7007  1.3585
  649MOL0     H89508   6.765   3.194  11.315  0.5289 -1.7895  0.0346
  649MOL0     H89509   6.971   3.074  11.494  3.5791 -0.4767 -1.3946
  649MOL0     H89510   6.950   3.065  11.318  1.8687  0.2107  0.1560
  649MOL0     H89511   7.063   3.324  11.578 -0.0026  3.0932 -0.1389
  649MOL0     H89512   7.218   3.536  11.564 -4.9100  1.6715  0.7745
  649MOL0     H89513   7.108   3.618  11.462  0.5047  0.4839 -0.2133
  649MOL0     H89514   7.386   3.555  11.373  1.0662  1.4160  3.2004
  649MOL0     H89515   7.268   3.641  11.273  1.7265 -0.1827 -1.2224
  649MOL0     H89516   7.285   3.838  11.461 -0.1326 -0.1253 -0.6937
  649MOL0     H89517   7.416   3.730  11.518  1.3518  1.5562  0.2397
  649MOL0     H89518   7.509   3.912  11.378 -1.3894  2.2072 -0.6598
  649MOL0     H89519   7.519   3.759  11.288  1.0588  0.8776 -2.3982
  649MOL0     H89520   7.608   3.953  11.190  0.8120  2.7111  0.2421
  649MOL0     H89521   7.741   4.102  10.907 -0.6927  1.8817 -0.3172
  649MOL0     H89522   7.790   4.051  11.063 -0.6641 -4.1939 -3.5977
  649MOL0     H89523   7.748   4.222  11.047  3.9520 -0.1396 -3.0758
  649MOL0     H89524   7.579   4.358  10.575  0.8680  0.5141 -2.0469
  649MOL0     H89525   7.611   4.592  10.469 -0.8369  5.0173  1.0288
  649MOL0     H89526   7.556   5.007  10.607 -2.6901 -2.0963 -0.7025
  649MOL0     H89527   7.553   4.915  10.758  1.7751  0.5879  1.4695
  649MOL0     H89528   7.745   5.054  10.761 -0.4181 -0.8442  0.9557
  649MOL0     H89529   7.801   4.886  10.759  0.4014  0.8380  1.6173
  649MOL0     H89530   7.768   5.076  10.513  1.0542  0.4114 -0.5220
  649MOL0     H89531   7.842   4.914  10.519  1.5030  1.2742 -1.9647
  649MOL0     H89532   7.953   5.154  10.648 -0.5424 -1.4403  1.6650
  649MOL0     H89533   8.019   5.065  10.497  0.2747  1.3445 -0.2279
  649MOL0     H89534   8.069   5.005  10.773  2.3000  1.3806 -1.5771
  649MOL0     H89535   8.023   4.868  10.666  0.1749 -0.5018  1.9751
  649MOL0     H89536   8.236   5.078  10.603  0.1253 -0.6537 -0.4497
  649MOL0     H89537   8.213   4.936  10.511 -0.8947 -1.3694 -0.2296
  649MOL0     H89538   8.282   4.797  10.702  0.3958 -0.1789 -1.6362
  649MOL0     H89539   8.284   4.939  10.814 -0.2100  1.3405 -0.5831
  649MOL0     H89540   8.511   4.875  10.745 -0.8249  1.4848  1.1177
  649MOL0     H89541   8.470   5.045  10.702  3.2186 -0.2175  0.5841
  649MOL0     H89542   7.644   4.747  10.859  0.7776 -1.1868  2.0840
  649MOL0     H89543   7.629   4.537  10.954  1.4725 -1.4992 -0.0088
  649MOL0     H89544   7.258   4.145  10.896 -0.8826 -1.6923 -0.2205
  649MOL0     H89545   7.202   3.993  11.055 -0.0701 -0.0574  2.9264
  649MOL0     H89546   6.215   2.657  11.172 -1.8516  1.0273 -0.3461
  649MOL0     H89547   6.031   2.535  11.054 -2.6597 -0.0346  1.0883
  649MOL0     H89548   5.844   2.149  10.947  0.0115 -1.2880  2.0072
  649MOL0     H89549   5.673   2.013  10.833  1.3684  1.8216 -0.1460
  649MOL0     H89550   5.274   1.978  10.996 -2.2469  0.8244 -0.7528
  649MOL0     H89551   5.269   2.081  10.850  1.3531  0.0083 -0.9623
  649MOL0     H89552   5.256   1.769  10.868  4.0618  0.2459  0.2128
  649MOL0     H89553   5.282   1.842  10.720 -0.0437 -3.8624  0.5648
  649MOL0     H89554   5.064   1.972  10.743 -1.8960 -0.1201  0.5989
  649MOL0     H89555   5.059   1.790  10.724 -0.9527 -0.4018  2.0564
  649MOL0     H89556   4.883   1.849  10.869  0.8360 -0.8522  0.5956
  649MOL0     H89557   4.988   1.945  10.974  3.5936 -1.8900  1.6974
  649MOL0     H89558   5.051   1.533  11.072  0.5761  0.9579 -0.8841
  649MOL0     H89559   5.374   2.170  11.089  0.4340  2.9250  0.9536
  649MOL0     H89560   5.540   2.440  11.201 -1.0780  1.1956  1.4142
  649MOL0     H89561   5.398   2.327  11.232 -0.1180  3.4532 -1.4986
  649MOL0     H89562   5.536   2.322  11.328 -4.5794 -1.8808  0.1607
  650MOL0     O89563   6.535   3.036   2.834  0.2633  0.5846 -0.2963
  650MOL0     C89564   6.630   3.102   2.826 -0.6347 -0.2685 -0.6444
  650MOL0     O89565   6.664   3.196   2.925  0.0358 -0.6015 -0.4408
  650MOL0     C89566   6.575   3.245   3.016 -0.8094  0.4428 -0.9714
  650MOL0     C89567   6.431   3.241   3.006  0.4923 -0.2878  0.2493
  650MOL0     C89568   6.368   3.285   3.121  0.5069 -0.0561  0.7872
  650MOL0     C89569   6.429   3.348   3.223 -0.9650  0.4310  0.1773
  650MOL0     O89570   6.356   3.398   3.323 -0.1667 -0.7430  0.0025
  650MOL0     C89571   6.318   3.279   3.403  0.1199 -0.8720  1.2939
  650MOL0     C89572   6.325   3.322   3.546 -0.1800  0.5103 -0.0147
  650MOL0     C89573   6.462   3.368   3.585 -0.1158 -0.6011  1.0682
  650MOL0     C89574   6.471   3.375   3.733 -0.6517  0.6189 -0.4072
  650MOL0     C89575   6.601   3.449   3.784 -1.2941  0.1655  0.4033
  650MOL0     C89576   6.729   3.365   3.769  0.2598 -0.4103  0.0753
  650MOL0     C89577   6.848   3.441   3.830 -0.5854  0.1167 -0.8352
  650MOL0     C89578   6.839   3.481   3.983 -0.9035 -0.0375  0.2415
  650MOL0     N89579   6.817   3.368   4.074  0.1361  0.5086  0.4692
  650MOL0     C89580   6.912   3.287   4.126  0.9410 -0.4549  0.2918
  650MOL0     C89581   6.861   3.225   4.236  0.4725  0.0163 -0.6504
  650MOL0     C89582   6.927   3.106   4.313 -0.4790 -0.4322 -0.0611
  650MOL0     C89583   6.962   3.155   4.453 -1.0662  0.2170 -0.3239
  650MOL0     C89584   7.039   3.050   4.541 -0.4911 -0.2253  0.6918
  650MOL0     C89585   7.197   3.081   4.537  0.5820  0.3873 -0.0986
  650MOL0     O89586   7.258   3.018   4.648  0.0063 -0.5714  0.1932
  650MOL0     C89587   7.318   2.897   4.626 -0.3522 -0.1400  0.0713
  650MOL0     C89588   7.421   2.857   4.714  0.9431 -0.5576 -0.2507
  650MOL0     C89589   7.475   2.735   4.726  0.8939  0.4742  0.3499
  650MOL0     C89590   7.555   2.707   4.851  0.0710  0.5347  1.2208
  650MOL0     C89591   7.436   2.639   4.634 -0.5240 -0.6793  0.0925
  650MOL0     C89592   7.481   2.505   4.636  0.2233 -0.2990  0.0644
  650MOL0     O89593   7.393   2.420   4.570 -0.2407  0.8324 -0.5688
  650MOL0     C89594   7.420   2.304   4.509  0.0458  0.5265 -0.0196
  650MOL0     C89595   7.547   2.263   4.467  0.6956  0.8346  0.3150
  650MOL0     C89596   7.565   2.135   4.412 -0.0670 -0.8330  0.5659
  650MOL0     C89597   7.458   2.046   4.401 -0.1376 -0.0433  0.7408
  650MOL0     O89598   7.476   1.912   4.358  0.6349 -0.8728 -0.6225
  650MOL0     C89599   7.381   1.802   4.376 -0.2942  0.3443 -0.1412
  650MOL0     C89600   7.444   1.673   4.348  0.8828 -0.4527 -0.1909
  650MOL0     C89601   7.486   1.644   4.198  0.6445 -0.9264  0.0547
  650MOL0     C89602   7.577   1.517   4.194  0.2678 -0.3695  0.2534
  650MOL0     C89603   7.627   1.497   4.044 -0.7766  0.3983 -0.2930
  650MOL0     C89604   7.724   1.386   4.047 -0.7074  0.0161  0.4213
  650MOL0     C89605   7.803   1.367   3.924 -0.4978  0.2811 -0.5825
  650MOL0     C89606   7.850   1.221   3.900 -0.6760 -0.2664 -0.6578
  650MOL0    Cl89607   7.966   1.209   3.763 -0.2537 -0.2975 -0.0738
  650MOL0     C89608   7.335   2.079   4.453  0.8766 -0.1570 -0.3189
  650MOL0     C89609   7.315   2.212   4.503  0.0132  0.6900 -0.5253
  650MOL0     O89610   7.589   2.477   4.687 -0.3860  0.3813 -0.2765
  650MOL0     C89611   7.350   2.684   4.526  0.7430  1.2454 -0.3989
  650MOL0     C89612   7.284   2.809   4.520  0.4686  0.4613  0.1519
  650MOL0     N89613   6.733   3.278   4.256  0.7952  0.4349  0.0179
  650MOL0     N89614   6.717   3.379   4.172  0.0060  1.1531  0.2459
  650MOL0     C89615   6.566   3.363   3.223 -1.6752 -0.9905  0.1584
  650MOL0     C89616   6.641   3.299   3.120  1.6843 -0.2076 -0.2845
  650MOL0     C89617   6.713   3.106   2.704  0.2179 -0.6115 -0.8515
  650MOL0     C89618   6.780   3.230   2.667 -0.1724  0.0186 -0.5630
  650MOL0     C89619   6.870   3.239   2.566  0.3885 -0.1183  0.5148
  650MOL0     C89620   6.897   3.126   2.499 -0.8242  0.1186  0.5336
  650MOL0     O89621   7.002   3.136   2.400 -0.3162 -0.1895  0.0786
  650MOL0     C89622   6.995   3.049   2.291  0.0887  0.2919  0.5497
  650MOL0     C89623   7.111   3.100   2.204 -0.2163 -0.3171  0.9671
  650MOL0     C89624   7.187   2.980   2.134 -0.6421  0.8124 -0.2986
  650MOL0     C89625   7.320   2.943   2.189 -0.3457 -0.2125 -0.5991
  650MOL0     C89626   7.323   2.868   2.313 -0.6100  0.8861 -0.0309
  650MOL0     C89627   7.331   2.814   2.424 -1.0594  0.1626 -0.2206
  650MOL0     C89628   6.829   3.002   2.527  0.0803  1.0566  0.3741
  650MOL0     C89629   6.741   2.992   2.638 -0.3805  0.1691  0.1941
  650MOL0     C89630   6.675   2.862   2.663 -0.6587 -0.1438  0.5127
  650MOL0     H89631   6.379   3.199   2.920 -2.7666  2.1981  0.8020
  650MOL0     H89632   6.259   3.282   3.112  0.4903  3.0399 -2.4539
  650MOL0     H89633   6.378   3.188   3.395 -0.8046 -1.6745  2.9182
  650MOL0     H89634   6.214   3.253   3.382 -1.8922  4.4683  2.8279
  650MOL0     H89635   6.255   3.406   3.544 -2.8592 -1.6037 -0.5951
  650MOL0     H89636   6.295   3.242   3.614  1.4098 -0.2636 -0.1884
  650MOL0     H89637   6.526   3.283   3.557 -1.1650 -2.0860  2.9361
  650MOL0     H89638   6.489   3.469   3.554 -0.8021  0.9657  5.0579
  650MOL0     H89639   6.377   3.424   3.761 -1.6666 -1.6618  0.4220
  650MOL0     H89640   6.478   3.276   3.779  4.3918  0.0683 -1.7211
  650MOL0     H89641   6.582   3.466   3.890 -0.5571  1.8649  0.3027
  650MOL0     H89642   6.613   3.545   3.733 -0.8442 -0.8459 -1.4754
  650MOL0     H89643   6.697   3.268   3.806 -0.6968 -0.9762 -2.0608
  650MOL0     H89644   6.750   3.352   3.662  0.0153 -2.1807  0.2160
  650MOL0     H89645   6.862   3.528   3.765 -3.4524  0.2108 -1.4757
  650MOL0     H89646   6.934   3.374   3.821  0.3486  0.8582  1.8243
  650MOL0     H89647   6.916   3.554   4.010 -0.7395  0.9552 -2.5760
  650MOL0     H89648   6.756   3.553   3.984  0.9219  2.1907  1.1277
  650MOL0     H89649   7.016   3.288   4.093  1.2299 -0.2679  1.1763
  650MOL0     H89650   7.017   3.077   4.259 -1.4342 -3.6238 -0.1046
  650MOL0     H89651   6.862   3.018   4.313  1.3792 -1.8956  1.7237
  650MOL0     H89652   7.026   3.243   4.447 -0.3366 -0.2683  0.0785
  650MOL0     H89653   6.873   3.192   4.503  0.1234  0.0341  2.0711
  650MOL0     H89654   7.016   3.057   4.647 -1.8803  1.3867  0.3325
  650MOL0     H89655   7.021   2.946   4.510 -1.3781 -0.7328  2.7321
  650MOL0     H89656   7.241   3.049   4.442  0.0136  2.5796 -1.1508
  650MOL0     H89657   7.224   3.184   4.560  1.0432 -0.1711  2.0874
  650MOL0     H89658   7.443   2.933   4.788 -2.3627  1.4436 -1.0769
  650MOL0     H89659   7.551   2.794   4.916  1.7416  1.4181  0.2139
  650MOL0     H89660   7.655   2.699   4.806  0.2371 -0.1641  1.6954
  650MOL0     H89661   7.515   2.616   4.897  0.9425  0.9852  2.9356
  650MOL0     H89662   7.627   2.336   4.477  0.5312  0.7583  2.8496
  650MOL0     H89663   7.668   2.120   4.383 -0.7318 -0.7961 -2.1338
  650MOL0     H89664   7.367   1.788   4.483  1.4816 -1.0157 -0.0404
  650MOL0     H89665   7.279   1.811   4.338 -0.1949  0.8189 -0.3024
  650MOL0     H89666   7.527   1.669   4.418  1.8786  2.3809 -1.0604
  650MOL0     H89667   7.370   1.602   4.385  0.8816 -0.2625  0.1787
  650MOL0     H89668   7.537   1.734   4.163 -3.1340  0.9891 -1.0950
  650MOL0     H89669   7.413   1.629   4.117  0.4839 -0.0981  0.0339
  650MOL0     H89670   7.515   1.433   4.227  3.4385 -2.6380  0.7948
  650MOL0     H89671   7.650   1.528   4.274 -0.3297  0.3888  0.7224
  650MOL0     H89672   7.549   1.464   3.976 -0.0579  1.2671 -1.5874
  650MOL0     H89673   7.667   1.591   4.005 -1.6307  1.0430  0.3273
  650MOL0     H89674   7.683   1.293   4.086 -1.7271  0.4757  0.4714
  650MOL0     H89675   7.797   1.409   4.125 -1.7856  0.2181  1.3982
  650MOL0     H89676   7.895   1.426   3.926 -0.3997  0.1262  0.7586
  650MOL0     H89677   7.743   1.403   3.840  0.2891 -0.6047 -1.5504
  650MOL0     H89678   7.767   1.157   3.868  1.7908 -2.1440 -3.9510
  650MOL0     H89679   7.891   1.177   3.991  1.7075 -0.9734 -1.9981
  650MOL0     H89680   7.242   2.024   4.443 -0.1008  1.1319  1.1736
  650MOL0     H89681   7.212   2.235   4.526  0.1638 -2.1964  4.6521
  650MOL0     H89682   7.315   2.618   4.447 -1.8136  2.2333 -0.1866
  650MOL0     H89683   7.219   2.832   4.435  0.4374  0.1542  0.0941
  650MOL0     H89684   6.615   3.410   3.308 -2.7263 -0.9965  0.7949
  650MOL0     H89685   6.748   3.295   3.137  1.6871  2.5883  0.9936
  650MOL0     H89686   6.757   3.313   2.733 -1.6524 -2.0870  1.7642
  650MOL0     H89687   6.921   3.332   2.546  3.2913 -1.4780  1.1168
  650MOL0     H89688   6.998   2.943   2.319 -2.9373 -1.0515 -3.2639
  650MOL0     H89689   6.902   3.064   2.236  0.1380  0.9089  0.6341
  650MOL0     H89690   7.192   3.156   2.250 -1.0240  3.8954 -2.2258
  650MOL0     H89691   7.069   3.168   2.130  2.0436  0.3169  0.2143
  650MOL0     H89692   7.122   2.892   2.145 -0.8563  0.2694 -4.4315
  650MOL0     H89693   7.197   2.985   2.026  1.2136 -0.0617 -0.2100
  650MOL0     H89694   7.396   3.021   2.195 -4.2616  4.1346 -2.2715
  650MOL0     H89695   7.369   2.877   2.116  4.6693  2.4287 -0.1026
  650MOL0     H89696   7.372   2.758   2.506  2.9564  0.4178 -1.7856
  650MOL0     H89697   6.859   2.907   2.485 -0.2146  0.4328  1.5395
  650MOL0     H89698   6.693   2.826   2.764  0.4490  1.2525  0.8535
  650MOL0     H89699   6.568   2.877   2.650 -0.8219 -2.1414 -1.0164
  650MOL0     H89700   6.695   2.790   2.583  1.1105  0.9360 -0.0839
  651MOL0     O89701   8.353   5.240   8.092  0.6162  0.0506 -0.1320
  651MOL0     C89702   8.278   5.161   8.139 -0.0143  0.5739 -0.1036
  651MOL0     O89703   8.157   5.137   8.084 -0.1328 -0.6376  0.1864
  651MOL0     C89704   8.124   5.212   7.971 -0.1804 -0.5496  0.1392
  651MOL0     C89705   8.148   5.161   7.842  0.7689 -0.9381 -0.2647
  651MOL0     C89706   8.098   5.236   7.729  0.4949 -0.3664  0.5356
  651MOL0     C89707   8.024   5.356   7.744 -0.1514 -0.2939 -0.6282
  651MOL0     O89708   7.974   5.408   7.629 -0.4077  0.2936  0.0815
  651MOL0     C89709   7.897   5.526   7.631  0.2560 -0.1827 -0.3464
  651MOL0     C89710   7.779   5.506   7.532  0.0691 -0.0330  0.0682
  651MOL0     C89711   7.681   5.401   7.593  0.3073  0.3845  0.5258
  651MOL0     C89712   7.588   5.463   7.697  0.0881 -0.8298  0.2068
  651MOL0     C89713   7.471   5.526   7.636 -0.1712  0.3901 -0.2381
  651MOL0     C89714   7.371   5.571   7.736  0.5521  0.6720  0.0333
  651MOL0     C89715   7.252   5.638   7.671 -0.2083 -0.2580 -0.0919
  651MOL0     C89716   7.131   5.651   7.767  0.8475 -0.3803 -0.5809
  651MOL0     N89717   7.153   5.710   7.901  1.0580 -0.0109 -0.2052
  651MOL0     C89718   7.158   5.633   8.012 -0.7517 -1.2959 -0.1372
  651MOL0     C89719   7.191   5.726   8.107  0.5416 -0.6080  0.1710
  651MOL0     C89720   7.193   5.684   8.254  0.7234  0.3703  0.5128
  651MOL0     C89721   7.154   5.791   8.360  0.8638 -0.2332  0.0969
  651MOL0     C89722   7.160   5.748   8.508 -0.5107  0.4610  0.8571
  651MOL0     C89723   7.082   5.615   8.535  0.9865 -0.0562  0.5070
  651MOL0     O89724   7.054   5.608   8.674 -0.0500  0.0977 -0.1027
  651MOL0     C89725   7.046   5.482   8.729 -0.3695 -0.1731 -0.0967
  651MOL0     C89726   6.938   5.457   8.811 -0.1785 -0.1954 -0.8823
  651MOL0     C89727   6.912   5.334   8.879  0.2904 -0.1299  0.2303
  651MOL0     C89728   6.796   5.319   8.963  0.3883 -0.8912 -0.6646
  651MOL0     C89729   7.012   5.229   8.867 -0.1054 -0.0923  0.2417
  651MOL0     C89730   7.014   5.107   8.947 -1.0831 -0.9595 -0.4245
  651MOL0     O89731   7.103   5.019   8.904 -0.5465 -0.2700  0.5415
  651MOL0     C89732   7.132   4.907   8.976 -0.3504  0.3358  0.4773
  651MOL0     C89733   7.151   4.907   9.118 -0.3148 -0.4468  0.1585
  651MOL0     C89734   7.180   4.789   9.193 -0.3167 -0.2796  0.3928
  651MOL0     C89735   7.215   4.682   9.118 -0.5165 -0.5758 -0.2430
  651MOL0     O89736   7.266   4.573   9.188  0.2754 -0.2283  0.4876
  651MOL0     C89737   7.389   4.514   9.138 -1.0342  0.1441 -0.3481
  651MOL0     C89738   7.481   4.502   9.259  0.7438 -0.7845  0.1315
  651MOL0     C89739   7.538   4.626   9.313  0.2390  0.6504  0.4188
  651MOL0     C89740   7.471   4.692   9.432  0.8057 -0.4951  0.1211
  651MOL0     C89741   7.540   4.821   9.471  0.5788 -0.5528 -0.2355
  651MOL0     C89742   7.503   4.885   9.600  0.5590 -0.4318 -1.4094
  651MOL0     C89743   7.349   4.895   9.621 -0.1805  0.4115 -0.0295
  651MOL0     C89744   7.330   5.000   9.738  0.6135 -0.3903 -0.0190
  651MOL0    Cl89745   7.382   4.930   9.906 -0.0191 -0.1456  0.2505
  651MOL0     C89746   7.198   4.667   8.983 -0.0938  0.6804 -0.0753
  651MOL0     C89747   7.152   4.788   8.908  0.0667 -0.9783 -0.5523
  651MOL0     O89748   6.927   5.087   9.027 -0.1939  0.5460  0.4367
  651MOL0     C89749   7.119   5.260   8.780 -1.0228 -0.7037  0.2069
  651MOL0     C89750   7.139   5.382   8.716  0.1800 -1.1878  0.1003
  651MOL0     N89751   7.202   5.854   8.054 -0.0197 -0.4189 -0.5885
  651MOL0     N89752   7.177   5.842   7.931 -0.0657  0.7931  1.0426
  651MOL0     C89753   7.998   5.404   7.878 -0.6874  0.3872  0.5656
  651MOL0     C89754   8.049   5.333   7.989  0.4966 -0.9974 -0.7546
  651MOL0     C89755   8.309   5.086   8.264 -0.2778 -0.5740  0.0113
  651MOL0     C89756   8.254   4.955   8.287 -0.7436  0.1515  0.4913
  651MOL0     C89757   8.272   4.886   8.405 -0.5259  1.3423 -0.4438
  651MOL0     C89758   8.365   4.927   8.504 -0.3524 -0.6864  1.1148
  651MOL0     O89759   8.401   4.860   8.621  0.1992 -0.4195 -0.4285
  651MOL0     C89760   8.484   4.746   8.601 -0.4698  0.0603 -0.9724
  651MOL0     C89761   8.439   4.643   8.702  1.0776 -0.1576 -0.3567
  651MOL0     C89762   8.466   4.679   8.850 -0.2407  0.4899 -1.1002
  651MOL0     C89763   8.415   4.565   8.946  0.2669 -0.3523  0.1855
  651MOL0     C89764   8.393   4.619   9.085  0.0068  0.0255 -0.6886
  651MOL0     C89765   8.358   4.686   9.183  0.7126 -0.4354  0.3898
  651MOL0     C89766   8.423   5.055   8.477 -0.4030  0.9905  0.3228
  651MOL0     C89767   8.402   5.124   8.357  0.4364 -0.6527 -0.4701
  651MOL0     C89768   8.471   5.253   8.351  1.0667 -0.8102 -0.2709
  651MOL0     H89769   8.206   5.069   7.839  1.3034 -0.6787  1.1273
  651MOL0     H89770   8.120   5.193   7.632 -1.0332  2.1788 -1.0371
  651MOL0     H89771   7.957   5.599   7.578  3.1630 -3.2312 -1.5908
  651MOL0     H89772   7.863   5.563   7.728  0.3008  1.1873 -0.8424
  651MOL0     H89773   7.727   5.598   7.504 -0.4966 -0.6677 -1.0005
  651MOL0     H89774   7.812   5.459   7.439  3.9602  0.5819  0.9590
  651MOL0     H89775   7.617   5.376   7.508  1.2930  0.9556 -0.4119
  651MOL0     H89776   7.738   5.313   7.624 -0.5559 -0.5236 -0.3662
  651MOL0     H89777   7.551   5.379   7.755 -1.5942 -0.1133  0.2240
  651MOL0     H89778   7.640   5.531   7.766 -2.9797 -0.4820  2.3922
  651MOL0     H89779   7.432   5.469   7.551  4.6288 -0.1446 -2.4044
  651MOL0     H89780   7.504   5.613   7.579  0.5840  1.7795  2.1570
  651MOL0     H89781   7.321   5.481   7.774  0.2741  0.5011 -0.7239
  651MOL0     H89782   7.402   5.625   7.825 -2.8365 -1.8863  3.0779
  651MOL0     H89783   7.223   5.595   7.575  2.2665 -0.0418 -0.9956
  651MOL0     H89784   7.282   5.740   7.647 -0.8935 -0.1638 -0.5833
  651MOL0     H89785   7.058   5.699   7.701  1.4776 -2.8412 -3.2752
  651MOL0     H89786   7.097   5.550   7.792  0.7044 -0.2303 -0.1502
  651MOL0     H89787   7.132   5.528   8.022 -4.4958 -0.2818  2.8003
  651MOL0     H89788   7.294   5.643   8.269  0.4339 -0.6404 -0.1926
  651MOL0     H89789   7.125   5.599   8.262 -0.9328  1.2349 -2.6621
  651MOL0     H89790   7.225   5.872   8.342  2.6536 -1.2275  2.1120
  651MOL0     H89791   7.056   5.826   8.329 -1.0417 -1.4215  4.1179
  651MOL0     H89792   7.266   5.745   8.532 -0.7484 -1.5323  1.9292
  651MOL0     H89793   7.108   5.833   8.554 -0.7044 -0.5982  2.6965
  651MOL0     H89794   7.004   5.597   8.461  2.2624 -2.1094 -0.4205
  651MOL0     H89795   7.150   5.532   8.512  0.2013  0.1045 -2.8827
  651MOL0     H89796   6.872   5.539   8.838 -1.2594 -1.3131  0.0140
  651MOL0     H89797   6.816   5.309   9.070  1.6108 -1.8295 -0.9627
  651MOL0     H89798   6.737   5.239   8.917  0.6318 -0.0015 -2.6287
  651MOL0     H89799   6.735   5.410   8.959  2.1260  0.2719 -3.7867
  651MOL0     H89800   7.133   5.002   9.166 -3.7858  0.1728 -2.0751
  651MOL0     H89801   7.185   4.795   9.301 -0.4730  2.3710  0.3142
  651MOL0     H89802   7.379   4.415   9.093 -1.1437  0.2851 -0.6369
  651MOL0     H89803   7.450   4.567   9.064 -1.4052  1.2793  0.1400
  651MOL0     H89804   7.438   4.437   9.336  0.2650  1.2999  1.7135
  651MOL0     H89805   7.569   4.446   9.226 -0.1290 -0.1872 -3.8016
  651MOL0     H89806   7.548   4.698   9.231  1.1734 -1.2924 -1.2700
  651MOL0     H89807   7.643   4.606   9.339  0.4507  1.9646  0.6645
  651MOL0     H89808   7.465   4.625   9.518 -0.1847  0.5304  0.8827
  651MOL0     H89809   7.371   4.722   9.400  2.0579  2.8441 -1.1602
  651MOL0     H89810   7.646   4.796   9.477  0.4878 -0.8360  0.2004
  651MOL0     H89811   7.532   4.900   9.395  0.1984 -0.9878 -0.6599
  651MOL0     H89812   7.549   4.984   9.596 -0.1306 -0.1079 -1.6275
  651MOL0     H89813   7.548   4.832   9.684  0.5048 -2.1433 -2.4097
  651MOL0     H89814   7.306   4.798   9.650  0.1145 -0.1811 -1.4748
  651MOL0     H89815   7.294   4.928   9.532 -3.2480  1.6634  2.1629
  651MOL0     H89816   7.223   5.025   9.739  1.1182  2.2990 -1.9411
  651MOL0     H89817   7.383   5.094   9.717 -0.9993  0.0015 -2.8546
  651MOL0     H89818   7.223   4.578   8.926 -1.7936  0.9396 -1.3031
  651MOL0     H89819   7.149   4.798   8.800 -0.1620 -1.8301 -0.6370
  651MOL0     H89820   7.199   5.188   8.771 -0.2647  0.3123 -1.8538
  651MOL0     H89821   7.232   5.406   8.665  0.4864 -1.1321  0.6733
  651MOL0     H89822   7.940   5.494   7.894 -0.3939  0.4892  1.0605
  651MOL0     H89823   8.020   5.361   8.090  0.2573 -0.0669 -1.0665
  651MOL0     H89824   8.190   4.915   8.209 -0.1772  3.7818 -2.0696
  651MOL0     H89825   8.231   4.788   8.427  2.3720  0.6999  2.9039
  651MOL0     H89826   8.468   4.710   8.499 -2.7794  1.0273 -1.0070
  651MOL0     H89827   8.586   4.781   8.618 -0.3939 -0.3716 -0.5393
  651MOL0     H89828   8.509   4.563   8.675  3.7772  0.7137  3.2427
  651MOL0     H89829   8.339   4.607   8.675  1.1848 -0.9115  0.2207
  651MOL0     H89830   8.575   4.688   8.851 -0.3554  2.8481 -2.2866
  651MOL0     H89831   8.418   4.775   8.871  0.0706  0.8003 -1.7611
  651MOL0     H89832   8.490   4.485   8.946  1.8277  1.0164 -1.3506
  651MOL0     H89833   8.320   4.522   8.912 -1.5028  2.6134  0.9808
  651MOL0     H89834   8.323   4.734   9.272  0.5679  2.3782 -1.0709
  651MOL0     H89835   8.495   5.081   8.553  1.4208  0.1023 -1.0056
  651MOL0     H89836   8.504   5.286   8.450  1.0633  1.1035 -0.8688
  651MOL0     H89837   8.560   5.247   8.288  0.6803 -1.0250 -0.8050
  651MOL0     H89838   8.412   5.338   8.315  0.5785 -0.3763  1.4246
  652MOL0     O89839   6.445   9.153   0.748 -0.7031 -0.2810  0.0055
  652MOL0     C89840   6.423   9.232   0.837  0.3532 -0.0696 -0.3326
  652MOL0     O89841   6.433   9.364   0.832 -0.2524  0.1431 -0.0217
  652MOL0     C89842   6.521   9.423   0.739  0.6516 -0.3016 -0.7275
  652MOL0     C89843   6.461   9.488   0.638 -0.3526 -0.1535  0.9303
  652MOL0     C89844   6.537   9.561   0.539 -0.7350  0.6910 -0.7805
  652MOL0     C89845   6.678   9.556   0.545 -0.8052 -0.6942  0.1321
  652MOL0     O89846   6.750   9.628   0.453 -0.0496 -0.3318  0.3494
  652MOL0     C89847   6.885   9.600   0.419 -0.2614 -0.0840 -0.9091
  652MOL0     C89848   6.923   9.673   0.295  0.3106 -0.3544  0.4241
  652MOL0     C89849   6.865   9.624   0.161  0.4981 -0.4493 -0.4404
  652MOL0     C89850   6.958   9.649   0.045 -0.2021 -0.2682 -1.2412
  652MOL0     C89851   6.908   9.614  -0.093  0.4267 -0.2452  0.0836
  652MOL0     C89852   6.820   9.726  -0.156  0.5771 -0.3166  0.7131
  652MOL0     C89853   6.803   9.703  -0.309  0.4454 -0.3547  0.5496
  652MOL0     C89854   6.737   9.569  -0.359 -0.2092 -0.5030 -0.3350
  652MOL0     N89855   6.605   9.558  -0.297  0.4925 -0.6498 -0.9745
  652MOL0     C89856   6.548   9.433  -0.282  0.2359  0.3086  0.5762
  652MOL0     C89857   6.423   9.456  -0.224 -0.4145  0.0315 -0.6994
  652MOL0     C89858   6.351   9.330  -0.192  0.4166  0.2669  0.0842
  652MOL0     C89859   6.201   9.324  -0.248 -0.7538 -0.0606  0.0104
  652MOL0     C89860   6.106   9.418  -0.171 -0.5785  0.4012  0.0150
  652MOL0     C89861   6.098   9.369  -0.026 -0.3078  0.2234 -0.0831
  652MOL0     O89862   6.003   9.453   0.046  0.0670  0.0829  0.0593
  652MOL0     C89863   5.871   9.422   0.057  0.7005  1.1581  0.6993
  652MOL0     C89864   5.787   9.502   0.134  0.4644 -0.0838 -0.8512
  652MOL0     C89865   5.653   9.473   0.159  0.2783  0.2298 -0.2017
  652MOL0     C89866   5.589   9.567   0.262 -0.9028 -0.0461  0.3235
  652MOL0     C89867   5.595   9.355   0.097  0.1374 -0.2548  0.4772
  652MOL0     C89868   5.454   9.306   0.106  0.6732  1.3630 -0.4925
  652MOL0     O89869   5.421   9.171   0.085 -0.1636  0.1472 -0.2331
  652MOL0     C89870   5.286   9.132   0.087 -0.2097 -0.0634  1.0606
  652MOL0     C89871   5.268   8.996   0.099  0.4789  0.0620  0.8983
  652MOL0     C89872   5.147   8.934   0.093  1.1268 -0.9357  0.3656
  652MOL0     C89873   5.032   8.999   0.058 -0.9853  0.4534  0.0503
  652MOL0     O89874   4.918   8.925   0.041  1.0419 -0.0223  0.3007
  652MOL0     C89875   4.794   8.981   0.097  0.7402  0.0531 -0.0501
  652MOL0     C89876   4.669   8.896   0.061 -0.6951  0.9496 -0.3293
  652MOL0     C89877   4.532   8.941   0.112 -0.3714  0.1983  1.3312
  652MOL0     C89878   4.528   8.939   0.260  0.5160  0.4478 -0.3441
  652MOL0     C89879   4.380   8.917   0.307 -0.7868  0.5735  0.1125
  652MOL0     C89880   4.303   9.046   0.300 -0.5300  0.0693 -0.4357
  652MOL0     C89881   4.172   9.050   0.371  0.1153  0.4107 -0.1862
  652MOL0     C89882   4.114   9.194   0.354  0.7057 -0.6329  1.2180
  652MOL0    Cl89883   4.223   9.318   0.408  0.0470 -0.0049 -0.2243
  652MOL0     C89884   5.047   9.134   0.032  0.3726  0.6570  0.0521
  652MOL0     C89885   5.166   9.203   0.055 -0.3409  0.3241 -0.0719
  652MOL0     O89886   5.376   9.382   0.159 -0.0848 -0.0876  0.2641
  652MOL0     C89887   5.668   9.291  -0.003 -0.7734  0.5778 -0.2980
  652MOL0     C89888   5.804   9.319  -0.019 -0.2318  0.3041  1.2740
  652MOL0     N89889   6.404   9.588  -0.186  0.7061  0.2270 -0.4262
  652MOL0     N89890   6.515   9.644  -0.234 -0.1815 -0.3268 -0.2420
  652MOL0     C89891   6.732   9.481   0.653 -1.1652  0.2925 -0.1576
  652MOL0     C89892   6.656   9.425   0.754 -0.2965 -0.7611 -0.3110
  652MOL0     C89893   6.403   9.164   0.965 -0.0884 -0.4027  1.4448
  652MOL0     C89894   6.276   9.164   1.019 -0.3443  0.4817  0.5825
  652MOL0     C89895   6.252   9.101   1.145 -0.9458 -0.0561  1.6159
  652MOL0     C89896   6.354   9.062   1.224 -0.4352  0.1893  0.8518
  652MOL0     O89897   6.312   9.005   1.343  0.0602 -0.8784  0.4912
  652MOL0     C89898   6.421   8.981   1.441  0.6478 -0.0523  0.2586
  652MOL0     C89899   6.363   8.933   1.581 -0.6788 -0.7261 -0.2029
  652MOL0     C89900   6.470   8.920   1.695  0.4022 -0.2868  0.0181
  652MOL0     C89901   6.446   8.806   1.797 -0.0209  0.0570  0.8824
  652MOL0     C89902   6.551   8.706   1.764  0.0471 -0.3129  0.2764
  652MOL0     C89903   6.640   8.622   1.729  1.0161  0.2155  0.2781
  652MOL0     C89904   6.479   9.066   1.170 -0.0045  1.0522  0.2583
  652MOL0     C89905   6.515   9.123   1.047  0.0040  0.1928 -0.1270
  652MOL0     C89906   6.655   9.115   1.003 -0.5172  1.3038  0.5337
  652MOL0     H89907   6.353   9.498   0.645 -0.3341  0.8627  0.1169
  652MOL0     H89908   6.477   9.611   0.463  0.7219 -2.2547 -4.2081
  652MOL0     H89909   6.896   9.492   0.405  0.9792 -0.0129 -0.5774
  652MOL0     H89910   6.961   9.627   0.493  0.0247  1.1341 -1.6195
  652MOL0     H89911   6.909   9.780   0.309  1.3500 -0.0283 -0.8862
  652MOL0     H89912   7.032   9.677   0.289  0.4540 -2.3266  1.0245
  652MOL0     H89913   6.871   9.517   0.183  3.2394 -0.0016  1.4634
  652MOL0     H89914   6.761   9.648   0.140 -0.3226 -4.1210 -1.4136
  652MOL0     H89915   7.008   9.746   0.043  0.7040 -0.4774  2.5676
  652MOL0     H89916   7.035   9.573   0.067 -2.6001 -2.1116  1.7155
  652MOL0     H89917   6.859   9.516  -0.090  2.6271 -1.4600 -1.1087
  652MOL0     H89918   6.990   9.600  -0.164  2.1085 -0.1148  1.9076
  652MOL0     H89919   6.727   9.727  -0.098  1.6155 -0.9204  2.4488
  652MOL0     H89920   6.879   9.818  -0.149  0.7757 -0.3953  0.1064
  652MOL0     H89921   6.899   9.710  -0.360  1.2572  1.0805  2.1851
  652MOL0     H89922   6.736   9.787  -0.329 -0.3050  0.7210  5.9489
  652MOL0     H89923   6.721   9.567  -0.467  3.0732 -1.5321 -0.9255
  652MOL0     H89924   6.802   9.486  -0.329 -0.2038 -1.2414 -2.2251
  652MOL0     H89925   6.601   9.342  -0.308 -4.4255 -2.5180 -0.2483
  652MOL0     H89926   6.348   9.310  -0.084 -1.2382 -1.9594 -0.3114
  652MOL0     H89927   6.407   9.241  -0.221  0.4420 -0.8220  3.1198
  652MOL0     H89928   6.206   9.365  -0.349 -2.5852 -0.8805 -0.4542
  652MOL0     H89929   6.167   9.220  -0.250  0.2672 -0.4267  0.6337
  652MOL0     H89930   6.155   9.514  -0.154 -3.2474  1.2690  4.5767
  652MOL0     H89931   6.010   9.436  -0.221 -1.2766  0.7508  1.4102
  652MOL0     H89932   6.055   9.268  -0.027  0.2029 -0.1308  3.2974
  652MOL0     H89933   6.191   9.368   0.031 -0.3888  0.4374  0.0522
  652MOL0     H89934   5.845   9.579   0.185 -1.7124  0.6494  0.6813
  652MOL0     H89935   5.509   9.624   0.215  0.3077  1.6923  0.2605
  652MOL0     H89936   5.654   9.647   0.298  0.3555 -0.0694 -1.7463
  652MOL0     H89937   5.553   9.524   0.356 -1.3136 -2.9431 -1.0596
  652MOL0     H89938   5.353   8.928   0.102  0.0416 -0.5853 -0.3351
  652MOL0     H89939   5.148   8.826   0.103  1.4308 -0.8836  0.9824
  652MOL0     H89940   4.807   8.999   0.204 -1.7796 -0.9653  0.4840
  652MOL0     H89941   4.778   9.084   0.063 -0.1788 -1.1864 -3.9460
  652MOL0     H89942   4.669   8.895  -0.048 -2.4212  0.3193 -0.3597
  652MOL0     H89943   4.696   8.799   0.105  1.7884  2.8889  2.8604
  652MOL0     H89944   4.465   8.864   0.072 -1.1707  2.7682 -2.8808
  652MOL0     H89945   4.499   9.035   0.066 -1.1418  0.0094  1.4768
  652MOL0     H89946   4.563   9.037   0.293 -0.3184  0.1124  1.7252
  652MOL0     H89947   4.589   8.853   0.289 -0.7926  0.7650  4.0726
  652MOL0     H89948   4.329   8.839   0.249  2.2338  0.0004 -2.0176
  652MOL0     H89949   4.400   8.887   0.410 -2.0617 -1.1293 -0.1051
  652MOL0     H89950   4.294   9.073   0.194  0.5340 -2.1752 -1.1812
  652MOL0     H89951   4.369   9.120   0.345 -1.1726 -0.6364  1.8290
  652MOL0     H89952   4.168   9.021   0.476 -0.9346  0.2344 -0.2651
  652MOL0     H89953   4.114   8.972   0.320 -0.6733  0.8519  0.0229
  652MOL0     H89954   4.017   9.202   0.404 -0.9331 -0.1878 -1.7903
  652MOL0     H89955   4.089   9.208   0.249 -1.6079 -1.0502  1.6584
  652MOL0     H89956   4.956   9.176  -0.008 -1.0737 -3.0563 -0.9456
  652MOL0     H89957   5.183   9.307   0.030 -1.8416  0.5034 -0.4413
  652MOL0     H89958   5.625   9.212  -0.065 -0.5798 -0.3737  0.7519
  652MOL0     H89959   5.860   9.264  -0.094 -3.5746 -0.7053 -0.7055
  652MOL0     H89960   6.839   9.478   0.668 -0.9448  1.7648 -1.2515
  652MOL0     H89961   6.679   9.378   0.849 -2.3934 -3.8891 -1.2080
  652MOL0     H89962   6.201   9.204   0.952  2.1184  2.0350 -1.4483
  652MOL0     H89963   6.149   9.089   1.174 -0.4269 -0.1176  3.5841
  652MOL0     H89964   6.473   8.896   1.398  1.7613 -0.7546  2.8200
  652MOL0     H89965   6.488   9.065   1.459 -0.7874  1.5516 -1.4556
  652MOL0     H89966   6.313   8.836   1.572 -2.2446  0.2078 -2.1127
  652MOL0     H89967   6.285   9.002   1.612 -0.1040 -0.7405  1.3943
  652MOL0     H89968   6.573   8.920   1.660  0.8309  2.6306  0.9933
  652MOL0     H89969   6.454   9.021   1.736 -0.5179  1.9614 -5.1366
  652MOL0     H89970   6.345   8.766   1.788 -0.4054  1.0829  0.4556
  652MOL0     H89971   6.466   8.852   1.895  2.5214  0.8429  0.0856
  652MOL0     H89972   6.707   8.548   1.690  1.6467  2.1075 -2.4419
  652MOL0     H89973   6.557   9.009   1.221  0.7039 -0.1216 -2.0008
  652MOL0     H89974   6.663   9.066   0.906 -1.2289  0.1176  1.0414
  652MOL0     H89975   6.698   9.215   1.000  2.9305 -0.0711 -0.5212
  652MOL0     H89976   6.718   9.071   1.081  1.2446  0.2639 -1.3725
  653MOL0     O89977   9.455  11.372   0.172 -0.2908  0.1006  0.3183
  653MOL0     C89978   9.414  11.414   0.067 -0.2265 -0.4361 -0.2475
  653MOL0     O89979   9.331  11.347  -0.021  0.0515  0.6729 -0.0691
  653MOL0     C89980   9.261  11.232   0.003 -0.6731 -0.4092  0.4676
  653MOL0     C89981   9.317  11.107   0.041  0.4992  0.0713  0.0956
  653MOL0     C89982   9.225  10.994   0.064 -0.3834  0.4512  0.3911
  653MOL0     C89983   9.088  10.999   0.050  0.2567  0.1152 -0.5019
  653MOL0     O89984   9.016  10.883   0.071 -0.0199  0.2015 -0.0595
  653MOL0     C89985   8.883  10.879   0.018 -0.6412  0.4053  0.3339
  653MOL0     C89986   8.843  10.732   0.021  0.1567 -0.2007  0.5712
  653MOL0     C89987   8.884  10.674   0.160  0.2906  0.4869 -0.8077
  653MOL0     C89988   8.794  10.548   0.186 -0.7718  0.3403  0.7398
  653MOL0     C89989   8.818  10.475   0.315  0.6995  0.1102  0.2295
  653MOL0     C89990   8.960  10.417   0.343 -0.7499 -0.0044  0.0381
  653MOL0     C89991   8.966  10.313   0.458  0.1321 -0.7100  0.5605
  653MOL0     C89992   8.933  10.384   0.599 -0.0988  0.6078 -0.6039
  653MOL0     N89993   9.037  10.484   0.635 -1.3072  0.1365 -0.4116
  653MOL0     C89994   9.164  10.464   0.686 -1.2277  0.1036  0.3493
  653MOL0     C89995   9.219  10.583   0.682 -0.0654  0.5504  0.1771
  653MOL0     C89996   9.364  10.622   0.675 -0.1331 -0.6836 -0.4388
  653MOL0     C89997   9.414  10.624   0.827  0.6440  0.2436  0.0472
  653MOL0     C89998   9.486  10.487   0.873 -0.5002 -0.5003  0.3888
  653MOL0     C89999   9.614  10.452   0.799 -0.4768 -0.1649  0.1542
  653MOL0     O90000   9.691  10.567   0.727 -0.5639  0.1832 -0.8727
  653MOL0     C90001   9.807  10.521   0.666  0.5507 -0.5563 -0.4573
  653MOL0     C90002   9.881  10.619   0.604  0.2316 -0.4350  0.2124
  653MOL0     C90003  10.003  10.595   0.536  0.5714  0.0750 -0.4333
  653MOL0     C90004  10.080  10.723   0.496 -0.2785  0.2202 -0.4566
  653MOL0     C90005  10.052  10.461   0.532 -0.0103  0.3586 -0.2725
  653MOL0     C90006  10.180  10.426   0.463 -0.2635  0.1331  0.2529
  653MOL0     O90007  10.249  10.315   0.507  0.8824 -0.3167  1.3353
  653MOL0     C90008  10.364  10.307   0.434 -0.1895  0.3167  1.0009
  653MOL0     C90009  10.349  10.240   0.308 -0.2970  0.3022  0.6264
  653MOL0     C90010  10.470  10.223   0.240  0.5448  0.4375  0.4029
  653MOL0     C90011  10.598  10.276   0.275 -0.0118  0.5886 -0.6137
  653MOL0     O90012  10.716  10.266   0.201  1.0753  0.0952  0.3550
  653MOL0     C90013  10.744  10.138   0.139 -0.1370 -0.0516  0.1653
  653MOL0     C90014  10.751  10.023   0.241 -0.4156  0.2876 -0.1716
  653MOL0     C90015  10.882  10.030   0.336 -0.0860  0.0197  0.8702
  653MOL0     C90016  10.893   9.902   0.408  0.5191  0.3887 -0.3464
  653MOL0     C90017  11.017   9.902   0.498  0.2173 -0.3130  0.9574
  653MOL0     C90018  10.995   9.979   0.630  0.6909  0.3029  0.6291
  653MOL0     C90019  11.124   9.949   0.719 -0.1492  0.4153  0.4302
  653MOL0     C90020  11.080   9.867   0.845  1.0287  0.2705  0.6642
  653MOL0    Cl90021  10.990   9.977   0.940  0.9558  0.1815  0.5284
  653MOL0     C90022  10.604  10.326   0.410 -1.3987 -0.0206  0.7670
  653MOL0     C90023  10.489  10.352   0.488  0.6082  0.5697 -0.4920
  653MOL0     O90024  10.208  10.495   0.360 -0.3551  0.1950  0.1970
  653MOL0     C90025   9.985  10.354   0.610  0.1915 -0.2374  0.7220
  653MOL0     C90026   9.859  10.386   0.667 -0.1472 -0.8547 -0.1660
  653MOL0     N90027   9.123  10.677   0.648 -0.3372 -0.6887  0.0411
  653MOL0     N90028   9.026  10.617   0.606  1.1968  0.0156 -0.3780
  653MOL0     C90029   9.036  11.124   0.007  0.4439 -0.7473 -0.2414
  653MOL0     C90030   9.117  11.237  -0.014 -0.2991 -0.5575  0.4255
  653MOL0     C90031   9.460  11.552   0.007  0.2858 -0.0225 -0.9964
  653MOL0     C90032   9.404  11.593  -0.111 -0.5372 -0.3570  0.0480
  653MOL0     C90033   9.449  11.711  -0.169  0.0502 -0.9734  0.3674
  653MOL0     C90034   9.546  11.796  -0.103 -0.1233 -0.3679 -0.0854
  653MOL0     O90035   9.596  11.915  -0.159 -0.4561  0.2085 -0.4139
  653MOL0     C90036   9.499  11.996  -0.214  0.2988  0.4294  0.6055
  653MOL0     C90037   9.544  12.133  -0.178 -0.6563 -0.3239 -0.5996
  653MOL0     C90038   9.661  12.169  -0.264 -0.0710  0.6076  0.3743
  653MOL0     C90039   9.782  12.231  -0.196 -1.0919 -0.2946  0.1508
  653MOL0     C90040   9.860  12.147  -0.106 -0.7575  1.1154  0.3383
  653MOL0     C90041   9.927  12.110  -0.010 -0.0092  0.2044 -0.7284
  653MOL0     C90042   9.600  11.753   0.017  0.1420 -0.5629 -1.0149
  653MOL0     C90043   9.561  11.629   0.071 -0.4396  0.1419  0.5039
  653MOL0     C90044   9.647  11.583   0.194 -0.1111 -1.0583 -0.2836
  653MOL0     H90045   9.423  11.084   0.047 -0.1164 -3.0111  1.1674
  653MOL0     H90046   9.262  10.897   0.097  1.3759  1.2573  0.9111
  653MOL0     H90047   8.873  10.907  -0.087  1.7956 -1.6245 -0.5440
  653MOL0     H90048   8.817  10.941   0.079 -2.1791 -0.1021 -0.7713
  653MOL0     H90049   8.734  10.723   0.010 -0.4850  3.0155  2.8774
  653MOL0     H90050   8.903  10.680  -0.054  1.6205 -0.1425  1.6488
  653MOL0     H90051   8.983  10.628   0.152  0.6406  1.1271 -0.2860
  653MOL0     H90052   8.873  10.748   0.239 -2.5943  1.3187 -1.8861
  653MOL0     H90053   8.687  10.573   0.187 -1.6100 -2.8287  1.7422
  653MOL0     H90054   8.808  10.486   0.097 -1.9420 -0.2102  0.9191
  653MOL0     H90055   8.746  10.393   0.318 -0.8954  1.3236 -2.2863
  653MOL0     H90056   8.792  10.538   0.401  2.3683 -4.1744  4.3355
  653MOL0     H90057   8.999  10.360   0.258  1.7311 -0.0878  1.1276
  653MOL0     H90058   9.032  10.498   0.362 -2.3029  1.3182  0.4729
  653MOL0     H90059   9.060  10.258   0.461 -0.7528 -2.2647  1.0809
  653MOL0     H90060   8.890  10.236   0.440 -0.0822 -0.4576  0.3582
  653MOL0     H90061   8.834  10.430   0.602 -2.0485 -3.2110  0.8262
  653MOL0     H90062   8.938  10.303   0.672 -2.4877 -0.8197 -1.8730
  653MOL0     H90063   9.217  10.371   0.700  1.4654  1.5146  0.2188
  653MOL0     H90064   9.372  10.722   0.632 -3.9362  0.4961  1.1128
  653MOL0     H90065   9.420  10.555   0.610  0.6401 -0.9003  0.4391
  653MOL0     H90066   9.487  10.705   0.835  0.4014  0.3076  2.8429
  653MOL0     H90067   9.329  10.633   0.896  0.9243 -1.8920  0.7589
  653MOL0     H90068   9.506  10.500   0.980  0.0307 -1.0100  0.3556
  653MOL0     H90069   9.404  10.414   0.863  0.5071 -1.3907 -2.6281
  653MOL0     H90070   9.684  10.406   0.870 -0.1559  1.2380  0.7996
  653MOL0     H90071   9.589  10.376   0.725 -3.9278  0.0701  0.9409
  653MOL0     H90072   9.843  10.721   0.608  1.8269  0.2818 -1.4045
  653MOL0     H90073  10.060  10.814   0.554 -2.2695 -0.8867  0.6907
  653MOL0     H90074  10.051  10.754   0.394  0.7996  1.9831 -0.2658
  653MOL0     H90075  10.186  10.697   0.500 -0.7806 -1.8451  1.8341
  653MOL0     H90076  10.260  10.185   0.278 -1.0207  0.0370  3.0087
  653MOL0     H90077  10.461  10.161   0.151  1.5228 -1.1120  1.3260
  653MOL0     H90078  10.696  10.124   0.041 -1.4685  0.0424  0.7736
  653MOL0     H90079  10.847  10.151   0.104 -1.1445 -0.0527 -3.2262
  653MOL0     H90080  10.655  10.021   0.293 -2.5055  1.2778 -3.6298
  653MOL0     H90081  10.759   9.934   0.178 -1.3738 -0.2293  0.4152
  653MOL0     H90082  10.876  10.118   0.400  1.7100  2.8873 -2.5497
  653MOL0     H90083  10.967  10.051   0.270 -1.6959  1.1440 -0.9858
  653MOL0     H90084  10.907   9.816   0.342  2.2797 -1.0117  1.7198
  653MOL0     H90085  10.805   9.893   0.473  0.4666  2.7638  0.0138
  653MOL0     H90086  11.043   9.798   0.520 -1.0686 -1.2921 -1.7131
  653MOL0     H90087  11.100   9.945   0.440 -0.0556  2.6704  2.5774
  653MOL0     H90088  10.900   9.955   0.678  0.4313  0.7186  0.3257
  653MOL0     H90089  10.996  10.086   0.609  0.6957  0.8654  3.1172
  653MOL0     H90090  11.175  10.037   0.758 -0.2028  0.0390  1.3800
  653MOL0     H90091  11.196   9.897   0.655  0.9795  1.3212  0.9288
  653MOL0     H90092  11.159   9.839   0.914  3.1645  3.1705 -0.3980
  653MOL0     H90093  11.033   9.779   0.799 -0.1824  1.5362 -0.6591
  653MOL0     H90094  10.699  10.354   0.454 -1.2724  0.6117  0.1223
  653MOL0     H90095  10.481  10.407   0.581  3.5006  0.2130  0.0456
  653MOL0     H90096  10.018  10.254   0.636 -1.7992 -0.9947  0.4386
  653MOL0     H90097   9.813  10.307   0.726  2.1497 -2.2034 -0.0614
  653MOL0     H90098   8.929  11.125  -0.011  0.3693 -2.3732  0.0200
  653MOL0     H90099   9.071  11.328  -0.052  2.5595  0.9599  0.2636
  653MOL0     H90100   9.323  11.544  -0.164 -0.2641 -2.0015  1.0745
  653MOL0     H90101   9.418  11.735  -0.270  2.5536  0.3103 -0.1969
  653MOL0     H90102   9.496  11.978  -0.322  2.4671  1.3317  0.3479
  653MOL0     H90103   9.396  11.983  -0.179  1.0514  0.2166  2.9044
  653MOL0     H90104   9.573  12.154  -0.074 -1.9995  1.7959 -0.5960
  653MOL0     H90105   9.461  12.201  -0.198 -3.0503 -2.7942  0.4658
  653MOL0     H90106   9.699  12.078  -0.312  0.0367  0.8175  0.0576
  653MOL0     H90107   9.627  12.227  -0.351  0.6246 -1.8914 -1.7031
  653MOL0     H90108   9.750  12.321  -0.142  2.6612  0.6988  0.9825
  653MOL0     H90109   9.850  12.269  -0.274  2.1758 -0.7045  2.5797
  653MOL0     H90110   9.977  12.080   0.080 -0.4444  0.6322 -0.3348
  653MOL0     H90111   9.677  11.805   0.074  0.5735 -3.0353  0.8329
  653MOL0     H90112   9.600  11.538   0.282 -3.9576  0.3185 -1.4494
  653MOL0     H90113   9.726  11.519   0.154  0.0672 -0.6398 -0.6104
  653MOL0     H90114   9.691  11.673   0.240 -0.1081 -2.7930  3.4620
  654MOL0     O90115   8.372   1.813   5.576 -0.8399 -0.1320 -0.1125
  654MOL0     C90116   8.368   1.851   5.695  0.6436 -0.2642 -0.4680
  654MOL0     O90117   8.372   1.765   5.801 -0.9727 -0.2815 -0.4810
  654MOL0     C90118   8.374   1.629   5.769  0.1549 -0.7730  0.2750
  654MOL0     C90119   8.273   1.561   5.692 -0.2383  0.4048 -0.8156
  654MOL0     C90120   8.279   1.423   5.672 -0.2537 -0.8957 -0.1943
  654MOL0     C90121   8.391   1.353   5.711  1.0252 -0.5356 -0.5165
  654MOL0     O90122   8.371   1.218   5.704  0.3214 -0.3394  0.2044
  654MOL0     C90123   8.482   1.126   5.734 -0.0710  0.2041 -0.0149
  654MOL0     C90124   8.531   1.036   5.608  0.2887  0.0967 -0.3001
  654MOL0     C90125   8.431   0.923   5.564 -0.2106 -0.9130  0.5784
  654MOL0     C90126   8.506   0.842   5.451 -0.3106 -0.7753  0.2434
  654MOL0     C90127   8.434   0.707   5.418 -0.4472  0.1996 -0.1165
  654MOL0     C90128   8.448   0.599   5.521  0.4688  0.6970 -0.3916
  654MOL0     C90129   8.431   0.466   5.452 -1.1307 -0.2061  0.7013
  654MOL0     C90130   8.419   0.358   5.562  1.2264  0.4974 -0.6724
  654MOL0     N90131   8.526   0.335   5.659  0.5163 -0.4277 -0.5628
  654MOL0     C90132   8.659   0.344   5.648  0.3990  0.3895  0.5009
  654MOL0     C90133   8.712   0.297   5.757 -0.3190  0.5756  0.6523
  654MOL0     C90134   8.860   0.300   5.802  0.2060  0.4690  0.1624
  654MOL0     C90135   8.966   0.267   5.687 -0.0339  0.0234 -0.7461
  654MOL0     C90136   9.098   0.222   5.747 -0.1453  0.3458  0.0351
  654MOL0     C90137   9.119   0.073   5.740 -0.2481  0.7697  0.0986
  654MOL0     O90138   9.205   0.032   5.846  0.3950 -0.3251  0.6752
  654MOL0     C90139   9.332  -0.015   5.824 -0.1800 -0.6491  0.2497
  654MOL0     C90140   9.418   0.051   5.732 -0.4363  0.1674 -0.4635
  654MOL0     C90141   9.549  -0.005   5.709 -0.4197 -0.3845  0.6623
  654MOL0     C90142   9.632   0.052   5.595 -0.3543 -0.0263  0.6612
  654MOL0     C90143   9.579  -0.128   5.767  0.3551  0.4256  0.6224
  654MOL0     C90144   9.706  -0.201   5.744 -0.0535 -0.2759  0.3549
  654MOL0     O90145   9.769  -0.188   5.618 -0.2089  0.1970  0.7106
  654MOL0     C90146   9.908  -0.198   5.604 -0.0110  0.1716  0.0866
  654MOL0     C90147   9.987  -0.142   5.708 -0.7209  0.1731 -0.0095
  654MOL0     C90148  10.124  -0.117   5.690  0.9414 -0.2073 -0.5368
  654MOL0     C90149  10.191  -0.145   5.558  0.2110 -0.4395 -0.4838
  654MOL0     O90150  10.322  -0.128   5.532 -0.2979 -0.4085 -0.5766
  654MOL0     C90151  10.421  -0.160   5.636  0.3956  0.4170  0.0532
  654MOL0     C90152  10.473  -0.312   5.642  0.1371  1.4793  1.5789
  654MOL0     C90153  10.537  -0.370   5.511 -0.6096  0.8263 -0.3300
  654MOL0     C90154  10.548  -0.527   5.520  0.3957 -0.3557  0.5087
  654MOL0     C90155  10.648  -0.584   5.611  0.0478  0.6564 -0.1544
  654MOL0     C90156  10.796  -0.559   5.563 -0.2438  0.4259 -0.0288
  654MOL0     C90157  10.898  -0.578   5.680 -0.2252 -0.0379  0.9701
  654MOL0     C90158  11.045  -0.583   5.641 -0.0590 -0.6027  1.2357
  654MOL0    Cl90159  11.081  -0.410   5.585 -0.4854  0.1154 -0.1911
  654MOL0     C90160  10.113  -0.207   5.468  0.9222  0.1130 -0.3965
  654MOL0     C90161   9.977  -0.235   5.484  0.5957 -0.5007 -0.5276
  654MOL0     O90162   9.731  -0.281   5.834 -0.3566 -0.7112 -0.0882
  654MOL0     C90163   9.488  -0.193   5.849  0.0120  1.0362 -0.9584
  654MOL0     C90164   9.369  -0.132   5.890  0.2165  0.1147 -0.6848
  654MOL0     N90165   8.618   0.225   5.829  1.3830 -0.7342  0.2508
  654MOL0     N90166   8.499   0.257   5.771 -0.5667 -0.6964 -0.8545
  654MOL0     C90167   8.504   1.423   5.761 -0.2888  0.8645 -0.7932
  654MOL0     C90168   8.488   1.557   5.798 -0.3277 -0.0662  0.6784
  654MOL0     C90169   8.361   1.994   5.728 -0.2672 -0.1176 -0.6663
  654MOL0     C90170   8.369   2.030   5.865 -0.5088  0.2861 -0.7645
  654MOL0     C90171   8.348   2.165   5.901 -0.0380  0.8886 -0.0447
  654MOL0     C90172   8.339   2.263   5.804  0.2665 -0.4245  0.6616
  654MOL0     O90173   8.301   2.390   5.829 -0.5501 -0.2899 -0.4616
  654MOL0     C90174   8.267   2.434   5.966  0.4196 -0.6049  0.0730
  654MOL0     C90175   8.388   2.490   6.037 -0.9149 -0.0452 -0.1596
  654MOL0     C90176   8.473   2.394   6.130  0.6994 -0.9978  0.0827
  654MOL0     C90177   8.393   2.336   6.251 -0.0619 -0.0986 -0.1684
  654MOL0     C90178   8.348   2.440   6.343  0.3211  0.9383  0.4418
  654MOL0     C90179   8.307   2.524   6.425  0.0042 -0.3935 -0.2155
  654MOL0     C90180   8.340   2.226   5.668  0.0092  0.5033 -0.4528
  654MOL0     C90181   8.348   2.092   5.625  0.1194 -0.4058 -0.0643
  654MOL0     C90182   8.348   2.072   5.478  0.4816  0.0198 -0.1866
  654MOL0     H90183   8.178   1.609   5.671 -0.8330  0.0657  0.9512
  654MOL0     H90184   8.200   1.368   5.621 -2.4849 -0.1552  2.2145
  654MOL0     H90185   8.459   1.048   5.808  3.5745 -0.0956  0.9867
  654MOL0     H90186   8.568   1.180   5.775 -1.2277  2.4406 -0.3543
  654MOL0     H90187   8.569   1.098   5.526 -0.0598  1.3992  0.4817
  654MOL0     H90188   8.625   0.992   5.644  0.4938  0.3839 -0.4787
  654MOL0     H90189   8.395   0.851   5.638 -0.3480 -2.5276 -0.9899
  654MOL0     H90190   8.344   0.977   5.525  0.2699 -0.8744 -0.4826
  654MOL0     H90191   8.509   0.910   5.366 -2.1508  0.8383  1.3808
  654MOL0     H90192   8.605   0.834   5.498 -1.5727  1.7886  3.7255
  654MOL0     H90193   8.461   0.670   5.319 -3.4365 -0.4209 -0.8218
  654MOL0     H90194   8.327   0.717   5.395 -0.0314  2.0405 -1.4955
  654MOL0     H90195   8.546   0.600   5.571 -0.2419 -1.9879  1.2586
  654MOL0     H90196   8.374   0.609   5.601  2.2497 -2.7243  1.9716
  654MOL0     H90197   8.524   0.442   5.401 -0.5457  0.7084  1.3083
  654MOL0     H90198   8.350   0.469   5.378  1.1944  0.4764 -1.9711
  654MOL0     H90199   8.320   0.364   5.607  2.1243  0.7230  1.3642
  654MOL0     H90200   8.414   0.263   5.507 -0.1529  0.1662 -0.0166
  654MOL0     H90201   8.714   0.395   5.570  3.5487 -2.6310  0.5128
  654MOL0     H90202   8.853   0.224   5.880  0.1075  1.2931  0.9669
  654MOL0     H90203   8.883   0.390   5.858 -2.0376  0.3721  1.3600
  654MOL0     H90204   8.929   0.200   5.609  0.1472  0.2818 -1.0544
  654MOL0     H90205   8.980   0.355   5.624  0.1656  0.1237 -0.5624
  654MOL0     H90206   9.181   0.267   5.691 -0.4132 -0.0918 -0.7218
  654MOL0     H90207   9.103   0.272   5.844 -2.0877 -0.2764  0.4874
  654MOL0     H90208   9.023   0.023   5.752  0.5951 -0.2483  3.8735
  654MOL0     H90209   9.161   0.039   5.645 -0.5415  1.6381 -0.3574
  654MOL0     H90210   9.376   0.140   5.687  1.5179  0.8568 -1.0370
  654MOL0     H90211   9.575   0.128   5.540 -3.9350 -1.3813  2.1751
  654MOL0     H90212   9.679  -0.010   5.518  1.2667  1.8033  0.0996
  654MOL0     H90213   9.718   0.102   5.640 -0.9405  0.3659  1.3667
  654MOL0     H90214   9.944  -0.102   5.800  1.4200  0.5383  0.9104
  654MOL0     H90215  10.170  -0.092   5.785 -1.6712 -4.0420  2.0241
  654MOL0     H90216  10.507  -0.095   5.620 -0.9206  2.7788  1.9753
  654MOL0     H90217  10.380  -0.140   5.735  0.7259  2.5874 -0.2114
  654MOL0     H90218  10.559  -0.306   5.708 -1.2929 -0.5851  3.8121
  654MOL0     H90219  10.406  -0.379   5.697 -0.2665 -1.3493 -2.0011
  654MOL0     H90220  10.633  -0.322   5.488 -0.2494  2.2822  3.5517
  654MOL0     H90221  10.473  -0.363   5.423 -1.8538 -0.8089  0.3924
  654MOL0     H90222  10.574  -0.575   5.425 -1.4301  0.7874 -0.6398
  654MOL0     H90223  10.444  -0.558   5.536  0.0954  0.1384 -0.3863
  654MOL0     H90224  10.631  -0.551   5.714 -0.8400  3.2211 -1.0285
  654MOL0     H90225  10.638  -0.692   5.606 -0.6222  0.6830  0.5053
  654MOL0     H90226  10.821  -0.463   5.516  0.5598  0.4450  0.4128
  654MOL0     H90227  10.806  -0.633   5.483  3.7940 -1.6589  2.0818
  654MOL0     H90228  10.869  -0.676   5.720  1.5287 -0.0847  2.2691
  654MOL0     H90229  10.897  -0.504   5.760 -2.0511 -1.1166  2.0089
  654MOL0     H90230  11.057  -0.653   5.558 -2.7882  2.2030 -1.8561
  654MOL0     H90231  11.101  -0.610   5.731 -3.4910 -1.4271  3.3264
  654MOL0     H90232  10.153  -0.233   5.370 -0.4673  1.3669 -1.3512
  654MOL0     H90233   9.924  -0.278   5.400  0.7558 -0.9741 -0.3843
  654MOL0     H90234   9.508  -0.287   5.900 -1.2654  0.0561 -2.1969
  654MOL0     H90235   9.293  -0.165   5.960  0.9029 -1.5245 -0.6726
  654MOL0     H90236   8.602   1.380   5.776 -0.8683 -1.1264 -2.2394
  654MOL0     H90237   8.570   1.614   5.841  0.8312 -0.9698 -0.2963
  654MOL0     H90238   8.371   1.948   5.936 -0.2181  1.2872  0.4295
  654MOL0     H90239   8.346   2.184   6.008  1.9593 -0.8160  0.3553
  654MOL0     H90240   8.192   2.513   5.962  2.2457  1.2752  0.9824
  654MOL0     H90241   8.225   2.358   6.032  1.2134 -0.1694  1.1060
  654MOL0     H90242   8.359   2.575   6.099  1.9125  0.6452  0.3854
  654MOL0     H90243   8.457   2.521   5.958 -2.2255 -1.4782 -1.9594
  654MOL0     H90244   8.497   2.313   6.060 -3.3585 -0.2554 -2.5320
  654MOL0     H90245   8.559   2.449   6.169  0.6253 -0.2884 -0.7143
  654MOL0     H90246   8.466   2.267   6.295 -2.3105 -2.7525 -0.3169
  654MOL0     H90247   8.311   2.274   6.216 -0.6748 -0.5907  1.9539
  654MOL0     H90248   8.262   2.603   6.482 -2.1130 -2.4322  1.1563
  654MOL0     H90249   8.324   2.314   5.606 -0.9154  0.7858  0.1593
  654MOL0     H90250   8.433   2.017   5.437  1.3800  1.8902 -0.9020
  654MOL0     H90251   8.250   2.023   5.471  0.2161  0.4735  0.3174
  654MOL0     H90252   8.330   2.161   5.418  0.2275 -1.0807 -1.7995
  655MOL0     O90253   1.283   9.189   6.355 -0.0100  0.9884  0.6694
  655MOL0     C90254   1.287   9.256   6.457  0.0379  1.2227 -0.4032
  655MOL0     O90255   1.311   9.385   6.463  0.3049  0.0412 -0.4848
  655MOL0     C90256   1.351   9.461   6.357 -1.0455  0.6771 -0.1671
  655MOL0     C90257   1.297   9.466   6.225 -0.4571  0.0897 -0.0923
  655MOL0     C90258   1.341   9.561   6.137  0.1034  0.2739  0.3847
  655MOL0     C90259   1.447   9.640   6.163 -0.7102 -0.3754 -0.6851
  655MOL0     O90260   1.490   9.732   6.072  0.1623  0.4484 -0.8165
  655MOL0     C90261   1.621   9.795   6.088  1.4632 -0.8224  0.7540
  655MOL0     C90262   1.631   9.884   5.966 -0.0049 -0.6951 -0.1403
  655MOL0     C90263   1.665   9.810   5.834 -0.0500  0.5024 -0.2599
  655MOL0     C90264   1.799   9.759   5.837  1.0121  0.1875  0.3079
  655MOL0     C90265   1.859   9.696   5.715  0.5158  0.5184  0.3453
  655MOL0     C90266   2.004   9.640   5.733 -0.2714 -1.0953  0.8939
  655MOL0     C90267   2.043   9.588   5.600 -0.7945  1.2022 -0.1913
  655MOL0     C90268   2.194   9.568   5.579  0.7822  0.5488  0.2614
  655MOL0     N90269   2.207   9.485   5.464 -0.1795  1.0006 -0.5317
  655MOL0     C90270   2.228   9.529   5.334 -0.1422 -0.0094  0.0209
  655MOL0     C90271   2.237   9.420   5.257  0.6144 -0.7359 -1.3376
  655MOL0     C90272   2.265   9.431   5.111  0.2968  0.5611 -0.7894
  655MOL0     C90273   2.392   9.341   5.079 -0.4990 -0.1053  0.3283
  655MOL0     C90274   2.441   9.343   4.945  0.1721  0.3427  1.0091
  655MOL0     C90275   2.547   9.231   4.910 -0.0741  0.2280 -0.5934
  655MOL0     O90276   2.652   9.233   5.013  0.9223 -0.3260 -0.4786
  655MOL0     C90277   2.746   9.124   5.007  1.3388  0.3552  0.0422
  655MOL0     C90278   2.739   9.006   4.925  0.7338 -0.4759 -0.6928
  655MOL0     C90279   2.819   8.895   4.944 -0.0615 -0.0392  0.0861
  655MOL0     C90280   2.808   8.772   4.855 -0.2876 -0.8346  0.0619
  655MOL0     C90281   2.933   8.911   5.028  0.6932 -0.4007 -0.4155
  655MOL0     C90282   3.042   8.808   5.037 -0.6117 -0.5911 -0.4444
  655MOL0     O90283   3.167   8.855   5.041 -0.2197 -0.1810  0.1454
  655MOL0     C90284   3.257   8.779   5.115 -0.2289 -0.0292  0.5292
  655MOL0     C90285   3.312   8.659   5.069 -0.1540 -0.1997  0.3170
  655MOL0     C90286   3.417   8.591   5.121  0.9229 -0.1334 -0.3171
  655MOL0     C90287   3.450   8.627   5.253  0.4603 -0.8203 -0.0154
  655MOL0     O90288   3.536   8.565   5.339  0.7106  0.7712  0.1326
  655MOL0     C90289   3.568   8.432   5.305 -0.8882 -0.9264  0.1142
  655MOL0     C90290   3.691   8.426   5.227  0.2199  0.6348 -0.1263
  655MOL0     C90291   3.811   8.493   5.288  0.0248 -0.1167 -0.1420
  655MOL0     C90292   3.929   8.486   5.188  0.2336  0.9061 -0.2584
  655MOL0     C90293   3.977   8.344   5.135 -0.1300 -0.5067 -0.1072
  655MOL0     C90294   4.015   8.254   5.258 -0.0204  0.0635  0.3736
  655MOL0     C90295   4.078   8.120   5.209 -0.1717  0.1034 -0.4672
  655MOL0     C90296   4.116   8.034   5.322 -0.7207 -0.4131  0.3105
  655MOL0    Cl90297   4.132   7.859   5.258 -0.3476  0.0979 -0.3112
  655MOL0     C90298   3.402   8.752   5.298 -0.1902  0.2055 -0.3822
  655MOL0     C90299   3.313   8.831   5.227  0.9693  0.4312 -0.1719
  655MOL0     O90300   3.016   8.696   5.054 -0.3180 -0.1041 -0.0139
  655MOL0     C90301   2.941   9.038   5.105 -0.3665  0.3474  1.7651
  655MOL0     C90302   2.849   9.141   5.091 -0.0839 -0.0969  0.4962
  655MOL0     N90303   2.225   9.307   5.342 -0.3079 -0.1229  0.2516
  655MOL0     N90304   2.201   9.350   5.465  0.6209 -0.5154  0.1404
  655MOL0     C90305   1.511   9.630   6.292 -0.9647 -0.0924  0.1358
  655MOL0     C90306   1.460   9.544   6.390  0.7351  0.3821 -0.9093
  655MOL0     C90307   1.233   9.193   6.582  0.1884 -0.3112 -0.1189
  655MOL0     C90308   1.188   9.058   6.588  0.6395  0.6385 -0.0882
  655MOL0     C90309   1.138   8.993   6.700 -0.1730 -0.5754  0.2446
  655MOL0     C90310   1.132   9.066   6.818 -0.5503 -0.6878  0.8708
  655MOL0     O90311   1.108   9.011   6.933 -0.6702  1.1545 -0.1232
  655MOL0     C90312   1.031   8.894   6.938 -0.3686  0.1970  0.1732
  655MOL0     C90313   1.095   8.806   7.048  0.0012  0.2132 -0.9098
  655MOL0     C90314   1.011   8.695   7.096 -0.1154 -0.3367 -0.0388
  655MOL0     C90315   1.090   8.577   7.155 -0.5184  0.0285 -0.2207
  655MOL0     C90316   1.162   8.618   7.275  0.6887 -0.5390 -0.8427
  655MOL0     C90317   1.198   8.651   7.380  0.0672 -0.1582  0.5939
  655MOL0     C90318   1.170   9.201   6.823 -0.4014 -0.0114 -0.6299
  655MOL0     C90319   1.215   9.269   6.710  0.0789  0.1433  0.7549
  655MOL0     C90320   1.262   9.407   6.729  0.5966  0.1664  1.2657
  655MOL0     H90321   1.204   9.415   6.199  0.0370 -0.2220 -1.2865
  655MOL0     H90322   1.295   9.563   6.039  2.2156 -1.6092 -0.7337
  655MOL0     H90323   1.707   9.727   6.088  1.7187 -0.5369 -0.8365
  655MOL0     H90324   1.629   9.854   6.180 -0.4352  0.9652 -0.1415
  655MOL0     H90325   1.541   9.943   5.949  0.5992  1.1047  2.3262
  655MOL0     H90326   1.704   9.957   6.002  2.2758 -1.5423 -2.7278
  655MOL0     H90327   1.591   9.732   5.814 -0.2160  0.5659  0.0923
  655MOL0     H90328   1.657   9.872   5.744 -3.7826 -1.2660 -1.3526
  655MOL0     H90329   1.862   9.844   5.866 -2.7423  2.8855  1.3209
  655MOL0     H90330   1.818   9.693   5.923 -1.9499  0.3358  1.1680
  655MOL0     H90331   1.847   9.777   5.642 -5.1193  0.4261  0.7057
  655MOL0     H90332   1.792   9.614   5.688  1.2567 -0.2903  0.8866
  655MOL0     H90333   2.047   9.738   5.757 -0.8101 -0.8916  1.0382
  655MOL0     H90334   2.029   9.574   5.817  0.0875 -1.9267  0.1559
  655MOL0     H90335   2.008   9.656   5.522  1.3717 -0.9814 -3.3064
  655MOL0     H90336   1.998   9.489   5.587  1.8142 -0.3320  1.4257
  655MOL0     H90337   2.241   9.663   5.552  2.4017 -1.3757 -4.8819
  655MOL0     H90338   2.242   9.516   5.663  0.2703  0.8993  0.7779
  655MOL0     H90339   2.245   9.633   5.310 -0.8890  0.3032  0.8090
  655MOL0     H90340   2.281   9.532   5.072  0.3520  1.0496  0.4549
  655MOL0     H90341   2.180   9.383   5.060  1.4640 -1.2174 -1.1501
  655MOL0     H90342   2.474   9.381   5.138 -0.2904 -1.7826  1.2511
  655MOL0     H90343   2.367   9.239   5.113  1.4626 -0.7330  0.0018
  655MOL0     H90344   2.355   9.328   4.879  1.9061 -1.1511 -1.0396
  655MOL0     H90345   2.484   9.441   4.925 -1.5491  1.6339  3.1668
  655MOL0     H90346   2.505   9.130   4.910  0.7442 -0.1849 -3.0374
  655MOL0     H90347   2.580   9.244   4.806 -1.3112 -0.8986 -1.1686
  655MOL0     H90348   2.660   8.999   4.850 -0.5183  2.1585  0.2524
  655MOL0     H90349   2.887   8.745   4.785 -1.7674 -1.8404 -1.2708
  655MOL0     H90350   2.717   8.779   4.796  0.1875  1.8143 -0.4737
  655MOL0     H90351   2.786   8.683   4.915 -3.5293  1.0366  1.9274
  655MOL0     H90352   3.276   8.629   4.971 -0.0032 -2.6084  0.9147
  655MOL0     H90353   3.467   8.502   5.083 -1.3371 -3.0508  2.9376
  655MOL0     H90354   3.598   8.382   5.398  2.1508 -1.4615 -1.0410
  655MOL0     H90355   3.491   8.372   5.255 -1.0127 -0.9037  0.2760
  655MOL0     H90356   3.717   8.322   5.205  0.8257  0.6099  0.6794
  655MOL0     H90357   3.668   8.473   5.130 -3.4667 -0.7361 -0.1057
  655MOL0     H90358   3.836   8.423   5.368 -2.9398 -1.2189 -0.0621
  655MOL0     H90359   3.782   8.590   5.329 -0.9849 -0.5288  0.1281
  655MOL0     H90360   4.027   8.514   5.228  0.7918  0.5063 -1.3228
  655MOL0     H90361   3.908   8.555   5.106 -1.0631 -1.5006 -2.0762
  655MOL0     H90362   3.892   8.297   5.086 -0.6396 -0.4204  0.6727
  655MOL0     H90363   4.057   8.343   5.060 -1.9543  1.6060 -2.2382
  655MOL0     H90364   3.929   8.238   5.324  0.6441  2.5802  1.9734
  655MOL0     H90365   4.093   8.297   5.322  1.4154 -2.8934  0.7848
  655MOL0     H90366   4.163   8.140   5.143  0.4815 -1.2458 -0.0569
  655MOL0     H90367   4.005   8.065   5.148 -1.7655  2.8799 -1.2498
  655MOL0     H90368   4.045   8.031   5.406  0.4776 -1.1679  1.3340
  655MOL0     H90369   4.212   8.065   5.363 -0.4967 -0.5869 -0.0826
  655MOL0     H90370   3.432   8.787   5.396 -2.4858  3.9177 -0.8032
  655MOL0     H90371   3.293   8.934   5.253 -0.1811 -0.5484  3.3436
  655MOL0     H90372   3.030   9.039   5.167  0.1634 -1.7209  1.1229
  655MOL0     H90373   2.862   9.232   5.149  0.2865 -0.3153  0.7628
  655MOL0     H90374   1.602   9.686   6.309  0.2915 -2.0326  0.1416
  655MOL0     H90375   1.508   9.545   6.487  1.7847 -4.1159 -1.1680
  655MOL0     H90376   1.182   9.006   6.493 -0.9021  0.2889  0.1573
  655MOL0     H90377   1.114   8.887   6.693 -0.2663 -0.5626  0.3699
  655MOL0     H90378   0.932   8.920   6.976 -2.1514 -4.7771 -0.3527
  655MOL0     H90379   0.994   8.850   6.845 -0.8103 -1.1753  0.9700
  655MOL0     H90380   1.125   8.873   7.130 -0.7274 -2.4140  1.6602
  655MOL0     H90381   1.189   8.762   7.012 -1.8409 -2.1055 -3.3075
  655MOL0     H90382   0.940   8.722   7.174  1.2889  2.0112  0.5486
  655MOL0     H90383   0.938   8.660   7.023 -0.7225 -1.0058  0.8824
  655MOL0     H90384   1.161   8.538   7.082 -0.3871 -0.1393 -0.0069
  655MOL0     H90385   1.021   8.504   7.198 -0.7990  0.5593  0.2468
  655MOL0     H90386   1.237   8.683   7.475 -1.5846 -1.7434  1.8895
  655MOL0     H90387   1.173   9.244   6.923  2.1051 -2.9944  0.7286
  655MOL0     H90388   1.201   9.479   6.675 -0.9952  0.5062  3.3607
  655MOL0     H90389   1.240   9.431   6.834 -0.8347  1.4766  0.6978
  655MOL0     H90390   1.366   9.413   6.694 -0.0055 -2.6708 -1.4177
  656MOL0     O90391   3.030   4.784   3.618 -0.4169 -0.6975 -0.5686
  656MOL0     C90392   2.940   4.786   3.714  0.1100 -0.5376  0.8866
  656MOL0     O90393   2.850   4.895   3.735  0.0669 -0.2469 -0.3762
  656MOL0     C90394   2.850   4.984   3.634  0.2782 -1.0706  0.2034
  656MOL0     C90395   2.734   5.020   3.573 -0.1502 -0.0229 -0.8641
  656MOL0     C90396   2.716   5.119   3.484 -0.3465  0.7947  0.4831
  656MOL0     C90397   2.823   5.202   3.443 -0.1708  0.1235  0.3766
  656MOL0     O90398   2.792   5.304   3.356 -0.8479  0.8783  0.1520
  656MOL0     C90399   2.875   5.419   3.350 -0.4780  0.4599 -0.9502
  656MOL0     C90400   2.875   5.512   3.471  0.1647  0.2680 -0.6808
  656MOL0     C90401   2.731   5.541   3.518 -0.1856 -0.0653 -0.1314
  656MOL0     C90402   2.736   5.664   3.617 -0.0482 -0.5005  0.6136
  656MOL0     C90403   2.598   5.719   3.655 -0.5507 -0.1053 -0.2386
  656MOL0     C90404   2.514   5.782   3.544 -0.4637 -0.2935  0.8107
  656MOL0     C90405   2.371   5.811   3.584 -0.7871  0.3039  0.7576
  656MOL0     C90406   2.362   5.933   3.678  0.4552  0.1250 -0.4156
  656MOL0     N90407   2.405   5.908   3.815 -0.7518 -0.0885 -0.0535
  656MOL0     C90408   2.369   5.804   3.897 -0.2664 -0.5185  0.4513
  656MOL0     C90409   2.412   5.845   4.014  0.4818 -0.4938  0.1499
  656MOL0     C90410   2.391   5.762   4.132 -0.9429  0.1467  0.1944
  656MOL0     C90411   2.330   5.838   4.252 -0.5033  0.1059 -0.4523
  656MOL0     C90412   2.185   5.900   4.225 -0.3374  0.0325 -0.6822
  656MOL0     C90413   2.138   5.978   4.354 -0.3086  0.0706 -0.3472
  656MOL0     O90414   2.093   5.896   4.464  0.4335  0.3659  0.3640
  656MOL0     C90415   1.965   5.850   4.460 -0.9572  0.4314  0.3250
  656MOL0     C90416   1.930   5.741   4.375 -0.0654 -0.0350  0.6376
  656MOL0     C90417   1.798   5.708   4.367  0.4627  0.2023 -0.3801
  656MOL0     C90418   1.769   5.595   4.275 -0.5011 -0.2882 -0.2928
  656MOL0     C90419   1.700   5.774   4.444  0.0310 -0.5714 -0.4376
  656MOL0     C90420   1.553   5.737   4.439 -0.4770 -0.9178  0.2323
  656MOL0     O90421   1.478   5.807   4.530 -1.3513  0.6517  0.0486
  656MOL0     C90422   1.346   5.785   4.514 -0.5690 -0.6091  0.2806
  656MOL0     C90423   1.273   5.881   4.448 -0.2450  0.6141 -0.5090
  656MOL0     C90424   1.135   5.857   4.428  1.0883 -0.5465  0.4838
  656MOL0     C90425   1.066   5.749   4.473 -0.5994  0.0912 -0.3891
  656MOL0     O90426   0.932   5.715   4.464 -0.2845 -0.3966  0.4781
  656MOL0     C90427   0.856   5.780   4.359  0.1702  0.7586  0.1903
  656MOL0     C90428   0.718   5.728   4.361  0.1692 -0.3756  0.0758
  656MOL0     C90429   0.706   5.590   4.301  0.9314 -0.4135  0.3277
  656MOL0     C90430   0.558   5.554   4.262  0.5227 -0.7719  0.2801
  656MOL0     C90431   0.536   5.412   4.226 -0.3596  0.5704  0.2757
  656MOL0     C90432   0.532   5.378   4.071  0.1254 -0.3701  0.3724
  656MOL0     C90433   0.483   5.236   4.040 -0.6320 -0.2602  0.1898
  656MOL0     C90434   0.475   5.195   3.888 -0.6288 -0.1889  0.8803
  656MOL0    Cl90435   0.350   5.291   3.801 -0.3956  0.2684  1.2995
  656MOL0     C90436   1.138   5.653   4.537 -1.5004  0.1475 -0.2322
  656MOL0     C90437   1.276   5.677   4.567 -0.0620 -0.0644 -0.0491
  656MOL0     O90438   1.507   5.665   4.355  0.0539  0.1247 -0.2840
  656MOL0     C90439   1.746   5.877   4.527 -0.3747  0.1003 -0.5916
  656MOL0     C90440   1.874   5.915   4.541 -0.5063  0.5033 -1.1589
  656MOL0     N90441   2.473   5.966   4.008  0.3919  0.3745 -0.0370
  656MOL0     N90442   2.471   6.002   3.880 -1.6206 -0.0943 -0.4724
  656MOL0     C90443   2.947   5.189   3.517  1.0983  0.6151 -0.5812
  656MOL0     C90444   2.952   5.083   3.615  0.2954 -0.4796 -0.1770
  656MOL0     C90445   2.947   4.682   3.833  0.3184 -1.5370 -0.2819
  656MOL0     C90446   2.895   4.717   3.962  0.5664  0.3348  0.0108
  656MOL0     C90447   2.890   4.627   4.073 -0.8908 -0.1181 -0.5384
  656MOL0     C90448   2.956   4.509   4.065  0.6054  0.0031  0.1321
  656MOL0     O90449   2.971   4.427   4.174 -0.6187 -0.2407 -0.0689
  656MOL0     C90450   3.047   4.303   4.172  0.0367 -0.4761 -0.7970
  656MOL0     C90451   3.045   4.247   4.319  0.0965 -0.0978  0.1603
  656MOL0     C90452   3.155   4.319   4.403  0.1579  0.8372 -0.1405
  656MOL0     C90453   3.138   4.282   4.546 -0.2447  0.9889 -0.4111
  656MOL0     C90454   3.202   4.146   4.563 -0.2794  0.1772  0.7194
  656MOL0     C90455   3.232   4.025   4.566 -0.2070 -0.0891 -0.8163
  656MOL0     C90456   3.020   4.476   3.943  1.3167  0.1022 -0.3057
  656MOL0     C90457   3.016   4.557   3.826  0.6408 -0.2183 -0.6847
  656MOL0     C90458   3.075   4.501   3.697 -0.7867  0.1521  0.8201
  656MOL0     H90459   2.637   4.974   3.591 -0.8993  0.7385 -2.6974
  656MOL0     H90460   2.616   5.124   3.443 -0.1415  3.2761  0.1599
  656MOL0     H90461   2.841   5.481   3.266 -1.2976  0.6869 -0.4609
  656MOL0     H90462   2.974   5.387   3.317 -0.1830  1.3918 -1.0131
  656MOL0     H90463   2.925   5.453   3.549 -0.3860 -0.3708 -0.7992
  656MOL0     H90464   2.934   5.604   3.467 -1.8942  1.6207 -1.9172
  656MOL0     H90465   2.672   5.559   3.428  1.9758 -2.3574 -2.1965
  656MOL0     H90466   2.692   5.447   3.558  0.4806 -1.5763 -2.7561
  656MOL0     H90467   2.788   5.633   3.708  2.5550  2.2189  0.2019
  656MOL0     H90468   2.784   5.756   3.584 -0.5098  0.0443  1.4254
  656MOL0     H90469   2.620   5.785   3.740 -2.5294  1.6888 -1.0310
  656MOL0     H90470   2.538   5.635   3.691 -0.0845 -1.6804 -2.8822
  656MOL0     H90471   2.565   5.868   3.499  0.8435 -0.4934  1.8415
  656MOL0     H90472   2.505   5.710   3.462  1.6885 -1.8346  1.8553
  656MOL0     H90473   2.323   5.724   3.631  1.8208 -0.8889  1.3916
  656MOL0     H90474   2.324   5.819   3.485  1.7111  0.6589 -0.4647
  656MOL0     H90475   2.423   6.019   3.648  3.2784  0.4466  4.9875
  656MOL0     H90476   2.261   5.973   3.676 -0.9014 -2.6621  2.7809
  656MOL0     H90477   2.305   5.722   3.867 -1.6560  0.4084  0.8042
  656MOL0     H90478   2.492   5.733   4.161 -1.1691  0.0327  0.8976
  656MOL0     H90479   2.331   5.678   4.095 -2.5601  1.2504  0.1817
  656MOL0     H90480   2.321   5.777   4.342 -2.6715 -0.1403 -0.7660
  656MOL0     H90481   2.404   5.917   4.270 -0.0390  0.4339 -3.2862
  656MOL0     H90482   2.202   5.969   4.142  3.5299 -3.3731 -3.1457
  656MOL0     H90483   2.122   5.822   4.180 -2.1985  1.1085 -0.0401
  656MOL0     H90484   2.221   6.047   4.375  0.3564  0.0808 -2.6718
  656MOL0     H90485   2.053   6.039   4.320  0.7929  1.0802 -1.4120
  656MOL0     H90486   2.000   5.696   4.306  1.2732  4.6446 -1.4611
  656MOL0     H90487   1.715   5.621   4.184  1.0232 -1.4644 -1.6021
  656MOL0     H90488   1.709   5.521   4.329 -0.5889 -0.4344 -0.5874
  656MOL0     H90489   1.863   5.546   4.248 -0.6652 -0.3833 -0.6876
  656MOL0     H90490   1.327   5.967   4.410  0.7492  2.5000  4.4292
  656MOL0     H90491   1.083   5.942   4.384  0.8743 -0.4826  0.8511
  656MOL0     H90492   0.849   5.889   4.358 -2.4133  0.6451 -0.8735
  656MOL0     H90493   0.902   5.740   4.268 -0.0952  2.2964 -0.6470
  656MOL0     H90494   0.677   5.735   4.463  0.3208 -0.1212  0.1192
  656MOL0     H90495   0.654   5.792   4.300 -0.0561 -2.2587 -1.7834
  656MOL0     H90496   0.740   5.510   4.368 -0.7143 -1.3096  0.1639
  656MOL0     H90497   0.770   5.584   4.212  2.8918 -2.2210  1.7434
  656MOL0     H90498   0.525   5.622   4.183 -1.5057 -0.4733  1.3294
  656MOL0     H90499   0.489   5.586   4.340 -3.6113 -2.5581 -2.2919
  656MOL0     H90500   0.616   5.346   4.263 -0.4540 -0.7261 -1.6853
  656MOL0     H90501   0.442   5.382   4.273  0.4687  0.7763  2.1637
  656MOL0     H90502   0.633   5.400   4.035 -0.3013  0.2888 -0.4454
  656MOL0     H90503   0.463   5.450   4.027  2.3601  1.3253 -0.5847
  656MOL0     H90504   0.392   5.221   4.099  0.7181  1.7777  2.9949
  656MOL0     H90505   0.556   5.172   4.090 -0.6962  0.3825  1.1337
  656MOL0     H90506   0.450   5.089   3.880 -0.3904 -0.0988 -4.1413
  656MOL0     H90507   0.570   5.214   3.837 -1.5864 -0.3179 -1.0509
  656MOL0     H90508   1.093   5.561   4.572 -1.3311  0.1763  0.0600
  656MOL0     H90509   1.343   5.619   4.629 -0.4326 -1.9795 -1.3618
  656MOL0     H90510   1.682   5.945   4.583 -0.4208  1.2645 -2.0214
  656MOL0     H90511   1.901   5.998   4.607  2.0170  0.0530 -1.5340
  656MOL0     H90512   3.037   5.248   3.509  1.6144  0.1565  1.4482
  656MOL0     H90513   3.038   5.071   3.679  0.2841 -1.2508 -0.3006
  656MOL0     H90514   2.845   4.812   3.980 -0.2495  0.4783 -2.5904
  656MOL0     H90515   2.843   4.666   4.163  0.6927  2.6100 -0.8002
  656MOL0     H90516   3.007   4.231   4.099 -2.1274  0.0994 -0.2329
  656MOL0     H90517   3.155   4.312   4.156  0.2553  0.5110  1.0044
  656MOL0     H90518   3.060   4.139   4.315 -2.5811 -0.7175  3.0451
  656MOL0     H90519   2.949   4.281   4.358  0.0693 -0.7211  0.6454
  656MOL0     H90520   3.252   4.281   4.369 -1.4070 -2.7505 -0.9701
  656MOL0     H90521   3.151   4.428   4.391  0.2782  0.9190  0.5061
  656MOL0     H90522   3.033   4.287   4.578 -0.4260  4.3521 -1.1588
  656MOL0     H90523   3.185   4.364   4.601  1.6720  0.3051 -0.9713
  656MOL0     H90524   3.272   3.928   4.586  4.5383  1.8322  0.2911
  656MOL0     H90525   3.059   4.376   3.930 -1.8572 -1.0454 -2.1031
  656MOL0     H90526   3.180   4.530   3.685 -0.9534 -0.2117 -2.1555
  656MOL0     H90527   3.084   4.393   3.714  1.0040  0.4785  2.2880
  656MOL0     H90528   3.027   4.526   3.603  0.4657  2.4520  0.7161
  657MOL0     O90529   1.668  11.488   3.451  0.5067  0.4471  0.2098
  657MOL0     C90530   1.567  11.560   3.429 -0.4742  0.1877 -0.6583
  657MOL0     O90531   1.464  11.586   3.528  0.3036 -0.4449 -0.2000
  657MOL0     C90532   1.488  11.519   3.645 -0.1121 -0.2061  0.4834
  657MOL0     C90533   1.517  11.598   3.762 -0.2722  0.1600  1.0113
  657MOL0     C90534   1.524  11.547   3.884  1.1980 -0.7530  0.4961
  657MOL0     C90535   1.484  11.413   3.905 -1.7175 -0.3444  0.1246
  657MOL0     O90536   1.487  11.352   4.032  0.5601 -0.0788 -0.4660
  657MOL0     C90537   1.441  11.215   4.043 -0.6365  0.3763 -0.4844
  657MOL0     C90538   1.411  11.165   4.183  0.8751  0.6314  0.1698
  657MOL0     C90539   1.333  11.034   4.163  0.6659 -0.4803 -0.0281
  657MOL0     C90540   1.241  10.998   4.274 -0.3448  1.0392  0.3458
  657MOL0     C90541   1.097  11.038   4.243  0.5939 -1.4498 -0.1618
  657MOL0     C90542   1.052  11.176   4.303 -0.8667  0.0245 -0.2700
  657MOL0     C90543   0.903  11.206   4.329  0.0152  0.2285  0.3387
  657MOL0     C90544   0.822  11.225   4.202 -0.1165  0.5832 -0.4300
  657MOL0     N90545   0.692  11.172   4.230  0.5834  0.4728  0.3628
  657MOL0     C90546   0.582  11.251   4.255 -0.0678 -0.3209 -0.3634
  657MOL0     C90547   0.481  11.150   4.273 -0.0930  0.2159  0.7793
  657MOL0     C90548   0.352  11.172   4.344  0.5920 -0.5666  0.5900
  657MOL0     C90549   0.301  11.310   4.297 -0.7226  0.5488  0.9621
  657MOL0     C90550   0.174  11.354   4.369  0.5828 -0.5468  0.0693
  657MOL0     C90551   0.221  11.414   4.506 -0.4492 -0.8131  0.9176
  657MOL0     O90552   0.229  11.562   4.491 -0.2864 -0.4574 -0.2913
  657MOL0     C90553   0.266  11.639   4.602 -0.5480 -0.1892  0.5841
  657MOL0     C90554   0.329  11.760   4.584 -0.4372  0.1935  0.7178
  657MOL0     C90555   0.348  11.855   4.694  0.6992 -0.0891  0.4114
  657MOL0     C90556   0.420  11.977   4.665  1.0170 -0.2700  0.0506
  657MOL0     C90557   0.300  11.825   4.820 -0.6535 -0.2464  0.5574
  657MOL0     C90558   0.322  11.900   4.949  0.7427  0.3064  0.2585
  657MOL0     O90559   0.398  12.020   4.935  0.3672 -0.1127  0.0190
  657MOL0     C90560   0.386  12.123   5.029 -0.1373 -0.4300  0.9022
  657MOL0     C90561   0.434  12.238   4.967  0.7494 -0.2780 -0.6301
  657MOL0     C90562   0.444  12.355   5.043  0.8548 -0.8227  1.0571
  657MOL0     C90563   0.412  12.366   5.178  0.5647  1.1716 -0.0600
  657MOL0     O90564   0.438  12.486   5.243 -0.4193  0.6774 -0.0606
  657MOL0     C90565   0.432  12.489   5.389  0.4694  0.1759 -0.6502
  657MOL0     C90566   0.496  12.606   5.456 -0.4952 -0.5880  0.5624
  657MOL0     C90567   0.462  12.613   5.607  0.3392  0.2445  0.6354
  657MOL0     C90568   0.566  12.695   5.684 -0.2908  0.1445 -0.3394
  657MOL0     C90569   0.560  12.667   5.834  0.7194  0.4116  1.1839
  657MOL0     C90570   0.585  12.517   5.873 -1.0040  0.4019  0.0372
  657MOL0     C90571   0.629  12.495   6.018 -0.3746 -0.9354 -0.6098
  657MOL0     C90572   0.653  12.349   6.052 -0.2142 -0.7151 -0.6839
  657MOL0    Cl90573   0.692  12.333   6.231  0.1434 -0.1367  0.4030
  657MOL0     C90574   0.355  12.247   5.229 -0.5278  0.4499  0.2970
  657MOL0     C90575   0.343  12.126   5.164  0.6594  0.3605 -0.5206
  657MOL0     O90576   0.255  11.863   5.049  0.2695 -0.2892 -0.0491
  657MOL0     C90577   0.247  11.693   4.836 -0.5291  0.7019 -0.2161
  657MOL0     C90578   0.228  11.600   4.728  0.5050  0.0785 -0.2304
  657MOL0     N90579   0.526  11.030   4.236  0.4117 -0.9359  0.6631
  657MOL0     N90580   0.655  11.038   4.213 -0.5547  0.4116 -0.6953
  657MOL0     C90581   1.466  11.332   3.793 -0.5069  0.2211  0.0461
  657MOL0     C90582   1.477  11.377   3.667  0.9920 -0.8789  0.1012
  657MOL0     C90583   1.538  11.618   3.299 -0.4093 -0.3488  0.2396
  657MOL0     C90584   1.455  11.729   3.302 -0.6088  0.1493 -0.3652
  657MOL0     C90585   1.414  11.789   3.190  0.2097  0.5245 -0.2398
  657MOL0     C90586   1.447  11.741   3.066 -0.6633  0.4674  0.6196
  657MOL0     O90587   1.376  11.787   2.956  0.7277 -0.6036  0.1555
  657MOL0     C90588   1.430  11.772   2.823  0.1802  0.2017 -0.2916
  657MOL0     C90589   1.359  11.837   2.710 -0.2453 -1.1901  0.5137
  657MOL0     C90590   1.343  11.985   2.731  0.1689 -0.3859 -0.5313
  657MOL0     C90591   1.454  12.065   2.796  1.0128  0.1933 -0.8207
  657MOL0     C90592   1.580  12.072   2.732 -0.3239  0.7631 -1.1165
  657MOL0     C90593   1.689  12.077   2.677 -0.2565  0.9502 -0.1163
  657MOL0     C90594   1.550  11.649   3.061 -0.0201 -0.6118  0.3482
  657MOL0     C90595   1.595  11.583   3.173 -0.1679 -0.7129 -0.2451
  657MOL0     C90596   1.700  11.472   3.154 -0.2170  0.3521 -0.1298
  657MOL0     H90597   1.539  11.703   3.748 -1.9155  0.2562 -1.5775
  657MOL0     H90598   1.542  11.615   3.966 -0.9570  1.2714 -0.6065
  657MOL0     H90599   1.514  11.146   4.000 -1.5517 -0.2784 -1.0238
  657MOL0     H90600   1.344  11.198   3.997  0.5878 -0.6996 -2.8344
  657MOL0     H90601   1.505  11.138   4.233  0.9940 -0.7802 -0.7557
  657MOL0     H90602   1.355  11.241   4.237 -1.3402  0.1477 -1.3176
  657MOL0     H90603   1.263  11.027   4.079  1.9433  1.3685 -1.3129
  657MOL0     H90604   1.413  10.960   4.155  3.7789  2.7643 -1.0348
  657MOL0     H90605   1.249  10.889   4.265 -2.6617  0.7217  1.2789
  657MOL0     H90606   1.271  11.033   4.373 -0.2167  2.3751 -0.1495
  657MOL0     H90607   1.042  10.957   4.291  1.2867 -1.0669  1.3297
  657MOL0     H90608   1.065  11.031   4.139  0.5833  2.1817 -0.5335
  657MOL0     H90609   1.082  11.182   4.408  0.7881  1.7085 -0.7858
  657MOL0     H90610   1.112  11.243   4.242 -0.2162 -2.5856 -2.7293
  657MOL0     H90611   0.909  11.302   4.380  1.1536 -0.5731  1.7990
  657MOL0     H90612   0.862  11.126   4.391  0.5211  0.6408  1.2277
  657MOL0     H90613   0.828  11.325   4.158 -2.1589  0.3763 -1.2679
  657MOL0     H90614   0.872  11.163   4.126 -0.8545 -0.7912  0.1721
  657MOL0     H90615   0.591  11.356   4.280  0.3825  0.2434 -2.7194
  657MOL0     H90616   0.384  11.185   4.448  2.8877  3.4595 -0.3807
  657MOL0     H90617   0.291  11.082   4.334  0.8180 -0.5328 -1.4122
  657MOL0     H90618   0.375  11.388   4.318  0.0214 -0.0561  0.6691
  657MOL0     H90619   0.286  11.306   4.188  0.6971  2.7108  0.6167
  657MOL0     H90620   0.123  11.429   4.308 -3.9171 -0.8155  2.9885
  657MOL0     H90621   0.105  11.269   4.378  1.2649 -1.1530 -0.2926
  657MOL0     H90622   0.145  11.391   4.582 -2.2577  0.8762 -0.3005
  657MOL0     H90623   0.317  11.375   4.542  0.4252 -0.7158 -1.1707
  657MOL0     H90624   0.378  11.769   4.488  1.7711  0.1287  1.7737
  657MOL0     H90625   0.512  11.971   4.725 -0.2787 -1.9992  2.0031
  657MOL0     H90626   0.354  12.062   4.681  2.2491  1.1081 -1.7304
  657MOL0     H90627   0.442  11.982   4.558 -0.1560  2.5746 -0.1268
  657MOL0     H90628   0.475  12.225   4.868  0.0038 -3.7739 -0.5999
  657MOL0     H90629   0.482  12.439   4.986  1.4019 -1.4719  0.4552
  657MOL0     H90630   0.327  12.501   5.416 -1.0031 -1.0222 -5.0369
  657MOL0     H90631   0.472  12.398   5.434  0.0084  1.0087  1.5967
  657MOL0     H90632   0.605  12.595   5.461 -0.0562  2.7584  1.4988
  657MOL0     H90633   0.482  12.702   5.405  2.8183 -0.2160  0.1239
  657MOL0     H90634   0.459  12.511   5.647 -0.4073  1.0228  2.7257
  657MOL0     H90635   0.364  12.655   5.634  0.5919  0.9092  0.5439
  657MOL0     H90636   0.546  12.801   5.664  1.5930  0.0780 -2.9809
  657MOL0     H90637   0.664  12.673   5.642 -0.5711 -0.2855 -0.7684
  657MOL0     H90638   0.637  12.718   5.892 -1.0771  1.2451  2.9554
  657MOL0     H90639   0.465  12.693   5.880 -1.0814 -3.2749 -0.0238
  657MOL0     H90640   0.666  12.482   5.809 -1.0164 -0.6215  0.5555
  657MOL0     H90641   0.489  12.467   5.854 -1.3862  0.5059  1.5837
  657MOL0     H90642   0.551  12.531   6.085  0.5028 -2.0229  1.0664
  657MOL0     H90643   0.725  12.544   6.039 -0.1129 -1.0958 -1.3990
  657MOL0     H90644   0.740  12.320   5.993 -0.4464 -1.4388 -0.6814
  657MOL0     H90645   0.568  12.285   6.028 -0.2778 -1.1359  0.5528
  657MOL0     H90646   0.343  12.251   5.337  3.0992  0.6561  0.8238
  657MOL0     H90647   0.302  12.034   5.203 -1.1744  1.0752 -0.6535
  657MOL0     H90648   0.213  11.658   4.933  1.4921 -1.0540 -0.0701
  657MOL0     H90649   0.175  11.507   4.747  0.4680  0.2685  0.6190
  657MOL0     H90650   1.467  11.224   3.805 -1.6411  0.4844  4.0209
  657MOL0     H90651   1.460  11.317   3.579 -3.9857  1.7878 -1.1342
  657MOL0     H90652   1.409  11.770   3.391 -0.9325 -2.2888  0.6762
  657MOL0     H90653   1.341  11.867   3.205  2.0073  2.0216  1.3092
  657MOL0     H90654   1.529  11.818   2.828  0.5449 -0.5982  0.2762
  657MOL0     H90655   1.434  11.663   2.809  0.2955  0.3957 -1.9927
  657MOL0     H90656   1.264  11.800   2.670  0.4312 -0.5908 -1.7760
  657MOL0     H90657   1.426  11.821   2.626 -1.8701 -0.3902 -0.9991
  657MOL0     H90658   1.337  12.034   2.633 -0.7489  3.5677  1.3190
  657MOL0     H90659   1.245  11.997   2.778  0.9109 -0.7813  1.1966
  657MOL0     H90660   1.477  12.020   2.894  3.7006  0.9576 -1.0155
  657MOL0     H90661   1.415  12.167   2.807  1.2977  0.4543 -2.0924
  657MOL0     H90662   1.791  12.092   2.646  0.2326 -2.2232 -0.2894
  657MOL0     H90663   1.585  11.617   2.963 -1.0613  1.1441 -0.6439
  657MOL0     H90664   1.799  11.508   3.181  0.1748 -0.4506 -0.4738
  657MOL0     H90665   1.678  11.384   3.215  0.9511  2.3650  3.5311
  657MOL0     H90666   1.710  11.443   3.049 -0.7475 -0.1534 -0.0505
  658MOL0     O90667  11.424   8.656   4.232  0.5863  0.1191  0.1988
  658MOL0     C90668  11.342   8.750   4.234  0.0124 -0.8846  0.2465
  658MOL0     O90669  11.211   8.741   4.188 -0.3711  0.5076 -0.0708
  658MOL0     C90670  11.186   8.621   4.116  0.0636  0.1564  0.1535
  658MOL0     C90671  11.116   8.522   4.180 -0.0215 -0.7201  0.6683
  658MOL0     C90672  11.079   8.407   4.116  0.7918 -0.1587  1.0444
  658MOL0     C90673  11.104   8.391   3.983 -0.4595  0.1153  0.3679
  658MOL0     O90674  11.079   8.272   3.912 -0.3033 -0.2898 -0.1354
  658MOL0     C90675  10.953   8.215   3.948  0.7281 -0.5581 -0.1007
  658MOL0     C90676  10.915   8.097   3.856 -0.7561 -0.2506 -0.0094
  658MOL0     C90677  11.014   7.981   3.861  0.1162 -0.0284 -0.1316
  658MOL0     C90678  10.953   7.854   3.790 -0.2669 -0.0517 -0.0834
  658MOL0     C90679  10.997   7.843   3.655 -0.8739 -0.2894  0.5440
  658MOL0     C90680  11.147   7.793   3.634 -0.2094 -0.0126 -0.7414
  658MOL0     C90681  11.180   7.775   3.482 -0.2267 -0.1223  0.0851
  658MOL0     C90682  11.207   7.918   3.409  0.5317  0.5358  0.2497
  658MOL0     N90683  11.311   8.002   3.473  0.4785 -0.1377 -0.7085
  658MOL0     C90684  11.284   8.122   3.536 -0.5507 -0.3092 -0.2497
  658MOL0     C90685  11.412   8.166   3.567 -0.7841 -0.8380  0.7305
  658MOL0     C90686  11.444   8.313   3.615  0.3597  0.5279  0.1491
  658MOL0     C90687  11.483   8.393   3.501  0.8378 -0.8305  0.3302
  658MOL0     C90688  11.634   8.428   3.509 -0.8033  0.6777 -0.0558
  658MOL0     C90689  11.727   8.308   3.466  0.4874  0.3355 -0.0376
  658MOL0     O90690  11.867   8.337   3.477 -0.2936 -0.5832 -0.9377
  658MOL0     C90691  11.918   8.450   3.420  0.1096  0.3334 -0.3025
  658MOL0     C90692  11.990   8.541   3.497  1.0132 -0.0205  0.0202
  658MOL0     C90693  12.052   8.654   3.437  0.1305  0.0186 -0.4042
  658MOL0     C90694  12.130   8.749   3.524 -0.0624 -0.5008  0.3024
  658MOL0     C90695  12.042   8.671   3.303  0.5255 -0.6387  0.2184
  658MOL0     C90696  12.085   8.787   3.226  0.4293  0.3002  0.3172
  658MOL0     O90697  12.146   8.771   3.108  0.2539 -0.3392  0.3824
  658MOL0     C90698  12.207   8.874   3.024 -0.0633  0.1325 -1.5453
  658MOL0     C90699  12.156   9.012   3.015 -0.0346 -0.5271 -0.2629
  658MOL0     C90700  12.222   9.105   2.931 -0.4281  0.0840  0.5193
  658MOL0     C90701  12.335   9.064   2.863  0.5836 -0.2351 -0.1652
  658MOL0     O90702  12.402   9.148   2.788  0.5504 -1.0666  0.0370
  658MOL0     C90703  12.331   9.233   2.687 -0.3394  1.1322 -0.3941
  658MOL0     C90704  12.418   9.223   2.563 -1.0775 -0.5875 -0.0112
  658MOL0     C90705  12.347   9.278   2.447  0.4163  1.1007 -0.2727
  658MOL0     C90706  12.418   9.243   2.319  0.4025 -0.2564  1.2393
  658MOL0     C90707  12.331   9.252   2.196  0.1436 -0.4856  0.3188
  658MOL0     C90708  12.210   9.154   2.196 -0.3751 -0.2615 -0.9350
  658MOL0     C90709  12.113   9.196   2.075  0.1287  0.8515 -1.7535
  658MOL0     C90710  12.021   9.073   2.063  0.4635  0.6940 -0.3342
  658MOL0    Cl90711  11.888   9.102   1.936 -0.1412 -0.1407 -0.3336
  658MOL0     C90712  12.390   8.936   2.882  0.2308 -1.1638 -0.0037
  658MOL0     C90713  12.326   8.842   2.962 -0.6926 -0.4750 -0.6592
  658MOL0     O90714  12.063   8.895   3.279 -0.5969 -0.4501 -0.0608
  658MOL0     C90715  11.992   8.565   3.227  0.4768  0.7266  0.4626
  658MOL0     C90716  11.918   8.454   3.284  0.5028 -0.0920  0.0886
  658MOL0     N90717  11.499   8.072   3.525 -0.4919 -0.0871 -0.2484
  658MOL0     N90718  11.442   7.971   3.475  0.1265  0.5845  0.1722
  658MOL0     C90719  11.176   8.494   3.912 -0.1354 -0.8736  0.7994
  658MOL0     C90720  11.218   8.611   3.983  0.6034  1.2554  1.6507
  658MOL0     C90721  11.364   8.869   4.317 -0.5756  0.8219  0.2592
  658MOL0     C90722  11.323   8.987   4.269 -0.2639 -0.6963  0.1249
  658MOL0     C90723  11.334   9.105   4.338 -0.1733  0.0183 -0.6658
  658MOL0     C90724  11.398   9.104   4.459 -1.0195 -0.1098  0.4084
  658MOL0     O90725  11.397   9.232   4.514 -0.1339 -0.1239 -0.4332
  658MOL0     C90726  11.491   9.274   4.617 -0.9323 -0.5689 -0.2265
  658MOL0     C90727  11.412   9.292   4.746  0.3419 -0.3875 -0.8337
  658MOL0     C90728  11.367   9.157   4.813 -0.3095 -0.6439 -0.4282
  658MOL0     C90729  11.263   9.195   4.924 -0.1117 -0.0538  0.1674
  658MOL0     C90730  11.342   9.247   5.029  0.0584 -0.7825 -1.1346
  658MOL0     C90731  11.409   9.280   5.129 -1.2151 -0.3786 -0.3106
  658MOL0     C90732  11.455   8.982   4.513 -0.0040 -0.7170  0.1863
  658MOL0     C90733  11.428   8.868   4.442  0.6930 -0.0344 -0.4903
  658MOL0     C90734  11.457   8.739   4.505 -1.1138 -0.5325  0.0675
  658MOL0     H90735  11.092   8.549   4.282 -4.6211  2.1389 -0.8478
  658MOL0     H90736  11.035   8.333   4.181  2.6819 -0.8717  1.5840
  658MOL0     H90737  10.887   8.302   3.952  0.5165 -0.7477  1.3930
  658MOL0     H90738  10.956   8.172   4.049  0.8334 -1.0289 -0.3017
  658MOL0     H90739  10.815   8.067   3.887 -1.1354  1.2015  0.2381
  658MOL0     H90740  10.917   8.139   3.755 -3.0368  3.0460  1.1173
  658MOL0     H90741  11.113   8.000   3.818  0.2878 -0.5731  0.0202
  658MOL0     H90742  11.025   7.957   3.967  3.0757  2.5365  0.2585
  658MOL0     H90743  11.001   7.778   3.852  2.8381  2.7273  1.2561
  658MOL0     H90744  10.845   7.837   3.798 -0.8846  0.4806 -4.5822
  658MOL0     H90745  10.986   7.941   3.608  1.0413  0.6028  1.8261
  658MOL0     H90746  10.930   7.773   3.605  1.1566 -1.6479 -0.4339
  658MOL0     H90747  11.211   7.871   3.678 -0.8903  0.1502 -0.0117
  658MOL0     H90748  11.156   7.703   3.696  0.5232  1.6760  1.7939
  658MOL0     H90749  11.096   7.724   3.435  1.6042 -2.6890 -0.6406
  658MOL0     H90750  11.272   7.717   3.467 -0.4659 -0.2711 -0.8591
  658MOL0     H90751  11.251   7.902   3.310 -4.2147 -1.7197 -1.7833
  658MOL0     H90752  11.109   7.964   3.399 -0.4588 -1.8987 -2.5474
  658MOL0     H90753  11.191   8.176   3.532  1.0204  2.5333 -0.7847
  658MOL0     H90754  11.518   8.313   3.696  1.1384  1.8783 -0.5384
  658MOL0     H90755  11.351   8.360   3.649 -0.1917 -0.5789  0.2080
  658MOL0     H90756  11.462   8.335   3.411  0.3060  1.0945 -0.8396
  658MOL0     H90757  11.424   8.484   3.487  0.1222 -1.2024  0.8348
  658MOL0     H90758  11.670   8.500   3.435  0.8699 -2.1666 -2.2336
  658MOL0     H90759  11.665   8.455   3.610 -2.3712 -0.0725  0.6477
  658MOL0     H90760  11.700   8.224   3.531  0.3318 -2.7665 -3.7235
  658MOL0     H90761  11.698   8.276   3.365 -2.8577  0.9929  0.6308
  658MOL0     H90762  11.996   8.542   3.605  0.6003 -0.5110  0.0478
  658MOL0     H90763  12.211   8.787   3.461 -2.2503 -0.8290 -2.9754
  658MOL0     H90764  12.182   8.703   3.609 -1.9904  0.8291  2.3169
  658MOL0     H90765  12.063   8.824   3.568  0.1692  0.5441 -1.0436
  658MOL0     H90766  12.058   9.030   3.059  0.6085 -1.0173  1.4464
  658MOL0     H90767  12.204   9.211   2.920  3.2566  0.8805  0.7508
  658MOL0     H90768  12.236   9.187   2.658  0.5892 -0.8481 -0.5076
  658MOL0     H90769  12.331   9.337   2.719  1.4963  0.8853  0.5709
  658MOL0     H90770  12.508   9.280   2.588 -0.1159 -0.4173 -3.3640
  658MOL0     H90771  12.444   9.118   2.552  2.1305  0.0876  0.2349
  658MOL0     H90772  12.329   9.385   2.463 -0.0224  1.4247 -2.5863
  658MOL0     H90773  12.239   9.263   2.453 -0.0597  4.4125  2.8076
  658MOL0     H90774  12.448   9.139   2.329 -2.0432 -0.9527  2.1024
  658MOL0     H90775  12.501   9.311   2.296 -0.9209  1.1870  0.5363
  658MOL0     H90776  12.288   9.352   2.201 -1.6351 -1.2142  0.5224
  658MOL0     H90777  12.396   9.231   2.110 -0.2151 -1.3000  0.2306
  658MOL0     H90778  12.160   9.150   2.293  0.1774  1.7607 -0.5153
  658MOL0     H90779  12.258   9.056   2.188 -0.0201 -0.1588 -0.1799
  658MOL0     H90780  12.171   9.213   1.984  1.2101  3.5429 -0.6666
  658MOL0     H90781  12.056   9.285   2.101  0.7632  1.2068 -1.5561
  658MOL0     H90782  11.974   9.051   2.159  0.2036 -0.9654 -0.8085
  658MOL0     H90783  12.073   8.979   2.043 -1.0260  0.0179 -1.1970
  658MOL0     H90784  12.476   8.912   2.819 -0.0602  1.4205 -1.5741
  658MOL0     H90785  12.371   8.744   2.955  1.9386  0.6648 -0.7977
  658MOL0     H90786  11.983   8.570   3.119  3.6301  1.3575  0.1246
  658MOL0     H90787  11.866   8.390   3.213  1.7363  0.3098 -1.2296
  658MOL0     H90788  11.204   8.478   3.809 -2.1602  2.0977 -0.3333
  658MOL0     H90789  11.263   8.694   3.928  1.5649  1.4861  2.7500
  658MOL0     H90790  11.281   8.995   4.169 -1.5220  3.0187  0.7696
  658MOL0     H90791  11.313   9.204   4.299  1.6337  0.6015 -0.2404
  658MOL0     H90792  11.575   9.204   4.623  1.4140  1.9825 -1.2651
  658MOL0     H90793  11.533   9.372   4.591  0.4055 -0.8794  0.7054
  658MOL0     H90794  11.326   9.355   4.721  0.7600  1.9960  2.9891
  658MOL0     H90795  11.473   9.353   4.812  1.4536 -0.6839 -1.5627
  658MOL0     H90796  11.310   9.093   4.745 -2.7474  0.5817  0.3400
  658MOL0     H90797  11.453   9.106   4.856 -0.4036 -1.5676 -1.2850
  658MOL0     H90798  11.213   9.110   4.970 -1.5206  2.1853  3.0757
  658MOL0     H90799  11.201   9.278   4.889 -0.4810 -1.2827 -2.3061
  658MOL0     H90800  11.455   9.323   5.216 -1.4257 -0.8257  0.0286
  658MOL0     H90801  11.506   8.974   4.608 -0.5556  1.2288  0.6874
  658MOL0     H90802  11.562   8.720   4.479 -1.0831 -4.0090  2.1170
  658MOL0     H90803  11.463   8.752   4.613  2.0091  0.4072 -0.1241
  658MOL0     H90804  11.380   8.665   4.485 -1.0793 -1.6817  3.5470
  659MOL0     O90805   1.524   3.356   3.232  0.4835 -0.0727  0.3873
  659MOL0     C90806   1.498   3.465   3.189  0.7338 -0.0992  0.5329
  659MOL0     O90807   1.378   3.534   3.198 -0.1554  0.2839 -0.4085
  659MOL0     C90808   1.267   3.478   3.251  0.3570 -0.0763 -0.0934
  659MOL0     C90809   1.176   3.420   3.163 -0.5292 -0.8402  0.3410
  659MOL0     C90810   1.062   3.350   3.203 -0.1116 -0.1844  1.0437
  659MOL0     C90811   1.040   3.337   3.339 -0.5178  0.8888  0.4044
  659MOL0     O90812   0.923   3.297   3.401 -0.9094 -0.3293 -0.7953
  659MOL0     C90813   0.890   3.164   3.373  1.2112 -0.1573  0.6602
  659MOL0     C90814   0.938   3.068   3.491 -0.1153 -0.4825 -0.8642
  659MOL0     C90815   0.863   2.929   3.491 -0.3944 -0.1386  1.6750
  659MOL0     C90816   0.892   2.850   3.367  0.6422  0.0956 -0.2149
  659MOL0     C90817   0.881   2.698   3.389  0.1372 -0.4541 -0.1616
  659MOL0     C90818   0.764   2.655   3.464  0.5414 -0.3847 -0.4053
  659MOL0     C90819   0.747   2.501   3.469 -0.4444 -0.8842 -0.1676
  659MOL0     C90820   0.626   2.462   3.566 -0.0656  0.6506 -0.3781
  659MOL0     N90821   0.644   2.483   3.712  0.2303  0.1097  0.8898
  659MOL0     C90822   0.614   2.584   3.790 -0.8720  0.4338  0.8247
  659MOL0     C90823   0.662   2.550   3.903 -0.1534  0.0511  0.2537
  659MOL0     C90824   0.633   2.627   4.026 -0.5140 -0.2954 -1.2453
  659MOL0     C90825   0.495   2.607   4.079 -0.1514  0.3118 -0.0598
  659MOL0     C90826   0.490   2.608   4.236 -0.0027 -0.8404  1.0370
  659MOL0     C90827   0.416   2.495   4.292  0.5695  0.1678  0.5786
  659MOL0     O90828   0.386   2.538   4.422  0.5501  0.1854 -0.2911
  659MOL0     C90829   0.336   2.438   4.506 -0.0051 -0.3800  0.2095
  659MOL0     C90830   0.348   2.479   4.638 -0.4961  0.3166  0.2613
  659MOL0     C90831   0.335   2.390   4.747  0.0608 -0.2764 -0.4195
  659MOL0     C90832   0.361   2.434   4.885  0.6013  0.2507  0.9418
  659MOL0     C90833   0.325   2.250   4.717 -0.5520 -0.0247  0.4156
  659MOL0     C90834   0.329   2.135   4.816 -0.4981 -0.2509  0.0839
  659MOL0     O90835   0.278   2.021   4.767 -0.7077 -0.9972  0.0838
  659MOL0     C90836   0.291   1.903   4.829  0.4117 -0.2085 -1.1334
  659MOL0     C90837   0.207   1.875   4.936  0.3806  0.1269 -0.7663
  659MOL0     C90838   0.217   1.758   5.018  0.2897  0.7563  0.3612
  659MOL0     C90839   0.324   1.671   5.001 -0.0365  0.0944 -0.5690
  659MOL0     O90840   0.338   1.553   5.074 -0.1859  1.4356 -0.3197
  659MOL0     C90841   0.394   1.571   5.210  0.2772 -1.1131 -0.2238
  659MOL0     C90842   0.467   1.446   5.254 -0.0021  0.6019  0.3879
  659MOL0     C90843   0.610   1.437   5.188 -0.2111 -0.2669  0.1081
  659MOL0     C90844   0.676   1.311   5.249  1.1393 -0.0617  0.7550
  659MOL0     C90845   0.830   1.310   5.220  1.2221  0.1597 -0.4120
  659MOL0     C90846   0.899   1.180   5.275 -0.0958 -0.8372  0.8063
  659MOL0     C90847   0.888   1.064   5.158  0.7005 -0.1262 -0.1276
  659MOL0     C90848   0.991   0.947   5.163 -0.0262  0.6575  0.2522
  659MOL0    Cl90849   0.904   0.805   5.130  0.4139  0.0614  0.3434
  659MOL0     C90850   0.418   1.695   4.900 -0.4870 -1.4069  0.3238
  659MOL0     C90851   0.400   1.807   4.812  0.0317  0.4819  0.0976
  659MOL0     O90852   0.381   2.138   4.924 -0.2293  0.2588  0.8118
  659MOL0     C90853   0.308   2.213   4.581 -0.1583 -0.1202 -0.5432
  659MOL0     C90854   0.305   2.306   4.482  0.2603 -0.2140  0.4096
  659MOL0     N90855   0.738   2.435   3.896  0.8585 -0.3735  0.1882
  659MOL0     N90856   0.718   2.390   3.781 -0.1915  0.4374  0.2583
  659MOL0     C90857   1.135   3.385   3.427  0.9827 -0.3009  0.1144
  659MOL0     C90858   1.244   3.459   3.389 -0.5074  0.5568  0.5317
  659MOL0     C90859   1.621   3.538   3.119 -0.4558 -0.7541  1.2497
  659MOL0     C90860   1.647   3.669   3.162  0.2012  0.1030  0.9256
  659MOL0     C90861   1.728   3.745   3.080  0.2195  0.1264 -0.4040
  659MOL0     C90862   1.814   3.695   2.983 -0.7293  0.3863  0.2544
  659MOL0     O90863   1.887   3.790   2.905 -0.2189  0.0644  0.4541
  659MOL0     C90864   1.953   3.745   2.788 -1.0785 -0.1747  0.9577
  659MOL0     C90865   2.022   3.865   2.708  0.3151 -0.4219 -0.6013
  659MOL0     C90866   1.901   3.938   2.634 -0.4621 -0.3020 -0.2801
  659MOL0     C90867   1.949   4.023   2.515  0.7748  0.0336 -0.3031
  659MOL0     C90868   1.972   3.941   2.397 -0.1270 -0.9397  0.4426
  659MOL0     C90869   1.979   3.876   2.294 -0.7665 -0.1457 -0.0569
  659MOL0     C90870   1.793   3.558   2.948  0.9811  0.2338 -1.1898
  659MOL0     C90871   1.684   3.482   3.012 -1.1365  0.2762 -0.2924
  659MOL0     C90872   1.634   3.360   2.943 -0.3472 -0.3220  0.9673
  659MOL0     H90873   1.167   3.424   3.055 -3.6693 -0.0164  0.5608
  659MOL0     H90874   0.981   3.314   3.141 -1.0541  0.9417  1.5824
  659MOL0     H90875   0.940   3.127   3.283  3.0071 -0.4276  1.7034
  659MOL0     H90876   0.781   3.154   3.375  1.3832 -2.7540  1.2946
  659MOL0     H90877   1.046   3.060   3.475  0.3981 -0.4005  2.0163
  659MOL0     H90878   0.927   3.117   3.588  0.3746 -2.6078  0.3185
  659MOL0     H90879   0.889   2.881   3.586  0.6907 -1.8768  0.5418
  659MOL0     H90880   0.755   2.942   3.491 -0.3008  0.8419  0.4140
  659MOL0     H90881   0.834   2.882   3.279  0.7864 -0.1318 -0.3953
  659MOL0     H90882   0.992   2.850   3.323 -0.2082 -0.5907 -2.2928
  659MOL0     H90883   0.969   2.669   3.446  2.5075  2.5614 -1.9662
  659MOL0     H90884   0.878   2.652   3.289 -0.3754  2.9904 -1.8844
  659MOL0     H90885   0.768   2.697   3.565 -0.2992 -0.4021 -0.3558
  659MOL0     H90886   0.679   2.703   3.414 -0.9703 -1.7689  0.7502
  659MOL0     H90887   0.836   2.447   3.501 -1.6974 -1.5097  2.5984
  659MOL0     H90888   0.718   2.465   3.370 -2.3935  2.1307 -0.8199
  659MOL0     H90889   0.550   2.529   3.526  0.1507  0.7926 -0.5572
  659MOL0     H90890   0.588   2.360   3.551  1.2218  0.5621 -4.2998
  659MOL0     H90891   0.557   2.673   3.764 -0.4302  0.5737  0.3252
  659MOL0     H90892   0.635   2.734   4.005  1.0156  0.1663  0.8783
  659MOL0     H90893   0.715   2.616   4.097 -0.4316  1.2230 -1.0729
  659MOL0     H90894   0.425   2.680   4.036  0.7082 -0.4519 -2.9069
  659MOL0     H90895   0.469   2.509   4.037  2.5592 -0.4364 -0.1805
  659MOL0     H90896   0.583   2.588   4.290 -0.7442 -1.8025  2.0102
  659MOL0     H90897   0.443   2.704   4.262  2.2915  0.8292 -0.6211
  659MOL0     H90898   0.327   2.468   4.235  0.7149 -1.2887  1.0007
  659MOL0     H90899   0.485   2.410   4.289 -0.5829 -0.8290  1.4222
  659MOL0     H90900   0.379   2.580   4.663 -3.9189  2.3337 -2.7044
  659MOL0     H90901   0.269   2.425   4.943 -0.0205  1.7658  0.2599
  659MOL0     H90902   0.380   2.542   4.884  1.2504  0.1445 -0.0555
  659MOL0     H90903   0.452   2.389   4.925  0.7955  1.5884  2.0541
  659MOL0     H90904   0.122   1.939   4.959 -2.0834 -4.1648  4.1059
  659MOL0     H90905   0.149   1.730   5.098  2.5252  1.8254  2.7616
  659MOL0     H90906   0.459   1.659   5.217  0.0308 -0.9533  0.1343
  659MOL0     H90907   0.315   1.580   5.285  0.3342  0.2824 -0.3024
  659MOL0     H90908   0.485   1.461   5.361 -2.5402  2.5404  0.6371
  659MOL0     H90909   0.396   1.367   5.228  0.3838  0.0048  1.0990
  659MOL0     H90910   0.671   1.524   5.211 -1.7294  0.2866  2.3663
  659MOL0     H90911   0.594   1.418   5.082  1.2162 -0.0616 -0.1624
  659MOL0     H90912   0.624   1.223   5.210 -4.2663  4.1056 -2.9425
  659MOL0     H90913   0.657   1.316   5.357  1.3384  1.1099  0.7487
  659MOL0     H90914   0.851   1.325   5.114 -0.8106  0.4050 -0.8308
  659MOL0     H90915   0.879   1.396   5.264  0.4375  0.9741 -1.0829
  659MOL0     H90916   0.849   1.142   5.364 -3.4376  0.1603 -0.4809
  659MOL0     H90917   1.006   1.200   5.288 -0.6664  3.9727  0.1876
  659MOL0     H90918   0.892   1.108   5.058  1.1259  1.4472  0.5492
  659MOL0     H90919   0.791   1.015   5.164  0.7418 -0.0413  4.3148
  659MOL0     H90920   1.034   0.942   5.263  1.8487  1.8054 -0.4529
  659MOL0     H90921   1.078   0.967   5.100 -1.2768  1.8047 -1.1787
  659MOL0     H90922   0.499   1.622   4.895  0.7965  0.0739 -2.3982
  659MOL0     H90923   0.460   1.819   4.721 -0.7578  1.8016 -0.2824
  659MOL0     H90924   0.299   2.116   4.533  0.9278 -0.0724 -0.8770
  659MOL0     H90925   0.280   2.269   4.383  1.7921 -1.2116  0.3638
  659MOL0     H90926   1.100   3.384   3.530  0.5830 -0.4255 -0.0211
  659MOL0     H90927   1.299   3.512   3.466 -2.6192 -0.4051  2.8140
  659MOL0     H90928   1.593   3.714   3.245  1.5294  1.1131  1.2733
  659MOL0     H90929   1.749   3.850   3.099 -1.6948  0.2828  1.1014
  659MOL0     H90930   2.031   3.675   2.819 -2.0689 -2.0128 -0.4910
  659MOL0     H90931   1.894   3.691   2.713 -1.3211  2.7427 -1.1353
  659MOL0     H90932   2.096   3.825   2.638  0.2355  0.1167 -1.0043
  659MOL0     H90933   2.055   3.941   2.779 -3.8672  2.6649 -1.5821
  659MOL0     H90934   1.837   3.861   2.591 -1.4730  0.8740 -0.9367
  659MOL0     H90935   1.850   4.011   2.699 -0.6406 -0.8729  0.2378
  659MOL0     H90936   2.042   4.067   2.551  0.5269 -1.3584  2.3116
  659MOL0     H90937   1.897   4.116   2.491  2.1808  1.7925  2.7890
  659MOL0     H90938   1.967   3.823   2.201  2.5820 -2.3727  0.5901
  659MOL0     H90939   1.839   3.521   2.856 -0.6925 -3.4558 -0.7555
  659MOL0     H90940   1.676   3.279   3.004  1.6429 -0.6680 -0.7582
  659MOL0     H90941   1.525   3.358   2.935 -0.2687 -0.0185 -0.3785
  659MOL0     H90942   1.683   3.346   2.846  2.7746  1.0313  2.2082
  660MOL0     O90943   5.310   0.139   2.660  1.0989  0.3963 -0.5665
  660MOL0     C90944   5.290   0.129   2.545 -0.0314 -0.4162  0.2912
  660MOL0     O90945   5.341   0.200   2.441  0.2598 -0.1101 -0.7717
  660MOL0     C90946   5.420   0.302   2.470 -0.2418 -0.1971 -0.0567
  660MOL0     C90947   5.366   0.426   2.440  0.7206  0.6265 -0.5059
  660MOL0     C90948   5.438   0.546   2.447 -0.7915  0.8375 -1.3975
  660MOL0     C90949   5.572   0.552   2.488  0.8214  0.4829  0.0954
  660MOL0     O90950   5.649   0.665   2.509  0.6259 -0.2876 -0.0915
  660MOL0     C90951   5.570   0.786   2.529  0.3644 -0.4759 -0.5472
  660MOL0     C90952   5.657   0.914   2.573  0.5654  0.5684 -0.6250
  660MOL0     C90953   5.656   0.920   2.729  0.2739  0.3527  0.9129
  660MOL0     C90954   5.750   0.825   2.801 -0.0403 -0.0569 -0.2542
  660MOL0     C90955   5.722   0.803   2.955  0.8469 -0.0619  0.3521
  660MOL0     C90956   5.818   0.693   3.006  0.1763  0.2891 -0.9481
  660MOL0     C90957   5.796   0.688   3.159 -0.6668  0.3319 -0.0972
  660MOL0     C90958   5.909   0.603   3.226  0.5172 -0.6634 -0.2009
  660MOL0     N90959   5.928   0.644   3.366  0.9075 -0.3899 -0.4918
  660MOL0     C90960   5.857   0.596   3.469  0.1556 -0.8141  0.3399
  660MOL0     C90961   5.931   0.638   3.577 -0.0922 -0.5801 -0.9636
  660MOL0     C90962   5.897   0.648   3.719  0.4987  0.3169  0.7273
  660MOL0     C90963   5.855   0.506   3.761 -0.0782 -0.0989 -0.5912
  660MOL0     C90964   5.918   0.464   3.896 -0.0830 -0.5805  0.1918
  660MOL0     C90965   5.886   0.329   3.948 -0.2967  0.5084  0.1462
  660MOL0     O90966   5.892   0.336   4.089 -0.2780  0.6311 -0.0511
  660MOL0     C90967   6.023   0.331   4.146 -0.2026  1.0314 -0.4361
  660MOL0     C90968   6.042   0.392   4.271  0.7810 -0.0728 -0.2204
  660MOL0     C90969   6.162   0.385   4.338  0.4841  0.7340 -0.3474
  660MOL0     C90970   6.155   0.447   4.476 -0.1596 -0.2106  0.6289
  660MOL0     C90971   6.276   0.334   4.277  0.1511  0.2816 -0.0247
  660MOL0     C90972   6.406   0.321   4.342 -0.3784  0.1643  0.2273
  660MOL0     O90973   6.499   0.238   4.285 -0.1289 -0.1946 -0.8693
  660MOL0     C90974   6.625   0.219   4.333  0.2116  0.3432 -0.4173
  660MOL0     C90975   6.682   0.103   4.293  0.2681 -0.0933  0.3097
  660MOL0     C90976   6.812   0.065   4.336 -0.5760  0.3311  0.7781
  660MOL0     C90977   6.893   0.153   4.405 -0.5056  0.5359 -0.0591
  660MOL0     O90978   7.018   0.126   4.458 -0.2143  0.7116 -0.5161
  660MOL0     C90979   7.070  -0.014   4.468 -0.9385  0.0764 -0.3736
  660MOL0     C90980   7.123  -0.061   4.601 -0.6465  0.1382  0.8401
  660MOL0     C90981   7.043  -0.009   4.718 -0.0621  0.1581 -0.9181
  660MOL0     C90982   7.082  -0.069   4.855 -0.0067  0.0751  0.9028
  660MOL0     C90983   7.049   0.030   4.962 -0.4051 -0.4783  1.0347
  660MOL0     C90984   6.899   0.036   4.986  0.4517  0.7200  0.5126
  660MOL0     C90985   6.853   0.146   5.077  0.6392 -0.2966 -0.2591
  660MOL0     C90986   6.697   0.146   5.108 -0.0006  0.1265 -0.0041
  660MOL0    Cl90987   6.653   0.016   5.206 -0.2471  0.0585  0.1911
  660MOL0     C90988   6.834   0.274   4.437  0.0721 -0.4019 -0.6590
  660MOL0     C90989   6.706   0.299   4.411  0.3330  0.3743  0.3726
  660MOL0     O90990   6.434   0.396   4.442 -0.1580 -0.6475 -0.0118
  660MOL0     C90991   6.257   0.273   4.149 -0.3041 -0.2197 -0.2104
  660MOL0     C90992   6.131   0.270   4.090 -0.0268  0.4424  0.4251
  660MOL0     N90993   6.039   0.718   3.536  0.5511 -0.0302  1.0009
  660MOL0     N90994   6.040   0.711   3.408 -0.3198  0.5363 -0.4103
  660MOL0     C90995   5.628   0.425   2.518 -0.6766 -0.1741  0.3904
  660MOL0     C90996   5.551   0.308   2.522 -0.7148  0.4701  0.4755
  660MOL0     C90997   5.195   0.030   2.503 -0.1030  0.7751 -0.7247
  660MOL0     C90998   5.106   0.048   2.388 -0.0158  0.1393 -0.0089
  660MOL0     C90999   5.000  -0.049   2.358  0.2383 -0.3551 -0.5270
  660MOL0     C91000   4.984  -0.163   2.435  0.3240  0.0210 -0.4183
  660MOL0     O91001   4.882  -0.255   2.427  0.2125  0.4341  0.0443
  660MOL0     C91002   4.769  -0.227   2.345 -0.0713 -0.7034 -0.0110
  660MOL0     C91003   4.665  -0.333   2.394  0.2329  0.6638  0.8255
  660MOL0     C91004   4.703  -0.487   2.359 -0.0492  0.7136 -0.2332
  660MOL0     C91005   4.726  -0.546   2.208  1.6466 -0.4117 -0.5005
  660MOL0     C91006   4.601  -0.502   2.134 -0.4369 -0.3553 -0.6235
  660MOL0     C91007   4.508  -0.467   2.069 -0.6475 -0.9612 -0.3720
  660MOL0     C91008   5.073  -0.182   2.543 -0.2863 -0.2071 -0.2360
  660MOL0     C91009   5.171  -0.090   2.578 -0.1190 -0.3719 -0.0399
  660MOL0     C91010   5.263  -0.131   2.701  0.4467  1.3247 -0.5961
  660MOL0     H91011   5.264   0.420   2.403  1.0603 -1.2786 -1.2556
  660MOL0     H91012   5.377   0.631   2.420 -3.0499 -0.4518 -0.6212
  660MOL0     H91013   5.502   0.771   2.613 -0.5540 -1.9536 -1.4920
  660MOL0     H91014   5.525   0.819   2.435  2.1332 -0.0307 -1.2768
  660MOL0     H91015   5.756   0.917   2.527  0.4702  3.9034 -0.8412
  660MOL0     H91016   5.601   1.005   2.548 -0.0638  0.5712  0.6689
  660MOL0     H91017   5.694   1.014   2.771  3.1980 -0.2518 -0.1858
  660MOL0     H91018   5.553   0.907   2.764  0.2977  0.6043  1.0847
  660MOL0     H91019   5.743   0.728   2.751 -1.6038  0.5475 -1.2498
  660MOL0     H91020   5.855   0.852   2.791  0.6873 -1.3121  2.6768
  660MOL0     H91021   5.614   0.797   2.969  0.6398  0.5357 -0.8237
  660MOL0     H91022   5.757   0.894   3.004  1.2460 -2.1277  4.2440
  660MOL0     H91023   5.800   0.593   2.966 -0.2140  0.1537 -0.4522
  660MOL0     H91024   5.921   0.718   2.981  0.5618 -2.2489 -2.1678
  660MOL0     H91025   5.703   0.631   3.168 -0.2092 -0.4212 -0.0336
  660MOL0     H91026   5.798   0.787   3.206  4.7959  1.0005 -1.0387
  660MOL0     H91027   5.882   0.497   3.225  4.1139 -1.7414 -2.4073
  660MOL0     H91028   6.003   0.620   3.173 -0.1476  0.9739 -0.9305
  660MOL0     H91029   5.758   0.552   3.461 -0.3736  0.3315  0.4043
  660MOL0     H91030   5.827   0.727   3.748 -2.0541 -2.7285  3.6937
  660MOL0     H91031   5.988   0.672   3.776  2.4089 -2.8794 -0.6709
  660MOL0     H91032   5.746   0.510   3.767 -0.4226 -2.5357 -3.2062
  660MOL0     H91033   5.884   0.433   3.685 -0.8017 -1.7678  0.6757
  660MOL0     H91034   6.026   0.474   3.900  0.2225 -3.0328 -0.2931
  660MOL0     H91035   5.879   0.537   3.967 -2.1403 -2.0431  0.6650
  660MOL0     H91036   5.780   0.316   3.922 -0.7478  1.0561  1.6098
  660MOL0     H91037   5.933   0.245   3.897 -2.7873 -0.5312 -0.6094
  660MOL0     H91038   5.952   0.439   4.311  0.2006 -1.2075 -0.1386
  660MOL0     H91039   6.208   0.542   4.468  2.7551 -1.8430 -5.0529
  660MOL0     H91040   6.203   0.377   4.546 -1.3556  1.3943  3.1889
  660MOL0     H91041   6.057   0.461   4.521 -0.1982 -1.1215  0.8588
  660MOL0     H91042   6.611   0.028   4.260 -0.1820  0.0401  0.9640
  660MOL0     H91043   6.839  -0.036   4.307 -2.5532  0.5151 -2.1286
  660MOL0     H91044   6.981  -0.075   4.447 -1.4975 -0.0502  2.1069
  660MOL0     H91045   7.141  -0.040   4.389  1.4898 -1.7586  2.2034
  660MOL0     H91046   7.127  -0.170   4.587 -0.7492  0.2546 -0.1812
  660MOL0     H91047   7.225  -0.030   4.628  0.2810 -0.6961 -1.4277
  660MOL0     H91048   6.937  -0.021   4.697  0.6316 -1.0027 -4.5372
  660MOL0     H91049   7.066   0.097   4.703  0.8722 -0.2527 -2.7211
  660MOL0     H91050   7.189  -0.091   4.855  0.3197  1.3989 -1.2147
  660MOL0     H91051   7.034  -0.166   4.870 -1.7303  0.6120 -0.7666
  660MOL0     H91052   7.086  -0.021   5.052  0.4171  0.7637  1.4283
  660MOL0     H91053   7.098   0.128   4.958 -0.6373 -0.1750  3.6501
  660MOL0     H91054   6.874  -0.060   5.031  4.1153 -1.1918 -1.0671
  660MOL0     H91055   6.848   0.041   4.889  0.0221  0.5708  0.7336
  660MOL0     H91056   6.877   0.235   5.018 -1.2310 -1.7212 -3.4140
  660MOL0     H91057   6.907   0.154   5.171 -0.7643 -0.5872  0.5951
  660MOL0     H91058   6.627   0.132   5.026  0.3869 -1.7130 -0.0509
  660MOL0     H91059   6.671   0.243   5.152 -1.0389  0.2635 -0.8950
  660MOL0     H91060   6.886   0.358   4.483 -0.6641  1.0091 -2.2775
  660MOL0     H91061   6.665   0.398   4.422 -0.8502 -0.0524  0.0045
  660MOL0     H91062   6.346   0.232   4.102  0.7908  1.4961  0.2919
  660MOL0     H91063   6.127   0.223   3.992 -0.3681 -1.9458  1.4982
  660MOL0     H91064   5.732   0.424   2.547 -0.9547 -0.5795  1.4224
  660MOL0     H91065   5.594   0.212   2.548  1.1324  1.0414 -0.2864
  660MOL0     H91066   5.105   0.141   2.333 -1.3098  1.3274  1.8779
  660MOL0     H91067   4.935  -0.028   2.274 -1.2094  1.2754  0.9448
  660MOL0     H91068   4.731  -0.126   2.362 -0.6301 -0.3570 -2.7669
  660MOL0     H91069   4.777  -0.254   2.239  3.3031  1.3282 -0.4295
  660MOL0     H91070   4.573  -0.315   2.336  2.4550  1.8001 -2.6665
  660MOL0     H91071   4.626  -0.320   2.495 -0.1062  1.4838  0.5954
  660MOL0     H91072   4.786  -0.516   2.425 -0.2057 -1.8047 -1.0408
  660MOL0     H91073   4.630  -0.558   2.399  0.0825  1.6818  1.8594
  660MOL0     H91074   4.720  -0.655   2.203 -2.1615 -0.6312  3.1453
  660MOL0     H91075   4.819  -0.513   2.159  1.7819 -1.4002 -0.9239
  660MOL0     H91076   4.419  -0.442   2.015 -0.6897 -0.2092  0.0351
  660MOL0     H91077   5.064  -0.266   2.611  1.9414 -1.9308 -1.9178
  660MOL0     H91078   5.368  -0.104   2.691  1.4310 -1.4162  1.3508
  660MOL0     H91079   5.221  -0.093   2.795 -1.1766  2.0886 -1.5737
  660MOL0     H91080   5.266  -0.238   2.723  0.0976  1.4468  0.0820
  661MOL0     O91081   9.891   8.633   7.674 -0.6877  0.3102 -0.1964
  661MOL0     C91082   9.973   8.642   7.580 -0.1980 -0.1608 -0.8345
  661MOL0     O91083  10.104   8.682   7.590 -1.0507 -0.2854 -0.1895
  661MOL0     C91084  10.146   8.732   7.709 -0.5309  0.1453 -0.4253
  661MOL0     C91085  10.167   8.665   7.831 -0.6845 -0.0557 -1.0671
  661MOL0     C91086  10.209   8.743   7.947  0.7868  0.5747 -0.4742
  661MOL0     C91087  10.242   8.883   7.937 -0.4596  0.3474  0.3165
  661MOL0     O91088  10.299   8.943   8.041 -0.0929  0.3881  0.5891
  661MOL0     C91089  10.213   8.947   8.160  0.4996  0.0480  0.0246
  661MOL0     C91090  10.110   9.066   8.155  0.1832 -0.8623 -0.0161
  661MOL0     C91091   9.976   9.048   8.233 -0.0705 -0.0697  0.0600
  661MOL0     C91092   9.888   8.934   8.175 -0.3301 -1.3266  0.7367
  661MOL0     C91093   9.842   8.822   8.273  0.4503  0.0816  0.2207
  661MOL0     C91094   9.731   8.887   8.355 -0.0764 -0.0597 -0.2823
  661MOL0     C91095   9.665   8.790   8.453  0.0233 -0.7657 -0.5534
  661MOL0     C91096   9.573   8.684   8.388 -0.6017 -0.6200  0.0213
  661MOL0     N91097   9.615   8.540   8.396 -0.3321 -0.5096 -0.1391
  661MOL0     C91098   9.732   8.485   8.333  0.3006  0.5756  0.0898
  661MOL0     C91099   9.704   8.353   8.314  1.2963 -0.7935 -0.9017
  661MOL0     C91100   9.802   8.249   8.256  0.3844 -0.0249  0.0631
  661MOL0     C91101   9.937   8.236   8.326 -0.2120  0.0433  0.1724
  661MOL0     C91102  10.050   8.148   8.246  0.2562  0.0826  0.7533
  661MOL0     C91103  10.192   8.170   8.305 -0.2296  0.4394  0.6026
  661MOL0     O91104  10.191   8.169   8.450  0.8630  0.4522 -0.4406
  661MOL0     C91105  10.299   8.225   8.519 -0.4583  0.2037  0.2703
  661MOL0     C91106  10.427   8.258   8.463  0.9679 -1.2396 -0.7504
  661MOL0     C91107  10.531   8.285   8.551  0.2058  0.5647  0.5685
  661MOL0     C91108  10.674   8.318   8.490  0.3477  0.0033  0.9339
  661MOL0     C91109  10.507   8.304   8.693 -0.0057  0.0171 -0.2995
  661MOL0     C91110  10.607   8.341   8.794 -0.1711 -0.1130  0.4311
  661MOL0     O91111  10.589   8.301   8.923  0.8287 -0.9634 -0.1542
  661MOL0     C91112  10.704   8.271   8.993 -0.9279 -0.1137  0.6483
  661MOL0     C91113  10.790   8.171   8.931 -1.0237  0.1495 -0.4189
  661MOL0     C91114  10.911   8.143   8.987 -0.3416  0.6510 -0.2245
  661MOL0     C91115  10.951   8.235   9.087 -0.6684 -0.3945 -0.6761
  661MOL0     O91116  11.089   8.238   9.115  0.0349  0.1621  0.1143
  661MOL0     C91117  11.158   8.359   9.132  0.1333 -0.9288 -0.4142
  661MOL0     C91118  11.293   8.367   9.065  0.2654  0.2121  0.5093
  661MOL0     C91119  11.294   8.347   8.911 -0.1950 -0.1867  1.1192
  661MOL0     C91120  11.179   8.428   8.847  0.5032 -1.0715 -0.0001
  661MOL0     C91121  11.220   8.433   8.698  0.3444  0.2382 -0.9455
  661MOL0     C91122  11.120   8.520   8.613  0.6065 -0.3869 -0.4566
  661MOL0     C91123  11.170   8.520   8.471  0.1577  0.6401  0.1174
  661MOL0     C91124  11.069   8.605   8.388  0.5312 -0.1430  0.2775
  661MOL0    Cl91125  11.068   8.779   8.438  0.1748 -0.5685 -0.0606
  661MOL0     C91126  10.870   8.329   9.154  0.9839  0.0705 -0.1213
  661MOL0     C91127  10.739   8.340   9.102 -0.7458 -0.3041 -0.5569
  661MOL0     O91128  10.707   8.399   8.755 -0.3505 -0.3233 -0.5982
  661MOL0     C91129  10.376   8.283   8.743 -0.9213  1.2266 -1.1035
  661MOL0     C91130  10.276   8.223   8.663 -0.1115 -0.6439  0.4176
  661MOL0     N91131   9.573   8.329   8.370 -0.4156  0.2010  0.5554
  661MOL0     N91132   9.525   8.445   8.418  0.0259 -0.4240  0.6200
  661MOL0     C91133  10.222   8.942   7.812 -0.2357  0.4022 -0.8753
  661MOL0     C91134  10.171   8.867   7.702 -0.0601  0.6060 -0.4788
  661MOL0     C91135   9.916   8.624   7.446 -0.0788 -0.1029 -0.5383
  661MOL0     C91136   9.889   8.741   7.367  0.6533 -0.1126 -0.3246
  661MOL0     C91137   9.823   8.719   7.251  0.0521 -0.3209  0.9179
  661MOL0     C91138   9.774   8.590   7.210  0.9903  0.2917 -0.0844
  661MOL0     O91139   9.683   8.571   7.107 -0.3958  1.0836 -0.2809
  661MOL0     C91140   9.550   8.619   7.115  0.2336 -0.6231 -1.4809
  661MOL0     C91141   9.458   8.491   7.126  0.5657  0.0668  0.2806
  661MOL0     C91142   9.486   8.367   7.025 -1.3213 -0.5605  0.3036
  661MOL0     C91143   9.369   8.275   7.001  0.0232 -0.3878  0.2677
  661MOL0     C91144   9.260   8.355   6.919 -0.1406  0.8985  0.0600
  661MOL0     C91145   9.176   8.403   6.848  0.5733  0.0313 -0.7970
  661MOL0     C91146   9.804   8.481   7.289  0.6279 -0.5955  0.4078
  661MOL0     C91147   9.870   8.497   7.406 -0.9879  0.7187 -0.8524
  661MOL0     C91148   9.889   8.365   7.479  0.5225 -0.7184  0.0955
  661MOL0     H91149  10.146   8.559   7.830  1.5167 -0.6741  2.6776
  661MOL0     H91150  10.236   8.693   8.040 -3.2277 -0.7230  0.2000
  661MOL0     H91151  10.281   8.964   8.244  0.8772  0.8039 -0.4223
  661MOL0     H91152  10.161   8.853   8.182  1.3607 -0.6239 -0.7622
  661MOL0     H91153  10.160   9.153   8.198  0.7692  0.3377 -2.8750
  661MOL0     H91154  10.092   9.082   8.048 -0.0810 -0.8382  0.0319
  661MOL0     H91155   9.993   9.021   8.338 -0.8013 -2.6089 -0.4103
  661MOL0     H91156   9.926   9.146   8.229  2.6388  1.4761  1.3444
  661MOL0     H91157   9.811   8.991   8.122  1.9038 -0.2445 -1.5337
  661MOL0     H91158   9.951   8.891   8.097  0.6396  0.6703  0.3680
  661MOL0     H91159   9.918   8.782   8.341 -0.8935  0.4506  2.0229
  661MOL0     H91160   9.801   8.747   8.204 -2.6323  0.3229  1.6250
  661MOL0     H91161   9.789   8.966   8.403  3.0230 -2.5128  0.3408
  661MOL0     H91162   9.663   8.933   8.283  0.4189 -0.6134 -1.1207
  661MOL0     H91163   9.602   8.844   8.525 -2.3648 -0.3260 -2.8321
  661MOL0     H91164   9.737   8.750   8.525 -2.1175 -1.1091  1.5404
  661MOL0     H91165   9.473   8.682   8.432 -0.3516 -0.0178  0.6362
  661MOL0     H91166   9.559   8.714   8.283  3.2921  1.7272 -0.0321
  661MOL0     H91167   9.822   8.537   8.300  1.4695 -2.4892 -2.0897
  661MOL0     H91168   9.803   8.281   8.152 -4.1132 -1.0628 -0.4783
  661MOL0     H91169   9.755   8.151   8.247  0.8381 -0.7742  3.9657
  661MOL0     H91170   9.984   8.335   8.336 -3.1410  1.6648 -0.8512
  661MOL0     H91171   9.921   8.203   8.429  0.3662 -1.8146 -0.2987
  661MOL0     H91172  10.023   8.043   8.257 -2.8298  0.9075  2.1690
  661MOL0     H91173  10.056   8.173   8.140  1.9618  2.3775  1.3136
  661MOL0     H91174  10.265   8.093   8.278  1.1515  2.1447 -0.7795
  661MOL0     H91175  10.232   8.268   8.276  0.6346 -0.4051 -1.2397
  661MOL0     H91176  10.434   8.220   8.362 -1.3827 -1.4805 -0.8635
  661MOL0     H91177  10.757   8.268   8.542  0.1771 -1.3217  0.0057
  661MOL0     H91178  10.695   8.425   8.487  1.1127 -0.1566 -1.3853
  661MOL0     H91179  10.680   8.275   8.390 -0.9939  1.1758  0.3251
  661MOL0     H91180  10.760   8.124   8.838 -0.3642 -1.5936  0.2200
  661MOL0     H91181  10.976   8.070   8.939  1.1857  1.5432  0.4143
  661MOL0     H91182  11.103   8.450   9.109  1.1201 -0.4264 -0.8829
  661MOL0     H91183  11.177   8.359   9.239  0.0844 -0.2555 -0.4053
  661MOL0     H91184  11.346   8.462   9.079  1.2811 -0.2631 -0.0358
  661MOL0     H91185  11.353   8.290   9.115  1.2107 -1.2073 -2.5716
  661MOL0     H91186  11.285   8.239   8.902 -0.1913 -0.2092  1.3948
  661MOL0     H91187  11.388   8.383   8.867 -0.8808  4.1297  2.6895
  661MOL0     H91188  11.169   8.531   8.880 -0.2875 -0.0675 -3.0402
  661MOL0     H91189  11.078   8.384   8.848 -0.1541  0.3450 -0.9555
  661MOL0     H91190  11.324   8.465   8.696  0.6893 -0.7413 -0.0202
  661MOL0     H91191  11.232   8.329   8.666  0.6342 -0.8323  2.2030
  661MOL0     H91192  11.122   8.620   8.656 -0.6885 -1.4535  2.3306
  661MOL0     H91193  11.016   8.488   8.619 -0.0446  1.8178  1.7424
  661MOL0     H91194  11.176   8.417   8.435 -2.4626 -0.1762  1.7845
  661MOL0     H91195  11.274   8.554   8.478  0.6292  0.2743 -3.3335
  661MOL0     H91196  10.972   8.557   8.400 -0.4113  1.9867  1.6196
  661MOL0     H91197  11.104   8.605   8.284 -1.2326 -2.1164 -0.3836
  661MOL0     H91198  10.907   8.398   9.229  0.2370 -0.9122  1.2065
  661MOL0     H91199  10.667   8.416   9.131 -0.8949 -0.5577 -0.2570
  661MOL0     H91200  10.353   8.284   8.849  0.4375 -5.1265 -0.3484
  661MOL0     H91201  10.184   8.172   8.690 -0.5897  0.4337  0.8340
  661MOL0     H91202  10.249   9.047   7.811  2.4822 -0.2094  0.2815
  661MOL0     H91203  10.159   8.914   7.605 -2.6862 -0.9106 -1.0038
  661MOL0     H91204   9.923   8.838   7.401 -0.5876 -0.3712  1.8386
  661MOL0     H91205   9.786   8.804   7.194 -4.1691 -2.6277 -0.1899
  661MOL0     H91206   9.529   8.685   7.200 -1.2405 -0.2372 -2.1010
  661MOL0     H91207   9.534   8.683   7.027 -4.3199  0.5635 -0.1108
  661MOL0     H91208   9.351   8.511   7.114  0.5477 -0.9341 -1.6227
  661MOL0     H91209   9.471   8.459   7.229  3.7356  2.6848  0.8584
  661MOL0     H91210   9.501   8.413   6.927  2.1458  1.5443  1.6409
  661MOL0     H91211   9.576   8.316   7.060  0.4196  3.2034  1.9121
  661MOL0     H91212   9.321   8.241   7.093 -2.3367  1.6971 -0.0941
  661MOL0     H91213   9.402   8.191   6.938 -0.8799 -1.0888  0.7055
  661MOL0     H91214   9.096   8.445   6.791  1.7294 -0.8693 -3.2235
  661MOL0     H91215   9.764   8.385   7.257 -1.5404  1.0467 -2.2358
  661MOL0     H91216   9.829   8.360   7.570 -0.3095 -0.7957 -0.4554
  661MOL0     H91217   9.860   8.280   7.417 -0.7549  0.5393 -1.1041
  661MOL0     H91218   9.992   8.359   7.515  0.4697 -1.6954  0.0958
  662MOL0     O91219   7.556   0.357   0.977  0.4387  0.1597  1.0439
  662MOL0     C91220   7.548   0.238   0.990 -0.0170  0.2719 -0.4862
  662MOL0     O91221   7.655   0.154   1.025  0.5427 -0.5704 -0.1026
  662MOL0     C91222   7.781   0.193   1.070  0.5097 -0.3881 -0.4235
  662MOL0     C91223   7.801   0.308   1.145  0.3481  0.1650  0.5848
  662MOL0     C91224   7.931   0.356   1.156 -0.4691  0.0987 -0.4610
  662MOL0     C91225   8.048   0.287   1.114 -0.3912  0.0709  0.6584
  662MOL0     O91226   8.174   0.339   1.152 -0.1570 -0.5591  0.0162
  662MOL0     C91227   8.288   0.258   1.131  0.0831 -0.4154  0.1089
  662MOL0     C91228   8.412   0.318   1.192 -0.3548 -0.8112  0.4026
  662MOL0     C91229   8.396   0.330   1.345 -0.3949 -0.4355  1.1402
  662MOL0     C91230   8.530   0.387   1.404  0.3506  0.6223  0.4213
  662MOL0     C91231   8.523   0.396   1.551  0.5180  0.3279 -0.0166
  662MOL0     C91232   8.469   0.282   1.641  0.3051  0.4936 -0.2013
  662MOL0     C91233   8.567   0.157   1.669 -0.4511  0.5384 -0.8465
  662MOL0     C91234   8.511   0.063   1.772  0.0367 -0.0789 -1.1246
  662MOL0     N91235   8.601  -0.056   1.791  0.7638 -1.3087 -0.0799
  662MOL0     C91236   8.639  -0.108   1.916  0.1322  0.4052  0.2145
  662MOL0     C91237   8.690  -0.232   1.874  0.3539  0.8937 -0.3769
  662MOL0     C91238   8.755  -0.337   1.954 -0.2534 -0.9822  0.6903
  662MOL0     C91239   8.787  -0.287   2.104 -0.0477 -0.2639  0.9597
  662MOL0     C91240   8.859  -0.402   2.164  0.5953 -0.1803 -0.9179
  662MOL0     C91241   8.840  -0.391   2.317 -0.4477  0.1179  0.2466
  662MOL0     O91242   8.862  -0.260   2.366 -0.5962  0.1573  0.1103
  662MOL0     C91243   8.993  -0.223   2.382 -0.3822  0.3289 -0.4783
  662MOL0     C91244   8.994  -0.098   2.440  0.0778  0.7336 -0.3792
  662MOL0     C91245   9.114  -0.035   2.467 -0.5113 -0.3009  0.3520
  662MOL0     C91246   9.107   0.094   2.537  0.0711  0.0895 -0.3401
  662MOL0     C91247   9.234  -0.094   2.422 -0.3073 -0.1122 -0.0095
  662MOL0     C91248   9.369  -0.035   2.443  0.9639 -0.3097  0.2034
  662MOL0     O91249   9.475  -0.120   2.417 -0.0878  0.3311 -0.1682
  662MOL0     C91250   9.604  -0.085   2.428 -0.3044 -0.0275 -0.3034
  662MOL0     C91251   9.669   0.037   2.413  0.9687  0.4026  0.5732
  662MOL0     C91252   9.811   0.038   2.409 -0.0590 -0.2890  0.9263
  662MOL0     C91253   9.896  -0.071   2.429  0.4772 -0.6066 -0.1928
  662MOL0     O91254  10.036  -0.062   2.434 -0.7735  0.1115  0.2890
  662MOL0     C91255  10.092   0.074   2.456 -0.2739 -0.1954 -0.1039
  662MOL0     C91256  10.244   0.074   2.449  0.3897 -0.4323  0.1545
  662MOL0     C91257  10.310  -0.007   2.339  0.0796 -0.6708  0.1894
  662MOL0     C91258  10.467   0.020   2.340  0.4013  0.2098 -0.1191
  662MOL0     C91259  10.520  -0.072   2.236  0.2868  0.7036  0.3936
  662MOL0     C91260  10.665  -0.025   2.199  0.0949  0.1055 -0.5114
  662MOL0     C91261  10.706  -0.042   2.054 -0.0769 -0.0718  0.1085
  662MOL0     C91262  10.618   0.007   1.947  0.0308  0.1230 -0.2092
  662MOL0    Cl91263  10.547   0.175   1.964 -0.1909 -0.6658 -0.2735
  662MOL0     C91264   9.827  -0.187   2.445  0.1436  0.3180  0.6930
  662MOL0     C91265   9.691  -0.195   2.458  0.2384  0.1194 -0.0154
  662MOL0     O91266   9.383   0.068   2.513 -0.4666 -0.2632 -0.4049
  662MOL0     C91267   9.227  -0.214   2.350  0.1892 -0.1576 -0.0154
  662MOL0     C91268   9.112  -0.286   2.330  0.9132 -0.4693 -0.3992
  662MOL0     N91269   8.666  -0.253   1.744 -0.8398 -0.7895 -0.2861
  662MOL0     N91270   8.633  -0.138   1.693 -0.5784  0.8686  0.5570
  662MOL0     C91271   8.028   0.164   1.040 -0.1961 -0.4853  0.6191
  662MOL0     C91272   7.890   0.121   1.024 -0.1982  0.3485 -0.4516
  662MOL0     C91273   7.419   0.162   0.969 -0.1347 -0.2993  0.0726
  662MOL0     C91274   7.428   0.028   0.946  0.0002 -0.1102  0.0553
  662MOL0     C91275   7.318  -0.046   0.895  0.7268  0.5584 -0.0330
  662MOL0     C91276   7.194   0.021   0.880 -0.3307 -0.1123  0.2017
  662MOL0     O91277   7.088  -0.053   0.836  0.5108  0.1455  1.0598
  662MOL0     C91278   7.109  -0.140   0.720  0.2731  0.0464  0.0290
  662MOL0     C91279   7.011  -0.101   0.620  0.2763  0.4142  0.6392
  662MOL0     C91280   7.060  -0.086   0.471  0.6717  0.2187 -0.9072
  662MOL0     C91281   7.148   0.045   0.465 -0.4314  0.2962 -0.6454
  662MOL0     C91282   7.087   0.163   0.537 -1.0839  0.3242 -0.8945
  662MOL0     C91283   7.052   0.263   0.597 -0.2475 -0.1987 -0.1645
  662MOL0     C91284   7.183   0.153   0.928  0.3141  0.8305  0.5064
  662MOL0     C91285   7.293   0.223   0.970  1.7672 -0.1698  0.8322
  662MOL0     C91286   7.267   0.358   1.011  0.1688 -0.1466  0.1990
  662MOL0     H91287   7.721   0.367   1.187 -2.4748 -0.9963 -2.7136
  662MOL0     H91288   7.956   0.446   1.211  3.0900 -1.7216  1.2569
  662MOL0     H91289   8.309   0.246   1.024  0.9820  1.1614  0.0682
  662MOL0     H91290   8.266   0.159   1.171  2.3683 -0.0204  2.5919
  662MOL0     H91291   8.493   0.249   1.169 -0.4389 -1.4725  1.9811
  662MOL0     H91292   8.428   0.412   1.138  0.2648 -1.2703 -0.2254
  662MOL0     H91293   8.313   0.396   1.372 -0.1102 -0.8727  3.2290
  662MOL0     H91294   8.386   0.230   1.387  1.5222 -2.2547 -2.2521
  662MOL0     H91295   8.615   0.327   1.370  1.1214  2.9104 -2.0771
  662MOL0     H91296   8.547   0.485   1.358 -1.8576  0.4705 -0.8570
  662MOL0     H91297   8.462   0.484   1.576  0.6600  0.1568  0.9698
  662MOL0     H91298   8.621   0.425   1.590  1.4924 -1.6431 -0.8942
  662MOL0     H91299   8.448   0.323   1.740  0.6533 -2.1199  1.0261
  662MOL0     H91300   8.373   0.248   1.600  0.6067  1.4746 -1.8028
  662MOL0     H91301   8.659   0.189   1.718 -0.9914  0.5969  0.1783
  662MOL0     H91302   8.575   0.116   1.568 -4.6083 -3.4483  0.0872
  662MOL0     H91303   8.500   0.108   1.871  2.4442 -1.7236 -0.0043
  662MOL0     H91304   8.409   0.036   1.743  1.0449 -2.6456 -2.6034
  662MOL0     H91305   8.633  -0.060   2.013 -6.7035  0.9055 -0.0102
  662MOL0     H91306   8.844  -0.359   1.894 -2.1622  1.3956 -3.4252
  662MOL0     H91307   8.692  -0.427   1.952 -3.0795  0.8846 -0.3602
  662MOL0     H91308   8.855  -0.202   2.101  1.1464 -1.2174 -0.7850
  662MOL0     H91309   8.696  -0.262   2.159  0.1267  4.4402 -0.4937
  662MOL0     H91310   8.814  -0.496   2.131 -1.8660  1.3735 -2.3628
  662MOL0     H91311   8.964  -0.394   2.133  1.8156 -3.4495  1.7845
  662MOL0     H91312   8.738  -0.420   2.344 -0.4489  0.4197  0.5699
  662MOL0     H91313   8.905  -0.468   2.362 -0.8257  2.0112  4.5914
  662MOL0     H91314   8.900  -0.055   2.474  1.5292  1.0427  3.8243
  662MOL0     H91315   9.004   0.129   2.547 -0.2942 -1.0031 -0.0855
  662MOL0     H91316   9.154   0.168   2.472  1.6670 -1.7331 -1.3993
  662MOL0     H91317   9.164   0.097   2.630  1.1797 -0.6116 -0.9634
  662MOL0     H91318   9.609   0.124   2.387 -0.6002 -0.3449  1.5251
  662MOL0     H91319   9.849   0.137   2.384  0.4303 -0.6929  0.0065
  662MOL0     H91320  10.050   0.154   2.395  0.7494  1.8647  1.7194
  662MOL0     H91321  10.049   0.107   2.552 -2.7238  0.2341 -1.2712
  662MOL0     H91322  10.264   0.181   2.435  0.0484 -0.5489 -1.4557
  662MOL0     H91323  10.283   0.045   2.547  2.8564 -0.1987 -0.6963
  662MOL0     H91324  10.261   0.020   2.245 -0.9950  1.6605  1.3302
  662MOL0     H91325  10.291  -0.113   2.360  2.2147 -1.4666 -1.4738
  662MOL0     H91326  10.516   0.004   2.436  1.0064 -0.5302 -0.5412
  662MOL0     H91327  10.473   0.125   2.307  0.8388  1.1860  2.7904
  662MOL0     H91328  10.514  -0.174   2.274 -1.1942  0.2574 -0.9132
  662MOL0     H91329  10.455  -0.083   2.149  0.8105 -0.3578  0.1147
  662MOL0     H91330  10.732  -0.079   2.267 -1.4827  1.2818  2.1599
  662MOL0     H91331  10.675   0.079   2.230  2.9130 -0.5060  0.9688
  662MOL0     H91332  10.721  -0.143   2.013 -2.1061 -0.5847  0.4836
  662MOL0     H91333  10.798   0.016   2.053  0.2954 -0.5838  1.5702
  662MOL0     H91334  10.532  -0.054   1.918 -1.7613  2.3733  0.0546
  662MOL0     H91335  10.676  -0.004   1.855  0.7080 -0.0324  0.2222
  662MOL0     H91336   9.890  -0.275   2.447 -0.8740 -0.4100  1.0027
  662MOL0     H91337   9.649  -0.293   2.480  0.5409 -0.0053  0.0135
  662MOL0     H91338   9.319  -0.259   2.315  1.6022  0.5095  2.6181
  662MOL0     H91339   9.120  -0.367   2.258  2.3589 -2.0936  1.4674
  662MOL0     H91340   8.099   0.095   0.996 -2.2349 -1.3525 -1.5500
  662MOL0     H91341   7.851   0.039   0.965 -1.5571  3.0193 -3.5996
  662MOL0     H91342   7.514  -0.025   0.985  1.5218  1.7153 -0.6502
  662MOL0     H91343   7.321  -0.153   0.879  3.3624  0.4458  0.5765
  662MOL0     H91344   7.213  -0.122   0.689  0.4727 -0.8580  0.1573
  662MOL0     H91345   7.097  -0.237   0.769  1.4981  0.6828  1.7117
  662MOL0     H91346   6.953  -0.013   0.650 -1.9759  0.6083 -3.4982
  662MOL0     H91347   6.929  -0.174   0.621 -1.9782  2.8098  0.9163
  662MOL0     H91348   7.118  -0.166   0.425 -0.1394 -0.3814 -0.9006
  662MOL0     H91349   6.969  -0.078   0.411  1.3748  0.1441 -2.0113
  662MOL0     H91350   7.192   0.072   0.369  0.6806  0.0210 -0.2322
  662MOL0     H91351   7.228   0.011   0.532 -1.5161 -0.3429  0.3748
  662MOL0     H91352   7.026   0.359   0.638 -1.1542  0.5328 -2.2901
  662MOL0     H91353   7.093   0.212   0.917  1.4417  2.2070 -2.1529
  662MOL0     H91354   7.350   0.395   1.073 -1.1350  2.4055  0.5513
  662MOL0     H91355   7.269   0.421   0.921  0.9970 -1.2574 -0.5910
  662MOL0     H91356   7.178   0.380   1.070 -0.7199 -0.9999 -0.7875
  663MOL0     O91357   3.039   4.871   0.406 -0.7894 -0.1186 -0.0074
  663MOL0     C91358   3.049   4.742   0.379 -0.4250 -0.8663 -0.2050
  663MOL0     O91359   2.946   4.665   0.333 -0.0732 -0.4133  0.7049
  663MOL0     C91360   2.824   4.704   0.374  0.1858  0.5000 -0.2674
  663MOL0     C91361   2.745   4.785   0.290  0.5737 -0.2099  0.6850
  663MOL0     C91362   2.615   4.819   0.327  0.3924  0.2731 -0.4679
  663MOL0     C91363   2.561   4.771   0.452  0.4900  0.8087 -0.9733
  663MOL0     O91364   2.423   4.784   0.489 -0.2229  0.0654 -0.4950
  663MOL0     C91365   2.338   4.881   0.418 -0.3988  0.2191  0.3087
  663MOL0     C91366   2.202   4.869   0.487  0.0811 -0.1906  0.6161
  663MOL0     C91367   2.151   4.725   0.485  0.0922 -0.6242  1.3864
  663MOL0     C91368   2.158   4.666   0.624 -0.5276 -0.4322  0.9489
  663MOL0     C91369   2.171   4.510   0.627  0.1177 -0.6716 -0.1652
  663MOL0     C91370   2.127   4.446   0.765  0.4891  0.1269  0.3608
  663MOL0     C91371   2.204   4.509   0.882 -0.7244  0.2530 -0.5629
  663MOL0     C91372   2.197   4.410   1.004  0.0440  0.4287 -0.0659
  663MOL0     N91373   2.275   4.286   0.975 -0.0884  0.2403  0.4660
  663MOL0     C91374   2.405   4.259   0.996  0.4600 -0.0680 -0.1817
  663MOL0     C91375   2.423   4.134   0.979  0.6311  0.0732  0.8675
  663MOL0     C91376   2.554   4.066   0.985  0.4325 -0.4530  0.3963
  663MOL0     C91377   2.592   4.047   1.127 -0.8426 -0.3745 -0.7845
  663MOL0     C91378   2.691   3.933   1.136  0.6039 -0.0037 -1.2897
  663MOL0     C91379   2.831   3.986   1.146 -0.8525 -0.0149 -0.6609
  663MOL0     O91380   2.916   3.886   1.194 -0.2336 -0.7345 -0.6719
  663MOL0     C91381   3.055   3.902   1.198 -0.4310 -0.3836 -0.0248
  663MOL0     C91382   3.124   3.783   1.209  1.0230  0.5924  0.7244
  663MOL0     C91383   3.261   3.783   1.216 -0.1049 -0.2237  0.0800
  663MOL0     C91384   3.327   3.647   1.223  0.2640 -0.2806 -0.3337
  663MOL0     C91385   3.331   3.909   1.204 -0.5091 -0.2326 -0.7021
  663MOL0     C91386   3.478   3.911   1.196  0.0880  0.5643 -0.3719
  663MOL0     O91387   3.533   3.908   1.068  0.1954 -1.0454  0.5664
  663MOL0     C91388   3.667   3.932   1.045  0.3093 -0.1500  0.3786
  663MOL0     C91389   3.725   3.875   0.931 -0.1727 -0.9347  0.0027
  663MOL0     C91390   3.861   3.888   0.912 -0.3035  0.0276  0.4302
  663MOL0     C91391   3.951   3.966   0.990  0.0233  0.2842 -0.6701
  663MOL0     O91392   4.092   3.969   0.981  0.1995 -0.3774 -0.1436
  663MOL0     C91393   4.156   3.872   0.897  1.0683  0.2710  0.1883
  663MOL0     C91394   4.304   3.875   0.911 -0.3281 -0.1732 -0.1597
  663MOL0     C91395   4.383   3.757   0.841  0.0793  0.5519 -0.1310
  663MOL0     C91396   4.534   3.772   0.880 -0.0604  0.0722 -0.5950
  663MOL0     C91397   4.630   3.658   0.841 -0.4538  0.4004 -0.3424
  663MOL0     C91398   4.774   3.682   0.877 -0.5598 -0.4913  0.3497
  663MOL0     C91399   4.847   3.545   0.876  0.3568  0.2000 -0.7008
  663MOL0     C91400   5.001   3.558   0.860 -0.4751 -0.2292  0.6510
  663MOL0    Cl91401   5.097   3.656   0.987 -0.2468 -0.1928  0.0981
  663MOL0     C91402   3.888   4.042   1.089 -0.8286 -0.2575  0.4093
  663MOL0     C91403   3.746   4.020   1.111 -0.1175 -0.9246  0.1409
  663MOL0     O91404   3.542   3.912   1.299  0.0385 -0.5812 -0.7794
  663MOL0     C91405   3.259   4.031   1.198  0.3028  0.4142  0.1072
  663MOL0     C91406   3.123   4.022   1.201  0.5796  0.4494  0.0341
  663MOL0     N91407   2.304   4.082   0.941  0.9832 -0.2745 -0.0812
  663MOL0     N91408   2.221   4.170   0.949 -0.0624 -0.6448 -0.7361
  663MOL0     C91409   2.641   4.698   0.540 -0.6498 -0.2524  0.4192
  663MOL0     C91410   2.775   4.657   0.496 -0.5684 -0.1152  0.2881
  663MOL0     C91411   3.178   4.683   0.418 -0.4479 -0.1938 -0.5924
  663MOL0     C91412   3.176   4.544   0.396  0.1705  0.1070  1.0406
  663MOL0     C91413   3.296   4.473   0.407  1.0323  0.3172 -0.3154
  663MOL0     C91414   3.417   4.533   0.448  1.5088  0.1389  0.0798
  663MOL0     O91415   3.532   4.459   0.456  0.7897 -0.0923  0.1279
  663MOL0     C91416   3.595   4.454   0.329 -0.5715 -1.2580  0.7050
  663MOL0     C91417   3.601   4.317   0.279 -0.2123  0.2486  0.5152
  663MOL0     C91418   3.711   4.291   0.177  0.0706 -0.7374  0.3897
  663MOL0     C91419   3.646   4.310   0.037 -0.5341  0.3053  1.2130
  663MOL0     C91420   3.752   4.308  -0.064 -0.5867  0.2046 -0.5314
  663MOL0     C91421   3.835   4.295  -0.154  0.9199  0.6588 -0.2727
  663MOL0     C91422   3.405   4.670   0.485 -0.4007  0.0274  0.6460
  663MOL0     C91423   3.292   4.749   0.460  1.1728 -0.9812  0.5354
  663MOL0     C91424   3.313   4.903   0.470  0.1037 -0.1728 -0.0259
  663MOL0     H91425   2.776   4.839   0.201  1.5589  0.5862  1.4860
  663MOL0     H91426   2.547   4.861   0.255  1.6037  0.1433 -1.7419
  663MOL0     H91427   2.327   4.852   0.313 -1.0112 -0.0492  0.4450
  663MOL0     H91428   2.381   4.981   0.433  1.4716 -0.5729  0.6156
  663MOL0     H91429   2.215   4.913   0.586  3.2852  2.4259 -0.7544
  663MOL0     H91430   2.130   4.933   0.435  2.5849  0.7101 -2.0313
  663MOL0     H91431   2.051   4.739   0.444  1.1359  2.2442 -0.5388
  663MOL0     H91432   2.215   4.669   0.416 -4.2193 -3.5751 -0.6820
  663MOL0     H91433   2.245   4.714   0.670  0.4967 -1.8520  0.5766
  663MOL0     H91434   2.073   4.697   0.686 -1.6540  2.1339 -1.6387
  663MOL0     H91435   2.273   4.475   0.606 -0.3516 -1.2852 -1.4994
  663MOL0     H91436   2.109   4.462   0.551  2.7967 -1.4286 -2.0207
  663MOL0     H91437   2.019   4.465   0.774  0.6731  1.5625 -0.1939
  663MOL0     H91438   2.142   4.338   0.757 -0.4780  0.0479 -0.6180
  663MOL0     H91439   2.156   4.606   0.896 -3.3393 -1.0236 -0.1313
  663MOL0     H91440   2.309   4.529   0.857 -0.1654 -1.1505  0.5368
  663MOL0     H91441   2.253   4.449   1.089  0.1675 -0.0274  0.0605
  663MOL0     H91442   2.091   4.398   1.027 -0.4675  1.0309 -1.8926
  663MOL0     H91443   2.490   4.326   1.003  1.2979 -0.8380 -2.2088
  663MOL0     H91444   2.627   4.128   0.933 -0.1421 -1.1376 -1.3052
  663MOL0     H91445   2.547   3.973   0.927  1.3285 -0.3351  0.0930
  663MOL0     H91446   2.637   4.142   1.158 -0.0005 -1.1715  0.5180
  663MOL0     H91447   2.503   4.032   1.189  0.0711 -0.9709  0.4253
  663MOL0     H91448   2.663   3.883   1.229  2.6920  0.9960 -0.0758
  663MOL0     H91449   2.684   3.856   1.058 -1.2952 -0.6403 -0.5576
  663MOL0     H91450   2.859   4.011   1.043  0.0873  0.7541 -0.2376
  663MOL0     H91451   2.840   4.062   1.224  0.8775 -1.4639  0.6437
  663MOL0     H91452   3.068   3.691   1.223  1.6571  0.1316  0.2935
  663MOL0     H91453   3.409   3.637   1.151 -0.9049 -1.4214 -1.5652
  663MOL0     H91454   3.255   3.566   1.205  0.8075 -0.7868 -0.2579
  663MOL0     H91455   3.371   3.627   1.321  3.8807  1.7186 -1.3795
  663MOL0     H91456   3.668   3.814   0.863 -0.5469  0.4805 -1.0161
  663MOL0     H91457   3.916   3.832   0.836  1.0696  0.9236  0.7315
  663MOL0     H91458   4.145   3.775   0.947  3.0922  0.7427  1.6971
  663MOL0     H91459   4.124   3.859   0.794 -2.0100  0.3349  1.0401
  663MOL0     H91460   4.349   3.968   0.874 -0.1588  1.3518  3.4813
  663MOL0     H91461   4.327   3.877   1.018 -1.5994 -0.3478  0.1348
  663MOL0     H91462   4.353   3.751   0.736 -3.2400  0.0494  0.7287
  663MOL0     H91463   4.345   3.665   0.886  1.1970  0.9225  1.6533
  663MOL0     H91464   4.547   3.778   0.989  1.7575  1.3706 -0.8273
  663MOL0     H91465   4.562   3.872   0.845 -0.2889  1.1687  2.0728
  663MOL0     H91466   4.595   3.568   0.891  1.9069  0.2020  1.1242
  663MOL0     H91467   4.614   3.627   0.737 -3.2952  0.1630  0.0860
  663MOL0     H91468   4.787   3.733   0.973 -1.4641 -0.7882  0.6413
  663MOL0     H91469   4.811   3.744   0.795 -3.2391 -0.7677 -1.1901
  663MOL0     H91470   4.807   3.482   0.796 -4.4536  0.4393  1.1886
  663MOL0     H91471   4.837   3.495   0.972  0.4489 -0.0570 -0.8228
  663MOL0     H91472   5.032   3.590   0.760 -0.6667 -0.1420  0.6198
  663MOL0     H91473   5.044   3.458   0.869 -0.3130 -0.1939  0.2752
  663MOL0     H91474   3.944   4.117   1.143 -1.4625  1.2373 -0.9567
  663MOL0     H91475   3.708   4.097   1.178  1.9846 -2.7443  3.7181
  663MOL0     H91476   3.293   4.132   1.180  1.0328 -0.1064 -1.6275
  663MOL0     H91477   3.073   4.118   1.203  0.6173  0.4898  2.5595
  663MOL0     H91478   2.601   4.674   0.638  1.5679  3.4685  2.4550
  663MOL0     H91479   2.845   4.600   0.555 -0.0435 -0.9394 -1.0735
  663MOL0     H91480   3.090   4.487   0.362  1.2280 -0.0770 -1.5275
  663MOL0     H91481   3.299   4.367   0.385  2.2418  0.4365 -0.7812
  663MOL0     H91482   3.541   4.510   0.252  0.1266  2.3620  2.6632
  663MOL0     H91483   3.694   4.501   0.335 -0.7843 -0.9624  2.3983
  663MOL0     H91484   3.507   4.274   0.244  1.6752 -3.0533 -0.9170
  663MOL0     H91485   3.620   4.255   0.367 -1.9357 -1.6146 -0.3439
  663MOL0     H91486   3.787   4.368   0.193 -0.1600 -0.8285  2.1524
  663MOL0     H91487   3.755   4.192   0.190 -0.9622 -1.2650 -0.0027
  663MOL0     H91488   3.588   4.403   0.029  0.0825  0.7587  1.8729
  663MOL0     H91489   3.581   4.226   0.012  0.2271 -0.1854  0.8482
  663MOL0     H91490   3.893   4.277  -0.243 -1.2133  2.1839 -2.0869
  663MOL0     H91491   3.491   4.715   0.535 -0.5647 -1.1181  2.0160
  663MOL0     H91492   3.235   4.942   0.537  1.0978  2.0194 -0.0680
  663MOL0     H91493   3.402   4.925   0.530 -1.0818  0.9141  1.4356
  663MOL0     H91494   3.303   4.946   0.370  0.1385 -0.4510 -0.1477
  664MOL0     O91495   8.300   8.830   9.020 -0.0607 -0.0190  0.0364
  664MOL0     C91496   8.224   8.820   9.114 -0.0049  0.0624 -1.2132
  664MOL0     O91497   8.162   8.924   9.172  0.5435 -0.1537  0.2874
  664MOL0     C91498   8.148   9.046   9.098 -0.5641  1.3700  0.1385
  664MOL0     C91499   8.118   9.049   8.959 -0.2187  0.2848 -0.0172
  664MOL0     C91500   8.107   9.174   8.900 -0.2658  0.2677 -0.4841
  664MOL0     C91501   8.124   9.298   8.974  0.3542  0.7723  0.1771
  664MOL0     O91502   8.094   9.426   8.923 -0.1500  0.5671 -0.6902
  664MOL0     C91503   8.083   9.432   8.786 -0.3519 -0.7677 -0.0372
  664MOL0     C91504   8.064   9.581   8.752 -0.2667 -0.6635 -0.1401
  664MOL0     C91505   8.148   9.623   8.636 -0.1875  0.8554  0.7538
  664MOL0     C91506   8.301   9.630   8.687 -0.7057  0.7395 -0.4500
  664MOL0     C91507   8.363   9.737   8.598 -0.3418 -0.4812  0.8398
  664MOL0     C91508   8.510   9.742   8.590 -0.3062 -0.5030 -0.1612
  664MOL0     C91509   8.549   9.841   8.473 -0.4206 -0.0472  0.6461
  664MOL0     C91510   8.697   9.886   8.494  0.4338 -0.0321  1.2765
  664MOL0     N91511   8.727   9.993   8.400  0.2631 -0.5597 -0.0952
  664MOL0     C91512   8.753   9.984   8.266 -1.4263 -0.4503  0.5468
  664MOL0     C91513   8.806  10.098   8.228 -1.1594 -0.4910 -0.3877
  664MOL0     C91514   8.845  10.143   8.082  0.3738  0.3558  0.7540
  664MOL0     C91515   8.928  10.269   8.078 -0.1250  0.1476  0.3579
  664MOL0     C91516   9.063  10.238   8.132  0.9799 -0.3495 -0.0540
  664MOL0     C91517   9.137  10.368   8.149 -0.6286  0.4180 -1.2375
  664MOL0     O91518   9.184  10.427   8.032 -0.3165  0.0827 -0.0474
  664MOL0     C91519   9.284  10.368   7.956  0.4399  0.7705  0.1101
  664MOL0     C91520   9.374  10.269   8.007  0.2178 -0.1832 -0.5636
  664MOL0     C91521   9.464  10.198   7.927 -0.3301 -0.6533 -0.9007
  664MOL0     C91522   9.559  10.099   7.982  0.0099  0.9129 -0.5966
  664MOL0     C91523   9.480  10.228   7.793  0.0559 -0.1317 -0.1722
  664MOL0     C91524   9.571  10.157   7.700 -0.3367 -0.4419 -0.4233
  664MOL0     O91525   9.525  10.098   7.588 -0.1107  0.0974 -0.5983
  664MOL0     C91526   9.612  10.014   7.525  0.0626 -0.7320 -0.2035
  664MOL0     C91527   9.702  10.068   7.432 -0.3368  0.8174  0.3302
  664MOL0     C91528   9.786   9.984   7.354  0.0107  0.8467 -0.3540
  664MOL0     C91529   9.793   9.843   7.377  0.2291 -0.0483 -0.8533
  664MOL0     O91530   9.873   9.744   7.324 -0.0577 -0.3958  0.5172
  664MOL0     C91531   9.965   9.785   7.222  0.0736  0.0530  0.6723
  664MOL0     C91532  10.043   9.661   7.182  0.9405  1.3888  0.1550
  664MOL0     C91533  10.149   9.699   7.082 -0.0001 -0.0770  0.7473
  664MOL0     C91534  10.206   9.575   7.004  0.3526 -0.6622 -0.1346
  664MOL0     C91535  10.279   9.484   7.109 -1.1618  0.1268 -0.7278
  664MOL0     C91536  10.365   9.375   7.052  1.0793  0.2825 -0.1396
  664MOL0     C91537  10.470   9.313   7.144  0.1649  0.6586 -0.4059
  664MOL0     C91538  10.568   9.235   7.061 -0.0133 -0.3640  1.0634
  664MOL0    Cl91539  10.476   9.071   7.037 -0.5110 -0.0297  0.1929
  664MOL0     C91540   9.700   9.795   7.476 -0.1251  0.3850  0.3397
  664MOL0     C91541   9.616   9.880   7.547 -0.5210  0.3751 -0.2479
  664MOL0     O91542   9.693  10.169   7.734  0.0812  0.4910  0.1091
  664MOL0     C91543   9.389  10.319   7.745 -0.7396  0.2614 -0.2080
  664MOL0     C91544   9.293  10.388   7.820  0.2716 -0.2314 -0.8297
  664MOL0     N91545   8.816  10.180   8.342 -1.2480 -0.8413 -0.4872
  664MOL0     N91546   8.773  10.119   8.442  0.5663 -0.0968  1.1804
  664MOL0     C91547   8.155   9.288   9.111 -0.1173  0.3001 -0.2627
  664MOL0     C91548   8.152   9.165   9.170  1.0922  0.6308  0.1696
  664MOL0     C91549   8.230   8.706   9.219  0.3999  0.3302 -0.0727
  664MOL0     C91550   8.210   8.742   9.359 -0.8131  0.6385 -0.3446
  664MOL0     C91551   8.196   8.638   9.450  0.1378  0.3342  0.2542
  664MOL0     C91552   8.211   8.506   9.412  0.4736  0.6445  1.2052
  664MOL0     O91553   8.190   8.421   9.516  0.1497 -0.3882 -0.2041
  664MOL0     C91554   8.229   8.286   9.511  0.1892  0.8382  0.0824
  664MOL0     C91555   8.118   8.186   9.460  0.1720 -0.0065 -0.4007
  664MOL0     C91556   7.989   8.167   9.551  0.4410 -0.5621  1.5240
  664MOL0     C91557   7.899   8.049   9.496 -0.2176 -0.4650  0.5424
  664MOL0     C91558   7.877   8.050   9.346  1.1605  0.3441  0.5174
  664MOL0     C91559   7.853   8.055   9.231  0.1180 -0.7276 -0.0108
  664MOL0     C91560   8.248   8.480   9.281 -0.0238  0.5977  0.2154
  664MOL0     C91561   8.257   8.576   9.184 -0.0450  0.1790 -0.8263
  664MOL0     C91562   8.287   8.518   9.050 -0.1047  1.3822  0.0486
  664MOL0     H91563   8.104   8.961   8.897  0.4706  1.1457 -1.4374
  664MOL0     H91564   8.083   9.173   8.794  0.3155  0.3630 -0.6237
  664MOL0     H91565   8.006   9.366   8.746 -5.6026  4.3629  0.3349
  664MOL0     H91566   8.181   9.402   8.747 -0.0386  0.5295 -0.3104
  664MOL0     H91567   7.958   9.583   8.726 -1.0698 -2.1087  2.6185
  664MOL0     H91568   8.085   9.641   8.841  0.5311 -1.3307  0.1383
  664MOL0     H91569   8.135   9.557   8.549 -0.2452 -1.5829  2.5082
  664MOL0     H91570   8.112   9.719   8.597 -0.2946 -0.4282 -2.6704
  664MOL0     H91571   8.304   9.642   8.796  1.2114  0.3077 -0.4320
  664MOL0     H91572   8.347   9.531   8.676 -2.5377  0.0416 -2.5771
  664MOL0     H91573   8.322   9.834   8.628  0.9512  1.0195 -1.8574
  664MOL0     H91574   8.329   9.711   8.497  0.3934 -1.3852  0.8087
  664MOL0     H91575   8.550   9.795   8.677 -2.9702  1.2998  0.0760
  664MOL0     H91576   8.565   9.647   8.582 -2.7415 -2.3440  2.7289
  664MOL0     H91577   8.496   9.936   8.466 -1.1295 -0.5404 -4.5219
  664MOL0     H91578   8.535   9.787   8.379 -0.4867 -0.0975  0.6840
  664MOL0     H91579   8.711   9.922   8.596 -1.0153 -0.2021  1.5474
  664MOL0     H91580   8.757   9.794   8.491 -0.0006 -0.5084  4.4035
  664MOL0     H91581   8.731   9.894   8.209  1.7249 -0.8469 -0.1985
  664MOL0     H91582   8.763  10.172   8.016  0.6676 -0.5318 -0.0337
  664MOL0     H91583   8.895  10.062   8.028  2.0872  3.4804 -2.8610
  664MOL0     H91584   8.933  10.309   7.976 -0.7634 -1.7328 -0.4581
  664MOL0     H91585   8.885  10.342   8.147  2.9488  0.1997  2.4274
  664MOL0     H91586   9.047  10.186   8.228  1.3221 -3.1659 -1.4080
  664MOL0     H91587   9.114  10.171   8.062 -2.2781  0.1285 -3.1501
  664MOL0     H91588   9.071  10.441   8.197 -2.1627 -0.1152 -2.4588
  664MOL0     H91589   9.217  10.363   8.223  0.7273  1.4353 -2.5551
  664MOL0     H91590   9.362  10.259   8.115  0.2464  0.0149 -0.5425
  664MOL0     H91591   9.547  10.004   7.931  1.5312  0.4800 -0.2123
  664MOL0     H91592   9.542  10.091   8.090 -2.4671  0.3622 -0.9706
  664MOL0     H91593   9.660  10.140   7.970 -0.6931  3.8083  2.0493
  664MOL0     H91594   9.719  10.173   7.411  4.9276  0.3326  0.8619
  664MOL0     H91595   9.842  10.044   7.283  2.5848  2.2893  2.6461
  664MOL0     H91596   9.913   9.841   7.144  2.9465  0.2872 -1.2237
  664MOL0     H91597  10.042   9.853   7.261  0.8452  1.2210 -2.6090
  664MOL0     H91598  10.092   9.619   7.270 -0.2640 -2.8546 -0.9517
  664MOL0     H91599   9.967   9.590   7.147 -0.1008  1.5695  1.9087
  664MOL0     H91600  10.238   9.742   7.129  3.2897 -2.6021 -2.5780
  664MOL0     H91601  10.120   9.767   7.001  1.9941 -0.1633 -0.0912
  664MOL0     H91602  10.272   9.598   6.919 -0.8488  2.0874 -0.4278
  664MOL0     H91603  10.126   9.511   6.965 -0.3814 -0.4708  1.0195
  664MOL0     H91604  10.350   9.549   7.160 -0.4701 -0.3205 -1.1097
  664MOL0     H91605  10.217   9.437   7.187  2.7898 -1.8036  1.5912
  664MOL0     H91606  10.425   9.432   6.981 -0.4089  1.2471 -0.6831
  664MOL0     H91607  10.306   9.296   7.005 -2.7444  2.1478  1.0853
  664MOL0     H91608  10.421   9.246   7.216  0.5456 -4.7589 -4.5103
  664MOL0     H91609  10.528   9.388   7.199  0.3539 -0.7243  1.3908
  664MOL0     H91610  10.655   9.223   7.125 -0.5317  2.2046  2.4149
  664MOL0     H91611  10.580   9.283   6.964 -1.7641  0.5617  1.2614
  664MOL0     H91612   9.695   9.688   7.497 -1.9653  0.5102  0.6763
  664MOL0     H91613   9.539   9.835   7.610  0.6067 -0.9314  0.2447
  664MOL0     H91614   9.400  10.351   7.642  0.4095 -1.4917 -0.6672
  664MOL0     H91615   9.228  10.467   7.784 -0.6221 -0.4685  0.2053
  664MOL0     H91616   8.162   9.376   9.174 -1.7827  0.7425 -0.6380
  664MOL0     H91617   8.163   9.141   9.276  4.2898 -3.5380 -0.8514
  664MOL0     H91618   8.201   8.844   9.397  1.0801 -0.0245  2.1324
  664MOL0     H91619   8.180   8.664   9.554  1.1799  0.2287  0.4436
  664MOL0     H91620   8.319   8.277   9.450  1.1727 -0.0478  1.5937
  664MOL0     H91621   8.252   8.258   9.614  0.1750  1.5693  0.2849
  664MOL0     H91622   8.167   8.091   9.442 -1.7977 -0.7523 -2.3291
  664MOL0     H91623   8.096   8.222   9.359  1.0092 -0.9743 -0.9401
  664MOL0     H91624   8.017   8.148   9.655  2.9883  0.5925  1.1342
  664MOL0     H91625   7.940   8.265   9.543 -2.3133 -1.9016  1.1414
  664MOL0     H91626   7.799   8.049   9.540 -0.7227  0.5134 -0.5686
  664MOL0     H91627   7.951   7.956   9.525  0.4015  0.2621  1.8683
  664MOL0     H91628   7.840   8.075   9.126 -0.0909  0.1420  0.1746
  664MOL0     H91629   8.283   8.380   9.255  1.8775  1.2227  0.2274
  664MOL0     H91630   8.249   8.417   9.038 -2.2343  2.2190 -0.6695
  664MOL0     H91631   8.262   8.587   8.969 -0.4455  1.8514  0.5452
  664MOL0     H91632   8.397   8.514   9.054 -0.1660  0.0666  2.8910
  665MOL0     O91633   9.096   5.784   4.916  0.3678  0.4608  0.1926
  665MOL0     C91634   9.114   5.810   4.799 -0.4098  0.1477 -0.2591
  665MOL0     O91635   9.171   5.924   4.744  0.0514 -0.5297 -0.0989
  665MOL0     C91636   9.258   5.998   4.809  0.6285 -0.4161  0.0249
  665MOL0     C91637   9.221   6.046   4.939 -0.0642 -0.5887  0.4334
  665MOL0     C91638   9.308   6.118   5.009  0.4279 -0.9327  0.1538
  665MOL0     C91639   9.425   6.168   4.955 -0.4391  0.1631 -0.6740
  665MOL0     O91640   9.510   6.233   5.036  0.4137 -0.2384  0.2600
  665MOL0     C91641   9.637   6.193   5.049  0.1330  0.2001 -1.0437
  665MOL0     C91642   9.700   6.287   5.148 -0.5514 -0.3232  0.0181
  665MOL0     C91643   9.651   6.257   5.294 -0.4560  0.6604  0.4438
  665MOL0     C91644   9.727   6.346   5.393 -0.2378  0.3484  0.3521
  665MOL0     C91645   9.649   6.350   5.524 -0.2411  0.2496 -0.4650
  665MOL0     C91646   9.698   6.472   5.613 -0.6714  0.3166 -0.6602
  665MOL0     C91647   9.628   6.491   5.755 -0.1502 -0.4294  0.2145
  665MOL0     C91648   9.651   6.376   5.852 -0.5145  0.9148 -0.0571
  665MOL0     N91649   9.779   6.383   5.937  0.3165  0.1105  0.4800
  665MOL0     C91650   9.907   6.418   5.892  0.1216  0.0616 -0.2314
  665MOL0     C91651   9.986   6.412   6.001  0.1468  0.4408 -0.0073
  665MOL0     C91652  10.131   6.433   5.984  0.0062 -0.3747 -0.8997
  665MOL0     C91653  10.209   6.308   5.944  0.1711 -0.2997  0.5403
  665MOL0     C91654  10.228   6.203   6.052  0.2891  0.0624  0.7958
  665MOL0     C91655  10.304   6.079   6.016  0.4234 -0.0554  0.1775
  665MOL0     O91656  10.269   5.980   6.115  0.0638  0.0010 -0.2843
  665MOL0     C91657  10.351   5.863   6.111  1.1307  0.5407  0.3101
  665MOL0     C91658  10.468   5.847   6.185 -0.8750 -0.2011  0.1048
  665MOL0     C91659  10.551   5.733   6.193 -0.4810 -0.0597 -0.9337
  665MOL0     C91660  10.680   5.751   6.269 -0.0150 -0.2361  0.7231
  665MOL0     C91661  10.514   5.616   6.114 -0.0924  0.0293 -0.4815
  665MOL0     C91662  10.589   5.484   6.100 -0.0937  0.4145 -0.4861
  665MOL0     O91663  10.538   5.398   6.013  0.6157 -0.0336  0.2343
  665MOL0     C91664  10.596   5.272   6.011  0.2435  0.7593 -0.5957
  665MOL0     C91665  10.520   5.148   6.029 -0.0688 -0.0797  0.3448
  665MOL0     C91666  10.585   5.021   6.024  0.5270  0.6096  0.2692
  665MOL0     C91667  10.724   5.019   6.001 -0.3048 -0.2279 -0.1278
  665MOL0     O91668  10.794   4.906   5.980  1.1147 -0.3916 -0.0996
  665MOL0     C91669  10.728   4.818   5.886 -0.1198  0.1218 -0.2880
  665MOL0     C91670  10.812   4.691   5.881 -1.0570 -0.2624  0.1087
  665MOL0     C91671  10.954   4.733   5.831 -0.1165 -0.7589 -0.6333
  665MOL0     C91672  11.053   4.618   5.831 -0.4369  0.2643 -0.5320
  665MOL0     C91673  11.173   4.657   5.745  0.1187  0.0690  0.5337
  665MOL0     C91674  11.137   4.640   5.595 -0.4818  1.1488 -0.1278
  665MOL0     C91675  11.255   4.697   5.511  0.1064 -0.1272  0.4334
  665MOL0     C91676  11.251   4.659   5.370 -0.1748 -0.6129 -1.1487
  665MOL0    Cl91677  11.249   4.485   5.343  0.3243  0.0167 -0.3817
  665MOL0     C91678  10.800   5.138   5.995  0.1101  0.9221 -0.1971
  665MOL0     C91679  10.735   5.261   5.989  0.3997 -1.0014  0.8581
  665MOL0     O91680  10.687   5.473   6.169  0.2915 -0.1992 -0.3018
  665MOL0     C91681  10.389   5.635   6.048 -0.1297  0.4919  0.0866
  665MOL0     C91682  10.312   5.744   6.051  1.5059  0.1242 -0.0065
  665MOL0     N91683   9.913   6.363   6.112 -0.8963 -0.1601 -0.3770
  665MOL0     N91684   9.792   6.341   6.068  0.0235 -0.0433  0.0199
  665MOL0     C91685   9.462   6.139   4.823  0.2745 -0.5844  0.0932
  665MOL0     C91686   9.378   6.050   4.761 -0.5121 -0.1103 -0.4556
  665MOL0     C91687   9.056   5.718   4.693 -0.1110 -0.7297  0.1262
  665MOL0     C91688   9.060   5.761   4.558  0.4631  0.4443 -0.0244
  665MOL0     C91689   9.005   5.679   4.459 -0.0902 -0.3617 -0.0284
  665MOL0     C91690   8.939   5.560   4.490 -0.1119  0.7899 -0.1395
  665MOL0     O91691   8.890   5.489   4.386  0.7030 -0.5994 -0.2975
  665MOL0     C91692   8.813   5.372   4.403  0.3553  0.2758  0.6079
  665MOL0     C91693   8.671   5.399   4.452  0.5753 -0.6086 -0.6222
  665MOL0     C91694   8.588   5.495   4.354 -0.7657  0.0171  0.2073
  665MOL0     C91695   8.443   5.490   4.372 -0.6497  0.8389  0.7492
  665MOL0     C91696   8.408   5.611   4.451 -1.0857 -0.5453 -0.7705
  665MOL0     C91697   8.368   5.709   4.516  0.0115  0.0936  0.9060
  665MOL0     C91698   8.947   5.518   4.614 -0.0615  1.7041 -0.7608
  665MOL0     C91699   9.007   5.588   4.719 -0.3980 -0.6584 -0.3770
  665MOL0     C91700   9.014   5.511   4.847  1.5993 -1.1503 -0.2962
  665MOL0     H91701   9.130   6.013   4.988 -0.4849  0.8649  0.6992
  665MOL0     H91702   9.278   6.137   5.112 -3.3302 -2.1578 -0.5672
  665MOL0     H91703   9.690   6.191   4.953  2.0776 -0.0132 -0.0026
  665MOL0     H91704   9.638   6.088   5.077 -1.0356  0.5015  0.2071
  665MOL0     H91705   9.809   6.274   5.145 -0.0599  2.5914  1.8819
  665MOL0     H91706   9.691   6.391   5.115  3.3445 -0.0145 -0.6396
  665MOL0     H91707   9.548   6.291   5.306 -0.6127  0.0155  0.9606
  665MOL0     H91708   9.657   6.154   5.330  0.2844 -0.0256 -1.5143
  665MOL0     H91709   9.824   6.303   5.421 -0.5118  0.2379  1.1816
  665MOL0     H91710   9.734   6.445   5.349  0.2463 -0.3563 -1.2368
  665MOL0     H91711   9.673   6.254   5.571  1.7826 -0.7297 -3.2590
  665MOL0     H91712   9.541   6.356   5.508 -0.3100  1.4798  0.3567
  665MOL0     H91713   9.807   6.471   5.618 -0.5198 -2.4208 -2.5077
  665MOL0     H91714   9.682   6.573   5.574  1.2469  0.8424 -0.1763
  665MOL0     H91715   9.519   6.499   5.745 -0.1039  0.3379  0.2576
  665MOL0     H91716   9.648   6.585   5.806 -3.6259  1.1493 -1.0461
  665MOL0     H91717   9.571   6.377   5.926 -2.0131  1.0505 -1.6123
  665MOL0     H91718   9.645   6.276   5.807 -0.1297  0.2824  1.2341
  665MOL0     H91719   9.933   6.441   5.790 -3.8799 -0.2853 -1.4728
  665MOL0     H91720  10.148   6.485   6.079 -3.3091  0.9818 -0.9447
  665MOL0     H91721  10.146   6.518   5.917 -1.7963  1.0936  0.4631
  665MOL0     H91722  10.170   6.271   5.848  1.9779 -1.5958  0.2551
  665MOL0     H91723  10.308   6.348   5.919  1.4953 -2.8236  1.4792
  665MOL0     H91724  10.258   6.244   6.149 -1.1302  0.1012  1.2323
  665MOL0     H91725  10.131   6.159   6.075  1.3379 -1.7291  2.0531
  665MOL0     H91726  10.278   6.028   5.923  4.9771 -5.1853  1.1638
  665MOL0     H91727  10.410   6.101   5.997  0.0707 -0.4962 -2.8644
  665MOL0     H91728  10.495   5.927   6.254 -3.0378 -0.6892  1.6172
  665MOL0     H91729  10.758   5.782   6.198  3.0130 -1.6514  3.2077
  665MOL0     H91730  10.720   5.657   6.308  1.8535 -0.1267 -0.7606
  665MOL0     H91731  10.687   5.830   6.344  3.0843 -0.4183  0.7812
  665MOL0     H91732  10.413   5.162   6.043 -0.7564 -1.0447 -3.0610
  665MOL0     H91733  10.538   4.924   6.034 -1.9270  1.8297  1.4576
  665MOL0     H91734  10.628   4.778   5.906  0.5240 -1.3972  0.0701
  665MOL0     H91735  10.729   4.862   5.786 -1.3577  4.2359  1.2930
  665MOL0     H91736  10.815   4.649   5.982 -2.1389  0.0852  0.2934
  665MOL0     H91737  10.769   4.608   5.824 -1.7349 -0.2521  0.6007
  665MOL0     H91738  10.991   4.816   5.892 -2.5211 -0.7063  0.9091
  665MOL0     H91739  10.945   4.778   5.732 -0.6684  1.1523  0.2201
  665MOL0     H91740  10.986   4.545   5.783 -1.8607 -0.5502  2.4214
  665MOL0     H91741  11.074   4.567   5.926 -0.7436  0.6039 -0.2782
  665MOL0     H91742  11.192   4.763   5.761  1.3875 -0.3658  2.3428
  665MOL0     H91743  11.258   4.594   5.775 -0.3183 -1.4829 -1.2831
  665MOL0     H91744  11.044   4.692   5.571 -2.0808 -1.4606  0.0537
  665MOL0     H91745  11.114   4.533   5.586  1.5909  0.6255  0.2498
  665MOL0     H91746  11.351   4.665   5.552 -0.1965 -0.8919  0.5585
  665MOL0     H91747  11.241   4.806   5.512 -0.0378 -0.0320 -2.8386
  665MOL0     H91748  11.345   4.684   5.320  0.7227 -0.2076  0.6497
  665MOL0     H91749  11.163   4.711   5.330  0.6125  2.4411  0.6883
  665MOL0     H91750  10.907   5.126   5.979 -0.3235 -2.1083 -1.5839
  665MOL0     H91751  10.780   5.357   5.966 -0.0776 -1.0400 -0.2857
  665MOL0     H91752  10.342   5.556   5.989  0.2224 -0.1585  0.6666
  665MOL0     H91753  10.212   5.737   6.008  1.5023 -1.2231  0.1768
  665MOL0     H91754   9.556   6.173   4.781 -0.6214  1.3310 -0.4745
  665MOL0     H91755   9.415   6.006   4.669 -0.9715 -3.6367  0.9085
  665MOL0     H91756   9.107   5.850   4.517  0.7098 -1.6369 -5.0758
  665MOL0     H91757   9.013   5.711   4.356  0.9982 -0.1135  0.1222
  665MOL0     H91758   8.796   5.338   4.300 -1.6420  1.1061  0.6138
  665MOL0     H91759   8.869   5.293   4.455 -0.8368  0.2948  1.9739
  665MOL0     H91760   8.683   5.459   4.543 -1.9323 -1.7054  0.5134
  665MOL0     H91761   8.618   5.308   4.481 -0.8375 -0.1387 -1.6289
  665MOL0     H91762   8.629   5.595   4.366  2.2771 -1.3516  2.9736
  665MOL0     H91763   8.600   5.462   4.250  3.6115  0.0288  0.5412
  665MOL0     H91764   8.426   5.403   4.437  1.4434  0.1575  0.4459
  665MOL0     H91765   8.385   5.484   4.280  1.0058 -2.0588 -0.2263
  665MOL0     H91766   8.340   5.799   4.568 -1.4994 -1.0097  2.1005
  665MOL0     H91767   8.906   5.420   4.635  3.0130 -0.3740 -3.4665
  665MOL0     H91768   9.003   5.404   4.829 -1.4573 -1.3333  1.8916
  665MOL0     H91769   9.100   5.532   4.913 -0.0744  3.1632  0.8246
  665MOL0     H91770   8.934   5.550   4.911  1.1329 -1.1670 -0.8634
  666MOL0     O91771   6.160   6.915   6.534 -0.3038  0.4875  0.1129
  666MOL0     C91772   6.158   7.024   6.583  0.9461  0.2916  0.3852
  666MOL0     O91773   6.154   7.050   6.717 -0.0235 -0.3695 -0.0611
  666MOL0     C91774   6.194   6.947   6.813  0.2426 -0.1634  0.6671
  666MOL0     C91775   6.096   6.868   6.886 -1.3683 -0.8893 -0.0607
  666MOL0     C91776   6.141   6.757   6.958  0.2917  0.2991 -0.6270
  666MOL0     C91777   6.275   6.738   6.989  0.0174 -0.7355  0.1837
  666MOL0     O91778   6.327   6.638   7.071 -0.2245 -0.5085  0.5195
  666MOL0     C91779   6.238   6.559   7.142 -0.7384  0.0531 -0.6779
  666MOL0     C91780   6.334   6.456   7.213 -0.3709  0.2851  0.0956
  666MOL0     C91781   6.264   6.350   7.300 -0.4266 -0.2039 -0.2171
  666MOL0     C91782   6.363   6.250   7.370 -0.4218 -0.0209 -0.0268
  666MOL0     C91783   6.291   6.166   7.477 -0.1264 -0.7588 -0.4295
  666MOL0     C91784   6.348   6.023   7.496 -0.7462 -0.7916 -0.0860
  666MOL0     C91785   6.331   5.975   7.637  0.6961 -0.3983  0.1797
  666MOL0     C91786   6.365   5.838   7.655  0.1865  0.7538 -0.1019
  666MOL0     N91787   6.299   5.783   7.771 -0.1343 -0.0133 -0.8039
  666MOL0     C91788   6.165   5.744   7.779  0.5757  0.3636  0.4137
  666MOL0     C91789   6.138   5.716   7.907 -0.3705  0.3897  0.3593
  666MOL0     C91790   6.008   5.660   7.955  1.0613  0.2958  0.3688
  666MOL0     C91791   5.958   5.746   8.074 -0.8719 -0.0280  0.5787
  666MOL0     C91792   5.819   5.698   8.113 -0.4886  0.2186  0.1016
  666MOL0     C91793   5.817   5.571   8.193  0.1619 -0.6230  0.2498
  666MOL0     O91794   5.687   5.557   8.244  0.5530 -0.9100 -0.3347
  666MOL0     C91795   5.655   5.445   8.320  0.6426 -0.6220  0.3941
  666MOL0     C91796   5.745   5.349   8.354  0.9640  0.6114 -0.5641
  666MOL0     C91797   5.715   5.229   8.419  0.1497 -0.1132 -0.0894
  666MOL0     C91798   5.832   5.149   8.483  0.4047 -0.1992  0.2259
  666MOL0     C91799   5.575   5.203   8.441 -0.9442 -1.0902  0.4481
  666MOL0     C91800   5.540   5.080   8.498  0.4708  0.2822 -0.8230
  666MOL0     O91801   5.439   5.094   8.591 -1.2905  0.2925 -0.2715
  666MOL0     C91802   5.379   4.990   8.662 -0.6783  0.5570  0.5187
  666MOL0     C91803   5.440   4.873   8.701 -0.3560  0.2739 -0.0650
  666MOL0     C91804   5.383   4.764   8.754  1.1903 -0.0760 -0.0397
  666MOL0     C91805   5.249   4.772   8.772  0.5314 -0.6435  0.6366
  666MOL0     O91806   5.180   4.658   8.814 -0.2578  0.5461  0.3307
  666MOL0     C91807   5.179   4.652   8.956  0.7398 -0.5988  0.4244
  666MOL0     C91808   5.050   4.586   9.009  0.3792  0.3644  0.5878
  666MOL0     C91809   4.930   4.662   8.951  1.5724  0.4263 -0.2267
  666MOL0     C91810   4.818   4.660   9.056 -0.7393  0.2178 -0.4060
  666MOL0     C91811   4.680   4.633   8.983 -1.3766 -0.4822 -0.5859
  666MOL0     C91812   4.628   4.769   8.928 -0.1393  0.1386  0.1951
  666MOL0     C91813   4.495   4.748   8.850  0.4255 -0.0950  0.5039
  666MOL0     C91814   4.437   4.870   8.790  0.7562  0.4939  0.1834
  666MOL0    Cl91815   4.515   4.929   8.649  0.0340  0.0316  0.4302
  666MOL0     C91816   5.176   4.877   8.728 -0.0359 -0.8043 -1.4966
  666MOL0     C91817   5.243   4.989   8.682 -0.3495  0.8291  0.3871
  666MOL0     O91818   5.577   4.971   8.458  0.1248 -0.6824 -0.2464
  666MOL0     C91819   5.481   5.301   8.407  0.2595 -0.9452 -1.1702
  666MOL0     C91820   5.515   5.421   8.342 -1.0974  0.6942  0.1057
  666MOL0     N91821   6.252   5.729   7.987  0.4941  1.2775  0.1894
  666MOL0     N91822   6.346   5.769   7.906  0.0480 -0.3373  0.5017
  666MOL0     C91823   6.371   6.829   6.933  0.2679 -0.3224  0.1335
  666MOL0     C91824   6.324   6.933   6.849 -0.0650  0.3483  0.1834
  666MOL0     C91825   6.167   7.137   6.486 -0.3428 -0.0808 -0.3851
  666MOL0     C91826   6.145   7.111   6.350  1.3367  0.0463  0.3024
  666MOL0     C91827   6.142   7.215   6.250  0.2664  0.1985  0.3063
  666MOL0     C91828   6.161   7.346   6.287  1.1254 -0.0366  0.1679
  666MOL0     O91829   6.166   7.453   6.208  0.7986 -0.2866  0.2434
  666MOL0     C91830   6.156   7.422   6.069  0.1481  0.2762  0.1892
  666MOL0     C91831   6.011   7.396   6.016  0.3446 -0.0947  0.2126
  666MOL0     C91832   5.938   7.538   5.994 -0.4815  0.6155  0.0171
  666MOL0     C91833   5.811   7.540   5.914  0.2827 -1.3856 -0.8411
  666MOL0     C91834   5.842   7.510   5.771  0.3239  0.7182 -0.1892
  666MOL0     C91835   5.866   7.466   5.662  1.2379 -0.0273 -0.5102
  666MOL0     C91836   6.190   7.372   6.428  0.2079  0.3876  0.7081
  666MOL0     C91837   6.197   7.265   6.524  0.4758 -0.7180  0.5135
  666MOL0     C91838   6.216   7.304   6.666  0.4189  0.4944  0.3353
  666MOL0     H91839   5.991   6.884   6.864 -2.1987 -1.4829  2.9689
  666MOL0     H91840   6.060   6.692   6.989  1.9337 -1.7901 -0.5284
  666MOL0     H91841   6.167   6.505   7.078  0.0842 -3.1910  0.9274
  666MOL0     H91842   6.182   6.618   7.214 -1.4391  1.0644 -2.0034
  666MOL0     H91843   6.390   6.400   7.137 -3.1605 -1.5338 -0.7959
  666MOL0     H91844   6.404   6.508   7.279 -0.5440  2.9085 -1.6091
  666MOL0     H91845   6.199   6.409   7.366 -4.3716 -3.1849 -1.0766
  666MOL0     H91846   6.213   6.282   7.230 -0.5883 -0.0195 -0.2784
  666MOL0     H91847   6.400   6.173   7.301 -2.9134 -0.5965 -0.8187
  666MOL0     H91848   6.446   6.306   7.414  0.4895 -1.0707 -0.3297
  666MOL0     H91849   6.182   6.161   7.462 -0.2871  1.3612 -0.3944
  666MOL0     H91850   6.311   6.211   7.575 -0.7335  0.1930 -0.7161
  666MOL0     H91851   6.318   5.962   7.410  1.2776 -1.4060 -0.4230
  666MOL0     H91852   6.457   6.023   7.484 -0.7099  0.6768  0.0919
  666MOL0     H91853   6.231   5.998   7.673  0.2705 -1.1674 -0.4950
  666MOL0     H91854   6.403   6.023   7.705  0.3193  1.4996 -0.6991
  666MOL0     H91855   6.317   5.791   7.569  1.2082  0.0598 -0.3136
  666MOL0     H91856   6.473   5.818   7.659  0.1766  0.7801  0.2712
  666MOL0     H91857   6.105   5.734   7.689  1.3427  2.1395 -0.3563
  666MOL0     H91858   6.029   5.557   7.987  0.3384 -0.5781 -1.7974
  666MOL0     H91859   5.929   5.669   7.880  0.8900  0.8907  0.6218
  666MOL0     H91860   6.033   5.742   8.154 -1.8519  0.8884  1.5728
  666MOL0     H91861   5.948   5.851   8.043  2.3617  0.3943  0.5585
  666MOL0     H91862   5.775   5.777   8.176 -2.5446 -0.9909  0.2954
  666MOL0     H91863   5.760   5.688   8.021  0.0991  3.3874 -0.7198
  666MOL0     H91864   5.846   5.490   8.126  0.6090  0.2340 -0.6095
  666MOL0     H91865   5.886   5.587   8.276  0.5879 -3.1094  0.4730
  666MOL0     H91866   5.852   5.371   8.357  0.8610  1.0139  1.6101
  666MOL0     H91867   5.930   5.154   8.436  1.6701 -0.0547  2.7599
  666MOL0     H91868   5.796   5.047   8.500 -2.7958  0.4823 -1.6243
  666MOL0     H91869   5.861   5.200   8.575  0.9400  0.2652 -0.1952
  666MOL0     H91870   5.547   4.878   8.687 -0.1949 -1.0895  0.5677
  666MOL0     H91871   5.428   4.666   8.767 -0.0594 -1.0298 -2.2442
  666MOL0     H91872   5.260   4.592   8.998  2.7524  2.7747  1.7594
  666MOL0     H91873   5.193   4.752   8.998 -1.7599 -0.8687  2.1592
  666MOL0     H91874   5.054   4.479   8.988  0.4137  0.3878  0.4732
  666MOL0     H91875   5.046   4.589   9.118 -2.9745 -0.5189  0.5835
  666MOL0     H91876   4.889   4.616   8.861 -0.8659  1.1380  0.4297
  666MOL0     H91877   4.945   4.766   8.921 -4.0951  1.8973  0.9037
  666MOL0     H91878   4.829   4.760   9.099 -0.3708  1.8250 -3.8905
  666MOL0     H91879   4.824   4.582   9.132  0.1519  2.3347  1.8310
  666MOL0     H91880   4.694   4.555   8.907 -1.0205  0.5041 -1.5691
  666MOL0     H91881   4.614   4.590   9.058 -1.0032 -2.3711 -1.2787
  666MOL0     H91882   4.717   4.810   8.878 -0.1838  0.1843  0.1540
  666MOL0     H91883   4.609   4.825   9.020  2.4743  1.3055  0.1382
  666MOL0     H91884   4.423   4.717   8.928 -1.3741  0.6757 -0.7756
  666MOL0     H91885   4.518   4.668   8.779  0.3332  0.0014  0.3666
  666MOL0     H91886   4.436   4.941   8.873 -0.6492 -1.5389  2.0531
  666MOL0     H91887   4.334   4.849   8.760  0.8290  1.4781 -0.8065
  666MOL0     H91888   5.069   4.879   8.746  0.0893  1.1041 -0.7683
  666MOL0     H91889   5.203   5.073   8.626  2.2390  0.6120 -2.0451
  666MOL0     H91890   5.374   5.283   8.417  0.3152 -0.3476  1.0071
  666MOL0     H91891   5.436   5.492   8.322 -2.6031 -0.3242  2.0523
  666MOL0     H91892   6.475   6.824   6.966  0.4517  1.0101 -0.1966
  666MOL0     H91893   6.380   7.012   6.800  1.6725 -1.1184 -0.2466
  666MOL0     H91894   6.143   7.011   6.310  1.2743 -0.6486  1.9638
  666MOL0     H91895   6.129   7.178   6.149  0.6090  2.0727 -0.4619
  666MOL0     H91896   6.206   7.500   6.011 -0.1924 -0.5914 -1.3020
  666MOL0     H91897   6.218   7.334   6.048 -0.8033 -0.8473  1.8068
  666MOL0     H91898   5.960   7.332   6.088  0.6347  0.2662  0.7406
  666MOL0     H91899   6.014   7.347   5.918  1.9379  1.9869 -0.8457
  666MOL0     H91900   5.920   7.570   6.097 -1.9931 -2.4413  0.7987
  666MOL0     H91901   6.004   7.616   5.954 -0.9881 -0.1971 -2.5692
  666MOL0     H91902   5.782   7.646   5.918  1.9353 -0.9305  0.6657
  666MOL0     H91903   5.745   7.462   5.953  0.4395 -0.3670  1.6990
  666MOL0     H91904   5.887   7.416   5.569  0.2436  2.2629 -2.0572
  666MOL0     H91905   6.221   7.475   6.444  0.5288  0.4564 -0.2944
  666MOL0     H91906   6.293   7.244   6.715  0.0260  3.6942  5.7272
  666MOL0     H91907   6.249   7.408   6.662  1.7007  0.0694 -2.4692
  666MOL0     H91908   6.131   7.297   6.734  0.0764  2.3703  0.1621
  667MOL0     O91909   1.702   8.555   5.289  0.6545 -0.2328  0.2090
  667MOL0     C91910   1.800   8.532   5.220 -0.5607  0.1547  0.0633
  667MOL0     O91911   1.794   8.465   5.102  0.0679 -0.6863  0.0857
  667MOL0     C91912   1.693   8.371   5.077  0.7908 -0.1329  0.5037
  667MOL0     C91913   1.679   8.314   4.942 -0.2730 -1.4034 -0.3032
  667MOL0     C91914   1.572   8.236   4.913 -0.0971 -0.2881  0.8485
  667MOL0     C91915   1.478   8.211   5.009  0.8749  0.4306 -0.0264
  667MOL0     O91916   1.374   8.127   4.969 -0.2635  0.4939 -0.0176
  667MOL0     C91917   1.246   8.192   4.994  0.5231  0.5814  0.3488
  667MOL0     C91918   1.131   8.134   4.919  0.0246 -0.5655  0.8251
  667MOL0     C91919   0.990   8.200   4.954 -0.4785  0.3828  0.4713
  667MOL0     C91920   0.951   8.183   5.105 -0.9457  0.0183 -0.1591
  667MOL0     C91921   0.953   8.034   5.137 -0.0737  0.5755  0.2307
  667MOL0     C91922   0.883   7.997   5.266 -0.4347 -0.6673 -1.6479
  667MOL0     C91923   0.924   7.848   5.300  0.7677  0.3164 -0.9180
  667MOL0     C91924   0.862   7.752   5.196 -0.0936 -0.0938  0.0851
  667MOL0     N91925   0.821   7.627   5.255 -0.3836 -0.4164 -0.1460
  667MOL0     C91926   0.902   7.513   5.278 -0.5317 -0.3667 -0.3912
  667MOL0     C91927   0.826   7.453   5.374  0.0522  0.7585 -0.0215
  667MOL0     C91928   0.865   7.324   5.446  0.7336  0.4518 -1.2435
  667MOL0     C91929   0.746   7.231   5.437  0.2721  0.1273  0.0375
  667MOL0     C91930   0.765   7.103   5.523 -0.5895 -0.3285 -0.5585
  667MOL0     C91931   0.863   7.006   5.459 -0.6912  0.2303 -0.6425
  667MOL0     O91932   0.793   6.922   5.364 -0.2601 -0.2230 -0.1128
  667MOL0     C91933   0.759   6.800   5.413  0.0455  0.9290 -0.0832
  667MOL0     C91934   0.629   6.765   5.388  0.7343  0.3833 -0.4493
  667MOL0     C91935   0.563   6.652   5.433  0.3990  1.4885  0.0997
  667MOL0     C91936   0.419   6.632   5.389  0.1114 -0.7048 -0.5681
  667MOL0     C91937   0.639   6.563   5.511 -0.1338  0.3198 -0.2419
  667MOL0     C91938   0.578   6.453   5.570 -0.9299  0.3963 -1.0395
  667MOL0     O91939   0.470   6.411   5.520 -0.3156  0.5039 -0.1314
  667MOL0     C91940   0.399   6.313   5.580 -0.1088  0.6359 -0.1633
  667MOL0     C91941   0.297   6.348   5.665 -0.5031 -0.3825 -0.5781
  667MOL0     C91942   0.215   6.250   5.727 -0.0501  0.0059 -0.1325
  667MOL0     C91943   0.224   6.115   5.691  0.3802 -0.4233 -0.1282
  667MOL0     O91944   0.144   6.007   5.731 -0.6836  0.6636  1.4916
  667MOL0     C91945   0.029   6.034   5.797 -0.2345 -0.1201 -0.4289
  667MOL0     C91946  -0.070   5.919   5.824 -1.0469  1.0199  0.1338
  667MOL0     C91947  -0.133   5.848   5.708 -0.5474 -0.0499  0.5280
  667MOL0     C91948  -0.057   5.746   5.642  0.0473  0.2483  0.1076
  667MOL0     C91949  -0.151   5.678   5.536  0.8330 -0.7795  0.4597
  667MOL0     C91950  -0.105   5.704   5.390 -0.3403  0.3096 -0.7197
  667MOL0     C91951  -0.181   5.618   5.299  0.3124  0.7659  0.0111
  667MOL0     C91952  -0.127   5.474   5.305  0.2194  0.3252 -0.0610
  667MOL0    Cl91953  -0.173   5.397   5.150  0.2172 -0.6536 -0.3546
  667MOL0     C91954   0.342   6.086   5.609  0.7248 -0.2764 -0.2647
  667MOL0     C91955   0.423   6.180   5.543 -0.5290  0.0335  0.1412
  667MOL0     O91956   0.629   6.412   5.678  0.2782  0.8575 -0.5694
  667MOL0     C91957   0.771   6.601   5.541  1.1827  0.1721 -0.0019
  667MOL0     C91958   0.833   6.715   5.490 -0.6501  1.2961 -0.4424
  667MOL0     N91959   0.705   7.523   5.388  0.4684 -0.0744 -0.4208
  667MOL0     N91960   0.701   7.620   5.309  0.6730  0.0413 -0.6912
  667MOL0     C91961   1.508   8.237   5.143 -0.8866 -0.9055  0.1102
  667MOL0     C91962   1.615   8.317   5.181  0.0010 -0.3272 -0.3090
  667MOL0     C91963   1.932   8.595   5.252  0.5527 -0.1198 -0.5217
  667MOL0     C91964   1.932   8.686   5.360  1.0719  0.2828 -0.3660
  667MOL0     C91965   2.050   8.746   5.409 -0.4352 -1.5348  0.3658
  667MOL0     C91966   2.176   8.720   5.350 -0.5909  0.0936 -0.6524
  667MOL0     O91967   2.291   8.788   5.387  0.4298  0.5155 -0.2355
  667MOL0     C91968   2.320   8.788   5.531  0.0913 -0.6457 -0.3120
  667MOL0     C91969   2.449   8.857   5.560 -0.3335  0.7318  0.6800
  667MOL0     C91970   2.458   9.006   5.515 -0.1659 -0.4089 -0.4047
  667MOL0     C91971   2.540   9.029   5.386 -0.2597  0.3959 -0.5117
  667MOL0     C91972   2.686   9.058   5.417  0.1849 -0.0876 -0.6927
  667MOL0     C91973   2.807   9.078   5.439  0.5976  0.0725  0.1420
  667MOL0     C91974   2.172   8.629   5.250 -0.4310 -0.3488  0.0612
  667MOL0     C91975   2.057   8.569   5.192  0.2429  0.1936 -0.4209
  667MOL0     C91976   2.071   8.493   5.070  0.5708 -0.5487  0.9805
  667MOL0     H91977   1.740   8.330   4.853 -2.8851 -0.7932 -2.1238
  667MOL0     H91978   1.568   8.194   4.813 -2.1571  1.1691  0.2592
  667MOL0     H91979   1.255   8.296   4.962  0.2203 -0.5174 -3.7688
  667MOL0     H91980   1.215   8.179   5.099 -0.2018 -0.5821  0.0186
  667MOL0     H91981   1.141   8.141   4.810 -2.0721  0.7544  0.6474
  667MOL0     H91982   1.133   8.026   4.934 -1.6408 -0.7065  0.2995
  667MOL0     H91983   0.988   8.306   4.928  0.8927  0.3971  0.3814
  667MOL0     H91984   0.913   8.139   4.906  0.9734 -1.8905  0.9106
  667MOL0     H91985   1.021   8.228   5.176 -1.3840 -1.0440  0.9849
  667MOL0     H91986   0.851   8.224   5.122 -0.1090  1.8088  0.6514
  667MOL0     H91987   1.054   7.993   5.139 -0.0194  0.5913 -1.1736
  667MOL0     H91988   0.892   7.986   5.059  0.2189 -3.3298  2.1681
  667MOL0     H91989   0.919   8.066   5.342 -0.9383  2.3413 -3.9684
  667MOL0     H91990   0.775   8.009   5.253 -0.4427 -1.1126 -2.0176
  667MOL0     H91991   0.891   7.819   5.401 -2.4332  0.7402 -1.7259
  667MOL0     H91992   1.032   7.834   5.311  0.3335 -2.6772  0.7523
  667MOL0     H91993   0.770   7.780   5.144 -1.1718 -4.7892 -1.0245
  667MOL0     H91994   0.932   7.736   5.113  0.5629  2.3650  0.0908
  667MOL0     H91995   0.999   7.488   5.237  0.7733  1.5792  1.3166
  667MOL0     H91996   0.880   7.354   5.551  2.1586 -1.5186 -0.8330
  667MOL0     H91997   0.962   7.294   5.406  1.3008  1.6226 -0.8138
  667MOL0     H91998   0.658   7.287   5.468  1.6231  1.4187  1.7852
  667MOL0     H91999   0.734   7.186   5.338  2.6523 -1.0219  0.1960
  667MOL0     H92000   0.792   7.135   5.624 -1.8033  1.0033 -0.6144
  667MOL0     H92001   0.671   7.050   5.540  1.2681 -3.4470  0.9521
  667MOL0     H92002   0.946   7.044   5.398  1.3124 -0.3077  1.5732
  667MOL0     H92003   0.908   6.944   5.538 -1.7760  0.2778  0.0332
  667MOL0     H92004   0.571   6.839   5.335  2.1525  2.8228  1.2011
  667MOL0     H92005   0.382   6.531   5.369  0.5226 -0.8096 -0.8157
  667MOL0     H92006   0.412   6.700   5.303  1.7234  1.1337  0.6598
  667MOL0     H92007   0.357   6.676   5.468  0.2992  2.3722 -1.9602
  667MOL0     H92008   0.302   6.454   5.690  1.5056 -0.1879 -1.5666
  667MOL0     H92009   0.158   6.276   5.816  3.0336 -2.1570  2.7637
  667MOL0     H92010   0.067   6.076   5.890 -0.3816 -3.0395  1.0367
  667MOL0     H92011  -0.039   6.106   5.749 -2.6458 -1.3753  0.9530
  667MOL0     H92012  -0.003   5.846   5.872 -0.6613 -0.8103 -2.9458
  667MOL0     H92013  -0.146   5.954   5.894 -0.3629  0.8586  0.9866
  667MOL0     H92014  -0.165   5.916   5.628  0.2856 -2.5298 -2.1011
  667MOL0     H92015  -0.226   5.813   5.754 -0.0042  1.1962  2.7252
  667MOL0     H92016  -0.028   5.662   5.706  3.8429 -1.8389 -3.7606
  667MOL0     H92017   0.032   5.797   5.604  0.2056 -0.3202 -0.3024
  667MOL0     H92018  -0.145   5.570   5.551  4.6516 -0.4057  3.0802
  667MOL0     H92019  -0.257   5.699   5.552  0.7968 -2.1730  2.3511
  667MOL0     H92020   0.001   5.684   5.375  0.3393  2.9987 -0.1316
  667MOL0     H92021  -0.131   5.808   5.365 -1.3088 -0.5352 -3.6124
  667MOL0     H92022  -0.175   5.654   5.196 -1.8708 -0.6045 -0.6724
  667MOL0     H92023  -0.289   5.620   5.317  0.2077  1.4153 -0.6405
  667MOL0     H92024  -0.175   5.418   5.385 -1.4475 -0.3330 -1.4660
  667MOL0     H92025  -0.020   5.464   5.325 -0.0419 -0.7327  0.9097
  667MOL0     H92026   0.378   5.985   5.599  0.7160 -0.2940 -0.1216
  667MOL0     H92027   0.503   6.174   5.470 -2.1335  3.2950 -2.1270
  667MOL0     H92028   0.829   6.544   5.614  1.2260  3.4074  2.7212
  667MOL0     H92029   0.940   6.725   5.510 -0.5665 -0.7678  0.4558
  667MOL0     H92030   1.444   8.199   5.222  1.3389 -0.3738  2.3084
  667MOL0     H92031   1.640   8.327   5.286 -1.1162 -2.1106  0.1752
  667MOL0     H92032   1.835   8.713   5.400  0.9591 -2.4324  1.4623
  667MOL0     H92033   2.049   8.819   5.489  1.2217  1.7083 -2.3007
  667MOL0     H92034   2.243   8.834   5.594 -0.3426  0.7260 -1.7943
  667MOL0     H92035   2.328   8.683   5.564  0.9634 -1.3451 -2.5853
  667MOL0     H92036   2.525   8.798   5.508 -1.1442  0.9275 -0.7645
  667MOL0     H92037   2.476   8.849   5.666  4.7038 -1.2674 -0.4489
  667MOL0     H92038   2.355   9.043   5.509 -0.0182  1.0528  3.5029
  667MOL0     H92039   2.495   9.063   5.601 -0.2358 -0.7704 -0.1322
  667MOL0     H92040   2.494   9.118   5.343 -1.4113 -0.9849 -2.2180
  667MOL0     H92041   2.534   8.943   5.319  0.3955 -1.0807  1.2199
  667MOL0     H92042   2.914   9.075   5.436  0.6028 -3.2437 -0.9900
  667MOL0     H92043   2.267   8.601   5.206  0.2356 -1.7407  2.2132
  667MOL0     H92044   2.022   8.561   5.001  0.4798 -0.4061  1.1860
  667MOL0     H92045   2.175   8.490   5.036  0.0010 -1.4067 -0.7924
  667MOL0     H92046   2.027   8.393   5.073  1.9090 -1.1990 -0.1580
  668MOL0     O92047  11.150   9.553   9.848  0.5057  1.0170 -1.1755
  668MOL0     C92048  11.187   9.472   9.763 -0.3946 -0.0920 -0.3463
  668MOL0     O92049  11.164   9.483   9.632 -0.0163 -0.3859 -0.0873
  668MOL0     C92050  11.081   9.584   9.601  0.6135 -0.1522  0.5001
  668MOL0     C92051  10.948   9.570   9.597 -0.3008 -0.0779  1.0854
  668MOL0     C92052  10.862   9.687   9.567 -0.2463 -0.7511 -0.1150
  668MOL0     C92053  10.923   9.814   9.525  0.4023  0.4970 -0.3505
  668MOL0     O92054  10.859   9.939   9.509 -0.5359 -0.1244 -0.5296
  668MOL0     C92055  10.719   9.955   9.505  0.4496  0.1672  0.8381
  668MOL0     C92056  10.677  10.106   9.485 -1.2413  0.2715  0.0108
  668MOL0     C92057  10.764  10.180   9.392  0.2048  0.4476 -0.1823
  668MOL0     C92058  10.738  10.334   9.388 -0.7041 -0.1081  0.1763
  668MOL0     C92059  10.809  10.386   9.262 -0.8615 -0.2894 -0.1327
  668MOL0     C92060  10.719  10.363   9.128 -1.5035  0.5718 -0.6303
  668MOL0     C92061  10.788  10.424   9.010 -0.3056  0.1437  0.5576
  668MOL0     C92062  10.741  10.352   8.890  0.3328  1.3299  0.4977
  668MOL0     N92063  10.814  10.399   8.771  0.0170  0.5295  0.1667
  668MOL0     C92064  10.942  10.375   8.739 -0.2036  0.3262 -0.5240
  668MOL0     C92065  10.970  10.454   8.631 -0.2153 -0.3025 -0.2302
  668MOL0     C92066  11.107  10.451   8.562 -0.1563 -0.3172 -0.7747
  668MOL0     C92067  11.119  10.331   8.478 -0.4343  0.2485 -0.5637
  668MOL0     C92068  11.248  10.329   8.400 -1.0654 -0.8790  0.2833
  668MOL0     C92069  11.282  10.190   8.366 -0.8231  0.6455 -0.6298
  668MOL0     O92070  11.410  10.198   8.311 -0.6493 -0.3264  0.4162
  668MOL0     C92071  11.431  10.249   8.182 -1.3875 -0.4408  0.4647
  668MOL0     C92072  11.339  10.226   8.078  0.1926  0.0592  1.1724
  668MOL0     C92073  11.370  10.265   7.950  0.0852 -1.0211  0.7306
  668MOL0     C92074  11.270  10.224   7.845 -0.0893  0.1063 -0.3030
  668MOL0     C92075  11.493  10.328   7.918 -0.6123  0.3204  0.5397
  668MOL0     C92076  11.524  10.395   7.785 -0.3001  0.3479 -0.3636
  668MOL0     O92077  11.467  10.342   7.672 -0.2968 -0.0815 -0.2690
  668MOL0     C92078  11.506  10.383   7.551 -0.3135 -0.3596  0.4091
  668MOL0     C92079  11.631  10.354   7.502  0.3556 -1.0766  0.2515
  668MOL0     C92080  11.678  10.381   7.364  0.5916 -0.8032  0.5398
  668MOL0     C92081  11.585  10.452   7.274  0.0470  0.6520 -0.2050
  668MOL0     O92082  11.621  10.462   7.141 -0.4961 -0.6057 -0.4060
  668MOL0     C92083  11.522  10.502   7.045  0.6047  0.8923  0.2218
  668MOL0     C92084  11.565  10.536   6.900 -0.1234 -0.2329 -0.8229
  668MOL0     C92085  11.636  10.420   6.831 -0.2990 -0.6708 -0.5979
  668MOL0     C92086  11.777  10.392   6.869  0.8772 -0.4106 -1.1427
  668MOL0     C92087  11.832  10.291   6.764 -0.4730  1.2705  0.3664
  668MOL0     C92088  11.800  10.141   6.797 -0.8044 -0.3579 -0.0028
  668MOL0     C92089  11.911  10.053   6.735 -0.9020  0.4760 -0.5932
  668MOL0     C92090  12.027  10.026   6.837  0.7736 -0.0590  1.1825
  668MOL0    Cl92091  12.180   9.950   6.773  0.1299 -0.5351  0.1553
  668MOL0     C92092  11.454  10.480   7.334 -0.6186 -0.4047 -0.6247
  668MOL0     C92093  11.419  10.451   7.464  0.1317  0.7562  0.0753
  668MOL0     O92094  11.599  10.497   7.788 -0.1130  0.1416  0.4463
  668MOL0     C92095  11.589  10.338   8.022  0.1123 -0.3633 -0.7649
  668MOL0     C92096  11.554  10.295   8.154 -0.5282 -0.7802 -0.1371
  668MOL0     N92097  10.848  10.526   8.592 -0.1844  0.3733  0.0604
  668MOL0     N92098  10.758  10.495   8.683 -0.7735 -0.0423 -0.0259
  668MOL0     C92099  11.057   9.815   9.523  0.1554 -0.1651 -1.0554
  668MOL0     C92100  11.134   9.702   9.550  0.2810  0.1113 -0.4297
  668MOL0     C92101  11.277   9.366   9.814 -0.5913 -0.1148  0.5953
  668MOL0     C92102  11.304   9.360   9.955 -0.8275 -0.4760 -0.6638
  668MOL0     C92103  11.389   9.264  10.009 -0.9278 -0.1487 -0.7442
  668MOL0     C92104  11.456   9.175   9.925  0.4672  0.9065 -0.2680
  668MOL0     O92105  11.542   9.076   9.961  0.0297 -0.2707 -0.4158
  668MOL0     C92106  11.514   9.011  10.088 -0.3132 -0.4920  0.3300
  668MOL0     C92107  11.643   9.026  10.163  0.0001  0.4713  0.0389
  668MOL0     C92108  11.763   8.947  10.104  0.4616  0.1320 -1.0475
  668MOL0     C92109  11.734   8.792  10.124  1.4167  0.2374  0.5127
  668MOL0     C92110  11.850   8.719  10.083 -0.2961 -0.4230  0.4807
  668MOL0     C92111  11.937   8.664  10.031 -0.8074  0.6183  0.7386
  668MOL0     C92112  11.429   9.169   9.791  0.5097 -0.0774  1.1509
  668MOL0     C92113  11.339   9.264   9.739  0.0126 -0.4414  0.5717
  668MOL0     C92114  11.296   9.230   9.599  0.5645 -0.0964  1.1482
  668MOL0     H92115  10.889   9.481   9.618 -1.5979  0.2998 -0.6651
  668MOL0     H92116  10.756   9.670   9.575 -0.7405  2.0223  0.1758
  668MOL0     H92117  10.676   9.914   9.597  4.7747  1.7827  3.9679
  668MOL0     H92118  10.685   9.890   9.424  0.0589  1.0751  0.2587
  668MOL0     H92119  10.576  10.110   9.444 -1.0431 -0.3239 -0.5646
  668MOL0     H92120  10.683  10.152   9.584 -3.1677 -1.4986  1.0136
  668MOL0     H92121  10.869  10.169   9.420  0.7884 -1.3968 -2.7298
  668MOL0     H92122  10.758  10.135   9.292  2.4096 -1.3878  0.4338
  668MOL0     H92123  10.637  10.374   9.379 -0.1681  1.4891  0.9898
  668MOL0     H92124  10.792  10.390   9.465  0.0453  0.9729 -1.1068
  668MOL0     H92125  10.896  10.322   9.246  0.9852  0.9714  3.6746
  668MOL0     H92126  10.837  10.488   9.287  1.3083 -0.9965  0.5920
  668MOL0     H92127  10.712  10.256   9.107  0.7139  0.7441 -2.5274
  668MOL0     H92128  10.619  10.406   9.143 -1.3007  0.4203  1.4604
  668MOL0     H92129  10.897  10.412   9.009 -0.3699 -0.6014 -0.9056
  668MOL0     H92130  10.782  10.533   9.006  1.7168  0.3136 -4.0692
  668MOL0     H92131  10.752  10.243   8.901 -2.0176  0.9979  0.0518
  668MOL0     H92132  10.635  10.374   8.876 -0.4502 -2.5520 -0.8591
  668MOL0     H92133  11.024  10.320   8.783 -0.6341  0.8828  1.0346
  668MOL0     H92134  11.194  10.465   8.628 -0.3982  1.5289 -0.7885
  668MOL0     H92135  11.123  10.542   8.504  2.6685 -0.3481 -0.2013
  668MOL0     H92136  11.114  10.239   8.538  1.2152 -0.4471 -1.4195
  668MOL0     H92137  11.040  10.327   8.403  0.1387 -3.1574 -1.1914
  668MOL0     H92138  11.240  10.384   8.306 -1.7916 -2.4176 -0.6098
  668MOL0     H92139  11.329  10.372   8.459  0.1161 -0.0336 -1.8600
  668MOL0     H92140  11.281  10.126   8.454 -1.2512  0.1263 -1.0068
  668MOL0     H92141  11.205  10.158   8.295 -2.3996  0.5710  1.0428
  668MOL0     H92142  11.254  10.161   8.095  0.7462 -1.2808 -0.8793
  668MOL0     H92143  11.324  10.157   7.777  0.7347  1.7655 -1.3555
  668MOL0     H92144  11.241  10.303   7.775 -1.3746 -1.5015 -1.6788
  668MOL0     H92145  11.179  10.191   7.896  0.7518  0.1919  1.2922
  668MOL0     H92146  11.694  10.302   7.573 -0.3666 -0.7578  1.1508
  668MOL0     H92147  11.772  10.343   7.325  1.2243  3.5004 -2.9555
  668MOL0     H92148  11.464  10.412   7.025  2.1490  0.3061 -1.9890
  668MOL0     H92149  11.470  10.584   7.096  2.4735  2.4711 -0.2824
  668MOL0     H92150  11.476  10.568   6.845 -1.5572  1.4810  2.2601
  668MOL0     H92151  11.628  10.625   6.897 -2.7931  1.8230 -0.2328
  668MOL0     H92152  11.621  10.447   6.727 -1.6486 -0.9554 -0.5014
  668MOL0     H92153  11.571  10.332   6.840  1.4278 -1.8737  0.8143
  668MOL0     H92154  11.779  10.357   6.973 -1.4728  1.4155 -0.3898
  668MOL0     H92155  11.841  10.480   6.873 -0.4020  0.5608 -1.0902
  668MOL0     H92156  11.802  10.314   6.662 -1.3259 -2.1522 -0.2725
  668MOL0     H92157  11.940  10.297   6.776  0.2088 -3.0130 -1.6754
  668MOL0     H92158  11.712  10.111   6.739 -2.5645 -2.3999  3.3947
  668MOL0     H92159  11.774  10.132   6.903 -0.2339  2.0081  0.3761
  668MOL0     H92160  11.948  10.096   6.641  0.2288  2.3541  0.6364
  668MOL0     H92161  11.871   9.954   6.713  2.4022 -0.5863 -2.5950
  668MOL0     H92162  11.977   9.963   6.911 -3.9892 -0.5820 -2.0368
  668MOL0     H92163  12.047  10.123   6.884  1.3458  0.3337  0.1500
  668MOL0     H92164  11.391  10.551   7.281  3.2629  3.0347 -1.1305
  668MOL0     H92165  11.318  10.475   7.496 -0.7008 -3.3282  1.0919
  668MOL0     H92166  11.673  10.406   8.011 -1.1745  1.0258 -2.5334
  668MOL0     H92167  11.605  10.313   8.248 -0.1657  0.1075 -0.4966
  668MOL0     H92168  11.104   9.911   9.501 -1.4593  1.3452  1.5268
  668MOL0     H92169  11.239   9.718   9.528  1.3135 -2.0869  2.3114
  668MOL0     H92170  11.266   9.429  10.030  0.3827 -1.5606  0.9985
  668MOL0     H92171  11.419   9.256  10.113  0.5590  1.9059 -0.9452
  668MOL0     H92172  11.424   9.044  10.139 -3.9153 -4.7076 -2.5071
  668MOL0     H92173  11.489   8.907  10.067  1.1747 -0.9869  0.8696
  668MOL0     H92174  11.614   8.998  10.265 -1.4757 -0.2133 -0.5382
  668MOL0     H92175  11.672   9.130  10.181  2.9884  0.0621 -1.6805
  668MOL0     H92176  11.780   8.970   9.998  2.9484  2.3937 -0.2702
  668MOL0     H92177  11.854   8.986  10.152  0.8912 -1.7622 -0.2266
  668MOL0     H92178  11.642   8.762  10.074  1.7921 -5.1656  2.3470
  668MOL0     H92179  11.715   8.774  10.230  0.1965  0.6482  0.3756
  668MOL0     H92180  12.031   8.627   9.994 -0.0423  0.5599  2.6029
  668MOL0     H92181  11.473   9.083   9.742 -1.6230 -1.4048  1.4765
  668MOL0     H92182  11.188   9.229   9.584  0.9290 -0.2552 -2.1272
  668MOL0     H92183  11.323   9.300   9.519 -3.8275  0.2775 -0.2614
  668MOL0     H92184  11.332   9.129   9.576  3.2474  0.5654  2.0862
  669MOL0     O92185   5.165   8.128   0.734 -0.6054  0.2663 -0.5125
  669MOL0     C92186   5.181   8.243   0.680  0.8131  0.0367 -0.1235
  669MOL0     O92187   5.229   8.352   0.742  0.2393 -0.4393 -0.4063
  669MOL0     C92188   5.203   8.354   0.882 -0.2755  0.0379 -0.3053
  669MOL0     C92189   5.103   8.434   0.937 -0.8224 -1.0411 -0.3042
  669MOL0     C92190   5.104   8.460   1.075  0.3029 -0.2035  0.1926
  669MOL0     C92191   5.199   8.403   1.153  0.5429  0.2432 -0.4860
  669MOL0     O92192   5.203   8.415   1.290  0.6848  0.0304  0.0129
  669MOL0     C92193   5.120   8.319   1.362 -0.1504 -0.5364  0.7452
  669MOL0     C92194   5.117   8.358   1.508 -0.5053 -0.0765 -0.0771
  669MOL0     C92195   5.046   8.261   1.608 -0.9018 -0.8006  0.2709
  669MOL0     C92196   5.097   8.282   1.746 -0.5009 -0.0832  1.3331
  669MOL0     C92197   5.037   8.180   1.839 -0.6898 -0.1659  0.4728
  669MOL0     C92198   5.111   8.185   1.972 -0.5562  0.5058 -0.6217
  669MOL0     C92199   5.249   8.107   1.975 -0.3314  0.1974  0.3474
  669MOL0     C92200   5.308   8.089   2.117 -0.0506  0.7347 -0.3373
  669MOL0     N92201   5.415   8.181   2.158 -0.5294  0.3645  0.6390
  669MOL0     C92202   5.389   8.306   2.217  0.5063  1.4064  0.3157
  669MOL0     C92203   5.514   8.338   2.270  0.8612  0.4338 -0.4359
  669MOL0     C92204   5.554   8.468   2.341 -0.4515 -1.1670 -0.1067
  669MOL0     C92205   5.435   8.563   2.355 -0.1538  0.3075  0.3587
  669MOL0     C92206   5.331   8.522   2.462 -0.2814 -0.3745 -0.3020
  669MOL0     C92207   5.183   8.576   2.434 -0.7548  0.1711 -0.8878
  669MOL0     O92208   5.134   8.553   2.301  0.1803  0.3469  0.0163
  669MOL0     C92209   5.016   8.600   2.252  0.6280 -0.0715 -0.3342
  669MOL0     C92210   4.990   8.580   2.119  0.0627  0.5609  0.4314
  669MOL0     C92211   4.862   8.601   2.065  0.0063 -0.2752 -0.1208
  669MOL0     C92212   4.845   8.564   1.917  0.0753  0.4528  0.8533
  669MOL0     C92213   4.755   8.650   2.141  0.2334  0.0108  0.0685
  669MOL0     C92214   4.609   8.674   2.096 -1.0337  0.2774  0.3254
  669MOL0     O92215   4.524   8.706   2.201  0.3843  0.2564  0.5792
  669MOL0     C92216   4.392   8.685   2.176 -0.0529  0.4232  0.2241
  669MOL0     C92217   4.329   8.557   2.203 -0.0225 -1.2257 -0.8892
  669MOL0     C92218   4.196   8.531   2.195 -0.0778  0.0643 -0.5523
  669MOL0     C92219   4.114   8.632   2.137  0.0423 -0.3935 -0.0752
  669MOL0     O92220   3.983   8.600   2.089  0.0900  0.0926 -1.4694
  669MOL0     C92221   3.885   8.701   2.075 -0.5612  0.3134  0.0904
  669MOL0     C92222   3.757   8.633   2.083  0.2895 -0.8385  0.1717
  669MOL0     C92223   3.674   8.633   2.211 -0.0444  0.4545 -0.8941
  669MOL0     C92224   3.726   8.511   2.293  0.3540  0.4210 -0.0528
  669MOL0     C92225   3.683   8.525   2.445 -0.5512  0.2546  0.0284
  669MOL0     C92226   3.751   8.426   2.536 -0.8477  0.4111 -0.3397
  669MOL0     C92227   3.746   8.458   2.692 -0.1814  0.5194 -0.3391
  669MOL0     C92228   3.744   8.333   2.777 -0.6744 -0.1440  0.3870
  669MOL0    Cl92229   3.745   8.372   2.951 -0.1467 -0.5935  0.1264
  669MOL0     C92230   4.176   8.752   2.088 -0.1168  0.8461 -1.1193
  669MOL0     C92231   4.306   8.788   2.125 -0.4028  0.5805  1.0601
  669MOL0     O92232   4.572   8.637   1.982  0.6531  0.7527 -0.4824
  669MOL0     C92233   4.788   8.679   2.280  0.4672 -0.9255  0.3203
  669MOL0     C92234   4.915   8.652   2.331  0.4607  0.9135 -0.3003
  669MOL0     N92235   5.608   8.240   2.229  0.2821 -0.6062 -1.2520
  669MOL0     N92236   5.549   8.158   2.164 -0.3748  0.3928 -0.2138
  669MOL0     C92237   5.296   8.326   1.100  0.7385 -0.7970 -0.3398
  669MOL0     C92238   5.295   8.298   0.964  0.0229 -0.0676 -0.1132
  669MOL0     C92239   5.140   8.277   0.538  0.5387  0.6149 -0.6090
  669MOL0     C92240   5.210   8.384   0.474 -0.1535  0.6721  0.4169
  669MOL0     C92241   5.188   8.424   0.345 -0.6485 -1.5881 -0.4922
  669MOL0     C92242   5.097   8.355   0.270  0.8056  0.6432  0.8340
  669MOL0     O92243   5.057   8.389   0.141 -0.4053  0.2827 -0.1826
  669MOL0     C92244   5.116   8.498   0.069  0.7246 -0.1729 -0.5822
  669MOL0     C92245   5.086   8.499  -0.082  0.5447  0.0363 -1.0499
  669MOL0     C92246   5.169   8.603  -0.159  0.0498  0.4175 -0.7446
  669MOL0     C92247   5.318   8.584  -0.141 -0.0968 -0.8719 -0.9102
  669MOL0     C92248   5.360   8.451  -0.187  0.1225  0.8745 -1.0391
  669MOL0     C92249   5.404   8.344  -0.222 -0.5279  0.4534  0.5338
  669MOL0     C92250   5.029   8.249   0.328 -0.4092  0.1477 -0.1909
  669MOL0     C92251   5.061   8.196   0.455 -0.1515 -0.6327 -1.1671
  669MOL0     C92252   4.983   8.066   0.501 -0.2570 -0.1936 -0.1488
  669MOL0     H92253   5.035   8.478   0.865 -3.1988 -0.9510  1.8762
  669MOL0     H92254   5.017   8.514   1.112  0.4319  0.9981 -1.1903
  669MOL0     H92255   5.164   8.221   1.341 -0.3066 -0.3879 -0.3767
  669MOL0     H92256   5.026   8.326   1.305  1.6815 -0.7003 -2.5432
  669MOL0     H92257   5.219   8.371   1.544 -0.5897 -0.4507  0.2990
  669MOL0     H92258   5.064   8.454   1.513  0.4607  0.4479  0.3624
  669MOL0     H92259   4.937   8.271   1.611 -0.7074  1.7071  2.0031
  669MOL0     H92260   5.075   8.159   1.582 -1.0541 -2.2903  5.0267
  669MOL0     H92261   5.205   8.267   1.746 -0.2107  1.7521  1.4304
  669MOL0     H92262   5.076   8.386   1.772 -1.0115  1.1668 -3.1556
  669MOL0     H92263   5.041   8.077   1.802 -0.6244 -1.0912  2.8417
  669MOL0     H92264   4.933   8.208   1.860  0.0382  1.0205  2.9077
  669MOL0     H92265   5.131   8.288   2.003 -0.7223 -0.1275  1.7644
  669MOL0     H92266   5.046   8.138   2.046  2.1985 -0.8589  1.0957
  669MOL0     H92267   5.327   8.160   1.920 -1.4472  0.3305 -1.1465
  669MOL0     H92268   5.228   8.007   1.938  0.7292 -0.8730  2.4492
  669MOL0     H92269   5.232   8.081   2.195  1.7061 -1.1768  1.2876
  669MOL0     H92270   5.366   7.996   2.121 -0.5682  0.3849 -0.8037
  669MOL0     H92271   5.290   8.348   2.230 -0.1019  0.2351 -0.4238
  669MOL0     H92272   5.640   8.511   2.290  0.4977 -1.4482  1.2196
  669MOL0     H92273   5.596   8.442   2.438  1.4263  0.0761 -0.5413
  669MOL0     H92274   5.488   8.655   2.379  0.6334 -0.1015  0.2409
  669MOL0     H92275   5.376   8.579   2.264 -0.1086  0.7138  0.4001
  669MOL0     H92276   5.335   8.414   2.478  2.2985 -0.4688 -1.2128
  669MOL0     H92277   5.361   8.570   2.556  0.5906 -3.1070  0.9024
  669MOL0     H92278   5.119   8.529   2.510  0.4126  1.2828  0.8825
  669MOL0     H92279   5.184   8.684   2.451  1.3738  0.2248 -1.1053
  669MOL0     H92280   5.058   8.518   2.061 -0.2901  1.0835 -0.5550
  669MOL0     H92281   4.756   8.500   1.916  1.4137 -1.8071  4.6388
  669MOL0     H92282   4.927   8.510   1.869 -1.4711 -2.8102  1.6222
  669MOL0     H92283   4.830   8.659   1.864  1.4434  0.3505  0.2322
  669MOL0     H92284   4.388   8.480   2.251  2.1802  0.1080 -1.3076
  669MOL0     H92285   4.159   8.440   2.240 -0.3487  1.4559  2.2434
  669MOL0     H92286   3.894   8.772   2.157  2.0269  0.1209  0.0597
  669MOL0     H92287   3.893   8.746   1.975  0.5795 -2.6532 -1.2784
  669MOL0     H92288   3.701   8.671   1.996  0.9647  0.1552  0.1569
  669MOL0     H92289   3.783   8.531   2.053  0.6725 -0.1142 -2.2568
  669MOL0     H92290   3.568   8.629   2.184 -0.8302 -1.6334  2.0344
  669MOL0     H92291   3.689   8.723   2.271 -2.2441 -0.6712  1.5334
  669MOL0     H92292   3.834   8.505   2.277  0.1286 -5.7208 -1.8317
  669MOL0     H92293   3.689   8.415   2.257 -1.7310  1.4475 -0.8054
  669MOL0     H92294   3.716   8.618   2.490 -0.1724 -0.5259  1.4171
  669MOL0     H92295   3.574   8.517   2.451 -0.4501 -2.1294 -0.3413
  669MOL0     H92296   3.857   8.427   2.509 -1.3530  0.2867 -2.4996
  669MOL0     H92297   3.723   8.322   2.520 -1.4686  0.7049 -1.2591
  669MOL0     H92298   3.667   8.529   2.719 -2.3733 -1.7813 -0.3611
  669MOL0     H92299   3.846   8.500   2.705  0.5409 -1.4314  0.7749
  669MOL0     H92300   3.830   8.269   2.759 -0.5676  0.5933 -1.9739
  669MOL0     H92301   3.650   8.281   2.757 -1.6621  1.6473  0.1002
  669MOL0     H92302   4.106   8.824   2.048 -2.6956  0.3648  2.0593
  669MOL0     H92303   4.350   8.886   2.113  1.3346 -0.4219 -2.1302
  669MOL0     H92304   4.715   8.723   2.347  0.0123  0.0890 -0.7982
  669MOL0     H92305   4.918   8.683   2.435 -1.6282 -0.7764  0.3392
  669MOL0     H92306   5.369   8.285   1.168  0.7291 -0.0738  0.1167
  669MOL0     H92307   5.364   8.221   0.932  1.7976  1.9147 -1.2450
  669MOL0     H92308   5.281   8.450   0.523  0.8841  1.9354 -2.5958
  669MOL0     H92309   5.236   8.514   0.310 -0.1957 -1.4214  0.5221
  669MOL0     H92310   5.083   8.589   0.120  1.1434 -0.5702  0.4223
  669MOL0     H92311   5.224   8.501   0.085  0.5284 -0.6706  1.0560
  669MOL0     H92312   4.979   8.508  -0.104  0.6834 -0.1055 -1.8158
  669MOL0     H92313   5.112   8.397  -0.110  2.0009 -0.2126  0.9660
  669MOL0     H92314   5.144   8.585  -0.263  0.9760 -0.8792 -0.7717
  669MOL0     H92315   5.131   8.704  -0.141 -0.0160  0.3328 -0.3861
  669MOL0     H92316   5.341   8.594  -0.034 -0.9688  1.9225 -0.9135
  669MOL0     H92317   5.366   8.663  -0.199  2.6610 -0.4751  1.6449
  669MOL0     H92318   5.460   8.257  -0.251 -0.4793  0.9245 -0.8836
  669MOL0     H92319   4.965   8.194   0.260  1.3935 -1.7400 -0.4478
  669MOL0     H92320   4.916   8.036   0.420 -0.8070  0.0153  0.2215
  669MOL0     H92321   5.043   7.980   0.530  2.0309  1.0640 -0.8923
  669MOL0     H92322   4.916   8.099   0.580  1.6732  2.3411  0.5809
  670MOL0     O92323   6.207   1.340   6.075  0.0349 -0.6716  0.8621
  670MOL0     C92324   6.255   1.441   6.016  0.2425 -0.4582  0.6894
  670MOL0     O92325   6.206   1.570   6.028  0.6563  0.3286 -0.1099
  670MOL0     C92326   6.119   1.595   6.131 -0.4506  0.0044 -0.7428
  670MOL0     C92327   6.150   1.570   6.271 -0.1940 -1.1765  0.1425
  670MOL0     C92328   6.061   1.604   6.372  0.2363 -0.7780  0.4213
  670MOL0     C92329   5.939   1.665   6.347 -0.5672  0.4215  0.1074
  670MOL0     O92330   5.846   1.690   6.448  0.1003 -0.2045  0.7185
  670MOL0     C92331   5.703   1.650   6.432  0.9488 -0.2406  0.4052
  670MOL0     C92332   5.677   1.497   6.440 -0.0998 -0.0186  1.0394
  670MOL0     C92333   5.681   1.439   6.306 -0.5496 -1.2199  0.4162
  670MOL0     C92334   5.612   1.307   6.300 -0.3928  0.1964  0.1885
  670MOL0     C92335   5.566   1.278   6.158  0.7123 -0.4143  0.4408
  670MOL0     C92336   5.545   1.134   6.126  0.0322 -0.2589  0.1922
  670MOL0     C92337   5.679   1.074   6.065  0.6196 -0.9108  0.1532
  670MOL0     C92338   5.801   1.071   6.171 -0.7015  0.1821  0.0996
  670MOL0     N92339   5.918   0.998   6.125  0.0460  0.9606 -0.4299
  670MOL0     C92340   6.043   1.050   6.093 -0.1464  0.0348 -0.1727
  670MOL0     C92341   6.113   0.944   6.046  0.1605 -0.3953 -0.4124
  670MOL0     C92342   6.256   0.946   6.007  0.1600  0.3817 -0.4294
  670MOL0     C92343   6.338   0.826   6.066 -0.4054  0.0956  0.4970
  670MOL0     C92344   6.379   0.717   5.970 -0.9065 -0.3313  0.0204
  670MOL0     C92345   6.271   0.635   5.923  0.9304  0.7260 -0.4186
  670MOL0     O92346   6.317   0.521   5.845 -0.0690  0.0944 -0.3211
  670MOL0     C92347   6.292   0.515   5.713  0.3037 -0.6957 -0.4506
  670MOL0     C92348   6.294   0.393   5.651 -0.0223 -0.0657  0.5470
  670MOL0     C92349   6.286   0.381   5.512  0.0475  0.1904 -0.3969
  670MOL0     C92350   6.283   0.237   5.461 -0.5404  0.7728 -0.0390
  670MOL0     C92351   6.284   0.498   5.427 -0.8542 -0.3994  0.0798
  670MOL0     C92352   6.266   0.493   5.274 -0.0021 -0.9353 -0.6076
  670MOL0     O92353   6.244   0.616   5.211 -0.0176  0.4536  0.4541
  670MOL0     C92354   6.217   0.635   5.078 -0.2249  0.6457  0.8352
  670MOL0     C92355   6.257   0.746   5.011  0.0310 -0.1417  0.6952
  670MOL0     C92356   6.227   0.772   4.876  0.0929 -0.2712  0.1280
  670MOL0     C92357   6.136   0.686   4.805  0.4181 -0.2551 -0.9049
  670MOL0     O92358   6.128   0.704   4.671 -0.2857 -0.3785 -0.1853
  670MOL0     C92359   6.006   0.768   4.637 -0.9485 -1.2078 -0.6883
  670MOL0     C92360   6.024   0.852   4.510  1.2181 -0.0009  0.2595
  670MOL0     C92361   6.145   0.950   4.512 -0.3550 -0.9836  0.1244
  670MOL0     C92362   6.116   1.081   4.582 -0.4133 -0.1209  0.1447
  670MOL0     C92363   6.216   1.193   4.554  0.0232  0.6052 -0.2445
  670MOL0     C92364   6.370   1.177   4.572 -0.2797 -0.2779 -0.4007
  670MOL0     C92365   6.439   1.269   4.470  0.3193  0.1165  0.3337
  670MOL0     C92366   6.592   1.275   4.499 -0.7570  0.8087 -0.4539
  670MOL0    Cl92367   6.659   1.390   4.385  0.3055 -0.1284  0.0996
  670MOL0     C92368   6.099   0.570   4.869  0.1367  0.1353 -0.3949
  670MOL0     C92369   6.135   0.545   5.002 -0.6569 -0.2099  0.8146
  670MOL0     O92370   6.251   0.388   5.216  0.0227 -0.2671  0.4431
  670MOL0     C92371   6.304   0.618   5.495 -0.6897 -0.4980 -0.3073
  670MOL0     C92372   6.311   0.630   5.640  0.9305  0.5508 -0.2314
  670MOL0     N92373   6.030   0.838   6.041  1.0856 -0.5738  0.5378
  670MOL0     N92374   5.914   0.872   6.088 -0.1040  1.2558  0.4181
  670MOL0     C92375   5.916   1.706   6.218  0.3468 -0.0684  0.1920
  670MOL0     C92376   6.007   1.679   6.112  0.1073  0.7744 -0.1265
  670MOL0     C92377   6.363   1.411   5.920  0.1959 -0.5404  0.4006
  670MOL0     C92378   6.444   1.302   5.943  0.2208  0.4278 -0.2099
  670MOL0     C92379   6.513   1.236   5.837  0.1015 -0.4453 -0.4720
  670MOL0     C92380   6.514   1.292   5.710  1.0879 -0.0010 -0.2851
  670MOL0     O92381   6.560   1.242   5.597  0.1733  0.3987 -0.0667
  670MOL0     C92382   6.627   1.116   5.603  0.1727  0.5882 -0.4689
  670MOL0     C92383   6.533   0.995   5.628  0.3352  0.0772 -0.6128
  670MOL0     C92384   6.407   0.998   5.536 -0.3313 -0.1817  0.9596
  670MOL0     C92385   6.417   1.025   5.379  0.3519  0.2077 -0.5437
  670MOL0     C92386   6.490   0.920   5.316  0.1081 -0.1667 -0.6485
  670MOL0     C92387   6.549   0.827   5.259  0.3224  0.1827 -0.4231
  670MOL0     C92388   6.457   1.416   5.692  0.5500 -0.6007 -0.0307
  670MOL0     C92389   6.372   1.479   5.790  0.4848 -0.7193 -0.4166
  670MOL0     C92390   6.298   1.600   5.738 -0.3499 -0.1932  0.2166
  670MOL0     H92391   6.244   1.524   6.301  2.2135  2.2624 -1.4427
  670MOL0     H92392   6.080   1.584   6.477  1.3484  0.6354  0.5206
  670MOL0     H92393   5.648   1.685   6.344  1.5520 -0.0880  0.0768
  670MOL0     H92394   5.651   1.696   6.516 -0.5290 -1.6186  0.2884
  670MOL0     H92395   5.743   1.447   6.511 -1.8596 -1.2356  1.8801
  670MOL0     H92396   5.579   1.475   6.483  0.1555  1.0028  2.1846
  670MOL0     H92397   5.626   1.507   6.239 -1.7500 -1.4553  1.1308
  670MOL0     H92398   5.786   1.434   6.278  0.2985  2.2167  2.3740
  670MOL0     H92399   5.688   1.244   6.348 -1.4914 -1.3047  0.0173
  670MOL0     H92400   5.521   1.317   6.359 -2.3881  0.1744 -2.6970
  670MOL0     H92401   5.635   1.330   6.091 -0.7179  0.7097 -0.2295
  670MOL0     H92402   5.474   1.336   6.142  0.2137 -0.4803  2.7022
  670MOL0     H92403   5.513   1.091   6.221  0.4935  1.7430  1.3099
  670MOL0     H92404   5.476   1.125   6.042  0.3050 -0.5738 -0.0023
  670MOL0     H92405   5.721   1.120   5.975  2.3220  3.0382  2.6544
  670MOL0     H92406   5.664   0.968   6.046  2.2309 -0.9478 -1.1769
  670MOL0     H92407   5.841   1.167   6.204  0.9956 -0.1700 -0.8164
  670MOL0     H92408   5.771   1.010   6.257  3.9248 -2.5160  0.1343
  670MOL0     H92409   6.082   1.147   6.120  1.1640 -0.1478 -1.2962
  670MOL0     H92410   6.293   1.041   6.046  1.7689  0.7865 -2.7644
  670MOL0     H92411   6.267   0.939   5.898 -0.1054  1.3826 -0.5341
  670MOL0     H92412   6.425   0.878   6.107 -1.1787  0.6149  1.5296
  670MOL0     H92413   6.287   0.783   6.152  1.1314 -2.6999  0.1356
  670MOL0     H92414   6.436   0.774   5.895 -1.9704 -0.4069 -0.8734
  670MOL0     H92415   6.453   0.654   6.020 -0.2526  1.5818  1.6074
  670MOL0     H92416   6.210   0.617   6.011  0.7239  2.0315 -0.2738
  670MOL0     H92417   6.204   0.693   5.859  2.4153  1.1018 -1.6868
  670MOL0     H92418   6.292   0.321   5.732 -0.5443  0.6784  1.2192
  670MOL0     H92419   6.294   0.175   5.551 -0.6050  0.7980 -0.0133
  670MOL0     H92420   6.355   0.220   5.381 -2.3150  1.9834 -1.9968
  670MOL0     H92421   6.182   0.214   5.426 -0.4172 -1.0296  0.6475
  670MOL0     H92422   6.307   0.825   5.067 -0.1491  1.1553 -0.9014
  670MOL0     H92423   6.273   0.854   4.822  0.0704 -0.0575  0.4329
  670MOL0     H92424   5.927   0.693   4.628  1.6544 -4.0558 -1.4936
  670MOL0     H92425   5.988   0.848   4.709  0.1645 -0.3598 -1.3130
  670MOL0     H92426   6.037   0.781   4.428 -1.4238  0.4794 -0.6554
  670MOL0     H92427   5.942   0.919   4.482  1.6670  0.1120 -0.8235
  670MOL0     H92428   6.180   0.963   4.410 -0.6046  0.1857  0.1642
  670MOL0     H92429   6.233   0.909   4.562  0.5538 -1.1722 -1.5891
  670MOL0     H92430   6.122   1.056   4.688  1.0668  0.0460  0.1286
  670MOL0     H92431   6.023   1.120   4.541  1.2935  4.9824  0.3884
  670MOL0     H92432   6.194   1.197   4.447  0.1609 -4.2905 -0.6964
  670MOL0     H92433   6.178   1.287   4.595  3.9106  1.7447  1.1909
  670MOL0     H92434   6.412   1.076   4.564  2.9808  0.8563  0.5718
  670MOL0     H92435   6.386   1.198   4.678  1.1745 -0.3044 -0.5946
  670MOL0     H92436   6.391   1.366   4.486 -1.9623 -0.1272 -3.7252
  670MOL0     H92437   6.423   1.240   4.366  0.6334  0.3113  0.2303
  670MOL0     H92438   6.625   1.173   4.477  2.1694  0.5988  3.6990
  670MOL0     H92439   6.601   1.298   4.606 -0.4106  1.3393 -0.5938
  670MOL0     H92440   6.051   0.490   4.814  0.0989 -0.3203  0.2945
  670MOL0     H92441   6.088   0.454   5.037  0.5335 -0.8899  0.6933
  670MOL0     H92442   6.304   0.708   5.434 -0.6167  1.1063  1.9661
  670MOL0     H92443   6.317   0.728   5.684 -0.3659  0.7324 -0.4122
  670MOL0     H92444   5.827   1.767   6.204  0.3708  0.0933  0.7153
  670MOL0     H92445   5.994   1.707   6.008  1.0805 -1.9325 -1.0774
  670MOL0     H92446   6.455   1.263   6.044  4.9623 -4.5929 -2.1132
  670MOL0     H92447   6.571   1.147   5.858 -0.2319 -0.5233  0.1539
  670MOL0     H92448   6.668   1.092   5.505  0.1343 -0.9778 -0.1263
  670MOL0     H92449   6.708   1.109   5.676 -0.4244 -1.2566  0.0722
  670MOL0     H92450   6.499   1.005   5.731  0.7430 -0.1000 -0.4594
  670MOL0     H92451   6.576   0.895   5.615 -0.8879 -0.6822  0.9493
  670MOL0     H92452   6.344   0.908   5.544 -0.5499 -0.0721  0.4973
  670MOL0     H92453   6.344   1.079   5.572 -0.2226  0.4144 -0.1469
  670MOL0     H92454   6.454   1.126   5.355  2.8582 -1.2275 -3.5501
  670MOL0     H92455   6.319   1.014   5.333 -0.2723  0.2066  0.7588
  670MOL0     H92456   6.607   0.745   5.221  2.5695  0.8750  1.2647
  670MOL0     H92457   6.463   1.464   5.595  1.2369  2.0670  1.2219
  670MOL0     H92458   6.368   1.655   5.675 -2.6171 -0.0912 -2.3973
  670MOL0     H92459   6.225   1.554   5.671 -1.5076  2.5118 -0.4929
  670MOL0     H92460   6.252   1.662   5.815  2.1822 -0.3560  1.9731
  671MOL0     O92461   3.186   6.221   0.925  0.0825 -0.3947 -0.0112
  671MOL0     C92462   3.242   6.125   0.985 -1.5580 -0.6625  0.5692
  671MOL0     O92463   3.360   6.143   1.059 -0.2969  0.2978  0.8618
  671MOL0     C92464   3.446   6.250   1.025 -0.0544 -0.6396 -0.9745
  671MOL0     C92465   3.482   6.290   0.896 -0.2074  0.0286 -0.1940
  671MOL0     C92466   3.557   6.398   0.865  0.4145 -0.8180  0.3503
  671MOL0     C92467   3.615   6.478   0.972 -1.0049 -0.5073 -0.8419
  671MOL0     O92468   3.675   6.601   0.962 -0.1109 -0.8781 -0.1310
  671MOL0     C92469   3.589   6.714   0.987  1.4862 -0.3512  0.5154
  671MOL0     C92470   3.599   6.805   0.862  0.3492  0.4774 -0.0060
  671MOL0     C92471   3.615   6.957   0.903 -0.8102  0.4684 -0.1258
  671MOL0     C92472   3.508   6.996   1.011  0.2140  0.1512  0.3603
  671MOL0     C92473   3.498   7.147   1.028  0.5519 -0.8050  0.3614
  671MOL0     C92474   3.378   7.187   1.117 -0.2522 -0.4744  0.3446
  671MOL0     C92475   3.387   7.215   1.260 -0.3680 -1.0738  0.9932
  671MOL0     C92476   3.403   7.078   1.341 -1.8348  0.2223  0.8101
  671MOL0     N92477   3.375   7.095   1.487 -0.1278 -0.2222  0.4808
  671MOL0     C92478   3.261   7.043   1.538 -0.4624  0.7342 -0.3489
  671MOL0     C92479   3.264   7.076   1.679 -0.5426  0.5802 -0.3858
  671MOL0     C92480   3.166   7.069   1.792 -0.1675  0.3472  0.1013
  671MOL0     C92481   3.122   7.207   1.837 -0.3037 -0.4107  0.4046
  671MOL0     C92482   3.014   7.261   1.732  0.4503  0.2071 -0.7507
  671MOL0     C92483   3.069   7.367   1.641  0.2478  0.2757 -0.1270
  671MOL0     O92484   2.966   7.397   1.539  0.0320 -0.1871 -0.9368
  671MOL0     C92485   2.992   7.357   1.414 -0.5886  0.5717 -0.1185
  671MOL0     C92486   2.980   7.225   1.374 -0.4378  0.7872 -0.3695
  671MOL0     C92487   3.014   7.182   1.242 -0.4309  0.5355 -0.0412
  671MOL0     C92488   2.990   7.033   1.211  0.4453 -0.2980  0.8209
  671MOL0     C92489   3.055   7.288   1.145 -0.4241 -0.2084  0.4742
  671MOL0     C92490   3.069   7.260   0.995 -0.3662  0.2248 -0.4684
  671MOL0     O92491   3.137   7.357   0.930 -0.9201 -0.2701 -0.1094
  671MOL0     C92492   3.206   7.326   0.809 -0.0740  0.6950  0.4443
  671MOL0     C92493   3.239   7.434   0.731  1.0431 -0.4261 -0.5415
  671MOL0     C92494   3.296   7.421   0.606 -0.1150  0.5603 -0.6945
  671MOL0     C92495   3.331   7.296   0.554  0.1964  0.5589 -0.3903
  671MOL0     O92496   3.396   7.292   0.429  0.1439  0.0228 -0.4142
  671MOL0     C92497   3.496   7.194   0.427  1.1237  0.2136  0.1055
  671MOL0     C92498   3.440   7.085   0.330 -0.5341  0.2353 -0.1668
  671MOL0     C92499   3.538   6.971   0.334 -0.1299  0.2010 -0.7330
  671MOL0     C92500   3.477   6.844   0.259 -0.6149 -0.6927 -0.1541
  671MOL0     C92501   3.555   6.706   0.275 -0.5565 -0.1634  0.6600
  671MOL0     C92502   3.564   6.673   0.423 -0.3162  0.1844 -0.6954
  671MOL0     C92503   3.421   6.666   0.498  0.2081  0.2019 -0.4960
  671MOL0     C92504   3.340   6.542   0.462  0.2321 -1.1418  0.4290
  671MOL0    Cl92505   3.405   6.393   0.525 -0.5727  0.0216  0.1877
  671MOL0     C92506   3.309   7.179   0.638  0.1373  0.7195 -0.2713
  671MOL0     C92507   3.251   7.200   0.760  0.1603 -0.2966 -0.5542
  671MOL0     O92508   3.009   7.170   0.937  0.6224  0.4155 -0.1211
  671MOL0     C92509   3.059   7.422   1.192  0.1524 -0.0300  0.4190
  671MOL0     C92510   3.038   7.456   1.322  0.0415  0.5349 -0.3359
  671MOL0     N92511   3.391   7.134   1.701  0.5834 -0.3415  0.5451
  671MOL0     N92512   3.447   7.154   1.589 -0.5052 -0.1398  0.4117
  671MOL0     C92513   3.594   6.426   1.100 -0.4092  0.2207  0.0114
  671MOL0     C92514   3.516   6.315   1.122 -0.6459  0.3830  0.5036
  671MOL0     C92515   3.173   5.992   0.970 -1.1301 -0.5931 -0.1797
  671MOL0     C92516   3.259   5.886   0.937  1.1142  0.0029  0.2457
  671MOL0     C92517   3.201   5.759   0.899 -0.8939  0.2032  0.0723
  671MOL0     C92518   3.067   5.743   0.898 -0.3820  0.3856 -0.2211
  671MOL0     O92519   3.033   5.619   0.876 -0.1281  0.4901  0.3552
  671MOL0     C92520   2.892   5.579   0.901 -0.1050  0.1071  1.0609
  671MOL0     C92521   2.887   5.426   0.900  0.3206  0.7823  0.0151
  671MOL0     C92522   2.750   5.361   0.921  0.3831 -0.5932  0.4917
  671MOL0     C92523   2.730   5.272   1.044 -0.6565  0.6746  0.0163
  671MOL0     C92524   2.586   5.260   1.084 -0.0167 -0.5454 -0.3087
  671MOL0     C92525   2.475   5.236   1.120  1.1054  0.1097 -0.0565
  671MOL0     C92526   2.982   5.855   0.919 -0.5696  0.0220 -0.0071
  671MOL0     C92527   3.037   5.980   0.961 -0.8544  0.2907 -0.4844
  671MOL0     C92528   2.939   6.086   1.018 -0.4154  0.5671  0.2030
  671MOL0     H92529   3.438   6.232   0.815  0.5800 -0.0345 -0.5920
  671MOL0     H92530   3.575   6.430   0.763  1.8274  0.5852  1.0059
  671MOL0     H92531   3.630   6.771   1.072 -0.9361  0.3302  1.3297
  671MOL0     H92532   3.483   6.690   1.006  1.1950 -0.5901 -1.3086
  671MOL0     H92533   3.689   6.777   0.806  1.9219 -1.4588  3.1942
  671MOL0     H92534   3.512   6.786   0.799 -0.7998 -3.8269  2.4865
  671MOL0     H92535   3.715   6.975   0.945  0.8059 -3.0651 -1.9760
  671MOL0     H92536   3.619   7.021   0.815  2.7955 -1.3196 -1.4974
  671MOL0     H92537   3.418   6.946   0.973 -0.4164  1.9710 -0.7140
  671MOL0     H92538   3.522   6.963   1.114 -2.3425 -1.3098  0.3315
  671MOL0     H92539   3.487   7.177   0.924  0.5264  0.2525  0.6565
  671MOL0     H92540   3.591   7.189   1.066 -0.5808  2.0205  0.2074
  671MOL0     H92541   3.346   7.286   1.085  0.2111 -0.6212 -0.5930
  671MOL0     H92542   3.297   7.115   1.107  0.0263 -1.2182  2.7338
  671MOL0     H92543   3.294   7.241   1.313 -1.2875 -0.9039 -0.6515
  671MOL0     H92544   3.471   7.279   1.289  2.6433 -3.8772 -0.9496
  671MOL0     H92545   3.341   7.001   1.293  0.3726 -0.2723 -1.4744
  671MOL0     H92546   3.506   7.050   1.317 -3.0487 -0.8646 -4.3800
  671MOL0     H92547   3.170   7.009   1.489 -0.0032  3.3873 -3.3741
  671MOL0     H92548   3.228   7.020   1.868 -0.3885 -1.5724 -0.8784
  671MOL0     H92549   3.083   6.999   1.777  0.8533 -1.1435  1.1167
  671MOL0     H92550   3.066   7.192   1.930 -0.2805 -3.0770  0.0724
  671MOL0     H92551   3.208   7.274   1.849 -1.4150  0.7353  2.3796
  671MOL0     H92552   2.965   7.178   1.680  0.1059  1.1987 -2.0680
  671MOL0     H92553   2.936   7.306   1.795 -0.9871 -2.6396 -0.3134
  671MOL0     H92554   3.094   7.467   1.679  0.0029 -0.4862  2.1643
  671MOL0     H92555   3.160   7.330   1.592 -0.0331 -1.1776  0.4077
  671MOL0     H92556   2.956   7.151   1.450 -1.3717  2.0600  0.6231
  671MOL0     H92557   2.979   6.983   1.307 -2.1620 -0.4473  0.5176
  671MOL0     H92558   3.072   6.988   1.154 -0.8092  0.5584 -1.8152
  671MOL0     H92559   2.904   7.023   1.145  1.3031  2.0646 -0.7866
  671MOL0     H92560   3.220   7.530   0.777 -2.6621 -1.5880  0.7254
  671MOL0     H92561   3.301   7.505   0.537 -1.5863  1.8508  0.6675
  671MOL0     H92562   3.580   7.243   0.377  1.2930  0.0025  0.1855
  671MOL0     H92563   3.519   7.150   0.524 -1.4175  1.0370  1.1774
  671MOL0     H92564   3.344   7.041   0.356  0.1063 -0.7773  0.5311
  671MOL0     H92565   3.425   7.122   0.228 -1.6882  2.0704  0.5979
  671MOL0     H92566   3.565   6.939   0.435 -0.9723 -2.6482 -1.3230
  671MOL0     H92567   3.634   6.990   0.286 -0.0684 -3.6240 -2.4832
  671MOL0     H92568   3.472   6.872   0.153 -1.8865  1.2344  0.3527
  671MOL0     H92569   3.376   6.829   0.297 -2.0556 -1.5897 -3.9221
  671MOL0     H92570   3.493   6.632   0.224 -2.1525  0.9983  0.8578
  671MOL0     H92571   3.653   6.719   0.228 -1.1995  1.1075 -0.3963
  671MOL0     H92572   3.633   6.742   0.473  1.9661 -0.4813 -2.7637
  671MOL0     H92573   3.607   6.575   0.444 -0.2853  0.7671  2.4688
  671MOL0     H92574   3.355   6.753   0.488 -0.5408 -0.3016 -0.0657
  671MOL0     H92575   3.443   6.667   0.605  0.6888  0.8964 -0.5959
  671MOL0     H92576   3.337   6.536   0.353  0.1144 -1.0262  0.4253
  671MOL0     H92577   3.236   6.547   0.497  0.2523 -3.6901  1.0421
  671MOL0     H92578   3.346   7.079   0.619  1.1360  0.3483  3.0925
  671MOL0     H92579   3.239   7.116   0.827  0.1542 -1.8744 -2.4701
  671MOL0     H92580   3.086   7.509   1.134 -0.1074  1.3282  2.2597
  671MOL0     H92581   3.038   7.562   1.348 -3.7886  0.4583  0.5158
  671MOL0     H92582   3.655   6.474   1.176  2.2856 -2.4580 -0.2969
  671MOL0     H92583   3.503   6.257   1.213 -2.8063 -1.9765 -1.1668
  671MOL0     H92584   3.365   5.906   0.931  1.5234 -2.0293  0.1545
  671MOL0     H92585   3.276   5.690   0.861  0.8790  2.5605 -1.0704
  671MOL0     H92586   2.854   5.608   1.000 -1.2781 -2.6536  1.5130
  671MOL0     H92587   2.826   5.609   0.819  3.0915  1.3683 -1.2167
  671MOL0     H92588   2.957   5.405   0.982  1.3792  2.0122 -0.5519
  671MOL0     H92589   2.925   5.398   0.802 -0.3016 -0.5616  0.1284
  671MOL0     H92590   2.670   5.435   0.911  1.1301 -0.0753 -2.7026
  671MOL0     H92591   2.720   5.300   0.835  0.1791  0.6339 -0.3283
  671MOL0     H92592   2.789   5.315   1.125 -0.1092  2.5791 -1.3227
  671MOL0     H92593   2.774   5.174   1.023 -1.5245  0.0530  0.9801
  671MOL0     H92594   2.372   5.219   1.144  0.6231  3.6273  1.0394
  671MOL0     H92595   2.876   5.830   0.928 -0.2613 -0.5133  3.5056
  671MOL0     H92596   2.906   6.155   0.939  0.9985  0.2249 -0.7245
  671MOL0     H92597   2.846   6.034   1.043  0.0340  0.8876  2.7366
  671MOL0     H92598   2.973   6.142   1.106  1.1937  1.9120 -1.1943
  672MOL0     O92599   2.863   4.764   7.943  0.6602 -0.6968  0.4265
  672MOL0     C92600   2.899   4.684   7.861  0.3577  0.2922  0.9593
  672MOL0     O92601   2.863   4.554   7.849 -0.6849  0.6876 -0.4441
  672MOL0     C92602   2.766   4.510   7.934 -0.2467  0.0107 -0.3919
  672MOL0     C92603   2.689   4.412   7.871  1.1355  1.0434 -0.1481
  672MOL0     C92604   2.565   4.376   7.932 -0.0234  0.2333 -0.1431
  672MOL0     C92605   2.530   4.406   8.063 -1.3299 -0.2556 -0.0565
  672MOL0     O92606   2.430   4.366   8.141  0.4141  1.4507 -0.4382
  672MOL0     C92607   2.333   4.266   8.087 -0.0178 -0.5878  0.0069
  672MOL0     C92608   2.215   4.341   8.033  0.3835  0.3003  0.1977
  672MOL0     C92609   2.150   4.245   7.921 -0.0953  0.7884  0.4860
  672MOL0     C92610   2.111   4.335   7.798 -0.1300  0.0101 -0.5650
  672MOL0     C92611   2.041   4.245   7.695  1.2634  0.1354  0.0271
  672MOL0     C92612   1.934   4.146   7.744 -0.4811 -0.1298 -0.0554
  672MOL0     C92613   1.832   4.221   7.829  0.3586  0.3300  0.5877
  672MOL0     C92614   1.702   4.148   7.840  0.1497 -0.1055  0.3261
  672MOL0     N92615   1.721   4.018   7.895 -0.2489  0.0095 -0.1583
  672MOL0     C92616   1.722   3.995   8.033  0.6798  0.7809  0.5022
  672MOL0     C92617   1.724   3.864   8.044  0.3969 -0.1470  0.5817
  672MOL0     C92618   1.740   3.790   8.174  1.0934 -0.6286  0.9499
  672MOL0     C92619   1.828   3.662   8.161 -0.4323 -0.4501  0.4043
  672MOL0     C92620   1.779   3.575   8.282 -0.7065  0.7313 -0.0208
  672MOL0     C92621   1.855   3.441   8.288 -0.6517  0.0686  0.4231
  672MOL0     O92622   1.848   3.387   8.420 -0.0701 -0.6624 -0.1414
  672MOL0     C92623   1.769   3.277   8.455  0.0912 -0.1827 -0.2420
  672MOL0     C92624   1.661   3.221   8.378  0.0692  0.2206 -0.3818
  672MOL0     C92625   1.594   3.101   8.401 -0.6015  0.6108  0.1425
  672MOL0     C92626   1.481   3.062   8.309  0.9160 -0.3640 -0.3875
  672MOL0     C92627   1.631   3.026   8.519  0.3514  0.6883  0.8063
  672MOL0     C92628   1.570   2.886   8.557 -0.4318 -0.6456  0.3938
  672MOL0     O92629   1.639   2.813   8.645  0.7274  0.3496 -0.1780
  672MOL0     C92630   1.567   2.722   8.731 -0.9313  0.3125  0.1961
  672MOL0     C92631   1.524   2.599   8.682  0.6511 -0.2302  0.3682
  672MOL0     C92632   1.479   2.497   8.775 -0.2770  0.3217  0.1007
  672MOL0     C92633   1.463   2.533   8.908  0.7221 -0.7112 -0.1735
  672MOL0     O92634   1.419   2.450   9.008 -0.2448 -0.1143 -0.1696
  672MOL0     C92635   1.434   2.307   8.988 -0.8943 -0.4773 -0.9026
  672MOL0     C92636   1.420   2.221   9.117  0.2326 -0.5379  0.0715
  672MOL0     C92637   1.541   2.252   9.208  0.0267 -0.3494 -0.6060
  672MOL0     C92638   1.513   2.189   9.345  0.1397  0.2311  0.0198
  672MOL0     C92639   1.512   2.040   9.347 -0.4294 -0.3491 -0.4886
  672MOL0     C92640   1.481   1.986   9.489  0.5476 -0.4091 -0.4604
  672MOL0     C92641   1.468   1.831   9.487 -0.4928 -0.6469 -0.2317
  672MOL0     C92642   1.472   1.775   9.621 -0.1035 -0.0106  0.6839
  672MOL0    Cl92643   1.444   1.593   9.597 -0.1262  0.2274  0.2119
  672MOL0     C92644   1.491   2.667   8.957 -0.5876 -0.4635 -0.4075
  672MOL0     C92645   1.563   2.755   8.867  0.3555 -0.0165 -1.3825
  672MOL0     O92646   1.462   2.860   8.515  0.3762  0.3936  0.0714
  672MOL0     C92647   1.735   3.082   8.598  0.0336 -0.5673 -0.0843
  672MOL0     C92648   1.804   3.201   8.565  0.7551 -0.3675 -1.3242
  672MOL0     N92649   1.714   3.805   7.925  0.2957 -0.2385  0.0388
  672MOL0     N92650   1.719   3.892   7.836  0.4612  0.6303 -0.7715
  672MOL0     C92651   2.618   4.499   8.131 -0.3230  0.5188 -0.5794
  672MOL0     C92652   2.739   4.542   8.077 -0.3041 -0.7447 -0.2823
  672MOL0     C92653   2.991   4.734   7.759  0.9277 -0.1234  1.1934
  672MOL0     C92654   3.094   4.827   7.793  0.0891 -0.0555  0.6007
  672MOL0     C92655   3.194   4.858   7.706  0.7491  0.4656  0.2953
  672MOL0     C92656   3.182   4.818   7.575 -0.3721  0.1681  0.5794
  672MOL0     O92657   3.278   4.866   7.486 -0.0833  0.0815 -0.1536
  672MOL0     C92658   3.262   4.835   7.348  0.0448 -0.6898  0.9196
  672MOL0     C92659   3.370   4.915   7.275  0.0143 -0.9111  0.6550
  672MOL0     C92660   3.361   4.910   7.118  0.0099 -0.0139 -0.7677
  672MOL0     C92661   3.241   4.987   7.060  0.0863 -0.8561  0.5326
  672MOL0     C92662   3.241   5.135   7.073 -0.3108  0.6194  0.4257
  672MOL0     C92663   3.259   5.252   7.072  0.6258 -0.2961 -0.0568
  672MOL0     C92664   3.080   4.721   7.533  0.0403 -1.0523 -0.2991
  672MOL0     C92665   2.980   4.688   7.622  0.3424  0.3192  0.2367
  672MOL0     C92666   2.874   4.605   7.558 -0.1543  0.3105  0.1937
  672MOL0     H92667   2.704   4.376   7.770 -4.3940  0.1660 -0.9490
  672MOL0     H92668   2.497   4.319   7.869 -1.7094 -0.0962  1.8727
  672MOL0     H92669   2.297   4.189   8.157 -0.3342 -0.6375 -0.2076
  672MOL0     H92670   2.380   4.215   8.003 -1.4532 -4.0095  1.0964
  672MOL0     H92671   2.145   4.379   8.109 -1.7665  1.1787 -2.0862
  672MOL0     H92672   2.266   4.421   7.978  1.5123 -1.1742 -0.9617
  672MOL0     H92673   2.211   4.163   7.880 -2.9013 -1.5211  0.5686
  672MOL0     H92674   2.070   4.183   7.963  0.7977  0.3216  1.5175
  672MOL0     H92675   2.043   4.418   7.815  1.6894  2.2980 -3.4119
  672MOL0     H92676   2.204   4.376   7.758 -1.1745  3.4424  0.2274
  672MOL0     H92677   2.112   4.180   7.642 -1.4134 -3.2922  0.2664
  672MOL0     H92678   1.993   4.309   7.621 -0.0627  1.5566  2.0142
  672MOL0     H92679   1.881   4.101   7.660 -1.6334 -0.4367  0.8061
  672MOL0     H92680   1.986   4.077   7.812  2.4904  2.6337  0.7170
  672MOL0     H92681   1.819   4.320   7.785 -1.5380 -0.4758 -0.8126
  672MOL0     H92682   1.870   4.234   7.931 -0.7472 -0.3120  1.0944
  672MOL0     H92683   1.628   4.208   7.893  1.0315 -1.0555  2.7618
  672MOL0     H92684   1.661   4.124   7.741 -1.4472 -1.5203  1.2889
  672MOL0     H92685   1.753   4.056   8.117  1.1493  0.4682  0.5595
  672MOL0     H92686   1.633   3.768   8.186  0.3125  2.0480 -0.3978
  672MOL0     H92687   1.783   3.856   8.250  1.3000  0.3832 -0.0254
  672MOL0     H92688   1.834   3.612   8.064 -1.3445 -0.6577  0.4438
  672MOL0     H92689   1.932   3.691   8.178 -1.5981  3.2439  2.3342
  672MOL0     H92690   1.789   3.627   8.377 -2.4207  0.8755  0.1133
  672MOL0     H92691   1.676   3.544   8.265  0.2823 -1.5649 -2.6145
  672MOL0     H92692   1.810   3.380   8.209  0.8873 -0.8532  0.2101
  672MOL0     H92693   1.963   3.448   8.268 -0.9270 -1.7304 -2.3070
  672MOL0     H92694   1.628   3.287   8.298  0.9159  4.4957  2.4513
  672MOL0     H92695   1.511   2.959   8.288 -1.0904 -1.0992  0.0254
  672MOL0     H92696   1.455   3.126   8.224 -2.0703 -0.1374  0.5628
  672MOL0     H92697   1.386   3.056   8.364  3.0060 -1.8052  3.4630
  672MOL0     H92698   1.536   2.562   8.581 -0.9931 -1.4798  0.5745
  672MOL0     H92699   1.459   2.394   8.747  3.5934 -1.4198  2.8520
  672MOL0     H92700   1.365   2.274   8.910  0.5725 -2.4164 -1.4561
  672MOL0     H92701   1.532   2.279   8.949  0.1648  1.2513  0.3533
  672MOL0     H92702   1.324   2.238   9.167 -0.8017  0.8185 -2.1961
  672MOL0     H92703   1.418   2.115   9.087 -0.9295 -0.8119  1.0318
  672MOL0     H92704   1.552   2.360   9.220 -3.1738  0.2433 -1.9754
  672MOL0     H92705   1.636   2.216   9.168 -0.7449 -0.2791 -2.5914
  672MOL0     H92706   1.412   2.220   9.376  0.2086 -0.5254  1.0114
  672MOL0     H92707   1.588   2.221   9.418 -1.7006 -1.5620  2.9001
  672MOL0     H92708   1.428   2.008   9.285 -1.2106 -1.0801  0.9018
  672MOL0     H92709   1.613   2.003   9.328  0.8936  0.8175  3.3210
  672MOL0     H92710   1.384   2.027   9.518  0.0020 -1.5433 -0.6378
  672MOL0     H92711   1.563   2.021   9.553 -1.7666 -1.3935  3.3719
  672MOL0     H92712   1.563   1.797   9.446  1.3229  1.8895  1.6019
  672MOL0     H92713   1.383   1.799   9.425  0.1177 -1.8344 -0.4750
  672MOL0     H92714   1.384   1.816   9.670 -0.1502  0.1492  0.4697
  672MOL0     H92715   1.558   1.800   9.684 -0.5608  1.9440  0.5837
  672MOL0     H92716   1.474   2.700   9.059  1.3585  2.4705 -0.9066
  672MOL0     H92717   1.598   2.851   8.905  0.9332 -0.5412 -0.5476
  672MOL0     H92718   1.767   3.038   8.692 -2.4361  1.2351  1.7392
  672MOL0     H92719   1.889   3.231   8.624  0.2592 -0.4265 -0.5631
  672MOL0     H92720   2.576   4.532   8.225 -0.8855  1.9363 -1.2913
  672MOL0     H92721   2.804   4.615   8.124 -1.6790  0.9399 -0.8800
  672MOL0     H92722   3.112   4.850   7.898  0.5904  0.3553  0.4331
  672MOL0     H92723   3.289   4.903   7.735  2.1314 -1.3834 -1.0757
  672MOL0     H92724   3.265   4.730   7.316  1.2857  0.4793 -3.3974
  672MOL0     H92725   3.164   4.871   7.318  1.6018  3.1634 -0.1531
  672MOL0     H92726   3.470   4.881   7.306  0.7276 -2.6607 -2.9775
  672MOL0     H92727   3.374   5.016   7.318  3.3053 -1.7751  2.8158
  672MOL0     H92728   3.454   4.948   7.076  0.9406  1.0134  2.0249
  672MOL0     H92729   3.364   4.806   7.085  2.8904  0.2145 -1.4448
  672MOL0     H92730   3.149   4.947   7.105 -1.2020  1.6519  0.3021
  672MOL0     H92731   3.225   4.982   6.952 -1.4018  0.6062  0.6496
  672MOL0     H92732   3.280   5.357   7.079 -0.3333 -0.2169  2.2810
  672MOL0     H92733   3.086   4.678   7.433  1.3939  0.2816 -0.8359
  672MOL0     H92734   2.778   4.624   7.607  0.5732  2.1125  1.0159
  672MOL0     H92735   2.863   4.621   7.451 -0.1621  0.5541  0.2304
  672MOL0     H92736   2.894   4.499   7.578 -5.3541 -0.8503  0.5838
  673MOL0     O92737   3.321   1.177   3.545 -0.5724  0.3376 -0.2747
  673MOL0     C92738   3.284   1.231   3.442 -0.5108  0.4012  0.8502
  673MOL0     O92739   3.282   1.365   3.417  0.2521 -0.2554 -0.7237
  673MOL0     C92740   3.339   1.447   3.514 -0.6079  0.0069 -0.4595
  673MOL0     C92741   3.442   1.540   3.479 -0.5816  0.3273  0.1996
  673MOL0     C92742   3.504   1.622   3.584 -0.5893  0.3955  0.0892
  673MOL0     C92743   3.454   1.622   3.713  0.9432  0.2500 -1.2099
  673MOL0     O92744   3.508   1.700   3.810 -0.0175  0.5547  0.6687
  673MOL0     C92745   3.425   1.799   3.864 -0.1174 -0.9589 -0.6947
  673MOL0     C92746   3.474   1.936   3.801  0.6223 -0.2532  0.5512
  673MOL0     C92747   3.601   1.980   3.873 -0.9233  0.1662  0.1571
  673MOL0     C92748   3.569   2.097   3.968  0.6702  0.6114  0.3775
  673MOL0     C92749   3.700   2.150   4.037  0.7727 -0.1371 -0.2386
  673MOL0     C92750   3.665   2.287   4.095 -1.2086  0.4578 -1.3819
  673MOL0     C92751   3.787   2.353   4.183 -0.6087 -0.2885  0.0886
  673MOL0     C92752   3.745   2.483   4.238 -0.1837 -0.1403 -0.2171
  673MOL0     N92753   3.687   2.581   4.148 -0.7757  0.1847  1.0207
  673MOL0     C92754   3.740   2.622   4.027  0.6162  0.5862 -0.3217
  673MOL0     C92755   3.682   2.739   3.992  0.9100  0.0361 -0.6813
  673MOL0     C92756   3.731   2.826   3.881  0.4815 -0.9321 -0.3622
  673MOL0     C92757   3.807   2.951   3.919 -0.0153 -0.4241  0.4947
  673MOL0     C92758   3.934   2.910   3.999 -1.3245 -0.0435 -0.0874
  673MOL0     C92759   4.056   2.880   3.910 -0.0183 -0.0406 -0.3105
  673MOL0     O92760   4.148   2.801   3.993 -0.5106 -0.5027 -0.4292
  673MOL0     C92761   4.241   2.864   4.078 -0.2707 -0.0618  0.2696
  673MOL0     C92762   4.260   2.996   4.093 -0.6048 -0.4380  0.2541
  673MOL0     C92763   4.357   3.045   4.181 -0.6429 -0.7992  0.1393
  673MOL0     C92764   4.341   3.190   4.222 -0.1158 -0.0257 -0.4627
  673MOL0     C92765   4.454   2.954   4.238 -0.4679  0.1871  0.1154
  673MOL0     C92766   4.564   3.004   4.334  0.3590  0.2854  0.2522
  673MOL0     O92767   4.635   2.912   4.408  0.2146  0.2279 -0.2229
  673MOL0     C92768   4.742   2.960   4.478  0.7862  1.0013  0.2801
  673MOL0     C92769   4.872   2.961   4.424 -0.5804  0.8311  0.8414
  673MOL0     C92770   4.976   3.024   4.497  0.7852  0.4351 -0.5490
  673MOL0     C92771   4.955   3.064   4.637 -0.0988 -0.2945  0.2844
  673MOL0     O92772   5.061   3.115   4.711  0.8831 -0.4947 -0.1372
  673MOL0     C92773   5.194   3.106   4.664  0.4135 -0.4075  0.9044
  673MOL0     C92774   5.293   3.192   4.741  0.6898 -0.1218 -0.5504
  673MOL0     C92775   5.443   3.162   4.700  0.2141 -0.0709 -0.5665
  673MOL0     C92776   5.534   3.254   4.783 -0.2159 -0.1530 -0.0776
  673MOL0     C92777   5.656   3.174   4.816  0.3108 -0.9923  0.2087
  673MOL0     C92778   5.741   3.258   4.919 -1.3125 -0.0333  0.4109
  673MOL0     C92779   5.699   3.209   5.057 -0.1094  0.0138 -0.9306
  673MOL0     C92780   5.780   3.267   5.167 -0.8131 -0.0550 -0.1398
  673MOL0    Cl92781   5.946   3.199   5.160  0.0391 -0.3937 -0.0446
  673MOL0     C92782   4.832   3.052   4.696 -0.2420  0.0408  1.0253
  673MOL0     C92783   4.726   2.997   4.617 -0.0893  0.0146 -0.2458
  673MOL0     O92784   4.600   3.118   4.314 -0.2922 -1.0274 -0.7641
  673MOL0     C92785   4.438   2.814   4.220 -0.4917 -0.2413 -0.6860
  673MOL0     C92786   4.329   2.771   4.143 -0.0303  0.3460 -0.2683
  673MOL0     N92787   3.581   2.763   4.086  0.1030  0.0376 -0.2123
  673MOL0     N92788   3.580   2.664   4.175  0.3120 -1.3038 -0.1504
  673MOL0     C92789   3.356   1.533   3.743  0.4624 -0.6886  0.2685
  673MOL0     C92790   3.299   1.449   3.643 -0.8138 -0.1894  0.1837
  673MOL0     C92791   3.252   1.140   3.314 -0.9966  0.5620 -0.9406
  673MOL0     C92792   3.342   1.037   3.290  0.6713  0.8051 -0.3070
  673MOL0     C92793   3.329   0.957   3.174  0.6962 -0.6793  0.0280
  673MOL0     C92794   3.217   0.974   3.092  0.4241 -0.1164  0.2695
  673MOL0     O92795   3.220   0.901   2.980  0.0820 -0.5109  0.7784
  673MOL0     C92796   3.117   0.911   2.877  0.7618  0.5225 -0.3693
  673MOL0     C92797   3.128   0.806   2.758 -0.5500  0.5043  0.3646
  673MOL0     C92798   3.153   0.665   2.810  0.4994 -0.1743 -0.6832
  673MOL0     C92799   3.168   0.572   2.695 -0.5402 -0.4353  0.8643
  673MOL0     C92800   3.311   0.571   2.651  0.2379 -0.6787 -0.2475
  673MOL0     C92801   3.412   0.606   2.593  0.1470 -0.7009  0.2553
  673MOL0     C92802   3.119   1.066   3.134  0.5808  0.2169 -1.2679
  673MOL0     C92803   3.136   1.151   3.236 -0.0431 -0.5363 -0.2283
  673MOL0     C92804   3.043   1.264   3.256  0.2655 -0.5280  0.1646
  673MOL0     H92805   3.486   1.547   3.380  1.2476  0.6155  0.9817
  673MOL0     H92806   3.573   1.701   3.556 -2.2210  0.8982 -2.9432
  673MOL0     H92807   3.427   1.796   3.973 -0.4917  0.4522 -0.6193
  673MOL0     H92808   3.322   1.790   3.826  0.2160  2.6244 -2.9306
  673MOL0     H92809   3.499   1.925   3.695  1.9986 -1.9699  1.0107
  673MOL0     H92810   3.393   2.010   3.794 -1.7280 -2.7658 -1.2641
  673MOL0     H92811   3.644   1.893   3.923 -0.4232 -0.5529 -1.4520
  673MOL0     H92812   3.677   1.998   3.797 -1.4790 -3.1534 -1.3111
  673MOL0     H92813   3.512   2.180   3.925 -2.0018 -1.8535 -1.1721
  673MOL0     H92814   3.508   2.063   4.053 -0.8626 -2.0367 -1.6349
  673MOL0     H92815   3.768   2.166   3.954  0.1558  2.8532 -0.2541
  673MOL0     H92816   3.733   2.071   4.106 -0.3843  0.4919  1.0911
  673MOL0     H92817   3.647   2.358   4.013 -2.1835  3.0963  0.9605
  673MOL0     H92818   3.576   2.269   4.156  0.8462 -2.7954  0.9615
  673MOL0     H92819   3.882   2.368   4.132 -1.5592  0.5793 -1.5329
  673MOL0     H92820   3.810   2.294   4.272  0.9131  0.7237  0.3998
  673MOL0     H92821   3.675   2.459   4.319  0.7075 -1.3992  0.2150
  673MOL0     H92822   3.842   2.519   4.271  0.0735  2.0673 -2.9758
  673MOL0     H92823   3.821   2.585   3.964 -1.1476 -4.1487 -0.1669
  673MOL0     H92824   3.643   2.866   3.829  0.9956 -2.2267 -2.3358
  673MOL0     H92825   3.797   2.776   3.810  2.7207 -0.0243  0.9890
  673MOL0     H92826   3.832   3.005   3.827 -0.6361 -1.3533 -0.2331
  673MOL0     H92827   3.749   3.019   3.982 -0.5583  1.8346 -2.2772
  673MOL0     H92828   3.954   2.998   4.061  0.4131 -1.3122  1.2430
  673MOL0     H92829   3.914   2.830   4.070 -0.6127  0.2620  0.4734
  673MOL0     H92830   4.029   2.838   3.812  1.3980  0.2631 -0.8540
  673MOL0     H92831   4.094   2.979   3.885 -1.4542  0.0094 -2.5754
  673MOL0     H92832   4.174   3.058   4.070 -4.2362 -4.3010  2.0792
  673MOL0     H92833   4.403   3.262   4.167 -0.0219  1.3083  1.2884
  673MOL0     H92834   4.384   3.200   4.321  1.1897 -0.8487 -0.9190
  673MOL0     H92835   4.238   3.227   4.228 -0.8862 -1.5882 -2.7872
  673MOL0     H92836   4.887   2.903   4.333 -1.1430 -3.3772  3.1396
  673MOL0     H92837   5.065   3.011   4.435 -0.5663 -0.9366 -2.3125
  673MOL0     H92838   5.225   3.002   4.680 -1.1941 -1.4969 -2.1527
  673MOL0     H92839   5.182   3.138   4.560 -2.7604 -0.1579  1.2587
  673MOL0     H92840   5.265   3.293   4.709 -1.8283 -1.5619 -3.4607
  673MOL0     H92841   5.281   3.181   4.849  3.5339 -0.9556 -0.2487
  673MOL0     H92842   5.476   3.152   4.596  1.7771 -1.0510 -0.0154
  673MOL0     H92843   5.459   3.058   4.730  1.3442 -0.9909 -3.7994
  673MOL0     H92844   5.488   3.276   4.880  2.0260  0.2635  0.9645
  673MOL0     H92845   5.560   3.348   4.734 -1.0746  0.3087  0.3236
  673MOL0     H92846   5.635   3.072   4.852  0.4437 -0.2043  2.7267
  673MOL0     H92847   5.720   3.172   4.727  1.5931  0.7501  1.0369
  673MOL0     H92848   5.727   3.365   4.901 -1.4335  0.1717  1.6159
  673MOL0     H92849   5.844   3.232   4.892 -1.4017 -1.8240  1.6251
  673MOL0     H92850   5.718   3.102   5.064  0.9660  0.2684  0.5536
  673MOL0     H92851   5.603   3.254   5.082  0.6173  1.5921 -0.8458
  673MOL0     H92852   5.729   3.231   5.256 -2.3661  6.5736  2.2445
  673MOL0     H92853   5.770   3.376   5.168 -3.2926 -0.2359  1.0007
  673MOL0     H92854   4.810   3.062   4.802 -0.5682  0.9712  0.8787
  673MOL0     H92855   4.629   2.986   4.665 -1.7391  3.2444 -2.4222
  673MOL0     H92856   4.504   2.741   4.267 -0.0868 -0.9389 -2.2565
  673MOL0     H92857   4.309   2.664   4.142 -0.8039  0.4724 -2.0298
  673MOL0     H92858   3.312   1.525   3.842 -2.5486  0.0331 -0.9070
  673MOL0     H92859   3.208   1.392   3.662 -0.9865 -0.0419 -0.1948
  673MOL0     H92860   3.422   1.018   3.361  2.1255  0.1107 -2.0455
  673MOL0     H92861   3.404   0.882   3.152  0.2210 -1.3692  0.7232
  673MOL0     H92862   3.017   0.907   2.921  0.6465  4.4203  0.0792
  673MOL0     H92863   3.130   1.012   2.835  0.8086  2.1789  3.2258
  673MOL0     H92864   3.200   0.837   2.683  0.0798  1.5393  1.3733
  673MOL0     H92865   3.030   0.809   2.709 -0.0424  0.2279 -0.6826
  673MOL0     H92866   3.241   0.666   2.875 -0.6162 -0.9227  0.9024
  673MOL0     H92867   3.076   0.636   2.883 -1.7664 -0.4670 -3.0321
  673MOL0     H92868   3.118   0.604   2.602  1.9916  0.6362 -0.2148
  673MOL0     H92869   3.142   0.466   2.706  1.8502 -1.4827 -2.1841
  673MOL0     H92870   3.499   0.654   2.552 -0.9865  1.0287 -0.1984
  673MOL0     H92871   3.022   1.060   3.085  0.2013 -0.8755 -0.4330
  673MOL0     H92872   3.017   1.279   3.362 -1.9207 -0.0546 -0.3869
  673MOL0     H92873   3.092   1.348   3.206  0.7761 -0.5386  0.6372
  673MOL0     H92874   2.948   1.246   3.205 -0.4134  1.9997  0.4019
  674MOL0     O92875   9.475  10.820   4.292 -0.4348  0.1743  0.6864
  674MOL0     C92876   9.550  10.850   4.200  0.1296 -0.0997 -0.1779
  674MOL0     O92877   9.594  10.972   4.169 -0.8020  0.7440  0.0403
  674MOL0     C92878   9.594  11.083   4.256  1.2251  0.6167  0.2038
  674MOL0     C92879   9.490  11.176   4.256  0.2384 -0.5041 -0.0270
  674MOL0     C92880   9.500  11.281   4.347 -0.4649 -0.3276 -0.2080
  674MOL0     C92881   9.603  11.303   4.431 -0.1595 -0.8346 -0.5300
  674MOL0     O92882   9.607  11.410   4.515 -0.3399 -0.7362 -0.3063
  674MOL0     C92883   9.727  11.453   4.580 -0.4620  0.1786 -0.2176
  674MOL0     C92884   9.821  11.500   4.475 -0.4053 -0.6260 -0.0594
  674MOL0     C92885   9.933  11.611   4.514  0.6223  0.4193  0.4566
  674MOL0     C92886  10.012  11.638   4.390 -0.0942 -0.3969  0.1304
  674MOL0     C92887  10.152  11.718   4.410 -0.0274 -0.2263 -0.6998
  674MOL0     C92888  10.234  11.691   4.286 -0.0867  0.2831 -0.2354
  674MOL0     C92889  10.381  11.756   4.293  0.1429 -0.3454 -0.9301
  674MOL0     C92890  10.468  11.749   4.168 -0.8838 -1.1185  0.1351
  674MOL0     N92891  10.517  11.612   4.140  0.1468 -0.5517 -0.9585
  674MOL0     C92892  10.640  11.559   4.160 -0.2840  0.3723 -0.3259
  674MOL0     C92893  10.641  11.441   4.098 -0.3152  0.0980 -0.2283
  674MOL0     C92894  10.754  11.328   4.086 -0.6643 -0.9287 -0.0177
  674MOL0     C92895  10.839  11.340   3.961  0.1341 -0.2214 -0.0637
  674MOL0     C92896  10.986  11.275   3.982  0.2196  0.0126 -0.3605
  674MOL0     C92897  11.073  11.270   3.856 -0.2907 -0.2407  0.7516
  674MOL0     O92898  11.084  11.405   3.807  0.6518 -0.6035  0.2419
  674MOL0     C92899  11.155  11.429   3.691  0.2821 -0.6053  0.8021
  674MOL0     C92900  11.145  11.560   3.646 -0.4067 -0.9644  0.0602
  674MOL0     C92901  11.203  11.600   3.521 -0.1979 -0.4867 -0.6260
  674MOL0     C92902  11.182  11.743   3.480  0.0667  0.4328 -0.8149
  674MOL0     C92903  11.288  11.504   3.447  0.5256  0.4963 -0.3491
  674MOL0     C92904  11.344  11.527   3.317  0.5556 -0.7022  0.2046
  674MOL0     O92905  11.441  11.622   3.322  0.2002  0.6286  0.8741
  674MOL0     C92906  11.478  11.687   3.202 -0.3890 -0.4752  0.2783
  674MOL0     C92907  11.388  11.754   3.119  0.5560  0.3651  0.3985
  674MOL0     C92908  11.434  11.856   3.027  0.8195  0.9433  0.4214
  674MOL0     C92909  11.574  11.875   3.018  0.1355  0.2551  0.8331
  674MOL0     O92910  11.630  11.963   2.928  0.7857 -0.5352 -0.0494
  674MOL0     C92911  11.569  12.100   2.914 -0.6269  0.3707  0.3147
  674MOL0     C92912  11.673  12.197   2.969 -0.0603 -0.2186 -0.2469
  674MOL0     C92913  11.791  12.213   2.884 -0.2147 -0.4381 -1.0495
  674MOL0     C92914  11.892  12.296   2.954  0.0660  0.1589 -0.3511
  674MOL0     C92915  12.034  12.289   2.896 -0.0438  0.5245  0.3877
  674MOL0     C92916  12.128  12.384   2.968 -0.3945 -0.2387  0.6648
  674MOL0     C92917  12.265  12.391   2.903 -0.3526  0.4824  0.0521
  674MOL0     C92918  12.260  12.422   2.751 -0.6308  0.0366 -0.9392
  674MOL0    Cl92919  12.425  12.488   2.709  0.0708  0.2399  0.3697
  674MOL0     C92920  11.659  11.796   3.089  0.4764 -0.2682 -0.2704
  674MOL0     C92921  11.617  11.711   3.181  0.1329  0.4343  0.8750
  674MOL0     O92922  11.327  11.450   3.228  0.7976  0.5508  0.2080
  674MOL0     C92923  11.284  11.369   3.496  0.9974  0.0147 -0.1901
  674MOL0     C92924  11.213  11.330   3.611  0.0880 -0.0373 -0.3278
  674MOL0     N92925  10.512  11.420   4.039 -0.9365 -0.0427 -0.2284
  674MOL0     N92926  10.452  11.525   4.056 -0.1283 -0.1053 -0.1058
  674MOL0     C92927   9.706  11.201   4.439  0.2505  0.0633 -0.3766
  674MOL0     C92928   9.698  11.093   4.348 -0.5104 -0.2569  0.9287
  674MOL0     C92929   9.590  10.736   4.109  0.1175 -0.4191 -0.1135
  674MOL0     C92930   9.571  10.755   3.973 -0.0857 -1.1271 -0.3670
  674MOL0     C92931   9.590  10.658   3.881  0.9856 -0.3421 -0.1796
  674MOL0     C92932   9.626  10.535   3.928 -0.4349 -0.6146 -0.5452
  674MOL0     O92933   9.640  10.444   3.822 -0.1193  0.0831 -0.1297
  674MOL0     C92934   9.606  10.304   3.869  0.0143 -0.0931  0.5850
  674MOL0     C92935   9.728  10.227   3.880 -1.0491  0.8387 -0.1079
  674MOL0     C92936   9.688  10.085   3.925 -0.1106  0.8224 -0.2900
  674MOL0     C92937   9.674  10.051   4.081 -0.2185 -0.1067  0.6077
  674MOL0     C92938   9.570  10.140   4.143  1.3872  0.7536  0.2266
  674MOL0     C92939   9.506  10.209   4.215  0.8372 -0.4438  0.0408
  674MOL0     C92940   9.651  10.501   4.062 -0.1278  0.5533 -0.0915
  674MOL0     C92941   9.638  10.609   4.153 -0.5735  0.4275  0.5065
  674MOL0     C92942   9.673  10.584   4.297  0.3311  0.3427 -1.0833
  674MOL0     H92943   9.404  11.166   4.190 -0.6501  2.8271  0.4684
  674MOL0     H92944   9.411  11.344   4.346 -0.6924 -0.6347  0.2600
  674MOL0     H92945   9.777  11.371   4.631  1.2124  1.1304 -0.2575
  674MOL0     H92946   9.714  11.536   4.651  1.1858  2.7266 -2.6662
  674MOL0     H92947   9.870  11.412   4.433 -1.6146 -1.4136  0.1091
  674MOL0     H92948   9.766  11.550   4.394 -2.0922 -0.8005  0.9227
  674MOL0     H92949   9.898  11.709   4.548  0.5237  1.9300 -3.4978
  674MOL0     H92950   9.998  11.572   4.593 -0.3368 -2.1197  0.0675
  674MOL0     H92951  10.038  11.549   4.331 -1.1667 -0.6299 -0.0195
  674MOL0     H92952   9.945  11.693   4.324  0.2592  1.4306  1.2327
  674MOL0     H92953  10.216  11.684   4.493 -1.0560 -0.7925 -0.1184
  674MOL0     H92954  10.139  11.825   4.427  1.4119 -0.1638  0.2373
  674MOL0     H92955  10.254  11.586   4.262 -0.5423 -0.0035  0.5984
  674MOL0     H92956  10.173  11.726   4.203 -0.1158 -0.1573 -0.4024
  674MOL0     H92957  10.431  11.697   4.370 -2.5124  1.1880  2.1870
  674MOL0     H92958  10.375  11.857   4.334 -1.6530  0.4449 -2.9147
  674MOL0     H92959  10.423  11.783   4.074  0.2955 -1.4229 -0.5604
  674MOL0     H92960  10.546  11.821   4.191  1.1554 -3.7515  2.0904
  674MOL0     H92961  10.722  11.585   4.227 -1.9888 -0.9013  2.4238
  674MOL0     H92962  10.708  11.230   4.075 -0.5063 -0.9651 -0.3692
  674MOL0     H92963  10.821  11.334   4.173  0.7418  3.4078 -1.1166
  674MOL0     H92964  10.790  11.289   3.877  0.9733 -1.5971  0.2468
  674MOL0     H92965  10.854  11.443   3.929 -0.5403 -0.6533 -1.8960
  674MOL0     H92966  11.041  11.334   4.056 -0.6840  0.1616  0.2095
  674MOL0     H92967  10.968  11.173   4.019 -0.6930  1.6829  4.6907
  674MOL0     H92968  11.173  11.238   3.886  0.2431  0.1868 -0.5026
  674MOL0     H92969  11.035  11.201   3.780 -1.8962  1.8425 -0.4279
  674MOL0     H92970  11.089  11.636   3.700  3.0647  2.8111 -1.1272
  674MOL0     H92971  11.074  11.759   3.468  0.3233  0.8299 -3.1078
  674MOL0     H92972  11.228  11.767   3.384 -0.2942  1.4380 -0.7489
  674MOL0     H92973  11.222  11.805   3.560  0.0797 -4.0153  3.0660
  674MOL0     H92974  11.284  11.732   3.139  0.6964  0.1209  0.8698
  674MOL0     H92975  11.360  11.911   2.969  2.1666 -0.2087 -2.5925
  674MOL0     H92976  11.545  12.111   2.808  2.7360  2.1358 -0.4193
  674MOL0     H92977  11.475  12.103   2.969 -0.1971 -3.4385  1.5770
  674MOL0     H92978  11.632  12.293   3.002  1.6537  0.3335  0.3776
  674MOL0     H92979  11.705  12.157   3.065 -1.7328  0.2332  0.5379
  674MOL0     H92980  11.755  12.260   2.792 -2.7721 -1.0409 -0.4379
  674MOL0     H92981  11.844  12.121   2.861  0.7116  0.2939 -1.9355
  674MOL0     H92982  11.905  12.277   3.060 -1.3988  1.6492  0.1452
  674MOL0     H92983  11.850  12.397   2.948 -0.0704  0.2924  2.0589
  674MOL0     H92984  12.066  12.186   2.915  0.3591  0.0156 -2.5964
  674MOL0     H92985  12.023  12.301   2.788  2.8106  2.0589  0.1646
  674MOL0     H92986  12.131  12.347   3.071  1.4705 -3.0790 -0.2825
  674MOL0     H92987  12.083  12.483   2.973  2.2829  1.1623 -0.7867
  674MOL0     H92988  12.321  12.298   2.915 -1.0290 -0.9282 -5.2273
  674MOL0     H92989  12.323  12.474   2.944 -3.1196  3.1820 -1.0458
  674MOL0     H92990  12.184  12.497   2.728  0.7725  1.9064  0.2153
  674MOL0     H92991  12.239  12.331   2.694 -2.1440 -0.2646  0.0573
  674MOL0     H92992  11.764  11.812   3.067  0.3183  0.9923 -0.1608
  674MOL0     H92993  11.687  11.670   3.253 -0.2012  1.3510  1.7472
  674MOL0     H92994  11.343  11.294   3.445  1.0941  0.8148 -1.3027
  674MOL0     H92995  11.214  11.225   3.641 -0.9389  0.2495  0.8262
  674MOL0     H92996   9.800  11.223   4.489  1.4897  0.6465 -2.8015
  674MOL0     H92997   9.777  11.020   4.344 -1.0978 -0.8290 -1.2812
  674MOL0     H92998   9.524  10.851   3.957  0.8832  0.0308  2.9365
  674MOL0     H92999   9.571  10.676   3.775 -1.1831  1.0002  0.3692
  674MOL0     H93000   9.548  10.301   3.962 -1.1309 -0.3308 -0.1257
  674MOL0     H93001   9.545  10.258   3.792  1.4763  0.8868 -1.2601
  674MOL0     H93002   9.797  10.258   3.960 -0.1829  4.1815 -1.9630
  674MOL0     H93003   9.770  10.205   3.782 -1.9385 -5.1632  0.4561
  674MOL0     H93004   9.599  10.048   3.873  1.7958 -3.2045 -1.1080
  674MOL0     H93005   9.763  10.015   3.887  1.2022  2.0467 -0.0263
  674MOL0     H93006   9.769  10.064   4.134  0.7493  4.2618 -1.6396
  674MOL0     H93007   9.661   9.943   4.091  3.1807 -1.1253 -2.9267
  674MOL0     H93008   9.452  10.273   4.283  0.9102  0.6803 -0.9220
  674MOL0     H93009   9.677  10.401   4.095 -3.9509  0.1154  2.2639
  674MOL0     H93010   9.773  10.619   4.323 -1.3424  3.3339  2.1774
  674MOL0     H93011   9.601  10.640   4.357 -0.5668 -0.7674 -1.0850
  674MOL0     H93012   9.667  10.476   4.316 -3.0166  0.4827 -0.6141
  675MOL0     O93013   8.696   1.963   2.147 -0.5130 -0.4956  0.7890
  675MOL0     C93014   8.735   2.079   2.142 -0.0122  0.2575 -0.5362
  675MOL0     O93015   8.693   2.181   2.062 -0.1387 -0.0354 -0.0468
  675MOL0     C93016   8.570   2.174   1.994 -0.1413  0.7007 -0.5995
  675MOL0     C93017   8.465   2.077   2.006 -0.7771 -0.4376  0.1826
  675MOL0     C93018   8.362   2.078   1.909 -0.0325  0.2648 -0.2843
  675MOL0     C93019   8.358   2.171   1.801  1.2331  0.9003  0.4267
  675MOL0     O93020   8.246   2.175   1.715 -0.4568 -0.1751  0.1701
  675MOL0     C93021   8.267   2.218   1.576  0.3884  0.1772 -0.6183
  675MOL0     C93022   8.363   2.139   1.490 -0.4705 -0.5586 -0.5125
  675MOL0     C93023   8.361   1.984   1.527 -0.1277 -0.5192  0.5700
  675MOL0     C93024   8.227   1.914   1.490  0.7198 -0.0163  0.0822
  675MOL0     C93025   8.113   1.923   1.582  0.8770  0.8950 -0.1393
  675MOL0     C93026   8.036   1.793   1.569  0.0981 -0.3466 -0.1836
  675MOL0     C93027   8.093   1.673   1.646 -0.0463  0.2734  0.2661
  675MOL0     C93028   7.996   1.558   1.652  0.0468  0.6327 -0.4842
  675MOL0     N93029   8.040   1.436   1.733  0.2814  0.6545  0.9013
  675MOL0     C93030   8.164   1.384   1.704 -0.6190 -0.1859 -0.8330
  675MOL0     C93031   8.180   1.274   1.784 -0.4958  0.7818 -0.0152
  675MOL0     C93032   8.302   1.193   1.796  0.1422 -0.4802 -0.2086
  675MOL0     C93033   8.419   1.275   1.833 -0.9403 -0.6073 -0.2183
  675MOL0     C93034   8.533   1.192   1.871 -0.5921 -0.1005 -0.3849
  675MOL0     C93035   8.621   1.143   1.752 -0.2237  0.0723 -0.1103
  675MOL0     O93036   8.750   1.101   1.802  0.0768 -0.1646 -0.7946
  675MOL0     C93037   8.827   1.014   1.719  1.0869 -0.5290 -0.3310
  675MOL0     C93038   8.809   0.996   1.582 -0.9434 -0.5236  0.1556
  675MOL0     C93039   8.878   0.920   1.491  0.1811  0.0797  1.3889
  675MOL0     C93040   8.825   0.931   1.346 -0.0155 -0.8138 -0.7378
  675MOL0     C93041   8.988   0.849   1.537  0.5194  1.0893  0.4377
  675MOL0     C93042   9.089   0.800   1.447  0.4488 -0.8606  0.2969
  675MOL0     O93043   9.213   0.789   1.497 -0.4757  0.0149 -0.5249
  675MOL0     C93044   9.321   0.738   1.423  0.5948  0.1336  0.1111
  675MOL0     C93045   9.332   0.706   1.287  0.2080  0.1019 -0.2286
  675MOL0     C93046   9.451   0.681   1.234  0.1577 -0.3856  0.6715
  675MOL0     C93047   9.573   0.695   1.308 -0.6369 -1.0080  1.1670
  675MOL0     O93048   9.697   0.690   1.260 -0.1562 -0.0313 -0.0430
  675MOL0     C93049   9.736   0.751   1.135  0.8429 -0.0542  0.4649
  675MOL0     C93050   9.696   0.900   1.120  0.2988 -0.4998 -1.1750
  675MOL0     C93051   9.734   0.957   0.988  0.2617 -0.5304 -0.7051
  675MOL0     C93052   9.883   0.943   0.941 -0.6611 -0.3520 -0.2530
  675MOL0     C93053   9.978   1.017   1.031  0.0393  0.1994 -0.1006
  675MOL0     C93054  10.128   1.020   0.986  0.4033 -0.4936 -0.7701
  675MOL0     C93055  10.215   1.114   1.072 -1.0957 -0.0160 -0.1245
  675MOL0     C93056  10.345   1.155   1.008  0.2464  0.4622  0.1510
  675MOL0    Cl93057  10.457   1.243   1.101  0.1308  0.1181 -0.1549
  675MOL0     C93058   9.564   0.716   1.434 -0.1963  0.2004 -0.2113
  675MOL0     C93059   9.436   0.734   1.497 -0.5346  0.9370  0.2443
  675MOL0     O93060   9.059   0.774   1.332  0.2579 -0.4747  0.7598
  675MOL0     C93061   9.009   0.855   1.680 -0.9994 -1.0530 -0.1116
  675MOL0     C93062   8.935   0.939   1.766 -0.6244 -0.3991 -1.0926
  675MOL0     N93063   8.069   1.264   1.865  0.3212  0.5355 -0.5363
  675MOL0     N93064   7.987   1.363   1.834  0.1875  0.1583  0.0794
  675MOL0     C93065   8.458   2.260   1.793 -0.2184 -0.0642  0.8724
  675MOL0     C93066   8.554   2.271   1.897 -0.0509 -0.3444 -0.6474
  675MOL0     C93067   8.840   2.128   2.248 -0.1695 -0.2668  0.5480
  675MOL0     C93068   8.837   2.268   2.284  0.1787  0.2709  0.3327
  675MOL0     C93069   8.948   2.315   2.353  0.2862  0.2061  0.6997
  675MOL0     C93070   9.056   2.238   2.391 -0.1831  0.2151  0.0015
  675MOL0     O93071   9.165   2.288   2.457  0.3271 -0.4857  0.5115
  675MOL0     C93072   9.281   2.281   2.374 -0.7998  0.1290 -0.4039
  675MOL0     C93073   9.406   2.262   2.456 -0.6079 -0.3469 -0.1829
  675MOL0     C93074   9.414   2.116   2.526  0.0923  1.1743  1.5910
  675MOL0     C93075   9.540   2.089   2.620  0.3272 -1.0462 -0.0555
  675MOL0     C93076   9.664   2.085   2.549 -0.6661  0.1852 -0.9265
  675MOL0     C93077   9.765   2.081   2.479  1.1090 -0.8449  0.9952
  675MOL0     C93078   9.044   2.100   2.378 -0.5399 -0.3965  1.0510
  675MOL0     C93079   8.939   2.043   2.292  0.0340  0.7903 -0.0189
  675MOL0     C93080   8.960   1.901   2.249  0.3479 -1.0091  0.9584
  675MOL0     H93081   8.448   1.996   2.077 -0.0171  0.0578  0.9467
  675MOL0     H93082   8.278   2.011   1.925 -0.1163  0.6654  1.0936
  675MOL0     H93083   8.298   2.322   1.575  2.3426 -0.3642 -0.6258
  675MOL0     H93084   8.166   2.213   1.535  0.3835 -0.2309 -0.5694
  675MOL0     H93085   8.337   2.143   1.384  0.0991 -0.3294 -0.6483
  675MOL0     H93086   8.463   2.175   1.519 -0.7552  1.8485 -2.2849
  675MOL0     H93087   8.440   1.930   1.474 -0.4740 -0.2704 -0.2106
  675MOL0     H93088   8.386   1.966   1.632 -0.2680  1.2390  0.9297
  675MOL0     H93089   8.195   1.959   1.396 -1.4990 -1.4796  0.0728
  675MOL0     H93090   8.263   1.811   1.477  1.7374  0.4204 -0.7255
  675MOL0     H93091   8.053   2.006   1.543  1.1488  1.6281  0.9605
  675MOL0     H93092   8.136   1.933   1.688 -2.7442  1.5566  0.7202
  675MOL0     H93093   7.932   1.821   1.589 -0.2958 -0.4168 -1.9472
  675MOL0     H93094   8.042   1.776   1.461 -4.8166  0.4776 -0.8574
  675MOL0     H93095   8.124   1.691   1.750 -1.7741  0.3382  0.7895
  675MOL0     H93096   8.181   1.632   1.595  0.1076 -1.2473  1.6578
  675MOL0     H93097   7.894   1.587   1.678 -0.3759  2.7962 -4.0107
  675MOL0     H93098   7.973   1.517   1.554 -3.7417  2.7939 -0.6881
  675MOL0     H93099   8.242   1.427   1.642 -0.3146  3.0252  1.5090
  675MOL0     H93100   8.332   1.146   1.702  0.5399  0.4669 -0.5772
  675MOL0     H93101   8.278   1.121   1.874  2.8480  1.4277  2.6483
  675MOL0     H93102   8.456   1.332   1.747  0.3146 -1.6933 -0.4302
  675MOL0     H93103   8.396   1.346   1.913  3.2016  3.0666 -1.8577
  675MOL0     H93104   8.591   1.255   1.940  0.0452 -2.0423  0.9450
  675MOL0     H93105   8.498   1.107   1.930 -1.9844 -0.8414 -2.1976
  675MOL0     H93106   8.579   1.059   1.697  0.8572  2.1055 -4.4408
  675MOL0     H93107   8.633   1.218   1.673 -3.9086 -0.2001 -1.1370
  675MOL0     H93108   8.726   1.054   1.542 -0.1904  3.1496  3.3319
  675MOL0     H93109   8.805   0.832   1.304 -1.6716 -1.1540  0.7604
  675MOL0     H93110   8.897   1.000   1.301 -1.5490  2.1018  1.0060
  675MOL0     H93111   8.726   0.979   1.340  0.2906 -0.1840 -0.8482
  675MOL0     H93112   9.255   0.708   1.211 -0.6200  1.0127  0.6085
  675MOL0     H93113   9.464   0.663   1.127 -2.3552  0.3259  0.1887
  675MOL0     H93114   9.845   0.742   1.125  0.8203  0.4664 -0.2778
  675MOL0     H93115   9.708   0.698   1.044  3.1962 -0.8421  0.1280
  675MOL0     H93116   9.587   0.902   1.123  0.1054 -3.6047 -2.7423
  675MOL0     H93117   9.738   0.966   1.196  0.0958  0.4311 -1.8538
  675MOL0     H93118   9.710   1.064   0.992 -2.2518 -1.0536  0.4392
  675MOL0     H93119   9.663   0.911   0.919  1.3091 -2.8992 -0.3059
  675MOL0     H93120   9.894   0.989   0.843  2.1602 -0.6993 -0.1653
  675MOL0     H93121   9.906   0.839   0.919  3.1979  0.2387  0.2764
  675MOL0     H93122   9.949   1.121   1.050  2.7554  1.4570 -2.0627
  675MOL0     H93123   9.972   0.963   1.126 -2.5682  1.5668  0.5949
  675MOL0     H93124  10.133   1.056   0.883 -2.2488 -1.5706 -1.3597
  675MOL0     H93125  10.171   0.919   0.980 -2.4590 -2.0150  1.4248
  675MOL0     H93126  10.242   1.058   1.163 -0.3481 -0.0438 -0.3569
  675MOL0     H93127  10.151   1.194   1.111 -1.7704 -1.3290  1.5949
  675MOL0     H93128  10.314   1.217   0.923 -1.6482 -1.1137 -0.3963
  675MOL0     H93129  10.399   1.062   0.989  0.0456  0.2619  0.5318
  675MOL0     H93130   9.650   0.725   1.499 -0.3506  0.4064 -0.0321
  675MOL0     H93131   9.439   0.772   1.599 -0.2787 -1.3338  1.1325
  675MOL0     H93132   9.096   0.799   1.712  0.0568 -0.3154 -1.5220
  675MOL0     H93133   8.949   0.939   1.874  0.1215 -0.9857 -1.1837
  675MOL0     H93134   8.474   2.336   1.717  3.1558  0.9253  2.3853
  675MOL0     H93135   8.624   2.353   1.896 -0.4715  0.0737  1.0241
  675MOL0     H93136   8.753   2.324   2.246 -1.0944 -2.4105 -1.1306
  675MOL0     H93137   8.924   2.419   2.372 -3.3873 -0.7673  2.3029
  675MOL0     H93138   9.282   2.196   2.305  0.2724 -0.1962 -0.0083
  675MOL0     H93139   9.294   2.367   2.308 -0.6417  0.6368  0.2805
  675MOL0     H93140   9.410   2.337   2.535 -1.5077 -0.4866  0.0065
  675MOL0     H93141   9.482   2.281   2.380  1.9090  1.1224  2.4988
  675MOL0     H93142   9.324   2.110   2.588 -2.0735 -0.9734 -1.5073
  675MOL0     H93143   9.421   2.034   2.454 -1.5455  2.4358 -0.0907
  675MOL0     H93144   9.541   2.004   2.688  4.0892 -0.4334  0.8738
  675MOL0     H93145   9.542   2.175   2.689  1.6297 -0.4867 -0.7562
  675MOL0     H93146   9.848   2.091   2.412  0.5062  0.9636  0.4415
  675MOL0     H93147   9.136   2.047   2.401 -0.5226 -0.2700  1.2750
  675MOL0     H93148   8.962   1.886   2.141 -2.5203  0.1313  0.6795
  675MOL0     H93149   9.056   1.867   2.289  0.6280 -1.7322 -0.2773
  675MOL0     H93150   8.888   1.836   2.300 -1.1842  1.5611  2.2281
  676MOL0     O93151   4.925   5.963   8.476 -0.9673 -0.3835  0.3180
  676MOL0     C93152   5.016   5.907   8.532  0.4088  1.1097  0.2190
  676MOL0     O93153   5.128   5.970   8.573 -0.1493  0.2939  0.7345
  676MOL0     C93154   5.123   6.112   8.573 -0.0826 -0.5013  0.7007
  676MOL0     C93155   5.112   6.190   8.464  0.2698 -0.7857 -0.0227
  676MOL0     C93156   5.105   6.329   8.483 -0.4191 -0.1403 -0.1824
  676MOL0     C93157   5.093   6.386   8.606  0.0208  0.2468  1.1700
  676MOL0     O93158   5.061   6.522   8.597 -0.6682  0.3359  0.7178
  676MOL0     C93159   5.068   6.584   8.729  0.1438  0.0749  1.2679
  676MOL0     C93160   5.068   6.743   8.713 -0.0120 -0.6319 -0.2132
  676MOL0     C93161   5.002   6.788   8.577  0.2012 -0.2747  0.4921
  676MOL0     C93162   4.844   6.787   8.572 -0.2426  0.3889 -1.1611
  676MOL0     C93163   4.785   6.906   8.644 -0.7193 -0.4278  0.4721
  676MOL0     C93164   4.648   6.889   8.693  0.1224  0.0660 -0.1515
  676MOL0     C93165   4.597   7.019   8.757  0.5881  0.0869 -0.7530
  676MOL0     C93166   4.449   7.023   8.797  0.3248 -0.0249  0.4079
  676MOL0     N93167   4.348   7.039   8.697  0.9934 -0.3261  0.8326
  676MOL0     C93168   4.339   6.976   8.576 -0.1495  0.9675  0.2932
  676MOL0     C93169   4.270   7.051   8.489  0.0603 -0.7696 -0.0017
  676MOL0     C93170   4.221   7.013   8.352 -0.0633  0.9723  0.1879
  676MOL0     C93171   4.080   7.044   8.321 -0.5107  0.1135  0.4087
  676MOL0     C93172   3.974   6.957   8.375  0.7725 -0.7094  0.1817
  676MOL0     C93173   3.835   6.983   8.321  0.0507 -0.7996  1.2600
  676MOL0     O93174   3.737   6.919   8.402  0.0647 -0.2877  0.8333
  676MOL0     C93175   3.645   6.833   8.345  0.3084  0.7269 -0.7206
  676MOL0     C93176   3.555   6.793   8.437  0.9571 -0.1155  0.1426
  676MOL0     C93177   3.441   6.711   8.398 -1.0870  0.6407 -0.3277
  676MOL0     C93178   3.348   6.663   8.499 -0.5265  0.5420 -1.1096
  676MOL0     C93179   3.451   6.656   8.261  0.5897 -0.3150 -1.1727
  676MOL0     C93180   3.346   6.566   8.213 -0.0852 -0.0673 -0.1230
  676MOL0     O93181   3.316   6.575   8.077 -0.6463 -0.2764  0.5338
  676MOL0     C93182   3.221   6.498   8.016  0.1243 -1.1034 -0.5539
  676MOL0     C93183   3.200   6.364   8.042  0.0167  0.6539 -0.1925
  676MOL0     C93184   3.115   6.294   7.959 -0.1016  0.6889  0.0618
  676MOL0     C93185   3.050   6.347   7.848  0.1330 -0.4710 -0.6106
  676MOL0     O93186   2.961   6.277   7.771  0.4493 -0.2408 -0.0573
  676MOL0     C93187   2.868   6.354   7.689 -0.3435 -0.0570 -0.6383
  676MOL0     C93188   2.791   6.261   7.610 -0.5551 -0.1787  0.9703
  676MOL0     C93189   2.666   6.191   7.672 -0.1241 -0.0624  0.0875
  676MOL0     C93190   2.631   6.062   7.601 -0.2274  0.4906  1.0152
  676MOL0     C93191   2.587   5.959   7.698  0.9643 -0.7565 -0.0144
  676MOL0     C93192   2.521   5.852   7.622  0.4842  1.3261 -0.7299
  676MOL0     C93193   2.540   5.715   7.687  0.0794 -0.6241 -0.0720
  676MOL0     C93194   2.497   5.609   7.591 -0.4564 -0.0401  0.6726
  676MOL0    Cl93195   2.487   5.445   7.660 -0.3210 -0.1441  0.2632
  676MOL0     C93196   3.062   6.490   7.837  0.4561 -0.4941 -0.2288
  676MOL0     C93197   3.144   6.563   7.921 -1.1015 -0.5292  0.6396
  676MOL0     O93198   3.279   6.488   8.291 -0.3940 -0.4450 -0.3892
  676MOL0     C93199   3.560   6.683   8.179 -0.0645  0.6818  0.1417
  676MOL0     C93200   3.655   6.771   8.222  0.0545 -0.7999 -0.5327
  676MOL0     N93201   4.238   7.176   8.560  0.7915  0.8456 -0.3368
  676MOL0     N93202   4.287   7.160   8.681 -0.2435  0.1104 -0.3451
  676MOL0     C93203   5.108   6.307   8.726 -0.0036 -0.0349 -0.5638
  676MOL0     C93204   5.127   6.167   8.710 -1.0485 -1.7358 -0.4021
  676MOL0     C93205   5.008   5.767   8.579  0.0426  0.7567  0.9737
  676MOL0     C93206   5.134   5.702   8.602 -0.4306  0.3320 -1.7857
  676MOL0     C93207   5.145   5.568   8.633 -0.5080 -0.5339 -0.1353
  676MOL0     C93208   5.030   5.490   8.634 -0.5664  0.5218 -0.3538
  676MOL0     O93209   5.055   5.359   8.661  0.4125  0.4031  0.1608
  676MOL0     C93210   4.946   5.272   8.688 -0.6954 -0.1525  0.2473
  676MOL0     C93211   4.890   5.293   8.835  0.3689 -1.0462  0.8943
  676MOL0     C93212   4.771   5.204   8.856 -0.2143 -0.4567 -0.8082
  676MOL0     C93213   4.719   5.223   8.997 -1.1070  0.6782  0.3335
  676MOL0     C93214   4.816   5.242   9.107 -0.6514 -0.0263 -1.0083
  676MOL0     C93215   4.865   5.284   9.206 -0.5807  0.3539  0.7260
  676MOL0     C93216   4.907   5.544   8.601 -0.6980  0.1730 -0.0629
  676MOL0     C93217   4.895   5.679   8.570 -0.2095 -0.3955  0.5346
  676MOL0     C93218   4.755   5.745   8.565  0.6143 -0.3544 -0.4389
  676MOL0     H93219   5.104   6.136   8.370 -1.0211  1.0407 -1.0262
  676MOL0     H93220   5.095   6.387   8.393 -2.3650 -1.2554 -0.7355
  676MOL0     H93221   5.161   6.550   8.777  0.4676 -1.1780 -0.1850
  676MOL0     H93222   4.983   6.547   8.786  1.1758  1.1967  3.6897
  676MOL0     H93223   5.008   6.779   8.797  0.9758 -1.7339  1.0028
  676MOL0     H93224   5.170   6.783   8.724 -0.4977  0.0084  2.4695
  676MOL0     H93225   5.032   6.893   8.572  0.5194 -0.2249  2.5249
  676MOL0     H93226   5.041   6.733   8.492  0.1552  1.8564 -0.9691
  676MOL0     H93227   4.796   6.779   8.475 -2.7753  1.7908 -0.1145
  676MOL0     H93228   4.810   6.704   8.634  1.0311  1.0042  0.4735
  676MOL0     H93229   4.793   6.998   8.586  3.4853 -0.9588 -0.0875
  676MOL0     H93230   4.846   6.936   8.730 -2.3468  1.4124  1.0728
  676MOL0     H93231   4.582   6.875   8.607  0.4903  1.1757 -0.6322
  676MOL0     H93232   4.630   6.805   8.761 -3.7018 -0.0333 -1.0521
  676MOL0     H93233   4.616   7.109   8.697  0.8235  0.4026 -0.2171
  676MOL0     H93234   4.660   7.033   8.845  0.7734  0.0264 -0.8746
  676MOL0     H93235   4.428   6.934   8.857 -1.8634  0.8432  1.0193
  676MOL0     H93236   4.435   7.106   8.867 -0.2836 -1.3205  1.8760
  676MOL0     H93237   4.373   6.879   8.542 -1.2998  1.2837 -2.0074
  676MOL0     H93238   4.241   6.911   8.319 -0.4479  2.2297 -4.7983
  676MOL0     H93239   4.283   7.075   8.286  0.0987  0.6738  0.0615
  676MOL0     H93240   4.060   7.150   8.340  0.7962  0.3995  0.3215
  676MOL0     H93241   4.082   7.022   8.214 -0.5146 -0.4218  0.5168
  676MOL0     H93242   4.003   6.854   8.352 -1.9135 -1.3540 -0.7001
  676MOL0     H93243   3.961   6.965   8.483 -3.6908  2.7398 -0.3460
  676MOL0     H93244   3.821   7.090   8.340  1.8215 -0.4272  0.6151
  676MOL0     H93245   3.829   6.980   8.212 -2.0111 -2.4403  1.3579
  676MOL0     H93246   3.564   6.831   8.538  0.3445 -0.2917  0.2692
  676MOL0     H93247   3.246   6.691   8.469 -0.8711 -0.4975 -0.9530
  676MOL0     H93248   3.370   6.699   8.599 -0.4467 -4.4890  0.9696
  676MOL0     H93249   3.349   6.554   8.509  0.2368  0.7356  1.4276
  676MOL0     H93250   3.255   6.313   8.120  1.1023 -0.1656 -1.4667
  676MOL0     H93251   3.111   6.185   7.952  0.1194  0.7153 -0.4765
  676MOL0     H93252   2.796   6.413   7.747  0.7495  0.6574  0.0145
  676MOL0     H93253   2.921   6.410   7.612 -0.7082  0.7291 -0.3290
  676MOL0     H93254   2.759   6.303   7.514 -0.0393 -0.7992  0.5205
  676MOL0     H93255   2.864   6.186   7.577 -0.1022  0.3804  0.6935
  676MOL0     H93256   2.577   6.254   7.658  1.6487  1.9570 -3.4621
  676MOL0     H93257   2.689   6.170   7.777  0.1611 -2.9486 -0.4871
  676MOL0     H93258   2.722   6.019   7.558 -1.1383 -1.4418  0.8941
  676MOL0     H93259   2.565   6.075   7.515  0.1705  0.5455  0.7163
  676MOL0     H93260   2.675   5.925   7.752  2.8464  2.9332 -0.4704
  676MOL0     H93261   2.518   6.008   7.768  1.0538  3.0516 -2.3598
  676MOL0     H93262   2.572   5.833   7.527  1.0409 -1.4419  0.0318
  676MOL0     H93263   2.414   5.872   7.609  0.2571  1.7282  1.4166
  676MOL0     H93264   2.471   5.717   7.771 -0.1385  1.2635 -0.2454
  676MOL0     H93265   2.645   5.712   7.718  0.2941 -0.4524 -0.7692
  676MOL0     H93266   2.586   5.608   7.526 -0.3089  2.1811  0.7774
  676MOL0     H93267   2.402   5.645   7.552 -0.7607 -0.4515  1.0277
  676MOL0     H93268   3.004   6.546   7.765  2.5015  2.5512  0.3084
  676MOL0     H93269   3.167   6.669   7.910  1.7431 -1.1613 -0.2588
  676MOL0     H93270   3.576   6.643   8.079  2.1774  0.6133  0.4895
  676MOL0     H93271   3.745   6.798   8.169  1.7458 -0.8328  2.1242
  676MOL0     H93272   5.099   6.344   8.828  1.6544  0.9866 -0.7550
  676MOL0     H93273   5.140   6.111   8.802  2.5148  1.9268  1.6311
  676MOL0     H93274   5.224   5.762   8.597 -1.4945  2.0053 -1.6675
  676MOL0     H93275   5.248   5.542   8.654 -0.4205  0.0569  0.2112
  676MOL0     H93276   4.866   5.264   8.614 -1.8995  0.7756  1.4040
  676MOL0     H93277   4.993   5.174   8.674  0.3224  0.6779 -3.0302
  676MOL0     H93278   4.858   5.397   8.841  0.1807 -1.1459  1.7934
  676MOL0     H93279   4.966   5.286   8.913 -0.3828 -1.5349  1.6048
  676MOL0     H93280   4.698   5.233   8.779 -0.8947  0.9041  0.2978
  676MOL0     H93281   4.813   5.104   8.848 -1.5816 -1.4472  2.7698
  676MOL0     H93282   4.641   5.148   9.010  0.9243 -1.7832 -0.7014
  676MOL0     H93283   4.671   5.321   9.000 -2.1731  0.3981 -3.1012
  676MOL0     H93284   4.917   5.318   9.293 -1.3996  1.1527  0.9076
  676MOL0     H93285   4.820   5.481   8.613  0.7699 -2.1308 -0.8112
  676MOL0     H93286   4.683   5.688   8.626  0.3388  3.3835  3.1903
  676MOL0     H93287   4.756   5.845   8.609  1.2050 -2.3362  4.7738
  676MOL0     H93288   4.719   5.743   8.462 -1.1621 -1.1913  0.1599
  677MOL0     O93289   1.784   4.589   0.034 -0.2314 -0.8513 -0.5101
  677MOL0     C93290   1.725   4.686  -0.008 -0.1242  0.1268 -0.3596
  677MOL0     O93291   1.728   4.733  -0.140  0.8623  0.7205  0.2461
  677MOL0     C93292   1.822   4.703  -0.234 -0.9271  0.1103  0.5002
  677MOL0     C93293   1.956   4.690  -0.198 -0.2614  0.2158  0.0337
  677MOL0     C93294   2.059   4.655  -0.291  0.6377 -0.9584  0.5866
  677MOL0     C93295   2.031   4.630  -0.422  0.8830 -0.4733 -0.2184
  677MOL0     O93296   2.125   4.605  -0.523  0.8052 -0.8137  0.1998
  677MOL0     C93297   2.215   4.495  -0.490 -0.5821  0.1382  0.1145
  677MOL0     C93298   2.350   4.556  -0.440 -0.0438  0.7056  0.2750
  677MOL0     C93299   2.428   4.455  -0.359  0.8076  0.0479  1.0545
  677MOL0     C93300   2.541   4.508  -0.272  0.4395  1.1196  0.0411
  677MOL0     C93301   2.583   4.407  -0.172  0.4005  0.8538  0.8014
  677MOL0     C93302   2.701   4.453  -0.081 -0.7530  1.2384 -0.1357
  677MOL0     C93303   2.732   4.361   0.032 -0.9440  0.3121 -0.7392
  677MOL0     C93304   2.842   4.414   0.116 -0.0806  0.6231  0.5551
  677MOL0     N93305   2.898   4.310   0.203 -0.0049  0.7163  0.5474
  677MOL0     C93306   2.832   4.286   0.320 -0.6465  0.1975  0.2938
  677MOL0     C93307   2.923   4.205   0.386  0.1368 -0.1461  0.6180
  677MOL0     C93308   2.889   4.154   0.527  0.1660  0.2299 -0.3781
  677MOL0     C93309   2.825   4.020   0.530 -0.0344 -0.0348 -0.6681
  677MOL0     C93310   2.681   4.036   0.566  0.9121 -0.1625 -0.1471
  677MOL0     C93311   2.616   3.900   0.599 -0.5445  0.6434 -0.2883
  677MOL0     O93312   2.692   3.834   0.706 -0.5081 -0.2607  0.2847
  677MOL0     C93313   2.703   3.701   0.718  0.9207  0.1106  0.5262
  677MOL0     C93314   2.599   3.612   0.677 -0.0138 -0.3266 -0.1839
  677MOL0     C93315   2.613   3.473   0.674 -0.7840 -0.0148  0.4541
  677MOL0     C93316   2.492   3.385   0.627  0.4709 -0.1024  0.3218
  677MOL0     C93317   2.733   3.415   0.724 -0.1984 -0.3173 -0.7329
  677MOL0     C93318   2.770   3.267   0.710 -0.9972  0.1218 -1.6885
  677MOL0     O93319   2.899   3.234   0.745 -0.2529 -0.0345 -0.5130
  677MOL0     C93320   2.959   3.115   0.708  1.0693  0.2425  0.0976
  677MOL0     C93321   3.075   3.071   0.776 -0.9637  0.1561 -1.2086
  677MOL0     C93322   3.143   2.953   0.737  0.1188 -0.4136  0.1898
  677MOL0     C93323   3.112   2.890   0.618  0.3089  0.1422  0.4239
  677MOL0     O93324   3.188   2.787   0.573  0.5696  0.0848 -0.2385
  677MOL0     C93325   3.222   2.682   0.666  0.4481 -0.5324  0.6197
  677MOL0     C93326   3.243   2.558   0.583  0.4121  0.1009 -1.3146
  677MOL0     C93327   3.100   2.500   0.552 -0.1069  0.2071  0.5110
  677MOL0     C93328   3.046   2.425   0.664 -0.2575 -0.0657 -0.5727
  677MOL0     C93329   3.105   2.280   0.684 -0.9218  0.3045  0.5846
  677MOL0     C93330   3.068   2.178   0.578  0.2945  0.1392  0.1178
  677MOL0     C93331   3.087   2.035   0.623 -0.3374  0.1309  0.2467
  677MOL0     C93332   2.966   1.949   0.563 -0.4504 -0.5203  0.4607
  677MOL0    Cl93333   2.986   1.772   0.613  0.0139  0.3694  0.2095
  677MOL0     C93334   2.993   2.928   0.556  0.4537 -0.0178  0.0291
  677MOL0     C93335   2.913   3.037   0.599  0.3737 -0.7916  0.3688
  677MOL0     O93336   2.684   3.184   0.686  0.3456  0.6441  0.1060
  677MOL0     C93337   2.836   3.504   0.775  0.2616  0.3644 -0.2575
  677MOL0     C93338   2.817   3.634   0.777  0.1017  0.3376 -0.3000
  677MOL0     N93339   3.041   4.191   0.315 -0.8277 -0.4022  0.0941
  677MOL0     N93340   3.021   4.253   0.198 -1.0259  0.1190  0.5830
  677MOL0     C93341   1.898   4.650  -0.460 -0.3220 -1.3912  1.4825
  677MOL0     C93342   1.794   4.684  -0.367  0.3330  0.3071  1.6166
  677MOL0     C93343   1.626   4.752   0.082 -0.0240 -0.0902  1.4507
  677MOL0     C93344   1.550   4.852   0.019  1.0620 -0.1991  0.9139
  677MOL0     C93345   1.457   4.927   0.091  0.5994 -0.4648  0.0970
  677MOL0     C93346   1.437   4.893   0.229 -0.0312  0.2565  0.3369
  677MOL0     O93347   1.342   4.970   0.285 -0.2108 -0.4299 -0.0995
  677MOL0     C93348   1.347   4.999   0.429 -0.7471  0.0254 -0.3614
  677MOL0     C93349   1.319   5.156   0.450 -0.1457  0.7392  0.3037
  677MOL0     C93350   1.429   5.247   0.411  0.2495  0.6899  0.7889
  677MOL0     C93351   1.400   5.400   0.428  0.4227  0.0899 -0.0138
  677MOL0     C93352   1.526   5.471   0.445 -0.0060 -0.0671  0.1230
  677MOL0     C93353   1.622   5.537   0.452 -0.1642  0.6252 -1.1463
  677MOL0     C93354   1.527   4.794   0.288 -0.2761 -0.5294 -0.7409
  677MOL0     C93355   1.620   4.724   0.213 -0.6765 -0.7711  0.1994
  677MOL0     C93356   1.702   4.618   0.282 -1.0440 -0.0109  0.1756
  677MOL0     H93357   1.982   4.694  -0.093  1.0656  0.3951 -0.2922
  677MOL0     H93358   2.158   4.643  -0.249  1.2809  0.2610 -0.4797
  677MOL0     H93359   2.235   4.437  -0.580 -1.2590  1.1009 -0.6717
  677MOL0     H93360   2.162   4.431  -0.419 -1.3742 -1.1313 -1.5493
  677MOL0     H93361   2.410   4.589  -0.525 -0.1026  1.8014  0.6490
  677MOL0     H93362   2.335   4.652  -0.390 -0.8644  0.1316  1.1905
  677MOL0     H93363   2.358   4.406  -0.291 -0.5919  1.0935  0.4217
  677MOL0     H93364   2.461   4.376  -0.427  2.5530  1.3960  0.2364
  677MOL0     H93365   2.622   4.521  -0.345 -1.3714 -0.3082 -2.3620
  677MOL0     H93366   2.517   4.605  -0.225  3.2134  0.9454  2.0422
  677MOL0     H93367   2.613   4.317  -0.226 -0.3958  0.5266  0.8928
  677MOL0     H93368   2.500   4.379  -0.107 -1.2192  2.0076 -0.7102
  677MOL0     H93369   2.788   4.475  -0.143 -1.0537 -0.1820 -1.1159
  677MOL0     H93370   2.658   4.545  -0.040 -2.5386  0.6413 -0.5964
  677MOL0     H93371   2.754   4.263  -0.012 -2.7476 -0.8419  0.7935
  677MOL0     H93372   2.649   4.350   0.102  0.1950 -0.6563  0.5114
  677MOL0     H93373   2.921   4.451   0.050  0.2930  0.3062  0.8172
  677MOL0     H93374   2.801   4.499   0.171 -0.5415  1.1914 -0.6333
  677MOL0     H93375   2.730   4.312   0.347 -0.4126 -2.0059  4.1445
  677MOL0     H93376   2.827   4.233   0.569 -2.7254 -0.3061 -3.2378
  677MOL0     H93377   2.983   4.134   0.580 -1.1169 -1.5884  1.3792
  677MOL0     H93378   2.845   3.974   0.433  2.5919  0.9334 -0.6439
  677MOL0     H93379   2.883   3.957   0.597 -1.1364 -3.6545 -2.8460
  677MOL0     H93380   2.677   4.108   0.648  0.9595  1.4666 -1.5293
  677MOL0     H93381   2.624   4.077   0.482  3.0839  5.0249  0.5323
  677MOL0     H93382   2.509   3.896   0.620 -1.1472 -2.0827 -3.1370
  677MOL0     H93383   2.637   3.848   0.505  1.4229  1.6680 -0.4512
  677MOL0     H93384   2.520   3.670   0.631  2.2093  2.9625 -0.2208
  677MOL0     H93385   2.469   3.308   0.702 -0.3695  1.1827  1.4433
  677MOL0     H93386   2.523   3.336   0.534  0.3129  0.7352 -0.1846
  677MOL0     H93387   2.405   3.449   0.607 -1.5608 -2.2233  1.7666
  677MOL0     H93388   3.121   3.132   0.853  0.5801 -0.6684 -1.4319
  677MOL0     H93389   3.224   2.926   0.803  0.7054  4.9224  2.1735
  677MOL0     H93390   3.319   2.718   0.702 -0.9248  2.9734  1.2499
  677MOL0     H93391   3.148   2.665   0.745  0.4142  2.1379  1.2615
  677MOL0     H93392   3.295   2.594   0.494  3.9919  2.0674  1.2865
  677MOL0     H93393   3.307   2.484   0.634 -0.7452 -0.0653 -0.0357
  677MOL0     H93394   3.105   2.440   0.461  0.8654  3.8362 -2.0916
  677MOL0     H93395   3.031   2.578   0.518  0.3440  0.8354  0.9870
  677MOL0     H93396   2.938   2.412   0.652 -1.0802  0.5386  4.1632
  677MOL0     H93397   3.060   2.474   0.761  2.8804 -2.9112  0.6150
  677MOL0     H93398   3.214   2.280   0.680 -0.9015  2.3847  0.1845
  677MOL0     H93399   3.070   2.247   0.782 -4.2911  0.1391 -0.5185
  677MOL0     H93400   3.130   2.182   0.488 -2.0107 -1.8952 -1.7069
  677MOL0     H93401   2.963   2.202   0.557 -0.8624 -1.3969  3.3783
  677MOL0     H93402   3.082   2.026   0.732  0.4574  0.8871  0.3532
  677MOL0     H93403   3.181   1.993   0.587 -0.5157 -1.7900  1.8421
  677MOL0     H93404   2.951   1.977   0.459 -0.6645  0.4880  0.7538
  677MOL0     H93405   2.879   1.981   0.620  0.2170  2.3028  0.0512
  677MOL0     H93406   2.957   2.883   0.463 -0.4749 -2.8416  1.6379
  677MOL0     H93407   2.833   3.072   0.534  1.1278 -0.0880 -0.2175
  677MOL0     H93408   2.928   3.469   0.821  0.3382 -0.1405 -0.7792
  677MOL0     H93409   2.903   3.691   0.812 -0.4489  0.9678  0.0402
  677MOL0     H93410   1.868   4.639  -0.563  0.4495  1.1479  0.9194
  677MOL0     H93411   1.689   4.689  -0.394 -0.0385 -3.0617  1.9706
  677MOL0     H93412   1.559   4.877  -0.086 -1.0763  0.1169  0.7729
  677MOL0     H93413   1.398   4.999   0.036  1.7603 -0.4460 -1.1928
  677MOL0     H93414   1.281   4.927   0.479  0.1252  0.3661  1.3558
  677MOL0     H93415   1.444   4.971   0.470 -1.0926  1.5280  1.6497
  677MOL0     H93416   1.307   5.179   0.556  2.1003 -2.6306  1.4635
  677MOL0     H93417   1.221   5.176   0.406 -1.2803 -1.8701  1.4049
  677MOL0     H93418   1.518   5.222   0.471  1.7919  0.9952 -1.2507
  677MOL0     H93419   1.458   5.228   0.307 -1.0418 -0.3953  0.6074
  677MOL0     H93420   1.346   5.426   0.519  1.3413  0.6612  0.3867
  677MOL0     H93421   1.353   5.446   0.341 -1.1242  0.7946  1.1520
  677MOL0     H93422   1.711   5.597   0.456  3.2844 -3.9463  0.5245
  677MOL0     H93423   1.532   4.768   0.393 -1.4230  2.0263  0.0108
  677MOL0     H93424   1.809   4.637   0.281 -1.0266  0.1290  1.6181
  677MOL0     H93425   1.667   4.608   0.386 -1.4004  0.2107  0.0787
  677MOL0     H93426   1.683   4.523   0.231 -0.3631  0.9909 -2.0369
  678MOL0     O93427   1.119   1.101  10.224 -0.9856  0.1317 -0.0209
  678MOL0     C93428   1.076   1.084  10.113 -0.2872 -0.4662 -0.1060
  678MOL0     O93429   0.959   1.136  10.059  0.2228 -1.0959  0.0220
  678MOL0     C93430   0.883   1.244  10.108  0.3968  0.2468  0.7498
  678MOL0     C93431   0.919   1.330  10.211 -0.6469 -0.7584  0.9791
  678MOL0     C93432   0.851   1.453  10.234 -0.7684 -0.9489 -0.6747
  678MOL0     C93433   0.734   1.487  10.160 -1.0102  0.5601  0.0866
  678MOL0     O93434   0.671   1.600  10.200 -0.3689 -0.8237 -0.5962
  678MOL0     C93435   0.555   1.641  10.120  0.4540  0.0532 -0.3233
  678MOL0     C93436   0.509   1.772  10.171 -0.3935 -0.5577 -0.2226
  678MOL0     C93437   0.621   1.885  10.150 -0.4304  0.2509  0.2338
  678MOL0     C93438   0.609   2.011  10.232 -0.7935  1.5611 -0.0198
  678MOL0     C93439   0.745   2.073  10.262 -0.2442 -0.1805 -0.5652
  678MOL0     C93440   0.800   2.125  10.132  0.2342  1.2019 -0.0310
  678MOL0     C93441   0.956   2.146  10.150  0.4073  0.3952  0.7267
  678MOL0     C93442   1.035   2.210  10.031  0.0314 -0.0585 -0.9878
  678MOL0     N93443   0.991   2.351  10.004 -0.3803  0.4120  0.5649
  678MOL0     C93444   1.007   2.456  10.092  0.3103 -1.3485 -0.3704
  678MOL0     C93445   1.002   2.568  10.009  0.3830  0.7225  0.3646
  678MOL0     C93446   1.000   2.718  10.052 -0.1162  1.0645 -0.9020
  678MOL0     C93447   1.097   2.810   9.974  0.7321 -0.2859 -0.3097
  678MOL0     C93448   1.245   2.817  10.016  0.8569  0.8419 -0.0014
  678MOL0     C93449   1.343   2.886   9.908  0.0555  0.6063 -0.3063
  678MOL0     O93450   1.482   2.869   9.945 -0.2418  0.1432  0.8984
  678MOL0     C93451   1.541   2.952  10.033 -0.0451 -0.3519  0.5765
  678MOL0     C93452   1.607   2.901  10.147 -1.1597  0.2596  0.6389
  678MOL0     C93453   1.678   2.986  10.226  0.2634  0.8084  0.7744
  678MOL0     C93454   1.761   2.916  10.332  0.5577  0.5132 -0.3254
  678MOL0     C93455   1.688   3.120  10.200  0.0910  0.5243  0.1705
  678MOL0     C93456   1.773   3.215  10.272 -0.5589  0.6158 -0.5644
  678MOL0     O93457   1.815   3.317  10.190  0.3963  0.2062 -0.0227
  678MOL0     C93458   1.936   3.383  10.220  0.9615 -0.5153 -0.0468
  678MOL0     C93459   2.055   3.316  10.255  0.0601  0.4386  0.0910
  678MOL0     C93460   2.174   3.379  10.299 -0.0509 -0.6050  0.1066
  678MOL0     C93461   2.169   3.519  10.302  0.4404 -0.2536 -0.5072
  678MOL0     O93462   2.268   3.604  10.349 -0.0102  0.3003  0.5386
  678MOL0     C93463   2.402   3.550  10.349  0.6590  0.2181 -0.0383
  678MOL0     C93464   2.508   3.654  10.364  0.1128 -0.0662  1.0403
  678MOL0     C93465   2.500   3.730  10.498  0.3880 -0.4789 -0.6267
  678MOL0     C93466   2.613   3.816  10.531  0.3036 -0.1040  0.4140
  678MOL0     C93467   2.729   3.730  10.581  0.2469  0.4907 -0.3028
  678MOL0     C93468   2.698   3.653  10.723 -0.0647  0.3841  0.1508
  678MOL0     C93469   2.816   3.587  10.791 -0.1554 -0.8165 -0.2639
  678MOL0     C93470   2.802   3.551  10.938  0.0584  0.5518  0.6576
  678MOL0    Cl93471   2.648   3.477  10.964  0.1110  0.3873  0.0289
  678MOL0     C93472   2.045   3.590  10.263 -0.0629 -0.9042  0.3499
  678MOL0     C93473   1.931   3.522  10.228 -0.1672  0.2534  0.5654
  678MOL0     O93474   1.814   3.197  10.393 -0.6681 -0.4888  0.3512
  678MOL0     C93475   1.606   3.168  10.089 -0.6505  0.1473 -1.1160
  678MOL0     C93476   1.537   3.084  10.012  0.8211 -0.6309 -1.0433
  678MOL0     N93477   0.992   2.530   9.877  0.3875  0.1471  0.4447
  678MOL0     N93478   0.994   2.400   9.877  0.1986 -0.0209  0.1952
  678MOL0     C93479   0.694   1.398  10.063 -0.2309 -0.4723  0.3985
  678MOL0     C93480   0.762   1.280  10.039  0.8092  0.9787 -0.9086
  678MOL0     C93481   1.149   1.000  10.008  0.1240  0.9028 -0.2504
  678MOL0     C93482   1.080   0.954   9.897 -0.4790  0.5409 -0.3208
  678MOL0     C93483   1.138   0.885   9.793  0.5149  0.1733  1.5212
  678MOL0     C93484   1.274   0.858   9.788  0.4188  0.1560  0.3172
  678MOL0     O93485   1.337   0.807   9.681 -0.1431  0.0613  0.6292
  678MOL0     C93486   1.262   0.741   9.574  0.2570  0.0266 -0.1887
  678MOL0     C93487   1.354   0.686   9.470  0.2998  0.8118  0.1963
  678MOL0     C93488   1.465   0.586   9.511  0.1636 -0.4125 -0.7120
  678MOL0     C93489   1.541   0.532   9.386 -0.4152  0.0675  0.1170
  678MOL0     C93490   1.477   0.405   9.333 -0.9310 -0.2686 -0.4323
  678MOL0     C93491   1.439   0.306   9.272 -0.7929  0.4934 -0.4823
  678MOL0     C93492   1.342   0.882   9.909 -0.1616 -0.3251 -0.4048
  678MOL0     C93493   1.288   0.959  10.021 -0.3338 -0.3381  1.0215
  678MOL0     C93494   1.381   0.978  10.141  0.1037 -0.2447 -0.8722
  678MOL0     H93495   1.010   1.300  10.263  0.9053 -0.2044 -1.2955
  678MOL0     H93496   0.869   1.523  10.314 -1.5385 -0.3672 -0.9892
  678MOL0     H93497   0.478   1.563  10.114  2.2773 -2.3190  3.2182
  678MOL0     H93498   0.606   1.651  10.024  1.5264 -0.2011  0.1942
  678MOL0     H93499   0.422   1.807  10.114  0.5973  0.4443 -1.1632
  678MOL0     H93500   0.483   1.776  10.277  0.0884  0.7299 -0.1378
  678MOL0     H93501   0.720   1.842  10.168 -0.6494  0.0262  0.9400
  678MOL0     H93502   0.634   1.914  10.045  2.2995  1.3247  0.7866
  678MOL0     H93503   0.543   2.088  10.190 -0.7639  2.9179  2.2415
  678MOL0     H93504   0.544   1.985  10.316 -0.9976 -0.0794 -0.6633
  678MOL0     H93505   0.807   1.992  10.301 -2.4170 -2.1101 -0.9397
  678MOL0     H93506   0.734   2.170  10.312 -0.1593  2.7645 -5.5041
  678MOL0     H93507   0.795   2.046  10.056  1.2995  0.1907  0.9055
  678MOL0     H93508   0.747   2.213  10.095  2.3621  1.6212 -2.3116
  678MOL0     H93509   0.999   2.049  10.175 -0.9938 -1.2827 -2.7309
  678MOL0     H93510   0.981   2.207  10.237 -2.2280  1.7323  0.6450
  678MOL0     H93511   1.139   2.206  10.062  0.0668  0.4521 -1.0177
  678MOL0     H93512   1.017   2.152   9.940  2.2556  1.7869 -2.7489
  678MOL0     H93513   1.010   2.468  10.200 -1.3461 -0.7275 -0.3484
  678MOL0     H93514   1.004   2.744  10.158 -0.8518  2.9586 -1.3056
  678MOL0     H93515   0.896   2.750  10.039 -0.9450 -0.8705  0.4472
  678MOL0     H93516   1.098   2.780   9.868  1.6882  1.9233 -0.9829
  678MOL0     H93517   1.047   2.907   9.979  0.7534 -0.1676 -1.8718
  678MOL0     H93518   1.270   2.857  10.115  0.4825 -2.7792  1.7313
  678MOL0     H93519   1.263   2.710  10.034 -1.8539  0.5785  1.7927
  678MOL0     H93520   1.322   2.837   9.812 -0.9514  2.3018 -1.0080
  678MOL0     H93521   1.311   2.987   9.881 -0.8426  0.0590 -1.3466
  678MOL0     H93522   1.617   2.794  10.166 -1.9837 -0.6332 -3.0107
  678MOL0     H93523   1.867   2.932  10.309 -0.0472  2.5069 -1.9554
  678MOL0     H93524   1.735   2.810  10.341 -1.2708  1.0292  1.1161
  678MOL0     H93525   1.735   2.945  10.435  0.4370 -3.7582  1.0475
  678MOL0     H93526   2.074   3.209  10.252 -0.1106  0.4102 -0.0375
  678MOL0     H93527   2.257   3.310  10.315  1.7351  1.7829  1.9060
  678MOL0     H93528   2.413   3.486  10.437 -0.1313 -2.2697 -1.6757
  678MOL0     H93529   2.428   3.475  10.274  0.3288  0.2198 -0.1536
  678MOL0     H93530   2.605   3.605  10.347 -0.3558 -0.7422  0.2655
  678MOL0     H93531   2.494   3.730  10.287 -0.5897 -3.0184 -1.9519
  678MOL0     H93532   2.477   3.655  10.574 -0.5760 -0.4555 -0.8803
  678MOL0     H93533   2.418   3.802  10.494  0.4867 -0.3833 -1.0008
  678MOL0     H93534   2.579   3.888  10.605  0.3138  0.8690 -0.4965
  678MOL0     H93535   2.639   3.876  10.443 -0.9742 -0.1317 -0.0118
  678MOL0     H93536   2.743   3.650  10.508 -1.8985 -2.1959  2.0070
  678MOL0     H93537   2.808   3.806  10.592 -0.6918  1.3308  0.9193
  678MOL0     H93538   2.623   3.576  10.707  0.8502 -0.4075 -0.4721
  678MOL0     H93539   2.660   3.724  10.798  3.1557 -0.6263  3.0130
  678MOL0     H93540   2.902   3.655  10.791 -2.0518  1.7401  1.4962
  678MOL0     H93541   2.844   3.491  10.747 -2.2742 -1.0015 -1.3506
  678MOL0     H93542   2.811   3.637  11.004  1.5177  1.1430 -0.2462
  678MOL0     H93543   2.873   3.477  10.976  0.2987  1.1060  1.3145
  678MOL0     H93544   2.046   3.698  10.277 -0.8684 -0.9876  1.1597
  678MOL0     H93545   1.841   3.583  10.219  0.8307  1.6826 -0.0684
  678MOL0     H93546   1.602   3.272  10.057 -2.4806  0.2976 -0.5199
  678MOL0     H93547   1.485   3.113   9.922  0.2708 -2.4188 -1.3526
  678MOL0     H93548   0.595   1.401  10.018  0.5932  2.3913 -1.5229
  678MOL0     H93549   0.737   1.209   9.962  0.4159 -0.5603  0.5774
  678MOL0     H93550   0.977   0.979   9.874 -1.2012 -1.5631  0.4466
  678MOL0     H93551   1.067   0.850   9.719  2.1435 -1.3531  0.6069
  678MOL0     H93552   1.196   0.661   9.608 -2.7389  2.5559  0.3738
  678MOL0     H93553   1.190   0.814   9.538  0.5805  0.1594 -0.5755
  678MOL0     H93554   1.410   0.759   9.410 -0.8057  0.4073 -1.4056
  678MOL0     H93555   1.280   0.641   9.404 -0.6756 -1.7073  2.8044
  678MOL0     H93556   1.525   0.641   9.583 -1.3597 -0.8343  0.9587
  678MOL0     H93557   1.411   0.496   9.543 -0.0152 -1.0434 -2.6538
  678MOL0     H93558   1.645   0.505   9.404  0.0218  1.1057 -0.7887
  678MOL0     H93559   1.535   0.598   9.299  0.7964  1.2166  0.8635
  678MOL0     H93560   1.431   0.203   9.242  1.7256  0.5246 -1.4788
  678MOL0     H93561   1.444   0.846   9.911 -0.1848 -0.3964  1.0495
  678MOL0     H93562   1.328   0.953  10.234 -0.1919 -1.1750 -1.2817
  678MOL0     H93563   1.473   0.920  10.131 -0.5468 -1.8444  1.5051
  678MOL0     H93564   1.416   1.081  10.127  0.9126 -0.3039  0.5548
  679MOL0     O93565   1.348   9.471   3.215 -0.2262 -0.3144 -0.5971
  679MOL0     C93566   1.291   9.364   3.240 -0.2358  0.2141 -0.0285
  679MOL0     O93567   1.359   9.245   3.257 -0.5104 -0.9400  0.2931
  679MOL0     C93568   1.496   9.248   3.269  0.7947  0.2607  1.0327
  679MOL0     C93569   1.558   9.335   3.360 -1.7494 -0.8666  0.4249
  679MOL0     C93570   1.702   9.338   3.368  0.6253 -0.4284  0.2080
  679MOL0     C93571   1.773   9.248   3.288 -0.0682 -0.1244 -0.8832
  679MOL0     O93572   1.911   9.245   3.303 -0.3181 -0.6353  0.4261
  679MOL0     C93573   1.981   9.278   3.429 -0.2159 -0.3382 -0.6422
  679MOL0     C93574   1.978   9.149   3.524  0.0223  0.8561 -0.2006
  679MOL0     C93575   2.066   9.171   3.644  0.5376 -0.2240  0.6188
  679MOL0     C93576   2.211   9.112   3.654  1.3506  0.3014 -0.2144
  679MOL0     C93577   2.250   9.113   3.794 -0.0901  0.4078  0.3095
  679MOL0     C93578   2.404   9.073   3.801  0.2084 -0.6245 -0.1346
  679MOL0     C93579   2.459   9.098   3.947  0.1698 -0.4962 -0.9521
  679MOL0     C93580   2.521   9.230   3.961 -0.4059 -0.2426 -0.2113
  679MOL0     N93581   2.448   9.348   3.926 -1.4524  0.7630  1.1314
  679MOL0     C93582   2.482   9.440   3.824 -0.3712 -0.8792 -0.8217
  679MOL0     C93583   2.387   9.532   3.834  0.5450 -0.8847  0.4082
  679MOL0     C93584   2.373   9.665   3.751  0.8548 -0.7987 -0.5987
  679MOL0     C93585   2.347   9.661   3.604  0.5133  0.2116  0.3807
  679MOL0     C93586   2.198   9.621   3.577 -0.3893  0.4399 -0.2970
  679MOL0     C93587   2.177   9.637   3.424  0.0207 -0.8444  0.3221
  679MOL0     O93588   2.212   9.770   3.385  0.0211  0.5361  0.5230
  679MOL0     C93589   2.176   9.825   3.261 -0.2928  0.0929 -0.5432
  679MOL0     C93590   2.132   9.737   3.162  0.0708  0.7316  0.8719
  679MOL0     C93591   2.069   9.800   3.049 -0.9161  0.3768  0.2733
  679MOL0     C93592   2.013   9.703   2.952  0.8830  0.0391 -0.4407
  679MOL0     C93593   2.064   9.938   3.022  0.0626  0.8311 -0.1808
  679MOL0     C93594   2.017  10.015   2.892 -0.4222  0.8671 -0.2297
  679MOL0     O93595   1.964   9.942   2.793 -0.6611  1.0102 -0.1600
  679MOL0     C93596   1.944   9.981   2.660 -0.9259 -0.3131 -0.0144
  679MOL0     C93597   1.975  10.102   2.604  0.7050 -0.2792 -0.5638
  679MOL0     C93598   1.938  10.131   2.473  0.8584 -1.0214  0.0818
  679MOL0     C93599   1.878  10.026   2.391 -0.6714 -0.0004  0.8255
  679MOL0     O93600   1.861  10.057   2.265 -0.1283 -0.1598 -0.1754
  679MOL0     C93601   1.901   9.947   2.179 -0.9054  0.2194  0.2895
  679MOL0     C93602   1.953  10.001   2.041  0.4922  0.0358  0.9120
  679MOL0     C93603   1.843  10.059   1.948 -1.0895 -0.0701  0.5256
  679MOL0     C93604   1.911  10.158   1.853 -0.5733 -1.1854  0.8554
  679MOL0     C93605   2.013  10.079   1.764  0.4137 -0.2048 -0.9455
  679MOL0     C93606   2.066  10.169   1.649  0.0819  0.5011  0.2377
  679MOL0     C93607   2.156  10.068   1.567 -0.3508  0.6503  0.7437
  679MOL0     C93608   2.256  10.151   1.483  0.7118  0.4016  0.1126
  679MOL0    Cl93609   2.187  10.231   1.338  0.0750 -0.1702 -0.4699
  679MOL0     C93610   1.849   9.902   2.447  0.3972 -0.2395  0.0284
  679MOL0     C93611   1.877   9.888   2.583  0.3169  0.8629 -0.0695
  679MOL0     O93612   2.045  10.135   2.885  0.8547 -0.1399  0.2928
  679MOL0     C93613   2.120  10.019   3.126  0.6202  1.2396  0.2893
  679MOL0     C93614   2.166   9.968   3.245 -0.0338 -0.3496 -0.4971
  679MOL0     N93615   2.303   9.486   3.936 -0.6559 -0.4349 -0.3270
  679MOL0     N93616   2.342   9.382   3.986  0.1470  0.7492  0.4915
  679MOL0     C93617   1.715   9.167   3.193  0.2365 -0.2730  0.6340
  679MOL0     C93618   1.572   9.168   3.181 -0.4456 -0.8545 -0.0073
  679MOL0     C93619   1.140   9.354   3.252 -0.9155  0.0600  0.0138
  679MOL0     C93620   1.080   9.228   3.256  0.1114 -0.0361 -0.8481
  679MOL0     C93621   0.944   9.212   3.287  0.7439  0.0400 -0.0530
  679MOL0     C93622   0.861   9.328   3.285 -0.3108 -0.4103 -1.2600
  679MOL0     O93623   0.732   9.310   3.311 -0.2357  0.5316  1.2383
  679MOL0     C93624   0.670   9.182   3.296  0.2747  0.7604  0.3454
  679MOL0     C93625   0.612   9.152   3.423 -0.5594  0.7501 -0.0676
  679MOL0     C93626   0.726   9.141   3.528  0.0157  0.6230 -1.3117
  679MOL0     C93627   0.681   9.085   3.665  0.6946  0.6233 -0.1773
  679MOL0     C93628   0.565   9.164   3.715  0.9574  0.0299 -0.2132
  679MOL0     C93629   0.482   9.241   3.759  0.1584 -0.8548 -0.3254
  679MOL0     C93630   0.919   9.453   3.264 -0.1837 -0.8269 -0.2949
  679MOL0     C93631   1.060   9.469   3.250  0.1585  0.7264 -0.4936
  679MOL0     C93632   1.097   9.607   3.232  0.5157 -0.2173  0.6686
  679MOL0     H93633   1.494   9.402   3.418 -0.3465  0.7958  0.1451
  679MOL0     H93634   1.744   9.396   3.450  1.6039 -2.2659  1.0739
  679MOL0     H93635   1.948   9.361   3.492  0.2311 -0.0838 -0.7351
  679MOL0     H93636   2.085   9.299   3.401 -0.6501 -1.1196 -3.1274
  679MOL0     H93637   1.875   9.128   3.554 -0.0957  2.4670  0.5690
  679MOL0     H93638   1.997   9.055   3.470  0.9304  0.4810  0.7294
  679MOL0     H93639   2.063   9.278   3.666 -1.1190 -0.0343 -0.3643
  679MOL0     H93640   2.005   9.135   3.727  0.4326 -3.6434 -0.7719
  679MOL0     H93641   2.220   9.013   3.607  0.0101  1.0425 -2.1596
  679MOL0     H93642   2.291   9.170   3.607  3.6195  1.0533  4.0462
  679MOL0     H93643   2.191   9.049   3.861 -0.9830 -0.5502 -1.3115
  679MOL0     H93644   2.236   9.217   3.823 -2.3934  0.9511 -2.3340
  679MOL0     H93645   2.435   8.973   3.770 -0.7250 -0.4817 -1.6380
  679MOL0     H93646   2.464   9.134   3.733  0.3221  0.3870  0.8392
  679MOL0     H93647   2.535   9.024   3.972  0.3486  0.0486  0.1573
  679MOL0     H93648   2.383   9.084   4.025  1.7204 -0.0347  0.6923
  679MOL0     H93649   2.550   9.235   4.066  1.1826 -1.8742 -0.5249
  679MOL0     H93650   2.616   9.244   3.909  0.0925 -0.8751  0.4990
  679MOL0     H93651   2.562   9.430   3.751 -1.9589 -1.1265 -2.5983
  679MOL0     H93652   2.449   9.739   3.778 -0.6689  0.4828  0.3806
  679MOL0     H93653   2.291   9.723   3.796 -0.1525 -2.6303  0.0609
  679MOL0     H93654   2.367   9.758   3.557 -1.1173  0.2355 -0.3142
  679MOL0     H93655   2.408   9.586   3.552 -1.1144  0.9635 -2.8872
  679MOL0     H93656   2.176   9.518   3.606  3.1591 -0.5430 -0.5614
  679MOL0     H93657   2.140   9.704   3.616 -1.5355  1.5287 -3.8880
  679MOL0     H93658   2.250   9.576   3.369 -0.0837 -0.7538  0.0831
  679MOL0     H93659   2.076   9.610   3.391 -0.8827  2.5952 -0.1565
  679MOL0     H93660   2.144   9.630   3.161 -0.8234  0.5920 -1.4082
  679MOL0     H93661   2.092   9.656   2.893 -0.7328 -1.1585 -1.7426
  679MOL0     H93662   1.923   9.733   2.899  1.4760  0.7441 -1.0790
  679MOL0     H93663   1.988   9.617   3.014  1.7354 -0.5373 -0.8855
  679MOL0     H93664   2.024  10.177   2.665  0.9681 -0.8484 -0.0691
  679MOL0     H93665   1.943  10.231   2.431 -4.2161 -0.2673  0.5680
  679MOL0     H93666   1.984   9.893   2.224 -0.3013  0.4775 -0.4848
  679MOL0     H93667   1.815   9.885   2.150 -0.7099  0.9530 -2.1528
  679MOL0     H93668   2.052  10.047   2.039  0.4860  0.1097 -1.7506
  679MOL0     H93669   1.971   9.909   1.985 -2.1673  1.7218 -3.2507
  679MOL0     H93670   1.780  10.109   2.022 -1.9630 -0.6125  0.1647
  679MOL0     H93671   1.803   9.975   1.890 -0.5540 -1.0673  1.5664
  679MOL0     H93672   1.961  10.245   1.898 -1.1990 -2.4093  4.2462
  679MOL0     H93673   1.843  10.209   1.785  2.1838  1.4661 -0.1563
  679MOL0     H93674   2.096  10.045   1.826  1.0999  1.2685 -1.0068
  679MOL0     H93675   1.962   9.989   1.729 -1.6361  1.0377 -1.2908
  679MOL0     H93676   2.119  10.249   1.701  1.8344 -1.3259  1.4667
  679MOL0     H93677   1.978  10.200   1.593  0.2799  0.2127 -0.2398
  679MOL0     H93678   2.108   9.997   1.499  1.7807 -0.2255  0.0796
  679MOL0     H93679   2.219  10.014   1.638 -1.9875  0.3982  2.0560
  679MOL0     H93680   2.337  10.087   1.447 -1.4402 -0.7738 -3.1845
  679MOL0     H93681   2.305  10.220   1.553  0.3255 -0.2948  1.0882
  679MOL0     H93682   1.796   9.825   2.391 -2.4050 -0.1641  2.3230
  679MOL0     H93683   1.866   9.787   2.622  0.2997  1.5443  1.7956
  679MOL0     H93684   2.103  10.126   3.120 -0.8120  1.0806  1.0186
  679MOL0     H93685   2.195  10.039   3.322  3.5972 -0.6433 -1.4125
  679MOL0     H93686   1.779   9.098   3.140 -0.1515 -0.7241  0.7478
  679MOL0     H93687   1.529   9.098   3.111  2.1386 -2.3189 -0.2664
  679MOL0     H93688   1.127   9.131   3.242  1.3864  0.4978 -0.3694
  679MOL0     H93689   0.923   9.109   3.312 -0.1202  0.2881  0.2967
  679MOL0     H93690   0.595   9.198   3.218 -0.5910  1.9375  1.3676
  679MOL0     H93691   0.737   9.101   3.267  1.7915  1.9469  0.4383
  679MOL0     H93692   0.548   9.064   3.433 -1.4938  1.3150 -0.8853
  679MOL0     H93693   0.540   9.228   3.453 -2.2248  0.2168 -2.3399
  679MOL0     H93694   0.815   9.084   3.498  0.4551 -0.2245  1.3343
  679MOL0     H93695   0.751   9.245   3.550 -1.9533  0.8574  0.0327
  679MOL0     H93696   0.756   9.085   3.745 -1.1617  1.0273  1.6408
  679MOL0     H93697   0.654   8.980   3.652  0.2788  0.6678  0.2894
  679MOL0     H93698   0.416   9.312   3.804 -1.9067 -1.7216 -1.8529
  679MOL0     H93699   0.852   9.538   3.268  1.9296  0.9281 -0.4276
  679MOL0     H93700   1.192   9.621   3.284  1.1105 -3.7044  0.7680
  679MOL0     H93701   1.107   9.638   3.127 -0.0825  3.0933  1.4699
  679MOL0     H93702   1.012   9.669   3.262 -0.2231 -0.3382 -1.0192
  680MOL0     O93703  11.005   8.332  10.868  0.5095  0.2309  0.5475
  680MOL0     C93704  11.104   8.386  10.918  0.3832 -0.4650  0.2982
  680MOL0     O93705  11.231   8.365  10.883  0.8813  0.1951  0.0503
  680MOL0     C93706  11.288   8.260  10.816  0.2736  0.5068 -0.2171
  680MOL0     C93707  11.214   8.141  10.783 -0.4623  0.3605 -1.0275
  680MOL0     C93708  11.264   8.050  10.696 -0.4236 -0.1542  0.4443
  680MOL0     C93709  11.403   8.062  10.658 -0.2231  0.0116 -0.4292
  680MOL0     O93710  11.462   7.973  10.573  0.5529 -0.1048  0.0789
  680MOL0     C93711  11.485   7.841  10.615 -0.0502 -0.7085  0.2212
  680MOL0     C93712  11.532   7.759  10.499  0.9157 -0.3302 -0.5249
  680MOL0     C93713  11.685   7.756  10.487  0.0805  1.2750  0.7982
  680MOL0     C93714  11.743   7.714  10.353  0.2288  0.3578 -0.4415
  680MOL0     C93715  11.886   7.767  10.350  0.3988  1.2186 -0.0445
  680MOL0     C93716  11.955   7.722  10.228 -1.1321  0.5037  0.3053
  680MOL0     C93717  12.108   7.709  10.254  0.3403  0.8501 -0.1655
  680MOL0     C93718  12.196   7.668  10.132 -0.5903  0.3257 -0.5279
  680MOL0     N93719  12.171   7.526  10.106 -0.9420 -0.5636  0.2079
  680MOL0     C93720  12.229   7.411  10.148 -0.1693 -0.5060  0.1475
  680MOL0     C93721  12.189   7.317  10.061 -0.8359 -0.1927 -0.7608
  680MOL0     C93722  12.199   7.168  10.074  0.9815  0.5549 -0.4046
  680MOL0     C93723  12.260   7.109   9.940  0.4558 -1.5032 -0.1266
  680MOL0     C93724  12.345   6.981   9.969 -0.1497  0.3090 -0.5898
  680MOL0     C93725  12.394   6.912   9.839 -0.3546 -0.0212  0.2429
  680MOL0     O93726  12.513   6.844   9.878 -0.2066  0.2464 -0.0070
  680MOL0     C93727  12.633   6.907   9.842 -0.4379 -0.7053  0.5678
  680MOL0     C93728  12.663   7.038   9.798 -0.2907 -0.2434 -0.5600
  680MOL0     C93729  12.791   7.081   9.772 -0.7206  0.3519  0.8669
  680MOL0     C93730  12.804   7.213   9.711  0.1349 -0.0651 -0.2342
  680MOL0     C93731  12.899   6.982   9.791 -0.3990  0.0892 -1.1472
  680MOL0     C93732  13.036   7.019   9.757  1.0773 -0.9368 -0.3177
  680MOL0     O93733  13.113   6.902   9.733 -0.4265 -0.9011 -0.3234
  680MOL0     C93734  13.251   6.912   9.702 -0.8078 -0.6367  0.4341
  680MOL0     C93735  13.344   6.821   9.756  0.2001 -0.1549 -0.0419
  680MOL0     C93736  13.475   6.827   9.711  0.5903  0.7538 -0.3297
  680MOL0     C93737  13.512   6.925   9.623 -0.2799  0.1393 -0.5172
  680MOL0     O93738  13.652   6.927   9.587  0.0960 -0.9577 -0.3519
  680MOL0     C93739  13.718   7.034   9.517  0.3549  0.5086  0.3596
  680MOL0     C93740  13.735   7.165   9.589 -0.0898 -0.2486  0.5037
  680MOL0     C93741  13.821   7.280   9.517 -0.0391 -0.5086 -0.0420
  680MOL0     C93742  13.800   7.298   9.364 -0.6109  0.4291  0.4133
  680MOL0     C93743  13.859   7.431   9.306 -0.3506  0.9539  0.1008
  680MOL0     C93744  13.802   7.452   9.168  0.4015 -0.4622 -0.2633
  680MOL0     C93745  13.741   7.596   9.165 -1.0208  1.0341  0.5635
  680MOL0     C93746  13.834   7.718   9.154  0.1338  0.1121 -0.1698
  680MOL0    Cl93747  13.936   7.765   9.291 -0.6815 -0.4264  0.0201
  680MOL0     C93748  13.415   7.016   9.574 -0.7000  0.0053  0.0708
  680MOL0     C93749  13.291   7.004   9.609  0.4894 -0.3360  0.4532
  680MOL0     O93750  13.083   7.131   9.782 -1.0341  0.5005 -1.3872
  680MOL0     C93751  12.872   6.865   9.856  0.5775  0.3503 -0.5331
  680MOL0     C93752  12.740   6.824   9.876  0.4274  0.8165  0.8637
  680MOL0     N93753  12.109   7.373   9.963  0.7012  0.8272  0.0568
  680MOL0     N93754  12.096   7.487   9.994 -0.0039  0.3094 -0.9107
  680MOL0     C93755  11.483   8.163  10.709  0.4780  0.1787 -0.4340
  680MOL0     C93756  11.421   8.272  10.774 -0.4705 -0.1358 -1.3127
  680MOL0     C93757  11.071   8.498  11.014 -0.9554 -0.7078  0.6780
  680MOL0     C93758  10.940   8.497  11.058  0.5091 -0.4691 -0.1020
  680MOL0     C93759  10.887   8.605  11.127 -0.0251 -0.4537  0.8448
  680MOL0     C93760  10.962   8.715  11.158  2.0078  0.1137 -0.2787
  680MOL0     O93761  10.896   8.811  11.224 -0.1171  0.4969  0.1554
  680MOL0     C93762  10.952   8.941  11.241  0.6757 -0.4197 -0.2791
  680MOL0     C93763  10.977   9.006  11.095  1.0705  1.0991  0.0652
  680MOL0     C93764  10.845   9.002  11.000 -0.0616  0.6809 -0.5601
  680MOL0     C93765  10.866   9.074  10.868 -0.6328  0.4267 -0.6464
  680MOL0     C93766  10.907   9.212  10.888  0.5414  0.3086  0.8631
  680MOL0     C93767  10.932   9.334  10.893 -0.8261  0.3597 -0.0440
  680MOL0     C93768  11.097   8.713  11.129 -1.2228  0.4719 -0.1688
  680MOL0     C93769  11.151   8.606  11.057  0.2147  0.3728 -1.1221
  680MOL0     C93770  11.304   8.604  11.038  0.1273  0.0460  0.2507
  680MOL0     H93771  11.107   8.129  10.798 -0.6267  2.2224 -0.4567
  680MOL0     H93772  11.207   7.960  10.677  0.6317 -1.6861  3.6919
  680MOL0     H93773  11.390   7.797  10.646 -0.0237 -0.5567  0.5288
  680MOL0     H93774  11.550   7.840  10.703 -0.4700  1.7542  0.6540
  680MOL0     H93775  11.496   7.655  10.501 -0.0295 -0.0135  1.4856
  680MOL0     H93776  11.482   7.796  10.409  1.0082 -0.8640 -0.8025
  680MOL0     H93777  11.710   7.862  10.499 -4.2404  2.3346  2.5473
  680MOL0     H93778  11.731   7.696  10.567  1.7852  0.0008 -1.0470
  680MOL0     H93779  11.740   7.605  10.346  0.4563  0.3367 -0.2171
  680MOL0     H93780  11.689   7.756  10.267  1.2023 -0.9056 -1.7176
  680MOL0     H93781  11.944   7.731  10.435 -2.4821 -0.0215  1.5272
  680MOL0     H93782  11.880   7.876  10.345 -0.7228  1.1748  0.0025
  680MOL0     H93783  11.916   7.622  10.212 -3.7173  1.5454 -0.3783
  680MOL0     H93784  11.931   7.795  10.150 -1.5427  1.1446  1.0191
  680MOL0     H93785  12.126   7.631  10.328  1.8285 -0.7146 -2.0517
  680MOL0     H93786  12.143   7.805  10.294 -1.3689  1.8855 -1.0339
  680MOL0     H93787  12.176   7.738  10.050 -2.8961 -1.1755 -1.3637
  680MOL0     H93788  12.301   7.675  10.162 -1.2545  0.0192  2.1379
  680MOL0     H93789  12.287   7.415  10.240 -2.7480  2.3063  1.8475
  680MOL0     H93790  12.095   7.136  10.086  1.2500  0.1543  1.2323
  680MOL0     H93791  12.249   7.127  10.163  0.3634  1.2540  0.2827
  680MOL0     H93792  12.172   7.076   9.884  1.6339 -0.8351 -2.4657
  680MOL0     H93793  12.322   7.180   9.885  2.3347 -2.4714  0.6494
  680MOL0     H93794  12.425   7.021  10.033  0.1778  2.7081 -2.3646
  680MOL0     H93795  12.288   6.913  10.033  0.7076 -0.5976 -0.7523
  680MOL0     H93796  12.323   6.832   9.819 -2.3564  1.7541 -0.1101
  680MOL0     H93797  12.391   6.966   9.744 -2.5148  0.7618  0.7060
  680MOL0     H93798  12.583   7.106   9.769 -0.9363 -2.0628 -3.4773
  680MOL0     H93799  12.818   7.290   9.788 -0.5519 -0.5275  0.3568
  680MOL0     H93800  12.715   7.240   9.654 -0.4138  3.0247  1.8258
  680MOL0     H93801  12.882   7.223   9.635 -0.2974 -3.4898 -1.2815
  680MOL0     H93802  13.322   6.754   9.838  3.0950  3.5751  4.2566
  680MOL0     H93803  13.557   6.763   9.745  0.4808  0.4861 -0.5669
  680MOL0     H93804  13.823   7.002   9.508  1.0006  2.5327  0.1680
  680MOL0     H93805  13.675   7.048   9.417 -4.9177 -0.0540  2.2563
  680MOL0     H93806  13.636   7.208   9.610 -0.9920 -1.1839 -1.5169
  680MOL0     H93807  13.780   7.144   9.686 -0.9892 -2.3577  0.5078
  680MOL0     H93808  13.928   7.267   9.536 -0.5051 -2.4953  1.5178
  680MOL0     H93809  13.786   7.371   9.567  1.8553  0.5512 -0.5602
  680MOL0     H93810  13.691   7.302   9.353 -0.4154  0.3087 -2.0265
  680MOL0     H93811  13.840   7.220   9.298 -1.2500  0.8371 -0.4679
  680MOL0     H93812  13.842   7.513   9.376  1.0412  0.4064  1.1369
  680MOL0     H93813  13.963   7.399   9.299 -1.5710 -4.2101  1.4505
  680MOL0     H93814  13.722   7.378   9.158 -0.4586  0.3223  0.5966
  680MOL0     H93815  13.860   7.436   9.077  3.5659  0.4832  1.4579
  680MOL0     H93816  13.663   7.601   9.242  0.1103 -0.2532  1.8634
  680MOL0     H93817  13.680   7.590   9.074  0.1534 -2.1330 -0.1446
  680MOL0     H93818  13.774   7.807   9.133  2.9030  1.7562 -1.7189
  680MOL0     H93819  13.907   7.698   9.075 -0.5764 -1.9834 -0.3437
  680MOL0     H93820  13.434   7.083   9.490 -1.2672  0.0294 -0.0381
  680MOL0     H93821  13.223   7.071   9.558  0.9331 -2.5266 -3.4783
  680MOL0     H93822  12.957   6.810   9.895 -1.1446 -1.9338  0.2694
  680MOL0     H93823  12.735   6.720   9.906  5.4957 -0.2655 -1.0213
  680MOL0     H93824  11.589   8.186  10.706  0.5604 -0.0008  0.6204
  680MOL0     H93825  11.479   8.361  10.798 -0.4671 -0.2565 -0.8652
  680MOL0     H93826  10.876   8.411  11.041  2.5203 -2.0132 -0.1346
  680MOL0     H93827  10.782   8.607  11.153 -0.7168  0.1723 -1.6992
  680MOL0     H93828  10.883   9.002  11.300  0.9071  0.8614 -1.2871
  680MOL0     H93829  11.047   8.939  11.296  1.0317  0.0530 -0.8649
  680MOL0     H93830  11.054   8.943  11.051  4.6410  3.6892  2.0846
  680MOL0     H93831  11.007   9.109  11.113 -1.8308  1.7780  1.6250
  680MOL0     H93832  10.800   8.902  10.990 -0.1052  0.7224 -0.7867
  680MOL0     H93833  10.763   9.052  11.053 -1.8584 -1.5904 -1.0080
  680MOL0     H93834  10.778   9.081  10.803 -0.6101  2.9713 -0.4936
  680MOL0     H93835  10.943   9.020  10.813 -1.0265 -0.6329 -0.1920
  680MOL0     H93836  10.958   9.435  10.917  2.9736 -1.0302  2.5937
  680MOL0     H93837  11.161   8.795  11.159 -2.2202 -0.1899  4.5082
  680MOL0     H93838  11.352   8.690  11.085 -1.2248  0.6307  0.6232
  680MOL0     H93839  11.344   8.512  11.081  0.7686 -0.8270 -2.1009
  680MOL0     H93840  11.312   8.606  10.929 -2.0811  2.0248  0.0335
  681MOL0     O93841   0.949   1.083   3.864  0.6029  0.8920 -1.1697
  681MOL0     C93842   0.923   0.992   3.951 -0.0562  0.0878  0.3820
  681MOL0     O93843   0.814   0.991   4.029  0.4737  0.1386  0.2803
  681MOL0     C93844   0.793   1.106   4.105 -0.9760 -1.0327 -1.1465
  681MOL0     C93845   0.784   1.239   4.057  1.0033  0.6000 -0.0468
  681MOL0     C93846   0.745   1.342   4.148 -0.2431  0.0238  0.0895
  681MOL0     C93847   0.721   1.320   4.281  0.3174  0.0522  0.1533
  681MOL0     O93848   0.694   1.413   4.371  0.0711 -0.4288  0.1757
  681MOL0     C93849   0.693   1.560   4.335 -0.1607 -0.5751 -1.0062
  681MOL0     C93850   0.612   1.636   4.447  0.6239  0.4655  0.4716
  681MOL0     C93851   0.661   1.615   4.594 -1.3161  0.2591 -1.7905
  681MOL0     C93852   0.812   1.623   4.611 -0.6820  0.4218 -0.8386
  681MOL0     C93853   0.855   1.615   4.763  0.2336  0.1586  0.8151
  681MOL0     C93854   1.007   1.634   4.787 -0.1476  0.5095  0.6139
  681MOL0     C93855   1.055   1.574   4.923  0.2594  0.0961  1.3229
  681MOL0     C93856   1.140   1.690   4.985  0.2892 -0.0814  0.9932
  681MOL0     N93857   1.185   1.641   5.112 -0.0730  0.2095 -0.6383
  681MOL0     C93858   1.294   1.565   5.134  0.7740  0.9176 -0.3016
  681MOL0     C93859   1.262   1.516   5.257  0.4352  0.6916 -0.3294
  681MOL0     C93860   1.322   1.406   5.344 -0.3643  0.2458 -0.0199
  681MOL0     C93861   1.328   1.279   5.253 -0.0028 -0.7187 -0.4433
  681MOL0     C93862   1.423   1.170   5.292  0.0828 -0.1507 -0.9055
  681MOL0     C93863   1.421   1.056   5.192 -0.1906  0.0285  1.1769
  681MOL0     O93864   1.425   0.926   5.250 -0.0823 -0.1109 -0.5163
  681MOL0     C93865   1.352   0.827   5.201  1.3337 -0.0549  0.5998
  681MOL0     C93866   1.319   0.809   5.058 -0.0196  0.5121  1.0542
  681MOL0     C93867   1.252   0.704   5.005 -0.5929  0.5254  0.3170
  681MOL0     C93868   1.212   0.700   4.858  0.5613  0.7749  0.0516
  681MOL0     C93869   1.216   0.606   5.094 -0.2796 -0.1870  0.2478
  681MOL0     C93870   1.125   0.499   5.069  0.3775 -0.3190  0.4081
  681MOL0     O93871   0.996   0.527   5.078 -0.4280  0.2773 -0.6219
  681MOL0     C93872   0.913   0.426   5.125 -0.7505  0.3679 -0.7301
  681MOL0     C93873   0.953   0.305   5.207  0.5464 -0.4602  0.2626
  681MOL0     C93874   0.865   0.202   5.237 -0.2184 -0.2372 -0.0490
  681MOL0     C93875   0.731   0.210   5.196 -0.4039  0.1312 -0.2305
  681MOL0     O93876   0.643   0.116   5.227  0.8711 -0.0126  0.2131
  681MOL0     C93877   0.682   0.002   5.296 -0.9597 -0.2321  1.0179
  681MOL0     C93878   0.565  -0.075   5.325  0.8383  0.3791  0.1784
  681MOL0     C93879   0.590  -0.182   5.436  0.2517 -0.6758 -0.9053
  681MOL0     C93880   0.485  -0.300   5.422  0.5239 -0.5595 -0.6390
  681MOL0     C93881   0.426  -0.343   5.555  0.2647 -0.5621 -1.1213
  681MOL0     C93882   0.315  -0.458   5.572  0.7184 -0.3380  0.1875
  681MOL0     C93883   0.182  -0.405   5.530 -0.4787 -0.8350 -0.4896
  681MOL0     C93884   0.062  -0.489   5.574  0.2895  1.0990 -0.4973
  681MOL0    Cl93885   0.019  -0.471   5.752  0.4670 -0.0298 -0.1150
  681MOL0     C93886   0.684   0.324   5.126 -0.4070 -0.9048 -0.0437
  681MOL0     C93887   0.778   0.427   5.084  0.5625  0.5443 -0.3141
  681MOL0     O93888   1.175   0.397   5.033  0.6128  1.1183  0.2223
  681MOL0     C93889   1.239   0.614   5.231  0.3492 -0.3689  0.2605
  681MOL0     C93890   1.304   0.724   5.291 -0.2329  0.9110  0.6602
  681MOL0     N93891   1.167   1.584   5.320  1.0847  0.1317  0.1156
  681MOL0     N93892   1.114   1.654   5.226  0.5112 -0.3865  0.0373
  681MOL0     C93893   0.726   1.193   4.324 -0.7948  1.2688  0.8892
  681MOL0     C93894   0.771   1.087   4.240  0.0459 -0.9438  0.7221
  681MOL0     C93895   0.995   0.864   3.925  0.4533  0.4128 -0.4599
  681MOL0     C93896   1.087   0.862   3.823 -0.2235  0.9233 -1.0430
  681MOL0     C93897   1.178   0.762   3.797 -0.0134 -0.6301 -0.2162
  681MOL0     C93898   1.191   0.657   3.877  0.4103  0.0423 -0.2094
  681MOL0     O93899   1.282   0.565   3.835  0.2900 -0.0190  0.6269
  681MOL0     C93900   1.329   0.460   3.917 -0.8925 -0.3063  0.0187
  681MOL0     C93901   1.244   0.334   3.907  0.2929  1.0577 -0.0357
  681MOL0     C93902   1.291   0.208   3.989 -0.1250 -0.0774 -0.1528
  681MOL0     C93903   1.214   0.084   3.948  0.1836  0.2473  0.2455
  681MOL0     C93904   1.227  -0.010   4.053  0.5300  0.4394  0.6607
  681MOL0     C93905   1.256  -0.089   4.136 -0.6004  0.7891  0.1238
  681MOL0     C93906   1.102   0.641   3.984 -0.1028 -0.7894 -0.2675
  681MOL0     C93907   1.001   0.745   4.012  0.3526  1.0037  1.5665
  681MOL0     C93908   0.916   0.713   4.133  0.1987 -0.4119 -0.5367
  681MOL0     H93909   0.776   1.249   3.949 -1.4365 -4.6365 -0.6496
  681MOL0     H93910   0.735   1.434   4.093 -1.1618  0.5334  1.0606
  681MOL0     H93911   0.646   1.592   4.242  4.4449  2.5535 -2.5937
  681MOL0     H93912   0.796   1.597   4.333 -1.2612  2.7971 -1.3378
  681MOL0     H93913   0.614   1.740   4.415 -0.4189  0.6992  1.1010
  681MOL0     H93914   0.506   1.607   4.445  0.6916  0.2509 -1.2060
  681MOL0     H93915   0.618   1.702   4.644  0.9490  0.9412 -0.8746
  681MOL0     H93916   0.622   1.521   4.634  1.7293 -1.2002 -1.9612
  681MOL0     H93917   0.857   1.528   4.581  3.8449  1.6934  1.0882
  681MOL0     H93918   0.854   1.710   4.562 -0.9540  0.2582 -1.3672
  681MOL0     H93919   0.820   1.516   4.795 -2.6561  1.0777  0.7848
  681MOL0     H93920   0.797   1.682   4.827 -1.4501  0.1080 -0.5721
  681MOL0     H93921   1.059   1.573   4.712  0.6196  0.5387  1.1081
  681MOL0     H93922   1.040   1.738   4.775  0.2898  0.2971 -0.1110
  681MOL0     H93923   1.107   1.480   4.902 -2.6652 -1.6404  1.2163
  681MOL0     H93924   0.968   1.563   4.989 -1.4942  0.0113 -0.8497
  681MOL0     H93925   1.225   1.721   4.923 -0.3733 -1.1282 -0.5182
  681MOL0     H93926   1.077   1.776   5.009 -0.5981 -0.3497 -0.2467
  681MOL0     H93927   1.374   1.535   5.067  3.6237  0.5891  3.0188
  681MOL0     H93928   1.265   1.395   5.437 -0.7785 -0.3451 -0.3329
  681MOL0     H93929   1.424   1.429   5.375  0.5795 -2.8075 -0.5306
  681MOL0     H93930   1.230   1.235   5.232 -0.4606 -0.1931  0.5388
  681MOL0     H93931   1.365   1.320   5.158 -3.0551  1.2229 -0.9409
  681MOL0     H93932   1.524   1.212   5.287  0.3021 -0.2960  1.3165
  681MOL0     H93933   1.398   1.139   5.394  2.5731 -2.8570 -0.9831
  681MOL0     H93934   1.321   1.051   5.149  1.0791 -0.5300 -1.9425
  681MOL0     H93935   1.509   1.071   5.129 -0.8202  0.1041  0.3069
  681MOL0     H93936   1.359   0.892   5.000  2.0265 -1.2757 -0.2675
  681MOL0     H93937   1.224   0.598   4.821  1.4703  0.8556  0.0914
  681MOL0     H93938   1.264   0.774   4.796 -0.5576  1.3144 -0.2720
  681MOL0     H93939   1.106   0.723   4.841  0.7159  0.4759 -1.4574
  681MOL0     H93940   1.054   0.298   5.244  0.4239 -2.3089  0.3246
  681MOL0     H93941   0.904   0.118   5.294  0.9552  1.2909  1.4712
  681MOL0     H93942   0.758  -0.066   5.256  1.0904  1.0654  2.4854
  681MOL0     H93943   0.726   0.040   5.389  2.4162  0.5779 -0.7369
  681MOL0     H93944   0.481  -0.007   5.340  0.4470 -0.3470  1.4346
  681MOL0     H93945   0.533  -0.120   5.231 -0.7086  0.8777  0.4427
  681MOL0     H93946   0.591  -0.138   5.536  0.0216  2.4356 -2.1620
  681MOL0     H93947   0.688  -0.227   5.415  0.9854  0.4552  0.0036
  681MOL0     H93948   0.521  -0.374   5.350 -1.2927  0.7036 -2.9752
  681MOL0     H93949   0.400  -0.263   5.363  0.9673 -0.4068 -1.1922
  681MOL0     H93950   0.516  -0.379   5.606  0.8406  2.1041 -0.1065
  681MOL0     H93951   0.395  -0.250   5.601 -0.8614 -1.4906  0.0512
  681MOL0     H93952   0.310  -0.487   5.677  2.1326 -0.3422  0.2731
  681MOL0     H93953   0.344  -0.549   5.518 -1.0852 -2.2941  2.3177
  681MOL0     H93954   0.174  -0.397   5.421 -0.5302  0.2939 -0.4232
  681MOL0     H93955   0.165  -0.305   5.572 -0.9056  0.5149 -3.5440
  681MOL0     H93956   0.077  -0.594   5.546  1.3785  0.6999  1.4540
  681MOL0     H93957  -0.028  -0.469   5.514 -0.6301 -2.0216 -0.3347
  681MOL0     H93958   0.578   0.331   5.105 -0.8703  1.9342  2.4770
  681MOL0     H93959   0.746   0.499   5.009 -1.8167 -0.7134 -0.6181
  681MOL0     H93960   1.184   0.547   5.297  3.6923 -1.6155  2.0007
  681MOL0     H93961   1.317   0.752   5.395  3.4039 -0.6127  0.7670
  681MOL0     H93962   0.701   1.160   4.424 -2.2651 -0.6611 -0.0458
  681MOL0     H93963   0.760   0.987   4.279  0.6698 -1.0917  0.5320
  681MOL0     H93964   1.083   0.944   3.752 -2.0468  1.1437 -0.7347
  681MOL0     H93965   1.246   0.776   3.713  0.8852 -2.8787  0.0719
  681MOL0     H93966   1.424   0.435   3.869 -0.5920  1.4237 -0.3308
  681MOL0     H93967   1.345   0.501   4.016 -1.9402  2.1224 -0.7530
  681MOL0     H93968   1.244   0.293   3.805  1.4413  0.9882 -0.0112
  681MOL0     H93969   1.140   0.354   3.935  0.4493 -2.3613  3.9703
  681MOL0     H93970   1.396   0.189   3.963  0.0027 -0.8546  0.8778
  681MOL0     H93971   1.283   0.222   4.097 -1.4649 -1.0667 -0.0936
  681MOL0     H93972   1.249   0.045   3.852  0.5321 -2.1629  1.2956
  681MOL0     H93973   1.110   0.114   3.934  0.0157  0.3972  1.7014
  681MOL0     H93974   1.277  -0.176   4.196  0.3415  1.4578  0.7961
  681MOL0     H93975   1.113   0.552   4.046  1.9930  0.1934  0.8663
  681MOL0     H93976   0.825   0.771   4.147  0.6517  0.3134 -0.5290
  681MOL0     H93977   0.884   0.609   4.125 -2.1546  0.3978 -2.4540
  681MOL0     H93978   0.971   0.732   4.226 -0.1154 -0.1832 -0.3961
  682MOL0     O93979   1.867   5.334  11.574 -0.1873  0.2290  0.1787
  682MOL0     C93980   1.769   5.267  11.534 -1.0865  0.0936  0.2991
  682MOL0     O93981   1.713   5.165  11.602  0.7478 -0.0569 -0.1459
  682MOL0     C93982   1.765   5.125  11.722  0.1227 -0.1400 -0.1955
  682MOL0     C93983   1.726   5.195  11.830  0.3213 -0.5496 -0.3639
  682MOL0     C93984   1.771   5.155  11.959 -0.3211 -0.8399 -0.2188
  682MOL0     C93985   1.851   5.041  11.970  1.2591  0.3362 -0.6617
  682MOL0     O93986   1.888   5.001  12.098 -0.4646 -0.4721  0.3220
  682MOL0     C93987   1.792   4.923  12.171  0.9326  0.3950  0.3493
  682MOL0     C93988   1.836   4.895  12.317 -0.4799 -0.1227 -0.0123
  682MOL0     C93989   1.759   4.790  12.393 -0.7639 -0.8946  0.4690
  682MOL0     C93990   1.603   4.805  12.388 -0.1356 -1.1594  0.4862
  682MOL0     C93991   1.558   4.953  12.426  0.1188  1.1784  0.1046
  682MOL0     C93992   1.402   4.959  12.432  1.2247 -0.3389 -0.2262
  682MOL0     C93993   1.330   4.915  12.577 -1.0079 -0.3293  0.6326
  682MOL0     C93994   1.354   4.773  12.600  0.4944 -0.0314  0.3316
  682MOL0     N93995   1.286   4.675  12.501 -0.6210 -0.2538 -0.5538
  682MOL0     C93996   1.318   4.552  12.465 -1.2300 -0.3308  0.1028
  682MOL0     C93997   1.225   4.508  12.379 -0.5708  0.3354  0.6138
  682MOL0     C93998   1.223   4.378  12.309  0.8217 -0.2474  0.2607
  682MOL0     C93999   1.158   4.269  12.392  0.6845 -0.9845 -0.2891
  682MOL0     C94000   1.185   4.131  12.342 -0.7514  0.1605 -0.9083
  682MOL0     C94001   1.318   4.081  12.392  0.1628 -0.4154  0.2305
  682MOL0     O94002   1.354   4.108  12.528 -1.0039  0.4529 -1.3561
  682MOL0     C94003   1.398   3.996  12.597  0.4797  0.0271  0.0523
  682MOL0     C94004   1.317   3.936  12.693  0.2185 -0.0565  0.1642
  682MOL0     C94005   1.344   3.811  12.748 -0.0416 -0.3275 -0.5225
  682MOL0     C94006   1.241   3.758  12.845 -0.5023  0.7199 -0.4161
  682MOL0     C94007   1.467   3.743  12.723 -0.5645  0.6143 -0.0698
  682MOL0     C94008   1.499   3.612  12.777  0.1673 -1.4346 -0.4837
  682MOL0     O94009   1.504   3.621  12.909 -0.5891 -0.3056 -0.5070
  682MOL0     C94010   1.557   3.507  12.971 -0.3719 -0.6073  0.1977
  682MOL0     C94011   1.482   3.442  13.066 -0.1387 -0.0181 -0.6980
  682MOL0     C94012   1.545   3.344  13.143 -0.0234 -0.9177 -0.9304
  682MOL0     C94013   1.668   3.295  13.123 -0.3007 -0.0066  1.3502
  682MOL0     O94014   1.731   3.201  13.201 -0.5407 -0.0841  0.5973
  682MOL0     C94015   1.660   3.131  13.300 -0.5190 -0.5597 -0.0871
  682MOL0     C94016   1.725   2.998  13.326  0.0271 -0.3471  0.2682
  682MOL0     C94017   1.768   2.923  13.203  0.5974  0.1035 -0.8484
  682MOL0     C94018   1.631   2.864  13.143 -0.3264  0.4261  1.1057
  682MOL0     C94019   1.648   2.770  13.019 -0.2865  0.6776  0.6738
  682MOL0     C94020   1.749   2.665  13.045  0.2729  0.8382  0.1594
  682MOL0     C94021   1.781   2.582  12.911 -0.0648  0.6498  0.5156
  682MOL0     C94022   1.798   2.429  12.944 -0.0278  0.7625 -0.0914
  682MOL0    Cl94023   1.647   2.379  13.011 -0.1954 -0.3622 -0.4795
  682MOL0     C94024   1.739   3.360  13.022 -1.3162  0.6499 -0.0644
  682MOL0     C94025   1.685   3.462  12.948  0.3948 -0.9449  0.9466
  682MOL0     O94026   1.523   3.516  12.706  0.5034  0.2659  0.4906
  682MOL0     C94027   1.553   3.813  12.643  0.4172  0.5950  1.0366
  682MOL0     C94028   1.518   3.934  12.572 -0.1302  1.2680  0.2007
  682MOL0     N94029   1.126   4.609  12.362 -0.5727 -0.7829  0.0320
  682MOL0     N94030   1.173   4.705  12.445  0.8772 -0.2207  0.5338
  682MOL0     C94031   1.906   4.984  11.855  0.6898  0.7652  0.1135
  682MOL0     C94032   1.856   5.014  11.728 -0.0613  0.3400 -0.7815
  682MOL0     C94033   1.691   5.315  11.416 -0.9829 -0.2958  0.2709
  682MOL0     C94034   1.551   5.293  11.419 -0.2395  1.0487  0.1736
  682MOL0     C94035   1.468   5.349  11.328 -0.4233 -1.1039 -0.1797
  682MOL0     C94036   1.519   5.429  11.222  0.7992  0.2424  0.3127
  682MOL0     O94037   1.460   5.501  11.118  0.3290 -0.3642 -0.5588
  682MOL0     C94038   1.322   5.487  11.100  0.1731  0.5576  0.2693
  682MOL0     C94039   1.278   5.607  11.013  0.2682 -0.3116 -0.2308
  682MOL0     C94040   1.133   5.612  10.972  0.6723  0.3619  0.0479
  682MOL0     C94041   1.077   5.502  10.879 -1.2539  0.0391  0.7459
  682MOL0     C94042   1.118   5.525  10.740 -0.1046 -0.4277 -0.1226
  682MOL0     C94043   1.136   5.536  10.621 -1.2976 -0.6067  0.0016
  682MOL0     C94044   1.649   5.446  11.220  0.4583 -0.8820 -0.1674
  682MOL0     C94045   1.744   5.394  11.308 -0.0768 -0.4459  0.4160
  682MOL0     C94046   1.891   5.429  11.285 -0.2391  0.3695  0.2341
  682MOL0     H94047   1.656   5.278  11.829 -0.2873 -1.0437  0.0363
  682MOL0     H94048   1.747   5.206  12.052 -2.6568  0.5053 -1.4565
  682MOL0     H94049   1.758   4.832  12.122 -1.2292  0.6162  1.3098
  682MOL0     H94050   1.706   4.990  12.166 -1.6241 -2.6516  0.5610
  682MOL0     H94051   1.944   4.877  12.316  0.3363  3.3224  3.3411
  682MOL0     H94052   1.812   4.983  12.377 -3.0452 -1.3889  0.9653
  682MOL0     H94053   1.803   4.698  12.355  0.9260 -0.1021  0.4221
  682MOL0     H94054   1.792   4.795  12.497 -0.0050  0.3912  0.1895
  682MOL0     H94055   1.562   4.792  12.288  0.2916  4.4279 -0.7341
  682MOL0     H94056   1.564   4.728  12.456  0.7444 -0.4760  1.8168
  682MOL0     H94057   1.583   5.029  12.351  3.8334  1.2002  1.1750
  682MOL0     H94058   1.600   4.990  12.520 -1.1252  1.1832  0.6895
  682MOL0     H94059   1.371   5.063  12.418  0.4130 -0.3602  1.2102
  682MOL0     H94060   1.361   4.893  12.355 -0.7471  0.6851 -0.1220
  682MOL0     H94061   1.222   4.933  12.582 -1.5444 -2.7721 -0.6628
  682MOL0     H94062   1.378   4.967  12.660  2.8345  1.5165 -2.4214
  682MOL0     H94063   1.459   4.753  12.619  0.8457  0.7284 -0.7183
  682MOL0     H94064   1.312   4.736  12.694 -0.6009 -0.2390 -0.2197
  682MOL0     H94065   1.405   4.501  12.505  0.7385  3.2182  0.8599
  682MOL0     H94066   1.326   4.353  12.281  1.1222  3.3000 -2.3958
  682MOL0     H94067   1.167   4.395  12.217 -0.6042  2.0926  1.4821
  682MOL0     H94068   1.201   4.285  12.491 -1.9999 -0.6322  0.9016
  682MOL0     H94069   1.051   4.286  12.402  0.6970  0.2561 -1.8194
  682MOL0     H94070   1.114   4.060  12.385  0.1189  0.2996  0.8294
  682MOL0     H94071   1.182   4.130  12.232 -1.7781 -0.2270 -0.8871
  682MOL0     H94072   1.324   3.974  12.371 -0.6562 -0.5483  0.6252
  682MOL0     H94073   1.393   4.137  12.336 -0.5517  1.8504  1.4191
  682MOL0     H94074   1.216   3.976  12.700 -0.2878 -1.3773  0.7578
  682MOL0     H94075   1.186   3.672  12.804 -0.6845  0.7565 -0.2485
  682MOL0     H94076   1.162   3.831  12.865 -1.6262 -0.0844 -1.6651
  682MOL0     H94077   1.279   3.731  12.943  1.4299  0.3248 -1.2403
  682MOL0     H94078   1.375   3.462  13.063 -0.0733  0.3277 -0.7453
  682MOL0     H94079   1.489   3.311  13.230  2.5567 -0.1020  1.1540
  682MOL0     H94080   1.646   3.181  13.396 -0.8525  0.7866 -0.8131
  682MOL0     H94081   1.559   3.122  13.258 -1.2071  2.4408  0.6741
  682MOL0     H94082   1.815   3.027  13.382 -2.1927  2.6728  2.6271
  682MOL0     H94083   1.659   2.934  13.385  0.1112 -0.9240 -0.2541
  682MOL0     H94084   1.837   2.851  13.245  0.0338 -2.5792 -4.0646
  682MOL0     H94085   1.816   2.988  13.129 -0.3885  3.2044  1.0500
  682MOL0     H94086   1.568   2.947  13.108  0.9949  2.0935  2.5000
  682MOL0     H94087   1.587   2.794  13.214  1.3822 -1.3934  0.4658
  682MOL0     H94088   1.548   2.728  13.002  0.2850 -0.8465  0.9365
  682MOL0     H94089   1.669   2.830  12.930  0.9703 -0.7805 -0.0538
  682MOL0     H94090   1.715   2.600  13.126  0.2326 -2.2487 -2.1690
  682MOL0     H94091   1.841   2.719  13.072  1.9791 -0.8544 -1.9675
  682MOL0     H94092   1.872   2.620  12.865  0.0723  1.3430  1.3410
  682MOL0     H94093   1.705   2.593  12.834  1.9288  0.4529 -1.5881
  682MOL0     H94094   1.869   2.416  13.027  0.2578  2.0730 -0.0962
  682MOL0     H94095   1.832   2.371  12.859 -1.9211  0.8877 -0.9830
  682MOL0     H94096   1.841   3.327  13.011 -1.0350 -0.0418  3.4696
  682MOL0     H94097   1.754   3.496  12.871  0.0348 -2.5322 -0.1116
  682MOL0     H94098   1.654   3.776  12.626  0.0507  0.5766 -1.5663
  682MOL0     H94099   1.593   3.973  12.504  2.1313 -1.2846  1.0479
  682MOL0     H94100   1.973   4.900  11.873  0.3691  0.9728  2.7934
  682MOL0     H94101   1.892   4.972  11.634 -0.4520  2.1223 -1.7837
  682MOL0     H94102   1.523   5.221  11.494 -0.2822 -1.8835 -2.4472
  682MOL0     H94103   1.369   5.310  11.349  0.2679 -2.5992  0.3881
  682MOL0     H94104   1.289   5.396  11.048  1.8471  0.0504  0.0420
  682MOL0     H94105   1.267   5.500  11.193 -3.0966 -2.8311 -0.9340
  682MOL0     H94106   1.343   5.603  10.926  0.4972  0.1761 -0.0893
  682MOL0     H94107   1.302   5.701  11.064 -0.6509 -0.6462  0.8634
  682MOL0     H94108   1.070   5.597  11.060 -1.3436  1.4475 -1.1219
  682MOL0     H94109   1.113   5.709  10.926 -0.5971 -0.6240 -1.5597
  682MOL0     H94110   0.969   5.504  10.893 -1.7222  0.7113 -2.3908
  682MOL0     H94111   1.125   5.404  10.894  2.7188  1.8792  1.3099
  682MOL0     H94112   1.153   5.536  10.515 -1.0104 -3.0424 -0.0148
  682MOL0     H94113   1.689   5.505  11.139 -1.5437 -0.1847 -0.7042
  682MOL0     H94114   1.937   5.493  11.360 -0.6735 -0.3632  1.1476
  682MOL0     H94115   1.948   5.335  11.285  1.3156  1.2680  1.4887
  682MOL0     H94116   1.916   5.467  11.185 -1.0541  2.9816  0.9686
  683MOL0     O94117  10.251   2.472  10.801  0.1295 -0.2188 -0.5170
  683MOL0     C94118  10.137   2.467  10.759 -0.1958 -0.1931  0.5433
  683MOL0     O94119  10.037   2.416  10.829  0.0382 -0.5198  0.2351
  683MOL0     C94120  10.018   2.432  10.967  0.4378  0.2048  0.3420
  683MOL0     C94121   9.906   2.364  11.023 -0.0370  0.8067  0.5543
  683MOL0     C94122   9.875   2.373  11.158 -0.2070  0.1182  0.9116
  683MOL0     C94123   9.955   2.450  11.237 -0.0946 -0.2850 -0.6477
  683MOL0     O94124   9.921   2.450  11.364 -0.2152  0.8756 -0.1068
  683MOL0     C94125   9.952   2.557  11.454 -0.7199 -0.2297 -0.9103
  683MOL0     C94126   9.844   2.576  11.558  0.9626  0.1939 -0.1051
  683MOL0     C94127   9.714   2.614  11.495  1.2899  0.6791  0.2641
  683MOL0     C94128   9.698   2.760  11.456  0.0440  0.6034  0.6087
  683MOL0     C94129   9.547   2.805  11.440 -0.2148  0.0551  0.1299
  683MOL0     C94130   9.549   2.956  11.439  0.3999 -1.0484 -0.2460
  683MOL0     C94131   9.412   3.026  11.388  1.5176  0.3482  0.0120
  683MOL0     C94132   9.284   2.981  11.470  0.2955  0.6110  0.1042
  683MOL0     N94133   9.163   3.038  11.413  0.1647 -0.0883 -0.4985
  683MOL0     C94134   9.117   3.163  11.439  0.2555 -0.2377  0.6967
  683MOL0     C94135   8.997   3.175  11.374  0.6805 -0.6777  0.4738
  683MOL0     C94136   8.891   3.280  11.358  0.8522  0.2244 -0.6148
  683MOL0     C94137   8.937   3.407  11.432 -1.4314 -0.3969  0.1205
  683MOL0     C94138   8.817   3.486  11.477 -0.1440  0.3307 -0.1082
  683MOL0     C94139   8.870   3.592  11.577  0.3799  0.3341  0.2267
  683MOL0     O94140   8.770   3.692  11.594  0.7576 -1.0072  0.1936
  683MOL0     C94141   8.661   3.682  11.689 -0.8928 -0.8049  0.5071
  683MOL0     C94142   8.652   3.582  11.783 -0.0391  0.2462  0.0125
  683MOL0     C94143   8.542   3.576  11.865  0.1726 -0.3713  0.0688
  683MOL0     C94144   8.519   3.436  11.935 -0.2474  0.7719  0.2260
  683MOL0     C94145   8.458   3.693  11.879  0.2183  0.1751 -0.4924
  683MOL0     C94146   8.355   3.707  11.990 -0.4749 -0.6607  0.1146
  683MOL0     O94147   8.293   3.830  11.993 -0.2734  0.1998  0.0065
  683MOL0     C94148   8.249   3.866  12.112 -0.9720 -1.2603  0.2514
  683MOL0     C94149   8.334   3.891  12.224  0.1521 -0.6648 -1.0126
  683MOL0     C94150   8.280   3.916  12.350  0.7531 -0.0611  0.2799
  683MOL0     C94151   8.138   3.941  12.368 -0.1847  0.3960 -0.1711
  683MOL0     O94152   8.062   3.982  12.479 -0.9544  0.2964 -0.1153
  683MOL0     C94153   8.116   3.941  12.605 -0.0429  0.7253 -0.6563
  683MOL0     C94154   8.047   3.807  12.648 -0.6063 -0.2645 -0.3051
  683MOL0     C94155   8.145   3.685  12.617  0.0998  0.3802 -0.4374
  683MOL0     C94156   8.077   3.558  12.577 -0.8789  0.8099 -0.0838
  683MOL0     C94157   8.161   3.430  12.571 -0.5270 -0.1249 -0.7981
  683MOL0     C94158   8.194   3.362  12.709  0.4838 -0.3794  0.1153
  683MOL0     C94159   8.247   3.216  12.685  0.5427  0.1343  0.8190
  683MOL0     C94160   8.296   3.132  12.804 -0.2872  0.0381  0.0953
  683MOL0    Cl94161   8.383   3.251  12.922  0.1250  0.2082  0.5876
  683MOL0     C94162   8.060   3.934  12.258  0.3167 -0.2684 -0.6166
  683MOL0     C94163   8.110   3.889  12.136 -1.3812  0.2690  0.7890
  683MOL0     O94164   8.348   3.621  12.081 -0.1956 -1.3180  0.2048
  683MOL0     C94165   8.485   3.798  11.789 -0.1363  0.7359 -0.4280
  683MOL0     C94166   8.580   3.793  11.691 -0.2503  0.5363 -0.2637
  683MOL0     N94167   8.991   3.060  11.297  0.0234  0.0366  0.5716
  683MOL0     N94168   9.085   2.984  11.317  0.0846 -0.6016 -0.8221
  683MOL0     C94169  10.069   2.517  11.183  0.0262  0.3512  0.1958
  683MOL0     C94170  10.102   2.508  11.051 -0.1505 -0.3419  0.1788
  683MOL0     C94171  10.122   2.470  10.611  0.2165 -0.4289 -0.1136
  683MOL0     C94172   9.995   2.427  10.562 -1.0710 -0.1224  1.0958
  683MOL0     C94173   9.969   2.404  10.432 -0.1787  0.4625 -0.2094
  683MOL0     C94174  10.062   2.439  10.337  0.5921 -0.2204 -0.0757
  683MOL0     O94175  10.046   2.430  10.197  0.2936  0.3794 -0.3968
  683MOL0     C94176   9.913   2.430  10.150 -0.9852 -0.2634 -0.8137
  683MOL0     C94177   9.912   2.416  10.001  0.0933 -0.1194  0.9774
  683MOL0     C94178   9.937   2.273   9.950 -0.6544  0.1306  0.2081
  683MOL0     C94179  10.037   2.177  10.022  0.5573 -0.6766  0.1525
  683MOL0     C94180  10.054   2.058   9.925  0.3433 -0.0212 -0.6713
  683MOL0     C94181  10.063   1.977   9.838 -0.5276 -0.4586 -0.2611
  683MOL0     C94182  10.187   2.489  10.377  0.0180 -0.1720  1.4279
  683MOL0     C94183  10.226   2.498  10.511 -0.2961 -0.1800 -0.5344
  683MOL0     C94184  10.369   2.533  10.539  0.4338  0.9212 -0.4815
  683MOL0     H94185   9.852   2.289  10.966  0.5646 -0.6853  1.8882
  683MOL0     H94186   9.785   2.329  11.200 -1.7435  1.6983 -0.5522
  683MOL0     H94187   9.961   2.653  11.401  2.1787  2.5686  3.9528
  683MOL0     H94188  10.049   2.542  11.503 -0.2432  0.2532 -1.6886
  683MOL0     H94189   9.831   2.481  11.610  0.8567  0.7327  0.8929
  683MOL0     H94190   9.869   2.653  11.632  1.2835 -0.3499  0.3626
  683MOL0     H94191   9.695   2.542  11.414 -0.2029 -2.0520  2.8345
  683MOL0     H94192   9.632   2.588  11.563 -1.2093 -1.9400 -3.3533
  683MOL0     H94193   9.736   2.820  11.540 -1.5241  0.3377  1.5411
  683MOL0     H94194   9.758   2.769  11.365  1.4913  0.9788  1.5608
  683MOL0     H94195   9.480   2.769  11.518  0.8602 -0.1201  1.0060
  683MOL0     H94196   9.501   2.780  11.344 -4.5775  2.9042  1.2047
  683MOL0     H94197   9.552   2.994  11.541  1.8586  0.9016 -0.9333
  683MOL0     H94198   9.634   2.985  11.375  0.5012 -0.9095 -0.0503
  683MOL0     H94199   9.396   3.006  11.282  0.9817 -2.0618  0.5050
  683MOL0     H94200   9.426   3.135  11.392 -1.7619  0.8694  0.2983
  683MOL0     H94201   9.281   2.872  11.470  0.4001  0.5343  3.1915
  683MOL0     H94202   9.300   3.011  11.574 -3.7771 -2.5051  1.9231
  683MOL0     H94203   9.167   3.235  11.503 -3.2962  1.3733  1.9677
  683MOL0     H94204   8.794   3.245  11.393  1.2291 -1.3100 -1.0245
  683MOL0     H94205   8.888   3.306  11.251  0.0021  0.3941 -0.5588
  683MOL0     H94206   9.001   3.379  11.516 -0.0663  0.1176 -0.7085
  683MOL0     H94207   9.002   3.466  11.366 -0.1191 -1.7062  0.1931
  683MOL0     H94208   8.781   3.553  11.398 -2.3457  0.4603  0.9303
  683MOL0     H94209   8.733   3.432  11.521  0.0586  1.5042  1.8033
  683MOL0     H94210   8.900   3.554  11.675  1.5014  1.5534  0.3759
  683MOL0     H94211   8.942   3.649  11.518  0.0717 -0.1530 -0.6314
  683MOL0     H94212   8.725   3.502  11.768 -1.8191 -1.7815  1.5039
  683MOL0     H94213   8.411   3.419  11.938 -0.2690  1.0230  0.9752
  683MOL0     H94214   8.566   3.443  12.033  0.9436 -2.3336 -0.0189
  683MOL0     H94215   8.575   3.368  11.870 -0.6795 -0.3922  1.0410
  683MOL0     H94216   8.442   3.892  12.227  0.2078 -2.5352 -1.4236
  683MOL0     H94217   8.345   3.927  12.436 -0.6497  0.3492  1.3235
  683MOL0     H94218   8.224   3.928  12.604  0.1816  2.4939 -0.9177
  683MOL0     H94219   8.095   4.010  12.687  0.1108 -2.1577  1.9903
  683MOL0     H94220   8.030   3.806  12.756 -0.1151 -1.4632 -0.2231
  683MOL0     H94221   7.949   3.777  12.612 -2.0432  2.5985  0.9010
  683MOL0     H94222   8.197   3.667  12.711  0.5490 -1.1294 -0.9485
  683MOL0     H94223   8.225   3.694  12.543  1.5647  0.4302  1.1053
  683MOL0     H94224   8.030   3.586  12.482 -0.8854 -0.9871 -0.6357
  683MOL0     H94225   7.988   3.538  12.637 -0.7725 -0.8387 -0.4257
  683MOL0     H94226   8.101   3.354  12.520 -0.0107  0.3083 -2.0933
  683MOL0     H94227   8.256   3.448  12.520  0.7452 -0.7231  1.2417
  683MOL0     H94228   8.096   3.354  12.757 -0.8507  0.4647 -2.3005
  683MOL0     H94229   8.270   3.417  12.763 -0.5809 -0.6825  2.0205
  683MOL0     H94230   8.321   3.213  12.604 -1.0455 -1.2404 -0.6699
  683MOL0     H94231   8.163   3.167  12.635  1.6316  1.0082 -2.0471
  683MOL0     H94232   8.369   3.057  12.774 -0.4047  0.5752 -1.6524
  683MOL0     H94233   8.217   3.091  12.867 -1.7347  1.4898 -0.7068
  683MOL0     H94234   7.953   3.949  12.268 -0.4657 -5.3986  2.3249
  683MOL0     H94235   8.039   3.878  12.055 -2.1892 -3.2841  1.8001
  683MOL0     H94236   8.420   3.883  11.803 -1.4489 -0.3984  0.6104
  683MOL0     H94237   8.598   3.865  11.612 -2.8350  1.6492  0.0822
  683MOL0     H94238  10.125   2.584  11.247  1.8601 -1.7099  0.8688
  683MOL0     H94239  10.174   2.572  11.001  2.1224 -2.6659  0.2321
  683MOL0     H94240   9.916   2.404  10.632 -0.7444 -1.1787  1.1360
  683MOL0     H94241   9.885   2.339  10.414  1.1002 -0.9205 -1.5005
  683MOL0     H94242   9.851   2.352  10.195  0.3369 -0.7727  0.2237
  683MOL0     H94243   9.865   2.525  10.172 -2.2658 -1.3361  1.3980
  683MOL0     H94244   9.976   2.486   9.945 -0.7205 -1.0668 -1.2807
  683MOL0     H94245   9.811   2.433   9.962  2.0524  3.0237 -3.7270
  683MOL0     H94246   9.839   2.227   9.965 -0.5721  0.5824  2.5200
  683MOL0     H94247   9.957   2.277   9.842 -0.8107  4.5773  0.1951
  683MOL0     H94248   9.985   2.138  10.110 -2.0730  2.5093  0.2087
  683MOL0     H94249  10.128   2.222  10.061 -0.5498  1.7241  0.1267
  683MOL0     H94250  10.092   1.900   9.770  1.0713  0.0703 -0.2261
  683MOL0     H94251  10.269   2.519  10.313  0.1903 -0.5243  1.4814
  683MOL0     H94252  10.430   2.516  10.449 -0.5510  2.1645 -1.4249
  683MOL0     H94253  10.381   2.641  10.554 -0.1142  0.9413 -0.1690
  683MOL0     H94254  10.413   2.481  10.624  2.5324 -0.7132 -2.4395
  684MOL0     O94255   9.764   1.127   4.641  0.4585 -1.2879  0.0334
  684MOL0     C94256   9.708   1.242   4.641 -0.2383  0.8645  0.8234
  684MOL0     O94257   9.767   1.353   4.631 -0.3102 -0.2485 -0.7395
  684MOL0     C94258   9.888   1.387   4.697 -0.4823  0.0988  0.5990
  684MOL0     C94259   9.952   1.490   4.643  0.0748 -0.0850  0.3220
  684MOL0     C94260  10.088   1.528   4.666  0.3656 -0.1518 -1.2923
  684MOL0     C94261  10.150   1.460   4.769  0.6993  0.3714  0.6872
  684MOL0     O94262  10.269   1.493   4.830 -0.4833 -0.0115 -0.2100
  684MOL0     C94263  10.361   1.591   4.761 -0.0846 -0.3165  0.3816
  684MOL0     C94264  10.473   1.643   4.856  0.6817  0.1128  1.8792
  684MOL0     C94265  10.419   1.740   4.966  0.3070  0.2256 -0.7173
  684MOL0     C94266  10.528   1.787   5.066 -0.0617 -0.0025  0.3388
  684MOL0     C94267  10.481   1.790   5.216 -0.2754  0.1254  0.1452
  684MOL0     C94268  10.600   1.827   5.307 -0.5614  0.1787 -0.3032
  684MOL0     C94269  10.658   1.968   5.300 -0.4778 -0.5421  0.3330
  684MOL0     C94270  10.554   2.088   5.311 -0.4346  0.0226  0.3482
  684MOL0     N94271  10.615   2.221   5.331  0.0095  0.4286  0.2311
  684MOL0     C94272  10.687   2.264   5.439  0.4388 -0.3493 -0.1349
  684MOL0     C94273  10.733   2.388   5.400 -0.8008  0.5207  0.3734
  684MOL0     C94274  10.831   2.476   5.467  0.0074 -0.4647  0.7171
  684MOL0     C94275  10.953   2.474   5.379  0.0067 -0.2546  0.2298
  684MOL0     C94276  10.976   2.606   5.311  0.1388 -1.0277 -0.2912
  684MOL0     C94277  10.851   2.646   5.231  0.0723  0.5967  0.0022
  684MOL0     O94278  10.890   2.744   5.131  0.2438  0.6198  0.8107
  684MOL0     C94279  10.897   2.878   5.157  0.5292 -0.2836  1.9657
  684MOL0     C94280  10.913   2.961   5.043 -0.2314  0.1079  0.8817
  684MOL0     C94281  10.889   3.096   5.051 -0.1352 -0.2615  0.7769
  684MOL0     C94282  10.887   3.166   4.918 -0.0966 -0.6460  0.0077
  684MOL0     C94283  10.859   3.162   5.169 -0.3915 -0.1488 -0.0157
  684MOL0     C94284  10.844   3.309   5.186  0.1011  0.7448 -0.4595
  684MOL0     O94285  10.745   3.352   5.261 -0.5287 -0.3153 -0.1002
  684MOL0     C94286  10.703   3.477   5.234 -0.3829  0.4355  0.9132
  684MOL0     C94287  10.703   3.565   5.338 -0.1262 -0.7955  0.2470
  684MOL0     C94288  10.654   3.692   5.308 -0.2399  0.0944 -0.4916
  684MOL0     C94289  10.613   3.731   5.175  1.3654  0.2619  0.0435
  684MOL0     O94290  10.549   3.846   5.143  0.3722  0.4005  0.1309
  684MOL0     C94291  10.610   3.964   5.189 -0.9026  0.9565  0.3799
  684MOL0     C94292  10.761   3.994   5.144 -0.2654 -0.3524 -0.1514
  684MOL0     C94293  10.834   4.114   5.209 -0.2719 -1.4803 -1.0083
  684MOL0     C94294  10.793   4.243   5.138  0.5543  0.2773 -0.8647
  684MOL0     C94295  10.872   4.361   5.185 -0.0850 -0.2250 -0.5685
  684MOL0     C94296  10.854   4.476   5.089 -0.3960 -0.9281 -0.2492
  684MOL0     C94297  10.967   4.583   5.129  0.8032  1.4116  0.2436
  684MOL0     C94298  10.954   4.710   5.046  0.0500  0.3233 -0.0382
  684MOL0    Cl94299  11.079   4.839   5.072  0.8273 -0.1532  0.4279
  684MOL0     C94300  10.613   3.642   5.075 -0.3540 -0.2508 -0.1253
  684MOL0     C94301  10.664   3.516   5.099 -1.2098  0.5629  0.4357
  684MOL0     O94302  10.933   3.375   5.130 -0.2226  0.4696 -1.0437
  684MOL0     C94303  10.852   3.078   5.285  0.1680  0.4440  0.8586
  684MOL0     C94304  10.867   2.942   5.283  0.7033  0.6957 -0.8221
  684MOL0     N94305  10.655   2.428   5.297  0.4283  0.8644 -0.0581
  684MOL0     N94306  10.582   2.336   5.252 -0.7964  0.4822 -0.6141
  684MOL0     C94307  10.090   1.351   4.830  0.8781 -0.8829  0.7419
  684MOL0     C94308   9.952   1.322   4.799 -0.4291 -0.0612 -0.7741
  684MOL0     C94309   9.558   1.233   4.626  0.2906 -1.1509  0.2894
  684MOL0     C94310   9.499   1.356   4.599  0.1635 -0.2824  0.1204
  684MOL0     C94311   9.360   1.375   4.573  0.1544 -0.0306  0.0046
  684MOL0     C94312   9.267   1.264   4.600 -0.2318 -0.8551  0.0865
  684MOL0     O94313   9.134   1.273   4.597 -0.8298  0.2814  0.2580
  684MOL0     C94314   9.081   1.403   4.585 -0.1324 -0.2905  0.2253
  684MOL0     C94315   9.078   1.447   4.445  0.1152 -0.5976  0.5463
  684MOL0     C94316   9.026   1.591   4.441 -0.7670 -0.4290  0.0869
  684MOL0     C94317   9.008   1.633   4.294  0.2415 -0.3646  0.6127
  684MOL0     C94318   8.958   1.766   4.266  0.1686  0.4992  0.3394
  684MOL0     C94319   8.933   1.883   4.237  1.1032 -0.7807 -0.6021
  684MOL0     C94320   9.322   1.142   4.644 -1.0208  0.5605  0.3040
  684MOL0     C94321   9.465   1.123   4.652 -0.1504 -0.7009 -0.2490
  684MOL0     C94322   9.514   0.980   4.679 -0.2777  0.1277 -0.1704
  684MOL0     H94323   9.906   1.545   4.562  1.2129 -2.2746 -1.9345
  684MOL0     H94324  10.117   1.620   4.618 -1.4059  0.5075 -1.1660
  684MOL0     H94325  10.297   1.677   4.738  0.2303 -0.7286 -2.3719
  684MOL0     H94326  10.408   1.559   4.668  2.0864  0.3074  1.2144
  684MOL0     H94327  10.518   1.552   4.898  0.7494  0.2945  2.2004
  684MOL0     H94328  10.547   1.700   4.799 -3.0527  2.3823 -1.2039
  684MOL0     H94329  10.382   1.831   4.919  1.3477  0.4927 -1.0642
  684MOL0     H94330  10.340   1.693   5.024 -0.0279  0.1173 -1.2580
  684MOL0     H94331  10.606   1.710   5.069 -0.2249 -0.1578  0.5591
  684MOL0     H94332  10.577   1.881   5.038  3.7833 -1.7791  0.4936
  684MOL0     H94333  10.443   1.689   5.237 -1.0848  0.7504  1.8919
  684MOL0     H94334  10.399   1.858   5.241 -1.3299 -1.4829  1.3007
  684MOL0     H94335  10.546   1.820   5.402 -2.1089  0.4844 -1.1264
  684MOL0     H94336  10.674   1.747   5.299 -1.4041 -0.5732 -0.6919
  684MOL0     H94337  10.712   1.982   5.206  1.3191  1.1673  1.5358
  684MOL0     H94338  10.745   1.975   5.366 -0.9608 -3.0144  1.3442
  684MOL0     H94339  10.489   2.093   5.223 -0.8849 -1.6765  0.5341
  684MOL0     H94340  10.490   2.065   5.397  3.8476 -2.1376  3.2985
  684MOL0     H94341  10.709   2.207   5.528  0.8754  0.0921  0.0479
  684MOL0     H94342  10.864   2.434   5.563 -0.5160  0.9699  1.5769
  684MOL0     H94343  10.794   2.579   5.478 -0.1830 -0.5817  1.2097
  684MOL0     H94344  11.036   2.472   5.451  1.3308  1.5914 -1.1483
  684MOL0     H94345  10.963   2.386   5.315 -0.7074  0.9762 -1.6493
  684MOL0     H94346  11.003   2.676   5.390  1.4662 -3.1446  1.2407
  684MOL0     H94347  11.062   2.601   5.243 -0.1537  2.1332 -1.0347
  684MOL0     H94348  10.828   2.560   5.167  0.2165 -0.9929  1.9942
  684MOL0     H94349  10.771   2.689   5.291  0.1499 -0.4083  0.8452
  684MOL0     H94350  10.924   2.907   4.949  0.6481 -2.2324  2.2153
  684MOL0     H94351  10.914   3.095   4.840 -0.1662 -2.5148  1.6114
  684MOL0     H94352  10.965   3.242   4.915 -3.0096  2.8972  2.7699
  684MOL0     H94353  10.790   3.212   4.893 -0.2355 -1.1808 -0.4466
  684MOL0     H94354  10.722   3.538   5.441  1.2436 -4.2207 -0.7509
  684MOL0     H94355  10.629   3.756   5.392 -0.8888 -3.2301  2.0386
  684MOL0     H94356  10.550   4.042   5.143 -2.6256  1.5568  3.3721
  684MOL0     H94357  10.619   3.969   5.298  2.6173 -1.2265  0.3586
  684MOL0     H94358  10.828   3.910   5.166  2.6045  1.1131 -2.6300
  684MOL0     H94359  10.744   4.003   5.036  1.4516 -2.5199 -0.6696
  684MOL0     H94360  10.943   4.106   5.213 -0.1333  0.6856  1.2104
  684MOL0     H94361  10.798   4.132   5.310  0.2783 -0.6479 -0.9585
  684MOL0     H94362  10.688   4.260   5.162  0.5705  4.0293 -2.7943
  684MOL0     H94363  10.784   4.234   5.029  2.3043  1.7655 -1.1885
  684MOL0     H94364  10.837   4.390   5.284  4.7645 -3.4591  2.5134
  684MOL0     H94365  10.978   4.335   5.193 -0.0140 -0.2860 -1.5869
  684MOL0     H94366  10.751   4.513   5.093 -2.1331 -5.1154 -0.7531
  684MOL0     H94367  10.881   4.456   4.985  1.4192 -1.1508  0.2163
  684MOL0     H94368  11.062   4.531   5.112 -1.8592 -3.4035 -2.0386
  684MOL0     H94369  10.950   4.604   5.235  1.1177  0.5641  0.4716
  684MOL0     H94370  10.862   4.765   5.069 -0.3987 -0.9883  1.5426
  684MOL0     H94371  10.943   4.687   4.940  1.7923  0.7397 -0.3347
  684MOL0     H94372  10.576   3.678   4.979  0.6053  0.2764 -0.3043
  684MOL0     H94373  10.679   3.441   5.021 -0.3221 -0.3962  1.4847
  684MOL0     H94374  10.822   3.135   5.372  0.9161  0.5539  1.0551
  684MOL0     H94375  10.872   2.886   5.376  2.0566  2.7512  0.4224
  684MOL0     H94376  10.142   1.290   4.903 -1.0327  0.1009  3.0148
  684MOL0     H94377   9.917   1.231   4.847 -0.1870 -0.2674 -0.9781
  684MOL0     H94378   9.572   1.434   4.581  0.1769 -1.0471 -4.3928
  684MOL0     H94379   9.336   1.480   4.561  1.9551  0.7658  2.4962
  684MOL0     H94380   8.983   1.405   4.633  0.2057 -2.9933  1.2146
  684MOL0     H94381   9.143   1.473   4.642  2.5143 -1.2295 -1.3073
  684MOL0     H94382   9.005   1.396   4.382 -0.0614  1.8568 -1.4026
  684MOL0     H94383   9.171   1.446   4.388 -0.3326  3.8150 -0.7023
  684MOL0     H94384   8.934   1.612   4.496 -1.2075  0.4726 -0.9618
  684MOL0     H94385   9.107   1.654   4.478 -2.0004  1.3658 -0.1675
  684MOL0     H94386   8.931   1.566   4.253 -0.4659  0.6527  0.2263
  684MOL0     H94387   9.106   1.619   4.249  1.9602 -2.8965  4.6205
  684MOL0     H94388   8.921   1.987   4.217 -2.4633 -0.6705  1.2298
  684MOL0     H94389   9.246   1.064   4.650 -1.0056  0.3469 -1.5886
  684MOL0     H94390   9.430   0.921   4.714 -0.4789 -1.5679 -3.1626
  684MOL0     H94391   9.559   0.944   4.586  1.3825 -0.1614  0.7045
  684MOL0     H94392   9.585   0.984   4.762  0.5483 -4.7438 -0.3811
  685MOL0     O94393   2.409   8.078   9.561  0.0700  0.2840  0.3611
  685MOL0     C94394   2.467   8.082   9.671 -0.7657  0.0885 -0.2785
  685MOL0     O94395   2.571   8.171   9.693 -0.6262 -0.0345  0.1860
  685MOL0     C94396   2.571   8.299   9.631 -0.5005  0.3407  0.7734
  685MOL0     C94397   2.523   8.422   9.685  0.9554 -0.0427 -0.0998
  685MOL0     C94398   2.528   8.542   9.618  0.5507  0.9177 -0.7840
  685MOL0     C94399   2.581   8.539   9.486  0.3540 -0.1444  1.4087
  685MOL0     O94400   2.576   8.663   9.424 -0.4132  0.8332 -0.5639
  685MOL0     C94401   2.606   8.667   9.286 -0.0628  0.1553  0.4297
  685MOL0     C94402   2.757   8.678   9.266  0.6182 -0.2819 -0.0787
  685MOL0     C94403   2.803   8.826   9.263  0.5412  0.0514  0.1431
  685MOL0     C94404   2.948   8.830   9.287 -1.2261  1.0943  0.0853
  685MOL0     C94405   3.011   8.957   9.229  0.5386  0.6073 -0.6095
  685MOL0     C94406   2.954   9.080   9.300 -0.0232  0.6639  0.6718
  685MOL0     C94407   3.005   9.096   9.448 -0.6697  0.5642  0.4379
  685MOL0     C94408   2.978   9.236   9.496 -0.3149 -0.3743  0.0402
  685MOL0     N94409   2.834   9.243   9.533  0.3664 -0.1755  0.7311
  685MOL0     C94410   2.724   9.239   9.451 -0.1040  0.3212  0.0977
  685MOL0     C94411   2.617   9.228   9.525 -0.3138 -0.7418 -0.5301
  685MOL0     C94412   2.474   9.217   9.481 -0.4975  0.1155  0.2288
  685MOL0     C94413   2.432   9.075   9.489  0.2548  0.8334  0.4708
  685MOL0     C94414   2.275   9.077   9.483 -0.2312 -0.8135 -0.6745
  685MOL0     C94415   2.223   8.938   9.502  0.2044  0.6681  0.7589
  685MOL0     O94416   2.090   8.919   9.552 -0.1160  0.6399  0.2309
  685MOL0     C94417   2.008   8.819   9.516  0.1472  0.3189 -0.2589
  685MOL0     C94418   1.881   8.841   9.567  0.5248  0.2676 -0.3789
  685MOL0     C94419   1.786   8.746   9.548  0.3491  0.1562 -0.0332
  685MOL0     C94420   1.642   8.791   9.595  0.8172  0.0807  1.0634
  685MOL0     C94421   1.813   8.617   9.490  0.6062  0.3139 -1.1248
  685MOL0     C94422   1.714   8.506   9.466 -0.3285 -0.4078 -0.4953
  685MOL0     O94423   1.773   8.383   9.434  0.3209 -0.3886 -0.5694
  685MOL0     C94424   1.692   8.274   9.425  0.0180  0.6827 -0.6979
  685MOL0     C94425   1.704   8.174   9.528 -0.4433  0.7265 -0.7705
  685MOL0     C94426   1.610   8.063   9.530 -0.9008 -0.1853  0.4460
  685MOL0     C94427   1.519   8.046   9.422 -1.0903 -0.0068 -1.1812
  685MOL0     O94428   1.441   7.930   9.421 -0.9100  0.1405  0.1387
  685MOL0     C94429   1.389   7.888   9.298  0.5587  0.0383 -0.3729
  685MOL0     C94430   1.340   7.745   9.333  0.1043 -0.1441 -1.7265
  685MOL0     C94431   1.278   7.676   9.215 -0.1462  0.9175  0.1194
  685MOL0     C94432   1.181   7.571   9.279  0.5762  0.0258  0.8978
  685MOL0     C94433   1.103   7.509   9.171  0.3046  0.2956  0.4361
  685MOL0     C94434   0.994   7.412   9.223 -0.2440  0.8015  0.2436
  685MOL0     C94435   0.910   7.359   9.101 -0.5405  0.5378  0.4998
  685MOL0     C94436   0.797   7.275   9.142 -0.0820  0.1647 -0.2796
  685MOL0    Cl94437   0.842   7.104   9.154 -0.2341  0.3022 -0.7759
  685MOL0     C94438   1.514   8.141   9.322  0.2164  0.2468 -0.2703
  685MOL0     C94439   1.594   8.255   9.330  0.4274 -0.6628 -0.4081
  685MOL0     O94440   1.593   8.529   9.481  0.6753  0.3974 -1.5310
  685MOL0     C94441   1.949   8.597   9.448  0.5235 -0.3162  0.2837
  685MOL0     C94442   2.044   8.697   9.464  0.4875  0.3721  0.2257
  685MOL0     N94443   2.666   9.235   9.662 -0.2662  0.9633  0.4540
  685MOL0     N94444   2.791   9.234   9.661 -0.5091  1.0265 -0.0488
  685MOL0     C94445   2.629   8.423   9.424  0.4916  0.2192  0.0942
  685MOL0     C94446   2.619   8.309   9.495  0.0675  1.1806 -1.0072
  685MOL0     C94447   2.436   7.987   9.773  0.5008 -0.3431 -0.0927
  685MOL0     C94448   2.320   7.913   9.761  0.1594  0.0095 -0.3680
  685MOL0     C94449   2.288   7.809   9.851  0.3501 -0.0159 -0.0191
  685MOL0     C94450   2.372   7.780   9.956 -0.7912  1.1119 -0.5463
  685MOL0     O94451   2.354   7.670  10.042  0.4150 -0.3732 -1.4066
  685MOL0     C94452   2.417   7.658  10.170  1.3247  0.4475  0.2950
  685MOL0     C94453   2.339   7.556  10.256  0.1534 -0.7601 -0.5916
  685MOL0     C94454   2.382   7.416  10.215  0.2315 -0.7213 -0.6120
  685MOL0     C94455   2.304   7.307  10.294  1.0944  0.0867 -0.0857
  685MOL0     C94456   2.345   7.286  10.433 -0.8341 -0.2787 -0.0858
  685MOL0     C94457   2.368   7.265  10.551  0.7803  0.2342  0.7047
  685MOL0     C94458   2.491   7.857   9.977  0.3615  0.2447 -0.2757
  685MOL0     C94459   2.527   7.950   9.882  0.7834 -0.3378  0.2127
  685MOL0     C94460   2.655   8.010   9.892 -0.2635  0.1138 -0.2260
  685MOL0     H94461   2.477   8.421   9.784 -2.9098 -1.8129 -1.7210
  685MOL0     H94462   2.506   8.636   9.668  2.7270  0.4171  1.3042
  685MOL0     H94463   2.560   8.754   9.237 -1.0466 -1.4043 -1.5970
  685MOL0     H94464   2.548   8.589   9.236 -1.2678 -0.0648  2.0808
  685MOL0     H94465   2.813   8.620   9.340  2.2221 -0.2244 -1.2159
  685MOL0     H94466   2.769   8.629   9.169  0.1061 -1.2918  0.3438
  685MOL0     H94467   2.782   8.877   9.168  2.2823 -0.6560 -0.6733
  685MOL0     H94468   2.745   8.878   9.340  0.5501 -2.0731  1.6554
  685MOL0     H94469   2.969   8.814   9.393 -0.0640  2.7071  0.1433
  685MOL0     H94470   2.997   8.750   9.231 -3.4673  2.7599 -4.8591
  685MOL0     H94471   2.981   8.965   9.124 -0.5485  1.0868 -0.2706
  685MOL0     H94472   3.119   8.960   9.248  0.4963  2.8267 -0.4588
  685MOL0     H94473   2.979   9.168   9.239 -2.3794  1.3951  0.6576
  685MOL0     H94474   2.845   9.081   9.292  0.0225 -2.1053 -2.4900
  685MOL0     H94475   3.114   9.079   9.446 -0.5907  1.0173 -1.5295
  685MOL0     H94476   2.966   9.014   9.508  0.7581 -0.9100 -0.5619
  685MOL0     H94477   3.046   9.250   9.580 -0.9449 -1.3979  0.7383
  685MOL0     H94478   3.010   9.304   9.416 -3.2178  1.1027  0.0009
  685MOL0     H94479   2.726   9.248   9.343  0.1629  2.2391  0.2207
  685MOL0     H94480   2.451   9.254   9.380  1.2643 -0.8662 -0.5739
  685MOL0     H94481   2.415   9.279   9.549 -1.1681 -0.8113  0.5071
  685MOL0     H94482   2.477   9.007   9.416 -1.7925  0.2700 -0.3257
  685MOL0     H94483   2.468   9.035   9.585  1.2922  1.0646  0.1907
  685MOL0     H94484   2.235   9.144   9.559  0.3327 -1.2000 -0.0259
  685MOL0     H94485   2.243   9.107   9.382  1.7152  2.0151 -0.5701
  685MOL0     H94486   2.230   8.893   9.403 -1.6824  2.6826 -0.3753
  685MOL0     H94487   2.279   8.876   9.573 -0.5518  0.0584  0.8308
  685MOL0     H94488   1.873   8.941   9.610  2.8914  1.3485 -2.1924
  685MOL0     H94489   1.613   8.724   9.676 -0.3669 -1.0808 -0.2686
  685MOL0     H94490   1.572   8.762   9.516 -1.3363 -2.0568  3.5826
  685MOL0     H94491   1.632   8.893   9.634  0.1211  0.9001 -1.0963
  685MOL0     H94492   1.774   8.184   9.610 -2.4610 -1.9394  1.4835
  685MOL0     H94493   1.606   7.982   9.601 -1.1392 -1.9896 -1.5192
  685MOL0     H94494   1.302   7.950   9.278  1.3565  1.1486 -0.5060
  685MOL0     H94495   1.465   7.873   9.220  0.7879 -1.6894  0.1502
  685MOL0     H94496   1.418   7.685   9.379 -0.2912  0.7369  0.2037
  685MOL0     H94497   1.272   7.749   9.419 -0.7274 -3.6843 -2.0874
  685MOL0     H94498   1.363   7.630   9.164  3.5193  2.9535  3.8316
  685MOL0     H94499   1.221   7.747   9.154 -0.5052 -0.1143 -0.7730
  685MOL0     H94500   1.114   7.615   9.353  0.7531 -0.5351  1.4021
  685MOL0     H94501   1.248   7.500   9.329  1.9289 -0.2981 -1.2157
  685MOL0     H94502   1.052   7.586   9.112 -2.4552 -1.7406 -0.0436
  685MOL0     H94503   1.174   7.458   9.104  0.5085  2.1913 -0.8936
  685MOL0     H94504   0.932   7.463   9.296  3.3372  0.5127  3.8281
  685MOL0     H94505   1.043   7.331   9.277  2.5160  2.1189 -0.0955
  685MOL0     H94506   0.980   7.300   9.042  2.1296  2.0745  1.9496
  685MOL0     H94507   0.867   7.444   9.047 -2.7421 -0.5178  0.4685
  685MOL0     H94508   0.713   7.291   9.074  2.6198 -1.2390 -4.2986
  685MOL0     H94509   0.763   7.303   9.242  1.2268 -2.4907  1.0224
  685MOL0     H94510   1.440   8.120   9.245 -0.5205 -0.1722  0.5421
  685MOL0     H94511   1.579   8.335   9.259  1.1524  1.3809  1.6069
  685MOL0     H94512   1.979   8.502   9.404 -1.2896 -0.4530 -0.7631
  685MOL0     H94513   2.146   8.678   9.430  1.9827  0.0880  4.2308
  685MOL0     H94514   2.681   8.411   9.329 -0.4395 -5.3131 -0.0163
  685MOL0     H94515   2.657   8.229   9.433  0.4634  0.8586 -0.3659
  685MOL0     H94516   2.254   7.934   9.677  0.9326  1.7042 -0.6090
  685MOL0     H94517   2.204   7.741   9.838  0.8457 -0.4376 -1.1843
  685MOL0     H94518   2.512   7.606  10.153  1.0060  1.0041 -4.6025
  685MOL0     H94519   2.414   7.755  10.221 -0.3063  1.5611 -1.7754
  685MOL0     H94520   2.232   7.577  10.247  0.5918  0.9610 -2.4057
  685MOL0     H94521   2.363   7.567  10.362 -2.0590  0.4380 -0.1488
  685MOL0     H94522   2.350   7.406  10.111 -0.3875  3.0318 -0.9010
  685MOL0     H94523   2.488   7.393  10.227 -0.4074 -3.7737  0.0409
  685MOL0     H94524   2.305   7.219  10.229 -0.6806 -2.1918  2.7422
  685MOL0     H94525   2.197   7.329  10.299  1.2684  0.9730 -0.2583
  685MOL0     H94526   2.400   7.246  10.651  0.0936 -2.6608  0.4580
  685MOL0     H94527   2.558   7.825  10.057  0.2304 -2.5775 -1.1661
  685MOL0     H94528   2.643   8.117   9.912 -3.5552 -0.2347  0.3272
  685MOL0     H94529   2.716   7.972   9.973 -1.3882 -0.9603  0.1421
  685MOL0     H94530   2.722   7.995   9.807 -0.3797  0.7110 -0.4341
  686MOL0     O94531   8.056  10.290   7.863  0.0897 -0.0236 -0.5190
  686MOL0     C94532   7.980  10.342   7.946  0.2388 -0.2228  0.2113
  686MOL0     O94533   7.979  10.473   7.984  0.1668 -0.0830  0.2058
  686MOL0     C94534   8.031  10.567   7.903  0.1245 -1.5416 -0.6698
  686MOL0     C94535   8.162  10.585   7.858  1.2100 -0.7670 -1.1585
  686MOL0     C94536   8.205  10.697   7.782 -0.3853 -0.3670 -0.1355
  686MOL0     C94537   8.114  10.799   7.748 -0.2384  0.6515  0.2288
  686MOL0     O94538   8.139  10.911   7.676 -1.0791 -0.1977  0.3303
  686MOL0     C94539   8.258  10.918   7.592  0.3299 -0.2805  1.8814
  686MOL0     C94540   8.260  11.057   7.521 -0.4031 -0.4275  0.4256
  686MOL0     C94541   8.296  11.170   7.623  0.0519 -0.2192 -0.2382
  686MOL0     C94542   8.317  11.313   7.561 -0.5882  0.6839  0.1751
  686MOL0     C94543   8.342  11.421   7.661 -0.1472 -0.5656  0.6395
  686MOL0     C94544   8.474  11.389   7.745  1.2826 -0.7879  1.0181
  686MOL0     C94545   8.486  11.491   7.867 -0.0708  0.5524 -0.7520
  686MOL0     C94546   8.410  11.440   7.987  0.1049 -0.5007 -0.3567
  686MOL0     N94547   8.445  11.307   8.040  0.4463 -0.7468  0.1500
  686MOL0     C94548   8.373  11.199   8.043  0.0536  0.6826  0.4880
  686MOL0     C94549   8.434  11.111   8.122 -0.0908  0.4637  0.6945
  686MOL0     C94550   8.381  10.973   8.151 -0.2241 -0.8926  0.3217
  686MOL0     C94551   8.378  10.949   8.305 -1.5412  0.4646 -0.0797
  686MOL0     C94552   8.331  10.820   8.350  0.1215  0.7598  1.2632
  686MOL0     C94553   8.307  10.810   8.499 -0.0761 -0.5726 -0.2920
  686MOL0     O94554   8.267  10.675   8.536  0.0949 -0.2768  0.7810
  686MOL0     C94555   8.142  10.643   8.503  0.0079 -1.2516  0.8427
  686MOL0     C94556   8.134  10.527   8.428 -0.4099  0.1586 -0.2096
  686MOL0     C94557   8.014  10.469   8.394  0.1264  0.3280  0.6589
  686MOL0     C94558   8.003  10.334   8.317  0.3390  0.9173 -0.6648
  686MOL0     C94559   7.899  10.532   8.445  0.0360 -0.0284 -1.2453
  686MOL0     C94560   7.766  10.473   8.421  0.0978  0.8155 -0.4595
  686MOL0     O94561   7.662  10.552   8.391 -0.2179 -0.6358 -0.2341
  686MOL0     C94562   7.543  10.512   8.441  0.1800 -0.8837  0.1124
  686MOL0     C94563   7.427  10.522   8.359  0.0689 -0.4526  0.7348
  686MOL0     C94564   7.301  10.481   8.399 -0.4660  0.9237 -0.4275
  686MOL0     C94565   7.291  10.434   8.526  0.5649 -0.1607 -0.3795
  686MOL0     O94566   7.180  10.381   8.571 -0.0373  0.6924  0.7925
  686MOL0     C94567   7.068  10.475   8.576 -0.2926 -1.4660 -0.4423
  686MOL0     C94568   6.987  10.461   8.708  0.0293  0.8166 -0.7065
  686MOL0     C94569   6.881  10.577   8.746 -1.0025  0.2814  0.3499
  686MOL0     C94570   6.788  10.565   8.869 -0.6950  1.2796  0.2741
  686MOL0     C94571   6.699  10.683   8.884  0.3523 -1.1367 -0.8230
  686MOL0     C94572   6.598  10.653   9.000  0.3769  0.2532  0.3320
  686MOL0     C94573   6.491  10.757   9.000 -0.8278  0.9874 -0.5452
  686MOL0     C94574   6.373  10.729   9.095  0.5989  0.4531  0.1943
  686MOL0    Cl94575   6.213  10.801   9.039  0.3541  0.2050 -0.0066
  686MOL0     C94576   7.399  10.427   8.616 -0.1648  0.3170 -0.0714
  686MOL0     C94577   7.530  10.468   8.573  0.0699  0.3243 -0.0872
  686MOL0     O94578   7.768  10.348   8.454 -0.1191  0.5405 -0.5774
  686MOL0     C94579   7.904  10.657   8.521  0.9942  0.0194 -0.0013
  686MOL0     C94580   8.029  10.714   8.543 -0.0257  0.4309  0.9528
  686MOL0     N94581   8.548  11.167   8.162 -0.8251  0.1601 -0.1613
  686MOL0     N94582   8.558  11.285   8.113  0.5651 -0.2617 -0.2538
  686MOL0     C94583   7.980  10.775   7.790 -1.0584 -0.4133  0.4805
  686MOL0     C94584   7.943  10.665   7.863  0.2268  0.0143 -0.0161
  686MOL0     C94585   7.873  10.264   8.008 -0.1248  0.4159 -0.5860
  686MOL0     C94586   7.760  10.329   8.065 -0.6542 -0.3592 -0.6547
  686MOL0     C94587   7.658  10.250   8.117 -0.0136 -0.1130  0.3771
  686MOL0     C94588   7.674  10.116   8.147  0.0277  0.1694  0.3103
  686MOL0     O94589   7.573  10.053   8.211  0.6329 -0.1551 -0.0403
  686MOL0     C94590   7.592  10.044   8.352  1.0065 -0.1411 -0.1622
  686MOL0     C94591   7.450  10.050   8.417 -1.0280  0.5212  0.1486
  686MOL0     C94592   7.443  10.047   8.573  0.1767  0.5793  0.1171
  686MOL0     C94593   7.441   9.901   8.638 -0.0213 -0.3883  0.7171
  686MOL0     C94594   7.559   9.816   8.597  0.0852 -0.5984  0.3546
  686MOL0     C94595   7.649   9.743   8.561  0.2431  0.1997 -0.7995
  686MOL0     C94596   7.792  10.052   8.109  0.0069 -1.0399 -0.6420
  686MOL0     C94597   7.891  10.123   8.031 -0.1056  0.1919  0.6984
  686MOL0     C94598   8.003  10.036   7.974  0.4670  0.1503  0.6492
  686MOL0     H94599   8.222  10.499   7.885  0.5887 -1.3562 -1.6065
  686MOL0     H94600   8.306  10.683   7.745 -0.3038 -0.8998  0.2670
  686MOL0     H94601   8.252  10.828   7.529 -0.2268  0.1411  1.3103
  686MOL0     H94602   8.358  10.905   7.633  0.4419 -2.8848  0.9303
  686MOL0     H94603   8.333  11.052   7.439 -1.6636  1.2998 -0.8760
  686MOL0     H94604   8.168  11.075   7.464 -1.0283  0.9396  1.8040
  686MOL0     H94605   8.208  11.166   7.689 -0.0209 -4.4474 -0.3650
  686MOL0     H94606   8.383  11.136   7.680  0.9417 -0.8442 -1.9084
  686MOL0     H94607   8.406  11.304   7.498 -2.2309 -1.2727 -2.0420
  686MOL0     H94608   8.244  11.338   7.483  2.1522 -0.1865 -2.9398
  686MOL0     H94609   8.256  11.427   7.728 -1.6785 -3.4069 -0.8798
  686MOL0     H94610   8.353  11.514   7.605 -0.3060 -0.1734  1.2515
  686MOL0     H94611   8.491  11.285   7.773 -0.9675 -1.5080 -0.0124
  686MOL0     H94612   8.564  11.410   7.687  0.7720  1.8181  1.0403
  686MOL0     H94613   8.453  11.592   7.842  2.0268  1.6418  0.4824
  686MOL0     H94614   8.592  11.505   7.894 -0.7621  1.5995  1.7050
  686MOL0     H94615   8.406  11.508   8.073  1.4191  1.5045 -1.7885
  686MOL0     H94616   8.305  11.440   7.960  0.3603 -0.2128 -1.3919
  686MOL0     H94617   8.287  11.173   7.982  0.1117 -4.0877  2.0335
  686MOL0     H94618   8.444  10.897   8.104  2.9108  1.2089  0.8272
  686MOL0     H94619   8.278  10.965   8.117 -0.1805  1.0924 -0.4272
  686MOL0     H94620   8.478  10.962   8.347 -1.5906 -0.3033  0.2821
  686MOL0     H94621   8.337  11.041   8.350 -0.9472  0.4405  0.5168
  686MOL0     H94622   8.235  10.801   8.302 -0.2336 -0.9212  2.5423
  686MOL0     H94623   8.411  10.747   8.330  0.4853  1.4436  0.1539
  686MOL0     H94624   8.408  10.818   8.541  0.7298 -2.9179 -1.6205
  686MOL0     H94625   8.229  10.883   8.523  0.7190 -0.2411  1.4121
  686MOL0     H94626   8.227  10.494   8.383  0.0185  1.7264 -0.5320
  686MOL0     H94627   7.918  10.319   8.250  0.5608 -1.0621 -0.5688
  686MOL0     H94628   8.016  10.259   8.396 -0.4014 -0.1722 -1.5306
  686MOL0     H94629   8.090  10.321   8.252  1.6208 -2.7667  1.4409
  686MOL0     H94630   7.440  10.559   8.258  2.1758 -3.5786 -0.2668
  686MOL0     H94631   7.220  10.510   8.333 -1.3792  1.3058  0.8132
  686MOL0     H94632   7.104  10.578   8.565 -5.0410  0.9291  2.8060
  686MOL0     H94633   6.995  10.459   8.495 -0.8258 -0.1984 -0.2334
  686MOL0     H94634   6.943  10.362   8.712  1.9714 -0.1357 -1.3932
  686MOL0     H94635   7.061  10.472   8.788  0.2654  2.6099 -1.1144
  686MOL0     H94636   6.814  10.583   8.660  0.3770  2.2973 -0.6426
  686MOL0     H94637   6.936  10.671   8.758  0.4211 -0.5771  0.7939
  686MOL0     H94638   6.856  10.564   8.955  0.0924  0.0930 -0.3357
  686MOL0     H94639   6.736  10.470   8.853 -0.5168  0.5041  3.6219
  686MOL0     H94640   6.750  10.777   8.907 -0.8338 -0.2192 -1.8440
  686MOL0     H94641   6.640  10.710   8.796 -2.1313 -2.6688  0.2613
  686MOL0     H94642   6.652  10.651   9.095 -3.2253  1.0210  2.6026
  686MOL0     H94643   6.551  10.556   8.979 -0.7570  0.3672  2.0889
  686MOL0     H94644   6.447  10.766   8.900 -1.2659  0.5857 -0.3906
  686MOL0     H94645   6.556  10.844   9.018  1.4268 -0.1025 -2.7464
  686MOL0     H94646   6.397  10.779   9.189  2.8103  0.0190 -0.0861
  686MOL0     H94647   6.358  10.621   9.104 -0.0551  0.4149 -1.0499
  686MOL0     H94648   7.387  10.390   8.717 -0.5534 -0.5999 -0.4463
  686MOL0     H94649   7.620  10.460   8.633  1.5984  0.6956 -2.2250
  686MOL0     H94650   7.812  10.711   8.539  2.0214  1.2040  2.1196
  686MOL0     H94651   8.037  10.813   8.586 -1.2696  1.0076 -0.0980
  686MOL0     H94652   7.901  10.841   7.756  0.4475  1.6175  0.6982
  686MOL0     H94653   7.837  10.654   7.882  0.3078 -1.4888 -0.3351
  686MOL0     H94654   7.737  10.432   8.038  2.3947 -0.0050 -2.3859
  686MOL0     H94655   7.575  10.314   8.146 -0.6698 -0.4389 -0.7375
  686MOL0     H94656   7.634   9.946   8.376  0.0734 -0.5875 -0.3020
  686MOL0     H94657   7.652  10.116   8.408 -2.1222  1.2906  1.6645
  686MOL0     H94658   7.394   9.964   8.379  2.3657 -0.7940 -2.3356
  686MOL0     H94659   7.409  10.142   8.374 -3.0844  0.4140  1.7494
  686MOL0     H94660   7.525  10.102   8.619  2.5806 -1.5389 -1.4135
  686MOL0     H94661   7.352  10.102   8.601 -0.6335 -1.6136  2.1637
  686MOL0     H94662   7.349   9.851   8.608  0.2669 -0.6415  0.2380
  686MOL0     H94663   7.436   9.919   8.746 -3.3353  4.1494  0.0912
  686MOL0     H94664   7.711   9.684   8.496 -0.4498 -1.6524  0.1291
  686MOL0     H94665   7.806   9.946   8.128 -0.2763 -0.8403  0.8405
  686MOL0     H94666   7.989   9.928   7.990  0.5847  0.5969  4.6081
  686MOL0     H94667   7.988  10.052   7.866  1.1118  0.6586  0.6300
  686MOL0     H94668   8.104  10.061   8.007 -0.0132  2.4860  0.4868
  687MOL0     O94669   4.726   3.700   9.659 -0.5719  0.1038  0.0347
  687MOL0     C94670   4.706   3.590   9.607  0.3633  0.3980  0.3386
  687MOL0     O94671   4.785   3.484   9.628  0.4973 -0.2183 -0.5085
  687MOL0     C94672   4.883   3.471   9.728  0.0014  0.1570  0.3987
  687MOL0     C94673   4.986   3.380   9.707  0.4199  0.2023  0.1329
  687MOL0     C94674   5.093   3.362   9.788 -1.1669 -0.4734  0.6089
  687MOL0     C94675   5.101   3.437   9.909 -0.9965 -0.6925  0.2331
  687MOL0     O94676   5.191   3.419  10.013  0.6201 -0.0777  0.3784
  687MOL0     C94677   5.325   3.372   9.977  0.0080 -0.4883 -0.6677
  687MOL0     C94678   5.405   3.465   9.892 -0.3877 -0.2884  0.4605
  687MOL0     C94679   5.382   3.613   9.946 -0.9683  0.0958 -0.9174
  687MOL0     C94680   5.432   3.718   9.849 -0.3185  1.2415 -0.0217
  687MOL0     C94681   5.402   3.867   9.900 -0.1611  0.3535  0.9407
  687MOL0     C94682   5.254   3.901   9.933 -0.7178  0.6927 -0.3552
  687MOL0     C94683   5.152   3.896   9.814 -0.5135  0.3497  0.2747
  687MOL0     C94684   5.167   4.010   9.721  0.4513  0.0011  0.3715
  687MOL0     N94685   5.114   4.134   9.778 -0.1661  0.3522  0.4150
  687MOL0     C94686   5.172   4.233   9.845 -0.6782 -0.6191 -0.4944
  687MOL0     C94687   5.069   4.318   9.868 -0.8313  0.5780  0.4670
  687MOL0     C94688   5.066   4.440   9.954 -0.1725 -0.0798 -0.6440
  687MOL0     C94689   5.105   4.414  10.103 -1.1359 -0.4200 -0.7608
  687MOL0     C94690   4.991   4.345  10.176 -0.1866  0.4661 -0.7312
  687MOL0     C94691   5.032   4.203  10.234 -0.6703  0.0878  0.2049
  687MOL0     O94692   5.113   4.208  10.347  0.2984  0.4136 -0.2505
  687MOL0     C94693   5.076   4.285  10.453 -0.2665  0.2256  0.2097
  687MOL0     C94694   5.166   4.369  10.512  0.5247  0.6594 -0.1251
  687MOL0     C94695   5.149   4.454  10.619  0.4728  0.1918 -0.6777
  687MOL0     C94696   5.263   4.536  10.668 -0.0225 -0.7966  1.2115
  687MOL0     C94697   5.026   4.443  10.687  0.1806  0.3526  0.1304
  687MOL0     C94698   5.006   4.524  10.797 -0.4834 -0.3332  0.6122
  687MOL0     O94699   5.010   4.465  10.920 -0.1656  0.0284 -0.4135
  687MOL0     C94700   4.961   4.530  11.032 -0.0678  0.1204 -0.1803
  687MOL0     C94701   4.835   4.505  11.085  0.0540  0.4230 -0.5478
  687MOL0     C94702   4.800   4.559  11.207  0.2674 -0.0605  0.4191
  687MOL0     C94703   4.887   4.638  11.280 -0.7643 -0.4923  0.0409
  687MOL0     O94704   4.847   4.699  11.396 -0.3535  0.0041  0.9294
  687MOL0     C94705   4.787   4.617  11.488 -0.5759 -0.1886  0.2802
  687MOL0     C94706   4.814   4.683  11.626  0.7203  0.2473  0.5330
  687MOL0     C94707   4.952   4.666  11.681 -0.7236  0.8230 -0.6588
  687MOL0     C94708   4.949   4.733  11.814 -0.5877  0.0566  0.0004
  687MOL0     C94709   5.082   4.726  11.898 -0.4367 -0.4740 -0.0235
  687MOL0     C94710   5.091   4.584  11.957  0.1134 -0.2924 -0.0124
  687MOL0     C94711   5.009   4.565  12.091  0.4119  0.9976 -0.0262
  687MOL0     C94712   5.028   4.430  12.159 -0.2685  0.0142 -0.5212
  687MOL0    Cl94713   5.202   4.388  12.173  0.1087  0.1922  0.5922
  687MOL0     C94714   5.014   4.677  11.222  0.4079  0.1209 -0.6192
  687MOL0     C94715   5.050   4.614  11.100 -0.1106  0.0131  0.2219
  687MOL0     O94716   4.992   4.641  10.777 -0.0901 -0.6217 -0.1786
  687MOL0     C94717   4.923   4.368  10.626 -0.1200  0.0625 -1.2034
  687MOL0     C94718   4.952   4.289  10.509 -0.4340 -0.5048  0.0746
  687MOL0     N94719   4.962   4.280   9.802  0.3986  0.1721  0.4391
  687MOL0     N94720   4.987   4.167   9.742 -0.6449  0.3217  0.3409
  687MOL0     C94721   4.999   3.526   9.934 -0.6094  0.4062 -0.2867
  687MOL0     C94722   4.888   3.536   9.851  0.2734 -0.2302 -0.6457
  687MOL0     C94723   4.607   3.596   9.495  0.0149  0.1101 -0.0866
  687MOL0     C94724   4.501   3.694   9.494  0.2142  0.2482  0.8832
  687MOL0     C94725   4.419   3.716   9.389  0.8391 -0.7966  0.0463
  687MOL0     C94726   4.431   3.635   9.279 -1.2115  0.2715  0.1471
  687MOL0     O94727   4.355   3.642   9.162 -0.8077 -0.2015  0.1970
  687MOL0     C94728   4.288   3.774   9.138 -0.0988 -0.2256  0.1207
  687MOL0     C94729   4.257   3.791   8.994 -0.1251  0.7932  0.5162
  687MOL0     C94730   4.388   3.803   8.930  0.1401  0.3224 -0.6366
  687MOL0     C94731   4.395   3.891   8.812 -0.4520  0.0412  0.7096
  687MOL0     C94732   4.314   3.850   8.694 -0.1166 -0.3549  1.0120
  687MOL0     C94733   4.241   3.795   8.619  0.2833 -0.6662 -1.1641
  687MOL0     C94734   4.515   3.531   9.280 -0.9476  0.2459 -0.2470
  687MOL0     C94735   4.611   3.509   9.386  0.5005 -0.2554  0.1704
  687MOL0     C94736   4.715   3.394   9.377  0.5289 -0.6547  0.3246
  687MOL0     H94737   4.983   3.312   9.623 -0.3269 -0.2151  0.4861
  687MOL0     H94738   5.175   3.294   9.768  0.4807  1.4277  0.5674
  687MOL0     H94739   5.328   3.270   9.939  0.1506  0.1106 -2.3398
  687MOL0     H94740   5.382   3.363  10.070 -0.1864  4.3645  0.1738
  687MOL0     H94741   5.508   3.428   9.891 -1.3631 -3.1876 -0.2892
  687MOL0     H94742   5.371   3.456   9.788  1.7069 -4.5637 -0.0459
  687MOL0     H94743   5.284   3.644   9.984  0.2852  3.3049 -0.0042
  687MOL0     H94744   5.440   3.620  10.039 -1.5147  1.8995 -0.6667
  687MOL0     H94745   5.539   3.713   9.828 -1.0198 -0.8573 -4.1923
  687MOL0     H94746   5.382   3.693   9.755 -0.0471  2.7439 -0.5811
  687MOL0     H94747   5.430   3.924   9.811 -2.3503 -1.0409 -0.7594
  687MOL0     H94748   5.458   3.892   9.990 -0.5230  1.1365  0.9564
  687MOL0     H94749   5.211   3.830  10.004  0.0812  0.0200 -0.5284
  687MOL0     H94750   5.248   4.005   9.966  0.5976  0.8856 -0.6735
  687MOL0     H94751   5.049   3.905   9.848 -1.2539 -0.5413 -1.6125
  687MOL0     H94752   5.158   3.810   9.747 -2.0180  0.9343 -0.6668
  687MOL0     H94753   5.273   4.028   9.701  0.5473 -0.5542  0.3760
  687MOL0     H94754   5.127   3.979   9.624  2.5904 -1.8934  0.0252
  687MOL0     H94755   5.275   4.227   9.879 -1.0597 -0.2457  0.7745
  687MOL0     H94756   4.985   4.511   9.937  3.3338  4.3242 -0.7761
  687MOL0     H94757   5.147   4.500   9.911  1.4689 -2.2238 -0.7441
  687MOL0     H94758   5.191   4.346  10.100  0.3040  1.3250 -3.9451
  687MOL0     H94759   5.114   4.506  10.162  1.2530 -0.1567 -1.4266
  687MOL0     H94760   4.959   4.415  10.254  1.2410 -0.8500  1.1300
  687MOL0     H94761   4.906   4.335  10.107  1.1253  2.1694 -2.7174
  687MOL0     H94762   4.941   4.147  10.258  0.1916 -1.6533 -0.3849
  687MOL0     H94763   5.089   4.151  10.156  1.4118  0.4173  1.4079
  687MOL0     H94764   5.265   4.362  10.469  0.7554 -3.0669  0.7038
  687MOL0     H94765   5.299   4.511  10.768  0.7363 -1.0193  0.8859
  687MOL0     H94766   5.229   4.639  10.677  0.5684 -0.8307  5.6049
  687MOL0     H94767   5.342   4.528  10.593  1.7351 -0.0219  2.9208
  687MOL0     H94768   4.771   4.443  11.024  2.6297  1.5538 -4.8433
  687MOL0     H94769   4.702   4.528  11.240  0.9341 -2.8028  0.0154
  687MOL0     H94770   4.679   4.620  11.473 -0.5715  2.7590  0.3220
  687MOL0     H94771   4.830   4.517  11.477  2.8995  1.2426 -0.6526
  687MOL0     H94772   4.775   4.785  11.618 -2.3104 -0.7789  0.7942
  687MOL0     H94773   4.747   4.634  11.697 -1.5452 -1.3129 -2.4368
  687MOL0     H94774   5.032   4.708  11.619  0.6147 -1.2423 -0.4014
  687MOL0     H94775   4.981   4.563  11.703  0.1720  1.3984  1.0124
  687MOL0     H94776   4.879   4.685  11.882 -2.6084 -0.0023 -1.9896
  687MOL0     H94777   4.919   4.837  11.794 -2.4155  0.0392  2.2870
  687MOL0     H94778   5.167   4.733  11.829 -1.4581  0.3395 -1.2602
  687MOL0     H94779   5.080   4.807  11.971  0.8342 -0.0995 -0.3759
  687MOL0     H94780   5.197   4.570  11.982 -0.3992 -3.9179  0.6645
  687MOL0     H94781   5.055   4.508  11.888 -3.3972  2.4952 -1.6202
  687MOL0     H94782   4.904   4.578  12.065  1.0360  2.8550 -1.8997
  687MOL0     H94783   5.040   4.641  12.163 -0.2260  0.7205  0.5525
  687MOL0     H94784   4.969   4.354  12.107 -1.5736  0.3533  0.4059
  687MOL0     H94785   4.991   4.446  12.261  1.5249  1.4209 -0.0363
  687MOL0     H94786   5.080   4.749  11.269 -0.7166 -0.4326  1.9560
  687MOL0     H94787   5.142   4.632  11.046 -1.1089  1.0255 -1.2378
  687MOL0     H94788   4.831   4.360  10.683 -0.0126  0.8433 -0.9165
  687MOL0     H94789   4.875   4.217  10.483 -4.3454  2.5252  2.2585
  687MOL0     H94790   4.995   3.589  10.022  1.8287 -2.9416  2.5198
  687MOL0     H94791   4.804   3.604   9.859  0.9178  0.4485  0.8431
  687MOL0     H94792   4.492   3.754   9.584 -1.3568  0.3377  0.6869
  687MOL0     H94793   4.356   3.805   9.385  0.0336 -1.3403  0.4386
  687MOL0     H94794   4.194   3.789   9.191  0.4389  1.7818  0.6267
  687MOL0     H94795   4.331   3.868   9.175 -2.4721  1.0026 -0.0403
  687MOL0     H94796   4.200   3.881   8.971 -0.5065  0.3664 -0.2664
  687MOL0     H94797   4.204   3.701   8.960 -0.9719 -0.2462  4.1482
  687MOL0     H94798   4.445   3.859   9.005 -0.3647 -0.3318  0.2566
  687MOL0     H94799   4.432   3.703   8.924 -5.1616 -2.5210  1.1297
  687MOL0     H94800   4.501   3.898   8.787  0.3106 -1.6473  3.1159
  687MOL0     H94801   4.359   3.990   8.840 -0.0166 -0.0207  1.5223
  687MOL0     H94802   4.174   3.740   8.557  0.1578  0.1900 -1.7927
  687MOL0     H94803   4.512   3.476   9.186  0.7004  0.9319 -0.7395
  687MOL0     H94804   4.689   3.314   9.446 -1.1639  0.6836  1.3560
  687MOL0     H94805   4.716   3.364   9.271 -0.8644  1.7876 -0.4802
  687MOL0     H94806   4.817   3.426   9.399  0.1606  0.1731  0.9067
  688MOL0     O94807   3.566   6.048   4.117  0.1192  0.2828  1.7099
  688MOL0     C94808   3.665   5.974   4.109  0.0504  0.4608  0.4020
  688MOL0     O94809   3.674   5.839   4.107 -0.1519  0.7542 -0.0470
  688MOL0     C94810   3.555   5.780   4.093 -0.3113  0.2288  0.7635
  688MOL0     C94811   3.489   5.786   3.966 -1.2435  0.1558 -0.9734
  688MOL0     C94812   3.365   5.719   3.948 -0.4375  0.6613  0.7784
  688MOL0     C94813   3.301   5.659   4.058 -0.2099 -1.2710 -0.1101
  688MOL0     O94814   3.183   5.594   4.037 -0.0377  0.4835  0.3375
  688MOL0     C94815   3.138   5.484   4.121  0.1271  0.0532 -0.1363
  688MOL0     C94816   2.999   5.530   4.173 -0.4596  0.4659  0.7598
  688MOL0     C94817   2.881   5.550   4.077 -0.9420  0.3521 -0.2619
  688MOL0     C94818   2.834   5.407   4.045  0.2926 -0.1623  0.6699
  688MOL0     C94819   2.706   5.429   3.965 -1.1208 -0.1599  0.4753
  688MOL0     C94820   2.662   5.310   3.876 -0.3044  0.1596  0.5763
  688MOL0     C94821   2.659   5.176   3.942  0.3295 -0.1649 -0.0985
  688MOL0     C94822   2.528   5.168   4.032  0.5535 -0.2187 -0.1047
  688MOL0     N94823   2.544   5.056   4.124 -0.6096 -0.6023 -0.2896
  688MOL0     C94824   2.529   4.929   4.083  0.7284  0.8332 -0.0020
  688MOL0     C94825   2.528   4.847   4.194 -0.2028  0.0182 -1.1900
  688MOL0     C94826   2.520   4.698   4.199 -0.6468 -0.2551 -0.2826
  688MOL0     C94827   2.387   4.650   4.262  0.1781  0.0079  0.9558
  688MOL0     C94828   2.301   4.563   4.168  0.3081 -0.5388 -0.3477
  688MOL0     C94829   2.168   4.539   4.235 -0.4490 -0.0796 -0.1409
  688MOL0     O94830   2.099   4.441   4.144 -0.8771 -0.4735  0.3136
  688MOL0     C94831   1.977   4.412   4.184  0.8061  0.7114  0.8457
  688MOL0     C94832   1.941   4.273   4.173  0.6814  0.0645  0.0117
  688MOL0     C94833   1.813   4.223   4.216  0.6060 -0.0811 -0.2679
  688MOL0     C94834   1.794   4.076   4.212  0.6417  0.3092  0.2041
  688MOL0     C94835   1.724   4.311   4.271 -0.4285  0.1762 -0.2958
  688MOL0     C94836   1.591   4.257   4.312 -0.2656  0.1092 -0.3684
  688MOL0     O94837   1.568   4.261   4.445  0.1499 -0.1950 -0.0605
  688MOL0     C94838   1.451   4.220   4.503  0.6911 -0.2383  0.2707
  688MOL0     C94839   1.459   4.186   4.641  0.4476  0.7368  0.8274
  688MOL0     C94840   1.347   4.144   4.713 -0.8671  0.1220 -0.1959
  688MOL0     C94841   1.222   4.146   4.675  0.6475 -0.1545  0.9132
  688MOL0     O94842   1.129   4.125   4.769 -0.1113 -0.8478  0.1977
  688MOL0     C94843   0.989   4.128   4.729  0.1794 -1.7157  0.2816
  688MOL0     C94844   0.911   4.165   4.856  0.2091  0.6736  0.0802
  688MOL0     C94845   0.762   4.188   4.826  0.3046  0.9640  0.5318
  688MOL0     C94846   0.695   4.050   4.832  0.8447  0.3737  0.4392
  688MOL0     C94847   0.532   4.082   4.802  0.5981  0.6434  0.1092
  688MOL0     C94848   0.457   4.145   4.920  0.2873 -0.2671 -0.4361
  688MOL0     C94849   0.315   4.191   4.885  0.6652 -1.5052  0.1147
  688MOL0     C94850   0.217   4.078   4.880 -0.5802 -0.2703  0.3329
  688MOL0    Cl94851   0.067   4.109   4.783 -0.2295 -0.1649 -0.9173
  688MOL0     C94852   1.203   4.170   4.534 -0.0067  1.0676 -0.9240
  688MOL0     C94853   1.318   4.202   4.455  0.9824  0.7360 -0.6129
  688MOL0     O94854   1.501   4.249   4.228 -0.0173  0.3440 -0.0101
  688MOL0     C94855   1.744   4.443   4.275 -0.0041 -0.0296  0.6793
  688MOL0     C94856   1.870   4.492   4.215  0.4967 -0.3548 -0.0408
  688MOL0     N94857   2.548   4.934   4.300  0.0830 -0.2778  0.0220
  688MOL0     N94858   2.546   5.063   4.258  0.2088 -0.2329  0.2694
  688MOL0     C94859   3.362   5.655   4.185 -0.2818  0.2067 -0.8336
  688MOL0     C94860   3.488   5.721   4.200  0.4195 -0.8420  0.7452
  688MOL0     C94861   3.800   6.038   4.095 -0.4844 -0.3006  0.4209
  688MOL0     C94862   3.901   5.983   4.174 -0.6166 -0.4854 -1.3245
  688MOL0     C94863   4.028   6.042   4.160 -0.3809  0.6011  1.0561
  688MOL0     C94864   4.058   6.138   4.065 -0.2605 -0.5573 -0.4896
  688MOL0     O94865   4.187   6.191   4.067 -0.2382  0.3214  0.1078
  688MOL0     C94866   4.198   6.335   4.043  0.8121  0.2015 -0.3194
  688MOL0     C94867   4.261   6.362   3.904  0.3153  0.0054  0.3334
  688MOL0     C94868   4.334   6.504   3.888 -0.3307  0.7575 -0.0060
  688MOL0     C94869   4.467   6.515   3.973 -0.3234  0.1349 -0.1272
  688MOL0     C94870   4.445   6.616   4.080  0.0469 -0.0415 -0.2028
  688MOL0     C94871   4.435   6.696   4.171  0.2498  0.2902 -1.1491
  688MOL0     C94872   3.958   6.187   3.984 -1.0313 -0.7375 -0.5032
  688MOL0     C94873   3.833   6.136   3.993  0.9029  0.3708 -0.2371
  688MOL0     C94874   3.735   6.200   3.898  0.5820 -0.6485  0.2825
  688MOL0     H94875   3.538   5.848   3.893 -1.4957  0.6714 -0.7100
  688MOL0     H94876   3.320   5.728   3.849 -1.7837  2.0649  1.4771
  688MOL0     H94877   3.207   5.454   4.200  2.5497  1.4883 -1.5748
  688MOL0     H94878   3.118   5.399   4.056 -2.0986  0.2111  0.2591
  688MOL0     H94879   2.968   5.456   4.248  0.8386  1.6503  2.5305
  688MOL0     H94880   3.027   5.623   4.224  4.6964  0.4567 -1.4566
  688MOL0     H94881   2.800   5.608   4.123  0.2882  0.7868  1.4847
  688MOL0     H94882   2.924   5.601   3.990  1.2526  0.5425  0.8562
  688MOL0     H94883   2.917   5.364   3.987  0.6399  0.5085  0.6656
  688MOL0     H94884   2.807   5.349   4.133 -0.5894 -2.3631 -0.9533
  688MOL0     H94885   2.725   5.513   3.897  0.5744 -1.2537 -0.4706
  688MOL0     H94886   2.634   5.466   4.039 -2.2339 -1.0989 -0.1142
  688MOL0     H94887   2.561   5.325   3.837 -0.0369 -3.0497 -1.7255
  688MOL0     H94888   2.725   5.306   3.787 -0.8448 -0.9489  0.2192
  688MOL0     H94889   2.749   5.156   4.000 -0.8184 -0.2497  1.7149
  688MOL0     H94890   2.655   5.094   3.869 -0.7997 -1.3385  1.2105
  688MOL0     H94891   2.508   5.254   4.096 -0.8716 -2.0277  2.0218
  688MOL0     H94892   2.439   5.149   3.972  1.5819  0.5182 -1.9428
  688MOL0     H94893   2.530   4.893   3.981  2.0233 -1.1428  0.6612
  688MOL0     H94894   2.591   4.647   4.265 -2.1585  0.5382  2.0936
  688MOL0     H94895   2.533   4.657   4.098  1.2192 -1.0176  0.2241
  688MOL0     H94896   2.400   4.583   4.348 -1.1701 -4.6520 -2.0593
  688MOL0     H94897   2.328   4.736   4.293 -0.6582 -0.2104 -0.0020
  688MOL0     H94898   2.281   4.609   4.071  0.2086  2.8912  1.1585
  688MOL0     H94899   2.348   4.465   4.158 -2.2092 -2.2203  2.5898
  688MOL0     H94900   2.178   4.499   4.336 -1.0436 -0.8532 -0.3789
  688MOL0     H94901   2.114   4.634   4.245  0.7227  0.8895 -2.4134
  688MOL0     H94902   2.003   4.203   4.120  2.6937  1.2618  0.6854
  688MOL0     H94903   1.707   4.056   4.275 -1.0821 -0.1605 -2.1899
  688MOL0     H94904   1.882   4.030   4.257  0.3269  0.3368  0.8627
  688MOL0     H94905   1.763   4.045   4.112  1.7324 -2.4539  0.6211
  688MOL0     H94906   1.555   4.195   4.690  1.1482 -0.5078 -0.2488
  688MOL0     H94907   1.358   4.114   4.817 -0.3776  3.0933  0.6999
  688MOL0     H94908   0.964   4.210   4.661 -1.1915 -1.4669  1.0319
  688MOL0     H94909   0.946   4.039   4.683 -1.0888 -0.8764 -0.2319
  688MOL0     H94910   0.922   4.099   4.942 -0.3711  1.2848  0.6423
  688MOL0     H94911   0.948   4.261   4.892 -0.6797  1.3956 -0.8511
  688MOL0     H94912   0.746   4.239   4.730 -0.4332 -1.0060 -0.4343
  688MOL0     H94913   0.723   4.244   4.912 -2.9382  0.4460 -0.4409
  688MOL0     H94914   0.698   4.005   4.932  0.9331  0.5410  0.5136
  688MOL0     H94915   0.739   3.986   4.756 -0.7179  0.7508 -0.8407
  688MOL0     H94916   0.536   4.158   4.723  2.0249  0.7125  0.2182
  688MOL0     H94917   0.471   3.998   4.768 -0.8803  1.6748  0.1098
  688MOL0     H94918   0.514   4.232   4.951  1.0822  0.4000 -3.4480
  688MOL0     H94919   0.446   4.079   5.007  1.9922 -1.1307 -0.8180
  688MOL0     H94920   0.304   4.255   4.797 -0.7079  0.9049  1.9186
  688MOL0     H94921   0.290   4.256   4.969  1.5382 -0.4215 -0.4303
  688MOL0     H94922   0.199   4.046   4.983  3.2723 -0.5981  1.0788
  688MOL0     H94923   0.255   3.989   4.829  0.5383  0.4859 -0.1973
  688MOL0     H94924   1.104   4.177   4.490 -0.6437 -0.0678  0.2663
  688MOL0     H94925   1.291   4.210   4.350  4.2927 -0.4506 -1.7053
  688MOL0     H94926   1.666   4.515   4.295  0.9788  0.7207  1.9932
  688MOL0     H94927   1.873   4.598   4.192  2.2137 -0.5652 -0.8724
  688MOL0     H94928   3.312   5.603   4.266 -0.0543 -0.2983 -1.0166
  688MOL0     H94929   3.520   5.716   4.303 -1.1373  1.9199  1.4562
  688MOL0     H94930   3.882   5.907   4.249  2.3345  0.6356  0.7488
  688MOL0     H94931   4.102   6.019   4.236 -0.6447  1.0838  1.4677
  688MOL0     H94932   4.097   6.377   4.039  0.6379 -0.1196  0.5029
  688MOL0     H94933   4.261   6.361   4.129  0.7612 -1.7784  0.3835
  688MOL0     H94934   4.175   6.361   3.836 -0.5249  3.9334  1.0741
  688MOL0     H94935   4.335   6.291   3.867 -0.8895  0.9084 -4.4483
  688MOL0     H94936   4.365   6.501   3.783  2.2222  1.6960  0.6645
  688MOL0     H94937   4.268   6.589   3.903 -1.1529  0.2385 -0.5522
  688MOL0     H94938   4.535   6.557   3.899 -0.5276 -0.9729 -0.9653
  688MOL0     H94939   4.505   6.417   4.002  1.8702  0.6958 -0.9366
  688MOL0     H94940   4.416   6.764   4.251 -0.7374 -2.3194  1.0004
  688MOL0     H94941   3.984   6.262   3.910 -2.2154  0.9987  0.7390
  688MOL0     H94942   3.633   6.163   3.917  0.3628 -0.6567 -0.8794
  688MOL0     H94943   3.721   6.308   3.908  2.2061  0.0355 -3.4682
  688MOL0     H94944   3.773   6.189   3.797  0.2259 -1.6020  0.2451
  689MOL0     O94945   9.140   9.426   6.164 -0.2862 -0.2387 -0.6965
  689MOL0     C94946   9.029   9.406   6.130  0.2198 -0.7722 -0.6672
  689MOL0     O94947   8.979   9.287   6.091  0.0204 -0.1889  0.2687
  689MOL0     C94948   9.051   9.174   6.082 -0.7166  0.6053  0.3815
  689MOL0     C94949   9.184   9.163   6.022 -0.1614  0.3621  0.3288
  689MOL0     C94950   9.252   9.043   6.008  0.8531 -0.8605 -0.3913
  689MOL0     C94951   9.207   8.926   6.066 -0.5063  0.9757 -0.4976
  689MOL0     O94952   9.285   8.812   6.044  0.1679 -0.6094 -0.3367
  689MOL0     C94953   9.296   8.723   6.154 -0.2462 -0.8466  0.9136
  689MOL0     C94954   9.378   8.765   6.275 -1.4760 -0.3781 -0.1725
  689MOL0     C94955   9.530   8.784   6.244  0.9936 -0.2683  0.1073
  689MOL0     C94956   9.627   8.682   6.311  0.0052 -0.3442 -0.3881
  689MOL0     C94957   9.766   8.748   6.345 -0.5762 -0.6893  0.9893
  689MOL0     C94958   9.868   8.673   6.425 -1.0530  0.7179 -0.1234
  689MOL0     C94959   9.984   8.759   6.467  1.5564 -0.8498 -0.5908
  689MOL0     C94960  10.097   8.765   6.363  0.2951 -0.0281 -1.2864
  689MOL0     N94961  10.230   8.776   6.430 -0.7503 -0.7120 -0.2603
  689MOL0     C94962  10.258   8.818   6.553 -1.7177 -0.0552 -0.0705
  689MOL0     C94963  10.393   8.830   6.552 -0.1641 -0.7176  0.3462
  689MOL0     C94964  10.488   8.886   6.656  0.2779  0.1063 -0.6755
  689MOL0     C94965  10.508   9.037   6.661 -0.9121  0.1825 -0.7037
  689MOL0     C94966  10.368   9.118   6.677  0.5585  0.2837 -0.3056
  689MOL0     C94967  10.389   9.269   6.684 -0.0751  0.6107  0.8406
  689MOL0     O94968  10.265   9.346   6.687 -0.1365  0.2297 -0.2077
  689MOL0     C94969  10.242   9.437   6.593 -0.1041  0.2856 -0.7456
  689MOL0     C94970  10.342   9.532   6.567 -0.5027 -0.0450  0.6617
  689MOL0     C94971  10.328   9.624   6.458  0.2059  0.9510 -0.2588
  689MOL0     C94972  10.438   9.711   6.431 -0.0790  0.1000 -0.8840
  689MOL0     C94973  10.205   9.620   6.380  0.2191  0.1140 -0.0289
  689MOL0     C94974  10.173   9.692   6.254 -0.5657  0.4047  0.2416
  689MOL0     O94975  10.046   9.752   6.244  0.4224  0.6604 -0.6295
  689MOL0     C94976  10.009   9.822   6.130  0.2830 -0.1380 -0.1268
  689MOL0     C94977  10.080   9.928   6.090 -0.2851  0.0537  0.3127
  689MOL0     C94978  10.062   9.975   5.965  0.1374 -0.2690  0.6315
  689MOL0     C94979   9.965   9.924   5.872  0.4362  1.0551 -0.5458
  689MOL0     O94980   9.946   9.992   5.755  0.1610 -0.1506 -0.5069
  689MOL0     C94981   9.829   9.976   5.686  0.2558 -0.8759 -0.5357
  689MOL0     C94982   9.830  10.099   5.590  0.8412  0.9692  0.0120
  689MOL0     C94983   9.693  10.108   5.520  0.2872  0.0184 -0.5213
  689MOL0     C94984   9.671  10.211   5.404 -0.7371  0.4982  0.9208
  689MOL0     C94985   9.550  10.189   5.325  0.2385  0.9420  0.5007
  689MOL0     C94986   9.533  10.293   5.212  0.0428 -0.2638 -0.3501
  689MOL0     C94987   9.415  10.265   5.110  0.4495  0.0411  0.4965
  689MOL0     C94988   9.452  10.322   4.973  0.0456  0.4648  0.4492
  689MOL0    Cl94989   9.487  10.503   4.974  0.2526  0.1399  0.0323
  689MOL0     C94990   9.883   9.816   5.922 -0.2682  0.7827 -1.0707
  689MOL0     C94991   9.901   9.773   6.050 -1.0807 -0.1875  0.7701
  689MOL0     O94992  10.258   9.700   6.166 -0.5426 -0.4025  0.3411
  689MOL0     C94993  10.105   9.536   6.419  0.2064  0.2533  0.1557
  689MOL0     C94994  10.118   9.440   6.526  0.0514 -0.4230  0.0030
  689MOL0     N94995  10.440   8.785   6.434  0.1578  0.4533  0.6198
  689MOL0     N94996  10.341   8.747   6.363  0.0173 -0.0756 -0.0148
  689MOL0     C94997   9.093   8.937   6.146  0.2386 -0.8588 -0.1971
  689MOL0     C94998   9.005   9.057   6.139  0.0386 -0.4156  0.2614
  689MOL0     C94999   8.941   9.530   6.129 -0.7569 -0.2353 -0.4908
  689MOL0     C95000   8.961   9.620   6.238  0.8592 -1.0303 -0.5298
  689MOL0     C95001   8.889   9.743   6.236  0.4322  0.1292  0.4126
  689MOL0     C95002   8.789   9.774   6.138  0.0809  0.0127  0.0583
  689MOL0     O95003   8.712   9.886   6.128 -0.1757 -0.2544 -0.2639
  689MOL0     C95004   8.742   9.996   6.214  0.0950 -0.3131  0.3828
  689MOL0     C95005   8.678  10.128   6.162  0.0021  0.6328  0.2778
  689MOL0     C95006   8.723  10.253   6.232 -0.1073 -0.2136  0.1929
  689MOL0     C95007   8.631  10.374   6.211  0.2423  0.1353 -0.2544
  689MOL0     C95008   8.690  10.490   6.288  0.2165  0.2781  0.2773
  689MOL0     C95009   8.742  10.561   6.372 -0.7383  0.1549  0.8151
  689MOL0     C95010   8.776   9.680   6.036  0.3867  0.6898  0.5681
  689MOL0     C95011   8.852   9.560   6.023  0.3722  0.2261 -0.5327
  689MOL0     C95012   8.832   9.476   5.901 -0.5532 -0.2718 -0.1809
  689MOL0     H95013   9.239   9.251   5.990  0.2132  0.3798  1.0133
  689MOL0     H95014   9.354   9.051   5.973  0.7789 -3.1013 -1.2917
  689MOL0     H95015   9.350   8.633   6.123  0.9506  0.5284 -1.3187
  689MOL0     H95016   9.199   8.691   6.192 -2.3024  3.1434 -0.4338
  689MOL0     H95017   9.349   8.864   6.312  0.1428 -0.9645  3.0649
  689MOL0     H95018   9.353   8.701   6.359 -1.6777  0.1081  0.1394
  689MOL0     H95019   9.555   8.788   6.138  2.5334 -0.6384  0.4385
  689MOL0     H95020   9.561   8.877   6.293 -1.1046 -0.1890  1.3994
  689MOL0     H95021   9.601   8.640   6.409  0.2596  0.9684  0.2590
  689MOL0     H95022   9.642   8.601   6.238  2.9580  0.3378 -0.6568
  689MOL0     H95023   9.741   8.830   6.413  1.6797  0.4739  0.5148
  689MOL0     H95024   9.806   8.806   6.261 -0.8040 -0.3195  1.1328
  689MOL0     H95025   9.813   8.645   6.515  1.7600  0.2910  1.5773
  689MOL0     H95026   9.899   8.578   6.381  0.2031  0.8728  0.3818
  689MOL0     H95027  10.018   8.708   6.558 -1.2679  0.4699  1.3481
  689MOL0     H95028   9.945   8.859   6.484 -0.3367 -1.1610 -2.7099
  689MOL0     H95029  10.099   8.666   6.316  4.0025 -2.1043  2.5144
  689MOL0     H95030  10.080   8.837   6.283 -0.9322  0.5581 -0.5294
  689MOL0     H95031  10.194   8.840   6.638  0.3046  0.6615  1.3366
  689MOL0     H95032  10.584   8.835   6.643  0.0115 -0.0539 -2.2314
  689MOL0     H95033  10.453   8.849   6.752  0.9451 -3.5018 -1.6790
  689MOL0     H95034  10.573   9.054   6.747  1.3923  2.7930 -2.8103
  689MOL0     H95035  10.564   9.063   6.572  1.2607 -2.5942 -0.2904
  689MOL0     H95036  10.316   9.092   6.584  0.3019 -1.0168  0.1907
  689MOL0     H95037  10.305   9.095   6.763 -1.7045  2.7897 -1.1633
  689MOL0     H95038  10.467   9.286   6.760 -0.1344 -3.4188  2.0548
  689MOL0     H95039  10.430   9.289   6.585 -1.0063  0.3379  0.3926
  689MOL0     H95040  10.434   9.538   6.625 -0.5661  0.7544  0.6875
  689MOL0     H95041  10.525   9.655   6.396  0.2443  0.5924 -0.8851
  689MOL0     H95042  10.463   9.754   6.529 -1.9090  2.3901 -1.3269
  689MOL0     H95043  10.421   9.794   6.362 -1.6506  3.7230  3.4031
  689MOL0     H95044  10.152   9.984   6.149  0.0783 -0.3731  0.2801
  689MOL0     H95045  10.119  10.064   5.940  2.2835 -1.8934 -0.5738
  689MOL0     H95046   9.836   9.883   5.628  0.4010 -0.6919 -0.8167
  689MOL0     H95047   9.747   9.977   5.758  3.0924 -0.3203  3.0279
  689MOL0     H95048   9.842  10.189   5.650  1.1595  0.7375  0.2967
  689MOL0     H95049   9.911  10.095   5.517  0.7539 -0.3754 -0.0355
  689MOL0     H95050   9.607  10.143   5.577 -0.4555 -0.1817 -1.4997
  689MOL0     H95051   9.674  10.013   5.469 -0.8801  1.0971 -2.2360
  689MOL0     H95052   9.762  10.209   5.343 -1.4095 -3.8505 -0.2462
  689MOL0     H95053   9.683  10.308   5.453 -0.9514  0.9012  0.1994
  689MOL0     H95054   9.559  10.090   5.279 -0.0839  0.7588  0.8267
  689MOL0     H95055   9.462  10.205   5.388  1.2728  1.0174  1.9748
  689MOL0     H95056   9.630  10.291   5.162 -0.5265  1.0048 -1.5740
  689MOL0     H95057   9.524  10.396   5.248  1.6454 -0.3506  0.4078
  689MOL0     H95058   9.315  10.299   5.139  0.1141  2.4666 -2.8766
  689MOL0     H95059   9.405  10.157   5.094 -0.3371  0.3708 -1.6758
  689MOL0     H95060   9.374  10.306   4.898 -0.4321 -1.6532  1.3056
  689MOL0     H95061   9.542  10.269   4.943 -0.5521  0.1800 -0.9160
  689MOL0     H95062   9.795   9.780   5.869 -0.0599 -3.2107  0.9044
  689MOL0     H95063   9.838   9.688   6.076 -3.7078  0.6358 -2.1938
  689MOL0     H95064  10.012   9.530   6.364  0.1526 -5.3961  0.2879
  689MOL0     H95065  10.046   9.361   6.544 -0.7394 -0.6454 -3.5540
  689MOL0     H95066   9.049   8.847   6.187 -0.5257 -0.4444 -0.0755
  689MOL0     H95067   8.899   9.058   6.162 -0.0470 -0.7511 -0.1069
  689MOL0     H95068   9.012   9.608   6.332 -2.9801  2.2347  2.3305
  689MOL0     H95069   8.903   9.814   6.318  2.4809  1.2343 -0.8256
  689MOL0     H95070   8.710   9.974   6.316  2.3782  0.7102  1.3967
  689MOL0     H95071   8.851  10.006   6.212  0.1767 -1.2219 -1.0976
  689MOL0     H95072   8.572  10.109   6.182  0.5456 -2.7728  0.5003
  689MOL0     H95073   8.700  10.147   6.056  1.1746  2.5720  0.8176
  689MOL0     H95074   8.728  10.228   6.338 -1.5417 -2.2230 -0.1428
  689MOL0     H95075   8.821  10.280   6.192 -1.8880  3.9709 -1.9776
  689MOL0     H95076   8.531  10.354   6.252  0.2874  1.1637  0.4205
  689MOL0     H95077   8.608  10.398   6.107 -1.5570 -0.9956 -0.1709
  689MOL0     H95078   8.774  10.618   6.457 -0.6821 -0.4630  1.2143
  689MOL0     H95079   8.708   9.709   5.956  0.9593 -2.7683 -1.3827
  689MOL0     H95080   8.773   9.393   5.941  0.4562 -1.5205 -1.1908
  689MOL0     H95081   8.775   9.519   5.818 -2.2902  0.5155  1.3675
  689MOL0     H95082   8.930   9.445   5.862 -1.0454 -0.9522 -0.8944
  690MOL0     O95083   7.665   3.810   8.759 -0.0093 -0.3856  0.2312
  690MOL0     C95084   7.630   3.878   8.855  0.0847 -0.2343 -0.4143
  690MOL0     O95085   7.629   3.852   8.993 -0.1736 -0.8267  1.2601
  690MOL0     C95086   7.656   3.727   9.040  0.1452  0.0829  0.8516
  690MOL0     C95087   7.570   3.631   9.102  0.2651 -0.5733 -0.5762
  690MOL0     C95088   7.618   3.500   9.141 -1.2812 -0.4152  0.0584
  690MOL0     C95089   7.757   3.466   9.134 -1.0582 -0.3863 -0.0825
  690MOL0     O95090   7.814   3.350   9.178  0.6161 -0.1822 -0.7308
  690MOL0     C95091   7.726   3.241   9.180  0.6484 -0.1436 -0.4325
  690MOL0     C95092   7.811   3.118   9.193 -0.0231  0.3575 -0.5862
  690MOL0     C95093   7.723   2.991   9.215 -0.1322  0.7282  1.1101
  690MOL0     C95094   7.785   2.850   9.181  0.5586  0.4702 -0.3402
  690MOL0     C95095   7.911   2.827   9.260  0.1185  0.1709 -0.0194
  690MOL0     C95096   7.899   2.775   9.404  0.1503 -1.1435  0.7584
  690MOL0     C95097   8.036   2.761   9.479 -0.7027 -0.5011  0.4731
  690MOL0     C95098   8.008   2.715   9.625  0.3738 -0.5490 -0.1008
  690MOL0     N95099   8.133   2.719   9.700 -0.6564  0.1974 -0.4753
  690MOL0     C95100   8.227   2.818   9.691 -0.1687  0.8781  0.7566
  690MOL0     C95101   8.344   2.760   9.728  0.2721 -0.1976 -0.5705
  690MOL0     C95102   8.467   2.835   9.734 -0.1708 -0.5672 -0.5068
  690MOL0     C95103   8.566   2.796   9.837  0.8544  0.6046  0.5562
  690MOL0     C95104   8.522   2.853   9.979 -0.1995  0.6216  0.7572
  690MOL0     C95105   8.619   2.815  10.102  0.7441  0.5006  0.1596
  690MOL0     O95106   8.550   2.814  10.228 -0.0306 -0.0139  0.2177
  690MOL0     C95107   8.503   2.937  10.279 -0.6243  0.4168  0.8569
  690MOL0     C95108   8.545   3.061  10.235  0.2283  0.1157 -0.3633
  690MOL0     C95109   8.501   3.181  10.292  0.0862 -0.1651 -0.4382
  690MOL0     C95110   8.587   3.308  10.253  0.7300  0.7436 -0.4520
  690MOL0     C95111   8.413   3.177  10.404  0.2069  0.2013 -0.5402
  690MOL0     C95112   8.367   3.297  10.481 -0.9897 -0.3185  0.3938
  690MOL0     O95113   8.336   3.279  10.610  0.8871 -0.2765 -0.2161
  690MOL0     C95114   8.280   3.397  10.663  0.2386  0.9628 -0.6300
  690MOL0     C95115   8.143   3.434  10.649  0.2961 -0.7063  1.1177
  690MOL0     C95116   8.087   3.548  10.692  1.2915 -0.3789 -1.3671
  690MOL0     C95117   8.170   3.638  10.761 -0.9695 -0.2585 -0.4810
  690MOL0     O95118   8.135   3.763  10.813  0.6433  1.0005 -0.4426
  690MOL0     C95119   8.003   3.807  10.800 -0.2058 -0.0575  0.5782
  690MOL0     C95120   7.997   3.957  10.812 -0.5759 -0.1099 -0.7817
  690MOL0     C95121   8.026   4.038  10.689 -0.3452  0.2895 -0.5973
  690MOL0     C95122   8.032   4.190  10.718  0.2752  0.2824  0.2978
  690MOL0     C95123   8.023   4.260  10.574 -0.4688  0.1568 -0.5907
  690MOL0     C95124   8.052   4.410  10.589 -0.1336  1.0257  0.5649
  690MOL0     C95125   7.996   4.480  10.457 -0.1680 -0.2979  0.0497
  690MOL0     C95126   8.059   4.617  10.451  0.2670 -0.6000 -0.0112
  690MOL0    Cl95127   8.050   4.699  10.293  0.8912 -0.0023  0.2019
  690MOL0     C95128   8.299   3.603  10.790 -0.7750 -1.6459 -0.8842
  690MOL0     C95129   8.365   3.487  10.737  0.8077 -0.1206  0.9814
  690MOL0     O95130   8.366   3.408  10.425  0.5511  0.0240  1.0058
  690MOL0     C95131   8.374   3.049  10.451 -0.3870 -0.2071  0.3151
  690MOL0     C95132   8.415   2.932  10.386  0.2749 -0.0082 -1.0439
  690MOL0     N95133   8.313   2.625   9.755 -0.6096 -0.9093 -0.3770
  690MOL0     N95134   8.190   2.604   9.740  0.4885  0.2547  0.1994
  690MOL0     C95135   7.842   3.571   9.090 -0.3411 -0.7090  0.2619
  690MOL0     C95136   7.788   3.695   9.044  0.2693 -0.3009  1.0164
  690MOL0     C95137   7.578   4.015   8.822 -0.0756 -0.3576  0.2443
  690MOL0     C95138   7.498   4.019   8.705 -0.4694  0.5396 -0.1167
  690MOL0     C95139   7.458   4.138   8.656 -0.3164 -0.5072  0.0942
  690MOL0     C95140   7.487   4.268   8.715  0.2445  0.1776  0.2529
  690MOL0     O95141   7.436   4.388   8.673  0.4514  0.4288 -0.3355
  690MOL0     C95142   7.357   4.400   8.553 -0.3667 -0.2121  0.8606
  690MOL0     C95143   7.337   4.554   8.528 -0.1448  0.8444  1.0746
  690MOL0     C95144   7.459   4.632   8.553 -0.3740 -0.4223  0.2539
  690MOL0     C95145   7.449   4.775   8.501 -0.0087 -0.4013 -1.1447
  690MOL0     C95146   7.484   4.781   8.357  0.2015  0.0324 -0.3746
  690MOL0     C95147   7.505   4.779   8.237 -1.3661  0.7129  0.1130
  690MOL0     C95148   7.545   4.260   8.843  0.0019  0.1442  0.0463
  690MOL0     C95149   7.593   4.138   8.899  1.1065 -0.2386 -0.5232
  690MOL0     C95150   7.675   4.149   9.023 -1.2974 -0.3119 -1.1741
  690MOL0     H95151   7.463   3.650   9.104  0.0569 -1.7648  1.0313
  690MOL0     H95152   7.545   3.433   9.183 -2.3084  0.2300 -0.6426
  690MOL0     H95153   7.678   3.240   9.082 -0.5631 -3.2381  0.0648
  690MOL0     H95154   7.660   3.247   9.267 -0.5594  1.2314 -1.4083
  690MOL0     H95155   7.854   3.101   9.093  1.5394  2.1692 -0.2838
  690MOL0     H95156   7.882   3.128   9.275 -0.0282  0.3451 -0.5802
  690MOL0     H95157   7.689   2.996   9.319 -1.1855 -1.4076  0.9372
  690MOL0     H95158   7.631   2.986   9.155  1.5455  0.1133 -1.5909
  690MOL0     H95159   7.713   2.774   9.212 -0.2362  1.3698  0.0448
  690MOL0     H95160   7.799   2.856   9.073 -1.2709  4.9381 -0.5529
  690MOL0     H95161   7.983   2.907   9.242  1.4015 -0.9987 -0.2761
  690MOL0     H95162   7.953   2.743   9.204 -0.0503 -0.8122  1.2699
  690MOL0     H95163   7.840   2.847   9.461 -1.1616 -0.5514 -1.2178
  690MOL0     H95164   7.851   2.678   9.390  1.3141 -1.6067 -0.1799
  690MOL0     H95165   8.093   2.852   9.460  0.6553 -1.5612 -0.7446
  690MOL0     H95166   8.098   2.676   9.452  2.9433  1.8935  0.5740
  690MOL0     H95167   7.929   2.777   9.669  0.0198 -0.1870 -1.2097
  690MOL0     H95168   7.976   2.610   9.624  1.1303 -0.8376 -2.8931
  690MOL0     H95169   8.208   2.921   9.660 -0.4000  0.9663  1.1904
  690MOL0     H95170   8.444   2.942   9.742 -0.7026 -0.6539 -0.7887
  690MOL0     H95171   8.527   2.824   9.643  1.7122  1.5090  0.3775
  690MOL0     H95172   8.587   2.690   9.827 -0.5025  0.5070 -2.2197
  690MOL0     H95173   8.664   2.836   9.809  1.3063 -0.9204 -0.1472
  690MOL0     H95174   8.510   2.962   9.974 -1.6837  0.4111 -1.0210
  690MOL0     H95175   8.425   2.805   9.995 -0.2249 -1.0643 -3.2356
  690MOL0     H95176   8.645   2.709  10.096 -0.6675  0.1112  0.5857
  690MOL0     H95177   8.717   2.862  10.093  0.8797  0.0384 -0.9260
  690MOL0     H95178   8.633   3.056  10.170  2.2543  1.3500  2.0988
  690MOL0     H95179   8.649   3.274  10.170  0.4516  0.5493 -0.5817
  690MOL0     H95180   8.652   3.339  10.335 -0.6380  0.7334  0.6644
  690MOL0     H95181   8.532   3.393  10.212  0.2022  0.6751  0.0948
  690MOL0     H95182   8.084   3.355  10.604  2.8011 -1.1325 -1.8417
  690MOL0     H95183   7.983   3.576  10.680  0.6274 -1.2414  1.5369
  690MOL0     H95184   7.950   3.789  10.706 -0.0425 -1.4590  0.7282
  690MOL0     H95185   7.933   3.766  10.874 -2.5956  2.7585  0.0394
  690MOL0     H95186   7.894   3.978  10.844 -0.6647 -0.3990 -0.8746
  690MOL0     H95187   8.064   3.989  10.892  0.7007  1.8152 -2.5035
  690MOL0     H95188   7.948   4.010  10.617 -0.2942  0.2535 -0.6381
  690MOL0     H95189   8.120   4.002  10.647 -0.4940 -0.1403 -0.5656
  690MOL0     H95190   8.123   4.213  10.774  1.2394 -1.2151 -0.5952
  690MOL0     H95191   7.942   4.213  10.776  0.8220 -1.4471  1.9176
  690MOL0     H95192   8.089   4.217  10.499  0.5931  1.3777 -0.3912
  690MOL0     H95193   7.921   4.244  10.539 -0.0638  0.7022 -2.0767
  690MOL0     H95194   8.160   4.425  10.601  0.5244 -2.9778  1.0248
  690MOL0     H95195   8.000   4.452  10.675 -1.9661  0.2656 -0.1071
  690MOL0     H95196   7.887   4.478  10.456 -0.2505 -2.4812  2.3135
  690MOL0     H95197   8.034   4.426  10.370 -0.4911  2.0326 -1.6358
  690MOL0     H95198   8.164   4.602  10.476 -0.7551 -1.4923  4.8055
  690MOL0     H95199   8.028   4.687  10.529 -1.0507 -0.3917 -0.6855
  690MOL0     H95200   8.366   3.683  10.820 -3.5080 -0.4729  2.8411
  690MOL0     H95201   8.472   3.477  10.755  1.3463  0.2638 -1.5713
  690MOL0     H95202   8.312   3.031  10.538  0.6407  0.4173  1.2042
  690MOL0     H95203   8.388   2.836  10.428  3.2953  0.2512  1.8853
  690MOL0     H95204   7.948   3.549   9.091 -0.0722 -0.4805 -4.0888
  690MOL0     H95205   7.857   3.771   9.007 -0.2331  1.0807  2.7574
  690MOL0     H95206   7.475   3.935   8.640 -0.9208  1.2630 -0.9252
  690MOL0     H95207   7.396   4.145   8.568 -2.2771 -2.2137  1.2670
  690MOL0     H95208   7.404   4.346   8.471  1.1128  0.9858  0.8719
  690MOL0     H95209   7.265   4.349   8.584  0.9520 -1.7159  2.5473
  690MOL0     H95210   7.263   4.592   8.599 -1.0588 -1.6300  1.5509
  690MOL0     H95211   7.308   4.572   8.424 -2.0428 -0.0388  1.3976
  690MOL0     H95212   7.476   4.635   8.661 -0.8073  0.8254  0.3116
  690MOL0     H95213   7.537   4.580   8.496 -0.4801  0.3896 -0.6762
  690MOL0     H95214   7.512   4.827   8.573 -1.1173 -1.7687  0.8928
  690MOL0     H95215   7.350   4.810   8.533  0.5779 -1.2238  1.8502
  690MOL0     H95216   7.521   4.755   8.134 -1.2185 -2.3784  0.7656
  690MOL0     H95217   7.553   4.352   8.901 -1.6568 -0.9565  2.1449
  690MOL0     H95218   7.662   4.059   9.083 -6.1550  0.9702  0.1262
  690MOL0     H95219   7.780   4.157   8.993 -1.1675  2.5820 -0.3035
  690MOL0     H95220   7.661   4.238   9.086 -1.4668 -0.8780 -0.3919
  691MOL0     O95221   3.183  10.776   9.467 -0.9906 -0.0483  0.2648
  691MOL0     C95222   3.240  10.794   9.360 -1.1909 -0.5033 -0.1073
  691MOL0     O95223   3.373  10.828   9.345  1.2494 -0.3816 -1.1420
  691MOL0     C95224   3.443  10.858   9.455  0.3358  0.0933 -0.3349
  691MOL0     C95225   3.479  10.988   9.475  0.0215 -0.6902  0.0435
  691MOL0     C95226   3.533  11.037   9.590 -0.2724  0.2106 -0.0131
  691MOL0     C95227   3.556  10.950   9.692 -0.4605 -0.2701 -0.0571
  691MOL0     O95228   3.608  11.000   9.808  0.7809 -0.1455  0.9218
  691MOL0     C95229   3.510  11.088   9.879  0.7558 -0.7376 -0.4466
  691MOL0     C95230   3.582  11.174   9.981  0.1999  0.2907  0.4433
  691MOL0     C95231   3.645  11.310   9.922 -0.8533  0.2731  0.2013
  691MOL0     C95232   3.698  11.413  10.029  1.0094  0.5842  0.4775
  691MOL0     C95233   3.838  11.386  10.071  0.3992 -0.1550 -0.0858
  691MOL0     C95234   3.895  11.473  10.184 -0.6057  0.1695  0.1363
  691MOL0     C95235   3.907  11.616  10.139 -0.4403 -0.9520  0.2759
  691MOL0     C95236   3.987  11.690  10.246  0.1632  0.3976 -0.3121
  691MOL0     N95237   3.967  11.832  10.227 -0.7648  0.5624  0.2967
  691MOL0     C95238   3.993  11.887  10.104  0.1855  1.4704 -0.0075
  691MOL0     C95239   3.935  12.010  10.115 -0.7429 -0.6178  0.4823
  691MOL0     C95240   3.917  12.106  10.001 -0.0969  0.6091 -0.9039
  691MOL0     C95241   4.045  12.202   9.993  0.1752 -0.4959  0.3807
  691MOL0     C95242   4.042  12.265   9.854  0.1117  1.0493 -0.4802
  691MOL0     C95243   4.095  12.169   9.746 -0.0879  0.2815 -0.5062
  691MOL0     O95244   4.169  12.223   9.643  0.2517 -0.0938 -0.2063
  691MOL0     C95245   4.104  12.282   9.532 -0.0972  1.0376  0.3046
  691MOL0     C95246   4.190  12.323   9.419 -0.4603 -0.3900  0.1314
  691MOL0     C95247   4.147  12.395   9.306 -0.7330  0.7831 -0.4220
  691MOL0     C95248   4.248  12.435   9.198 -0.0399  0.0989 -0.2797
  691MOL0     C95249   4.011  12.420   9.293 -0.1722 -0.1121  0.2678
  691MOL0     C95250   3.960  12.490   9.178 -0.7738  0.0131  0.5945
  691MOL0     O95251   3.902  12.420   9.071  0.3824  0.0036 -0.3852
  691MOL0     C95252   3.886  12.463   8.935  0.8761  0.6213 -0.5479
  691MOL0     C95253   3.847  12.369   8.848  0.3999  0.7422 -0.1887
  691MOL0     C95254   3.814  12.406   8.711  0.6798  0.8202  0.1763
  691MOL0     C95255   3.822  12.535   8.660  0.0678 -0.8598 -0.1784
  691MOL0     O95256   3.807  12.555   8.525 -0.6096 -0.1684  0.0611
  691MOL0     C95257   3.874  12.668   8.460  0.1162 -1.0863  0.0482
  691MOL0     C95258   3.872  12.641   8.309  0.0578 -0.1311  0.0122
  691MOL0     C95259   3.979  12.534   8.281 -0.2438  0.4499 -0.3046
  691MOL0     C95260   3.955  12.465   8.146  0.4897 -0.6022 -0.5885
  691MOL0     C95261   4.046  12.343   8.127 -0.6530  1.1332 -0.5067
  691MOL0     C95262   4.189  12.400   8.126 -0.2852 -0.3947 -0.5315
  691MOL0     C95263   4.293  12.292   8.077  0.9118  0.1641  0.4056
  691MOL0     C95264   4.336  12.194   8.180 -0.1008 -1.0173 -0.0540
  691MOL0    Cl95265   4.222  12.058   8.175  0.3050 -0.2223  0.0988
  691MOL0     C95266   3.867  12.633   8.754 -0.8748  0.2366  0.2134
  691MOL0     C95267   3.899  12.602   8.891  0.5509 -0.3136 -1.2102
  691MOL0     O95268   3.997  12.606   9.174 -0.1816  0.3300  0.3792
  691MOL0     C95269   3.928  12.402   9.403 -0.4235 -0.6431 -0.4073
  691MOL0     C95270   3.972  12.330   9.527  1.2846 -0.7870  0.0957
  691MOL0     N95271   3.881  12.032  10.239 -0.6539 -0.1126 -0.1417
  691MOL0     N95272   3.898  11.924  10.306  0.3634  0.5635  0.6965
  691MOL0     C95273   3.542  10.814   9.670  0.4663 -0.2316 -0.0720
  691MOL0     C95274   3.478  10.763   9.545  0.6151 -0.2497 -0.2046
  691MOL0     C95275   3.180  10.777   9.223 -0.0562  0.0701 -0.2269
  691MOL0     C95276   3.259  10.799   9.108  0.4166  0.5440 -0.2925
  691MOL0     C95277   3.209  10.755   8.986 -0.3609  0.3043 -0.9369
  691MOL0     C95278   3.084  10.689   8.983 -0.1131  0.2795 -0.2031
  691MOL0     O95279   3.041  10.620   8.870 -0.6281 -0.4276 -0.1223
  691MOL0     C95280   2.981  10.487   8.891  0.0650 -0.4607  0.1642
  691MOL0     C95281   3.007  10.396   8.777 -0.3672  0.3471  1.2728
  691MOL0     C95282   3.145  10.321   8.792  0.3328  0.1012 -0.1553
  691MOL0     C95283   3.155  10.194   8.700  0.6345 -0.6492  0.1600
  691MOL0     C95284   3.291  10.149   8.675 -0.3448 -0.0570  0.2600
  691MOL0     C95285   3.384  10.068   8.650  0.8409  0.0495 -0.4190
  691MOL0     C95286   3.002  10.693   9.094 -0.3048  0.0971  0.6080
  691MOL0     C95287   3.042  10.739   9.214 -0.7235  0.2477 -0.2428
  691MOL0     C95288   2.952  10.730   9.339 -0.3401  0.2257 -0.3093
  691MOL0     H95289   3.442  11.063   9.406  1.1871  0.2536  0.4287
  691MOL0     H95290   3.555  11.141   9.609  1.0418 -0.2532  1.1664
  691MOL0     H95291   3.421  11.037   9.917  0.7819 -1.3968 -1.2204
  691MOL0     H95292   3.462  11.168   9.822  0.9427  1.6162  2.4947
  691MOL0     H95293   3.505  11.208  10.051  0.3707  0.9338  0.3179
  691MOL0     H95294   3.660  11.117  10.034  2.8292  1.4792 -1.9021
  691MOL0     H95295   3.720  11.286   9.845 -2.2399  0.5311 -1.2878
  691MOL0     H95296   3.562  11.367   9.880 -1.4467 -0.5701  0.2065
  691MOL0     H95297   3.692  11.512   9.983  0.4214  1.6260  2.7130
  691MOL0     H95298   3.628  11.414  10.112  1.2695  1.9796  0.7077
  691MOL0     H95299   3.914  11.372   9.993  0.3750 -0.4200 -0.0634
  691MOL0     H95300   3.828  11.289  10.121  2.0297 -0.0490  0.5072
  691MOL0     H95301   3.831  11.459  10.272 -1.3698 -2.4807 -0.7338
  691MOL0     H95302   3.997  11.438  10.200 -1.3462 -1.2996  2.0055
  691MOL0     H95303   3.806  11.656  10.120 -0.6213 -0.9715  1.1341
  691MOL0     H95304   3.956  11.625  10.042  0.6842  3.3923  1.0132
  691MOL0     H95305   3.956  11.653  10.344 -1.2571  3.8731  0.7116
  691MOL0     H95306   4.092  11.677  10.220 -0.4873  0.7446 -3.5281
  691MOL0     H95307   4.030  11.838  10.015 -1.0199 -0.1338  0.3297
  691MOL0     H95308   3.822  12.156  10.021  0.4143  0.4926  2.3901
  691MOL0     H95309   3.901  12.048   9.909 -1.5771 -0.0856 -0.2507
  691MOL0     H95310   4.032  12.271  10.077 -2.1326  0.0717 -0.3526
  691MOL0     H95311   4.137  12.147  10.010  1.7707  0.8485 -2.8945
  691MOL0     H95312   3.941  12.300   9.830  0.7684  1.2389 -3.2382
  691MOL0     H95313   4.117  12.344   9.855  1.5189 -0.2172 -1.1430
  691MOL0     H95314   4.157  12.093   9.795 -0.7900  0.1507  0.1862
  691MOL0     H95315   4.011  12.110   9.708 -1.0020  1.6515 -0.6693
  691MOL0     H95316   4.296  12.299   9.422  0.3469  2.4113 -1.7758
  691MOL0     H95317   4.250  12.536   9.156  2.9584  0.2823  0.0864
  691MOL0     H95318   4.234  12.364   9.116 -2.1521  1.0733 -0.8301
  691MOL0     H95319   4.345  12.423   9.248  1.7609  1.0042 -3.3101
  691MOL0     H95320   3.830  12.275   8.900  3.5477  0.2267  0.1442
  691MOL0     H95321   3.780  12.328   8.644 -0.8850  0.9482  0.7827
  691MOL0     H95322   3.803  12.747   8.484 -1.3359 -1.8927 -1.3153
  691MOL0     H95323   3.968  12.692   8.509  0.8569  2.2627 -2.6509
  691MOL0     H95324   3.773  12.602   8.282  0.7768 -1.7063 -0.4479
  691MOL0     H95325   3.899  12.727   8.247 -0.6519 -1.3484 -2.0562
  691MOL0     H95326   3.975  12.453   8.355  1.4195 -0.4533 -1.1470
  691MOL0     H95327   4.080  12.576   8.271  0.5794 -1.8784 -2.8891
  691MOL0     H95328   3.934  12.530   8.061  0.4958  0.5250  0.2527
  691MOL0     H95329   3.852  12.435   8.165 -0.1754  1.2483 -1.0441
  691MOL0     H95330   4.035  12.269   8.206 -0.6091  1.1580 -0.4768
  691MOL0     H95331   4.019  12.291   8.034 -0.5805 -2.6824  1.4425
  691MOL0     H95332   4.223  12.439   8.223 -0.9310  3.2831 -1.6185
  691MOL0     H95333   4.189  12.484   8.056  0.1065 -3.0979 -4.0802
  691MOL0     H95334   4.373  12.347   8.027  1.6527 -1.1576  0.0730
  691MOL0     H95335   4.247  12.234   7.997 -0.0234 -0.6435  1.4878
  691MOL0     H95336   4.356  12.244   8.275 -1.6418  3.1626 -1.6785
  691MOL0     H95337   4.436  12.158   8.156  2.1319  2.5927  2.8348
  691MOL0     H95338   3.869  12.733   8.712 -0.3503  0.5364  0.9284
  691MOL0     H95339   3.918  12.672   8.972 -2.7088 -2.5615  1.8241
  691MOL0     H95340   3.833  12.453   9.401 -0.0210  0.7975  4.0585
  691MOL0     H95341   3.890  12.330   9.598 -4.3196  1.6449 -5.4163
  691MOL0     H95342   3.574  10.748   9.750  0.0773  2.0366  2.0848
  691MOL0     H95343   3.456  10.657   9.539 -1.7354  0.0431  1.8874
  691MOL0     H95344   3.362  10.835   9.109  0.3112  0.8568 -0.6655
  691MOL0     H95345   3.257  10.774   8.890  0.1313 -1.9485 -1.1787
  691MOL0     H95346   3.016  10.449   8.988 -2.2021  0.3141  1.3540
  691MOL0     H95347   2.872  10.489   8.883 -0.0059  0.7886  1.1823
  691MOL0     H95348   2.997  10.456   8.686  0.4882  1.3455  1.8099
  691MOL0     H95349   2.930  10.319   8.771 -0.9791  0.6705  3.8226
  691MOL0     H95350   3.233  10.384   8.776  0.1377 -0.0402 -1.9230
  691MOL0     H95351   3.145  10.287   8.896 -0.8595 -0.8465 -0.4427
  691MOL0     H95352   3.090  10.211   8.614  1.3044  0.1562 -0.2004
  691MOL0     H95353   3.099  10.112   8.746 -1.7222 -1.7720 -4.1441
  691MOL0     H95354   3.468  10.002   8.644  2.6288  2.0969  0.3018
  691MOL0     H95355   2.908  10.639   9.087 -1.3295  1.9429 -0.8323
  691MOL0     H95356   2.862  10.672   9.317  0.5954 -0.9478 -1.1815
  691MOL0     H95357   3.004  10.672   9.415  1.8762  1.8894 -0.4327
  691MOL0     H95358   2.915  10.827   9.376  0.3170  0.2923  0.1762
  692MOL0     O95359  10.960  10.177   4.877  0.3054  0.4137  0.3506
  692MOL0     C95360  10.846  10.211   4.917  0.4412  0.3425 -0.0362
  692MOL0     O95361  10.805  10.339   4.935  0.4898  0.2066  0.1216
  692MOL0     C95362  10.887  10.440   4.894  0.3413  0.2375 -0.1588
  692MOL0     C95363  10.972  10.501   4.985  0.2741  0.7993  0.0603
  692MOL0     C95364  11.060  10.613   4.940 -0.2378 -0.3794  1.0890
  692MOL0     C95365  11.068  10.642   4.800  0.1895  0.2205 -0.0516
  692MOL0     O95366  11.167  10.736   4.742 -0.0047  0.1969  0.4511
  692MOL0     C95367  11.157  10.873   4.788  1.1484 -0.0137 -0.5484
  692MOL0     C95368  11.293  10.923   4.757  0.8542 -0.6049  0.0473
  692MOL0     C95369  11.326  10.948   4.606  0.2810 -1.1145 -0.2974
  692MOL0     C95370  11.470  10.995   4.568 -0.1962  0.0201 -0.3462
  692MOL0     C95371  11.477  11.130   4.493 -0.1469 -1.1037 -0.3728
  692MOL0     C95372  11.370  11.233   4.534  0.8944 -0.1625  0.6964
  692MOL0     C95373  11.416  11.378   4.492  0.1952 -0.2282 -0.3980
  692MOL0     C95374  11.298  11.477   4.531 -0.3239  0.2790 -0.2184
  692MOL0     N95375  11.200  11.505   4.426  0.5601  0.0394 -0.5566
  692MOL0     C95376  11.232  11.586   4.324 -0.8111  0.5595 -0.2442
  692MOL0     C95377  11.134  11.559   4.230 -0.6062  0.7533 -0.1438
  692MOL0     C95378  11.141  11.617   4.084  0.5463  0.2931 -0.2834
  692MOL0     C95379  11.274  11.613   4.015 -0.3479 -0.1181  0.5122
  692MOL0     C95380  11.359  11.478   4.042 -0.1788 -0.6269  0.1546
  692MOL0     C95381  11.503  11.500   3.983  0.2548 -1.4409  0.0906
  692MOL0     O95382  11.563  11.620   4.048  1.1539  0.5707  0.4779
  692MOL0     C95383  11.695  11.618   4.075 -1.0340  0.4652 -0.1220
  692MOL0     C95384  11.779  11.533   4.007  0.0325  1.4870  0.1329
  692MOL0     C95385  11.913  11.517   4.031 -0.4507 -0.0788 -0.8835
  692MOL0     C95386  11.979  11.418   3.947 -0.8308 -0.1147  0.9536
  692MOL0     C95387  11.959  11.608   4.132 -0.3268 -0.1496  0.0582
  692MOL0     C95388  12.101  11.619   4.169  0.9270 -0.3025 -0.7855
  692MOL0     O95389  12.125  11.723   4.255 -0.1613  1.0289 -0.5231
  692MOL0     C95390  12.243  11.697   4.330 -0.1296 -0.2366  0.6482
  692MOL0     C95391  12.355  11.777   4.302 -0.3050  0.4188 -0.3448
  692MOL0     C95392  12.476  11.736   4.361  0.2723 -0.1332  0.7803
  692MOL0     C95393  12.494  11.628   4.448 -0.6801  0.0677  0.2472
  692MOL0     O95394  12.607  11.590   4.519 -0.0084 -0.0330  0.0954
  692MOL0     C95395  12.725  11.603   4.440  0.0892 -0.6996 -0.1750
  692MOL0     C95396  12.847  11.561   4.517 -0.3436  0.3362 -0.0422
  692MOL0     C95397  12.842  11.408   4.557 -0.9062  0.7150  0.4014
  692MOL0     C95398  12.921  11.365   4.683  1.1448 -0.5245 -0.0408
  692MOL0     C95399  12.890  11.232   4.726 -0.6212  0.6962  0.2568
  692MOL0     C95400  12.958  11.176   4.849 -0.3822 -0.2771 -0.4374
  692MOL0     C95401  12.927  11.024   4.877  0.2594 -0.2600  1.0162
  692MOL0     C95402  13.012  10.962   4.982  1.3988  0.3948  0.0648
  692MOL0    Cl95403  12.965  11.007   5.145  0.1469 -0.1189 -0.3831
  692MOL0     C95404  12.377  11.553   4.478 -0.0597  0.2534  0.0808
  692MOL0     C95405  12.254  11.595   4.422  0.4359 -0.1809  0.0760
  692MOL0     O95406  12.181  11.537   4.126  0.8143  0.8385 -0.6442
  692MOL0     C95407  11.872  11.704   4.187  0.7236  0.0012 -0.8812
  692MOL0     C95408  11.737  11.710   4.168  0.0525 -0.4641 -0.8270
  692MOL0     N95409  11.041  11.476   4.290  1.3610  0.7405 -0.3538
  692MOL0     N95410  11.080  11.445   4.408  0.7049 -0.1564 -0.6523
  692MOL0     C95411  10.968  10.588   4.720  0.5449 -0.2157 -0.0154
  692MOL0     C95412  10.883  10.482   4.762  0.0263 -0.2882  0.4653
  692MOL0     C95413  10.750  10.099   4.938  0.0757  0.3213 -0.1627
  692MOL0     C95414  10.619  10.132   4.980 -0.8598 -0.9587 -0.4022
  692MOL0     C95415  10.527  10.038   5.007 -0.6830  0.1844 -0.7615
  692MOL0     C95416  10.564   9.907   5.015 -0.4177  1.3018  0.9583
  692MOL0     O95417  10.471   9.820   5.067 -0.1624 -0.5911  0.1672
  692MOL0     C95418  10.494   9.688   5.119  0.5383 -0.4239  1.0870
  692MOL0     C95419  10.368   9.636   5.191  0.0746  0.0376 -0.1005
  692MOL0     C95420  10.277   9.560   5.101  0.1381 -0.7669  0.5982
  692MOL0     C95421  10.151   9.509   5.168  0.2407  0.6272 -0.4322
  692MOL0     C95422  10.078   9.603   5.254 -0.0812  0.3039  0.0198
  692MOL0     C95423  10.023   9.686   5.317 -0.1837  0.0971 -1.5182
  692MOL0     C95424  10.688   9.860   4.974 -0.0828 -0.7064  0.1825
  692MOL0     C95425  10.785   9.963   4.934 -0.2962 -0.3745  0.3625
  692MOL0     C95426  10.920   9.900   4.889  0.3468  0.0028 -0.1712
  692MOL0     H95427  10.961  10.486   5.092 -0.9707  1.5947  0.0612
  692MOL0     H95428  11.122  10.664   5.014  0.3868  1.5549 -0.6799
  692MOL0     H95429  11.146  10.879   4.896 -0.2387  1.5690 -0.7417
  692MOL0     H95430  11.074  10.910   4.727 -2.7498 -3.0493  2.3576
  692MOL0     H95431  11.306  11.017   4.811 -0.1689 -1.7119  2.3601
  692MOL0     H95432  11.361  10.851   4.804 -0.4109 -1.0562  1.2543
  692MOL0     H95433  11.310  10.855   4.550  1.1576 -1.7055  0.4059
  692MOL0     H95434  11.255  11.022   4.568  1.1169 -0.3786 -0.4665
  692MOL0     H95435  11.520  11.026   4.661 -2.1994  1.5046  0.3102
  692MOL0     H95436  11.525  10.913   4.520 -1.3199 -1.5032  0.8476
  692MOL0     H95437  11.464  11.124   4.385 -3.2047  1.9835 -0.3666
  692MOL0     H95438  11.571  11.183   4.512 -2.5176  2.6195  2.3000
  692MOL0     H95439  11.278  11.209   4.481 -0.1645  2.0994  1.3721
  692MOL0     H95440  11.346  11.231   4.641  2.7502  0.8272  1.1714
  692MOL0     H95441  11.433  11.391   4.385 -3.4681 -0.0095 -1.0763
  692MOL0     H95442  11.511  11.402   4.542 -0.1562  1.3479 -0.4427
  692MOL0     H95443  11.247  11.440   4.621  0.7495  0.9161  0.6607
  692MOL0     H95444  11.344  11.576   4.537  1.6347 -0.5970 -0.0498
  692MOL0     H95445  11.326  11.639   4.328 -2.0352  3.0139 -1.4402
  692MOL0     H95446  11.099  11.717   4.080 -2.8987 -1.0403 -0.5309
  692MOL0     H95447  11.074  11.558   4.021  0.2035 -0.0120  0.3601
  692MOL0     H95448  11.267  11.630   3.907  0.3431 -2.5481  0.0177
  692MOL0     H95449  11.330  11.697   4.057 -3.1219  0.5784  3.0862
  692MOL0     H95450  11.367  11.437   4.143 -2.7029  1.0977  1.1625
  692MOL0     H95451  11.311  11.402   3.980 -0.7186  2.0364 -2.9886
  692MOL0     H95452  11.553  11.406   4.009 -0.6722 -1.9190  0.1757
  692MOL0     H95453  11.506  11.523   3.876  0.7115  4.7782  1.0646
  692MOL0     H95454  11.737  11.470   3.930 -1.2449  3.5101 -0.8840
  692MOL0     H95455  12.060  11.373   4.004  0.2294  1.6624  0.9489
  692MOL0     H95456  12.021  11.450   3.851 -2.2986 -1.6445 -0.2599
  692MOL0     H95457  11.912  11.336   3.919  1.5285 -1.1205 -2.4206
  692MOL0     H95458  12.349  11.858   4.230  2.6425 -1.0496 -2.4359
  692MOL0     H95459  12.568  11.794   4.360  1.7947 -2.2655  3.4939
  692MOL0     H95460  12.704  11.555   4.345 -1.6687  1.9425 -1.2470
  692MOL0     H95461  12.732  11.711   4.424 -3.5093 -0.1517  0.8947
  692MOL0     H95462  12.927  11.577   4.445  0.0176  0.8913  0.4795
  692MOL0     H95463  12.861  11.620   4.607  0.3040  1.0206 -0.5840
  692MOL0     H95464  12.872  11.343   4.474 -2.3883 -0.1484  0.4960
  692MOL0     H95465  12.738  11.379   4.578 -0.9017  0.1851 -0.2458
  692MOL0     H95466  12.887  11.433   4.762 -2.1514 -1.1267 -0.7666
  692MOL0     H95467  13.029  11.380   4.671  0.8163  1.0772 -1.4233
  692MOL0     H95468  12.781  11.230   4.741 -0.6980 -5.3983  1.5254
  692MOL0     H95469  12.904  11.164   4.641 -0.6386  2.0800 -0.8879
  692MOL0     H95470  12.936  11.236   4.939  1.7674 -1.5756  1.0622
  692MOL0     H95471  13.067  11.187   4.852 -0.2893 -0.8362 -1.4313
  692MOL0     H95472  12.948  10.977   4.780 -0.6585  2.5756 -0.6761
  692MOL0     H95473  12.821  11.011   4.900 -0.1754  3.6884  1.9608
  692MOL0     H95474  13.120  10.975   4.971  1.6205 -1.7196 -0.6820
  692MOL0     H95475  12.996  10.858   4.953  1.7666  0.4862 -0.4714
  692MOL0     H95476  12.369  11.480   4.558 -2.8850 -0.3321 -0.6317
  692MOL0     H95477  12.173  11.529   4.451  1.7100 -2.3730 -1.1146
  692MOL0     H95478  11.909  11.780   4.255 -1.0564 -0.7117  1.0154
  692MOL0     H95479  11.667  11.787   4.199 -1.1138 -0.8516 -2.3979
  692MOL0     H95480  10.970  10.611   4.614 -3.0052 -0.2037 -0.1795
  692MOL0     H95481  10.823  10.435   4.685 -0.9145 -0.5818  1.3513
  692MOL0     H95482  10.593  10.237   4.992  1.1352 -0.4525 -0.2890
  692MOL0     H95483  10.429  10.058   5.050 -0.3371  1.2182 -0.4203
  692MOL0     H95484  10.536   9.620   5.044  0.0126 -0.0499  0.4393
  692MOL0     H95485  10.573   9.701   5.193  0.8245  1.1119  0.5466
  692MOL0     H95486  10.317   9.725   5.228  2.3393  0.4077  2.3635
  692MOL0     H95487  10.403   9.565   5.267  3.4836  0.0528 -1.4706
  692MOL0     H95488  10.253   9.636   5.026  0.6281 -1.5975 -0.4286
  692MOL0     H95489  10.333   9.485   5.044 -1.3471 -3.0373  1.9731
  692MOL0     H95490  10.197   9.431   5.229 -1.1829  0.3370  0.2940
  692MOL0     H95491  10.079   9.455   5.105 -1.9998  1.3818  1.3591
  692MOL0     H95492   9.972   9.745   5.391  0.1136 -0.9613 -0.4515
  692MOL0     H95493  10.719   9.756   4.973 -0.0789 -0.7244  1.0288
  692MOL0     H95494  11.000   9.954   4.940  0.2800  0.3977 -0.4779
  692MOL0     H95495  10.916   9.793   4.910 -2.1865 -0.4513 -2.4186
  692MOL0     H95496  10.940   9.909   4.782  3.4818 -1.7395  0.1484
  693MOL0     O95497   0.786   7.766   6.751  0.2644  0.6178 -0.0330
  693MOL0     C95498   0.799   7.847   6.663  0.2208  0.6498  0.0525
  693MOL0     O95499   0.840   7.805   6.532  0.4286 -0.3443  0.0234
  693MOL0     C95500   0.852   7.677   6.506  0.8335  0.4880 -0.4992
  693MOL0     C95501   0.941   7.595   6.580  0.8038  0.0450 -1.3855
  693MOL0     C95502   0.953   7.456   6.558  0.3919 -0.4674 -0.1045
  693MOL0     C95503   0.874   7.399   6.463  0.2299  0.0905  0.8303
  693MOL0     O95504   0.879   7.263   6.442  0.2411  0.5537 -0.7283
  693MOL0     C95505   0.782   7.190   6.368 -0.2977  0.3206  0.8025
  693MOL0     C95506   0.808   7.035   6.393  0.1617  0.0350  0.0401
  693MOL0     C95507   0.764   7.000   6.528  0.2370  0.8256 -0.7422
  693MOL0     C95508   0.783   6.857   6.572 -0.0632  0.4349 -0.3564
  693MOL0     C95509   0.777   6.844   6.722  1.0869 -0.6865  0.0725
  693MOL0     C95510   0.777   6.704   6.774  0.8885  0.4035 -0.7355
  693MOL0     C95511   0.768   6.707   6.934 -0.0156  0.7081  0.9009
  693MOL0     C95512   0.903   6.718   6.996 -0.4038 -0.3538 -0.0983
  693MOL0     N95513   0.929   6.637   7.107 -0.7010  0.3869  0.1613
  693MOL0     C95514   1.035   6.551   7.120  0.0756  0.9053 -0.0183
  693MOL0     C95515   1.050   6.538   7.255  0.0652 -0.2124  0.2109
  693MOL0     C95516   1.141   6.457   7.341  0.5026  0.1189 -0.7646
  693MOL0     C95517   1.129   6.499   7.497 -0.7416 -0.0122 -0.2635
  693MOL0     C95518   1.179   6.397   7.589 -0.5737  0.1392  1.2374
  693MOL0     C95519   1.337   6.400   7.600  0.5003 -0.1048 -0.5633
  693MOL0     O95520   1.384   6.527   7.626  0.1883  0.2597  0.8042
  693MOL0     C95521   1.499   6.562   7.567 -0.7410 -0.3704 -0.2578
  693MOL0     C95522   1.519   6.700   7.559  1.6434 -0.1746 -0.3802
  693MOL0     C95523   1.643   6.754   7.516  0.6357  0.2686  0.3130
  693MOL0     C95524   1.651   6.901   7.521  0.2056 -0.0118 -0.8677
  693MOL0     C95525   1.746   6.667   7.466  0.9951  0.4910 -0.0255
  693MOL0     C95526   1.855   6.725   7.382 -0.6047  0.3718 -0.7552
  693MOL0     O95527   1.984   6.703   7.427 -0.1728  0.3698 -0.1536
  693MOL0     C95528   2.097   6.750   7.361  0.4260 -0.5513  0.2601
  693MOL0     C95529   2.123   6.719   7.228 -0.2772  0.8278  1.1112
  693MOL0     C95530   2.235   6.760   7.166 -1.4581 -0.2356 -0.8842
  693MOL0     C95531   2.335   6.823   7.243 -0.7009  0.8580  0.4416
  693MOL0     O95532   2.457   6.852   7.180 -0.2055  0.3206  0.0356
  693MOL0     C95533   2.572   6.838   7.261  0.3301  0.4088  0.1039
  693MOL0     C95534   2.652   6.715   7.241  0.2452  0.2775 -1.0585
  693MOL0     C95535   2.796   6.709   7.307 -0.9014  0.0256 -0.0825
  693MOL0     C95536   2.796   6.749   7.458  0.3303 -1.3674  0.1286
  693MOL0     C95537   2.708   6.649   7.536 -0.0318 -0.0924 -1.2113
  693MOL0     C95538   2.691   6.706   7.682 -0.4510 -0.5508 -0.2689
  693MOL0     C95539   2.574   6.635   7.756 -0.6209 -0.7814  1.5866
  693MOL0     C95540   2.439   6.706   7.742  0.0171  0.3304  0.3548
  693MOL0    Cl95541   2.332   6.662   7.878 -0.2833 -0.0588  0.1070
  693MOL0     C95542   2.303   6.857   7.378 -0.1717 -0.2389 -0.1308
  693MOL0     C95543   2.192   6.823   7.436 -0.3876  0.9720 -0.0354
  693MOL0     O95544   1.826   6.806   7.293 -0.3667 -0.2808 -0.0765
  693MOL0     C95545   1.724   6.526   7.475  0.3788  0.4363  0.3794
  693MOL0     C95546   1.603   6.479   7.525 -0.5161  0.2686 -0.2911
  693MOL0     N95547   0.943   6.611   7.315  0.1384 -0.2716  0.6111
  693MOL0     N95548   0.872   6.668   7.225 -0.2182 -0.2532 -0.6931
  693MOL0     C95549   0.790   7.477   6.385 -0.1964  0.1989 -0.6665
  693MOL0     C95550   0.778   7.613   6.403  0.0944 -0.6798 -0.7288
  693MOL0     C95551   0.792   7.993   6.710 -0.2606  1.5852  0.1195
  693MOL0     C95552   0.765   8.022   6.843 -0.1559  0.3936  0.4473
  693MOL0     C95553   0.745   8.156   6.878 -0.2884 -0.1676  0.1628
  693MOL0     C95554   0.732   8.253   6.775 -0.3988 -0.0958 -0.4730
  693MOL0     O95555   0.705   8.381   6.794  0.2807 -0.0933 -1.0543
  693MOL0     C95556   0.572   8.399   6.851 -0.6637  0.6165  1.2089
  693MOL0     C95557   0.553   8.509   6.940 -0.0782 -1.0633 -0.0886
  693MOL0     C95558   0.615   8.630   6.888  0.3190 -0.0566  0.0692
  693MOL0     C95559   0.579   8.752   6.968  0.0405  0.4352 -0.6991
  693MOL0     C95560   0.629   8.747   7.108 -0.4554 -0.0880  0.5468
  693MOL0     C95561   0.669   8.769   7.223 -0.1498  0.2761 -0.7603
  693MOL0     C95562   0.754   8.222   6.638  0.6539  0.6866  0.1993
  693MOL0     C95563   0.800   8.090   6.605 -0.2094  0.8472 -0.2621
  693MOL0     C95564   0.844   8.069   6.464  0.2798  0.2113  0.9499
  693MOL0     H95565   1.000   7.653   6.650  1.4049 -1.7286 -0.3654
  693MOL0     H95566   1.012   7.398   6.628 -1.0449 -1.3763  0.3851
  693MOL0     H95567   0.798   7.198   6.260  0.6927  1.0502  0.9955
  693MOL0     H95568   0.675   7.205   6.383 -0.6421 -2.7908  2.1614
  693MOL0     H95569   0.769   6.967   6.316 -0.6067 -1.8359  1.9700
  693MOL0     H95570   0.917   7.022   6.392  0.0761 -1.2241 -2.5770
  693MOL0     H95571   0.813   7.071   6.596 -0.7393  0.5355  0.2904
  693MOL0     H95572   0.657   7.019   6.534 -0.4965 -2.7997  0.9367
  693MOL0     H95573   0.722   6.783   6.520  1.4751 -0.0474 -1.5390
  693MOL0     H95574   0.889   6.836   6.555  0.3269  1.1749  1.0166
  693MOL0     H95575   0.681   6.886   6.754  0.2852 -1.7115 -0.8744
  693MOL0     H95576   0.860   6.895   6.771  1.4367 -0.3857 -0.8286
  693MOL0     H95577   0.701   6.645   6.723 -0.1850  0.1070  1.1216
  693MOL0     H95578   0.870   6.657   6.741 -0.5935 -2.5172 -1.0609
  693MOL0     H95579   0.735   6.605   6.958  2.0488  0.1989  1.8066
  693MOL0     H95580   0.705   6.789   6.970  0.3363  2.3270 -1.8760
  693MOL0     H95581   0.973   6.703   6.913  0.5808 -0.4042  0.7226
  693MOL0     H95582   0.916   6.821   7.031 -0.5338  0.4585 -2.2471
  693MOL0     H95583   1.099   6.501   7.047  2.4473  2.7312  0.6615
  693MOL0     H95584   1.243   6.461   7.301  1.1005 -0.8014  0.6170
  693MOL0     H95585   1.104   6.355   7.329  2.4051 -0.8486  0.9725
  693MOL0     H95586   1.168   6.597   7.523  0.5678  0.8238 -4.4867
  693MOL0     H95587   1.022   6.506   7.516 -1.1364  0.2308 -2.3480
  693MOL0     H95588   1.136   6.404   7.689  0.4087 -0.2547  1.7025
  693MOL0     H95589   1.168   6.293   7.558  0.0005 -0.7364  3.7021
  693MOL0     H95590   1.374   6.339   7.682  1.6846  1.9199  0.5040
  693MOL0     H95591   1.385   6.349   7.516 -1.9880 -4.8467  0.5646
  693MOL0     H95592   1.429   6.758   7.576  1.4877 -0.3829 -0.4777
  693MOL0     H95593   1.562   6.939   7.573  0.0664  0.5731 -1.5119
  693MOL0     H95594   1.651   6.942   7.420  0.0433 -0.3834 -1.0159
  693MOL0     H95595   1.740   6.938   7.573  1.8608 -2.4695 -1.7974
  693MOL0     H95596   2.038   6.679   7.173 -2.2173  3.9332  1.6386
  693MOL0     H95597   2.259   6.752   7.060  0.3986  3.0011 -0.8304
  693MOL0     H95598   2.642   6.915   7.227  3.2632 -2.3154 -0.5205
  693MOL0     H95599   2.552   6.863   7.365  1.5450  0.2121  0.3940
  693MOL0     H95600   2.591   6.629   7.272  0.0710  1.6488  2.8501
  693MOL0     H95601   2.668   6.698   7.134  0.8107  1.1345 -1.1187
  693MOL0     H95602   2.866   6.767   7.247  1.1333 -2.0280  0.1714
  693MOL0     H95603   2.853   6.617   7.291  0.0038  0.6794 -0.7693
  693MOL0     H95604   2.763   6.853   7.467  1.5388 -1.0080  0.6994
  693MOL0     H95605   2.899   6.755   7.495  1.1780  1.8961 -2.2965
  693MOL0     H95606   2.612   6.649   7.483 -1.5750  0.2934  1.3823
  693MOL0     H95607   2.743   6.545   7.544 -1.9973 -0.6767  1.0323
  693MOL0     H95608   2.657   6.810   7.671 -0.8362 -0.5039  1.1374
  693MOL0     H95609   2.783   6.696   7.740 -0.1436 -1.9290 -0.9661
  693MOL0     H95610   2.596   6.636   7.863  4.1414  0.0471  0.8144
  693MOL0     H95611   2.573   6.530   7.724 -0.5184 -1.5631  3.9615
  693MOL0     H95612   2.396   6.679   7.645 -0.1761 -1.7697  0.9604
  693MOL0     H95613   2.451   6.813   7.758 -0.7764  0.2896  1.3404
  693MOL0     H95614   2.378   6.907   7.439 -1.2311  1.3163 -0.0441
  693MOL0     H95615   2.164   6.862   7.533 -1.8164 -0.2502  0.0815
  693MOL0     H95616   1.793   6.458   7.424  0.4940  0.5082  0.4391
  693MOL0     H95617   1.592   6.373   7.546 -1.7473  0.0712 -1.7552
  693MOL0     H95618   0.728   7.434   6.308 -2.5059  1.5367  0.3451
  693MOL0     H95619   0.698   7.664   6.350 -0.3577 -1.9317 -1.2794
  693MOL0     H95620   0.767   7.938   6.911  1.3314  0.0408  0.0062
  693MOL0     H95621   0.735   8.181   6.984  2.8706  0.1797  0.4798
  693MOL0     H95622   0.510   8.416   6.762 -0.6403 -1.2577  0.7918
  693MOL0     H95623   0.526   8.313   6.900  2.9783 -1.4286  1.3715
  693MOL0     H95624   0.612   8.484   7.028 -0.2460 -0.3155  0.2462
  693MOL0     H95625   0.449   8.531   6.967  0.6636 -0.5906  2.6931
  693MOL0     H95626   0.723   8.617   6.886  0.7417  2.7604 -2.5658
  693MOL0     H95627   0.586   8.639   6.783  0.0097 -2.7801 -0.1357
  693MOL0     H95628   0.470   8.761   6.975  0.1872  2.0121  0.0102
  693MOL0     H95629   0.612   8.841   6.913 -0.9041  0.7699 -0.7496
  693MOL0     H95630   0.698   8.780   7.325 -2.3510 -0.5769  0.0110
  693MOL0     H95631   0.747   8.290   6.553 -1.9808  0.8226  0.4431
  693MOL0     H95632   0.941   8.018   6.464 -0.3483 -1.0822  3.0103
  693MOL0     H95633   0.770   8.005   6.414  1.9722 -1.0966 -0.0080
  693MOL0     H95634   0.854   8.164   6.411  5.9763 -1.2335 -1.3421
  694MOL0     O95635   7.910   6.825   8.617  1.1506  0.6024 -0.9930
  694MOL0     C95636   8.021   6.783   8.600 -0.8718 -0.2694 -0.3347
  694MOL0     O95637   8.130   6.855   8.577  0.0886 -0.0716 -0.3812
  694MOL0     C95638   8.134   6.991   8.560  0.1433  0.2159 -0.5858
  694MOL0     C95639   8.240   7.043   8.485 -0.9643 -0.5782  0.2923
  694MOL0     C95640   8.245   7.184   8.467 -0.4462  0.9754  0.8743
  694MOL0     C95641   8.145   7.271   8.505 -0.2884  0.1208  0.1535
  694MOL0     O95642   8.159   7.402   8.475 -0.0607  0.1982 -0.1618
  694MOL0     C95643   8.215   7.466   8.589  0.1117  0.1868 -0.2790
  694MOL0     C95644   8.363   7.458   8.614 -0.3791  0.6699 -0.0174
  694MOL0     C95645   8.438   7.519   8.492  0.0413 -0.0759 -0.2671
  694MOL0     C95646   8.585   7.488   8.494  0.6755  0.0755 -0.1860
  694MOL0     C95647   8.658   7.520   8.365 -0.2803  0.7388  1.1100
  694MOL0     C95648   8.613   7.437   8.238  0.8510  0.1755 -0.5473
  694MOL0     C95649   8.706   7.444   8.112  0.0213  0.9944  0.4557
  694MOL0     C95650   8.815   7.334   8.115 -1.0198 -0.8202  0.0415
  694MOL0     N95651   8.773   7.200   8.174  0.2013  0.2440  0.0575
  694MOL0     C95652   8.707   7.101   8.113  0.1924 -0.5677  0.2393
  694MOL0     C95653   8.712   6.999   8.196 -0.1498  0.1675 -0.4534
  694MOL0     C95654   8.653   6.860   8.169  0.3885  0.4229  0.7710
  694MOL0     C95655   8.749   6.753   8.221 -0.0435 -0.1980  0.1741
  694MOL0     C95656   8.881   6.754   8.139  0.0557 -0.2589  0.8158
  694MOL0     C95657   8.995   6.689   8.203 -1.1280 -0.4306 -0.5751
  694MOL0     O95658   9.110   6.701   8.118  0.1173 -0.1939  0.5887
  694MOL0     C95659   9.136   6.625   8.009 -0.4340 -0.9090  0.8056
  694MOL0     C95660   9.084   6.503   7.988  0.5514 -0.3207  0.4239
  694MOL0     C95661   9.103   6.427   7.867 -0.7049  0.3394 -0.0445
  694MOL0     C95662   9.020   6.293   7.866 -0.2184 -0.0284  0.2885
  694MOL0     C95663   9.190   6.472   7.767  0.4844  0.4836 -0.1947
  694MOL0     C95664   9.218   6.405   7.637 -1.7007  0.4105 -0.4397
  694MOL0     O95665   9.332   6.441   7.580  0.3408 -0.1165 -0.3165
  694MOL0     C95666   9.354   6.386   7.453 -0.5595 -2.2706 -0.0975
  694MOL0     C95667   9.420   6.267   7.440 -0.5841 -0.4262  0.2824
  694MOL0     C95668   9.472   6.229   7.309 -0.6502  0.4163 -0.6455
  694MOL0     C95669   9.458   6.317   7.197  0.3180  0.2427  0.9817
  694MOL0     O95670   9.492   6.282   7.069 -0.0114 -0.5073 -0.4432
  694MOL0     C95671   9.601   6.189   7.046 -0.2066  0.3085  0.9039
  694MOL0     C95672   9.706   6.272   6.972  0.5267 -0.0285  0.2210
  694MOL0     C95673   9.758   6.396   7.054 -0.4375 -0.9065  0.1659
  694MOL0     C95674   9.833   6.370   7.184 -0.5056  0.0070  0.1916
  694MOL0     C95675   9.954   6.286   7.162  0.3848 -0.1886 -0.0275
  694MOL0     C95676  10.085   6.366   7.142 -0.5358  0.1463 -0.2618
  694MOL0     C95677  10.221   6.282   7.135 -0.3766 -0.1092 -0.4975
  694MOL0     C95678  10.223   6.192   7.007 -0.5611 -0.1882 -0.4759
  694MOL0    Cl95679  10.266   6.301   6.858 -0.2676 -0.4015 -0.3902
  694MOL0     C95680   9.384   6.436   7.217 -0.1500  0.1275 -0.7977
  694MOL0     C95681   9.340   6.472   7.339  0.4809  0.5648 -0.4564
  694MOL0     O95682   9.159   6.304   7.607 -0.1013  0.3747 -0.2966
  694MOL0     C95683   9.242   6.601   7.790  0.1488 -0.1127  0.2679
  694MOL0     C95684   9.210   6.675   7.911 -1.0848 -0.0881 -0.3926
  694MOL0     N95685   8.774   7.041   8.311 -0.0522  0.0191 -0.9798
  694MOL0     N95686   8.801   7.166   8.299  0.0384 -0.0139 -0.1056
  694MOL0     C95687   8.030   7.217   8.567  0.4771  0.3396 -0.2423
  694MOL0     C95688   8.028   7.086   8.606  0.0693 -0.3582  0.5861
  694MOL0     C95689   8.044   6.651   8.652 -0.8009  1.3457 -0.3286
  694MOL0     C95690   8.174   6.614   8.692 -0.8513  0.7693  0.1879
  694MOL0     C95691   8.200   6.489   8.760  0.4744  1.2125  0.3802
  694MOL0     C95692   8.097   6.410   8.798 -0.5740 -0.2325  0.9701
  694MOL0     O95693   8.137   6.301   8.869  0.7114 -0.0041 -0.4614
  694MOL0     C95694   8.120   6.314   9.014  0.5573  0.5479 -0.1164
  694MOL0     C95695   8.227   6.400   9.079  0.1761  0.6056 -0.2904
  694MOL0     C95696   8.207   6.352   9.230 -0.0555 -0.1146  0.2853
  694MOL0     C95697   8.302   6.422   9.327  0.0841  0.2472  0.2797
  694MOL0     C95698   8.436   6.377   9.320  0.6930 -0.2063  0.1093
  694MOL0     C95699   8.556   6.346   9.315  0.3725  0.7762  0.2175
  694MOL0     C95700   7.979   6.437   8.742  0.5745 -0.4143  0.3654
  694MOL0     C95701   7.946   6.547   8.661  0.1681 -0.3312 -0.7939
  694MOL0     C95702   7.799   6.545   8.608  0.3508 -0.0472 -0.1520
  694MOL0     H95703   8.306   6.972   8.435  0.5371 -0.6873  2.3100
  694MOL0     H95704   8.329   7.219   8.407  1.1933 -1.4600  1.6172
  694MOL0     H95705   8.158   7.426   8.673  1.9009  1.7532  1.7939
  694MOL0     H95706   8.187   7.571   8.577  2.9812  1.3861  2.2303
  694MOL0     H95707   8.384   7.518   8.703 -0.2501  2.4735 -1.2100
  694MOL0     H95708   8.386   7.356   8.647 -1.8117  0.5181  0.5800
  694MOL0     H95709   8.391   7.489   8.397 -2.1524  1.0913  0.3570
  694MOL0     H95710   8.424   7.627   8.503  0.6393 -0.0670  0.4533
  694MOL0     H95711   8.617   7.553   8.575  0.9002 -0.1418 -0.0988
  694MOL0     H95712   8.597   7.381   8.515 -4.0546 -1.0627 -2.0410
  694MOL0     H95713   8.757   7.479   8.387 -0.3920 -2.8425 -3.4339
  694MOL0     H95714   8.656   7.627   8.344 -1.0650  0.6816  0.8633
  694MOL0     H95715   8.600   7.336   8.276  4.7703 -0.4351 -0.3785
  694MOL0     H95716   8.522   7.492   8.212  1.0168  0.7336  0.0022
  694MOL0     H95717   8.768   7.532   8.091 -0.9539  1.4059 -0.8087
  694MOL0     H95718   8.645   7.418   8.025  1.8457 -0.4030 -0.4788
  694MOL0     H95719   8.855   7.311   8.016  1.8605  3.2003  0.0373
  694MOL0     H95720   8.896   7.382   8.170 -1.1711 -0.3107 -0.1640
  694MOL0     H95721   8.680   7.090   8.008  6.5753 -1.8241 -1.7390
  694MOL0     H95722   8.627   6.846   8.064  2.5700 -0.2946  0.2857
  694MOL0     H95723   8.563   6.850   8.231  0.9088  1.7397  1.7905
  694MOL0     H95724   8.771   6.773   8.327 -4.2406  0.3987  1.0906
  694MOL0     H95725   8.693   6.660   8.209  1.5515 -1.1682 -0.0289
  694MOL0     H95726   8.858   6.694   8.050  2.4598  0.4387 -0.3652
  694MOL0     H95727   8.912   6.857   8.117 -0.3840 -0.1940  0.4695
  694MOL0     H95728   9.005   6.735   8.302  3.2432  2.3145 -1.9787
  694MOL0     H95729   8.969   6.584   8.220 -0.3102 -0.6212 -0.4561
  694MOL0     H95730   9.019   6.467   8.066  0.9492 -0.5980  0.6266
  694MOL0     H95731   9.076   6.208   7.826 -0.5836  0.1281 -0.5738
  694MOL0     H95732   8.927   6.304   7.809 -0.0613  0.7161  0.1714
  694MOL0     H95733   8.984   6.275   7.968  0.8209 -0.7330  0.5401
  694MOL0     H95734   9.440   6.220   7.536  0.2378  0.5226  0.5933
  694MOL0     H95735   9.542   6.147   7.297 -1.6265 -0.2550 -2.0710
  694MOL0     H95736   9.631   6.119   7.125  0.6821 -1.1408 -0.6654
  694MOL0     H95737   9.572   6.127   6.961  1.9059  1.7844 -1.0277
  694MOL0     H95738   9.792   6.216   6.934  1.8850  3.0345 -1.5590
  694MOL0     H95739   9.669   6.314   6.878  2.5375 -0.3152 -0.7519
  694MOL0     H95740   9.673   6.462   7.076 -0.2688 -0.2656 -1.0512
  694MOL0     H95741   9.831   6.444   6.990  0.0441  0.7685  1.8773
  694MOL0     H95742   9.773   6.320   7.261 -1.9291  0.8871 -0.3197
  694MOL0     H95743   9.855   6.474   7.210  0.4427  0.2362 -1.3905
  694MOL0     H95744   9.971   6.225   7.251  5.0301  1.0420  0.1776
  694MOL0     H95745   9.931   6.223   7.076  3.4022  0.2290 -1.2605
  694MOL0     H95746  10.093   6.429   7.231  0.7359 -1.2938  0.6965
  694MOL0     H95747  10.084   6.440   7.061  1.4060  1.9852  1.2800
  694MOL0     H95748  10.228   6.223   7.227  1.0561 -3.1094 -2.3716
  694MOL0     H95749  10.300   6.356   7.147 -0.1331 -0.7499  3.0452
  694MOL0     H95750  10.129   6.137   6.995 -0.3291 -0.7296  0.0875
  694MOL0     H95751  10.296   6.112   7.022 -1.5055 -0.9521  0.1700
  694MOL0     H95752   9.371   6.502   7.132  0.6266  0.4130 -0.7012
  694MOL0     H95753   9.290   6.564   7.366 -1.8328 -0.4048 -1.1947
  694MOL0     H95754   9.307   6.655   7.723  0.3180 -2.0152 -1.1796
  694MOL0     H95755   9.249   6.777   7.903  1.8477 -1.1363 -0.7023
  694MOL0     H95756   7.941   7.277   8.587  2.0741  2.4085  1.1568
  694MOL0     H95757   7.945   7.049   8.664 -0.3568  1.8385  1.4913
  694MOL0     H95758   8.262   6.677   8.690 -2.4406  3.2450  1.9322
  694MOL0     H95759   8.303   6.459   8.774  0.4894  1.2349  0.3211
  694MOL0     H95760   8.026   6.370   9.017  1.5970  2.4370 -1.0117
  694MOL0     H95761   8.096   6.220   9.065 -2.0492  0.8558 -0.6199
  694MOL0     H95762   8.192   6.503   9.079 -4.7900 -0.8057 -1.9290
  694MOL0     H95763   8.325   6.385   9.031  0.0251  0.6853 -0.6254
  694MOL0     H95764   8.101   6.371   9.251 -0.4625 -1.8863  0.0007
  694MOL0     H95765   8.220   6.244   9.239  2.6687  0.1979  0.9656
  694MOL0     H95766   8.268   6.405   9.429 -0.1117 -0.5235  0.0903
  694MOL0     H95767   8.305   6.529   9.306  1.0367  0.5561  1.8337
  694MOL0     H95768   8.662   6.343   9.322  0.2558 -0.8968  2.3211
  694MOL0     H95769   7.898   6.370   8.771 -1.1035  1.0611 -0.7056
  694MOL0     H95770   7.797   6.596   8.511  1.7733  3.3059  1.3999
  694MOL0     H95771   7.766   6.442   8.597  1.6427 -0.7763  2.0845
  694MOL0     H95772   7.739   6.606   8.676  1.5183 -0.1822  1.0580
  695MOL0     O95773   5.023   0.882  11.030  0.1782 -1.0120  0.3854
  695MOL0     C95774   5.047   0.903  11.153 -0.2462 -0.5058  0.2911
  695MOL0     O95775   4.954   0.903  11.253 -0.6320 -0.0448  0.5336
  695MOL0     C95776   4.822   0.878  11.214 -0.8660 -0.4807 -1.1367
  695MOL0     C95777   4.723   0.977  11.253 -1.2187  0.0817 -1.1704
  695MOL0     C95778   4.595   0.937  11.277 -0.2509 -0.5232 -0.4796
  695MOL0     C95779   4.548   0.813  11.224 -0.7801 -0.0043  0.7847
  695MOL0     O95780   4.416   0.772  11.206  0.3505  0.4051 -0.0448
  695MOL0     C95781   4.312   0.862  11.260 -0.5201 -0.6946  0.9801
  695MOL0     C95782   4.174   0.814  11.250  0.9177 -0.7279 -0.3575
  695MOL0     C95783   4.110   0.805  11.111 -0.2798  0.0724  0.5496
  695MOL0     C95784   4.100   0.669  11.038  0.7666 -0.5808  0.0326
  695MOL0     C95785   4.025   0.678  10.902 -0.1702  0.6997  0.3215
  695MOL0     C95786   4.003   0.543  10.841 -0.3192  0.8394 -0.8618
  695MOL0     C95787   3.915   0.562  10.720  0.1392 -0.2945 -0.4160
  695MOL0     C95788   3.847   0.433  10.661 -1.4671 -0.5412  1.3715
  695MOL0     N95789   3.773   0.367  10.768 -0.8293 -0.4748 -0.2128
  695MOL0     C95790   3.640   0.377  10.794  0.1597 -0.1422  0.7460
  695MOL0     C95791   3.609   0.295  10.896  0.2274  0.6278  0.8041
  695MOL0     C95792   3.478   0.248  10.955  0.1330  0.5606  0.4081
  695MOL0     C95793   3.423   0.123  10.891  0.5356 -0.0750  0.1500
  695MOL0     C95794   3.409   0.123  10.741  0.3030 -0.2203  0.1853
  695MOL0     C95795   3.313   0.227  10.664 -0.1901 -0.4816  1.6022
  695MOL0     O95796   3.347   0.371  10.672  0.3568  0.3160  0.1198
  695MOL0     C95797   3.245   0.455  10.653 -0.8395  0.5798 -0.5708
  695MOL0     C95798   3.111   0.421  10.650  0.8708 -0.0603 -0.2256
  695MOL0     C95799   3.014   0.508  10.609  0.8217 -0.1144  0.1495
  695MOL0     C95800   2.865   0.453  10.585 -0.7736  0.0975  0.6807
  695MOL0     C95801   3.048   0.648  10.600  0.0221  0.4760  0.0392
  695MOL0     C95802   2.935   0.757  10.585  0.2856 -0.7761 -0.2395
  695MOL0     O95803   2.833   0.762  10.676 -0.2547  0.1234 -0.2978
  695MOL0     C95804   2.715   0.829  10.650 -0.4658 -0.4418 -0.0852
  695MOL0     C95805   2.662   0.864  10.521 -0.4631  0.6731 -0.6863
  695MOL0     C95806   2.550   0.944  10.509  0.7427  0.4943 -0.5643
  695MOL0     C95807   2.476   0.966  10.626  0.3465  0.7871  0.0433
  695MOL0     O95808   2.351   1.028  10.616 -0.0980  0.2416  0.3297
  695MOL0     C95809   2.248   0.933  10.573 -0.4048  0.2185  1.0866
  695MOL0     C95810   2.151   1.012  10.488  0.0734  0.6876  0.0024
  695MOL0     C95811   2.198   1.046  10.339 -0.2415  0.9538 -1.5651
  695MOL0     C95812   2.192   0.923  10.247 -0.7101 -0.3869  0.3548
  695MOL0     C95813   2.212   0.967  10.093  0.5201  0.2978 -0.5732
  695MOL0     C95814   2.220   0.853   9.990  0.7334 -0.1784  0.2922
  695MOL0     C95815   2.302   0.895   9.868  0.6269 -0.7266 -0.3775
  695MOL0     C95816   2.340   0.786   9.775  0.1739 -0.3396  0.6208
  695MOL0    Cl95817   2.197   0.725   9.685 -0.6814  0.0039 -0.1358
  695MOL0     C95818   2.517   0.922  10.748 -0.3718  0.5188 -0.8670
  695MOL0     C95819   2.638   0.850  10.764  0.9770  0.4901 -0.5563
  695MOL0     O95820   2.950   0.834  10.483 -0.6147 -0.6567  0.7259
  695MOL0     C95821   3.173   0.692  10.638 -0.5931  0.1268 -0.1663
  695MOL0     C95822   3.276   0.596  10.653  0.4674  1.3283  0.0634
  695MOL0     N95823   3.726   0.233  10.913 -0.0094  0.3262  0.0719
  695MOL0     N95824   3.823   0.266  10.840  1.0054  0.0299 -0.8314
  695MOL0     C95825   4.644   0.728  11.166  0.4447  0.1182 -0.3872
  695MOL0     C95826   4.782   0.750  11.172  0.6884  0.4849 -0.3418
  695MOL0     C95827   5.184   0.934  11.197  0.5401  0.0667 -0.4856
  695MOL0     C95828   5.201   0.945  11.343  0.9941 -0.4944  1.0595
  695MOL0     C95829   5.327   0.958  11.393 -0.7124 -0.9880  0.1866
  695MOL0     C95830   5.445   0.974  11.308  0.8737 -0.0563 -0.4956
  695MOL0     O95831   5.577   0.977  11.357  1.2674 -0.2488 -0.4326
  695MOL0     C95832   5.604   1.087  11.449 -0.2812  0.2588 -0.1687
  695MOL0     C95833   5.584   1.231  11.405  1.7651 -0.0435 -0.6467
  695MOL0     C95834   5.673   1.263  11.286 -0.2302 -0.3836 -0.2459
  695MOL0     C95835   5.632   1.379  11.195  0.1808 -0.1571 -0.4998
  695MOL0     C95836   5.567   1.331  11.076 -0.7394 -0.3798  0.1756
  695MOL0     C95837   5.526   1.262  10.982 -0.5604 -0.3504 -0.2829
  695MOL0     C95838   5.412   0.977  11.175 -0.2018 -0.0096 -0.2347
  695MOL0     C95839   5.295   0.952  11.110 -0.7729 -1.0527 -0.1337
  695MOL0     C95840   5.289   0.948  10.960 -0.2677  0.2164 -0.1825
  695MOL0     H95841   4.740   1.068  11.309 -3.1071 -1.6484  2.5687
  695MOL0     H95842   4.514   1.001  11.310 -1.9790 -1.7313 -2.1701
  695MOL0     H95843   4.329   0.952  11.200  0.5080 -1.0517  0.6990
  695MOL0     H95844   4.318   0.891  11.365 -1.1130  0.4153  0.7188
  695MOL0     H95845   4.171   0.719  11.304 -0.5859 -1.6442 -1.9797
  695MOL0     H95846   4.107   0.886  11.298 -1.7190 -1.4083 -2.8140
  695MOL0     H95847   4.004   0.835  11.112 -1.1230 -2.3504 -2.0557
  695MOL0     H95848   4.153   0.888  11.053 -1.5000  0.3973  0.0631
  695MOL0     H95849   4.196   0.618  11.026 -0.8030 -4.4226  2.0550
  695MOL0     H95850   4.047   0.590  11.092 -0.2668  0.1958  0.1871
  695MOL0     H95851   4.082   0.745  10.837  1.2888  1.3731  2.1934
  695MOL0     H95852   3.924   0.719  10.910 -1.0602 -0.8181 -2.0119
  695MOL0     H95853   4.099   0.496  10.822 -0.4713  0.1022  0.1233
  695MOL0     H95854   3.962   0.472  10.913 -0.5923 -1.2843 -2.9864
  695MOL0     H95855   3.982   0.619  10.654  2.4291 -0.9983  1.2139
  695MOL0     H95856   3.834   0.632  10.743  2.4029  2.1236  0.7863
  695MOL0     H95857   3.780   0.450  10.577 -0.7930  1.9612  1.2656
  695MOL0     H95858   3.929   0.366  10.635 -1.0521 -0.4332  2.3385
  695MOL0     H95859   3.571   0.446  10.746  0.9546  2.0545  2.6167
  695MOL0     H95860   3.406   0.330  10.955 -0.9175 -0.2853 -1.6461
  695MOL0     H95861   3.501   0.230  11.061  1.9634  2.1931  0.3577
  695MOL0     H95862   3.490   0.042  10.918  1.4124 -0.0529 -1.8124
  695MOL0     H95863   3.325   0.100  10.934 -0.0613  1.9056 -0.0343
  695MOL0     H95864   3.503   0.102  10.689  0.4311 -3.0588  1.4253
  695MOL0     H95865   3.340   0.041  10.720  2.3293 -2.0152  0.1484
  695MOL0     H95866   3.306   0.211  10.556 -2.0302  2.7640  1.1166
  695MOL0     H95867   3.214   0.207  10.705 -1.3812 -0.7922 -1.1952
  695MOL0     H95868   3.062   0.324  10.651 -2.1803  1.3177  2.5263
  695MOL0     H95869   2.802   0.518  10.523 -1.4757  0.2679  1.5625
  695MOL0     H95870   2.814   0.454  10.681 -1.4734 -1.0603  0.3306
  695MOL0     H95871   2.859   0.352  10.543  0.1468  1.1253 -2.1758
  695MOL0     H95872   2.715   0.855  10.427 -0.0021  0.8765 -0.4459
  695MOL0     H95873   2.531   0.971  10.405 -1.6323 -2.3024 -1.0111
  695MOL0     H95874   2.292   0.851  10.514  1.5393  1.7295  0.3344
  695MOL0     H95875   2.189   0.892  10.655 -1.7232 -1.5255 -0.6315
  695MOL0     H95876   2.056   0.959  10.489  1.1872 -1.3960  1.1752
  695MOL0     H95877   2.126   1.108  10.536  2.5811  0.6619  1.5578
  695MOL0     H95878   2.295   1.095  10.325  1.0757 -2.0960 -4.3763
  695MOL0     H95879   2.122   1.111  10.295 -0.8312  0.0132 -1.9599
  695MOL0     H95880   2.098   0.868  10.262 -0.1636 -1.2686  0.6286
  695MOL0     H95881   2.278   0.869  10.287 -1.0313 -1.4661 -0.3710
  695MOL0     H95882   2.124   1.033  10.087 -0.8283 -0.9487  2.8281
  695MOL0     H95883   2.294   1.039  10.089 -1.4443  2.9631  2.1935
  695MOL0     H95884   2.125   0.821   9.945  2.3349 -3.7389 -0.9176
  695MOL0     H95885   2.273   0.776  10.046  1.6232  0.7000  0.6811
  695MOL0     H95886   2.395   0.940   9.905 -0.0210  0.1556  0.2398
  695MOL0     H95887   2.243   0.973   9.817 -2.0302 -0.7817  2.3186
  695MOL0     H95888   2.400   0.712   9.829 -0.6834 -0.8732  0.8601
  695MOL0     H95889   2.405   0.838   9.704  0.7148 -0.1281  1.2608
  695MOL0     H95890   2.462   0.937  10.840  1.7474 -0.1913  0.5950
  695MOL0     H95891   2.666   0.791  10.851 -0.6425 -0.9576 -0.9658
  695MOL0     H95892   3.200   0.797  10.640  0.8698 -0.2270 -0.3936
  695MOL0     H95893   3.370   0.649  10.662  0.9084  0.7753 -1.1214
  695MOL0     H95894   4.586   0.647  11.123 -0.0795 -0.3530  1.1297
  695MOL0     H95895   4.839   0.665  11.137  2.3729  1.5499 -0.3187
  695MOL0     H95896   5.114   0.950  11.407 -0.9772  2.4388 -1.5439
  695MOL0     H95897   5.342   0.962  11.501  0.7690 -3.0086  0.1071
  695MOL0     H95898   5.553   1.064  11.543 -1.6971  1.0496 -0.7063
  695MOL0     H95899   5.713   1.086  11.461  0.0320  2.3666 -2.1152
  695MOL0     H95900   5.604   1.293  11.492  0.4293  0.7040 -0.8428
  695MOL0     H95901   5.484   1.247  11.364  0.8376  1.0955  1.8528
  695MOL0     H95902   5.765   1.297  11.334  0.3464 -0.7624 -1.0500
  695MOL0     H95903   5.687   1.176  11.221  2.1007  1.1060 -1.9316
  695MOL0     H95904   5.719   1.435  11.159 -1.2001  2.5636  0.1308
  695MOL0     H95905   5.569   1.457  11.236  2.0670  1.0534  0.2480
  695MOL0     H95906   5.485   1.197  10.908  0.3348 -0.6165 -0.5569
  695MOL0     H95907   5.505   0.997  11.123  2.2968 -1.8707  3.0972
  695MOL0     H95908   5.246   1.042  10.923  0.6343 -0.9253 -4.6421
  695MOL0     H95909   5.387   0.941  10.912 -1.1766 -1.1702 -1.9371
  695MOL0     H95910   5.229   0.871  10.911 -1.5041  0.8255  0.3146
  696MOL0     O95911   7.807  10.749  10.111 -0.4841 -0.6108 -0.0367
  696MOL0     C95912   7.790  10.876  10.103 -0.5207  0.8577  0.3559
  696MOL0     O95913   7.835  10.966  10.005  0.3685  1.1503  0.1567
  696MOL0     C95914   7.884  10.911   9.891 -0.7675 -0.0178  1.0585
  696MOL0     C95915   7.838  10.791   9.837 -0.2185 -0.6149  0.5585
  696MOL0     C95916   7.898  10.747   9.715 -0.5083  0.2043 -1.3519
  696MOL0     C95917   7.988  10.828   9.645 -0.1982 -0.0098 -0.3400
  696MOL0     O95918   8.035  10.793   9.527 -0.2501  0.6719 -0.5523
  696MOL0     C95919   8.058  10.657   9.487 -0.0004 -1.2178  0.3581
  696MOL0     C95920   8.153  10.657   9.374  0.3255  0.5284  0.1764
  696MOL0     C95921   8.132  10.763   9.263 -0.2994  0.2969  0.1812
  696MOL0     C95922   8.000  10.745   9.196 -0.2812 -0.9407 -0.0364
  696MOL0     C95923   8.033  10.799   9.048  0.2505  0.2778 -1.1809
  696MOL0     C95924   8.095  10.701   8.946 -0.9847 -0.6780  0.7995
  696MOL0     C95925   8.025  10.568   8.935  0.8576 -0.8793  1.0451
  696MOL0     C95926   7.902  10.569   8.838  0.6555 -0.5998 -0.1615
  696MOL0     N95927   7.777  10.614   8.897  0.3668 -1.2159  0.5263
  696MOL0     C95928   7.667  10.543   8.940  0.5916  0.2630  0.1310
  696MOL0     C95929   7.563  10.632   8.947 -0.4303  0.3156  0.2864
  696MOL0     C95930   7.425  10.599   8.989  0.0710 -0.7483 -0.1626
  696MOL0     C95931   7.314  10.667   8.910  0.8592  0.0172 -0.9276
  696MOL0     C95932   7.176  10.662   8.982 -0.2450  0.2568 -0.1331
  696MOL0     C95933   7.162  10.757   9.094 -0.6338  0.7210 -0.4150
  696MOL0     O95934   7.159  10.892   9.056  0.0407 -0.6885  0.5676
  696MOL0     C95935   7.115  10.972   9.161 -0.5955 -0.1479  0.1881
  696MOL0     C95936   7.112  10.937   9.298  0.2747 -0.6794 -1.2365
  696MOL0     C95937   7.078  11.029   9.401  0.5755 -0.0318 -0.4625
  696MOL0     C95938   7.072  10.971   9.545  0.3663  0.0719  0.9809
  696MOL0     C95939   7.061  11.161   9.366 -0.4584 -0.6918 -0.1171
  696MOL0     C95940   7.024  11.268   9.464 -0.2667  0.8450  0.0062
  696MOL0     O95941   7.079  11.260   9.588  0.4384  0.4253  0.1072
  696MOL0     C95942   7.043  11.358   9.676  0.7586 -0.2121  0.2871
  696MOL0     C95943   6.928  11.334   9.760  0.9586  0.2323  0.4211
  696MOL0     C95944   6.872  11.448   9.819 -0.4024 -0.4781  0.2309
  696MOL0     C95945   6.923  11.584   9.808  0.0535  0.2496  0.0959
  696MOL0     O95946   6.857  11.681   9.870 -0.3514 -0.0233  0.3475
  696MOL0     C95947   6.846  11.812   9.802 -0.8899 -0.6133 -0.1584
  696MOL0     C95948   6.767  11.804   9.670  0.2682 -0.2134  0.8814
  696MOL0     C95949   6.852  11.863   9.555  0.4233  0.4639  0.3070
  696MOL0     C95950   6.871  12.018   9.555  1.5397  0.1272  0.4211
  696MOL0     C95951   6.979  12.061   9.450  1.1654  0.0969 -0.1799
  696MOL0     C95952   6.938  12.053   9.305 -0.1751 -0.7538 -0.2683
  696MOL0     C95953   7.060  12.055   9.203  0.0063  0.0599 -0.4773
  696MOL0     C95954   7.023  12.000   9.061  0.3324 -0.1899 -0.8704
  696MOL0    Cl95955   6.905  12.106   8.988  0.1631 -0.7111 -0.0743
  696MOL0     C95956   7.037  11.597   9.726  0.8631  0.4999 -0.1447
  696MOL0     C95957   7.100  11.489   9.664 -0.3400 -0.0479 -0.6034
  696MOL0     O95958   6.947  11.358   9.425 -0.1160 -0.4129 -0.7170
  696MOL0     C95959   7.076  11.203   9.236  0.6830 -0.4800 -0.4984
  696MOL0     C95960   7.113  11.114   9.135  0.6778 -0.5929 -0.1296
  696MOL0     N95961   7.606  10.759   8.915 -0.0104 -0.5704 -0.2660
  696MOL0     N95962   7.729  10.741   8.879  0.1844 -0.6983  0.5701
  696MOL0     C95963   8.028  10.954   9.697 -0.5326  1.1152  0.2140
  696MOL0     C95964   7.977  10.988   9.828 -0.4429  0.4108 -0.6459
  696MOL0     C95965   7.749  10.949  10.229  0.4733  0.1839  0.3825
  696MOL0     C95966   7.790  10.909  10.347  0.1117  0.6492 -0.8006
  696MOL0     C95967   7.746  10.958  10.469 -0.3980 -0.2032  0.1256
  696MOL0     C95968   7.662  11.073  10.463 -0.0691 -0.4675  0.2931
  696MOL0     O95969   7.629  11.131  10.581  0.4921 -0.2366 -0.1912
  696MOL0     C95970   7.496  11.167  10.594  0.9179  0.3374  0.6779
  696MOL0     C95971   7.455  11.110  10.719 -0.4710 -1.2022  0.5767
  696MOL0     C95972   7.496  10.964  10.740  0.6578 -0.2141 -0.1351
  696MOL0     C95973   7.447  10.905  10.871 -0.1848 -0.6310  0.2003
  696MOL0     C95974   7.439  10.752  10.865  0.3904 -0.7347  0.7598
  696MOL0     C95975   7.445  10.632  10.885  0.6098 -0.8527 -1.1291
  696MOL0     C95976   7.622  11.131  10.338  0.4677  0.0463  0.0087
  696MOL0     C95977   7.664  11.067  10.219  0.0679  1.3233  0.0722
  696MOL0     C95978   7.599  11.103  10.085 -0.0785  0.1420 -0.5801
  696MOL0     H95979   7.758  10.736   9.885 -2.2849 -0.5871 -2.5741
  696MOL0     H95980   7.857  10.665   9.656 -2.3102  2.0897 -2.8791
  696MOL0     H95981   7.980  10.592   9.450 -0.9037  0.1187 -0.1613
  696MOL0     H95982   8.110  10.610   9.571  1.3465 -0.6584 -0.1244
  696MOL0     H95983   8.243  10.666   9.435 -1.1812 -0.6170  2.7071
  696MOL0     H95984   8.150  10.553   9.340  0.7071  0.2301  1.0387
  696MOL0     H95985   8.138  10.863   9.307  2.0364  0.7611 -1.0220
  696MOL0     H95986   8.218  10.750   9.197  0.0996 -1.2147  0.9346
  696MOL0     H95987   7.973  10.639   9.206  1.1869 -1.5121 -1.7236
  696MOL0     H95988   7.929  10.814   9.242 -1.5488 -0.9432 -1.8914
  696MOL0     H95989   8.089  10.893   9.051 -1.1523  1.1179 -0.4626
  696MOL0     H95990   7.938  10.830   9.004  0.2206 -1.0251 -2.0971
  696MOL0     H95991   8.105  10.759   8.854  0.0788  3.0586  3.0617
  696MOL0     H95992   8.197  10.671   8.973 -0.4090  2.0941  2.0319
  696MOL0     H95993   7.970  10.537   9.024 -2.9643 -1.5469 -1.3038
  696MOL0     H95994   8.093  10.491   8.897 -3.5707 -3.7587 -1.9513
  696MOL0     H95995   7.927  10.637   8.756  2.0485  1.0837  1.5543
  696MOL0     H95996   7.882  10.467   8.804 -2.5924 -1.6204  3.9960
  696MOL0     H95997   7.663  10.438   8.967  2.5685  0.9906  4.0372
  696MOL0     H95998   7.421  10.637   9.091  2.1656  1.6130 -0.8492
  696MOL0     H95999   7.414  10.490   8.996 -2.1952 -0.5802 -0.2697
  696MOL0     H96000   7.336  10.770   8.880 -0.1498 -0.1994 -2.5149
  696MOL0     H96001   7.302  10.608   8.819 -0.8260 -0.1501 -0.6268
  696MOL0     H96002   7.095  10.698   8.917 -0.4867 -1.0297 -0.5898
  696MOL0     H96003   7.159  10.560   9.019  2.6136 -0.4002 -0.3609
  696MOL0     H96004   7.068  10.736   9.146  0.1107  1.8517  1.4601
  696MOL0     H96005   7.236  10.738   9.172  0.0988  1.6258 -0.8713
  696MOL0     H96006   7.128  10.836   9.336  2.5365  0.4700  1.1848
  696MOL0     H96007   7.148  11.004   9.616  0.4722  1.2887  0.3271
  696MOL0     H96008   7.068  10.862   9.541  2.1346  0.0095 -1.0736
  696MOL0     H96009   6.974  11.002   9.583  1.7633  4.4824  1.6101
  696MOL0     H96010   6.891  11.233   9.770  3.5885 -0.6846  1.9609
  696MOL0     H96011   6.782  11.433   9.877  0.5155  0.3365  1.9359
  696MOL0     H96012   6.809  11.895   9.863  0.3837  0.0749 -0.2785
  696MOL0     H96013   6.949  11.842   9.780 -1.0705  0.1940  0.0317
  696MOL0     H96014   6.740  11.703   9.641 -0.4639 -0.0673  1.0498
  696MOL0     H96015   6.671  11.854   9.686 -0.0473 -0.7626  0.7236
  696MOL0     H96016   6.805  11.847   9.457 -0.1231  5.5804 -0.5317
  696MOL0     H96017   6.952  11.820   9.552 -0.2871 -1.3003 -2.7179
  696MOL0     H96018   6.918  12.056   9.647 -0.5209  1.8425  0.8484
  696MOL0     H96019   6.778  12.070   9.530  1.4102 -1.9052 -4.5571
  696MOL0     H96020   7.005  12.167   9.459  0.9875  0.0920  0.4311
  696MOL0     H96021   7.073  12.005   9.464  1.0701  0.2320  1.1200
  696MOL0     H96022   6.871  12.137   9.282  0.9988  0.0782 -0.7361
  696MOL0     H96023   6.869  11.968   9.303 -1.3579 -0.2413  4.4664
  696MOL0     H96024   7.123  11.972   9.237 -3.7330 -3.5152 -1.4583
  696MOL0     H96025   7.101  12.156   9.194 -2.6550  1.6482  2.8294
  696MOL0     H96026   6.989  11.896   9.069  1.0871 -0.3525  0.7919
  696MOL0     H96027   7.114  12.010   9.002 -0.5164  1.7495 -1.9385
  696MOL0     H96028   7.080  11.694   9.704 -1.4832  1.6562  0.0355
  696MOL0     H96029   7.182  11.514   9.598 -0.0694  1.5175  0.2861
  696MOL0     H96030   7.064  11.309   9.218 -4.6661 -0.7694 -0.4430
  696MOL0     H96031   7.135  11.141   9.032  0.3978 -2.7835 -0.8120
  696MOL0     H96032   8.102  11.018   9.651 -2.9608  2.3906 -2.2145
  696MOL0     H96033   7.995  11.084   9.874 -1.7099  0.7914 -0.8933
  696MOL0     H96034   7.851  10.820  10.349 -0.3382  0.3393  1.4940
  696MOL0     H96035   7.778  10.902  10.556  3.3375  1.5473  0.0727
  696MOL0     H96036   7.484  11.276  10.597  2.3456  0.6033 -1.3667
  696MOL0     H96037   7.440  11.118  10.513  1.7879 -0.2266  0.4124
  696MOL0     H96038   7.346  11.115  10.725 -0.5741 -1.4696 -0.8102
  696MOL0     H96039   7.514  11.166  10.792  0.9167 -3.5930  1.4016
  696MOL0     H96040   7.453  10.911  10.655 -2.9044  0.2842  1.1654
  696MOL0     H96041   7.605  10.951  10.739  0.6357 -0.5005  0.4877
  696MOL0     H96042   7.352  10.938  10.914  0.3083  2.4771 -0.9185
  696MOL0     H96043   7.520  10.914  10.952  1.7181 -1.8964 -1.2649
  696MOL0     H96044   7.451  10.525  10.889  2.6778 -0.8417 -2.6032
  696MOL0     H96045   7.554  11.216  10.339  0.9612  0.4836  2.4573
  696MOL0     H96046   7.545  11.024  10.032 -2.0409  0.2579  1.1237
  696MOL0     H96047   7.525  11.181  10.102  2.5451  2.4191  1.2302
  696MOL0     H96048   7.677  11.151  10.026  3.8728  2.0348  5.2434
  697MOL0     O96049   1.170   8.043   3.681  0.1149 -0.3752  0.3624
  697MOL0     C96050   1.139   7.985   3.785  0.1732 -0.1690  0.2874
  697MOL0     O96051   1.133   7.850   3.804 -0.9254  0.5152 -0.0734
  697MOL0     C96052   1.105   7.795   3.925 -0.7037 -0.2982 -0.4156
  697MOL0     C96053   1.189   7.696   3.981  0.1078  0.0200 -0.3790
  697MOL0     C96054   1.147   7.628   4.099 -0.3574 -0.0951 -1.3865
  697MOL0     C96055   1.020   7.648   4.151  0.1590 -0.3970 -0.2930
  697MOL0     O96056   0.982   7.557   4.261  0.1791 -0.3643  0.2484
  697MOL0     C96057   0.914   7.621   4.366  0.5546  0.5673 -0.7938
  697MOL0     C96058   0.958   7.563   4.496 -0.1984 -0.4831 -0.1375
  697MOL0     C96059   0.916   7.421   4.505 -0.2505 -0.1717  0.0729
  697MOL0     C96060   0.894   7.386   4.645  0.2241  0.0332 -0.1666
  697MOL0     C96061   1.013   7.380   4.742 -0.1523  0.0997  0.4979
  697MOL0     C96062   1.117   7.283   4.688 -0.2916 -0.0217  0.0236
  697MOL0     C96063   1.214   7.271   4.799 -0.0430  0.2483 -0.6214
  697MOL0     C96064   1.350   7.210   4.750  1.0643 -0.5348 -0.2107
  697MOL0     N96065   1.446   7.187   4.858 -0.2333  0.2215 -0.3867
  697MOL0     C96066   1.454   7.076   4.930 -0.4321  0.2994 -0.7751
  697MOL0     C96067   1.542   7.108   5.035 -0.4337  0.2330  0.1956
  697MOL0     C96068   1.608   7.014   5.141  0.5522  0.0161  0.7531
  697MOL0     C96069   1.762   7.049   5.159  0.6446  0.1610 -0.2231
  697MOL0     C96070   1.830   6.934   5.241 -0.0105  0.9763  0.2544
  697MOL0     C96071   1.857   6.802   5.154  0.1658  0.3197  0.4139
  697MOL0     O96072   1.897   6.705   5.247 -0.5184  0.5686  0.4864
  697MOL0     C96073   1.882   6.573   5.219  1.3604 -0.1775 -0.1712
  697MOL0     C96074   1.877   6.528   5.090  0.4720  0.6539 -0.0020
  697MOL0     C96075   1.869   6.391   5.059 -0.0390  0.3490  0.9284
  697MOL0     C96076   1.874   6.353   4.911  0.0655  0.5248 -0.1472
  697MOL0     C96077   1.870   6.295   5.161  0.1216 -0.8179  0.5150
  697MOL0     C96078   1.870   6.143   5.142 -0.5107 -1.1100 -0.4655
  697MOL0     O96079   1.949   6.079   5.244 -0.0027 -0.2230  0.3967
  697MOL0     C96080   1.944   5.948   5.243 -0.3978  0.9266 -0.0030
  697MOL0     C96081   2.062   5.877   5.232 -0.6554 -0.0689 -0.7472
  697MOL0     C96082   2.057   5.741   5.221  0.0074 -0.6285 -0.4904
  697MOL0     C96083   1.933   5.674   5.212 -0.5992  0.6428 -0.7720
  697MOL0     O96084   1.923   5.538   5.193 -0.5269  1.0200  0.0603
  697MOL0     C96085   2.044   5.465   5.213 -0.7430 -0.5402  0.3201
  697MOL0     C96086   2.002   5.317   5.236  0.0446 -0.5815 -0.4176
  697MOL0     C96087   2.107   5.241   5.320  0.0368 -0.2560 -0.4265
  697MOL0     C96088   2.251   5.245   5.257  0.5694 -0.7570 -0.8168
  697MOL0     C96089   2.264   5.206   5.107 -0.4262 -0.5379 -0.5196
  697MOL0     C96090   2.414   5.198   5.074 -0.0039 -0.2506  0.6034
  697MOL0     C96091   2.483   5.066   5.091  0.6661  0.6334 -0.1263
  697MOL0     C96092   2.444   4.955   4.985 -1.1552 -0.9438 -0.4615
  697MOL0    Cl96093   2.574   4.816   4.992  0.0376  0.1019  0.0801
  697MOL0     C96094   1.812   5.744   5.230  0.4421  0.4399  0.5150
  697MOL0     C96095   1.822   5.885   5.248  0.5470  0.7526 -0.2878
  697MOL0     O96096   1.813   6.090   5.040 -0.4807  0.2577  0.0782
  697MOL0     C96097   1.856   6.350   5.292  0.7643  0.6914 -0.3918
  697MOL0     C96098   1.870   6.485   5.322  0.0786  0.6418 -0.1414
  697MOL0     N96099   1.588   7.237   5.016  0.1731  0.0437  0.2605
  697MOL0     N96100   1.530   7.286   4.913  0.6483 -0.4446  0.6708
  697MOL0     C96101   0.931   7.748   4.102 -0.0668  0.0337 -0.3125
  697MOL0     C96102   0.980   7.817   3.991 -0.5924 -0.8901 -0.3447
  697MOL0     C96103   1.153   8.078   3.904 -0.8706  0.3677  0.4979
  697MOL0     C96104   1.256   8.062   4.003  0.0322  0.2424  0.3724
  697MOL0     C96105   1.265   8.144   4.113 -0.1834  0.2334 -0.0139
  697MOL0     C96106   1.169   8.238   4.142 -0.1334  0.0591  0.0607
  697MOL0     O96107   1.183   8.328   4.250  0.2972 -0.3209  0.2146
  697MOL0     C96108   1.303   8.344   4.340  1.1433  0.1197 -0.1202
  697MOL0     C96109   1.306   8.243   4.468 -0.2050  0.0094  0.1880
  697MOL0     C96110   1.398   8.273   4.589  0.0931 -0.0587 -0.4937
  697MOL0     C96111   1.545   8.278   4.546 -0.1530  0.4682  0.7696
  697MOL0     C96112   1.586   8.146   4.502  0.2125 -0.2619 -0.6825
  697MOL0     C96113   1.609   8.040   4.461  0.2533  0.8340  0.2831
  697MOL0     C96114   1.062   8.250   4.052  0.0701 -0.2741  0.4647
  697MOL0     C96115   1.047   8.169   3.936  0.0640  0.7692  0.0709
  697MOL0     C96116   0.921   8.188   3.848 -0.1965 -0.0275 -0.0039
  697MOL0     H96117   1.286   7.681   3.935  0.9979 -1.9997  1.9351
  697MOL0     H96118   1.212   7.560   4.152 -0.5120  3.6061  4.5368
  697MOL0     H96119   0.804   7.614   4.366  0.5339  0.5321  0.6797
  697MOL0     H96120   0.925   7.728   4.381  1.7781 -0.0175  4.9131
  697MOL0     H96121   1.066   7.578   4.506 -0.5262  0.8017  1.9818
  697MOL0     H96122   0.916   7.619   4.580 -0.9597 -2.5642  0.9365
  697MOL0     H96123   0.821   7.417   4.452 -0.0844  0.4916 -0.2914
  697MOL0     H96124   0.990   7.359   4.454  0.2299  2.0314 -2.0969
  697MOL0     H96125   0.820   7.457   4.682 -0.0853 -0.6405  0.5244
  697MOL0     H96126   0.836   7.293   4.643  1.0846 -0.7003  3.0202
  697MOL0     H96127   0.976   7.334   4.834 -1.0386 -4.5953 -1.8929
  697MOL0     H96128   1.061   7.477   4.759  0.5820 -0.4835  1.8728
  697MOL0     H96129   1.069   7.189   4.657  1.3301 -0.3340 -1.7231
  697MOL0     H96130   1.171   7.314   4.599 -0.1408 -1.5588 -0.4542
  697MOL0     H96131   1.167   7.202   4.871  0.8100  1.4639  1.1683
  697MOL0     H96132   1.233   7.367   4.848  4.9161 -1.8539  2.4579
  697MOL0     H96133   1.340   7.112   4.702  0.1841  0.7420 -2.8216
  697MOL0     H96134   1.381   7.284   4.675 -1.7191 -1.7142 -2.7514
  697MOL0     H96135   1.404   6.986   4.896  1.7759 -1.9115  1.4018
  697MOL0     H96136   1.570   6.913   5.126 -1.9587  0.4415  3.1972
  697MOL0     H96137   1.561   7.038   5.237 -0.2387  0.4738  0.2693
  697MOL0     H96138   1.803   7.073   5.061  1.5880  1.9159  0.5565
  697MOL0     H96139   1.774   7.139   5.219 -0.7068  0.8591 -0.9502
  697MOL0     H96140   1.925   6.969   5.283  0.1149 -0.3555  1.1324
  697MOL0     H96141   1.766   6.908   5.325 -0.2229  1.0996  0.1324
  697MOL0     H96142   1.770   6.781   5.090  0.6977 -1.0576  0.1211
  697MOL0     H96143   1.939   6.827   5.087 -1.3193 -1.9696 -2.5107
  697MOL0     H96144   1.866   6.600   5.010  0.3585 -1.4562 -1.9695
  697MOL0     H96145   1.946   6.273   4.891  1.0269  1.5114 -0.7730
  697MOL0     H96146   1.903   6.443   4.856  0.0715  0.2489 -0.5979
  697MOL0     H96147   1.779   6.312   4.875  0.3968 -1.3969  1.0437
  697MOL0     H96148   2.153   5.931   5.205 -1.6047  1.5373 -0.8867
  697MOL0     H96149   2.154   5.695   5.224  1.8395  2.8970  0.0376
  697MOL0     H96150   2.123   5.468   5.137 -1.6148  1.8532 -0.5758
  697MOL0     H96151   2.087   5.497   5.308  1.8089  2.6824 -1.6833
  697MOL0     H96152   1.909   5.316   5.293  1.7511 -1.8001  2.5498
  697MOL0     H96153   1.979   5.267   5.141 -2.5136 -0.4178  0.0456
  697MOL0     H96154   2.067   5.140   5.336 -1.2425  0.2279 -0.4680
  697MOL0     H96155   2.116   5.296   5.413 -0.5441  5.4216 -3.3108
  697MOL0     H96156   2.314   5.183   5.321 -0.7766  0.8833  2.3684
  697MOL0     H96157   2.284   5.349   5.266  1.6469 -1.1252 -0.3455
  697MOL0     H96158   2.204   5.116   5.098 -1.2220 -0.2460  1.3632
  697MOL0     H96159   2.219   5.287   5.050  1.0610 -1.4205 -3.1252
  697MOL0     H96160   2.478   5.268   5.129  2.3246  0.1470 -2.3280
  697MOL0     H96161   2.421   5.239   4.973 -4.5459  0.9009  0.5368
  697MOL0     H96162   2.469   5.015   5.186  2.9581  0.5914  0.2486
  697MOL0     H96163   2.591   5.069   5.070  0.8215 -0.6160  0.4098
  697MOL0     H96164   2.439   5.013   4.892  1.8727  3.0972  1.5666
  697MOL0     H96165   2.344   4.920   5.009  0.3852 -4.7262  1.2949
  697MOL0     H96166   1.711   5.706   5.231  1.1194 -1.6695 -1.2718
  697MOL0     H96167   1.731   5.940   5.267  0.4805  0.6127 -0.1948
  697MOL0     H96168   1.847   6.287   5.380  2.7077  0.7250 -0.1240
  697MOL0     H96169   1.875   6.519   5.426 -1.8599 -0.6580  0.4317
  697MOL0     H96170   0.832   7.777   4.136 -1.4006 -0.5141 -3.4378
  697MOL0     H96171   0.922   7.907   3.971  0.3308  0.0353  0.9753
  697MOL0     H96172   1.341   7.996   3.985 -0.9621 -1.5021  1.8131
  697MOL0     H96173   1.353   8.122   4.173  1.4745  1.7541 -1.7413
  697MOL0     H96174   1.397   8.336   4.286  2.0040  0.3342  1.2964
  697MOL0     H96175   1.301   8.446   4.380  0.5762 -0.9415  2.8041
  697MOL0     H96176   1.322   8.150   4.413 -3.1390 -0.8555  0.6124
  697MOL0     H96177   1.202   8.224   4.499 -0.2459 -0.5130 -0.2432
  697MOL0     H96178   1.371   8.374   4.623 -0.7062 -0.2202 -0.6188
  697MOL0     H96179   1.392   8.199   4.669 -2.6663 -0.2605 -0.7625
  697MOL0     H96180   1.610   8.321   4.622 -2.0306  3.3210  0.9076
  697MOL0     H96181   1.554   8.358   4.472 -2.2606  1.4712  1.5173
  697MOL0     H96182   1.615   7.939   4.424  2.9337  1.3297 -0.8381
  697MOL0     H96183   0.982   8.319   4.075 -1.5596 -1.0843 -2.2594
  697MOL0     H96184   0.893   8.087   3.815 -2.2521 -0.1862  1.9615
  697MOL0     H96185   0.838   8.211   3.915 -1.9725 -3.4903 -0.7574
  697MOL0     H96186   0.927   8.268   3.775 -0.0011  0.3376  0.4097
  698MOL0     O96187   2.287   0.894   5.852 -0.0834 -0.3529 -0.2318
  698MOL0     C96188   2.400   0.919   5.887 -0.1277  0.5817 -0.2810
  698MOL0     O96189   2.490   0.979   5.801  0.5622  0.1473 -0.2162
  698MOL0     C96190   2.450   1.053   5.688 -0.4267 -0.3621 -0.1736
  698MOL0     C96191   2.464   1.195   5.687 -0.2810 -0.3452 -0.0396
  698MOL0     C96192   2.425   1.270   5.575 -0.5896  0.0383  0.1202
  698MOL0     C96193   2.356   1.213   5.460  0.1863 -0.3336 -0.2799
  698MOL0     O96194   2.309   1.281   5.352 -0.4125  0.2096  0.2857
  698MOL0     C96195   2.385   1.389   5.301 -0.6068 -0.7869 -0.1302
  698MOL0     C96196   2.537   1.363   5.263  0.7255 -0.1577 -0.5677
  698MOL0     C96197   2.550   1.259   5.156 -0.6252  0.6560 -0.5446
  698MOL0     C96198   2.583   1.308   5.015  1.2417 -0.1433 -0.3926
  698MOL0     C96199   2.624   1.183   4.928  0.0147  0.3540  0.3177
  698MOL0     C96200   2.675   1.226   4.785 -0.1276 -0.7129 -0.2410
  698MOL0     C96201   2.568   1.297   4.695  0.3985  0.7336 -0.0269
  698MOL0     C96202   2.640   1.365   4.580 -0.9294 -0.7012  0.5933
  698MOL0     N96203   2.551   1.453   4.501 -0.0794 -0.0839  0.8105
  698MOL0     C96204   2.448   1.413   4.419  0.3738 -0.5780  0.0005
  698MOL0     C96205   2.414   1.525   4.344 -0.2468  0.7025 -0.4471
  698MOL0     C96206   2.328   1.526   4.224 -0.4553 -0.5371  0.4221
  698MOL0     C96207   2.411   1.598   4.107  0.4398  0.6543 -0.1519
  698MOL0     C96208   2.334   1.563   3.975  0.1704  0.4064 -0.2480
  698MOL0     C96209   2.199   1.624   3.985  1.0168  0.3679 -0.3806
  698MOL0     O96210   2.147   1.624   3.852  0.5495 -0.5557  0.2975
  698MOL0     C96211   2.011   1.648   3.846  0.7317  0.2363 -0.6814
  698MOL0     C96212   1.928   1.545   3.800  0.2560  0.1529 -0.2561
  698MOL0     C96213   1.793   1.563   3.787  0.4608 -0.1238  0.2874
  698MOL0     C96214   1.723   1.437   3.762  0.2423  0.0878 -0.1703
  698MOL0     C96215   1.737   1.693   3.796 -0.2172 -0.9649  0.5206
  698MOL0     C96216   1.589   1.712   3.790 -1.2539 -0.9950 -0.3276
  698MOL0     O96217   1.552   1.837   3.828 -0.0543  0.2361 -0.3916
  698MOL0     C96218   1.419   1.858   3.809  0.4678  0.9636 -0.7343
  698MOL0     C96219   1.367   1.895   3.685 -0.9223  0.2185  0.1621
  698MOL0     C96220   1.230   1.916   3.673 -0.8450 -0.2331 -0.0178
  698MOL0     C96221   1.144   1.909   3.778  0.2057  0.3110  0.3470
  698MOL0     O96222   1.004   1.944   3.774 -0.5209  0.6494 -0.2969
  698MOL0     C96223   0.943   1.999   3.664  0.1186  0.2382  0.5327
  698MOL0     C96224   0.874   1.899   3.578  0.1150 -0.0593 -0.6018
  698MOL0     C96225   0.768   1.957   3.484  0.4574  0.0096  0.0740
  698MOL0     C96226   0.697   1.844   3.417  0.1420 -0.2784 -0.0638
  698MOL0     C96227   0.588   1.774   3.491 -0.3491  0.5550 -1.3714
  698MOL0     C96228   0.625   1.643   3.552 -0.9011 -0.0296  0.5458
  698MOL0     C96229   0.494   1.574   3.607  0.0746 -0.0175  0.2796
  698MOL0     C96230   0.380   1.663   3.672  0.1748  1.2171 -0.3061
  698MOL0    Cl96231   0.449   1.737   3.831 -0.2619  0.2377  0.1639
  698MOL0     C96232   1.198   1.872   3.899 -0.8786  1.0469 -1.4751
  698MOL0     C96233   1.333   1.847   3.922 -0.0412  0.8380  0.5963
  698MOL0     O96234   1.511   1.621   3.763  0.7803 -1.1081  0.8690
  698MOL0     C96235   1.821   1.797   3.834 -0.1294 -0.0725 -0.9278
  698MOL0     C96236   1.953   1.774   3.861  0.5241  0.0033  0.0990
  698MOL0     N96237   2.511   1.616   4.383  0.8624  0.4851 -0.1851
  698MOL0     N96238   2.591   1.575   4.477  0.1389 -0.8756  0.2397
  698MOL0     C96239   2.339   1.073   5.466 -0.5279  0.1877  0.8756
  698MOL0     C96240   2.383   0.988   5.580 -0.8108  0.1224  1.4601
  698MOL0     C96241   2.446   0.867   6.023 -0.1288  0.4038  0.7958
  698MOL0     C96242   2.572   0.900   6.073 -0.5069  1.0854 -0.8394
  698MOL0     C96243   2.623   0.860   6.196  0.0434 -0.7533 -1.2772
  698MOL0     C96244   2.531   0.797   6.283 -0.3215  1.0523  0.5803
  698MOL0     O96245   2.571   0.753   6.405  0.4848 -0.9973 -0.7203
  698MOL0     C96246   2.478   0.760   6.518  0.6999  0.1675 -0.5493
  698MOL0     C96247   2.424   0.902   6.546  0.2173  0.1163  0.2047
  698MOL0     C96248   2.277   0.898   6.594 -0.0264  0.2712 -0.2243
  698MOL0     C96249   2.248   0.833   6.730  0.3494  0.6691  0.6455
  698MOL0     C96250   2.335   0.881   6.836  0.3135  0.6260 -0.3680
  698MOL0     C96251   2.420   0.903   6.924 -0.8558  0.2791 -0.6746
  698MOL0     C96252   2.405   0.758   6.237  0.5489  0.1230  0.6709
  698MOL0     C96253   2.367   0.780   6.106  0.6642 -0.0222  0.9665
  698MOL0     C96254   2.239   0.712   6.073 -1.0895 -0.8355 -0.1631
  698MOL0     H96255   2.515   1.240   5.771 -0.8356 -2.1315  1.3139
  698MOL0     H96256   2.448   1.375   5.590 -2.7251  1.4104 -4.4120
  698MOL0     H96257   2.375   1.467   5.376 -2.2356  0.9783 -2.0740
  698MOL0     H96258   2.336   1.420   5.208  2.1344 -2.6282 -2.3691
  698MOL0     H96259   2.585   1.457   5.235  5.1786 -1.9099  0.4702
  698MOL0     H96260   2.586   1.345   5.359  0.0243  0.7602 -0.0206
  698MOL0     H96261   2.633   1.194   5.187 -1.3890 -0.7475 -1.3224
  698MOL0     H96262   2.459   1.198   5.158  0.5577 -1.2307 -1.4641
  698MOL0     H96263   2.491   1.358   4.983  1.7557  1.8509  1.0155
  698MOL0     H96264   2.663   1.383   5.018  0.5278  0.6985  3.1432
  698MOL0     H96265   2.535   1.122   4.907  0.6806 -0.6055  0.2458
  698MOL0     H96266   2.696   1.117   4.975  1.5942  1.4609 -0.4613
  698MOL0     H96267   2.765   1.282   4.812  1.3692 -1.3304 -3.4348
  698MOL0     H96268   2.717   1.137   4.737  2.0062 -1.8147  3.3246
  698MOL0     H96269   2.516   1.374   4.752 -2.2060 -0.0935 -1.1463
  698MOL0     H96270   2.500   1.216   4.668  0.8038  0.1802  0.5833
  698MOL0     H96271   2.719   1.431   4.618  3.1066 -4.5026 -0.3865
  698MOL0     H96272   2.685   1.291   4.513  0.7488 -2.3779  3.3436
  698MOL0     H96273   2.390   1.321   4.418 -0.4267 -0.0818 -0.8920
  698MOL0     H96274   2.232   1.575   4.243  0.7391  2.5892 -0.9335
  698MOL0     H96275   2.315   1.421   4.194 -2.2882 -0.3714  0.5342
  698MOL0     H96276   2.414   1.703   4.137 -0.1488  0.3334  1.1101
  698MOL0     H96277   2.514   1.561   4.102 -0.5417 -2.2467 -1.7608
  698MOL0     H96278   2.385   1.604   3.887 -2.8079 -1.3927 -3.0180
  698MOL0     H96279   2.334   1.455   3.955 -2.0696  0.5558 -1.3205
  698MOL0     H96280   2.138   1.571   4.059  1.5173 -0.1698 -0.3435
  698MOL0     H96281   2.205   1.730   4.013 -0.8765  0.6759 -0.9993
  698MOL0     H96282   1.969   1.445   3.793  2.8982  1.0904  0.5154
  698MOL0     H96283   1.763   1.345   3.807 -4.7911 -1.4060  1.9084
  698MOL0     H96284   1.736   1.421   3.654 -0.0869  4.1661 -0.9565
  698MOL0     H96285   1.617   1.428   3.786  0.2118 -1.7309 -0.8242
  698MOL0     H96286   1.429   1.913   3.598  0.8701  0.0521  1.3479
  698MOL0     H96287   1.197   1.953   3.577  2.0344  2.1652 -0.2217
  698MOL0     H96288   0.864   2.059   3.710  0.3967 -0.9354  2.6718
  698MOL0     H96289   1.004   2.062   3.598 -2.6766  0.7553 -1.7508
  698MOL0     H96290   0.953   1.845   3.525  3.4821  2.2663  1.6029
  698MOL0     H96291   0.810   1.836   3.640 -0.7742 -3.0974 -4.2278
  698MOL0     H96292   0.813   2.011   3.401  2.7942  0.5058  1.5657
  698MOL0     H96293   0.698   2.032   3.521  0.1194  0.1397 -0.8093
  698MOL0     H96294   0.771   1.778   3.369  2.4956  2.1388 -0.0033
  698MOL0     H96295   0.646   1.885   3.329 -2.1355 -2.4744  0.1244
  698MOL0     H96296   0.550   1.842   3.568  0.5135 -0.4288 -0.0348
  698MOL0     H96297   0.504   1.767   3.421 -0.4485  1.7796 -1.3939
  698MOL0     H96298   0.674   1.668   3.646 -0.5891  2.1397 -0.1380
  698MOL0     H96299   0.694   1.589   3.486 -2.4957 -3.3942  1.3914
  698MOL0     H96300   0.521   1.484   3.663  0.4424 -0.9070 -1.2787
  698MOL0     H96301   0.441   1.523   3.526 -0.9374 -2.1625  2.1647
  698MOL0     H96302   0.290   1.602   3.688 -1.0507  2.8146 -0.7844
  698MOL0     H96303   0.338   1.737   3.603 -2.7160  2.1280  2.1881
  698MOL0     H96304   1.137   1.863   3.988  0.3622  0.2695 -0.6593
  698MOL0     H96305   1.378   1.809   4.013 -1.1114  0.0444  0.8069
  698MOL0     H96306   1.779   1.895   3.854  3.4759  1.5803 -0.6435
  698MOL0     H96307   2.021   1.846   3.905 -0.1616  0.2575  0.7563
  698MOL0     H96308   2.302   1.023   5.377  0.1557  0.1622  0.5960
  698MOL0     H96309   2.388   0.880   5.580 -2.8102 -0.0247  3.2459
  698MOL0     H96310   2.654   0.942   6.016  1.9706 -0.5590  1.2905
  698MOL0     H96311   2.726   0.884   6.221  0.1701 -1.7050 -0.8514
  698MOL0     H96312   2.390   0.699   6.495 -0.3868  1.3618  0.2933
  698MOL0     H96313   2.529   0.709   6.601  0.8207  0.0079 -0.7203
  698MOL0     H96314   2.418   0.967   6.458 -1.6943  0.1117  0.3019
  698MOL0     H96315   2.491   0.955   6.616  0.7205  2.6423 -2.0197
  698MOL0     H96316   2.237   0.999   6.595 -0.1770  0.2438  2.2766
  698MOL0     H96317   2.222   0.847   6.514  1.3266 -2.6695  0.5816
  698MOL0     H96318   2.253   0.724   6.727  0.1849  0.6615  0.6259
  698MOL0     H96319   2.144   0.862   6.747  1.3286  3.2846  3.2296
  698MOL0     H96320   2.488   0.910   7.006 -1.4050  0.0220 -0.1901
  698MOL0     H96321   2.357   0.681   6.298  2.4619 -1.5575  0.1556
  698MOL0     H96322   2.190   0.643   6.142 -0.4502  0.0293  1.1951
  698MOL0     H96323   2.173   0.797   6.057  1.9769  1.4581 -1.9314
  698MOL0     H96324   2.265   0.654   5.983  3.1038 -1.6846  1.3494
  699MOL0     O96325  10.275   9.020   1.771 -0.0355  0.0808 -0.4797
  699MOL0     C96326  10.226   8.963   1.870 -0.6088 -0.5191  0.2228
  699MOL0     O96327  10.227   9.006   1.991  0.0572  0.1907  0.3356
  699MOL0     C96328  10.307   9.109   2.035  0.4791  1.0090 -0.2126
  699MOL0     C96329  10.445   9.109   2.004  0.1522  0.1016  0.0827
  699MOL0     C96330  10.524   9.204   2.072 -0.7424  0.4670  0.0007
  699MOL0     C96331  10.466   9.304   2.158 -0.2972 -0.0366  0.5603
  699MOL0     O96332  10.551   9.410   2.197 -0.6278  0.3779  0.4620
  699MOL0     C96333  10.567   9.397   2.342 -0.2626  0.6313 -0.4516
  699MOL0     C96334  10.695   9.465   2.384  0.8812  0.1255 -0.4481
  699MOL0     C96335  10.700   9.616   2.354 -0.2303  0.0861 -0.0397
  699MOL0     C96336  10.836   9.680   2.414 -0.3071 -0.0350 -0.3422
  699MOL0     C96337  10.894   9.795   2.329  0.3425 -0.3739  0.7209
  699MOL0     C96338  10.788   9.904   2.301 -0.9068  0.5554  0.1809
  699MOL0     C96339  10.719   9.973   2.414 -0.1990  0.7650 -0.1607
  699MOL0     C96340  10.811  10.073   2.483 -0.5582  0.4708  0.1594
  699MOL0     N96341  10.741  10.151   2.589  0.5821 -0.5303 -0.5132
  699MOL0     C96342  10.598  10.150   2.623  0.4715 -0.0306  0.9417
  699MOL0     C96343  10.588  10.262   2.712 -1.2040 -0.0154  0.0227
  699MOL0     C96344  10.463  10.291   2.776 -0.8995  0.5520 -0.2978
  699MOL0     C96345  10.352  10.361   2.693 -0.1215 -0.5522  0.0151
  699MOL0     C96346  10.396  10.494   2.631 -0.6422  0.0571  0.0795
  699MOL0     C96347  10.282  10.574   2.561 -0.0648 -0.4387  0.4733
  699MOL0     O96348  10.178  10.596   2.659  0.2079  0.4509 -0.3196
  699MOL0     C96349  10.199  10.686   2.753 -0.7179 -0.6032 -0.8057
  699MOL0     C96350  10.112  10.683   2.861  0.5233  0.6444 -0.0678
  699MOL0     C96351  10.120  10.761   2.973 -0.0794  0.8270  0.7073
  699MOL0     C96352   9.996  10.753   3.070 -0.8501 -0.6792  0.8426
  699MOL0     C96353  10.219  10.860   2.982  0.4108  0.0039 -0.8994
  699MOL0     C96354  10.230  10.944   3.101  0.3254 -0.0817 -0.2900
  699MOL0     O96355  10.335  10.917   3.181 -0.5112 -0.1012  0.0973
  699MOL0     C96356  10.342  10.972   3.300  0.6950 -0.9002 -0.8810
  699MOL0     C96357  10.439  11.046   3.340 -0.3438 -0.3228 -0.0963
  699MOL0     C96358  10.457  11.099   3.470 -0.5397 -0.5328 -0.0976
  699MOL0     C96359  10.360  11.072   3.569 -0.4480 -0.7420  0.3036
  699MOL0     O96360  10.357  11.129   3.693 -0.1268 -0.2037 -0.4523
  699MOL0     C96361  10.418  11.260   3.702  0.7695 -0.0172  0.2160
  699MOL0     C96362  10.318  11.356   3.630 -0.1779 -1.2011 -0.8177
  699MOL0     C96363  10.358  11.502   3.636 -0.4563 -1.1574 -0.9545
  699MOL0     C96364  10.258  11.590   3.558 -0.5483  0.9669 -1.4085
  699MOL0     C96365  10.293  11.729   3.527 -0.5376 -0.1895 -0.8512
  699MOL0     C96366  10.298  11.825   3.650  0.1200 -0.3263 -1.1602
  699MOL0     C96367  10.157  11.876   3.700  0.6119 -0.2308  0.0796
  699MOL0     C96368  10.168  11.991   3.805 -0.5950  0.2016 -0.7308
  699MOL0    Cl96369  10.218  11.944   3.970 -0.1816 -0.0658  0.0027
  699MOL0     C96370  10.264  10.986   3.535 -0.0562 -0.0993  0.1309
  699MOL0     C96371  10.252  10.934   3.402 -0.2245 -0.1421 -0.8706
  699MOL0     O96372  10.138  11.026   3.119 -0.1077 -0.4078 -0.1578
  699MOL0     C96373  10.305  10.870   2.868 -0.8192 -0.0387  0.4174
  699MOL0     C96374  10.293  10.784   2.759 -0.1223  0.0230  0.3808
  699MOL0     N96375  10.717  10.313   2.729  0.0197  0.2941 -0.5048
  699MOL0     N96376  10.801  10.257   2.649 -0.0774 -0.5766  0.3951
  699MOL0     C96377  10.325   9.310   2.171  0.5261  0.3067  0.3616
  699MOL0     C96378  10.246   9.206   2.118  0.3886 -0.0697  0.1117
  699MOL0     C96379  10.146   8.848   1.829 -0.7290  0.2384 -0.0787
  699MOL0     C96380  10.150   8.781   1.630 -0.2209  0.6608  0.5438
  699MOL0     C96381  10.032   8.617   1.570  0.2878  0.1246  1.2230
  699MOL0     C96382   9.906   8.520   1.709 -0.3242  0.0198  0.2551
  699MOL0     O96383   9.829   8.413   1.677  1.3338 -0.3205  0.8673
  699MOL0     C96384   9.852   8.358   1.556  0.2789  0.8957  0.2840
  699MOL0     C96385   9.851   8.201   1.583 -0.3038 -0.1815  0.5810
  699MOL0     C96386   9.946   8.161   1.702  0.3362 -0.2097 -0.6292
  699MOL0     C96387   9.959   8.005   1.691 -1.0786  0.7115 -1.1166
  699MOL0     C96388  10.031   7.956   1.810  0.2481  0.0636 -0.2458
  699MOL0     C96389  10.088   7.908   1.908 -0.6334  0.2168 -0.3124
  699MOL0     C96390   9.906   8.585   1.907 -0.1573 -0.8311  0.0385
  699MOL0     C96391  10.028   8.748   1.967  0.0399  0.1501 -1.1580
  699MOL0     C96392  10.039   8.775   2.120 -0.0480 -1.0827 -0.0785
  699MOL0     H96393  10.497   9.039   1.940  3.2031  1.3329  0.9956
  699MOL0     H96394  10.632   9.207   2.059 -0.4220 -0.2891  2.0111
  699MOL0     H96395  10.559   9.292   2.372  1.1544  0.5093 -0.4050
  699MOL0     H96396  10.482   9.452   2.381 -0.6164 -0.7295  0.7781
  699MOL0     H96397  10.696   9.463   2.493  1.1436  2.6535 -0.3366
  699MOL0     H96398  10.781   9.412   2.341 -0.0244  0.8853 -3.4264
  699MOL0     H96399  10.700   9.638   2.247 -4.3583 -0.9505 -0.4342
  699MOL0     H96400  10.618   9.673   2.399 -0.4620 -0.4779  0.2662
  699MOL0     H96401  10.822   9.719   2.516  1.6671 -1.4665  0.5437
  699MOL0     H96402  10.915   9.606   2.428  2.1598  1.8713 -2.9324
  699MOL0     H96403  10.915   9.747   2.233 -0.1846  3.6177 -1.6452
  699MOL0     H96404  10.980   9.840   2.380 -0.4428  2.2502 -0.1133
  699MOL0     H96405  10.848   9.979   2.249  0.7611 -0.9602 -0.1736
  699MOL0     H96406  10.713   9.855   2.237 -0.7256  1.2945 -0.6132
  699MOL0     H96407  10.692   9.898   2.489  2.6377 -0.7127 -0.5001
  699MOL0     H96408  10.618  10.012   2.397  0.3628  1.5984 -1.7117
  699MOL0     H96409  10.896  10.017   2.525 -0.7867 -2.1412 -2.5015
  699MOL0     H96410  10.849  10.145   2.411  0.9589 -2.2412 -1.9723
  699MOL0     H96411  10.532  10.069   2.595  4.4979 -3.0854 -0.8341
  699MOL0     H96412  10.496  10.356   2.858  0.1467  0.4438 -0.6112
  699MOL0     H96413  10.415  10.199   2.808  2.0703 -1.1969 -0.5255
  699MOL0     H96414  10.310  10.285   2.626 -2.8689  0.0411  0.9398
  699MOL0     H96415  10.268  10.371   2.763 -1.2158 -1.8068 -1.0597
  699MOL0     H96416  10.454  10.558   2.698  0.8746  0.7750 -1.8242
  699MOL0     H96417  10.466  10.469   2.551  0.8890  0.7541  1.1511
  699MOL0     H96418  10.323  10.668   2.521  1.1824  0.0417  2.7113
  699MOL0     H96419  10.254  10.509   2.478 -1.2173 -1.1017  1.3573
  699MOL0     H96420  10.032  10.612   2.844 -0.5904  2.0307 -0.9091
  699MOL0     H96421  10.024  10.781   3.171  1.3242  0.7044 -0.0845
  699MOL0     H96422   9.943  10.657   3.073 -2.5385  0.0298 -2.0217
  699MOL0     H96423   9.925  10.827   3.033 -2.7874 -3.3860 -1.3472
  699MOL0     H96424  10.520  11.064   3.270 -1.1009  1.4605 -0.5728
  699MOL0     H96425  10.538  11.167   3.495  0.9522 -3.0832  2.6538
  699MOL0     H96426  10.437  11.281   3.808  4.9743  2.2059 -0.7489
  699MOL0     H96427  10.520  11.268   3.662  0.6653 -1.6219 -0.4136
  699MOL0     H96428  10.318  11.325   3.525  0.2698  0.1862 -1.2492
  699MOL0     H96429  10.212  11.343   3.654  0.1240  0.6613  1.9575
  699MOL0     H96430  10.461  11.515   3.600 -0.6032  1.3559 -0.6317
  699MOL0     H96431  10.343  11.534   3.739 -0.6741  0.0546 -1.3490
  699MOL0     H96432  10.175  11.599   3.629  0.7457 -1.0332  0.4807
  699MOL0     H96433  10.219  11.534   3.473 -0.7681 -1.2735  0.1059
  699MOL0     H96434  10.389  11.727   3.474  1.7403  1.2728  2.8739
  699MOL0     H96435  10.227  11.770   3.450 -1.2055 -2.9716 -1.8926
  699MOL0     H96436  10.358  11.911   3.616  3.6095 -1.6420  1.0713
  699MOL0     H96437  10.365  11.782   3.726  0.5516 -1.5000 -2.1774
  699MOL0     H96438  10.092  11.794   3.731 -0.4557  1.4212  2.5255
  699MOL0     H96439  10.103  11.918   3.615  0.2775  1.9008  1.2637
  699MOL0     H96440  10.077  12.050   3.820  1.2689  3.0378  0.1977
  699MOL0     H96441  10.241  12.064   3.770  1.7253 -1.8073 -0.2857
  699MOL0     H96442  10.187  10.954   3.604  1.4975  1.0246  2.4995
  699MOL0     H96443  10.183  10.850   3.397  1.1855 -1.9430  3.7467
  699MOL0     H96444  10.387  10.942   2.860  0.6557 -1.3299  2.7186
  699MOL0     H96445  10.345  10.802   2.665  0.7975 -0.2156  0.8245
  699MOL0     H96446  10.304   9.400   2.229  2.4958  1.3823 -0.4709
  699MOL0     H96447  10.141   9.223   2.139  0.6340  0.2297  1.1915
  699MOL0     H96448  10.216   8.831   1.560 -0.1137 -0.7337 -0.3864
  699MOL0     H96449  10.043   8.610   1.462  1.1085 -5.0494  1.3729
  699MOL0     H96450   9.772   8.372   1.483  1.1387 -1.6462 -1.2736
  699MOL0     H96451   9.948   8.384   1.511  0.2640  1.9176  0.8192
  699MOL0     H96452   9.887   8.157   1.490 -0.4937 -0.1742  0.5023
  699MOL0     H96453   9.743   8.183   1.593 -0.4503  1.1604  1.8426
  699MOL0     H96454  10.046   8.197   1.679  1.4723 -2.1802  0.8268
  699MOL0     H96455   9.917   8.197   1.801  1.5924 -0.7272 -0.0520
  699MOL0     H96456  10.015   7.974   1.603 -0.9766  0.8538 -1.0995
  699MOL0     H96457   9.866   7.948   1.685 -1.9297  2.0059 -0.7026
  699MOL0     H96458  10.144   7.856   1.983  0.7059 -0.1365 -1.5210
  699MOL0     H96459   9.837   8.536   1.976 -2.5302  2.1293 -0.0173
  699MOL0     H96460  10.012   8.690   2.183 -3.1607 -1.0968 -1.2257
  699MOL0     H96461  10.133   8.822   2.147  0.0111 -0.9628 -0.4805
  699MOL0     H96462   9.958   8.846   2.137  1.8187  1.0418  0.3184
  700MOL0     O96463   0.163   6.822   8.149  0.1454 -0.0972  0.2983
  700MOL0     C96464   0.105   6.904   8.075 -0.8978 -0.3097  0.4619
  700MOL0     O96465  -0.011   6.982   8.113  0.2341 -0.0776 -0.1620
  700MOL0     C96466  -0.061   6.987   8.245 -0.2917  0.5178  0.7252
  700MOL0     C96467  -0.039   6.893   8.346  0.6098  0.0713 -0.4815
  700MOL0     C96468  -0.090   6.921   8.478  0.3821  0.1643 -0.4063
  700MOL0     C96469  -0.176   7.028   8.511  0.5569 -1.0340  0.5299
  700MOL0     O96470  -0.234   7.045   8.633 -0.8822  0.3554 -0.5611
  700MOL0     C96471  -0.171   6.996   8.755  1.2144  0.4761 -0.1765
  700MOL0     C96472  -0.041   7.073   8.784  0.7470  0.4167  0.4682
  700MOL0     C96473  -0.055   7.230   8.798 -0.8582 -0.4754 -0.5447
  700MOL0     C96474  -0.123   7.258   8.940  0.2932  0.0222  0.1175
  700MOL0     C96475  -0.146   7.411   8.970 -0.9783 -0.0928  0.7948
  700MOL0     C96476  -0.209   7.434   9.107 -0.1846 -0.1264 -0.0376
  700MOL0     C96477  -0.109   7.394   9.218 -0.4247  0.5302 -0.0674
  700MOL0     C96478  -0.154   7.437   9.359 -0.0279 -0.7968 -0.2781
  700MOL0     N96479  -0.115   7.576   9.388 -0.1326  0.5149 -0.5220
  700MOL0     C96480  -0.194   7.686   9.380  1.0333 -0.1221 -0.7098
  700MOL0     C96481  -0.127   7.782   9.442  0.1341  0.9254  0.6040
  700MOL0     C96482  -0.188   7.919   9.445 -0.0370  0.3261 -0.6621
  700MOL0     C96483  -0.284   7.952   9.568 -0.9331  0.7546 -0.1027
  700MOL0     C96484  -0.188   7.963   9.687  0.0944  0.6980 -1.2494
  700MOL0     C96485  -0.260   8.024   9.813  0.1529  0.8344  0.7577
  700MOL0     O96486  -0.279   8.165   9.806 -0.6172 -0.5654  0.9832
  700MOL0     C96487  -0.270   8.254   9.913  0.1937 -0.0245 -0.7077
  700MOL0     C96488  -0.281   8.222  10.050  0.5162 -0.5413 -0.5604
  700MOL0     C96489  -0.255   8.309  10.150  0.7756 -0.5647  0.1859
  700MOL0     C96490  -0.277   8.240  10.283 -1.0607 -0.7621  0.4023
  700MOL0     C96491  -0.244   8.451  10.122  0.2088  0.5010  0.3131
  700MOL0     C96492  -0.254   8.550  10.233 -0.5296  0.1538 -0.2200
  700MOL0     O96493  -0.173   8.528  10.340  0.6957  0.2042  0.6253
  700MOL0     C96494  -0.119   8.622  10.419  0.2406  0.9299 -0.6160
  700MOL0     C96495  -0.061   8.562  10.530 -0.3518 -1.5096 -0.8464
  700MOL0     C96496   0.000   8.645  10.626 -0.7842  0.3103 -0.4036
  700MOL0     C96497   0.009   8.784  10.608 -0.1249  0.0244 -0.2248
  700MOL0     O96498   0.074   8.863  10.703 -0.1205 -0.5463  0.1796
  700MOL0     C96499   0.035   8.990  10.742  0.3453 -0.0811  0.1451
  700MOL0     C96500   0.145   9.091  10.694  0.0886  0.5136  0.6853
  700MOL0     C96501   0.097   9.234  10.703 -0.6863  0.7993  0.7407
  700MOL0     C96502   0.100   9.270  10.847  0.4674  0.2992 -0.0431
  700MOL0     C96503   0.024   9.395  10.881 -1.0666  0.1367  0.4712
  700MOL0     C96504   0.055   9.520  10.790 -0.5161  0.3177  0.3055
  700MOL0     C96505  -0.011   9.522  10.651  0.1031 -0.4303  0.4468
  700MOL0     C96506  -0.018   9.671  10.596 -0.2357 -0.1591  0.1307
  700MOL0    Cl96507  -0.109   9.796  10.691  0.0688  0.0681 -0.2073
  700MOL0     C96508  -0.064   8.837  10.503  0.3650 -0.2514 -0.0160
  700MOL0     C96509  -0.119   8.759  10.404 -0.5070  0.5501 -0.0954
  700MOL0     O96510  -0.326   8.641  10.205  0.6441 -0.3713 -0.2463
  700MOL0     C96511  -0.253   8.489   9.986  0.4448 -0.0771  0.4163
  700MOL0     C96512  -0.258   8.392   9.888 -0.9687 -0.2629  0.9026
  700MOL0     N96513  -0.005   7.728   9.481  0.2263  0.3796  0.3351
  700MOL0     N96514   0.005   7.610   9.442  0.8096 -0.0881  0.0747
  700MOL0     C96515  -0.199   7.124   8.408  0.4768  0.6873 -0.4741
  700MOL0     C96516  -0.142   7.099   8.284 -0.2142  0.0894  1.1794
  700MOL0     C96517   0.164   6.931   7.946 -0.0755 -0.3583 -1.0159
  700MOL0     C96518   0.186   7.067   7.914  0.1554  1.2679 -0.6033
  700MOL0     C96519   0.248   7.100   7.789  0.2097  0.7688 -0.8738
  700MOL0     C96520   0.301   7.003   7.709  0.0992  0.3120  0.8393
  700MOL0     O96521   0.382   7.023   7.599 -0.6996  0.0493 -0.5933
  700MOL0     C96522   0.521   7.043   7.647  0.1700  0.5297 -1.3391
  700MOL0     C96523   0.609   7.077   7.526  0.0184  0.9688  0.3451
  700MOL0     C96524   0.613   6.967   7.421  0.4196 -0.5899 -0.6190
  700MOL0     C96525   0.694   6.994   7.292  0.2319 -0.8435  0.2756
  700MOL0     C96526   0.683   7.139   7.247 -0.5206 -0.3682 -1.0040
  700MOL0     C96527   0.658   7.248   7.216  0.0165  0.0483 -0.0670
  700MOL0     C96528   0.273   6.870   7.751 -0.5846 -0.1018  0.9081
  700MOL0     C96529   0.212   6.835   7.867 -0.2374 -0.3003  0.0954
  700MOL0     C96530   0.205   6.690   7.896  0.1153  0.1060 -0.4168
  700MOL0     H96531   0.022   6.803   8.333 -0.6888 -2.1335  5.4326
  700MOL0     H96532  -0.071   6.839   8.547  1.8061  1.9147  1.3836
  700MOL0     H96533  -0.149   6.889   8.756 -1.2019 -0.1031 -1.7031
  700MOL0     H96534  -0.233   7.005   8.845 -0.1340 -2.4713 -0.6929
  700MOL0     H96535   0.005   7.019   8.868  1.7566  0.0589 -0.2982
  700MOL0     H96536   0.020   7.054   8.696 -0.7643 -0.9330 -0.3518
  700MOL0     H96537   0.044   7.277   8.798 -0.0244 -2.1335  0.6999
  700MOL0     H96538  -0.108   7.273   8.712  0.1863 -0.7097 -1.3207
  700MOL0     H96539  -0.222   7.212   8.939 -0.7058  2.0063  1.7912
  700MOL0     H96540  -0.059   7.208   9.013  4.0740 -0.1499 -2.9886
  700MOL0     H96541  -0.211   7.452   8.891  2.2995  1.7052 -1.1931
  700MOL0     H96542  -0.052   7.467   8.961 -2.0579  1.5901 -1.0085
  700MOL0     H96543  -0.215   7.543   9.116  3.3211  0.4522 -2.5318
  700MOL0     H96544  -0.300   7.374   9.120 -0.8165  0.7470 -0.3054
  700MOL0     H96545  -0.007   7.425   9.194  0.0850 -2.5306 -2.3795
  700MOL0     H96546  -0.099   7.286   9.224  0.5215  0.5440 -1.0779
  700MOL0     H96547  -0.261   7.414   9.370  0.6952 -5.4752 -1.0040
  700MOL0     H96548  -0.096   7.376   9.429  2.0797  1.9667  0.5467
  700MOL0     H96549  -0.301   7.697   9.371  0.6717 -1.6476  1.0244
  700MOL0     H96550  -0.242   7.939   9.351 -1.7071  2.4339  0.6411
  700MOL0     H96551  -0.103   7.988   9.453  1.6041 -1.7080  0.5282
  700MOL0     H96552  -0.332   8.048   9.543 -1.4641  0.6525  0.4940
  700MOL0     H96553  -0.360   7.876   9.584  0.1609 -0.9318 -2.3633
  700MOL0     H96554  -0.145   7.872   9.729  1.1702  1.7371  0.0028
  700MOL0     H96555  -0.101   8.025   9.664  1.3061  0.0511  1.1403
  700MOL0     H96556  -0.360   7.980   9.819 -0.4311  1.8456 -0.7266
  700MOL0     H96557  -0.210   7.992   9.904 -0.8986  2.7365  2.0733
  700MOL0     H96558  -0.287   8.118  10.082  0.5829 -0.7752 -1.3078
  700MOL0     H96559  -0.299   8.300  10.371 -1.9362 -1.3284  0.5814
  700MOL0     H96560  -0.185   8.184  10.299 -0.5876 -0.6864 -1.6759
  700MOL0     H96561  -0.358   8.166  10.288 -1.6228 -0.5699 -3.1464
  700MOL0     H96562  -0.086   8.457  10.539 -0.0114 -1.3850  3.2641
  700MOL0     H96563   0.041   8.585  10.707 -3.4753  0.0271  0.8464
  700MOL0     H96564  -0.059   9.020  10.694  0.2474  2.1837  1.6037
  700MOL0     H96565   0.019   9.004  10.849 -2.6163 -0.3481 -0.1908
  700MOL0     H96566   0.238   9.084  10.751 -0.1873 -1.5219  0.9780
  700MOL0     H96567   0.167   9.066  10.590  1.0262 -2.4608  1.4907
  700MOL0     H96568  -0.007   9.236  10.668 -0.8467 -0.5749  1.1117
  700MOL0     H96569   0.162   9.302  10.646 -0.8644  0.9119  0.6705
  700MOL0     H96570   0.207   9.290  10.858  0.4814  2.0206 -2.3766
  700MOL0     H96571   0.071   9.196  10.922 -1.0440  3.8140  3.2117
  700MOL0     H96572  -0.083   9.374  10.877 -0.9274 -1.0993  2.0928
  700MOL0     H96573   0.061   9.425  10.979 -1.1461 -0.0071  0.5466
  700MOL0     H96574   0.163   9.522  10.774 -0.6294 -1.5268 -1.0539
  700MOL0     H96575   0.022   9.609  10.843 -1.9333 -0.4123  0.7103
  700MOL0     H96576  -0.110   9.474  10.652  0.2150 -0.6930 -0.3448
  700MOL0     H96577   0.059   9.470  10.585  2.2495  0.6152  1.8186
  700MOL0     H96578  -0.076   9.676  10.504  0.1683  4.0112 -0.0839
  700MOL0     H96579   0.082   9.713  10.580 -0.3162 -0.3761 -0.9699
  700MOL0     H96580  -0.061   8.945  10.494  1.5690 -0.4275 -2.6724
  700MOL0     H96581  -0.173   8.791  10.316 -0.2086 -0.6408 -0.7465
  700MOL0     H96582  -0.265   8.590   9.948  4.4072 -0.9446 -4.0987
  700MOL0     H96583  -0.258   8.416   9.782  1.6397  2.3570  1.3795
  700MOL0     H96584  -0.266   7.207   8.428 -2.5381 -2.0296  1.7896
  700MOL0     H96585  -0.166   7.176   8.212 -0.7926 -0.9115  0.2825
  700MOL0     H96586   0.145   7.149   7.972  0.0235  0.8232 -0.0585
  700MOL0     H96587   0.267   7.203   7.759 -0.9200  0.8618 -1.3256
  700MOL0     H96588   0.531   7.130   7.713  2.1030 -0.2415 -0.5577
  700MOL0     H96589   0.570   6.961   7.700 -1.1617  1.8223  2.2740
  700MOL0     H96590   0.711   7.101   7.559 -1.1438  1.6188  3.9040
  700MOL0     H96591   0.579   7.178   7.497 -1.6007  0.6622  0.8470
  700MOL0     H96592   0.653   6.873   7.460  0.1006 -0.4441  0.0593
  700MOL0     H96593   0.510   6.950   7.388  0.2594  1.3785 -1.2934
  700MOL0     H96594   0.655   6.935   7.209  1.1236  1.3240 -1.7936
  700MOL0     H96595   0.794   6.956   7.315  0.6073  1.0563  2.1541
  700MOL0     H96596   0.638   7.351   7.194 -0.5627  0.5214  2.3791
  700MOL0     H96597   0.309   6.799   7.677 -1.1364  0.7230 -0.1863
  700MOL0     H96598   0.215   6.617   7.816 -1.4002  0.5200 -1.0284
  700MOL0     H96599   0.288   6.667   7.963 -0.0589  2.1761  0.6010
  700MOL0     H96600   0.107   6.678   7.945 -0.5181  3.0267 -0.8076
  701MOL0     O96601   5.933   4.919  10.674  0.3147  0.2246 -0.1626
  701MOL0     C96602   5.990   4.867  10.763  0.1434 -0.5697  0.2154
  701MOL0     O96603   6.065   4.750  10.757 -0.5497 -0.5764  0.7920
  701MOL0     C96604   6.086   4.704  10.625 -0.0563 -0.1229  0.1216
  701MOL0     C96605   5.987   4.675  10.525  0.1152 -0.3002 -0.0456
  701MOL0     C96606   6.020   4.635  10.394  0.0864  1.1425 -0.1711
  701MOL0     C96607   6.151   4.628  10.353 -0.1533 -0.5879 -0.4910
  701MOL0     O96608   6.176   4.587  10.225  0.5734  0.3249  0.1362
  701MOL0     C96609   6.253   4.463  10.217 -0.4801  0.1436 -0.5527
  701MOL0     C96610   6.329   4.462  10.084 -0.1557 -0.2042 -0.1375
  701MOL0     C96611   6.414   4.593  10.063  1.1074  0.7645 -0.3416
  701MOL0     C96612   6.438   4.624   9.916  0.3158  0.5742  0.4198
  701MOL0     C96613   6.495   4.759   9.885  0.6945  0.4366 -0.2906
  701MOL0     C96614   6.396   4.882   9.903 -0.0168  1.1361  0.2490
  701MOL0     C96615   6.438   5.013   9.838  0.0160 -0.0836 -0.3970
  701MOL0     C96616   6.353   5.123   9.900 -0.3707 -0.1183 -0.1466
  701MOL0     N96617   6.373   5.252   9.828 -0.0904 -0.4776 -0.0545
  701MOL0     C96618   6.499   5.307   9.802  0.4799  0.5538 -0.0329
  701MOL0     C96619   6.471   5.428   9.746 -0.3331 -0.4420  0.1113
  701MOL0     C96620   6.578   5.539   9.731  0.3223 -0.0701  0.8835
  701MOL0     C96621   6.520   5.678   9.756 -0.8380  0.4381 -0.0058
  701MOL0     C96622   6.626   5.785   9.745  0.0053 -0.0785  0.3718
  701MOL0     C96623   6.691   5.789   9.601 -0.1773 -0.1139  0.3136
  701MOL0     O96624   6.590   5.805   9.503  0.0849 -0.1807  0.3131
  701MOL0     C96625   6.535   5.931   9.486 -1.3634 -0.4963 -0.0483
  701MOL0     C96626   6.416   5.922   9.429  0.2987 -0.1355  0.9902
  701MOL0     C96627   6.321   6.031   9.414 -0.1311  0.4920  1.0597
  701MOL0     C96628   6.189   6.003   9.345 -0.1414  0.3550  0.1650
  701MOL0     C96629   6.365   6.161   9.459  0.8147 -0.1949  1.0676
  701MOL0     C96630   6.292   6.292   9.452 -1.1970 -0.6929 -0.0853
  701MOL0     O96631   6.364   6.399   9.507  0.7672 -0.2195 -0.1403
  701MOL0     C96632   6.278   6.491   9.572 -0.1215  0.3760  1.1403
  701MOL0     C96633   6.340   6.606   9.601  0.9463 -0.0931 -0.3465
  701MOL0     C96634   6.284   6.702   9.690  0.5785  0.1230  0.0249
  701MOL0     C96635   6.156   6.676   9.742  0.0852 -0.0133 -0.5124
  701MOL0     O96636   6.073   6.764   9.808 -0.3243  0.1479  0.2374
  701MOL0     C96637   6.114   6.901   9.823  0.2117  0.1742 -0.1625
  701MOL0     C96638   6.008   6.974   9.913 -0.7167  0.8208  0.2398
  701MOL0     C96639   5.979   6.908  10.048  0.4727  0.5169 -0.0722
  701MOL0     C96640   5.986   7.000  10.170 -1.4548 -0.0753 -0.1694
  701MOL0     C96641   5.956   6.925  10.302 -0.7045 -0.0717  0.1230
  701MOL0     C96642   5.998   7.014  10.423  0.7677 -0.1531 -0.7263
  701MOL0     C96643   5.958   6.959  10.567 -0.1659  1.1212 -0.1828
  701MOL0     C96644   5.935   7.062  10.686 -1.1660  0.0958  0.6326
  701MOL0    Cl96645   6.088   7.158  10.715  0.7238 -0.2826  0.2129
  701MOL0     C96646   6.090   6.545   9.721  0.2203 -0.5356 -0.1737
  701MOL0     C96647   6.156   6.455   9.635 -0.3027 -0.1486 -0.0290
  701MOL0     O96648   6.194   6.305   9.384  0.2013  0.3823 -0.3327
  701MOL0     C96649   6.498   6.166   9.519  1.2529 -0.1473  0.3670
  701MOL0     C96650   6.578   6.052   9.533  1.0824 -0.3958 -0.8860
  701MOL0     N96651   6.335   5.446   9.725 -0.1533  0.9778  0.2125
  701MOL0     N96652   6.283   5.330   9.766  0.5798 -1.5061  0.9175
  701MOL0     C96653   6.253   4.656  10.444  0.2961 -0.0821  0.5118
  701MOL0     C96654   6.218   4.696  10.576 -0.6021  0.7450 -0.0068
  701MOL0     C96655   5.992   4.919  10.901 -0.1828 -0.2001  0.7812
  701MOL0     C96656   6.007   4.825  10.996  0.8589 -0.2476  0.0365
  701MOL0     C96657   6.053   4.849  11.122  0.3686 -0.8813  0.3014
  701MOL0     C96658   6.058   4.982  11.165 -1.0616  0.5683  0.4722
  701MOL0     O96659   6.108   5.001  11.286  0.5707 -0.3044 -0.0310
  701MOL0     C96660   6.099   5.134  11.348 -0.5029 -0.8715 -0.3172
  701MOL0     C96661   6.219   5.224  11.333  0.5142 -0.3285 -0.0332
  701MOL0     C96662   6.362   5.164  11.353  0.3257  0.2063  0.1780
  701MOL0     C96663   6.457   5.272  11.298 -0.6104  0.9468  0.0650
  701MOL0     C96664   6.596   5.216  11.286  0.2885 -0.3959  0.9966
  701MOL0     C96665   6.711   5.201  11.292  0.4533  0.4948  0.3360
  701MOL0     C96666   6.016   5.081  11.079  0.3384  0.8631 -0.8846
  701MOL0     C96667   5.980   5.050  10.947 -0.1011  0.9614 -0.1575
  701MOL0     C96668   5.939   5.166  10.855  0.7014  0.3307  0.8433
  701MOL0     H96669   5.880   4.688  10.529 -0.3481 -3.4401 -0.3781
  701MOL0     H96670   5.932   4.610  10.335 -0.7215  2.3618  0.4695
  701MOL0     H96671   6.184   4.379  10.222 -0.5483  0.2105 -0.3535
  701MOL0     H96672   6.330   4.454  10.294 -1.4267 -3.1721  0.1678
  701MOL0     H96673   6.396   4.378  10.064  2.4904  1.2497  1.8563
  701MOL0     H96674   6.250   4.471  10.009 -2.5811 -0.3659  2.2211
  701MOL0     H96675   6.357   4.679  10.101 -2.4764 -2.1878  1.6237
  701MOL0     H96676   6.509   4.600  10.117  1.6835  5.5458 -1.4607
  701MOL0     H96677   6.480   4.536   9.867 -3.5511  0.9066 -4.2540
  701MOL0     H96678   6.339   4.620   9.871 -0.1161 -0.1395  1.4067
  701MOL0     H96679   6.539   4.755   9.785 -0.0087  0.1589 -0.5976
  701MOL0     H96680   6.579   4.770   9.954  0.4154  1.0030 -0.0374
  701MOL0     H96681   6.298   4.865   9.858  0.0637 -1.3435  0.8617
  701MOL0     H96682   6.399   4.880  10.012  1.6618 -0.5725  0.2248
  701MOL0     H96683   6.407   5.017   9.733 -1.1095 -1.0033 -0.1225
  701MOL0     H96684   6.546   5.025   9.852 -0.1122 -1.1242  2.1812
  701MOL0     H96685   6.245   5.103   9.903 -0.9074  2.5096  2.4813
  701MOL0     H96686   6.391   5.127  10.002 -1.0940 -0.7452  0.1560
  701MOL0     H96687   6.595   5.274   9.841  0.2651  0.5017  0.4552
  701MOL0     H96688   6.602   5.526   9.625 -2.0238 -2.0598  0.5106
  701MOL0     H96689   6.663   5.517   9.796  1.0423  1.0218  0.3383
  701MOL0     H96690   6.449   5.705   9.678 -0.6811  1.0968  0.0760
  701MOL0     H96691   6.478   5.661   9.855  2.3137 -3.9509  0.9133
  701MOL0     H96692   6.577   5.880   9.767  0.0729 -0.6274  3.2528
  701MOL0     H96693   6.706   5.773   9.818 -0.0724 -1.0668  0.3173
  701MOL0     H96694   6.763   5.872   9.598 -2.5108  2.1896  2.5531
  701MOL0     H96695   6.745   5.698   9.575 -1.2916 -1.6083  2.8936
  701MOL0     H96696   6.377   5.827   9.393  0.2946  0.1174  0.3127
  701MOL0     H96697   6.111   6.043   9.410  1.5833  3.3076  0.6087
  701MOL0     H96698   6.165   5.899   9.322 -3.2043  0.3994  2.5201
  701MOL0     H96699   6.187   6.061   9.252 -0.8232 -1.9433 -1.3252
  701MOL0     H96700   6.442   6.616   9.565  1.0162 -0.8985 -0.3790
  701MOL0     H96701   6.336   6.790   9.725 -1.5712  1.0200  1.1521
  701MOL0     H96702   6.213   6.915   9.867 -0.7847 -0.9977  2.6547
  701MOL0     H96703   6.111   6.957   9.729  0.1499 -1.8140 -1.4114
  701MOL0     H96704   6.050   7.073   9.931  2.1987 -0.0538 -1.1572
  701MOL0     H96705   5.924   6.987   9.844 -0.5744 -0.0812 -0.1205
  701MOL0     H96706   6.053   6.827  10.054 -1.3991 -1.2232  0.7769
  701MOL0     H96707   5.883   6.857  10.058  1.7459 -1.8297  1.1161
  701MOL0     H96708   5.934   7.095  10.159  2.5514  2.2977 -0.9176
  701MOL0     H96709   6.086   7.043  10.177 -1.2998 -0.6889  3.4000
  701MOL0     H96710   5.848   6.912  10.295 -0.6399 -0.4600 -0.1450
  701MOL0     H96711   6.016   6.834  10.300 -0.1556  0.2897 -2.1865
  701MOL0     H96712   5.956   7.113  10.408 -2.6684 -1.4094 -0.3622
  701MOL0     H96713   6.107   7.024  10.416  0.7129  0.4981 -0.7139
  701MOL0     H96714   6.034   6.885  10.594  0.4184  1.9087  0.3346
  701MOL0     H96715   5.872   6.893  10.552  0.8578  0.1851 -2.4860
  701MOL0     H96716   5.901   7.018  10.780 -0.5488 -0.1018  0.7677
  701MOL0     H96717   5.870   7.143  10.651 -1.1932 -0.4505 -0.6405
  701MOL0     H96718   5.997   6.518   9.770  0.1115 -0.6668 -0.4475
  701MOL0     H96719   6.109   6.358   9.623 -0.6899 -0.2651  2.0314
  701MOL0     H96720   6.521   6.257   9.573 -1.0319  1.5663 -1.3154
  701MOL0     H96721   6.674   6.052   9.585  0.7293  0.1128 -0.2051
  701MOL0     H96722   6.358   4.668  10.419  1.5251 -2.0259  3.9368
  701MOL0     H96723   6.308   4.715  10.634  0.7130  2.6205 -2.4389
  701MOL0     H96724   5.994   4.721  10.969 -4.6450  0.4323 -1.1147
  701MOL0     H96725   6.088   4.766  11.182  1.1032 -1.9739 -1.5498
  701MOL0     H96726   6.011   5.193  11.322  0.3130  0.5784  0.1123
  701MOL0     H96727   6.086   5.123  11.456 -3.5309 -0.8529 -0.6127
  701MOL0     H96728   6.219   5.308  11.402  1.1371 -1.0162  0.8353
  701MOL0     H96729   6.207   5.259  11.230 -3.2025 -1.2068 -0.0488
  701MOL0     H96730   6.386   5.137  11.456  2.4195  0.4893 -0.1934
  701MOL0     H96731   6.371   5.078  11.286  0.4057 -0.3073  0.8381
  701MOL0     H96732   6.466   5.362  11.361  0.2042  0.9982 -0.1130
  701MOL0     H96733   6.426   5.300  11.197  0.5258 -0.7212 -0.8021
  701MOL0     H96734   6.817   5.189  11.301  0.4968 -0.8934 -1.4704
  701MOL0     H96735   6.006   5.186  11.104  2.2383  0.8105  0.3101
  701MOL0     H96736   5.898   5.243  10.920 -0.6512 -0.9256  1.5434
  701MOL0     H96737   6.031   5.202  10.807  0.6105 -0.4813  0.0300
  701MOL0     H96738   5.865   5.132  10.783  0.1685 -0.6072  1.7992
  702MOL0     O96739   4.018   9.405   3.386  0.6134 -0.6159  0.7704
  702MOL0     C96740   3.912   9.461   3.409  0.2144  0.3556  0.8352
  702MOL0     O96741   3.859   9.480   3.536 -0.0142  0.9195  0.2729
  702MOL0     C96742   3.953   9.469   3.635  0.7528  0.1407  0.6978
  702MOL0     C96743   3.967   9.348   3.711  0.6858 -0.3941  0.2909
  702MOL0     C96744   4.066   9.339   3.811  0.0097  0.7542  0.2794
  702MOL0     C96745   4.164   9.444   3.831 -0.7192  0.5130  0.2833
  702MOL0     O96746   4.278   9.407   3.904  0.0516 -0.6401 -0.0248
  702MOL0     C96747   4.385   9.506   3.896  0.8347  0.9423 -0.0447
  702MOL0     C96748   4.507   9.454   3.977 -0.4381 -0.1599  0.1155
  702MOL0     C96749   4.632   9.546   3.952  1.0293 -0.6089 -0.0628
  702MOL0     C96750   4.772   9.494   3.979 -0.5926 -0.3545 -0.1202
  702MOL0     C96751   4.785   9.450   4.124 -0.3211  0.4785  0.6998
  702MOL0     C96752   4.930   9.390   4.134 -0.4968  1.2614 -0.0858
  702MOL0     C96753   4.963   9.348   4.278  0.0449 -0.5868 -0.3965
  702MOL0     C96754   5.034   9.460   4.338  0.4198 -0.7559 -0.2807
  702MOL0     N96755   5.162   9.508   4.274  0.6459 -0.1581 -0.6223
  702MOL0     C96756   5.227   9.628   4.307  0.2034  0.1095  0.3904
  702MOL0     C96757   5.346   9.629   4.244  0.1523  0.4240  0.3852
  702MOL0     C96758   5.457   9.736   4.260 -0.3058 -0.3304 -0.2301
  702MOL0     C96759   5.432   9.839   4.164 -0.6418  0.0376 -0.7251
  702MOL0     C96760   5.513   9.975   4.185  0.3151 -0.4670  0.7313
  702MOL0     C96761   5.472  10.059   4.304  0.5095  0.9075  0.4787
  702MOL0     O96762   5.333  10.100   4.287 -0.2012 -0.0841 -0.4401
  702MOL0     C96763   5.268  10.151   4.399 -0.7553  0.6482  0.2225
  702MOL0     C96764   5.337  10.213   4.502  0.0640  0.1264  0.2705
  702MOL0     C96765   5.275  10.252   4.621  0.1498 -0.0463 -0.2323
  702MOL0     C96766   5.363  10.324   4.720 -0.6448  0.4937  0.2261
  702MOL0     C96767   5.134  10.230   4.634  1.0267  0.6231  0.4787
  702MOL0     C96768   5.042  10.281   4.752 -0.9539  0.1443  1.0047
  702MOL0     O96769   4.918  10.230   4.758  0.4001  0.6341 -0.3498
  702MOL0     C96770   4.830  10.253   4.871  0.3058 -0.1159 -0.1785
  702MOL0     C96771   4.696  10.237   4.842 -0.5097  0.6399  0.0101
  702MOL0     C96772   4.601  10.247   4.945  0.1838  0.8098  0.1826
  702MOL0     C96773   4.639  10.275   5.076  0.1250 -0.6075 -0.4617
  702MOL0     O96774   4.557  10.257   5.185 -0.2045 -0.6631 -0.3040
  702MOL0     C96775   4.449  10.354   5.204 -0.5214 -0.6561 -0.6520
  702MOL0     C96776   4.375  10.303   5.328 -0.1939 -0.5160 -0.0978
  702MOL0     C96777   4.258  10.402   5.356  0.0209  0.9074  0.1946
  702MOL0     C96778   4.164  10.347   5.463 -0.0674 -0.1597  0.4665
  702MOL0     C96779   4.061  10.446   5.504  0.3286  0.1663  0.1056
  702MOL0     C96780   3.991  10.379   5.626 -0.1508  0.4666  0.6560
  702MOL0     C96781   3.856  10.456   5.662 -0.6401 -0.8513 -0.5564
  702MOL0     C96782   3.760  10.445   5.541 -0.1999 -1.0330 -0.1433
  702MOL0    Cl96783   3.600  10.474   5.613  0.4323 -0.4079  0.6164
  702MOL0     C96784   4.776  10.305   5.101  1.1522 -0.4114  0.2233
  702MOL0     C96785   4.868  10.293   5.003 -0.0606 -0.5436 -0.4657
  702MOL0     O96786   5.098  10.342   4.840  1.2373 -0.3477  0.2583
  702MOL0     C96787   5.066  10.165   4.520  0.2907  0.7692  0.5971
  702MOL0     C96788   5.131  10.126   4.411  0.0821 -0.6006  0.0785
  702MOL0     N96789   5.360   9.503   4.179  0.5990  0.2215  0.5758
  702MOL0     N96790   5.254   9.434   4.206  1.1935  0.1336 -0.1837
  702MOL0     C96791   4.152   9.556   3.746 -0.1319 -0.6802 -0.8024
  702MOL0     C96792   4.047   9.568   3.654 -0.3000  0.4634  0.0531
  702MOL0     C96793   3.815   9.515   3.302 -0.3492 -0.5489  0.3397
  702MOL0     C96794   3.680   9.532   3.333 -0.4578 -0.1176 -0.4978
  702MOL0     C96795   3.595   9.598   3.234 -0.3751 -0.2863  0.5588
  702MOL0     C96796   3.644   9.652   3.113 -0.0224  0.6577 -0.1766
  702MOL0     O96797   3.567   9.715   3.016 -0.1386 -0.5053 -0.7889
  702MOL0     C96798   3.429   9.756   3.055 -0.6561  0.4841  0.7131
  702MOL0     C96799   3.326   9.642   3.033 -0.1032  0.1052 -0.3615
  702MOL0     C96800   3.368   9.508   2.969  0.3072 -0.9242  0.0532
  702MOL0     C96801   3.246   9.431   2.921 -0.2201  0.1784 -0.3298
  702MOL0     C96802   3.301   9.304   2.859 -0.9125  0.0874 -0.4698
  702MOL0     C96803   3.336   9.201   2.804 -1.1093  0.6394 -0.3191
  702MOL0     C96804   3.781   9.628   3.080 -0.2422  0.7590 -0.4292
  702MOL0     C96805   3.866   9.563   3.173 -0.9045  0.6502  0.2363
  702MOL0     C96806   4.012   9.546   3.123 -0.0471  0.5819 -1.2530
  702MOL0     H96807   3.903   9.262   3.692 -0.4310 -0.3306  3.2778
  702MOL0     H96808   4.075   9.245   3.864  0.1188  0.5859 -0.0359
  702MOL0     H96809   4.342   9.593   3.945 -1.1972  2.1427 -3.5679
  702MOL0     H96810   4.414   9.530   3.793 -0.1926  0.0630 -0.5612
  702MOL0     H96811   4.469   9.464   4.080 -1.8073  0.8528 -0.4640
  702MOL0     H96812   4.548   9.353   3.965 -1.4898 -1.0938  3.1811
  702MOL0     H96813   4.634   9.566   3.844 -0.7711  0.0601 -0.0156
  702MOL0     H96814   4.621   9.638   4.009  0.0329 -0.6801 -0.1223
  702MOL0     H96815   4.778   9.408   3.913 -4.8724  0.9517 -2.6280
  702MOL0     H96816   4.842   9.570   3.943  1.3492 -3.2351 -2.9158
  702MOL0     H96817   4.710   9.379   4.158  1.3447  0.1533  4.1117
  702MOL0     H96818   4.793   9.538   4.189  3.1163  0.2798  0.7475
  702MOL0     H96819   4.937   9.295   4.080  0.9542 -1.1318  3.8592
  702MOL0     H96820   5.001   9.459   4.087 -1.6433  1.3808 -1.7022
  702MOL0     H96821   5.024   9.258   4.289  0.2963 -0.5647 -1.4621
  702MOL0     H96822   4.864   9.328   4.320  0.0037 -1.4602 -0.8986
  702MOL0     H96823   4.962   9.542   4.350 -0.8156 -2.0778  2.3641
  702MOL0     H96824   5.053   9.446   4.445 -1.9057 -0.4566  0.2248
  702MOL0     H96825   5.180   9.714   4.353 -0.9325  0.4770 -1.3601
  702MOL0     H96826   5.553   9.696   4.225  2.5343  4.0550  1.7057
  702MOL0     H96827   5.464   9.776   4.361 -0.2437  0.3064 -0.4851
  702MOL0     H96828   5.462   9.797   4.068 -0.5236  0.7781 -1.0215
  702MOL0     H96829   5.325   9.857   4.152 -1.2212 -0.2799  2.8328
  702MOL0     H96830   5.616   9.950   4.209  0.0667 -1.0041  1.2559
  702MOL0     H96831   5.511  10.027   4.089 -3.2756 -2.4527 -0.4447
  702MOL0     H96832   5.483  10.011   4.402 -3.3560 -1.0405  0.1516
  702MOL0     H96833   5.523  10.156   4.299  3.3619 -0.4690  0.7982
  702MOL0     H96834   5.441  10.238   4.481 -0.0520  1.4970  1.1819
  702MOL0     H96835   5.463  10.282   4.731 -0.3962  1.1966  0.7038
  702MOL0     H96836   5.337  10.307   4.825  1.0347 -1.4309  0.3766
  702MOL0     H96837   5.372  10.432   4.703  0.7543 -0.0307 -2.9867
  702MOL0     H96838   4.664  10.220   4.739  1.8807  0.9631 -0.8513
  702MOL0     H96839   4.494  10.233   4.940 -0.0306  2.3603 -0.0815
  702MOL0     H96840   4.490  10.449   5.238 -0.6238  0.5215 -3.6008
  702MOL0     H96841   4.380  10.369   5.120  0.1120 -0.6173 -1.1698
  702MOL0     H96842   4.335  10.205   5.300 -2.6343  0.3153  0.2334
  702MOL0     H96843   4.443  10.297   5.413  2.6655  0.1941 -2.1735
  702MOL0     H96844   4.207  10.400   5.259 -1.0723 -0.7214  0.7648
  702MOL0     H96845   4.292  10.503   5.377 -0.7354  1.0807  0.6331
  702MOL0     H96846   4.232  10.318   5.544  0.8697  3.0643  0.9950
  702MOL0     H96847   4.115  10.258   5.424  0.0079  0.1196 -0.2760
  702MOL0     H96848   4.097  10.539   5.549 -0.4399 -0.7666  2.8746
  702MOL0     H96849   4.005  10.470   5.414  1.6975  1.6580 -0.4039
  702MOL0     H96850   4.066  10.365   5.704  3.7637 -3.0267 -3.2129
  702MOL0     H96851   3.970  10.275   5.599 -3.1872  1.3217 -0.7102
  702MOL0     H96852   3.869  10.561   5.692  0.1291 -1.1282  0.1164
  702MOL0     H96853   3.811  10.407   5.749 -0.0883  0.5831  0.5814
  702MOL0     H96854   3.778  10.346   5.499  1.9315  0.2222 -2.4650
  702MOL0     H96855   3.776  10.526   5.470 -3.1552 -0.7272 -0.5665
  702MOL0     H96856   4.797  10.326   5.206 -3.7473  1.2023  1.1453
  702MOL0     H96857   4.969  10.299   5.041  1.0222 -0.7377 -3.0798
  702MOL0     H96858   4.960  10.143   4.508  0.7567 -0.1755 -2.7903
  702MOL0     H96859   5.078  10.081   4.328  2.3623 -1.7461 -0.8454
  702MOL0     H96860   4.224   9.636   3.762 -0.1540 -0.6142 -1.0282
  702MOL0     H96861   4.046   9.660   3.596  2.3457  1.2870  1.1704
  702MOL0     H96862   3.654   9.489   3.429  1.0530  1.0913  0.4980
  702MOL0     H96863   3.487   9.607   3.238 -0.4425  0.5195 -1.5089
  702MOL0     H96864   3.417   9.809   3.150  2.3813 -3.9225  4.0018
  702MOL0     H96865   3.408   9.840   2.988  0.3737  1.5442  1.6604
  702MOL0     H96866   3.246   9.674   2.967 -0.5813  0.9693  0.6009
  702MOL0     H96867   3.284   9.621   3.132 -2.4417 -1.4842 -1.6188
  702MOL0     H96868   3.432   9.528   2.882 -1.3583 -0.5790 -1.1371
  702MOL0     H96869   3.418   9.438   3.036  1.5287 -1.1126 -1.0083
  702MOL0     H96870   3.193   9.493   2.848  2.2541  0.3153 -2.1485
  702MOL0     H96871   3.179   9.418   3.006  0.9958  2.5179  1.0966
  702MOL0     H96872   3.385   9.121   2.752  0.0744  1.8190 -1.0717
  702MOL0     H96873   3.828   9.679   2.997  3.5763 -1.0781  0.3753
  702MOL0     H96874   4.032   9.570   3.019  2.5631  1.8020 -0.5645
  702MOL0     H96875   4.071   9.616   3.183  2.6458  0.2595 -3.3103
  702MOL0     H96876   4.034   9.441   3.147 -0.4453  1.0417  1.4714
  703MOL0     O96877   5.327  10.899   2.515  0.3075 -0.3332  0.6684
  703MOL0     C96878   5.324  11.024   2.502  0.8210 -0.3958  0.0692
  703MOL0     O96879   5.391  11.107   2.585  0.7879 -0.2368 -0.1424
  703MOL0     C96880   5.509  11.061   2.644 -0.0883  0.0741  0.9339
  703MOL0     C96881   5.611  11.003   2.566  0.2914 -0.2224 -0.3622
  703MOL0     C96882   5.728  10.954   2.608 -0.3757 -0.5076 -0.5823
  703MOL0     C96883   5.762  10.969   2.743 -0.2440 -0.0918 -0.4845
  703MOL0     O96884   5.894  10.942   2.769 -0.3085 -0.0908 -0.0958
  703MOL0     C96885   5.940  10.916   2.908 -0.0108  0.1605 -0.0640
  703MOL0     C96886   6.082  10.954   2.932 -0.1757  0.6789  1.2723
  703MOL0     C96887   6.171  10.846   2.874 -0.0070 -0.2041  0.4767
  703MOL0     C96888   6.320  10.895   2.888  0.0293  1.2115 -0.1293
  703MOL0     C96889   6.428  10.795   2.820 -0.0614 -0.2260  0.3092
  703MOL0     C96890   6.409  10.649   2.850  0.1376 -0.1285 -0.4534
  703MOL0     C96891   6.472  10.616   2.990 -0.3025 -0.2467  0.4713
  703MOL0     C96892   6.597  10.534   2.983  0.7462 -0.4192  0.1890
  703MOL0     N96893   6.571  10.390   2.950  0.6104  0.2197 -0.0979
  703MOL0     C96894   6.634  10.314   2.851 -0.4144  1.2291  0.0099
  703MOL0     C96895   6.584  10.181   2.863  0.4288  0.2901  0.4560
  703MOL0     C96896   6.605  10.065   2.772 -0.3106  0.4250  0.4908
  703MOL0     C96897   6.591  10.103   2.618 -0.3559  0.1990 -0.0004
  703MOL0     C96898   6.592   9.982   2.517 -0.1233 -0.2464 -0.0714
  703MOL0     C96899   6.729   9.920   2.515 -0.0794 -0.3770  0.4618
  703MOL0     O96900   6.819  10.013   2.445  0.4174  0.5911 -0.6377
  703MOL0     C96901   6.939  10.046   2.503 -0.8083  0.7799  0.0831
  703MOL0     C96902   7.023   9.948   2.565  0.4435  0.0340  0.2093
  703MOL0     C96903   7.154   9.986   2.619 -0.0976 -1.9264 -0.0716
  703MOL0     C96904   7.238   9.883   2.694  0.0392 -0.2966 -0.1691
  703MOL0     C96905   7.200  10.124   2.605  0.0106  0.5849  0.3766
  703MOL0     C96906   7.324  10.178   2.674  0.4931  0.5516  0.4691
  703MOL0     O96907   7.324  10.316   2.684 -0.1526  0.5384 -0.1490
  703MOL0     C96908   7.440  10.366   2.743 -0.1435  0.8183  0.4806
  703MOL0     C96909   7.552  10.368   2.664  0.1425  1.0479 -0.5846
  703MOL0     C96910   7.674  10.407   2.725  0.3472  0.1923  0.1894
  703MOL0     C96911   7.679  10.458   2.854  0.2439  0.3292  0.1425
  703MOL0     O96912   7.790  10.500   2.906  0.1520  0.0072  0.1490
  703MOL0     C96913   7.862  10.596   2.819  1.1483  1.0055  0.9096
  703MOL0     C96914   7.780  10.709   2.762  0.1119 -0.4370  1.3089
  703MOL0     C96915   7.704  10.808   2.854 -0.6925  0.3931 -0.3670
  703MOL0     C96916   7.637  10.921   2.763  0.1827  1.0459 -0.2450
  703MOL0     C96917   7.590  11.045   2.837 -0.6727 -1.2317 -0.3962
  703MOL0     C96918   7.465  11.023   2.914  0.4385 -0.7826 -0.9373
  703MOL0     C96919   7.339  11.001   2.834 -0.4974  0.0931  0.4512
  703MOL0     C96920   7.204  10.990   2.908  0.1573  0.3857  0.0414
  703MOL0    Cl96921   7.219  10.839   2.994 -0.0451  0.3933 -0.4740
  703MOL0     C96922   7.561  10.472   2.926  0.0174 -1.0323 -0.3625
  703MOL0     C96923   7.438  10.425   2.871  0.5883 -0.3540  0.0958
  703MOL0     O96924   7.421  10.102   2.687 -0.1083  0.4449 -0.0010
  703MOL0     C96925   7.114  10.211   2.530  0.1253 -0.3815 -0.6062
  703MOL0     C96926   6.987  10.181   2.487 -0.6581  0.1814  0.7835
  703MOL0     N96927   6.488  10.191   2.955  0.3839  0.4962 -0.3864
  703MOL0     N96928   6.489  10.307   3.020  0.4562 -0.9606  0.4299
  703MOL0     C96929   5.661  11.033   2.828 -0.5007 -0.5146 -0.4230
  703MOL0     C96930   5.535  11.070   2.780 -0.1172 -0.7842 -0.7283
  703MOL0     C96931   5.265  11.083   2.380  0.6625  1.0471  0.2949
  703MOL0     C96932   5.332  11.195   2.331 -1.0724 -0.2427 -0.0085
  703MOL0     C96933   5.316  11.234   2.196  0.4355 -0.3767  0.4602
  703MOL0     C96934   5.225  11.171   2.108  0.3101 -0.2842 -0.1947
  703MOL0     O96935   5.236  11.223   1.987  0.6558  0.0992 -0.4366
  703MOL0     C96936   5.196  11.162   1.865  0.6400  0.3001  0.0707
  703MOL0     C96937   5.043  11.191   1.844  0.6871  0.6337  0.6555
  703MOL0     C96938   5.004  11.176   1.700 -0.1131  0.0761 -0.6057
  703MOL0     C96939   4.865  11.244   1.664 -1.1426  0.4558  0.2003
  703MOL0     C96940   4.845  11.228   1.524 -0.9002 -0.0157  0.2043
  703MOL0     C96941   4.844  11.215   1.402  2.0849  0.3738 -0.5178
  703MOL0     C96942   5.157  11.053   2.161  0.7175  0.0171  0.4048
  703MOL0     C96943   5.175  11.009   2.294 -0.2128 -0.8071  0.3779
  703MOL0     C96944   5.094  10.882   2.333  0.3127 -0.5652 -0.7156
  703MOL0     H96945   5.603  11.004   2.458  5.6625  0.7152 -1.0636
  703MOL0     H96946   5.795  10.914   2.533 -1.0172 -0.6719 -1.0712
  703MOL0     H96947   5.918  10.815   2.943 -3.2144  0.4289 -1.0294
  703MOL0     H96948   5.889  10.986   2.975  1.8832  1.1998  0.3731
  703MOL0     H96949   6.096  11.045   2.873 -0.6417 -1.0124 -1.6390
  703MOL0     H96950   6.106  10.965   3.038  0.5386  0.6277  1.1247
  703MOL0     H96951   6.155  10.754   2.931 -2.3694  0.8235  1.6112
  703MOL0     H96952   6.152  10.827   2.768  0.3884 -2.9376  0.8309
  703MOL0     H96953   6.326  10.993   2.840 -0.6572  2.4665  2.2164
  703MOL0     H96954   6.326  10.923   2.993 -3.0071  1.6149  0.0173
  703MOL0     H96955   6.532  10.823   2.839  0.5695 -2.3229  0.1932
  703MOL0     H96956   6.412  10.799   2.711 -0.4575 -2.4789  0.2216
  703MOL0     H96957   6.303  10.621   2.845  0.4465 -1.0953 -2.3520
  703MOL0     H96958   6.455  10.589   2.772  2.8037 -0.4239  1.2307
  703MOL0     H96959   6.395  10.565   3.049  1.4121 -1.2690  1.9276
  703MOL0     H96960   6.487  10.704   3.052  0.3811  1.3819 -1.8846
  703MOL0     H96961   6.664  10.574   2.906 -0.4762 -0.6571 -1.0186
  703MOL0     H96962   6.650  10.540   3.079 -0.7960 -1.4422  1.1556
  703MOL0     H96963   6.702  10.338   2.770  1.0451 -0.0914  0.7847
  703MOL0     H96964   6.543   9.978   2.796  0.9900 -0.7915 -0.4319
  703MOL0     H96965   6.711  10.038   2.780 -0.7613 -1.3426  0.8343
  703MOL0     H96966   6.490  10.144   2.607 -0.5158 -0.5564 -1.7596
  703MOL0     H96967   6.666  10.173   2.582  0.3536 -1.4747 -2.0072
  703MOL0     H96968   6.522   9.905   2.550  0.8188 -0.4365  1.5964
  703MOL0     H96969   6.568  10.020   2.417 -1.3355 -0.9867 -0.0805
  703MOL0     H96970   6.746   9.886   2.617  0.8212 -3.1848 -0.5285
  703MOL0     H96971   6.714   9.829   2.457 -0.5500 -1.0579  1.6408
  703MOL0     H96972   6.991   9.846   2.580  2.2666 -0.4479  1.1001
  703MOL0     H96973   7.331   9.859   2.642  0.2110 -6.5437  2.1338
  703MOL0     H96974   7.173   9.796   2.707 -1.5308  0.7921 -0.4804
  703MOL0     H96975   7.260   9.912   2.797  1.2262 -0.5872 -0.3209
  703MOL0     H96976   7.550  10.320   2.566  0.0995  1.9148 -1.0168
  703MOL0     H96977   7.767  10.402   2.670  0.4342 -0.9518  0.4190
  703MOL0     H96978   7.934  10.642   2.888 -0.4990  0.5513  3.0549
  703MOL0     H96979   7.917  10.535   2.746 -1.0558 -0.5719  0.4545
  703MOL0     H96980   7.843  10.772   2.699  0.8913  0.6533  3.1004
  703MOL0     H96981   7.702  10.675   2.693  0.5126  0.2090  0.5182
  703MOL0     H96982   7.788  10.850   2.911 -0.4651 -1.3699  0.6831
  703MOL0     H96983   7.634  10.747   2.912  0.2001 -1.1205 -0.8223
  703MOL0     H96984   7.551  10.872   2.715  0.6006 -1.9237  1.7981
  703MOL0     H96985   7.718  10.943   2.693  1.1019 -3.1050 -0.7632
  703MOL0     H96986   7.662  11.085   2.910 -2.6794  0.0319  0.9764
  703MOL0     H96987   7.575  11.132   2.773 -2.4090 -2.4933 -1.7868
  703MOL0     H96988   7.440  11.106   2.980  4.1459 -0.4500  0.2962
  703MOL0     H96989   7.494  10.933   2.970  3.1003  1.0158  0.7865
  703MOL0     H96990   7.361  10.905   2.787  0.1119  0.4661 -0.0410
  703MOL0     H96991   7.324  11.077   2.757 -0.3156 -0.7224 -0.4041
  703MOL0     H96992   7.118  10.985   2.841  1.1343 -0.8393 -1.1886
  703MOL0     H96993   7.181  11.062   2.987 -1.5517 -3.7337  3.7362
  703MOL0     H96994   7.551  10.487   3.033 -0.5306 -0.8549 -0.4322
  703MOL0     H96995   7.348  10.435   2.931 -1.3889 -3.3037 -2.0562
  703MOL0     H96996   7.144  10.314   2.512 -1.0378  0.3428  1.3099
  703MOL0     H96997   6.917  10.253   2.446 -2.6237 -1.2305  1.5026
  703MOL0     H96998   5.696  11.064   2.925 -2.2926  0.8207 -0.1588
  703MOL0     H96999   5.469  11.122   2.849 -0.4749 -0.2725 -1.4394
  703MOL0     H97000   5.397  11.261   2.388  2.0269  0.1241 -3.5507
  703MOL0     H97001   5.377  11.314   2.155 -0.9295 -0.8414 -2.7317
  703MOL0     H97002   5.262  11.214   1.794  2.8309  1.9644  3.0916
  703MOL0     H97003   5.212  11.054   1.852 -1.1785  0.3068 -3.4378
  703MOL0     H97004   5.024  11.285   1.896 -2.2090 -0.2967  1.4437
  703MOL0     H97005   4.991  11.111   1.898  1.9254  0.0203  0.9773
  703MOL0     H97006   5.069  11.233   1.632 -0.4584  0.9164 -0.2471
  703MOL0     H97007   4.996  11.069   1.678 -1.9270 -0.3137  1.6525
  703MOL0     H97008   4.875  11.348   1.695  0.6860  0.1568  0.7165
  703MOL0     H97009   4.779  11.198   1.715  0.8248 -2.2034  1.3746
  703MOL0     H97010   4.830  11.208   1.296 -2.8788 -0.0720 -0.0686
  703MOL0     H97011   5.097  11.010   2.081  3.1253 -0.0120 -1.4711
  703MOL0     H97012   5.050  10.841   2.242 -2.3588 -2.1575  1.1465
  703MOL0     H97013   5.152  10.804   2.382  3.3949  1.7126 -0.4653
  703MOL0     H97014   5.009  10.919   2.392  2.2451  4.4054 -0.6223
  704MOL0     O97015   2.228   3.563   5.940  1.0700 -0.4322 -0.8758
  704MOL0     C97016   2.113   3.546   5.987  0.7933  0.0176 -0.2032
  704MOL0     O97017   2.084   3.554   6.113  0.2644 -0.4852  0.6328
  704MOL0     C97018   2.160   3.580   6.227 -0.0074  0.6152  0.5498
  704MOL0     C97019   2.102   3.555   6.352  0.0547 -1.4227 -0.5153
  704MOL0     C97020   2.173   3.566   6.472  0.8529  0.4102  0.1133
  704MOL0     C97021   2.301   3.612   6.479 -0.4478 -0.2585 -0.6381
  704MOL0     O97022   2.385   3.649   6.588  0.0314  0.5348 -0.2135
  704MOL0     C97023   2.329   3.633   6.731 -0.4322 -0.2669  0.9438
  704MOL0     C97024   2.438   3.634   6.836  0.1338 -0.2020 -0.1649
  704MOL0     C97025   2.530   3.755   6.825  0.5411 -0.6797 -0.2358
  704MOL0     C97026   2.453   3.893   6.818  0.0894 -0.6549 -0.1427
  704MOL0     C97027   2.530   4.028   6.819 -0.0323  0.4091 -0.6663
  704MOL0     C97028   2.648   4.018   6.717  0.1884  0.3756 -0.7529
  704MOL0     C97029   2.691   4.159   6.683 -0.0379  1.0328  0.3663
  704MOL0     C97030   2.843   4.164   6.641  0.0500  0.4734 -1.3281
  704MOL0     N97031   2.877   4.304   6.628 -1.1712 -0.0381 -0.0078
  704MOL0     C97032   2.829   4.411   6.703  0.1106  0.0168 -0.9307
  704MOL0     C97033   2.879   4.514   6.622  0.1130  0.1397 -0.3032
  704MOL0     C97034   2.860   4.653   6.664 -0.4432  0.5748  0.0712
  704MOL0     C97035   2.765   4.723   6.571  0.5711 -0.4404  0.2527
  704MOL0     C97036   2.624   4.662   6.558 -0.4971  1.1638  0.2101
  704MOL0     C97037   2.550   4.658   6.689  0.7511 -0.1783  0.4379
  704MOL0     O97038   2.564   4.524   6.750  0.0593 -0.6698 -0.4970
  704MOL0     C97039   2.493   4.521   6.868  0.1487 -0.7696 -0.2193
  704MOL0     C97040   2.403   4.416   6.885  0.2557 -1.5101 -0.6539
  704MOL0     C97041   2.323   4.407   7.001  0.6320 -0.5090  0.4986
  704MOL0     C97042   2.211   4.313   6.996  0.3124  0.6699  0.2669
  704MOL0     C97043   2.342   4.511   7.106  0.7954  0.0672 -0.1331
  704MOL0     C97044   2.279   4.509   7.246  0.9457  0.3735 -0.3195
  704MOL0     O97045   2.300   4.608   7.337  0.0003  0.2630 -0.0148
  704MOL0     C97046   2.224   4.625   7.447 -0.3083  0.7850  1.0872
  704MOL0     C97047   2.082   4.635   7.452 -0.2497 -1.5543  0.5271
  704MOL0     C97048   2.006   4.680   7.561 -0.0435  0.3409 -0.6974
  704MOL0     C97049   2.073   4.716   7.679  0.3221  0.2000  0.7306
  704MOL0     O97050   2.013   4.767   7.786  0.0617  0.0375  0.6471
  704MOL0     C97051   1.886   4.707   7.833 -1.4266  0.7251 -0.0045
  704MOL0     C97052   1.903   4.683   7.980 -0.3090  0.1470 -0.2163
  704MOL0     C97053   1.795   4.595   8.034  0.9876 -0.4869  0.0394
  704MOL0     C97054   1.776   4.595   8.186  0.6135 -0.7537 -0.4844
  704MOL0     C97055   1.741   4.741   8.252 -0.6364  0.8374 -1.0978
  704MOL0     C97056   1.716   4.743   8.412 -0.4707 -0.2329 -0.7441
  704MOL0     C97057   1.580   4.672   8.442  0.0751  0.6194  0.4427
  704MOL0     C97058   1.511   4.714   8.572 -0.6690 -0.0171  0.1809
  704MOL0    Cl97059   1.407   4.859   8.522 -0.3689  0.3625 -0.0660
  704MOL0     C97060   2.210   4.699   7.681  0.3917  0.5843 -0.4518
  704MOL0     C97061   2.285   4.662   7.568  0.4137 -0.0909 -0.6611
  704MOL0     O97062   2.209   4.409   7.267 -0.8929 -0.3047 -0.3663
  704MOL0     C97063   2.447   4.603   7.087 -0.8494  0.2116  0.0133
  704MOL0     C97064   2.519   4.611   6.971  0.7866 -0.3402  0.0087
  704MOL0     N97065   2.962   4.469   6.530 -0.3796 -0.6843 -0.9409
  704MOL0     N97066   2.969   4.343   6.532  0.2540 -0.4125 -0.4249
  704MOL0     C97067   2.360   3.642   6.354 -0.5574  0.9853 -0.0535
  704MOL0     C97068   2.291   3.634   6.236 -0.3943 -0.6267  0.0353
  704MOL0     C97069   1.995   3.511   5.903  0.0704  0.4553 -0.0249
  704MOL0     C97070   1.864   3.521   5.965 -1.4266  0.5803  0.5195
  704MOL0     C97071   1.758   3.496   5.879  0.6161 -0.1238 -0.1117
  704MOL0     C97072   1.767   3.429   5.760  0.4423  0.4237  0.0228
  704MOL0     O97073   1.659   3.391   5.681  0.0218  0.6488  0.3832
  704MOL0     C97074   1.541   3.483   5.679 -0.8027  0.1599  1.2203
  704MOL0     C97075   1.482   3.491   5.534 -0.6457  0.8303 -0.7133
  704MOL0     C97076   1.339   3.557   5.536  0.2892  0.4521 -1.2533
  704MOL0     C97077   1.238   3.447   5.553 -0.9443  0.4221  0.2103
  704MOL0     C97078   1.108   3.505   5.558  0.1251 -0.2613  0.3672
  704MOL0     C97079   0.996   3.539   5.534  0.6527  0.9463  0.1308
  704MOL0     C97080   1.896   3.413   5.706  0.4330 -0.1727 -0.3440
  704MOL0     C97081   2.009   3.457   5.772 -0.5121  0.9636 -0.1114
  704MOL0     C97082   2.147   3.453   5.683 -0.2231 -0.4472 -0.5627
  704MOL0     H97083   2.002   3.513   6.353 -0.3119 -0.5815 -1.0290
  704MOL0     H97084   2.118   3.528   6.557  0.5021 -0.3894 -0.4512
  704MOL0     H97085   2.279   3.536   6.743  1.2681 -1.1447  1.2967
  704MOL0     H97086   2.259   3.716   6.744 -0.6364 -0.3574  0.4395
  704MOL0     H97087   2.382   3.626   6.929 -1.7878  3.5733 -0.7804
  704MOL0     H97088   2.495   3.542   6.824  0.0237 -0.0930 -1.9037
  704MOL0     H97089   2.591   3.757   6.916  0.3200 -0.8920 -0.0799
  704MOL0     H97090   2.593   3.746   6.737  1.6103 -0.9933  0.5328
  704MOL0     H97091   2.380   3.898   6.738  0.1538  3.9193 -0.1783
  704MOL0     H97092   2.398   3.907   6.912  1.3375 -0.2230  0.5560
  704MOL0     H97093   2.586   4.041   6.911  2.4755 -1.0623 -1.8626
  704MOL0     H97094   2.471   4.119   6.803  1.9792  1.6309 -1.4698
  704MOL0     H97095   2.732   3.958   6.753  1.5394  1.9981 -1.0823
  704MOL0     H97096   2.618   3.961   6.628 -0.6717 -0.4385  0.0308
  704MOL0     H97097   2.671   4.214   6.775 -1.2342  2.2863 -0.6078
  704MOL0     H97098   2.630   4.192   6.599 -2.5489 -0.6770  1.3914
  704MOL0     H97099   2.914   4.127   6.716 -0.1177 -0.2846 -1.5288
  704MOL0     H97100   2.872   4.103   6.555  5.0915 -2.3851  1.8677
  704MOL0     H97101   2.772   4.398   6.794  0.4151  0.0026 -0.7397
  704MOL0     H97102   2.959   4.696   6.681  0.4014 -2.1623  3.3162
  704MOL0     H97103   2.817   4.650   6.764 -2.0691 -2.5820 -0.5923
  704MOL0     H97104   2.760   4.829   6.596 -0.9471 -0.5391  0.4614
  704MOL0     H97105   2.812   4.714   6.473 -0.1503  0.3835 -0.1781
  704MOL0     H97106   2.569   4.723   6.486  0.5517  2.8546  0.7734
  704MOL0     H97107   2.628   4.566   6.505  3.1477  0.1520  1.9720
  704MOL0     H97108   2.553   4.750   6.748 -0.4154  2.4471 -3.2591
  704MOL0     H97109   2.443   4.663   6.671  1.0922 -0.3597 -1.9408
  704MOL0     H97110   2.390   4.347   6.802 -2.4970 -0.5529 -1.1386
  704MOL0     H97111   2.231   4.227   7.062  1.2728  1.9579  1.7260
  704MOL0     H97112   2.194   4.280   6.893 -0.3307  1.6100  0.0706
  704MOL0     H97113   2.116   4.351   7.033 -0.2270  0.2507 -0.6606
  704MOL0     H97114   2.029   4.620   7.359 -0.7532 -0.3813  0.6052
  704MOL0     H97115   1.899   4.699   7.568 -0.0616 -0.3717  1.3957
  704MOL0     H97116   1.807   4.779   7.810 -2.5560  0.1735  1.9061
  704MOL0     H97117   1.870   4.616   7.774 -1.3672  0.1771  0.8110
  704MOL0     H97118   1.995   4.627   8.000 -0.9740 -0.6270  0.8066
  704MOL0     H97119   1.901   4.782   8.027  1.4886 -0.4265  1.1901
  704MOL0     H97120   1.802   4.488   8.010 -1.0565 -0.9888  1.4253
  704MOL0     H97121   1.701   4.628   7.990  0.4850 -1.4844  0.3242
  704MOL0     H97122   1.868   4.572   8.239  0.6550  0.7939  0.1411
  704MOL0     H97123   1.702   4.523   8.223 -1.4070  0.9059 -1.0953
  704MOL0     H97124   1.832   4.795   8.223  1.7947 -2.4496 -0.0892
  704MOL0     H97125   1.654   4.774   8.193 -0.4329  2.4302 -0.5588
  704MOL0     H97126   1.703   4.846   8.448 -0.1936 -1.0908  1.9951
  704MOL0     H97127   1.799   4.689   8.457 -0.4417 -0.8171 -1.4757
  704MOL0     H97128   1.606   4.566   8.449  0.8179  0.8502  1.3532
  704MOL0     H97129   1.518   4.697   8.355  0.2958  1.4648  0.5203
  704MOL0     H97130   1.585   4.732   8.651  1.2740  0.3767 -1.6336
  704MOL0     H97131   1.440   4.641   8.613 -3.1891  2.2999  0.2565
  704MOL0     H97132   2.246   4.711   7.783  4.7552 -1.6537 -1.5181
  704MOL0     H97133   2.392   4.651   7.582  0.1449 -2.5373 -0.1965
  704MOL0     H97134   2.494   4.651   7.173  0.3542 -0.7442 -0.0859
  704MOL0     H97135   2.597   4.685   6.958  0.8175 -0.2776  0.5126
  704MOL0     H97136   2.454   3.695   6.346 -0.4904  0.5804 -2.5022
  704MOL0     H97137   2.345   3.659   6.145 -0.6734 -1.6025 -0.4105
  704MOL0     H97138   1.845   3.551   6.068  0.7686  0.1609  1.1041
  704MOL0     H97139   1.657   3.509   5.917 -0.3039 -0.4143 -2.3520
  704MOL0     H97140   1.460   3.456   5.747 -4.2558 -1.9823 -3.1593
  704MOL0     H97141   1.572   3.582   5.711  4.0410 -1.4664  2.4648
  704MOL0     H97142   1.468   3.388   5.500  0.1100  0.2555  0.6620
  704MOL0     H97143   1.538   3.544   5.457 -3.6171  2.1361 -2.1634
  704MOL0     H97144   1.331   3.628   5.619 -1.2451 -1.4958  0.3784
  704MOL0     H97145   1.323   3.612   5.443 -0.9140 -1.5681 -2.3268
  704MOL0     H97146   1.276   3.402   5.645 -2.9177 -1.5915  0.1427
  704MOL0     H97147   1.252   3.381   5.467  4.3865  3.2766 -1.5797
  704MOL0     H97148   0.897   3.579   5.522  1.3735  2.1793 -2.3252
  704MOL0     H97149   1.912   3.386   5.602 -0.1313  0.5573 -0.6322
  704MOL0     H97150   2.190   3.554   5.672  0.9879 -1.1090 -2.2631
  704MOL0     H97151   2.230   3.401   5.733  1.6648  1.0933 -1.9539
  704MOL0     H97152   2.138   3.416   5.581  2.1772 -0.1447 -0.9557
  705MOL0     O97153   2.955   1.505  11.398 -0.3417 -0.0364  0.8737
  705MOL0     C97154   3.043   1.552  11.465  0.6509 -1.1379  0.2050
  705MOL0     O97155   3.105   1.497  11.571 -0.4989 -0.1254 -0.2572
  705MOL0     C97156   3.096   1.363  11.600  0.4130 -1.0769  1.0852
  705MOL0     C97157   3.206   1.311  11.671 -0.3395 -0.7822 -0.6944
  705MOL0     C97158   3.218   1.175  11.720 -0.9872 -0.1744 -0.4477
  705MOL0     C97159   3.121   1.091  11.674  0.1087 -0.5604  0.1562
  705MOL0     O97160   3.124   0.957  11.690 -0.8305  0.4298 -1.1111
  705MOL0     C97161   3.201   0.883  11.789 -0.9356  0.3599  0.3708
  705MOL0     C97162   3.145   0.742  11.814 -0.0153  0.3162  0.5361
  705MOL0     C97163   3.194   0.648  11.706 -0.8534  0.0654 -0.6434
  705MOL0     C97164   3.147   0.507  11.755 -0.1394  0.2971  0.4233
  705MOL0     C97165   3.164   0.403  11.646  0.2052 -0.7247  0.1514
  705MOL0     C97166   3.093   0.277  11.679  0.1276  0.4419 -0.9271
  705MOL0     C97167   3.119   0.165  11.578  0.8568  0.6230  0.0294
  705MOL0     C97168   3.064   0.199  11.446  0.0423 -0.5789  0.0449
  705MOL0     N97169   3.091   0.101  11.335 -0.2228 -0.2223 -0.3671
  705MOL0     C97170   3.216   0.051  11.297 -0.1991  0.9861  0.4290
  705MOL0     C97171   3.187  -0.043  11.217  0.3005  0.0384  0.3848
  705MOL0     C97172   3.275  -0.150  11.142  0.0416 -0.6689 -0.6903
  705MOL0     C97173   3.243  -0.283  11.208  0.1201  0.3524  0.5127
  705MOL0     C97174   3.319  -0.389  11.126  1.0058 -1.1311 -0.9570
  705MOL0     C97175   3.342  -0.530  11.175 -0.0570 -0.2442 -0.2543
  705MOL0     O97176   3.413  -0.532  11.297 -1.0794  0.7782 -0.2236
  705MOL0     C97177   3.463  -0.656  11.337  0.0792  1.0406 -0.0962
  705MOL0     C97178   3.547  -0.663  11.449 -0.0285 -0.3417 -0.9362
  705MOL0     C97179   3.601  -0.780  11.512  0.4204  0.1012  0.0438
  705MOL0     C97180   3.650  -0.774  11.647 -0.4117  0.2468  0.2319
  705MOL0     C97181   3.591  -0.899  11.431 -0.1332  0.1852  0.1377
  705MOL0     C97182   3.660  -1.018  11.448 -0.1589 -0.4158  0.3705
  705MOL0     O97183   3.781  -1.011  11.502 -0.1315  0.5910  0.1726
  705MOL0     C97184   3.897  -1.035  11.423  0.2105 -0.7437  0.4132
  705MOL0     C97185   3.904  -1.083  11.290  0.4702 -1.0278  0.0946
  705MOL0     C97186   4.024  -1.090  11.225  0.2935 -0.4284  0.0034
  705MOL0     C97187   4.141  -1.056  11.295  0.0580  0.3403 -0.2351
  705MOL0     O97188   4.253  -1.061  11.218  0.6973 -0.2456 -0.0640
  705MOL0     C97189   4.379  -1.053  11.275 -0.1547 -0.1538  0.5068
  705MOL0     C97190   4.465  -1.060  11.147 -0.4750  0.7770  0.4832
  705MOL0     C97191   4.465  -0.957  11.032 -0.0322 -0.1675  0.5917
  705MOL0     C97192   4.546  -0.832  11.060 -0.1535 -0.1017 -0.5163
  705MOL0     C97193   4.700  -0.841  11.069  0.2945 -0.6747  0.3788
  705MOL0     C97194   4.758  -0.953  10.982  0.1192  0.7070  0.7081
  705MOL0     C97195   4.904  -0.959  11.017 -0.4283  0.6797  0.6677
  705MOL0     C97196   4.998  -0.918  10.903  0.3172 -0.7466 -0.1670
  705MOL0    Cl97197   4.966  -1.045  10.774  0.3708  0.1860 -0.1283
  705MOL0     C97198   4.139  -1.027  11.434  0.3919 -1.0528  0.8482
  705MOL0     C97199   4.016  -1.009  11.493  1.1487 -0.3917 -0.4190
  705MOL0     O97200   3.604  -1.121  11.418 -0.3347  0.2706  0.3972
  705MOL0     C97201   3.516  -0.889  11.313  0.2333  0.4115 -0.0049
  705MOL0     C97202   3.439  -0.781  11.278 -0.8944 -0.3215  0.0844
  705MOL0     N97203   3.043  -0.055  11.212 -0.5255 -0.5963 -0.0238
  705MOL0     N97204   2.988   0.041  11.280  0.0922 -0.2315  0.2149
  705MOL0     C97205   3.005   1.140  11.598 -1.6436 -0.4984 -0.1599
  705MOL0     C97206   2.994   1.277  11.565  0.2348 -0.1915  0.3825
  705MOL0     C97207   3.073   1.688  11.420 -0.0467  0.4928 -0.8843
  705MOL0     C97208   2.971   1.772  11.371 -0.4730  0.3572  0.8497
  705MOL0     C97209   2.998   1.906  11.351  0.4640 -0.5265 -0.7415
  705MOL0     C97210   3.122   1.956  11.361 -0.3604 -0.6482  0.3652
  705MOL0     O97211   3.132   2.091  11.339  0.9375 -0.6412 -0.7015
  705MOL0     C97212   3.264   2.141  11.318 -0.2440 -0.3966  0.4320
  705MOL0     C97213   3.262   2.285  11.258 -0.7110  0.5502 -0.4292
  705MOL0     C97214   3.205   2.310  11.117  0.6958 -0.0071  0.3653
  705MOL0     C97215   3.184   2.461  11.099 -0.5738  0.3056 -0.0481
  705MOL0     C97216   3.096   2.521  11.193  0.2314 -0.0871 -0.1301
  705MOL0     C97217   3.034   2.583  11.271 -1.0402  0.1349  0.4805
  705MOL0     C97218   3.230   1.872  11.407  0.8442 -0.3319  0.8640
  705MOL0     C97219   3.213   1.732  11.429  0.6562 -0.9490 -1.0450
  705MOL0     C97220   3.331   1.637  11.457  0.4293 -0.4231 -0.8767
  705MOL0     H97221   3.291   1.371  11.700 -1.7870 -0.3639  3.2571
  705MOL0     H97222   3.309   1.136  11.766 -1.0473  0.7944  0.5290
  705MOL0     H97223   3.201   0.945  11.879  0.2803  0.6470  0.1913
  705MOL0     H97224   3.308   0.879  11.764 -0.0966  1.0874  3.4156
  705MOL0     H97225   3.180   0.708  11.911  5.4551  0.3135 -1.1304
  705MOL0     H97226   3.035   0.743  11.814 -0.1304 -2.7576  0.6292
  705MOL0     H97227   3.145   0.678  11.613 -2.9653  1.0726  0.7004
  705MOL0     H97228   3.303   0.650  11.697 -0.8605 -3.0680 -2.9689
  705MOL0     H97229   3.200   0.478  11.846  1.8264 -2.0654 -1.3575
  705MOL0     H97230   3.039   0.506  11.773 -0.2495 -2.4237  0.0321
  705MOL0     H97231   3.273   0.393  11.641  0.6094  1.9179  1.7573
  705MOL0     H97232   3.124   0.445  11.553  2.4699  0.4458 -0.3628
  705MOL0     H97233   3.124   0.236  11.775  1.8241 -0.0302 -1.6341
  705MOL0     H97234   2.987   0.303  11.678  0.1410  0.5401 -0.1463
  705MOL0     H97235   3.064   0.075  11.606 -1.1053  1.8097  0.2002
  705MOL0     H97236   3.226   0.146  11.564  0.8145 -2.4644  2.7747
  705MOL0     H97237   2.955   0.201  11.458  0.2369  1.8515  2.1995
  705MOL0     H97238   3.103   0.296  11.414  0.3015  0.0091  1.9883
  705MOL0     H97239   3.314   0.090  11.324 -1.4595  3.0490  2.3335
  705MOL0     H97240   3.380  -0.124  11.153 -0.0798 -1.0104  1.6853
  705MOL0     H97241   3.249  -0.154  11.036 -0.8039  0.1855 -0.5391
  705MOL0     H97242   3.277  -0.286  11.312  1.4071  0.5410  0.1157
  705MOL0     H97243   3.134  -0.297  11.208 -0.2580  2.8359  0.3568
  705MOL0     H97244   3.272  -0.399  11.027 -0.1150 -1.7735 -0.3884
  705MOL0     H97245   3.418  -0.351  11.101  2.3783 -0.6358  4.1697
  705MOL0     H97246   3.244  -0.575  11.195  0.1981 -0.4394  0.5859
  705MOL0     H97247   3.397  -0.576  11.093  0.5061  1.5789 -0.9557
  705MOL0     H97248   3.575  -0.573  11.502  2.9749 -2.1527  0.8804
  705MOL0     H97249   3.629  -0.875  11.684 -0.3893 -0.4135 -1.4417
  705MOL0     H97250   3.598  -0.696  11.703 -0.6723  0.0366  0.2862
  705MOL0     H97251   3.759  -0.758  11.642 -0.4740  0.4136 -0.7059
  705MOL0     H97252   3.815  -1.108  11.232 -0.7157  0.8354  0.9986
  705MOL0     H97253   4.035  -1.120  11.121 -2.6300 -1.9474  0.0501
  705MOL0     H97254   4.410  -0.972  11.341  1.3191 -0.7555  0.5918
  705MOL0     H97255   4.402  -1.143  11.332 -2.2565 -0.9209  0.2631
  705MOL0     H97256   4.566  -1.071  11.188 -0.9901 -1.5861  1.2927
  705MOL0     H97257   4.438  -1.157  11.105  0.3707 -0.3941  2.4978
  705MOL0     H97258   4.370  -0.909  11.004 -0.2903 -1.6050 -1.1676
  705MOL0     H97259   4.493  -1.013  10.943 -3.1581 -1.8400  0.5215
  705MOL0     H97260   4.502  -0.782  11.147 -0.9037 -0.7015 -0.5306
  705MOL0     H97261   4.524  -0.765  10.976  0.6220  1.1815  0.2770
  705MOL0     H97262   4.739  -0.745  11.034 -0.5435 -0.2529  0.5570
  705MOL0     H97263   4.733  -0.860  11.171  0.2242 -2.1491  0.1462
  705MOL0     H97264   4.743  -0.946  10.873 -0.8790 -0.0117  0.7785
  705MOL0     H97265   4.716  -1.050  11.012 -2.6752  1.4204 -0.5067
  705MOL0     H97266   4.941  -1.059  11.043  1.2687  0.9489 -0.5334
  705MOL0     H97267   4.927  -0.894  11.103  0.3242  0.9559  0.2671
  705MOL0     H97268   5.101  -0.919  10.939 -0.2022 -0.8437  1.3910
  705MOL0     H97269   4.972  -0.824  10.854  3.1559 -0.2247 -0.8781
  705MOL0     H97270   4.224  -0.998  11.495  1.5055 -2.4853  0.0277
  705MOL0     H97271   4.027  -0.986  11.598 -2.6515 -0.4249  0.1381
  705MOL0     H97272   3.506  -0.975  11.248  1.7089 -1.1190  1.7004
  705MOL0     H97273   3.366  -0.795  11.199  0.9384 -1.5511 -1.4808
  705MOL0     H97274   2.919   1.075  11.585  0.2815 -2.6627 -3.4498
  705MOL0     H97275   2.908   1.314  11.510  1.5575  0.6388 -1.2154
  705MOL0     H97276   2.873   1.734  11.343 -1.2168  4.0517 -2.6582
  705MOL0     H97277   2.917   1.975  11.332  1.2193  0.2020 -1.4224
  705MOL0     H97278   3.325   2.147  11.408  2.4062  2.3997 -1.3670
  705MOL0     H97279   3.319   2.074  11.251  2.2276  1.8708  0.0624
  705MOL0     H97280   3.365   2.316  11.243  0.0192 -0.5681  1.7217
  705MOL0     H97281   3.212   2.349  11.331  1.3715  1.2845  0.4001
  705MOL0     H97282   3.282   2.266  11.052  2.1428  0.5771  1.6086
  705MOL0     H97283   3.109   2.260  11.104  0.4473  0.2736  1.0758
  705MOL0     H97284   3.135   2.486  11.004 -0.6410 -2.8373 -0.9670
  705MOL0     H97285   3.276   2.520  11.104 -0.0015 -0.5931  0.3922
  705MOL0     H97286   2.977   2.623  11.353 -1.5439 -0.2313  0.3075
  705MOL0     H97287   3.333   1.909  11.405  0.7841 -0.0733  1.9790
  705MOL0     H97288   3.423   1.692  11.433  2.0734 -2.3575  0.6628
  705MOL0     H97289   3.334   1.594  11.557  0.9573 -0.3559 -0.8613
  705MOL0     H97290   3.326   1.549  11.392 -1.5968 -2.5756  1.9322
  706MOL0     O97291   6.498   3.231  11.216  0.7611 -0.2852  0.2402
  706MOL0     C97292   6.509   3.343  11.269  0.2306  0.3751  0.5823
  706MOL0     O97293   6.558   3.458  11.207 -0.4828 -0.0919 -0.4548
  706MOL0     C97294   6.592   3.448  11.080 -0.7917 -0.1556  0.1069
  706MOL0     C97295   6.502   3.459  10.967 -0.6944  0.2085 -0.2780
  706MOL0     C97296   6.552   3.426  10.837  0.3112  0.1233  0.1982
  706MOL0     C97297   6.690   3.386  10.813  0.0168 -0.0475 -0.5343
  706MOL0     O97298   6.736   3.350  10.692  0.4945 -0.9155  0.2027
  706MOL0     C97299   6.643   3.308  10.590  0.4664 -0.0992 -0.1557
  706MOL0     C97300   6.714   3.210  10.491 -0.2878 -0.6439 -1.2655
  706MOL0     C97301   6.613   3.138  10.403  0.8542  0.7539  0.8618
  706MOL0     C97302   6.579   3.240  10.291 -0.8000 -0.3411 -0.6094
  706MOL0     C97303   6.502   3.182  10.178  0.0562  0.0154 -0.6435
  706MOL0     C97304   6.495   3.028  10.164  0.3271  0.7339  0.2802
  706MOL0     C97305   6.416   2.966  10.043 -0.2493 -0.4921 -0.1210
  706MOL0     C97306   6.262   2.983  10.077 -0.0507 -0.0876 -0.0987
  706MOL0     N97307   6.182   3.000   9.953 -0.0684 -0.0169 -0.0344
  706MOL0     C97308   6.105   2.904   9.897 -0.1268  0.6424  0.5438
  706MOL0     C97309   6.075   2.963   9.773  0.2433 -0.8588 -0.6306
  706MOL0     C97310   5.986   2.891   9.677  0.6024  0.5392  0.1490
  706MOL0     C97311   6.077   2.792   9.586  0.1826  0.2378 -0.0120
  706MOL0     C97312   6.177   2.865   9.505 -0.2657 -0.9351  0.1511
  706MOL0     C97313   6.272   2.779   9.431 -0.1684  0.3469  0.4367
  706MOL0     O97314   6.195   2.704   9.339  0.1492 -0.0170  0.7921
  706MOL0     C97315   6.222   2.706   9.198  0.1377  0.2169 -0.7408
  706MOL0     C97316   6.335   2.742   9.121 -1.3916  0.1187 -0.6634
  706MOL0     C97317   6.342   2.740   8.976  0.7433 -0.4026  0.3227
  706MOL0     C97318   6.461   2.803   8.912  0.1209 -0.4085 -0.2888
  706MOL0     C97319   6.236   2.674   8.910 -0.8490  0.0253  0.6776
  706MOL0     C97320   6.238   2.653   8.761  0.6284  0.5793  0.1440
  706MOL0     O97321   6.155   2.548   8.722  0.1762 -0.0463 -0.1808
  706MOL0     C97322   6.099   2.541   8.597 -0.1175 -0.1547 -0.5509
  706MOL0     C97323   6.065   2.653   8.522  1.0112 -0.3135 -0.8675
  706MOL0     C97324   6.008   2.651   8.397  0.6560 -0.6163  0.4148
  706MOL0     C97325   5.965   2.532   8.341  0.3952  0.4048 -0.9699
  706MOL0     O97326   5.925   2.527   8.213 -0.1150 -0.4302 -0.5326
  706MOL0     C97327   6.012   2.567   8.112  0.5201 -0.7812  0.5204
  706MOL0     C97328   5.947   2.545   7.977  0.4378  0.8562 -0.0956
  706MOL0     C97329   6.042   2.539   7.863  0.0424 -0.2467  0.5481
  706MOL0     C97330   5.997   2.461   7.742  0.7378  0.0641  0.0684
  706MOL0     C97331   6.086   2.488   7.617 -0.4627  0.3288 -0.2735
  706MOL0     C97332   6.040   2.575   7.507  0.8069 -0.7676  0.2031
  706MOL0     C97333   6.106   2.533   7.375  0.6483  0.7217  0.5757
  706MOL0     C97334   6.254   2.574   7.386 -0.6475  1.1210 -0.0041
  706MOL0    Cl97335   6.262   2.745   7.346  0.0417 -0.1011 -0.6144
  706MOL0     C97336   5.983   2.412   8.420  0.1925  0.5972  0.5875
  706MOL0     C97337   6.059   2.414   8.543 -0.3050  0.1310  0.4765
  706MOL0     O97338   6.307   2.720   8.686  0.1189  0.3281 -0.5674
  706MOL0     C97339   6.121   2.644   8.986  0.2433 -0.5688 -0.6326
  706MOL0     C97340   6.112   2.658   9.128 -0.3415  0.6919  0.0005
  706MOL0     N97341   6.128   3.089   9.755 -0.4452  0.6581 -0.2394
  706MOL0     N97342   6.184   3.113   9.872  0.5285 -0.4145  0.8225
  706MOL0     C97343   6.776   3.380  10.926  0.2042 -0.0857 -0.2698
  706MOL0     C97344   6.729   3.412  11.055  0.3978  0.7706 -0.4685
  706MOL0     C97345   6.447   3.346  11.416  0.2708 -0.1013  0.2690
  706MOL0     C97346   6.362   3.248  11.474  0.2380 -0.0393  0.3523
  706MOL0     C97347   6.294   3.265  11.592  0.4532 -0.1574 -0.2885
  706MOL0     C97348   6.318   3.379  11.676  0.2075  0.1820 -0.6706
  706MOL0     O97349   6.268   3.405  11.801 -0.1070  0.1234 -0.1207
  706MOL0     C97350   6.177   3.307  11.856 -0.3883  0.8390 -0.5005
  706MOL0     C97351   6.246   3.233  11.974 -0.0709 -0.2773 -0.0645
  706MOL0     C97352   6.136   3.150  12.048  0.2344  0.2564 -0.1381
  706MOL0     C97353   6.187   3.094  12.189 -0.2664 -0.4422 -0.3146
  706MOL0     C97354   6.267   2.980  12.160 -0.6220  1.0458 -0.1129
  706MOL0     C97355   6.326   2.878  12.127 -0.9707 -0.1047  0.9348
  706MOL0     C97356   6.413   3.479  11.626 -0.7502  0.5224 -0.7659
  706MOL0     C97357   6.473   3.457  11.501 -0.5803  0.1816 -0.5918
  706MOL0     C97358   6.564   3.572  11.458 -0.5033 -0.0360 -0.5601
  706MOL0     H97359   6.398   3.472  10.991  0.1750 -0.1113  4.5502
  706MOL0     H97360   6.480   3.438  10.757  2.3805  3.2076 -1.4115
  706MOL0     H97361   6.613   3.401  10.540 -2.6414 -0.4465  0.8664
  706MOL0     H97362   6.553   3.273  10.641  0.4308  1.5463  0.9993
  706MOL0     H97363   6.786   3.271  10.435 -0.1576  1.0837  0.6592
  706MOL0     H97364   6.768   3.137  10.553 -1.1176  0.0258  0.3229
  706MOL0     H97365   6.661   3.050  10.358  0.0887 -0.0077  1.5103
  706MOL0     H97366   6.521   3.115  10.457 -0.7360 -1.9698 -2.5650
  706MOL0     H97367   6.528   3.330  10.326 -1.2581 -0.6194 -0.5622
  706MOL0     H97368   6.679   3.270  10.256 -1.4295 -0.1955 -2.4017
  706MOL0     H97369   6.545   3.224  10.087 -1.6010  3.4004 -0.0553
  706MOL0     H97370   6.398   3.217  10.179 -0.3002 -0.5475 -4.5167
  706MOL0     H97371   6.597   2.990  10.154 -0.4283 -1.1380 -0.8991
  706MOL0     H97372   6.448   2.996  10.258  0.7314  2.5494  1.1565
  706MOL0     H97373   6.429   2.857  10.039 -2.9469 -0.8876 -0.0483
  706MOL0     H97374   6.439   3.025   9.954 -0.9167  0.9786  0.6405
  706MOL0     H97375   6.230   2.895  10.134  1.2872 -1.9814 -2.0874
  706MOL0     H97376   6.240   3.066  10.145 -1.6065 -2.7036  2.8633
  706MOL0     H97377   6.077   2.803   9.926 -0.1598 -0.1162 -1.8499
  706MOL0     H97378   5.935   2.958   9.607  2.2838 -0.6508 -2.4021
  706MOL0     H97379   5.909   2.839   9.734 -0.0702  1.7713  0.4022
  706MOL0     H97380   6.138   2.729   9.651 -0.3452 -4.8038 -3.7727
  706MOL0     H97381   6.015   2.720   9.532  1.3499 -1.2269  0.5213
  706MOL0     H97382   6.130   2.939   9.440 -0.1278 -1.1732 -0.2234
  706MOL0     H97383   6.236   2.918   9.580  0.9555 -4.4038  1.8533
  706MOL0     H97384   6.336   2.842   9.368 -1.8155  1.2776 -0.3563
  706MOL0     H97385   6.337   2.721   9.497 -0.3771  0.3094  0.6129
  706MOL0     H97386   6.424   2.781   9.170 -1.9221 -3.1678  3.4736
  706MOL0     H97387   6.491   2.756   8.818  0.2753 -3.4933  1.1992
  706MOL0     H97388   6.549   2.800   8.976  0.8256 -0.7546 -1.2480
  706MOL0     H97389   6.432   2.907   8.892 -0.2214 -0.6684 -1.1950
  706MOL0     H97390   6.081   2.753   8.561 -1.3193 -1.2545  3.0651
  706MOL0     H97391   5.991   2.740   8.338 -0.7437 -1.2912 -0.2612
  706MOL0     H97392   6.022   2.675   8.124 -1.9044 -0.7576  3.4226
  706MOL0     H97393   6.099   2.504   8.131  0.9760 -0.1477  0.5647
  706MOL0     H97394   5.894   2.449   7.989 -4.0202  3.0096 -0.3172
  706MOL0     H97395   5.865   2.614   7.953 -0.1707 -0.2508 -1.3655
  706MOL0     H97396   6.138   2.506   7.904  0.8431  1.8340  0.4837
  706MOL0     H97397   6.054   2.643   7.828  1.2054 -0.7396 -0.6140
  706MOL0     H97398   5.892   2.477   7.718  0.7960 -2.2118 -2.0931
  706MOL0     H97399   6.025   2.358   7.765  1.5957  0.2151 -0.2725
  706MOL0     H97400   6.178   2.532   7.658 -1.8474  2.8649  0.3534
  706MOL0     H97401   6.120   2.392   7.578 -1.2468  0.1732 -0.5910
  706MOL0     H97402   6.048   2.683   7.526 -1.5452 -0.8098  1.9067
  706MOL0     H97403   5.933   2.555   7.501  0.4558  1.2231 -1.6918
  706MOL0     H97404   6.056   2.559   7.281  2.7851 -1.2178 -1.2424
  706MOL0     H97405   6.092   2.425   7.364  0.4350  0.8121 -0.1003
  706MOL0     H97406   6.304   2.513   7.309 -1.9123 -1.8297  1.3282
  706MOL0     H97407   6.307   2.541   7.475 -1.8927  0.5489  0.5533
  706MOL0     H97408   5.953   2.318   8.375 -3.1893  1.7392  0.1566
  706MOL0     H97409   6.080   2.315   8.583  2.4939  0.9792  1.3793
  706MOL0     H97410   6.028   2.608   8.943 -2.0778  3.5656  0.4100
  706MOL0     H97411   6.023   2.640   9.187  1.4108 -0.6203  2.4371
  706MOL0     H97412   6.880   3.361  10.902  0.3258 -0.1734  0.2968
  706MOL0     H97413   6.794   3.402  11.141 -1.5100 -2.5829  0.7944
  706MOL0     H97414   6.338   3.155  11.425  1.4546  0.5076 -1.3666
  706MOL0     H97415   6.244   3.177  11.632  0.3043 -0.7836 -1.7843
  706MOL0     H97416   6.095   3.363  11.903 -0.0634  1.7476 -1.0071
  706MOL0     H97417   6.120   3.234  11.798 -0.2440 -0.1287  0.5424
  706MOL0     H97418   6.290   3.306  12.043 -0.5392 -1.2138  1.2519
  706MOL0     H97419   6.326   3.164  11.945 -1.3592 -1.9186  0.1746
  706MOL0     H97420   6.045   3.208  12.071 -1.4432 -2.3626  0.2590
  706MOL0     H97421   6.119   3.059  11.990 -0.2041  1.3614 -1.8184
  706MOL0     H97422   6.109   3.067  12.262  1.5714  0.9854  2.3712
  706MOL0     H97423   6.238   3.175  12.242 -1.7320  1.3781 -1.5759
  706MOL0     H97424   6.364   2.789  12.080  0.0644  1.1554 -0.7325
  706MOL0     H97425   6.424   3.576  11.672  1.6046  0.1724 -0.4735
  706MOL0     H97426   6.664   3.530  11.442  0.1731  1.6824 -1.0867
  706MOL0     H97427   6.528   3.638  11.379  0.0035  0.6256 -0.2495
  706MOL0     H97428   6.564   3.640  11.544 -2.1976 -1.9067  1.0207
  707MOL0     O97429   1.069   1.984  10.870 -0.3595 -0.7372  0.9198
  707MOL0     C97430   1.049   1.942  10.757 -0.3955  0.1576  0.0602
  707MOL0     O97431   1.144   1.925  10.663 -0.3775  0.1709  0.8991
  707MOL0     C97432   1.259   2.011  10.681  0.8434  1.2687  0.6075
  707MOL0     C97433   1.236   2.148  10.677  0.7691  0.5188 -1.0641
  707MOL0     C97434   1.332   2.244  10.702  0.1860  0.7870  0.2725
  707MOL0     C97435   1.465   2.196  10.712 -0.1246 -0.6284 -0.4244
  707MOL0     O97436   1.573   2.282  10.730 -0.5567 -0.1970  0.8019
  707MOL0     C97437   1.571   2.423  10.694 -0.5438 -0.5585  0.4337
  707MOL0     C97438   1.710   2.497  10.739  1.0504  0.0740  0.3572
  707MOL0     C97439   1.709   2.650  10.716 -0.4344 -0.8523  0.7003
  707MOL0     C97440   1.847   2.716  10.764  0.8043  1.0223  0.8587
  707MOL0     C97441   1.858   2.864  10.737  0.6140 -1.1460 -0.3240
  707MOL0     C97442   1.999   2.915  10.777  0.0784  0.2681  0.1120
  707MOL0     C97443   1.996   3.063  10.734 -0.4730  0.1866 -1.0960
  707MOL0     C97444   2.137   3.116  10.709  0.3943  0.0178  0.0376
  707MOL0     N97445   2.148   3.259  10.704 -1.0437 -0.4177 -0.3925
  707MOL0     C97446   2.086   3.347  10.624 -0.6312  0.0281 -0.2090
  707MOL0     C97447   2.129   3.469  10.673 -0.0158 -0.2008  0.7920
  707MOL0     C97448   2.075   3.596  10.641  0.0090 -0.0770  0.8772
  707MOL0     C97449   1.954   3.626  10.720  0.8044 -0.4121 -0.3314
  707MOL0     C97450   1.906   3.780  10.714 -0.7933  0.3310  0.8612
  707MOL0     C97451   1.840   3.807  10.579  0.7408 -0.3415  0.1979
  707MOL0     O97452   1.833   3.950  10.560 -0.0387 -0.3082 -0.1859
  707MOL0     C97453   1.936   3.992  10.479 -1.0852  0.0878 -0.2359
  707MOL0     C97454   2.059   4.053  10.529  0.3650 -0.2972  0.1542
  707MOL0     C97455   2.169   4.067  10.441 -0.4272 -0.1863  0.7715
  707MOL0     C97456   2.301   4.091  10.514  0.9004 -0.9276 -0.4517
  707MOL0     C97457   2.161   4.042  10.297  0.4819  0.5577 -0.9497
  707MOL0     C97458   2.281   4.035  10.204 -0.2021 -0.9486 -0.1030
  707MOL0     O97459   2.263   4.090  10.076  0.2722 -0.3158  0.0555
  707MOL0     C97460   2.362   4.125   9.999 -0.8090  0.2252 -0.1156
  707MOL0     C97461   2.390   4.060   9.882 -1.1932 -0.6624  0.4105
  707MOL0     C97462   2.494   4.108   9.797  0.0969 -0.5596 -0.0958
  707MOL0     C97463   2.552   4.239   9.812  0.2745  1.6383  0.3490
  707MOL0     O97464   2.653   4.291   9.734 -0.5874  0.0010  0.5730
  707MOL0     C97465   2.761   4.211   9.696  0.4460 -0.5795  0.0075
  707MOL0     C97466   2.860   4.299   9.630 -0.0632 -0.2609  0.0695
  707MOL0     C97467   2.956   4.220   9.540  0.3326 -0.2124 -0.0886
  707MOL0     C97468   3.074   4.317   9.514  0.7400 -0.4474 -0.6347
  707MOL0     C97469   3.044   4.434   9.410  0.5957  0.3756 -0.7022
  707MOL0     C97470   3.148   4.537   9.383 -0.7352  0.6584  0.9137
  707MOL0     C97471   3.097   4.650   9.296 -0.0270 -0.5219 -0.5685
  707MOL0     C97472   3.214   4.743   9.245 -0.3313 -0.3028 -0.5093
  707MOL0    Cl97473   3.277   4.832   9.389 -0.1198 -0.5297  0.1090
  707MOL0     C97474   2.522   4.307   9.928  0.2422 -0.0840 -0.1892
  707MOL0     C97475   2.445   4.245  10.025  0.1409  0.8472  0.3092
  707MOL0     O97476   2.386   3.986  10.246  0.9346  0.0985 -0.0582
  707MOL0     C97477   2.034   3.996  10.253 -1.0408  0.5546  0.6394
  707MOL0     C97478   1.929   3.971  10.339  0.1515  0.8236 -1.1895
  707MOL0     N97479   2.229   3.446  10.760 -0.5558 -0.1639 -0.0241
  707MOL0     N97480   2.247   3.325  10.768 -0.0536  0.4170 -0.2581
  707MOL0     C97481   1.489   2.061  10.722  0.0144  0.7281  0.5166
  707MOL0     C97482   1.387   1.961  10.707 -0.3320 -0.4531  0.2148
  707MOL0     C97483   0.911   1.909  10.706  0.8301 -0.6079  0.3361
  707MOL0     C97484   0.803   1.934  10.798  0.5624 -0.5219 -0.3918
  707MOL0     C97485   0.666   1.907  10.759 -0.3328  0.5481 -0.7104
  707MOL0     C97486   0.647   1.838  10.643 -0.8760  0.7703  0.8590
  707MOL0     O97487   0.525   1.799  10.606  1.0889 -0.6773 -0.5958
  707MOL0     C97488   0.477   1.673  10.664  0.3073  0.7174 -0.7680
  707MOL0     C97489   0.539   1.541  10.609  0.1882 -0.4376  0.4604
  707MOL0     C97490   0.468   1.501  10.484 -0.2843  0.4997  0.4225
  707MOL0     C97491   0.323   1.472  10.488  0.1250 -0.8111  0.3120
  707MOL0     C97492   0.275   1.398  10.371 -0.1729 -0.1812 -0.5514
  707MOL0     C97493   0.215   1.340  10.279  1.4608 -0.2892 -0.9578
  707MOL0     C97494   0.742   1.831  10.544  0.8260  0.0486 -1.1029
  707MOL0     C97495   0.874   1.868  10.575 -0.5101  0.8514  0.1145
  707MOL0     C97496   0.975   1.833  10.477 -0.1085  0.6429 -0.2116
  707MOL0     H97497   1.136   2.186  10.659  0.1975  0.6159  1.8503
  707MOL0     H97498   1.303   2.348  10.701 -1.7475  0.2762 -0.9611
  707MOL0     H97499   1.495   2.479  10.751 -1.3032  0.4152 -1.4285
  707MOL0     H97500   1.551   2.443  10.588  1.6849  1.3982  0.2831
  707MOL0     H97501   1.719   2.489  10.848 -2.8689  0.4413  0.8641
  707MOL0     H97502   1.796   2.449  10.691  2.2249  0.1292  2.3027
  707MOL0     H97503   1.670   2.676  10.617  2.5652 -1.7447 -0.8351
  707MOL0     H97504   1.637   2.701  10.781 -1.7678  0.2801 -1.5529
  707MOL0     H97505   1.856   2.699  10.872 -0.3772  1.6404  1.0721
  707MOL0     H97506   1.927   2.666  10.710 -2.0240 -2.4322 -0.5508
  707MOL0     H97507   1.773   2.904  10.793  0.0745 -2.1461 -0.4103
  707MOL0     H97508   1.823   2.885  10.636 -0.5081  1.6008  0.5424
  707MOL0     H97509   2.017   2.918  10.885  1.0076  0.7482 -0.0454
  707MOL0     H97510   2.082   2.861  10.732  0.4825 -0.7146  1.9150
  707MOL0     H97511   1.946   3.116  10.815 -0.0860 -0.1250 -0.6453
  707MOL0     H97512   1.939   3.087  10.644  1.2152  0.5678 -2.1091
  707MOL0     H97513   2.194   3.084  10.797 -2.4135 -0.6822  1.7586
  707MOL0     H97514   2.183   3.083  10.615  0.0511  2.6288 -1.1102
  707MOL0     H97515   2.012   3.331  10.547  1.6191 -0.5858 -2.3561
  707MOL0     H97516   2.051   3.598  10.534  0.5669 -0.3736  0.7419
  707MOL0     H97517   2.148   3.677  10.650  0.7567 -0.7512  0.9814
  707MOL0     H97518   1.877   3.560  10.680  6.0532 -4.9402 -4.6782
  707MOL0     H97519   1.973   3.600  10.825 -1.0202  0.0998  0.1693
  707MOL0     H97520   1.835   3.806  10.793 -0.1026  4.1217  0.4713
  707MOL0     H97521   1.989   3.852  10.720  0.1359 -0.6443  0.0311
  707MOL0     H97522   1.887   3.746  10.502 -4.6624 -3.4525 -1.1645
  707MOL0     H97523   1.736   3.778  10.597 -0.1038  3.3933  2.3222
  707MOL0     H97524   2.063   4.054  10.638 -0.7738 -1.6136  0.2292
  707MOL0     H97525   2.355   3.996  10.512  0.4259 -1.2646 -3.8021
  707MOL0     H97526   2.281   4.140  10.610 -2.1880 -1.7400 -0.5548
  707MOL0     H97527   2.376   4.147  10.457  0.5636 -0.6544 -0.6358
  707MOL0     H97528   2.330   3.973   9.856  0.4916 -3.0064  3.5794
  707MOL0     H97529   2.524   4.059   9.705  4.2829  1.5591 -0.0676
  707MOL0     H97530   2.810   4.169   9.784  1.9554 -0.6839 -0.8512
  707MOL0     H97531   2.739   4.140   9.615 -0.1262 -1.7660  1.1548
  707MOL0     H97532   2.806   4.370   9.567  1.3400 -0.2573 -1.2094
  707MOL0     H97533   2.904   4.344   9.719 -1.4809  0.7699  0.2811
  707MOL0     H97534   2.914   4.201   9.440 -0.4875  0.1516  0.1774
  707MOL0     H97535   3.007   4.130   9.576  3.7885  1.6992  0.1392
  707MOL0     H97536   3.159   4.255   9.486  0.4010 -0.0582 -2.6569
  707MOL0     H97537   3.092   4.360   9.613 -1.2699 -1.3082  0.1733
  707MOL0     H97538   3.024   4.375   9.320 -2.6555 -0.9207  0.6793
  707MOL0     H97539   2.950   4.472   9.451  1.2987  0.8852  0.5062
  707MOL0     H97540   3.233   4.485   9.339  0.2433  0.4038  2.9972
  707MOL0     H97541   3.173   4.586   9.477  1.1890  1.3609  0.0833
  707MOL0     H97542   3.020   4.703   9.353 -0.2062  1.2183 -2.3209
  707MOL0     H97543   3.056   4.605   9.205  2.4641  0.2837 -2.2074
  707MOL0     H97544   3.179   4.824   9.180 -0.6006 -0.5716 -0.7036
  707MOL0     H97545   3.285   4.677   9.193  1.0924 -1.3566  2.5602
  707MOL0     H97546   2.551   4.411   9.939 -0.4916  0.0226  0.8801
  707MOL0     H97547   2.424   4.301  10.116 -0.6634  2.9152 -1.0718
  707MOL0     H97548   2.027   3.982  10.146 -2.2034  1.4221  0.5733
  707MOL0     H97549   1.829   3.938  10.316 -1.7416  1.9463  4.1016
  707MOL0     H97550   1.591   2.035  10.747 -0.5201 -1.4537  0.6921
  707MOL0     H97551   1.401   1.853  10.709  0.3964 -0.4057 -1.1057
  707MOL0     H97552   0.819   1.975  10.897  1.1924  0.6917 -0.9782
  707MOL0     H97553   0.586   1.922  10.830 -1.4855 -0.9730 -1.6168
  707MOL0     H97554   0.484   1.669  10.773  0.3245 -1.7413 -0.7947
  707MOL0     H97555   0.372   1.664  10.637  0.3087 -1.4832 -0.2267
  707MOL0     H97556   0.532   1.466  10.688 -1.4558 -1.0250 -0.1969
  707MOL0     H97557   0.644   1.552  10.581 -0.6851  2.1917 -2.3412
  707MOL0     H97558   0.482   1.586  10.416 -3.2308 -0.6904 -1.8974
  707MOL0     H97559   0.513   1.411  10.439  0.7272  0.6424  1.1231
  707MOL0     H97560   0.264   1.564  10.489  3.6379  1.7411 -2.0289
  707MOL0     H97561   0.296   1.409  10.574 -3.1576 -1.2165 -0.8662
  707MOL0     H97562   0.160   1.293  10.200 -0.2245  1.1893 -0.7425
  707MOL0     H97563   0.728   1.795  10.442  0.6870 -0.5501 -0.8744
  707MOL0     H97564   0.939   1.765  10.400 -1.4620 -1.6745  2.3073
  707MOL0     H97565   1.012   1.930  10.440  0.9383 -0.6824 -2.9008
  707MOL0     H97566   1.059   1.778  10.521  2.1919  3.8339 -0.1986
  708MOL0     O97567   1.884   4.625   4.596 -0.7659  0.8344  0.1179
  708MOL0     C97568   1.960   4.631   4.694 -0.7122 -0.2255  0.5360
  708MOL0     O97569   1.984   4.542   4.781 -0.0497  0.8469  0.4364
  708MOL0     C97570   1.983   4.411   4.747 -0.1983  0.1587  0.0109
  708MOL0     C97571   1.992   4.356   4.626 -0.4362  0.2704  1.0628
  708MOL0     C97572   1.984   4.220   4.608 -0.2862  0.1969  0.0918
  708MOL0     C97573   1.970   4.131   4.713 -0.4816 -0.1549 -0.0097
  708MOL0     O97574   1.984   3.999   4.670 -0.3366  0.1988 -0.1226
  708MOL0     C97575   2.074   3.912   4.749 -0.1879 -0.5709  0.0986
  708MOL0     C97576   2.218   3.924   4.712  0.1037 -0.2205 -0.5630
  708MOL0     C97577   2.289   3.809   4.787 -0.4122  0.8606  0.1078
  708MOL0     C97578   2.447   3.818   4.799  0.5466 -0.3844  0.0419
  708MOL0     C97579   2.491   3.681   4.866  0.0750  0.5735 -0.1374
  708MOL0     C97580   2.487   3.561   4.759 -0.3811  0.5095 -0.0716
  708MOL0     C97581   2.516   3.425   4.831  0.8767  0.7648  0.8959
  708MOL0     C97582   2.523   3.315   4.724 -0.1317  0.1641  0.7812
  708MOL0     N97583   2.504   3.172   4.762 -0.1589  0.0309 -0.6361
  708MOL0     C97584   2.580   3.104   4.838 -1.0142  1.0004 -0.8707
  708MOL0     C97585   2.552   2.975   4.831 -0.4451 -0.2193 -0.6393
  708MOL0     C97586   2.624   2.865   4.895 -0.1884 -0.2977  0.4785
  708MOL0     C97587   2.541   2.819   5.012  0.5294  0.5255  0.8311
  708MOL0     C97588   2.614   2.714   5.097 -0.5481  0.3477 -0.1841
  708MOL0     C97589   2.618   2.576   5.020 -0.5004 -0.7688 -1.0896
  708MOL0     O97590   2.722   2.498   5.061  0.4322  0.0335  0.2065
  708MOL0     C97591   2.847   2.504   5.009 -0.2749  0.3228 -0.3098
  708MOL0     C97592   2.936   2.396   5.041 -0.2062  0.0776 -0.0843
  708MOL0     C97593   3.064   2.370   4.977 -0.0784 -0.7064 -0.1441
  708MOL0     C97594   3.155   2.248   5.012 -0.9699 -0.8092 -0.3502
  708MOL0     C97595   3.108   2.468   4.884  0.5301 -0.2719 -0.4444
  708MOL0     C97596   3.238   2.469   4.814  0.1827 -0.5342 -0.2099
  708MOL0     O97597   3.288   2.588   4.772 -0.1713  0.3472 -0.5973
  708MOL0     C97598   3.418   2.583   4.734 -0.2864 -0.1839 -0.4474
  708MOL0     C97599   3.460   2.648   4.615 -0.1782  0.0090 -1.2364
  708MOL0     C97600   3.596   2.655   4.573  0.7495 -0.0126 -0.6041
  708MOL0     C97601   3.705   2.605   4.647 -0.3223 -0.6030 -0.2325
  708MOL0     O97602   3.833   2.590   4.600 -0.9820 -0.2261  0.2806
  708MOL0     C97603   3.891   2.690   4.514 -0.0011 -0.6306 -0.3119
  708MOL0     C97604   4.039   2.684   4.537 -0.1032 -0.3685 -0.0296
  708MOL0     C97605   4.113   2.570   4.456  0.6293  0.4623 -0.3379
  708MOL0     C97606   4.056   2.424   4.465 -1.3425  0.6863 -0.0764
  708MOL0     C97607   4.132   2.328   4.380 -0.3897 -0.2436 -0.1290
  708MOL0     C97608   4.066   2.188   4.388  0.0440  1.6387  0.4938
  708MOL0     C97609   4.170   2.076   4.347  0.2087  0.1061  0.1430
  708MOL0     C97610   4.113   1.940   4.394  0.3203  0.0275  0.6621
  708MOL0    Cl97611   4.104   1.924   4.567 -0.8017  0.5284 -0.3086
  708MOL0     C97612   3.665   2.544   4.766 -0.6276 -0.0658 -0.8475
  708MOL0     C97613   3.526   2.546   4.815 -0.1149  0.4703  0.0399
  708MOL0     O97614   3.286   2.355   4.788 -0.1164 -0.5723  0.2363
  708MOL0     C97615   3.022   2.573   4.854  0.0175  0.7897 -0.2168
  708MOL0     C97616   2.899   2.594   4.913  0.0242 -0.3741  0.9864
  708MOL0     N97617   2.442   2.966   4.742  0.0970  0.2384 -0.1811
  708MOL0     N97618   2.421   3.090   4.702  0.6725 -0.4198 -0.3613
  708MOL0     C97619   1.961   4.181   4.839 -0.0679 -0.1312 -0.0524
  708MOL0     C97620   1.959   4.320   4.854  0.1874 -0.5053 -0.3802
  708MOL0     C97621   2.031   4.761   4.719  0.0929 -0.7810  0.3024
  708MOL0     C97622   1.952   4.854   4.780  0.8668 -0.1496 -0.2622
  708MOL0     C97623   1.994   4.981   4.821 -0.7727  0.0603  0.3317
  708MOL0     C97624   2.122   5.024   4.777  0.0608 -0.4910  0.4437
  708MOL0     O97625   2.169   5.156   4.792  0.4108  0.1805  0.4487
  708MOL0     C97626   2.073   5.263   4.802 -0.0465  0.0746  0.0588
  708MOL0     C97627   2.143   5.398   4.780  0.3227  0.1030 -0.2446
  708MOL0     C97628   2.050   5.517   4.804 -0.5324 -0.0058  0.3444
  708MOL0     C97629   2.140   5.642   4.782  0.7946 -1.0274  0.6321
  708MOL0     C97630   2.068   5.763   4.836  0.2192  0.3917 -0.4907
  708MOL0     C97631   2.011   5.862   4.868  0.8529 -0.7354  0.2892
  708MOL0     C97632   2.208   4.936   4.708  0.4775  0.5454  0.0316
  708MOL0     C97633   2.162   4.803   4.682 -0.0046  0.5533 -0.2746
  708MOL0     C97634   2.261   4.717   4.607 -0.2587 -0.0636 -0.1055
  708MOL0     H97635   2.003   4.419   4.539 -2.3404 -1.0308 -0.1936
  708MOL0     H97636   1.991   4.171   4.511 -1.2030 -2.6575  1.3457
  708MOL0     H97637   2.041   3.810   4.728  0.3722 -0.6475 -0.4093
  708MOL0     H97638   2.052   3.924   4.856  0.2947  1.0700  0.0327
  708MOL0     H97639   2.233   3.913   4.604 -1.5266 -0.1327 -0.8268
  708MOL0     H97640   2.265   4.017   4.747 -0.3335 -0.2267  0.0589
  708MOL0     H97641   2.252   3.792   4.888 -0.3587 -1.9018 -0.2570
  708MOL0     H97642   2.261   3.723   4.725  0.6853  1.5295 -1.3842
  708MOL0     H97643   2.492   3.842   4.701 -3.7296 -0.6453 -2.1967
  708MOL0     H97644   2.469   3.904   4.863  1.5417  1.9447 -3.1628
  708MOL0     H97645   2.434   3.670   4.959 -0.3536  1.9931 -0.2014
  708MOL0     H97646   2.587   3.702   4.914 -0.7184  2.5851  0.6828
  708MOL0     H97647   2.390   3.550   4.710 -0.2717  4.9056 -1.7337
  708MOL0     H97648   2.564   3.577   4.683 -2.0664 -2.0178 -2.5052
  708MOL0     H97649   2.439   3.408   4.906 -0.7171  3.2705 -0.0602
  708MOL0     H97650   2.612   3.432   4.884  0.5537 -1.5199  1.9356
  708MOL0     H97651   2.447   3.338   4.649 -1.4896  0.4160  2.1743
  708MOL0     H97652   2.624   3.330   4.687  0.3360  0.3774  2.1000
  708MOL0     H97653   2.670   3.141   4.887  0.0435 -0.5214 -1.5765
  708MOL0     H97654   2.723   2.896   4.930 -0.9443  0.2209  2.2633
  708MOL0     H97655   2.644   2.782   4.826  0.6682  0.1579  0.1651
  708MOL0     H97656   2.527   2.910   5.073  1.9290  3.2308 -2.5563
  708MOL0     H97657   2.449   2.771   4.979  0.9313 -0.8929  1.6916
  708MOL0     H97658   2.715   2.754   5.109  1.4247 -2.7318 -4.3874
  708MOL0     H97659   2.561   2.695   5.192  0.9517 -2.0187  0.2545
  708MOL0     H97660   2.525   2.523   5.040 -3.4940  3.4748 -2.3125
  708MOL0     H97661   2.628   2.597   4.913 -0.6240 -1.8057 -1.3114
  708MOL0     H97662   2.894   2.319   5.105  2.3125 -0.4537  1.0612
  708MOL0     H97663   3.261   2.278   5.005 -2.4202  5.5256 -2.1813
  708MOL0     H97664   3.130   2.162   4.950 -1.0230  0.5119 -2.2169
  708MOL0     H97665   3.150   2.217   5.117  0.6804 -0.0034  0.0143
  708MOL0     H97666   3.403   2.692   4.534  0.3587 -2.3036 -2.9947
  708MOL0     H97667   3.616   2.695   4.474  2.8986 -1.3909 -0.7917
  708MOL0     H97668   3.892   2.671   4.406  2.5712 -0.7057 -0.3411
  708MOL0     H97669   3.866   2.794   4.539  2.6465  0.4759 -1.8751
  708MOL0     H97670   4.080   2.781   4.505  0.6385 -1.4365 -2.5692
  708MOL0     H97671   4.067   2.663   4.641  0.5692  2.0730  0.3457
  708MOL0     H97672   4.218   2.565   4.483  0.3714  2.1768  1.2161
  708MOL0     H97673   4.107   2.610   4.355 -1.6633  0.7889 -0.1410
  708MOL0     H97674   3.950   2.416   4.440 -1.1100 -2.7670 -0.3335
  708MOL0     H97675   4.076   2.379   4.563 -0.6982  0.0367 -0.4992
  708MOL0     H97676   4.135   2.359   4.275 -0.8201  2.5171  0.5966
  708MOL0     H97677   4.235   2.323   4.417 -0.7465 -2.5340  0.7267
  708MOL0     H97678   3.982   2.188   4.318 -1.6806 -0.2237  2.4400
  708MOL0     H97679   4.016   2.165   4.482 -6.8836 -0.0116 -2.9610
  708MOL0     H97680   4.260   2.090   4.407 -0.2010 -0.8240  1.0131
  708MOL0     H97681   4.201   2.069   4.243 -1.4013  1.7630 -0.4936
  708MOL0     H97682   4.161   1.851   4.352 -2.1531 -0.1164 -2.0840
  708MOL0     H97683   4.015   1.952   4.349  0.7421  1.1042  0.0014
  708MOL0     H97684   3.749   2.507   4.824 -3.8570 -1.6280  3.3066
  708MOL0     H97685   3.507   2.502   4.913  2.6529 -0.3395  0.3013
  708MOL0     H97686   3.062   2.651   4.791  3.1096  0.0841  0.7042
  708MOL0     H97687   2.846   2.688   4.901 -3.1263 -2.1613 -0.5064
  708MOL0     H97688   1.951   4.101   4.911  1.8541 -0.1785  0.2283
  708MOL0     H97689   1.946   4.370   4.950 -4.1902  2.0855 -2.0021
  708MOL0     H97690   1.849   4.822   4.792  1.3304 -2.2401 -1.3015
  708MOL0     H97691   1.924   5.039   4.881 -0.7394  0.1716  0.2619
  708MOL0     H97692   1.991   5.252   4.731 -0.8954 -0.3151  1.0546
  708MOL0     H97693   2.027   5.269   4.901 -0.9337 -0.2503 -0.3213
  708MOL0     H97694   2.204   5.420   4.692  1.0737 -2.5393 -0.4944
  708MOL0     H97695   2.213   5.394   4.864 -0.4265  0.3502  0.4011
  708MOL0     H97696   1.968   5.511   4.732  0.5222  0.1310 -0.9298
  708MOL0     H97697   2.010   5.519   4.905  1.1346  0.6915  1.0357
  708MOL0     H97698   2.166   5.653   4.676 -0.5671 -0.3327  0.3474
  708MOL0     H97699   2.227   5.633   4.847 -0.0178 -3.3008  1.5225
  708MOL0     H97700   1.948   5.941   4.905 -1.9971 -0.6869 -3.9375
  708MOL0     H97701   2.301   4.977   4.669 -0.8548  2.5789 -1.1598
  708MOL0     H97702   2.282   4.622   4.656 -1.2486 -1.1791 -1.7620
  708MOL0     H97703   2.232   4.693   4.504  0.8451 -2.1033  0.0116
  708MOL0     H97704   2.353   4.773   4.589  0.6385 -1.3295  0.4536
  709MOL0     O97705   0.346   9.912   8.271 -0.2411  0.3466  0.2233
  709MOL0     C97706   0.354   9.823   8.191 -0.5553  0.1114  0.8318
  709MOL0     O97707   0.284   9.708   8.196 -0.6658 -0.2735 -0.3854
  709MOL0     C97708   0.172   9.710   8.273 -0.6489 -0.4970 -1.0615
  709MOL0     C97709   0.150   9.601   8.363  0.8352  0.2433  0.7325
  709MOL0     C97710   0.050   9.595   8.450 -0.2135 -0.0246  0.3307
  709MOL0     C97711  -0.052   9.689   8.448  0.7832 -0.8918 -0.6766
  709MOL0     O97712  -0.162   9.692   8.532 -0.6124 -0.2637  0.2356
  709MOL0     C97713  -0.171   9.573   8.612 -1.2028  0.7435  0.4359
  709MOL0     C97714  -0.308   9.579   8.669 -0.1152 -1.0335 -0.3800
  709MOL0     C97715  -0.414   9.566   8.574  0.5003  0.9519  0.9228
  709MOL0     C97716  -0.561   9.603   8.630  0.2841 -0.7483 -0.1281
  709MOL0     C97717  -0.675   9.554   8.528 -0.5382  0.0600  0.3716
  709MOL0     C97718  -0.720   9.662   8.441  0.6495  0.7725 -0.3378
  709MOL0     C97719  -0.768   9.619   8.301  0.6642  0.6312 -0.6600
  709MOL0     C97720  -0.812   9.741   8.225  0.2061 -0.0306  0.2263
  709MOL0     N97721  -0.700   9.813   8.170 -0.3730  0.5328  0.3983
  709MOL0     C97722  -0.623   9.765   8.071  0.8151 -0.7374  0.2550
  709MOL0     C97723  -0.533   9.865   8.056 -0.6974 -0.4751 -0.6679
  709MOL0     C97724  -0.408   9.846   7.965 -0.2701  0.3293  0.4564
  709MOL0     C97725  -0.341   9.712   7.989  0.4753  0.6843  0.5328
  709MOL0     C97726  -0.296   9.682   8.128  1.0717  0.0522 -0.2622
  709MOL0     C97727  -0.298   9.535   8.167  0.0971 -0.0668  0.4454
  709MOL0     O97728  -0.185   9.460   8.107  0.1218  0.9695 -0.7075
  709MOL0     C97729  -0.206   9.329   8.106 -0.7723 -0.2697  0.1627
  709MOL0     C97730  -0.173   9.248   8.206  0.2753  0.1330 -0.7035
  709MOL0     C97731  -0.198   9.108   8.203 -0.0444  0.2402  0.4779
  709MOL0     C97732  -0.164   9.018   8.326  0.3258 -0.2666  1.2217
  709MOL0     C97733  -0.252   9.054   8.083  0.3247 -0.0449 -0.8941
  709MOL0     C97734  -0.299   8.914   8.063 -0.0116 -0.1353  0.5791
  709MOL0     O97735  -0.250   8.851   7.946  0.5932 -0.1304 -0.8309
  709MOL0     C97736  -0.318   8.739   7.901 -0.1944  1.2490 -0.6043
  709MOL0     C97737  -0.446   8.698   7.931  0.2611 -0.1288  0.0606
  709MOL0     C97738  -0.502   8.585   7.866  0.2920 -0.0361 -0.2996
  709MOL0     C97739  -0.430   8.516   7.770 -0.1722 -0.5004  0.5134
  709MOL0     O97740  -0.465   8.398   7.707 -0.1483  0.0866 -0.6609
  709MOL0     C97741  -0.564   8.308   7.757 -0.6171 -0.8051  0.0977
  709MOL0     C97742  -0.558   8.161   7.701  0.2414 -0.2286 -0.5841
  709MOL0     C97743  -0.683   8.084   7.732  0.0185  1.1332  0.8954
  709MOL0     C97744  -0.720   8.058   7.870 -0.9529 -0.3497  0.0870
  709MOL0     C97745  -0.855   7.974   7.879  0.6382  0.4459  0.4738
  709MOL0     C97746  -0.846   7.924   8.028 -0.0032 -0.4484 -0.7384
  709MOL0     C97747  -0.975   7.862   8.081 -0.0956 -0.7783 -0.8101
  709MOL0     C97748  -1.069   7.962   8.155 -0.2483  0.0042 -0.4493
  709MOL0    Cl97749  -0.980   8.032   8.302 -0.2520 -0.6780  0.4144
  709MOL0     C97750  -0.304   8.567   7.732  0.0156  0.2865 -0.2279
  709MOL0     C97751  -0.251   8.682   7.793  0.4651  0.4175  0.8064
  709MOL0     O97752  -0.345   8.857   8.163 -0.4735 -0.1317 -0.3933
  709MOL0     C97753  -0.281   9.139   7.980  1.2524 -0.1602  0.2761
  709MOL0     C97754  -0.260   9.273   7.983  0.5508  0.1744 -0.1253
  709MOL0     N97755  -0.556   9.973   8.138 -0.4397 -1.6659  0.1632
  709MOL0     N97756  -0.664   9.940   8.202 -0.1697  0.5262  0.2796
  709MOL0     C97757  -0.047   9.794   8.352 -0.0733 -0.0749 -1.0401
  709MOL0     C97758   0.068   9.804   8.267  0.5969  0.5396  0.0365
  709MOL0     C97759   0.456   9.829   8.077  0.2821  0.5016  0.5825
  709MOL0     C97760   0.448   9.730   7.979 -0.0194  0.4864 -0.1418
  709MOL0     C97761   0.522   9.714   7.862 -0.5721 -0.5549 -0.1606
  709MOL0     C97762   0.623   9.810   7.840  0.3069  0.0502 -0.4394
  709MOL0     O97763   0.722   9.794   7.744 -0.5644 -0.2687  0.3617
  709MOL0     C97764   0.716   9.890   7.632  0.2847  0.2507 -0.3918
  709MOL0     C97765   0.852   9.912   7.570 -0.6317 -0.1041 -0.0917
  709MOL0     C97766   0.912  10.034   7.639 -0.4099 -0.4625  0.2191
  709MOL0     C97767   1.009  10.093   7.532  0.5238  0.0885  0.5733
  709MOL0     C97768   0.945  10.164   7.417 -0.2057 -1.1910  0.4723
  709MOL0     C97769   0.883  10.231   7.328 -0.3858 -0.4618  0.2745
  709MOL0     C97770   0.640   9.900   7.939  0.4213 -0.0724  0.0915
  709MOL0     C97771   0.559   9.917   8.051 -0.4764 -0.5607  0.5884
  709MOL0     C97772   0.577  10.038   8.143  0.3132  0.3646 -0.4604
  709MOL0     H97773   0.220   9.518   8.358 -1.8518 -2.1386 -0.2337
  709MOL0     H97774   0.040   9.515   8.523  1.3593 -0.7981 -0.2528
  709MOL0     H97775  -0.100   9.575   8.695 -0.3898  1.4748 -0.2634
  709MOL0     H97776  -0.154   9.481   8.555  0.7245  1.9117 -0.9806
  709MOL0     H97777  -0.320   9.497   8.740  1.1246  1.0319  2.4146
  709MOL0     H97778  -0.323   9.667   8.732  2.0720 -0.5301 -0.4960
  709MOL0     H97779  -0.403   9.629   8.485 -4.6250 -0.5901 -1.1910
  709MOL0     H97780  -0.420   9.461   8.542 -1.6011  1.4965 -0.6701
  709MOL0     H97781  -0.569   9.550   8.725  1.6476  1.6314  1.4099
  709MOL0     H97782  -0.579   9.708   8.655 -1.7894 -1.6802  2.8534
  709MOL0     H97783  -0.751   9.512   8.593 -0.2410  0.8296  1.2452
  709MOL0     H97784  -0.647   9.469   8.465  0.0996 -1.8890  3.1233
  709MOL0     H97785  -0.786   9.736   8.488  1.6112  1.3652  0.1127
  709MOL0     H97786  -0.629   9.718   8.420  0.7054  1.6271  1.9214
  709MOL0     H97787  -0.852   9.550   8.305  0.7446  0.5828  1.0823
  709MOL0     H97788  -0.680   9.573   8.255 -0.9382 -1.0045 -2.2432
  709MOL0     H97789  -0.876   9.719   8.139 -1.2605  1.4424  0.8800
  709MOL0     H97790  -0.872   9.804   8.292 -0.5018  1.0648 -1.3776
  709MOL0     H97791  -0.612   9.670   8.021  2.4691 -0.6806  0.4669
  709MOL0     H97792  -0.343   9.933   7.979 -2.3009  1.9700  0.0739
  709MOL0     H97793  -0.438   9.850   7.860  0.3218  1.1706  0.3060
  709MOL0     H97794  -0.412   9.636   7.955  1.3677 -1.2700  2.7224
  709MOL0     H97795  -0.249   9.704   7.929  0.9609  1.3528  1.1771
  709MOL0     H97796  -0.198   9.729   8.143  0.9236  0.0386  0.8564
  709MOL0     H97797  -0.368   9.726   8.197  2.6894  0.8147  1.0175
  709MOL0     H97798  -0.290   9.529   8.276  0.1199  2.1932  0.6073
  709MOL0     H97799  -0.400   9.503   8.140 -0.1526  0.5983  0.5723
  709MOL0     H97800  -0.119   9.281   8.294  0.2977  0.2055 -0.7448
  709MOL0     H97801  -0.094   8.948   8.280  1.1655  2.1269 -1.4262
  709MOL0     H97802  -0.250   8.959   8.359  0.4820 -0.7249  0.8218
  709MOL0     H97803  -0.112   9.061   8.412  1.5583 -0.1419  0.4501
  709MOL0     H97804  -0.502   8.752   8.007 -2.2916  3.8946 -4.1745
  709MOL0     H97805  -0.601   8.557   7.899  0.2939  1.3977  1.0125
  709MOL0     H97806  -0.545   8.319   7.864  3.3547  2.3723 -0.7209
  709MOL0     H97807  -0.663   8.348   7.733  0.1168  2.2597  1.7045
  709MOL0     H97808  -0.547   8.183   7.594  1.1401  0.1607 -0.4183
  709MOL0     H97809  -0.469   8.104   7.731  0.3071 -0.9414 -2.0300
  709MOL0     H97810  -0.671   7.988   7.681 -0.8008  0.5344  1.7912
  709MOL0     H97811  -0.758   8.143   7.679  0.7941  0.9556 -0.4657
  709MOL0     H97812  -0.721   8.148   7.932  0.8278  1.1162 -1.8556
  709MOL0     H97813  -0.639   7.997   7.910 -1.4619 -2.7398 -2.2485
  709MOL0     H97814  -0.941   8.041   7.879  1.6787  1.8220 -0.0061
  709MOL0     H97815  -0.864   7.895   7.804  0.9582  2.4202 -1.7546
  709MOL0     H97816  -0.811   8.011   8.086  0.2111 -0.2729 -1.1324
  709MOL0     H97817  -0.763   7.854   8.030  0.6784  0.3414  0.5049
  709MOL0     H97818  -0.937   7.792   8.155  1.2572 -0.3581 -1.0772
  709MOL0     H97819  -1.028   7.810   8.000 -4.3553  2.2229 -0.3115
  709MOL0     H97820  -1.158   7.908   8.188  1.0886 -1.4827  0.9592
  709MOL0     H97821  -1.111   8.041   8.093 -0.8826 -2.4137 -3.3120
  709MOL0     H97822  -0.250   8.509   7.658 -0.7525  0.2090 -0.7295
  709MOL0     H97823  -0.156   8.719   7.757  1.5402 -0.7217  2.3045
  709MOL0     H97824  -0.333   9.099   7.893  3.2310 -0.2322 -0.9241
  709MOL0     H97825  -0.300   9.348   7.916 -2.9169 -0.8158  0.6244
  709MOL0     H97826  -0.117   9.877   8.355  2.4644  2.1531  0.0097
  709MOL0     H97827   0.071   9.885   8.195  2.2504  0.5162  0.0326
  709MOL0     H97828   0.377   9.649   7.985  2.1237 -1.3882  3.1512
  709MOL0     H97829   0.518   9.622   7.804 -2.0894 -1.4421  1.2603
  709MOL0     H97830   0.639   9.856   7.561 -1.7643  0.6496  1.5197
  709MOL0     H97831   0.673   9.986   7.664  1.6619  1.6076 -2.3814
  709MOL0     H97832   0.843   9.922   7.461  1.9666  0.8613 -0.2869
  709MOL0     H97833   0.916   9.825   7.586  1.6815  1.2535 -1.3578
  709MOL0     H97834   0.831  10.095   7.678 -1.3412 -2.2108  1.1235
  709MOL0     H97835   0.973  10.008   7.726  3.8878 -0.2682 -2.4312
  709MOL0     H97836   1.059  10.005   7.491 -1.1597 -1.0674  0.8955
  709MOL0     H97837   1.088  10.151   7.582  0.4125 -1.3634  2.5633
  709MOL0     H97838   0.816  10.287   7.266 -2.5125 -0.1517  2.6512
  709MOL0     H97839   0.707   9.982   7.917 -0.4283  0.0962 -2.1082
  709MOL0     H97840   0.661  10.093   8.101  0.3211  1.5651  1.0590
  709MOL0     H97841   0.486  10.098   8.153 -1.0973 -1.9243  1.7975
  709MOL0     H97842   0.602  10.006   8.244  1.2000 -1.7341 -1.2900
  710MOL0     O97843   3.870   9.765   2.127 -0.2300  0.0685 -0.2550
  710MOL0     C97844   3.774   9.826   2.075  0.0831  0.3518  0.2285
  710MOL0     O97845   3.731   9.950   2.116 -0.0065 -0.1937 -0.2303
  710MOL0     C97846   3.780  10.013   2.227  0.2426 -0.2788  0.3761
  710MOL0     C97847   3.827   9.945   2.344  0.2828 -0.0399  0.4770
  710MOL0     C97848   3.863  10.019   2.455 -0.8134 -0.8752 -0.8241
  710MOL0     C97849   3.859  10.156   2.450  0.6088  0.8825 -0.5704
  710MOL0     O97850   3.881  10.238   2.557 -0.1431 -0.2436  0.2577
  710MOL0     C97851   3.830  10.207   2.686  0.1021 -0.8374  0.3964
  710MOL0     C97852   3.844  10.322   2.791  0.7223 -0.0931 -0.3620
  710MOL0     C97853   3.874  10.456   2.730  0.4541  0.1021  0.2814
  710MOL0     C97854   3.896  10.566   2.827 -0.5175  0.0221 -0.3522
  710MOL0     C97855   3.959  10.703   2.792  0.8651 -0.0008  0.2053
  710MOL0     C97856   4.003  10.792   2.909  0.5977 -0.0921  0.5568
  710MOL0     C97857   4.105  10.723   2.997  0.6011  0.1454 -0.3009
  710MOL0     C97858   4.164  10.833   3.102  0.8417 -0.0346 -0.3430
  710MOL0     N97859   4.227  10.950   3.041 -0.7306  0.3839 -0.0490
  710MOL0     C97860   4.278  11.054   3.113  0.2311  0.0955  0.4132
  710MOL0     C97861   4.354  11.123   3.023  0.7650  0.5293  0.2422
  710MOL0     C97862   4.441  11.247   3.046 -0.1177 -0.3692 -0.8733
  710MOL0     C97863   4.589  11.226   3.032 -0.3956 -0.4133  0.2676
  710MOL0     C97864   4.682  11.341   3.079 -0.9333 -0.1557 -0.7426
  710MOL0     C97865   4.696  11.470   2.994  0.4961  0.4628  0.9888
  710MOL0     O97866   4.761  11.458   2.870  0.1022  0.3273 -0.3696
  710MOL0     C97867   4.783  11.572   2.797 -0.2811 -0.0168  0.6337
  710MOL0     C97868   4.859  11.681   2.847 -0.1980 -0.1014  0.0898
  710MOL0     C97869   4.877  11.796   2.766 -1.0191 -0.6683  0.1733
  710MOL0     C97870   4.940  11.913   2.838 -0.3198 -0.3985  0.7420
  710MOL0     C97871   4.819  11.808   2.635  0.2640  0.4674 -0.0492
  710MOL0     C97872   4.847  11.926   2.543  0.6044  0.8840  0.3107
  710MOL0     O97873   4.842  11.895   2.404  0.4032  0.0973 -0.2629
  710MOL0     C97874   4.850  11.996   2.314 -0.7438  0.0045 -0.4110
  710MOL0     C97875   4.979  12.055   2.281  0.0123 -0.1553  0.1226
  710MOL0     C97876   4.988  12.145   2.176  0.6598  0.7543  0.0570
  710MOL0     C97877   4.871  12.176   2.097 -0.4234  0.6709 -0.0503
  710MOL0     O97878   4.875  12.265   1.998 -0.5634 -0.2394 -0.2791
  710MOL0     C97879   5.001  12.309   1.937 -0.5269 -0.1039 -0.0980
  710MOL0     C97880   4.963  12.423   1.834 -0.6256  0.4165 -1.0627
  710MOL0     C97881   5.070  12.425   1.721 -0.6070 -0.5537  0.0750
  710MOL0     C97882   5.067  12.301   1.627 -1.4790 -0.2280  0.1033
  710MOL0     C97883   5.105  12.339   1.480 -0.4585 -0.0147  0.3065
  710MOL0     C97884   5.246  12.396   1.467 -0.6428  0.3908 -0.6395
  710MOL0     C97885   5.352  12.293   1.456  0.4466 -1.1417  0.0424
  710MOL0     C97886   5.471  12.330   1.547  0.2422 -0.1310  1.0546
  710MOL0    Cl97887   5.442  12.304   1.728 -0.0947 -0.1274  0.0612
  710MOL0     C97888   4.758  12.116   2.132  0.5571 -0.6575 -0.3600
  710MOL0     C97889   4.741  12.021   2.237 -0.7687 -0.1073 -0.4131
  710MOL0     O97890   4.862  12.041   2.589 -0.4231 -0.1138  0.0549
  710MOL0     C97891   4.753  11.694   2.585 -0.8401  0.8674  0.2676
  710MOL0     C97892   4.734  11.580   2.670 -0.3934 -0.3445  1.2555
  710MOL0     N97893   4.356  11.054   2.903 -0.2358 -0.4824 -0.2377
  710MOL0     N97894   4.286  10.949   2.920 -0.1216 -0.3943  0.0789
  710MOL0     C97895   3.802  10.224   2.339 -0.8249 -0.0813  0.0886
  710MOL0     C97896   3.767  10.151   2.232  0.3479 -0.3852  0.6972
  710MOL0     C97897   3.676   9.750   1.987  1.1339  0.1408  0.0651
  710MOL0     C97898   3.550   9.809   1.961  0.2255 -0.9754 -0.6608
  710MOL0     C97899   3.450   9.742   1.893 -1.2068 -0.0006  0.2147
  710MOL0     C97900   3.473   9.607   1.848 -0.2118 -0.2634 -1.2241
  710MOL0     O97901   3.376   9.544   1.778 -0.1954 -0.8172 -0.5726
  710MOL0     C97902   3.286   9.464   1.856 -0.8113 -0.1843 -0.7832
  710MOL0     C97903   3.343   9.324   1.837 -0.6359 -0.2049 -0.5061
  710MOL0     C97904   3.252   9.222   1.887  0.9127  0.2738  0.5057
  710MOL0     C97905   3.325   9.090   1.912 -0.5953 -0.0728 -1.3591
  710MOL0     C97906   3.227   8.989   1.958  0.4130 -0.6301 -0.6226
  710MOL0     C97907   3.144   8.910   2.000 -0.4457 -0.2595  0.2678
  710MOL0     C97908   3.602   9.549   1.864 -0.0677 -1.0882  0.5796
  710MOL0     C97909   3.696   9.612   1.937 -0.2607  0.6648 -0.9038
  710MOL0     C97910   3.825   9.548   1.949 -0.2715  0.1117  0.4845
  710MOL0     H97911   3.814   9.839   2.365 -2.3367  0.5961  2.7679
  710MOL0     H97912   3.896   9.967   2.545  0.3353  2.3469  0.7699
  710MOL0     H97913   3.849  10.112   2.738 -0.4361 -1.8334 -1.1463
  710MOL0     H97914   3.722  10.204   2.667  0.0278 -1.6057  0.8864
  710MOL0     H97915   3.745  10.320   2.839  1.0797 -3.5958  0.5412
  710MOL0     H97916   3.921  10.302   2.866 -0.2369  4.8164  2.3548
  710MOL0     H97917   3.965  10.459   2.670 -0.6122  1.3429 -1.3714
  710MOL0     H97918   3.794  10.484   2.661  0.1959  2.5506  1.4797
  710MOL0     H97919   3.804  10.580   2.883  0.4163 -2.7939  2.1863
  710MOL0     H97920   3.952  10.520   2.909 -1.9904  0.7564  1.1092
  710MOL0     H97921   3.879  10.761   2.743  0.0927 -1.5137 -0.3861
  710MOL0     H97922   4.040  10.698   2.719  1.0728 -0.1656  0.4478
  710MOL0     H97923   4.049  10.884   2.873 -2.2212  0.9577 -0.6297
  710MOL0     H97924   3.920  10.819   2.975  0.2339  1.9539 -0.6697
  710MOL0     H97925   4.176  10.679   2.927  0.0315  1.2267 -1.6094
  710MOL0     H97926   4.071  10.638   3.057 -1.4687  0.5518 -0.8261
  710MOL0     H97927   4.086  10.884   3.159  1.7328 -1.2837  2.1038
  710MOL0     H97928   4.236  10.788   3.171  0.5919  2.9211  2.0542
  710MOL0     H97929   4.266  11.089   3.216  2.3365  1.6880  0.1925
  710MOL0     H97930   4.437  11.273   3.153  0.7284 -2.2364 -0.3428
  710MOL0     H97931   4.401  11.330   2.988 -4.8532 -0.7125  1.3693
  710MOL0     H97932   4.620  11.135   3.083  0.4788  0.9128  2.2262
  710MOL0     H97933   4.610  11.203   2.927  0.0046 -0.1780  0.2924
  710MOL0     H97934   4.658  11.381   3.178 -1.3994  2.3087 -1.7711
  710MOL0     H97935   4.786  11.308   3.079 -0.5118  1.0886 -1.7677
  710MOL0     H97936   4.597  11.511   2.972 -1.5550 -2.0638  4.4088
  710MOL0     H97937   4.741  11.550   3.054  0.9507  1.3000 -0.4270
  710MOL0     H97938   4.891  11.677   2.950 -0.4369  1.8835  0.2718
  710MOL0     H97939   4.959  11.883   2.942 -0.6947 -0.7625  0.7098
  710MOL0     H97940   4.876  11.999   2.856  1.0089  0.1203  3.6739
  710MOL0     H97941   5.041  11.938   2.803 -0.3962 -2.0833 -0.8687
  710MOL0     H97942   5.070  12.026   2.333  1.3613 -0.6156 -2.3045
  710MOL0     H97943   5.087  12.182   2.150 -0.3816  0.6297 -5.5232
  710MOL0     H97944   5.073  12.330   2.017 -1.2051  1.2817  0.1836
  710MOL0     H97945   5.054  12.232   1.881  0.3952  0.6456 -0.2656
  710MOL0     H97946   4.866  12.419   1.784 -0.8199 -1.1381 -0.6052
  710MOL0     H97947   4.965  12.512   1.898 -0.6140 -0.4444  0.1657
  710MOL0     H97948   5.171  12.447   1.757  0.8231 -0.8176 -3.4004
  710MOL0     H97949   5.045  12.509   1.655 -1.0773  1.9016  3.1585
  710MOL0     H97950   4.963  12.267   1.626 -0.8204 -2.3785  0.4480
  710MOL0     H97951   5.139  12.225   1.658  1.9676  2.0754 -1.6418
  710MOL0     H97952   5.098  12.243   1.428  4.1476  0.3684 -1.5106
  710MOL0     H97953   5.039  12.410   1.430 -0.9238  1.1468  2.4295
  710MOL0     H97954   5.271  12.462   1.551  3.0767 -1.5504 -0.0378
  710MOL0     H97955   5.253  12.447   1.370  1.0118 -2.9732 -2.4563
  710MOL0     H97956   5.393  12.291   1.354  3.4219  2.7640  0.9270
  710MOL0     H97957   5.305  12.203   1.496  0.4978 -0.2117  2.3104
  710MOL0     H97958   5.479  12.438   1.559  0.4822  0.0614 -0.5499
  710MOL0     H97959   5.562  12.292   1.499 -1.3233 -2.1577 -0.5182
  710MOL0     H97960   4.676  12.135   2.064 -0.7113 -1.5689  0.8647
  710MOL0     H97961   4.651  11.963   2.260 -1.1229  1.4913  2.9957
  710MOL0     H97962   4.724  11.687   2.480  2.2027 -2.6485 -0.5891
  710MOL0     H97963   4.680  11.494   2.631 -2.8120  1.0703  1.2808
  710MOL0     H97964   3.798  10.332   2.341 -0.9405 -0.0071  4.1661
  710MOL0     H97965   3.707  10.188   2.149 -0.9345 -0.5218  1.5284
  710MOL0     H97966   3.526   9.913   1.980  0.2035 -1.3341  1.6145
  710MOL0     H97967   3.359   9.795   1.867  0.2347  1.9345 -1.1965
  710MOL0     H97968   3.294   9.481   1.964  3.2944  0.3701 -1.0401
  710MOL0     H97969   3.181   9.462   1.826 -0.7972 -0.5793 -0.8191
  710MOL0     H97970   3.442   9.316   1.884 -1.9776 -5.7860  2.2035
  710MOL0     H97971   3.362   9.295   1.733 -1.9982 -2.4026 -0.2027
  710MOL0     H97972   3.217   9.250   1.987  2.4012 -0.8035  1.3794
  710MOL0     H97973   3.168   9.199   1.820  2.7522 -1.9563 -1.2372
  710MOL0     H97974   3.412   9.099   1.978 -1.4573 -0.8717 -0.0826
  710MOL0     H97975   3.371   9.064   1.816  2.1869  2.8891 -0.9880
  710MOL0     H97976   3.064   8.847   2.034  0.1694  1.1948  5.0825
  710MOL0     H97977   3.615   9.449   1.825 -1.6712 -0.4006 -1.9490
  710MOL0     H97978   3.904   9.620   1.923 -0.7598  1.8822  3.5074
  710MOL0     H97979   3.849   9.505   2.046 -0.3013 -0.3137  0.3078
  710MOL0     H97980   3.846   9.462   1.885  0.9829 -0.9452  2.2180
  711MOL0     O97981   6.222   0.598   9.027  0.7551 -0.1877  0.4076
  711MOL0     C97982   6.113   0.583   9.076  0.5700 -0.3412 -0.4971
  711MOL0     O97983   6.038   0.475   9.064  1.1251 -0.6460 -0.3774
  711MOL0     C97984   6.074   0.367   8.987  0.3966  0.1270  0.8309
  711MOL0     C97985   6.152   0.365   8.865  0.5456 -0.3993 -0.4928
  711MOL0     C97986   6.174   0.251   8.791  0.8219 -0.2291  0.4940
  711MOL0     C97987   6.120   0.127   8.835  0.1392  0.0150  1.0486
  711MOL0     O97988   6.140   0.010   8.770  0.5759  0.0945  0.5143
  711MOL0     C97989   6.267  -0.034   8.727  0.3241  0.3874  0.2566
  711MOL0     C97990   6.365  -0.073   8.833 -0.0788 -0.5476 -0.3243
  711MOL0     C97991   6.329  -0.203   8.912 -0.0040  0.0997 -0.3455
  711MOL0     C97992   6.231  -0.174   9.016  0.5060  0.4119 -0.4082
  711MOL0     C97993   6.207  -0.311   9.089  1.6458  0.5688 -0.5239
  711MOL0     C97994   6.119  -0.307   9.211 -0.0599  0.5528  0.5875
  711MOL0     C97995   6.090  -0.435   9.273 -0.3173 -0.4103 -0.1907
  711MOL0     C97996   6.049  -0.425   9.423 -0.4520  0.4806  0.3553
  711MOL0     N97997   6.018  -0.562   9.477 -0.3833 -0.3892  0.8054
  711MOL0     C97998   6.079  -0.685   9.440  0.6672  0.2424 -0.5930
  711MOL0     C97999   6.001  -0.773   9.508 -0.0791  0.2501  1.0546
  711MOL0     C98000   6.021  -0.910   9.465  0.1024 -0.2282 -0.0671
  711MOL0     C98001   6.001  -0.992   9.600 -0.6087 -0.2391  0.2497
  711MOL0     C98002   6.104  -0.956   9.706 -0.3349  0.0867  0.8737
  711MOL0     C98003   6.117  -1.048   9.820 -0.5369  0.2447 -0.7022
  711MOL0     O98004   6.167  -1.170   9.772  0.9488  0.1589 -0.2838
  711MOL0     C98005   6.195  -1.277   9.851 -0.3829  0.2685 -0.5591
  711MOL0     C98006   6.177  -1.271   9.988  0.6318 -0.0728 -1.3569
  711MOL0     C98007   6.187  -1.397  10.068 -0.0219 -0.2258  0.1758
  711MOL0     C98008   6.198  -1.378  10.215 -0.2690 -0.4108  0.2418
  711MOL0     C98009   6.224  -1.517   9.999 -0.3929 -0.2430 -0.5594
  711MOL0     C98010   6.223  -1.651  10.069 -0.5713  0.5341  1.1085
  711MOL0     O98011   6.312  -1.755  10.035 -0.1615  0.0426  1.1305
  711MOL0     C98012   6.301  -1.870  10.106  0.1920  0.6023 -0.4098
  711MOL0     C98013   6.209  -1.971  10.066 -0.4540  0.1866  0.2319
  711MOL0     C98014   6.191  -2.093  10.131  0.1552 -0.7042  0.3200
  711MOL0     C98015   6.276  -2.113  10.255  0.6888  0.6006  0.8536
  711MOL0     O98016   6.280  -2.236  10.316 -0.7536 -0.9672  0.8178
  711MOL0     C98017   6.197  -2.341  10.267  0.6173 -1.4217 -1.0569
  711MOL0     C98018   6.216  -2.475  10.327  0.8183  0.6363  0.4748
  711MOL0     C98019   6.273  -2.471  10.468  0.4011  0.7979 -0.1406
  711MOL0     C98020   6.277  -2.614  10.522  0.1793  0.4632 -0.3474
  711MOL0     C98021   6.304  -2.615  10.673 -0.1343  0.2375 -1.0493
  711MOL0     C98022   6.275  -2.746  10.726  0.4953 -0.1953 -0.0082
  711MOL0     C98023   6.405  -2.833  10.700 -0.1735 -0.1370 -1.1779
  711MOL0     C98024   6.397  -2.955  10.780 -0.5244 -0.3815 -0.0917
  711MOL0    Cl98025   6.534  -3.059  10.728 -0.2402 -0.5109 -0.6112
  711MOL0     C98026   6.365  -2.002  10.301 -0.0468  0.0679  0.0136
  711MOL0     C98027   6.369  -1.882  10.226 -0.2406 -0.8060 -0.5033
  711MOL0     O98028   6.138  -1.664  10.155  0.1882  0.3493  0.4332
  711MOL0     C98029   6.258  -1.507   9.859  0.4557 -0.0985  0.2437
  711MOL0     C98030   6.238  -1.392   9.789  0.3563 -0.1808 -0.3077
  711MOL0     N98031   5.903  -0.713   9.587  0.1153  0.7547  0.6537
  711MOL0     N98032   5.907  -0.587   9.559 -0.7830  0.0818  0.9428
  711MOL0     C98033   6.051   0.128   8.955  0.1505 -0.2881  0.9997
  711MOL0     C98034   6.027   0.245   9.030  0.4573 -0.9707  0.2518
  711MOL0     C98035   6.052   0.689   9.165  0.8106 -0.7561  0.6190
  711MOL0     C98036   5.912   0.686   9.188 -0.1286  0.0974  0.7898
  711MOL0     C98037   5.847   0.778   9.266 -0.5076 -0.1594 -0.0848
  711MOL0     C98038   5.919   0.882   9.333 -0.6979  0.6786 -0.0399
  711MOL0     O98039   5.865   0.982   9.414 -1.0451  0.4662 -0.1474
  711MOL0     C98040   5.804   0.928   9.545 -0.6782 -0.2364 -0.3795
  711MOL0     C98041   5.730   1.038   9.609  1.3929 -0.3010 -0.7271
  711MOL0     C98042   5.606   1.069   9.518 -0.2994 -0.0570  0.1677
  711MOL0     C98043   5.510   1.176   9.571 -0.6886  0.8138  0.3763
  711MOL0     C98044   5.433   1.219   9.452 -0.8367 -0.2200 -0.5531
  711MOL0     C98045   5.374   1.266   9.354 -0.9968  0.4185  0.0362
  711MOL0     C98046   6.055   0.885   9.306 -0.3485  0.2329  0.3713
  711MOL0     C98047   6.125   0.798   9.227  0.4457  0.5056 -0.1749
  711MOL0     C98048   6.280   0.822   9.217  0.9724 -0.0536 -0.1621
  711MOL0     H98049   6.198   0.457   8.830  0.9342 -1.2217 -2.2631
  711MOL0     H98050   6.222   0.264   8.695  1.1232 -0.2267  0.6456
  711MOL0     H98051   6.316   0.037   8.660 -0.5590 -0.4222 -1.2901
  711MOL0     H98052   6.253  -0.124   8.667  1.5881  1.1271 -1.2150
  711MOL0     H98053   6.464  -0.086   8.788  0.5669  1.1877  0.4906
  711MOL0     H98054   6.369   0.006   8.908 -1.7556  0.3720 -1.1509
  711MOL0     H98055   6.313  -0.290   8.848  0.6842 -0.9023  0.8099
  711MOL0     H98056   6.420  -0.238   8.961 -1.4021 -1.4276  1.2518
  711MOL0     H98057   6.265  -0.101   9.090  2.3753  1.3056 -2.0412
  711MOL0     H98058   6.139  -0.137   8.970 -0.2430  2.6505  2.5599
  711MOL0     H98059   6.303  -0.359   9.114  0.9318 -1.7858 -2.0069
  711MOL0     H98060   6.162  -0.372   9.010 -1.5283  1.5798  0.3669
  711MOL0     H98061   6.157  -0.246   9.294 -1.9747 -0.5309  2.3720
  711MOL0     H98062   6.024  -0.260   9.181  0.7130  2.9746  1.6301
  711MOL0     H98063   6.171  -0.506   9.256 -0.5258 -1.3635  2.3942
  711MOL0     H98064   6.010  -0.486   9.218  1.4450 -0.0445 -3.3051
  711MOL0     H98065   6.134  -0.382   9.477  0.9590  0.2378 -1.5741
  711MOL0     H98066   5.965  -0.357   9.437 -0.7034  0.1801  0.3137
  711MOL0     H98067   6.156  -0.718   9.371 -2.9988 -1.6321 -4.2377
  711MOL0     H98068   6.114  -0.922   9.409 -1.1640 -1.3549 -2.0378
  711MOL0     H98069   5.940  -0.944   9.401 -0.7557  1.3322  0.1343
  711MOL0     H98070   5.903  -0.957   9.633 -1.3898  1.3337 -3.2693
  711MOL0     H98071   5.981  -1.094   9.568 -0.9628  0.1993 -0.9692
  711MOL0     H98072   6.201  -0.952   9.656 -0.6763 -4.6460 -0.6332
  711MOL0     H98073   6.078  -0.858   9.747  1.4061  0.2590  1.6533
  711MOL0     H98074   6.187  -1.023   9.900 -1.0356  1.8576 -0.7402
  711MOL0     H98075   6.020  -1.063   9.868  0.8429 -0.4551  2.1000
  711MOL0     H98076   6.152  -1.175  10.032  3.2800  0.9507 -1.9042
  711MOL0     H98077   6.210  -1.271  10.233 -1.0650 -0.8904  5.0529
  711MOL0     H98078   6.289  -1.426  10.252  1.9496 -0.3545 -4.4030
  711MOL0     H98079   6.111  -1.418  10.268  1.6382 -3.4499  1.3302
  711MOL0     H98080   6.141  -1.948   9.985 -1.3218 -0.9847  0.6042
  711MOL0     H98081   6.103  -2.152  10.105 -0.5748  0.2150  0.6607
  711MOL0     H98082   6.092  -2.322  10.292  0.4499 -2.8116 -0.6214
  711MOL0     H98083   6.209  -2.346  10.158 -0.4580  1.1261 -1.3715
  711MOL0     H98084   6.113  -2.514  10.327 -0.2381  3.1375 -1.5566
  711MOL0     H98085   6.273  -2.546  10.266 -1.4250 -0.2156 -0.7786
  711MOL0     H98086   6.191  -2.423  10.521 -2.1185 -2.7246 -0.5020
  711MOL0     H98087   6.363  -2.409  10.476 -0.6013  2.0405  2.9983
  711MOL0     H98088   6.359  -2.662  10.468  0.1485 -0.6698  0.5859
  711MOL0     H98089   6.180  -2.656  10.492  0.7152  0.2171 -1.8245
  711MOL0     H98090   6.406  -2.586  10.700  0.3902 -3.0881  1.2090
  711MOL0     H98091   6.237  -2.542  10.721 -2.4281 -2.7630  0.6633
  711MOL0     H98092   6.194  -2.793  10.669  0.8916 -0.9291  0.0241
  711MOL0     H98093   6.224  -2.756  10.822 -0.2415 -1.3047 -0.4931
  711MOL0     H98094   6.489  -2.772  10.733 -1.2260  0.8716 -0.2591
  711MOL0     H98095   6.407  -2.859  10.593 -3.8965 -0.1869 -1.3847
  711MOL0     H98096   6.303  -3.009  10.769 -0.1275 -1.0369 -0.2828
  711MOL0     H98097   6.415  -2.930  10.885 -0.2495  0.9456 -0.4349
  711MOL0     H98098   6.441  -2.020  10.377  0.0676 -0.7829 -0.2946
  711MOL0     H98099   6.439  -1.801  10.245 -0.2960 -0.8510 -0.1135
  711MOL0     H98100   6.287  -1.603   9.817 -2.6982 -0.7737 -0.6411
  711MOL0     H98101   6.226  -1.385   9.681 -0.3813  1.7296 -0.1407
  711MOL0     H98102   6.005   0.035   8.990  1.1806 -0.0526  3.1570
  711MOL0     H98103   5.966   0.236   9.119  1.5010 -0.7376  1.0047
  711MOL0     H98104   5.854   0.605   9.144  2.3577 -0.9286 -0.8348
  711MOL0     H98105   5.739   0.772   9.279 -0.2893 -1.6873  1.3351
  711MOL0     H98106   5.737   0.848   9.510  0.1180 -2.9602  3.5916
  711MOL0     H98107   5.885   0.878   9.599 -0.8408  0.0560  0.1454
  711MOL0     H98108   5.796   1.126   9.616  1.0189 -0.1522  2.0367
  711MOL0     H98109   5.705   1.005   9.710 -0.7043 -1.1289 -1.4740
  711MOL0     H98110   5.658   1.100   9.427  2.4014  1.8538  2.2289
  711MOL0     H98111   5.545   0.980   9.498 -0.2908  0.5774 -3.2156
  711MOL0     H98112   5.564   1.263   9.610 -0.7991  0.3551  1.6054
  711MOL0     H98113   5.442   1.144   9.651  1.3523  2.5229  2.9636
  711MOL0     H98114   5.349   1.295   9.254  2.3091  0.1733 -0.9459
  711MOL0     H98115   6.097   0.970   9.358 -2.0540  0.7800  0.9453
  711MOL0     H98116   6.331   0.729   9.244 -0.2770 -1.3497 -2.0426
  711MOL0     H98117   6.323   0.836   9.117  2.3747  2.4402  0.7104
  711MOL0     H98118   6.317   0.914   9.263 -0.9234  2.0812 -2.5960
  712MOL0     O98119   2.727   5.856  10.075 -0.6808 -0.3644  0.1407
  712MOL0     C98120   2.638   5.876   9.990 -0.1839  0.3659  0.7162
  712MOL0     O98121   2.510   5.901  10.019 -0.1085 -0.4892  0.4331
  712MOL0     C98122   2.478   5.974  10.127  0.4569  0.4830 -0.7183
  712MOL0     C98123   2.344   5.963  10.158  0.4394  0.2917 -0.0279
  712MOL0     C98124   2.299   6.037  10.268  0.3228  0.4637  0.2235
  712MOL0     C98125   2.379   6.131  10.333 -0.4132  0.1350 -0.0311
  712MOL0     O98126   2.326   6.219  10.417  0.3623 -0.3635 -0.2379
  712MOL0     C98127   2.203   6.201  10.493 -0.8868  0.7156  0.7856
  712MOL0     C98128   2.172   6.306  10.591  0.5254  0.2475  0.3994
  712MOL0     C98129   2.287   6.332  10.694 -0.3245 -0.1742  0.6725
  712MOL0     C98130   2.383   6.457  10.667  0.4431  1.2515  0.5311
  712MOL0     C98131   2.474   6.476  10.801 -0.1219 -0.4449 -0.0858
  712MOL0     C98132   2.598   6.380  10.807 -0.5374 -0.1702  0.0245
  712MOL0     C98133   2.708   6.452  10.715  0.4508 -0.6333 -0.0993
  712MOL0     C98134   2.834   6.378  10.702 -1.1755  1.1867  0.0686
  712MOL0     N98135   2.940   6.441  10.619  0.1043  0.4801 -0.4382
  712MOL0     C98136   3.034   6.524  10.668  0.6645  0.3382 -0.1433
  712MOL0     C98137   3.115   6.552  10.557 -0.5255  0.0906 -0.5131
  712MOL0     C98138   3.243   6.634  10.553  0.2895 -0.1024  0.2314
  712MOL0     C98139   3.363   6.549  10.552 -0.6467 -0.2491  0.1361
  712MOL0     C98140   3.494   6.631  10.532 -0.9569 -0.0546  0.3181
  712MOL0     C98141   3.609   6.542  10.498  0.1384 -0.1778  0.3648
  712MOL0     O98142   3.598   6.445  10.603 -0.3054 -0.9251  0.1772
  712MOL0     C98143   3.686   6.338  10.590  0.1723 -0.2943 -0.1334
  712MOL0     C98144   3.633   6.213  10.556 -0.9271 -0.2460  0.5307
  712MOL0     C98145   3.725   6.108  10.529  0.3248 -0.1605  0.1653
  712MOL0     C98146   3.665   5.972  10.504  0.7343  0.6572 -1.1709
  712MOL0     C98147   3.869   6.124  10.527 -0.7727 -0.3034  0.5141
  712MOL0     C98148   3.975   6.007  10.511  0.4936  1.3044 -0.1426
  712MOL0     O98149   4.086   6.027  10.443 -0.2790 -0.2505  0.0141
  712MOL0     C98150   4.202   5.954  10.456  0.1585 -0.4211 -0.5840
  712MOL0     C98151   4.232   5.891  10.585  0.2084 -0.2526 -1.3496
  712MOL0     C98152   4.345   5.812  10.610 -0.3642  0.0176 -0.4406
  712MOL0     C98153   4.438   5.802  10.508  0.7890 -0.6520  0.0992
  712MOL0     O98154   4.554   5.730  10.506 -0.4609  0.2481 -0.3021
  712MOL0     C98155   4.585   5.652  10.621  0.2976 -0.1422 -1.3036
  712MOL0     C98156   4.632   5.733  10.744 -0.2792  0.4672  0.8032
  712MOL0     C98157   4.772   5.782  10.711 -1.1407 -1.2210 -0.1669
  712MOL0     C98158   4.781   5.930  10.663  0.6857  0.0348  0.7936
  712MOL0     C98159   4.892   5.939  10.558 -0.0403  0.1068  0.8935
  712MOL0     C98160   5.025   5.960  10.636  0.3767  0.8513  0.5708
  712MOL0     C98161   5.142   5.966  10.542  0.7227 -0.3394  0.3578
  712MOL0     C98162   5.273   5.947  10.617  0.3778 -0.7639 -0.7411
  712MOL0    Cl98163   5.400   5.874  10.520 -0.2524 -0.3447  0.1151
  712MOL0     C98164   4.418   5.871  10.381  0.5123  0.3631 -0.3643
  712MOL0     C98165   4.303   5.949  10.363  0.4845 -0.1472  0.7462
  712MOL0     O98166   3.944   5.894  10.562 -0.2998 -0.8282 -0.2444
  712MOL0     C98167   3.919   6.252  10.549  0.2722 -0.0715 -0.1555
  712MOL0     C98168   3.828   6.363  10.583 -0.2578 -0.6170 -0.5074
  712MOL0     N98169   3.070   6.474  10.447  0.4938 -0.6855 -0.3233
  712MOL0     N98170   2.970   6.407  10.489  0.5174  0.1579  0.2607
  712MOL0     C98171   2.501   6.147  10.291 -0.2910 -0.5312  0.3719
  712MOL0     C98172   2.557   6.075  10.180  0.0967 -0.0625 -1.0272
  712MOL0     C98173   2.671   5.858   9.845  0.1248  0.7327 -0.1082
  712MOL0     C98174   2.564   5.834   9.764 -0.6459 -0.0727  0.2958
  712MOL0     C98175   2.575   5.824   9.626 -0.2454 -0.0575 -0.2463
  712MOL0     C98176   2.696   5.844   9.564 -0.4503 -0.1990 -0.6675
  712MOL0     O98177   2.704   5.826   9.421  0.2166  0.4353 -0.2865
  712MOL0     C98178   2.815   5.890   9.356 -0.5354  0.4376 -0.1066
  712MOL0     C98179   2.905   5.772   9.316 -0.4874 -0.0617  0.7059
  712MOL0     C98180   2.849   5.686   9.199 -0.2133  1.2860 -0.2585
  712MOL0     C98181   2.940   5.557   9.184 -0.0388 -0.0116 -0.2920
  712MOL0     C98182   2.875   5.459   9.083  0.1005 -0.3441 -0.3114
  712MOL0     C98183   2.812   5.395   9.008  0.0286 -0.6663  0.0861
  712MOL0     C98184   2.806   5.863   9.654  0.1891  0.6181  0.3576
  712MOL0     C98185   2.800   5.878   9.790 -0.8055 -0.0315  1.2661
  712MOL0     C98186   2.930   5.907   9.858 -0.2515 -0.7521  0.4699
  712MOL0     H98187   2.282   5.891  10.106 -0.0026 -2.0420  3.3659
  712MOL0     H98188   2.192   6.035  10.286  0.2911 -0.5532 -0.0023
  712MOL0     H98189   2.199   6.105  10.546 -2.9557 -0.8946 -2.0094
  712MOL0     H98190   2.115   6.203  10.428  1.4552 -3.3650 -3.1416
  712MOL0     H98191   2.153   6.396  10.532  5.1425  0.3605 -1.3282
  712MOL0     H98192   2.085   6.276  10.649  2.3535  0.0530  3.2202
  712MOL0     H98193   2.228   6.353  10.784 -0.6907  3.0129 -0.1814
  712MOL0     H98194   2.340   6.237  10.705  0.2238  0.2555  1.9268
  712MOL0     H98195   2.447   6.432  10.581  1.0878 -1.9173  1.8164
  712MOL0     H98196   2.321   6.546  10.649 -0.9032  0.4268  1.0268
  712MOL0     H98197   2.408   6.450  10.883  1.7115  5.0767  3.6539
  712MOL0     H98198   2.493   6.582  10.820 -1.2801  0.1081 -1.7759
  712MOL0     H98199   2.630   6.367  10.910  0.1759  0.1051 -0.1574
  712MOL0     H98200   2.569   6.279  10.776  0.6333 -0.4261 -0.2817
  712MOL0     H98201   2.737   6.552  10.747  1.4534  0.8711 -4.8626
  712MOL0     H98202   2.655   6.473  10.621 -1.9142  0.7576  1.4667
  712MOL0     H98203   2.866   6.343  10.800 -3.5522 -0.1492  0.4609
  712MOL0     H98204   2.809   6.284  10.652  2.6930  0.0401  0.0145
  712MOL0     H98205   3.053   6.545  10.773  0.1840 -5.2754  1.3880
  712MOL0     H98206   3.247   6.703  10.637 -1.0410  0.6925 -0.3289
  712MOL0     H98207   3.243   6.687  10.457  0.0552 -1.1964 -0.3917
  712MOL0     H98208   3.376   6.501  10.649  0.8379 -2.5745 -1.1244
  712MOL0     H98209   3.353   6.479  10.468  0.0912  2.2570 -2.1792
  712MOL0     H98210   3.494   6.710  10.457 -0.3472  0.0277  0.3921
  712MOL0     H98211   3.526   6.681  10.624 -2.2726  1.2569  0.0893
  712MOL0     H98212   3.595   6.502  10.397 -0.3773  3.1720 -1.0228
  712MOL0     H98213   3.706   6.593  10.496 -0.5967  1.2949 -2.4397
  712MOL0     H98214   3.529   6.196  10.584 -1.1331  0.9222  0.5431
  712MOL0     H98215   3.556   5.963  10.494  0.5093 -3.1545  2.0608
  712MOL0     H98216   3.699   5.909  10.587  1.2573  1.3217 -0.8669
  712MOL0     H98217   3.695   5.926  10.410 -4.7034  0.5169 -3.2020
  712MOL0     H98218   4.174   5.897  10.676  1.8768 -4.3957  0.2161
  712MOL0     H98219   4.362   5.761  10.704  0.6838  0.7814 -0.2044
  712MOL0     H98220   4.500   5.588  10.649 -0.6280  1.7656  0.6037
  712MOL0     H98221   4.668   5.589  10.588  0.8927  0.4167 -0.9135
  712MOL0     H98222   4.559   5.804  10.786  0.2098  0.5939  1.4580
  712MOL0     H98223   4.644   5.664  10.828 -1.0331  2.4155  2.6265
  712MOL0     H98224   4.830   5.724  10.638 -3.3819 -1.6844 -1.7023
  712MOL0     H98225   4.824   5.785  10.807  0.5180  0.8062 -1.0543
  712MOL0     H98226   4.805   5.996  10.747  0.2112 -0.6925  1.5236
  712MOL0     H98227   4.687   5.961  10.615  0.7835 -0.6898  0.1270
  712MOL0     H98228   4.897   5.849  10.497  3.3108  1.2650 -0.7950
  712MOL0     H98229   4.880   6.022  10.487 -1.0249 -0.1795  0.7216
  712MOL0     H98230   5.049   5.876  10.702  2.6119 -1.2325 -2.5720
  712MOL0     H98231   5.011   6.051  10.695 -3.5354 -1.5312  3.8266
  712MOL0     H98232   5.143   6.067  10.501  2.2518 -0.6663 -0.4809
  712MOL0     H98233   5.136   5.888  10.466  3.5239 -1.1516  0.8232
  712MOL0     H98234   5.265   5.880  10.703  5.5076  0.8369  1.4216
  712MOL0     H98235   5.289   6.048  10.656  0.6495 -1.6485  1.5705
  712MOL0     H98236   4.501   5.872  10.311  2.5966  0.3525  1.9447
  712MOL0     H98237   4.290   5.992  10.264  1.9856 -0.0285  0.5856
  712MOL0     H98238   4.027   6.252  10.538  0.0599  1.0951 -3.0559
  712MOL0     H98239   3.874   6.459  10.598  1.7707 -1.3770 -1.4955
  712MOL0     H98240   2.568   6.225  10.327  0.8660 -1.7537  0.9861
  712MOL0     H98241   2.659   6.094  10.146 -0.1088  0.1928 -1.5003
  712MOL0     H98242   2.466   5.816   9.807 -0.9564 -2.3961 -1.2321
  712MOL0     H98243   2.475   5.815   9.583 -1.0465 -2.9597  1.8441
  712MOL0     H98244   2.790   5.943   9.264  1.3875  0.4462 -0.6678
  712MOL0     H98245   2.875   5.955   9.419 -0.4624 -0.0652  0.3557
  712MOL0     H98246   2.912   5.710   9.406 -2.2850 -1.1004  0.1937
  712MOL0     H98247   3.002   5.810   9.281 -0.9896  1.1306  0.5673
  712MOL0     H98248   2.754   5.644   9.237  0.9260 -0.0259  1.3305
  712MOL0     H98249   2.839   5.753   9.114  0.0400  1.1552 -0.3923
  712MOL0     H98250   2.939   5.508   9.282 -0.4464  3.0346  1.3490
  712MOL0     H98251   3.042   5.589   9.160  0.5310 -0.0205  1.9208
  712MOL0     H98252   2.771   5.344   8.923 -3.5309 -0.8506  1.7587
  712MOL0     H98253   2.903   5.866   9.607 -0.3424 -2.6584 -1.2650
  712MOL0     H98254   2.920   5.989   9.930  1.1509  3.0860 -3.3079
  712MOL0     H98255   2.978   5.819   9.903  0.3037 -1.5429 -1.5576
  712MOL0     H98256   2.995   5.961   9.788  1.8368 -0.9674  2.1430
  713MOL0     O98257   5.292   2.527   7.962  0.3500 -0.2850 -0.3166
  713MOL0     C98258   5.328   2.639   7.920  0.1216 -0.4199  0.2061
  713MOL0     O98259   5.288   2.761   7.969  0.4580  0.0134 -0.5864
  713MOL0     C98260   5.275   2.788   8.102 -0.0322 -0.2267  0.1265
  713MOL0     C98261   5.266   2.697   8.208  0.8684 -0.6387 -1.7155
  713MOL0     C98262   5.228   2.745   8.335 -0.4071 -0.2429  0.2899
  713MOL0     C98263   5.228   2.877   8.368  0.8891  0.1870  0.6182
  713MOL0     O98264   5.201   2.923   8.498  0.2677  0.4806  0.6186
  713MOL0     C98265   5.295   2.920   8.600 -1.4906  0.4206  0.0824
  713MOL0     C98266   5.231   2.925   8.743 -0.1200  0.1704  0.3095
  713MOL0     C98267   5.146   2.797   8.762  0.4924  0.6337 -0.3743
  713MOL0     C98268   5.003   2.801   8.688  0.3910  0.2751  0.3731
  713MOL0     C98269   4.913   2.673   8.725 -0.6604 -0.9140 -0.4581
  713MOL0     C98270   4.854   2.625   8.596 -0.4024 -0.2908  1.0952
  713MOL0     C98271   4.762   2.510   8.620  0.1920  0.3809 -0.8804
  713MOL0     C98272   4.822   2.376   8.601  0.6734  0.3434  0.2031
  713MOL0     N98273   4.729   2.278   8.669  0.4103 -0.6101 -0.5003
  713MOL0     C98274   4.633   2.198   8.624  0.5786  0.3036  0.5760
  713MOL0     C98275   4.603   2.106   8.725  0.3660  0.7315  0.8129
  713MOL0     C98276   4.503   1.987   8.726  0.4329 -0.4285 -0.1842
  713MOL0     C98277   4.578   1.850   8.691  0.0670 -0.7250  0.1044
  713MOL0     C98278   4.478   1.738   8.732  0.0556  0.6668  0.6230
  713MOL0     C98279   4.532   1.604   8.684  0.0959 -0.0786  0.6013
  713MOL0     O98280   4.668   1.587   8.690  0.0099 -0.5710  0.5112
  713MOL0     C98281   4.728   1.549   8.805 -0.0277 -1.0047 -0.4593
  713MOL0     C98282   4.862   1.505   8.791  0.4472 -0.6809 -0.1395
  713MOL0     C98283   4.941   1.473   8.903  0.2470  0.2627 -0.2097
  713MOL0     C98284   5.071   1.427   8.870  0.7466  0.2648  0.4724
  713MOL0     C98285   4.884   1.485   9.028 -0.3153 -0.0828 -0.7345
  713MOL0     C98286   4.951   1.457   9.157 -1.0130  0.4412 -0.2184
  713MOL0     O98287   4.879   1.405   9.263  0.6754 -0.7350 -0.1421
  713MOL0     C98288   4.937   1.397   9.383  0.4451 -0.9766 -0.1038
  713MOL0     C98289   4.971   1.272   9.424 -0.0641  0.0477 -0.8005
  713MOL0     C98290   5.026   1.247   9.549  0.7086  0.0446 -0.2641
  713MOL0     C98291   5.072   1.353   9.636 -0.4016 -0.4282 -1.0295
  713MOL0     O98292   5.127   1.338   9.757 -0.8458  0.1315 -0.3536
  713MOL0     C98293   5.135   1.193   9.807 -0.2337 -1.4665 -0.1686
  713MOL0     C98294   5.151   1.192   9.955  0.0570 -0.7226 -0.5265
  713MOL0     C98295   5.129   1.059  10.010  0.1658 -0.7753 -0.7482
  713MOL0     C98296   5.239   0.957   9.982 -0.2142 -0.1483 -0.3641
  713MOL0     C98297   5.214   0.830  10.067 -0.0304  0.0492 -0.0103
  713MOL0     C98298   5.113   0.738  10.011 -0.1587  0.0657  0.3344
  713MOL0     C98299   5.133   0.604  10.074  0.6039 -0.2027  0.4621
  713MOL0     C98300   5.038   0.492  10.023  0.3959  0.4843 -0.2261
  713MOL0    Cl98301   5.053   0.502   9.843 -0.0806 -0.2667  0.1625
  713MOL0     C98302   5.028   1.477   9.592 -0.2739  0.2230  0.1392
  713MOL0     C98303   4.953   1.499   9.476 -0.4185 -0.6484  0.3096
  713MOL0     O98304   5.074   1.472   9.152 -0.3059 -0.0664  0.1030
  713MOL0     C98305   4.748   1.528   9.038  0.3988 -0.4257  0.5985
  713MOL0     C98306   4.666   1.555   8.928  0.1898  0.6674  0.2506
  713MOL0     N98307   4.677   2.143   8.832  0.1029  0.0377 -0.1909
  713MOL0     N98308   4.755   2.243   8.804 -0.0698  0.3778  0.4891
  713MOL0     C98309   5.245   2.967   8.261 -0.7875 -0.3791 -0.1801
  713MOL0     C98310   5.266   2.922   8.135 -0.4470 -0.2867 -0.0690
  713MOL0     C98311   5.409   2.637   7.791  0.0399  0.4921 -0.2431
  713MOL0     C98312   5.388   2.735   7.687  1.5641  0.7136 -1.1398
  713MOL0     C98313   5.472   2.737   7.578 -0.7988 -0.1802 -0.2386
  713MOL0     C98314   5.575   2.641   7.557  0.2863  0.0471 -1.6338
  713MOL0     O98315   5.651   2.633   7.444 -0.0973  0.3303  0.5665
  713MOL0     C98316   5.658   2.746   7.355 -0.4076 -0.3234 -1.2368
  713MOL0     C98317   5.801   2.779   7.303  0.6796 -0.9061 -0.3861
  713MOL0     C98318   5.810   2.868   7.181  0.0554  0.1076  1.1638
  713MOL0     C98319   5.952   2.903   7.122 -0.1550  0.3753  0.4093
  713MOL0     C98320   5.957   3.028   7.050 -0.2956  0.0970  0.5777
  713MOL0     C98321   5.998   3.126   6.993 -0.3121  0.4738  0.0719
  713MOL0     C98322   5.590   2.545   7.655  0.2231  1.1405  0.2501
  713MOL0     C98323   5.511   2.537   7.770 -0.5178 -0.1657  0.2413
  713MOL0     C98324   5.549   2.431   7.858 -0.1971  0.0025 -0.8516
  713MOL0     H98325   5.275   2.589   8.210  3.5615 -0.5865 -4.5334
  713MOL0     H98326   5.225   2.678   8.420  2.2368  3.9903  4.0978
  713MOL0     H98327   5.346   3.015   8.580 -2.7406  0.9214 -0.9180
  713MOL0     H98328   5.356   2.829   8.595 -1.6576  0.3086  0.0952
  713MOL0     H98329   5.311   2.926   8.817 -1.1019 -2.2463  1.5262
  713MOL0     H98330   5.168   3.011   8.767 -2.4366 -1.0605 -1.0017
  713MOL0     H98331   5.206   2.710   8.734  0.7503  1.1537 -1.4584
  713MOL0     H98332   5.127   2.789   8.870 -2.2019  2.6344 -0.5905
  713MOL0     H98333   4.945   2.883   8.729 -1.7621 -0.6216 -0.7295
  713MOL0     H98334   5.016   2.819   8.581  1.4167  3.4447  0.9367
  713MOL0     H98335   4.847   2.692   8.811  1.6654  1.6477  0.9328
  713MOL0     H98336   4.967   2.580   8.747 -3.3719 -3.0977 -2.3117
  713MOL0     H98337   4.817   2.707   8.535  2.3223  0.0035 -0.3110
  713MOL0     H98338   4.939   2.585   8.540 -0.0070  0.7199  0.9612
  713MOL0     H98339   4.678   2.513   8.549 -1.4458 -3.2606  0.6305
  713MOL0     H98340   4.708   2.514   8.715  0.7459 -2.9807 -0.3108
  713MOL0     H98341   4.830   2.359   8.493 -0.0839  4.5144 -0.7107
  713MOL0     H98342   4.922   2.369   8.644  0.6850 -3.5315 -0.0873
  713MOL0     H98343   4.580   2.192   8.530  1.5668  0.4891  0.0004
  713MOL0     H98344   4.421   2.004   8.655  1.9385 -1.8603 -2.3742
  713MOL0     H98345   4.451   1.977   8.822  0.1930 -2.4136 -0.4707
  713MOL0     H98346   4.613   1.823   8.591  2.2696 -0.5826  0.7644
  713MOL0     H98347   4.668   1.849   8.754  0.2888 -1.1233 -0.2128
  713MOL0     H98348   4.480   1.748   8.841 -0.7967  2.6074  0.4991
  713MOL0     H98349   4.374   1.758   8.704 -1.0838 -1.7923  2.6497
  713MOL0     H98350   4.481   1.527   8.743  0.7192  0.2058  1.5455
  713MOL0     H98351   4.485   1.579   8.589 -2.3730 -2.5910  2.3212
  713MOL0     H98352   4.899   1.470   8.694  0.0942 -1.6600  0.0710
  713MOL0     H98353   5.104   1.351   8.942  0.9894 -0.1931 -0.1129
  713MOL0     H98354   5.135   1.514   8.885 -0.0945  0.9244  0.2877
  713MOL0     H98355   5.076   1.387   8.768 -2.0611  2.7246 -0.7800
  713MOL0     H98356   4.947   1.196   9.350  0.0056  0.5651 -1.3667
  713MOL0     H98357   5.065   1.148   9.567  0.1805  0.3166  2.8119
  713MOL0     H98358   5.034   1.154   9.788 -0.4383 -0.8206 -0.4241
  713MOL0     H98359   5.214   1.130   9.765 -0.5078 -0.0702 -2.9842
  713MOL0     H98360   5.254   1.217   9.983 -0.0517  0.4601 -1.1374
  713MOL0     H98361   5.086   1.258  10.014  3.1541  2.9672 -0.7966
  713MOL0     H98362   5.034   1.016   9.978  0.6231 -2.8325  0.4291
  713MOL0     H98363   5.113   1.066  10.118 -2.5760 -1.0676 -1.0526
  713MOL0     H98364   5.319   1.010  10.034  0.2791 -0.7306 -0.5300
  713MOL0     H98365   5.253   0.930   9.877  3.1770  0.7139 -0.2343
  713MOL0     H98366   5.312   0.784  10.078  0.0061 -0.1004 -0.8675
  713MOL0     H98367   5.191   0.852  10.172  0.7965  1.0400 -0.0170
  713MOL0     H98368   5.126   0.736   9.902 -1.2093 -0.1106  0.2009
  713MOL0     H98369   5.014   0.779  10.033 -1.2381 -0.7167 -2.5642
  713MOL0     H98370   5.131   0.587  10.183  1.2088 -3.2552  0.1119
  713MOL0     H98371   5.226   0.564  10.034 -1.5562 -5.1220 -0.3848
  713MOL0     H98372   4.937   0.492  10.064  0.4429  2.1268 -0.0378
  713MOL0     H98373   5.078   0.394  10.052  0.8674  0.2285 -1.6468
  713MOL0     H98374   5.057   1.555   9.662 -1.1758  1.2217 -0.5660
  713MOL0     H98375   4.922   1.600   9.449  0.2336 -0.3087  0.7908
  713MOL0     H98376   4.682   1.546   9.122 -4.9508 -0.9480 -2.9819
  713MOL0     H98377   4.565   1.584   8.954 -0.1713 -1.7937  1.9693
  713MOL0     H98378   5.249   3.074   8.275  1.4235 -0.4731  0.3257
  713MOL0     H98379   5.275   2.993   8.054 -0.8676 -0.6575 -0.4438
  713MOL0     H98380   5.297   2.793   7.685  0.5236 -0.8773 -1.9513
  713MOL0     H98381   5.459   2.800   7.490  1.1638 -2.2377 -2.1586
  713MOL0     H98382   5.589   2.725   7.273 -2.2656 -1.5847  0.5668
  713MOL0     H98383   5.624   2.843   7.393  1.9419 -0.2004  0.7956
  713MOL0     H98384   5.857   2.686   7.289  4.3523  0.9628  0.7148
  713MOL0     H98385   5.864   2.827   7.379 -2.0117  1.6158  0.4168
  713MOL0     H98386   5.746   2.815   7.111 -0.7406  1.7269  0.6246
  713MOL0     H98387   5.756   2.961   7.202 -0.0264  0.0250  1.3206
  713MOL0     H98388   5.997   2.826   7.059 -1.8420 -2.8223  2.8419
  713MOL0     H98389   6.017   2.922   7.209  1.6321 -1.9150 -0.3121
  713MOL0     H98390   6.031   3.207   6.931  1.6687 -1.0959 -1.0534
  713MOL0     H98391   5.655   2.460   7.637 -0.3351  0.9987 -1.1994
  713MOL0     H98392   5.477   2.349   7.865  1.6355 -1.6318 -0.1291
  713MOL0     H98393   5.646   2.387   7.834  0.2157 -0.5591  1.5929
  713MOL0     H98394   5.562   2.468   7.960 -2.5218  1.7446 -1.1061
  714MOL0     O98395   6.828   1.254   8.632 -0.4317  0.9384  0.5497
  714MOL0     C98396   6.835   1.132   8.642 -0.0187  0.6893  0.8068
  714MOL0     O98397   6.779   1.062   8.736  0.2969 -0.4902  1.1275
  714MOL0     C98398   6.674   1.113   8.809  0.2353  0.1786 -0.1340
  714MOL0     C98399   6.551   1.157   8.751  1.2234  0.0395 -0.2116
  714MOL0     C98400   6.440   1.203   8.825  0.9040 -0.6346 -0.5096
  714MOL0     C98401   6.468   1.221   8.964  0.4320 -0.2109  0.6724
  714MOL0     O98402   6.378   1.267   9.053  0.4483 -0.8817 -0.3568
  714MOL0     C98403   6.340   1.179   9.154  0.8951 -1.4429  0.3038
  714MOL0     C98404   6.197   1.200   9.197  0.1089  1.1600 -0.1654
  714MOL0     C98405   6.085   1.153   9.101  0.9342  0.2667  0.2289
  714MOL0     C98406   6.039   1.266   9.009 -0.8622 -0.7483  0.0833
  714MOL0     C98407   5.946   1.224   8.902  0.7730  0.3534  1.0087
  714MOL0     C98408   5.799   1.237   8.944  0.8058 -0.3432  0.4144
  714MOL0     C98409   5.718   1.191   8.831  1.1404 -0.3590 -0.3299
  714MOL0     C98410   5.563   1.229   8.871  0.3693 -0.2239 -0.7578
  714MOL0     N98411   5.471   1.195   8.759  0.6909 -0.4102 -0.3911
  714MOL0     C98412   5.375   1.283   8.711 -0.5972 -0.1099  0.2766
  714MOL0     C98413   5.331   1.238   8.588 -0.2263 -1.0275  0.3266
  714MOL0     C98414   5.233   1.334   8.510  0.2195 -0.2191 -0.1507
  714MOL0     C98415   5.126   1.262   8.432 -0.2242 -0.6790  0.3655
  714MOL0     C98416   5.022   1.200   8.531  0.2009  0.2781  0.5004
  714MOL0     C98417   4.886   1.152   8.471 -0.0477 -0.1914  0.4151
  714MOL0     O98418   4.830   1.260   8.392 -0.8711 -0.5573 -0.0396
  714MOL0     C98419   4.696   1.271   8.390 -0.1699 -0.5202 -0.6857
  714MOL0     C98420   4.611   1.167   8.404 -0.0919 -0.0214  0.6976
  714MOL0     C98421   4.479   1.181   8.354 -0.9034  0.0458  0.0844
  714MOL0     C98422   4.405   1.051   8.310 -0.4727  0.4438 -0.5669
  714MOL0     C98423   4.431   1.312   8.323 -0.2731  0.0495  0.5049
  714MOL0     C98424   4.284   1.333   8.289 -0.3701 -0.1084  0.8552
  714MOL0     O98425   4.262   1.441   8.202 -0.1566 -0.3204 -0.8286
  714MOL0     C98426   4.139   1.449   8.157 -1.0699  0.7564 -0.2715
  714MOL0     C98427   4.105   1.357   8.061  1.2199  0.3809  0.1621
  714MOL0     C98428   3.978   1.351   8.001  0.2850  0.4730 -0.1048
  714MOL0     C98429   3.888   1.461   8.016 -1.1583 -0.8914 -0.7427
  714MOL0     O98430   3.765   1.465   7.949 -0.6798  0.6207 -0.4959
  714MOL0     C98431   3.664   1.560   7.980 -0.2775 -1.1482 -0.0761
  714MOL0     C98432   3.549   1.547   7.877  0.2172  0.3687 -0.9214
  714MOL0     C98433   3.472   1.413   7.880 -0.1683  0.1150  0.4334
  714MOL0     C98434   3.333   1.426   7.813  0.3009  0.4985  0.6764
  714MOL0     C98435   3.264   1.293   7.827 -0.2208  0.4304 -0.2170
  714MOL0     C98436   3.149   1.290   7.738  0.1706 -0.0309 -0.1388
  714MOL0     C98437   3.050   1.181   7.768  0.1578  0.0254 -0.9206
  714MOL0     C98438   2.985   1.125   7.638 -0.7398 -0.4014 -0.3655
  714MOL0    Cl98439   2.912   0.957   7.675  0.2254  0.1838 -0.4209
  714MOL0     C98440   3.925   1.562   8.108 -0.6229 -0.8598  0.8588
  714MOL0     C98441   4.055   1.557   8.180  0.0568  0.6482  0.6152
  714MOL0     O98442   4.200   1.269   8.351  0.2736 -0.1156 -0.2220
  714MOL0     C98443   4.514   1.426   8.330 -0.0645 -0.7961  0.6315
  714MOL0     C98444   4.652   1.404   8.356 -0.1069  0.4150  0.3659
  714MOL0     N98445   5.381   1.109   8.578  0.0033 -0.3666 -0.4063
  714MOL0     N98446   5.466   1.085   8.673  0.1858  0.0960 -0.7508
  714MOL0     C98447   6.594   1.185   9.019 -0.0182  0.1729  0.1192
  714MOL0     C98448   6.687   1.118   8.945 -0.4176 -0.6635 -0.1221
  714MOL0     C98449   6.922   1.063   8.538  0.3535  0.1726  0.0738
  714MOL0     C98450   6.959   0.923   8.553 -0.0025  0.4596  0.2533
  714MOL0     C98451   7.037   0.852   8.463 -0.8683 -0.3089  0.0023
  714MOL0     C98452   7.099   0.925   8.358 -0.7841 -0.2938  1.6210
  714MOL0     O98453   7.187   0.877   8.258  0.1118  0.3910 -0.1807
  714MOL0     C98454   7.253   0.760   8.301 -0.0637  0.8039  0.6434
  714MOL0     C98455   7.342   0.707   8.189 -0.2257 -0.7119  0.5831
  714MOL0     C98456   7.381   0.559   8.219  0.2767 -0.8723  0.1180
  714MOL0     C98457   7.464   0.502   8.103 -0.9387  0.2520  0.2277
  714MOL0     C98458   7.454   0.358   8.087  0.0098  1.1288  0.0941
  714MOL0     C98459   7.425   0.245   8.052 -0.8891  0.0675  0.3315
  714MOL0     C98460   7.049   1.050   8.329 -1.0011 -0.2241  0.4254
  714MOL0     C98461   6.960   1.120   8.413 -0.1068 -1.1061 -0.3209
  714MOL0     C98462   6.926   1.268   8.359  1.0505 -0.3306  0.6068
  714MOL0     H98463   6.534   1.168   8.645 -0.2051  0.9274  0.0983
  714MOL0     H98464   6.352   1.252   8.785  0.6052 -0.4271  0.3737
  714MOL0     H98465   6.404   1.185   9.242 -1.8545  2.4163  2.3855
  714MOL0     H98466   6.346   1.077   9.115 -1.1778 -1.9424  1.1699
  714MOL0     H98467   6.186   1.144   9.290 -0.8642  2.1106  0.3197
  714MOL0     H98468   6.180   1.305   9.220 -2.6231  1.4551 -2.8816
  714MOL0     H98469   6.128   1.078   9.034  0.2390  0.4033 -0.3770
  714MOL0     H98470   6.003   1.115   9.162  2.6060 -2.6513  0.8685
  714MOL0     H98471   5.997   1.351   9.062  2.0635  1.5073 -0.9374
  714MOL0     H98472   6.127   1.305   8.956 -0.8946  3.7042  2.7983
  714MOL0     H98473   5.976   1.123   8.874 -0.9355  0.4454 -1.5314
  714MOL0     H98474   5.962   1.277   8.807 -1.7369 -3.9805 -2.2000
  714MOL0     H98475   5.787   1.175   9.034  0.1183  3.2559  3.0440
  714MOL0     H98476   5.773   1.340   8.972 -2.0059 -1.6147  3.1527
  714MOL0     H98477   5.722   1.081   8.831  0.2688 -0.3966 -0.4094
  714MOL0     H98478   5.756   1.223   8.734  0.9196  0.4767 -0.1478
  714MOL0     H98479   5.542   1.166   8.958  0.1728  0.4767 -0.2913
  714MOL0     H98480   5.549   1.336   8.885 -1.2652 -0.4346 -0.5717
  714MOL0     H98481   5.361   1.386   8.742  0.2638  0.6382 -1.6482
  714MOL0     H98482   5.303   1.379   8.439  0.1068  1.4065  0.7362
  714MOL0     H98483   5.185   1.398   8.584  0.2426 -1.9028  1.3972
  714MOL0     H98484   5.087   1.338   8.364  3.6150  0.7954 -0.4291
  714MOL0     H98485   5.177   1.183   8.376  1.1569  0.0507  0.5574
  714MOL0     H98486   5.054   1.110   8.583 -1.9092 -2.1846 -2.1093
  714MOL0     H98487   4.999   1.270   8.612 -3.2464  1.8815 -1.6382
  714MOL0     H98488   4.893   1.068   8.402 -0.9906  0.5463 -0.6216
  714MOL0     H98489   4.816   1.121   8.549 -0.9169 -0.8123 -0.5921
  714MOL0     H98490   4.650   1.066   8.412  1.2186  0.2540 -1.3993
  714MOL0     H98491   4.345   1.076   8.222  0.9629  4.5079 -0.6086
  714MOL0     H98492   4.337   1.013   8.387 -0.5209 -0.3797 -1.0023
  714MOL0     H98493   4.472   0.967   8.289 -1.6384 -1.1589  1.7025
  714MOL0     H98494   4.171   1.274   8.039 -1.8295 -2.4019  0.7686
  714MOL0     H98495   3.943   1.271   7.936 -0.2202  0.6891 -0.0966
  714MOL0     H98496   3.627   1.526   8.077 -0.5234  0.1279  0.2973
  714MOL0     H98497   3.708   1.660   7.975 -0.2178 -1.2300 -2.6038
  714MOL0     H98498   3.474   1.619   7.913 -0.3571 -1.4182  1.7220
  714MOL0     H98499   3.578   1.580   7.777 -0.4240  0.2618 -1.1490
  714MOL0     H98500   3.442   1.389   7.982  0.3744  0.5944  0.7092
  714MOL0     H98501   3.536   1.336   7.837 -2.0840 -1.0924 -0.3782
  714MOL0     H98502   3.342   1.445   7.706 -1.8591  0.5397  0.4647
  714MOL0     H98503   3.265   1.499   7.856  1.2030  2.0644 -0.4600
  714MOL0     H98504   3.333   1.210   7.812 -0.5174  0.3928 -1.4231
  714MOL0     H98505   3.227   1.276   7.929 -0.8254 -2.2266 -0.8322
  714MOL0     H98506   3.184   1.275   7.635  2.1476 -3.6148  0.8931
  714MOL0     H98507   3.094   1.384   7.743  3.8930  2.2873  1.6984
  714MOL0     H98508   2.964   1.205   7.830  0.5607 -0.9384  0.0509
  714MOL0     H98509   3.098   1.098   7.822  0.5776  1.1507  0.4782
  714MOL0     H98510   3.070   1.108   7.571  0.1842  4.2500 -0.7470
  714MOL0     H98511   2.907   1.184   7.590 -1.9898 -2.3627 -0.8470
  714MOL0     H98512   3.859   1.647   8.117  1.4679  0.7230  2.2249
  714MOL0     H98513   4.082   1.633   8.252 -1.9072 -0.2315  2.3918
  714MOL0     H98514   4.480   1.527   8.309  3.1302  0.0526 -1.0279
  714MOL0     H98515   4.735   1.473   8.353  1.1306 -1.0252  0.0664
  714MOL0     H98516   6.618   1.203   9.124  0.1070 -3.8324  0.9354
  714MOL0     H98517   6.767   1.075   9.006 -1.7934 -2.2272  0.6858
  714MOL0     H98518   6.906   0.871   8.633 -0.4474 -1.0095 -0.9547
  714MOL0     H98519   7.056   0.747   8.481 -2.2411 -1.0395 -2.3176
  714MOL0     H98520   7.307   0.779   8.394 -0.3818  2.1740  0.5621
  714MOL0     H98521   7.190   0.675   8.330 -0.6585  0.7120 -0.8149
  714MOL0     H98522   7.432   0.767   8.208 -0.3567 -1.5058  4.5981
  714MOL0     H98523   7.301   0.725   8.089 -2.3139  0.0360  1.5137
  714MOL0     H98524   7.422   0.536   8.318  0.1688 -3.5789 -0.4048
  714MOL0     H98525   7.288   0.505   8.204  0.1660 -0.8327  0.6381
  714MOL0     H98526   7.569   0.528   8.120 -1.3554  0.9178  1.9329
  714MOL0     H98527   7.434   0.546   8.007  1.4185  1.0926 -0.2016
  714MOL0     H98528   7.422   0.148   8.006  3.8170  0.4590 -1.3601
  714MOL0     H98529   7.062   1.104   8.235  0.1127 -0.4017  0.4626
  714MOL0     H98530   6.998   1.314   8.292 -2.2333  4.6297 -0.0031
  714MOL0     H98531   6.842   1.264   8.289  1.6230 -0.8170 -0.0553
  714MOL0     H98532   6.908   1.343   8.437  0.6751  0.9157 -0.6453
  715MOL0     O98533   5.626   3.248  11.577  0.2423 -0.2791 -0.4307
  715MOL0     C98534   5.726   3.296  11.631 -0.2190  0.0251 -1.3876
  715MOL0     O98535   5.754   3.285  11.765  0.5391  0.4415 -0.1411
  715MOL0     C98536   5.686   3.214  11.868 -0.1544 -0.3823 -0.6263
  715MOL0     C98537   5.596   3.112  11.844 -1.1819 -0.0350 -0.8791
  715MOL0     C98538   5.542   3.035  11.943 -0.1035 -0.0191 -0.4709
  715MOL0     C98539   5.580   3.050  12.076 -0.0035  0.0856 -0.7547
  715MOL0     O98540   5.519   2.972  12.166 -0.1499 -0.2152  0.9520
  715MOL0     C98541   5.598   2.913  12.265  0.3716 -0.1393  0.5831
  715MOL0     C98542   5.515   2.835  12.366 -0.0566 -0.2861 -0.1783
  715MOL0     C98543   5.488   2.695  12.320 -0.9575  0.3996 -0.2473
  715MOL0     C98544   5.422   2.658  12.189 -0.1039  0.1849 -0.5141
  715MOL0     C98545   5.281   2.723  12.191  0.2550  0.0363  0.1172
  715MOL0     C98546   5.169   2.656  12.277  0.1645 -0.4852  0.8736
  715MOL0     C98547   5.144   2.500  12.234  0.4924 -1.1657  0.4690
  715MOL0     C98548   5.030   2.430  12.317  0.6002  0.6801  0.0865
  715MOL0     N98549   5.068   2.377  12.452 -0.5483  0.0132  0.0610
  715MOL0     C98550   5.030   2.421  12.579 -0.3959 -0.0503 -0.5054
  715MOL0     C98551   5.091   2.344  12.673 -0.3064 -0.0670 -0.6031
  715MOL0     C98552   5.086   2.343  12.822 -0.0685 -0.4498 -0.0264
  715MOL0     C98553   4.996   2.240  12.881 -0.0453  0.0997  0.2202
  715MOL0     C98554   5.006   2.229  13.029 -0.4108  0.0211  0.6210
  715MOL0     C98555   4.899   2.167  13.106  0.0792 -0.3638  0.4954
  715MOL0     O98556   4.901   2.207  13.242  0.3068  0.0427  0.0044
  715MOL0     C98557   4.792   2.175  13.313 -0.2867  0.3917  0.4125
  715MOL0     C98558   4.794   2.061  13.397  0.3067  0.2871 -0.4843
  715MOL0     C98559   4.683   2.031  13.474  0.4763 -0.1215  0.8185
  715MOL0     C98560   4.689   1.908  13.557  0.5394  0.2411 -0.3510
  715MOL0     C98561   4.571   2.118  13.469 -0.0106 -0.0011  0.9502
  715MOL0     C98562   4.451   2.107  13.569 -0.7280 -0.1010  0.0084
  715MOL0     O98563   4.362   2.204  13.557 -0.2031 -0.6486  0.0674
  715MOL0     C98564   4.268   2.219  13.655 -0.3203  0.2235 -0.1801
  715MOL0     C98565   4.292   2.258  13.789 -0.3589 -0.0287 -0.7058
  715MOL0     C98566   4.173   2.294  13.866 -0.5125  0.5543  0.1799
  715MOL0     C98567   4.047   2.291  13.809 -0.1465  0.4015  0.1638
  715MOL0     O98568   3.932   2.327  13.871 -0.6339 -0.2933 -0.0273
  715MOL0     C98569   3.931   2.338  14.014  0.5004 -0.2581 -0.5940
  715MOL0     C98570   3.943   2.493  14.052  0.6250 -0.1282 -0.2608
  715MOL0     C98571   3.906   2.531  14.198  0.2514  0.3807  0.6880
  715MOL0     C98572   3.768   2.484  14.238  0.6733  0.7258 -0.3590
  715MOL0     C98573   3.749   2.554  14.378  0.5698 -0.4330 -0.4991
  715MOL0     C98574   3.629   2.642  14.414 -0.2785 -0.3136 -0.1400
  715MOL0     C98575   3.616   2.778  14.343 -0.5193 -0.0789  0.4395
  715MOL0     C98576   3.493   2.862  14.397  0.2782 -0.0760 -0.2380
  715MOL0    Cl98577   3.480   2.999  14.293 -0.4279 -0.2719  0.3164
  715MOL0     C98578   4.030   2.236  13.683 -0.5469  0.1382 -0.6388
  715MOL0     C98579   4.134   2.207  13.605 -0.1714 -0.4384 -0.5859
  715MOL0     O98580   4.440   2.013  13.647  1.8093  0.4821 -0.5742
  715MOL0     C98581   4.564   2.213  13.373 -0.9452  0.6775 -0.0344
  715MOL0     C98582   4.676   2.248  13.296 -0.5018  0.6230  0.2662
  715MOL0     N98583   5.177   2.268  12.593  0.5335  0.6995  0.0458
  715MOL0     N98584   5.165   2.293  12.466 -0.5947  1.2918  0.1060
  715MOL0     C98585   5.669   3.150  12.108 -0.3986 -0.5965  0.5098
  715MOL0     C98586   5.717   3.240  12.007 -0.2468 -0.0174  0.6153
  715MOL0     C98587   5.833   3.372  11.557  0.9682 -0.0333  0.4312
  715MOL0     C98588   5.923   3.451  11.632 -0.0658 -0.0441  0.1128
  715MOL0     C98589   6.019   3.515  11.560  0.1154 -0.4132 -0.1466
  715MOL0     C98590   6.031   3.512  11.420  0.4737 -0.7525 -0.1144
  715MOL0     O98591   6.145   3.566  11.359 -0.5770 -0.0456 -0.1808
  715MOL0     C98592   6.198   3.689  11.418 -0.6608  0.1350  0.8512
  715MOL0     C98593   6.262   3.798  11.338  1.0748 -0.1601  0.0507
  715MOL0     C98594   6.192   3.858  11.219 -0.0397 -0.1664  0.4866
  715MOL0     C98595   6.270   3.985  11.157 -0.4287  0.1625  0.5546
  715MOL0     C98596   6.380   3.936  11.066  0.2769  1.2655 -0.2233
  715MOL0     C98597   6.461   3.880  10.998  0.7622  0.3976 -0.6874
  715MOL0     C98598   5.945   3.428  11.346 -1.0011  0.6330  0.0342
  715MOL0     C98599   5.850   3.362  11.416 -0.1174  0.4452 -0.0911
  715MOL0     C98600   5.764   3.268  11.326 -0.1709 -0.5085 -0.1284
  715MOL0     H98601   5.567   3.087  11.743 -0.4898  2.0062 -1.6410
  715MOL0     H98602   5.472   2.954  11.922  0.9936 -0.5312 -2.4034
  715MOL0     H98603   5.649   2.994  12.319  1.7413  1.8611 -3.3599
  715MOL0     H98604   5.665   2.835  12.229 -0.2573 -0.0068 -0.9529
  715MOL0     H98605   5.567   2.841  12.462  2.3233  0.7626 -1.4544
  715MOL0     H98606   5.419   2.886  12.379  0.4249  0.6519 -0.2395
  715MOL0     H98607   5.590   2.655  12.324  0.2998  3.1846 -1.7208
  715MOL0     H98608   5.437   2.660  12.410 -0.6063  0.0062 -0.1982
  715MOL0     H98609   5.487   2.706  12.116  3.6746 -0.7825  1.9407
  715MOL0     H98610   5.409   2.551  12.173 -5.1026  0.8100 -2.5770
  715MOL0     H98611   5.238   2.721  12.090  1.6221  0.4263 -0.4878
  715MOL0     H98612   5.292   2.831  12.206  1.0254  0.1435 -1.1274
  715MOL0     H98613   5.190   2.664  12.384 -3.0240  4.8537  1.5098
  715MOL0     H98614   5.072   2.704  12.263  0.1973 -0.1389  1.7270
  715MOL0     H98615   5.244   2.461  12.257  1.0067  0.4257  1.0510
  715MOL0     H98616   5.115   2.501  12.128 -0.0641  1.6010  0.5791
  715MOL0     H98617   4.949   2.502  12.335  0.6826  0.8857 -0.3385
  715MOL0     H98618   4.987   2.352  12.254 -1.5940  2.8091 -1.2458
  715MOL0     H98619   4.964   2.505  12.591  1.1141  1.3856 -1.6623
  715MOL0     H98620   5.064   2.447  12.848 -2.9394 -0.7761 -0.8561
  715MOL0     H98621   5.180   2.313  12.871 -1.1178 -0.7713  1.9088
  715MOL0     H98622   4.898   2.279  12.851  0.2997  0.2729 -0.7085
  715MOL0     H98623   5.029   2.147  12.835  0.1131  0.0863  0.3599
  715MOL0     H98624   5.093   2.164  13.043 -0.4435 -0.0894  0.3232
  715MOL0     H98625   5.017   2.320  13.089  0.3883 -1.4231  2.8353
  715MOL0     H98626   4.806   2.177  13.049  0.5312 -1.0026 -0.3747
  715MOL0     H98627   4.913   2.059  13.109  0.4675 -0.3391 -0.1963
  715MOL0     H98628   4.884   2.000  13.403 -0.8717 -1.3863  1.4607
  715MOL0     H98629   4.769   1.839  13.528 -0.4134 -1.1615  0.2450
  715MOL0     H98630   4.598   1.848  13.566  0.5612  0.1126 -0.9948
  715MOL0     H98631   4.716   1.960  13.650  0.6366  1.5801 -1.0971
  715MOL0     H98632   4.395   2.267  13.820 -0.3605 -0.6307 -0.5115
  715MOL0     H98633   4.195   2.308  13.971 -0.8710  2.9734 -0.0193
  715MOL0     H98634   3.832   2.298  14.041  0.4170 -0.2242 -0.8501
  715MOL0     H98635   4.003   2.271  14.063  0.1179  1.0942  1.9952
  715MOL0     H98636   4.042   2.536  14.035  0.8775 -0.8146 -0.5490
  715MOL0     H98637   3.875   2.551  13.988  2.2989  0.1563 -1.8544
  715MOL0     H98638   3.914   2.637  14.224 -2.1939  0.1117  2.9753
  715MOL0     H98639   3.968   2.468  14.263 -0.2029 -1.0609 -0.2432
  715MOL0     H98640   3.760   2.375  14.246  2.4971  0.5203 -0.9595
  715MOL0     H98641   3.693   2.525  14.169  1.6534  1.8905 -0.7764
  715MOL0     H98642   3.758   2.474  14.451  2.2667  0.8628  0.7838
  715MOL0     H98643   3.834   2.610  14.417  0.6054 -0.3316 -0.7169
  715MOL0     H98644   3.617   2.655  14.522  1.7615 -1.3720  0.2593
  715MOL0     H98645   3.541   2.587  14.380 -1.9357  1.5479  0.9197
  715MOL0     H98646   3.592   2.750  14.240  1.6431 -0.7748  0.0818
  715MOL0     H98647   3.712   2.830  14.342 -0.1392 -0.5615  3.3406
  715MOL0     H98648   3.505   2.901  14.498 -5.4285  0.4165  0.5946
  715MOL0     H98649   3.410   2.791  14.392  1.7313 -1.9099  0.2284
  715MOL0     H98650   3.935   2.220  13.632 -1.5621 -0.5840  1.3769
  715MOL0     H98651   4.118   2.163  13.507  0.2774 -0.5748 -0.6009
  715MOL0     H98652   4.479   2.278  13.358  1.1352  3.3181 -1.0642
  715MOL0     H98653   4.674   2.338  13.234  2.1743  1.7415  1.6210
  715MOL0     H98654   5.694   3.166  12.212 -0.9515 -0.2904  0.6019
  715MOL0     H98655   5.795   3.308  12.038  0.2544 -1.4309  2.5851
  715MOL0     H98656   5.909   3.464  11.739 -0.7945  0.4466 -0.0395
  715MOL0     H98657   6.092   3.572  11.616  0.2921  1.6249 -2.2646
  715MOL0     H98658   6.114   3.742  11.464 -0.3373 -1.2005  3.1200
  715MOL0     H98659   6.268   3.669  11.500 -1.5748 -1.8903  1.2115
  715MOL0     H98660   6.359   3.772  11.295  1.4094  3.9617 -2.1199
  715MOL0     H98661   6.284   3.881  11.406  1.3696  1.5522 -2.0574
  715MOL0     H98662   6.152   3.777  11.156 -1.1392  1.4917 -1.0734
  715MOL0     H98663   6.105   3.912  11.257  0.7794  3.5252 -2.2987
  715MOL0     H98664   6.311   4.035  11.246 -0.9347  0.7224  0.4765
  715MOL0     H98665   6.196   4.049  11.108 -0.4805 -0.7564 -0.5953
  715MOL0     H98666   6.537   3.831  10.941  0.3638 -1.0331 -0.0486
  715MOL0     H98667   5.957   3.415  11.239 -3.5465  0.6469 -0.3155
  715MOL0     H98668   5.804   3.272  11.224  3.8521  0.9054  1.3511
  715MOL0     H98669   5.770   3.162  11.353 -1.3218 -0.4389  0.4818
  715MOL0     H98670   5.656   3.286  11.331 -0.4523 -2.3334  1.6241
  716MOL0     O98671   3.826   0.452   7.664 -0.1186  0.0308  0.4534
  716MOL0     C98672   3.754   0.398   7.746  1.1358 -0.3096 -0.0807
  716MOL0     O98673   3.760   0.267   7.772 -1.2767 -0.1368 -0.2315
  716MOL0     C98674   3.773   0.185   7.664  1.0621 -1.1265  0.3283
  716MOL0     C98675   3.821   0.058   7.684  0.6685  0.4651 -1.4804
  716MOL0     C98676   3.846  -0.033   7.589  1.1074 -0.2758  0.6877
  716MOL0     C98677   3.794  -0.004   7.460  0.2202  0.2999  1.0652
  716MOL0     O98678   3.811  -0.105   7.361  0.1418 -0.0604 -0.0806
  716MOL0     C98679   3.773  -0.070   7.222  0.1293 -0.6106  0.0845
  716MOL0     C98680   3.818  -0.186   7.126 -0.2263 -0.7793 -0.3464
  716MOL0     C98681   3.965  -0.223   7.149  0.3581  0.1058  0.1812
  716MOL0     C98682   4.057  -0.100   7.147  0.4646 -0.1967  0.4436
  716MOL0     C98683   4.204  -0.138   7.112  0.3504  0.0607  0.0257
  716MOL0     C98684   4.293  -0.020   7.160 -0.0883  0.0296 -0.1415
  716MOL0     C98685   4.434  -0.049   7.115  0.2761 -0.3865  0.4676
  716MOL0     C98686   4.526   0.072   7.159  0.3583  0.0557 -0.3362
  716MOL0     N98687   4.655   0.043   7.108  0.7830  0.1798 -0.0450
  716MOL0     C98688   4.759  -0.004   7.187  0.0842 -1.1957 -0.2745
  716MOL0     C98689   4.865  -0.028   7.101  0.6065  0.8727  0.9328
  716MOL0     C98690   5.009  -0.050   7.149 -0.9946  0.3785  0.7083
  716MOL0     C98691   5.046  -0.198   7.196 -0.6383 -0.9768  0.1349
  716MOL0     C98692   5.181  -0.218   7.274 -0.4565 -0.4904 -0.4228
  716MOL0     C98693   5.214  -0.368   7.311  0.1556 -0.3602  0.2769
  716MOL0     O98694   5.099  -0.427   7.375  0.1389 -0.5939 -0.8335
  716MOL0     C98695   5.090  -0.430   7.516  0.5522 -0.3095  0.6886
  716MOL0     C98696   5.175  -0.375   7.615 -0.2167  0.4297  0.0055
  716MOL0     C98697   5.146  -0.391   7.753  0.4903 -0.1254  0.7169
  716MOL0     C98698   5.247  -0.334   7.853  0.3198 -0.0145  0.4069
  716MOL0     C98699   5.028  -0.466   7.790 -0.1372  0.3948  0.0454
  716MOL0     C98700   4.995  -0.487   7.934  0.4697  0.4464  0.5326
  716MOL0     O98701   4.955  -0.611   7.979 -0.1753  0.2694  0.0797
  716MOL0     C98702   4.942  -0.628   8.115 -1.1996  0.1349  0.0028
  716MOL0     C98703   4.832  -0.686   8.164 -0.4730 -0.9828  1.6921
  716MOL0     C98704   4.812  -0.693   8.305  0.4969  0.5714  0.2534
  716MOL0     C98705   4.900  -0.637   8.401  0.1494  1.3348 -0.2012
  716MOL0     O98706   4.871  -0.622   8.537  0.8194 -0.2637 -0.6554
  716MOL0     C98707   4.733  -0.625   8.582 -0.6633 -0.0263  0.3522
  716MOL0     C98708   4.705  -0.549   8.713 -0.7830  0.4011 -1.3293
  716MOL0     C98709   4.574  -0.612   8.778 -0.3433 -0.1431  0.5359
  716MOL0     C98710   4.449  -0.570   8.699  0.4393 -0.3477  0.0543
  716MOL0     C98711   4.321  -0.642   8.733  0.1998  0.6232  0.2391
  716MOL0     C98712   4.211  -0.591   8.642  0.1735 -0.3622  0.0141
  716MOL0     C98713   4.084  -0.678   8.644 -0.2802 -0.3538 -0.8692
  716MOL0     C98714   3.962  -0.586   8.617  0.8060  0.1865  0.5318
  716MOL0    Cl98715   3.816  -0.673   8.661 -0.0401  0.2424 -0.5189
  716MOL0     C98716   5.014  -0.583   8.347 -0.7034 -0.3692  0.1389
  716MOL0     C98717   5.035  -0.578   8.206 -0.0203 -1.2405 -0.6701
  716MOL0     O98718   5.009  -0.391   8.008 -0.5860 -0.0039  0.3401
  716MOL0     C98719   4.939  -0.514   7.692 -0.4884  0.5411  0.6216
  716MOL0     C98720   4.971  -0.500   7.555 -0.4175 -0.8905  0.5274
  716MOL0     N98721   4.825   0.015   6.972  0.8957  0.5472 -0.8307
  716MOL0     N98722   4.699   0.039   6.979  0.8886 -0.2646 -0.8025
  716MOL0     C98723   3.728   0.111   7.440  0.3614 -0.9911 -0.1069
  716MOL0     C98724   3.729   0.213   7.537 -0.6599  0.1257 -0.0861
  716MOL0     C98725   3.668   0.469   7.850 -0.1566 -0.2932  0.8272
  716MOL0     C98726   3.583   0.397   7.942 -0.4722  0.6634  0.8195
  716MOL0     C98727   3.530   0.451   8.056 -0.0371 -1.0954  0.0103
  716MOL0     C98728   3.545   0.593   8.067  0.3528  0.4548 -0.5913
  716MOL0     O98729   3.472   0.657   8.168  0.3559  0.6848 -0.5474
  716MOL0     C98730   3.547   0.700   8.286  1.8094  0.0429 -0.2623
  716MOL0     C98731   3.447   0.686   8.406 -0.3042  0.3375  0.2660
  716MOL0     C98732   3.432   0.546   8.463  0.1203  0.1007  0.4288
  716MOL0     C98733   3.549   0.508   8.540  0.7485 -0.2783  1.0569
  716MOL0     C98734   3.503   0.395   8.610  0.4827  0.2072 -0.2186
  716MOL0     C98735   3.475   0.308   8.692  0.1708 -0.2872 -0.0604
  716MOL0     C98736   3.605   0.671   7.977 -0.9866  0.1713  0.8882
  716MOL0     C98737   3.677   0.609   7.869  0.9159  0.6167  0.3663
  716MOL0     C98738   3.751   0.709   7.779 -0.4740 -0.1148  1.5968
  716MOL0     H98739   3.850   0.032   7.785 -1.7057 -0.1470 -0.8924
  716MOL0     H98740   3.907  -0.119   7.616  0.4836 -0.5573  1.2160
  716MOL0     H98741   3.815   0.030   7.207 -0.1971 -0.7536 -2.0426
  716MOL0     H98742   3.664  -0.071   7.209  0.3966 -1.9597 -2.9316
  716MOL0     H98743   3.750  -0.270   7.139 -2.3643  0.9667  0.3345
  716MOL0     H98744   3.805  -0.158   7.021  0.2145 -0.8291 -0.4168
  716MOL0     H98745   3.964  -0.275   7.245  1.6016 -0.8472 -0.2892
  716MOL0     H98746   3.989  -0.292   7.068  0.3291 -0.1665  0.4009
  716MOL0     H98747   4.032  -0.013   7.085 -1.6128 -1.4312 -0.5493
  716MOL0     H98748   4.054  -0.070   7.252 -1.3407 -3.0982  1.3240
  716MOL0     H98749   4.206  -0.161   7.005  0.9514 -0.0947  0.0688
  716MOL0     H98750   4.239  -0.226   7.166  1.1709  1.5826  2.1094
  716MOL0     H98751   4.269   0.077   7.116  1.7113  0.7340  0.3184
  716MOL0     H98752   4.286  -0.025   7.269 -0.8496 -5.3158 -0.1505
  716MOL0     H98753   4.443  -0.072   7.008  3.5602 -0.3425  0.6367
  716MOL0     H98754   4.472  -0.140   7.162 -2.3946 -1.9512 -0.2187
  716MOL0     H98755   4.481   0.164   7.120 -1.4056  0.1968  1.8237
  716MOL0     H98756   4.525   0.078   7.268 -0.8106 -1.9039 -0.2012
  716MOL0     H98757   4.772   0.000   7.295  4.6304 -1.6491 -0.6091
  716MOL0     H98758   5.029   0.017   7.233  0.3382  0.0520  0.6762
  716MOL0     H98759   5.092  -0.035   7.079  2.0681 -4.2526  2.8876
  716MOL0     H98760   4.971  -0.241   7.263  0.6160 -2.6589  0.5388
  716MOL0     H98761   5.048  -0.262   7.107  1.8537 -0.9105  0.0487
  716MOL0     H98762   5.275  -0.173   7.242 -0.0571  1.1837  2.6972
  716MOL0     H98763   5.156  -0.161   7.364 -2.4171  1.3012 -2.0048
  716MOL0     H98764   5.243  -0.424   7.222 -2.9526 -0.7960 -0.5696
  716MOL0     H98765   5.296  -0.376   7.383  2.4692  4.0653 -1.4913
  716MOL0     H98766   5.268  -0.322   7.595  1.8243 -1.6792  3.0400
  716MOL0     H98767   5.197  -0.252   7.906 -1.5975  0.4549 -1.9707
  716MOL0     H98768   5.334  -0.296   7.798 -0.3688  0.6611 -0.2232
  716MOL0     H98769   5.276  -0.407   7.930  2.2736  0.7790  0.5000
  716MOL0     H98770   4.745  -0.716   8.106 -0.1551 -0.2586  0.8238
  716MOL0     H98771   4.720  -0.747   8.326  1.0050 -0.8495 -1.0018
  716MOL0     H98772   4.673  -0.571   8.509 -3.5408 -0.9819  1.8596
  716MOL0     H98773   4.700  -0.729   8.596 -1.7649  0.1888 -0.5160
  716MOL0     H98774   4.784  -0.557   8.789 -1.2716 -2.9347 -1.0196
  716MOL0     H98775   4.703  -0.441   8.695  1.7336  0.9254  0.8361
  716MOL0     H98776   4.557  -0.576   8.879 -0.9879  4.4327 -0.9823
  716MOL0     H98777   4.574  -0.722   8.774 -0.9847 -0.1447 -2.7715
  716MOL0     H98778   4.473  -0.585   8.594  1.2571 -3.0807  0.5519
  716MOL0     H98779   4.426  -0.464   8.707 -1.9621 -0.7584 -0.8123
  716MOL0     H98780   4.338  -0.748   8.712 -1.5195  0.5924 -1.2593
  716MOL0     H98781   4.278  -0.629   8.833 -3.1506  0.4587 -1.0329
  716MOL0     H98782   4.240  -0.596   8.537 -2.1955 -3.0696 -0.6394
  716MOL0     H98783   4.187  -0.489   8.675  0.3647  0.0881 -1.2047
  716MOL0     H98784   4.066  -0.727   8.740  2.3757  2.0639  1.0570
  716MOL0     H98785   4.083  -0.759   8.570 -1.5694 -2.2956  1.1434
  716MOL0     H98786   3.962  -0.559   8.511  0.7814 -0.1567  0.4428
  716MOL0     H98787   3.962  -0.490   8.670  1.5765  1.1530 -1.1634
  716MOL0     H98788   5.089  -0.544   8.416  0.1085  0.8249 -1.3462
  716MOL0     H98789   5.133  -0.538   8.180 -1.3480 -0.3116 -5.0095
  716MOL0     H98790   4.845  -0.560   7.719 -0.5410  0.0437 -0.3380
  716MOL0     H98791   4.911  -0.554   7.482  2.3455  0.9998 -3.5511
  716MOL0     H98792   3.681   0.137   7.346  0.5161  0.7087  0.2449
  716MOL0     H98793   3.702   0.317   7.522  0.7257  1.0180  2.8936
  716MOL0     H98794   3.554   0.293   7.931  1.0289  0.2649  0.3288
  716MOL0     H98795   3.483   0.382   8.125  1.7970 -1.0459  1.4051
  716MOL0     H98796   3.642   0.645   8.292  1.3268 -1.6954 -4.9595
  716MOL0     H98797   3.574   0.804   8.264  0.0169  0.9390  1.4245
  716MOL0     H98798   3.349   0.725   8.379  0.1135  2.3027  1.3971
  716MOL0     H98799   3.473   0.769   8.472  0.2119  3.0304 -3.0293
  716MOL0     H98800   3.340   0.554   8.520  0.0905 -1.8616  0.7152
  716MOL0     H98801   3.414   0.478   8.379 -1.9846 -2.1413  2.5668
  716MOL0     H98802   3.582   0.591   8.604  2.0162 -1.8602  2.5693
  716MOL0     H98803   3.626   0.476   8.469  0.4554 -1.1799  1.1384
  716MOL0     H98804   3.446   0.242   8.771  2.5766 -0.1703  0.9985
  716MOL0     H98805   3.609   0.779   7.987 -2.1152  0.5410 -1.7125
  716MOL0     H98806   3.856   0.716   7.807  0.7551  0.3854 -2.4905
  716MOL0     H98807   3.741   0.676   7.675  0.1006 -3.2919  2.4589
  716MOL0     H98808   3.702   0.807   7.777  3.5470  2.1411 -2.1612
  717MOL0     O98809   4.981   9.222   8.901  0.3558  0.0590  1.3888
  717MOL0     C98810   4.937   9.183   9.007  0.5603 -0.2048 -1.3232
  717MOL0     O98811   5.018   9.106   9.101  0.2282  0.7622  0.1943
  717MOL0     C98812   5.151   9.079   9.084 -0.9603 -0.3841  0.5710
  717MOL0     C98813   5.202   9.003   9.185 -0.1388  0.0455 -0.1226
  717MOL0     C98814   5.343   8.971   9.180  0.1636 -0.5718  0.0480
  717MOL0     C98815   5.423   9.001   9.073  0.2486 -0.3120 -1.0249
  717MOL0     O98816   5.558   8.981   9.064 -0.5634  0.0322 -0.5439
  717MOL0     C98817   5.631   8.896   9.160 -0.9059  0.4417  0.2859
  717MOL0     C98818   5.778   8.893   9.121 -0.1672  0.3719  0.3229
  717MOL0     C98819   5.819   8.911   8.970 -0.0221  0.7526  0.2473
  717MOL0     C98820   5.960   8.971   8.964 -0.2996 -0.9198  0.1504
  717MOL0     C98821   5.990   9.027   8.824 -0.3068  0.5217 -0.2666
  717MOL0     C98822   6.131   9.086   8.815  0.2376 -0.4587 -0.2507
  717MOL0     C98823   6.141   9.235   8.855 -0.3352  0.3984 -0.1428
  717MOL0     C98824   6.277   9.289   8.866  0.1252 -0.1778  0.2754
  717MOL0     N98825   6.258   9.425   8.933  0.3413 -0.3247  0.4177
  717MOL0     C98826   6.235   9.464   9.066  0.2034 -0.5434 -0.7956
  717MOL0     C98827   6.204   9.598   9.051  0.6089  0.8897 -0.0755
  717MOL0     C98828   6.143   9.684   9.160  0.2767 -0.2584  0.4687
  717MOL0     C98829   6.025   9.617   9.225  0.0019 -0.5055 -0.0255
  717MOL0     C98830   5.918   9.572   9.130 -0.1453  0.4138 -1.5249
  717MOL0     C98831   5.802   9.682   9.118 -1.0232  0.5803 -0.2479
  717MOL0     O98832   5.673   9.643   9.067 -0.0336  0.0063 -0.6792
  717MOL0     C98833   5.689   9.574   8.948  0.1482  0.5299  0.1594
  717MOL0     C98834   5.783   9.598   8.842  0.5739  0.5195 -0.0466
  717MOL0     C98835   5.789   9.513   8.730 -0.7940  0.2276  0.8041
  717MOL0     C98836   5.908   9.545   8.639 -0.3205 -0.3447  0.4462
  717MOL0     C98837   5.703   9.402   8.724 -0.5788  0.4596 -0.2032
  717MOL0     C98838   5.715   9.299   8.621 -0.7208  0.7902 -0.3881
  717MOL0     O98839   5.595   9.237   8.587 -0.2962  0.2466 -0.5596
  717MOL0     C98840   5.614   9.131   8.512 -0.1383 -0.1700  0.2697
  717MOL0     C98841   5.620   9.159   8.369 -0.2976 -0.3514 -0.8876
  717MOL0     C98842   5.629   9.061   8.278  1.0765  0.2610 -0.5154
  717MOL0     C98843   5.635   8.928   8.314  0.1600 -0.2110  0.3783
  717MOL0     O98844   5.628   8.821   8.231 -0.4724  0.1173 -0.0363
  717MOL0     C98845   5.589   8.843   8.091  0.6513  0.1976 -0.3506
  717MOL0     C98846   5.537   8.716   8.023  0.9364 -0.4102  0.6591
  717MOL0     C98847   5.437   8.741   7.908 -0.0758  0.2973  0.0748
  717MOL0     C98848   5.417   8.622   7.823  0.1124 -0.0868 -0.9116
  717MOL0     C98849   5.296   8.632   7.733  0.4766 -0.1520  0.8971
  717MOL0     C98850   5.295   8.510   7.643 -0.4996 -0.5359 -0.8926
  717MOL0     C98851   5.168   8.503   7.559  0.3587  0.3425  1.4381
  717MOL0     C98852   5.203   8.389   7.456  0.9021  0.1354  1.1940
  717MOL0    Cl98853   5.194   8.239   7.546  0.4233 -0.1819  0.4471
  717MOL0     C98854   5.622   8.897   8.450  0.5294  0.0196  0.7189
  717MOL0     C98855   5.609   8.995   8.550 -0.0744  0.1899  0.3135
  717MOL0     O98856   5.826   9.275   8.573 -1.2804 -0.3221  0.3476
  717MOL0     C98857   5.601   9.387   8.822  0.7289 -0.3663 -0.0599
  717MOL0     C98858   5.604   9.470   8.933  1.4105  0.6605  0.8691
  717MOL0     N98859   6.227   9.634   8.925  0.6473 -0.4206  0.3901
  717MOL0     N98860   6.255   9.532   8.857  0.1405 -0.2202  0.3532
  717MOL0     C98861   5.363   9.071   8.963  0.6383  0.3740 -0.2985
  717MOL0     C98862   5.243   9.118   8.979  0.6995 -0.9881  0.0947
  717MOL0     C98863   4.794   9.214   9.036 -0.0903 -0.3710 -0.0271
  717MOL0     C98864   4.768   9.204   9.177  0.0785 -0.5158 -0.0425
  717MOL0     C98865   4.635   9.212   9.235 -0.2941 -0.1820  0.1979
  717MOL0     C98866   4.532   9.198   9.146 -0.1539 -0.1183  1.7332
  717MOL0     O98867   4.401   9.204   9.183 -0.1851  0.1615 -0.1344
  717MOL0     C98868   4.353   9.168   9.316 -0.5908 -0.3975  0.4055
  717MOL0     C98869   4.399   9.020   9.350 -0.2292  0.2554  0.0577
  717MOL0     C98870   4.359   8.916   9.247  0.1568 -0.0196  0.3317
  717MOL0     C98871   4.373   8.765   9.287  0.1266 -0.5055  0.4068
  717MOL0     C98872   4.507   8.750   9.344  0.3099  0.2436 -0.2900
  717MOL0     C98873   4.618   8.749   9.394  0.0616 -0.8451 -0.2794
  717MOL0     C98874   4.552   9.216   9.008 -0.2566 -0.8070 -0.3238
  717MOL0     C98875   4.683   9.221   8.945 -0.5114 -0.3263 -0.1769
  717MOL0     C98876   4.688   9.210   8.791  0.7046  0.1609  0.9224
  717MOL0     H98877   5.164   8.958   9.276 -0.3612 -2.1203 -1.2165
  717MOL0     H98878   5.380   8.921   9.269  2.3693  1.9482  0.6763
  717MOL0     H98879   5.604   8.791   9.155  0.8039  0.0193 -0.6924
  717MOL0     H98880   5.603   8.928   9.261 -0.0247  4.9930 -0.6552
  717MOL0     H98881   5.825   8.970   9.182  2.3803  0.0894 -1.1106
  717MOL0     H98882   5.822   8.796   9.148  2.1778  1.2178 -0.1955
  717MOL0     H98883   5.828   8.811   8.926 -0.4788  0.2054  1.3604
  717MOL0     H98884   5.745   8.969   8.912 -2.5943  1.3291  3.8004
  717MOL0     H98885   5.973   9.051   9.038  2.0655 -0.3052 -0.8560
  717MOL0     H98886   6.042   8.903   8.988  0.4286  0.4336  1.6579
  717MOL0     H98887   5.917   9.103   8.793 -0.0115  0.5075 -1.0244
  717MOL0     H98888   5.998   8.936   8.764  0.3773 -0.2902  1.0271
  717MOL0     H98889   6.197   9.031   8.883 -1.5375 -2.2623  0.0990
  717MOL0     H98890   6.173   9.071   8.715  2.5692  0.5258  0.5097
  717MOL0     H98891   6.075   9.254   8.941 -5.1102  1.4230 -3.5802
  717MOL0     H98892   6.087   9.294   8.781 -1.2542  0.2204  0.3627
  717MOL0     H98893   6.340   9.222   8.924  1.5081  1.0257  0.2375
  717MOL0     H98894   6.324   9.281   8.767  0.5066 -2.1476  0.5761
  717MOL0     H98895   6.223   9.401   9.154 -1.5849  1.6451  0.6168
  717MOL0     H98896   6.104   9.779   9.124 -3.8494 -1.4942  1.1410
  717MOL0     H98897   6.221   9.696   9.237  1.8768 -2.4914 -0.6905
  717MOL0     H98898   6.063   9.522   9.265  0.8088 -0.1062  0.1834
  717MOL0     H98899   5.983   9.674   9.308 -3.7098  0.4777 -2.3594
  717MOL0     H98900   5.956   9.536   9.034  2.5407  2.2240 -1.2481
  717MOL0     H98901   5.868   9.485   9.173  0.9894  0.6346  0.3692
  717MOL0     H98902   5.779   9.724   9.216  1.5424  1.2076  0.1588
  717MOL0     H98903   5.841   9.767   9.061 -2.1655  0.9764 -0.4564
  717MOL0     H98904   5.860   9.674   8.855 -0.4591  1.7235 -0.7197
  717MOL0     H98905   5.953   9.643   8.652  1.4276 -0.9878 -0.3874
  717MOL0     H98906   5.874   9.552   8.535  3.8738  1.2885 -1.0097
  717MOL0     H98907   5.984   9.468   8.655  1.6973  1.8547  2.2384
  717MOL0     H98908   5.609   9.259   8.328 -3.1454 -0.8862 -1.6514
  717MOL0     H98909   5.597   9.092   8.180 -3.0763  1.8932  1.1129
  717MOL0     H98910   5.489   8.885   8.106  0.6889  0.8805 -1.8304
  717MOL0     H98911   5.651   8.910   8.031 -0.9767  0.2374 -2.0983
  717MOL0     H98912   5.625   8.657   7.994  0.6509 -0.2377 -0.6395
  717MOL0     H98913   5.482   8.674   8.108 -0.1424  1.0125  0.6957
  717MOL0     H98914   5.474   8.824   7.847  3.5289 -0.6967  0.6520
  717MOL0     H98915   5.341   8.770   7.951 -0.2353 -0.7101  0.4399
  717MOL0     H98916   5.416   8.533   7.887  2.9820  0.4524  0.0342
  717MOL0     H98917   5.513   8.613   7.772  0.5908 -1.2281  0.1391
  717MOL0     H98918   5.201   8.641   7.786 -0.4747 -0.9551 -0.5986
  717MOL0     H98919   5.301   8.716   7.662 -1.7698 -1.4398 -0.9335
  717MOL0     H98920   5.300   8.421   7.705 -3.0391  0.2196  0.5533
  717MOL0     H98921   5.379   8.525   7.574 -1.9519  3.0412 -2.1476
  717MOL0     H98922   5.147   8.595   7.503  1.2084  0.8157  1.8742
  717MOL0     H98923   5.079   8.492   7.622  1.0681  2.5765  2.9848
  717MOL0     H98924   5.302   8.403   7.411  1.0053  3.7213  2.1989
  717MOL0     H98925   5.133   8.390   7.371  0.7216 -2.2040  1.2486
  717MOL0     H98926   5.625   8.792   8.478  2.7218 -0.0671  0.3393
  717MOL0     H98927   5.601   8.970   8.655  1.9759  0.8331  0.6625
  717MOL0     H98928   5.533   9.303   8.817 -0.3465  0.3675  1.2075
  717MOL0     H98929   5.530   9.460   9.012  1.9378 -1.1844  1.1909
  717MOL0     H98930   5.425   9.098   8.878  1.6120  3.2729  1.1991
  717MOL0     H98931   5.208   9.192   8.907 -3.5162 -0.9905  1.8404
  717MOL0     H98932   4.848   9.199   9.249  3.1066  1.1063 -3.0028
  717MOL0     H98933   4.629   9.215   9.344 -0.8867 -1.1437  0.1985
  717MOL0     H98934   4.412   9.228   9.386 -3.1925  2.6580  0.2086
  717MOL0     H98935   4.244   9.174   9.326 -1.0252 -0.9996 -2.9060
  717MOL0     H98936   4.344   8.995   9.441 -1.5736  0.3922 -0.6935
  717MOL0     H98937   4.505   9.016   9.377  0.9759  5.2316 -2.6428
  717MOL0     H98938   4.258   8.916   9.206 -0.4008  0.0842  1.6332
  717MOL0     H98939   4.427   8.933   9.164 -0.4663 -1.4361 -0.5075
  717MOL0     H98940   4.346   8.711   9.196  1.4391  0.7193 -0.7611
  717MOL0     H98941   4.305   8.735   9.367 -0.0739 -3.5991 -0.7928
  717MOL0     H98942   4.709   8.757   9.449 -0.5440  1.9820  0.4931
  717MOL0     H98943   4.466   9.236   8.946 -1.1106 -1.4036  0.6383
  717MOL0     H98944   4.645   9.297   8.741 -1.0277 -2.6842 -3.1150
  717MOL0     H98945   4.792   9.205   8.758  0.4696 -0.7114  0.2637
  717MOL0     H98946   4.624   9.127   8.761 -2.1206  2.0544  1.3035
  718MOL0     O98947   3.471   8.344   6.551  0.0888 -0.1370  0.0944
  718MOL0     C98948   3.568   8.279   6.529 -1.3455  0.6288 -0.3508
  718MOL0     O98949   3.698   8.334   6.542 -0.1158  0.1124 -0.8861
  718MOL0     C98950   3.712   8.460   6.586  0.1455  0.1232 -0.5251
  718MOL0     C98951   3.773   8.475   6.710 -0.7584  0.7231  0.4761
  718MOL0     C98952   3.804   8.598   6.762 -0.9049  0.8474  0.1898
  718MOL0     C98953   3.761   8.710   6.700 -0.3059 -0.2699 -0.3678
  718MOL0     O98954   3.792   8.828   6.762  0.1709  0.0352  0.4582
  718MOL0     C98955   3.723   8.947   6.710 -0.9394  0.1225 -0.3647
  718MOL0     C98956   3.772   9.066   6.807  0.6559  0.5583 -0.1859
  718MOL0     C98957   3.908   9.120   6.763 -0.7358 -1.1343  0.0467
  718MOL0     C98958   3.964   9.223   6.869 -0.0258  0.5225 -0.4738
  718MOL0     C98959   4.011   9.154   6.996 -0.0485  0.2438  0.7248
  718MOL0     C98960   3.905   9.174   7.103 -0.8197  0.3929  0.0332
  718MOL0     C98961   3.896   9.049   7.195  0.0384  0.4798  0.8479
  718MOL0     C98962   3.777   9.073   7.292 -0.0434 -0.5995  0.2462
  718MOL0     N98963   3.812   9.147   7.407  0.2349 -1.0758 -0.3174
  718MOL0     C98964   3.829   9.096   7.528 -0.4260  0.0674 -0.4933
  718MOL0     C98965   3.865   9.186   7.614  0.6212 -1.0125  1.1577
  718MOL0     C98966   3.897   9.158   7.753  1.1707  0.2565 -0.9192
  718MOL0     C98967   4.012   9.056   7.768 -0.4774 -0.0009 -0.1484
  718MOL0     C98968   4.142   9.111   7.738 -1.3848 -0.3118  0.0279
  718MOL0     C98969   4.247   9.013   7.675  0.3278 -0.4914 -0.1932
  718MOL0     O98970   4.198   8.966   7.548 -0.7358 -0.0653  0.6277
  718MOL0     C98971   4.283   8.896   7.467  1.0245  0.5228 -0.1579
  718MOL0     C98972   4.236   8.847   7.339 -0.7389 -0.4288  0.5571
  718MOL0     C98973   4.331   8.779   7.250 -0.1428 -0.8165 -1.2342
  718MOL0     C98974   4.275   8.727   7.112  0.2841 -0.8255 -0.9028
  718MOL0     C98975   4.468   8.773   7.294 -0.0903  0.0701  0.9111
  718MOL0     C98976   4.573   8.707   7.200 -0.7990 -0.9999 -0.9900
  718MOL0     O98977   4.700   8.717   7.234  0.4792  0.3210  0.0686
  718MOL0     C98978   4.775   8.606   7.204  0.3522 -0.3137 -0.9244
  718MOL0     C98979   4.855   8.617   7.093  0.3177  0.9245 -0.2508
  718MOL0     C98980   4.939   8.517   7.047  0.2326 -0.4153 -0.1219
  718MOL0     C98981   4.958   8.407   7.131 -0.1483 -0.1921  0.1706
  718MOL0     O98982   5.048   8.312   7.095 -0.0981  1.0363  0.2617
  718MOL0     C98983   5.058   8.185   7.154 -1.3136  0.4276 -0.0698
  718MOL0     C98984   5.002   8.072   7.066 -0.0139  0.4618  1.1869
  718MOL0     C98985   5.043   8.076   6.916 -0.3576 -0.2193  0.2036
  718MOL0     C98986   4.944   8.160   6.830  0.6557 -0.3686 -0.5508
  718MOL0     C98987   5.007   8.183   6.692  1.1720  0.0551 -0.6408
  718MOL0     C98988   4.909   8.256   6.596 -0.6038 -0.2445 -0.0852
  718MOL0     C98989   4.980   8.284   6.464  0.0577 -0.0345  0.0690
  718MOL0     C98990   4.886   8.342   6.358  1.0465  0.0987  0.4741
  718MOL0    Cl98991   4.795   8.207   6.291  0.8528  0.3975 -0.0102
  718MOL0     C98992   4.868   8.388   7.243  0.5774 -0.0124 -0.5036
  718MOL0     C98993   4.781   8.488   7.276  0.6549 -1.0972  0.3023
  718MOL0     O98994   4.535   8.652   7.095  0.1007  0.6218 -0.0438
  718MOL0     C98995   4.502   8.828   7.413  0.2040  0.7550  0.1821
  718MOL0     C98996   4.417   8.893   7.497  0.0703  0.6797 -0.1251
  718MOL0     N98997   3.858   9.308   7.546 -0.1809  0.0910 -0.5139
  718MOL0     N98998   3.816   9.283   7.422 -0.6593  0.5900 -1.3098
  718MOL0     C98999   3.704   8.703   6.574  0.4922  0.1058  0.5266
  718MOL0     C99000   3.690   8.579   6.515  0.1886  0.2353  0.2417
  718MOL0     C99001   3.569   8.135   6.485 -0.4257 -0.8184 -0.4989
  718MOL0     C99002   3.694   8.083   6.439  0.6649  0.0600  0.0806
  718MOL0     C99003   3.703   7.954   6.387 -0.4465  0.6840 -0.4843
  718MOL0     C99004   3.587   7.873   6.367  0.4189  0.8388 -0.0196
  718MOL0     O99005   3.599   7.753   6.299 -0.9702 -1.0920  0.1362
  718MOL0     C99006   3.516   7.644   6.321  0.4246  0.0200  0.5545
  718MOL0     C99007   3.584   7.510   6.279  0.2500  0.2308  0.5954
  718MOL0     C99008   3.713   7.456   6.349 -0.6719  0.2170  1.1872
  718MOL0     C99009   3.698   7.402   6.489 -0.0532  0.3369  0.0760
  718MOL0     C99010   3.824   7.343   6.542 -0.2188  0.2306  1.4498
  718MOL0     C99011   3.912   7.296   6.601 -0.4259  0.7220  0.2253
  718MOL0     C99012   3.469   7.917   6.421  0.0499 -0.6184  0.3126
  718MOL0     C99013   3.453   8.053   6.467 -0.5720  0.4402  0.6238
  718MOL0     C99014   3.318   8.091   6.485  0.0993  0.1574  0.0787
  718MOL0     H99015   3.804   8.382   6.758 -0.7515 -0.3715 -1.5059
  718MOL0     H99016   3.854   8.599   6.858  3.7264 -1.0452 -1.9292
  718MOL0     H99017   3.615   8.935   6.714 -0.7387 -1.6667  2.1221
  718MOL0     H99018   3.758   8.980   6.612  1.0021  2.5104  1.0169
  718MOL0     H99019   3.700   9.147   6.792 -1.5587 -1.5511 -1.5696
  718MOL0     H99020   3.767   9.027   6.909 -0.8068 -1.2309 -0.8945
  718MOL0     H99021   3.982   9.041   6.746 -3.4104 -3.2559 -3.0488
  718MOL0     H99022   3.899   9.163   6.663 -0.6814 -2.8892 -0.7500
  718MOL0     H99023   4.051   9.278   6.830 -0.1401  2.8707  2.2217
  718MOL0     H99024   3.887   9.299   6.885 -0.5426 -0.1465  0.2908
  718MOL0     H99025   4.112   9.184   7.024  1.2766 -1.4337 -1.8073
  718MOL0     H99026   4.024   9.047   6.979 -0.6427  0.3410 -0.4627
  718MOL0     H99027   3.931   9.261   7.164 -2.7753 -0.5181  2.3079
  718MOL0     H99028   3.804   9.191   7.064 -1.2373 -3.0971 -0.7253
  718MOL0     H99029   3.987   9.027   7.250 -0.4254 -2.3052  0.6227
  718MOL0     H99030   3.880   8.964   7.128 -3.5378  1.3317  0.3913
  718MOL0     H99031   3.701   9.124   7.233  1.1196 -1.1929 -1.8638
  718MOL0     H99032   3.733   8.978   7.322 -2.6661 -0.2254 -2.0806
  718MOL0     H99033   3.841   8.992   7.556  2.8677  0.0749 -1.4083
  718MOL0     H99034   3.812   9.121   7.811  0.3159  1.1900 -1.5530
  718MOL0     H99035   3.927   9.256   7.791 -0.6387  1.3956 -2.2680
  718MOL0     H99036   4.009   9.036   7.876  0.5020 -0.2917 -0.1574
  718MOL0     H99037   3.991   8.961   7.719  0.6700  0.1950 -1.0560
  718MOL0     H99038   4.139   9.199   7.674  0.5893  3.4518  4.5553
  718MOL0     H99039   4.178   9.149   7.833  0.0980  0.4738 -0.8110
  718MOL0     H99040   4.343   9.064   7.682 -0.2449  0.8306 -1.3025
  718MOL0     H99041   4.249   8.930   7.746  2.8828  0.7844  1.3357
  718MOL0     H99042   4.137   8.869   7.300 -2.1807 -1.3379  3.3708
  718MOL0     H99043   4.170   8.748   7.086  0.4969  2.6686  0.5722
  718MOL0     H99044   4.295   8.621   7.091 -0.2598 -0.6425 -2.5277
  718MOL0     H99045   4.336   8.786   7.043 -0.2174 -1.0792 -1.5757
  718MOL0     H99046   4.848   8.709   7.036  1.1433  1.4560  0.4833
  718MOL0     H99047   4.998   8.529   6.957  4.0698 -3.7556  1.6175
  718MOL0     H99048   5.167   8.177   7.167 -1.0885 -0.7802 -2.2213
  718MOL0     H99049   5.015   8.174   7.255 -1.3247 -1.2854 -0.2270
  718MOL0     H99050   5.035   7.980   7.115 -0.7212 -1.1593 -1.2265
  718MOL0     H99051   4.892   8.080   7.069 -0.2670 -1.3629 -1.0479
  718MOL0     H99052   5.040   7.975   6.873  0.2592 -0.1259 -0.0673
  718MOL0     H99053   5.145   8.116   6.910 -0.5301  0.3158  0.7656
  718MOL0     H99054   4.922   8.254   6.882  3.6770 -0.4244  1.0385
  718MOL0     H99055   4.852   8.105   6.810  0.2649  1.1661 -3.6127
  718MOL0     H99056   5.098   8.235   6.726 -0.1014 -0.1303  3.6038
  718MOL0     H99057   5.045   8.088   6.654  1.8117  0.5806 -1.3637
  718MOL0     H99058   4.876   8.346   6.647  0.8471  0.6015 -0.5985
  718MOL0     H99059   4.815   8.200   6.585 -2.2943  2.8089 -2.8715
  718MOL0     H99060   5.047   8.200   6.441 -1.6590 -1.4939  0.2432
  718MOL0     H99061   5.050   8.365   6.487 -1.1275  0.9450  0.2925
  718MOL0     H99062   4.944   8.390   6.279  2.9164 -1.6075  0.7233
  718MOL0     H99063   4.812   8.405   6.408 -0.6654 -0.4418 -1.2736
  718MOL0     H99064   4.869   8.297   7.302  2.4784 -0.4576 -1.1570
  718MOL0     H99065   4.722   8.486   7.368  1.4662  1.0310  0.9179
  718MOL0     H99066   4.599   8.815   7.459 -0.5732 -2.2678  1.1603
  718MOL0     H99067   4.454   8.942   7.587  0.4876 -0.3615  0.2871
  718MOL0     H99068   3.667   8.791   6.522  2.3207 -0.9396 -2.7964
  718MOL0     H99069   3.653   8.561   6.414  2.2231  0.0377 -0.5207
  718MOL0     H99070   3.786   8.139   6.453  0.4105  0.2355  1.1125
  718MOL0     H99071   3.803   7.923   6.358 -0.9541 -2.7398  0.9292
  718MOL0     H99072   3.486   7.630   6.425 -1.0614  0.4962  0.2117
  718MOL0     H99073   3.426   7.647   6.259 -0.8057 -0.0823  2.2585
  718MOL0     H99074   3.589   7.519   6.170  0.6881 -1.7316  0.4163
  718MOL0     H99075   3.510   7.430   6.292  0.3994  0.3624  2.5646
  718MOL0     H99076   3.740   7.374   6.282  1.3577  1.1458  0.8030
  718MOL0     H99077   3.791   7.527   6.322 -0.7571 -0.0132  0.2865
  718MOL0     H99078   3.619   7.328   6.499  0.3758  0.1514  2.7828
  718MOL0     H99079   3.676   7.492   6.548  0.4755  2.4291 -2.6753
  718MOL0     H99080   3.983   7.243   6.661 -3.5833 -0.7258  3.0063
  718MOL0     H99081   3.382   7.854   6.406 -2.4193  2.5683  0.2273
  718MOL0     H99082   3.303   8.148   6.577 -1.4454  0.9510 -0.6254
  718MOL0     H99083   3.295   8.167   6.410 -0.3342 -0.0289  0.0215
  718MOL0     H99084   3.247   8.011   6.466  0.9854 -0.7532  0.5412
  719MOL0     O99085  10.660   9.674   8.701  0.0575  0.8746 -0.1888
  719MOL0     C99086  10.587   9.776   8.745 -0.8947  0.3770  0.3903
  719MOL0     O99087  10.504   9.774   8.854  0.3954 -0.0106 -0.2682
  719MOL0     C99088  10.516   9.677   8.948 -0.2389  0.7001 -0.4018
  719MOL0     C99089  10.635   9.627   9.007  0.5397 -0.2914 -0.6685
  719MOL0     C99090  10.633   9.519   9.100 -0.0795 -0.1166 -0.7174
  719MOL0     C99091  10.510   9.462   9.139 -0.5845 -0.7863 -1.1875
  719MOL0     O99092  10.495   9.355   9.228 -0.7892 -0.6746  0.8989
  719MOL0     C99093  10.616   9.289   9.267 -0.8601 -0.7141 -0.5088
  719MOL0     C99094  10.577   9.166   9.337  0.3981  0.5993 -0.6151
  719MOL0     C99095  10.522   9.064   9.237  0.2426 -0.3658  0.0642
  719MOL0     C99096  10.465   8.948   9.314  0.4566 -0.0891  1.0872
  719MOL0     C99097  10.312   8.959   9.332  0.9409 -0.0860  0.1401
  719MOL0     C99098  10.220   8.953   9.211  1.4774  1.0126  0.3888
  719MOL0     C99099  10.092   9.035   9.234  0.4040 -0.0415 -0.2868
  719MOL0     C99100  10.009   8.947   9.332  1.5075 -0.8126 -0.3320
  719MOL0     N99101   9.902   9.025   9.393  0.2927 -0.2935  1.1693
  719MOL0     C99102   9.914   9.069   9.523  0.1394 -0.6728  0.3326
  719MOL0     C99103   9.785   9.118   9.552  0.7523 -0.5357 -1.5256
  719MOL0     C99104   9.731   9.158   9.692  0.3283 -0.7629  0.3347
  719MOL0     C99105   9.602   9.230   9.688  0.2621  0.5639 -0.1212
  719MOL0     C99106   9.546   9.233   9.827  0.3103 -0.3876 -0.7299
  719MOL0     C99107   9.416   9.312   9.827 -0.0774 -0.0470 -0.4571
  719MOL0     O99108   9.313   9.275   9.743  0.0745 -0.4583  0.6131
  719MOL0     C99109   9.188   9.330   9.740 -0.7608 -0.5112 -0.6734
  719MOL0     C99110   9.092   9.278   9.661  0.6486 -0.4337 -0.3400
  719MOL0     C99111   8.960   9.332   9.649  0.0966  0.3016 -0.1237
  719MOL0     C99112   8.874   9.261   9.556  0.4418  0.2032  0.3044
  719MOL0     C99113   8.922   9.458   9.716 -0.4379  0.6251 -0.8508
  719MOL0     C99114   8.801   9.532   9.709  0.4419  0.2441 -0.3357
  719MOL0     O99115   8.785   9.623   9.805 -0.2194  0.8558 -0.2244
  719MOL0     C99116   8.678   9.703   9.807 -0.4474  0.5144 -0.6825
  719MOL0     C99117   8.547   9.660   9.758  0.2094 -0.8695 -0.0806
  719MOL0     C99118   8.436   9.758   9.769 -0.7142 -0.2023  1.0821
  719MOL0     C99119   8.454   9.881   9.829 -0.0702  0.7567 -0.0789
  719MOL0     O99120   8.351   9.964   9.822  0.0601  0.1376 -0.1569
  719MOL0     C99121   8.325  10.052   9.928  0.7314  0.1799  0.3913
  719MOL0     C99122   8.280   9.983  10.059 -0.3315 -0.3516 -0.9868
  719MOL0     C99123   8.180   9.864  10.036  0.5769  0.8334 -0.1614
  719MOL0     C99124   8.067   9.891   9.933  0.1248  0.4157 -0.6759
  719MOL0     C99125   7.984   9.765   9.920 -0.2119  0.3510  1.1941
  719MOL0     C99126   7.882   9.778   9.802  0.7619 -0.2041  0.2760
  719MOL0     C99127   7.783   9.667   9.818  0.3014  0.6727 -0.7377
  719MOL0     C99128   7.689   9.679   9.709 -0.5041 -0.8018 -0.3243
  719MOL0    Cl99129   7.585   9.546   9.685  0.2308  0.0398 -0.8840
  719MOL0     C99130   8.583   9.912   9.882  0.9736 -0.8991 -0.1669
  719MOL0     C99131   8.688   9.826   9.871  0.3539  0.6000  0.1334
  719MOL0     O99132   8.732   9.515   9.606 -0.3352  0.5711 -0.6559
  719MOL0     C99133   9.027   9.499   9.799 -1.1924  0.1953 -0.4877
  719MOL0     C99134   9.153   9.439   9.816 -0.5637  0.4168 -0.7999
  719MOL0     N99135   9.707   9.096   9.444 -0.0262  0.1697  0.3140
  719MOL0     N99136   9.770   9.031   9.351  0.3969 -0.8995  0.4529
  719MOL0     C99137  10.390   9.514   9.087 -0.8007 -0.8408 -0.0463
  719MOL0     C99138  10.401   9.625   8.996 -0.7162 -0.5093  0.1211
  719MOL0     C99139  10.582   9.901   8.655 -0.6515  0.4051 -0.8334
  719MOL0     C99140  10.464   9.934   8.581  0.6391 -0.2693  0.0639
  719MOL0     C99141  10.458  10.036   8.492  0.3542 -0.2909 -0.6975
  719MOL0     C99142  10.577  10.118   8.482  0.4373 -0.1938  0.0248
  719MOL0     O99143  10.575  10.228   8.396  0.2942  0.1216 -0.1757
  719MOL0     C99144  10.699  10.304   8.380  1.4521 -0.1693 -0.5237
  719MOL0     C99145  10.656  10.428   8.306  0.2839  0.1930  0.5852
  719MOL0     C99146  10.764  10.484   8.214 -0.3329 -0.0975  0.4271
  719MOL0     C99147  10.774  10.402   8.079  0.5043  0.1238 -0.3308
  719MOL0     C99148  10.891  10.428   8.006  0.0450 -1.2144  0.3217
  719MOL0     C99149  10.987  10.466   7.946 -0.3504  0.9600  0.8983
  719MOL0     C99150  10.693  10.081   8.553 -0.5919 -0.7007 -0.1762
  719MOL0     C99151  10.703   9.964   8.631  0.2967 -0.0044 -0.0008
  719MOL0     C99152  10.841   9.933   8.686 -0.2748 -0.5705 -0.3588
  719MOL0     H99153  10.728   9.678   8.984  1.3536 -0.2464  2.3646
  719MOL0     H99154  10.724   9.479   9.142 -1.0508 -1.4300  0.2476
  719MOL0     H99155  10.678   9.351   9.333  0.4975 -0.4308 -1.9916
  719MOL0     H99156  10.689   9.263   9.190 -0.6336  2.0758 -1.3537
  719MOL0     H99157  10.667   9.132   9.389 -0.3094  3.3467  2.7922
  719MOL0     H99158  10.505   9.186   9.418  0.7146 -0.1723 -0.1282
  719MOL0     H99159  10.444   9.107   9.174 -0.6276 -3.3277 -1.0450
  719MOL0     H99160  10.608   9.043   9.172 -1.3024 -4.2413 -1.0049
  719MOL0     H99161  10.480   8.857   9.254 -1.5141  0.5640 -0.5120
  719MOL0     H99162  10.515   8.944   9.411  2.9688 -1.2428 -0.1504
  719MOL0     H99163  10.295   9.052   9.388 -5.1045  0.9853 -2.6253
  719MOL0     H99164  10.281   8.879   9.399 -2.0225  0.2513 -0.6819
  719MOL0     H99165  10.270   8.991   9.121 -0.9280  0.7310 -1.1702
  719MOL0     H99166  10.204   8.850   9.177  0.7493  1.4459 -0.6324
  719MOL0     H99167  10.046   9.069   9.140 -1.8859 -0.1953  0.7210
  719MOL0     H99168  10.106   9.138   9.270  0.6351 -0.3401  0.4958
  719MOL0     H99169   9.970   8.858   9.282 -0.8313 -1.2823  2.0988
  719MOL0     H99170  10.077   8.908   9.408 -0.5165 -0.4117  1.8094
  719MOL0     H99171   9.995   9.043   9.590  0.1975 -1.2469  0.0435
  719MOL0     H99172   9.788   9.211   9.769 -1.3929 -1.2466  2.0160
  719MOL0     H99173   9.698   9.070   9.747 -0.5762  0.0282  1.1062
  719MOL0     H99174   9.603   9.333   9.653 -1.5574  0.5601 -0.2628
  719MOL0     H99175   9.533   9.167   9.630  0.0742  2.5328 -2.1517
  719MOL0     H99176   9.531   9.131   9.862 -2.5313  1.5767  5.2543
  719MOL0     H99177   9.617   9.273   9.901 -0.6792 -0.0840  0.0875
  719MOL0     H99178   9.376   9.317   9.928  2.4773 -1.7030  0.7422
  719MOL0     H99179   9.445   9.414   9.800  0.2317  0.0457  0.2150
  719MOL0     H99180   9.115   9.184   9.612  0.2161  0.0442 -1.4980
  719MOL0     H99181   8.768   9.265   9.586  0.4113 -0.5707  0.3148
  719MOL0     H99182   8.897   9.154   9.562 -1.0544 -0.0647  2.3233
  719MOL0     H99183   8.882   9.292   9.451 -0.6952  0.0967  0.1636
  719MOL0     H99184   8.524   9.559   9.726 -1.9851 -0.4771  0.0962
  719MOL0     H99185   8.341   9.733   9.724  1.4746 -4.2500 -1.9665
  719MOL0     H99186   8.414  10.111   9.951  1.3968  0.3078 -2.1956
  719MOL0     H99187   8.251  10.130   9.908 -0.2245 -1.0650 -1.1213
  719MOL0     H99188   8.368   9.958  10.119  0.4690  0.6051 -1.7262
  719MOL0     H99189   8.226  10.058  10.118  0.6107  1.7484 -2.6817
  719MOL0     H99190   8.139   9.824  10.129  1.6411  2.1868  0.9451
  719MOL0     H99191   8.242   9.786   9.991 -0.4222  0.4131 -0.8466
  719MOL0     H99192   8.108   9.919   9.835 -0.3296 -0.1209 -1.0252
  719MOL0     H99193   8.012   9.980   9.963 -0.6257 -1.2332  3.5523
  719MOL0     H99194   8.051   9.681   9.897 -1.0907  0.2977 -1.5857
  719MOL0     H99195   7.923   9.756  10.011 -0.2131  2.6739  1.4964
  719MOL0     H99196   7.936   9.771   9.707  1.2841 -1.6656  0.6601
  719MOL0     H99197   7.826   9.872   9.804  0.0930 -0.6044  0.4775
  719MOL0     H99198   7.730   9.668   9.914  0.2294  1.1082 -0.7814
  719MOL0     H99199   7.837   9.573   9.802  2.7600  1.2048  2.9799
  719MOL0     H99200   7.742   9.689   9.614 -2.4814  0.3487 -1.3873
  719MOL0     H99201   7.637   9.776   9.710  2.0774  0.6994 -1.1428
  719MOL0     H99202   8.603  10.010   9.924  0.9624 -0.5359 -0.9952
  719MOL0     H99203   8.792   9.848   9.892  1.0161 -1.9392 -0.1033
  719MOL0     H99204   9.004   9.582   9.865 -1.1949  0.1549 -0.4392
  719MOL0     H99205   9.223   9.479   9.889  0.8557 -0.4271 -1.6411
  719MOL0     H99206  10.288   9.480   9.100 -1.2609 -0.0259 -1.3304
  719MOL0     H99207  10.303   9.655   8.961 -0.3192  0.2164 -0.4020
  719MOL0     H99208  10.383   9.863   8.596  1.2223 -0.4653  2.8012
  719MOL0     H99209  10.370  10.044   8.428  0.0990  1.8621 -0.1624
  719MOL0     H99210  10.740  10.332   8.477  0.2018 -3.6763  1.2080
  719MOL0     H99211  10.768  10.238   8.328 -0.2066 -1.1393 -1.6119
  719MOL0     H99212  10.631  10.506   8.379 -0.5481 -0.3249  0.8682
  719MOL0     H99213  10.565  10.408   8.248  0.2902 -2.5448  1.3589
  719MOL0     H99214  10.730  10.583   8.180 -0.6758  0.0799  1.2353
  719MOL0     H99215  10.863  10.491   8.260 -0.0898 -1.7404  0.2007
  719MOL0     H99216  10.684  10.421   8.019 -0.2193  0.6734  0.8735
  719MOL0     H99217  10.778  10.294   8.099  1.1397  0.0638 -0.7661
  719MOL0     H99218  11.080  10.495   7.901  0.3828  1.2486  2.5358
  719MOL0     H99219  10.781  10.145   8.551 -0.6605 -0.5740  0.4905
  719MOL0     H99220  10.851   9.826   8.706  1.6031 -0.0907  1.6368
  719MOL0     H99221  10.924   9.958   8.619 -0.1744 -1.3032 -0.5106
  719MOL0     H99222  10.844   9.995   8.776 -0.8573  0.2341 -0.8792
  720MOL0     O99223   4.048   5.144   3.074  0.3047  0.2649 -0.0275
  720MOL0     C99224   4.127   5.066   3.124  0.7911  0.3064 -0.3227
  720MOL0     O99225   4.125   5.026   3.257 -0.2487 -0.6195 -0.3775
  720MOL0     C99226   4.027   5.073   3.332  0.8250  0.1022  0.1941
  720MOL0     C99227   3.905   5.000   3.338 -0.2208 -0.2536  0.1057
  720MOL0     C99228   3.796   5.050   3.408  0.7052  0.4162  0.3045
  720MOL0     C99229   3.809   5.167   3.479 -0.2823  0.3893 -0.6849
  720MOL0     O99230   3.694   5.215   3.540  1.3271 -0.0944 -0.8733
  720MOL0     C99231   3.646   5.345   3.491  0.3640  1.0923 -0.3241
  720MOL0     C99232   3.638   5.453   3.599  0.0248 -1.0969  0.4577
  720MOL0     C99233   3.653   5.591   3.527 -0.1542  0.4346 -0.3970
  720MOL0     C99234   3.611   5.700   3.637 -0.8580  1.9229 -0.4273
  720MOL0     C99235   3.647   5.837   3.597  0.0153  0.0536  0.1381
  720MOL0     C99236   3.592   5.884   3.457 -0.1864  0.0471  0.5956
  720MOL0     C99237   3.652   6.022   3.427  0.0076 -0.5993 -0.2493
  720MOL0     C99238   3.600   6.080   3.287  0.2159  0.4004 -0.9676
  720MOL0     N99239   3.666   6.027   3.171 -0.2073 -0.3950  0.3182
  720MOL0     C99240   3.610   5.923   3.100  0.5526  0.4928  0.2566
  720MOL0     C99241   3.679   5.919   2.981  0.4780 -0.5223  0.0744
  720MOL0     C99242   3.665   5.813   2.882 -1.0824 -0.6256 -0.0612
  720MOL0     C99243   3.668   5.850   2.728  0.1425 -0.5279 -0.5860
  720MOL0     C99244   3.592   5.745   2.641 -0.2718  1.1964 -0.5473
  720MOL0     C99245   3.599   5.756   2.487 -0.4418  0.0360 -0.1668
  720MOL0     O99246   3.710   5.684   2.425  0.5361  0.5323 -0.0956
  720MOL0     C99247   3.666   5.562   2.384  0.0005  0.1635 -0.0553
  720MOL0     C99248   3.610   5.561   2.255 -0.5397 -0.3300 -0.1273
  720MOL0     C99249   3.560   5.444   2.199  0.1810  1.2547  0.1841
  720MOL0     C99250   3.508   5.460   2.060  1.0652  0.4998  0.8649
  720MOL0     C99251   3.549   5.322   2.276  0.0308 -0.6864  1.1881
  720MOL0     C99252   3.495   5.195   2.228 -0.3765  0.3984  0.1666
  720MOL0     O99253   3.506   5.166   2.095 -0.2311 -0.6466  0.5409
  720MOL0     C99254   3.458   5.053   2.030  0.0277 -0.3460  0.2933
  720MOL0     C99255   3.456   5.068   1.897  0.2607 -0.3747 -0.3029
  720MOL0     C99256   3.419   4.961   1.814  0.0106 -0.3666  0.6044
  720MOL0     C99257   3.342   4.850   1.872  0.4296  1.3643  1.1254
  720MOL0     O99258   3.268   4.756   1.797  0.3691 -1.3436  0.3199
  720MOL0     C99259   3.343   4.667   1.711 -0.0945 -0.1471  0.6779
  720MOL0     C99260   3.427   4.573   1.794 -0.3353  0.2372 -0.4448
  720MOL0     C99261   3.330   4.479   1.863  0.0949 -0.0999 -0.3932
  720MOL0     C99262   3.375   4.344   1.883 -0.6029  0.9530  1.0588
  720MOL0     C99263   3.258   4.256   1.906 -0.3775 -0.6729  0.6488
  720MOL0     C99264   3.285   4.119   1.963  0.6308 -0.2585  0.4345
  720MOL0     C99265   3.329   4.013   1.853 -0.4967 -0.6250 -0.9054
  720MOL0     C99266   3.353   3.880   1.916  0.1645 -0.3706  0.3890
  720MOL0    Cl99267   3.426   3.765   1.805 -0.3293 -0.3089 -0.1259
  720MOL0     C99268   3.333   4.846   2.008 -0.2870 -0.3830 -0.0706
  720MOL0     C99269   3.403   4.938   2.086  0.0510 -0.1292 -0.7159
  720MOL0     O99270   3.457   5.116   2.314 -0.1041  0.6628 -0.4583
  720MOL0     C99271   3.594   5.339   2.417  0.2618 -0.4403 -0.5267
  720MOL0     C99272   3.665   5.454   2.463  0.5130  0.6800  0.5054
  720MOL0     N99273   3.766   6.025   2.982 -0.6830  0.6799  0.1254
  720MOL0     N99274   3.753   6.094   3.090  0.1621  0.2185  0.3234
  720MOL0     C99275   3.929   5.242   3.480  0.0886 -0.1282  0.7461
  720MOL0     C99276   4.038   5.193   3.410  0.4131  1.1414  0.8190
  720MOL0     C99277   4.226   5.011   3.023 -0.7982  0.2138 -0.1601
  720MOL0     C99278   4.199   4.974   2.892  0.5797  0.7683  0.2788
  720MOL0     C99279   4.294   4.915   2.816  0.3074  1.1092  0.4529
  720MOL0     C99280   4.424   4.901   2.851 -0.4465 -0.1931 -0.0694
  720MOL0     O99281   4.498   4.858   2.748 -0.8124 -0.6044 -0.5485
  720MOL0     C99282   4.636   4.819   2.770  0.0521  0.6360  0.1608
  720MOL0     C99283   4.642   4.689   2.859 -0.7173  0.3462  0.7792
  720MOL0     C99284   4.590   4.568   2.781 -1.5994 -0.4561  0.1988
  720MOL0     C99285   4.590   4.438   2.867 -0.0613 -0.5129 -0.4354
  720MOL0     C99286   4.699   4.432   2.967 -0.5677 -0.2005  0.5729
  720MOL0     C99287   4.792   4.414   3.046  0.0689  0.4316 -0.0337
  720MOL0     C99288   4.461   4.964   2.976 -0.7792  0.1585  0.1018
  720MOL0     C99289   4.364   5.006   3.071  0.4730  0.4603  0.3648
  720MOL0     C99290   4.414   5.041   3.203  0.5278 -0.4279 -0.9087
  720MOL0     H99291   3.893   4.909   3.280 -1.3671 -0.4889  0.6882
  720MOL0     H99292   3.712   4.981   3.417  1.1875 -0.0222  1.6689
  720MOL0     H99293   3.547   5.324   3.451 -0.6286  3.2027  0.8631
  720MOL0     H99294   3.705   5.388   3.409 -0.4082 -0.1151 -1.5541
  720MOL0     H99295   3.540   5.447   3.649 -1.9762 -0.0082 -3.0109
  720MOL0     H99296   3.725   5.438   3.664  1.9662  0.9331 -1.4981
  720MOL0     H99297   3.757   5.609   3.500  0.5588 -0.0041  1.8298
  720MOL0     H99298   3.585   5.599   3.442 -0.1373  2.4156 -0.2800
  720MOL0     H99299   3.502   5.696   3.647 -0.8828 -1.1979 -0.8909
  720MOL0     H99300   3.658   5.675   3.732 -2.4674 -4.1014 -0.8252
  720MOL0     H99301   3.756   5.834   3.585  0.0356 -1.0514  0.4696
  720MOL0     H99302   3.621   5.915   3.668  0.0850 -0.2982  0.5516
  720MOL0     H99303   3.628   5.815   3.381  0.9479  1.4392 -0.1640
  720MOL0     H99304   3.483   5.889   3.468 -0.1551 -1.8341  2.3824
  720MOL0     H99305   3.759   6.010   3.411 -0.0275 -0.9480 -0.2390
  720MOL0     H99306   3.636   6.095   3.507  0.0295 -1.6551  0.7510
  720MOL0     H99307   3.492   6.067   3.275  0.0488  1.5982 -0.8299
  720MOL0     H99308   3.610   6.189   3.288 -0.4987  0.4686 -0.4804
  720MOL0     H99309   3.539   5.849   3.135  3.4648 -3.2089 -0.9689
  720MOL0     H99310   3.570   5.763   2.902 -1.8577  0.7964 -0.0661
  720MOL0     H99311   3.743   5.739   2.904 -3.0510 -2.5233  0.8795
  720MOL0     H99312   3.626   5.947   2.702 -0.6713 -0.9768 -0.9614
  720MOL0     H99313   3.775   5.846   2.702 -0.0163 -4.0017 -1.1977
  720MOL0     H99314   3.604   5.647   2.688  0.7065  0.0084 -3.0904
  720MOL0     H99315   3.488   5.776   2.652 -1.1208 -1.2036 -1.2109
  720MOL0     H99316   3.504   5.718   2.450  0.1198 -2.2121  0.5845
  720MOL0     H99317   3.614   5.862   2.464  1.7766 -0.0392  0.6630
  720MOL0     H99318   3.616   5.653   2.198  2.3229 -1.0525 -1.1455
  720MOL0     H99319   3.493   5.566   2.038  0.4009  0.1933 -0.2054
  720MOL0     H99320   3.413   5.405   2.058 -1.5379  4.6278  0.2996
  720MOL0     H99321   3.576   5.427   1.981 -2.1716  2.8881 -3.2749
  720MOL0     H99322   3.493   5.156   1.845  0.7343 -2.3058 -3.5518
  720MOL0     H99323   3.436   4.975   1.708  0.5264 -3.7775  0.1390
  720MOL0     H99324   3.277   4.611   1.644 -0.2801  0.7456  0.0908
  720MOL0     H99325   3.405   4.731   1.647 -1.3711 -1.9676 -2.5937
  720MOL0     H99326   3.493   4.521   1.724 -0.0707 -2.2439  1.5254
  720MOL0     H99327   3.488   4.634   1.861 -1.6252 -1.3737  2.3814
  720MOL0     H99328   3.237   4.472   1.805  0.8395 -0.8909 -1.5255
  720MOL0     H99329   3.291   4.518   1.957  3.3346  4.1360 -0.5663
  720MOL0     H99330   3.446   4.328   1.965 -0.7204 -1.9549  0.7240
  720MOL0     H99331   3.423   4.302   1.794  1.0414 -0.3750  2.4799
  720MOL0     H99332   3.199   4.306   1.983  0.7237  1.4699  0.1595
  720MOL0     H99333   3.184   4.234   1.828 -3.7619 -0.2317  3.4869
  720MOL0     H99334   3.210   4.068   2.025  2.0011 -1.6019  1.0691
  720MOL0     H99335   3.373   4.145   2.022  1.3762 -1.1571 -0.2440
  720MOL0     H99336   3.419   4.036   1.794  0.9203 -6.1105 -1.5112
  720MOL0     H99337   3.246   3.997   1.783 -0.2982 -2.2846 -0.8033
  720MOL0     H99338   3.262   3.832   1.952  0.4964 -1.4814 -0.1908
  720MOL0     H99339   3.423   3.888   2.000  1.1675  3.2228 -0.6284
  720MOL0     H99340   3.269   4.761   2.029 -2.8446  0.2961 -3.9889
  720MOL0     H99341   3.397   4.908   2.190  0.1166  1.5233 -0.2197
  720MOL0     H99342   3.577   5.253   2.482  0.6634 -0.5034 -0.5062
  720MOL0     H99343   3.714   5.449   2.560  0.1112 -2.3851  0.6404
  720MOL0     H99344   3.936   5.340   3.526 -0.7945 -0.4841  1.6936
  720MOL0     H99345   4.132   5.247   3.419  1.0389  0.1031  0.6814
  720MOL0     H99346   4.103   4.982   2.841  0.0655 -1.1817  0.8429
  720MOL0     H99347   4.250   4.883   2.722  2.1884  0.6514 -0.3246
  720MOL0     H99348   4.686   4.793   2.676  0.5839  0.4196  0.4971
  720MOL0     H99349   4.693   4.898   2.820  2.0457 -1.8405  2.0648
  720MOL0     H99350   4.580   4.702   2.948 -0.1586 -0.2166  1.2500
  720MOL0     H99351   4.745   4.685   2.893 -0.2887 -0.4021 -0.5249
  720MOL0     H99352   4.489   4.584   2.745 -0.7979  4.0079 -0.6390
  720MOL0     H99353   4.657   4.549   2.697 -1.5272  0.1713  0.1116
  720MOL0     H99354   4.610   4.356   2.798  1.4611  0.5594 -1.3289
  720MOL0     H99355   4.495   4.427   2.920  1.2282  0.5323  2.3316
  720MOL0     H99356   4.885   4.407   3.099 -1.9830  0.5748  3.9613
  720MOL0     H99357   4.566   4.965   3.006 -1.0441 -2.3047  1.3293
  720MOL0     H99358   4.364   5.136   3.225  2.2170  0.5154 -0.9476
  720MOL0     H99359   4.385   4.967   3.277  0.2922 -1.8426 -2.3527
  720MOL0     H99360   4.522   5.055   3.192  0.5400  0.3881  0.1119
  721MOL0     O99361   7.712  11.285   6.750 -0.4051 -0.5045 -0.2299
  721MOL0     C99362   7.663  11.264   6.863 -0.3147 -0.2515 -0.2660
  721MOL0     O99363   7.708  11.182   6.953  0.9938 -0.5143 -0.0482
  721MOL0     C99364   7.809  11.095   6.924 -0.5709  0.0848  0.7309
  721MOL0     C99365   7.927  11.121   6.864 -1.1936  0.1200 -0.1348
  721MOL0     C99366   8.036  11.031   6.867 -0.3710  0.1190 -0.7951
  721MOL0     C99367   8.011  10.897   6.900  0.3477  0.2667  0.1751
  721MOL0     O99368   8.108  10.796   6.918  0.3574  0.4236  0.3264
  721MOL0     C99369   8.179  10.804   7.046  0.2422  0.5531  0.3062
  721MOL0     C99370   8.320  10.731   7.049  1.0280 -1.8233  0.5936
  721MOL0     C99371   8.326  10.577   7.068 -0.4425  0.2134 -0.0284
  721MOL0     C99372   8.342  10.551   7.220  0.6189 -1.0586  0.5452
  721MOL0     C99373   8.400  10.408   7.248  0.0683  0.4444 -0.1384
  721MOL0     C99374   8.406  10.382   7.398 -0.1037  0.4765  1.0365
  721MOL0     C99375   8.530  10.440   7.469 -0.0865 -0.0168  0.7956
  721MOL0     C99376   8.494  10.464   7.614 -0.4109  0.0945  0.1664
  721MOL0     N99377   8.604  10.542   7.674  0.4911  0.5426  0.8862
  721MOL0     C99378   8.734  10.502   7.693 -0.2802 -0.0244 -0.1631
  721MOL0     C99379   8.786  10.604   7.771 -1.1686 -0.7184 -0.1542
  721MOL0     C99380   8.911  10.603   7.857  0.4974 -0.1543  0.0253
  721MOL0     C99381   9.002  10.716   7.814 -0.9726  0.7041 -0.4390
  721MOL0     C99382   9.058  10.674   7.671  0.0537  0.0527 -0.1673
  721MOL0     C99383   9.164  10.757   7.595  0.1999 -0.3346 -0.2682
  721MOL0     O99384   9.188  10.728   7.459 -0.5241  0.2067 -0.7043
  721MOL0     C99385   9.292  10.650   7.417 -0.1872 -0.6166  0.2468
  721MOL0     C99386   9.406  10.615   7.492 -1.3469 -0.2859 -0.1199
  721MOL0     C99387   9.518  10.570   7.431  0.6739  0.0330 -0.3325
  721MOL0     C99388   9.633  10.532   7.521 -0.0218 -1.7067 -0.5635
  721MOL0     C99389   9.528  10.556   7.295  1.3140 -0.5228  0.2560
  721MOL0     C99390   9.639  10.488   7.215 -0.1218 -0.4579 -0.0075
  721MOL0     O99391   9.634  10.500   7.078  0.1105 -0.4364 -0.1528
  721MOL0     C99392   9.692  10.398   7.003 -0.0429  0.7527 -0.8702
  721MOL0     C99393   9.726  10.425   6.867  1.1196 -0.6955 -0.3855
  721MOL0     C99394   9.785  10.326   6.784 -0.5877  0.2008 -0.0614
  721MOL0     C99395   9.808  10.197   6.816  1.2838  0.3781  0.6535
  721MOL0     O99396   9.863  10.103   6.733  0.5335 -0.0239  0.4327
  721MOL0     C99397   9.997  10.075   6.754 -0.6402 -0.1928 -0.5729
  721MOL0     C99398  10.054   9.998   6.641  0.0573 -0.7290  0.2779
  721MOL0     C99399  10.187   9.929   6.677  0.0283 -0.5707  0.4550
  721MOL0     C99400  10.297  10.013   6.748 -0.2086  0.3369  0.8673
  721MOL0     C99401  10.433   9.962   6.762  0.4997  0.2165 -0.5972
  721MOL0     C99402  10.458   9.830   6.838  0.5570  0.1252 -0.8019
  721MOL0     C99403  10.601   9.802   6.872  0.1744 -0.0590  0.5233
  721MOL0     C99404  10.598   9.676   6.966  0.6711  0.1582 -0.1498
  721MOL0    Cl99405  10.748   9.587   7.007 -0.4449  0.1337  0.4912
  721MOL0     C99406   9.770  10.164   6.948  0.9597  1.3000  0.7653
  721MOL0     C99407   9.718  10.259   7.043  0.3249  0.1237 -0.3407
  721MOL0     O99408   9.734  10.434   7.275 -0.1619  0.5789 -0.9002
  721MOL0     C99409   9.419  10.588   7.219 -0.2166  0.4973  0.8001
  721MOL0     C99410   9.304  10.645   7.276  0.3437  0.1210 -0.0041
  721MOL0     N99411   8.687  10.703   7.777  0.2626  0.1422  0.5503
  721MOL0     N99412   8.577  10.665   7.720 -1.3601 -0.3928 -0.1587
  721MOL0     C99413   7.879  10.865   6.937  0.4585  0.0612  0.0780
  721MOL0     C99414   7.792  10.959   6.963  0.3355  0.4942 -0.1784
  721MOL0     C99415   7.543  11.348   6.895  1.0412  0.5542 -0.0747
  721MOL0     C99416   7.422  11.307   6.827 -0.4234 -0.2243 -0.7566
  721MOL0     C99417   7.314  11.390   6.830 -0.7393  0.2902  0.2571
  721MOL0     C99418   7.312  11.508   6.905  0.2689 -0.2169  0.7095
  721MOL0     O99419   7.202  11.590   6.927  0.2893  0.9966 -0.6487
  721MOL0     C99420   7.123  11.527   7.030 -0.2000  0.3868  0.4465
  721MOL0     C99421   7.003  11.629   7.061 -0.2498 -0.3825 -0.2001
  721MOL0     C99422   7.057  11.773   7.108  0.6144  0.9991  1.1228
  721MOL0     C99423   7.055  11.791   7.258  0.2516  1.0239  0.0582
  721MOL0     C99424   6.931  11.770   7.335  0.0220  0.3173 -0.7683
  721MOL0     C99425   6.838  11.749   7.410  0.1028  0.1472 -0.7258
  721MOL0     C99426   7.431  11.547   6.974  0.6995  0.5948 -0.6870
  721MOL0     C99427   7.546  11.468   6.971  0.6041 -1.1965  0.2998
  721MOL0     C99428   7.663  11.500   7.066 -0.9108 -0.3935 -0.1712
  721MOL0     H99429   7.939  11.227   6.844  0.5579  0.0767  0.4953
  721MOL0     H99430   8.123  11.076   6.821 -1.2508  0.3820 -2.2780
  721MOL0     H99431   8.123  10.760   7.129  0.3742  3.2992  1.9806
  721MOL0     H99432   8.197  10.909   7.069  3.3816 -0.5448  3.7171
  721MOL0     H99433   8.371  10.743   6.954 -1.5771 -1.4696 -0.8491
  721MOL0     H99434   8.379  10.779   7.128 -0.2692  0.0484  0.4812
  721MOL0     H99435   8.240  10.518   7.036  0.3529 -2.7971  2.7939
  721MOL0     H99436   8.413  10.548   7.008 -2.6398  0.7165 -3.7786
  721MOL0     H99437   8.401  10.620   7.282 -0.6447 -0.4523  1.1033
  721MOL0     H99438   8.246  10.554   7.273  1.4950 -1.2554  2.2258
  721MOL0     H99439   8.501  10.402   7.206 -0.3712  3.6646 -2.0525
  721MOL0     H99440   8.334  10.335   7.200  1.7908 -0.4506 -1.2389
  721MOL0     H99441   8.319  10.404   7.460 -1.2428 -1.8477  0.3846
  721MOL0     H99442   8.421  10.274   7.412 -1.6521  0.2209  0.8628
  721MOL0     H99443   8.560  10.535   7.425 -1.1993 -0.5252 -1.1640
  721MOL0     H99444   8.607  10.362   7.457 -1.9181 -1.8120  0.2340
  721MOL0     H99445   8.396  10.506   7.642  0.4697 -0.8924  6.0678
  721MOL0     H99446   8.488  10.365   7.659  0.5985 -0.9323 -1.8590
  721MOL0     H99447   8.775  10.410   7.653 -1.6558 -1.2319  1.0670
  721MOL0     H99448   8.966  10.510   7.843 -2.3573 -1.4988 -3.9193
  721MOL0     H99449   8.884  10.617   7.962  0.2422  4.8248 -0.4377
  721MOL0     H99450   8.942  10.807   7.804  0.7082  1.8582 -0.3650
  721MOL0     H99451   9.085  10.730   7.883 -0.4613 -1.5986 -0.5048
  721MOL0     H99452   9.080  10.567   7.669 -2.7559 -0.6314 -2.0360
  721MOL0     H99453   8.969  10.680   7.607  0.8271 -1.0479 -1.4092
  721MOL0     H99454   9.147  10.864   7.606  0.7047 -0.1603 -1.0395
  721MOL0     H99455   9.258  10.745   7.650  0.6836 -0.4038 -1.0896
  721MOL0     H99456   9.410  10.626   7.600  2.8489  2.9113 -0.3483
  721MOL0     H99457   9.726  10.573   7.479 -0.6194  1.1346  0.6601
  721MOL0     H99458   9.642  10.424   7.531  3.3330 -1.2920  4.8576
  721MOL0     H99459   9.617  10.576   7.619 -0.3100  2.4055 -2.2548
  721MOL0     H99460   9.711  10.523   6.822 -1.4403 -0.7388  0.2545
  721MOL0     H99461   9.812  10.358   6.684 -3.5000  0.4813 -0.8473
  721MOL0     H99462  10.062  10.162   6.769  0.5654 -1.1786  0.2155
  721MOL0     H99463  10.004  10.020   6.849  1.1981  0.3283 -0.3494
  721MOL0     H99464   9.977   9.933   6.599 -1.4688 -0.5036  2.5265
  721MOL0     H99465  10.075  10.077   6.569  0.0154  0.5201  1.5892
  721MOL0     H99466  10.225   9.890   6.582 -2.6957  1.3042 -1.5695
  721MOL0     H99467  10.157   9.835   6.724 -2.7339 -0.8359 -1.5772
  721MOL0     H99468  10.262  10.023   6.851  0.5504 -0.0797  1.1697
  721MOL0     H99469  10.302  10.117   6.714 -0.6042 -0.1932 -0.9214
  721MOL0     H99470  10.474   9.949   6.662  2.5013  0.0229  0.1999
  721MOL0     H99471  10.487  10.045   6.807 -2.2376  3.7264 -3.1828
  721MOL0     H99472  10.419   9.748   6.777  0.8098  1.0551 -2.2689
  721MOL0     H99473  10.395   9.837   6.927 -1.0005  2.2649 -1.9704
  721MOL0     H99474  10.655   9.886   6.918  1.2342 -0.9525  0.9400
  721MOL0     H99475  10.655   9.790   6.777 -1.8121  3.9256 -1.3823
  721MOL0     H99476  10.534   9.602   6.918 -0.1707  0.4742  0.4640
  721MOL0     H99477  10.554   9.703   7.063  0.0374  1.5491 -0.7846
  721MOL0     H99478   9.782  10.059   6.974 -3.2491  1.2027  3.2774
  721MOL0     H99479   9.680  10.233   7.141  1.3525  3.2721  0.9991
  721MOL0     H99480   9.414  10.589   7.110  2.3933  1.2712  0.6086
  721MOL0     H99481   9.226  10.676   7.206  0.1451 -1.2497 -0.4073
  721MOL0     H99482   7.859  10.763   6.966  2.9595 -0.4567  0.2494
  721MOL0     H99483   7.702  10.924   7.012  3.2349 -1.6975  4.1641
  721MOL0     H99484   7.436  11.216   6.769 -0.0244 -1.9307  1.8565
  721MOL0     H99485   7.219  11.371   6.781  0.1878  0.2986 -1.6234
  721MOL0     H99486   7.079  11.433   6.995 -0.6114 -0.3862  2.8531
  721MOL0     H99487   7.174  11.529   7.127  2.6703  0.2617 -0.9396
  721MOL0     H99488   6.930  11.585   7.130  1.0152 -1.6956  0.3510
  721MOL0     H99489   6.951  11.645   6.967  0.0585 -1.6822 -0.6147
  721MOL0     H99490   7.158  11.791   7.070  1.4417 -5.2811 -0.8130
  721MOL0     H99491   6.989  11.841   7.056 -2.3093 -1.0639  1.9784
  721MOL0     H99492   7.077  11.896   7.279  0.4815  1.6726 -2.9761
  721MOL0     H99493   7.132  11.720   7.290 -0.3007 -1.2930 -3.2154
  721MOL0     H99494   6.771  11.741   7.493 -2.1606 -1.6351 -2.5912
  721MOL0     H99495   7.426  11.642   7.026  0.0507 -0.3596  1.0556
  721MOL0     H99496   7.639  11.483   7.171  0.6429  2.3426  0.7377
  721MOL0     H99497   7.764  11.461   7.045 -1.2315 -1.0771 -0.4766
  721MOL0     H99498   7.672  11.608   7.058  4.4985 -0.4940  0.7125
  722MOL0     O99499   1.684   4.968   4.657 -0.3729 -0.1739  0.2268
  722MOL0     C99500   1.723   4.941   4.545 -0.7722 -0.3756 -0.3555
  722MOL0     O99501   1.664   4.855   4.459  0.4509  0.2863  0.4447
  722MOL0     C99502   1.543   4.807   4.499  0.0861 -0.2655 -0.9157
  722MOL0     C99503   1.428   4.888   4.498 -0.9270  0.6153 -0.0885
  722MOL0     C99504   1.302   4.834   4.522  0.0457  0.0045  0.0238
  722MOL0     C99505   1.282   4.699   4.545  0.0653 -0.3756  0.2004
  722MOL0     O99506   1.153   4.662   4.583  0.3982 -0.4080 -0.0191
  722MOL0     C99507   1.121   4.521   4.570 -0.2497 -0.5923 -0.5118
  722MOL0     C99508   0.971   4.499   4.552 -0.8032  0.2043  1.3170
  722MOL0     C99509   0.881   4.587   4.633 -0.3948  0.3945  1.4074
  722MOL0     C99510   0.731   4.532   4.631  0.6436  0.9790 -0.0100
  722MOL0     C99511   0.666   4.567   4.765  0.2860  0.0947  1.1572
  722MOL0     C99512   0.528   4.520   4.766  0.3106  0.2295  0.7071
  722MOL0     C99513   0.437   4.571   4.874  0.4328  0.2823 -0.7808
  722MOL0     C99514   0.406   4.725   4.861  1.1627  0.3007 -0.4348
  722MOL0     N99515   0.292   4.764   4.946  0.0999 -0.4876 -0.3039
  722MOL0     C99516   0.157   4.756   4.923  0.1824 -0.6619  0.7013
  722MOL0     C99517   0.098   4.823   5.028  0.4144 -0.7671 -0.2840
  722MOL0     C99518  -0.055   4.838   5.030  0.1297  0.7256  0.5842
  722MOL0     C99519  -0.099   4.969   4.964 -0.9475 -0.0325 -0.0865
  722MOL0     C99520  -0.253   4.955   4.940 -0.8219  0.0182  0.0901
  722MOL0     C99521  -0.313   5.081   4.889 -0.0721  0.1745  0.0156
  722MOL0     O99522  -0.458   5.055   4.869 -0.3832 -0.3785  0.1804
  722MOL0     C99523  -0.535   5.162   4.844  1.0256 -0.4112 -0.5915
  722MOL0     C99524  -0.491   5.280   4.804 -0.4630  0.2421  1.0772
  722MOL0     C99525  -0.575   5.387   4.766  0.2815  0.0253 -1.5197
  722MOL0     C99526  -0.512   5.507   4.699 -0.1900 -0.3162 -0.1298
  722MOL0     C99527  -0.718   5.360   4.782 -0.1020  0.1812  0.5510
  722MOL0     C99528  -0.826   5.462   4.735  0.0238 -0.0103  0.3515
  722MOL0     O99529  -0.959   5.428   4.731 -1.2355  0.1857  0.0750
  722MOL0     C99530  -1.043   5.534   4.719 -0.9134 -0.3651 -0.3048
  722MOL0     C99531  -1.133   5.516   4.616  0.0191  0.0391  0.2602
  722MOL0     C99532  -1.219   5.611   4.562 -0.5037 -0.5648  0.1373
  722MOL0     C99533  -1.248   5.722   4.638  0.3062 -1.0271 -0.6225
  722MOL0     O99534  -1.344   5.808   4.581  0.5604 -0.0987  0.5831
  722MOL0     C99535  -1.401   5.921   4.656  0.5481 -0.2685 -0.0040
  722MOL0     C99536  -1.480   5.885   4.783  0.0879 -0.7963  0.0464
  722MOL0     C99537  -1.586   5.785   4.755 -0.5967  0.1656  0.6892
  722MOL0     C99538  -1.708   5.868   4.706  0.6078  0.0785  0.1991
  722MOL0     C99539  -1.841   5.796   4.718  0.5313  0.2307 -0.3327
  722MOL0     C99540  -1.878   5.749   4.861 -0.0096  0.2729  0.0070
  722MOL0     C99541  -2.020   5.686   4.857 -0.4424  0.0191  0.8179
  722MOL0     C99542  -2.070   5.677   4.999 -0.4193 -0.0324 -0.7198
  722MOL0    Cl99543  -2.113   5.830   5.068  0.3604  0.2801  0.2125
  722MOL0     C99544  -1.167   5.744   4.754  0.5502 -0.1327 -0.1183
  722MOL0     C99545  -1.066   5.653   4.789  0.2563 -0.1235  0.2478
  722MOL0     O99546  -0.784   5.576   4.716  0.4583 -0.2051  0.0351
  722MOL0     C99547  -0.767   5.239   4.824 -0.2801 -0.5159 -0.4420
  722MOL0     C99548  -0.672   5.143   4.862 -0.3568 -0.3541 -0.0652
  722MOL0     N99549   0.197   4.863   5.118  0.1318 -0.2352  0.1879
  722MOL0     N99550   0.302   4.830   5.060 -0.4868  0.0520 -0.5058
  722MOL0     C99551   1.396   4.615   4.538 -0.1428  0.6547 -0.5258
  722MOL0     C99552   1.523   4.676   4.519 -0.1469 -0.4376 -0.5877
  722MOL0     C99553   1.844   5.017   4.491 -0.1130  0.1908 -0.7236
  722MOL0     C99554   1.953   4.945   4.456  0.4777  0.1370  0.1502
  722MOL0     C99555   2.065   5.002   4.401 -0.1730 -0.1610 -1.1942
  722MOL0     C99556   2.077   5.145   4.392  0.2764  0.4183 -0.4217
  722MOL0     O99557   2.187   5.193   4.329  0.0200 -0.6530 -0.2535
  722MOL0     C99558   2.291   5.215   4.431 -1.1525  0.7642 -0.7141
  722MOL0     C99559   2.337   5.357   4.424 -0.2480  0.7673  0.4134
  722MOL0     C99560   2.491   5.378   4.421 -0.1295 -0.3329 -0.4624
  722MOL0     C99561   2.510   5.527   4.447 -0.0053 -0.3289  0.3567
  722MOL0     C99562   2.495   5.557   4.592  0.7313 -0.3626 -0.2882
  722MOL0     C99563   2.464   5.583   4.706 -0.9767  0.7228  0.0706
  722MOL0     C99564   1.961   5.215   4.409 -0.9908 -0.0265  0.4373
  722MOL0     C99565   1.850   5.159   4.470 -0.6165  0.3694 -0.9330
  722MOL0     C99566   1.739   5.246   4.511  0.2903 -1.3575 -0.3239
  722MOL0     H99567   1.439   4.992   4.467 -0.0256  0.1951 -1.2318
  722MOL0     H99568   1.218   4.902   4.527  1.2305  1.5752 -0.4014
  722MOL0     H99569   1.148   4.473   4.664 -0.4628  0.4055  0.0699
  722MOL0     H99570   1.175   4.458   4.498  1.4614  0.7818 -0.4822
  722MOL0     H99571   0.951   4.501   4.444  0.5470 -1.5339  0.9971
  722MOL0     H99572   0.951   4.395   4.581  1.5187 -1.2587 -1.7547
  722MOL0     H99573   0.929   4.578   4.731  2.8761  1.4759  0.0605
  722MOL0     H99574   0.890   4.694   4.610  0.1583  0.1317  0.3455
  722MOL0     H99575   0.681   4.582   4.548  0.2957 -2.1771 -1.8540
  722MOL0     H99576   0.724   4.424   4.611  0.0881  0.7902  1.1399
  722MOL0     H99577   0.681   4.675   4.772  2.6840 -0.2965  4.8389
  722MOL0     H99578   0.725   4.530   4.850  3.7597 -0.1853 -1.1923
  722MOL0     H99579   0.468   4.541   4.677 -1.4331  0.7200  1.9375
  722MOL0     H99580   0.541   4.411   4.772  2.3536  0.4764  1.4838
  722MOL0     H99581   0.481   4.553   4.973  1.9929 -0.3499 -1.5393
  722MOL0     H99582   0.340   4.521   4.879 -0.9103  2.8132  0.1414
  722MOL0     H99583   0.487   4.797   4.875  1.4121  0.0625 -0.6298
  722MOL0     H99584   0.371   4.725   4.757 -0.1755  1.4322 -0.0194
  722MOL0     H99585   0.112   4.716   4.832 -0.5087  3.6661 -1.0907
  722MOL0     H99586  -0.096   4.830   5.131 -1.3088 -0.8822 -0.0965
  722MOL0     H99587  -0.096   4.754   4.973 -0.7207  0.6156  1.3529
  722MOL0     H99588  -0.068   5.053   5.026  2.8736 -1.5198  0.2374
  722MOL0     H99589  -0.053   4.983   4.867  0.4576 -1.6476  0.3037
  722MOL0     H99590  -0.258   4.870   4.870  0.3948  1.8193 -2.3504
  722MOL0     H99591  -0.309   4.935   5.031 -1.7552 -2.6213 -0.9586
  722MOL0     H99592  -0.295   5.161   4.962  0.9432 -0.9134  1.0034
  722MOL0     H99593  -0.251   5.111   4.805  3.9739  0.1771  2.7030
  722MOL0     H99594  -0.385   5.299   4.790 -1.0841  1.8487 -2.3891
  722MOL0     H99595  -0.549   5.508   4.596  0.0391  1.2890 -0.2138
  722MOL0     H99596  -0.405   5.506   4.681 -0.6353  1.5995 -3.7325
  722MOL0     H99597  -0.537   5.598   4.754  2.8398  0.9937 -0.7494
  722MOL0     H99598  -1.127   5.414   4.578 -4.9627 -0.5487  0.3472
  722MOL0     H99599  -1.260   5.596   4.463 -0.4525 -2.4985  0.3710
  722MOL0     H99600  -1.323   5.993   4.684 -1.9460  1.6805  2.4931
  722MOL0     H99601  -1.469   5.982   4.596 -0.9813 -2.0157 -0.1392
  722MOL0     H99602  -1.406   5.849   4.855  1.0505  2.9253  1.0950
  722MOL0     H99603  -1.521   5.975   4.829  1.3953  1.0436 -2.1939
  722MOL0     H99604  -1.616   5.731   4.846 -1.8259 -0.2788  0.0355
  722MOL0     H99605  -1.559   5.706   4.685 -0.2093  1.4745 -0.6881
  722MOL0     H99606  -1.685   5.904   4.606  0.4215 -0.5757 -0.0835
  722MOL0     H99607  -1.722   5.952   4.776 -1.5313 -1.7471  2.1184
  722MOL0     H99608  -1.923   5.853   4.675  0.9294  1.8119  0.9087
  722MOL0     H99609  -1.834   5.702   4.661  1.2192  0.6950 -1.0318
  722MOL0     H99610  -1.866   5.827   4.938  2.7127 -1.2699  1.3212
  722MOL0     H99611  -1.815   5.672   4.907 -0.8216  0.8667  2.2606
  722MOL0     H99612  -2.012   5.584   4.817  1.5733 -0.1562  1.5765
  722MOL0     H99613  -2.080   5.761   4.806  2.8422  3.7915  2.0302
  722MOL0     H99614  -2.003   5.619   5.063 -1.6238 -1.8182 -1.0110
  722MOL0     H99615  -2.164   5.623   4.979  0.0236  0.0463 -3.4048
  722MOL0     H99616  -1.189   5.831   4.815 -1.8636 -1.7978  1.5705
  722MOL0     H99617  -1.002   5.662   4.876  0.2287 -3.1559  0.6671
  722MOL0     H99618  -0.871   5.209   4.826  0.3467 -2.9347 -0.9598
  722MOL0     H99619  -0.703   5.044   4.895 -2.6861  1.0610  2.3228
  722MOL0     H99620   1.387   4.511   4.566 -1.2981  1.4763  2.5957
  722MOL0     H99621   1.612   4.613   4.513 -0.5528 -1.3717  2.1392
  722MOL0     H99622   1.941   4.838   4.469 -0.9369  0.3518  0.8151
  722MOL0     H99623   2.160   4.951   4.390 -0.8514 -1.4535 -1.2118
  722MOL0     H99624   2.265   5.189   4.534  0.5096 -0.1570 -0.5022
  722MOL0     H99625   2.369   5.141   4.414 -2.4867 -0.2708 -2.6647
  722MOL0     H99626   2.297   5.423   4.501  2.0396  0.2103  2.1836
  722MOL0     H99627   2.294   5.399   4.332  0.9487  0.4073 -0.3437
  722MOL0     H99628   2.544   5.305   4.482  1.2053 -1.8491 -3.2556
  722MOL0     H99629   2.525   5.380   4.317  1.8651  4.1005  0.0292
  722MOL0     H99630   2.447   5.592   4.387  0.6209 -0.5825 -0.6080
  722MOL0     H99631   2.612   5.553   4.417  0.1125 -0.5027  0.5979
  722MOL0     H99632   2.450   5.630   4.802 -0.3528  2.3890 -0.6229
  722MOL0     H99633   1.976   5.320   4.383 -0.0497 -0.2364  0.0833
  722MOL0     H99634   1.750   5.347   4.472 -0.7198 -1.3109 -0.4988
  722MOL0     H99635   1.656   5.199   4.457 -0.5303 -0.7660  0.4033
  722MOL0     H99636   1.715   5.264   4.616  0.0503 -0.3574 -0.5473
  723MOL0     O99637   2.103   7.274  10.039 -0.7366  0.4105 -0.1324
  723MOL0     C99638   2.004   7.231   9.983 -0.5198  1.1154 -0.0220
  723MOL0     O99639   1.953   7.103   9.999 -0.1159  0.7510  0.5674
  723MOL0     C99640   2.042   7.004  10.039  0.3045 -0.9722  1.3475
  723MOL0     C99641   2.114   6.932   9.941 -1.5702 -0.2231 -0.8322
  723MOL0     C99642   2.193   6.828   9.987 -0.0220 -0.3153  0.5088
  723MOL0     C99643   2.207   6.791  10.124  0.1618 -0.1259 -0.6200
  723MOL0     O99644   2.271   6.681  10.165 -0.3556  0.2569 -0.4835
  723MOL0     C99645   2.173   6.577  10.186 -0.4915 -0.7731  0.6357
  723MOL0     C99646   2.255   6.455  10.216 -0.7784 -0.3011 -0.0696
  723MOL0     C99647   2.309   6.393  10.085  0.2919  0.4737 -0.4525
  723MOL0     C99648   2.213   6.295  10.022 -0.4878 -0.2132 -0.5447
  723MOL0     C99649   2.254   6.210   9.899  0.4679  1.2014 -0.2663
  723MOL0     C99650   2.280   6.309   9.786  0.0472 -0.0823 -0.3397
  723MOL0     C99651   2.255   6.260   9.646  0.4603  0.3394 -0.7626
  723MOL0     C99652   2.326   6.126   9.617 -0.1276  0.3534 -0.4186
  723MOL0     N99653   2.275   6.066   9.496 -0.6941  0.2659  0.3984
  723MOL0     C99654   2.327   6.087   9.366  0.1319  0.1437 -0.8272
  723MOL0     C99655   2.259   5.999   9.290  0.2065 -0.6416  0.3752
  723MOL0     C99656   2.267   5.961   9.144 -0.3239  0.2412  0.1730
  723MOL0     C99657   2.361   5.846   9.102 -1.1703  1.0654 -0.2499
  723MOL0     C99658   2.338   5.701   9.158  0.4914  0.3984  0.1891
  723MOL0     C99659   2.190   5.645   9.130  0.1447  0.3053  0.6964
  723MOL0     O99660   2.178   5.504   9.180  0.0089 -0.1792 -0.3165
  723MOL0     C99661   2.241   5.394   9.127 -0.2784 -1.0246 -0.9224
  723MOL0     C99662   2.311   5.392   9.010 -0.2540  0.7462  0.3142
  723MOL0     C99663   2.375   5.278   8.967 -0.5118 -0.4934  0.2152
  723MOL0     C99664   2.457   5.278   8.841  0.1984  0.3955  0.0767
  723MOL0     C99665   2.356   5.158   9.041  0.6744  0.2257  0.5498
  723MOL0     C99666   2.415   5.034   9.000  1.0398  1.4172  0.6957
  723MOL0     O99667   2.321   4.941   8.951 -0.2990  0.1475 -0.6741
  723MOL0     C99668   2.351   4.809   8.938  0.5191  0.0356  0.1629
  723MOL0     C99669   2.472   4.745   8.964 -0.0226  0.5892 -0.6942
  723MOL0     C99670   2.480   4.610   8.947 -1.0108 -0.6485  0.0020
  723MOL0     C99671   2.371   4.541   8.892  0.0179  0.5227  0.7590
  723MOL0     O99672   2.372   4.403   8.883  0.4658 -0.2363  0.7028
  723MOL0     C99673   2.464   4.321   8.946  0.7478  0.1050 -0.6709
  723MOL0     C99674   2.383   4.194   8.959 -0.3786  0.2147 -0.1829
  723MOL0     C99675   2.253   4.207   9.045 -1.0868  0.6435 -0.8633
  723MOL0     C99676   2.139   4.144   8.966 -0.4594 -0.8070  0.6450
  723MOL0     C99677   2.033   4.101   9.071  0.4322 -0.3748 -1.2103
  723MOL0     C99678   1.890   4.082   9.021  1.0351 -0.8416  0.1310
  723MOL0     C99679   1.795   3.996   9.112 -0.2661  0.0218 -0.0999
  723MOL0     C99680   1.658   3.965   9.066 -0.0119  0.6799  1.3416
  723MOL0    Cl99681   1.666   3.876   8.913  0.4040 -0.1350 -0.0761
  723MOL0     C99682   2.257   4.603   8.849  0.6398  0.4205 -0.0498
  723MOL0     C99683   2.257   4.735   8.868 -0.3892  0.6978 -0.9119
  723MOL0     O99684   2.535   5.024   8.989  0.5736 -0.4586 -0.4241
  723MOL0     C99685   2.272   5.152   9.154 -1.1696  0.6125  0.1369
  723MOL0     C99686   2.217   5.277   9.197 -0.1562 -0.4943  1.6230
  723MOL0     N99687   2.160   5.937   9.359  0.3636  0.4623  0.4350
  723MOL0     N99688   2.184   5.959   9.486 -0.1996  0.3868 -0.4137
  723MOL0     C99689   2.152   6.877  10.215  0.1928  0.7329  0.7467
  723MOL0     C99690   2.059   6.968  10.177  0.0274  0.0205  0.2380
  723MOL0     C99691   1.937   7.311   9.885  0.6567 -0.6140 -0.6907
  723MOL0     C99692   1.801   7.272   9.849 -0.3086  0.4687  0.4872
  723MOL0     C99693   1.740   7.332   9.732 -1.0566 -0.0726 -0.0865
  723MOL0     C99694   1.802   7.438   9.671  0.1065  0.9661 -0.2213
  723MOL0     O99695   1.754   7.468   9.549  0.6235 -0.0879 -0.4985
  723MOL0     C99696   1.809   7.423   9.425 -0.7611 -0.0166  0.2674
  723MOL0     C99697   1.709   7.407   9.322  0.8200  0.4969  0.2980
  723MOL0     C99698   1.583   7.344   9.384 -0.3154 -0.1049  0.9434
  723MOL0     C99699   1.514   7.243   9.281 -0.0696 -0.3764  0.0565
  723MOL0     C99700   1.384   7.199   9.335 -1.1742 -0.7933  0.2333
  723MOL0     C99701   1.292   7.132   9.382 -0.5761  0.7554  1.1263
  723MOL0     C99702   1.924   7.484   9.713  0.3192  1.1219 -0.7131
  723MOL0     C99703   1.991   7.427   9.821 -0.7172 -0.6766 -0.1907
  723MOL0     C99704   2.130   7.478   9.844  0.4919  0.9019 -0.1930
  723MOL0     H99705   2.096   6.945   9.835  1.7236 -3.0555 -1.9445
  723MOL0     H99706   2.257   6.769   9.923  2.5565 -1.1224  3.5490
  723MOL0     H99707   2.122   6.553  10.092  1.5157  0.4752 -0.8325
  723MOL0     H99708   2.105   6.595  10.270 -5.0653  2.2051 -3.1747
  723MOL0     H99709   2.336   6.477  10.287  0.7755 -2.1859 -1.1569
  723MOL0     H99710   2.193   6.389  10.277  1.5721 -0.8794  1.8639
  723MOL0     H99711   2.347   6.472  10.020  0.4444  1.7151  1.0959
  723MOL0     H99712   2.395   6.332  10.113  0.9745 -0.6829 -4.4392
  723MOL0     H99713   2.183   6.221  10.097  0.3705  1.0313  1.1087
  723MOL0     H99714   2.121   6.351  10.002  0.1166  0.5634 -1.2132
  723MOL0     H99715   2.177   6.137   9.875  0.2607  0.6417  1.9091
  723MOL0     H99716   2.345   6.158   9.932 -0.7645  0.7760  2.7967
  723MOL0     H99717   2.230   6.407   9.794 -1.7928 -1.0770  1.6912
  723MOL0     H99718   2.382   6.347   9.790  0.3191 -0.5780 -1.9034
  723MOL0     H99719   2.284   6.332   9.569  4.6060  0.8340  0.9921
  723MOL0     H99720   2.147   6.245   9.639  0.2867  0.6530  0.8722
  723MOL0     H99721   2.433   6.141   9.604  0.1247  0.1505  1.2866
  723MOL0     H99722   2.319   6.057   9.702  3.8073  0.8705  0.4980
  723MOL0     H99723   2.412   6.152   9.346  0.0476  1.3614  2.2540
  723MOL0     H99724   2.292   6.057   9.098  2.0070 -0.2439  0.3344
  723MOL0     H99725   2.165   5.948   9.107  0.3836  1.6768 -2.5957
  723MOL0     H99726   2.361   5.838   8.993 -0.6477 -1.4756 -0.1248
  723MOL0     H99727   2.456   5.880   9.145 -0.4187 -0.8799 -0.2906
  723MOL0     H99728   2.402   5.632   9.102  2.6013  1.0955  1.6477
  723MOL0     H99729   2.367   5.689   9.263  2.2711 -1.8626 -0.4765
  723MOL0     H99730   2.114   5.714   9.169  0.6878  0.1499  2.0829
  723MOL0     H99731   2.171   5.648   9.023 -1.7846  0.3783  0.9943
  723MOL0     H99732   2.312   5.483   8.951 -3.2558  1.7136  1.5352
  723MOL0     H99733   2.548   5.338   8.851  1.0068 -0.5969 -1.0608
  723MOL0     H99734   2.389   5.315   8.764 -0.6247 -0.5765  0.3091
  723MOL0     H99735   2.505   5.181   8.820  1.0984  1.3583 -2.8164
  723MOL0     H99736   2.560   4.793   9.003 -1.8401  1.5057  2.6611
  723MOL0     H99737   2.579   4.577   8.975 -0.7290  0.1782  0.0139
  723MOL0     H99738   2.557   4.310   8.889  0.1063  0.4216 -1.8101
  723MOL0     H99739   2.481   4.365   9.045  0.1666  1.8153 -1.2896
  723MOL0     H99740   2.367   4.158   8.857  2.0255 -0.0730 -0.5072
  723MOL0     H99741   2.455   4.126   9.006  1.4493  1.4802 -1.0683
  723MOL0     H99742   2.235   4.307   9.086  2.3230  1.5569 -1.2575
  723MOL0     H99743   2.279   4.148   9.133  0.7904  2.3081 -0.2208
  723MOL0     H99744   2.179   4.061   8.908  4.8323  0.5750  1.8151
  723MOL0     H99745   2.094   4.223   8.904  0.8422  0.6040  1.4181
  723MOL0     H99746   2.059   4.006   9.120 -1.0620 -0.8609 -1.3182
  723MOL0     H99747   2.027   4.181   9.145  1.9442 -1.0649 -0.2784
  723MOL0     H99748   1.909   4.043   8.921  1.0769  2.1906 -1.1663
  723MOL0     H99749   1.838   4.177   9.003 -1.6481 -1.8629  1.7889
  723MOL0     H99750   1.794   4.043   9.211  1.6797  2.1186 -0.9696
  723MOL0     H99751   1.846   3.900   9.119  1.1527  0.8729  3.2636
  723MOL0     H99752   1.592   4.051   9.047 -4.0562 -2.3180  0.5625
  723MOL0     H99753   1.612   3.896   9.138  0.3694 -1.6066 -0.5102
  723MOL0     H99754   2.162   4.562   8.815  1.5361  0.5871 -2.9980
  723MOL0     H99755   2.179   4.802   8.832  0.0409  2.7610  1.6686
  723MOL0     H99756   2.257   5.061   9.211 -4.4687  0.4931 -0.7010
  723MOL0     H99757   2.146   5.285   9.279 -3.0323 -1.0710 -0.6838
  723MOL0     H99758   2.159   6.855  10.321  0.6297  1.2248  0.8242
  723MOL0     H99759   1.998   7.032  10.240  0.7305  0.7042  0.2451
  723MOL0     H99760   1.749   7.183   9.884 -1.1231  0.2716 -1.1309
  723MOL0     H99761   1.637   7.319   9.699 -0.4652 -0.9038 -1.6661
  723MOL0     H99762   1.874   7.501   9.386  1.5599 -2.0836 -0.2546
  723MOL0     H99763   1.868   7.331   9.435 -0.4675  0.2871  1.5027
  723MOL0     H99764   1.747   7.338   9.246 -1.1075  1.6706 -1.8623
  723MOL0     H99765   1.681   7.503   9.278 -0.6046  1.0761  2.3447
  723MOL0     H99766   1.618   7.291   9.473  2.3899 -1.3657 -0.7234
  723MOL0     H99767   1.517   7.426   9.413 -2.2666 -0.8013 -1.2260
  723MOL0     H99768   1.578   7.155   9.271 -3.8096 -3.0694 -2.5053
  723MOL0     H99769   1.494   7.283   9.181 -3.6703 -0.8392  0.4590
  723MOL0     H99770   1.206   7.081   9.421 -0.6073 -1.4232 -1.4384
  723MOL0     H99771   1.971   7.558   9.649 -1.2502  1.7210 -1.1963
  723MOL0     H99772   2.164   7.549   9.768  2.3184  1.6229  1.2135
  723MOL0     H99773   2.145   7.523   9.942  0.9569 -0.2941  0.3073
  723MOL0     H99774   2.198   7.392   9.840 -1.6379 -0.9942  1.2592
  724MOL0     O99775   2.492   3.646   7.882  0.4147 -0.2957  0.4538
  724MOL0     C99776   2.383   3.683   7.929  0.5279  1.4835  0.3097
  724MOL0     O99777   2.344   3.810   7.944  0.1813  0.2295 -0.6746
  724MOL0     C99778   2.408   3.903   7.870  0.9345 -0.5795  1.6480
  724MOL0     C99779   2.510   3.980   7.917  0.3249 -0.3932 -0.9810
  724MOL0     C99780   2.573   4.075   7.840  0.1165 -1.1139  0.2120
  724MOL0     C99781   2.544   4.106   7.705 -0.0194 -0.6658 -0.1666
  724MOL0     O99782   2.614   4.200   7.631 -0.6385 -0.4907  0.4290
  724MOL0     C99783   2.543   4.296   7.551 -0.5353  0.3776 -0.5908
  724MOL0     C99784   2.564   4.266   7.405  0.4689  0.5436  0.5374
  724MOL0     C99785   2.705   4.299   7.347  0.4109  0.4655 -0.1435
  724MOL0     C99786   2.689   4.269   7.198 -0.4344 -0.5818 -0.1023
  724MOL0     C99787   2.809   4.322   7.118  0.7031 -0.3989  0.2271
  724MOL0     C99788   2.827   4.471   7.151 -0.2969  0.3125  0.3601
  724MOL0     C99789   2.903   4.563   7.046  0.2959 -0.1704  0.1377
  724MOL0     C99790   2.939   4.701   7.081 -0.2659  0.6641 -0.4083
  724MOL0     N99791   2.835   4.800   7.089  0.1675  0.2214 -0.0071
  724MOL0     C99792   2.799   4.890   7.001 -0.2644 -0.3161  0.5525
  724MOL0     C99793   2.693   4.963   7.062 -0.0744 -1.4175 -1.1324
  724MOL0     C99794   2.634   5.096   7.028  0.6380 -0.3310 -0.2119
  724MOL0     C99795   2.550   5.091   6.898 -0.3145 -0.3387 -0.3604
  724MOL0     C99796   2.434   4.990   6.899 -1.0056 -0.4450 -0.3860
  724MOL0     C99797   2.344   5.013   6.786 -0.1750 -0.0676  0.2405
  724MOL0     O99798   2.392   4.971   6.661  0.0264 -1.0596 -0.2330
  724MOL0     C99799   2.305   4.995   6.550 -0.2347 -0.0148  0.3352
  724MOL0     C99800   2.185   5.063   6.550 -0.5153  1.5306  0.0303
  724MOL0     C99801   2.092   5.049   6.445 -0.1252  0.8428 -0.0171
  724MOL0     C99802   1.963   5.119   6.485 -0.9128 -0.0371  0.5115
  724MOL0     C99803   2.132   4.983   6.323  0.9408  0.4783 -0.2004
  724MOL0     C99804   2.055   4.990   6.197 -0.1211  0.5933  0.3022
  724MOL0     O99805   2.120   4.955   6.082  0.1642 -0.2924 -0.1323
  724MOL0     C99806   2.045   4.971   5.971  0.5136 -1.0250  0.3351
  724MOL0     C99807   1.924   4.910   5.958  0.3567 -0.9698 -0.1409
  724MOL0     C99808   1.843   4.913   5.838 -0.3915 -0.4425  0.0448
  724MOL0     C99809   1.893   5.000   5.735 -0.2758 -0.2445 -0.3807
  724MOL0     O99810   1.813   5.008   5.624 -0.0539  0.2192  0.7821
  724MOL0     C99811   1.802   5.139   5.567  0.8333 -1.2305 -0.3800
  724MOL0     C99812   1.665   5.184   5.539  0.9203 -0.0050  0.4470
  724MOL0     C99813   1.641   5.316   5.459  0.0991  1.2391 -0.4388
  724MOL0     C99814   1.495   5.356   5.465  0.7169 -1.3419  0.3368
  724MOL0     C99815   1.489   5.490   5.387  0.4485  0.2274  0.1287
  724MOL0     C99816   1.357   5.559   5.399  0.6620 -0.7069  0.9586
  724MOL0     C99817   1.348   5.647   5.281  0.0659  0.1727  0.2479
  724MOL0     C99818   1.206   5.696   5.265  0.5055  0.6257 -0.7894
  724MOL0    Cl99819   1.175   5.865   5.342 -0.1960  0.2998  0.4131
  724MOL0     C99820   2.024   5.056   5.758  0.2714 -0.5231 -0.7615
  724MOL0     C99821   2.099   5.035   5.863  0.2208 -0.3409  0.3808
  724MOL0     O99822   1.934   5.025   6.210 -0.1486 -1.0284  0.6305
  724MOL0     C99823   2.259   4.944   6.312 -0.6777  0.1451  0.1023
  724MOL0     C99824   2.346   4.939   6.429 -0.3128  0.2628 -0.1335
  724MOL0     N99825   2.665   4.896   7.179  1.2205  0.3042 -0.1090
  724MOL0     N99826   2.752   4.797   7.195 -0.2615  0.4893  0.1616
  724MOL0     C99827   2.444   4.022   7.653 -0.2782 -0.1865  0.8689
  724MOL0     C99828   2.381   3.927   7.737  0.5448 -0.3707  0.2965
  724MOL0     C99829   2.311   3.575   7.990  0.0341  0.9557  0.1167
  724MOL0     C99830   2.388   3.484   8.066  0.3766  1.3938 -0.0040
  724MOL0     C99831   2.316   3.371   8.108  0.6430 -0.0334  0.3672
  724MOL0     C99832   2.182   3.344   8.071 -0.1832 -0.3421 -0.3152
  724MOL0     O99833   2.145   3.220   8.103  0.9934 -0.1254  0.1799
  724MOL0     C99834   2.064   3.146   8.000 -0.2353 -0.0740  0.1647
  724MOL0     C99835   1.929   3.118   8.061 -0.1703  0.3566 -0.3076
  724MOL0     C99836   1.864   2.989   8.004 -0.3594 -0.4332 -0.3371
  724MOL0     C99837   1.722   2.978   8.051  0.3672  0.4272 -0.2051
  724MOL0     C99838   1.638   3.061   7.971  0.0655  0.6918  0.1457
  724MOL0     C99839   1.547   3.119   7.922  0.4659  1.1316  0.2338
  724MOL0     C99840   2.110   3.439   8.001  0.2338 -0.2638 -0.1768
  724MOL0     C99841   2.171   3.562   7.956  1.1895  0.5987  0.9529
  724MOL0     C99842   2.094   3.656   7.859 -0.3144 -0.0501  0.3328
  724MOL0     H99843   2.551   3.959   8.016  1.4818 -0.5857 -1.4901
  724MOL0     H99844   2.654   4.135   7.883  0.1704  0.1902 -1.5736
  724MOL0     H99845   2.574   4.399   7.571  2.6337 -0.6227  0.2332
  724MOL0     H99846   2.435   4.292   7.565 -0.1252 -0.4141  4.0643
  724MOL0     H99847   2.549   4.159   7.386 -2.0522  0.7665  1.0191
  724MOL0     H99848   2.482   4.324   7.361  0.1916 -0.0850  0.2147
  724MOL0     H99849   2.716   4.406   7.365  2.2172  0.1520  0.8821
  724MOL0     H99850   2.794   4.259   7.396 -0.0039 -0.1004  0.1603
  724MOL0     H99851   2.677   4.160   7.197 -0.2424 -0.6182  0.8809
  724MOL0     H99852   2.603   4.313   7.146 -1.2000 -1.2106  0.5979
  724MOL0     H99853   2.797   4.306   7.010  2.3261  4.9037 -1.0433
  724MOL0     H99854   2.901   4.266   7.139  1.3736  0.2809 -0.7766
  724MOL0     H99855   2.725   4.506   7.171 -0.6022 -0.3979  0.0797
  724MOL0     H99856   2.877   4.477   7.248  1.2893  4.5042 -0.4902
  724MOL0     H99857   2.850   4.580   6.951 -2.0031  2.1003  1.6651
  724MOL0     H99858   2.994   4.515   7.008 -0.5236 -1.0044 -0.8408
  724MOL0     H99859   3.000   4.700   7.172  2.0456 -0.5128 -1.8728
  724MOL0     H99860   3.012   4.717   7.001  0.1578 -1.7973 -0.6050
  724MOL0     H99861   2.848   4.912   6.907  1.5501 -1.1197  1.2778
  724MOL0     H99862   2.720   5.162   7.013 -0.0420  0.2371 -1.8696
  724MOL0     H99863   2.566   5.124   7.109  0.8053 -1.5710  0.3751
  724MOL0     H99864   2.525   5.194   6.872  2.9340  0.7197  0.2299
  724MOL0     H99865   2.615   5.066   6.814  0.5770  1.6607 -0.3279
  724MOL0     H99866   2.477   4.890   6.901  0.6252  0.0840 -3.5590
  724MOL0     H99867   2.382   5.020   6.991 -0.1368 -4.2843  1.5630
  724MOL0     H99868   2.245   4.967   6.797 -0.1009 -0.4766 -0.7795
  724MOL0     H99869   2.325   5.120   6.772 -0.8295 -0.1655  0.3297
  724MOL0     H99870   2.160   5.109   6.645  1.0189  2.2998  0.0938
  724MOL0     H99871   1.948   5.208   6.423 -0.7074 -0.1064  0.3622
  724MOL0     H99872   1.963   5.159   6.587  1.9803 -1.1715  1.0571
  724MOL0     H99873   1.887   5.048   6.451  0.4719 -0.5570 -1.7106
  724MOL0     H99874   1.889   4.854   6.045  2.1595  0.5851  1.6954
  724MOL0     H99875   1.750   4.860   5.819  0.6768 -2.5403  0.4840
  724MOL0     H99876   1.845   5.219   5.627  0.2954  0.3265 -1.9644
  724MOL0     H99877   1.867   5.148   5.480 -0.9651 -0.0211 -1.6915
  724MOL0     H99878   1.604   5.104   5.496  2.8613 -1.9361  1.0544
  724MOL0     H99879   1.621   5.187   5.639  2.6294  1.1576  1.2245
  724MOL0     H99880   1.675   5.290   5.358  0.1136 -3.2396  0.5138
  724MOL0     H99881   1.708   5.393   5.500  1.9872 -0.9795  0.8807
  724MOL0     H99882   1.464   5.376   5.568 -2.7069  2.9258 -1.2262
  724MOL0     H99883   1.419   5.287   5.426 -4.0208  2.7534  1.3390
  724MOL0     H99884   1.571   5.560   5.405  0.6238 -0.1305  0.7167
  724MOL0     H99885   1.518   5.465   5.284 -1.2802  1.1130 -0.6364
  724MOL0     H99886   1.355   5.614   5.494  1.5378 -0.3071  0.7557
  724MOL0     H99887   1.271   5.492   5.392  0.7601 -0.6510 -1.5589
  724MOL0     H99888   1.381   5.602   5.186  2.4957  0.6927  0.7785
  724MOL0     H99889   1.414   5.734   5.279  0.7723 -0.3567 -1.3804
  724MOL0     H99890   1.127   5.626   5.294  1.2038  0.3710  0.5783
  724MOL0     H99891   1.199   5.707   5.157 -0.0352 -1.1572 -0.9814
  724MOL0     H99892   2.065   5.098   5.667 -2.6414  3.2353 -0.5964
  724MOL0     H99893   2.203   5.066   5.866  0.0937  0.2600 -0.7354
  724MOL0     H99894   2.298   4.895   6.224  0.1261 -0.5460  0.8191
  724MOL0     H99895   2.441   4.890   6.412 -0.7515 -0.4898 -0.4607
  724MOL0     H99896   2.400   4.028   7.554 -0.6937  1.2656  1.1183
  724MOL0     H99897   2.318   3.855   7.686 -0.2571  1.3441 -1.2644
  724MOL0     H99898   2.493   3.499   8.089  0.5668  1.5365 -0.9220
  724MOL0     H99899   2.359   3.295   8.172  1.1389  0.7242  0.9433
  724MOL0     H99900   2.050   3.200   7.906 -2.0423 -3.7037 -1.8575
  724MOL0     H99901   2.110   3.048   7.987 -1.2001 -0.5171 -0.0020
  724MOL0     H99902   1.864   3.206   8.063  0.5637  0.9519 -1.3437
  724MOL0     H99903   1.939   3.091   8.166  0.7365  0.5564 -0.3322
  724MOL0     H99904   1.873   2.986   7.895 -2.0484  1.3960 -0.5781
  724MOL0     H99905   1.921   2.912   8.057  1.3347  0.7035 -0.4398
  724MOL0     H99906   1.725   2.996   8.158 -0.6589  0.2132 -0.1332
  724MOL0     H99907   1.685   2.876   8.035 -0.2822  0.5794  0.2806
  724MOL0     H99908   1.451   3.159   7.898  0.9487  1.1967 -1.7411
  724MOL0     H99909   2.004   3.433   7.977 -0.0843 -2.0896  1.4209
  724MOL0     H99910   2.163   3.689   7.782 -1.2689 -0.9908 -0.9695
  724MOL0     H99911   2.012   3.596   7.819 -0.4064  1.0940 -1.2677
  724MOL0     H99912   2.047   3.739   7.913  2.3063  0.5295  1.8903
  725MOL0     O99913   6.622   1.941   7.546  0.4722 -0.5894 -1.1695
  725MOL0     C99914   6.633   2.049   7.483  0.2395 -0.2581 -0.8724
  725MOL0     O99915   6.525   2.129   7.448 -0.2503 -0.2856 -0.1918
  725MOL0     C99916   6.392   2.107   7.470 -0.2972  0.2331 -0.6206
  725MOL0     C99917   6.343   2.095   7.604  0.6545  0.6178  0.0164
  725MOL0     C99918   6.211   2.054   7.628 -0.2787  0.1179  0.8756
  725MOL0     C99919   6.126   2.023   7.537  0.4595  0.6197 -0.6328
  725MOL0     O99920   6.002   1.981   7.576 -0.3213 -0.1248  0.0288
  725MOL0     C99921   5.901   2.090   7.585  0.6811  0.8392  0.7258
  725MOL0     C99922   5.793   2.012   7.660 -0.2790 -0.7786  0.5313
  725MOL0     C99923   5.837   1.976   7.810 -0.2913  0.2387 -0.4020
  725MOL0     C99924   5.853   2.099   7.902 -1.1930  0.5183 -0.3739
  725MOL0     C99925   5.837   2.076   8.049 -0.1409  0.8876 -0.7273
  725MOL0     C99926   5.962   1.994   8.109 -0.0889 -0.8991  0.5851
  725MOL0     C99927   6.062   2.091   8.169 -0.0209  0.0385  0.0232
  725MOL0     C99928   6.184   2.008   8.219 -0.0000 -0.8723  0.9368
  725MOL0     N99929   6.279   2.097   8.285 -0.8298  0.2416 -0.0213
  725MOL0     C99930   6.295   2.113   8.421 -0.2569 -0.3294 -0.8229
  725MOL0     C99931   6.414   2.187   8.426 -0.0436 -0.6038 -0.0102
  725MOL0     C99932   6.470   2.245   8.548  0.1855  0.4174  0.6507
  725MOL0     C99933   6.617   2.183   8.566  0.3961 -0.6243  0.4984
  725MOL0     C99934   6.611   2.031   8.588  0.8145 -0.6799 -0.1607
  725MOL0     C99935   6.739   1.969   8.636 -0.3392  0.0472  0.2675
  725MOL0     O99936   6.758   2.025   8.767  0.4738 -0.3780  0.3883
  725MOL0     C99937   6.868   1.985   8.833 -0.6428 -0.4921 -0.6714
  725MOL0     C99938   6.937   1.856   8.817 -0.6859  0.5077 -0.1747
  725MOL0     C99939   7.027   1.818   8.922 -0.5846 -0.4054 -1.1295
  725MOL0     C99940   7.086   1.681   8.924  0.3701  0.7637  0.0348
  725MOL0     C99941   7.038   1.901   9.043  0.0938  0.1586 -0.3944
  725MOL0     C99942   7.128   1.879   9.159  0.4274 -0.0367  0.1013
  725MOL0     O99943   7.194   1.984   9.213  0.4960 -0.1324 -0.8478
  725MOL0     C99944   7.246   1.958   9.344 -0.3280  1.0416 -0.5094
  725MOL0     C99945   7.158   1.936   9.455 -0.8501 -0.4165  0.0019
  725MOL0     C99946   7.210   1.938   9.583 -0.3563 -0.5784 -0.0019
  725MOL0     C99947   7.347   1.929   9.591 -1.2985 -0.3100  0.4769
  725MOL0     O99948   7.387   1.908   9.724 -0.3743 -0.5414  0.5647
  725MOL0     C99949   7.526   1.875   9.762 -0.2122  1.1495 -0.0584
  725MOL0     C99950   7.541   1.811   9.910 -0.1702  0.3626  0.6988
  725MOL0     C99951   7.459   1.893  10.012 -0.4973 -0.2577  0.1270
  725MOL0     C99952   7.473   1.837  10.150  0.4843  0.6902 -0.4181
  725MOL0     C99953   7.347   1.877  10.236  0.6294  0.3755 -1.0868
  725MOL0     C99954   7.365   1.833  10.374  1.0789  0.3144 -1.3915
  725MOL0     C99955   7.244   1.878  10.458 -0.3590  0.1991 -0.7786
  725MOL0     C99956   7.278   1.881  10.612  0.0515  0.3078  0.7274
  725MOL0    Cl99957   7.319   1.707  10.681  0.1800 -0.4605  0.0291
  725MOL0     C99958   7.438   1.936   9.488  0.3694  0.8567  0.3742
  725MOL0     C99959   7.386   1.959   9.362  0.7519 -0.5813  0.1213
  725MOL0     O99960   7.135   1.758   9.194 -0.4934 -0.4211 -0.5855
  725MOL0     C99961   6.968   2.024   9.047 -0.0027 -0.1891  0.6256
  725MOL0     C99962   6.890   2.068   8.938 -0.0151  0.3588  0.5202
  725MOL0     N99963   6.465   2.206   8.303 -0.7128  0.5593  0.2944
  725MOL0     N99964   6.384   2.165   8.213  0.7130 -0.5841 -0.5290
  725MOL0     C99965   6.172   2.031   7.404  0.8490  0.7015 -0.5336
  725MOL0     C99966   6.300   2.072   7.365  0.4500  0.3046 -0.5121
  725MOL0     C99967   6.777   2.073   7.440  0.4348  0.0753 -0.7540
  725MOL0     C99968   6.881   2.009   7.503 -0.8937 -0.5335  0.1950
  725MOL0     C99969   7.015   2.027   7.456 -0.7113 -0.3454 -0.1032
  725MOL0     C99970   7.054   2.110   7.344  0.0440  1.4284 -0.3790
  725MOL0     O99971   7.183   2.110   7.308 -0.4309 -0.6257  0.6756
  725MOL0     C99972   7.234   2.247   7.320  0.3887 -0.3282  0.3946
  725MOL0     C99973   7.262   2.295   7.469  0.0838 -0.3513  1.3222
  725MOL0     C99974   7.390   2.249   7.532 -0.1318  0.1816  0.5751
  725MOL0     C99975   7.515   2.252   7.442 -0.2209  0.4466  0.2112
  725MOL0     C99976   7.633   2.187   7.518 -0.0763  0.2985 -0.4071
  725MOL0     C99977   7.725   2.138   7.580  0.6750  0.6589 -0.4704
  725MOL0     C99978   6.947   2.164   7.277  0.2527 -0.2990 -0.2148
  725MOL0     C99979   6.810   2.149   7.318 -0.0508  0.4684  0.3640
  725MOL0     C99980   6.700   2.217   7.235  0.2736  0.6143  0.3365
  725MOL0     H99981   6.407   2.112   7.690  0.6361  0.7720 -0.0006
  725MOL0     H99982   6.158   2.042   7.723 -1.8820  1.5014  0.1980
  725MOL0     H99983   5.871   2.119   7.484  1.1184 -2.6800 -0.5711
  725MOL0     H99984   5.939   2.177   7.638  3.0747  0.1303  0.2799
  725MOL0     H99985   5.698   2.065   7.645 -0.8286 -1.7555  0.5049
  725MOL0     H99986   5.789   1.922   7.598  0.3014 -1.2856  1.2051
  725MOL0     H99987   5.749   1.921   7.846 -1.1605  0.9856 -1.3352
  725MOL0     H99988   5.923   1.909   7.820 -0.3856 -0.1248 -1.7766
  725MOL0     H99989   5.958   2.127   7.892 -0.7346 -0.7385  0.6737
  725MOL0     H99990   5.803   2.186   7.859  0.6401  2.1008  0.5722
  725MOL0     H99991   5.742   2.022   8.052  0.5806 -0.5397  3.3065
  725MOL0     H99992   5.819   2.164   8.112 -2.1511 -0.6636  0.9898
  725MOL0     H99993   5.925   1.928   8.188  2.0240  0.6465  3.0008
  725MOL0     H99994   6.014   1.931   8.036 -2.0023  1.4396 -3.1643
  725MOL0     H99995   6.020   2.156   8.246  0.7295 -1.8519  2.1498
  725MOL0     H99996   6.109   2.154   8.092 -1.1829  2.1096  0.9566
  725MOL0     H99997   6.155   1.926   8.286  2.2256 -3.3654 -0.9268
  725MOL0     H99998   6.230   1.961   8.131 -0.5706 -0.5838  0.4829
  725MOL0     H99999   6.229   2.086   8.503  0.3349  1.4966  0.2948
  725MOL0     H    0   6.420   2.218   8.642  0.5712  0.6446  0.9212
  725MOL0     H    1   6.481   2.354   8.542  2.4553  0.2094  0.0777
  725MOL0     H    2   6.679   2.208   8.480 -0.0237  0.2890  0.4483
  725MOL0     H    3   6.664   2.238   8.648 -0.5700  0.5866  0.2770
  725MOL0     H    4   6.534   2.012   8.663 -1.6032  2.5323 -1.5438
  725MOL0     H    5   6.592   1.982   8.492  2.5218 -0.7118 -0.5294
  725MOL0     H    6   6.709   1.864   8.632 -1.9433  0.5039 -0.5372
  725MOL0     H    7   6.815   1.987   8.560 -1.3577  2.0710 -0.3474
  725MOL0     H    8   6.933   1.786   8.734  0.3694 -0.3124  0.4590
  725MOL0     H    9   7.107   1.637   8.827  3.7844  0.9600  0.5518
  725MOL0     H   10   7.032   1.609   8.987  1.8502 -2.2926 -1.9366
  725MOL0     H   11   7.186   1.695   8.965  0.1219  3.1241 -0.0333
  725MOL0     H   12   7.054   1.907   9.440 -0.7004 -2.8984  2.7238
  725MOL0     H   13   7.138   1.925   9.662 -1.6498  0.9908 -0.8538
  725MOL0     H   14   7.552   1.806   9.681 -1.8404 -0.8970  1.0541
  725MOL0     H   15   7.586   1.967   9.761  2.6281 -0.5630 -2.1368
  725MOL0     H   16   7.514   1.705   9.900  5.7110 -1.3783 -0.1964
  725MOL0     H   17   7.646   1.818   9.937  1.4500 -1.1473 -4.2279
  725MOL0     H   18   7.353   1.885   9.984 -0.3461 -0.7343 -0.3215
  725MOL0     H   19   7.484   1.999  10.007 -0.0521 -0.4318 -3.0165
  725MOL0     H   20   7.566   1.854  10.206 -0.8254 -0.6603  2.3502
  725MOL0     H   21   7.486   1.731  10.126 -1.3094  0.2058  0.6218
  725MOL0     H   22   7.350   1.986  10.235  1.7943  0.5375  2.7576
  725MOL0     H   23   7.261   1.833  10.185  2.0709 -0.1350 -3.2342
  725MOL0     H   24   7.458   1.874  10.414 -0.2861  1.9907  0.2032
  725MOL0     H   25   7.381   1.724  10.370  1.5935  0.0569  2.9224
  725MOL0     H   26   7.154   1.819  10.438 -0.3445 -1.1097  2.4890
  725MOL0     H   27   7.223   1.982  10.428 -0.0085  1.8002  3.8124
  725MOL0     H   28   7.197   1.923  10.672 -0.7058 -0.1817  0.0666
  725MOL0     H   29   7.369   1.939  10.632 -0.9652  1.8583  1.0436
  725MOL0     H   30   7.544   1.933   9.513 -0.1487 -1.6277  2.8173
  725MOL0     H   31   7.447   1.971   9.273  0.0247  0.7151 -0.2232
  725MOL0     H   32   6.982   2.092   9.130  2.7233  0.6500 -0.4108
  725MOL0     H   33   6.852   2.167   8.915 -2.2229  0.2032  3.0344
  725MOL0     H   34   6.108   1.998   7.323  0.6519  0.0474 -0.1209
  725MOL0     H   35   6.329   2.089   7.262 -1.0662  0.6242 -0.9185
  725MOL0     H   36   6.860   1.957   7.596 -1.4210  3.2576  2.4287
  725MOL0     H   37   7.096   1.979   7.509 -3.6466 -3.1836  2.2507
  725MOL0     H   38   7.323   2.265   7.259  0.9059 -2.9200  0.2578
  725MOL0     H   39   7.160   2.309   7.270  1.7230 -0.9798 -2.6085
  725MOL0     H   40   7.183   2.249   7.529  0.3642  0.5373  2.3836
  725MOL0     H   41   7.257   2.404   7.461  2.0633 -0.2734  0.5352
  725MOL0     H   42   7.404   2.304   7.626 -0.1387  0.7531  0.2417
  725MOL0     H   43   7.379   2.141   7.549 -1.1990 -0.4056 -3.1535
  725MOL0     H   44   7.547   2.349   7.401  0.9783  0.6610  1.5894
  725MOL0     H   45   7.502   2.185   7.356  2.3969  0.5825 -0.3810
  725MOL0     H   46   7.805   2.107   7.645 -0.6700  1.4675  1.7032
  725MOL0     H   47   6.971   2.223   7.189  5.4873  1.2568  1.8455
  725MOL0     H   48   6.669   2.303   7.294  1.7755  0.8083  0.8959
  725MOL0     H   49   6.748   2.257   7.144 -1.2104  0.1805 -0.6696
  725MOL0     H   50   6.633   2.134   7.211 -0.4428  1.1534  0.4535
  726MOL0     O   51   9.915   1.999  10.498  0.1026  0.7905  0.0935
  726MOL0     C   52   9.802   1.950  10.515 -0.4054  0.1594 -0.0453
  726MOL0     O   53   9.730   1.879  10.418 -0.0931  0.7655  1.0274
  726MOL0     C   54   9.762   1.855  10.286 -0.0071 -0.5648 -0.5465
  726MOL0     C   55   9.881   1.863  10.220 -1.1451 -0.1628  0.5191
  726MOL0     C   56   9.911   1.786  10.100  0.4779 -0.2345  1.2962
  726MOL0     C   57   9.807   1.717  10.033  0.0640 -0.1694 -0.3563
  726MOL0     O   58   9.834   1.637   9.923 -0.0931  0.2822  0.0843
  726MOL0     C   59   9.787   1.688   9.800 -0.2849  0.0976 -0.2670
  726MOL0     C   60   9.849   1.594   9.688  0.2544 -0.8158 -0.1509
  726MOL0     C   61  10.000   1.599   9.674  1.1943 -0.6155  0.0193
  726MOL0     C   62  10.053   1.481   9.583 -0.2359 -0.6425  0.7692
  726MOL0     C   63  10.023   1.505   9.429 -0.2466 -0.4165 -0.3498
  726MOL0     C   64  10.064   1.381   9.359  0.2974 -0.0864  0.7152
  726MOL0     C   65  10.052   1.398   9.207 -0.5931 -0.8618 -0.7733
  726MOL0     C   66  10.056   1.266   9.130 -0.2880 -0.3405 -0.1245
  726MOL0     N   67   9.915   1.244   9.097  0.1528  0.7269 -0.1420
  726MOL0     C   68   9.830   1.299   8.996  0.1641 -0.6910  0.3130
  726MOL0     C   69   9.716   1.226   9.008 -0.3882 -0.0100  0.2365
  726MOL0     C   70   9.596   1.236   8.918 -0.4751 -0.1475  0.0747
  726MOL0     C   71   9.538   1.106   8.879 -1.2345  1.0122  0.4020
  726MOL0     C   72   9.455   1.031   8.984 -0.0097 -1.1900 -0.7640
  726MOL0     C   73   9.339   1.110   9.058  0.4433 -0.5373  0.3012
  726MOL0     O   74   9.299   1.038   9.172 -0.3116 -0.5185 -0.1774
  726MOL0     C   75   9.198   1.087   9.260 -0.8605 -0.1649  0.1065
  726MOL0     C   76   9.186   1.016   9.378 -0.4032 -0.4941 -0.7705
  726MOL0     C   77   9.091   1.047   9.470 -0.0716 -0.2002 -1.0336
  726MOL0     C   78   9.090   0.982   9.606  0.9872  1.9611  0.3100
  726MOL0     C   79   9.000   1.147   9.443  1.1379  0.7405  0.0741
  726MOL0     C   80   8.873   1.180   9.517  0.1195  0.6827  0.9211
  726MOL0     O   81   8.807   1.284   9.465  0.9257  0.0324 -0.5202
  726MOL0     C   82   8.687   1.323   9.514 -0.0280 -1.0086  0.0465
  726MOL0     C   83   8.645   1.320   9.652 -0.1746  0.2925  0.4756
  726MOL0     C   84   8.515   1.361   9.687 -1.2515  0.5183 -0.3562
  726MOL0     C   85   8.437   1.429   9.591  0.7152 -0.3662 -0.0676
  726MOL0     O   86   8.314   1.456   9.641  0.0612 -0.1565  0.0694
  726MOL0     C   87   8.255   1.584   9.598 -0.3526  0.1512  1.0869
  726MOL0     C   88   8.298   1.697   9.696 -0.7915  0.6570 -1.0678
  726MOL0     C   89   8.444   1.727   9.707  0.2058 -0.0923 -0.2668
  726MOL0     C   90   8.486   1.862   9.774 -0.3176  0.4945  0.0510
  726MOL0     C   91   8.636   1.881   9.758  0.1955 -0.7466 -0.5646
  726MOL0     C   92   8.678   2.014   9.834 -0.7324  0.9429 -0.1386
  726MOL0     C   93   8.719   2.008   9.982 -0.0413 -0.5733 -0.5836
  726MOL0     C   94   8.781   2.127  10.055  0.4170 -0.2985 -0.9555
  726MOL0    Cl   95   8.703   2.270   9.992  0.0669 -0.0066 -0.2049
  726MOL0     C   96   8.480   1.440   9.455 -0.0780 -0.1462 -0.4015
  726MOL0     C   97   8.601   1.388   9.432  0.6380  0.3576 -0.3436
  726MOL0     O   98   8.824   1.105   9.599 -0.7408  0.1804  0.5959
  726MOL0     C   99   9.030   1.234   9.334  0.0796  0.1031 -1.2939
  726MOL0     C  100   9.118   1.203   9.234 -0.9743 -0.1811 -1.0630
  726MOL0     N  101   9.746   1.126   9.107 -0.1137 -0.5141  0.8631
  726MOL0     N  102   9.857   1.135   9.144 -0.3759 -0.0374  0.4564
  726MOL0     C  103   9.674   1.723  10.091 -0.4453 -0.9341 -0.5596
  726MOL0     C  104   9.653   1.783  10.218  0.1892 -1.0033 -0.7475
  726MOL0     C  105   9.741   1.984  10.648 -0.3925  0.0808 -0.6014
  726MOL0     C  106   9.599   1.982  10.658 -0.2561  0.7348 -0.2399
  726MOL0     C  107   9.527   2.007  10.777 -0.7370 -0.2813  0.0976
  726MOL0     C  108   9.606   2.021  10.894 -0.0846 -1.0464  0.0117
  726MOL0     O  109   9.565   2.046  11.029 -0.4516 -0.0431  0.5010
  726MOL0     C  110   9.424   2.057  11.042  0.3331  0.1385 -0.7253
  726MOL0     C  111   9.405   2.118  11.180  0.4568  0.7592  0.7131
  726MOL0     C  112   9.425   2.268  11.176  0.4416 -0.1605  0.4476
  726MOL0     C  113   9.293   2.335  11.148 -0.3811 -0.3699  0.4981
  726MOL0     C  114   9.294   2.482  11.187  0.0373  0.3769 -0.9393
  726MOL0     C  115   9.300   2.603  11.205  0.6926 -0.5511 -0.6633
  726MOL0     C  116   9.750   2.036  10.877 -0.1404  0.1987 -0.3131
  726MOL0     C  117   9.821   2.007  10.762 -0.2755  0.3629  0.5805
  726MOL0     C  118   9.971   1.988  10.770 -0.0663  0.0341 -0.2157
  726MOL0     H  119   9.969   1.907  10.266  0.4606 -1.3680 -1.2480
  726MOL0     H  120  10.013   1.759  10.074  1.2502  1.3717  2.4903
  726MOL0     H  121   9.826   1.789   9.785  2.0848  0.1532  4.4940
  726MOL0     H  122   9.679   1.674   9.797 -0.5958  2.0536  0.7833
  726MOL0     H  123   9.828   1.489   9.709  1.4070 -0.8286  1.0647
  726MOL0     H  124   9.805   1.619   9.591  1.8622 -0.3624 -0.7890
  726MOL0     H  125  10.028   1.696   9.631  1.2187 -0.1657  1.0239
  726MOL0     H  126  10.038   1.589   9.776  0.0525 -2.5416  0.3117
  726MOL0     H  127  10.162   1.471   9.588 -0.2556 -2.7595 -1.3526
  726MOL0     H  128  10.006   1.384   9.604 -2.7077  0.6181  1.5313
  726MOL0     H  129  10.083   1.588   9.393  1.4488 -2.9380 -3.9696
  726MOL0     H  130   9.919   1.538   9.424 -0.2262 -0.1661  0.6568
  726MOL0     H  131  10.166   1.349   9.382  0.4536  1.2850  2.0918
  726MOL0     H  132  10.001   1.300   9.398 -0.0270  1.0278  2.6567
  726MOL0     H  133  10.143   1.444   9.168 -1.5894 -0.6007 -2.9825
  726MOL0     H  134   9.965   1.459   9.183 -0.4989  0.6184  2.2474
  726MOL0     H  135  10.111   1.274   9.036  2.6894  2.1915  1.6392
  726MOL0     H  136  10.089   1.189   9.200  0.7905  0.2665  0.0594
  726MOL0     H  137   9.842   1.379   8.923 -1.1792 -1.3208 -0.6508
  726MOL0     H  138   9.628   1.294   8.831  2.1053 -1.5900 -0.0527
  726MOL0     H  139   9.517   1.298   8.962 -1.1934  2.0947 -3.8707
  726MOL0     H  140   9.459   1.119   8.805 -0.7780  0.8410 -0.1246
  726MOL0     H  141   9.622   1.047   8.839 -0.9338  1.9511 -0.3911
  726MOL0     H  142   9.408   0.941   8.944 -0.3042 -2.4502  2.1281
  726MOL0     H  143   9.523   1.010   9.067 -0.4949 -1.1448 -0.3452
  726MOL0     H  144   9.368   1.211   9.088  0.6796 -1.1293  2.2305
  726MOL0     H  145   9.254   1.131   8.993  0.1985 -0.6756  0.5718
  726MOL0     H  146   9.253   0.935   9.405  0.6892  0.5755 -0.1599
  726MOL0     H  147   9.188   0.950   9.644  0.6176  0.9889  0.4717
  726MOL0     H  148   9.021   0.897   9.611  1.7453  1.2146 -1.1915
  726MOL0     H  149   9.041   1.050   9.676 -3.1839  0.8563 -1.2192
  726MOL0     H  150   8.701   1.260   9.724 -1.0288 -2.1001 -0.7460
  726MOL0     H  151   8.479   1.339   9.787 -1.3892  0.8672 -0.3287
  726MOL0     H  152   8.276   1.622   9.498  0.0555  1.7168  1.7339
  726MOL0     H  153   8.147   1.565   9.593 -0.2027 -1.3345  2.5122
  726MOL0     H  154   8.233   1.784   9.685 -1.3149  1.0031  3.0545
  726MOL0     H  155   8.276   1.653   9.795 -1.8075  0.5148 -1.3463
  726MOL0     H  156   8.487   1.726   9.606  1.2020 -0.3675  0.1376
  726MOL0     H  157   8.488   1.653   9.775  0.8117  0.5658  0.0786
  726MOL0     H  158   8.450   1.871   9.876 -2.4231  0.4480 -0.6468
  726MOL0     H  159   8.437   1.945   9.722 -0.8959 -0.4372 -0.9191
  726MOL0     H  160   8.687   1.792   9.796 -1.8594 -2.7413 -2.1852
  726MOL0     H  161   8.669   1.884   9.654  2.1088 -3.4697 -0.1636
  726MOL0     H  162   8.599   2.088   9.817 -1.4339  0.4839  1.0128
  726MOL0     H  163   8.767   2.041   9.777 -0.5213  1.6694  0.5123
  726MOL0     H  164   8.784   1.924  10.004  1.4186  0.6262 -0.1626
  726MOL0     H  165   8.629   1.989  10.041  0.2027 -2.1733 -0.6870
  726MOL0     H  166   8.888   2.138  10.038  0.4752  1.0156  0.0773
  726MOL0     H  167   8.771   2.120  10.164 -2.7060  0.1679 -1.1039
  726MOL0     H  168   8.425   1.489   9.375 -0.9465  2.4815  1.6795
  726MOL0     H  169   8.647   1.395   9.335 -1.4493 -1.8224 -1.5905
  726MOL0     H  170   8.970   1.323   9.317 -2.1046 -0.9702  0.3377
  726MOL0     H  171   9.120   1.271   9.149  0.0077 -0.1770 -1.0465
  726MOL0     H  172   9.597   1.668  10.038  0.5249  0.5454 -3.7763
  726MOL0     H  173   9.558   1.762  10.265 -0.3905  0.1852 -1.3343
  726MOL0     H  174   9.541   1.958  10.569  1.6370 -0.7235 -1.1384
  726MOL0     H  175   9.423   1.982  10.795 -0.7407 -0.2629  0.1021
  726MOL0     H  176   9.379   2.122  10.966  0.8919  1.8707  0.3716
  726MOL0     H  177   9.386   1.955  11.031  0.3302 -0.1214  1.3644
  726MOL0     H  178   9.478   2.061  11.240 -1.4354 -1.2772  1.2248
  726MOL0     H  179   9.305   2.098  11.221  1.2439 -0.2703  2.2440
  726MOL0     H  180   9.460   2.300  11.275  1.8593 -0.6121  0.1229
  726MOL0     H  181   9.503   2.288  11.101 -0.2494 -0.4245 -0.3519
  726MOL0     H  182   9.208   2.280  11.190  1.2243 -3.3869  0.1077
  726MOL0     H  183   9.297   2.326  11.039  2.0478 -0.7240  0.5693
  726MOL0     H  184   9.311   2.703  11.242  0.8371 -1.5361  2.1495
  726MOL0     H  185   9.803   2.040  10.972  3.6890 -1.4957 -2.1887
  726MOL0     H  186   9.997   2.006  10.874 -2.7990  1.8286  0.2530
  726MOL0     H  187   9.995   1.883  10.751 -1.6624 -1.1697  3.4990
  726MOL0     H  188  10.022   2.068  10.716 -2.3507  3.0383  1.7544
  727MOL0     O  189   4.107   0.719   3.625 -0.2982  0.0222  1.0942
  727MOL0     C  190   4.099   0.671   3.508  1.1401  0.0521 -0.6746
  727MOL0     O  191   4.178   0.582   3.454 -0.6309  0.2998  0.7301
  727MOL0     C  192   4.295   0.554   3.524  1.3937 -0.4084 -0.3212
  727MOL0     C  193   4.415   0.552   3.460 -0.4587  0.1544 -0.2868
  727MOL0     C  194   4.535   0.524   3.522 -0.8066  0.1627 -0.7558
  727MOL0     C  195   4.532   0.487   3.659 -0.1297  0.2864  0.2173
  727MOL0     O  196   4.646   0.474   3.737 -0.2271 -1.1785 -0.6643
  727MOL0     C  197   4.784   0.503   3.701  0.2014  0.6740  0.2080
  727MOL0     C  198   4.846   0.530   3.843  0.3923 -0.0140  0.8588
  727MOL0     C  199   4.994   0.547   3.847 -1.0598  0.3913  0.5898
  727MOL0     C  200   5.068   0.429   3.770  0.0696 -1.0566 -0.2566
  727MOL0     C  201   5.135   0.480   3.651 -0.8317 -0.2580 -0.1481
  727MOL0     C  202   5.275   0.518   3.689 -0.6830  0.7438 -0.2559
  727MOL0     C  203   5.347   0.600   3.567  0.1623 -0.3377  0.2887
  727MOL0     C  204   5.306   0.750   3.576  0.0667  0.5232  0.9067
  727MOL0     N  205   5.420   0.827   3.515  0.2918  1.1199 -0.5541
  727MOL0     C  206   5.530   0.876   3.582 -0.8583  0.3696 -0.0447
  727MOL0     C  207   5.610   0.916   3.483  0.4596 -0.0611  0.0435
  727MOL0     C  208   5.753   0.944   3.519  0.0024  0.0990  0.7102
  727MOL0     C  209   5.778   1.089   3.507 -0.4206 -0.1265 -0.4368
  727MOL0     C  210   5.915   1.132   3.579  0.4191 -0.6354  0.3591
  727MOL0     C  211   5.886   1.236   3.682  1.0067  0.2081  0.7429
  727MOL0     O  212   5.773   1.199   3.774  0.5562  0.1039 -0.3591
  727MOL0     C  213   5.790   1.090   3.866 -0.7474  0.2527  0.0669
  727MOL0     C  214   5.915   1.034   3.898 -0.1436  0.4835 -0.3243
  727MOL0     C  215   5.922   0.943   4.005  0.1364  0.0864  0.0072
  727MOL0     C  216   6.066   0.907   4.048  0.8515 -0.0564 -0.2413
  727MOL0     C  217   5.803   0.891   4.072 -0.2638 -0.6062  0.9095
  727MOL0     C  218   5.806   0.787   4.173  0.3783  0.1654 -0.0603
  727MOL0     O  219   5.688   0.746   4.220  0.0615 -0.3986  0.3262
  727MOL0     C  220   5.700   0.632   4.305  0.3199  0.3585  0.5261
  727MOL0     C  221   5.693   0.507   4.260 -0.4896  0.6295 -0.3967
  727MOL0     C  222   5.704   0.401   4.353 -0.3194  0.8691 -0.2925
  727MOL0     C  223   5.719   0.422   4.493  0.5033 -0.3469  0.1765
  727MOL0     O  224   5.720   0.307   4.565 -0.4579 -0.2083  0.2473
  727MOL0     C  225   5.808   0.305   4.680 -0.0305  0.9829 -0.5660
  727MOL0     C  226   5.882   0.179   4.705 -0.0625  0.8882 -0.1738
  727MOL0     C  227   5.979   0.176   4.828  1.0123 -0.0463  0.0407
  727MOL0     C  228   6.080   0.062   4.822 -0.0617  0.1196  0.2732
  727MOL0     C  229   6.158   0.049   4.950 -0.0917 -0.0854 -0.0626
  727MOL0     C  230   6.261  -0.060   4.946  0.0134  0.1343 -0.8404
  727MOL0     C  231   6.337  -0.059   5.076 -1.2560 -0.2346  1.0871
  727MOL0     C  232   6.405  -0.185   5.070  0.3720 -0.2994 -0.0189
  727MOL0    Cl  233   6.307  -0.351   5.115  0.2745 -0.4631  0.3397
  727MOL0     C  234   5.716   0.562   4.539  0.1476 -0.4138  0.1423
  727MOL0     C  235   5.723   0.661   4.439  0.1411 -0.1070 -0.0096
  727MOL0     O  236   5.915   0.737   4.200 -0.7061 -0.2558  0.9369
  727MOL0     C  237   5.673   0.954   4.038 -0.4195 -0.2396 -1.3312
  727MOL0     C  238   5.675   1.052   3.945  0.6963 -0.2694  0.9341
  727MOL0     N  239   5.554   0.893   3.354 -0.3412 -0.0463  0.3531
  727MOL0     N  240   5.436   0.837   3.379 -0.0441  0.5555  0.3674
  727MOL0     C  241   4.413   0.465   3.722  0.3589 -0.7057 -0.7255
  727MOL0     C  242   4.296   0.508   3.660 -1.0855 -0.2377 -0.0408
  727MOL0     C  243   3.983   0.704   3.423 -0.2230  0.0310 -0.2843
  727MOL0     C  244   3.933   0.607   3.338  0.7468  0.4630  0.1850
  727MOL0     C  245   3.810   0.615   3.276 -0.3098 -1.0694  0.6704
  727MOL0     C  246   3.730   0.728   3.299 -0.8094  0.5354  0.0938
  727MOL0     O  247   3.607   0.745   3.239  0.4693 -0.2946 -1.3155
  727MOL0     C  248   3.608   0.762   3.095 -0.2784 -1.2287 -0.1371
  727MOL0     C  249   3.497   0.676   3.021  0.2698  0.3671  0.0873
  727MOL0     C  250   3.523   0.522   3.010 -0.3892  0.4975  0.7214
  727MOL0     C  251   3.459   0.439   3.126 -0.9092 -0.0735  0.0706
  727MOL0     C  252   3.326   0.411   3.089  0.8993 -0.4550  0.0206
  727MOL0     C  253   3.208   0.382   3.065  0.1877 -0.3789 -0.2415
  727MOL0     C  254   3.783   0.825   3.380 -0.3573  0.1468  0.0978
  727MOL0     C  255   3.909   0.822   3.439 -0.9885  0.0338 -0.1339
  727MOL0     C  256   3.962   0.953   3.513  0.2720  0.2044  0.4339
  727MOL0     H  257   4.415   0.574   3.354 -0.1773  2.6253  0.1671
  727MOL0     H  258   4.617   0.570   3.466 -0.9455  1.0445 -0.2593
  727MOL0     H  259   4.808   0.588   3.636  2.7130  0.9613  1.3799
  727MOL0     H  260   4.832   0.423   3.643  0.6438  0.3573  0.9942
  727MOL0     H  261   4.816   0.626   3.886 -2.4674  0.3030 -1.4874
  727MOL0     H  262   4.818   0.444   3.904 -0.5042 -0.7642 -0.5686
  727MOL0     H  263   5.032   0.646   3.821  0.0743 -0.8358 -2.9927
  727MOL0     H  264   5.019   0.537   3.953 -0.6528  2.2632  0.7042
  727MOL0     H  265   5.146   0.388   3.835  3.7692  2.2514 -2.1422
  727MOL0     H  266   4.994   0.350   3.756  0.4396 -1.6602  1.0303
  727MOL0     H  267   5.082   0.561   3.599  0.3405 -0.8650 -2.4059
  727MOL0     H  268   5.131   0.401   3.576 -2.4628 -0.5824  0.2304
  727MOL0     H  269   5.276   0.591   3.772  0.4119 -3.2654  3.6455
  727MOL0     H  270   5.335   0.429   3.704  0.3880  1.4586 -0.1911
  727MOL0     H  271   5.314   0.559   3.471 -0.5700  1.0816 -0.0925
  727MOL0     H  272   5.453   0.573   3.574 -0.3382 -4.0651 -3.0427
  727MOL0     H  273   5.217   0.766   3.513 -0.4740 -0.2177  1.4612
  727MOL0     H  274   5.285   0.780   3.679 -0.3060  1.5771  0.5386
  727MOL0     H  275   5.551   0.875   3.689 -0.8292  0.0187 -0.0522
  727MOL0     H  276   5.819   0.890   3.450 -3.1368  0.0096 -2.4637
  727MOL0     H  277   5.787   0.914   3.619  0.4990  0.3686  0.6313
  727MOL0     H  278   5.780   1.117   3.401 -3.3273  1.5442 -0.1399
  727MOL0     H  279   5.689   1.145   3.537 -0.5132 -0.2020 -0.5676
  727MOL0     H  280   5.967   1.048   3.626  1.3788 -1.1610 -1.5342
  727MOL0     H  281   5.984   1.197   3.523  2.0191  0.7812  3.7108
  727MOL0     H  282   5.981   1.246   3.737  2.7399 -1.4268 -1.7417
  727MOL0     H  283   5.880   1.332   3.630 -3.0934 -0.9126 -1.2240
  727MOL0     H  284   6.005   1.070   3.849 -1.9717  1.3859 -3.3375
  727MOL0     H  285   6.067   0.937   4.153 -0.7496  0.3067 -0.3022
  727MOL0     H  286   6.136   0.973   3.996 -0.5128  3.9686  2.5604
  727MOL0     H  287   6.095   0.804   4.026  2.3428  0.6538 -1.8158
  727MOL0     H  288   5.669   0.486   4.156 -0.8805  1.7446 -0.5382
  727MOL0     H  289   5.710   0.298   4.319  4.2468  0.8970 -0.0983
  727MOL0     H  290   5.886   0.380   4.666  0.8972  0.1264 -0.0764
  727MOL0     H  291   5.741   0.334   4.762  0.5766  1.5507 -0.2595
  727MOL0     H  292   5.803   0.106   4.722  0.0759  0.8105  0.1280
  727MOL0     H  293   5.939   0.150   4.616  0.7063 -0.1770  0.6570
  727MOL0     H  294   5.929   0.163   4.924 -1.4051 -0.6384 -1.2043
  727MOL0     H  295   6.036   0.270   4.828  2.6003 -0.9606  0.8743
  727MOL0     H  296   6.144   0.102   4.742 -1.5188  5.9589  1.5574
  727MOL0     H  297   6.038  -0.037   4.803 -0.8716  0.4259  0.4510
  727MOL0     H  298   6.214   0.141   4.972 -2.2975  1.3139  0.0302
  727MOL0     H  299   6.081   0.015   5.020  0.2899  0.3157  0.5553
  727MOL0     H  300   6.339  -0.039   4.873  0.6232 -0.3624 -0.3441
  727MOL0     H  301   6.219  -0.160   4.930 -0.0452  0.0392 -0.1086
  727MOL0     H  302   6.272  -0.049   5.164 -1.4574 -3.3538  1.3938
  727MOL0     H  303   6.407   0.024   5.068 -3.2060  1.3108 -1.8339
  727MOL0     H  304   6.490  -0.181   5.138 -1.8530 -1.6494  3.1136
  727MOL0     H  305   6.438  -0.201   4.967 -0.2549  0.7085 -0.3891
  727MOL0     H  306   5.712   0.591   4.643 -0.7256 -1.5016  0.4366
  727MOL0     H  307   5.723   0.763   4.478 -1.2323 -0.8286  2.0577
  727MOL0     H  308   5.581   0.920   4.086  0.0896  0.0742 -0.0818
  727MOL0     H  309   5.584   1.105   3.921  0.7029 -1.2802 -1.5955
  727MOL0     H  310   4.420   0.409   3.815  0.0308 -0.1211 -0.3344
  727MOL0     H  311   4.208   0.495   3.722 -1.1451 -1.9473 -0.4127
  727MOL0     H  312   3.995   0.528   3.296 -0.3812  0.6973 -2.1123
  727MOL0     H  313   3.791   0.532   3.209  1.3838 -2.4532  1.8415
  727MOL0     H  314   3.596   0.868   3.070 -2.5349 -1.6832 -1.2049
  727MOL0     H  315   3.701   0.728   3.049  0.2392 -1.7232  1.2089
  727MOL0     H  316   3.491   0.727   2.924 -1.6346  0.0853  0.0091
  727MOL0     H  317   3.393   0.692   3.051  0.0023 -0.7097 -0.2106
  727MOL0     H  318   3.473   0.491   2.917 -0.4010  0.6669  0.6708
  727MOL0     H  319   3.628   0.491   3.004 -0.9048 -0.9977 -2.1179
  727MOL0     H  320   3.465   0.491   3.222 -3.1971  0.5129 -0.0506
  727MOL0     H  321   3.516   0.346   3.131 -0.5441  0.0936 -0.8840
  727MOL0     H  322   3.109   0.341   3.060 -0.6928  1.3136  1.7291
  727MOL0     H  323   3.738   0.922   3.402 -0.1827 -0.0486  1.3980
  727MOL0     H  324   3.886   1.031   3.519 -0.1016 -0.2363  1.6246
  727MOL0     H  325   3.995   0.932   3.615 -0.1491 -0.3607  0.4552
  727MOL0     H  326   4.054   0.993   3.469  1.5905  0.2112  2.9873
  728MOL0     O  327   1.129  10.278  10.539 -0.3367 -0.5457  0.9002
  728MOL0     C  328   1.060  10.371  10.499  0.2575  0.7262  0.6508
  728MOL0     O  329   1.014  10.377  10.374 -0.0774  0.4863 -0.0425
  728MOL0     C  330   1.080  10.304  10.278  0.8000 -0.0602  0.4277
  728MOL0     C  331   1.010  10.220  10.197  0.6539  0.3627  0.9798
  728MOL0     C  332   1.068  10.145  10.097 -0.9960  1.7602 -0.5308
  728MOL0     C  333   1.208  10.157  10.072 -0.4277 -0.0832 -0.0503
  728MOL0     O  334   1.282  10.112   9.962 -0.0500  0.1172  0.0697
  728MOL0     C  335   1.225  10.147   9.838 -0.0730 -0.1633 -1.1350
  728MOL0     C  336   1.332  10.171   9.736 -0.4445 -0.4527 -0.7096
  728MOL0     C  337   1.421  10.291   9.758 -0.6703  0.1810 -1.1686
  728MOL0     C  338   1.500  10.334   9.637  0.5912  0.1568  0.9867
  728MOL0     C  339   1.611  10.431   9.662  0.0769 -0.1506  0.1936
  728MOL0     C  340   1.661  10.488   9.520 -0.7265 -0.4383  0.0139
  728MOL0     C  341   1.746  10.387   9.445  1.0927  0.6153 -0.1686
  728MOL0     C  342   1.834  10.442   9.334 -0.2890  0.2743 -0.2268
  728MOL0     N  343   1.926  10.540   9.380 -0.1722 -0.1015 -1.0677
  728MOL0     C  344   2.004  10.523   9.490 -0.3520 -0.2676 -0.4094
  728MOL0     C  345   2.044  10.652   9.508  0.0058  0.1317  0.2174
  728MOL0     C  346   2.139  10.698   9.623 -0.7629  0.1427 -0.0025
  728MOL0     C  347   2.273  10.723   9.558  0.3370 -0.3264 -0.1844
  728MOL0     C  348   2.341  10.580   9.537 -0.5336  0.0496  0.5721
  728MOL0     C  349   2.494  10.593   9.548 -0.0772 -0.2731 -0.0073
  728MOL0     O  350   2.532  10.461   9.572 -0.2573 -0.1957 -0.1910
  728MOL0     C  351   2.658  10.440   9.613 -0.2486 -0.1755  0.8269
  728MOL0     C  352   2.675  10.304   9.649 -0.1088  0.5970  0.7888
  728MOL0     C  353   2.801  10.256   9.687  0.0570 -0.3446  0.1762
  728MOL0     C  354   2.807  10.107   9.715 -0.3230 -0.4120  0.0752
  728MOL0     C  355   2.910  10.343   9.699  0.2972  0.3662  0.5596
  728MOL0     C  356   3.041  10.293   9.747 -0.7779 -0.0171 -0.0215
  728MOL0     O  357   3.100  10.182   9.690 -0.2402 -0.6549  0.0561
  728MOL0     C  358   3.210  10.126   9.735 -0.9396 -0.8564  0.6753
  728MOL0     C  359   3.286  10.168   9.846  0.3160 -1.2820  0.7552
  728MOL0     C  360   3.401  10.097   9.887  0.2489 -0.0460 -0.0541
  728MOL0     C  361   3.432   9.978   9.817  1.1503  0.0350 -0.2754
  728MOL0     O  362   3.538   9.899   9.846 -0.6045 -0.4660 -0.0682
  728MOL0     C  363   3.585   9.907   9.988 -0.2199  0.5532  0.2720
  728MOL0     C  364   3.671   9.795  10.034 -0.4765  0.6999  1.2019
  728MOL0     C  365   3.744   9.796  10.171 -0.0223 -0.5616 -0.2312
  728MOL0     C  366   3.853   9.901  10.198 -0.7001 -0.0797 -0.6417
  728MOL0     C  367   3.872   9.915  10.348  0.2171 -0.1237 -0.7058
  728MOL0     C  368   3.976  10.018  10.398 -0.2192  0.4654 -0.7218
  728MOL0     C  369   4.116   9.983  10.348 -0.2908 -0.3806  0.2621
  728MOL0     C  370   4.158   9.839  10.360  0.2593  0.6381 -0.5611
  728MOL0    Cl  371   4.335   9.817  10.305 -0.5609 -0.5397 -0.3513
  728MOL0     C  372   3.361   9.935   9.709 -0.1665 -0.4029  1.0319
  728MOL0     C  373   3.251  10.012   9.672 -0.3899  0.2854 -0.2260
  728MOL0     O  374   3.097  10.376   9.817 -0.9881 -0.2717  0.4291
  728MOL0     C  375   2.881  10.478   9.678 -0.2124 -0.7521  0.3366
  728MOL0     C  376   2.762  10.523   9.627  0.0952 -0.9065 -0.6272
  728MOL0     N  377   1.972  10.736   9.420 -0.5371 -0.6402  0.6319
  728MOL0     N  378   1.897  10.666   9.355  0.3412  0.6048  0.1716
  728MOL0     C  379   1.286  10.224  10.162 -0.5118 -0.7782 -0.4210
  728MOL0     C  380   1.227  10.300  10.268  0.0754 -0.5270  0.4121
  728MOL0     C  381   1.018  10.468  10.600 -0.3194  0.2425  0.3649
  728MOL0     C  382   0.976  10.412  10.727  0.5541 -0.2217  0.6716
  728MOL0     C  383   0.943  10.507  10.829  0.0532  0.8840 -0.0625
  728MOL0     C  384   0.956  10.643  10.802 -0.4521 -0.3057 -0.7321
  728MOL0     O  385   0.924  10.732  10.905  0.2383  0.6247  0.3791
  728MOL0     C  386   0.787  10.766  10.914 -0.5358  1.4053  0.4904
  728MOL0     C  387   0.732  10.690  11.046 -0.3648 -0.4302  0.2256
  728MOL0     C  388   0.607  10.746  11.113 -0.5653  0.3922  0.7499
  728MOL0     C  389   0.483  10.713  11.032  0.9163 -0.1444 -0.0316
  728MOL0     C  390   0.388  10.829  11.041  0.1115  0.4853  0.1528
  728MOL0     C  391   0.321  10.932  11.054  0.5477  0.0718 -0.0373
  728MOL0     C  392   0.988  10.692  10.671  0.9523 -0.6216  0.1088
  728MOL0     C  393   1.026  10.613  10.573  1.0059 -0.0579  0.3362
  728MOL0     C  394   1.060  10.676  10.439 -0.1479  0.4081  0.1536
  728MOL0     H  395   0.904  10.211  10.218 -0.0257  0.7905 -1.8505
  728MOL0     H  396   1.001  10.080  10.042 -0.1452 -0.1697  0.5914
  728MOL0     H  397   1.163  10.234   9.859 -0.1590 -0.3595 -0.5771
  728MOL0     H  398   1.166  10.060   9.807  0.2658 -0.8849  0.1888
  728MOL0     H  399   1.397  10.083   9.724 -0.5760 -0.2213 -4.0409
  728MOL0     H  400   1.282  10.192   9.641 -3.0318 -0.8709  0.4931
  728MOL0     H  401   1.354  10.370   9.795 -1.1234 -0.8907  0.4101
  728MOL0     H  402   1.495  10.257   9.831 -1.6178 -0.7301 -0.6042
  728MOL0     H  403   1.542  10.243   9.592 -0.0415 -1.7095  3.9288
  728MOL0     H  404   1.424  10.371   9.568 -1.1104 -1.6342  1.8068
  728MOL0     H  405   1.697  10.386   9.713  0.4346  0.8416  0.5027
  728MOL0     H  406   1.576  10.517   9.720 -2.8258  0.1038 -1.7245
  728MOL0     H  407   1.577  10.522   9.458  0.0072  3.4279  0.8560
  728MOL0     H  408   1.715  10.581   9.538 -1.2252  0.1226 -1.2769
  728MOL0     H  409   1.681  10.310   9.403 -0.3381  2.6774 -1.9311
  728MOL0     H  410   1.812  10.343   9.520 -1.7716 -0.8291  1.6680
  728MOL0     H  411   1.892  10.358   9.294  0.6716 -0.5052  2.5244
  728MOL0     H  412   1.783  10.493   9.252 -1.8937  0.4988  0.8648
  728MOL0     H  413   2.035  10.430   9.537 -1.7344 -1.3921 -1.6272
  728MOL0     H  414   2.151  10.631   9.708  0.5795  0.2464 -0.0874
  728MOL0     H  415   2.101  10.792   9.666  0.8472  0.2835  1.2253
  728MOL0     H  416   2.262  10.786   9.469  3.1637  1.9607  0.9193
  728MOL0     H  417   2.338  10.785   9.620  2.8044  0.3122 -3.1669
  728MOL0     H  418   2.307  10.505   9.610 -1.3495  1.6585  1.9305
  728MOL0     H  419   2.319  10.542   9.437 -1.0945 -2.3067  1.5326
  728MOL0     H  420   2.535  10.625   9.452 -0.5186  0.7984  0.1422
  728MOL0     H  421   2.517  10.664   9.628  1.3861 -1.2248  0.4493
  728MOL0     H  422   2.590  10.239   9.661 -1.8813  2.7709  0.6349
  728MOL0     H  423   2.822  10.059   9.618  0.0520  0.1854 -0.1699
  728MOL0     H  424   2.713  10.064   9.750 -1.2085  0.5198 -1.0611
  728MOL0     H  425   2.886  10.067   9.778 -0.3012 -2.1496 -1.0015
  728MOL0     H  426   3.250  10.246   9.912 -0.0940 -0.1976 -0.7189
  728MOL0     H  427   3.448  10.130   9.979 -0.9110  0.6124  0.3173
  728MOL0     H  428   3.648   9.996   9.987  1.9376 -0.8751  1.6735
  728MOL0     H  429   3.504   9.920  10.060  1.3825  2.8200  1.7710
  728MOL0     H  430   3.630   9.697  10.011  1.5069 -0.4525  2.2786
  728MOL0     H  431   3.748   9.806   9.957  0.2534 -1.1286  1.6265
  728MOL0     H  432   3.792   9.698  10.183 -1.4025 -1.2275  0.0823
  728MOL0     H  433   3.661   9.801  10.242 -2.2092 -0.1563 -2.6562
  728MOL0     H  434   3.836  10.001  10.157 -1.4176 -0.1712 -0.5717
  728MOL0     H  435   3.946   9.869  10.150 -0.6318 -0.0681 -0.5170
  728MOL0     H  436   3.777   9.954  10.386  3.5157  4.8951  3.7982
  728MOL0     H  437   3.907   9.820  10.388  0.5498 -0.1360 -1.0222
  728MOL0     H  438   3.981  10.019  10.508 -0.3013 -1.2833 -0.6765
  728MOL0     H  439   3.943  10.115  10.358  1.3336  0.2656 -2.6158
  728MOL0     H  440   4.181  10.049  10.406 -0.4525  0.8801 -0.9147
  728MOL0     H  441   4.116  10.023  10.246 -1.8105  1.8053  1.0592
  728MOL0     H  442   4.110   9.780  10.281 -0.9780 -4.0189  3.2142
  728MOL0     H  443   4.143   9.784  10.454  2.6813  1.1129  0.1668
  728MOL0     H  444   3.382   9.851   9.644 -0.6689  0.4708 -0.2952
  728MOL0     H  445   3.195   9.978   9.585  1.7021  2.8375 -2.7788
  728MOL0     H  446   2.959  10.549   9.701 -0.8328 -0.6922  2.5033
  728MOL0     H  447   2.739  10.626   9.600 -0.5163 -1.2735 -1.5544
  728MOL0     H  448   1.389  10.234  10.130 -0.0907  1.5724  1.4277
  728MOL0     H  449   1.292  10.354  10.335  3.1291 -3.1519 -0.1834
  728MOL0     H  450   0.982  10.305  10.741  4.9026 -0.3272 -0.5802
  728MOL0     H  451   0.908  10.485  10.930 -2.6536  0.0896 -1.0740
  728MOL0     H  452   0.772  10.874  10.927 -1.5129  1.5880 -1.7927
  728MOL0     H  453   0.720  10.736  10.833  3.3688 -0.6524 -2.2663
  728MOL0     H  454   0.812  10.696  11.120 -0.9543 -0.7749  0.9075
  728MOL0     H  455   0.705  10.591  11.008 -0.6641 -0.3875  0.3243
  728MOL0     H  456   0.614  10.714  11.217  0.8154  1.1541  0.9192
  728MOL0     H  457   0.628  10.853  11.118  0.2896  0.2555  0.3267
  728MOL0     H  458   0.428  10.629  11.075  0.8822  0.4702  1.1780
  728MOL0     H  459   0.490  10.696  10.924  0.3708  2.0116 -0.4693
  728MOL0     H  460   0.256  11.015  11.037 -2.5322 -2.5863 -2.3536
  728MOL0     H  461   0.983  10.798  10.647 -1.6325 -0.5631  0.5741
  728MOL0     H  462   1.066  10.785  10.447  0.2796  0.3549  0.6452
  728MOL0     H  463   1.165  10.655  10.418  0.1404  0.7898  1.1193
  728MOL0     H  464   0.994  10.646  10.357  1.0009 -1.6525 -0.0926
  729MOL0     O  465   0.627   3.194   0.854  0.4163 -0.3783  0.6512
  729MOL0     C  466   0.711   3.110   0.847  0.0843  0.3177 -0.1058
  729MOL0     O  467   0.772   3.080   0.735  0.3695 -0.2637 -0.1933
  729MOL0     C  468   0.767   3.170   0.627 -0.2441 -0.4745 -0.6616
  729MOL0     C  469   0.884   3.262   0.604  0.5054 -1.0583  0.0631
  729MOL0     C  470   0.890   3.333   0.485  0.4166  1.6851 -0.1106
  729MOL0     C  471   0.798   3.312   0.385  0.4081  0.1480 -0.5610
  729MOL0     O  472   0.830   3.376   0.269 -0.9329 -0.4260 -0.0959
  729MOL0     C  473   0.798   3.308   0.148 -0.4070  0.4680  0.0579
  729MOL0     C  474   0.862   3.372   0.024  0.4329 -0.0147 -0.3982
  729MOL0     C  475   0.812   3.284  -0.098 -0.0416  0.8650 -0.0167
  729MOL0     C  476   0.894   3.336  -0.223  0.3754  0.4297  0.1736
  729MOL0     C  477   0.854   3.275  -0.346 -0.4328  0.8158  0.4293
  729MOL0     C  478   0.846   3.118  -0.351  0.3309 -1.0742  0.4413
  729MOL0     C  479   0.852   3.077  -0.499 -0.0595  0.6091  0.3232
  729MOL0     C  480   0.788   2.939  -0.512 -0.1426 -0.3179  0.6546
  729MOL0     N  481   0.805   2.890  -0.658  0.1170  0.1038 -0.0015
  729MOL0     C  482   0.764   2.952  -0.772  0.0379  0.6673  0.3451
  729MOL0     C  483   0.804   2.860  -0.866 -0.4572 -1.3590  0.6084
  729MOL0     C  484   0.762   2.866  -1.008  0.6854 -0.3349 -0.1336
  729MOL0     C  485   0.847   2.969  -1.097  0.0061 -0.4900 -0.5277
  729MOL0     C  486   0.811   2.970  -1.248 -0.4039 -0.9691  0.8221
  729MOL0     C  487   0.663   3.012  -1.292 -0.3655  0.2003 -0.4497
  729MOL0     O  488   0.635   3.039  -1.428 -0.0697  0.1948 -0.1329
  729MOL0     C  489   0.683   3.154  -1.486  0.2644  0.2710  0.1251
  729MOL0     C  490   0.688   3.153  -1.628 -0.4907  0.1057  0.1126
  729MOL0     C  491   0.746   3.259  -1.692  1.2821 -0.1678 -0.0070
  729MOL0     C  492   0.735   3.259  -1.843 -0.2122  0.1109 -0.3314
  729MOL0     C  493   0.799   3.369  -1.626 -0.8019  1.2627  0.6963
  729MOL0     C  494   0.857   3.491  -1.684 -1.2153  0.1365 -0.4534
  729MOL0     O  495   0.927   3.580  -1.601  0.1500 -0.0279 -0.4012
  729MOL0     C  496   0.999   3.687  -1.652  1.0268 -0.3780 -0.6107
  729MOL0     C  497   1.056   3.697  -1.783  1.5080 -1.0406 -0.0922
  729MOL0     C  498   1.150   3.801  -1.806 -0.2681 -0.3552  0.6125
  729MOL0     C  499   1.175   3.894  -1.704  0.5575 -0.5630  0.5968
  729MOL0     O  500   1.233   4.010  -1.736 -0.0022 -0.2924  0.0036
  729MOL0     C  501   1.344   4.050  -1.649  0.7649  0.2305  0.1036
  729MOL0     C  502   1.471   3.998  -1.713  0.8800 -0.1119 -0.2949
  729MOL0     C  503   1.480   3.842  -1.686  0.7206  0.0265 -0.0464
  729MOL0     C  504   1.622   3.809  -1.649 -0.1920 -0.3468  0.2680
  729MOL0     C  505   1.724   3.741  -1.750  0.0513 -0.3749  0.2554
  729MOL0     C  506   1.852   3.702  -1.659  0.4412 -0.8620  0.5375
  729MOL0     C  507   1.961   3.664  -1.756  0.4882 -1.4046 -0.2166
  729MOL0     C  508   2.081   3.650  -1.672 -0.2342  1.2087 -0.7930
  729MOL0    Cl  509   2.220   3.598  -1.779  0.7264 -0.6468  0.3055
  729MOL0     C  510   1.119   3.873  -1.578  0.1494  0.1092 -0.3206
  729MOL0     C  511   1.044   3.760  -1.548  0.7104 -0.2712 -0.5121
  729MOL0     O  512   0.843   3.518  -1.802  0.6871  0.2003 -0.4292
  729MOL0     C  513   0.793   3.368  -1.487 -0.4274  0.0714  0.1637
  729MOL0     C  514   0.744   3.263  -1.415  0.7320 -0.3513  1.0340
  729MOL0     N  515   0.872   2.753  -0.815  0.4832  0.0726 -0.7651
  729MOL0     N  516   0.858   2.772  -0.686  0.7956  1.1381  0.8868
  729MOL0     C  517   0.690   3.226   0.405  0.3980  0.4777  0.5547
  729MOL0     C  518   0.675   3.155   0.526  0.3030 -0.2681  1.2582
  729MOL0     C  519   0.726   3.025   0.977 -0.1741  0.0066  0.1853
  729MOL0     C  520   0.801   2.912   0.950  0.0016  0.5097 -0.0698
  729MOL0     C  521   0.818   2.817   1.051 -0.0489  0.7023 -0.4030
  729MOL0     C  522   0.772   2.842   1.183 -0.4247 -0.4436  1.3659
  729MOL0     O  523   0.811   2.755   1.281  0.7312  0.9369  0.2451
  729MOL0     C  524   0.713   2.744   1.389 -1.2384 -0.8135 -1.1204
  729MOL0     C  525   0.736   2.598   1.439 -0.7220 -0.7544 -0.0481
  729MOL0     C  526   0.689   2.486   1.348 -0.6717 -0.0338 -0.4130
  729MOL0     C  527   0.791   2.373   1.337 -0.6214 -0.8721  0.7013
  729MOL0     C  528   0.813   2.293   1.463 -0.2430  0.4722  0.0631
  729MOL0     C  529   0.836   2.250   1.575  0.4964 -0.3209 -0.3095
  729MOL0     C  530   0.724   2.969   1.209 -0.1682  0.9766  0.8554
  729MOL0     C  531   0.689   3.060   1.115 -0.2650  0.6874  0.7958
  729MOL0     C  532   0.623   3.188   1.163 -0.2064  0.5841 -0.7419
  729MOL0     H  533   0.953   3.295   0.681  1.6685  0.1470 -1.4171
  729MOL0     H  534   0.981   3.392   0.476  1.8068 -0.5519 -2.4253
  729MOL0     H  535   0.690   3.293   0.142 -0.4588 -0.8431  2.7731
  729MOL0     H  536   0.846   3.210   0.149 -1.6019 -0.2283 -2.6308
  729MOL0     H  537   0.821   3.472   0.011 -0.8030 -0.6340 -1.5108
  729MOL0     H  538   0.971   3.364   0.032  0.3715 -0.6872 -0.1701
  729MOL0     H  539   0.841   3.181  -0.074 -0.1610 -0.2281 -3.7889
  729MOL0     H  540   0.705   3.292  -0.121 -0.5382 -0.4725  1.5913
  729MOL0     H  541   0.889   3.445  -0.229 -3.0902  0.3615 -0.5329
  729MOL0     H  542   1.000   3.312  -0.213  0.3900 -1.1654 -2.7786
  729MOL0     H  543   0.925   3.292  -0.428  0.5398 -3.7427  0.0961
  729MOL0     H  544   0.760   3.317  -0.382  0.9516  2.1772 -1.8668
  729MOL0     H  545   0.942   3.085  -0.311  0.7539  0.6745  0.9409
  729MOL0     H  546   0.764   3.075  -0.292 -0.7781 -0.0488 -0.2959
  729MOL0     H  547   0.953   3.066  -0.539  0.1983  3.3377 -0.0060
  729MOL0     H  548   0.800   3.144  -0.568  0.2555  0.5632  0.0396
  729MOL0     H  549   0.834   2.880  -0.432  1.1096 -0.1179  0.1158
  729MOL0     H  550   0.680   2.939  -0.493 -0.4262 -1.9671 -0.6971
  729MOL0     H  551   0.707   3.036  -0.810 -1.2912 -0.9991 -1.5963
  729MOL0     H  552   0.661   2.907  -1.013  0.3058 -1.1053  0.9686
  729MOL0     H  553   0.745   2.765  -1.046 -2.0578 -1.0784  2.6665
  729MOL0     H  554   0.843   3.072  -1.061  2.3832 -0.3635 -0.4834
  729MOL0     H  555   0.954   2.953  -1.081  0.5206  4.7518  4.5954
  729MOL0     H  556   0.890   3.026  -1.300 -2.1179 -0.1207 -0.9949
  729MOL0     H  557   0.835   2.872  -1.291 -2.5967 -0.4585 -1.8494
  729MOL0     H  558   0.591   2.934  -1.266 -0.3003  0.3596  0.2132
  729MOL0     H  559   0.629   3.095  -1.230  1.2197  1.1680 -0.8107
  729MOL0     H  560   0.649   3.066  -1.680  1.1888 -1.1993  0.9417
  729MOL0     H  561   0.670   3.339  -1.880  0.1415 -0.3468 -2.0283
  729MOL0     H  562   0.700   3.161  -1.877  0.4193 -0.1042 -0.3776
  729MOL0     H  563   0.833   3.268  -1.892  1.2713 -1.3263  2.1376
  729MOL0     H  564   1.033   3.638  -1.871  0.5635  1.1209 -1.3630
  729MOL0     H  565   1.202   3.810  -1.901 -2.0897 -0.1604 -0.4329
  729MOL0     H  566   1.347   4.160  -1.648 -4.7540  0.7044 -1.1849
  729MOL0     H  567   1.347   3.998  -1.553  2.7246 -0.7158 -0.4220
  729MOL0     H  568   1.477   4.023  -1.819 -1.8427  2.2358 -0.0309
  729MOL0     H  569   1.547   4.056  -1.660 -0.6952  1.7286  0.0494
  729MOL0     H  570   1.439   3.792  -1.774 -1.3395  2.6983 -0.7075
  729MOL0     H  571   1.422   3.811  -1.599  2.5447  2.8118  2.3608
  729MOL0     H  572   1.618   3.746  -1.560  0.1389  1.8377  1.9141
  729MOL0     H  573   1.668   3.901  -1.610 -1.7293  0.3147  0.5721
  729MOL0     H  574   1.677   3.650  -1.788 -1.0564  0.1959  0.2368
  729MOL0     H  575   1.748   3.800  -1.839 -3.0486  0.9716  0.2079
  729MOL0     H  576   1.806   3.624  -1.598 -0.6376 -1.2042 -0.6790
  729MOL0     H  577   1.892   3.782  -1.596  1.2040 -0.8835  0.0952
  729MOL0     H  578   1.984   3.749  -1.821 -1.8304 -0.7449 -0.2637
  729MOL0     H  579   1.923   3.579  -1.814 -2.9890  1.2368 -2.2446
  729MOL0     H  580   2.055   3.573  -1.599  0.5951  1.8457  0.1898
  729MOL0     H  581   2.094   3.743  -1.616  1.0252 -1.3664  3.6753
  729MOL0     H  582   1.155   3.944  -1.503  1.4589 -1.1939  0.3453
  729MOL0     H  583   1.007   3.730  -1.450 -0.6959  2.0562 -0.2598
  729MOL0     H  584   0.849   3.438  -1.426 -1.0404 -0.2325  1.0961
  729MOL0     H  585   0.771   3.255  -1.310  2.2342 -0.1243  0.6838
  729MOL0     H  586   0.618   3.214   0.325  0.6231 -4.6455  0.7590
  729MOL0     H  587   0.601   3.078   0.546  1.5587 -1.3213  2.0014
  729MOL0     H  588   0.846   2.904   0.852 -0.3771  0.1985 -0.2176
  729MOL0     H  589   0.856   2.716   1.043 -0.1490  0.7913 -2.5928
  729MOL0     H  590   0.748   2.812   1.468 -1.9950 -1.9230  0.2139
  729MOL0     H  591   0.606   2.745   1.370 -1.5681  3.9441 -0.3426
  729MOL0     H  592   0.698   2.589   1.541 -0.4056 -1.4824  0.0138
  729MOL0     H  593   0.844   2.590   1.458 -1.4302 -2.8937  3.8802
  729MOL0     H  594   0.590   2.449   1.377 -1.4553  0.4651 -2.3222
  729MOL0     H  595   0.675   2.522   1.246 -2.0281 -0.0140 -0.2390
  729MOL0     H  596   0.887   2.404   1.296 -0.7316 -1.3150  0.0906
  729MOL0     H  597   0.742   2.303   1.269 -1.4076  1.1944 -0.9404
  729MOL0     H  598   0.854   2.210   1.673 -2.4644 -1.6417 -0.1991
  729MOL0     H  599   0.716   2.985   1.316 -0.3735 -1.9906  1.3743
  729MOL0     H  600   0.516   3.165   1.161  0.4051 -3.5439 -5.3469
  729MOL0     H  601   0.667   3.203   1.262 -0.7036  1.7012 -0.6680
  729MOL0     H  602   0.637   3.272   1.094  2.2214  0.5268 -0.3978
  730MOL0     O  603   2.324   5.543   9.707  0.2151 -0.2239  0.7176
  730MOL0     C  604   2.307   5.435   9.650 -0.6756 -0.5989  0.1510
  730MOL0     O  605   2.188   5.393   9.591 -1.0279 -0.2091 -0.2202
  730MOL0     C  606   2.080   5.473   9.571 -0.2798  0.2225  0.4795
  730MOL0     C  607   2.086   5.598   9.513  0.2624 -0.0886 -0.3578
  730MOL0     C  608   1.975   5.655   9.455  0.0564  0.6874  0.4709
  730MOL0     C  609   1.858   5.590   9.462  0.5338  0.1155 -0.4092
  730MOL0     O  610   1.746   5.644   9.402  0.3789  0.2088 -0.6006
  730MOL0     C  611   1.652   5.551   9.348  0.7398  0.0212  0.6976
  730MOL0     C  612   1.568   5.613   9.225  0.1018  0.2323  0.4010
  730MOL0     C  613   1.661   5.698   9.142 -0.9927  0.3965  0.0859
  730MOL0     C  614   1.598   5.754   9.016  1.4487 -0.4524 -0.0514
  730MOL0     C  615   1.473   5.849   9.043  0.1764 -0.2458 -0.8547
  730MOL0     C  616   1.516   5.988   9.087  0.1840 -0.7065 -0.1575
  730MOL0     C  617   1.513   6.086   8.967  0.2251 -0.6839 -0.2774
  730MOL0     C  618   1.365   6.108   8.906 -1.0058  0.1826  0.6889
  730MOL0     N  619   1.352   6.221   8.811 -0.1735  0.6748  0.0642
  730MOL0     C  620   1.416   6.225   8.687 -0.8983  0.5479  0.0985
  730MOL0     C  621   1.405   6.347   8.636  0.0005 -0.8943 -0.9254
  730MOL0     C  622   1.433   6.392   8.493  0.1909 -0.3913  1.0000
  730MOL0     C  623   1.402   6.530   8.462  0.1415  0.0759 -0.1834
  730MOL0     C  624   1.430   6.578   8.316  0.8402 -0.9958  0.4166
  730MOL0     C  625   1.420   6.730   8.301  0.4386 -0.2179 -0.4891
  730MOL0     O  626   1.531   6.784   8.375  0.4135 -0.0099  0.0104
  730MOL0     C  627   1.535   6.921   8.388  0.0418  0.1047  1.2029
  730MOL0     C  628   1.440   7.010   8.330  0.5034 -0.2338  0.7175
  730MOL0     C  629   1.460   7.149   8.328 -0.5098 -0.6362 -0.0595
  730MOL0     C  630   1.362   7.223   8.241 -0.1695 -0.8073  0.6034
  730MOL0     C  631   1.555   7.202   8.414 -0.0891 -0.3122 -0.3555
  730MOL0     C  632   1.565   7.344   8.459 -0.0608  0.8317 -0.2164
  730MOL0     O  633   1.677   7.402   8.497  0.2498  0.0768  0.2608
  730MOL0     C  634   1.675   7.541   8.476 -0.4244 -0.0384  0.0707
  730MOL0     C  635   1.587   7.645   8.512  0.2632 -0.8084  0.6432
  730MOL0     C  636   1.634   7.773   8.511  0.0244 -1.0386  0.0202
  730MOL0     C  637   1.756   7.811   8.467  0.3105 -0.2059 -0.0130
  730MOL0     O  638   1.795   7.947   8.476 -0.0195  0.2591 -0.8267
  730MOL0     C  639   1.781   8.015   8.352  0.2252 -0.0525  0.1209
  730MOL0     C  640   1.782   8.161   8.378  0.1898 -0.8440 -0.9321
  730MOL0     C  641   1.921   8.217   8.422  0.5333  0.7516  0.0713
  730MOL0     C  642   1.904   8.377   8.430 -0.1516  0.5445 -0.4856
  730MOL0     C  643   2.045   8.442   8.432 -0.0236 -0.0177  0.2713
  730MOL0     C  644   2.030   8.596   8.435 -0.0761 -0.8283 -0.9930
  730MOL0     C  645   2.150   8.656   8.514  0.2183 -0.5134 -0.5610
  730MOL0     C  646   2.164   8.807   8.520  0.4270 -0.3348 -0.6438
  730MOL0    Cl  647   2.328   8.841   8.582 -0.1447 -0.6591 -0.3897
  730MOL0     C  648   1.846   7.712   8.433 -0.4325 -0.2050 -0.7089
  730MOL0     C  649   1.802   7.578   8.435 -0.5649  0.5421 -0.4341
  730MOL0     O  650   1.451   7.394   8.471 -0.4970 -0.0802  0.2067
  730MOL0     C  651   1.649   7.118   8.475  0.9066  0.1751  0.1624
  730MOL0     C  652   1.641   6.984   8.459 -0.3979  0.5334 -0.2524
  730MOL0     N  653   1.320   6.418   8.724 -0.9996  0.4699  0.1262
  730MOL0     N  654   1.283   6.340   8.830 -0.0772 -0.0328 -0.6506
  730MOL0     C  655   1.843   5.469   9.531  0.5419 -0.4932  0.0407
  730MOL0     C  656   1.956   5.410   9.587 -0.5404  0.1219  0.0626
  730MOL0     C  657   2.423   5.339   9.619 -0.1175  0.8688  0.1889
  730MOL0     C  658   2.448   5.244   9.718 -0.6253  0.6984 -0.4383
  730MOL0     C  659   2.561   5.151   9.699 -0.7163  0.2985  0.0208
  730MOL0     C  660   2.639   5.165   9.576  0.6167  0.6855 -0.6816
  730MOL0     O  661   2.739   5.074   9.565 -0.5656 -1.1139 -0.1974
  730MOL0     C  662   2.829   5.081   9.453  0.7967  0.0027  0.7927
  730MOL0     C  663   2.759   5.040   9.329  0.1201 -0.4845  0.2130
  730MOL0     C  664   2.871   5.004   9.237  0.5217 -0.0063 -0.0809
  730MOL0     C  665   2.822   4.975   9.090 -0.3071  1.1283 -0.8517
  730MOL0     C  666   2.930   4.920   9.016 -1.7247 -0.3310 -0.8110
  730MOL0     C  667   3.021   4.883   8.940 -0.1405  0.9610  0.2820
  730MOL0     C  668   2.609   5.270   9.491 -0.6113 -0.5106 -0.5508
  730MOL0     C  669   2.500   5.351   9.507  0.0400  0.5825  0.9423
  730MOL0     C  670   2.477   5.484   9.419 -0.8222  1.0545  0.8633
  730MOL0     H  671   2.184   5.639   9.496  0.5521 -1.4942 -2.5315
  730MOL0     H  672   1.986   5.749   9.404 -0.9607  0.9046  0.6156
  730MOL0     H  673   1.583   5.536   9.432  2.1806 -0.9819  1.7498
  730MOL0     H  674   1.700   5.458   9.320  0.2144 -0.3017  0.8431
  730MOL0     H  675   1.516   5.547   9.155  0.0348  2.6426 -2.0148
  730MOL0     H  676   1.495   5.679   9.273  0.4624  2.5131 -1.9146
  730MOL0     H  677   1.706   5.779   9.201 -0.2324  0.2498 -0.2718
  730MOL0     H  678   1.747   5.639   9.109 -0.2540  0.2368  2.1415
  730MOL0     H  679   1.671   5.803   8.951  2.6923 -1.4756  0.5486
  730MOL0     H  680   1.556   5.670   8.960  0.4262 -1.1121  1.6248
  730MOL0     H  681   1.417   5.814   9.130  1.6889  1.8487  1.0616
  730MOL0     H  682   1.421   5.843   8.946 -0.4043 -0.1403 -0.5582
  730MOL0     H  683   1.458   6.037   9.165  2.4076  0.0635  1.0841
  730MOL0     H  684   1.619   5.983   9.125  0.4539  0.4174 -0.6916
  730MOL0     H  685   1.583   6.061   8.887 -0.5489  0.1941 -1.2637
  730MOL0     H  686   1.543   6.185   9.000  0.3551  0.0161 -2.3397
  730MOL0     H  687   1.341   6.014   8.855 -0.8679  1.3739 -1.7305
  730MOL0     H  688   1.288   6.127   8.981 -3.1940  3.4596 -2.0084
  730MOL0     H  689   1.453   6.139   8.632 -1.9348 -0.4164  0.8407
  730MOL0     H  690   1.375   6.327   8.426  0.8787  1.0961 -1.1340
  730MOL0     H  691   1.535   6.371   8.460 -0.5104 -0.1326 -1.4794
  730MOL0     H  692   1.298   6.549   8.493  0.0163  0.5583 -0.8660
  730MOL0     H  693   1.469   6.597   8.517 -0.9740  0.3364  0.9036
  730MOL0     H  694   1.532   6.541   8.305  0.3017 -3.3257  2.3833
  730MOL0     H  695   1.365   6.531   8.242  1.8785  1.3959 -2.2126
  730MOL0     H  696   1.435   6.749   8.195  1.7666 -0.7844 -0.4187
  730MOL0     H  697   1.324   6.767   8.337  0.0697  0.8056 -2.4040
  730MOL0     H  698   1.363   6.965   8.268  0.5070 -0.3938  0.8284
  730MOL0     H  699   1.265   7.212   8.291 -0.4472  0.1300  0.2827
  730MOL0     H  700   1.349   7.200   8.135 -0.9916 -1.7692  0.8976
  730MOL0     H  701   1.383   7.330   8.240 -1.1701 -0.6076  0.2879
  730MOL0     H  702   1.484   7.636   8.545 -0.3870  1.8572 -0.4047
  730MOL0     H  703   1.573   7.861   8.529  3.0496  1.4584 -1.0358
  730MOL0     H  704   1.859   7.987   8.280  2.9093  1.1555  2.3732
  730MOL0     H  705   1.687   7.987   8.302 -0.3830  0.5743  0.8993
  730MOL0     H  706   1.769   8.222   8.288  0.9782  2.8250  1.2431
  730MOL0     H  707   1.698   8.194   8.440  1.0646  2.2615 -1.2414
  730MOL0     H  708   1.996   8.207   8.343 -0.1955  3.8342 -1.1731
  730MOL0     H  709   1.950   8.167   8.515  2.4581  1.1818 -0.2458
  730MOL0     H  710   1.847   8.403   8.520  0.1363 -2.4183  0.6846
  730MOL0     H  711   1.850   8.423   8.347 -0.1696  3.5508  1.0522
  730MOL0     H  712   2.091   8.401   8.523  2.1481  2.0287  0.1951
  730MOL0     H  713   2.107   8.425   8.344  0.2540  1.3237  0.1819
  730MOL0     H  714   1.937   8.630   8.481  1.3914 -0.6817  2.1307
  730MOL0     H  715   2.036   8.645   8.337  0.8433  1.2365  0.0337
  730MOL0     H  716   2.239   8.616   8.464  1.6181  3.0240 -1.1539
  730MOL0     H  717   2.143   8.609   8.612  2.2204 -0.5198 -0.3851
  730MOL0     H  718   2.088   8.853   8.584  1.3992  1.1992 -0.5422
  730MOL0     H  719   2.161   8.849   8.419  3.6294 -4.0928 -2.6157
  730MOL0     H  720   1.951   7.726   8.411  0.3330 -1.1491  1.9449
  730MOL0     H  721   1.877   7.508   8.401 -0.0949  0.1314  1.3844
  730MOL0     H  722   1.731   7.163   8.530 -0.5971  1.3824  1.5261
  730MOL0     H  723   1.727   6.929   8.496  0.7337  0.5981 -2.6451
  730MOL0     H  724   1.743   5.427   9.535  1.6573 -3.9550 -2.7956
  730MOL0     H  725   1.950   5.314   9.636 -1.2761  1.3613  2.5585
  730MOL0     H  726   2.397   5.243   9.814 -2.2105 -0.3652 -1.2587
  730MOL0     H  727   2.597   5.075   9.767 -0.2351 -0.1761 -0.7462
  730MOL0     H  728   2.863   5.184   9.444  1.6236 -0.4382 -2.2731
  730MOL0     H  729   2.917   5.017   9.468  3.0311  2.0197 -2.5565
  730MOL0     H  730   2.695   5.111   9.278 -0.7567  1.4651  3.6707
  730MOL0     H  731   2.702   4.949   9.350  1.1509 -0.4730  3.7573
  730MOL0     H  732   2.936   5.089   9.216 -0.3444  0.3386 -1.5415
  730MOL0     H  733   2.919   4.912   9.270 -0.9303 -2.0417 -3.1754
  730MOL0     H  734   2.786   5.067   9.043  1.9011  1.4016 -2.1504
  730MOL0     H  735   2.742   4.900   9.086 -3.8425  4.5510 -1.4152
  730MOL0     H  736   3.107   4.859   8.880  1.6077  2.2547  2.1305
  730MOL0     H  737   2.665   5.306   9.405  0.8295  0.4161  0.7282
  730MOL0     H  738   2.466   5.580   9.472  3.9526  0.9480  2.5379
  730MOL0     H  739   2.557   5.489   9.346  0.9378 -1.7441  2.4272
  730MOL0     H  740   2.388   5.456   9.362 -1.0692 -0.7171  2.0526
  731MOL0     O  741   1.673   0.822   5.594 -0.2791  0.7676 -0.0817
  731MOL0     C  742   1.765   0.872   5.657 -0.2709 -0.1850 -0.6879
  731MOL0     O  743   1.892   0.873   5.615 -0.8453 -0.8508  0.4301
  731MOL0     C  744   1.932   0.812   5.499 -0.4527 -0.4680  0.6197
  731MOL0     C  745   1.861   0.818   5.373 -0.4442  0.2027 -0.0256
  731MOL0     C  746   1.913   0.738   5.269 -0.2013 -0.0767 -0.3739
  731MOL0     C  747   2.012   0.641   5.287  0.0367 -0.0517 -1.2285
  731MOL0     O  748   2.039   0.567   5.180 -0.8664  0.5944  0.3283
  731MOL0     C  749   2.184   0.539   5.175 -0.2645 -0.4307  0.2959
  731MOL0     C  750   2.233   0.508   5.030  0.4501 -0.8750  0.1550
  731MOL0     C  751   2.336   0.392   5.026  0.0655  0.0986  1.0899
  731MOL0     C  752   2.401   0.369   4.892  0.0186 -0.5847  0.8124
  731MOL0     C  753   2.490   0.250   4.878  0.1745  0.5263 -0.4526
  731MOL0     C  754   2.623   0.259   4.965 -0.4127 -0.1295  0.3161
  731MOL0     C  755   2.685   0.126   5.015 -0.7263 -0.4522 -0.5103
  731MOL0     C  756   2.763   0.123   5.145  1.3242  0.2747  0.2518
  731MOL0     N  757   2.870   0.222   5.154  0.5719  1.0332  0.0459
  731MOL0     C  758   2.866   0.344   5.214  0.3002 -0.1416 -0.6789
  731MOL0     C  759   2.986   0.397   5.172  0.5079  0.2503 -0.2631
  731MOL0     C  760   3.042   0.529   5.218  0.1011 -0.0069 -0.9320
  731MOL0     C  761   3.173   0.522   5.295  0.1216  0.3233 -0.6658
  731MOL0     C  762   3.203   0.649   5.377 -0.3699 -0.0247 -0.3476
  731MOL0     C  763   3.311   0.633   5.486  0.6788 -0.2211  0.6186
  731MOL0     O  764   3.259   0.599   5.618  0.1638 -0.6627 -0.3033
  731MOL0     C  765   3.347   0.590   5.725 -0.5886  0.7977  0.2004
  731MOL0     C  766   3.287   0.566   5.855  0.0470  0.6732 -0.1868
  731MOL0     C  767   3.362   0.568   5.977  0.4620  0.4831  0.8471
  731MOL0     C  768   3.282   0.557   6.105 -0.1228 -0.3296  0.5965
  731MOL0     C  769   3.498   0.584   5.974 -0.8054 -0.2654  0.3124
  731MOL0     C  770   3.607   0.572   6.074  0.7936 -0.0839  0.1896
  731MOL0     O  771   3.718   0.648   6.065  0.4671 -0.6559  0.2787
  731MOL0     C  772   3.830   0.651   6.148  0.9168 -0.0453  0.3971
  731MOL0     C  773   3.910   0.766   6.166 -0.7023 -0.5519  0.5711
  731MOL0     C  774   4.010   0.770   6.263 -0.2266  0.2380  0.3674
  731MOL0     C  775   4.054   0.645   6.315  0.2357 -0.4331 -0.6718
  731MOL0     O  776   4.168   0.658   6.381 -0.4224  0.2131 -0.9830
  731MOL0     C  777   4.239   0.550   6.451  0.5060  0.0815 -0.5936
  731MOL0     C  778   4.383   0.604   6.495  0.8660  0.0193 -0.5086
  731MOL0     C  779   4.496   0.500   6.520  1.0050 -0.6137  0.2863
  731MOL0     C  780   4.581   0.528   6.650 -0.6764  0.5395  0.5955
  731MOL0     C  781   4.698   0.428   6.647  0.2779 -0.4060 -0.5968
  731MOL0     C  782   4.781   0.426   6.777 -0.7590 -0.7773 -0.3786
  731MOL0     C  783   4.916   0.372   6.735  0.2940  0.2082 -0.1706
  731MOL0     C  784   4.992   0.311   6.859 -0.0450 -1.0783 -0.6271
  731MOL0    Cl  785   5.152   0.239   6.808 -0.5910 -0.3927 -0.3706
  731MOL0     C  786   3.989   0.530   6.292  0.8359 -0.2749  0.1384
  731MOL0     C  787   3.871   0.531   6.205 -0.0031  0.5611 -0.5285
  731MOL0     O  788   3.579   0.501   6.169 -0.5673  0.4702 -0.1536
  731MOL0     C  789   3.553   0.617   5.850 -0.6122 -0.3471  0.3479
  731MOL0     C  790   3.480   0.626   5.725  0.6192 -0.5108 -0.5590
  731MOL0     N  791   3.061   0.305   5.095  0.6550  0.1251  0.6169
  731MOL0     N  792   2.981   0.199   5.082  0.3504 -0.4033  0.1778
  731MOL0     C  793   2.075   0.639   5.412 -0.1577 -0.0862  0.0678
  731MOL0     C  794   2.034   0.722   5.517  0.0949 -0.3338 -0.8082
  731MOL0     C  795   1.737   0.916   5.797  0.0200 -1.0655 -0.0276
  731MOL0     C  796   1.905   0.948   5.916 -0.1824 -0.7414 -0.5522
  731MOL0     C  797   1.887   1.000   6.123  0.3139 -0.3394  0.1344
  731MOL0     C  798   1.693   1.026   6.204  0.1583 -0.1923  0.8324
  731MOL0     O  799   1.674   1.080   6.333  0.1776 -0.5132 -0.0427
  731MOL0     C  800   1.550   1.137   6.372  0.4066  0.1023  0.3041
  731MOL0     C  801   1.562   1.261   6.470 -0.5973  0.4688 -0.7920
  731MOL0     C  802   1.630   1.389   6.411 -0.1618  0.3166  0.8619
  731MOL0     C  803   1.599   1.514   6.498  0.2199  0.0066  0.0378
  731MOL0     C  804   1.449   1.515   6.527 -0.3390  0.2327  0.5096
  731MOL0     C  805   1.336   1.545   6.557 -1.4793  0.6519 -0.1540
  731MOL0     C  806   1.521   0.981   6.077  0.1801  0.0572 -0.3451
  731MOL0     C  807   1.551   0.940   5.875  0.1197  0.2829 -0.2407
  731MOL0     C  808   1.430   0.918   5.789 -0.9908  0.6412  0.5800
  731MOL0     H  809   1.779   0.888   5.362  0.1700  0.9559  0.0740
  731MOL0     H  810   1.867   0.754   5.172 -2.8308  2.2767  1.0922
  731MOL0     H  811   2.219   0.463   5.246  1.6445 -1.4686 -1.6526
  731MOL0     H  812   2.222   0.637   5.205  0.2447  0.8975 -3.9712
  731MOL0     H  813   2.146   0.494   4.965 -0.1407  0.4285  0.6455
  731MOL0     H  814   2.291   0.597   5.005  2.5201 -1.2756  2.9807
  731MOL0     H  815   2.415   0.407   5.100  0.3292 -3.1887  1.6189
  731MOL0     H  816   2.283   0.298   5.039 -1.8054  0.6052 -1.8080
  731MOL0     H  817   2.326   0.354   4.813  1.0970 -2.3699  0.0599
  731MOL0     H  818   2.470   0.451   4.871  1.1694 -1.8812 -0.7763
  731MOL0     H  819   2.510   0.223   4.774  0.8814 -1.5221  0.1659
  731MOL0     H  820   2.424   0.168   4.908 -0.6512  1.2664 -0.2021
  731MOL0     H  821   2.695   0.320   4.909  0.1002  0.4273  1.5485
  731MOL0     H  822   2.612   0.320   5.055 -2.9446 -0.8128  0.5290
  731MOL0     H  823   2.735   0.084   4.927  0.5604  2.1145 -1.0930
  731MOL0     H  824   2.612   0.048   5.040  1.8176 -3.3042 -1.2330
  731MOL0     H  825   2.681   0.136   5.216  1.5299 -0.2725  0.5896
  731MOL0     H  826   2.800   0.021   5.156 -1.0078 -0.4097  2.8169
  731MOL0     H  827   2.791   0.384   5.281 -0.2127  0.2020 -1.4554
  731MOL0     H  828   2.965   0.573   5.283 -1.4157 -0.8377 -2.0966
  731MOL0     H  829   3.059   0.600   5.137 -1.5851 -1.3184 -2.5200
  731MOL0     H  830   3.166   0.444   5.372 -0.9234  2.0545  1.0834
  731MOL0     H  831   3.260   0.515   5.229  1.5968  3.1995  0.7876
  731MOL0     H  832   3.227   0.724   5.301 -2.2201  0.9331 -0.0568
  731MOL0     H  833   3.114   0.695   5.421  1.0994  2.6526 -0.0099
  731MOL0     H  834   3.372   0.550   5.448 -0.6041 -1.2043  0.6459
  731MOL0     H  835   3.370   0.724   5.475 -3.9147  2.9924 -0.6156
  731MOL0     H  836   3.184   0.537   5.870 -0.3971  3.2023  2.8433
  731MOL0     H  837   3.311   0.636   6.175  0.7353 -0.2884  0.2066
  731MOL0     H  838   3.303   0.458   6.145 -2.8525 -1.6926 -1.0662
  731MOL0     H  839   3.172   0.560   6.099 -0.5517 -0.9718  4.9661
  731MOL0     H  840   3.891   0.857   6.110  0.9143 -0.1747  0.6070
  731MOL0     H  841   4.062   0.865   6.267 -0.7338  0.7254 -2.4863
  731MOL0     H  842   4.185   0.533   6.544  3.4889  0.0686  1.2696
  731MOL0     H  843   4.252   0.461   6.389  2.7483  0.4427 -0.7339
  731MOL0     H  844   4.424   0.682   6.430  3.5997 -1.5630 -0.8578
  731MOL0     H  845   4.375   0.662   6.587  2.3526  2.4151 -1.7699
  731MOL0     H  846   4.563   0.493   6.434 -1.0061 -1.7517 -1.2807
  731MOL0     H  847   4.442   0.406   6.531 -0.9137  0.3060 -0.7772
  731MOL0     H  848   4.513   0.513   6.734 -1.1752  4.2277  1.0339
  731MOL0     H  849   4.621   0.630   6.646  2.2772 -0.5362 -3.3998
  731MOL0     H  850   4.667   0.325   6.629  1.9230 -1.6076  2.6038
  731MOL0     H  851   4.765   0.459   6.566  0.0251 -1.7159 -1.3323
  731MOL0     H  852   4.736   0.372   6.861  0.4494  0.4106  1.0923
  731MOL0     H  853   4.796   0.522   6.826  0.1284 -1.4398  0.7020
  731MOL0     H  854   4.956   0.464   6.691 -1.9897  3.1060  3.2619
  731MOL0     H  855   4.912   0.291   6.661 -0.5062 -2.3755  2.4969
  731MOL0     H  856   4.921   0.238   6.898 -3.4158  2.7110  1.0417
  731MOL0     H  857   5.015   0.385   6.937  0.6767  1.7221 -3.2868
  731MOL0     H  858   4.041   0.437   6.315  1.3106 -0.1571 -0.4356
  731MOL0     H  859   3.819   0.439   6.185  0.3263  0.6653 -1.9584
  731MOL0     H  860   3.661   0.624   5.839 -0.4702 -0.5567  1.4657
  731MOL0     H  861   3.539   0.658   5.639  2.7052 -0.5698  0.7857
  731MOL0     H  862   2.156   0.568   5.429  0.9383  0.8676 -0.9552
  731MOL0     H  863   2.086   0.735   5.611  1.7550 -0.5630 -1.6602
  731MOL0     H  864   2.006   0.935   5.879  1.4087  1.3165  2.6902
  731MOL0     H  865   1.972   1.040   6.178 -0.7690  1.1826  0.7503
  731MOL0     H  866   1.477   1.158   6.292  0.1048  0.4644  0.6707
  731MOL0     H  867   1.506   1.051   6.424  0.8419 -3.3999 -4.3201
  731MOL0     H  868   1.623   1.229   6.555  0.4237 -0.8077 -1.9444
  731MOL0     H  869   1.462   1.274   6.512 -0.0058  3.3484 -0.0498
  731MOL0     H  870   1.740   1.397   6.409  0.3138 -2.4039 -4.7457
  731MOL0     H  871   1.602   1.416   6.309  0.1519 -0.9181  0.4288
  731MOL0     H  872   1.632   1.609   6.455 -3.3745  1.5432  0.3194
  731MOL0     H  873   1.653   1.507   6.592 -0.4144 -1.3294  0.3378
  731MOL0     H  874   1.249   1.596   6.593 -1.0549 -0.1911  2.1947
  731MOL0     H  875   1.418   0.986   6.111 -0.0514  3.1244 -1.1713
  731MOL0     H  876   1.423   0.810   5.781  1.7692  0.2549  2.0081
  731MOL0     H  877   1.339   0.959   5.833  1.0054  2.9891  2.9313
  731MOL0     H  878   1.454   0.971   5.696 -2.9662  1.7329  0.6500
  732MOL0     O  879   2.136   2.278   9.460 -0.5568 -0.4064  0.4379
  732MOL0     C  880   2.246   2.266   9.517 -0.5641 -0.1209 -0.6545
  732MOL0     O  881   2.345   2.356   9.510  0.6998 -0.6134 -0.7249
  732MOL0     C  882   2.334   2.470   9.436  0.2538  0.6061 -0.0142
  732MOL0     C  883   2.416   2.571   9.482 -0.3928  0.2010 -0.5804
  732MOL0     C  884   2.421   2.691   9.416  0.0684 -0.4862  0.6115
  732MOL0     C  885   2.354   2.723   9.304 -0.0275  1.2377  0.4226
  732MOL0     O  886   2.378   2.843   9.248 -0.6842 -0.3407  0.3603
  732MOL0     C  887   2.336   2.873   9.109  1.0424  0.4034  0.7237
  732MOL0     C  888   2.447   2.962   9.037 -0.3986  0.8314 -0.3869
  732MOL0     C  889   2.432   2.947   8.887  0.3446  0.1293 -0.0660
  732MOL0     C  890   2.545   2.977   8.793 -0.1008 -0.7956 -0.3211
  732MOL0     C  891   2.499   3.017   8.647 -0.4247 -0.6384 -0.1329
  732MOL0     C  892   2.412   3.145   8.644  0.5808 -0.7228 -0.4715
  732MOL0     C  893   2.356   3.206   8.509 -0.2667  0.0986  0.7971
  732MOL0     C  894   2.209   3.169   8.482 -0.0785 -0.8859  0.0858
  732MOL0     N  895   2.200   3.025   8.480 -0.1108 -0.0663  0.2700
  732MOL0     C  896   2.184   2.958   8.364  0.3966 -0.4545  0.7912
  732MOL0     C  897   2.160   2.831   8.410 -0.4504 -0.1951  0.5135
  732MOL0     C  898   2.127   2.727   8.308  0.1242 -0.1079 -0.8269
  732MOL0     C  899   1.985   2.681   8.330  0.6438 -0.2134 -0.3803
  732MOL0     C  900   1.923   2.585   8.229  0.0791  0.2498 -0.1872
  732MOL0     C  901   2.011   2.456   8.213 -0.0307  0.4857 -0.1664
  732MOL0     O  902   1.929   2.335   8.198 -0.0028 -0.1245  0.7615
  732MOL0     C  903   1.904   2.265   8.312  0.1664 -0.0092  0.3853
  732MOL0     C  904   1.867   2.137   8.281 -0.2691 -0.6573  0.1337
  732MOL0     C  905   1.844   2.044   8.378 -0.1100 -0.5790  0.0468
  732MOL0     C  906   1.825   1.904   8.329  0.0841 -0.2113  0.3612
  732MOL0     C  907   1.841   2.084   8.512 -1.2624 -0.7139  0.4989
  732MOL0     C  908   1.812   1.995   8.628  0.6650 -0.1337 -0.3149
  732MOL0     O  909   1.759   2.058   8.735  0.7710 -0.2030 -0.6261
  732MOL0     C  910   1.782   2.004   8.852 -0.4685  0.0104  0.1435
  732MOL0     C  911   1.855   2.078   8.943 -0.0472  1.0937 -0.3222
  732MOL0     C  912   1.869   2.021   9.068  0.7702  0.2209 -0.4113
  732MOL0     C  913   1.813   1.900   9.107 -0.6058  0.6612 -0.1644
  732MOL0     O  914   1.854   1.857   9.231  0.1110 -0.2198  0.9172
  732MOL0     C  915   1.816   1.734   9.302 -0.8089 -0.3409  0.0162
  732MOL0     C  916   1.892   1.733   9.435  0.7310 -0.1734  1.8807
  732MOL0     C  917   1.897   1.587   9.506 -0.4489 -0.6056 -0.3779
  732MOL0     C  918   1.938   1.601   9.657  0.0447 -0.1960  0.3476
  732MOL0     C  919   1.983   1.461   9.706 -0.2882 -0.6095 -1.1403
  732MOL0     C  920   2.057   1.478   9.840 -0.6304 -0.0642  0.1165
  732MOL0     C  921   2.069   1.348   9.912  1.3503  0.2025  0.5487
  732MOL0     C  922   2.146   1.372  10.043  0.1648  0.0817 -0.3206
  732MOL0    Cl  923   2.045   1.454  10.172  0.2052 -0.3449 -0.1205
  732MOL0     C  924   1.755   1.820   9.015  0.3002  1.0942  0.0781
  732MOL0     C  925   1.727   1.872   8.884 -1.0712  0.2087 -0.4068
  732MOL0     O  926   1.842   1.879   8.629  0.0269 -0.3711  0.2269
  732MOL0     C  927   1.856   2.219   8.546 -0.8406  0.0044 -0.8626
  732MOL0     C  928   1.902   2.300   8.444  0.0536 -1.0377 -0.0245
  732MOL0     N  929   2.176   2.823   8.550  0.4183 -0.5644  0.0844
  732MOL0     N  930   2.186   2.946   8.598  0.2577 -0.4504 -0.0103
  732MOL0     C  931   2.266   2.620   9.255  0.4443 -0.5493  0.3255
  732MOL0     C  932   2.253   2.494   9.322  0.0285 -0.0827  0.3344
  732MOL0     C  933   2.285   2.136   9.583  0.4846 -0.1733  0.1857
  732MOL0     C  934   2.420   2.119   9.614 -0.3623  0.6132  0.4328
  732MOL0     C  935   2.464   2.002   9.666 -0.1365 -0.4213  0.2759
  732MOL0     C  936   2.375   1.905   9.708  0.0125  0.7293  1.3073
  732MOL0     O  937   2.406   1.774   9.741 -0.2673 -0.6123  0.4187
  732MOL0     C  938   2.532   1.750   9.804  0.3665  0.0332 -0.4150
  732MOL0     C  939   2.534   1.796   9.956 -0.0470 -0.9089  0.1303
  732MOL0     C  940   2.417   1.744  10.038 -0.2797  0.2134 -0.5251
  732MOL0     C  941   2.402   1.811  10.174  0.0505 -0.4617  0.4766
  732MOL0     C  942   2.320   1.730  10.269  0.9015 -0.2888  0.6056
  732MOL0     C  943   2.249   1.659  10.335 -0.2629  0.5603  0.5415
  732MOL0     C  944   2.236   1.930   9.695 -0.7758  0.0320 -0.8649
  732MOL0     C  945   2.188   2.038   9.621  0.3656 -0.1156 -0.1941
  732MOL0     C  946   2.040   2.053   9.596 -0.6676 -0.4687  0.0006
  732MOL0     H  947   2.463   2.546   9.577  2.3910 -1.2646 -2.2012
  732MOL0     H  948   2.499   2.761   9.444  0.7793 -2.0333  2.7749
  732MOL0     H  949   2.235   2.911   9.124 -1.3682 -4.1194 -1.7399
  732MOL0     H  950   2.313   2.781   9.053 -1.2406  1.8976 -0.9821
  732MOL0     H  951   2.433   3.069   9.053  1.9144  1.2168 -0.5812
  732MOL0     H  952   2.548   2.925   9.056 -1.0947  0.1714  2.4439
  732MOL0     H  953   2.410   2.843   8.863  1.4961  0.1655 -1.4181
  732MOL0     H  954   2.344   3.009   8.865  0.8006  0.5771 -0.6654
  732MOL0     H  955   2.605   3.057   8.838 -0.8472 -0.7682  0.6595
  732MOL0     H  956   2.613   2.892   8.797  2.0606  0.8749  1.4958
  732MOL0     H  957   2.436   2.934   8.613 -2.0073  0.9319 -1.2154
  732MOL0     H  958   2.576   3.018   8.570  0.5584  1.8733  0.7754
  732MOL0     H  959   2.333   3.135   8.718  0.0288  2.2118 -0.5482
  732MOL0     H  960   2.471   3.230   8.680  0.4832 -0.3077 -1.2703
  732MOL0     H  961   2.408   3.166   8.421 -1.2165  0.4286  0.0670
  732MOL0     H  962   2.350   3.315   8.516 -1.0862  0.0865  0.4267
  732MOL0     H  963   2.155   3.218   8.563 -0.8496 -3.1496  1.0258
  732MOL0     H  964   2.174   3.209   8.386 -2.5387 -0.3273  1.1412
  732MOL0     H  965   2.187   2.998   8.263  2.9876  0.7320  1.2531
  732MOL0     H  966   2.191   2.640   8.323  2.9140  1.6554 -1.7445
  732MOL0     H  967   2.139   2.756   8.203 -1.0719 -1.8715 -1.5116
  732MOL0     H  968   1.979   2.632   8.428  1.7760  0.0552 -0.1629
  732MOL0     H  969   1.914   2.763   8.324 -2.8747 -3.1221 -2.3582
  732MOL0     H  970   1.825   2.555   8.267  0.9014 -1.6514  0.6238
  732MOL0     H  971   1.900   2.640   8.138 -0.4609  1.8705  0.8939
  732MOL0     H  972   2.067   2.472   8.120 -0.8966 -0.3184 -0.8425
  732MOL0     H  973   2.085   2.431   8.290  2.4369  1.9644 -1.8995
  732MOL0     H  974   1.865   2.107   8.176 -1.3047 -0.1849  0.0073
  732MOL0     H  975   1.899   1.841   8.379  1.0221 -0.2061 -0.9562
  732MOL0     H  976   1.813   1.899   8.220  0.2860 -0.1802  0.3378
  732MOL0     H  977   1.730   1.862   8.364  0.0881  1.4880  2.6473
  732MOL0     H  978   1.885   2.176   8.909  0.0038  1.1639 -0.0781
  732MOL0     H  979   1.937   2.071   9.136  1.3909 -1.2313  0.0738
  732MOL0     H  980   1.711   1.708   9.312 -0.0168 -3.1102  2.9423
  732MOL0     H  981   1.861   1.651   9.247  0.1988  0.7458 -0.8740
  732MOL0     H  982   1.994   1.771   9.423  0.5091 -0.1107 -0.3929
  732MOL0     H  983   1.849   1.803   9.507  0.6259  0.1529  1.5060
  732MOL0     H  984   1.974   1.523   9.462  2.2586  1.3226  1.2256
  732MOL0     H  985   1.799   1.539   9.512  0.2263 -1.8983  1.3227
  732MOL0     H  986   1.850   1.650   9.698 -0.4056  0.5894 -1.4288
  732MOL0     H  987   2.022   1.671   9.665  0.9964 -0.9289 -2.1867
  732MOL0     H  988   1.891   1.407   9.729 -0.3534 -0.8165 -1.8582
  732MOL0     H  989   2.055   1.426   9.631  0.5755  0.8048 -1.0055
  732MOL0     H  990   1.992   1.539   9.904 -2.7529 -1.4160 -0.6726
  732MOL0     H  991   2.158   1.518   9.822 -0.6648 -0.5643 -1.2546
  732MOL0     H  992   2.107   1.268   9.847 -1.9391 -0.7101 -0.4660
  732MOL0     H  993   1.966   1.313   9.927  0.9138  1.8296  1.6751
  732MOL0     H  994   2.226   1.444  10.027  0.8355 -0.5126  0.3080
  732MOL0     H  995   2.187   1.273  10.066  4.0484  0.8773 -2.7545
  732MOL0     H  996   1.739   1.714   9.033 -0.8199  1.0438 -1.0588
  732MOL0     H  997   1.686   1.810   8.805 -0.3926 -0.6009 -0.1363
  732MOL0     H  998   1.859   2.265   8.644 -2.0621  3.5131 -2.3013
  732MOL0     H  999   1.935   2.399   8.472 -1.0241 -0.7034  0.1082
  732MOL0     H 1000   2.213   2.624   9.161  0.8417  0.5007  0.1337
  732MOL0     H 1001   2.191   2.432   9.259 -0.4320 -0.4194  1.1152
  732MOL0     H 1002   2.500   2.189   9.589 -1.4918  0.5829 -4.3826
  732MOL0     H 1003   2.572   1.999   9.670 -0.0199  2.4395  1.1465
  732MOL0     H 1004   2.532   1.641   9.803 -3.0905 -0.1918  2.6291
  732MOL0     H 1005   2.612   1.798   9.747  1.4564  0.5784  1.5045
  732MOL0     H 1006   2.531   1.905   9.962 -3.8567 -0.7145 -2.4321
  732MOL0     H 1007   2.635   1.763   9.981  1.3781  3.4931  1.1172
  732MOL0     H 1008   2.316   1.738   9.995 -1.6050  0.3780  2.3196
  732MOL0     H 1009   2.437   1.637  10.051  0.6009  0.1849 -1.9675
  732MOL0     H 1010   2.358   1.911  10.165  1.9187  0.4274  0.6241
  732MOL0     H 1011   2.498   1.834  10.222 -1.2590  3.1786  1.7301
  732MOL0     H 1012   2.185   1.586  10.379 -2.4783 -0.5392 -3.8762
  732MOL0     H 1013   2.153   1.874   9.735 -0.8619 -0.6032 -1.8980
  732MOL0     H 1014   2.021   2.068   9.490  1.8807 -1.8857 -0.7358
  732MOL0     H 1015   1.985   1.960   9.616  2.5063 -3.0277 -2.2623
  732MOL0     H 1016   2.004   2.149   9.635 -1.0433 -0.2713 -0.8095
  733MOL0     O 1017   7.589   4.385   3.354 -0.0639  0.9186  0.3043
  733MOL0     C 1018   7.490   4.359   3.280  0.1911  0.0799  0.2981
  733MOL0     O 1019   7.501   4.314   3.152  0.5672  0.3981 -0.5386
  733MOL0     C 1020   7.628   4.290   3.102  1.1527  0.3705  0.4272
  733MOL0     C 1021   7.720   4.394   3.088 -0.1049 -0.6099 -0.9010
  733MOL0     C 1022   7.836   4.382   3.010  0.2005 -0.1973 -0.2970
  733MOL0     C 1023   7.857   4.262   2.932 -0.2622 -1.2342 -0.4366
  733MOL0     O 1024   7.963   4.259   2.846 -0.3216  0.6729 -0.3145
  733MOL0     C 1025   7.944   4.193   2.719 -0.4337  0.4793  1.0718
  733MOL0     C 1026   7.995   4.059   2.706  0.1082 -0.2707  0.1860
  733MOL0     C 1027   8.151   4.050   2.707  0.3681  0.4055 -0.5389
  733MOL0     C 1028   8.201   3.909   2.720  0.3173  0.7169 -0.1764
  733MOL0     C 1029   8.350   3.890   2.688 -0.4753  0.7884 -0.8781
  733MOL0     C 1030   8.379   3.734   2.687 -0.3709  0.4083 -0.0684
  733MOL0     C 1031   8.531   3.710   2.659  0.0062  0.5014  0.3523
  733MOL0     C 1032   8.564   3.654   2.508  0.1321  0.1619  0.4234
  733MOL0     N 1033   8.561   3.503   2.498  0.1283 -0.1824 -0.4410
  733MOL0     C 1034   8.677   3.428   2.474  0.4611 -0.2368 -0.7447
  733MOL0     C 1035   8.630   3.296   2.490  0.0236 -0.1827 -0.6184
  733MOL0     C 1036   8.707   3.162   2.507  1.5457  0.3604 -1.0350
  733MOL0     C 1037   8.828   3.138   2.415  0.2673  0.1860  0.4406
  733MOL0     C 1038   8.955   3.187   2.486 -0.3272 -0.5191 -0.1269
  733MOL0     C 1039   9.082   3.137   2.404 -0.2550  0.6350 -0.2298
  733MOL0     O 1040   9.118   3.010   2.452 -0.6801  0.6982 -0.0911
  733MOL0     C 1041   9.171   2.933   2.358 -0.0648  0.7112  0.7412
  733MOL0     C 1042   9.116   2.819   2.301  0.2007 -1.6527 -0.7117
  733MOL0     C 1043   9.177   2.729   2.215 -0.5732 -0.6444  0.0016
  733MOL0     C 1044   9.096   2.613   2.167 -0.7601  0.2838 -0.5200
  733MOL0     C 1045   9.317   2.748   2.186 -0.3276  0.3873 -1.4685
  733MOL0     C 1046   9.407   2.658   2.111  0.3040  0.7226  0.7705
  733MOL0     O 1047   9.541   2.700   2.100 -0.1463 -0.1748  0.4753
  733MOL0     C 1048   9.625   2.635   2.021  0.2597  0.8774 -0.6595
  733MOL0     C 1049   9.602   2.550   1.912 -0.3073 -0.3859 -0.2812
  733MOL0     C 1050   9.712   2.489   1.842 -0.9471 -0.0930  1.1228
  733MOL0     C 1051   9.842   2.520   1.874 -0.0342  0.4902 -0.2868
  733MOL0     O 1052   9.954   2.460   1.826  0.2723  0.2979  0.0403
  733MOL0     C 1053   9.936   2.380   1.707 -0.0872  0.4065  0.1539
  733MOL0     C 1054  10.061   2.331   1.624 -0.1804  0.5500  0.2580
  733MOL0     C 1055  10.140   2.457   1.590  0.3042  0.4539  0.6732
  733MOL0     C 1056  10.280   2.421   1.522 -0.0249  0.5784 -0.8305
  733MOL0     C 1057  10.359   2.553   1.502  0.3266 -0.6911 -0.5671
  733MOL0     C 1058  10.491   2.553   1.418  0.3698  0.8235 -0.1755
  733MOL0     C 1059  10.552   2.689   1.416 -0.0347  0.1426  0.3953
  733MOL0     C 1060  10.696   2.687   1.364  0.1338  0.8968 -0.9101
  733MOL0    Cl 1061  10.773   2.850   1.367 -0.5348 -0.7991 -0.2355
  733MOL0     C 1062   9.865   2.617   1.977  0.3404  0.6188 -1.2817
  733MOL0     C 1063   9.758   2.665   2.049  0.4362 -0.0833  0.5578
  733MOL0     O 1064   9.358   2.548   2.071 -0.7130  0.3212  0.2873
  733MOL0     C 1065   9.383   2.857   2.260 -0.1611 -0.1666 -0.5898
  733MOL0     C 1066   9.308   2.949   2.331 -0.0971  0.8653 -0.1930
  733MOL0     N 1067   8.492   3.297   2.518  0.1688 -0.4091 -0.5046
  733MOL0     N 1068   8.449   3.419   2.522  0.1982  0.2044 -0.4115
  733MOL0     C 1069   7.765   4.160   2.954 -0.6926 -0.0989 -0.1783
  733MOL0     C 1070   7.652   4.174   3.033 -0.6149 -0.0946 -0.5544
  733MOL0     C 1071   7.350   4.361   3.333  0.8068  0.1288  0.2794
  733MOL0     C 1072   7.347   4.395   3.472  0.6563 -0.7885 -0.0807
  733MOL0     C 1073   7.230   4.390   3.545  0.1742  0.9454  0.1051
  733MOL0     C 1074   7.113   4.345   3.484 -0.3922 -0.5545 -0.6662
  733MOL0     O 1075   6.996   4.355   3.561 -1.0683  0.9732 -0.3909
  733MOL0     C 1076   6.890   4.429   3.497  0.0385 -0.7413  0.0881
  733MOL0     C 1077   6.796   4.484   3.604 -0.6967 -1.0019  0.9854
  733MOL0     C 1078   6.722   4.386   3.699  0.5148 -0.1440  0.2962
  733MOL0     C 1079   6.659   4.257   3.637  0.0373  0.5298  0.4907
  733MOL0     C 1080   6.574   4.297   3.524  0.0182 -0.0251 -0.1061
  733MOL0     C 1081   6.492   4.319   3.444 -0.4317  0.1341 -0.5347
  733MOL0     C 1082   7.117   4.316   3.344 -0.0585 -0.0654  0.5211
  733MOL0     C 1083   7.236   4.311   3.267  0.1052 -0.7393  0.5501
  733MOL0     C 1084   7.224   4.277   3.119  0.1713  0.5335 -0.5019
  733MOL0     H 1085   7.704   4.483   3.148  4.4389 -0.7143  0.9478
  733MOL0     H 1086   7.909   4.460   3.024  0.2373 -0.1395 -0.7785
  733MOL0     H 1087   8.002   4.259   2.654  0.3585  0.7470  2.0284
  733MOL0     H 1088   7.837   4.199   2.698 -0.7478  0.2055  2.5222
  733MOL0     H 1089   7.951   4.003   2.789 -0.2173  0.1181  0.2781
  733MOL0     H 1090   7.956   4.008   2.617 -0.9723  0.8366 -0.0045
  733MOL0     H 1091   8.195   4.097   2.619 -1.6142  0.7627 -1.3876
  733MOL0     H 1092   8.203   4.101   2.789 -1.9455  0.5405  0.9329
  733MOL0     H 1093   8.181   3.863   2.817  0.7887 -0.0392 -0.4321
  733MOL0     H 1094   8.146   3.851   2.646  2.2976 -2.2252  0.4642
  733MOL0     H 1095   8.405   3.928   2.774 -1.2036 -2.5318  1.2507
  733MOL0     H 1096   8.385   3.931   2.593 -1.8403 -0.9961 -2.2178
  733MOL0     H 1097   8.362   3.703   2.790 -2.0824  1.8123  0.1213
  733MOL0     H 1098   8.314   3.670   2.625  0.5492 -1.4200  0.7758
  733MOL0     H 1099   8.572   3.639   2.731  1.3791  1.5347  0.6259
  733MOL0     H 1100   8.588   3.801   2.680  1.4297 -0.6520  1.6700
  733MOL0     H 1101   8.494   3.689   2.433  1.6749 -0.9041 -1.6188
  733MOL0     H 1102   8.659   3.696   2.472  0.1150  0.0318  0.2297
  733MOL0     H 1103   8.778   3.464   2.458 -0.4605  1.3004 -3.8578
  733MOL0     H 1104   8.641   3.075   2.498 -0.2546  1.5921 -0.3492
  733MOL0     H 1105   8.751   3.158   2.607  2.2916  2.9254 -1.1793
  733MOL0     H 1106   8.836   3.030   2.395  3.7286  0.5047 -0.5898
  733MOL0     H 1107   8.827   3.192   2.320 -0.6657 -0.7909 -0.1273
  733MOL0     H 1108   8.950   3.295   2.503 -1.3972 -0.9832  3.0297
  733MOL0     H 1109   8.970   3.142   2.584  3.2430  1.4200  0.3747
  733MOL0     H 1110   9.053   3.136   2.299  1.2171 -0.2921 -0.6485
  733MOL0     H 1111   9.163   3.210   2.415 -0.0628  0.3938 -0.0445
  733MOL0     H 1112   9.009   2.814   2.319  0.0085  2.8337  0.7197
  733MOL0     H 1113   8.997   2.620   2.212 -0.9429  1.0730 -1.0294
  733MOL0     H 1114   9.153   2.526   2.202 -0.9463  0.2698 -0.2494
  733MOL0     H 1115   9.099   2.604   2.058  2.2224 -0.2893 -0.4766
  733MOL0     H 1116   9.500   2.520   1.895 -0.2320 -0.7682 -0.0621
  733MOL0     H 1117   9.680   2.412   1.772  1.7907 -0.4551  0.1300
  733MOL0     H 1118   9.872   2.297   1.737  2.7649 -1.5864  1.1296
  733MOL0     H 1119   9.880   2.438   1.632 -0.3633  1.0411  0.8322
  733MOL0     H 1120  10.122   2.256   1.675  0.3435  2.8552  3.3349
  733MOL0     H 1121  10.022   2.294   1.529 -0.1157  1.7408 -0.2529
  733MOL0     H 1122  10.153   2.498   1.690 -1.5249 -0.2991  1.2559
  733MOL0     H 1123  10.091   2.524   1.518  3.4457  1.7219 -0.5028
  733MOL0     H 1124  10.253   2.366   1.432  0.5024 -1.2252  0.0798
  733MOL0     H 1125  10.340   2.353   1.582 -2.0416  0.1970  0.8935
  733MOL0     H 1126  10.297   2.631   1.457  2.0679  0.5746 -0.9039
  733MOL0     H 1127  10.383   2.589   1.602  0.5686 -1.5418 -0.3042
  733MOL0     H 1128  10.481   2.515   1.316  1.0494  1.8375 -0.6342
  733MOL0     H 1129  10.561   2.487   1.471 -0.7007 -2.0041 -2.0330
  733MOL0     H 1130  10.564   2.723   1.519  0.1929  0.8040  0.1542
  733MOL0     H 1131  10.489   2.750   1.352  0.5501  2.5480  1.9914
  733MOL0     H 1132  10.702   2.652   1.260  3.5027  2.0345 -1.2539
  733MOL0     H 1133  10.748   2.616   1.429 -0.7483 -3.0951 -4.1438
  733MOL0     H 1134   9.967   2.619   2.014 -0.4538 -2.1950  1.4764
  733MOL0     H 1135   9.772   2.735   2.131  1.0624  0.4614 -0.0106
  733MOL0     H 1136   9.487   2.885   2.247  0.3615 -1.8019 -0.2665
  733MOL0     H 1137   9.348   3.046   2.359 -0.3835  0.7160  0.7613
  733MOL0     H 1138   7.778   4.072   2.892  1.0440  0.7261 -1.0294
  733MOL0     H 1139   7.593   4.083   3.041 -0.3696 -0.0946  2.0403
  733MOL0     H 1140   7.442   4.425   3.516  0.5450  1.3383 -1.1385
  733MOL0     H 1141   7.219   4.407   3.652 -0.6621  0.7968  0.0547
  733MOL0     H 1142   6.932   4.518   3.448  1.9254  0.3527  3.3736
  733MOL0     H 1143   6.834   4.377   3.419 -1.2461  5.4304 -3.8056
  733MOL0     H 1144   6.720   4.530   3.541  0.0426 -0.8709  0.1774
  733MOL0     H 1145   6.855   4.562   3.653 -0.2396 -0.9426  0.3550
  733MOL0     H 1146   6.779   4.355   3.787 -2.7417  0.8462  2.9529
  733MOL0     H 1147   6.646   4.446   3.749  1.3848  0.0778  1.4068
  733MOL0     H 1148   6.603   4.205   3.715  0.4212 -0.7145 -0.0268
  733MOL0     H 1149   6.730   4.182   3.600 -0.5219 -0.3055  1.0693
  733MOL0     H 1150   6.430   4.342   3.359 -2.4280  2.0843  1.2990
  733MOL0     H 1151   7.021   4.280   3.306  1.1380 -5.8174  2.0194
  733MOL0     H 1152   7.275   4.181   3.105  0.4358  0.4406  0.9581
  733MOL0     H 1153   7.122   4.280   3.079 -0.5474  0.7824  1.2488
  733MOL0     H 1154   7.281   4.348   3.058  1.3967  1.1546  1.3115
  734MOL0     O 1155  10.499   7.588   9.695  0.0447  0.3746 -0.7072
  734MOL0     C 1156  10.386   7.572   9.748 -0.7944 -0.1775 -0.9990
  734MOL0     O 1157  10.268   7.623   9.697 -0.2619  0.0790 -0.2614
  734MOL0     C 1158  10.280   7.698   9.582 -0.6774 -0.3385 -0.2098
  734MOL0     C 1159  10.302   7.840   9.590  0.5491  0.1733 -1.4515
  734MOL0     C 1160  10.294   7.924   9.483 -0.6234  0.0700 -0.3244
  734MOL0     C 1161  10.269   7.862   9.357 -0.9254 -0.8036 -1.2844
  734MOL0     O 1162  10.272   7.926   9.242 -0.5361 -0.4176 -0.3001
  734MOL0     C 1163  10.280   8.068   9.232 -0.3632 -0.5880  0.9156
  734MOL0     C 1164  10.245   8.105   9.082 -0.7739  0.2951 -0.7431
  734MOL0     C 1165  10.106   8.048   9.048  0.3790 -0.7839  0.4558
  734MOL0     C 1166  10.080   8.073   8.902  0.2804 -0.0749  0.6893
  734MOL0     C 1167   9.936   8.055   8.860  0.1206  0.0672  0.8033
  734MOL0     C 1168   9.923   8.055   8.708  1.1504 -1.0629 -0.7556
  734MOL0     C 1169   9.774   8.059   8.665 -0.0114  0.5885 -0.6853
  734MOL0     C 1170   9.700   8.190   8.647  0.9231  0.1565 -0.9322
  734MOL0     N 1171   9.670   8.273   8.770  0.0368  0.5996  0.1869
  734MOL0     C 1172   9.680   8.408   8.755 -0.4443  0.0664 -0.4385
  734MOL0     C 1173   9.622   8.462   8.866 -0.1610  1.0249  0.3869
  734MOL0     C 1174   9.608   8.606   8.908 -0.8733 -0.4489 -0.7689
  734MOL0     C 1175   9.483   8.681   8.848 -0.6491  1.0447 -0.8381
  734MOL0     C 1176   9.344   8.618   8.889  0.8718  0.5328 -0.2865
  734MOL0     C 1177   9.223   8.706   8.857 -0.6505  0.8213  0.1927
  734MOL0     O 1178   9.190   8.703   8.709 -0.5453 -0.3321  0.1179
  734MOL0     C 1179   9.097   8.798   8.664  0.4687 -0.0444  0.1725
  734MOL0     C 1180   9.038   8.913   8.726  0.3377  0.5420 -0.6461
  734MOL0     C 1181   8.948   8.994   8.657 -0.1405 -0.9793  0.8497
  734MOL0     C 1182   8.891   9.117   8.740 -0.8495  0.2318 -0.0674
  734MOL0     C 1183   8.915   8.969   8.517  0.6203 -0.4753  0.2373
  734MOL0     C 1184   8.830   9.051   8.433  0.8829  0.6229 -0.3577
  734MOL0     O 1185   8.821   9.020   8.310 -0.2892  0.1170  0.3958
  734MOL0     C 1186   8.707   9.034   8.238  0.1475  0.8346 -0.2859
  734MOL0     C 1187   8.716   9.121   8.133 -0.5371  0.9012  0.0442
  734MOL0     C 1188   8.608   9.166   8.056  0.9965  0.3292  0.2012
  734MOL0     C 1189   8.477   9.110   8.094  0.6565  0.6127  0.1663
  734MOL0     O 1190   8.364   9.134   8.016 -0.4176  0.0345  1.3533
  734MOL0     C 1191   8.372   9.240   7.923  0.4915 -0.0406 -0.3498
  734MOL0     C 1192   8.223   9.273   7.904  0.1387 -0.2284 -0.0925
  734MOL0     C 1193   8.210   9.419   7.844 -0.4088  0.9505  0.0107
  734MOL0     C 1194   8.060   9.461   7.888 -0.1305  0.0645 -0.1585
  734MOL0     C 1195   8.023   9.594   7.809 -0.2998 -0.1697 -0.7439
  734MOL0     C 1196   7.871   9.616   7.787 -0.1297 -0.3081 -1.3613
  734MOL0     C 1197   7.830   9.763   7.768 -0.2575  0.1389  0.0392
  734MOL0     C 1198   7.683   9.783   7.777 -0.1673 -0.1907  0.0443
  734MOL0    Cl 1199   7.638   9.946   7.719 -0.3179 -0.2505  0.5750
  734MOL0     C 1200   8.465   9.017   8.200 -0.2890  0.0494 -0.8501
  734MOL0     C 1201   8.584   8.973   8.272  0.9739  0.0958  1.0019
  734MOL0     O 1202   8.762   9.137   8.482 -0.3586 -0.1782 -0.0737
  734MOL0     C 1203   8.971   8.844   8.453 -0.0314  0.0194 -0.9850
  734MOL0     C 1204   9.065   8.765   8.531  0.1291  0.5114  1.0193
  734MOL0     N 1205   9.594   8.356   8.954  0.2020 -0.5668  0.0901
  734MOL0     N 1206   9.618   8.239   8.891 -0.6075  0.0649 -0.7047
  734MOL0     C 1207  10.264   7.726   9.346  0.8948  0.5153  1.0104
  734MOL0     C 1208  10.272   7.641   9.451 -0.5888  0.1417  0.2596
  734MOL0     C 1209  10.366   7.489   9.866 -0.1058 -0.5565  0.7113
  734MOL0     C 1210  10.326   7.356   9.837 -1.4491 -0.9809 -0.6600
  734MOL0     C 1211  10.309   7.279   9.958  0.1357 -0.8401  1.3868
  734MOL0     C 1212  10.315   7.324  10.087 -0.6634 -0.1323  0.1114
  734MOL0     O 1213  10.276   7.240  10.194  0.1273 -0.3245  0.2550
  734MOL0     C 1214  10.275   7.298  10.328  0.5959 -0.4425 -0.2044
  734MOL0     C 1215  10.209   7.195  10.417 -0.3235  0.2561 -0.1700
  734MOL0     C 1216  10.198   7.249  10.563 -0.4690  1.3528 -0.7114
  734MOL0     C 1217  10.180   7.129  10.663  0.1096  0.4074  0.1646
  734MOL0     C 1218  10.149   7.183  10.792 -0.0879 -0.0760 -0.1231
  734MOL0     C 1219  10.119   7.220  10.907  0.2096 -0.6544  0.8536
  734MOL0     C 1220  10.382   7.444  10.106  0.1917 -0.4008  0.3138
  734MOL0     C 1221  10.400   7.536   9.995  0.1101  0.3142 -0.5345
  734MOL0     C 1222  10.445   7.685  10.014  0.9658  1.0633 -0.7590
  734MOL0     H 1223  10.321   7.885   9.687 -0.2264  2.9302 -2.4814
  734MOL0     H 1224  10.305   8.032   9.487  1.3656 -0.0837 -0.8238
  734MOL0     H 1225  10.383   8.103   9.243 -0.5320  0.4505 -0.5902
  734MOL0     H 1226  10.211   8.125   9.295 -3.3546 -1.4611 -1.3400
  734MOL0     H 1227  10.243   8.212   9.063  2.5195  0.5320 -0.4338
  734MOL0     H 1228  10.320   8.049   9.025 -1.7367 -1.1755 -0.6038
  734MOL0     H 1229  10.101   7.941   9.069 -1.9990 -0.6637  0.8247
  734MOL0     H 1230  10.032   8.098   9.112  0.0297  0.0543 -0.5714
  734MOL0     H 1231  10.108   8.176   8.876 -1.3968  0.4049  0.6707
  734MOL0     H 1232  10.139   8.010   8.835 -1.7117 -1.1754 -0.1185
  734MOL0     H 1233   9.883   8.138   8.909  2.8352  3.0352 -0.9288
  734MOL0     H 1234   9.897   7.961   8.900 -0.5076  0.1978  0.5159
  734MOL0     H 1235   9.960   8.152   8.675  0.8487 -0.1813  1.3220
  734MOL0     H 1236   9.988   7.978   8.666  0.3537 -1.8840 -0.5404
  734MOL0     H 1237   9.726   7.996   8.741 -0.9735  2.1162  0.0190
  734MOL0     H 1238   9.757   8.021   8.564  1.2000  0.5019 -0.8744
  734MOL0     H 1239   9.751   8.256   8.576  0.8821  0.0229 -1.0865
  734MOL0     H 1240   9.615   8.177   8.580  2.0060 -0.4230 -2.2519
  734MOL0     H 1241   9.708   8.467   8.668  1.7353  1.0507  0.8315
  734MOL0     H 1242   9.699   8.657   8.875  1.0954 -4.5726 -2.2743
  734MOL0     H 1243   9.590   8.607   9.016 -1.5628 -1.5493 -0.8614
  734MOL0     H 1244   9.482   8.788   8.871 -2.2532  1.4368 -2.5053
  734MOL0     H 1245   9.483   8.668   8.739 -0.6326 -0.1768 -0.7069
  734MOL0     H 1246   9.335   8.526   8.831 -3.0157 -0.4758  1.5721
  734MOL0     H 1247   9.343   8.589   8.994 -4.9064  0.2793 -0.1055
  734MOL0     H 1248   9.138   8.660   8.908 -0.6990 -2.6496 -2.6678
  734MOL0     H 1249   9.237   8.805   8.902  1.3258  1.1571 -1.0506
  734MOL0     H 1250   9.049   8.926   8.833 -1.1440 -4.1200  0.2716
  734MOL0     H 1251   8.932   9.117   8.841  2.0030  1.3436 -1.1338
  734MOL0     H 1252   8.782   9.108   8.745 -1.0275  2.2196  0.2737
  734MOL0     H 1253   8.910   9.209   8.684  1.8604 -0.6337 -0.7220
  734MOL0     H 1254   8.803   9.179   8.105 -0.0229  0.9111  1.5751
  734MOL0     H 1255   8.609   9.237   7.975 -3.0726 -3.4782 -3.7937
  734MOL0     H 1256   8.414   9.328   7.971 -0.0933 -0.2257  0.5037
  734MOL0     H 1257   8.418   9.220   7.825  1.9082 -0.4628  0.3745
  734MOL0     H 1258   8.177   9.199   7.837 -1.0643 -2.2025  2.7135
  734MOL0     H 1259   8.173   9.271   8.001 -2.4365 -2.1081 -1.3273
  734MOL0     H 1260   8.212   9.433   7.736  1.6539 -1.5427 -0.3721
  734MOL0     H 1261   8.277   9.495   7.883  1.5730  0.3362 -2.0164
  734MOL0     H 1262   8.051   9.463   7.997 -1.5360  3.0972 -0.2481
  734MOL0     H 1263   7.982   9.394   7.853 -0.5731  1.6023 -2.2836
  734MOL0     H 1264   8.077   9.672   7.864 -0.0763 -0.2429 -0.8607
  734MOL0     H 1265   8.076   9.598   7.713  0.8068 -1.2942 -0.2006
  734MOL0     H 1266   7.824   9.589   7.882 -0.5060  1.3463 -1.0456
  734MOL0     H 1267   7.845   9.556   7.700 -2.6104  1.3805 -1.8604
  734MOL0     H 1268   7.873   9.798   7.674 -0.9721  2.7456  0.5815
  734MOL0     H 1269   7.873   9.826   7.847  2.0911 -1.9742  0.5542
  734MOL0     H 1270   7.651   9.757   7.878  3.4551  1.5413  1.7983
  734MOL0     H 1271   7.632   9.719   7.704  0.4245 -2.6966  1.6906
  734MOL0     H 1272   8.374   8.969   8.236 -1.5604  1.2992 -2.2486
  734MOL0     H 1273   8.569   8.908   8.358 -1.1704  0.9269  1.3065
  734MOL0     H 1274   8.945   8.818   8.351 -0.1185 -3.4274 -0.1975
  734MOL0     H 1275   9.090   8.669   8.486  0.2334  0.6299  0.8246
  734MOL0     H 1276  10.258   7.672   9.252 -2.0889 -0.0522  1.4418
  734MOL0     H 1277  10.271   7.535   9.431 -2.6994  0.2899 -0.6739
  734MOL0     H 1278  10.309   7.305   9.743 -3.9032 -2.0035  0.2417
  734MOL0     H 1279  10.262   7.182   9.945  0.0140 -0.3662 -3.9174
  734MOL0     H 1280  10.377   7.319  10.361  0.8509  0.7580 -1.6630
  734MOL0     H 1281  10.235   7.400  10.330  0.5967 -0.4180  2.7381
  734MOL0     H 1282  10.271   7.105  10.418  0.3934  0.7450  0.2347
  734MOL0     H 1283  10.109   7.168  10.381 -0.8018 -2.0413  2.4868
  734MOL0     H 1284  10.290   7.302  10.590  1.0238 -1.3646 -0.0561
  734MOL0     H 1285  10.112   7.317  10.561 -0.6601  1.1008 -1.3061
  734MOL0     H 1286  10.267   7.064  10.652 -1.2530 -1.0888 -3.1029
  734MOL0     H 1287  10.089   7.073  10.641  0.9988 -1.5637  1.3409
  734MOL0     H 1288  10.086   7.239  11.007 -1.1241 -1.9667  0.7000
  734MOL0     H 1289  10.418   7.476  10.203  0.8952 -0.7484  0.1771
  734MOL0     H 1290  10.439   7.745   9.922  1.4899  0.5865 -1.1164
  734MOL0     H 1291  10.386   7.738  10.089 -0.0547  0.3140 -1.0105
  734MOL0     H 1292  10.551   7.694  10.039  0.2913  1.1717  2.4703
  735MOL0     O 1293   3.076   7.746  10.599 -0.0234 -1.2026 -0.2997
  735MOL0     C 1294   3.193   7.728  10.565 -0.3535  0.1409  0.7312
  735MOL0     O 1295   3.233   7.655  10.451 -0.1829  0.0110 -1.2562
  735MOL0     C 1296   3.138   7.627  10.361  0.7708 -0.0663  0.0762
  735MOL0     C 1297   3.066   7.728  10.287 -0.0091 -0.1640 -0.3938
  735MOL0     C 1298   2.992   7.689  10.172 -0.0007  0.3442  1.0527
  735MOL0     C 1299   2.998   7.550  10.128 -0.6452 -1.2172 -0.6736
  735MOL0     O 1300   2.921   7.513  10.015 -0.3077  0.4418  0.4690
  735MOL0     C 1301   2.884   7.378   9.989  0.2155 -0.1567 -0.2085
  735MOL0     C 1302   2.746   7.383   9.925 -0.5540 -0.2767  0.2864
  735MOL0     C 1303   2.746   7.430   9.778  0.0922 -0.5368  0.2014
  735MOL0     C 1304   2.604   7.464   9.723  0.2960 -0.4229 -0.7107
  735MOL0     C 1305   2.586   7.484   9.573 -0.2702  0.2995 -0.5535
  735MOL0     C 1306   2.671   7.596   9.520 -0.6090 -0.1987  0.8403
  735MOL0     C 1307   2.640   7.731   9.575  0.5634  0.8057  1.0396
  735MOL0     C 1308   2.744   7.829   9.528  0.8676 -1.0753  0.2269
  735MOL0     N 1309   2.740   7.862   9.377 -0.6240 -0.2385 -0.9975
  735MOL0     C 1310   2.631   7.930   9.327  0.1981  0.4639 -0.1417
  735MOL0     C 1311   2.657   7.943   9.199  0.5152 -0.0786  0.7425
  735MOL0     C 1312   2.559   7.995   9.090 -1.3116 -0.2615  0.3273
  735MOL0     C 1313   2.588   8.142   9.066 -0.2864  0.2154  0.1151
  735MOL0     C 1314   2.695   8.170   8.966  0.0272 -0.0750 -0.4925
  735MOL0     C 1315   2.731   8.316   8.939  0.0743  0.6187  0.3465
  735MOL0     O 1316   2.610   8.391   8.919  0.4336  0.5347  0.2210
  735MOL0     C 1317   2.615   8.523   8.890  0.7955 -0.1234  1.3869
  735MOL0     C 1318   2.731   8.606   8.871 -0.0559 -0.7380  0.7714
  735MOL0     C 1319   2.726   8.748   8.856 -0.2244  0.7787 -0.2882
  735MOL0     C 1320   2.863   8.820   8.838 -0.1710 -0.4880 -0.1262
  735MOL0     C 1321   2.602   8.807   8.870  0.3571 -0.2144  0.1178
  735MOL0     C 1322   2.571   8.940   8.915 -1.1905 -0.1708  0.7756
  735MOL0     O 1323   2.448   8.986   8.932  0.8291  1.1231 -0.4488
  735MOL0     C 1324   2.412   9.111   8.946 -0.5386  0.2327  0.0723
  735MOL0     C 1325   2.418   9.181   8.822  0.2752 -0.0921 -0.0962
  735MOL0     C 1326   2.380   9.315   8.827  0.5198  0.1042 -0.5036
  735MOL0     C 1327   2.338   9.383   8.943  0.3509 -0.1808 -0.7192
  735MOL0     O 1328   2.293   9.510   8.957  0.7856  0.1182 -0.1313
  735MOL0     C 1329   2.241   9.587   8.855  1.2268 -0.0884  1.2404
  735MOL0     C 1330   2.081   9.591   8.867  0.4538  1.0506  0.1646
  735MOL0     C 1331   2.041   9.673   8.984  0.2430  0.1516 -0.0102
  735MOL0     C 1332   2.049   9.602   9.119 -0.7247  0.4653 -0.1909
  735MOL0     C 1333   2.094   9.708   9.226 -0.2176 -0.2392 -0.1239
  735MOL0     C 1334   2.070   9.676   9.369  0.0973 -0.6056  0.2638
  735MOL0     C 1335   2.181   9.602   9.435 -0.1868  0.7232 -0.1363
  735MOL0     C 1336   2.176   9.445   9.439  0.2148  0.2162 -0.0494
  735MOL0    Cl 1337   2.019   9.376   9.471  0.1100 -0.4161  0.3002
  735MOL0     C 1338   2.337   9.314   9.065 -0.0658 -0.1153  0.2685
  735MOL0     C 1339   2.368   9.175   9.067 -0.2745  0.5490  0.4778
  735MOL0     O 1340   2.671   9.009   8.924 -0.1787  0.2050  0.0854
  735MOL0     C 1341   2.485   8.724   8.867 -0.3889 -0.0131 -0.7551
  735MOL0     C 1342   2.491   8.593   8.878 -0.6039 -0.6593 -1.1430
  735MOL0     N 1343   2.782   7.883   9.163  0.3424 -0.2513  0.4354
  735MOL0     N 1344   2.833   7.837   9.277 -0.4282  0.1166 -0.6416
  735MOL0     C 1345   3.064   7.456  10.208  0.1446  0.5557  0.3846
  735MOL0     C 1346   3.131   7.491  10.322 -0.0746 -0.2809 -0.5178
  735MOL0     C 1347   3.289   7.793  10.657 -0.4512 -0.7145 -0.0156
  735MOL0     C 1348   3.251   7.876  10.764  0.3231 -0.7024  0.0275
  735MOL0     C 1349   3.337   7.936  10.859 -0.3428  0.6828  1.1125
  735MOL0     C 1350   3.472   7.911  10.849 -0.3633  0.2876 -0.3096
  735MOL0     O 1351   3.567   7.946  10.939  0.7427  0.4282 -0.9509
  735MOL0     C 1352   3.550   8.079  10.998 -0.9078 -0.5057 -1.0019
  735MOL0     C 1353   3.621   8.083  11.135  0.5828 -0.3353 -0.0324
  735MOL0     C 1354   3.698   8.210  11.180 -0.3780 -0.6811  0.4687
  735MOL0     C 1355   3.781   8.202  11.310 -0.2508 -0.1653  0.4212
  735MOL0     C 1356   3.850   8.332  11.317 -0.1720 -0.9156  0.2732
  735MOL0     C 1357   3.910   8.435  11.343  0.4730 -0.4862  0.1203
  735MOL0     C 1358   3.524   7.848  10.736 -0.2513 -0.3114  0.4464
  735MOL0     C 1359   3.436   7.786  10.643  0.1631  0.1320  0.4746
  735MOL0     C 1360   3.507   7.709  10.533 -0.2127 -0.2645  0.4555
  735MOL0     H 1361   3.072   7.834  10.308  2.3864 -0.0848 -1.1851
  735MOL0     H 1362   2.940   7.757  10.106 -0.7422 -2.6349 -1.6997
  735MOL0     H 1363   2.872   7.314  10.077 -3.2313 -1.5985 -1.5645
  735MOL0     H 1364   2.958   7.331   9.923  0.6835 -0.0984  0.2605
  735MOL0     H 1365   2.706   7.282   9.926 -2.1427  0.0651 -4.1820
  735MOL0     H 1366   2.697   7.462   9.982  2.3242  1.6888  0.2572
  735MOL0     H 1367   2.808   7.519   9.769  0.9882 -0.9569  1.8897
  735MOL0     H 1368   2.798   7.359   9.712  1.4762 -0.1984  0.9018
  735MOL0     H 1369   2.542   7.375   9.735 -2.3108  1.2353 -1.1773
  735MOL0     H 1370   2.568   7.558   9.766  1.6416  0.3777 -1.2698
  735MOL0     H 1371   2.478   7.499   9.561 -0.5339  0.6876  1.7097
  735MOL0     H 1372   2.614   7.389   9.527  0.5688  1.0209 -1.5789
  735MOL0     H 1373   2.776   7.574   9.544 -0.5262 -0.5839  0.1650
  735MOL0     H 1374   2.676   7.585   9.411  0.0820  0.2641  0.8203
  735MOL0     H 1375   2.642   7.724   9.684 -1.0711  0.0544  1.0602
  735MOL0     H 1376   2.543   7.760   9.533  0.7034 -3.7528 -3.4812
  735MOL0     H 1377   2.728   7.919   9.587  0.4710 -0.6594 -0.4921
  735MOL0     H 1378   2.845   7.788   9.535  0.1774 -2.6061  2.1037
  735MOL0     H 1379   2.540   7.943   9.385 -1.6548 -1.3227 -2.4797
  735MOL0     H 1380   2.452   7.986   9.111 -1.0468 -0.2207  1.8159
  735MOL0     H 1381   2.584   7.943   8.997 -0.7747  3.0894 -1.5612
  735MOL0     H 1382   2.498   8.189   9.026  1.1221  2.2234 -0.9250
  735MOL0     H 1383   2.601   8.201   9.157  0.3331  1.1079 -0.5240
  735MOL0     H 1384   2.789   8.120   8.991 -2.0269 -2.7491  2.7849
  735MOL0     H 1385   2.667   8.135   8.866  0.2722 -1.6702 -0.0316
  735MOL0     H 1386   2.788   8.360   9.021  1.4378  0.9954 -0.7701
  735MOL0     H 1387   2.811   8.334   8.866  1.6023  0.2352  1.8703
  735MOL0     H 1388   2.833   8.571   8.880  1.3690  2.5016 -1.0625
  735MOL0     H 1389   2.861   8.927   8.813 -2.6498 -1.0253 -2.6458
  735MOL0     H 1390   2.925   8.761   8.770  1.5074  1.1764 -0.1292
  735MOL0     H 1391   2.919   8.822   8.933 -0.4354  2.1709  0.0549
  735MOL0     H 1392   2.446   9.127   8.732  0.0908 -0.9786  0.3564
  735MOL0     H 1393   2.383   9.370   8.733 -1.8014 -2.0617 -1.9551
  735MOL0     H 1394   2.277   9.690   8.867  1.2406  0.0668  0.0469
  735MOL0     H 1395   2.271   9.560   8.753  1.1777 -1.3023  1.5407
  735MOL0     H 1396   2.035   9.631   8.776  2.8648 -0.7920 -2.0587
  735MOL0     H 1397   2.055   9.488   8.892  1.2429  1.2209  1.8489
  735MOL0     H 1398   1.951   9.728   8.955  1.6733  1.3486 -2.4592
  735MOL0     H 1399   2.101   9.764   8.982  1.4914 -0.6473 -2.1290
  735MOL0     H 1400   2.122   9.520   9.127  2.8848  3.3610 -0.7360
  735MOL0     H 1401   1.956   9.548   9.137  0.7516 -2.3624 -0.4488
  735MOL0     H 1402   2.194   9.739   9.196 -0.3129  0.9016  0.6910
  735MOL0     H 1403   2.042   9.802   9.202 -1.3833 -0.6362  0.7307
  735MOL0     H 1404   1.969   9.634   9.376 -1.3895  2.0717 -2.6425
  735MOL0     H 1405   2.062   9.774   9.418  0.1177  0.0535 -1.0080
  735MOL0     H 1406   2.191   9.633   9.540 -2.3712 -0.1438  0.3892
  735MOL0     H 1407   2.277   9.625   9.387 -0.9076  4.2013 -0.1136
  735MOL0     H 1408   2.251   9.405   9.508 -2.0221 -2.9470  0.8042
  735MOL0     H 1409   2.197   9.408   9.338 -3.7824 -0.6820 -0.7301
  735MOL0     H 1410   2.310   9.363   9.158 -2.2348 -0.7323  0.0243
  735MOL0     H 1411   2.349   9.131   9.164  0.8877  1.7958  1.3150
  735MOL0     H 1412   2.384   8.760   8.850 -1.6224 -2.7345  0.2329
  735MOL0     H 1413   2.397   8.543   8.895 -0.1476 -1.3107 -0.4518
  735MOL0     H 1414   3.074   7.352  10.177 -2.0831  1.3889 -4.0335
  735MOL0     H 1415   3.200   7.428  10.377  2.4108 -0.2814 -3.3220
  735MOL0     H 1416   3.146   7.897  10.780 -0.4166 -1.1975 -3.3220
  735MOL0     H 1417   3.300   7.986  10.948  0.5775 -1.0365  2.5267
  735MOL0     H 1418   3.605   8.144  10.929 -2.4066  2.5053  0.4510
  735MOL0     H 1419   3.447   8.107  11.023 -1.0287 -2.1083  0.4535
  735MOL0     H 1420   3.696   8.003  11.136  0.8969 -0.0422  0.1975
  735MOL0     H 1421   3.540   8.055  11.202  0.4459 -1.1803 -0.5456
  735MOL0     H 1422   3.771   8.241  11.104 -1.5045  0.7677 -0.0722
  735MOL0     H 1423   3.619   8.286  11.189 -1.3914 -1.6891  0.3468
  735MOL0     H 1424   3.861   8.128  11.316  0.8166  1.0425  1.6471
  735MOL0     H 1425   3.712   8.192  11.394 -1.6833  0.4367 -0.6330
  735MOL0     H 1426   3.962   8.527  11.365 -0.9991  1.4915 -3.6811
  735MOL0     H 1427   3.631   7.846  10.721 -0.4959  1.8118 -2.4122
  735MOL0     H 1428   3.616   7.700  10.534  0.2056  3.4038  0.0170
  735MOL0     H 1429   3.470   7.606  10.542 -1.3124  0.3069  3.7568
  735MOL0     H 1430   3.472   7.744  10.436  0.8975  0.1728  0.1989
  736MOL0     O 1431   4.298  10.395   4.907 -0.1974 -1.2789  0.0422
  736MOL0     C 1432   4.230  10.496   4.896 -1.5498  0.0450 -0.4869
  736MOL0     O 1433   4.272  10.616   4.839  0.4696  0.9269 -0.0843
  736MOL0     C 1434   4.396  10.624   4.786  0.2957 -0.9478  1.1581
  736MOL0     C 1435   4.465  10.530   4.717 -1.2825  0.5966  0.9982
  736MOL0     C 1436   4.599  10.535   4.677 -0.8823  1.2885  0.8729
  736MOL0     C 1437   4.678  10.650   4.695 -0.2197 -0.3024  0.4304
  736MOL0     O 1438   4.805  10.676   4.653 -0.2188 -0.4162  0.0675
  736MOL0     C 1439   4.844  10.617   4.527 -0.2442 -0.2389 -0.0410
  736MOL0     C 1440   4.912  10.736   4.459 -0.5213 -0.6758 -0.5547
  736MOL0     C 1441   4.813  10.819   4.384  0.0080  0.7246  0.1387
  736MOL0     C 1442   4.768  10.932   4.464  0.1411 -0.3361  0.0759
  736MOL0     C 1443   4.669  11.038   4.413  0.1665 -0.0563 -0.4596
  736MOL0     C 1444   4.644  11.141   4.517  0.2680 -0.3599  0.1380
  736MOL0     C 1445   4.520  11.226   4.476 -0.6922 -0.2804 -0.0660
  736MOL0     C 1446   4.390  11.150   4.438 -1.1937 -0.5836 -0.6604
  736MOL0     N 1447   4.276  11.233   4.401  0.2425  0.6325  0.3477
  736MOL0     C 1448   4.278  11.367   4.429 -0.1377 -0.8020 -0.0736
  736MOL0     C 1449   4.208  11.423   4.326 -0.5448 -0.0092  0.8070
  736MOL0     C 1450   4.195  11.573   4.301  0.3090  0.1186 -0.8109
  736MOL0     C 1451   4.045  11.610   4.284  0.3902  0.8714 -0.3467
  736MOL0     C 1452   3.956  11.580   4.396 -0.7823  0.6312  0.2614
  736MOL0     C 1453   3.992  11.658   4.519  0.3997 -0.3614 -0.4171
  736MOL0     O 1454   3.887  11.634   4.620 -0.1215  0.1137 -0.9872
  736MOL0     C 1455   3.904  11.673   4.748 -0.1414 -0.6962 -0.5493
  736MOL0     C 1456   4.017  11.739   4.807  0.5195  0.7195  0.2052
  736MOL0     C 1457   4.026  11.757   4.944  0.7397  0.3203  0.1032
  736MOL0     C 1458   4.159  11.800   5.000 -0.1621 -0.4488  0.0218
  736MOL0     C 1459   3.922  11.706   5.030  0.7069  0.5019 -0.6723
  736MOL0     C 1460   3.913  11.730   5.181 -0.4479  0.5362  1.0156
  736MOL0     O 1461   3.793  11.673   5.244 -0.7454 -0.5998  0.3490
  736MOL0     C 1462   3.772  11.698   5.378  0.3899  0.3618 -0.0040
  736MOL0     C 1463   3.710  11.591   5.449 -0.3858 -0.0620  0.3974
  736MOL0     C 1464   3.664  11.622   5.581  0.1185 -0.1437 -0.3549
  736MOL0     C 1465   3.684  11.752   5.633  0.1905  0.0253 -0.5697
  736MOL0     O 1466   3.633  11.776   5.761  0.1813 -0.2881 -0.5361
  736MOL0     C 1467   3.543  11.889   5.778  0.1238  0.6570  0.6031
  736MOL0     C 1468   3.409  11.826   5.802 -0.0929  0.3539  0.1952
  736MOL0     C 1469   3.406  11.735   5.930 -0.6059 -0.6173 -0.6612
  736MOL0     C 1470   3.267  11.751   6.001  0.4282 -0.3191 -0.4919
  736MOL0     C 1471   3.259  11.657   6.128  1.1906  0.9185 -0.3097
  736MOL0     C 1472   3.141  11.709   6.223  0.0944 -0.7444  0.5236
  736MOL0     C 1473   3.112  11.617   6.351 -0.4513  0.2404  0.7338
  736MOL0     C 1474   3.005  11.666   6.443  0.6958 -0.1694  0.3231
  736MOL0    Cl 1475   3.067  11.803   6.537 -0.1757 -0.0009  0.1098
  736MOL0     C 1476   3.745  11.856   5.559 -0.1254 -0.5981 -0.5309
  736MOL0     C 1477   3.789  11.827   5.434  0.3267 -0.2305  0.0339
  736MOL0     O 1478   3.998  11.799   5.231  0.5589  0.2096 -0.4773
  736MOL0     C 1479   3.817  11.634   4.975  0.0882  0.0959 -0.1268
  736MOL0     C 1480   3.802  11.630   4.835  0.0961  0.0919  0.0711
  736MOL0     N 1481   4.146  11.316   4.257 -0.3912 -0.2219 -0.6109
  736MOL0     N 1482   4.190  11.203   4.304 -0.2695  0.0407  0.4187
  736MOL0     C 1483   4.613  10.754   4.757 -0.5816  0.3103  0.3940
  736MOL0     C 1484   4.472  10.751   4.796  0.2201 -0.3516  0.2483
  736MOL0     C 1485   4.096  10.492   4.961 -0.5265 -1.2996  0.2884
  736MOL0     C 1486   4.058  10.609   5.027  1.1513  0.4240 -0.0452
  736MOL0     C 1487   3.948  10.600   5.115 -0.2306 -0.6801  0.0510
  736MOL0     C 1488   3.861  10.487   5.117  0.3049  0.3640  0.7978
  736MOL0     O 1489   3.760  10.475   5.204  0.6079 -0.9998 -0.1695
  736MOL0     C 1490   3.624  10.502   5.145  0.0790  0.0084 -0.6262
  736MOL0     C 1491   3.604  10.657   5.102  0.7154 -1.1215 -0.5330
  736MOL0     C 1492   3.540  10.728   5.226  0.6081 -0.3370  0.5502
  736MOL0     C 1493   3.494  10.872   5.180 -0.2277  0.5393 -0.1657
  736MOL0     C 1494   3.380  10.918   5.259 -0.8632  0.8567  0.5203
  736MOL0     C 1495   3.283  10.933   5.327 -0.3401 -0.1737 -0.0083
  736MOL0     C 1496   3.888  10.383   5.020 -0.2279  0.4382 -0.2136
  736MOL0     C 1497   4.012  10.383   4.948 -1.0802  0.8623 -0.5715
  736MOL0     C 1498   4.041  10.286   4.853 -0.4409 -0.3128  0.2713
  736MOL0     H 1499   4.426  10.430   4.699 -0.1267  0.1356  0.9268
  736MOL0     H 1500   4.660  10.451   4.643 -0.6913  1.1165  1.6232
  736MOL0     H 1501   4.761  10.578   4.468 -1.7633  2.0414  0.4418
  736MOL0     H 1502   4.918  10.538   4.539  0.1211  0.0021 -0.6354
  736MOL0     H 1503   4.965  10.792   4.537 -0.1768 -2.4221  0.5284
  736MOL0     H 1504   4.988  10.697   4.391  0.8636  1.9359 -0.6214
  736MOL0     H 1505   4.867  10.851   4.294  4.0030  0.3267  2.1425
  736MOL0     H 1506   4.730  10.757   4.351  0.2651 -0.1063  1.0113
  736MOL0     H 1507   4.720  10.882   4.548  0.1108 -0.3902  0.0257
  736MOL0     H 1508   4.860  10.974   4.506 -0.0945 -2.2207  2.7136
  736MOL0     H 1509   4.579  10.978   4.394  1.2493 -2.9509  2.5654
  736MOL0     H 1510   4.705  11.079   4.318 -1.1238  0.4916 -0.7384
  736MOL0     H 1511   4.622  11.085   4.608 -0.4200  1.5178  1.1726
  736MOL0     H 1512   4.730  11.205   4.536  0.6600 -0.0034 -2.4766
  736MOL0     H 1513   4.550  11.291   4.393  1.1178  0.0317  0.7827
  736MOL0     H 1514   4.502  11.294   4.559 -1.2711 -2.7227  1.9138
  736MOL0     H 1515   4.400  11.074   4.361  0.6458  3.1713 -4.5405
  736MOL0     H 1516   4.359  11.093   4.526 -0.0495 -0.8354 -0.3953
  736MOL0     H 1517   4.325  11.415   4.514 -3.1020  1.3693  0.4774
  736MOL0     H 1518   4.261  11.610   4.222 -0.4975  0.8427 -1.1743
  736MOL0     H 1519   4.232  11.638   4.381 -0.4655 -2.4759  1.8296
  736MOL0     H 1520   4.037  11.716   4.258  0.4403  0.2978 -2.9532
  736MOL0     H 1521   4.004  11.553   4.200  1.1134  0.3587 -0.3598
  736MOL0     H 1522   3.853  11.597   4.362 -0.5204  0.2106 -0.7827
  736MOL0     H 1523   3.964  11.475   4.426 -1.6536  1.3440  3.2768
  736MOL0     H 1524   4.093  11.635   4.552  0.7572  1.8434  0.1888
  736MOL0     H 1525   3.999  11.764   4.493  1.1673  0.0925  1.4483
  736MOL0     H 1526   4.099  11.768   4.742 -0.8300  0.5789 -1.6348
  736MOL0     H 1527   4.153  11.882   5.072  1.9254 -0.9582  0.8310
  736MOL0     H 1528   4.241  11.819   4.930  0.6201 -0.7568  0.8421
  736MOL0     H 1529   4.185  11.711   5.057 -1.5310 -1.5497 -0.9721
  736MOL0     H 1530   3.685  11.498   5.398  0.4212  0.8827 -1.8359
  736MOL0     H 1531   3.621  11.542   5.640  0.4282  0.8333  1.2934
  736MOL0     H 1532   3.562  11.956   5.862  0.3769  0.5038  0.6729
  736MOL0     H 1533   3.540  11.962   5.697 -0.4571 -0.4819 -0.4459
  736MOL0     H 1534   3.351  11.918   5.818  2.9600  2.6501 -0.9462
  736MOL0     H 1535   3.364  11.771   5.719 -3.7552  0.6667  1.7904
  736MOL0     H 1536   3.476  11.774   6.003 -5.2824  1.4227  3.3370
  736MOL0     H 1537   3.419  11.631   5.902  3.8830  0.0051 -1.6371
  736MOL0     H 1538   3.195  11.711   5.928  2.1261 -2.8123 -0.9353
  736MOL0     H 1539   3.253  11.854   6.034  0.9120 -0.3871 -0.0641
  736MOL0     H 1540   3.237  11.553   6.101 -0.4572  0.9027  0.9271
  736MOL0     H 1541   3.354  11.655   6.182 -1.3171  0.7543  4.6828
  736MOL0     H 1542   3.045  11.716   6.171  1.4169  0.1402 -1.9624
  736MOL0     H 1543   3.163  11.811   6.256 -1.9954 -0.1421  0.2073
  736MOL0     H 1544   3.205  11.628   6.407  0.0465  2.6507 -0.4189
  736MOL0     H 1545   3.081  11.518   6.315 -0.5977 -0.3731  2.4776
  736MOL0     H 1546   2.967  11.585   6.505  2.4951 -0.7730  0.7057
  736MOL0     H 1547   2.920  11.706   6.387  2.1682  0.1712 -1.7726
  736MOL0     H 1548   3.762  11.944   5.621 -0.6685 -1.3664  0.7327
  736MOL0     H 1549   3.841  11.912   5.389  0.9634  1.1384  3.0695
  736MOL0     H 1550   3.730  11.602   5.031  0.4315 -3.8051 -1.4515
  736MOL0     H 1551   3.714  11.579   4.795 -1.2184  2.1059  0.2182
  736MOL0     H 1552   4.672  10.844   4.769  0.4913 -0.3175 -0.0337
  736MOL0     H 1553   4.436  10.841   4.845 -0.0170  0.1969 -0.9112
  736MOL0     H 1554   4.107  10.706   5.025 -1.5600  1.9252 -2.3283
  736MOL0     H 1555   3.932  10.677   5.189 -1.7079 -1.4647  0.5830
  736MOL0     H 1556   3.606  10.431   5.063 -0.0700 -0.8575  0.1308
  736MOL0     H 1557   3.543  10.486   5.217 -0.4381  3.8409 -0.1496
  736MOL0     H 1558   3.533  10.652   5.020 -0.2432 -1.3969  0.3011
  736MOL0     H 1559   3.693  10.715   5.073  0.1249 -1.5798 -3.5321
  736MOL0     H 1560   3.458  10.669   5.267  1.2946 -2.5149 -1.0199
  736MOL0     H 1561   3.616  10.750   5.301 -0.0511  1.8503  0.6583
  736MOL0     H 1562   3.457  10.869   5.078  0.8092 -1.3432 -0.5381
  736MOL0     H 1563   3.578  10.939   5.198  1.8402 -1.1439 -2.7503
  736MOL0     H 1564   3.198  10.959   5.387  0.1718  2.9998 -0.4726
  736MOL0     H 1565   3.819  10.300   5.008 -1.1441  1.2132 -0.4373
  736MOL0     H 1566   4.093  10.324   4.764 -1.5716 -1.5850 -0.9901
  736MOL0     H 1567   4.102  10.201   4.885 -0.5923  0.0506  1.5727
  736MOL0     H 1568   3.946  10.256   4.808 -0.5114 -4.4559  2.6706
  737MOL0     O 1569   9.700   4.584   6.613  0.1841 -0.0248  0.4414
  737MOL0     C 1570   9.681   4.630   6.723 -0.1108  0.7008  0.2081
  737MOL0     O 1571   9.783   4.633   6.822 -0.2662 -0.8357 -0.5149
  737MOL0     C 1572   9.906   4.595   6.777 -0.1960 -0.8606 -0.1338
  737MOL0     C 1573   9.959   4.467   6.793  1.3336  0.7562 -0.6785
  737MOL0     C 1574  10.090   4.440   6.746  0.1574 -0.2465 -0.3167
  737MOL0     C 1575  10.173   4.542   6.691  0.5754  0.6564 -0.2072
  737MOL0     O 1576  10.296   4.520   6.648  0.7846  0.2977 -0.1419
  737MOL0     C 1577  10.330   4.403   6.568 -0.1609 -0.1122  0.8998
  737MOL0     C 1578  10.425   4.435   6.450 -0.3650 -0.3622  0.8426
  737MOL0     C 1579  10.484   4.312   6.396 -0.8902 -0.1253  0.3965
  737MOL0     C 1580  10.386   4.216   6.322 -0.2535 -0.9055  0.6920
  737MOL0     C 1581  10.466   4.088   6.264  0.4223  0.0798 -0.4265
  737MOL0     C 1582  10.549   4.116   6.137  0.5340 -0.7166  0.6041
  737MOL0     C 1583  10.541   4.000   6.036 -0.4405 -0.5746  0.4966
  737MOL0     C 1584  10.635   3.894   6.091  0.0585  0.0036  0.1063
  737MOL0     N 1585  10.643   3.801   5.978 -0.0238  1.1547  0.8327
  737MOL0     C 1586  10.546   3.702   5.940 -0.2739 -0.5222 -0.1503
  737MOL0     C 1587  10.606   3.643   5.838 -0.2227  0.1808  0.4531
  737MOL0     C 1588  10.542   3.554   5.744 -0.3971 -0.0507  0.0298
  737MOL0     C 1589  10.600   3.413   5.729 -0.5025 -0.1873  0.1036
  737MOL0     C 1590  10.513   3.333   5.625 -0.2513  0.5149 -0.1474
  737MOL0     C 1591  10.534   3.186   5.630 -0.3377 -0.3585  0.7532
  737MOL0     O 1592  10.670   3.155   5.607 -0.2956 -0.1291  0.6991
  737MOL0     C 1593  10.700   3.036   5.673 -0.1187  0.0090 -0.1859
  737MOL0     C 1594  10.832   3.004   5.669 -0.8836  0.1657 -0.9865
  737MOL0     C 1595  10.891   2.884   5.730 -0.7378 -0.2187  0.1053
  737MOL0     C 1596  11.042   2.870   5.720 -0.4403  0.5105  0.1903
  737MOL0     C 1597  10.807   2.785   5.783  0.3992  0.7624  0.6237
  737MOL0     C 1598  10.850   2.635   5.823  0.5401  0.4356  0.1743
  737MOL0     O 1599  10.756   2.572   5.912 -0.1696  0.3736 -0.1271
  737MOL0     C 1600  10.788   2.458   5.966  0.4100  0.3240 -0.0588
  737MOL0     C 1601  10.741   2.334   5.918 -0.6142 -0.0301  0.0512
  737MOL0     C 1602  10.779   2.211   5.979  0.4595 -0.4875  0.2966
  737MOL0     C 1603  10.862   2.217   6.089 -0.0924 -0.3592  0.1920
  737MOL0     O 1604  10.889   2.095   6.144  0.4348 -1.2577 -0.8324
  737MOL0     C 1605  10.917   2.094   6.280 -0.5289 -0.0541 -0.5626
  737MOL0     C 1606  10.781   2.062   6.354 -0.7194 -0.3148  0.0109
  737MOL0     C 1607  10.781   2.040   6.506 -0.1822  0.3335  0.2446
  737MOL0     C 1608  10.675   1.923   6.545  0.0930  0.4436  0.4466
  737MOL0     C 1609  10.603   1.932   6.679  0.1650  0.1721 -0.4460
  737MOL0     C 1610  10.675   1.860   6.789 -0.2940  0.1856 -0.5147
  737MOL0     C 1611  10.602   1.876   6.930  0.1534 -1.4795 -0.5719
  737MOL0     C 1612  10.674   1.808   7.045  1.5506 -0.2749 -0.7935
  737MOL0    Cl 1613  10.823   1.896   7.087 -0.1622 -0.3146 -0.0510
  737MOL0     C 1614  10.920   2.343   6.128  0.4360  0.7339 -0.1562
  737MOL0     C 1615  10.877   2.463   6.075 -0.4087  0.1371  0.0209
  737MOL0     O 1616  10.944   2.585   5.760  0.6687  0.0532 -0.4350
  737MOL0     C 1617  10.671   2.808   5.768  0.0759  0.4549  0.4111
  737MOL0     C 1618  10.620   2.932   5.727 -0.3256 -0.2578 -0.4306
  737MOL0     N 1619  10.734   3.694   5.803 -0.0536 -0.2153 -0.1602
  737MOL0     N 1620  10.756   3.784   5.895 -0.3106  0.0510 -0.2972
  737MOL0     C 1621  10.116   4.672   6.681  0.3690 -0.1069 -0.0398
  737MOL0     C 1622   9.992   4.699   6.729 -0.0184  0.9387  0.3527
  737MOL0     C 1623   9.549   4.676   6.767  0.7963  0.3211 -0.3134
  737MOL0     C 1624   9.521   4.700   6.903 -0.1537  0.1523  0.7233
  737MOL0     C 1625   9.392   4.748   6.940 -0.9137  0.0180 -1.1379
  737MOL0     C 1626   9.284   4.764   6.854  1.3157 -0.3094  0.5942
  737MOL0     O 1627   9.159   4.806   6.907  0.8624 -0.4198 -0.4246
  737MOL0     C 1628   9.070   4.864   6.815  0.0056  0.1614  0.3359
  737MOL0     C 1629   8.938   4.930   6.872  0.1552  1.0070 -0.7839
  737MOL0     C 1630   8.876   5.050   6.790  0.0785  1.0118  0.2822
  737MOL0     C 1631   8.851   5.024   6.640  0.1203 -0.0336 -0.0657
  737MOL0     C 1632   8.785   5.139   6.585  0.7575 -0.9817  0.1071
  737MOL0     C 1633   8.742   5.237   6.524  0.2181  0.3657 -0.4918
  737MOL0     C 1634   9.306   4.743   6.721 -0.8831 -0.2137 -0.2967
  737MOL0     C 1635   9.434   4.700   6.676 -0.5349  0.1926 -0.3225
  737MOL0     C 1636   9.444   4.671   6.523 -0.8634  0.2847  0.1528
  737MOL0     H 1637   9.905   4.386   6.841  2.1174  1.0922  0.8330
  737MOL0     H 1638  10.123   4.338   6.760 -2.5900 -1.1326  0.4497
  737MOL0     H 1639  10.247   4.353   6.519  1.2444 -0.9945 -0.6518
  737MOL0     H 1640  10.370   4.323   6.631 -3.5907 -1.9855  0.9380
  737MOL0     H 1641  10.377   4.492   6.370  0.4733 -0.0384  0.5492
  737MOL0     H 1642  10.510   4.498   6.481 -0.5420 -0.4362  1.4927
  737MOL0     H 1643  10.570   4.326   6.331 -1.2791 -1.0162 -0.3293
  737MOL0     H 1644  10.521   4.251   6.479 -0.8160 -2.3153 -1.1605
  737MOL0     H 1645  10.298   4.189   6.381 -1.6463 -1.2008 -1.4214
  737MOL0     H 1646  10.332   4.269   6.244 -4.8959 -0.3353  3.9008
  737MOL0     H 1647  10.390   4.014   6.235 -1.0278  2.1079 -2.1340
  737MOL0     H 1648  10.524   4.037   6.341  0.9724  1.1573 -0.1072
  737MOL0     H 1649  10.505   4.203   6.088  0.3397 -1.3293 -0.3479
  737MOL0     H 1650  10.651   4.142   6.166  0.4990  0.2406 -0.0717
  737MOL0     H 1651  10.585   4.025   5.940  0.9555 -2.0939  0.6910
  737MOL0     H 1652  10.441   3.959   6.020 -0.7034  0.5283 -0.9213
  737MOL0     H 1653  10.732   3.934   6.123 -0.4862  1.3780  0.0831
  737MOL0     H 1654  10.604   3.833   6.176  1.2115  0.3170  0.7787
  737MOL0     H 1655  10.447   3.687   5.980  0.6485 -0.3438  2.4046
  737MOL0     H 1656  10.545   3.600   5.644 -1.2872 -3.5795 -1.7554
  737MOL0     H 1657  10.434   3.547   5.756 -0.9159  2.4766 -2.1172
  737MOL0     H 1658  10.706   3.425   5.708 -0.0437 -0.9649  1.7812
  737MOL0     H 1659  10.594   3.355   5.822 -0.6654 -0.8805 -0.3305
  737MOL0     H 1660  10.405   3.345   5.634 -0.8897 -1.8952 -3.0417
  737MOL0     H 1661  10.531   3.366   5.522 -2.3004 -0.8904 -1.0142
  737MOL0     H 1662  10.505   3.155   5.730 -0.5514 -1.3297  0.4022
  737MOL0     H 1663  10.472   3.142   5.551  3.9081  0.9849 -3.7991
  737MOL0     H 1664  10.911   3.073   5.643  1.0132  0.4938  4.3692
  737MOL0     H 1665  11.083   2.968   5.694 -3.6063  2.0386  0.3833
  737MOL0     H 1666  11.076   2.792   5.652 -0.0345 -0.0030  0.9712
  737MOL0     H 1667  11.079   2.842   5.819 -0.6141  0.7110  0.3137
  737MOL0     H 1668  10.676   2.331   5.831  0.5690 -1.9048 -0.8256
  737MOL0     H 1669  10.738   2.119   5.938  1.1960 -0.6655 -0.0536
  737MOL0     H 1670  10.986   2.010   6.286 -0.5250 -0.2062 -2.1930
  737MOL0     H 1671  10.979   2.176   6.316 -1.2905  0.5272 -0.5320
  737MOL0     H 1672  10.705   2.137   6.332 -3.0495 -3.2785 -3.0259
  737MOL0     H 1673  10.739   1.975   6.303 -0.1503 -0.7202  0.2277
  737MOL0     H 1674  10.758   2.137   6.553 -2.5792 -0.6686  1.3161
  737MOL0     H 1675  10.879   2.000   6.533  0.8273 -0.0001 -3.4786
  737MOL0     H 1676  10.720   1.823   6.541 -2.4007 -0.7655  0.8933
  737MOL0     H 1677  10.611   1.916   6.457  2.8534 -1.8888 -1.5882
  737MOL0     H 1678  10.593   2.039   6.703 -1.0478  0.4957 -2.1830
  737MOL0     H 1679  10.504   1.887   6.670  0.5069 -0.2473 -2.9188
  737MOL0     H 1680  10.778   1.897   6.796 -0.0802 -0.6387  0.8670
  737MOL0     H 1681  10.691   1.755   6.764  0.2234 -0.8764  3.5725
  737MOL0     H 1682  10.502   1.834   6.918 -1.8137  2.6076 -0.1250
  737MOL0     H 1683  10.599   1.982   6.955  0.2823 -1.3603 -1.0584
  737MOL0     H 1684  10.690   1.707   7.006  0.6171 -0.2971 -1.1551
  737MOL0     H 1685  10.608   1.805   7.133  3.5184  3.7233  1.0788
  737MOL0     H 1686  10.992   2.349   6.208 -0.6998  1.4617  0.8531
  737MOL0     H 1687  10.925   2.547   6.125  0.6656 -1.7008  2.2597
  737MOL0     H 1688  10.606   2.732   5.810  0.8325 -0.2576  0.3113
  737MOL0     H 1689  10.513   2.945   5.743 -0.4309 -1.1042 -0.4296
  737MOL0     H 1690  10.184   4.752   6.653  2.3403 -0.8216  2.3163
  737MOL0     H 1691   9.956   4.801   6.729 -0.6902  0.7104 -0.5157
  737MOL0     H 1692   9.610   4.699   6.966  0.8319 -2.4646 -0.5614
  737MOL0     H 1693   9.371   4.778   7.042  2.1976  0.9883 -0.6683
  737MOL0     H 1694   9.121   4.937   6.752  0.2668 -0.2352  0.0807
  737MOL0     H 1695   9.038   4.797   6.735  0.0088  2.4917 -1.7129
  737MOL0     H 1696   8.968   4.955   6.974  0.4377  4.2094 -1.5339
  737MOL0     H 1697   8.852   4.865   6.889  1.4167  0.1932  4.1364
  737MOL0     H 1698   8.793   5.097   6.843 -2.1048 -0.3575 -1.7611
  737MOL0     H 1699   8.951   5.128   6.772  0.3404  1.0526  1.4605
  737MOL0     H 1700   8.778   4.943   6.637 -1.8605  1.5139  2.2530
  737MOL0     H 1701   8.943   5.003   6.584  1.2886 -1.3566  2.2159
  737MOL0     H 1702   8.698   5.319   6.471  1.9740  0.7825 -1.3781
  737MOL0     H 1703   9.225   4.741   6.649  0.5375  0.3879 -2.0128
  737MOL0     H 1704   9.350   4.693   6.471 -0.0011 -0.6695 -1.9358
  737MOL0     H 1705   9.517   4.727   6.462 -0.8869 -1.1043 -1.2111
  737MOL0     H 1706   9.462   4.564   6.517  1.8443  0.7490 -2.5642
  738MOL0     O 1707  11.222  10.455   2.412  0.7762 -0.8077  0.1314
  738MOL0     C 1708  11.112  10.439   2.360 -0.7830 -0.2322 -0.4422
  738MOL0     O 1709  11.052  10.317   2.338 -0.0668  0.3218  0.2151
  738MOL0     C 1710  11.116  10.197   2.347  0.0811 -0.6538 -0.5692
  738MOL0     C 1711  11.159  10.152   2.471  0.5271  0.1113  0.2861
  738MOL0     C 1712  11.212  10.027   2.487  0.9796  1.7089 -0.2427
  738MOL0     C 1713  11.223   9.939   2.376  0.6295 -0.0242  0.5788
  738MOL0     O 1714  11.277   9.819   2.389 -0.4186  0.3932  0.1508
  738MOL0     C 1715  11.239   9.739   2.503 -0.2726 -0.1143  0.7646
  738MOL0     C 1716  11.365   9.721   2.591  1.5740  0.6268  0.2211
  738MOL0     C 1717  11.483   9.676   2.515  0.0213  1.2478  0.2127
  738MOL0     C 1718  11.579   9.785   2.466  0.0533  0.7856 -0.2837
  738MOL0     C 1719  11.715   9.714   2.431  0.2999 -0.1906 -0.2868
  738MOL0     C 1720  11.837   9.813   2.428  0.2049 -0.6285  1.3168
  738MOL0     C 1721  11.960   9.738   2.390 -1.4386  0.8926  0.2567
  738MOL0     C 1722  12.062   9.843   2.339  0.5842 -0.0888 -0.1202
  738MOL0     N 1723  12.185   9.780   2.299 -0.0229  0.8468 -0.1119
  738MOL0     C 1724  12.249   9.809   2.177  0.2642  0.3354 -0.3848
  738MOL0     C 1725  12.342   9.708   2.144  0.4136 -0.3526  0.1088
  738MOL0     C 1726  12.410   9.690   2.019 -0.4422 -1.0701  0.2904
  738MOL0     C 1727  12.439   9.542   1.999 -0.1377  0.5838  0.0067
  738MOL0     C 1728  12.495   9.510   1.860 -0.2889  0.3352 -0.2867
  738MOL0     C 1729  12.531   9.364   1.836 -0.2924 -0.1334 -0.2557
  738MOL0     O 1730  12.642   9.323   1.914  1.1998  0.2566  0.1391
  738MOL0     C 1731  12.666   9.185   1.899  0.7406  0.0026 -0.3399
  738MOL0     C 1732  12.787   9.142   1.963 -0.8079 -0.8895  0.2397
  738MOL0     C 1733  12.847   9.017   1.937 -0.0889 -0.0064  0.6616
  738MOL0     C 1734  12.974   8.995   2.007  0.3230 -0.1039  0.0167
  738MOL0     C 1735  12.776   8.926   1.850 -0.3054 -0.3355  0.3929
  738MOL0     C 1736  12.834   8.789   1.815 -0.1026  0.6442  0.8957
  738MOL0     O 1737  12.761   8.721   1.726  0.0847 -0.0330  0.1792
  738MOL0     C 1738  12.813   8.604   1.668  0.4508 -0.4298  0.1854
  738MOL0     C 1739  12.827   8.604   1.531 -0.8106  0.4463  0.0289
  738MOL0     C 1740  12.871   8.486   1.461  0.8427  0.0827  0.4332
  738MOL0     C 1741  12.910   8.368   1.536  0.3047 -0.1570  0.4568
  738MOL0     O 1742  12.956   8.254   1.471  0.5063  1.2137  0.3059
  738MOL0     C 1743  13.081   8.269   1.412  0.6710  0.2670 -0.0768
  738MOL0     C 1744  13.141   8.134   1.375 -0.6513 -0.0293 -0.0751
  738MOL0     C 1745  13.290   8.150   1.319  0.4381 -0.5181  0.3638
  738MOL0     C 1746  13.293   8.130   1.169  1.0815 -0.9158 -0.3694
  738MOL0     C 1747  13.438   8.133   1.109  0.1654  0.3175 -0.3790
  738MOL0     C 1748  13.517   8.005   1.151  0.1395  0.5614 -0.6454
  738MOL0     C 1749  13.667   8.034   1.144  0.2623 -0.2759  1.1680
  738MOL0     C 1750  13.733   7.898   1.137 -0.0843 -0.0202  0.3290
  738MOL0    Cl 1751  13.756   7.837   1.306  0.0500  0.1089  0.4499
  738MOL0     C 1752  12.896   8.368   1.677  0.6354 -0.2124  0.7030
  738MOL0     C 1753  12.837   8.484   1.737  1.3076 -0.2364  0.2362
  738MOL0     O 1754  12.934   8.744   1.865 -0.2165  0.1964  0.7848
  738MOL0     C 1755  12.650   8.969   1.791  0.1019  0.5879 -0.5400
  738MOL0     C 1756  12.601   9.094   1.813 -0.1964 -0.4327  0.2392
  738MOL0     N 1757  12.354   9.639   2.263  1.0521 -0.1352 -0.0722
  738MOL0     N 1758  12.257   9.678   2.349 -0.3811  0.3756 -1.1145
  738MOL0     C 1759  11.183   9.988   2.250  0.0155  0.0907  0.3063
  738MOL0     C 1760  11.135  10.118   2.235 -0.1402  0.4929  0.4012
  738MOL0     C 1761  11.044  10.552   2.305  0.2367 -0.1255 -0.0797
  738MOL0     C 1762  10.944  10.626   2.371 -0.0984  0.9058 -0.5681
  738MOL0     C 1763  10.899  10.748   2.334 -0.7102 -0.1864 -0.2504
  738MOL0     C 1764  10.939  10.787   2.201  0.4405  0.2269 -0.8232
  738MOL0     O 1765  10.875  10.882   2.129  0.3820 -0.3428  0.2919
  738MOL0     C 1766  10.755  10.937   2.175 -0.5152 -0.8308 -0.1021
  738MOL0     C 1767  10.699  11.048   2.092  0.7674  0.5332  0.2546
  738MOL0     C 1768  10.555  11.072   2.112 -0.2311 -0.4614  0.5634
  738MOL0     C 1769  10.495  11.154   1.991 -0.3068  0.1088  0.0222
  738MOL0     C 1770  10.346  11.157   2.001  0.1436  0.3034 -0.4019
  738MOL0     C 1771  10.221  11.153   2.003  0.1354  0.0963 -0.2258
  738MOL0     C 1772  11.021  10.712   2.128 -1.0547  0.2488  0.0981
  738MOL0     C 1773  11.076  10.595   2.178 -0.4571  1.3676 -0.4308
  738MOL0     C 1774  11.168  10.513   2.087  0.5655 -0.3923 -0.1741
  738MOL0     H 1775  11.139  10.224   2.550 -0.2317  1.4049 -1.0300
  738MOL0     H 1776  11.244   9.980   2.579  2.1855 -1.9686 -2.3375
  738MOL0     H 1777  11.222   9.640   2.460 -1.2033  0.7583 -0.9741
  738MOL0     H 1778  11.154   9.781   2.558 -1.1346 -0.4337 -0.3063
  738MOL0     H 1779  11.385   9.811   2.651  0.1868  1.2381 -0.1856
  738MOL0     H 1780  11.331   9.656   2.673 -1.8087  0.9524 -0.7571
  738MOL0     H 1781  11.535   9.607   2.582 -1.9849  0.9946  1.5973
  738MOL0     H 1782  11.455   9.607   2.435 -0.2953  0.8663  0.6505
  738MOL0     H 1783  11.530   9.815   2.373 -1.1390 -3.7841 -1.4009
  738MOL0     H 1784  11.586   9.871   2.533 -2.1632  2.4692 -2.0741
  738MOL0     H 1785  11.708   9.666   2.334  0.6094 -1.3151  0.2315
  738MOL0     H 1786  11.738   9.633   2.500  2.2593 -0.3141 -1.0159
  738MOL0     H 1787  11.823   9.889   2.351  2.1451 -2.0321 -0.5323
  738MOL0     H 1788  11.849   9.849   2.531  0.3369 -1.6157  1.6591
  738MOL0     H 1789  11.953   9.660   2.314  0.6974  0.8344  0.0419
  738MOL0     H 1790  12.006   9.685   2.474 -1.6788 -0.6972 -0.5661
  738MOL0     H 1791  12.015   9.903   2.260 -0.9770 -0.4728  0.4720
  738MOL0     H 1792  12.093   9.912   2.419  1.0319  0.4498 -0.7451
  738MOL0     H 1793  12.215   9.894   2.119  1.4779  1.2120  0.1515
  738MOL0     H 1794  12.512   9.726   2.004  0.7421 -3.3006  2.2315
  738MOL0     H 1795  12.348   9.725   1.936  0.8355  0.3214 -0.1091
  738MOL0     H 1796  12.515   9.513   2.073 -0.5182  1.3487  0.7159
  738MOL0     H 1797  12.348   9.481   2.001  0.3291 -0.1788 -1.0365
  738MOL0     H 1798  12.418   9.541   1.789 -0.2094  1.6685  0.1772
  738MOL0     H 1799  12.584   9.571   1.842 -0.1903  0.3490  0.2439
  738MOL0     H 1800  12.450   9.299   1.871  2.2012 -5.1827 -2.7536
  738MOL0     H 1801  12.560   9.352   1.732  2.0225 -5.5085  0.6803
  738MOL0     H 1802  12.842   9.212   2.024  0.5627 -2.7882  1.2992
  738MOL0     H 1803  12.967   8.924   2.091  1.6653  0.6695  0.8179
  738MOL0     H 1804  13.004   9.082   2.065  1.0101  0.9442 -1.8435
  738MOL0     H 1805  13.050   8.966   1.934 -0.2392  2.5624 -1.7536
  738MOL0     H 1806  12.792   8.696   1.485 -0.1840  0.6181 -0.1068
  738MOL0     H 1807  12.860   8.488   1.353 -0.9796  0.8190  0.5895
  738MOL0     H 1808  13.073   8.320   1.315 -0.4559 -1.9842 -1.2358
  738MOL0     H 1809  13.136   8.331   1.483 -1.2980  2.9064 -0.6759
  738MOL0     H 1810  13.128   8.069   1.462  2.6157 -0.2942  0.3379
  738MOL0     H 1811  13.087   8.084   1.294  2.1958 -5.6484  0.9532
  738MOL0     H 1812  13.344   8.075   1.379  4.8455  0.8189 -1.5880
  738MOL0     H 1813  13.316   8.254   1.338 -2.9941  0.4490  0.4755
  738MOL0     H 1814  13.228   8.205   1.122 -1.8392 -3.1700 -0.2468
  738MOL0     H 1815  13.246   8.036   1.138 -4.1539  2.0393 -2.8861
  738MOL0     H 1816  13.434   8.135   0.999  0.6602 -0.1260 -0.4106
  738MOL0     H 1817  13.500   8.219   1.137  0.5818 -0.5139  1.3469
  738MOL0     H 1818  13.481   7.929   1.081 -4.3846  1.8240 -0.0307
  738MOL0     H 1819  13.487   7.979   1.253  2.4663 -1.6540 -0.4319
  738MOL0     H 1820  13.710   8.098   1.222  0.6082  2.5580 -1.1926
  738MOL0     H 1821  13.678   8.083   1.047 -2.2026 -2.2316 -0.2374
  738MOL0     H 1822  13.837   7.902   1.103 -0.6273  0.1128 -1.4184
  738MOL0     H 1823  13.678   7.831   1.070 -0.7623 -1.8499  2.6098
  738MOL0     H 1824  12.928   8.282   1.734 -1.5939 -0.1870  2.1087
  738MOL0     H 1825  12.812   8.487   1.843 -0.4451  0.7344 -0.1712
  738MOL0     H 1826  12.575   8.906   1.746  1.1926 -0.6470 -0.7022
  738MOL0     H 1827  12.504   9.114   1.768  0.2892  3.8686  0.6859
  738MOL0     H 1828  11.195   9.932   2.158 -1.3080  0.8441 -0.3442
  738MOL0     H 1829  11.124  10.164   2.137  1.7218  3.9438  1.6211
  738MOL0     H 1830  10.911  10.586   2.466  1.6624 -2.0726 -1.0743
  738MOL0     H 1831  10.827  10.808   2.390  0.7098  0.4112  1.0094
  738MOL0     H 1832  10.676  10.861   2.179 -4.5196  2.9760  1.1789
  738MOL0     H 1833  10.775  10.976   2.275  0.5831 -1.6482  0.0202
  738MOL0     H 1834  10.720  11.026   1.987 -3.7446  0.3906 -0.8392
  738MOL0     H 1835  10.748  11.145   2.106 -2.1518  2.3709 -1.2270
  738MOL0     H 1836  10.500  10.979   2.133 -0.2235 -0.6985 -0.4175
  738MOL0     H 1837  10.544  11.136   2.200 -2.4121  3.1094 -2.0304
  738MOL0     H 1838  10.543  11.105   1.906  0.6819  0.8984  0.1250
  738MOL0     H 1839  10.532  11.256   1.998 -0.4744  0.1021  1.4673
  738MOL0     H 1840  10.117  11.143   2.029 -0.1385 -0.9489 -1.6547
  738MOL0     H 1841  11.042  10.756   2.031 -1.2016 -2.7561 -1.4403
  738MOL0     H 1842  11.225  10.583   2.025  0.3196  0.1068  0.1642
  738MOL0     H 1843  11.223  10.441   2.148 -0.2651  2.3376  4.2525
  738MOL0     H 1844  11.101  10.461   2.018  3.3267 -0.7461 -2.7919
  739MOL0     O 1845   2.103   2.354  10.786 -0.4335  0.0712  0.2188
  739MOL0     C 1846   2.167   2.372  10.686  0.3701 -0.0824 -0.8239
  739MOL0     O 1847   2.182   2.279  10.582  0.3473  0.2436  0.6680
  739MOL0     C 1848   2.113   2.161  10.604 -0.6408 -1.2515 -0.0512
  739MOL0     C 1849   2.199   2.058  10.629  0.5045  1.1944 -0.1641
  739MOL0     C 1850   2.138   1.928  10.650 -0.9682 -0.7624  0.4166
  739MOL0     C 1851   2.006   1.891  10.630 -0.2525 -0.9291 -0.4616
  739MOL0     O 1852   1.965   1.760  10.629 -0.2240  0.0922  0.6265
  739MOL0     C 1853   1.829   1.725  10.604  0.6752 -0.5755  0.0795
  739MOL0     C 1854   1.737   1.675  10.730 -1.3649 -0.4262 -0.6412
  739MOL0     C 1855   1.605   1.603  10.711 -0.9123 -0.7252 -0.5855
  739MOL0     C 1856   1.544   1.561  10.845 -0.5715  0.4134 -0.3126
  739MOL0     C 1857   1.425   1.467  10.824 -0.6084 -0.8542 -0.6725
  739MOL0     C 1858   1.313   1.546  10.750 -0.3720 -0.3138  0.3265
  739MOL0     C 1859   1.188   1.466  10.756 -0.2974  0.2637 -0.6986
  739MOL0     C 1860   1.073   1.541  10.697  0.5272  0.5783  1.0203
  739MOL0     N 1861   0.968   1.449  10.690  1.2617  0.6330  1.0650
  739MOL0     C 1862   0.974   1.337  10.606 -0.5349 -0.1421 -0.6879
  739MOL0     C 1863   0.862   1.269  10.622  0.2542 -0.1877  0.6615
  739MOL0     C 1864   0.821   1.141  10.554 -0.0047 -0.4189  0.1005
  739MOL0     C 1865   0.700   1.176  10.472  0.1066 -0.4878  0.0664
  739MOL0     C 1866   0.695   1.100  10.335  0.5714  0.8052  0.4435
  739MOL0     C 1867   0.628   0.963  10.356 -0.3415 -0.0469 -0.0178
  739MOL0     O 1868   0.627   0.888  10.231  0.7687 -0.2475 -0.4254
  739MOL0     C 1869   0.542   0.923  10.131 -0.0789  0.2057 -0.4856
  739MOL0     C 1870   0.403   0.933  10.146 -0.5234 -0.5074  0.5422
  739MOL0     C 1871   0.319   0.977  10.035 -0.0606  0.0428  0.7836
  739MOL0     C 1872   0.169   0.984  10.061 -0.3801 -0.4567  0.0485
  739MOL0     C 1873   0.383   1.010   9.917  0.4685 -0.1650 -0.6482
  739MOL0     C 1874   0.323   1.076   9.797  0.9830  0.3921 -0.2093
  739MOL0     O 1875   0.380   1.050   9.674 -0.5174 -0.1663 -0.6928
  739MOL0     C 1876   0.370   1.131   9.564  0.2536  0.5491 -0.2805
  739MOL0     C 1877   0.360   1.270   9.572  0.1090  0.0512 -0.1459
  739MOL0     C 1878   0.354   1.344   9.460  0.5809 -0.6806  0.1677
  739MOL0     C 1879   0.362   1.287   9.326  0.8546  0.4843 -1.5573
  739MOL0     O 1880   0.356   1.366   9.218 -0.5726  0.7879 -0.2980
  739MOL0     C 1881   0.275   1.327   9.103  0.4676 -0.8183 -0.5719
  739MOL0     C 1882   0.371   1.298   8.977  0.4965  0.3633 -1.0007
  739MOL0     C 1883   0.290   1.239   8.874  0.2539  1.3674 -1.0765
  739MOL0     C 1884   0.383   1.202   8.756 -0.1105  0.5093  0.6582
  739MOL0     C 1885   0.304   1.116   8.641 -0.1906 -0.0105 -0.2361
  739MOL0     C 1886   0.186   1.173   8.578 -0.1249 -0.2536 -0.8652
  739MOL0     C 1887   0.175   1.315   8.542  0.7345 -0.2264 -0.6086
  739MOL0     C 1888   0.268   1.347   8.432  1.0279  0.7088  0.2430
  739MOL0    Cl 1889   0.281   1.522   8.418  0.0060  0.4560  0.2479
  739MOL0     C 1890   0.379   1.153   9.319 -0.0631 -0.0617  0.2960
  739MOL0     C 1891   0.381   1.078   9.436  0.1120 -0.2339  0.1227
  739MOL0     O 1892   0.211   1.124   9.800  1.1829  0.7393 -0.0279
  739MOL0     C 1893   0.520   0.994   9.900 -0.2221  0.0705 -0.8786
  739MOL0     C 1894   0.602   0.957  10.008 -0.7993 -0.4970 -0.3858
  739MOL0     N 1895   0.790   1.342  10.716  0.1126 -0.4814 -0.1759
  739MOL0     N 1896   0.850   1.444  10.756 -0.4656  0.7052  0.2251
  739MOL0     C 1897   1.928   2.004  10.598  0.2287  0.6267 -0.9337
  739MOL0     C 1898   1.986   2.136  10.577  0.1104  0.5635 -0.5604
  739MOL0     C 1899   2.242   2.503  10.677  0.0283 -0.7636 -0.5469
  739MOL0     C 1900   2.255   2.587  10.792  1.2324  0.1768  0.1643
  739MOL0     C 1901   2.306   2.717  10.798  1.0503 -0.1509  0.9297
  739MOL0     C 1902   2.358   2.770  10.675 -0.5074 -0.1893  0.6955
  739MOL0     O 1903   2.401   2.898  10.663  0.5332 -0.3024  0.4362
  739MOL0     C 1904   2.460   2.936  10.538  0.8971 -1.1542 -0.0075
  739MOL0     C 1905   2.521   3.080  10.562  0.1452 -0.5547  0.0659
  739MOL0     C 1906   2.587   3.129  10.427 -0.0902 -0.2355  1.0010
  739MOL0     C 1907   2.658   3.267  10.435 -0.1358  0.1617  0.5622
  739MOL0     C 1908   2.697   3.327  10.299 -0.3971 -0.2447  0.2255
  739MOL0     C 1909   2.718   3.393  10.204  0.1044  0.0641 -0.2403
  739MOL0     C 1910   2.368   2.687  10.558  0.7007  1.3419  0.7299
  739MOL0     C 1911   2.302   2.559  10.562 -0.3905 -1.4775  1.0024
  739MOL0     C 1912   2.298   2.480  10.426 -0.0946 -0.1344  0.4324
  739MOL0     H 1913   2.307   2.062  10.624  0.4410  1.0562 -2.3936
  739MOL0     H 1914   2.204   1.846  10.676  1.0756  1.2182  1.8757
  739MOL0     H 1915   1.839   1.641  10.534 -1.8417 -1.5311  0.7269
  739MOL0     H 1916   1.772   1.784  10.532  2.0637  0.5295 -0.1529
  739MOL0     H 1917   1.805   1.610  10.786  2.8322  2.1049 -2.3370
  739MOL0     H 1918   1.733   1.760  10.797  2.4446 -1.0656  0.6512
  739MOL0     H 1919   1.535   1.663  10.654 -2.6238  0.1685  2.2862
  739MOL0     H 1920   1.622   1.512  10.652  0.2333 -0.9603  0.0666
  739MOL0     H 1921   1.627   1.516  10.901 -0.5196  0.8471 -0.0383
  739MOL0     H 1922   1.515   1.643  10.911  1.5281 -0.8150  2.3242
  739MOL0     H 1923   1.388   1.436  10.923  0.4254 -1.8697 -0.5866
  739MOL0     H 1924   1.449   1.379  10.764  0.3825 -0.0534 -1.4840
  739MOL0     H 1925   1.307   1.643  10.800  0.8209 -0.8183  1.5120
  739MOL0     H 1926   1.339   1.568  10.647  1.2459 -3.1545  0.0192
  739MOL0     H 1927   1.157   1.441  10.858 -1.7381  0.7990 -0.9781
  739MOL0     H 1928   1.207   1.368  10.710  0.9218  0.6930 -1.1278
  739MOL0     H 1929   1.038   1.620  10.765 -2.5869 -2.0539  2.7540
  739MOL0     H 1930   1.110   1.581  10.602  2.8022  1.1272  2.0590
  739MOL0     H 1931   1.050   1.306  10.535 -2.3613 -1.4159 -2.1850
  739MOL0     H 1932   0.793   1.056  10.617 -2.7202 -0.8466 -1.5343
  739MOL0     H 1933   0.906   1.102  10.498  1.8448 -1.5993  3.4075
  739MOL0     H 1934   0.600   1.166  10.514  0.1354 -2.0673 -0.1841
  739MOL0     H 1935   0.727   1.276  10.438  2.0160 -1.6703 -2.2355
  739MOL0     H 1936   0.630   1.157  10.269 -1.3835 -1.3373  0.3940
  739MOL0     H 1937   0.790   1.085  10.283 -2.0590 -2.9183 -4.0177
  739MOL0     H 1938   0.672   0.896  10.431 -2.4048 -1.9076 -0.3503
  739MOL0     H 1939   0.526   0.978  10.393 -0.1872 -0.8123  0.7597
  739MOL0     H 1940   0.367   0.915  10.247  3.4078  0.6334  2.3277
  739MOL0     H 1941   0.118   0.899  10.013 -1.6799  1.0231 -1.3341
  739MOL0     H 1942   0.113   1.066  10.014 -1.9547 -1.5665 -0.0777
  739MOL0     H 1943   0.149   0.984  10.168 -0.8173  0.7788 -0.0155
  739MOL0     H 1944   0.346   1.312   9.671  0.4431  3.3787 -1.3800
  739MOL0     H 1945   0.338   1.451   9.465  2.3606 -0.2989 -1.1661
  739MOL0     H 1946   0.213   1.240   9.128 -2.3021  0.9135 -0.9708
  739MOL0     H 1947   0.204   1.407   9.080 -0.5181 -1.7270 -0.7908
  739MOL0     H 1948   0.415   1.393   8.943 -1.3687  1.4220 -0.5949
  739MOL0     H 1949   0.448   1.222   8.989  1.3922  1.6105  2.0982
  739MOL0     H 1950   0.204   1.296   8.839 -1.1634 -1.0850 -1.8984
  739MOL0     H 1951   0.245   1.151   8.921 -0.7710  0.9133 -2.8144
  739MOL0     H 1952   0.464   1.134   8.783 -0.8516 -1.0575 -0.8986
  739MOL0     H 1953   0.417   1.297   8.714 -0.1459  0.1207 -0.2699
  739MOL0     H 1954   0.369   1.096   8.556 -0.5708 -0.5629 -0.3993
  739MOL0     H 1955   0.286   1.025   8.698 -0.2423  0.7430  0.9901
  739MOL0     H 1956   0.106   1.149   8.649 -0.8824 -0.5852 -1.7976
  739MOL0     H 1957   0.174   1.125   8.480  0.7193 -2.7652  0.1868
  739MOL0     H 1958   0.186   1.383   8.626  0.6344  2.6537 -2.7742
  739MOL0     H 1959   0.079   1.336   8.494  1.4175 -0.8510 -2.3388
  739MOL0     H 1960   0.237   1.307   8.335  1.7477  1.9226 -0.5159
  739MOL0     H 1961   0.366   1.305   8.458  1.1099  0.6931 -0.0864
  739MOL0     H 1962   0.382   1.099   9.225 -1.5430 -1.0194  0.7474
  739MOL0     H 1963   0.387   0.969   9.437 -2.9020 -0.5984  3.8491
  739MOL0     H 1964   0.573   1.021   9.809 -1.1163  2.5548 -0.7393
  739MOL0     H 1965   0.708   0.940  10.018 -1.1726 -1.7480  2.4173
  739MOL0     H 1966   1.820   1.997  10.600  0.2281  0.8507  0.0093
  739MOL0     H 1967   1.940   2.231  10.552 -1.9335  0.5401  2.5308
  739MOL0     H 1968   2.216   2.542  10.883 -1.5834 -1.3554 -1.6518
  739MOL0     H 1969   2.306   2.775  10.889 -0.0598  0.9671  0.2580
  739MOL0     H 1970   2.543   2.874  10.504  3.1607  0.9080  1.4275
  739MOL0     H 1971   2.382   2.933  10.461 -1.0074 -1.5304  1.8631
  739MOL0     H 1972   2.600   3.083  10.637 -0.0188 -3.9104  0.5141
  739MOL0     H 1973   2.437   3.142  10.596 -1.5024 -2.7084  0.1506
  739MOL0     H 1974   2.659   3.052  10.399 -1.8297 -0.8402 -2.4997
  739MOL0     H 1975   2.514   3.133  10.345 -0.3545  1.5289  1.2647
  739MOL0     H 1976   2.756   3.255  10.483  1.0993  3.8640 -0.6830
  739MOL0     H 1977   2.603   3.338  10.496  0.3694  3.1929 -2.2249
  739MOL0     H 1978   2.755   3.460  10.129  0.6284  0.5408  0.4343
  739MOL0     H 1979   2.406   2.712  10.459  1.7500  2.8062  1.4707
  739MOL0     H 1980   2.195   2.472  10.391 -0.6927 -3.7435  2.5080
  739MOL0     H 1981   2.366   2.523  10.352  0.7758 -0.7093  0.8826
  739MOL0     H 1982   2.341   2.380  10.434  0.1070 -0.1065 -0.2825
  740MOL0     O 1983   4.507   3.110   9.161 -0.2990 -0.0380  0.1373
  740MOL0     C 1984   4.467   3.001   9.174  0.9998  0.6279 -0.2905
  740MOL0     O 1985   4.501   2.916   9.272  0.5822 -1.5210  0.7845
  740MOL0     C 1986   4.588   2.956   9.373  0.5175 -0.5640 -0.1820
  740MOL0     C 1987   4.683   2.855   9.393 -0.6428 -0.3137  0.1518
  740MOL0     C 1988   4.779   2.865   9.499 -0.9608  0.2708  0.0912
  740MOL0     C 1989   4.785   2.976   9.587  0.4816 -1.1224  0.4960
  740MOL0     O 1990   4.885   3.009   9.675 -0.0269 -0.0386 -0.6166
  740MOL0     C 1991   4.897   2.898   9.767 -0.0615  0.2642 -0.3884
  740MOL0     C 1992   4.948   2.951   9.906  0.1789 -0.4860 -0.2310
  740MOL0     C 1993   4.927   2.838   9.997 -0.3076 -0.2282 -0.1556
  740MOL0     C 1994   4.979   2.841  10.138 -0.2585  0.1458 -0.5240
  740MOL0     C 1995   4.925   2.720  10.224 -0.4022  1.0178 -0.2934
  740MOL0     C 1996   4.987   2.723  10.362 -0.0661  0.7523 -0.2505
  740MOL0     C 1997   4.978   2.589  10.422  0.2632 -0.8743  0.3518
  740MOL0     C 1998   4.996   2.590  10.577  0.2524 -0.0700  0.0286
  740MOL0     N 1999   5.120   2.670  10.603  0.2525  0.8625 -1.3084
  740MOL0     C 2000   5.124   2.805  10.630 -0.2705 -0.4365  0.6523
  740MOL0     C 2001   5.257   2.829  10.656  1.3642  0.3637  0.6732
  740MOL0     C 2002   5.314   2.972  10.682  0.0444 -0.5951  0.1943
  740MOL0     C 2003   5.320   3.064  10.566  0.8671 -0.1173 -0.4509
  740MOL0     C 2004   5.362   3.203  10.601  0.2105 -0.4597 -0.5187
  740MOL0     C 2005   5.388   3.291  10.476 -0.1920 -0.6879 -0.6074
  740MOL0     O 2006   5.498   3.250  10.399  0.0130 -0.2977  0.0915
  740MOL0     C 2007   5.487   3.174  10.285  0.2652  0.0699  0.5504
  740MOL0     C 2008   5.611   3.148  10.222  0.3492 -0.0852  0.4338
  740MOL0     C 2009   5.618   3.077  10.104 -0.4086 -0.0277 -0.0606
  740MOL0     C 2010   5.748   3.073  10.038 -0.2991  0.6424 -0.5233
  740MOL0     C 2011   5.495   3.024  10.043 -0.1798  0.1610  0.2539
  740MOL0     C 2012   5.498   2.959   9.916  0.6129 -0.0447 -0.1698
  740MOL0     O 2013   5.396   2.996   9.825  0.3018 -0.2624 -0.0507
  740MOL0     C 2014   5.382   2.938   9.700 -0.1812 -0.5005 -0.4490
  740MOL0     C 2015   5.484   2.881   9.621 -0.2699  0.1830  1.0671
  740MOL0     C 2016   5.451   2.826   9.488  0.9982  0.3748  0.9912
  740MOL0     C 2017   5.324   2.845   9.436 -0.3609 -0.7304  1.1276
  740MOL0     O 2018   5.288   2.808   9.306 -0.2081  0.3090  0.0099
  740MOL0     C 2019   5.381   2.731   9.227 -0.7145  0.1388  0.4744
  740MOL0     C 2020   5.316   2.672   9.099  0.5651  1.4407 -0.3264
  740MOL0     C 2021   5.213   2.564   9.130  0.0404 -0.5877  0.2450
  740MOL0     C 2022   5.075   2.616   9.171  0.1829  0.7139  0.9526
  740MOL0     C 2023   5.010   2.504   9.256  0.1057  0.2146  0.7784
  740MOL0     C 2024   4.855   2.508   9.268 -0.1324 -0.4650 -0.4572
  740MOL0     C 2025   4.788   2.470   9.136 -0.4026  1.0289 -0.1471
  740MOL0     C 2026   4.661   2.561   9.109 -1.0151 -1.0702  0.7102
  740MOL0    Cl 2027   4.710   2.723   9.064  0.5591 -0.0350 -0.0633
  740MOL0     C 2028   5.223   2.888   9.522  0.1066  0.1595 -0.6724
  740MOL0     C 2029   5.254   2.934   9.653  0.8293  0.7252 -0.2248
  740MOL0     O 2030   5.585   2.882   9.890  0.4860 -0.4526  0.5585
  740MOL0     C 2031   5.374   3.032  10.117 -0.6317 -0.7298  1.3223
  740MOL0     C 2032   5.372   3.110  10.236 -0.5512 -0.2628  0.5057
  740MOL0     N 2033   5.326   2.720  10.628  0.8726 -1.0816 -0.0850
  740MOL0     N 2034   5.242   2.623  10.615  0.7965 -0.0524 -0.0390
  740MOL0     C 2035   4.676   3.067   9.565 -0.5609 -0.5160  0.0667
  740MOL0     C 2036   4.574   3.059   9.468 -0.9163 -0.1953  0.5338
  740MOL0     C 2037   4.369   2.951   9.070 -0.7883  0.1618  0.0982
  740MOL0     C 2038   4.346   2.808   9.073  0.1285  0.3830  0.0313
  740MOL0     C 2039   4.248   2.752   8.986  0.2176  0.2166 -0.5566
  740MOL0     C 2040   4.180   2.829   8.895  0.4164  0.2768 -0.9549
  740MOL0     O 2041   4.084   2.776   8.811  0.8540 -0.0389 -0.0417
  740MOL0     C 2042   4.079   2.639   8.775 -0.2726  0.1539  1.0156
  740MOL0     C 2043   4.190   2.615   8.679 -0.0751 -0.4214 -0.0598
  740MOL0     C 2044   4.197   2.458   8.670 -0.0057 -1.0231 -0.0056
  740MOL0     C 2045   4.288   2.442   8.557  0.6740  0.0726 -0.1623
  740MOL0     C 2046   4.296   2.306   8.500  0.1017  0.0579  0.0088
  740MOL0     C 2047   4.306   2.192   8.474 -0.7311  0.3929  0.1858
  740MOL0     C 2048   4.200   2.968   8.891 -1.6583 -0.4357  0.4951
  740MOL0     C 2049   4.300   3.031   8.969  0.8830  1.7446 -0.5633
  740MOL0     C 2050   4.327   3.170   8.949  0.6345 -0.1649 -0.2272
  740MOL0     H 2051   4.664   2.760   9.343  1.3418 -0.0579 -1.2040
  740MOL0     H 2052   4.856   2.789   9.506 -1.8740 -1.1275 -3.2537
  740MOL0     H 2053   4.950   2.809   9.730 -0.8508 -0.7126  0.7602
  740MOL0     H 2054   4.794   2.869   9.787 -1.0367  0.8043 -3.8812
  740MOL0     H 2055   5.053   2.982   9.900 -0.2358  0.7086 -3.3611
  740MOL0     H 2056   4.878   3.029   9.936  0.7589  0.2627 -0.7975
  740MOL0     H 2057   4.817   2.834   9.998 -0.3681  0.8074 -0.9624
  740MOL0     H 2058   4.979   2.754   9.952  0.9185 -1.9171  3.9435
  740MOL0     H 2059   5.087   2.842  10.123 -0.2750  1.4867 -0.7190
  740MOL0     H 2060   4.944   2.931  10.189  0.0868  1.0974 -1.9079
  740MOL0     H 2061   4.964   2.633  10.171 -0.7263  1.1182 -0.7046
  740MOL0     H 2062   4.817   2.719  10.244 -0.0753  1.6295  1.8005
  740MOL0     H 2063   5.090   2.759  10.354 -0.4734  1.9938 -0.1952
  740MOL0     H 2064   4.933   2.797  10.422  2.8706  3.3771 -0.5766
  740MOL0     H 2065   5.032   2.508  10.373 -0.3629 -1.3033  0.3637
  740MOL0     H 2066   4.873   2.560  10.408  0.2863 -1.1068  0.6519
  740MOL0     H 2067   4.914   2.636  10.633 -0.1613 -0.9334  0.1505
  740MOL0     H 2068   5.009   2.489  10.617  1.5549 -1.0657 -2.6357
  740MOL0     H 2069   5.048   2.882  10.624  2.4588  2.3413 -0.6301
  740MOL0     H 2070   5.412   2.955  10.726  0.8318  0.2450 -1.1751
  740MOL0     H 2071   5.245   3.024  10.749  1.5382  1.1308  0.4514
  740MOL0     H 2072   5.396   3.030  10.495 -0.9243 -2.8468 -1.2584
  740MOL0     H 2073   5.229   3.060  10.505  0.3260 -1.5517  0.3854
  740MOL0     H 2074   5.288   3.253  10.664 -1.4413 -1.6657 -1.4255
  740MOL0     H 2075   5.460   3.200  10.649 -0.5524 -1.4802  1.0562
  740MOL0     H 2076   5.297   3.305  10.416 -2.7839 -1.1115  2.8878
  740MOL0     H 2077   5.408   3.395  10.504 -0.6757 -1.1798  1.8069
  740MOL0     H 2078   5.697   3.208  10.251 -0.1769 -0.1854  2.3866
  740MOL0     H 2079   5.823   3.138  10.083  0.4809  0.0135 -0.8887
  740MOL0     H 2080   5.737   3.110   9.936 -1.5953 -0.6529 -0.8869
  740MOL0     H 2081   5.798   2.976  10.052  0.9632  1.6605  3.0475
  740MOL0     H 2082   5.588   2.872   9.650 -0.4791  2.0426  2.5509
  740MOL0     H 2083   5.530   2.772   9.438 -0.6096  0.8937 -2.3545
  740MOL0     H 2084   5.470   2.789   9.201 -1.7440  1.8735  0.6710
  740MOL0     H 2085   5.409   2.652   9.297  1.2212  0.8381  0.5731
  740MOL0     H 2086   5.270   2.743   9.030 -0.7265  1.0779  0.1434
  740MOL0     H 2087   5.392   2.620   9.039 -1.1798 -1.3468 -0.3280
  740MOL0     H 2088   5.249   2.499   9.210  0.9370 -0.3418  0.0484
  740MOL0     H 2089   5.187   2.510   9.038 -0.3284  0.1208 -0.0779
  740MOL0     H 2090   5.031   2.634   9.072 -0.0681 -1.1969  0.6792
  740MOL0     H 2091   5.079   2.709   9.228 -0.1251 -0.5805  3.2101
  740MOL0     H 2092   5.045   2.410   9.213  3.6338  1.3705  0.8313
  740MOL0     H 2093   5.053   2.511   9.356  0.8800  0.0058  0.4657
  740MOL0     H 2094   4.812   2.598   9.313 -2.4173 -1.3874 -0.6463
  740MOL0     H 2095   4.830   2.435   9.345  0.3900  1.1353  1.3175
  740MOL0     H 2096   4.757   2.365   9.141 -0.3687  0.9247 -1.7574
  740MOL0     H 2097   4.856   2.489   9.053  0.0830 -0.7886 -0.2065
  740MOL0     H 2098   4.595   2.559   9.196 -0.9466 -3.8197  0.8115
  740MOL0     H 2099   4.606   2.519   9.024  0.1562  0.8197 -1.0710
  740MOL0     H 2100   5.121   2.878   9.486 -0.5947  1.6829  0.7640
  740MOL0     H 2101   5.171   2.971   9.713  1.9847  5.2839 -1.0287
  740MOL0     H 2102   5.284   2.985  10.078  0.9128  0.4132 -4.6171
  740MOL0     H 2103   5.279   3.123  10.292 -0.9146  2.5498 -0.5912
  740MOL0     H 2104   4.665   3.142   9.642 -0.7130 -1.8379  1.3853
  740MOL0     H 2105   4.493   3.129   9.453 -0.5613  0.4905  1.6502
  740MOL0     H 2106   4.384   2.744   9.152  1.2656  1.4570  0.3945
  740MOL0     H 2107   4.243   2.644   8.995  1.5631  0.2814  1.7042
  740MOL0     H 2108   4.096   2.564   8.854 -0.1549 -2.1996 -1.1125
  740MOL0     H 2109   3.993   2.617   8.711  1.0959 -1.5376 -0.3487
  740MOL0     H 2110   4.283   2.653   8.721  0.0713 -2.3587  1.5509
  740MOL0     H 2111   4.176   2.672   8.587  0.9947 -0.8815 -0.5228
  740MOL0     H 2112   4.237   2.409   8.759 -0.7277  0.7896  1.3905
  740MOL0     H 2113   4.096   2.421   8.647  0.4549 -2.2815 -0.0549
  740MOL0     H 2114   4.389   2.476   8.580  0.3307  2.1038 -1.3660
  740MOL0     H 2115   4.262   2.510   8.475  4.0848  2.1085  0.2718
  740MOL0     H 2116   4.315   2.087   8.455  0.9910  1.1136 -4.1578
  740MOL0     H 2117   4.149   3.033   8.821  1.1920  1.5583  0.0725
  740MOL0     H 2118   4.273   3.206   8.860 -2.5580 -0.3009  1.4942
  740MOL0     H 2119   4.298   3.237   9.030  3.4699  1.8096 -0.6911
  740MOL0     H 2120   4.430   3.198   8.928 -0.5454  3.6277 -1.8015
  741MOL0     O 2121   4.898   6.130   5.539  0.6171  0.3509  0.7008
  741MOL0     C 2122   4.828   6.233   5.507  0.4363 -0.4061 -0.9368
  741MOL0     O 2123   4.696   6.235   5.471  0.2488  1.1230  0.4503
  741MOL0     C 2124   4.652   6.101   5.453  0.0782  0.4858  0.1237
  741MOL0     C 2125   4.567   6.037   5.543  0.3795 -0.4594  0.0556
  741MOL0     C 2126   4.525   5.900   5.513 -0.2262  0.3794  0.0725
  741MOL0     C 2127   4.581   5.831   5.405  1.1407  0.6672  0.7256
  741MOL0     O 2128   4.572   5.695   5.382 -0.0554 -0.9973  0.2169
  741MOL0     C 2129   4.496   5.616   5.468  0.1548  1.0654 -0.5027
  741MOL0     C 2130   4.468   5.478   5.424 -0.1077  0.4254  1.2716
  741MOL0     C 2131   4.601   5.404   5.402 -0.2094  0.3091  0.6240
  741MOL0     C 2132   4.578   5.258   5.369 -1.1414  0.9145  1.0242
  741MOL0     C 2133   4.706   5.164   5.381  0.0591 -0.4094 -0.0797
  741MOL0     C 2134   4.660   5.024   5.414 -0.5167 -0.4728  0.4198
  741MOL0     C 2135   4.585   4.938   5.305  0.5709 -0.5236 -0.6761
  741MOL0     C 2136   4.654   4.948   5.164 -0.9575  0.7712  0.4459
  741MOL0     N 2137   4.792   4.879   5.131  0.2364 -0.1621 -0.4356
  741MOL0     C 2138   4.831   4.759   5.162 -1.1608  0.4144  0.2142
  741MOL0     C 2139   4.960   4.739   5.111  0.2439 -0.6547 -0.5119
  741MOL0     C 2140   5.044   4.615   5.102 -0.0776  0.1943  0.4398
  741MOL0     C 2141   5.010   4.526   4.981  0.6747 -0.2066  0.5785
  741MOL0     C 2142   4.886   4.439   4.993  1.1560  0.4928 -0.2283
  741MOL0     C 2143   4.907   4.321   5.096  1.0173 -0.3926  0.1043
  741MOL0     O 2144   4.794   4.227   5.095  0.6976  0.5013 -0.6435
  741MOL0     C 2145   4.838   4.099   5.131 -0.3588  0.2048 -0.0549
  741MOL0     C 2146   4.886   4.076   5.261 -0.1433 -0.0731 -0.4026
  741MOL0     C 2147   4.930   3.953   5.298  0.3620 -0.1496  0.6388
  741MOL0     C 2148   4.964   3.926   5.447  0.4810  0.2698  0.1376
  741MOL0     C 2149   4.930   3.849   5.202  0.7788  0.3493  0.1377
  741MOL0     C 2150   5.000   3.723   5.210  0.5494 -0.6389 -0.0314
  741MOL0     O 2151   4.966   3.627   5.116 -0.1883 -0.0600  0.0582
  741MOL0     C 2152   4.994   3.497   5.140 -0.3317  0.6265 -0.4371
  741MOL0     C 2153   4.989   3.442   5.274  1.0426  1.4568 -0.1096
  741MOL0     C 2154   5.010   3.304   5.288 -0.1561  0.1984  0.5076
  741MOL0     C 2155   5.037   3.225   5.172 -0.1584  0.1136 -0.3981
  741MOL0     O 2156   5.078   3.092   5.173  0.7764 -0.4574 -0.6492
  741MOL0     C 2157   4.970   3.001   5.149  0.3865 -0.2788 -0.2549
  741MOL0     C 2158   4.927   2.917   5.272 -0.2905  0.6933  0.0678
  741MOL0     C 2159   4.811   2.820   5.248  0.1298  0.1914 -0.5058
  741MOL0     C 2160   4.841   2.692   5.165 -0.2292  0.2262 -0.0981
  741MOL0     C 2161   4.902   2.580   5.254  0.4465  0.1852 -0.2346
  741MOL0     C 2162   4.935   2.442   5.193 -0.7203  0.6869 -0.1541
  741MOL0     C 2163   4.806   2.389   5.121 -0.1381 -0.2557  0.8846
  741MOL0     C 2164   4.828   2.250   5.069  0.0492 -0.1742  0.4887
  741MOL0    Cl 2165   4.851   2.118   5.194  0.5743  0.2402  0.1889
  741MOL0     C 2166   5.044   3.282   5.054  0.3399 -0.7186 -0.1952
  741MOL0     C 2167   5.018   3.414   5.032  0.2817 -0.0397 -0.1558
  741MOL0     O 2168   5.105   3.722   5.271  0.3481 -0.8478  0.8416
  741MOL0     C 2169   4.847   3.860   5.084 -0.2058  0.2278  0.4741
  741MOL0     C 2170   4.802   3.986   5.055 -0.2971 -0.8724  0.7080
  741MOL0     N 2171   4.993   4.861   5.061 -0.9239 -0.3382  0.3148
  741MOL0     N 2172   4.901   4.945   5.091  0.0401  0.0826 -0.6811
  741MOL0     C 2173   4.663   5.890   5.321 -0.2756 -0.4262 -0.1650
  741MOL0     C 2174   4.696   6.025   5.340 -0.0181 -0.0358  0.5921
  741MOL0     C 2175   4.901   6.360   5.532 -0.8836 -0.2466  0.0668
  741MOL0     C 2176   4.981   6.375   5.647 -0.3010  0.7337  0.1860
  741MOL0     C 2177   5.069   6.484   5.670  0.2162 -0.3461  0.4923
  741MOL0     C 2178   5.074   6.590   5.578 -0.7959  0.1370 -0.4036
  741MOL0     O 2179   5.165   6.692   5.609  0.4566 -1.3444  0.4047
  741MOL0     C 2180   5.108   6.823   5.628 -0.6288 -0.2814 -0.8631
  741MOL0     C 2181   5.144   6.875   5.767 -0.4684 -0.1204 -0.9879
  741MOL0     C 2182   5.081   7.007   5.813 -0.2512 -0.3451  0.4536
  741MOL0     C 2183   5.157   7.057   5.947 -0.1977 -0.6363  0.3619
  741MOL0     C 2184   5.092   7.184   5.982 -0.1437 -0.6464 -0.2406
  741MOL0     C 2185   5.040   7.292   6.018  0.1088  0.0270 -0.2697
  741MOL0     C 2186   4.994   6.578   5.464  0.5731  0.4974 -0.3976
  741MOL0     C 2187   4.913   6.468   5.437 -0.4031 -0.5984  0.4637
  741MOL0     C 2188   4.824   6.465   5.319 -0.5644 -0.1164 -0.1318
  741MOL0     H 2189   4.525   6.091   5.626  1.3161 -0.8783  0.8294
  741MOL0     H 2190   4.476   5.848   5.595  3.2059 -1.6004  1.1015
  741MOL0     H 2191   4.400   5.661   5.495  0.9871  1.5631  1.9195
  741MOL0     H 2192   4.551   5.606   5.562  1.8606 -1.9308 -1.6825
  741MOL0     H 2193   4.410   5.425   5.501 -0.1262  0.7413  1.4779
  741MOL0     H 2194   4.406   5.475   5.334  1.9184  0.8321 -0.2012
  741MOL0     H 2195   4.660   5.445   5.320 -0.6378 -0.8995 -0.3238
  741MOL0     H 2196   4.662   5.409   5.493  1.3573 -0.0681 -0.3712
  741MOL0     H 2197   4.502   5.216   5.435 -0.4032 -1.4251  0.4716
  741MOL0     H 2198   4.537   5.232   5.271 -2.5132 -2.4484  2.3377
  741MOL0     H 2199   4.770   5.197   5.463 -1.2509  0.6251  0.5700
  741MOL0     H 2200   4.758   5.161   5.285 -0.5901 -1.0332 -0.4168
  741MOL0     H 2201   4.746   4.959   5.435 -1.1790 -1.1996  0.9647
  741MOL0     H 2202   4.592   5.035   5.499 -1.2496  5.5305 -0.5230
  741MOL0     H 2203   4.483   4.975   5.298  0.1540 -0.7627  2.5135
  741MOL0     H 2204   4.572   4.839   5.349 -0.4648 -0.1675 -0.1407
  741MOL0     H 2205   4.588   4.894   5.095  3.5227 -3.1686 -1.3501
  741MOL0     H 2206   4.667   5.053   5.136  2.7685  0.6942  1.3722
  741MOL0     H 2207   4.779   4.678   5.212  1.5460 -2.0893 -0.7125
  741MOL0     H 2208   5.024   4.562   5.196  2.6573  2.2401  2.3527
  741MOL0     H 2209   5.151   4.636   5.100 -0.1941  1.1812  2.0758
  741MOL0     H 2210   5.007   4.591   4.894 -2.1790 -0.1635  0.6317
  741MOL0     H 2211   5.095   4.459   4.966  0.3544 -0.6636  0.7913
  741MOL0     H 2212   4.795   4.486   5.033  0.5469  1.9345 -3.0648
  741MOL0     H 2213   4.873   4.398   4.892  0.5467  0.7357 -0.2549
  741MOL0     H 2214   5.005   4.275   5.079  1.5788  1.7889 -3.9401
  741MOL0     H 2215   4.902   4.357   5.199 -0.6644  0.3118 -0.1911
  741MOL0     H 2216   4.886   4.163   5.326  0.8224 -0.4440  0.1177
  741MOL0     H 2217   4.964   3.824   5.487 -3.6814  0.7159  1.7847
  741MOL0     H 2218   4.884   3.966   5.511  1.0994  1.3932  0.2396
  741MOL0     H 2219   5.053   3.978   5.484  1.3611 -1.2067  0.1717
  741MOL0     H 2220   4.979   3.482   5.374  1.5756 -2.5064  1.7228
  741MOL0     H 2221   5.049   3.256   5.377  2.1094 -0.3179 -0.6876
  741MOL0     H 2222   4.879   3.051   5.116  0.3862 -1.7221 -2.6891
  741MOL0     H 2223   4.990   2.941   5.060 -1.5270 -0.0127 -0.9101
  741MOL0     H 2224   5.016   2.859   5.297  0.3800  1.8985  0.5538
  741MOL0     H 2225   4.902   2.977   5.361  0.1180 -0.2525  0.8349
  741MOL0     H 2226   4.738   2.885   5.198  1.0644  0.2966 -1.7917
  741MOL0     H 2227   4.778   2.794   5.349  0.5638  1.7700  0.0813
  741MOL0     H 2228   4.920   2.720   5.094  0.5185  1.1695  1.0450
  741MOL0     H 2229   4.752   2.653   5.116 -1.0355 -0.7408  2.0501
  741MOL0     H 2230   4.991   2.615   5.308 -1.0904 -1.5526  3.8221
  741MOL0     H 2231   4.828   2.563   5.333  3.2712 -1.5077  2.2614
  741MOL0     H 2232   4.946   2.379   5.282 -2.0411  2.5401  1.4059
  741MOL0     H 2233   5.025   2.443   5.132 -0.7623  0.7427 -0.2148
  741MOL0     H 2234   4.783   2.454   5.036 -0.3881 -1.3371  0.1132
  741MOL0     H 2235   4.722   2.390   5.191 -0.2849  4.2935  0.9573
  741MOL0     H 2236   4.911   2.268   5.001  1.2414  4.3356  2.8204
  741MOL0     H 2237   4.745   2.221   5.002  0.2647 -1.4216  0.7289
  741MOL0     H 2238   5.058   3.222   4.964  0.3894 -0.2549 -0.5036
  741MOL0     H 2239   5.024   3.440   4.927 -0.1372 -1.9695 -0.6947
  741MOL0     H 2240   4.834   3.775   5.017  4.2029 -0.7386  0.5229
  741MOL0     H 2241   4.751   3.994   4.960  1.0275  3.5479  0.1226
  741MOL0     H 2242   4.705   5.830   5.241 -2.9577 -2.8755  0.1125
  741MOL0     H 2243   4.758   6.069   5.263 -3.5889  0.8588 -2.0238
  741MOL0     H 2244   4.977   6.290   5.714  0.2570  0.9048  0.4390
  741MOL0     H 2245   5.133   6.489   5.757  1.9211 -0.4261 -0.6847
  741MOL0     H 2246   5.150   6.895   5.557 -0.3795 -0.5241 -0.9648
  741MOL0     H 2247   4.999   6.834   5.622 -0.5794 -0.4951 -2.7477
  741MOL0     H 2248   5.252   6.892   5.766 -0.6569  1.2507 -0.8599
  741MOL0     H 2249   5.119   6.801   5.843 -3.2034  0.9812 -0.6971
  741MOL0     H 2250   5.099   7.092   5.746  1.0616 -0.8739  0.1047
  741MOL0     H 2251   4.973   6.991   5.815  0.0058 -2.4311 -0.4036
  741MOL0     H 2252   5.265   7.059   5.935 -0.1176 -2.6092  0.3488
  741MOL0     H 2253   5.141   6.986   6.029 -2.6041 -0.7666 -0.1311
  741MOL0     H 2254   5.006   7.388   6.052 -1.5718 -0.4287 -0.5797
  741MOL0     H 2255   5.011   6.660   5.394  4.3791  2.2190  2.1823
  741MOL0     H 2256   4.826   6.561   5.267  2.3881 -0.0150  0.0051
  741MOL0     H 2257   4.859   6.389   5.248 -3.8051 -0.6995 -1.2783
  741MOL0     H 2258   4.721   6.447   5.352 -0.7628 -0.2370 -0.8049
  742MOL0     O 2259   1.488  10.429   0.018  0.1771 -0.5032 -0.5634
  742MOL0     C 2260   1.572  10.515   0.031  0.4999  0.1606 -0.3359
  742MOL0     O 2261   1.574  10.630  -0.034 -0.6393 -0.0373  0.8933
  742MOL0     C 2262   1.469  10.676  -0.102  0.2088  0.9369  0.3685
  742MOL0     C 2263   1.484  10.747  -0.224  0.4607 -0.4043  0.3965
  742MOL0     C 2264   1.375  10.804  -0.282 -0.3932 -0.5824  0.7814
  742MOL0     C 2265   1.244  10.802  -0.232 -1.2878 -0.2917  0.8359
  742MOL0     O 2266   1.146  10.872  -0.290 -0.1180  0.0569  0.3266
  742MOL0     C 2267   1.117  10.854  -0.434  0.3419 -0.4815 -0.1586
  742MOL0     C 2268   1.067  10.980  -0.506 -0.3888  0.5323  0.3128
  742MOL0     C 2269   1.175  11.055  -0.598  1.1209 -0.0071 -0.4022
  742MOL0     C 2270   1.135  11.204  -0.594  0.5019 -0.8560  0.3085
  742MOL0     C 2271   1.204  11.283  -0.708  0.2496  0.1372  0.7021
  742MOL0     C 2272   1.144  11.421  -0.734 -0.6364  0.2563  0.4230
  742MOL0     C 2273   1.238  11.506  -0.802 -0.3046 -0.3631  0.3240
  742MOL0     C 2274   1.196  11.652  -0.791 -0.1604  0.5613  0.2509
  742MOL0     N 2275   1.301  11.726  -0.858 -0.0251  0.0851 -0.1485
  742MOL0     C 2276   1.292  11.796  -0.975 -0.0599 -0.1982  0.5348
  742MOL0     C 2277   1.394  11.887  -0.971  0.2051  1.1043 -0.0178
  742MOL0     C 2278   1.433  11.988  -1.080 -1.1231  0.2766 -0.3661
  742MOL0     C 2279   1.317  12.026  -1.176 -1.1105  0.2283  0.1504
  742MOL0     C 2280   1.206  12.091  -1.097  0.2065 -0.1993 -1.0828
  742MOL0     C 2281   1.086  12.124  -1.173  0.3766  0.0472  0.2079
  742MOL0     O 2282   1.000  12.014  -1.197 -0.0673  0.3079  0.5421
  742MOL0     C 2283   0.869  12.036  -1.238 -0.8781 -0.7063 -0.8035
  742MOL0     C 2284   0.786  11.938  -1.218 -0.8351  0.5330  0.1628
  742MOL0     C 2285   0.652  11.957  -1.257  0.1193  0.8374  0.6299
  742MOL0     C 2286   0.576  11.821  -1.235 -0.5784 -0.1374 -0.0772
  742MOL0     C 2287   0.607  12.083  -1.304  1.5319  0.2114  0.9944
  742MOL0     C 2288   0.464  12.092  -1.338 -0.4878 -0.0864  0.2009
  742MOL0     O 2289   0.427  12.155  -1.452  1.1918 -0.1271 -0.1079
  742MOL0     C 2290   0.293  12.169  -1.486  0.2021 -0.2792 -0.6145
  742MOL0     C 2291   0.251  12.132  -1.612 -0.2130 -0.0273 -1.6483
  742MOL0     C 2292   0.121  12.124  -1.642  0.5431 -0.6621 -0.0395
  742MOL0     C 2293   0.027  12.183  -1.551 -0.6807 -0.1252  0.8897
  742MOL0     O 2294  -0.106  12.205  -1.568  0.4098  0.3678 -0.0313
  742MOL0     C 2295  -0.190  12.138  -1.658 -0.2783  0.3848 -0.3048
  742MOL0     C 2296  -0.284  12.036  -1.589 -0.2046 -0.6258  0.2888
  742MOL0     C 2297  -0.210  11.906  -1.562 -0.0791 -0.3535 -0.2146
  742MOL0     C 2298  -0.321  11.809  -1.504  0.2428 -0.9929  0.4248
  742MOL0     C 2299  -0.268  11.683  -1.447  0.1146  0.7671  0.8316
  742MOL0     C 2300  -0.180  11.611  -1.550  1.1367  0.7755  0.5012
  742MOL0     C 2301  -0.106  11.485  -1.491  0.5617 -0.4877  1.1038
  742MOL0     C 2302  -0.069  11.375  -1.592 -0.7602  0.0700 -0.9405
  742MOL0    Cl 2303  -0.211  11.278  -1.631  0.0610  0.2567  0.3202
  742MOL0     C 2304   0.077  12.231  -1.425  0.2377  0.2324  0.1295
  742MOL0     C 2305   0.208  12.226  -1.391 -0.1206  0.2493 -0.1322
  742MOL0     O 2306   0.392  12.060  -1.251 -0.7163 -0.4413 -0.4407
  742MOL0     C 2307   0.700  12.184  -1.324  0.0450  0.2177  0.3268
  742MOL0     C 2308   0.829  12.157  -1.287  0.7839  0.5510  0.5895
  742MOL0     N 2309   1.457  11.880  -0.848 -0.3637  0.3355  0.0118
  742MOL0     N 2310   1.391  11.786  -0.776 -0.3053 -0.3058 -0.6720
  742MOL0     C 2311   1.236  10.745  -0.112 -0.0276  0.4521 -1.3137
  742MOL0     C 2312   1.345  10.687  -0.040  0.0780 -0.9434 -0.6744
  742MOL0     C 2313   1.675  10.500   0.143 -0.5508  0.3073  0.3180
  742MOL0     C 2314   1.768  10.607   0.166  0.0312  0.4782 -0.3967
  742MOL0     C 2315   1.872  10.597   0.261  0.7097  0.1692  0.5249
  742MOL0     C 2316   1.871  10.501   0.353 -0.4688 -0.3489 -0.0945
  742MOL0     O 2317   1.967  10.483   0.454  0.0985  0.4776 -0.6792
  742MOL0     C 2318   2.048  10.588   0.494 -0.1932 -0.5144 -0.2893
  742MOL0     C 2319   2.116  10.541   0.639  0.0996 -0.1009  0.1688
  742MOL0     C 2320   2.222  10.634   0.700 -0.4960  0.6226  0.3528
  742MOL0     C 2321   2.367  10.585   0.692 -0.1140 -0.5979  0.5659
  742MOL0     C 2322   2.462  10.688   0.738 -0.1919  0.1261  0.5942
  742MOL0     C 2323   2.543  10.766   0.789  0.2894 -0.2177  0.5173
  742MOL0     C 2324   1.788  10.397   0.331 -0.7387  0.5230  0.6737
  742MOL0     C 2325   1.693  10.387   0.227  0.9986 -0.2226 -0.5134
  742MOL0     C 2326   1.611  10.261   0.216  0.0208 -0.1534  0.3897
  742MOL0     H 2327   1.584  10.750  -0.267  0.4598  1.3233  0.4402
  742MOL0     H 2328   1.392  10.857  -0.375 -2.3276  4.1212  2.7908
  742MOL0     H 2329   1.028  10.790  -0.445 -0.8503  1.3863 -2.1344
  742MOL0     H 2330   1.194  10.799  -0.488 -1.1450 -3.3417  0.4281
  742MOL0     H 2331   0.971  10.972  -0.557 -2.9605  6.6290  3.0588
  742MOL0     H 2332   1.053  11.050  -0.422  1.7812  0.4720  0.8015
  742MOL0     H 2333   1.274  11.028  -0.561  0.9768  3.1979  2.9014
  742MOL0     H 2334   1.158  11.018  -0.700 -1.4793  1.9111 -0.7731
  742MOL0     H 2335   1.029  11.208  -0.619 -0.0731 -2.9726  2.1149
  742MOL0     H 2336   1.153  11.248  -0.496  3.8460  1.2018 -1.0528
  742MOL0     H 2337   1.189  11.220  -0.796 -2.6314 -0.2840  1.3877
  742MOL0     H 2338   1.311  11.269  -0.691  0.8778 -2.5204 -3.7537
  742MOL0     H 2339   1.051  11.407  -0.789 -0.1452  0.1154 -0.3873
  742MOL0     H 2340   1.112  11.469  -0.641 -0.3254  2.9231 -0.7423
  742MOL0     H 2341   1.261  11.479  -0.905 -0.7681 -1.0768  0.4058
  742MOL0     H 2342   1.330  11.496  -0.744 -0.6894 -1.9590  0.7010
  742MOL0     H 2343   1.101  11.662  -0.845 -1.2136 -0.1655  1.8944
  742MOL0     H 2344   1.186  11.677  -0.685 -0.1836  2.3071 -0.1327
  742MOL0     H 2345   1.234  11.775  -1.065  1.9630 -1.5949 -0.5097
  742MOL0     H 2346   1.516  11.944  -1.136 -1.0651  0.0048 -0.0658
  742MOL0     H 2347   1.475  12.081  -1.041  3.5964 -0.1074 -3.5677
  742MOL0     H 2348   1.354  12.110  -1.235 -0.2444 -0.4468 -0.2813
  742MOL0     H 2349   1.276  11.945  -1.237  0.5699  0.7991 -1.8270
  742MOL0     H 2350   1.174  12.019  -1.022 -0.2793 -0.2026 -1.2846
  742MOL0     H 2351   1.233  12.186  -1.050  2.5137 -0.0446 -2.5846
  742MOL0     H 2352   1.027  12.201  -1.123  3.6954  2.0125  1.3927
  742MOL0     H 2353   1.111  12.167  -1.271  3.5342  0.3875  1.0492
  742MOL0     H 2354   0.835  11.853  -1.171 -0.4486  0.8961  0.4307
  742MOL0     H 2355   0.534  11.784  -1.329  4.5624 -1.0402 -2.3308
  742MOL0     H 2356   0.494  11.840  -1.165 -0.2873 -1.7557  0.7360
  742MOL0     H 2357   0.634  11.743  -1.187  1.9328  1.1950 -0.7606
  742MOL0     H 2358   0.321  12.087  -1.681  0.6587  1.1248 -1.5463
  742MOL0     H 2359   0.080  12.082  -1.734 -0.6366  0.1137  0.1063
  742MOL0     H 2360  -0.241  12.223  -1.705 -0.0263  1.6316  1.5664
  742MOL0     H 2361  -0.139  12.085  -1.740 -1.5982 -0.6595 -0.4835
  742MOL0     H 2362  -0.325  12.071  -1.494  1.4169 -0.8304  1.0879
  742MOL0     H 2363  -0.360  12.022  -1.667 -0.2612 -0.6302  0.3441
  742MOL0     H 2364  -0.127  11.906  -1.491  0.2325 -3.4527 -0.4437
  742MOL0     H 2365  -0.154  11.871  -1.649 -0.3451 -1.7820  0.1480
  742MOL0     H 2366  -0.396  11.774  -1.576 -0.4952 -1.3408  1.3562
  742MOL0     H 2367  -0.359  11.870  -1.422  1.0831  0.7205 -0.4091
  742MOL0     H 2368  -0.216  11.708  -1.354 -2.6878  1.9818  2.1960
  742MOL0     H 2369  -0.353  11.616  -1.435 -0.7188  0.7552 -3.5487
  742MOL0     H 2370  -0.101  11.679  -1.584  0.1025  0.8777 -1.8895
  742MOL0     H 2371  -0.236  11.577  -1.638 -2.1864  0.2141  2.6364
  742MOL0     H 2372  -0.166  11.442  -1.410  3.4260 -0.8330  3.2132
  742MOL0     H 2373  -0.020  11.514  -1.430  0.6717  0.3662  0.5602
  742MOL0     H 2374   0.003  11.308  -1.545 -1.4154  2.4933  4.2217
  742MOL0     H 2375  -0.019  11.406  -1.684 -0.3130  0.2252 -0.6430
  742MOL0     H 2376   0.014  12.285  -1.356 -0.4367  2.2269 -1.9573
  742MOL0     H 2377   0.255  12.279  -1.308  0.6002 -0.5577 -0.0144
  742MOL0     H 2378   0.660  12.273  -1.373 -0.4575 -1.6490 -2.9427
  742MOL0     H 2379   0.901  12.238  -1.293  1.3319  0.0968  0.9768
  742MOL0     H 2380   1.139  10.751  -0.064  0.5453  2.1159 -0.2794
  742MOL0     H 2381   1.322  10.636   0.053  0.3962 -0.6175 -0.4173
  742MOL0     H 2382   1.761  10.687   0.093 -0.1163 -0.4319 -1.4202
  742MOL0     H 2383   1.947  10.675   0.264  1.0139 -0.1346  0.8390
  742MOL0     H 2384   2.121  10.611   0.416 -0.6649  1.2824 -0.2417
  742MOL0     H 2385   1.986  10.676   0.514 -0.5192 -1.0339  1.1081
  742MOL0     H 2386   2.179  10.452   0.628  0.5336  0.1782  0.3758
  742MOL0     H 2387   2.040  10.511   0.711  1.1870  2.1049  2.3932
  742MOL0     H 2388   2.225  10.728   0.645 -0.0784  1.0547  1.1047
  742MOL0     H 2389   2.209  10.657   0.806 -0.4168  0.0110  0.4983
  742MOL0     H 2390   2.393  10.546   0.594  0.7004 -5.0297  2.3157
  742MOL0     H 2391   2.374  10.509   0.770  2.6841  1.3207  2.4065
  742MOL0     H 2392   2.621  10.824   0.835  1.5233 -0.0790 -1.6015
  742MOL0     H 2393   1.805  10.309   0.392  0.6288  0.9703  0.9615
  742MOL0     H 2394   1.657  10.177   0.269  0.2295 -2.1149 -2.6728
  742MOL0     H 2395   1.513  10.287   0.257 -0.0539  0.9396 -0.4306
  742MOL0     H 2396   1.601  10.237   0.110 -2.3248  2.8494 -0.2160
  743MOL0     O 2397   7.472   4.420   3.764 -0.2559 -0.1645  0.2145
  743MOL0     C 2398   7.526   4.525   3.810  0.1574  0.5174 -0.3611
  743MOL0     O 2399   7.465   4.649   3.816 -0.7793 -0.8058  0.6291
  743MOL0     C 2400   7.327   4.653   3.814 -0.0995 -0.4984  0.0970
  743MOL0     C 2401   7.266   4.689   3.691 -0.3901 -1.7987  0.3036
  743MOL0     C 2402   7.131   4.710   3.699  0.9465 -0.2076  0.1187
  743MOL0     C 2403   7.049   4.699   3.812 -0.2668 -0.3596 -1.1451
  743MOL0     O 2404   6.916   4.742   3.813  0.0638  0.3219  0.1953
  743MOL0     C 2405   6.896   4.869   3.743  0.6034 -0.1725 -0.3858
  743MOL0     C 2406   6.778   4.948   3.820  0.5423  0.9122  0.6651
  743MOL0     C 2407   6.687   5.036   3.721  0.0154  0.2793 -0.3816
  743MOL0     C 2408   6.635   5.160   3.793 -1.6700  0.1987  0.4913
  743MOL0     C 2409   6.752   5.253   3.842 -0.3535  0.3163 -0.7373
  743MOL0     C 2410   6.725   5.405   3.831 -0.6324  0.2072  0.7701
  743MOL0     C 2411   6.594   5.464   3.880  0.7757  0.4376 -0.6760
  743MOL0     C 2412   6.561   5.605   3.827  0.6727  0.0583  0.4589
  743MOL0     N 2413   6.504   5.635   3.698 -0.3667  0.1549 -0.1306
  743MOL0     C 2414   6.451   5.539   3.615 -0.5906 -0.3352 -0.4920
  743MOL0     C 2415   6.380   5.612   3.532  1.0268  0.8974  0.1097
  743MOL0     C 2416   6.278   5.560   3.443 -0.8326 -0.0502  1.2616
  743MOL0     C 2417   6.145   5.610   3.494 -0.0022 -0.6716  0.3405
  743MOL0     C 2418   6.022   5.536   3.444 -0.1009  0.3017  0.3890
  743MOL0     C 2419   6.005   5.391   3.494 -0.5126 -1.2773  0.4776
  743MOL0     O 2420   5.921   5.327   3.398  0.7407 -0.7496  0.1010
  743MOL0     C 2421   5.800   5.272   3.438  0.0139  0.7586  0.0438
  743MOL0     C 2422   5.725   5.297   3.553 -0.5535  0.4486  0.2024
  743MOL0     C 2423   5.603   5.222   3.580 -0.2642  0.3683 -0.5789
  743MOL0     C 2424   5.556   5.239   3.727 -0.1367 -0.5660  0.3248
  743MOL0     C 2425   5.555   5.137   3.487  0.1742  0.0686 -0.6719
  743MOL0     C 2426   5.429   5.064   3.515  0.7150 -0.3649 -0.6292
  743MOL0     O 2427   5.369   5.014   3.400  0.2082 -0.3095 -0.7783
  743MOL0     C 2428   5.269   4.918   3.426 -0.1194 -0.1283  0.6319
  743MOL0     C 2429   5.299   4.778   3.434 -0.1876 -0.0621 -0.4303
  743MOL0     C 2430   5.199   4.692   3.474  0.1823 -0.3747  0.3145
  743MOL0     C 2431   5.063   4.732   3.503  0.0559  0.6321  0.7071
  743MOL0     O 2432   4.963   4.650   3.544 -0.2068 -0.1877 -0.5402
  743MOL0     C 2433   4.916   4.562   3.440 -0.2180 -1.3269  0.4530
  743MOL0     C 2434   4.768   4.522   3.450 -1.6146 -0.1982 -0.3632
  743MOL0     C 2435   4.690   4.600   3.350  0.3937 -0.3384  0.1695
  743MOL0     C 2436   4.556   4.526   3.324  0.2715  0.5419 -0.7093
  743MOL0     C 2437   4.458   4.617   3.236  0.0536  0.2490  0.5398
  743MOL0     C 2438   4.322   4.532   3.213 -0.5826 -0.1502  0.6591
  743MOL0     C 2439   4.238   4.624   3.116 -0.1160  0.4763 -0.4112
  743MOL0     C 2440   4.116   4.566   3.052  0.3714  0.3376  0.1879
  743MOL0    Cl 2441   4.009   4.496   3.185  0.1434 -0.2559 -0.4945
  743MOL0     C 2442   5.036   4.868   3.481 -0.2727 -0.0854  0.1574
  743MOL0     C 2443   5.140   4.953   3.455 -0.0432 -0.9256  0.7064
  743MOL0     O 2444   5.423   5.010   3.632  0.6660  0.5127  1.4056
  743MOL0     C 2445   5.632   5.118   3.376 -0.0655  0.1326  0.8150
  743MOL0     C 2446   5.757   5.175   3.348  0.2243 -1.1864 -0.4171
  743MOL0     N 2447   6.397   5.749   3.551  0.0662  0.0506  0.2222
  743MOL0     N 2448   6.460   5.758   3.663 -0.5800 -0.5541 -0.7783
  743MOL0     C 2449   7.121   4.657   3.927 -0.8350  0.4174  0.4229
  743MOL0     C 2450   7.257   4.639   3.930 -0.0840  0.2013 -0.0858
  743MOL0     C 2451   7.649   4.506   3.878 -0.5769  0.1607  0.4065
  743MOL0     C 2452   7.666   4.553   4.006 -0.8841 -0.0400 -0.5342
  743MOL0     C 2453   7.786   4.539   4.072 -0.0990  0.5560 -0.3054
  743MOL0     C 2454   7.898   4.470   4.016  0.4598  1.3277  0.0877
  743MOL0     O 2455   8.018   4.421   4.075 -0.4464  0.0059  0.2289
  743MOL0     C 2456   8.025   4.421   4.219  0.4145 -0.5530  0.9745
  743MOL0     C 2457   8.148   4.346   4.276 -0.4755  0.3211  0.2116
  743MOL0     C 2458   8.281   4.336   4.191 -0.1222  0.1428  0.3196
  743MOL0     C 2459   8.383   4.430   4.239  0.7915  0.3934 -0.4925
  743MOL0     C 2460   8.509   4.409   4.170 -0.6394  0.5382 -0.1281
  743MOL0     C 2461   8.619   4.385   4.127 -0.5879 -0.5975 -0.4123
  743MOL0     C 2462   7.877   4.421   3.882 -0.2850  0.2322  0.6489
  743MOL0     C 2463   7.758   4.447   3.807  0.1508  0.6806  0.3195
  743MOL0     C 2464   7.765   4.408   3.661 -0.0282  0.3196 -0.6823
  743MOL0     H 2465   7.322   4.691   3.598  0.1233 -2.9335  0.5704
  743MOL0     H 2466   7.082   4.750   3.610  3.5454  0.5008 -1.1026
  743MOL0     H 2467   6.874   4.847   3.638  0.1572 -1.3931 -0.0591
  743MOL0     H 2468   6.985   4.932   3.736  1.6988 -1.0131  3.6982
  743MOL0     H 2469   6.708   4.875   3.862  1.2077  1.4445  2.8538
  743MOL0     H 2470   6.822   5.008   3.900  2.1783  3.6032 -2.0512
  743MOL0     H 2471   6.741   5.062   3.630  1.2781 -0.1271  0.2235
  743MOL0     H 2472   6.605   4.966   3.705  1.2922 -3.5747  6.0930
  743MOL0     H 2473   6.566   5.215   3.728 -1.1643 -0.0330 -0.2556
  743MOL0     H 2474   6.571   5.129   3.876 -0.5879 -0.4903  1.0798
  743MOL0     H 2475   6.833   5.229   3.772 -2.5315 -4.3894 -2.0265
  743MOL0     H 2476   6.782   5.224   3.943 -3.0177  2.0084  0.6588
  743MOL0     H 2477   6.800   5.466   3.883 -0.2406  0.3230  0.0747
  743MOL0     H 2478   6.732   5.434   3.726  0.5263  1.4073  1.1498
  743MOL0     H 2479   6.579   5.464   3.989 -0.4503 -2.7136 -0.7305
  743MOL0     H 2480   6.512   5.401   3.843  0.6486 -0.7355  1.4091
  743MOL0     H 2481   6.477   5.637   3.890  1.3084 -1.5153  2.2064
  743MOL0     H 2482   6.647   5.673   3.833  0.6606  0.4966 -2.7662
  743MOL0     H 2483   6.458   5.432   3.634  0.0347 -0.3588 -0.8507
  743MOL0     H 2484   6.288   5.451   3.433  1.9920  0.0832  1.6029
  743MOL0     H 2485   6.281   5.602   3.342 -0.8338 -1.7148  0.5327
  743MOL0     H 2486   6.151   5.608   3.603 -2.8501  1.7862  0.6495
  743MOL0     H 2487   6.144   5.715   3.462  1.0500 -0.1566  1.8770
  743MOL0     H 2488   5.929   5.588   3.466 -0.2854 -0.4000  1.3340
  743MOL0     H 2489   6.032   5.540   3.335  0.6980 -0.1393  0.4290
  743MOL0     H 2490   6.106   5.347   3.494 -0.4965 -1.2393  0.4133
  743MOL0     H 2491   5.975   5.384   3.599 -2.3955  2.2699  0.3028
  743MOL0     H 2492   5.756   5.366   3.631  3.4568  1.0549 -1.6832
  743MOL0     H 2493   5.630   5.303   3.778  0.6520 -0.7643 -0.5462
  743MOL0     H 2494   5.552   5.145   3.782  1.1329  0.0265  1.5125
  743MOL0     H 2495   5.456   5.279   3.748 -0.2714 -0.6139 -0.2294
  743MOL0     H 2496   5.388   4.736   3.390 -1.7263 -4.1780 -0.0838
  743MOL0     H 2497   5.236   4.590   3.486 -0.2725 -0.4961  0.7216
  743MOL0     H 2498   4.950   4.601   3.343 -2.6516 -2.4348 -0.9330
  743MOL0     H 2499   4.975   4.470   3.452 -0.8107 -1.7992 -0.1554
  743MOL0     H 2500   4.755   4.415   3.432 -0.5236 -0.1324 -1.7006
  743MOL0     H 2501   4.736   4.550   3.551 -1.3139  3.6935 -1.1801
  743MOL0     H 2502   4.743   4.623   3.256  0.2435 -0.0269  0.1599
  743MOL0     H 2503   4.678   4.700   3.393 -2.9399  0.2137 -1.6909
  743MOL0     H 2504   4.497   4.504   3.414 -4.3278  2.0613 -3.0294
  743MOL0     H 2505   4.579   4.430   3.275  0.6620 -0.0745  0.6291
  743MOL0     H 2506   4.441   4.707   3.295  0.1997 -1.3725  3.2552
  743MOL0     H 2507   4.498   4.636   3.136 -0.7645  1.6426  0.4571
  743MOL0     H 2508   4.273   4.513   3.309  2.9449 -1.9176  2.3084
  743MOL0     H 2509   4.355   4.438   3.167  1.9806  1.8013 -1.8642
  743MOL0     H 2510   4.306   4.668   3.043 -0.2903  2.8107  0.7561
  743MOL0     H 2511   4.215   4.720   3.162 -0.4548  0.8534 -1.3454
  743MOL0     H 2512   4.138   4.494   2.972  0.7672  1.5598 -0.8271
  743MOL0     H 2513   4.057   4.645   3.004 -0.2451 -1.0437 -1.4382
  743MOL0     H 2514   4.932   4.898   3.488  0.3323  1.8243  1.8344
  743MOL0     H 2515   5.132   5.060   3.445  2.1922 -0.8760 -1.4613
  743MOL0     H 2516   5.600   5.044   3.304  1.3095  0.6810 -0.4152
  743MOL0     H 2517   5.826   5.153   3.268  1.7278 -2.4454  1.1615
  743MOL0     H 2518   7.076   4.661   4.025  1.0903  0.5720  1.3599
  743MOL0     H 2519   7.316   4.628   4.021 -0.9618 -1.6299  0.3082
  743MOL0     H 2520   7.586   4.605   4.058 -0.1801 -0.0085  0.5512
  743MOL0     H 2521   7.796   4.560   4.178 -2.2244  1.3052 -0.2083
  743MOL0     H 2522   8.026   4.524   4.256  0.7620 -0.1791 -0.0480
  743MOL0     H 2523   7.937   4.371   4.261 -0.7715  2.5271  2.5467
  743MOL0     H 2524   8.108   4.244   4.283  1.1540 -0.6707 -3.0456
  743MOL0     H 2525   8.171   4.389   4.374  3.5178  2.5477 -1.4463
  743MOL0     H 2526   8.310   4.233   4.212 -2.3998 -1.5619 -3.7179
  743MOL0     H 2527   8.255   4.357   4.087 -1.2395  0.4349  0.6432
  743MOL0     H 2528   8.404   4.425   4.346 -4.4504  2.8672  0.9675
  743MOL0     H 2529   8.356   4.533   4.217  2.0430  0.8544  0.0413
  743MOL0     H 2530   8.711   4.365   4.075  0.1195  2.8548 -0.7486
  743MOL0     H 2531   7.947   4.349   3.841 -1.0946 -0.5914  0.6765
  743MOL0     H 2532   7.735   4.503   3.615 -3.2708  0.7652  2.0092
  743MOL0     H 2533   7.865   4.365   3.648 -0.9459 -2.2221  0.0347
  743MOL0     H 2534   7.695   4.334   3.620 -2.2947  1.7732  0.4335
  744MOL0     O 2535   9.666   1.914   8.556 -0.1728  1.7009  0.3244
  744MOL0     C 2536   9.707   1.829   8.478 -0.1505 -0.2098 -0.6940
  744MOL0     O 2537   9.840   1.790   8.475 -0.2651  0.3174  0.8587
  744MOL0     C 2538   9.946   1.842   8.542 -0.4343  0.0387 -0.0914
  744MOL0     C 2539   9.950   1.942   8.649  0.1140 -0.0432  0.2506
  744MOL0     C 2540  10.071   1.968   8.713  0.5657  0.2127  0.1632
  744MOL0     C 2541  10.192   1.915   8.674  0.1507  1.1055 -0.4364
  744MOL0     O 2542  10.313   1.940   8.724  0.1802 -0.0390 -0.8400
  744MOL0     C 2543  10.319   2.050   8.817 -0.7075  0.1601  0.6239
  744MOL0     C 2544  10.458   2.056   8.880 -0.7209  0.3667  0.0562
  744MOL0     C 2545  10.450   2.165   8.990  0.0115 -0.2682  0.1064
  744MOL0     C 2546  10.544   2.133   9.103  0.1398 -0.2866  0.7370
  744MOL0     C 2547  10.573   2.259   9.179 -0.6443 -0.3191  0.1549
  744MOL0     C 2548  10.681   2.236   9.287 -1.1425  0.9177  0.0028
  744MOL0     C 2549  10.685   2.350   9.386 -0.7292  0.5082  0.0115
  744MOL0     C 2550  10.813   2.344   9.475  0.3734 -0.1295  0.4149
  744MOL0     N 2551  10.830   2.473   9.552  0.1069 -0.8517  0.4059
  744MOL0     C 2552  10.742   2.520   9.653 -0.7090  0.1604  0.6710
  744MOL0     C 2553  10.815   2.619   9.716 -0.6010  0.3084  0.6513
  744MOL0     C 2554  10.773   2.706   9.833 -0.1440  0.4023  0.7412
  744MOL0     C 2555  10.710   2.634   9.956 -0.2823  0.1114  0.2138
  744MOL0     C 2556  10.685   2.734  10.077 -0.3308  0.3445  0.0675
  744MOL0     C 2557  10.818   2.764  10.143  0.1420 -0.0213  0.0454
  744MOL0     O 2558  10.799   2.871  10.232 -1.3058 -0.0669  0.1916
  744MOL0     C 2559  10.894   2.880  10.331  0.5248  0.6165 -0.7479
  744MOL0     C 2560  11.027   2.824  10.334 -0.0245 -0.3993  0.3906
  744MOL0     C 2561  11.125   2.878  10.419  0.4756 -1.2913  0.2701
  744MOL0     C 2562  11.271   2.834  10.387 -0.3809 -0.6042 -0.1299
  744MOL0     C 2563  11.093   2.954  10.523  0.0216 -0.2217 -0.7466
  744MOL0     C 2564  11.187   2.988  10.616 -0.0174  0.2036 -0.4824
  744MOL0     O 2565  11.190   3.124  10.651  0.1346  0.0050 -0.0060
  744MOL0     C 2566  11.302   3.182  10.719 -0.2809  0.2862  0.6010
  744MOL0     C 2567  11.422   3.193  10.645  0.3361 -0.0184  0.3479
  744MOL0     C 2568  11.541   3.243  10.715  0.9084  0.3731 -0.2234
  744MOL0     C 2569  11.533   3.267  10.852 -0.0151  1.1266 -0.1743
  744MOL0     O 2570  11.631   3.318  10.925 -0.4052 -0.4128  0.2417
  744MOL0     C 2571  11.749   3.382  10.869  0.5468  0.6094 -1.1810
  744MOL0     C 2572  11.766   3.513  10.934 -0.4185 -0.8539  0.2741
  744MOL0     C 2573  11.868   3.596  10.848  0.8866 -0.3635 -0.3495
  744MOL0     C 2574  11.891   3.726  10.907  0.7040 -0.1862  0.3492
  744MOL0     C 2575  12.026   3.781  10.872 -0.6059  0.5545 -0.4909
  744MOL0     C 2576  12.137   3.731  10.967  0.5286  0.2383  0.8954
  744MOL0     C 2577  12.267   3.813  10.943 -0.6191 -0.1494  1.2391
  744MOL0     C 2578  12.387   3.719  10.952 -0.4139 -1.1442 -0.3722
  744MOL0    Cl 2579  12.370   3.614  11.103 -0.1496  0.4970 -0.3813
  744MOL0     C 2580  11.420   3.251  10.914  0.6733  0.4444  0.2687
  744MOL0     C 2581  11.301   3.208  10.853 -1.0428  0.4117 -0.6336
  744MOL0     O 2582  11.266   2.896  10.666 -0.3110 -0.0029  0.7628
  744MOL0     C 2583  10.959   3.010  10.531 -0.1536 -0.8341  0.4972
  744MOL0     C 2584  10.865   2.971  10.429 -0.3964 -1.2068 -0.3301
  744MOL0     N 2585  10.928   2.643   9.642 -0.0476 -0.1402 -0.8721
  744MOL0     N 2586  10.938   2.560   9.542 -0.7030  0.9406  1.1703
  744MOL0     C 2587  10.188   1.827   8.563  0.1559  0.0217 -0.3060
  744MOL0     C 2588  10.075   1.792   8.505 -0.4278  0.6711 -0.1657
  744MOL0     C 2589   9.612   1.764   8.376  0.3825 -0.5251  0.5791
  744MOL0     C 2590   9.680   1.692   8.281  0.9502 -0.2915  0.3220
  744MOL0     C 2591   9.613   1.608   8.185  0.8781 -0.0735 -0.7089
  744MOL0     C 2592   9.474   1.607   8.192 -0.3795 -0.2183 -0.0446
  744MOL0     O 2593   9.415   1.518   8.109 -0.9686  0.1325 -0.6936
  744MOL0     C 2594   9.267   1.512   8.094 -0.2332  0.2881  0.6016
  744MOL0     C 2595   9.219   1.372   8.049 -0.2224 -0.9180  0.6541
  744MOL0     C 2596   9.065   1.364   8.043 -0.0795 -0.0650 -0.1293
  744MOL0     C 2597   9.017   1.298   7.916 -0.0457  0.1307 -0.2813
  744MOL0     C 2598   8.881   1.278   7.941  0.3753  0.0027 -0.1306
  744MOL0     C 2599   8.767   1.266   7.974 -0.1313 -0.0786 -0.3592
  744MOL0     C 2600   9.403   1.679   8.290  0.2600  1.4816 -0.3176
  744MOL0     C 2601   9.470   1.762   8.380 -0.1809  0.0057 -0.8092
  744MOL0     C 2602   9.400   1.851   8.481 -1.8640  0.1447  0.6574
  744MOL0     H 2603   9.858   1.994   8.672 -2.9479 -4.7627  0.0966
  744MOL0     H 2604  10.067   2.048   8.787  0.6336  0.3358  0.0343
  744MOL0     H 2605  10.257   2.026   8.904  1.3391 -3.0222  1.3937
  744MOL0     H 2606  10.294   2.147   8.773  1.3838  1.2446  1.7104
  744MOL0     H 2607  10.475   1.955   8.920 -1.9800  0.7864  1.7428
  744MOL0     H 2608  10.539   2.074   8.808 -1.2808  1.9661 -0.1917
  744MOL0     H 2609  10.468   2.260   8.938 -0.9515  0.8079  1.6534
  744MOL0     H 2610  10.353   2.160   9.038  0.4759  1.9263  1.4228
  744MOL0     H 2611  10.505   2.053   9.166 -3.4202  1.3059  0.7850
  744MOL0     H 2612  10.636   2.101   9.055 -0.8038 -0.9372 -0.6777
  744MOL0     H 2613  10.477   2.285   9.223 -1.5293  1.0235 -2.3936
  744MOL0     H 2614  10.607   2.341   9.116 -1.8466  0.7571  0.8711
  744MOL0     H 2615  10.668   2.141   9.341  3.3059 -0.3849 -0.8683
  744MOL0     H 2616  10.773   2.218   9.232 -1.9211 -1.1876 -0.7385
  744MOL0     H 2617  10.599   2.358   9.453  1.1163  1.0144  2.4737
  744MOL0     H 2618  10.692   2.435   9.317  0.4338 -1.9718 -3.1252
  744MOL0     H 2619  10.810   2.249   9.530  2.0669 -0.0191  0.7772
  744MOL0     H 2620  10.892   2.342   9.398 -1.9388 -1.5275 -2.1035
  744MOL0     H 2621  10.641   2.489   9.680 -1.8222  0.5244 -2.6100
  744MOL0     H 2622  10.708   2.783   9.790 -1.2928 -2.8502 -4.0234
  744MOL0     H 2623  10.866   2.757   9.860 -0.2612  1.9059 -1.4205
  744MOL0     H 2624  10.617   2.581   9.934 -0.7192  1.3830 -1.2240
  744MOL0     H 2625  10.780   2.559   9.992  2.7861  2.9391  0.6222
  744MOL0     H 2626  10.621   2.814  10.039 -1.3827 -2.0197 -3.5500
  744MOL0     H 2627  10.620   2.684  10.149  2.6335 -1.7492  1.5132
  744MOL0     H 2628  10.857   2.673  10.190 -0.5974 -0.2970  0.1446
  744MOL0     H 2629  10.889   2.801  10.068  0.0242 -0.4948 -0.3076
  744MOL0     H 2630  11.053   2.752  10.257 -0.6572 -3.3764  2.7656
  744MOL0     H 2631  11.290   2.747  10.450 -1.1319 -1.0464 -0.5043
  744MOL0     H 2632  11.337   2.919  10.408  0.6405 -1.3407 -0.2481
  744MOL0     H 2633  11.284   2.806  10.282 -1.0618  2.1346 -1.0328
  744MOL0     H 2634  11.420   3.153  10.544 -0.6859 -0.1100  0.3907
  744MOL0     H 2635  11.629   3.259  10.653  0.9508  0.9069 -0.0379
  744MOL0     H 2636  11.832   3.312  10.882 -0.6357 -0.4682  1.1433
  744MOL0     H 2637  11.728   3.399  10.763 -1.5857  1.8344 -0.6191
  744MOL0     H 2638  11.676   3.575  10.929  1.6917  2.2971 -2.4478
  744MOL0     H 2639  11.802   3.493  11.035  1.8126  0.6187 -0.1600
  744MOL0     H 2640  11.834   3.603  10.745  1.2232  1.3129 -0.3769
  744MOL0     H 2641  11.963   3.544  10.836  0.4747 -1.1607 -0.2182
  744MOL0     H 2642  11.887   3.718  11.016  2.1297 -1.0122  0.3671
  744MOL0     H 2643  11.810   3.786  10.865  0.1129 -2.0562 -1.3356
  744MOL0     H 2644  12.047   3.759  10.767  1.5135 -0.9995  0.1952
  744MOL0     H 2645  12.032   3.890  10.877  4.9707  0.5796 -1.8814
  744MOL0     H 2646  12.149   3.626  10.938 -1.8743  0.0124  0.4943
  744MOL0     H 2647  12.118   3.733  11.075 -1.9594 -0.7178  0.5366
  744MOL0     H 2648  12.278   3.896  11.013  1.4596  0.3898  0.3498
  744MOL0     H 2649  12.263   3.857  10.844  0.2821 -1.7731  0.4362
  744MOL0     H 2650  12.480   3.778  10.946 -0.4971 -1.0810 -1.1425
  744MOL0     H 2651  12.393   3.650  10.868 -1.2421  0.7243 -2.0414
  744MOL0     H 2652  11.411   3.269  11.020  1.2895 -0.3413  0.4702
  744MOL0     H 2653  11.209   3.203  10.910 -2.4431 -0.3927 -2.8572
  744MOL0     H 2654  10.913   3.071  10.608 -3.2714  0.9100 -2.4377
  744MOL0     H 2655  10.770   3.022  10.415 -1.1621 -2.7991 -1.2560
  744MOL0     H 2656  10.276   1.770   8.535  0.6170 -0.1790  1.4139
  744MOL0     H 2657  10.074   1.721   8.422 -0.3696  0.7390 -0.2239
  744MOL0     H 2658   9.788   1.696   8.279  0.9643 -0.9620 -1.2228
  744MOL0     H 2659   9.674   1.557   8.112  0.1392 -2.9440  0.5547
  744MOL0     H 2660   9.223   1.528   8.193  1.8082 -1.3250  1.8611
  744MOL0     H 2661   9.227   1.594   8.034 -0.0351 -0.9021 -1.2279
  744MOL0     H 2662   9.261   1.288   8.105  1.4884 -1.9307 -2.0028
  744MOL0     H 2663   9.264   1.359   7.951  0.1208  2.1803  0.2883
  744MOL0     H 2664   9.047   1.298   8.128 -0.7998  0.5445  0.2058
  744MOL0     H 2665   9.017   1.460   8.063 -1.7978 -1.4372  3.2171
  744MOL0     H 2666   9.070   1.205   7.896 -1.1788 -0.6098  0.0552
  744MOL0     H 2667   9.028   1.370   7.835 -0.4592 -0.7369 -1.1209
  744MOL0     H 2668   8.670   1.248   8.017 -2.3084  1.9226 -3.9678
  744MOL0     H 2669   9.295   1.692   8.288 -0.0030  0.3922  2.3541
  744MOL0     H 2670   9.437   1.822   8.580  1.7157  0.4286 -0.4357
  744MOL0     H 2671   9.415   1.955   8.450 -2.5642 -0.2062 -0.9652
  744MOL0     H 2672   9.293   1.830   8.482 -1.6019 -1.3692  0.6093
  745MOL0     O 2673   9.250   6.913  10.876  0.1757 -0.1361  0.8153
  745MOL0     C 2674   9.184   6.951  10.973 -0.0139 -0.3301 -0.1330
  745MOL0     O 2675   9.064   7.023  10.966  0.2342 -0.0006  0.0649
  745MOL0     C 2676   9.014   7.077  10.846 -0.1443  0.3989  0.2484
  745MOL0     C 2677   8.958   7.002  10.743 -1.0783  0.7699 -0.3844
  745MOL0     C 2678   8.883   7.055  10.633  0.4736  0.6952 -0.0215
  745MOL0     C 2679   8.878   7.194  10.618  0.4311 -1.8601 -1.3327
  745MOL0     O 2680   8.798   7.262  10.531 -1.4195 -0.0634  0.3932
  745MOL0     C 2681   8.695   7.182  10.469 -0.0860  0.7378  0.1936
  745MOL0     C 2682   8.613   7.261  10.370  0.3340  0.0111  0.3085
  745MOL0     C 2683   8.501   7.333  10.432  0.5150 -0.1284  0.0712
  745MOL0     C 2684   8.533   7.446  10.521 -0.9174 -0.4403  0.0692
  745MOL0     C 2685   8.418   7.555  10.534  0.3027 -0.0461  0.0918
  745MOL0     C 2686   8.407   7.648  10.413 -0.5837 -0.6260  0.3091
  745MOL0     C 2687   8.269   7.719  10.421  0.7820 -0.3560  0.4734
  745MOL0     C 2688   8.265   7.812  10.534 -0.8592 -0.2268  0.3356
  745MOL0     N 2689   8.331   7.949  10.514  0.1518  0.0393  0.5395
  745MOL0     C 2690   8.461   7.979  10.475  0.0418 -0.7022  0.7028
  745MOL0     C 2691   8.463   8.101  10.414  0.6793  1.2568  0.4187
  745MOL0     C 2692   8.592   8.154  10.346  0.3586  0.7192 -0.1378
  745MOL0     C 2693   8.635   8.068  10.217  0.1534  0.8435 -0.8743
  745MOL0     C 2694   8.766   8.138  10.161  0.1089 -0.1010 -0.9808
  745MOL0     C 2695   8.792   8.102  10.019 -0.5499  0.2924 -0.7035
  745MOL0     O 2696   8.693   8.163   9.934 -0.5349  0.0804  0.3159
  745MOL0     C 2697   8.630   8.078   9.845  0.1524 -0.5086 -0.5005
  745MOL0     C 2698   8.494   8.071   9.840  0.5043  0.8855 -0.1338
  745MOL0     C 2699   8.421   7.997   9.737 -0.4450 -0.8482  0.2448
  745MOL0     C 2700   8.272   7.988   9.741  0.9779 -0.9049  0.3710
  745MOL0     C 2701   8.489   7.911   9.651 -0.1086  0.3270 -0.1081
  745MOL0     C 2702   8.428   7.831   9.533 -0.6374  0.7944  0.1555
  745MOL0     O 2703   8.488   7.713   9.501 -0.2717 -0.0642  0.2593
  745MOL0     C 2704   8.445   7.644   9.390 -0.2683 -0.3271  0.6257
  745MOL0     C 2705   8.315   7.606   9.376 -0.2094 -0.5125 -0.3751
  745MOL0     C 2706   8.261   7.538   9.271 -0.4107 -0.0589 -0.5448
  745MOL0     C 2707   8.356   7.496   9.181 -0.0738 -0.7009 -0.5065
  745MOL0     O 2708   8.325   7.403   9.082  0.1192  0.5959  0.0536
  745MOL0     C 2709   8.191   7.377   9.050  0.4404 -0.2402 -0.7405
  745MOL0     C 2710   8.176   7.263   8.948 -0.5024  0.5837  0.7201
  745MOL0     C 2711   8.187   7.138   9.031 -0.1876 -0.4918  0.3138
  745MOL0     C 2712   8.165   7.016   8.945 -0.5788 -0.0125 -1.0095
  745MOL0     C 2713   8.222   6.884   9.009 -0.2676  1.0300 -0.7718
  745MOL0     C 2714   8.374   6.879   9.027  0.5164  0.2086  0.0893
  745MOL0     C 2715   8.427   6.737   9.080  0.1045 -0.8113 -0.4798
  745MOL0     C 2716   8.579   6.754   9.050 -0.2944 -0.6711  0.4721
  745MOL0    Cl 2717   8.654   6.624   9.142 -0.8578  0.0178  0.0722
  745MOL0     C 2718   8.499   7.527   9.188 -0.2542 -0.0812  0.5270
  745MOL0     C 2719   8.541   7.597   9.302  0.4858  0.6432 -0.6918
  745MOL0     O 2720   8.336   7.883   9.471  0.0011  0.5913  0.0970
  745MOL0     C 2721   8.635   7.913   9.659  0.0101 -0.4038 -0.0843
  745MOL0     C 2722   8.698   8.001   9.755  0.5525  0.8343 -0.5573
  745MOL0     N 2723   8.336   8.146  10.417  0.1011  0.2873 -0.5262
  745MOL0     N 2724   8.258   8.051  10.453 -0.5414  0.2025  0.3351
  745MOL0     C 2725   8.943   7.271  10.718 -0.2106  0.6011  0.3538
  745MOL0     C 2726   9.011   7.221  10.825 -0.0452  0.0155 -0.2683
  745MOL0     C 2727   9.219   6.915  11.114 -0.4535 -0.9438 -1.4572
  745MOL0     C 2728   9.143   6.982  11.220  0.4554 -0.1384  0.2329
  745MOL0     C 2729   9.159   6.951  11.355  0.3018  0.0532  0.2252
  745MOL0     C 2730   9.248   6.856  11.400  0.5713  0.1025 -0.4581
  745MOL0     O 2731   9.252   6.831  11.533 -0.2978 -0.0279  0.6882
  745MOL0     C 2732   9.318   6.713  11.582 -0.5911 -0.4831 -0.7381
  745MOL0     C 2733   9.225   6.595  11.586 -0.5320 -0.4296 -0.8706
  745MOL0     C 2734   9.116   6.629  11.690 -0.0719  0.7416 -0.0575
  745MOL0     C 2735   9.042   6.494  11.722  0.0156 -0.0635  0.3401
  745MOL0     C 2736   8.973   6.512  11.850 -0.1266 -0.4347  0.4002
  745MOL0     C 2737   8.919   6.505  11.961 -0.2894 -0.4932  0.0142
  745MOL0     C 2738   9.313   6.784  11.298 -0.6206 -0.4549 -0.0755
  745MOL0     C 2739   9.310   6.820  11.157 -0.6200 -0.4708 -0.8907
  745MOL0     C 2740   9.386   6.745  11.060  0.8896  0.0429  0.6832
  745MOL0     H 2741   8.964   6.896  10.767 -2.0247  0.7696 -0.1130
  745MOL0     H 2742   8.850   6.975  10.568 -0.0400 -1.6880  2.9783
  745MOL0     H 2743   8.629   7.140  10.545 -1.9943  0.3802 -1.5667
  745MOL0     H 2744   8.747   7.102  10.416  2.1156  1.8023  0.6385
  745MOL0     H 2745   8.673   7.327  10.307 -3.2209  1.3439 -1.9479
  745MOL0     H 2746   8.576   7.184  10.301  3.3144 -1.8604  0.6005
  745MOL0     H 2747   8.441   7.367  10.348 -2.3717 -0.2221  1.9695
  745MOL0     H 2748   8.429   7.273  10.488 -1.0431  1.5801 -0.0498
  745MOL0     H 2749   8.570   7.399  10.612 -1.1656 -3.4929 -1.2695
  745MOL0     H 2750   8.615   7.500  10.472  0.6337 -2.0880  0.7155
  745MOL0     H 2751   8.448   7.624  10.613 -2.4103  0.8880  0.4256
  745MOL0     H 2752   8.322   7.506  10.554 -0.1187 -0.4125 -2.4822
  745MOL0     H 2753   8.479   7.731  10.409 -2.8112  1.3723 -1.0736
  745MOL0     H 2754   8.417   7.596  10.317  1.7737  1.0204 -0.4458
  745MOL0     H 2755   8.193   7.642  10.440 -0.8529  1.5194  1.9984
  745MOL0     H 2756   8.254   7.780  10.332 -1.4864 -0.7326  0.5487
  745MOL0     H 2757   8.159   7.821  10.559 -1.0509 -0.0396 -0.5205
  745MOL0     H 2758   8.312   7.767  10.622  0.3562  2.9151  1.4571
  745MOL0     H 2759   8.555   7.926  10.491  0.8336 -0.5062 -2.5829
  745MOL0     H 2760   8.677   8.158  10.414  1.3277 -1.3825 -1.1372
  745MOL0     H 2761   8.559   8.257  10.325  0.9932  1.5367  2.5379
  745MOL0     H 2762   8.650   7.968  10.258 -2.7831  1.3645  1.8377
  745MOL0     H 2763   8.557   8.067  10.139  0.6362  0.5832 -1.3573
  745MOL0     H 2764   8.773   8.247  10.168 -2.6689  0.0489  1.9480
  745MOL0     H 2765   8.847   8.102  10.225 -0.1647 -2.8678 -2.0535
  745MOL0     H 2766   8.897   8.126   9.998  0.2160 -1.0863  1.3042
  745MOL0     H 2767   8.793   7.995   9.994  2.2621  0.5645 -2.1437
  745MOL0     H 2768   8.439   8.113   9.924  0.8410 -0.4668  0.8070
  745MOL0     H 2769   8.236   8.049   9.825  1.9131 -0.2246  0.2967
  745MOL0     H 2770   8.236   7.885   9.752  0.8176 -0.9457 -0.5054
  745MOL0     H 2771   8.237   8.043   9.654  0.9373 -2.7508 -0.8187
  745MOL0     H 2772   8.244   7.628   9.455 -0.3432  0.8971 -0.8583
  745MOL0     H 2773   8.161   7.497   9.277 -1.5057  2.4439 -0.5044
  745MOL0     H 2774   8.153   7.352   9.150  1.7144 -0.0773 -0.1891
  745MOL0     H 2775   8.152   7.466   9.001  2.4774  0.3610 -1.3705
  745MOL0     H 2776   8.086   7.276   8.886 -1.3049 -1.3619  1.4023
  745MOL0     H 2777   8.259   7.279   8.879 -1.5255  1.1029 -0.4407
  745MOL0     H 2778   8.106   7.132   9.104  0.3514  0.5126  1.0238
  745MOL0     H 2779   8.286   7.138   9.079  0.5835  0.9832 -1.1550
  745MOL0     H 2780   8.211   7.032   8.847 -0.1623  0.0165 -0.8103
  745MOL0     H 2781   8.058   7.008   8.922 -0.6660  1.6234 -1.3006
  745MOL0     H 2782   8.181   6.866   9.109  2.3132  1.7954  0.5246
  745MOL0     H 2783   8.195   6.794   8.953 -2.2243  0.3592  1.0948
  745MOL0     H 2784   8.412   6.948   9.103  1.2910 -1.4787  1.3168
  745MOL0     H 2785   8.421   6.901   8.931 -1.3595  0.0242 -0.9200
  745MOL0     H 2786   8.392   6.648   9.027  1.5230 -0.9527 -1.2427
  745MOL0     H 2787   8.409   6.729   9.188 -0.0908  0.8793 -0.3583
  745MOL0     H 2788   8.618   6.849   9.089 -1.2889 -0.9933  2.4049
  745MOL0     H 2789   8.597   6.731   8.945  0.1999 -2.0643  0.8407
  745MOL0     H 2790   8.575   7.480   9.126 -1.5905 -0.9887 -0.4771
  745MOL0     H 2791   8.648   7.607   9.315  0.3369  2.1327 -0.4046
  745MOL0     H 2792   8.689   7.860   9.582  0.6997  3.4250 -2.4886
  745MOL0     H 2793   8.804   8.017   9.740  0.9031 -0.7912 -0.0201
  745MOL0     H 2794   8.945   7.380  10.719  4.0608  0.7334 -1.4363
  745MOL0     H 2795   9.053   7.293  10.894 -2.5187  0.8343  0.4665
  745MOL0     H 2796   9.067   7.055  11.193 -0.3950 -1.7489 -2.1198
  745MOL0     H 2797   9.100   7.015  11.420 -0.8337  1.9819 -2.5229
  745MOL0     H 2798   9.404   6.687  11.518 -0.6955  2.6230 -2.3308
  745MOL0     H 2799   9.352   6.725  11.685  1.7876 -0.2787 -1.4614
  745MOL0     H 2800   9.286   6.512  11.622 -3.9689 -1.8640  2.3444
  745MOL0     H 2801   9.178   6.563  11.492 -0.8435  1.8183 -1.5555
  745MOL0     H 2802   9.159   6.664  11.784  0.6154 -0.6486  0.1705
  745MOL0     H 2803   9.045   6.693  11.637 -1.9545 -1.3752 -0.2451
  745MOL0     H 2804   9.121   6.421  11.735  0.2225  0.3914  1.8123
  745MOL0     H 2805   8.967   6.470  11.645 -0.2714  1.5462  0.0799
  745MOL0     H 2806   8.853   6.486  12.044  0.7344  0.7347  1.1462
  745MOL0     H 2807   9.384   6.707  11.328  1.7288  1.9699  1.1233
  745MOL0     H 2808   9.322   6.696  10.986  2.3586  2.0716 -2.1169
  745MOL0     H 2809   9.458   6.812  11.013  0.2738 -0.1012 -0.4959
  745MOL0     H 2810   9.448   6.674  11.114  2.6759  1.4248  0.5305
  746MOL0     O 2811   3.786   4.273   6.051 -0.5041  0.5321 -0.4352
  746MOL0     C 2812   3.813   4.162   6.006  0.0759  0.8204 -0.0604
  746MOL0     O 2813   3.831   4.049   6.075  0.6295 -0.1552  0.2542
  746MOL0     C 2814   3.852   4.060   6.205  0.7239  1.4208 -0.9262
  746MOL0     C 2815   3.941   4.149   6.262 -0.5137  0.1237  0.7140
  746MOL0     C 2816   3.935   4.172   6.399  0.6135 -0.5633  0.0308
  746MOL0     C 2817   3.854   4.093   6.482 -0.5266  1.1413  0.0969
  746MOL0     O 2818   3.828   4.108   6.615  0.5759 -0.0575  0.0778
  746MOL0     C 2819   3.882   4.213   6.697  0.1838  0.5719  0.2466
  746MOL0     C 2820   3.779   4.232   6.809  0.5012  0.7214  0.2148
  746MOL0     C 2821   3.653   4.284   6.751  0.1070  0.4067 -0.2930
  746MOL0     C 2822   3.666   4.438   6.724  0.2599  0.3130 -0.1152
  746MOL0     C 2823   3.542   4.520   6.671  0.1265 -0.8187  0.0422
  746MOL0     C 2824   3.431   4.524   6.774 -1.0350 -0.3798  0.4106
  746MOL0     C 2825   3.338   4.406   6.763 -0.1585 -0.4309  0.4182
  746MOL0     C 2826   3.212   4.422   6.839 -0.5682 -0.5201 -0.3592
  746MOL0     N 2827   3.227   4.427   6.986  0.0778  0.1681 -0.2171
  746MOL0     C 2828   3.195   4.325   7.071 -0.3017  0.1110 -0.3070
  746MOL0     C 2829   3.198   4.376   7.203  0.4333  0.8485  0.1695
  746MOL0     C 2830   3.136   4.306   7.328 -0.0334  0.2706  0.2499
  746MOL0     C 2831   3.155   4.153   7.340  0.2639  0.0823 -0.4007
  746MOL0     C 2832   3.299   4.129   7.396  0.2511 -0.0801  0.2267
  746MOL0     C 2833   3.321   3.981   7.420  0.0063 -0.4224 -0.5520
  746MOL0     O 2834   3.457   3.937   7.411  0.0405 -0.0623  0.0773
  746MOL0     C 2835   3.516   3.926   7.533  0.0257  0.1859 -0.1628
  746MOL0     C 2836   3.536   4.018   7.642  0.8032  0.2189  0.2280
  746MOL0     C 2837   3.589   3.977   7.774 -0.4586  0.1163  0.0918
  746MOL0     C 2838   3.577   4.074   7.888  0.1491 -0.2796 -0.9279
  746MOL0     C 2839   3.656   3.853   7.784 -0.2466 -0.1762  0.3189
  746MOL0     C 2840   3.723   3.810   7.908  0.3058  0.8827 -1.3230
  746MOL0     O 2841   3.737   3.672   7.914  0.2722  0.3869  0.3270
  746MOL0     C 2842   3.787   3.628   8.032  0.2822  0.1561 -0.1207
  746MOL0     C 2843   3.699   3.605   8.144  0.3225 -0.2463  0.3919
  746MOL0     C 2844   3.748   3.550   8.257  0.8497 -0.6851  0.3985
  746MOL0     C 2845   3.881   3.503   8.266  0.2574 -0.1490 -0.5686
  746MOL0     O 2846   3.914   3.458   8.389  0.3682 -0.1341  0.0516
  746MOL0     C 2847   4.056   3.434   8.412 -0.0636 -0.6090  0.0872
  746MOL0     C 2848   4.082   3.376   8.546  0.4422 -0.6429  0.6229
  746MOL0     C 2849   3.995   3.251   8.593  0.0713  1.4106 -0.9100
  746MOL0     C 2850   4.014   3.132   8.495  0.9855  1.5609 -0.5592
  746MOL0     C 2851   3.948   2.997   8.551  0.2745 -0.3900  0.1823
  746MOL0     C 2852   3.961   2.887   8.443 -0.1355 -0.9477 -0.3227
  746MOL0     C 2853   3.863   2.776   8.494  1.1580  0.1316  0.7335
  746MOL0     C 2854   3.893   2.630   8.434  0.6959 -0.0392 -0.5171
  746MOL0    Cl 2855   3.797   2.515   8.539 -0.0467  0.3787  0.4171
  746MOL0     C 2856   3.965   3.526   8.159 -0.1514 -0.2469  0.2073
  746MOL0     C 2857   3.916   3.579   8.041  0.1842 -0.2783 -0.3591
  746MOL0     O 2858   3.757   3.888   7.993  0.3329  0.6022 -0.0651
  746MOL0     C 2859   3.656   3.773   7.670 -0.8763 -0.2328  0.5566
  746MOL0     C 2860   3.580   3.798   7.551  0.9925  0.3500 -0.7431
  746MOL0     N 2861   3.243   4.504   7.196 -0.1118  0.3255 -0.1843
  746MOL0     N 2862   3.253   4.531   7.069 -0.6068 -1.2922 -0.3810
  746MOL0     C 2863   3.779   3.991   6.428 -0.2434  0.8908 -0.4995
  746MOL0     C 2864   3.771   3.977   6.292  0.5238 -0.1473  0.6418
  746MOL0     C 2865   3.804   4.144   5.859 -0.6718  1.2890  0.1274
  746MOL0     C 2866   3.902   4.057   5.794 -0.9232  0.5291 -0.5871
  746MOL0     C 2867   3.920   4.040   5.660 -0.4416  0.1603  0.7791
  746MOL0     C 2868   3.828   4.107   5.581 -1.0410  1.1533 -0.5582
  746MOL0     O 2869   3.852   4.090   5.453  0.3734  0.0296  0.0676
  746MOL0     C 2870   3.783   4.154   5.346 -0.7697  0.5577 -0.5862
  746MOL0     C 2871   3.838   4.090   5.218 -0.8328  0.9786  0.3042
  746MOL0     C 2872   3.994   4.074   5.214  0.0714 -0.7262  0.0436
  746MOL0     C 2873   4.081   4.207   5.246 -0.3453  1.7811  0.1770
  746MOL0     C 2874   4.045   4.313   5.154  0.2773  0.8167  0.6130
  746MOL0     C 2875   4.032   4.396   5.076 -0.9904 -0.6893  0.8613
  746MOL0     C 2876   3.715   4.172   5.632 -0.0022 -0.3048 -0.5417
  746MOL0     C 2877   3.700   4.190   5.771  0.3583 -1.1195  0.7771
  746MOL0     C 2878   3.578   4.275   5.808  1.3194 -0.8213 -0.5462
  746MOL0     H 2879   3.999   4.223   6.208 -0.7572 -0.7059 -0.7342
  746MOL0     H 2880   3.988   4.256   6.442  2.4256 -2.3793  1.5052
  746MOL0     H 2881   3.900   4.309   6.648 -2.7289  2.6445  2.8421
  746MOL0     H 2882   3.978   4.178   6.736 -0.2400 -3.8928 -2.0360
  746MOL0     H 2883   3.757   4.135   6.855 -0.1662  1.3558  1.2726
  746MOL0     H 2884   3.814   4.289   6.896 -1.2034  0.2403  1.2764
  746MOL0     H 2885   3.625   4.235   6.657  0.2547 -0.8817  0.3229
  746MOL0     H 2886   3.572   4.270   6.823  0.2168 -0.8692 -0.4093
  746MOL0     H 2887   3.698   4.476   6.821 -0.6699  2.9805 -0.7647
  746MOL0     H 2888   3.745   4.460   6.652  2.6816 -2.3078  1.5172
  746MOL0     H 2889   3.510   4.480   6.575 -2.8946 -1.8300  1.3592
  746MOL0     H 2890   3.578   4.623   6.660 -0.0197 -0.5558  1.7749
  746MOL0     H 2891   3.471   4.529   6.876  2.7102 -0.6951 -0.8939
  746MOL0     H 2892   3.375   4.617   6.759  2.0370  1.9316  2.1254
  746MOL0     H 2893   3.383   4.312   6.796 -0.4427  0.2814  3.0569
  746MOL0     H 2894   3.313   4.392   6.657 -2.2879 -1.0666  0.9527
  746MOL0     H 2895   3.173   4.522   6.818  1.6929  0.8917  1.5747
  746MOL0     H 2896   3.134   4.348   6.819 -1.0365 -0.5982  1.5552
  746MOL0     H 2897   3.142   4.236   7.038  2.2966 -0.7602 -2.5182
  746MOL0     H 2898   3.031   4.334   7.320  0.9921  4.9340  0.5031
  746MOL0     H 2899   3.176   4.358   7.415 -2.6511 -1.4826  2.6745
  746MOL0     H 2900   3.084   4.130   7.419 -2.5835  1.8983 -2.2664
  746MOL0     H 2901   3.140   4.109   7.241  3.3066  0.0126 -0.9511
  746MOL0     H 2902   3.358   4.151   7.307  2.0307 -4.0003  0.2312
  746MOL0     H 2903   3.324   4.199   7.476 -3.3901  1.1165  0.4912
  746MOL0     H 2904   3.266   3.965   7.513 -0.4258  3.6423  0.1016
  746MOL0     H 2905   3.263   3.917   7.354 -1.1742 -0.0782  0.1215
  746MOL0     H 2906   3.499   4.119   7.626  0.4874  0.3793  1.8718
  746MOL0     H 2907   3.525   4.164   7.855 -0.1316  1.5367  3.6898
  746MOL0     H 2908   3.675   4.105   7.926 -0.7061  1.2451  0.1339
  746MOL0     H 2909   3.521   4.044   7.977  3.7115 -0.0277  1.6352
  746MOL0     H 2910   3.592   3.626   8.143  0.0215 -1.6639 -1.1425
  746MOL0     H 2911   3.670   3.528   8.330  0.1272  1.0413  0.2025
  746MOL0     H 2912   4.093   3.359   8.342 -0.6740 -1.1348  0.3088
  746MOL0     H 2913   4.116   3.524   8.400 -1.6947  0.8031  1.8205
  746MOL0     H 2914   4.185   3.340   8.551  1.4910  2.2903  2.3738
  746MOL0     H 2915   4.081   3.454   8.623  1.7898 -0.3142  0.3276
  746MOL0     H 2916   3.888   3.274   8.601 -0.5801 -1.4809 -0.4673
  746MOL0     H 2917   4.019   3.214   8.693 -2.0034 -0.7464 -1.1044
  746MOL0     H 2918   4.116   3.091   8.496 -0.4389 -2.4638 -0.3753
  746MOL0     H 2919   3.978   3.150   8.394  1.0822 -2.7806 -1.5871
  746MOL0     H 2920   4.007   2.971   8.640 -0.4087  0.7067  0.9915
  746MOL0     H 2921   3.845   3.010   8.587  0.3384 -1.5329  0.8371
  746MOL0     H 2922   4.060   2.844   8.428 -0.8607 -2.2528 -1.6285
  746MOL0     H 2923   3.920   2.918   8.347  1.2025  0.3723 -0.5126
  746MOL0     H 2924   3.759   2.802   8.476  0.9385 -0.3044  1.3187
  746MOL0     H 2925   3.860   2.770   8.603 -1.6969  2.7343  0.9307
  746MOL0     H 2926   3.999   2.608   8.442  0.1706 -2.3705  0.8470
  746MOL0     H 2927   3.867   2.635   8.327  1.9034  0.7208 -0.7968
  746MOL0     H 2928   4.072   3.512   8.156 -0.4351 -4.1744  1.9383
  746MOL0     H 2929   3.980   3.589   7.954  0.1170 -3.3408 -0.8520
  746MOL0     H 2930   3.704   3.675   7.665  0.1019  0.2294  0.5630
  746MOL0     H 2931   3.570   3.722   7.475  0.2602 -1.4742  1.0648
  746MOL0     H 2932   3.703   3.940   6.486  1.9637 -2.2324 -0.1335
  746MOL0     H 2933   3.687   3.918   6.255 -1.2449 -0.0160  4.0339
  746MOL0     H 2934   3.965   3.988   5.851  2.5488  3.0790 -0.9975
  746MOL0     H 2935   4.000   3.983   5.614 -0.3046  0.4937  0.5984
  746MOL0     H 2936   3.674   4.141   5.340 -0.9520  0.0058  2.6111
  746MOL0     H 2937   3.794   4.263   5.348  1.7831  0.3950 -1.4807
  746MOL0     H 2938   3.808   4.150   5.131 -1.5150 -0.3570 -0.4179
  746MOL0     H 2939   3.793   3.990   5.209 -0.1330  0.5316  1.4686
  746MOL0     H 2940   4.020   3.997   5.287  1.6488  0.8888  1.2602
  746MOL0     H 2941   4.012   4.031   5.115 -3.1368 -1.4090 -0.3515
  746MOL0     H 2942   4.185   4.173   5.235 -0.8370 -0.0100  0.7009
  746MOL0     H 2943   4.054   4.235   5.348 -4.9313  1.9898 -0.8719
  746MOL0     H 2944   4.025   4.482   5.012 -1.6157 -0.1496  1.6329
  746MOL0     H 2945   3.651   4.230   5.565  0.5363 -1.1213 -1.8147
  746MOL0     H 2946   3.511   4.226   5.879 -3.1491  1.4697 -2.7083
  746MOL0     H 2947   3.608   4.363   5.865 -0.2216 -1.2223  0.9676
  746MOL0     H 2948   3.525   4.310   5.718 -2.7877 -3.7935  0.4333
  747MOL0     O 2949   5.511   1.115   4.287 -0.0880 -0.1905  0.1287
  747MOL0     C 2950   5.587   1.165   4.365  0.1236 -0.4824 -0.0266
  747MOL0     O 2951   5.630   1.291   4.358  0.3115 -0.4960  0.0001
  747MOL0     C 2952   5.618   1.351   4.233  0.4664  0.0459  0.1283
  747MOL0     C 2953   5.507   1.419   4.197 -0.3641 -0.2238 -1.3256
  747MOL0     C 2954   5.482   1.472   4.076  0.2616  0.9430 -0.3076
  747MOL0     C 2955   5.586   1.460   3.980  0.4131  0.3140  0.0083
  747MOL0     O 2956   5.569   1.524   3.855  0.4297 -0.2741 -0.6925
  747MOL0     C 2957   5.604   1.455   3.741 -0.1055 -0.4870  0.7897
  747MOL0     C 2958   5.590   1.522   3.596 -1.0066 -0.2871  0.0582
  747MOL0     C 2959   5.512   1.650   3.592  0.7951 -0.3499  0.5082
  747MOL0     C 2960   5.589   1.780   3.626  0.2018 -0.1191 -0.4467
  747MOL0     C 2961   5.519   1.896   3.695  0.1417 -0.3279  0.0724
  747MOL0     C 2962   5.395   1.927   3.613 -0.0939 -0.2286 -0.8594
  747MOL0     C 2963   5.288   2.009   3.695 -0.8040 -0.0090  0.1356
  747MOL0     C 2964   5.344   2.155   3.721  0.7937 -0.4071  0.4019
  747MOL0     N 2965   5.307   2.241   3.614  1.2274 -0.7585  0.8414
  747MOL0     C 2966   5.387   2.311   3.527  0.2234 -0.1107 -0.8248
  747MOL0     C 2967   5.309   2.395   3.452 -0.2945 -0.9420 -0.1652
  747MOL0     C 2968   5.368   2.480   3.345 -0.1819  0.0162  0.3235
  747MOL0     C 2969   5.439   2.603   3.387 -0.0123  0.6785 -0.6532
  747MOL0     C 2970   5.493   2.698   3.280 -0.3744 -0.3672  0.4932
  747MOL0     C 2971   5.518   2.641   3.136 -0.0306  0.2800 -0.7352
  747MOL0     O 2972   5.523   2.749   3.042  0.3465 -0.4955 -0.0191
  747MOL0     C 2973   5.522   2.728   2.902  0.0294 -0.0791 -0.2675
  747MOL0     C 2974   5.492   2.842   2.826  0.3513 -0.3886  0.6754
  747MOL0     C 2975   5.498   2.825   2.684  0.6424  0.1508  0.4744
  747MOL0     C 2976   5.436   2.931   2.600  0.1158 -0.4809 -0.8510
  747MOL0     C 2977   5.520   2.700   2.616 -1.3447  0.3787  0.6003
  747MOL0     C 2978   5.512   2.660   2.472 -0.0599  0.9375  0.6702
  747MOL0     O 2979   5.452   2.534   2.439 -0.1817  0.2093  0.4244
  747MOL0     C 2980   5.496   2.446   2.337 -0.4473 -0.1129  0.0266
  747MOL0     C 2981   5.416   2.332   2.314  0.0259 -0.3606  0.0824
  747MOL0     C 2982   5.449   2.230   2.227 -1.0290 -0.3242 -0.1849
  747MOL0     C 2983   5.572   2.231   2.160 -0.8645  0.7663 -0.7038
  747MOL0     O 2984   5.601   2.117   2.083  0.2638 -0.1868 -0.1420
  747MOL0     C 2985   5.722   2.136   2.010  0.5288  0.8385  0.2886
  747MOL0     C 2986   5.735   2.030   1.893 -0.9824 -0.9995  0.0374
  747MOL0     C 2987   5.869   2.039   1.823 -0.0845 -0.3207  0.4800
  747MOL0     C 2988   5.931   2.185   1.802 -0.0224 -0.5253  0.1298
  747MOL0     C 2989   5.856   2.281   1.725  0.8449 -0.3780  0.0427
  747MOL0     C 2990   5.903   2.426   1.750 -0.0606 -0.5186 -0.2669
  747MOL0     C 2991   5.848   2.532   1.657 -0.3214 -0.6525  0.7590
  747MOL0     C 2992   5.923   2.541   1.518 -0.2361 -0.7730  0.6861
  747MOL0    Cl 2993   6.090   2.608   1.538 -0.0781  0.0602 -0.5768
  747MOL0     C 2994   5.655   2.351   2.178  0.1384  0.2062 -0.6011
  747MOL0     C 2995   5.616   2.461   2.261  0.4534 -0.8215 -0.0808
  747MOL0     O 2996   5.562   2.727   2.391 -0.4790 -0.1348 -0.1589
  747MOL0     C 2997   5.550   2.601   2.710 -0.6942  1.3621  0.1682
  747MOL0     C 2998   5.548   2.604   2.842  0.9808  0.4404  0.1625
  747MOL0     N 2999   5.179   2.370   3.490  0.3356 -0.5747  0.5303
  747MOL0     N 3000   5.181   2.288   3.585 -0.1337  0.7054 -0.7363
  747MOL0     C 3001   5.705   1.405   4.012  0.2564  1.2970 -0.1049
  747MOL0     C 3002   5.726   1.344   4.136 -0.2858 -0.3889 -0.7504
  747MOL0     C 3003   5.617   1.084   4.488 -0.2116  0.0635  0.5962
  747MOL0     C 3004   5.716   1.137   4.570  0.1373 -0.2864  0.4468
  747MOL0     C 3005   5.762   1.070   4.685 -0.2140 -0.3204  0.1430
  747MOL0     C 3006   5.701   0.954   4.718 -0.2533  0.9132 -0.7799
  747MOL0     O 3007   5.752   0.890   4.826  0.3763  0.1685 -0.4041
  747MOL0     C 3008   5.701   0.932   4.954 -0.5828  0.0868  0.1031
  747MOL0     C 3009   5.579   0.852   4.988 -0.5752  0.4938 -0.0295
  747MOL0     C 3010   5.591   0.711   5.052  0.5193 -1.2552 -0.1131
  747MOL0     C 3011   5.687   0.614   4.980  0.4493 -0.3743  0.7314
  747MOL0     C 3012   5.711   0.491   5.049 -0.6279  0.8600  0.9061
  747MOL0     C 3013   5.734   0.382   5.100 -0.2363  0.8016  0.7390
  747MOL0     C 3014   5.603   0.897   4.642  0.3895 -0.5464  0.5666
  747MOL0     C 3015   5.555   0.964   4.531  0.4689 -0.0825  1.7199
  747MOL0     C 3016   5.454   0.889   4.445  0.1194 -0.3222  0.6374
  747MOL0     H 3017   5.437   1.437   4.278  0.2945 -0.5983 -0.6613
  747MOL0     H 3018   5.389   1.516   4.041 -0.5617 -1.3415 -1.2228
  747MOL0     H 3019   5.544   1.363   3.743 -0.2156 -0.4164  0.7374
  747MOL0     H 3020   5.710   1.429   3.744 -0.5095 -2.8640 -1.5349
  747MOL0     H 3021   5.691   1.530   3.555 -0.3753  2.7666  1.8898
  747MOL0     H 3022   5.541   1.449   3.531 -3.3091 -0.1574  1.5071
  747MOL0     H 3023   5.458   1.665   3.497 -2.9385  1.9522  2.7167
  747MOL0     H 3024   5.433   1.631   3.666  0.9521  2.3546  1.4897
  747MOL0     H 3025   5.670   1.740   3.686  1.2728  2.3062 -0.1901
  747MOL0     H 3026   5.636   1.817   3.534 -0.7730  2.1697 -0.1006
  747MOL0     H 3027   5.585   1.983   3.703  2.2370 -1.7987 -0.2283
  747MOL0     H 3028   5.501   1.866   3.798  1.4550 -2.7339 -0.3111
  747MOL0     H 3029   5.419   1.976   3.519  0.4689 -0.1146 -0.6623
  747MOL0     H 3030   5.334   1.841   3.583 -3.5947  1.7132  0.1229
  747MOL0     H 3031   5.272   1.968   3.795 -1.3083 -1.8565 -0.6684
  747MOL0     H 3032   5.191   2.009   3.645 -0.5895  1.8189 -0.3632
  747MOL0     H 3033   5.293   2.196   3.809 -1.2828  0.7818 -1.2464
  747MOL0     H 3034   5.448   2.162   3.753  0.7260 -0.1781  0.5747
  747MOL0     H 3035   5.495   2.324   3.535  0.2171 -1.0177  3.6005
  747MOL0     H 3036   5.293   2.513   3.272 -0.2516  1.4295  0.9821
  747MOL0     H 3037   5.438   2.414   3.294 -1.5289 -1.2866  0.0887
  747MOL0     H 3038   5.363   2.657   3.444 -1.2330 -1.3878 -0.2036
  747MOL0     H 3039   5.529   2.588   3.447 -0.5017 -0.3766 -0.1559
  747MOL0     H 3040   5.418   2.777   3.269  0.6099  0.9268  2.4878
  747MOL0     H 3041   5.583   2.744   3.321 -0.1861 -0.9119  0.7010
  747MOL0     H 3042   5.611   2.584   3.133 -1.8897 -3.0385 -0.2392
  747MOL0     H 3043   5.438   2.573   3.105  1.8483 -2.7521  0.5955
  747MOL0     H 3044   5.470   2.936   2.876 -0.5748  0.0522 -0.5138
  747MOL0     H 3045   5.337   2.905   2.563  0.3720  1.5794 -3.2612
  747MOL0     H 3046   5.504   2.957   2.518 -0.3689 -1.4860 -1.5861
  747MOL0     H 3047   5.433   3.022   2.661 -1.7879 -1.4425  0.5644
  747MOL0     H 3048   5.321   2.318   2.365  0.9314  1.6897  2.5585
  747MOL0     H 3049   5.377   2.148   2.224  0.1902 -1.4017 -1.4809
  747MOL0     H 3050   5.734   2.233   1.960  2.5380 -0.7117 -2.5629
  747MOL0     H 3051   5.802   2.131   2.084 -1.6498  1.8469  2.8871
  747MOL0     H 3052   5.706   1.926   1.912  0.5511 -1.9834 -2.5725
  747MOL0     H 3053   5.653   2.058   1.826 -1.6372 -0.7185  0.9363
  747MOL0     H 3054   5.872   1.994   1.723  2.2577  0.1348  0.2730
  747MOL0     H 3055   5.939   1.978   1.880 -2.0622  0.4751  4.0628
  747MOL0     H 3056   6.020   2.163   1.742 -0.7534 -1.4652 -0.6500
  747MOL0     H 3057   5.959   2.221   1.902 -1.2574 -3.1597  1.5532
  747MOL0     H 3058   5.868   2.261   1.618  2.3707  1.6806 -0.2325
  747MOL0     H 3059   5.749   2.278   1.744  1.2568 -0.8455  2.6748
  747MOL0     H 3060   6.012   2.438   1.755  0.1197 -1.7645 -0.8523
  747MOL0     H 3061   5.863   2.451   1.848 -2.4166 -0.3693 -1.2036
  747MOL0     H 3062   5.845   2.629   1.707 -1.1129 -0.8904  1.1897
  747MOL0     H 3063   5.749   2.508   1.617 -0.5085 -2.2575  2.0773
  747MOL0     H 3064   5.877   2.610   1.447 -1.0402 -1.9908 -0.0216
  747MOL0     H 3065   5.913   2.439   1.479 -5.2092 -0.8339  1.3614
  747MOL0     H 3066   5.752   2.353   2.129  0.6833  0.4072  0.4450
  747MOL0     H 3067   5.676   2.551   2.274  1.7227 -1.7778  0.9475
  747MOL0     H 3068   5.587   2.504   2.680  0.0800  2.5895 -3.4772
  747MOL0     H 3069   5.573   2.518   2.902  0.2070 -0.3658 -0.6388
  747MOL0     H 3070   5.794   1.397   3.951  2.7461  4.0401  2.7423
  747MOL0     H 3071   5.818   1.301   4.176 -1.8963 -1.9720  1.4670
  747MOL0     H 3072   5.768   1.226   4.539  0.5767 -0.3284  1.0476
  747MOL0     H 3073   5.838   1.117   4.747  3.1591 -0.3095 -3.6362
  747MOL0     H 3074   5.781   0.902   5.022  0.6370 -1.6687 -1.9626
  747MOL0     H 3075   5.683   1.039   4.969  1.4602  0.5033 -0.0423
  747MOL0     H 3076   5.530   0.822   4.895 -1.6053 -0.3628  0.7690
  747MOL0     H 3077   5.510   0.910   5.051  0.4755 -0.7339  2.3542
  747MOL0     H 3078   5.627   0.744   5.149 -0.4360  1.3648 -0.5666
  747MOL0     H 3079   5.499   0.658   5.080 -0.4812  0.4639 -0.0304
  747MOL0     H 3080   5.779   0.673   4.973  0.4182 -0.3295  0.7025
  747MOL0     H 3081   5.657   0.588   4.878  2.8380  1.2101 -0.4604
  747MOL0     H 3082   5.751   0.292   5.156 -1.4042  1.0938  1.6043
  747MOL0     H 3083   5.557   0.803   4.672 -0.8538  0.2337  1.2162
  747MOL0     H 3084   5.399   0.821   4.511  0.9523  0.7282  2.4572
  747MOL0     H 3085   5.388   0.958   4.391  1.9553  0.4882 -0.6729
  747MOL0     H 3086   5.506   0.830   4.369  2.7000 -0.6963  2.5593
  748MOL0     O 3087   2.009   5.335   6.985 -0.3714  0.1725  0.5563
  748MOL0     C 3088   2.103   5.306   7.063 -0.2064  0.0883 -0.5874
  748MOL0     O 3089   2.130   5.178   7.111 -0.4512 -0.2525 -0.2278
  748MOL0     C 3090   2.069   5.064   7.056  0.0326 -0.1813 -1.7139
  748MOL0     C 3091   1.965   5.066   6.960 -1.1431 -0.0504 -0.5441
  748MOL0     C 3092   1.908   4.940   6.929  0.0795  0.1868 -0.0338
  748MOL0     C 3093   1.970   4.819   6.970 -0.5088 -0.1921 -0.2204
  748MOL0     O 3094   1.916   4.702   6.933 -0.9161  0.5039  0.4669
  748MOL0     C 3095   1.996   4.579   6.898 -0.2516  0.3380 -0.3596
  748MOL0     C 3096   2.003   4.552   6.751 -0.5557  0.5050  0.3002
  748MOL0     C 3097   2.094   4.668   6.696  0.0854  0.2970 -0.0080
  748MOL0     C 3098   2.099   4.653   6.544  0.7072  0.4122 -0.5670
  748MOL0     C 3099   2.219   4.568   6.501  0.7548  0.9941  0.2306
  748MOL0     C 3100   2.225   4.528   6.342  0.6297 -0.4131 -0.1587
  748MOL0     C 3101   2.347   4.449   6.306  0.6290  0.6667 -0.1548
  748MOL0     C 3102   2.313   4.305   6.307  0.2456  0.3700 -0.5267
  748MOL0     N 3103   2.265   4.244   6.434 -0.2431 -0.5424  0.1883
  748MOL0     C 3104   2.137   4.190   6.446 -0.4552 -0.2318 -0.7141
  748MOL0     C 3105   2.145   4.153   6.576  1.0579 -0.2479  0.1415
  748MOL0     C 3106   2.040   4.072   6.642 -0.9629 -0.5437 -0.3052
  748MOL0     C 3107   1.919   4.147   6.689 -0.9751 -0.5994  0.0420
  748MOL0     C 3108   1.848   4.244   6.597  0.2355  0.8755 -0.9016
  748MOL0     C 3109   1.736   4.309   6.678 -0.3295 -1.2060 -0.4536
  748MOL0     O 3110   1.682   4.437   6.625  0.1320  0.6146 -0.6319
  748MOL0     C 3111   1.554   4.460   6.668  0.2940 -0.0117 -0.3552
  748MOL0     C 3112   1.444   4.404   6.617 -0.3208  0.7598  0.3232
  748MOL0     C 3113   1.318   4.405   6.681 -0.2658  0.3911  0.1266
  748MOL0     C 3114   1.218   4.313   6.616  0.6107 -0.5732 -0.9521
  748MOL0     C 3115   1.296   4.492   6.788  0.9349  0.1183  0.6906
  748MOL0     C 3116   1.164   4.527   6.837 -0.0434 -0.1423  0.1214
  748MOL0     O 3117   1.165   4.630   6.918 -0.7759 -0.1480 -0.2640
  748MOL0     C 3118   1.069   4.672   7.003 -0.6922  1.1396 -0.8754
  748MOL0     C 3119   1.048   4.810   7.016  0.1386 -0.0847 -0.4987
  748MOL0     C 3120   0.962   4.861   7.116  1.4305 -0.3495  0.9986
  748MOL0     C 3121   0.908   4.767   7.210  0.2896  0.5274 -0.1374
  748MOL0     O 3122   0.840   4.799   7.327 -0.2490  0.6438 -0.3837
  748MOL0     C 3123   0.767   4.923   7.328 -0.1908  0.1713 -0.1959
  748MOL0     C 3124   0.674   4.925   7.446  0.3472 -0.2941  0.3164
  748MOL0     C 3125   0.601   5.063   7.460 -0.7017 -0.0525  0.5521
  748MOL0     C 3126   0.557   5.080   7.603  0.2742  0.2376  0.0149
  748MOL0     C 3127   0.489   5.209   7.622 -0.6561  0.4631 -0.4146
  748MOL0     C 3128   0.346   5.210   7.572  0.5858  0.1206 -0.5731
  748MOL0     C 3129   0.289   5.352   7.590  0.0641 -0.8293 -0.6676
  748MOL0     C 3130   0.144   5.347   7.571 -0.1293  0.6997 -0.0267
  748MOL0    Cl 3131   0.099   5.527   7.590 -0.0471 -0.6841  0.0557
  748MOL0     C 3132   0.929   4.635   7.192  0.0332 -0.2430 -0.2766
  748MOL0     C 3133   1.011   4.588   7.100 -0.0340  0.4314 -0.1914
  748MOL0     O 3134   1.061   4.466   6.804 -0.2408 -0.1759  0.1925
  748MOL0     C 3135   1.408   4.559   6.836  0.0797 -0.8850  0.3185
  748MOL0     C 3136   1.527   4.542   6.779 -0.0221  0.1718  0.1385
  748MOL0     N 3137   2.261   4.185   6.634 -0.0992 -0.9451  0.3652
  748MOL0     N 3138   2.336   4.236   6.549 -0.2597 -0.4990  1.4245
  748MOL0     C 3139   2.069   4.816   7.067  0.4290  0.2875 -0.5555
  748MOL0     C 3140   2.117   4.942   7.118 -0.8478  0.2466 -0.0210
  748MOL0     C 3141   2.202   5.405   7.104  0.3804  0.6453  0.0170
  748MOL0     C 3142   2.279   5.371   7.218 -0.5470 -0.0815 -0.0448
  748MOL0     C 3143   2.374   5.454   7.264 -0.6010  0.0982 -1.0235
  748MOL0     C 3144   2.408   5.576   7.216 -0.3297  0.0927  0.3274
  748MOL0     O 3145   2.499   5.653   7.284  0.3462  0.0742 -0.7497
  748MOL0     C 3146   2.574   5.752   7.201 -0.6279  0.8920 -0.1383
  748MOL0     C 3147   2.707   5.760   7.271 -0.5495 -1.0590  0.0229
  748MOL0     C 3148   2.781   5.621   7.305  0.5934 -0.1890 -0.5281
  748MOL0     C 3149   2.857   5.585   7.181  0.2739  0.4579  0.1202
  748MOL0     C 3150   2.768   5.522   7.072 -0.4699  0.1491  0.0867
  748MOL0     C 3151   2.693   5.484   6.979 -0.5649 -0.5976 -0.5534
  748MOL0     C 3152   2.340   5.612   7.098 -0.8274  0.1871  0.1934
  748MOL0     C 3153   2.234   5.527   7.042 -0.8026  0.2816 -0.7866
  748MOL0     C 3154   2.167   5.586   6.916 -0.5140  0.2559 -0.0455
  748MOL0     H 3155   1.913   5.151   6.917  0.9073  0.9177 -1.2249
  748MOL0     H 3156   1.836   4.934   6.848  1.1360  0.5532 -1.0293
  748MOL0     H 3157   1.933   4.506   6.949  0.4790 -1.2717 -1.6461
  748MOL0     H 3158   2.092   4.587   6.950 -1.5362 -0.4542  2.3264
  748MOL0     H 3159   2.057   4.459   6.735  3.1769  2.5860 -0.3910
  748MOL0     H 3160   1.904   4.561   6.705 -0.4158 -0.0409 -0.1189
  748MOL0     H 3161   2.067   4.772   6.716  3.4555  1.5559 -1.1558
  748MOL0     H 3162   2.191   4.665   6.747 -0.2107  0.5852  0.5807
  748MOL0     H 3163   2.002   4.614   6.509  1.6516 -2.5708 -0.1693
  748MOL0     H 3164   2.102   4.749   6.492  0.3795  0.9869  0.4574
  748MOL0     H 3165   2.219   4.477   6.561  1.6080  1.0387  0.3036
  748MOL0     H 3166   2.302   4.635   6.524 -0.9320  2.3928  2.6115
  748MOL0     H 3167   2.129   4.482   6.316  0.2133  1.2860 -1.8968
  748MOL0     H 3168   2.227   4.615   6.275  0.3434 -0.2889 -0.0072
  748MOL0     H 3169   2.432   4.457   6.375  0.5385  1.9611 -0.1613
  748MOL0     H 3170   2.378   4.490   6.210  1.3111  1.4322  0.3760
  748MOL0     H 3171   2.232   4.296   6.233 -0.9544  1.8508  0.5536
  748MOL0     H 3172   2.407   4.255   6.280  0.0573 -0.1659 -0.2091
  748MOL0     H 3173   2.071   4.169   6.362 -0.5950 -3.0698  0.0165
  748MOL0     H 3174   2.080   4.022   6.730 -0.4385  1.6384  0.7635
  748MOL0     H 3175   2.004   3.995   6.574 -0.8992 -3.3590  2.6397
  748MOL0     H 3176   1.857   4.059   6.706 -0.9417 -1.2510 -2.7684
  748MOL0     H 3177   1.930   4.190   6.789 -1.2381 -0.7513  0.1373
  748MOL0     H 3178   1.927   4.314   6.564  0.0203  2.1781  1.1289
  748MOL0     H 3179   1.804   4.206   6.505 -0.0751 -1.3734  0.1240
  748MOL0     H 3180   1.663   4.229   6.664 -0.5319 -0.9730 -0.7390
  748MOL0     H 3181   1.751   4.318   6.786 -0.1241  1.6351 -0.6581
  748MOL0     H 3182   1.463   4.347   6.527  2.2239  0.6204  0.8617
  748MOL0     H 3183   1.155   4.377   6.553  1.6165  1.5484  0.0857
  748MOL0     H 3184   1.153   4.272   6.694  0.5948 -0.3103 -0.8240
  748MOL0     H 3185   1.253   4.226   6.561  0.3053 -0.5964 -1.1121
  748MOL0     H 3186   1.102   4.870   6.944  3.3192 -1.1452  0.8144
  748MOL0     H 3187   0.952   4.969   7.126 -3.2749 -0.4284 -0.3984
  748MOL0     H 3188   0.845   4.999   7.346  0.8232 -1.0298  0.6424
  748MOL0     H 3189   0.708   4.933   7.237 -2.1518 -2.4801  0.6654
  748MOL0     H 3190   0.588   4.858   7.443  0.2763 -0.2587  1.2479
  748MOL0     H 3191   0.731   4.901   7.536 -1.2629 -0.3712  1.3437
  748MOL0     H 3192   0.524   5.056   7.382 -0.7125 -0.7846  0.6208
  748MOL0     H 3193   0.673   5.144   7.447  1.0197 -1.7192 -0.8689
  748MOL0     H 3194   0.644   5.082   7.668  1.3878  1.6349 -1.4130
  748MOL0     H 3195   0.495   4.997   7.637 -2.1246  1.6858 -0.5699
  748MOL0     H 3196   0.495   5.222   7.730  0.2188 -1.6703 -0.1442
  748MOL0     H 3197   0.547   5.290   7.577 -1.3239 -0.0573 -2.3094
  748MOL0     H 3198   0.290   5.127   7.618  1.8602 -1.7829 -2.2553
  748MOL0     H 3199   0.337   5.198   7.463 -0.1826  1.2408 -0.6425
  748MOL0     H 3200   0.338   5.419   7.519 -2.4938  2.0811  0.1243
  748MOL0     H 3201   0.318   5.391   7.688 -4.6154  0.6667  0.3927
  748MOL0     H 3202   0.104   5.276   7.644 -1.0252  1.2121 -0.0058
  748MOL0     H 3203   0.132   5.309   7.469 -1.1241 -1.4716  0.8421
  748MOL0     H 3204   0.883   4.557   7.252 -1.3045  0.0598 -0.8527
  748MOL0     H 3205   1.019   4.480   7.101  0.8582  0.4853  0.8950
  748MOL0     H 3206   1.391   4.640   6.905 -1.8579 -0.8188 -0.1896
  748MOL0     H 3207   1.604   4.606   6.821  0.4151 -0.7712  0.8108
  748MOL0     H 3208   2.108   4.727   7.115 -2.0947  1.4088  4.2556
  748MOL0     H 3209   2.200   4.945   7.188 -1.0129  0.5872  0.1631
  748MOL0     H 3210   2.253   5.284   7.279 -1.9625  2.1230  2.7612
  748MOL0     H 3211   2.424   5.426   7.356 -3.4985  1.5981  1.1421
  748MOL0     H 3212   2.582   5.718   7.097  2.0070 -0.9852  0.5629
  748MOL0     H 3213   2.525   5.850   7.205 -0.6143  0.8652  2.4929
  748MOL0     H 3214   2.704   5.804   7.371  1.7137 -0.6217 -0.0653
  748MOL0     H 3215   2.774   5.829   7.219 -1.2316 -1.4956 -1.4779
  748MOL0     H 3216   2.852   5.641   7.386 -0.5207 -1.6983  0.8670
  748MOL0     H 3217   2.718   5.537   7.332  1.6735 -1.3263 -1.4348
  748MOL0     H 3218   2.934   5.510   7.204 -1.6771 -2.4575 -2.0746
  748MOL0     H 3219   2.897   5.676   7.136  0.1752  1.4514  1.9649
  748MOL0     H 3220   2.635   5.452   6.896  0.5468  0.3515 -1.7395
  748MOL0     H 3221   2.358   5.711   7.056 -0.7994 -0.4320 -1.3245
  748MOL0     H 3222   2.137   5.515   6.839  2.0755 -0.4043 -0.5500
  748MOL0     H 3223   2.081   5.637   6.960 -1.9545 -1.9473 -0.1468
  748MOL0     H 3224   2.237   5.655   6.867 -0.2164 -0.7541 -1.0760
  749MOL0     O 3225   5.782   2.346   3.553 -0.7380  0.1062  0.2681
  749MOL0     C 3226   5.808   2.378   3.446 -0.2132  0.3765 -1.0857
  749MOL0     O 3227   5.874   2.492   3.416  0.2693 -1.3233  0.2914
  749MOL0     C 3228   5.931   2.570   3.518  0.4662  0.3404  0.7411
  749MOL0     C 3229   5.856   2.669   3.578 -0.4818 -0.0470 -0.8143
  749MOL0     C 3230   5.921   2.747   3.679 -0.3273 -0.3806 -0.6643
  749MOL0     C 3231   6.054   2.712   3.724  0.2587 -0.3986 -0.2647
  749MOL0     O 3232   6.124   2.780   3.829  0.3594  0.7310  0.2571
  749MOL0     C 3233   6.058   2.880   3.902 -0.3014 -0.5469  0.2867
  749MOL0     C 3234   6.153   3.001   3.904 -0.1929 -0.6325  0.0955
  749MOL0     C 3235   6.133   3.114   4.008  0.6392 -1.2128 -0.3710
  749MOL0     C 3236   6.233   3.228   3.995  0.6672 -0.3663 -0.2005
  749MOL0     C 3237   6.201   3.347   4.074 -0.3133 -0.9085  0.2003
  749MOL0     C 3238   6.325   3.439   4.100  0.4355 -0.4829 -0.0715
  749MOL0     C 3239   6.368   3.437   4.246  0.2750  0.4508  0.4419
  749MOL0     C 3240   6.483   3.541   4.263  0.5806 -0.7719  0.4904
  749MOL0     N 3241   6.426   3.661   4.336  0.9156  0.7884  0.2683
  749MOL0     C 3242   6.414   3.670   4.477  0.0476 -0.2489  0.0967
  749MOL0     C 3243   6.337   3.782   4.500 -0.4523 -0.0827  0.8119
  749MOL0     C 3244   6.303   3.832   4.630 -0.1473  0.1416 -0.3467
  749MOL0     C 3245   6.408   3.908   4.717 -0.5953  0.2074  0.8076
  749MOL0     C 3246   6.521   3.825   4.779  0.8425 -0.4466 -0.3153
  749MOL0     C 3247   6.464   3.741   4.896 -0.0661  0.3338  0.2850
  749MOL0     O 3248   6.559   3.720   5.000 -0.5995 -0.5902 -0.0617
  749MOL0     C 3249   6.673   3.639   4.971  0.1706 -0.0159 -0.1509
  749MOL0     C 3250   6.685   3.540   4.861 -0.4579 -0.6444 -0.7897
  749MOL0     C 3251   6.808   3.481   4.837  0.0035  0.5608 -0.1218
  749MOL0     C 3252   6.821   3.370   4.729 -0.4962  0.1213 -0.0500
  749MOL0     C 3253   6.922   3.508   4.916  0.7388 -0.8532 -0.5163
  749MOL0     C 3254   7.058   3.458   4.898  1.0758 -0.1199 -0.4340
  749MOL0     O 3255   7.133   3.431   5.016 -1.0781 -0.7021  0.4163
  749MOL0     C 3256   7.254   3.374   4.995  1.1398  0.6046  0.0761
  749MOL0     C 3257   7.357   3.407   5.083 -0.1264  0.1793  0.2876
  749MOL0     C 3258   7.487   3.350   5.067 -0.2412  0.2500 -0.5446
  749MOL0     C 3259   7.517   3.260   4.963 -0.0682 -0.0975 -0.2457
  749MOL0     O 3260   7.645   3.216   4.961  0.3629  0.0487 -0.1094
  749MOL0     C 3261   7.673   3.115   4.864 -0.0649  0.4499  0.8975
  749MOL0     C 3262   7.825   3.102   4.843  0.5240  0.5296  0.4108
  749MOL0     C 3263   7.841   2.976   4.746  0.1717 -0.6649  0.3291
  749MOL0     C 3264   7.956   2.893   4.798  0.4869  0.4114  0.0208
  749MOL0     C 3265   8.090   2.945   4.758 -0.7677  0.5000  0.4175
  749MOL0     C 3266   8.135   2.888   4.618 -0.1405 -0.6540 -0.1193
  749MOL0     C 3267   8.237   2.973   4.552  0.1828 -0.8950  0.0382
  749MOL0     C 3268   8.255   2.943   4.399 -0.0327 -1.0427 -0.6358
  749MOL0    Cl 3269   8.101   2.954   4.299 -0.0290  0.3925  0.4380
  749MOL0     C 3270   7.414   3.226   4.876  0.2942  0.0258 -0.1104
  749MOL0     C 3271   7.282   3.282   4.896  0.2318 -0.4551 -0.4948
  749MOL0     O 3272   7.093   3.437   4.781  0.2254 -0.1873 -0.2667
  749MOL0     C 3273   6.904   3.599   5.027 -1.0582 -0.7872 -0.0854
  749MOL0     C 3274   6.785   3.659   5.056 -0.1259  0.6961  0.6677
  749MOL0     N 3275   6.309   3.844   4.382 -0.7825  0.9692 -0.1857
  749MOL0     N 3276   6.358   3.764   4.286 -0.7172 -0.7171  0.7768
  749MOL0     C 3277   6.122   2.607   3.668  0.0637 -0.1780  0.0436
  749MOL0     C 3278   6.067   2.542   3.557  0.1544  0.4158  0.2855
  749MOL0     C 3279   5.742   2.300   3.331 -0.4319 -1.5826  0.7400
  749MOL0     C 3280   5.741   2.370   3.201 -0.7291 -0.2954 -0.4954
  749MOL0     C 3281   5.693   2.308   3.091  0.1762 -0.4711  0.2947
  749MOL0     C 3282   5.634   2.187   3.096 -0.7725 -0.3714  0.3936
  749MOL0     O 3283   5.585   2.133   2.977 -0.7376  0.2358  0.4160
  749MOL0     C 3284   5.624   2.000   2.955  0.9817  1.3154 -0.0183
  749MOL0     C 3285   5.504   1.899   2.988  0.5438 -0.4627  0.0795
  749MOL0     C 3286   5.477   1.791   2.876  0.9060 -0.7592 -0.4325
  749MOL0     C 3287   5.371   1.692   2.921 -0.8424  0.6171  0.1923
  749MOL0     C 3288   5.337   1.606   2.802 -0.2483 -0.2040 -0.4755
  749MOL0     C 3289   5.309   1.555   2.695  0.3806 -0.0442  0.1638
  749MOL0     C 3290   5.635   2.116   3.222  0.0655 -0.8295  0.8608
  749MOL0     C 3291   5.699   2.169   3.336  0.1606  0.3443 -0.2461
  749MOL0     C 3292   5.728   2.078   3.462 -0.0198 -1.2271 -0.2865
  749MOL0     H 3293   5.748   2.675   3.563 -0.7461  0.4458  1.0346
  749MOL0     H 3294   5.857   2.819   3.728 -0.4799 -2.3912  2.3770
  749MOL0     H 3295   6.056   2.839   4.003 -0.6300 -0.8433  0.1641
  749MOL0     H 3296   5.958   2.909   3.869  0.6127  3.6403  0.6087
  749MOL0     H 3297   6.254   2.964   3.922 -0.4965 -0.1502  3.3577
  749MOL0     H 3298   6.158   3.056   3.809 -0.6534 -0.5593  0.1090
  749MOL0     H 3299   6.031   3.151   3.999  0.7852 -1.1918 -2.3644
  749MOL0     H 3300   6.157   3.075   4.107  1.1966  0.0128 -0.0017
  749MOL0     H 3301   6.320   3.178   4.039 -1.4652 -2.2901  2.1262
  749MOL0     H 3302   6.245   3.253   3.889 -1.6820  0.4711 -0.3297
  749MOL0     H 3303   6.147   3.317   4.164 -3.1558  1.7321 -0.4772
  749MOL0     H 3304   6.130   3.411   4.021  0.3085 -0.3233  0.0562
  749MOL0     H 3305   6.414   3.405   4.046 -0.2153 -2.0456 -0.2422
  749MOL0     H 3306   6.300   3.538   4.063  0.4308 -0.2600  0.5129
  749MOL0     H 3307   6.402   3.336   4.272  1.7757  1.0560  0.9689
  749MOL0     H 3308   6.280   3.468   4.303 -1.3057 -0.1191 -1.5609
  749MOL0     H 3309   6.564   3.500   4.324 -0.9818 -1.0523  2.4602
  749MOL0     H 3310   6.513   3.576   4.164 -1.5170 -2.5800 -0.8785
  749MOL0     H 3311   6.452   3.595   4.544 -3.9833 -0.8870  1.9069
  749MOL0     H 3312   6.239   3.761   4.683 -0.5507  1.3808  0.9017
  749MOL0     H 3313   6.233   3.913   4.607 -0.7053  0.1051  1.0962
  749MOL0     H 3314   6.440   3.989   4.650  1.7034 -0.7464  0.6934
  749MOL0     H 3315   6.354   3.963   4.795 -2.2371  0.5542 -0.5164
  749MOL0     H 3316   6.567   3.773   4.695 -1.3161 -0.6478 -1.4341
  749MOL0     H 3317   6.584   3.898   4.833  0.9370  0.0618 -1.0923
  749MOL0     H 3318   6.388   3.807   4.938 -0.5289  2.0659 -2.9926
  749MOL0     H 3319   6.423   3.647   4.860  1.8125 -1.5909  2.7560
  749MOL0     H 3320   6.603   3.531   4.790 -1.0005 -0.8392 -0.1434
  749MOL0     H 3321   6.887   3.398   4.646  2.5350  2.6182  2.9137
  749MOL0     H 3322   6.726   3.341   4.684 -1.4416 -1.1167  2.5087
  749MOL0     H 3323   6.861   3.281   4.780 -1.9230  0.5383  1.9235
  749MOL0     H 3324   7.324   3.474   5.162 -2.6190  0.1922 -0.6728
  749MOL0     H 3325   7.558   3.376   5.145  3.5182 -2.9992 -2.4790
  749MOL0     H 3326   7.625   3.029   4.912 -2.4281  2.0289  1.5302
  749MOL0     H 3327   7.631   3.130   4.764  2.9259  3.4163 -0.1177
  749MOL0     H 3328   7.871   3.190   4.798 -0.8016  0.4914 -1.0877
  749MOL0     H 3329   7.859   3.095   4.947 -0.1462 -0.6028  0.5724
  749MOL0     H 3330   7.854   3.009   4.643  1.5306 -0.3838  0.5659
  749MOL0     H 3331   7.753   2.912   4.747  1.6254 -2.7412 -0.2677
  749MOL0     H 3332   7.930   2.799   4.750 -1.6361 -0.8840  3.3535
  749MOL0     H 3333   7.949   2.880   4.907 -2.6509 -1.8716 -0.3159
  749MOL0     H 3334   8.089   3.054   4.754  2.0569  0.5570 -0.3124
  749MOL0     H 3335   8.167   2.917   4.830 -1.6951 -4.9132 -0.2569
  749MOL0     H 3336   8.048   2.864   4.556  1.6269 -0.4429 -2.8861
  749MOL0     H 3337   8.178   2.790   4.638 -1.3021 -1.7132 -2.3903
  749MOL0     H 3338   8.331   2.946   4.601 -0.3342 -1.7560  0.5815
  749MOL0     H 3339   8.220   3.080   4.568  2.4023 -0.4889 -0.0510
  749MOL0     H 3340   8.290   2.839   4.399  2.3542 -0.3822 -3.5010
  749MOL0     H 3341   8.331   3.007   4.353 -0.6459  0.5201  0.4538
  749MOL0     H 3342   7.428   3.154   4.796 -4.3715 -1.2776 -0.0723
  749MOL0     H 3343   7.209   3.244   4.824  0.5886  1.3577 -1.8747
  749MOL0     H 3344   6.993   3.626   5.084 -0.8093 -0.2517 -0.7157
  749MOL0     H 3345   6.761   3.729   5.135  1.0917  1.5498  0.3006
  749MOL0     H 3346   6.215   2.578   3.717 -0.9998  0.3089  2.4900
  749MOL0     H 3347   6.114   2.458   3.507  0.4122  0.3741  0.5902
  749MOL0     H 3348   5.788   2.466   3.183 -0.9709  0.0286  0.4783
  749MOL0     H 3349   5.695   2.365   2.998 -0.2960 -0.3413  0.3630
  749MOL0     H 3350   5.655   1.981   2.852 -0.4763  0.9718 -0.4212
  749MOL0     H 3351   5.713   1.980   3.015  2.2091  4.4699 -0.5723
  749MOL0     H 3352   5.415   1.959   3.010  0.6097  1.8628 -4.7510
  749MOL0     H 3353   5.525   1.840   3.078  2.4715 -1.3911 -0.9346
  749MOL0     H 3354   5.451   1.850   2.787  1.3079 -0.0036 -0.0576
  749MOL0     H 3355   5.567   1.736   2.847  1.2794 -1.4227  1.7990
  749MOL0     H 3356   5.276   1.732   2.958 -1.8232  0.4852 -2.0122
  749MOL0     H 3357   5.425   1.640   3.000  1.2463  2.0116 -0.2245
  749MOL0     H 3358   5.289   1.525   2.594 -0.6245 -2.6036  1.0184
  749MOL0     H 3359   5.599   2.013   3.224  0.2101 -1.2410 -4.3161
  749MOL0     H 3360   5.667   2.107   3.548 -0.5660 -1.6446 -0.5273
  749MOL0     H 3361   5.717   1.972   3.440 -0.7066 -1.0180 -0.9919
  749MOL0     H 3362   5.833   2.095   3.489  0.2723  3.0886 -3.0456
  750MOL0     O 3363   4.326   1.102   4.837 -0.3243 -0.6849  0.1433
  750MOL0     C 3364   4.309   1.018   4.742  0.6289  0.1451 -0.2652
  750MOL0     O 3365   4.382   0.899   4.734  0.2561  0.0244  0.4037
  750MOL0     C 3366   4.477   0.878   4.827 -0.1603  0.9701  0.9096
  750MOL0     C 3367   4.464   0.784   4.930  0.4781 -0.0097 -0.0978
  750MOL0     C 3368   4.572   0.740   5.007 -0.0933  0.4145 -0.6370
  750MOL0     C 3369   4.697   0.804   4.996 -0.8136 -0.2201  0.0523
  750MOL0     O 3370   4.795   0.777   5.085 -0.0323  0.0461 -0.3506
  750MOL0     C 3371   4.752   0.737   5.216  0.5220 -0.4171  0.8918
  750MOL0     C 3372   4.885   0.693   5.290  0.5146  0.0625 -1.1014
  750MOL0     C 3373   4.869   0.645   5.435 -0.2464  0.8424  0.6281
  750MOL0     C 3374   4.873   0.751   5.547 -0.2691  0.4997  0.0779
  750MOL0     C 3375   4.758   0.854   5.536  0.3127  0.5612 -2.0109
  750MOL0     C 3376   4.719   0.924   5.662 -0.6961  0.2330 -0.6277
  750MOL0     C 3377   4.592   1.002   5.648  0.6691  1.1674  0.4678
  750MOL0     C 3378   4.620   1.152   5.615 -0.8945  0.5824 -0.2199
  750MOL0     N 3379   4.494   1.224   5.606  0.0126 -0.1376  0.6944
  750MOL0     C 3380   4.373   1.191   5.551  1.1430 -0.3522  0.4924
  750MOL0     C 3381   4.287   1.294   5.581  0.5652 -0.0241  0.7463
  750MOL0     C 3382   4.150   1.314   5.528 -0.1562  1.0847 -0.1910
  750MOL0     C 3383   4.085   1.463   5.542  0.2016  0.9135  0.4463
  750MOL0     C 3384   3.929   1.449   5.526  0.4525  0.5810 -0.4769
  750MOL0     C 3385   3.863   1.578   5.578  0.7001  0.1929  0.9184
  750MOL0     O 3386   3.904   1.586   5.709 -0.1619  0.0748  0.7593
  750MOL0     C 3387   3.891   1.722   5.759 -0.6387  0.4488  0.3047
  750MOL0     C 3388   3.961   1.747   5.881  0.4900 -0.2036  0.3787
  750MOL0     C 3389   3.942   1.870   5.943 -0.8858 -0.6840 -0.3435
  750MOL0     C 3390   4.013   1.889   6.076  0.3361  0.0683  0.3127
  750MOL0     C 3391   3.853   1.978   5.896 -0.8587  0.1716  0.6672
  750MOL0     C 3392   3.811   2.103   5.966 -0.7083 -0.4395  0.3093
  750MOL0     O 3393   3.695   2.159   5.925 -0.5564 -0.1879 -0.5154
  750MOL0     C 3394   3.661   2.291   5.954  0.4292  1.4696 -0.4798
  750MOL0     C 3395   3.746   2.393   5.997  0.6563  0.0783  0.5589
  750MOL0     C 3396   3.687   2.515   6.026 -0.6822 -0.0774 -0.4304
  750MOL0     C 3397   3.548   2.543   6.001 -0.1299 -0.1299 -0.3435
  750MOL0     O 3398   3.492   2.671   6.002 -0.3021 -0.1517 -0.8213
  750MOL0     C 3399   3.578   2.784   6.017  0.6044 -0.1802 -0.0929
  750MOL0     C 3400   3.505   2.916   5.989 -0.3073 -1.0702  0.1730
  750MOL0     C 3401   3.380   2.894   5.899  0.6489  0.3304  0.2248
  750MOL0     C 3402   3.297   3.024   5.876  0.1125 -0.1668  0.3352
  750MOL0     C 3403   3.152   2.988   5.892  0.1302 -0.0760  0.4730
  750MOL0     C 3404   3.067   3.114   5.884  0.2910  0.7953 -0.7967
  750MOL0     C 3405   2.920   3.097   5.922 -0.2634 -0.9146 -0.2658
  750MOL0     C 3406   2.813   3.191   5.871 -0.0947 -0.5948  0.4472
  750MOL0    Cl 3407   2.841   3.373   5.869  0.0805  0.1171 -0.3621
  750MOL0     C 3408   3.460   2.438   5.966  0.1851  0.3555 -0.3731
  750MOL0     C 3409   3.522   2.310   5.950  0.4915 -0.6872  0.1254
  750MOL0     O 3410   3.891   2.158   6.046  0.7568 -0.0470 -0.3352
  750MOL0     C 3411   3.784   1.939   5.774 -1.0188 -0.4085  0.6940
  750MOL0     C 3412   3.802   1.822   5.708 -0.0327  0.6113 -0.3025
  750MOL0     N 3413   4.364   1.392   5.637 -0.4969 -0.5394  0.0504
  750MOL0     N 3414   4.487   1.348   5.658  0.0820 -0.7768  0.4080
  750MOL0     C 3415   4.714   0.901   4.901 -0.3767  1.2735  0.2239
  750MOL0     C 3416   4.603   0.930   4.810  0.3989 -0.8236 -1.5899
  750MOL0     C 3417   4.203   1.051   4.642  0.0971  0.1403 -0.2370
  750MOL0     C 3418   4.152   0.942   4.576 -0.0902 -0.0932  0.8543
  750MOL0     C 3419   4.056   0.950   4.474 -0.3945  0.2314 -0.0158
  750MOL0     C 3420   4.007   1.074   4.440 -0.2346  0.1375  0.2763
  750MOL0     O 3421   3.900   1.109   4.361  0.3642 -0.2022 -0.0420
  750MOL0     C 3422   3.875   1.039   4.246  0.4663  1.0011  1.0224
  750MOL0     C 3423   3.980   1.049   4.133 -0.3971 -0.9944  0.3717
  750MOL0     C 3424   4.042   1.185   4.132 -1.3115  0.5953  0.3777
  750MOL0     C 3425   4.145   1.190   4.021  0.3841  0.6913 -1.2000
  750MOL0     C 3426   4.087   1.189   3.889 -0.5011 -0.5136 -0.4665
  750MOL0     C 3427   4.026   1.186   3.781 -0.9308 -0.5272  0.4536
  750MOL0     C 3428   4.052   1.190   4.504  0.8609 -0.4529 -0.2869
  750MOL0     C 3429   4.147   1.180   4.601 -0.5631 -0.4796 -0.4726
  750MOL0     C 3430   4.202   1.315   4.663 -0.1627 -0.0043  0.1300
  750MOL0     H 3431   4.366   0.738   4.933  1.4072 -2.0000  1.5605
  750MOL0     H 3432   4.554   0.653   5.068  0.3633  2.4394  2.6080
  750MOL0     H 3433   4.686   0.650   5.209 -1.3615  1.0561 -0.6847
  750MOL0     H 3434   4.703   0.821   5.266  1.0050  1.0147 -0.9236
  750MOL0     H 3435   4.920   0.604   5.236 -0.5369 -1.8193  1.1535
  750MOL0     H 3436   4.948   0.782   5.294 -1.6637  1.7128  3.2180
  750MOL0     H 3437   4.777   0.586   5.445 -1.7425  2.0633 -3.7174
  750MOL0     H 3438   4.943   0.566   5.453  0.5711  1.5224  0.2770
  750MOL0     H 3439   4.852   0.701   5.643 -2.1896  0.2446 -0.4437
  750MOL0     H 3440   4.964   0.811   5.555 -2.1731  3.8958 -1.6960
  750MOL0     H 3441   4.664   0.804   5.510  1.4070 -1.4480 -2.3236
  750MOL0     H 3442   4.783   0.935   5.466  0.1404  1.2709 -1.2651
  750MOL0     H 3443   4.713   0.842   5.734 -0.7806 -0.5842 -1.5456
  750MOL0     H 3444   4.804   0.983   5.698 -0.4824  0.0868 -0.8881
  750MOL0     H 3445   4.541   1.008   5.744  1.2521 -2.0459  1.1198
  750MOL0     H 3446   4.518   0.968   5.575  0.8524  3.0018 -0.6488
  750MOL0     H 3447   4.666   1.190   5.707  0.9735 -2.3140  0.1836
  750MOL0     H 3448   4.680   1.157   5.524 -1.1756 -1.9783 -0.6150
  750MOL0     H 3449   4.336   1.102   5.500 -1.6540  1.0491 -0.1489
  750MOL0     H 3450   4.093   1.247   5.593  3.1525 -1.4884  0.3502
  750MOL0     H 3451   4.137   1.278   5.426  0.7341 -3.8275  1.1824
  750MOL0     H 3452   4.124   1.508   5.634  4.2028 -1.4457  0.1256
  750MOL0     H 3453   4.120   1.522   5.457 -3.7965  1.1834 -1.1902
  750MOL0     H 3454   3.903   1.420   5.424 -2.3840  2.6542 -0.4688
  750MOL0     H 3455   3.904   1.369   5.596  3.7882 -2.0786 -2.0682
  750MOL0     H 3456   3.900   1.659   5.515 -1.7484  1.5957  1.1365
  750MOL0     H 3457   3.754   1.586   5.571  0.8049  3.0179  1.2752
  750MOL0     H 3458   4.015   1.667   5.930 -0.0552 -0.0577  1.2348
  750MOL0     H 3459   4.024   1.787   6.113 -1.3967 -0.4793 -0.5649
  750MOL0     H 3460   3.955   1.944   6.151  0.1570 -0.1760  0.3525
  750MOL0     H 3461   4.110   1.939   6.076  1.7980 -2.4232 -2.7581
  750MOL0     H 3462   3.852   2.389   6.019  0.1948  0.0558  3.0348
  750MOL0     H 3463   3.757   2.595   6.051 -1.0709  0.1522 -0.0569
  750MOL0     H 3464   3.619   2.782   6.118  1.6948  1.5311 -0.4640
  750MOL0     H 3465   3.670   2.769   5.959  2.4000  2.4813  1.8214
  750MOL0     H 3466   3.461   2.948   6.084  2.3643  1.5060  0.6780
  750MOL0     H 3467   3.571   2.995   5.952 -0.8038  0.6537  2.7113
  750MOL0     H 3468   3.322   2.811   5.940 -0.7051  0.7539 -0.7529
  750MOL0     H 3469   3.415   2.863   5.800  2.8941  1.4718  0.5954
  750MOL0     H 3470   3.322   3.078   5.785  3.5007  0.7410  1.6503
  750MOL0     H 3471   3.322   3.085   5.964 -1.0009  4.2680 -2.1292
  750MOL0     H 3472   3.114   2.918   5.818  0.9365 -0.5216  0.4737
  750MOL0     H 3473   3.121   2.941   5.986 -1.8508 -0.2812 -0.2167
  750MOL0     H 3474   3.068   3.140   5.778  3.2084 -0.0965 -1.0754
  750MOL0     H 3475   3.112   3.188   5.950  1.6260 -0.2770 -0.4471
  750MOL0     H 3476   2.909   3.092   6.031 -0.9860  0.3309 -0.2603
  750MOL0     H 3477   2.893   2.993   5.899 -0.8517 -1.1062  1.1705
  750MOL0     H 3478   2.722   3.171   5.928  0.2919 -2.8185  0.3868
  750MOL0     H 3479   2.780   3.164   5.770 -0.7208 -0.1172  0.5163
  750MOL0     H 3480   3.354   2.457   5.950 -0.5798 -2.2636  1.0173
  750MOL0     H 3481   3.447   2.236   5.924  0.7798 -1.3915  1.2532
  750MOL0     H 3482   3.717   2.015   5.736 -0.7868 -0.9957 -0.9858
  750MOL0     H 3483   3.752   1.789   5.618 -0.3531 -0.2668  0.1783
  750MOL0     H 3484   4.807   0.955   4.895 -0.1702  0.7846 -1.7020
  750MOL0     H 3485   4.622   0.997   4.728 -1.6735 -0.6668 -1.9956
  750MOL0     H 3486   4.190   0.848   4.615 -0.4547 -0.2632  0.8052
  750MOL0     H 3487   4.015   0.855   4.440  3.3015 -0.9292 -1.6686
  750MOL0     H 3488   3.867   0.934   4.276  0.0793  1.2133  1.6702
  750MOL0     H 3489   3.781   1.075   4.202 -0.0975  0.4991  1.7886
  750MOL0     H 3490   3.931   1.045   4.036  1.1296 -3.3859 -0.3994
  750MOL0     H 3491   4.055   0.969   4.135 -0.5783 -1.1864  2.5352
  750MOL0     H 3492   3.979   1.275   4.129  0.4679  1.9458  1.3794
  750MOL0     H 3493   4.101   1.188   4.224 -0.0072 -1.6984 -0.2927
  750MOL0     H 3494   4.214   1.105   4.030 -2.5398 -1.7604 -0.3832
  750MOL0     H 3495   4.205   1.280   4.041  0.4309  0.0410  2.2544
  750MOL0     H 3496   3.975   1.159   3.690  1.5940  1.5167 -1.7086
  750MOL0     H 3497   4.018   1.282   4.458 -1.6897 -0.1804  1.9213
  750MOL0     H 3498   4.185   1.313   4.771  2.3600  0.4797  0.6002
  750MOL0     H 3499   4.307   1.325   4.636  0.2995 -0.8303  1.5410
  750MOL0     H 3500   4.154   1.403   4.619  0.9921  1.2326  1.2561
  751MOL0     O 3501  10.276  10.630   2.230 -0.4853  0.0960  0.5068
  751MOL0     C 3502  10.301  10.713   2.140 -0.0671  0.3601 -0.6357
  751MOL0     O 3503  10.206  10.802   2.096  0.1675 -0.1074  0.0146
  751MOL0     C 3504  10.082  10.791   2.153 -0.4211  0.6306  0.1697
  751MOL0     C 3505  10.071  10.805   2.296 -0.2910  0.7759 -0.0083
  751MOL0     C 3506   9.952  10.794   2.355  1.0049  0.4300  0.0217
  751MOL0     C 3507   9.829  10.782   2.286 -0.7149  0.9627  0.0732
  751MOL0     O 3508   9.710  10.774   2.349 -0.2290 -0.3494 -0.8879
  751MOL0     C 3509   9.687  10.880   2.451 -0.0703  0.4198 -0.2564
  751MOL0     C 3510   9.535  10.859   2.499 -0.6700 -0.1625  0.0400
  751MOL0     C 3511   9.497  10.967   2.604  0.5633  0.0057 -0.2511
  751MOL0     C 3512   9.368  10.941   2.661 -0.3213 -0.7056  0.3705
  751MOL0     C 3513   9.297  11.053   2.736  0.1623  0.3754 -1.2869
  751MOL0     C 3514   9.264  11.178   2.657  0.1345 -0.5479 -0.0189
  751MOL0     C 3515   9.165  11.282   2.732  0.1584 -0.4941 -1.0002
  751MOL0     C 3516   9.026  11.223   2.779 -0.2389 -0.1612  0.1101
  751MOL0     N 3517   8.920  11.322   2.789  0.6058 -0.0817 -0.7745
  751MOL0     C 3518   8.851  11.371   2.900  0.1180 -0.6204 -0.0127
  751MOL0     C 3519   8.738  11.425   2.859 -0.6588 -0.1617 -0.8882
  751MOL0     C 3520   8.616  11.461   2.945 -0.2153  0.0733 -0.1077
  751MOL0     C 3521   8.541  11.584   2.876  0.0555 -1.1539  0.3372
  751MOL0     C 3522   8.429  11.523   2.777  0.4290 -0.9753 -0.2271
  751MOL0     C 3523   8.384  11.627   2.682 -0.8529  0.2509 -0.3107
  751MOL0     O 3524   8.307  11.713   2.761  0.1789  0.0374  0.0791
  751MOL0     C 3525   8.219  11.796   2.697  0.2030  0.2767  0.2744
  751MOL0     C 3526   8.253  11.930   2.680  0.2267 -0.0133  0.3516
  751MOL0     C 3527   8.158  12.015   2.614  0.1325  0.1593 -0.1866
  751MOL0     C 3528   8.196  12.161   2.597  0.6814  0.5422  0.5514
  751MOL0     C 3529   8.027  11.964   2.574  0.0409 -0.5596  0.0284
  751MOL0     C 3530   7.939  12.037   2.476 -0.2253  0.3180 -0.2712
  751MOL0     O 3531   8.003  12.134   2.402  0.1115  0.8686  0.1234
  751MOL0     C 3532   7.923  12.213   2.326 -0.9479  0.1031  0.6391
  751MOL0     C 3533   7.814  12.278   2.383 -0.3179  0.0714 -0.2436
  751MOL0     C 3534   7.739  12.359   2.303  0.7533 -0.7891  0.7770
  751MOL0     C 3535   7.782  12.401   2.176 -0.5288  0.3205  0.1937
  751MOL0     O 3536   7.705  12.502   2.117  0.1949  0.2245  0.1899
  751MOL0     C 3537   7.766  12.594   2.027 -1.3869 -0.1445  0.0414
  751MOL0     C 3538   7.695  12.727   1.993 -0.6841  0.2567  0.1285
  751MOL0     C 3539   7.674  12.809   2.115  0.5856  0.2937 -0.8928
  751MOL0     C 3540   7.625  12.952   2.102 -0.2450 -0.5194  0.1521
  751MOL0     C 3541   7.745  13.055   2.087 -0.8775 -0.6040  0.1409
  751MOL0     C 3542   7.700  13.188   2.018 -0.0993 -0.1741  0.7833
  751MOL0     C 3543   7.822  13.274   1.992 -0.7665 -0.0216  0.3283
  751MOL0     C 3544   7.781  13.412   1.930 -0.4640  0.2607  0.6613
  751MOL0    Cl 3545   7.705  13.522   2.035 -0.0428 -0.0045 -0.3641
  751MOL0     C 3546   7.890  12.337   2.115 -0.1604 -0.4090 -0.3896
  751MOL0     C 3547   7.956  12.244   2.193 -0.6861  0.0350 -0.6261
  751MOL0     O 3548   7.831  11.993   2.448  0.0502 -0.6595 -0.2440
  751MOL0     C 3549   7.999  11.823   2.595  0.5772 -0.1559  0.9844
  751MOL0     C 3550   8.093  11.748   2.659 -0.1012 -0.4096  0.7729
  751MOL0     N 3551   8.742  11.419   2.722 -0.0846 -0.6549  0.4889
  751MOL0     N 3552   8.856  11.370   2.683 -0.1012  0.4982 -0.1256
  751MOL0     C 3553   9.842  10.767   2.149  0.9337  0.4748 -0.0130
  751MOL0     C 3554   9.969  10.771   2.078  1.3541  1.3644  0.2624
  751MOL0     C 3555  10.430  10.711   2.055  0.0467 -0.0110 -0.1386
  751MOL0     C 3556  10.437  10.790   1.938  0.3251  0.3758 -0.0576
  751MOL0     C 3557  10.554  10.793   1.865  1.0930  0.5280  0.4431
  751MOL0     C 3558  10.654  10.700   1.881 -0.6518  0.4673  0.4669
  751MOL0     O 3559  10.742  10.710   1.777 -0.4718 -0.2876  0.1006
  751MOL0     C 3560  10.860  10.625   1.778 -0.0802 -0.0523  0.1051
  751MOL0     C 3561  10.825  10.494   1.704 -0.1038  0.5446  1.1334
  751MOL0     C 3562  10.928  10.382   1.727 -0.8948 -0.2254  0.5962
  751MOL0     C 3563  11.060  10.420   1.646  0.4563 -1.2281  0.1603
  751MOL0     C 3564  11.188  10.451   1.719  0.2460  0.9566 -0.5865
  751MOL0     C 3565  11.294  10.464   1.782  0.7293 -0.1912  0.4684
  751MOL0     C 3566  10.655  10.628   1.995  1.5647  0.1577  0.4562
  751MOL0     C 3567  10.547  10.638   2.091  0.9287  0.3472 -0.6831
  751MOL0     C 3568  10.563  10.579   2.225  0.5431 -0.7391  0.4754
  751MOL0     H 3569  10.158  10.829   2.356 -1.3970  2.4365  1.0266
  751MOL0     H 3570   9.946  10.791   2.463  4.4500  1.5610  0.3876
  751MOL0     H 3571   9.702  10.981   2.413  0.0672  0.2454 -0.6705
  751MOL0     H 3572   9.751  10.868   2.539  1.0581  0.7279 -1.0104
  751MOL0     H 3573   9.477  10.872   2.408 -0.5895  0.7419  0.1020
  751MOL0     H 3574   9.519  10.760   2.542 -3.6749 -0.0044 -0.5495
  751MOL0     H 3575   9.579  10.959   2.676 -2.0144 -1.0552  2.7675
  751MOL0     H 3576   9.505  11.067   2.560  2.6319 -0.2728 -0.6456
  751MOL0     H 3577   9.310  10.904   2.576  3.0347  0.0262 -2.4549
  751MOL0     H 3578   9.375  10.859   2.732 -0.2341 -0.6179  0.4646
  751MOL0     H 3579   9.357  11.081   2.823 -2.0263  0.4115  0.2855
  751MOL0     H 3580   9.209  11.011   2.785  0.7873 -1.2486 -1.4973
  751MOL0     H 3581   9.354  11.233   2.628  1.2445 -1.9883  0.5683
  751MOL0     H 3582   9.217  11.153   2.561  1.1506  0.9040 -0.9226
  751MOL0     H 3583   9.144  11.362   2.661 -1.4783 -0.7959 -0.8979
  751MOL0     H 3584   9.220  11.327   2.815  1.8401  1.6297 -3.1292
  751MOL0     H 3585   8.997  11.138   2.717 -1.1862 -0.2021  0.5951
  751MOL0     H 3586   9.044  11.185   2.880 -0.6492  2.6117  1.3042
  751MOL0     H 3587   8.872  11.345   3.003 -1.9888  3.0716  1.5389
  751MOL0     H 3588   8.636  11.469   3.052  1.1301  0.2521 -0.3563
  751MOL0     H 3589   8.546  11.377   2.939 -0.3812  0.0350  1.7077
  751MOL0     H 3590   8.494  11.659   2.940 -2.1629 -2.6864  0.6023
  751MOL0     H 3591   8.617  11.645   2.827  0.1183 -1.4871  0.0175
  751MOL0     H 3592   8.475  11.436   2.729  2.2405  0.7722 -1.8717
  751MOL0     H 3593   8.343  11.480   2.829 -0.4773 -0.9938 -1.6819
  751MOL0     H 3594   8.466  11.682   2.634  2.0009 -0.3703  3.3695
  751MOL0     H 3595   8.317  11.591   2.604 -0.0494 -1.3205 -0.3177
  751MOL0     H 3596   8.356  11.959   2.698 -0.0050  0.5342  0.8073
  751MOL0     H 3597   8.240  12.183   2.499 -1.1726  0.6309 -0.3075
  751MOL0     H 3598   8.265  12.184   2.679 -1.8972  1.6598  2.5162
  751MOL0     H 3599   8.106  12.223   2.603  0.3361  0.2646 -1.2205
  751MOL0     H 3600   7.774  12.257   2.481 -1.0197 -1.4054 -0.8184
  751MOL0     H 3601   7.654  12.407   2.351  0.8506 -1.6516  1.8718
  751MOL0     H 3602   7.853  12.624   2.087 -0.6256 -0.2057 -1.0105
  751MOL0     H 3603   7.792  12.550   1.931 -2.0225  2.9239 -1.6694
  751MOL0     H 3604   7.760  12.780   1.923  1.9085 -0.2703  1.9597
  751MOL0     H 3605   7.607  12.697   1.937 -0.3661 -2.2967  0.8701
  751MOL0     H 3606   7.763  12.799   2.177  0.7909 -3.5440 -1.5342
  751MOL0     H 3607   7.595  12.762   2.175  0.4553  1.2662 -0.2857
  751MOL0     H 3608   7.578  12.997   2.190  0.6558  1.6292 -0.3898
  751MOL0     H 3609   7.557  12.972   2.019  2.3922  2.5028 -1.4873
  751MOL0     H 3610   7.793  13.088   2.180  1.5573  1.0981 -1.5824
  751MOL0     H 3611   7.820  13.001   2.028  0.1659  0.0592  0.8236
  751MOL0     H 3612   7.622  13.244   2.071 -0.5494 -2.0271  2.1587
  751MOL0     H 3613   7.648  13.161   1.925  0.7443 -0.1888  0.3096
  751MOL0     H 3614   7.888  13.229   1.917 -0.3144 -0.6518  1.0900
  751MOL0     H 3615   7.885  13.304   2.076  2.0408 -1.2415 -1.2008
  751MOL0     H 3616   7.708  13.390   1.851 -2.5695  3.7855  1.4348
  751MOL0     H 3617   7.867  13.465   1.888 -0.4938 -0.0723  0.1653
  751MOL0     H 3618   7.920  12.372   2.017  0.3907  3.0394  0.8881
  751MOL0     H 3619   8.034  12.178   2.155  0.0171 -0.0484  0.8772
  751MOL0     H 3620   7.905  11.776   2.567  1.3750 -3.1476  2.8467
  751MOL0     H 3621   8.068  11.643   2.668  0.1701 -0.3446  2.7545
  751MOL0     H 3622   9.754  10.771   2.087  1.5502  1.2300 -0.8639
  751MOL0     H 3623   9.952  10.766   1.971 -1.2867  0.4084  0.6318
  751MOL0     H 3624  10.363  10.865   1.911  0.8876  1.8166  2.1519
  751MOL0     H 3625  10.551  10.858   1.778  1.0964 -0.2685 -0.1670
  751MOL0     H 3626  10.938  10.673   1.719  0.0739 -3.1191 -2.4684
  751MOL0     H 3627  10.907  10.607   1.875  0.6338 -2.6434 -0.6284
  751MOL0     H 3628  10.828  10.525   1.599  0.4179  1.7405  1.4900
  751MOL0     H 3629  10.724  10.459   1.729  0.0381 -1.4713 -0.7784
  751MOL0     H 3630  10.951  10.357   1.831  0.8331  1.2740  0.6264
  751MOL0     H 3631  10.888  10.292   1.679 -0.4806  0.8448 -1.8855
  751MOL0     H 3632  11.050  10.518   1.600  0.4527 -0.1125  2.4160
  751MOL0     H 3633  11.083  10.354   1.561 -0.0022  0.3291 -1.2283
  751MOL0     H 3634  11.382  10.485   1.838  0.3254  0.5402  0.8517
  751MOL0     H 3635  10.746  10.573   2.017  2.0059 -1.2521 -3.9722
  751MOL0     H 3636  10.555  10.655   2.303  2.1707 -0.0886  0.0489
  751MOL0     H 3637  10.487  10.502   2.243  0.7960 -1.0321  0.3072
  751MOL0     H 3638  10.662  10.534   2.237  0.8961  0.3532  2.0275
  752MOL0     O 3639  11.506   0.515   8.589  0.8484 -0.8202  0.4350
  752MOL0     C 3640  11.491   0.419   8.525  0.2786 -0.2585  0.7036
  752MOL0     O 3641  11.575   0.317   8.506 -0.2159 -0.2606  0.5403
  752MOL0     C 3642  11.695   0.309   8.581 -0.7762 -0.5605 -0.3053
  752MOL0     C 3643  11.725   0.210   8.674  0.1632 -0.2189  0.1444
  752MOL0     C 3644  11.847   0.204   8.739 -0.3035 -0.4851 -0.6010
  752MOL0     C 3645  11.959   0.273   8.695 -0.0337 -0.2875 -0.5090
  752MOL0     O 3646  12.082   0.241   8.756 -0.1156 -0.1346 -0.0716
  752MOL0     C 3647  12.172   0.354   8.771  0.1307 -0.1411  0.2605
  752MOL0     C 3648  12.288   0.296   8.847 -0.6755 -0.3894  0.5087
  752MOL0     C 3649  12.395   0.393   8.910  0.2206 -0.0048 -0.1269
  752MOL0     C 3650  12.316   0.507   8.979 -0.3519 -1.2059 -0.3714
  752MOL0     C 3651  12.408   0.597   9.074  0.7642  0.0546 -0.0879
  752MOL0     C 3652  12.500   0.688   8.993 -0.2977  0.5989  0.2821
  752MOL0     C 3653  12.519   0.816   9.071 -1.0448 -0.1019  0.6901
  752MOL0     C 3654  12.628   0.903   9.012 -0.7307  0.2430  0.0251
  752MOL0     N 3655  12.755   0.819   9.005  0.7325  0.4134  0.3356
  752MOL0     C 3656  12.827   0.777   8.893 -0.4102 -0.0818 -0.0036
  752MOL0     C 3657  12.922   0.690   8.933 -0.0937  0.1238  0.0053
  752MOL0     C 3658  13.008   0.609   8.848 -0.6871  0.7114 -0.6833
  752MOL0     C 3659  12.934   0.489   8.793 -0.1854 -0.1221  0.2572
  752MOL0     C 3660  12.876   0.531   8.657 -0.3982 -0.9910  0.5607
  752MOL0     C 3661  12.808   0.419   8.565 -0.0844  0.1533 -0.1882
  752MOL0     O 3662  12.915   0.331   8.509 -0.0861 -0.8640 -0.0524
  752MOL0     C 3663  12.884   0.194   8.473  0.2800  0.0377  0.2443
  752MOL0     C 3664  12.842   0.145   8.348 -0.0555 -0.0665  0.3875
  752MOL0     C 3665  12.822   0.014   8.330 -1.3854  0.6870  0.5360
  752MOL0     C 3666  12.787  -0.016   8.187  0.0401  0.9396  0.0444
  752MOL0     C 3667  12.839  -0.081   8.439  1.1878 -0.9044 -0.0591
  752MOL0     C 3668  12.825  -0.231   8.419 -0.0140 -0.1749 -0.1011
  752MOL0     O 3669  12.821  -0.279   8.298 -0.0477  0.3597  0.1197
  752MOL0     C 3670  12.838  -0.415   8.295  0.8345  0.8088  0.3286
  752MOL0     C 3671  12.736  -0.512   8.291  0.4315  0.1881 -0.6364
  752MOL0     C 3672  12.756  -0.650   8.277 -0.3882  0.1722 -0.7604
  752MOL0     C 3673  12.886  -0.694   8.244  0.2666 -0.5453 -0.0309
  752MOL0     O 3674  12.927  -0.821   8.196 -0.3991 -0.2406 -0.2887
  752MOL0     C 3675  12.846  -0.934   8.223  0.1645 -0.0465 -0.3567
  752MOL0     C 3676  12.911  -1.078   8.217 -0.7263 -0.3161  0.1673
  752MOL0     C 3677  12.816  -1.187   8.279 -0.4423  0.8145  0.1806
  752MOL0     C 3678  12.893  -1.322   8.301 -0.5723 -1.3291  0.8483
  752MOL0     C 3679  12.790  -1.424   8.356 -1.1614 -0.0800  0.6211
  752MOL0     C 3680  12.844  -1.565   8.367 -0.1474 -0.4646  0.2805
  752MOL0     C 3681  12.901  -1.616   8.231 -0.1666 -0.4732  0.0028
  752MOL0     C 3682  12.925  -1.768   8.229  0.0309  0.8256 -0.1041
  752MOL0    Cl 3683  12.785  -1.873   8.271 -0.1416  0.2906 -0.1074
  752MOL0     C 3684  12.983  -0.594   8.234  0.6004 -0.6671  0.0278
  752MOL0     C 3685  12.969  -0.466   8.265 -0.0606 -0.8502  1.2512
  752MOL0     O 3686  12.806  -0.295   8.524  0.2999  0.0883 -0.0874
  752MOL0     C 3687  12.884  -0.027   8.564  0.2401 -0.3425  0.4288
  752MOL0     C 3688  12.906   0.107   8.575 -0.4493  0.4894 -0.4116
  752MOL0     N 3689  12.911   0.702   9.071 -1.0885 -0.7468 -0.3705
  752MOL0     N 3690  12.821   0.784   9.112  0.6480 -0.1323  1.4004
  752MOL0     C 3691  11.924   0.377   8.602  0.1403 -0.7641 -0.3986
  752MOL0     C 3692  11.802   0.402   8.549 -0.1314 -0.5296 -0.4372
  752MOL0     C 3693  11.358   0.410   8.447  0.0886 -0.8966  0.6544
  752MOL0     C 3694  11.278   0.528   8.440  0.3514  0.8017  0.5260
  752MOL0     C 3695  11.155   0.521   8.374  0.1465 -0.3321  0.5681
  752MOL0     C 3696  11.112   0.406   8.307 -0.8724  0.4795 -1.3264
  752MOL0     O 3697  10.995   0.399   8.248  1.1206  0.8487  0.4871
  752MOL0     C 3698  10.990   0.356   8.112  0.2062 -0.2856  0.1129
  752MOL0     C 3699  11.038   0.464   8.012  0.3713 -0.3742  0.1329
  752MOL0     C 3700  11.003   0.615   8.034  0.7382  0.2010  0.5890
  752MOL0     C 3701  10.977   0.700   7.905  1.0295  0.0075  0.2553
  752MOL0     C 3702  10.850   0.675   7.847  0.5404 -0.1849  0.1089
  752MOL0     C 3703  10.735   0.663   7.807 -0.3901 -0.0701 -0.7543
  752MOL0     C 3704  11.190   0.290   8.318 -0.8975  0.3501  0.1970
  752MOL0     C 3705  11.318   0.287   8.378  0.8024 -0.5240 -0.5240
  752MOL0     C 3706  11.401   0.152   8.366  0.5386 -0.1374 -1.3938
  752MOL0     H 3707  11.665   0.121   8.687  4.1269 -3.1678  0.1186
  752MOL0     H 3708  11.859   0.125   8.813 -0.4687  1.1044  1.1941
  752MOL0     H 3709  12.117   0.427   8.831  2.1176  1.8995 -0.2424
  752MOL0     H 3710  12.192   0.401   8.674 -1.6805  1.6005  0.6641
  752MOL0     H 3711  12.254   0.228   8.926  0.5162 -1.5759  0.0331
  752MOL0     H 3712  12.351   0.234   8.782 -0.0757  0.9856 -0.2822
  752MOL0     H 3713  12.448   0.345   8.992  1.3014 -0.1940 -0.9118
  752MOL0     H 3714  12.469   0.419   8.834 -0.3877  2.2764 -0.0390
  752MOL0     H 3715  12.270   0.570   8.903  0.4835 -0.0220  0.0811
  752MOL0     H 3716  12.246   0.454   9.044 -1.1090  2.9331  2.6054
  752MOL0     H 3717  12.462   0.519   9.129 -1.4179 -3.1401 -2.1387
  752MOL0     H 3718  12.337   0.644   9.142  1.7824 -0.1078  1.1399
  752MOL0     H 3719  12.596   0.640   8.972 -0.9006 -0.6071  0.2578
  752MOL0     H 3720  12.463   0.712   8.893  1.2180 -1.0937 -0.7372
  752MOL0     H 3721  12.544   0.801   9.176  1.4516 -0.5562  0.0960
  752MOL0     H 3722  12.428   0.876   9.068  1.2615  4.1039  3.9681
  752MOL0     H 3723  12.612   0.933   8.908 -0.8910 -1.1847 -0.3746
  752MOL0     H 3724  12.641   0.996   9.068 -2.7483  0.8575 -0.4405
  752MOL0     H 3725  12.804   0.820   8.797 -0.8577 -1.2262 -0.4247
  752MOL0     H 3726  13.101   0.572   8.893 -1.3796 -0.9057 -0.5046
  752MOL0     H 3727  13.056   0.668   8.769  1.9517 -0.6289 -0.1964
  752MOL0     H 3728  13.003   0.404   8.802  0.5417  0.5609  1.3338
  752MOL0     H 3729  12.852   0.457   8.858 -0.4206 -0.2211 -0.0843
  752MOL0     H 3730  12.811   0.616   8.675  2.7717  2.3800 -2.3728
  752MOL0     H 3731  12.960   0.574   8.602 -0.6992 -1.2910 -0.1460
  752MOL0     H 3732  12.736   0.368   8.629  0.2678 -0.8629 -0.5820
  752MOL0     H 3733  12.752   0.461   8.481 -3.6119 -1.4580  1.1754
  752MOL0     H 3734  12.812   0.226   8.283  1.5217 -0.4759 -0.9162
  752MOL0     H 3735  12.705  -0.088   8.185  1.8911 -1.2685 -1.8379
  752MOL0     H 3736  12.863  -0.060   8.123 -1.3695  0.8662 -1.6576
  752MOL0     H 3737  12.746   0.069   8.131 -1.1625  1.0333  1.0126
  752MOL0     H 3738  12.634  -0.476   8.297  0.6344  0.5420  1.1502
  752MOL0     H 3739  12.682  -0.728   8.289  1.2968 -1.0445  3.7699
  752MOL0     H 3740  12.812  -0.922   8.326  0.4450 -1.4232 -0.0873
  752MOL0     H 3741  12.754  -0.932   8.165  2.0999 -0.7133 -3.7429
  752MOL0     H 3742  12.932  -1.100   8.112 -0.6385 -4.2078  0.8505
  752MOL0     H 3743  13.007  -1.077   8.269 -0.3657 -5.9088  0.2165
  752MOL0     H 3744  12.745  -1.212   8.200  1.6957 -3.8110 -0.6607
  752MOL0     H 3745  12.777  -1.155   8.376  0.0550  1.5546  0.1432
  752MOL0     H 3746  12.982  -1.308   8.363  0.0713  1.3514 -0.5480
  752MOL0     H 3747  12.941  -1.344   8.206  0.1688  1.5060  0.4678
  752MOL0     H 3748  12.765  -1.384   8.455  1.2140  0.2618  1.1371
  752MOL0     H 3749  12.700  -1.427   8.294 -2.3523 -2.3573  2.3066
  752MOL0     H 3750  12.757  -1.625   8.392 -0.0763 -0.0964  1.4868
  752MOL0     H 3751  12.918  -1.571   8.448 -0.2516  0.3578  0.4519
  752MOL0     H 3752  12.993  -1.567   8.201 -0.6549  1.0627  0.9099
  752MOL0     H 3753  12.820  -1.595   8.161 -2.2718 -0.6032  2.2584
  752MOL0     H 3754  12.993  -1.787   8.313  0.3134  3.3416  0.3028
  752MOL0     H 3755  12.975  -1.809   8.141 -0.3925 -1.4652  0.6339
  752MOL0     H 3756  13.086  -0.619   8.207 -0.1762  0.4024 -4.9846
  752MOL0     H 3757  13.052  -0.400   8.242  1.1704 -2.5888  0.4622
  752MOL0     H 3758  12.885  -0.099   8.645 -2.6650 -0.2106  0.6662
  752MOL0     H 3759  12.940   0.150   8.668  1.3107 -2.2203  0.3297
  752MOL0     H 3760  11.997   0.448   8.566  0.3922 -1.8526 -2.1433
  752MOL0     H 3761  11.790   0.490   8.486  0.2953 -0.8951 -1.0410
  752MOL0     H 3762  11.300   0.617   8.498  0.2971 -0.3465  2.3731
  752MOL0     H 3763  11.090   0.608   8.369  0.7836  0.0847 -2.0311
  752MOL0     H 3764  11.053   0.267   8.107  1.2262  0.4763 -1.6151
  752MOL0     H 3765  10.891   0.314   8.091 -0.3798  0.4730  1.2552
  752MOL0     H 3766  10.994   0.430   7.918 -0.0172 -1.0742  0.5619
  752MOL0     H 3767  11.146   0.449   7.996 -0.0119 -1.3636 -1.9117
  752MOL0     H 3768  10.915   0.615   8.100  2.5002 -1.7414  3.1681
  752MOL0     H 3769  11.090   0.658   8.086  0.9352 -3.8535  4.1713
  752MOL0     H 3770  11.048   0.678   7.825 -1.9680  1.7934 -3.2448
  752MOL0     H 3771  10.979   0.806   7.933 -0.7603 -0.2579  1.6553
  752MOL0     H 3772  10.640   0.645   7.762 -1.1419 -0.6527  1.0090
  752MOL0     H 3773  11.144   0.193   8.300  3.6382 -2.9152  3.6094
  752MOL0     H 3774  11.357   0.078   8.299  1.2201 -1.0932 -0.8156
  752MOL0     H 3775  11.495   0.169   8.314  0.6280 -2.0931 -1.9486
  752MOL0     H 3776  11.418   0.102   8.462  0.8379 -0.6835 -1.7297
  753MOL0     O 3777   5.383   2.509   4.179 -0.3873 -0.3606 -0.1511
  753MOL0     C 3778   5.277   2.484   4.237 -0.4768  0.4134 -0.7132
  753MOL0     O 3779   5.213   2.576   4.316 -0.6777  0.3881 -0.3368
  753MOL0     C 3780   5.246   2.711   4.308 -0.7728 -0.3383  0.5021
  753MOL0     C 3781   5.225   2.790   4.194 -0.2410  0.1174  0.0228
  753MOL0     C 3782   5.269   2.923   4.202  0.0971 -1.3152 -0.8278
  753MOL0     C 3783   5.316   2.980   4.322 -1.3973 -0.8114  0.8640
  753MOL0     O 3784   5.385   3.097   4.339 -0.3961  1.0718  0.5926
  753MOL0     C 3785   5.407   3.182   4.234  0.7295  0.2027 -0.1492
  753MOL0     C 3786   5.442   3.307   4.295  0.2433 -0.2953  0.4563
  753MOL0     C 3787   5.472   3.411   4.180  0.6125 -1.2736  0.0743
  753MOL0     C 3788   5.618   3.391   4.122 -0.1903  0.4029 -0.5634
  753MOL0     C 3789   5.626   3.471   3.995 -0.6522 -0.2397  0.9531
  753MOL0     C 3790   5.720   3.403   3.899 -0.2442 -0.0070 -0.0493
  753MOL0     C 3791   5.650   3.288   3.821 -1.5433 -0.4875 -0.6258
  753MOL0     C 3792   5.750   3.222   3.734 -0.1588  0.1327  1.1778
  753MOL0     N 3793   5.681   3.144   3.614 -0.2659 -0.1314 -0.6580
  753MOL0     C 3794   5.696   3.170   3.479 -1.2511 -0.2648 -0.4113
  753MOL0     C 3795   5.624   3.079   3.411  0.9723  0.1078  0.2476
  753MOL0     C 3796   5.632   3.043   3.257 -0.4072  0.0057 -0.4604
  753MOL0     C 3797   5.765   3.078   3.198  0.4728 -0.3581  0.4111
  753MOL0     C 3798   5.756   3.051   3.056  0.0804  0.3500 -0.4982
  753MOL0     C 3799   5.896   3.065   2.992  0.2406  0.4167  0.5843
  753MOL0     O 3800   5.944   3.195   2.950 -0.3436  0.4502  0.9462
  753MOL0     C 3801   5.888   3.264   2.846 -0.1301  0.4268  0.0876
  753MOL0     C 3802   5.810   3.210   2.754  0.5558 -0.2527  0.7670
  753MOL0     C 3803   5.735   3.278   2.660  0.1415 -0.8209 -0.3928
  753MOL0     C 3804   5.669   3.196   2.552  0.7310  0.3558  0.0389
  753MOL0     C 3805   5.731   3.417   2.673  0.1432  0.0739  0.3152
  753MOL0     C 3806   5.656   3.500   2.581  1.4461  0.6566  0.3677
  753MOL0     O 3807   5.732   3.597   2.515  0.9397  0.3666  0.4245
  753MOL0     C 3808   5.653   3.674   2.425 -0.1996  0.3336 -0.5597
  753MOL0     C 3809   5.658   3.812   2.426 -0.5771 -0.6366  0.5662
  753MOL0     C 3810   5.605   3.887   2.325  0.8969 -0.1241  0.0698
  753MOL0     C 3811   5.525   3.824   2.225 -0.5408  0.7131  0.5659
  753MOL0     O 3812   5.479   3.891   2.113  0.2621  0.3407  0.5508
  753MOL0     C 3813   5.455   3.836   1.977 -0.0036  0.7318  0.1533
  753MOL0     C 3814   5.578   3.860   1.894  0.9743  0.6289  0.7751
  753MOL0     C 3815   5.558   3.794   1.746  0.6764  0.2742  0.7010
  753MOL0     C 3816   5.666   3.822   1.652 -0.4654 -0.5733  0.0692
  753MOL0     C 3817   5.800   3.755   1.684 -0.4016 -1.1164 -0.0596
  753MOL0     C 3818   5.899   3.791   1.567  0.3223  0.1068  1.3918
  753MOL0     C 3819   6.034   3.719   1.588  0.5023  0.5652 -0.8464
  753MOL0     C 3820   6.125   3.814   1.659  0.5053 -0.8788 -0.1125
  753MOL0    Cl 3821   6.184   3.952   1.565 -0.0872 -0.4046  0.0442
  753MOL0     C 3822   5.512   3.682   2.223  0.6494 -0.8047 -1.3714
  753MOL0     C 3823   5.586   3.604   2.323  0.4324 -0.5892  0.4932
  753MOL0     O 3824   5.526   3.492   2.583 -0.2828  0.2211  0.1333
  753MOL0     C 3825   5.814   3.484   2.764 -0.3795  0.9208  0.6127
  753MOL0     C 3826   5.897   3.398   2.852 -1.2403  0.2000 -0.2252
  753MOL0     N 3827   5.549   3.021   3.511 -0.1369  0.3627  0.4648
  753MOL0     N 3828   5.588   3.053   3.635  0.0512 -0.4633 -0.4975
  753MOL0     C 3829   5.332   2.908   4.428  1.3670  0.3164 -0.6682
  753MOL0     C 3830   5.298   2.770   4.426 -0.5167  0.6151  0.4819
  753MOL0     C 3831   5.216   2.344   4.255 -0.3728 -0.0447 -0.1990
  753MOL0     C 3832   5.108   2.332   4.332  0.9908  0.1440  0.5596
  753MOL0     C 3833   5.042   2.210   4.350  0.7188  0.3640 -0.6267
  753MOL0     C 3834   5.081   2.093   4.283  0.0359 -0.1327 -0.7468
  753MOL0     O 3835   5.020   1.972   4.292  0.8305  0.3049  0.3689
  753MOL0     C 3836   4.875   1.982   4.288 -0.1477  0.4054 -0.2279
  753MOL0     C 3837   4.823   1.834   4.285  1.1099 -1.3235  0.7118
  753MOL0     C 3838   4.814   1.778   4.431 -0.8308 -0.1974  0.5001
  753MOL0     C 3839   4.718   1.677   4.470  0.6774 -0.3096  0.4850
  753MOL0     C 3840   4.586   1.741   4.497  0.6077 -0.1538  0.7265
  753MOL0     C 3841   4.476   1.795   4.511  1.3453 -0.2910 -0.1112
  753MOL0     C 3842   5.196   2.104   4.200 -0.8299  0.2880  0.3926
  753MOL0     C 3843   5.264   2.226   4.184  0.8250 -0.1300  0.0196
  753MOL0     C 3844   5.376   2.239   4.083  0.0105  0.8127 -0.4159
  753MOL0     H 3845   5.188   2.745   4.103  1.0495  0.4809 -0.7080
  753MOL0     H 3846   5.270   2.992   4.118  2.6563  2.2447  1.8481
  753MOL0     H 3847   5.319   3.185   4.169  1.8560 -1.3566 -1.8508
  753MOL0     H 3848   5.490   3.139   4.177  0.4588 -2.2359  1.1530
  753MOL0     H 3849   5.360   3.341   4.358 -1.6578 -3.6150  0.0375
  753MOL0     H 3850   5.539   3.291   4.345  0.4191 -0.4615  0.0621
  753MOL0     H 3851   5.394   3.397   4.104  1.2731 -2.8214 -0.3707
  753MOL0     H 3852   5.472   3.508   4.229 -1.6309 -1.6196  0.9177
  753MOL0     H 3853   5.690   3.440   4.188  0.1520  0.6199 -1.0904
  753MOL0     H 3854   5.637   3.285   4.104 -1.1593 -0.2287  1.6877
  753MOL0     H 3855   5.665   3.568   4.028 -2.0410 -1.1502  6.0835
  753MOL0     H 3856   5.531   3.482   3.943 -0.3777  1.9240  0.8187
  753MOL0     H 3857   5.737   3.478   3.821 -2.5157  0.4036 -0.2273
  753MOL0     H 3858   5.817   3.365   3.930  0.0234  0.5576 -0.1756
  753MOL0     H 3859   5.573   3.332   3.757  0.8827  2.6610 -1.6810
  753MOL0     H 3860   5.603   3.221   3.894  2.2304 -1.6213  1.0415
  753MOL0     H 3861   5.840   3.276   3.702  0.4631 -1.4557  0.1289
  753MOL0     H 3862   5.792   3.140   3.793 -1.9854  0.0005  2.3491
  753MOL0     H 3863   5.770   3.242   3.444 -0.7725 -0.8737 -0.6695
  753MOL0     H 3864   5.567   3.121   3.218  2.1935  2.4686 -0.2101
  753MOL0     H 3865   5.606   2.941   3.226  0.9264  0.2601 -2.5635
  753MOL0     H 3866   5.801   3.180   3.213 -0.9926  0.3260 -0.5146
  753MOL0     H 3867   5.824   3.001   3.249 -1.6144  0.0052  3.6447
  753MOL0     H 3868   5.716   2.950   3.044  1.3995 -0.5323  1.8475
  753MOL0     H 3869   5.679   3.116   3.014 -0.9350 -0.0086  0.7459
  753MOL0     H 3870   5.975   3.047   3.065  0.4541 -1.8644 -0.1197
  753MOL0     H 3871   5.902   2.987   2.915 -0.6867 -0.7800  1.6653
  753MOL0     H 3872   5.812   3.104   2.730 -1.7872 -0.1860  0.0210
  753MOL0     H 3873   5.569   3.172   2.590 -0.8859  3.3591 -1.9453
  753MOL0     H 3874   5.729   3.107   2.528 -1.8667 -1.6603  0.4757
  753MOL0     H 3875   5.653   3.253   2.460  1.4347  1.2110  0.4376
  753MOL0     H 3876   5.721   3.862   2.500  0.3018 -0.1840 -0.4526
  753MOL0     H 3877   5.622   3.994   2.319 -1.3111  0.1976 -2.4238
  753MOL0     H 3878   5.426   3.731   1.967 -0.2777  1.0475 -4.4931
  753MOL0     H 3879   5.369   3.883   1.930 -1.8053 -0.5630  1.9613
  753MOL0     H 3880   5.599   3.967   1.892  4.0549  0.1635 -2.6423
  753MOL0     H 3881   5.658   3.797   1.935 -0.6320 -3.5817 -1.8308
  753MOL0     H 3882   5.466   3.844   1.715  0.6630  0.4112  0.9643
  753MOL0     H 3883   5.536   3.688   1.762  2.3284  0.2008  2.9273
  753MOL0     H 3884   5.695   3.927   1.663  0.1322 -0.7169 -0.0924
  753MOL0     H 3885   5.636   3.799   1.549 -0.6048 -1.3072  0.2713
  753MOL0     H 3886   5.851   3.794   1.773  2.2062 -0.8609 -1.5566
  753MOL0     H 3887   5.790   3.650   1.712  0.1962  0.0747  5.9299
  753MOL0     H 3888   5.931   3.896   1.559 -2.3105  0.8263 -3.6522
  753MOL0     H 3889   5.851   3.778   1.470 -2.0439 -0.2415  2.5384
  753MOL0     H 3890   6.071   3.691   1.489 -0.4263 -0.3330 -0.9554
  753MOL0     H 3891   6.020   3.631   1.651  1.3339  1.0235  0.0059
  753MOL0     H 3892   6.222   3.768   1.680  0.9758  1.5038  4.0098
  753MOL0     H 3893   6.080   3.851   1.751  1.7198  3.4775 -1.0417
  753MOL0     H 3894   5.441   3.634   2.157 -0.4272  1.0618 -1.6215
  753MOL0     H 3895   5.571   3.496   2.323 -0.2025 -0.5236  1.3764
  753MOL0     H 3896   5.815   3.592   2.774  1.4771  0.7612  3.1766
  753MOL0     H 3897   5.957   3.438   2.934 -0.8267  0.2094 -0.5290
  753MOL0     H 3898   5.367   2.952   4.521  0.1220  0.2788 -0.1674
  753MOL0     H 3899   5.325   2.713   4.514  4.4396 -0.7333 -1.5970
  753MOL0     H 3900   5.059   2.416   4.381 -0.9464 -0.9004  0.5116
  753MOL0     H 3901   4.960   2.202   4.421 -0.3898 -0.7000 -1.9696
  753MOL0     H 3902   4.836   2.027   4.380 -0.7737 -0.2064 -0.1884
  753MOL0     H 3903   4.843   2.040   4.201 -2.1455 -1.0033 -0.5116
  753MOL0     H 3904   4.900   1.781   4.229  1.3402 -0.6206  0.3458
  753MOL0     H 3905   4.736   1.826   4.219  2.5555  0.9904 -1.6489
  753MOL0     H 3906   4.912   1.732   4.449 -0.1554  1.3257  0.9166
  753MOL0     H 3907   4.813   1.856   4.508  5.0490  0.7554  0.0757
  753MOL0     H 3908   4.734   1.622   4.563  0.4997 -0.6797  0.3002
  753MOL0     H 3909   4.713   1.600   4.392  0.1384  0.7093 -0.5201
  753MOL0     H 3910   4.379   1.836   4.528  0.9821 -0.5362 -1.4815
  753MOL0     H 3911   5.220   2.010   4.151 -1.4257 -0.6581  1.8448
  753MOL0     H 3912   5.472   2.255   4.133 -0.8070  1.2816  1.0794
  753MOL0     H 3913   5.379   2.148   4.023 -1.3493  0.6060 -0.2020
  753MOL0     H 3914   5.358   2.323   4.016 -1.7485  1.0606  0.3138
  754MOL0     O 3915   1.319   6.353   1.623 -0.2533 -0.1385 -1.0399
  754MOL0     C 3916   1.388   6.249   1.638  0.9894 -0.3726  0.3392
  754MOL0     O 3917   1.397   6.174   1.754  0.0003  0.7125  0.6757
  754MOL0     C 3918   1.313   6.211   1.857 -0.8303  0.4583 -0.3430
  754MOL0     C 3919   1.356   6.242   1.989 -0.6072 -0.8143  0.2027
  754MOL0     C 3920   1.272   6.270   2.092  0.3986  0.2877  0.3903
  754MOL0     C 3921   1.138   6.266   2.074  0.0089 -0.6171 -0.6366
  754MOL0     O 3922   1.052   6.272   2.175  0.1632 -0.2463 -0.3025
  754MOL0     C 3923   1.034   6.384   2.260  0.3214 -0.1339  0.6850
  754MOL0     C 3924   0.886   6.432   2.260 -0.6460  0.3467  1.2834
  754MOL0     C 3925   0.859   6.577   2.191 -0.9217  0.6574 -0.2112
  754MOL0     C 3926   0.715   6.623   2.219 -0.3161  0.9878  0.6280
  754MOL0     C 3927   0.679   6.768   2.174  0.1420  0.4186 -0.0913
  754MOL0     C 3928   0.693   6.790   2.024 -0.6393 -0.7535  0.4452
  754MOL0     C 3929   0.719   6.936   1.981  0.5130 -0.3139  0.4196
  754MOL0     C 3930   0.588   6.996   1.935  0.1369 -0.1218  0.0508
  754MOL0     N 3931   0.627   7.109   1.854  0.6329  0.9108  0.2173
  754MOL0     C 3932   0.630   7.114   1.717 -0.3096  0.2884 -0.4716
  754MOL0     C 3933   0.647   7.244   1.680 -0.8363  0.6380 -1.2399
  754MOL0     C 3934   0.656   7.283   1.536 -0.0783  0.4573  0.1604
  754MOL0     C 3935   0.702   7.428   1.510  0.4120  0.4827 -1.1749
  754MOL0     C 3936   0.719   7.469   1.369 -0.6185 -0.1313  0.0993
  754MOL0     C 3937   0.755   7.617   1.343 -0.9123  0.8071  0.1808
  754MOL0     O 3938   0.754   7.646   1.195  0.1424  0.6778  0.4390
  754MOL0     C 3939   0.854   7.581   1.130  1.3491 -0.1670 -0.7163
  754MOL0     C 3940   0.800   7.521   1.006 -0.0086  0.2421 -0.0557
  754MOL0     C 3941   0.884   7.459   0.914 -0.3647 -0.0397 -0.1860
  754MOL0     C 3942   0.817   7.403   0.782 -0.0249  0.1539 -0.2043
  754MOL0     C 3943   1.020   7.453   0.942 -0.4801 -0.7017  1.0463
  754MOL0     C 3944   1.114   7.393   0.840 -0.5727 -0.6569  0.0860
  754MOL0     O 3945   1.241   7.441   0.865  0.6493 -0.3752  0.0072
  754MOL0     C 3946   1.348   7.416   0.791  0.9448 -0.1026 -0.4050
  754MOL0     C 3947   1.371   7.291   0.751  0.6767 -0.5674 -0.5976
  754MOL0     C 3948   1.471   7.251   0.667 -0.2415  0.0140 -0.0201
  754MOL0     C 3949   1.562   7.352   0.627  0.7257  0.3410 -0.3700
  754MOL0     O 3950   1.664   7.313   0.550 -0.4622 -0.2246  0.3914
  754MOL0     C 3951   1.740   7.408   0.477 -0.3441 -0.3532  0.4436
  754MOL0     C 3952   1.666   7.476   0.359  0.2130 -1.0116  0.7134
  754MOL0     C 3953   1.756   7.579   0.289  0.2428 -0.4919 -0.0692
  754MOL0     C 3954   1.816   7.514   0.165 -0.6124  0.8330  0.0836
  754MOL0     C 3955   1.902   7.614   0.095 -0.1357 -0.0088 -0.2210
  754MOL0     C 3956   1.952   7.571  -0.048  1.1196  0.5264 -0.1883
  754MOL0     C 3957   2.035   7.674  -0.107  0.3312 -0.3212  0.1811
  754MOL0     C 3958   2.082   7.621  -0.248  0.3542 -0.1779  0.4793
  754MOL0    Cl 3959   2.107   7.754  -0.357  0.1873  0.7613 -0.2212
  754MOL0     C 3960   1.544   7.480   0.671  0.4678 -0.3622 -0.2942
  754MOL0     C 3961   1.433   7.513   0.755  0.2124 -0.6510  0.0306
  754MOL0     O 3962   1.083   7.312   0.753 -0.5738 -0.4869 -0.8450
  754MOL0     C 3963   1.069   7.515   1.060 -0.2258  1.3055  0.2596
  754MOL0     C 3964   0.992   7.584   1.158 -1.2656  0.5373  0.0973
  754MOL0     N 3965   0.652   7.314   1.797 -0.9878 -0.3433  0.2931
  754MOL0     N 3966   0.629   7.238   1.891  0.8416  1.3610 -0.1770
  754MOL0     C 3967   1.083   6.224   1.952 -0.9726 -0.6772 -0.2159
  754MOL0     C 3968   1.170   6.200   1.841 -0.5919 -0.2623  0.0492
  754MOL0     C 3969   1.479   6.215   1.521  0.1828 -0.4193  0.2487
  754MOL0     C 3970   1.579   6.303   1.477  0.3809 -0.0526  0.0746
  754MOL0     C 3971   1.693   6.254   1.405  0.6914 -0.4336  0.4484
  754MOL0     C 3972   1.702   6.118   1.373  0.2951 -0.2655  0.0991
  754MOL0     O 3973   1.803   6.062   1.304  0.2564  0.5424 -0.3907
  754MOL0     C 3974   1.875   6.137   1.210 -0.1946 -0.4912  0.7559
  754MOL0     C 3975   1.804   6.124   1.075  1.1785 -1.0477  0.6003
  754MOL0     C 3976   1.658   6.181   1.076  0.0648  1.0937  0.3480
  754MOL0     C 3977   1.609   6.192   0.939  0.1287 -0.1528  0.4744
  754MOL0     C 3978   1.665   6.298   0.855 -0.4498  0.0749  0.9597
  754MOL0     C 3979   1.708   6.394   0.787 -0.4321  0.4368  0.9658
  754MOL0     C 3980   1.591   6.045   1.400 -0.2975 -0.0423 -0.5621
  754MOL0     C 3981   1.486   6.085   1.481 -0.1321 -0.7726 -0.1171
  754MOL0     C 3982   1.376   5.987   1.510 -0.0836 -0.0609 -0.5393
  754MOL0     H 3983   1.464   6.243   2.001 -0.3570  2.9476 -1.1853
  754MOL0     H 3984   1.316   6.286   2.190 -0.7419 -0.3380  1.0327
  754MOL0     H 3985   1.103   6.464   2.231 -0.4543  1.2512  2.4755
  754MOL0     H 3986   1.053   6.363   2.365 -4.6594 -0.8700  1.6780
  754MOL0     H 3987   0.828   6.356   2.208  2.2981 -0.9345 -0.3788
  754MOL0     H 3988   0.855   6.425   2.365  0.1305 -0.6301  1.4681
  754MOL0     H 3989   0.927   6.653   2.232  1.9578 -2.1261  0.6494
  754MOL0     H 3990   0.885   6.561   2.086  0.0699  0.1476  0.0951
  754MOL0     H 3991   0.647   6.545   2.183  0.4196 -0.8559  3.0090
  754MOL0     H 3992   0.687   6.620   2.324 -0.5684 -0.1637  0.5414
  754MOL0     H 3993   0.741   6.838   2.230  0.7095  0.4762 -0.7756
  754MOL0     H 3994   0.573   6.794   2.182 -0.0135 -0.5204  1.1251
  754MOL0     H 3995   0.794   6.752   2.008 -0.2764  0.9599 -1.8377
  754MOL0     H 3996   0.633   6.734   1.952 -2.1822 -0.2955  1.3166
  754MOL0     H 3997   0.788   6.933   1.896 -0.1673  0.6770 -0.1768
  754MOL0     H 3998   0.769   6.994   2.059  1.8808 -0.4643 -0.3203
  754MOL0     H 3999   0.536   6.916   1.881  0.7901 -0.7973  0.4032
  754MOL0     H 4000   0.532   7.039   2.019 -0.6288  1.4223 -1.1845
  754MOL0     H 4001   0.630   7.043   1.635 -1.7372  0.9184 -1.0447
  754MOL0     H 4002   0.557   7.272   1.491  0.1858  0.8264 -0.5194
  754MOL0     H 4003   0.722   7.210   1.490 -0.7615  0.7999 -1.4160
  754MOL0     H 4004   0.630   7.487   1.567 -1.5076 -1.0121 -1.9375
  754MOL0     H 4005   0.802   7.442   1.551  1.2659 -0.9713 -2.6488
  754MOL0     H 4006   0.795   7.400   1.329 -2.0776 -1.3157 -0.7670
  754MOL0     H 4007   0.623   7.451   1.320 -0.6409  2.3029 -0.9108
  754MOL0     H 4008   0.671   7.668   1.391 -1.3176 -0.8662  1.3286
  754MOL0     H 4009   0.842   7.651   1.402 -1.9654  2.7089  0.7399
  754MOL0     H 4010   0.692   7.512   0.998  0.1685 -0.8338 -1.8585
  754MOL0     H 4011   0.708   7.417   0.773 -0.2887 -1.9700 -0.8495
  754MOL0     H 4012   0.849   7.302   0.755 -0.5341  0.1010 -0.6227
  754MOL0     H 4013   0.849   7.471   0.702 -2.5488  1.4447 -0.2382
  754MOL0     H 4014   1.307   7.207   0.776 -1.2713 -0.2640 -3.9557
  754MOL0     H 4015   1.484   7.153   0.624  2.5893  1.3590 -2.6311
  754MOL0     H 4016   1.767   7.491   0.542 -1.2332 -0.2471  0.6876
  754MOL0     H 4017   1.825   7.353   0.434 -1.0343 -1.9384  1.0101
  754MOL0     H 4018   1.650   7.390   0.293  0.9827 -1.4028  1.0176
  754MOL0     H 4019   1.570   7.520   0.387 -0.9207 -1.1112 -2.6031
  754MOL0     H 4020   1.835   7.623   0.349 -1.1764  0.0931  1.4400
  754MOL0     H 4021   1.689   7.662   0.264 -1.3169 -2.0258 -1.2407
  754MOL0     H 4022   1.744   7.475   0.093 -1.5616 -2.0991  2.4052
  754MOL0     H 4023   1.869   7.424   0.200 -0.1605  1.6603  1.5916
  754MOL0     H 4024   1.837   7.702   0.084 -1.0189 -0.3058  2.0776
  754MOL0     H 4025   1.978   7.641   0.168  1.0318 -2.9901 -0.1997
  754MOL0     H 4026   1.855   7.557  -0.097 -0.0492  0.0381  2.1146
  754MOL0     H 4027   2.008   7.478  -0.034  1.4985  0.8229  0.3186
  754MOL0     H 4028   2.121   7.685  -0.040 -0.4582  0.5800  1.0811
  754MOL0     H 4029   1.991   7.773  -0.116  2.2537  0.5199 -0.6329
  754MOL0     H 4030   2.006   7.559  -0.297 -0.6022 -1.8832  3.7818
  754MOL0     H 4031   2.168   7.555  -0.238 -2.0906 -3.8998 -0.9718
  754MOL0     H 4032   1.615   7.556   0.642 -1.1766  0.6065 -1.9528
  754MOL0     H 4033   1.428   7.618   0.779  0.3016 -0.4290 -0.9029
  754MOL0     H 4034   1.171   7.511   1.095 -0.1728 -1.4907  0.0207
  754MOL0     H 4035   1.019   7.636   1.249 -2.9471  0.9342  0.4152
  754MOL0     H 4036   0.975   6.217   1.935 -1.0405  3.1117 -2.3611
  754MOL0     H 4037   1.131   6.167   1.746  2.3498 -2.6708 -0.4830
  754MOL0     H 4038   1.580   6.405   1.513 -4.8697  0.3187 -0.0631
  754MOL0     H 4039   1.763   6.336   1.409  1.3149 -1.0014  2.1974
  754MOL0     H 4040   1.892   6.240   1.242 -2.4220  0.4431 -0.8296
  754MOL0     H 4041   1.968   6.084   1.188 -2.0706 -3.0284 -1.7919
  754MOL0     H 4042   1.797   6.019   1.046 -0.2581 -0.3772 -1.7691
  754MOL0     H 4043   1.856   6.173   0.993 -0.5677 -2.8668 -1.7422
  754MOL0     H 4044   1.592   6.117   1.134  0.2257  2.2412  1.8672
  754MOL0     H 4045   1.662   6.282   1.118 -1.5660  1.4047 -0.1874
  754MOL0     H 4046   1.502   6.215   0.944  0.4813  1.9932 -0.5223
  754MOL0     H 4047   1.625   6.093   0.895  3.5229  0.4578  0.0217
  754MOL0     H 4048   1.757   6.470   0.730  3.4648 -1.6351  1.1961
  754MOL0     H 4049   1.601   5.944   1.363  0.5731 -0.8467  1.6734
  754MOL0     H 4050   1.318   5.965   1.420  0.2081 -0.4280 -0.6436
  754MOL0     H 4051   1.422   5.894   1.545  0.9408 -0.0625 -1.8254
  754MOL0     H 4052   1.300   6.022   1.581  1.7862  2.2088  0.4627
  755MOL0     O 4053   8.790   3.209   7.284 -0.8869  0.1290  0.8781
  755MOL0     C 4054   8.712   3.214   7.184 -0.4145  0.2040 -1.4745
  755MOL0     O 4055   8.652   3.109   7.129  0.5605 -0.6879  0.7451
  755MOL0     C 4056   8.701   2.982   7.159 -0.1310  0.3219 -0.0530
  755MOL0     C 4057   8.796   2.932   7.065 -0.8617  0.7746 -0.3250
  755MOL0     C 4058   8.847   2.801   7.079  0.2826 -0.1945  0.5674
  755MOL0     C 4059   8.798   2.719   7.180 -0.0235  0.4365 -0.9117
  755MOL0     O 4060   8.846   2.589   7.211 -0.8059  0.2907  0.1928
  755MOL0     C 4061   8.946   2.531   7.132 -0.8685  0.1037  0.7602
  755MOL0     C 4062   8.930   2.375   7.151 -0.4076  0.5393 -0.4452
  755MOL0     C 4063   8.813   2.306   7.093 -0.0746 -0.7100 -0.5307
  755MOL0     C 4064   8.811   2.158   7.131  0.4176  0.2507 -0.1037
  755MOL0     C 4065   8.681   2.090   7.080  0.0900 -0.3633 -0.9528
  755MOL0     C 4066   8.715   1.942   7.051  0.9916  0.0166  0.6157
  755MOL0     C 4067   8.753   1.864   7.181 -0.7308  0.2935 -0.3055
  755MOL0     C 4068   8.657   1.860   7.302 -0.4398  0.3304 -0.3038
  755MOL0     N 4069   8.710   1.799   7.419  0.0577  0.4199 -0.1193
  755MOL0     C 4070   8.632   1.755   7.521 -0.9558  1.3587 -0.0129
  755MOL0     C 4071   8.721   1.724   7.619 -0.3322 -0.3141 -0.0608
  755MOL0     C 4072   8.692   1.659   7.760 -0.1982  0.1887 -1.0134
  755MOL0     C 4073   8.801   1.694   7.852 -0.5730 -0.0710 -0.3395
  755MOL0     C 4074   8.800   1.819   7.933 -0.4435 -0.6587  0.2669
  755MOL0     C 4075   8.929   1.854   8.013  0.3943  0.2519  0.3287
  755MOL0     O 4076   8.937   1.771   8.127  0.4055 -0.1418 -0.6894
  755MOL0     C 4077   8.955   1.834   8.246 -0.9394  0.2294 -0.0575
  755MOL0     C 4078   9.048   1.931   8.273 -0.3612 -0.0691  0.3572
  755MOL0     C 4079   9.058   1.997   8.394 -0.1178  0.0168 -0.2105
  755MOL0     C 4080   9.171   2.097   8.411  0.2678  1.1488 -0.3649
  755MOL0     C 4081   8.954   1.976   8.490  0.2070  0.0082  0.5340
  755MOL0     C 4082   8.950   2.028   8.631 -0.6054 -0.5905 -0.2525
  755MOL0     O 4083   9.059   2.107   8.666  0.3379  0.3130  0.2204
  755MOL0     C 4084   9.079   2.123   8.802  0.0317  0.0947  0.1985
  755MOL0     C 4085   9.136   2.016   8.881 -1.1176  0.6980 -0.5711
  755MOL0     C 4086   9.146   2.021   9.018  0.1218  0.4115 -0.7923
  755MOL0     C 4087   9.121   2.140   9.092  1.0366  0.5853  0.9601
  755MOL0     O 4088   9.143   2.139   9.222  0.1763  0.5661  0.5239
  755MOL0     C 4089   9.110   2.249   9.302  0.2013  0.7645 -1.3045
  755MOL0     C 4090   9.133   2.190   9.440  0.1320 -0.9407 -0.8219
  755MOL0     C 4091   9.055   2.067   9.468  0.1326  0.2865  0.7598
  755MOL0     C 4092   9.051   2.013   9.615  1.1276 -0.5509  0.1209
  755MOL0     C 4093   9.189   1.978   9.678  0.0750 -0.4500 -0.1399
  755MOL0     C 4094   9.175   1.915   9.812 -0.9328  0.8578 -0.3068
  755MOL0     C 4095   9.308   1.859   9.864 -0.1318  0.1153  0.3491
  755MOL0     C 4096   9.295   1.783   9.992 -0.6130  0.2222 -0.4377
  755MOL0    Cl 4097   9.217   1.879  10.128  0.0280 -0.1393 -0.1398
  755MOL0     C 4098   9.065   2.245   9.013  0.5993  0.4194 -0.6268
  755MOL0     C 4099   9.039   2.240   8.875  0.1379 -0.3701  0.2810
  755MOL0     O 4100   8.851   2.002   8.699  0.2145  0.0677 -0.0105
  755MOL0     C 4101   8.858   1.878   8.455  0.7995 -0.2418 -0.4762
  755MOL0     C 4102   8.855   1.804   8.345 -0.5722 -0.1907  1.3686
  755MOL0     N 4103   8.847   1.755   7.573  0.1288  0.6572  0.2325
  755MOL0     N 4104   8.840   1.800   7.455  0.7675  0.0921  0.4448
  755MOL0     C 4105   8.719   2.775   7.280 -0.4870  0.3665 -0.3057
  755MOL0     C 4106   8.667   2.903   7.270 -0.2762  0.3585 -0.7734
  755MOL0     C 4107   8.664   3.353   7.153 -0.5161 -0.1733  0.2290
  755MOL0     C 4108   8.537   3.359   7.093 -0.5741 -0.0686 -0.3129
  755MOL0     C 4109   8.483   3.482   7.061  0.1397  0.9023  0.2227
  755MOL0     C 4110   8.557   3.599   7.091  0.2120 -0.1962  0.0258
  755MOL0     O 4111   8.520   3.726   7.056  0.0441  0.2281  0.6806
  755MOL0     C 4112   8.456   3.744   6.926  0.1953  0.5140  1.0875
  755MOL0     C 4113   8.494   3.883   6.873 -0.3388 -0.8296 -0.4529
  755MOL0     C 4114   8.482   3.922   6.720 -0.3857 -0.4600 -0.1382
  755MOL0     C 4115   8.538   3.822   6.615  0.1611  0.4895 -0.1712
  755MOL0     C 4116   8.557   3.888   6.480 -0.5177  0.1047 -0.2109
  755MOL0     C 4117   8.572   3.944   6.375 -0.4059  1.0067 -0.5096
  755MOL0     C 4118   8.676   3.585   7.159  0.3941 -0.8273  0.0536
  755MOL0     C 4119   8.736   3.466   7.181 -0.7455  0.3367  0.3771
  755MOL0     C 4120   8.882   3.469   7.236 -0.2529 -0.3765  0.6676
  755MOL0     H 4121   8.840   2.995   6.988  1.7149 -0.8789 -0.3474
  755MOL0     H 4122   8.930   2.770   7.017 -0.7828 -0.6613 -0.6621
  755MOL0     H 4123   9.047   2.564   7.158 -0.0517 -3.0738  2.0570
  755MOL0     H 4124   8.924   2.557   7.028 -4.3865 -3.7437  0.2817
  755MOL0     H 4125   9.021   2.319   7.125  0.5477  0.8902  1.9066
  755MOL0     H 4126   8.912   2.359   7.258  1.9761  3.1061  0.4711
  755MOL0     H 4127   8.718   2.334   7.139  0.3877 -1.4700  0.9459
  755MOL0     H 4128   8.827   2.321   6.985  3.9970  0.7255  0.0521
  755MOL0     H 4129   8.895   2.104   7.087 -1.9673 -3.0109 -1.0471
  755MOL0     H 4130   8.811   2.151   7.240 -1.7595 -0.3511 -0.0844
  755MOL0     H 4131   8.651   2.122   6.980 -0.1794  1.5005 -0.3178
  755MOL0     H 4132   8.594   2.093   7.147  0.5746  0.3265 -0.3464
  755MOL0     H 4133   8.622   1.902   7.008  0.0877  1.9438  0.6786
  755MOL0     H 4134   8.791   1.935   6.972 -1.6231 -0.5511 -2.0255
  755MOL0     H 4135   8.851   1.899   7.215 -1.7140  1.8565  1.0445
  755MOL0     H 4136   8.775   1.760   7.154  4.0393  1.2726 -1.0725
  755MOL0     H 4137   8.643   1.965   7.332  2.2522  0.9898 -1.0996
  755MOL0     H 4138   8.562   1.824   7.262  0.4204 -1.9015 -0.4554
  755MOL0     H 4139   8.528   1.722   7.513 -0.0572 -1.6074 -1.0946
  755MOL0     H 4140   8.695   1.551   7.747  0.1684 -0.0620  0.9217
  755MOL0     H 4141   8.596   1.693   7.800 -1.8738 -0.8784 -3.7994
  755MOL0     H 4142   8.787   1.625   7.936 -0.0473  0.1726 -0.0482
  755MOL0     H 4143   8.903   1.669   7.822  0.9261 -1.2035  4.7595
  755MOL0     H 4144   8.780   1.899   7.861 -0.3450  0.5542  1.5264
  755MOL0     H 4145   8.718   1.821   8.005 -0.8563  1.5972 -0.1907
  755MOL0     H 4146   9.013   1.833   7.947 -0.6070  2.0030 -1.6465
  755MOL0     H 4147   8.933   1.962   8.031 -1.6603  0.1897  1.5047
  755MOL0     H 4148   9.102   1.972   8.188 -1.1241  1.7930  0.7170
  755MOL0     H 4149   9.240   2.096   8.325 -0.7685 -2.4750 -1.3197
  755MOL0     H 4150   9.234   2.082   8.499 -0.3857  0.8816  0.0620
  755MOL0     H 4151   9.124   2.195   8.418  0.6401  1.2315  1.3435
  755MOL0     H 4152   9.164   1.924   8.831 -0.5571 -1.0555  2.7304
  755MOL0     H 4153   9.164   1.930   9.074  0.9318  1.1941  0.2519
  755MOL0     H 4154   9.165   2.343   9.298 -2.0723  2.2858  0.3446
  755MOL0     H 4155   9.003   2.269   9.287  0.1208 -0.3664 -2.4607
  755MOL0     H 4156   9.241   2.184   9.458 -0.0502 -1.7164  0.1267
  755MOL0     H 4157   9.094   2.268   9.506 -2.3808 -1.9711 -0.9716
  755MOL0     H 4158   9.089   1.982   9.408  0.1583 -0.0758  1.2818
  755MOL0     H 4159   8.954   2.080   9.428  0.0040  0.8262  1.2577
  755MOL0     H 4160   8.996   1.919   9.615  0.8697 -0.5323  3.5039
  755MOL0     H 4161   9.001   2.083   9.683 -2.5350 -1.9944 -0.8710
  755MOL0     H 4162   9.238   1.905   9.613  0.1718 -1.2993  0.8440
  755MOL0     H 4163   9.241   2.074   9.682 -1.9992  0.7073  0.1153
  755MOL0     H 4164   9.108   1.830   9.795 -0.5547  1.2267 -4.6927
  755MOL0     H 4165   9.141   1.987   9.887 -1.6505 -1.8135  2.1072
  755MOL0     H 4166   9.386   1.934   9.878 -2.0136  1.8586  2.1907
  755MOL0     H 4167   9.338   1.784   9.791  0.6497  2.8147 -2.2814
  755MOL0     H 4168   9.395   1.756  10.029 -1.0602 -0.8895  0.0099
  755MOL0     H 4169   9.230   1.695   9.984 -0.1009 -0.1546 -0.5856
  755MOL0     H 4170   9.031   2.332   9.068 -0.8210 -2.4237  3.4941
  755MOL0     H 4171   9.021   2.336   8.829  2.0652  0.7481  1.6872
  755MOL0     H 4172   8.780   1.852   8.526  0.6866  0.8291 -0.1888
  755MOL0     H 4173   8.785   1.722   8.337  0.2308 -0.8538  0.9485
  755MOL0     H 4174   8.698   2.712   7.366  0.1906  0.9189  0.2767
  755MOL0     H 4175   8.604   2.948   7.345 -0.2529 -0.6516 -0.1288
  755MOL0     H 4176   8.472   3.273   7.077 -4.7435  2.1789  2.5637
  755MOL0     H 4177   8.388   3.486   7.008 -0.5754  1.4609  1.4939
  755MOL0     H 4178   8.498   3.674   6.854 -0.3745  0.6552  0.6051
  755MOL0     H 4179   8.347   3.740   6.938  0.4095 -2.3040  3.2807
  755MOL0     H 4180   8.601   3.880   6.898 -0.4793 -2.0436  0.0795
  755MOL0     H 4181   8.450   3.967   6.928  1.3411 -2.3503  3.6348
  755MOL0     H 4182   8.382   3.946   6.682  1.0580  1.8749 -2.8421
  755MOL0     H 4183   8.542   4.013   6.707  1.1904 -1.0281  2.3242
  755MOL0     H 4184   8.476   3.732   6.609  2.9346 -1.8495  2.5554
  755MOL0     H 4185   8.636   3.791   6.654  0.7197  0.9944 -1.1261
  755MOL0     H 4186   8.567   3.977   6.273 -2.2871  0.9874 -0.4470
  755MOL0     H 4187   8.717   3.681   7.187  0.7605  0.5628 -4.4846
  755MOL0     H 4188   8.933   3.551   7.184  0.2858 -1.1688 -0.0693
  755MOL0     H 4189   8.876   3.507   7.339 -3.2920  2.1266 -0.2366
  755MOL0     H 4190   8.947   3.384   7.215  2.6636  1.3218  2.2343
  756MOL0     O 4191   7.399   2.230  10.637 -0.4420 -0.5040  1.1885
  756MOL0     C 4192   7.447   2.325  10.694 -0.0767 -0.3537 -0.5601
  756MOL0     O 4193   7.543   2.417  10.638 -0.7998 -0.2105  0.0368
  756MOL0     C 4194   7.573   2.424  10.502 -0.8915  1.2320  0.5783
  756MOL0     C 4195   7.669   2.526  10.480  0.1944  0.2098 -0.2369
  756MOL0     C 4196   7.710   2.563  10.356  1.4032 -0.2731  0.6416
  756MOL0     C 4197   7.659   2.497  10.243  0.6621  0.0752  0.4590
  756MOL0     O 4198   7.693   2.529  10.114 -0.4050 -0.3646  0.1180
  756MOL0     C 4199   7.818   2.607  10.087  0.2893  0.3535  0.5868
  756MOL0     C 4200   7.818   2.761  10.104 -0.2064  0.1456  0.0318
  756MOL0     C 4201   7.701   2.823  10.026 -0.3013  1.0954 -1.1031
  756MOL0     C 4202   7.688   2.970  10.056  0.7580  0.1154 -0.4282
  756MOL0     C 4203   7.570   3.023   9.977 -0.2517 -0.0220  0.2891
  756MOL0     C 4204   7.590   3.152   9.907 -0.1572  1.0668  0.9801
  756MOL0     C 4205   7.620   3.261  10.016  1.1853  0.1020 -0.5277
  756MOL0     C 4206   7.761   3.311  10.007 -0.9201 -0.2105 -0.6838
  756MOL0     N 4207   7.784   3.431  10.085 -0.7962 -0.3266 -0.6730
  756MOL0     C 4208   7.899   3.463  10.159  0.2541  0.0308  0.5463
  756MOL0     C 4209   7.866   3.579  10.232 -0.0364 -0.1118 -0.4743
  756MOL0     C 4210   7.948   3.648  10.334 -0.0839  0.0463 -0.1835
  756MOL0     C 4211   8.033   3.761  10.283 -0.7248  0.4559  0.1492
  756MOL0     C 4212   8.111   3.846  10.390  0.7943  0.1282  0.2407
  756MOL0     C 4213   8.194   3.953  10.324  0.4977 -0.0096  0.2775
  756MOL0     O 4214   8.317   3.887  10.270  0.6901 -0.9776  0.2557
  756MOL0     C 4215   8.382   3.963  10.177 -0.4048 -0.4454  0.3371
  756MOL0     C 4216   8.508   4.026  10.205 -0.0991  0.0899 -0.3628
  756MOL0     C 4217   8.584   4.104  10.112  0.2845  0.3444  0.4367
  756MOL0     C 4218   8.728   4.156  10.140 -0.7032  0.3091  0.7330
  756MOL0     C 4219   8.531   4.106   9.983  0.1979 -0.6506  0.5219
  756MOL0     C 4220   8.584   4.180   9.870 -0.6229  0.7588 -0.2136
  756MOL0     O 4221   8.599   4.315   9.891 -1.0033  0.4015 -0.0577
  756MOL0     C 4222   8.593   4.404   9.784  0.3881  0.7347 -0.6557
  756MOL0     C 4223   8.481   4.399   9.701 -0.7915  0.0148 -0.1113
  756MOL0     C 4224   8.454   4.489   9.597 -0.0601  0.2348 -0.2959
  756MOL0     C 4225   8.555   4.577   9.560 -0.1650 -0.4818  0.4521
  756MOL0     O 4226   8.552   4.662   9.456  0.1576  0.0630 -0.2800
  756MOL0     C 4227   8.676   4.669   9.381  0.3095 -0.3578 -0.1720
  756MOL0     C 4228   8.720   4.547   9.315 -0.8834 -0.1411 -0.1808
  756MOL0     C 4229   8.865   4.567   9.265  0.6313  0.2732 -0.1069
  756MOL0     C 4230   8.897   4.448   9.174  1.2233  0.8842 -0.3372
  756MOL0     C 4231   9.046   4.413   9.171 -0.0095 -0.3322  0.0756
  756MOL0     C 4232   9.083   4.337   9.294  0.1582  0.2550 -0.5447
  756MOL0     C 4233   9.230   4.299   9.301 -0.6052  0.1889  0.0963
  756MOL0     C 4234   9.256   4.209   9.427  0.0236  0.2506 -0.3069
  756MOL0    Cl 4235   9.166   4.067   9.463  0.6872  0.0719 -0.2422
  756MOL0     C 4236   8.663   4.581   9.649 -0.1354 -0.6093 -0.4047
  756MOL0     C 4237   8.686   4.496   9.754 -0.1648  0.1224 -0.0408
  756MOL0     O 4238   8.617   4.128   9.764 -0.2208 -0.0806 -0.8629
  756MOL0     C 4239   8.395   4.067   9.957  0.3511  0.8016  0.0419
  756MOL0     C 4240   8.324   3.983  10.051  0.5956 -0.0970  0.3718
  756MOL0     N 4241   7.739   3.621  10.192  0.1572  0.1324  0.1919
  756MOL0     N 4242   7.697   3.533  10.107  0.2862  0.3782 -1.0225
  756MOL0     C 4243   7.569   2.398  10.258  0.6621  0.3849  0.2064
  756MOL0     C 4244   7.522   2.366  10.383 -0.3035  0.2885 -0.3701
  756MOL0     C 4245   7.374   2.342  10.819  0.3230 -0.0873  0.9698
  756MOL0     C 4246   7.395   2.243  10.914  0.1295  0.2480  0.0502
  756MOL0     C 4247   7.335   2.250  11.041  0.2541  0.7101  0.1618
  756MOL0     C 4248   7.269   2.369  11.072 -0.8935 -0.0706 -0.8351
  756MOL0     O 4249   7.239   2.404  11.197 -0.4980 -0.5528 -0.9712
  756MOL0     C 4250   7.101   2.378  11.238 -0.0816 -0.5894  0.4500
  756MOL0     C 4251   7.083   2.229  11.275 -0.2888  0.0061  0.0894
  756MOL0     C 4252   7.185   2.171  11.378 -0.1821  0.4508  0.0421
  756MOL0     C 4253   7.213   2.017  11.380 -0.8092 -0.3283  1.1531
  756MOL0     C 4254   7.311   1.989  11.482  0.5100  0.6210 -0.4694
  756MOL0     C 4255   7.374   1.946  11.569  0.8069  0.8393  0.3730
  756MOL0     C 4256   7.260   2.480  10.986 -1.1665  1.1138  0.5093
  756MOL0     C 4257   7.310   2.466  10.853 -0.3496  0.6385 -0.5648
  756MOL0     C 4258   7.273   2.576  10.762  0.4559 -0.1393  0.7410
  756MOL0     H 4259   7.701   2.589  10.562  3.7655 -0.4316 -0.9641
  756MOL0     H 4260   7.783   2.643  10.364  2.3837 -1.0922  0.2721
  756MOL0     H 4261   7.844   2.589   9.982 -0.3659 -1.5162  0.7079
  756MOL0     H 4262   7.897   2.561  10.147  1.6595  1.5815 -0.2202
  756MOL0     H 4263   7.812   2.790  10.210 -1.9779 -1.1454  0.3341
  756MOL0     H 4264   7.911   2.801  10.063 -1.5986  1.3705 -2.0682
  756MOL0     H 4265   7.708   2.809   9.918 -1.4490  0.0158 -1.0566
  756MOL0     H 4266   7.611   2.768  10.054 -1.2543  2.2602 -1.8324
  756MOL0     H 4267   7.659   2.984  10.160 -0.2322  3.1045 -1.0140
  756MOL0     H 4268   7.775   3.030  10.028  0.8467  0.7370  1.0924
  756MOL0     H 4269   7.479   3.040  10.035 -0.7262 -0.6958 -0.2532
  756MOL0     H 4270   7.544   2.949   9.901 -3.2822  0.2598  0.9418
  756MOL0     H 4271   7.674   3.149   9.837 -1.3522  1.7532 -0.5252
  756MOL0     H 4272   7.511   3.190   9.842 -0.0146 -0.1309  0.0702
  756MOL0     H 4273   7.603   3.229  10.119  2.7830  0.7937 -0.0058
  756MOL0     H 4274   7.553   3.345   9.995  2.0866  0.8944 -0.3021
  756MOL0     H 4275   7.844   3.241  10.020  0.7807  1.9434  0.6953
  756MOL0     H 4276   7.779   3.354   9.908  2.6832  3.7302  1.3624
  756MOL0     H 4277   7.993   3.411  10.144  0.8862  1.4797 -0.6261
  756MOL0     H 4278   8.008   3.572  10.384  0.1791  1.7730  2.3327
  756MOL0     H 4279   7.873   3.687  10.404 -0.1075 -2.4072  1.2993
  756MOL0     H 4280   8.111   3.720  10.217 -1.0282 -1.7966  1.0769
  756MOL0     H 4281   7.964   3.819  10.221 -0.4320  0.1045 -0.5300
  756MOL0     H 4282   8.039   3.880  10.464 -0.1574 -0.6738 -0.2885
  756MOL0     H 4283   8.159   3.775  10.459 -1.6614 -2.4161 -0.4714
  756MOL0     H 4284   8.133   4.009  10.253 -1.2365  2.0832  3.2087
  756MOL0     H 4285   8.219   4.031  10.396 -1.8468  1.5601 -0.5026
  756MOL0     H 4286   8.537   4.008  10.308 -0.6794  2.2754  0.2249
  756MOL0     H 4287   8.792   4.152  10.052  3.2448  3.2457  3.1478
  756MOL0     H 4288   8.770   4.088  10.214  1.1622 -0.6206 -1.0925
  756MOL0     H 4289   8.737   4.255  10.185  2.8288 -0.1874  1.3819
  756MOL0     H 4290   8.405   4.326   9.728 -0.0624 -0.8031 -0.2494
  756MOL0     H 4291   8.365   4.480   9.535 -0.7336  1.0130  0.5347
  756MOL0     H 4292   8.650   4.731   9.295  4.2064 -2.7461 -3.4129
  756MOL0     H 4293   8.762   4.709   9.435  0.3700  1.6567 -1.6565
  756MOL0     H 4294   8.722   4.462   9.384 -1.4897  0.3397  0.4440
  756MOL0     H 4295   8.653   4.535   9.230 -2.2195  0.8978  0.6825
  756MOL0     H 4296   8.932   4.570   9.352  0.7826 -1.5854 -0.1329
  756MOL0     H 4297   8.869   4.652   9.196 -0.9431 -0.7628 -1.5533
  756MOL0     H 4298   8.862   4.477   9.074 -3.9456 -1.4461  0.4684
  756MOL0     H 4299   8.830   4.365   9.196  1.3467  0.5284 -1.2354
  756MOL0     H 4300   9.066   4.364   9.075 -3.5853 -3.7469  0.7844
  756MOL0     H 4301   9.113   4.499   9.165 -1.2649  0.5850 -1.9908
  756MOL0     H 4302   9.021   4.247   9.299  1.3735 -0.7167 -1.9983
  756MOL0     H 4303   9.051   4.394   9.381 -2.4241  0.1328 -1.3228
  756MOL0     H 4304   9.299   4.382   9.316 -3.0692  2.9381 -2.3831
  756MOL0     H 4305   9.265   4.256   9.206  0.2223  1.0074  0.0186
  756MOL0     H 4306   9.236   4.271   9.516  0.3099 -0.2144  0.0873
  756MOL0     H 4307   9.364   4.199   9.440  0.5109  0.8976 -3.1683
  756MOL0     H 4308   8.738   4.659   9.651 -1.1451  0.6308  5.0227
  756MOL0     H 4309   8.764   4.526   9.822  2.3477 -3.0186 -1.3186
  756MOL0     H 4310   8.355   4.087   9.858  4.4419 -0.9801 -2.2238
  756MOL0     H 4311   8.226   3.937  10.046 -0.2296  0.8996  4.2054
  756MOL0     H 4312   7.531   2.354  10.167  1.2799  2.9586 -1.4050
  756MOL0     H 4313   7.437   2.301  10.399 -1.4603  1.6333 -0.8601
  756MOL0     H 4314   7.444   2.148  10.894 -2.2739 -1.3417  1.1861
  756MOL0     H 4315   7.362   2.175  11.115  2.0439  1.7008  0.5818
  756MOL0     H 4316   7.085   2.448  11.320  2.1308  0.5882 -0.0548
  756MOL0     H 4317   7.029   2.407  11.162 -4.3390 -0.6804  4.0428
  756MOL0     H 4318   7.067   2.169  11.185 -4.0785 -2.8046  2.3166
  756MOL0     H 4319   6.982   2.220  11.316 -1.2069  2.8174 -1.2917
  756MOL0     H 4320   7.274   2.233  11.364  0.5573 -0.6377 -0.1837
  756MOL0     H 4321   7.150   2.193  11.480 -2.7696 -0.7385 -0.4979
  756MOL0     H 4322   7.235   1.985  11.278 -0.5905  1.8983  0.4463
  756MOL0     H 4323   7.113   1.980  11.404 -1.0104  0.6204  1.8415
  756MOL0     H 4324   7.421   1.893  11.649 -0.4820 -2.7308 -1.0585
  756MOL0     H 4325   7.222   2.578  11.014 -2.6529  1.4111 -2.1979
  756MOL0     H 4326   7.177   2.627  10.774  1.6359  2.7844 -1.0191
  756MOL0     H 4327   7.351   2.653  10.764  0.4113  0.1025 -2.0576
  756MOL0     H 4328   7.271   2.535  10.660 -1.0948 -0.8690  1.0421
  757MOL0     O 4329   1.036  10.758   5.995 -0.1732 -0.4532  0.4268
  757MOL0     C 4330   0.958  10.849   5.969  1.3872  0.9530  1.0838
  757MOL0     O 4331   0.857  10.890   6.053 -0.2944 -0.2574 -0.0706
  757MOL0     C 4332   0.833  10.823   6.178  0.3001  0.0876  1.3312
  757MOL0     C 4333   0.705  10.760   6.188  0.9268  0.2253  0.3307
  757MOL0     C 4334   0.673  10.688   6.308 -0.0943 -0.7107 -0.9328
  757MOL0     C 4335   0.764  10.692   6.419 -0.5416  0.2336  0.7468
  757MOL0     O 4336   0.737  10.619   6.531  0.8828 -0.2660 -0.5812
  757MOL0     C 4337   0.777  10.677   6.655  0.3975  0.4591 -0.5403
  757MOL0     C 4338   0.662  10.663   6.760  0.1292  0.4820  0.8052
  757MOL0     C 4339   0.608  10.515   6.772  1.0022  0.5984  0.6823
  757MOL0     C 4340   0.728  10.414   6.800  0.5342 -0.4029  0.2517
  757MOL0     C 4341   0.698  10.294   6.889 -1.3071 -0.3284  0.9746
  757MOL0     C 4342   0.813  10.190   6.878 -0.4780 -0.0333  0.0496
  757MOL0     C 4343   0.795  10.086   6.988  0.7406 -0.6194  0.2724
  757MOL0     C 4344   0.889   9.958   6.972  0.0642  0.2752 -0.2189
  757MOL0     N 4345   0.839   9.860   7.073  0.1111 -0.2006  0.4632
  757MOL0     C 4346   0.724   9.785   7.057 -0.2317 -0.4237 -0.0039
  757MOL0     C 4347   0.704   9.712   7.167  0.3896 -0.2387  0.6378
  757MOL0     C 4348   0.574   9.652   7.222 -0.6100  0.0408 -0.1317
  757MOL0     C 4349   0.577   9.499   7.197  0.7343 -0.3003 -0.2545
  757MOL0     C 4350   0.534   9.453   7.054 -0.0973 -0.0277  0.3036
  757MOL0     C 4351   0.651   9.370   6.994 -0.1836 -1.1288  0.0217
  757MOL0     O 4352   0.759   9.460   6.964 -0.3342  0.0072  0.6006
  757MOL0     C 4353   0.768   9.505   6.836 -0.2201 -0.0790  0.0081
  757MOL0     C 4354   0.663   9.539   6.754  0.3189 -0.8029 -0.2666
  757MOL0     C 4355   0.682   9.592   6.622 -0.1905  0.0240  0.2365
  757MOL0     C 4356   0.564   9.618   6.529 -0.0254 -0.0898 -0.2503
  757MOL0     C 4357   0.813   9.612   6.575 -0.7950  0.4714  0.3768
  757MOL0     C 4358   0.857   9.630   6.438  0.3159  0.2068  0.0144
  757MOL0     O 4359   0.787   9.571   6.327  0.4568 -0.0975 -0.0236
  757MOL0     C 4360   0.839   9.614   6.209 -0.3973 -0.2394  0.8802
  757MOL0     C 4361   0.919   9.526   6.135 -0.8220 -0.3643 -0.0239
  757MOL0     C 4362   0.982   9.572   6.016  0.0007 -0.2259  0.5686
  757MOL0     C 4363   0.962   9.698   5.967  0.0304  0.3946  0.5994
  757MOL0     O 4364   1.018   9.743   5.853 -0.0445 -0.1126  1.3688
  757MOL0     C 4365   1.158   9.715   5.845 -0.4370  0.3012 -0.4671
  757MOL0     C 4366   1.199   9.766   5.711 -0.4867 -0.7640 -0.4374
  757MOL0     C 4367   1.187   9.925   5.715  0.6858 -0.9535  0.3359
  757MOL0     C 4368   1.222   9.978   5.570  0.3102 -0.4194 -0.3584
  757MOL0     C 4369   1.270  10.123   5.582  0.6058  1.7690  0.9941
  757MOL0     C 4370   1.332  10.153   5.446 -0.7520  0.7718 -0.4594
  757MOL0     C 4371   1.394  10.294   5.416  0.1406  0.2282 -0.1365
  757MOL0     C 4372   1.459  10.287   5.289 -0.9580 -0.8830 -0.1993
  757MOL0    Cl 4373   1.564  10.425   5.255  0.1161 -0.3959  0.0906
  757MOL0     C 4374   0.878   9.783   6.032 -0.5766 -0.0135 -0.0184
  757MOL0     C 4375   0.813   9.743   6.151  0.4598  0.2518 -0.0697
  757MOL0     O 4376   0.966   9.685   6.433 -0.4875 -0.8480  0.6895
  757MOL0     C 4377   0.919   9.581   6.668  0.3553  0.7672 -0.1529
  757MOL0     C 4378   0.894   9.532   6.793 -0.0306 -0.5329  0.7031
  757MOL0     N 4379   0.813   9.744   7.246  0.2315 -0.6198 -0.5278
  757MOL0     N 4380   0.890   9.836   7.189 -0.0145 -0.6191  0.2257
  757MOL0     C 4381   0.891  10.754   6.394  0.3603 -0.4761 -1.2261
  757MOL0     C 4382   0.926  10.823   6.286  0.3845 -0.9676 -0.0122
  757MOL0     C 4383   0.976  10.928   5.851 -0.1352  0.3923  0.5372
  757MOL0     C 4384   0.862  10.964   5.784  1.0482 -0.9018  1.0988
  757MOL0     C 4385   0.863  11.053   5.674 -0.4351 -0.0826  0.3877
  757MOL0     C 4386   0.980  11.086   5.610  0.3055  0.1477  0.4684
  757MOL0     O 4387   0.963  11.149   5.493  0.5204  0.2287 -0.1631
  757MOL0     C 4388   1.080  11.210   5.439  0.0953  0.7856  0.1786
  757MOL0     C 4389   1.057  11.211   5.297 -1.0032  0.4526 -1.7568
  757MOL0     C 4390   0.932  11.290   5.257 -0.8175  0.4206  0.1092
  757MOL0     C 4391   0.901  11.305   5.110  0.1484  0.1047  0.0287
  757MOL0     C 4392   0.975  11.426   5.044  0.3269  0.2832 -0.0931
  757MOL0     C 4393   1.023  11.524   4.988  0.4577 -0.1603  0.1904
  757MOL0     C 4394   1.106  11.043   5.678  1.1973  0.2948  0.0356
  757MOL0     C 4395   1.104  10.967   5.792  0.0359  0.0680  0.1488
  757MOL0     C 4396   1.234  10.938   5.873 -0.7858  0.6913 -0.6833
  757MOL0     H 4397   0.633  10.758   6.107  0.0564 -1.2879  1.0924
  757MOL0     H 4398   0.572  10.649   6.307 -0.9144  1.2264  0.5710
  757MOL0     H 4399   0.802  10.782   6.640 -0.1581  0.6427 -0.2145
  757MOL0     H 4400   0.870  10.632   6.691  0.1417 -2.1534 -2.7395
  757MOL0     H 4401   0.684  10.716   6.854 -0.1121  2.8479 -0.3999
  757MOL0     H 4402   0.572  10.714   6.725 -0.5238 -2.5649 -2.5989
  757MOL0     H 4403   0.534  10.519   6.853 -0.0242 -2.9687  0.0857
  757MOL0     H 4404   0.554  10.493   6.680 -1.0764  3.3939  1.0966
  757MOL0     H 4405   0.765  10.383   6.702  2.2526 -1.5671  1.2181
  757MOL0     H 4406   0.810  10.468   6.847 -0.3091  0.4688  0.7687
  757MOL0     H 4407   0.606  10.239   6.867 -1.3802  0.3589 -0.5355
  757MOL0     H 4408   0.689  10.340   6.988 -1.1747  0.3786  0.6720
  757MOL0     H 4409   0.806  10.134   6.784 -1.2493 -2.8831  1.6969
  757MOL0     H 4410   0.913  10.235   6.888 -1.1735  1.6123 -0.1541
  757MOL0     H 4411   0.691  10.052   7.001  1.2866 -2.2702  0.5635
  757MOL0     H 4412   0.826  10.139   7.078 -0.2732 -1.4611  1.1563
  757MOL0     H 4413   0.873   9.918   6.872 -2.1223 -4.0732  1.5898
  757MOL0     H 4414   0.992   9.993   6.984 -0.7124  2.0774  1.9410
  757MOL0     H 4415   0.657   9.807   6.974 -3.6411  0.4464  2.7213
  757MOL0     H 4416   0.489   9.705   7.177 -2.6510 -0.5743  2.7480
  757MOL0     H 4417   0.562   9.677   7.328 -1.8239  0.4077 -0.3373
  757MOL0     H 4418   0.676   9.459   7.218  0.9395 -0.1841 -0.9807
  757MOL0     H 4419   0.513   9.446   7.268  0.3216 -0.0745 -0.4476
  757MOL0     H 4420   0.446   9.389   7.058  0.9227 -1.5725 -0.7065
  757MOL0     H 4421   0.528   9.547   6.998  0.1094 -0.9476 -1.3483
  757MOL0     H 4422   0.694   9.306   7.072 -0.2799 -0.8959  0.2658
  757MOL0     H 4423   0.606   9.311   6.914 -3.1065 -0.5873  1.1483
  757MOL0     H 4424   0.567   9.516   6.800 -0.0543 -0.2802 -0.7718
  757MOL0     H 4425   0.577   9.532   6.462  1.6295 -1.5569  1.7970
  757MOL0     H 4426   0.609   9.706   6.484  5.7789 -3.4115 -2.0803
  757MOL0     H 4427   0.471   9.622   6.587 -1.0669 -1.3434 -1.7165
  757MOL0     H 4428   0.932   9.427   6.178 -1.1561 -0.9003 -1.1231
  757MOL0     H 4429   1.053   9.506   5.966 -0.8107 -0.9893  0.3952
  757MOL0     H 4430   1.205   9.768   5.929 -2.6563  0.7098  0.5720
  757MOL0     H 4431   1.176   9.608   5.857 -0.9374  0.3148  0.5302
  757MOL0     H 4432   1.301   9.731   5.689 -0.1335 -1.5363  2.0586
  757MOL0     H 4433   1.130   9.728   5.636 -1.0971 -0.8966  0.1775
  757MOL0     H 4434   1.272   9.959   5.774 -1.8676  2.2040  2.5590
  757MOL0     H 4435   1.099   9.964   5.767  1.1766  2.5689 -1.1879
  757MOL0     H 4436   1.134   9.967   5.505 -0.9881 -0.2078  1.2836
  757MOL0     H 4437   1.301   9.916   5.527 -0.7030 -0.4838 -2.2290
  757MOL0     H 4438   1.180  10.184   5.596 -0.6666  0.7330 -1.7711
  757MOL0     H 4439   1.338  10.140   5.665  0.3507  1.2405  1.3200
  757MOL0     H 4440   1.250  10.138   5.376 -1.0525  1.8755 -0.3628
  757MOL0     H 4441   1.407  10.076   5.430  0.1154  1.2943  0.9426
  757MOL0     H 4442   1.456  10.315   5.504  0.9125 -1.7083 -0.1701
  757MOL0     H 4443   1.319  10.373   5.419  0.3879  0.4381  1.3916
  757MOL0     H 4444   1.392  10.280   5.203 -0.9427 -2.7275 -0.1175
  757MOL0     H 4445   1.518  10.195   5.288 -1.6512 -1.3365 -0.2043
  757MOL0     H 4446   0.850   9.883   6.001 -2.1889  0.0841  1.5501
  757MOL0     H 4447   0.756   9.815   6.210  2.1525 -0.5179  2.7275
  757MOL0     H 4448   1.022   9.601   6.642  0.3113  1.8841  0.4532
  757MOL0     H 4449   0.972   9.526   6.869  1.1564  2.6253 -0.1369
  757MOL0     H 4450   0.969  10.733   6.467  0.7040  2.0548 -0.7626
  757MOL0     H 4451   1.024  10.869   6.270 -0.5665  1.1186 -0.2096
  757MOL0     H 4452   0.765  10.930   5.822  2.2533 -1.9512  3.4957
  757MOL0     H 4453   0.774  11.090   5.624 -0.2386  0.2144  0.2547
  757MOL0     H 4454   1.096  11.303   5.495  1.5090  0.3779  0.4988
  757MOL0     H 4455   1.170  11.148   5.441  0.6030  1.2650 -2.8412
  757MOL0     H 4456   1.040  11.104   5.282  1.6575 -0.8624  2.6501
  757MOL0     H 4457   1.148  11.247   5.248  0.6271 -1.6369 -0.4237
  757MOL0     H 4458   0.850  11.222   5.280 -1.3977  0.4979 -1.5750
  757MOL0     H 4459   0.924  11.390   5.301  0.0906 -0.4124  2.2858
  757MOL0     H 4460   0.792  11.310   5.104  0.1882 -0.3809 -2.1875
  757MOL0     H 4461   0.931  11.211   5.062  0.6204 -0.8652  2.1048
  757MOL0     H 4462   1.055  11.612   4.937  0.9939 -0.2568  0.3460
  757MOL0     H 4463   1.203  11.072   5.639  0.4272  0.7146 -1.6905
  757MOL0     H 4464   1.227  10.971   5.977  0.7906 -1.7666  0.2934
  757MOL0     H 4465   1.264  10.834   5.868 -2.0068  0.3786 -4.2429
  757MOL0     H 4466   1.317  10.991   5.826 -0.0431  0.0702 -0.0967
  758MOL0     O 4467   1.237   0.744   3.457 -0.2093 -0.5955  0.3150
  758MOL0     C 4468   1.246   0.816   3.351 -0.0055  0.4770  0.0116
  758MOL0     O 4469   1.300   0.941   3.342 -0.5726  0.4450  0.1166
  758MOL0     C 4470   1.347   0.991   3.459 -0.5346 -1.0393  0.6151
  758MOL0     C 4471   1.478   0.947   3.491 -0.4050 -0.0278  0.9206
  758MOL0     C 4472   1.542   0.983   3.609  1.2342  0.3841  0.0465
  758MOL0     C 4473   1.465   1.060   3.697 -0.8900  0.1999  0.9644
  758MOL0     O 4474   1.525   1.099   3.809 -0.1248 -0.3626  0.5126
  758MOL0     C 4475   1.460   1.145   3.933 -0.0263 -0.0462 -1.0822
  758MOL0     C 4476   1.372   1.036   4.000 -0.0833 -0.4081  1.1708
  758MOL0     C 4477   1.456   0.919   4.065 -0.1531 -0.4210  0.7372
  758MOL0     C 4478   1.382   0.830   4.161  0.8155 -0.7713 -0.3790
  758MOL0     C 4479   1.466   0.716   4.223  0.2900 -0.4494  0.6597
  758MOL0     C 4480   1.382   0.648   4.331  0.2690 -0.8252  0.4746
  758MOL0     C 4481   1.451   0.526   4.398  1.2046 -0.2392 -0.1142
  758MOL0     C 4482   1.369   0.476   4.510 -0.6929 -0.0464 -0.9434
  758MOL0     N 4483   1.428   0.352   4.567 -0.3856 -0.7459 -0.3474
  758MOL0     C 4484   1.418   0.310   4.698 -0.4298  0.0469 -0.2258
  758MOL0     C 4485   1.442   0.179   4.703 -0.0334 -0.5682  0.7250
  758MOL0     C 4486   1.441   0.085   4.827  0.2225  0.8622  0.6179
  758MOL0     C 4487   1.583   0.025   4.841  0.0193 -0.7272 -0.1357
  758MOL0     C 4488   1.588  -0.087   4.940  0.2867  0.0236 -0.0574
  758MOL0     C 4489   1.719  -0.161   4.944  1.0042 -0.4002 -0.2142
  758MOL0     O 4490   1.815  -0.077   5.011  0.5183 -0.5938  0.1789
  758MOL0     C 4491   1.863  -0.138   5.121 -0.6882  0.4189 -0.9160
  758MOL0     C 4492   1.790  -0.139   5.236  0.7958 -0.6079 -0.0319
  758MOL0     C 4493   1.820  -0.203   5.357 -0.3380 -0.4394 -0.6795
  758MOL0     C 4494   1.727  -0.173   5.473 -0.1925 -0.3125 -0.1605
  758MOL0     C 4495   1.941  -0.270   5.366 -0.4085  0.4332  0.3202
  758MOL0     C 4496   2.002  -0.344   5.482 -0.1737  0.4665  0.2834
  758MOL0     O 4497   2.132  -0.297   5.505 -0.1961 -0.0246 -0.3908
  758MOL0     C 4498   2.187  -0.341   5.623  0.0916  0.6922 -0.2593
  758MOL0     C 4499   2.319  -0.392   5.633 -0.0022  0.1714 -0.6489
  758MOL0     C 4500   2.367  -0.430   5.759  0.4553  0.6007  0.2445
  758MOL0     C 4501   2.291  -0.430   5.875 -0.2127  0.0710 -0.1593
  758MOL0     O 4502   2.351  -0.482   5.986  0.5210 -0.1894  0.7344
  758MOL0     C 4503   2.266  -0.496   6.107 -0.0428 -0.1537  1.3914
  758MOL0     C 4504   2.166  -0.605   6.099 -0.6016  0.0047 -0.3108
  758MOL0     C 4505   2.040  -0.589   6.182  0.3795  0.1390 -0.3883
  758MOL0     C 4506   2.079  -0.598   6.334  0.2156  0.2303 -0.4255
  758MOL0     C 4507   1.960  -0.567   6.430  0.1431  0.0539 -0.9296
  758MOL0     C 4508   1.886  -0.433   6.415 -0.7611  0.2415 -0.7581
  758MOL0     C 4509   1.777  -0.431   6.522  1.2905  0.2172 -0.6880
  758MOL0     C 4510   1.705  -0.294   6.539 -0.5640  0.3831  0.4163
  758MOL0    Cl 4511   1.620  -0.227   6.396  0.0472 -0.1870  0.2051
  758MOL0     C 4512   2.170  -0.371   5.874 -0.3337 -0.9718 -0.5425
  758MOL0     C 4513   2.123  -0.318   5.748 -0.0620 -0.2566 -1.2976
  758MOL0     O 4514   1.939  -0.424   5.547  0.2743 -0.8270 -0.6399
  758MOL0     C 4515   2.015  -0.277   5.243  0.4334  0.1631 -0.4610
  758MOL0     C 4516   1.972  -0.219   5.123  0.4676  0.2848  0.1066
  758MOL0     N 4517   1.473   0.149   4.574 -0.2048  1.1811  0.6490
  758MOL0     N 4518   1.439   0.241   4.500  0.3176  0.3931  0.6598
  758MOL0     C 4519   1.338   1.107   3.668 -0.1540 -0.8774 -0.0905
  758MOL0     C 4520   1.282   1.069   3.555  0.6511  0.3457  0.0881
  758MOL0     C 4521   1.187   0.762   3.230  0.2847  0.5351  0.8193
  758MOL0     C 4522   1.083   0.825   3.163 -0.0753  0.2799 -0.3352
  758MOL0     C 4523   1.037   0.789   3.036  0.1483 -0.3974 -1.0934
  758MOL0     C 4524   1.079   0.676   2.970 -0.7599  0.0394  0.1498
  758MOL0     O 4525   1.029   0.634   2.846 -0.2045  0.1528 -0.0703
  758MOL0     C 4526   0.997   0.492   2.824 -0.4514 -0.3230 -0.6565
  758MOL0     C 4527   0.862   0.463   2.871  0.4915  0.8620 -0.4668
  758MOL0     C 4528   0.842   0.316   2.914 -0.0081  1.2931 -0.2146
  758MOL0     C 4529   0.694   0.263   2.919  0.3012  0.6896  0.0550
  758MOL0     C 4530   0.685   0.132   2.849 -0.8766  0.2537  0.7129
  758MOL0     C 4531   0.689   0.028   2.779 -0.2006  0.4947  0.5093
  758MOL0     C 4532   1.186   0.605   3.028  0.1192 -0.0827 -0.1082
  758MOL0     C 4533   1.236   0.649   3.161 -0.0284  0.0603  0.3278
  758MOL0     C 4534   1.357   0.572   3.225 -0.1975  0.0979 -0.1597
  758MOL0     H 4535   1.522   0.881   3.416 -1.5155  0.8004 -0.5291
  758MOL0     H 4536   1.642   0.940   3.610  0.4818 -1.5575 -1.4367
  758MOL0     H 4537   1.399   1.233   3.911  0.5827  0.4886 -0.6859
  758MOL0     H 4538   1.537   1.171   4.006 -1.6417  2.2636 -0.0660
  758MOL0     H 4539   1.315   1.075   4.084 -2.4463 -1.3660  0.1093
  758MOL0     H 4540   1.298   0.997   3.929  1.9737  1.1168 -2.0921
  758MOL0     H 4541   1.503   0.857   3.987  0.9677 -1.1211  1.9285
  758MOL0     H 4542   1.548   0.958   4.110  0.1061  0.4473 -0.4804
  758MOL0     H 4543   1.349   0.890   4.246  1.7948  0.8491 -1.0970
  758MOL0     H 4544   1.304   0.785   4.099  1.5372 -0.0117 -1.8849
  758MOL0     H 4545   1.566   0.745   4.258 -0.2286  1.3647  0.7762
  758MOL0     H 4546   1.478   0.645   4.141  1.0725  0.7739 -0.3280
  758MOL0     H 4547   1.364   0.730   4.401 -1.1635  0.6511 -1.5319
  758MOL0     H 4548   1.286   0.624   4.286  0.0458 -0.3093  0.6722
  758MOL0     H 4549   1.550   0.546   4.441  0.2211  1.1515  1.6381
  758MOL0     H 4550   1.450   0.449   4.320  0.8437 -1.4513  1.0399
  758MOL0     H 4551   1.364   0.549   4.591  1.1640 -1.2412  0.3271
  758MOL0     H 4552   1.272   0.453   4.466  0.2029  0.1568 -3.1840
  758MOL0     H 4553   1.400   0.376   4.782 -0.6728  1.5239 -1.3963
  758MOL0     H 4554   1.367   0.006   4.812  0.9775  0.2328  0.1645
  758MOL0     H 4555   1.413   0.128   4.923 -0.4896 -0.2163  0.8958
  758MOL0     H 4556   1.614  -0.012   4.743  0.1666 -0.3042 -0.2507
  758MOL0     H 4557   1.659   0.101   4.863  2.4751 -2.4743 -2.1316
  758MOL0     H 4558   1.556  -0.053   5.039 -3.5219 -1.1505 -0.7111
  758MOL0     H 4559   1.516  -0.166   4.917  2.9644 -2.0799 -1.7761
  758MOL0     H 4560   1.695  -0.257   4.990 -0.8415  0.0648 -0.1427
  758MOL0     H 4561   1.753  -0.181   4.842  2.9327 -3.7552  0.9197
  758MOL0     H 4562   1.689  -0.100   5.225  1.5359  0.8400 -2.3070
  758MOL0     H 4563   1.775  -0.172   5.571  2.8180  2.0979 -1.4917
  758MOL0     H 4564   1.665  -0.263   5.483 -0.6326  0.2272  3.1047
  758MOL0     H 4565   1.662  -0.088   5.452  0.3642  0.6980  1.8984
  758MOL0     H 4566   2.386  -0.402   5.548 -0.7462 -4.5407 -0.9569
  758MOL0     H 4567   2.471  -0.461   5.760  0.7616  1.4827 -1.2109
  758MOL0     H 4568   2.339  -0.510   6.187  0.2526 -4.1117  0.6336
  758MOL0     H 4569   2.209  -0.405   6.126 -0.8041 -0.1712 -0.6035
  758MOL0     H 4570   2.132  -0.616   5.996 -1.2086  1.1805 -0.2595
  758MOL0     H 4571   2.213  -0.697   6.135  2.0277  1.8118  1.2136
  758MOL0     H 4572   1.971  -0.672   6.166  0.5911  0.2706 -2.1917
  758MOL0     H 4573   1.997  -0.492   6.156  0.7594  0.7089  1.0150
  758MOL0     H 4574   2.154  -0.522   6.357  0.3962  0.2756 -1.1515
  758MOL0     H 4575   2.120  -0.695   6.362  1.8781  2.0039  4.3327
  758MOL0     H 4576   1.885  -0.645   6.414 -0.6416  0.0803  2.0495
  758MOL0     H 4577   2.004  -0.580   6.529  2.8728  0.0712 -2.0296
  758MOL0     H 4578   1.852  -0.421   6.312 -0.3496  1.5949 -0.7549
  758MOL0     H 4579   1.954  -0.349   6.426 -0.3870  0.0618 -1.6062
  758MOL0     H 4580   1.799  -0.470   6.622  1.1915  0.1864 -0.6771
  758MOL0     H 4581   1.696  -0.498   6.491 -1.7205  2.6294  1.2989
  758MOL0     H 4582   1.771  -0.214   6.572 -0.9625  1.3260 -0.9958
  758MOL0     H 4583   1.620  -0.295   6.608  0.3616 -0.2937  1.6028
  758MOL0     H 4584   2.110  -0.349   5.961  0.9477 -3.7057  1.1570
  758MOL0     H 4585   2.028  -0.266   5.738 -0.2623 -0.1773  0.6462
  758MOL0     H 4586   2.103  -0.340   5.241  0.5195  0.2622  0.0898
  758MOL0     H 4587   2.024  -0.226   5.028  0.6783  1.1704  0.1493
  758MOL0     H 4588   1.292   1.167   3.746 -0.6022  0.0290 -1.0275
  758MOL0     H 4589   1.182   1.100   3.529  1.0285  2.9770  1.4254
  758MOL0     H 4590   1.037   0.911   3.211 -4.9485  0.3091 -4.2946
  758MOL0     H 4591   0.957   0.854   3.002  0.1351  0.6037  0.7488
  758MOL0     H 4592   1.013   0.474   2.717 -3.0168 -4.1183 -0.5968
  758MOL0     H 4593   1.055   0.430   2.894 -1.8288  1.5308  2.3425
  758MOL0     H 4594   0.800   0.495   2.787 -0.3720 -0.6701 -0.4566
  758MOL0     H 4595   0.825   0.532   2.948 -0.5773  0.9128 -1.0039
  758MOL0     H 4596   0.901   0.242   2.858 -0.2628 -1.9878  3.4201
  758MOL0     H 4597   0.878   0.306   3.017 -0.9715 -1.0693 -0.0579
  758MOL0     H 4598   0.638   0.337   2.860  1.8304 -1.6469 -4.8982
  758MOL0     H 4599   0.657   0.250   3.021 -1.1297 -0.3737 -0.5655
  758MOL0     H 4600   0.658  -0.068   2.742 -0.3508  1.1858 -1.2626
  758MOL0     H 4601   1.242   0.522   2.987  0.6857  0.9458 -1.4968
  758MOL0     H 4602   1.323   0.527   3.318  2.5735 -0.0688  0.8798
  758MOL0     H 4603   1.391   0.492   3.158  0.0965  2.4770 -3.0814
  758MOL0     H 4604   1.444   0.635   3.247 -0.0765 -0.3053  0.5407
  759MOL0     O 4605   4.544   0.158  10.035 -0.2692 -1.1014  0.1566
  759MOL0     C 4606   4.539   0.290  10.043 -0.1117 -0.0787 -0.5877
  759MOL0     O 4607   4.450   0.354  10.121  1.2857 -0.9496 -0.2432
  759MOL0     C 4608   4.415   0.302  10.240 -0.1586 -0.6198  0.7405
  759MOL0     C 4609   4.302   0.364  10.297 -1.2207 -1.0912 -0.3098
  759MOL0     C 4610   4.236   0.329  10.413 -1.0745 -0.7879  0.5147
  759MOL0     C 4611   4.279   0.212  10.474 -0.8890 -0.6407 -0.6754
  759MOL0     O 4612   4.198   0.151  10.567 -0.3476  0.2752  0.6466
  759MOL0     C 4613   4.211   0.015  10.605 -0.2165 -0.7151  0.4328
  759MOL0     C 4614   4.057  -0.024  10.650 -0.6821 -0.2566  2.0192
  759MOL0     C 4615   4.026  -0.020  10.802 -0.3098  0.0945 -0.7093
  759MOL0     C 4616   4.056  -0.148  10.881  1.2338  0.1830  0.4738
  759MOL0     C 4617   4.199  -0.185  10.865 -0.5869  1.0158 -0.4477
  759MOL0     C 4618   4.218  -0.309  10.953 -0.0632  0.1461  0.3620
  759MOL0     C 4619   4.367  -0.353  10.941  0.9538 -0.6817 -0.4551
  759MOL0     C 4620   4.386  -0.494  11.005  0.6598  0.2229 -1.7969
  759MOL0     N 4621   4.332  -0.508  11.151  0.2478  0.3617  0.7757
  759MOL0     C 4622   4.361  -0.429  11.255 -0.2514 -0.5635  0.1767
  759MOL0     C 4623   4.300  -0.488  11.361  0.0184 -0.5058  0.3744
  759MOL0     C 4624   4.300  -0.438  11.508  0.5027  0.5677 -0.2966
  759MOL0     C 4625   4.423  -0.501  11.583  0.5397  0.9102 -0.8386
  759MOL0     C 4626   4.557  -0.438  11.542 -0.2629  0.3213  0.9812
  759MOL0     C 4627   4.588  -0.322  11.630 -0.2684  0.5475 -0.0668
  759MOL0     O 4628   4.705  -0.261  11.586  0.8336  0.4469  0.6304
  759MOL0     C 4629   4.793  -0.211  11.681 -0.2747 -0.6160 -0.5778
  759MOL0     C 4630   4.743  -0.160  11.797 -0.4482  0.3958 -0.3407
  759MOL0     C 4631   4.824  -0.089  11.896 -0.5938  1.2520  0.4761
  759MOL0     C 4632   4.750  -0.026  12.009  1.2805 -0.1044 -0.5405
  759MOL0     C 4633   4.970  -0.097  11.879 -0.2532  0.5108 -0.6592
  759MOL0     C 4634   5.070  -0.047  11.979 -0.1587 -0.6377 -0.4344
  759MOL0     O 4635   5.036   0.006  12.100  0.0217 -0.6609  0.8309
  759MOL0     C 4636   5.119   0.062  12.198  0.0131 -0.9347  0.9057
  759MOL0     C 4637   5.253   0.108  12.181 -0.7993 -0.1593  0.6056
  759MOL0     C 4638   5.333   0.168  12.278 -0.5527  0.7078  0.9389
  759MOL0     C 4639   5.266   0.196  12.403  0.2596  0.7050 -0.2714
  759MOL0     O 4640   5.346   0.256  12.497 -0.6179  0.0911  0.0052
  759MOL0     C 4641   5.322   0.257  12.638  0.1691 -0.2722 -0.0242
  759MOL0     C 4642   5.441   0.317  12.720 -0.9954 -0.0947  0.9252
  759MOL0     C 4643   5.395   0.308  12.863  0.7487  0.3166  0.0488
  759MOL0     C 4644   5.492   0.358  12.960  0.0641  0.7312 -0.3401
  759MOL0     C 4645   5.498   0.261  13.090  0.2710 -0.4816 -0.4413
  759MOL0     C 4646   5.585   0.318  13.196  0.0163  0.3557 -0.1780
  759MOL0     C 4647   5.732   0.322  13.160  0.3898 -0.5038  0.9638
  759MOL0     C 4648   5.814   0.354  13.278 -0.4614 -0.0040 -0.7546
  759MOL0    Cl 4649   5.742   0.497  13.370  0.0376  0.2500  0.0928
  759MOL0     C 4650   5.130   0.153  12.423 -0.1294 -0.4820 -0.5170
  759MOL0     C 4651   5.067   0.084  12.326 -0.5390  0.6365  0.0812
  759MOL0     O 4652   5.185  -0.084  11.950  0.3568  0.4067  0.3545
  759MOL0     C 4653   5.021  -0.154  11.760 -0.4430  1.2853 -0.0815
  759MOL0     C 4654   4.936  -0.204  11.663 -0.6479  0.4107 -0.2188
  759MOL0     N 4655   4.239  -0.600  11.315 -0.5045  0.3804 -0.3459
  759MOL0     N 4656   4.265  -0.621  11.198 -0.8445 -0.0112  0.3109
  759MOL0     C 4657   4.398   0.148  10.428  0.3373  0.6690 -0.3291
  759MOL0     C 4658   4.467   0.194  10.313 -0.4914 -0.4070 -0.1068
  759MOL0     C 4659   4.608   0.370   9.932  0.5436 -0.3105 -0.0329
  759MOL0     C 4660   4.574   0.510   9.923  0.6992  0.3301 -0.4006
  759MOL0     C 4661   4.622   0.588   9.812  0.0117  0.0767 -0.1910
  759MOL0     C 4662   4.703   0.534   9.708  1.4646 -0.1571  0.2079
  759MOL0     O 4663   4.756   0.598   9.598  0.7645 -0.1695 -0.5396
  759MOL0     C 4664   4.708   0.730   9.557 -0.3264  1.1753 -0.3592
  759MOL0     C 4665   4.667   0.694   9.409 -0.5794 -0.3115  0.3866
  759MOL0     C 4666   4.639   0.817   9.333 -0.2796  0.2583 -1.0090
  759MOL0     C 4667   4.760   0.902   9.303  0.7882 -0.2306  0.3312
  759MOL0     C 4668   4.718   1.030   9.240  0.5902 -0.3811 -1.2232
  759MOL0     C 4669   4.664   1.126   9.177 -0.1298 -0.2855  0.4677
  759MOL0     C 4670   4.746   0.409   9.729  0.1628  0.0150  0.6379
  759MOL0     C 4671   4.699   0.330   9.836 -0.8330  0.3824 -0.1870
  759MOL0     C 4672   4.776   0.204   9.850 -0.0315  0.0865 -0.1208
  759MOL0     H 4673   4.247   0.447  10.253  0.1941  1.7360  2.9040
  759MOL0     H 4674   4.145   0.379  10.444 -3.0547 -1.8979 -2.9300
  759MOL0     H 4675   4.271   0.015  10.696 -1.4194 -1.0391  1.2417
  759MOL0     H 4676   4.258  -0.055  10.534 -0.0093  0.6193 -0.7869
  759MOL0     H 4677   3.991   0.045  10.596  2.7660  1.1043 -0.8356
  759MOL0     H 4678   4.031  -0.123  10.611 -0.4279  1.1040 -2.2113
  759MOL0     H 4679   4.084   0.065  10.840  2.8162 -1.3468 -1.9568
  759MOL0     H 4680   3.920  -0.001  10.819 -0.4305 -0.7795 -0.4634
  759MOL0     H 4681   4.027  -0.131  10.985 -0.1522 -1.4734  0.3927
  759MOL0     H 4682   3.991  -0.231  10.851 -4.0509  4.7227 -2.5959
  759MOL0     H 4683   4.259  -0.106  10.910  3.6865 -0.4193 -3.0248
  759MOL0     H 4684   4.213  -0.212  10.760  0.5557  0.8846 -0.2759
  759MOL0     H 4685   4.186  -0.299  11.057  1.2445 -3.6323  1.2927
  759MOL0     H 4686   4.148  -0.378  10.904 -0.5027  1.1536 -0.4667
  759MOL0     H 4687   4.432  -0.275  10.982 -0.7106  0.4812  0.0466
  759MOL0     H 4688   4.398  -0.364  10.836  0.8074  1.6119 -0.7926
  759MOL0     H 4689   4.342  -0.570  10.940 -1.2834 -0.5356  0.2771
  759MOL0     H 4690   4.495  -0.510  11.006  0.5689 -1.7715  2.6040
  759MOL0     H 4691   4.423  -0.342  11.239 -1.3035 -0.0708 -1.4723
  759MOL0     H 4692   4.208  -0.471  11.556  2.1029 -0.3013  2.4442
  759MOL0     H 4693   4.289  -0.330  11.521 -1.7048  0.0617  3.4483
  759MOL0     H 4694   4.411  -0.492  11.691  2.6742  1.6808 -0.6239
  759MOL0     H 4695   4.420  -0.607  11.555 -0.9544  0.1677  1.7820
  759MOL0     H 4696   4.642  -0.506  11.556  0.6087  1.3599  0.9455
  759MOL0     H 4697   4.550  -0.396  11.442  1.4344 -3.2299 -0.8328
  759MOL0     H 4698   4.512  -0.244  11.636  0.6163  1.3198  2.4411
  759MOL0     H 4699   4.593  -0.368  11.729 -3.2890 -2.4184 -1.0800
  759MOL0     H 4700   4.638  -0.164  11.826 -0.3073  1.3859  0.3481
  759MOL0     H 4701   4.761  -0.088  12.099 -0.2266 -0.6154 -0.6836
  759MOL0     H 4702   4.644  -0.011  11.987  1.6048 -0.6119 -2.6551
  759MOL0     H 4703   4.793   0.073  12.024 -0.7311  0.6673  0.4808
  759MOL0     H 4704   5.303   0.096  12.085 -0.7057 -0.7009  0.7214
  759MOL0     H 4705   5.439   0.187  12.273 -0.1833 -0.8493  2.3915
  759MOL0     H 4706   5.227   0.308  12.652 -0.6717 -1.2659 -1.7118
  759MOL0     H 4707   5.314   0.151  12.663 -1.9079 -0.3418 -0.7650
  759MOL0     H 4708   5.535   0.263  12.707 -2.2228 -1.8676 -1.2172
  759MOL0     H 4709   5.464   0.421  12.695  1.0750 -0.1204  2.5116
  759MOL0     H 4710   5.383   0.200  12.879 -1.5959  0.2914 -1.3993
  759MOL0     H 4711   5.298   0.358  12.876  0.5931 -0.3122  1.6156
  759MOL0     H 4712   5.444   0.451  12.993  0.0356 -0.5618  3.8738
  759MOL0     H 4713   5.592   0.378  12.920  1.0533  0.4601  1.8233
  759MOL0     H 4714   5.398   0.235  13.126  0.7343 -3.9749 -1.2863
  759MOL0     H 4715   5.541   0.167  13.052 -1.5133 -1.8742  0.8104
  759MOL0     H 4716   5.564   0.259  13.286 -2.7009  2.4143  0.6856
  759MOL0     H 4717   5.550   0.420  13.213  0.4397  0.4966 -0.1225
  759MOL0     H 4718   5.752   0.405  13.091  2.9666  0.8245  3.0810
  759MOL0     H 4719   5.765   0.226  13.118  0.6788  0.0922 -0.2133
  759MOL0     H 4720   5.918   0.373  13.250 -0.5640  0.8482 -0.5889
  759MOL0     H 4721   5.814   0.269  13.348  0.4656  1.6615  1.4161
  759MOL0     H 4722   5.084   0.172  12.520 -0.7152 -2.4989 -0.3586
  759MOL0     H 4723   4.965   0.053  12.347 -1.2096  0.8664 -2.4600
  759MOL0     H 4724   5.129  -0.145  11.747  0.3751  1.5746  4.8219
  759MOL0     H 4725   4.963  -0.253  11.570 -3.4210  0.8628 -1.3580
  759MOL0     H 4726   4.446   0.065  10.480 -1.4506 -0.5836 -0.6038
  759MOL0     H 4727   4.542   0.133  10.263  0.4712  2.7141 -2.8029
  759MOL0     H 4728   4.514   0.559   9.999  0.2265 -2.3969  1.1066
  759MOL0     H 4729   4.594   0.692   9.821  0.8234  0.2595  0.2805
  759MOL0     H 4730   4.617   0.768   9.605  0.1947  1.6318  0.3032
  759MOL0     H 4731   4.787   0.806   9.565 -0.5334  1.4689 -1.0599
  759MOL0     H 4732   4.587   0.621   9.396  0.3884 -0.9353 -3.4139
  759MOL0     H 4733   4.754   0.645   9.365  0.6267 -0.0119  2.3247
  759MOL0     H 4734   4.593   0.774   9.244 -0.0094 -2.7366  0.1988
  759MOL0     H 4735   4.567   0.872   9.393  0.5631  1.0973 -0.7494
  759MOL0     H 4736   4.823   0.847   9.233 -0.2661 -1.3695  0.2324
  759MOL0     H 4737   4.820   0.920   9.392  0.3292  2.9545  0.1002
  759MOL0     H 4738   4.614   1.196   9.113  2.1504  1.5290  0.5442
  759MOL0     H 4739   4.823   0.372   9.662 -0.1614  2.2888 -1.0872
  759MOL0     H 4740   4.855   0.194   9.776 -2.0362 -4.8831 -2.1083
  759MOL0     H 4741   4.814   0.197   9.953 -2.4167 -4.2301  0.7557
  759MOL0     H 4742   4.713   0.118   9.823 -0.8124  1.2425 -2.2104
  760MOL0     O 4743   7.268   8.393   9.527  1.5346  0.4310 -0.7102
  760MOL0     C 4744   7.184   8.475   9.501  0.2413 -0.1160  0.3894
  760MOL0     O 4745   7.186   8.613   9.519 -0.4374 -0.0258 -0.1203
  760MOL0     C 4746   7.301   8.674   9.546 -0.5156 -0.0105 -0.2127
  760MOL0     C 4747   7.368   8.732   9.439 -0.4958 -0.2602  0.8211
  760MOL0     C 4748   7.487   8.801   9.461 -0.3160  0.1674 -1.0503
  760MOL0     C 4749   7.537   8.809   9.592  1.0115  0.1466  0.0772
  760MOL0     O 4750   7.635   8.893   9.630 -0.1000 -0.3385 -1.3993
  760MOL0     C 4751   7.643   9.025   9.573 -0.1378  1.1002  0.6259
  760MOL0     C 4752   7.706   9.115   9.678 -0.5216  0.3034  0.9637
  760MOL0     C 4753   7.619   9.148   9.793  0.2376  0.0187  0.3440
  760MOL0     C 4754   7.699   9.163   9.931  0.6299  0.0684 -0.2025
  760MOL0     C 4755   7.627   9.251  10.041  0.0161 -0.0750  0.1117
  760MOL0     C 4756   7.667   9.396  10.017  0.3695  0.3987  0.4114
  760MOL0     C 4757   7.603   9.502  10.110 -1.0050  0.1083  0.1316
  760MOL0     C 4758   7.477   9.576  10.079 -0.0770  0.6395  0.6443
  760MOL0     N 4759   7.357   9.494  10.092  0.6625 -0.1655  0.1691
  760MOL0     C 4760   7.308   9.398  10.000  0.4093 -0.0569 -0.1578
  760MOL0     C 4761   7.192   9.334  10.066 -0.5582  0.0802  0.7672
  760MOL0     C 4762   7.102   9.229   9.999 -0.2671 -0.4867  0.4337
  760MOL0     C 4763   6.958   9.267  10.023 -0.0489 -0.7192 -0.1843
  760MOL0     C 4764   6.850   9.156   9.986  0.1993 -0.7742 -0.2992
  760MOL0     C 4765   6.805   9.089  10.119  0.0036 -0.7117  0.9820
  760MOL0     O 4766   6.747   8.955  10.084  0.9294  0.2346 -0.3708
  760MOL0     C 4767   6.614   8.947  10.078  1.2033 -0.0101 -0.0815
  760MOL0     C 4768   6.545   8.984   9.962 -0.9215  0.8463  0.1829
  760MOL0     C 4769   6.411   8.964   9.943 -0.2794 -0.0176 -0.6444
  760MOL0     C 4770   6.367   8.985   9.805 -0.2630  0.3755 -0.1200
  760MOL0     C 4771   6.330   8.901  10.050  0.5781 -0.7341  0.5001
  760MOL0     C 4772   6.186   8.894  10.037  0.0868 -0.0935  0.4592
  760MOL0     O 4773   6.116   8.990  10.105 -0.6887  0.0218  0.7069
  760MOL0     C 4774   5.991   8.969  10.148 -0.4671  0.2000 -0.3191
  760MOL0     C 4775   5.940   8.857  10.215  0.4183  0.5264 -0.2253
  760MOL0     C 4776   5.812   8.864  10.265  0.0615  1.1229 -0.4646
  760MOL0     C 4777   5.730   8.975  10.238 -0.8624  0.0274 -0.5493
  760MOL0     O 4778   5.603   8.976  10.296 -0.5940 -0.3994  0.0317
  760MOL0     C 4779   5.567   9.099  10.350 -0.5367 -0.6737 -0.3184
  760MOL0     C 4780   5.468   9.066  10.455  1.0360  0.0633  0.5198
  760MOL0     C 4781   5.522   8.953  10.543 -0.0395 -0.7595  0.1308
  760MOL0     C 4782   5.441   8.929  10.671 -0.6890 -0.9694 -0.1461
  760MOL0     C 4783   5.495   8.811  10.746 -0.5099 -0.8009  0.8659
  760MOL0     C 4784   5.458   8.806  10.890 -0.6909 -0.5569 -0.0401
  760MOL0     C 4785   5.525   8.687  10.958 -0.1518  0.2634 -0.1819
  760MOL0     C 4786   5.491   8.695  11.106 -0.0581  0.2682 -0.5222
  760MOL0    Cl 4787   5.539   8.533  11.178  0.1463  0.2673 -0.1883
  760MOL0     C 4788   5.770   9.072  10.149 -0.4517  0.1824 -0.5017
  760MOL0     C 4789   5.905   9.072  10.115  1.1426 -0.1188 -0.3061
  760MOL0     O 4790   6.136   8.822   9.943  0.3467 -0.4218 -0.3748
  760MOL0     C 4791   6.398   8.855  10.161 -0.5497 -0.6377 -1.8312
  760MOL0     C 4792   6.538   8.881  10.175 -0.0731  0.2937  0.1054
  760MOL0     N 4793   7.173   9.393  10.187 -0.0107 -0.0547  0.4806
  760MOL0     N 4794   7.261   9.485  10.193  0.6028 -0.0919 -1.0575
  760MOL0     C 4795   7.468   8.747   9.699 -1.0153 -1.2564 -0.0630
  760MOL0     C 4796   7.347   8.682   9.671 -0.2535  1.0956  0.0504
  760MOL0     C 4797   7.053   8.419   9.451  0.5661  0.1945 -0.7490
  760MOL0     C 4798   6.979   8.498   9.359  0.3555 -0.0752 -0.3215
  760MOL0     C 4799   6.854   8.459   9.313 -0.0627 -0.0006 -0.0979
  760MOL0     C 4800   6.804   8.329   9.348  0.8627 -1.1219  0.2764
  760MOL0     O 4801   6.700   8.261   9.279  0.3461  0.1860  0.1877
  760MOL0     C 4802   6.620   8.330   9.188  0.1210 -0.4922  0.9588
  760MOL0     C 4803   6.528   8.236   9.110  0.2072 -0.1520  0.0801
  760MOL0     C 4804   6.479   8.106   9.182 -1.0477 -0.1638 -0.0667
  760MOL0     C 4805   6.363   8.130   9.271  0.3226 -0.0531 -0.5303
  760MOL0     C 4806   6.238   8.177   9.207  0.2192 -0.0166 -0.0291
  760MOL0     C 4807   6.142   8.225   9.149 -0.6358 -0.5574 -0.8620
  760MOL0     C 4808   6.869   8.255   9.449 -0.4900 -0.5014 -0.0355
  760MOL0     C 4809   6.991   8.301   9.508 -0.0645  0.0449  0.3070
  760MOL0     C 4810   7.049   8.222   9.615 -0.0108 -0.1294  0.3349
  760MOL0     H 4811   7.324   8.734   9.340  1.6882  1.5303 -0.2142
  760MOL0     H 4812   7.546   8.848   9.382  2.6622  0.9435  1.4596
  760MOL0     H 4813   7.544   9.069   9.560  0.2786  2.8199  2.5908
  760MOL0     H 4814   7.704   9.028   9.482 -0.1931  2.9331  0.5960
  760MOL0     H 4815   7.803   9.072   9.704 -0.3907 -1.0772 -1.5126
  760MOL0     H 4816   7.739   9.202   9.620 -2.1386 -0.9022 -1.9752
  760MOL0     H 4817   7.570   9.244   9.772  1.0076 -0.4114 -4.8774
  760MOL0     H 4818   7.548   9.068   9.815  1.6858 -0.8213  2.2420
  760MOL0     H 4819   7.708   9.061   9.970  1.3416 -0.3457 -1.3772
  760MOL0     H 4820   7.801   9.195   9.907  1.5750  0.1612  3.3420
  760MOL0     H 4821   7.656   9.228  10.144  2.3599  1.1761 -0.2138
  760MOL0     H 4822   7.518   9.240  10.031 -0.1021  1.4442 -0.6597
  760MOL0     H 4823   7.776   9.410  10.018  1.1358 -4.1059 -0.3173
  760MOL0     H 4824   7.618   9.416   9.921  2.0551  0.3952 -0.5026
  760MOL0     H 4825   7.683   9.576  10.108  0.7182 -1.6271  1.4131
  760MOL0     H 4826   7.608   9.467  10.214 -1.9539 -1.9320 -0.4642
  760MOL0     H 4827   7.464   9.673  10.127  0.2421  1.6689 -1.2759
  760MOL0     H 4828   7.491   9.612   9.977 -0.5691 -0.1820  0.2741
  760MOL0     H 4829   7.353   9.392   9.901  1.4719  1.6648  0.1849
  760MOL0     H 4830   7.125   9.140  10.058  1.6062  0.2044  0.8100
  760MOL0     H 4831   7.119   9.218   9.891 -3.0650  1.7383 -0.3729
  760MOL0     H 4832   6.935   9.309  10.122  0.3977  0.4888 -0.5690
  760MOL0     H 4833   6.944   9.358   9.963  2.2711 -2.2052 -3.1831
  760MOL0     H 4834   6.759   9.193   9.937  0.4986 -1.5080 -1.4647
  760MOL0     H 4835   6.885   9.092   9.905  1.3881  0.4118 -0.7622
  760MOL0     H 4836   6.889   9.072  10.186 -1.7885  3.1353  4.6444
  760MOL0     H 4837   6.734   9.152  10.174  0.1292  0.6651 -0.3623
  760MOL0     H 4838   6.607   9.027   9.883  0.2530 -2.2039 -0.7104
  760MOL0     H 4839   6.407   8.907   9.740  1.0151 -0.0004  1.0776
  760MOL0     H 4840   6.408   9.076   9.761  1.1309  0.0238  0.3942
  760MOL0     H 4841   6.259   8.994   9.792 -0.6814 -1.7746  1.2178
  760MOL0     H 4842   5.996   8.768  10.243  0.9339 -1.0965 -5.3216
  760MOL0     H 4843   5.775   8.780  10.321 -0.6669  0.8921 -1.2578
  760MOL0     H 4844   5.649   9.163  10.382  0.4054 -1.3388 -1.3190
  760MOL0     H 4845   5.518   9.153  10.269 -0.0588  2.2990  1.2533
  760MOL0     H 4846   5.459   9.158  10.513 -1.8248  0.0526  0.2083
  760MOL0     H 4847   5.371   9.040  10.411  1.7996 -1.9338 -0.1261
  760MOL0     H 4848   5.622   8.982  10.574  1.6016 -1.2267 -4.0470
  760MOL0     H 4849   5.536   8.857  10.493  1.2113 -0.4219 -0.1947
  760MOL0     H 4850   5.335   8.908  10.658 -1.9248  3.0686  1.7336
  760MOL0     H 4851   5.459   9.009  10.744  1.1400  0.2943 -1.8663
  760MOL0     H 4852   5.475   8.723  10.684 -0.8302  0.5804 -1.0638
  760MOL0     H 4853   5.604   8.817  10.753 -0.0928 -3.6881 -1.2176
  760MOL0     H 4854   5.352   8.799  10.918 -0.1386  0.5004  2.6036
  760MOL0     H 4855   5.498   8.899  10.931 -0.7288 -0.8208  0.6216
  760MOL0     H 4856   5.634   8.697  10.949  0.1847 -1.3316  1.5596
  760MOL0     H 4857   5.487   8.596  10.910 -2.5507  2.3513 -2.6201
  760MOL0     H 4858   5.383   8.701  11.120 -0.5379 -1.6529 -2.7981
  760MOL0     H 4859   5.535   8.788  11.143 -2.4698  1.2628  0.0340
  760MOL0     H 4860   5.696   9.142  10.112 -1.3855 -1.5338 -2.0779
  760MOL0     H 4861   5.950   9.160  10.070  1.2377  1.0219  1.8609
  760MOL0     H 4862   6.341   8.791  10.227 -3.2729  1.0125 -2.4455
  760MOL0     H 4863   6.598   8.836  10.253 -0.9899  0.2122  0.7871
  760MOL0     H 4864   7.509   8.773   9.795  1.3796 -0.4242 -1.2374
  760MOL0     H 4865   7.289   8.633   9.748  0.1160 -2.9659 -1.9939
  760MOL0     H 4866   7.029   8.588   9.326  2.1301 -0.9149 -0.0526
  760MOL0     H 4867   6.789   8.523   9.254 -1.4793 -1.3843 -0.1051
  760MOL0     H 4868   6.570   8.406   9.249 -0.4887 -0.1273  0.0277
  760MOL0     H 4869   6.680   8.376   9.110 -0.8584 -0.2403  0.3343
  760MOL0     H 4870   6.582   8.204   9.020  2.6953 -0.5595  1.6199
  760MOL0     H 4871   6.454   8.306   9.070 -0.4174 -0.3596  0.8461
  760MOL0     H 4872   6.453   8.033   9.105 -0.6855 -0.5223  0.1432
  760MOL0     H 4873   6.556   8.066   9.249 -0.7577  1.9399  0.9256
  760MOL0     H 4874   6.386   8.202   9.350 -1.8628  1.0854 -0.8555
  760MOL0     H 4875   6.336   8.035   9.318  2.3913  0.8289  2.7730
  760MOL0     H 4876   6.050   8.273   9.120 -0.1323  1.3235  0.4467
  760MOL0     H 4877   6.821   8.163   9.482  0.3338 -2.4511 -3.6206
  760MOL0     H 4878   7.096   8.283   9.693  2.4948 -1.6105  0.1000
  760MOL0     H 4879   6.980   8.149   9.659  0.1382 -1.5661 -1.6945
  760MOL0     H 4880   7.130   8.165   9.570 -0.0868  1.3527 -1.7805
  761MOL0     O 4881   0.581   4.941   2.936 -0.0528  0.3520  0.0111
  761MOL0     C 4882   0.690   4.925   2.976  0.5704  0.8495 -0.5348
  761MOL0     O 4883   0.775   5.028   3.000 -1.2391  0.4325  0.0188
  761MOL0     C 4884   0.730   5.153   2.988  0.2346  0.1573 -0.1628
  761MOL0     C 4885   0.717   5.223   3.108 -0.2126 -0.0763  0.0162
  761MOL0     C 4886   0.664   5.354   3.112  0.3368 -0.5556  0.3536
  761MOL0     C 4887   0.622   5.422   2.993 -0.4392 -1.2062  0.8689
  761MOL0     O 4888   0.581   5.549   2.987  0.5192  0.5727  0.2366
  761MOL0     C 4889   0.534   5.611   3.111  0.1773 -0.2524 -0.6489
  761MOL0     C 4890   0.639   5.708   3.167 -0.6755  0.0513 -0.5609
  761MOL0     C 4891   0.628   5.749   3.322  0.0182 -0.2998  0.1743
  761MOL0     C 4892   0.692   5.897   3.359 -0.2268 -0.7882 -0.2184
  761MOL0     C 4893   0.625   5.943   3.491  0.8147  0.4905 -0.2577
  761MOL0     C 4894   0.497   6.033   3.481 -0.3152 -0.3204  0.0944
  761MOL0     C 4895   0.468   6.105   3.610 -0.0211  0.1244 -0.4348
  761MOL0     C 4896   0.341   6.189   3.614  0.3325 -0.4978 -0.0854
  761MOL0     N 4897   0.222   6.111   3.625  0.8585 -0.4682 -0.5826
  761MOL0     C 4898   0.131   6.092   3.522 -0.3078  0.1396 -0.1564
  761MOL0     C 4899   0.030   6.022   3.572  0.7194 -0.2005 -0.6006
  761MOL0     C 4900  -0.082   5.964   3.487  0.1156  0.1237  0.8125
  761MOL0     C 4901  -0.222   6.025   3.511 -0.0842  0.3079  0.4380
  761MOL0     C 4902  -0.336   5.945   3.458 -0.7021  0.6338 -0.2384
  761MOL0     C 4903  -0.398   5.840   3.548 -0.4087  0.9566 -0.3246
  761MOL0     O 4904  -0.505   5.893   3.625  0.2457  0.4659 -0.6093
  761MOL0     C 4905  -0.478   5.926   3.761 -0.3916  0.6049  0.0102
  761MOL0     C 4906  -0.571   6.019   3.805 -0.2791  0.0289  0.0559
  761MOL0     C 4907  -0.554   6.069   3.942  0.1760  0.4971  0.4150
  761MOL0     C 4908  -0.659   6.170   3.989  0.5102 -0.4090  0.4477
  761MOL0     C 4909  -0.455   6.015   4.028  0.1304 -0.0894 -0.0376
  761MOL0     C 4910  -0.442   6.045   4.181 -0.0214  0.0952  0.0620
  761MOL0     O 4911  -0.348   5.974   4.257  0.5616  0.4019  0.1011
  761MOL0     C 4912  -0.346   5.985   4.395  0.0939 -0.2281  0.1223
  761MOL0     C 4913  -0.339   6.102   4.473  0.5817 -0.1089  1.0652
  761MOL0     C 4914  -0.295   6.113   4.610  0.5281  0.6451  0.2031
  761MOL0     C 4915  -0.276   6.001   4.679  0.2387 -0.0063 -0.7800
  761MOL0     O 4916  -0.233   6.018   4.808  0.0203 -1.0699 -0.0990
  761MOL0     C 4917  -0.178   5.907   4.889  0.1610  0.8719  0.2081
  761MOL0     C 4918  -0.279   5.874   5.000 -0.5156  0.3983  0.2117
  761MOL0     C 4919  -0.287   5.979   5.112 -1.7251 -0.2635  0.1866
  761MOL0     C 4920  -0.407   5.933   5.197  0.5820 -0.4486 -0.2919
  761MOL0     C 4921  -0.414   6.016   5.327  0.4255  0.6567  0.5822
  761MOL0     C 4922  -0.534   5.987   5.404  0.5210 -0.5199 -0.7822
  761MOL0     C 4923  -0.526   6.083   5.538 -1.2063  0.0633  0.4596
  761MOL0     C 4924  -0.531   5.994   5.662 -0.4002 -0.2135  0.0961
  761MOL0    Cl 4925  -0.411   6.080   5.773 -0.1124  0.4592 -0.1350
  761MOL0     C 4926  -0.290   5.871   4.623  0.3496  0.8058 -0.5500
  761MOL0     C 4927  -0.325   5.871   4.484  0.1070  0.8539 -0.6667
  761MOL0     O 4928  -0.521   6.114   4.241  0.0308  0.1477  0.7278
  761MOL0     C 4929  -0.358   5.925   3.979  0.2693  0.4390  1.0812
  761MOL0     C 4930  -0.370   5.885   3.847  0.5490 -0.2568  0.2754
  761MOL0     N 4931   0.053   6.003   3.711  0.0173 -0.4905 -0.1851
  761MOL0     N 4932   0.169   6.052   3.741 -0.3096  0.3483 -0.1812
  761MOL0     C 4933   0.639   5.345   2.874  0.6003 -0.0564  0.5038
  761MOL0     C 4934   0.678   5.216   2.875  0.0001 -0.1990 -0.0675
  761MOL0     C 4935   0.729   4.781   2.989 -0.3979 -0.6185  0.0721
  761MOL0     C 4936   0.854   4.753   2.927  0.2281  0.4719 -0.9454
  761MOL0     C 4937   0.897   4.621   2.917  0.0209 -0.9349 -0.6878
  761MOL0     C 4938   0.833   4.521   2.996 -0.1624 -0.1043  0.6098
  761MOL0     O 4939   0.885   4.389   2.989  0.0383  0.8784 -0.5444
  761MOL0     C 4940   1.028   4.397   3.028 -0.0067 -0.6283 -0.1814
  761MOL0     C 4941   1.031   4.442   3.179  0.4638 -0.0421 -0.2623
  761MOL0     C 4942   1.020   4.323   3.276 -0.7292 -0.3569  0.3735
  761MOL0     C 4943   0.885   4.258   3.302 -0.7623 -0.8386 -0.2921
  761MOL0     C 4944   0.783   4.358   3.331 -0.2151  0.2313  0.0200
  761MOL0     C 4945   0.688   4.419   3.370  0.3227  0.2916  0.6185
  761MOL0     C 4946   0.708   4.550   3.054 -0.3860  0.5149  2.1827
  761MOL0     C 4947   0.659   4.679   3.057 -0.2463 -1.2345  1.5466
  761MOL0     C 4948   0.531   4.705   3.136  0.3817 -0.1599  0.4296
  761MOL0     H 4949   0.734   5.175   3.204 -0.8078 -0.8510 -0.2559
  761MOL0     H 4950   0.662   5.411   3.204 -0.5342 -0.4410  0.2721
  761MOL0     H 4951   0.508   5.538   3.188  2.3566  0.4546  0.8406
  761MOL0     H 4952   0.450   5.678   3.091 -1.1084 -1.5153  0.3538
  761MOL0     H 4953   0.738   5.662   3.163  0.3648  2.1101  0.1763
  761MOL0     H 4954   0.651   5.803   3.114 -2.4169  0.5801 -0.0661
  761MOL0     H 4955   0.520   5.738   3.335 -0.1405 -1.6960 -1.9641
  761MOL0     H 4956   0.677   5.671   3.379  2.0992  1.5212  1.0241
  761MOL0     H 4957   0.799   5.886   3.379 -0.0913 -0.3419 -0.6633
  761MOL0     H 4958   0.667   5.971   3.282  0.6064  1.2306  1.3464
  761MOL0     H 4959   0.697   5.997   3.553  0.6164  0.7999 -0.2943
  761MOL0     H 4960   0.620   5.858   3.560  2.8649  0.3326 -0.2410
  761MOL0     H 4961   0.515   6.106   3.402  0.4572  1.3878  1.7477
  761MOL0     H 4962   0.413   5.971   3.450 -0.6707  0.2292 -0.0503
  761MOL0     H 4963   0.549   6.177   3.619 -0.9643  1.1792 -0.1043
  761MOL0     H 4964   0.463   6.038   3.696 -2.5839  1.2838  0.4343
  761MOL0     H 4965   0.330   6.252   3.703  0.9199 -0.1227 -0.2720
  761MOL0     H 4966   0.341   6.254   3.526 -1.3031 -0.4108 -0.0469
  761MOL0     H 4967   0.151   6.117   3.418  1.1717 -1.8639 -0.4187
  761MOL0     H 4968  -0.079   5.854   3.492  0.8798 -0.0796 -2.1289
  761MOL0     H 4969  -0.062   5.974   3.380  1.2302 -0.0543  0.9832
  761MOL0     H 4970  -0.230   6.043   3.619 -0.1426 -1.9620  0.8523
  761MOL0     H 4971  -0.227   6.120   3.457  1.1242  0.4675  0.5823
  761MOL0     H 4972  -0.416   6.012   3.425  0.5499  2.5407  0.4142
  761MOL0     H 4973  -0.314   5.909   3.357 -2.4225  1.8404 -1.0981
  761MOL0     H 4974  -0.438   5.762   3.482  2.3147  0.3915 -1.4498
  761MOL0     H 4975  -0.323   5.794   3.613  2.1377  2.2139 -2.2156
  761MOL0     H 4976  -0.652   6.051   3.740 -0.8892  2.7812  1.9600
  761MOL0     H 4977  -0.608   6.262   4.016 -0.2049  0.1442 -0.0347
  761MOL0     H 4978  -0.720   6.121   4.066  0.2975 -0.5263  0.2111
  761MOL0     H 4979  -0.721   6.191   3.901  0.4387 -1.2887  0.2746
  761MOL0     H 4980  -0.350   6.203   4.437  1.2831 -1.3525 -3.1162
  761MOL0     H 4981  -0.304   6.212   4.652  0.9599  0.7086  0.1477
  761MOL0     H 4982  -0.149   5.823   4.826 -0.2379  2.2359 -1.8892
  761MOL0     H 4983  -0.090   5.956   4.932 -0.6804  2.6158  0.0362
  761MOL0     H 4984  -0.374   5.859   4.949 -1.0337  2.9091  0.3185
  761MOL0     H 4985  -0.247   5.776   5.035 -2.0320 -0.0946  0.2692
  761MOL0     H 4986  -0.316   6.079   5.078  2.2478  0.8441 -0.3853
  761MOL0     H 4987  -0.196   5.996   5.170 -0.3051 -1.5219 -1.5604
  761MOL0     H 4988  -0.404   5.829   5.232 -3.3170  0.5566  4.0458
  761MOL0     H 4989  -0.496   5.955   5.139  2.3603  1.2777 -2.5540
  761MOL0     H 4990  -0.326   5.986   5.386  0.0508  1.1608  1.4168
  761MOL0     H 4991  -0.412   6.121   5.297 -0.9871  0.1047 -1.6493
  761MOL0     H 4992  -0.542   5.884   5.439 -0.9898  0.0928  0.7857
  761MOL0     H 4993  -0.620   6.008   5.341 -0.3359 -1.7107 -0.0503
  761MOL0     H 4994  -0.602   6.161   5.535  1.4038  2.7550 -1.1318
  761MOL0     H 4995  -0.434   6.142   5.539 -1.1161 -0.0259 -0.6596
  761MOL0     H 4996  -0.475   5.902   5.640  0.9971  1.2762 -3.3022
  761MOL0     H 4997  -0.632   5.982   5.702  0.0178 -0.2615  1.1633
  761MOL0     H 4998  -0.283   5.772   4.665  2.5776 -0.0488 -2.6450
  761MOL0     H 4999  -0.326   5.769   4.446  0.1591 -0.3464  2.2715
  761MOL0     H 5000  -0.272   5.882   4.028  2.0884  1.4869 -1.0034
  761MOL0     H 5001  -0.296   5.812   3.814 -0.8878 -0.9670 -1.5700
  761MOL0     H 5002   0.586   5.401   2.797 -0.8026  2.0252  2.8077
  761MOL0     H 5003   0.665   5.169   2.779  0.1143 -1.4531  0.5145
  761MOL0     H 5004   0.906   4.827   2.867  1.3332  0.0917 -0.4904
  761MOL0     H 5005   0.984   4.596   2.857  2.2300 -0.8096  2.2160
  761MOL0     H 5006   1.070   4.297   3.018  3.1850  0.7035 -1.3041
  761MOL0     H 5007   1.098   4.457   2.970  2.0138 -3.1629 -0.5222
  761MOL0     H 5008   0.949   4.506   3.210 -2.0117 -2.9077 -0.4018
  761MOL0     H 5009   1.130   4.486   3.197  0.9063 -1.0813 -0.0647
  761MOL0     H 5010   1.089   4.246   3.241 -0.1885 -1.0186  2.6613
  761MOL0     H 5011   1.066   4.346   3.373  1.1764 -0.8079 -0.3800
  761MOL0     H 5012   0.887   4.178   3.376 -2.2282  0.9383  1.8302
  761MOL0     H 5013   0.848   4.216   3.208 -3.0666  0.2338  0.0448
  761MOL0     H 5014   0.615   4.481   3.418  1.0829 -0.6181  3.1308
  761MOL0     H 5015   0.653   4.460   3.079 -2.4841  1.1414  0.2378
  761MOL0     H 5016   0.511   4.631   3.214  2.1911  0.1336  1.2100
  761MOL0     H 5017   0.533   4.797   3.195 -1.6415  1.1312 -1.3724
  761MOL0     H 5018   0.449   4.712   3.064  0.4468  1.4161  0.4698
  762MOL0     O 5019   1.061   5.646   2.699  0.0444  0.2966 -0.1690
  762MOL0     C 5020   0.938   5.643   2.718 -0.3985 -0.4850  0.2286
  762MOL0     O 5021   0.855   5.562   2.647 -0.0556  0.7984  0.6063
  762MOL0     C 5022   0.908   5.488   2.537 -0.3048 -0.3868 -1.5213
  762MOL0     C 5023   0.974   5.364   2.563  0.0327 -0.3082  1.0877
  762MOL0     C 5024   1.038   5.299   2.456 -0.2135  0.2574 -1.1217
  762MOL0     C 5025   1.044   5.356   2.333 -0.4832 -0.0246 -0.8944
  762MOL0     O 5026   1.112   5.296   2.237  1.2481  0.2295  0.2453
  762MOL0     C 5027   1.228   5.222   2.278 -1.4653 -0.0849  1.5357
  762MOL0     C 5028   1.312   5.210   2.159 -0.5522 -1.4595  0.5223
  762MOL0     C 5029   1.355   5.351   2.111 -0.6703  0.6101  0.7970
  762MOL0     C 5030   1.450   5.354   1.990 -0.1671  0.4351 -0.0414
  762MOL0     C 5031   1.499   5.493   1.954 -0.7993  0.9498  0.8044
  762MOL0     C 5032   1.381   5.568   1.895  1.2360 -0.9273 -0.3630
  762MOL0     C 5033   1.434   5.694   1.839 -0.5940  0.1480  0.8518
  762MOL0     C 5034   1.335   5.807   1.801 -0.3946 -0.5727 -0.0578
  762MOL0     N 5035   1.253   5.850   1.915 -0.1884 -0.1459  0.4171
  762MOL0     C 5036   1.294   5.897   2.038 -0.4936  0.6365  0.6853
  762MOL0     C 5037   1.181   5.932   2.112 -0.5593 -0.3402 -0.4042
  762MOL0     C 5038   1.183   5.991   2.256 -1.3990 -0.3407 -0.3340
  762MOL0     C 5039   1.219   5.878   2.356 -0.3227  0.7278 -0.0916
  762MOL0     C 5040   1.244   5.909   2.508  0.5684 -0.6950 -0.0288
  762MOL0     C 5041   1.369   6.016   2.525  0.1713  0.0316 -0.1608
  762MOL0     O 5042   1.378   6.071   2.658  0.3000  0.4348 -0.1750
  762MOL0     C 5043   1.420   5.989   2.763  0.1395 -0.0568 -0.0506
  762MOL0     C 5044   1.516   5.893   2.750 -0.3336  0.0245  0.2334
  762MOL0     C 5045   1.557   5.813   2.860  0.1756 -0.7016  0.2232
  762MOL0     C 5046   1.673   5.714   2.840 -0.0719  0.4570 -0.4196
  762MOL0     C 5047   1.492   5.836   2.985 -1.3609  0.2900  0.4280
  762MOL0     C 5048   1.524   5.750   3.100  0.8010 -1.0268 -0.1562
  762MOL0     O 5049   1.545   5.615   3.086 -0.9660  0.2547 -0.8424
  762MOL0     C 5050   1.563   5.534   3.197  0.5522 -0.0604  0.7086
  762MOL0     C 5051   1.669   5.525   3.291  1.0221  0.1611  0.7052
  762MOL0     C 5052   1.669   5.428   3.392 -0.2977 -1.3539  0.3369
  762MOL0     C 5053   1.572   5.329   3.390 -0.0489  0.5824  0.2163
  762MOL0     O 5054   1.595   5.239   3.490 -0.0349  0.1065 -0.3767
  762MOL0     C 5055   1.552   5.104   3.480  0.7003  0.6502 -0.2275
  762MOL0     C 5056   1.633   5.038   3.378 -1.3375 -0.1432  0.0005
  762MOL0     C 5057   1.781   5.016   3.420  0.5271  0.5019 -0.4709
  762MOL0     C 5058   1.877   4.948   3.315  0.3992 -0.9089  1.2005
  762MOL0     C 5059   1.850   4.983   3.169  0.4559  0.3460  1.1025
  762MOL0     C 5060   1.926   4.902   3.057  0.3384  0.5223  0.5200
  762MOL0     C 5061   1.920   4.751   3.066  0.8030  0.0508 -0.3154
  762MOL0     C 5062   1.774   4.696   3.054  0.3523  0.2648 -0.5970
  762MOL0    Cl 5063   1.772   4.542   3.150  0.1031  0.5961  0.4967
  762MOL0     C 5064   1.470   5.332   3.291 -0.2782 -0.3270  0.3754
  762MOL0     C 5065   1.456   5.442   3.206  0.6242 -0.2694  0.8693
  762MOL0     O 5066   1.539   5.809   3.207  0.0829  0.3908 -0.0307
  762MOL0     C 5067   1.396   5.938   3.000  0.2946  0.8112  0.0642
  762MOL0     C 5068   1.367   6.007   2.891 -0.3940  0.3426 -0.4909
  762MOL0     N 5069   1.072   5.913   2.019 -0.1857 -0.2085 -0.2768
  762MOL0     N 5070   1.118   5.865   1.912 -0.0940 -0.4717  1.0325
  762MOL0     C 5071   0.972   5.469   2.309  0.5019  0.4118 -0.1808
  762MOL0     C 5072   0.914   5.546   2.414  0.0698  0.5612 -0.6176
  762MOL0     C 5073   0.872   5.753   2.798  0.4706  0.3909 -0.3526
  762MOL0     C 5074   0.731   5.779   2.778  0.1834 -0.8536  0.6302
  762MOL0     C 5075   0.668   5.889   2.829 -0.1584  0.3337 -0.1526
  762MOL0     C 5076   0.726   5.988   2.907 -0.3257 -0.0050 -0.5123
  762MOL0     O 5077   0.679   6.102   2.964 -0.6034  0.9878 -0.3008
  762MOL0     C 5078   0.561   6.147   2.901  0.0889 -0.5747  0.2129
  762MOL0     C 5079   0.480   6.258   2.967 -0.1181  0.5853 -0.7854
  762MOL0     C 5080   0.452   6.219   3.112 -0.4766  0.3231  0.6417
  762MOL0     C 5081   0.361   6.090   3.120 -0.2910  0.8493  0.0953
  762MOL0     C 5082   0.222   6.123   3.084  1.0068 -0.6136  0.2734
  762MOL0     C 5083   0.112   6.151   3.020 -0.2462 -0.5044 -0.6455
  762MOL0     C 5084   0.854   5.962   2.930  0.1647 -0.2624  0.1809
  762MOL0     C 5085   0.931   5.858   2.871 -0.0467 -0.2887  0.5187
  762MOL0     C 5086   1.073   5.864   2.899  0.6013 -0.0411 -0.1602
  762MOL0     H 5087   0.958   5.306   2.654 -2.6139 -0.0449  0.8695
  762MOL0     H 5088   1.076   5.200   2.483  1.7473  1.5071  1.0509
  762MOL0     H 5089   1.215   5.118   2.310 -0.7856 -0.6834 -0.0133
  762MOL0     H 5090   1.273   5.286   2.355 -2.0488 -1.0756  2.7381
  762MOL0     H 5091   1.395   5.149   2.197 -0.2826 -0.3975  1.6826
  762MOL0     H 5092   1.263   5.155   2.078  0.5917 -3.2893  1.0103
  762MOL0     H 5093   1.262   5.404   2.085 -1.3043  1.4199  4.2422
  762MOL0     H 5094   1.394   5.406   2.197  0.8442 -1.1556  1.2966
  762MOL0     H 5095   1.531   5.292   2.029 -2.8602 -1.3927  3.2586
  762MOL0     H 5096   1.396   5.308   1.906  2.9302 -1.4135 -1.1849
  762MOL0     H 5097   1.569   5.484   1.870 -3.4515 -0.9814 -1.3712
  762MOL0     H 5098   1.542   5.550   2.036 -0.9209  2.0729  0.1151
  762MOL0     H 5099   1.334   5.514   1.812 -2.6349  2.5402 -0.7226
  762MOL0     H 5100   1.296   5.587   1.960 -0.7098  2.5049 -3.5198
  762MOL0     H 5101   1.483   5.670   1.744 -2.2963  2.6773 -0.7590
  762MOL0     H 5102   1.519   5.731   1.896  0.7519  1.7971 -1.9819
  762MOL0     H 5103   1.393   5.887   1.755 -0.7468 -0.4604 -0.3118
  762MOL0     H 5104   1.268   5.795   1.715 -0.2273 -0.8996 -0.1433
  762MOL0     H 5105   1.393   5.916   2.080 -1.4445  0.9180  2.9532
  762MOL0     H 5106   1.084   6.026   2.286 -1.3264 -2.0787  2.3023
  762MOL0     H 5107   1.253   6.075   2.253 -0.3392 -1.2118 -2.6093
  762MOL0     H 5108   1.143   5.799   2.354  2.4020 -2.2586  2.4073
  762MOL0     H 5109   1.312   5.834   2.317  2.0651  4.2236  1.1319
  762MOL0     H 5110   1.153   5.962   2.538  1.2706 -0.0698  1.0324
  762MOL0     H 5111   1.273   5.824   2.570  2.5326 -1.1716 -1.4929
  762MOL0     H 5112   1.460   5.966   2.492 -0.4730 -2.1172  1.1178
  762MOL0     H 5113   1.359   6.097   2.452  2.3374 -1.1701 -1.8971
  762MOL0     H 5114   1.549   5.872   2.649 -2.1878 -2.0807 -0.0261
  762MOL0     H 5115   1.630   5.614   2.830  0.3955  0.0936  1.0802
  762MOL0     H 5116   1.747   5.716   2.920 -0.2327 -0.1753 -0.2522
  762MOL0     H 5117   1.727   5.734   2.746 -0.4221 -2.4034 -1.3213
  762MOL0     H 5118   1.746   5.601   3.301  0.1754  0.9832  1.0959
  762MOL0     H 5119   1.753   5.416   3.460  0.2892 -1.4592 -0.3867
  762MOL0     H 5120   1.580   5.063   3.578  1.6557  3.1625  0.6157
  762MOL0     H 5121   1.443   5.098   3.478  0.5278  0.1143  3.5739
  762MOL0     H 5122   1.599   4.936   3.357  1.1700 -0.5890 -2.3940
  762MOL0     H 5123   1.645   5.100   3.288 -0.1041  0.5935  0.6415
  762MOL0     H 5124   1.774   4.954   3.510  0.3334  1.4287  0.1605
  762MOL0     H 5125   1.817   5.107   3.467  0.6936 -0.8387  2.1506
  762MOL0     H 5126   1.872   4.839   3.312 -1.0026 -0.8826 -2.3210
  762MOL0     H 5127   1.978   4.985   3.333 -0.4524  2.2977  0.1281
  762MOL0     H 5128   1.742   4.967   3.159  0.4068  0.3624  1.5626
  762MOL0     H 5129   1.859   5.090   3.147 -4.8192  0.5817 -1.4412
  762MOL0     H 5130   2.028   4.941   3.070 -0.1539  2.2389 -0.4991
  762MOL0     H 5131   1.890   4.923   2.956  0.4758 -2.1105 -0.1667
  762MOL0     H 5132   1.966   4.716   3.159  1.0488  2.1350  0.4036
  762MOL0     H 5133   1.973   4.714   2.977  0.2426 -1.1051 -0.1816
  762MOL0     H 5134   1.740   4.681   2.951 -5.8271  0.2318  1.0641
  762MOL0     H 5135   1.698   4.757   3.103 -0.8577 -2.4190  1.1089
  762MOL0     H 5136   1.390   5.259   3.285 -1.7148  1.2737 -1.0259
  762MOL0     H 5137   1.377   5.445   3.131  0.4727 -0.5592  1.0131
  762MOL0     H 5138   1.357   5.974   3.095 -1.5460  2.2475 -1.1705
  762MOL0     H 5139   1.286   6.078   2.911 -0.6864 -0.4628  1.4076
  762MOL0     H 5140   0.959   5.512   2.211 -0.2247 -2.0779 -1.2649
  762MOL0     H 5141   0.877   5.646   2.393  1.7793  0.6941 -3.4926
  762MOL0     H 5142   0.684   5.719   2.701 -1.9039  0.6446  0.6312
  762MOL0     H 5143   0.566   5.904   2.798  0.2741  1.8723 -0.9104
  762MOL0     H 5144   0.603   6.186   2.808  0.8255 -0.2683  0.6551
  762MOL0     H 5145   0.488   6.071   2.874  2.4773 -2.4568 -1.3643
  762MOL0     H 5146   0.393   6.269   2.901 -0.2077 -0.7246 -0.9285
  762MOL0     H 5147   0.529   6.355   2.976 -1.1620  0.9163  2.4667
  762MOL0     H 5148   0.548   6.188   3.154 -0.1627  2.2747  1.4530
  762MOL0     H 5149   0.416   6.306   3.168 -0.1794  0.6998  0.2535
  762MOL0     H 5150   0.351   6.064   3.226  1.1443 -1.6276 -0.3051
  762MOL0     H 5151   0.399   6.001   3.070  2.7325 -0.4333  4.1535
  762MOL0     H 5152   0.031   6.171   2.954  0.9008  3.4933 -1.0815
  762MOL0     H 5153   0.902   6.028   3.002 -1.1763  0.6774  0.2410
  762MOL0     H 5154   1.090   5.773   2.958  0.8624 -0.1015 -0.3250
  762MOL0     H 5155   1.138   5.875   2.812 -0.4188 -0.6120 -1.0135
  762MOL0     H 5156   1.115   5.941   2.965  2.6637 -1.5514  0.3979
  763MOL0     O 5157   0.232   1.906   4.432  0.0899 -0.9664  0.0867
  763MOL0     C 5158   0.143   1.822   4.453  0.6875 -0.2420 -0.8047
  763MOL0     O 5159   0.014   1.852   4.467  0.3257  1.0485 -0.0685
  763MOL0     C 5160  -0.012   1.978   4.498 -0.0060  0.0099  0.1820
  763MOL0     C 5161  -0.065   2.062   4.408  0.8717  0.5784  1.1531
  763MOL0     C 5162  -0.072   2.200   4.427  0.1708  0.6108  0.6018
  763MOL0     C 5163  -0.039   2.248   4.561  0.6682 -0.0473  0.6886
  763MOL0     O 5164  -0.057   2.385   4.576 -0.2764 -0.0723 -0.7512
  763MOL0     C 5165  -0.047   2.440   4.705 -0.3607  0.2644  0.1412
  763MOL0     C 5166  -0.043   2.592   4.686  0.0943  0.3538  0.3476
  763MOL0     C 5167  -0.068   2.674   4.812  1.0510 -0.2745  0.0786
  763MOL0     C 5168  -0.200   2.631   4.889  0.5972  0.1742  0.5148
  763MOL0     C 5169  -0.282   2.743   4.956  0.6170 -0.0672  0.1396
  763MOL0     C 5170  -0.210   2.791   5.085  0.3506 -0.0532  0.9906
  763MOL0     C 5171  -0.217   2.954   5.109  0.1387  1.5893  1.2823
  763MOL0     C 5172  -0.361   3.007   5.122 -0.4765 -0.5557 -0.6153
  763MOL0     N 5173  -0.386   3.078   5.247  0.6577  0.0611  0.1343
  763MOL0     C 5174  -0.373   3.211   5.279  0.5006 -0.2517 -0.6021
  763MOL0     C 5175  -0.437   3.222   5.390  0.2384 -0.5021  0.2196
  763MOL0     C 5176  -0.463   3.354   5.446  0.3671 -0.4817  0.6208
  763MOL0     C 5177  -0.548   3.357   5.572 -0.1996  0.2068  0.1153
  763MOL0     C 5178  -0.478   3.331   5.706  0.5958 -0.0333 -0.2689
  763MOL0     C 5179  -0.571   3.408   5.817 -0.2779  0.0312  0.3247
  763MOL0     O 5180  -0.484   3.443   5.926 -0.3175  0.0357 -0.0523
  763MOL0     C 5181  -0.532   3.497   6.040 -0.2388  0.7567 -0.5140
  763MOL0     C 5182  -0.437   3.548   6.127 -0.1148 -0.2226 -0.4977
  763MOL0     C 5183  -0.472   3.607   6.251  1.3609 -0.3886 -1.0261
  763MOL0     C 5184  -0.357   3.635   6.347 -0.2540  0.3757  1.2433
  763MOL0     C 5185  -0.609   3.643   6.274  0.8863  0.3219 -0.2851
  763MOL0     C 5186  -0.645   3.728   6.382  0.6720 -0.1361 -0.7939
  763MOL0     O 5187  -0.547   3.796   6.445  0.5664 -0.5714 -0.4135
  763MOL0     C 5188  -0.571   3.878   6.556 -0.1344 -0.1396 -0.9983
  763MOL0     C 5189  -0.520   4.003   6.559 -0.5596  0.0022 -0.4191
  763MOL0     C 5190  -0.529   4.085   6.679 -0.8192  0.4877  0.0965
  763MOL0     C 5191  -0.586   4.032   6.793  0.0427  0.0098 -0.7834
  763MOL0     O 5192  -0.607   4.096   6.918 -1.0657  0.1121  0.7752
  763MOL0     C 5193  -0.507   4.205   6.957 -0.0267 -0.4034  0.9674
  763MOL0     C 5194  -0.528   4.253   7.089  0.1207 -0.3773 -0.3146
  763MOL0     C 5195  -0.553   4.151   7.193 -0.5697  0.3288  0.5485
  763MOL0     C 5196  -0.457   4.028   7.193  0.0399  0.1256  0.3740
  763MOL0     C 5197  -0.436   3.955   7.334  0.0965 -0.1303  0.0023
  763MOL0     C 5198  -0.358   4.051   7.436  0.2054 -0.0782 -0.1712
  763MOL0     C 5199  -0.209   4.047   7.414 -0.1579 -0.6400  0.1593
  763MOL0     C 5200  -0.144   3.917   7.442 -0.1970  1.0649  0.3933
  763MOL0    Cl 5201   0.021   3.944   7.485  0.3192 -0.1490 -0.2731
  763MOL0     C 5202  -0.661   3.917   6.782  0.0719  0.1688  1.0888
  763MOL0     C 5203  -0.652   3.847   6.666  1.3562 -0.4486 -0.0256
  763MOL0     O 5204  -0.764   3.737   6.412 -0.2954  0.3412 -0.4623
  763MOL0     C 5205  -0.708   3.586   6.188 -0.5886 -0.0915 -0.0052
  763MOL0     C 5206  -0.671   3.522   6.071  0.3815  0.9352  0.3029
  763MOL0     N 5207  -0.467   3.100   5.440  0.6664  0.7108 -0.9674
  763MOL0     N 5208  -0.439   3.017   5.357  0.5612 -0.1865 -0.0460
  763MOL0     C 5209  -0.012   2.154   4.660  0.0409 -0.3064  0.0804
  763MOL0     C 5210   0.008   2.020   4.626 -1.3222  0.8833  0.6475
  763MOL0     C 5211   0.169   1.678   4.461  0.4828 -0.1898  0.2897
  763MOL0     C 5212   0.167   1.607   4.585  0.0086  0.0449  0.7038
  763MOL0     C 5213   0.201   1.469   4.587  0.0526  0.3176 -0.2482
  763MOL0     C 5214   0.246   1.403   4.475 -0.3159 -0.8927  0.2273
  763MOL0     O 5215   0.281   1.269   4.466  0.3648 -0.2852 -0.2558
  763MOL0     C 5216   0.310   1.199   4.591  0.7216  0.7144 -0.6938
  763MOL0     C 5217   0.434   1.249   4.657  0.0327 -0.1311  0.0322
  763MOL0     C 5218   0.477   1.169   4.779 -0.9766  0.4664 -0.1344
  763MOL0     C 5219   0.604   1.237   4.843 -1.0396  0.5976 -0.2074
  763MOL0     C 5220   0.724   1.192   4.770  0.1022  0.3221  1.1320
  763MOL0     C 5221   0.821   1.155   4.708  0.5086  0.0623  0.8070
  763MOL0     C 5222   0.247   1.472   4.357  0.4120 -0.6009 -0.8495
  763MOL0     C 5223   0.228   1.609   4.347 -0.2530 -0.5738  0.3065
  763MOL0     C 5224   0.284   1.664   4.216  0.0327  0.0070  0.1234
  763MOL0     H 5225  -0.099   2.008   4.321 -3.7990 -0.1286  3.1118
  763MOL0     H 5226  -0.104   2.260   4.343 -1.4702  0.7266  1.2792
  763MOL0     H 5227   0.052   2.419   4.747  0.6720  3.7354 -0.2178
  763MOL0     H 5228  -0.126   2.399   4.768 -0.9601  1.3492  0.1039
  763MOL0     H 5229   0.060   2.613   4.655  1.9965 -6.1141  0.7372
  763MOL0     H 5230  -0.115   2.624   4.610  1.3044 -0.1011 -1.0391
  763MOL0     H 5231   0.010   2.698   4.884  0.8504  0.7039 -0.0110
  763MOL0     H 5232  -0.090   2.773   4.770 -1.5619 -0.5198  0.6544
  763MOL0     H 5233  -0.263   2.584   4.813 -1.8565  1.1922  1.7764
  763MOL0     H 5234  -0.181   2.550   4.961  1.0634  0.0776  0.2855
  763MOL0     H 5235  -0.377   2.695   4.983  0.7545  0.1655  1.0657
  763MOL0     H 5236  -0.299   2.830   4.893  1.4135 -1.5395 -2.2517
  763MOL0     H 5237  -0.270   2.742   5.162 -3.8092  0.5056 -1.5704
  763MOL0     H 5238  -0.103   2.769   5.095  0.5123  0.6511  0.8185
  763MOL0     H 5239  -0.172   3.006   5.024  0.9735  1.0272  1.3734
  763MOL0     H 5240  -0.162   2.990   5.196  1.2940  0.0827  1.2041
  763MOL0     H 5241  -0.371   3.090   5.051  0.5061  0.9959  0.9621
  763MOL0     H 5242  -0.430   2.925   5.103 -2.6974  1.2667 -0.8260
  763MOL0     H 5243  -0.332   3.279   5.205 -1.2433 -0.0728 -1.4678
  763MOL0     H 5244  -0.499   3.408   5.358  0.6362 -2.0425 -0.5086
  763MOL0     H 5245  -0.362   3.383   5.476  0.4724  1.8185 -1.5929
  763MOL0     H 5246  -0.584   3.461   5.569 -0.9706  0.0580  2.3827
  763MOL0     H 5247  -0.617   3.275   5.553 -0.8653  0.5732  0.9161
  763MOL0     H 5248  -0.462   3.223   5.714 -2.2168 -0.7145 -2.1074
  763MOL0     H 5249  -0.376   3.369   5.707  1.0831 -1.3082 -0.0074
  763MOL0     H 5250  -0.622   3.495   5.777  0.3177  0.3376  0.2204
  763MOL0     H 5251  -0.650   3.343   5.854  1.2172 -2.4391 -0.5444
  763MOL0     H 5252  -0.333   3.522   6.109  0.9132  1.9442  1.7754
  763MOL0     H 5253  -0.275   3.565   6.329  0.2293  0.7496  1.9237
  763MOL0     H 5254  -0.367   3.639   6.456  3.1029 -0.0031  1.6636
  763MOL0     H 5255  -0.315   3.730   6.314 -0.0081 -0.0581  0.2789
  763MOL0     H 5256  -0.471   4.034   6.468  0.1644 -2.8923 -1.1336
  763MOL0     H 5257  -0.491   4.186   6.679 -1.5450  0.7669  0.3565
  763MOL0     H 5258  -0.408   4.161   6.941 -1.0568 -3.0622  1.4267
  763MOL0     H 5259  -0.522   4.296   6.898 -6.5466 -0.2995  2.0645
  763MOL0     H 5260  -0.446   4.318   7.123  0.8544 -0.1151 -2.4253
  763MOL0     H 5261  -0.616   4.317   7.077  1.5571  2.0923  1.2814
  763MOL0     H 5262  -0.656   4.124   7.169 -1.3001  4.7200 -2.6594
  763MOL0     H 5263  -0.554   4.186   7.297 -2.8273 -1.5920  1.2475
  763MOL0     H 5264  -0.354   4.055   7.165  0.9042 -2.6646  0.6336
  763MOL0     H 5265  -0.488   3.951   7.122 -0.9738 -0.3284  1.2930
  763MOL0     H 5266  -0.539   3.936   7.364  0.5668 -3.0007  0.0757
  763MOL0     H 5267  -0.384   3.859   7.334  2.0238  0.8718  1.1431
  763MOL0     H 5268  -0.404   4.017   7.529 -3.3727 -1.4815 -2.2208
  763MOL0     H 5269  -0.394   4.152   7.415 -4.3306 -1.3265  0.3512
  763MOL0     H 5270  -0.169   4.118   7.487 -2.2734  0.2063  0.5372
  763MOL0     H 5271  -0.185   4.091   7.316 -4.2024  1.0099 -0.2635
  763MOL0     H 5272  -0.133   3.846   7.360  3.4688  0.4539  1.2462
  763MOL0     H 5273  -0.185   3.868   7.531 -0.7716 -1.2511 -1.0714
  763MOL0     H 5274  -0.730   3.890   6.861 -1.3693 -0.6367 -0.3705
  763MOL0     H 5275  -0.711   3.756   6.671 -3.2575  1.8800 -3.6192
  763MOL0     H 5276  -0.814   3.603   6.196 -0.5265  0.3004 -0.0125
  763MOL0     H 5277  -0.755   3.487   6.013  0.6621 -0.0386  0.4616
  763MOL0     H 5278  -0.005   2.191   4.762 -2.5641 -0.6000  0.4301
  763MOL0     H 5279   0.048   1.952   4.701  3.0894  0.7311 -1.4941
  763MOL0     H 5280   0.114   1.669   4.657 -0.0349  2.3430 -1.1731
  763MOL0     H 5281   0.189   1.419   4.683  1.5732  0.8770  0.2513
  763MOL0     H 5282   0.232   1.198   4.667 -0.8314  1.1262 -2.2217
  763MOL0     H 5283   0.313   1.091   4.571 -0.4556  0.8010 -1.4342
  763MOL0     H 5284   0.420   1.352   4.692 -2.2397  0.4442 -2.2318
  763MOL0     H 5285   0.521   1.246   4.591  2.1163  0.1285  2.5665
  763MOL0     H 5286   0.391   1.176   4.848  0.4013 -0.3488  1.7650
  763MOL0     H 5287   0.492   1.061   4.773 -0.1381  0.4595  1.4580
  763MOL0     H 5288   0.610   1.211   4.949  0.2923  1.4118 -0.0601
  763MOL0     H 5289   0.614   1.346   4.841 -1.3832  0.6506  0.5084
  763MOL0     H 5290   0.903   1.126   4.646 -1.1898  0.1826 -1.6052
  763MOL0     H 5291   0.290   1.409   4.281  1.9669 -1.2532  0.5081
  763MOL0     H 5292   0.225   1.632   4.129 -0.9501 -1.5463  1.2923
  763MOL0     H 5293   0.273   1.772   4.211  2.1010  0.2754  0.5265
  763MOL0     H 5294   0.392   1.650   4.204 -0.3142 -0.8273 -2.8448
  764MOL0     O 5295   9.249  11.423   1.571 -0.3451 -0.0898  0.5612
  764MOL0     C 5296   9.204  11.357   1.480 -0.3314  0.4672 -0.1034
  764MOL0     O 5297   9.202  11.220   1.474  0.2133  0.0111  0.4929
  764MOL0     C 5298   9.204  11.150   1.590 -0.3836 -0.2656  0.6016
  764MOL0     C 5299   9.086  11.155   1.668 -0.4809  0.5568 -0.9659
  764MOL0     C 5300   9.100  11.107   1.803 -0.7128  0.8291  0.0774
  764MOL0     C 5301   9.203  11.018   1.843 -0.4749  0.9698  0.8401
  764MOL0     O 5302   9.191  10.965   1.966  0.2087 -0.3854  0.1104
  764MOL0     C 5303   9.277  10.870   2.022  0.4910 -0.3032 -0.2483
  764MOL0     C 5304   9.258  10.863   2.178  0.4686  0.0542 -1.1850
  764MOL0     C 5305   9.124  10.820   2.230  0.0009  0.8475 -0.4963
  764MOL0     C 5306   9.123  10.825   2.381  0.9483  0.1980  0.2730
  764MOL0     C 5307   9.024  10.723   2.447  0.3262 -0.2285  0.3130
  764MOL0     C 5308   8.985  10.758   2.596  0.5629 -0.2422  0.1025
  764MOL0     C 5309   8.870  10.676   2.660 -0.4018  0.2438  0.9747
  764MOL0     C 5310   8.884  10.657   2.810  0.6888 -0.3363 -0.9913
  764MOL0     N 5311   8.902  10.779   2.888  0.0643 -0.7335  0.3944
  764MOL0     C 5312   8.809  10.856   2.954  0.3560  0.2412  0.0165
  764MOL0     C 5313   8.868  10.956   3.021  0.2777  0.0084 -0.1493
  764MOL0     C 5314   8.800  11.060   3.106 -0.7280  0.5442  0.2467
  764MOL0     C 5315   8.713  11.013   3.228 -1.2071 -0.1611 -0.9377
  764MOL0     C 5316   8.798  10.937   3.332  0.0915  0.1531 -1.0378
  764MOL0     C 5317   8.721  10.848   3.426  0.4360  0.6046 -0.1855
  764MOL0     O 5318   8.642  10.753   3.350 -0.6818  0.2194 -0.5829
  764MOL0     C 5319   8.696  10.643   3.291 -0.2079 -0.8896  0.6454
  764MOL0     C 5320   8.601  10.546   3.252  0.2392  0.0569  1.2279
  764MOL0     C 5321   8.631  10.429   3.176  0.9745 -0.7693 -1.1684
  764MOL0     C 5322   8.516  10.343   3.136 -0.2907 -0.0664 -0.1374
  764MOL0     C 5323   8.760  10.408   3.143 -0.2588  0.1391  0.6369
  764MOL0     C 5324   8.793  10.294   3.045 -0.0650 -0.6862 -0.2692
  764MOL0     O 5325   8.698  10.248   2.957 -0.3406  0.3706 -0.3647
  764MOL0     C 5326   8.733  10.148   2.869 -1.1118 -0.3909 -0.1420
  764MOL0     C 5327   8.840  10.155   2.781 -0.6467  0.4107 -0.0525
  764MOL0     C 5328   8.875  10.049   2.702 -0.6051  0.5183  1.2742
  764MOL0     C 5329   8.799   9.931   2.711  0.0490  0.7333  1.0568
  764MOL0     O 5330   8.826   9.817   2.637 -0.2914  0.4677 -0.1142
  764MOL0     C 5331   8.967   9.785   2.643 -0.1420  0.1632 -0.0456
  764MOL0     C 5332   9.036   9.759   2.775 -0.3706  0.3729 -0.3782
  764MOL0     C 5333   9.187   9.743   2.771 -0.7561 -0.3533  0.3525
  764MOL0     C 5334   9.244   9.631   2.671 -0.3169 -0.2094 -0.3605
  764MOL0     C 5335   9.211   9.490   2.719 -0.2003  0.3602 -1.1410
  764MOL0     C 5336   9.291   9.375   2.641 -0.2980 -0.1707 -0.5166
  764MOL0     C 5337   9.437   9.367   2.677  0.2442  1.1268  0.1939
  764MOL0     C 5338   9.519   9.262   2.591 -0.0214  0.1447 -1.1356
  764MOL0    Cl 5339   9.423   9.108   2.582  0.1802  0.4673 -0.4595
  764MOL0     C 5340   8.694   9.921   2.795  0.0601  0.0655  0.2362
  764MOL0     C 5341   8.652  10.030   2.867  0.1544  0.1912  0.3424
  764MOL0     O 5342   8.910  10.258   3.048 -0.2565  0.3959  0.1444
  764MOL0     C 5343   8.862  10.493   3.197 -0.7803 -0.1488  0.6621
  764MOL0     C 5344   8.830  10.606   3.269  0.6081 -0.8561  0.7443
  764MOL0     N 5345   9.001  10.950   2.987 -0.6273 -0.0264 -0.3551
  764MOL0     N 5346   9.025  10.849   2.913  0.1617  1.0110 -0.4341
  764MOL0     C 5347   9.309  10.991   1.753 -0.1955  0.5983 -0.7386
  764MOL0     C 5348   9.308  11.061   1.630  0.2249 -0.8466  0.2851
  764MOL0     C 5349   9.166  11.427   1.351  0.3303 -0.1421  0.4626
  764MOL0     C 5350   9.276  11.460   1.268  0.1048 -0.5243 -0.6102
  764MOL0     C 5351   9.248  11.520   1.146 -1.1722  0.2128  0.9572
  764MOL0     C 5352   9.118  11.539   1.102 -0.3988  0.2447 -0.1977
  764MOL0     O 5353   9.077  11.601   0.985  0.0842 -0.5313 -0.4916
  764MOL0     C 5354   9.162  11.640   0.885 -1.3563 -0.4237 -0.3361
  764MOL0     C 5355   9.086  11.675   0.764 -0.2483  0.5376 -0.6719
  764MOL0     C 5356   9.171  11.750   0.654 -0.8666  0.4568  0.0718
  764MOL0     C 5357   9.087  11.858   0.573  0.5344  0.0594  0.2297
  764MOL0     C 5358   8.978  11.806   0.493 -0.8247 -0.4310 -0.9061
  764MOL0     C 5359   8.900  11.743   0.426  0.0047 -1.0805 -1.0302
  764MOL0     C 5360   9.011  11.492   1.185 -0.1012  0.2862 -1.1728
  764MOL0     C 5361   9.035  11.433   1.308  0.3102 -0.2427 -0.4180
  764MOL0     C 5362   8.916  11.384   1.376  0.2630  0.3383  0.1290
  764MOL0     H 5363   9.001  11.214   1.637 -1.4248 -1.0538 -1.5851
  764MOL0     H 5364   9.026  11.118   1.882  1.5861 -0.3725  2.5771
  764MOL0     H 5365   9.383  10.889   2.005  1.2272 -2.1096  1.7746
  764MOL0     H 5366   9.261  10.772   1.976  0.7417 -0.9159  0.9286
  764MOL0     H 5367   9.336  10.794   2.212 -3.5983 -5.1207 -1.0658
  764MOL0     H 5368   9.278  10.966   2.210  0.0299  0.3164 -1.7260
  764MOL0     H 5369   9.037  10.874   2.191  0.7159  0.4824 -2.7094
  764MOL0     H 5370   9.110  10.719   2.191 -0.1974  0.4251  0.6223
  764MOL0     H 5371   9.223  10.809   2.423  1.4542 -0.9046 -1.2829
  764MOL0     H 5372   9.112  10.931   2.407 -2.3754  0.5968 -2.0557
  764MOL0     H 5373   9.073  10.626   2.440  1.9150  0.6537 -1.9422
  764MOL0     H 5374   8.926  10.722   2.398 -0.6759 -2.2282  2.1818
  764MOL0     H 5375   9.074  10.767   2.660  0.3000 -0.2260  0.4709
  764MOL0     H 5376   8.955  10.862   2.614  2.9456  0.2761  1.5944
  764MOL0     H 5377   8.858  10.576   2.617 -2.5024  0.4309  1.0229
  764MOL0     H 5378   8.778  10.725   2.627  0.0004  1.3088  1.3858
  764MOL0     H 5379   8.797  10.604   2.848 -0.3221  1.2747 -0.9772
  764MOL0     H 5380   8.971  10.591   2.818 -1.0802 -2.5797  2.0030
  764MOL0     H 5381   8.701  10.843   2.948  0.6508 -2.3421 -1.1026
  764MOL0     H 5382   8.738  11.126   3.045 -1.8588  1.3245  2.1318
  764MOL0     H 5383   8.888  11.120   3.133  0.0058  0.0533 -0.9757
  764MOL0     H 5384   8.663  11.096   3.278 -2.4458 -1.5131  0.1626
  764MOL0     H 5385   8.630  10.959   3.180 -1.8641 -0.0781  0.0856
  764MOL0     H 5386   8.869  10.875   3.276  0.0834  0.5915 -1.5436
  764MOL0     H 5387   8.855  11.012   3.389 -2.1389  1.5589 -0.5433
  764MOL0     H 5388   8.790  10.806   3.501  0.8969  1.6505 -0.0072
  764MOL0     H 5389   8.656  10.906   3.492 -0.1158  1.1794 -1.2108
  764MOL0     H 5390   8.496  10.557   3.278  0.4602 -0.2953  2.3223
  764MOL0     H 5391   8.530  10.236   3.155 -1.0871 -0.0258  0.7235
  764MOL0     H 5392   8.495  10.342   3.029 -3.6519  0.7166  0.4120
  764MOL0     H 5393   8.430  10.381   3.190  1.4554  2.5957  1.0023
  764MOL0     H 5394   8.907  10.240   2.773  0.7670 -0.2929  2.7160
  764MOL0     H 5395   8.958  10.052   2.631 -1.3509  0.5856  0.3843
  764MOL0     H 5396   8.973   9.686   2.596 -0.5627  1.4554 -3.0161
  764MOL0     H 5397   9.008   9.846   2.563 -2.3884 -0.7179 -1.9999
  764MOL0     H 5398   9.002   9.838   2.842 -0.6780  1.1775 -1.4536
  764MOL0     H 5399   9.016   9.661   2.820  1.2027  0.6078  0.9365
  764MOL0     H 5400   9.218   9.706   2.870 -0.8042 -2.6031 -0.4251
  764MOL0     H 5401   9.226   9.839   2.736 -2.5592 -1.0796 -4.2855
  764MOL0     H 5402   9.353   9.641   2.665  0.3095 -2.9089  3.0502
  764MOL0     H 5403   9.204   9.657   2.573 -3.3793 -0.3808  0.7329
  764MOL0     H 5404   9.229   9.477   2.826 -0.7666 -1.4292 -1.2394
  764MOL0     H 5405   9.106   9.460   2.710  1.0947 -5.9572 -0.2494
  764MOL0     H 5406   9.277   9.398   2.535 -2.9293  0.2941 -0.1389
  764MOL0     H 5407   9.240   9.279   2.646  2.8939 -1.9753  0.1488
  764MOL0     H 5408   9.437   9.320   2.776 -0.7865 -0.5982 -0.5879
  764MOL0     H 5409   9.496   9.459   2.678  2.0503  0.0463 -0.6360
  764MOL0     H 5410   9.609   9.239   2.648 -0.3117  1.4831 -0.1032
  764MOL0     H 5411   9.536   9.310   2.494 -6.1738  0.3776 -2.4990
  764MOL0     H 5412   8.635   9.829   2.801  0.8070 -0.4238  0.1843
  764MOL0     H 5413   8.571  10.026   2.938  1.1558  1.2087  1.5937
  764MOL0     H 5414   8.968  10.472   3.190 -0.5471  0.7580  1.3922
  764MOL0     H 5415   8.914  10.668   3.298  0.2392 -0.1886  0.4174
  764MOL0     H 5416   9.393  10.925   1.775  0.0116  1.0073 -0.2804
  764MOL0     H 5417   9.389  11.047   1.558  0.0188  0.8279 -0.3130
  764MOL0     H 5418   9.372  11.434   1.313 -1.8498 -2.6344  2.7477
  764MOL0     H 5419   9.336  11.547   1.089 -0.8569  0.9812  1.7748
  764MOL0     H 5420   9.211  11.735   0.908 -1.5769 -0.6355  1.0992
  764MOL0     H 5421   9.238  11.565   0.861  1.1817  1.6519  0.7162
  764MOL0     H 5422   9.008  11.746   0.791  0.2946  0.5791  0.8781
  764MOL0     H 5423   9.046  11.581   0.725 -2.3091  1.5841 -1.1784
  764MOL0     H 5424   9.259  11.787   0.706 -2.1060  1.4726  1.5429
  764MOL0     H 5425   9.215  11.683   0.579 -0.3093  1.7063 -0.7467
  764MOL0     H 5426   9.152  11.917   0.507  0.8217  0.8220  1.1663
  764MOL0     H 5427   9.040  11.928   0.643 -0.5625 -2.8772  2.6717
  764MOL0     H 5428   8.834  11.692   0.358 -0.1686 -1.2055 -0.7715
  764MOL0     H 5429   8.912  11.517   1.148 -0.9214  0.5505  1.0542
  764MOL0     H 5430   8.834  11.374   1.304 -0.3967  0.2520  0.8732
  764MOL0     H 5431   8.928  11.288   1.428 -0.5984 -0.7451 -1.6095
  764MOL0     H 5432   8.877  11.454   1.451 -1.4684  0.9317 -1.2486
  765MOL0     O 5433   3.885   4.901   9.489 -0.2717 -0.2392 -0.6797
  765MOL0     C 5434   3.996   4.885   9.522 -0.4920  0.5032 -0.2680
  765MOL0     O 5435   4.099   4.864   9.444 -0.8126 -0.1099  0.9812
  765MOL0     C 5436   4.077   4.853   9.308  0.4580  0.0689  1.1537
  765MOL0     C 5437   3.991   4.929   9.223  0.7878 -0.2313  0.0809
  765MOL0     C 5438   3.975   4.896   9.083  0.2781  0.2485 -0.0000
  765MOL0     C 5439   4.050   4.785   9.024  1.4712  0.4846 -0.8920
  765MOL0     O 5440   4.022   4.737   8.895 -0.3407 -0.1904  0.4587
  765MOL0     C 5441   3.929   4.807   8.815 -0.7902 -0.4325 -0.4224
  765MOL0     C 5442   3.904   4.760   8.667  0.3203 -0.3103 -0.0754
  765MOL0     C 5443   3.857   4.611   8.674  0.1490  0.4973 -0.2868
  765MOL0     C 5444   3.872   4.567   8.531  0.5939  0.2640  0.2895
  765MOL0     C 5445   3.810   4.430   8.506 -0.2187 -0.3188  0.2673
  765MOL0     C 5446   3.666   4.449   8.476  1.0474  0.5365 -0.7367
  765MOL0     C 5447   3.604   4.310   8.450 -0.7271  0.3068  0.6317
  765MOL0     C 5448   3.469   4.332   8.387  0.2949  0.5872  0.6067
  765MOL0     N 5449   3.402   4.208   8.360 -0.1027 -0.4313 -0.2575
  765MOL0     C 5450   3.338   4.131   8.448  0.2014  0.2023 -0.3146
  765MOL0     C 5451   3.291   4.031   8.380 -0.4217 -0.3699 -0.4301
  765MOL0     C 5452   3.191   3.926   8.426  0.1564 -0.0897  0.3665
  765MOL0     C 5453   3.245   3.787   8.437 -0.2561 -0.1053 -0.3289
  765MOL0     C 5454   3.364   3.768   8.535  0.9687 -1.0762 -0.9839
  765MOL0     C 5455   3.410   3.624   8.514 -0.8873 -0.0247  0.0972
  765MOL0     O 5456   3.301   3.539   8.559 -0.3312  0.1286  0.4906
  765MOL0     C 5457   3.312   3.408   8.508  1.0279  0.0564  0.1555
  765MOL0     C 5458   3.433   3.342   8.492  0.2922 -0.0697 -0.7172
  765MOL0     C 5459   3.440   3.213   8.437 -0.2454  0.4255 -0.2763
  765MOL0     C 5460   3.579   3.149   8.431 -0.2342 -0.4080  0.3217
  765MOL0     C 5461   3.328   3.139   8.404  1.3739  0.8304  0.2878
  765MOL0     C 5462   3.328   3.002   8.355 -1.4849  0.5557  0.2214
  765MOL0     O 5463   3.426   2.964   8.266  0.0900 -0.1639 -0.2431
  765MOL0     C 5464   3.464   2.832   8.256  0.0904  0.4812 -0.1055
  765MOL0     C 5465   3.491   2.755   8.374 -0.0220  0.1473 -0.5462
  765MOL0     C 5466   3.504   2.623   8.381 -0.0209  0.1689  0.8126
  765MOL0     C 5467   3.524   2.563   8.259 -0.1614  0.0836  0.4810
  765MOL0     O 5468   3.567   2.434   8.262  0.9525 -0.1453 -1.1281
  765MOL0     C 5469   3.622   2.375   8.141  0.2494 -0.0364  0.8252
  765MOL0     C 5470   3.660   2.227   8.181 -0.3896  0.5278  0.3592
  765MOL0     C 5471   3.791   2.206   8.269 -0.3316 -0.3909  0.7623
  765MOL0     C 5472   3.829   2.061   8.305 -0.2370 -0.3394  0.4363
  765MOL0     C 5473   3.962   2.045   8.383  0.2543 -0.2052 -0.2447
  765MOL0     C 5474   4.000   1.896   8.417 -0.0515 -0.2057 -0.8861
  765MOL0     C 5475   3.908   1.840   8.523 -0.2107  0.6813 -0.1257
  765MOL0     C 5476   3.954   1.715   8.593  0.2214  0.2123 -0.7791
  765MOL0    Cl 5477   4.130   1.676   8.598  0.0155  0.0335 -0.6671
  765MOL0     C 5478   3.523   2.639   8.137  0.3610 -0.4236  0.3030
  765MOL0     C 5479   3.488   2.769   8.138  0.9234 -0.8959  0.1150
  765MOL0     O 5480   3.247   2.923   8.398 -0.5918  0.3471  0.5278
  765MOL0     C 5481   3.204   3.196   8.449 -0.1771 -0.6924  1.0217
  765MOL0     C 5482   3.199   3.333   8.485 -0.8349  0.4555 -0.4211
  765MOL0     N 5483   3.335   4.042   8.251  0.0970  0.6950 -0.8283
  765MOL0     N 5484   3.399   4.149   8.240 -1.0745 -0.3722 -0.2272
  765MOL0     C 5485   4.119   4.707   9.116 -0.6686 -0.8953 -0.2861
  765MOL0     C 5486   4.147   4.747   9.245  0.3859  0.4460 -0.1611
  765MOL0     C 5487   4.008   4.877   9.670 -0.6170 -0.1138  0.7335
  765MOL0     C 5488   3.908   4.944   9.751  0.7498  0.6516  0.1532
  765MOL0     C 5489   3.917   4.956   9.887  0.3445 -0.5929 -0.1108
  765MOL0     C 5490   4.026   4.888   9.956  0.4565  0.3287 -0.0510
  765MOL0     O 5491   4.050   4.878  10.097 -0.3369 -0.7253  0.2733
  765MOL0     C 5492   3.996   4.978  10.183  0.4783 -0.8605 -0.5814
  765MOL0     C 5493   4.108   5.021  10.282  0.9472 -0.1709 -0.7356
  765MOL0     C 5494   4.094   5.169  10.324  0.3813  0.0548  0.4046
  765MOL0     C 5495   4.241   5.202  10.388 -0.0853 -0.7258 -0.6660
  765MOL0     C 5496   4.262   5.346  10.418  0.0584 -0.5048  0.8214
  765MOL0     C 5497   4.257   5.453  10.470 -0.7925 -1.0208 -0.1591
  765MOL0     C 5498   4.123   4.828   9.885  0.0084 -1.4706  0.4623
  765MOL0     C 5499   4.126   4.829   9.742 -0.3592  0.6158 -0.2845
  765MOL0     C 5500   4.248   4.759   9.684 -0.3074  0.2196 -0.0371
  765MOL0     H 5501   3.940   5.016   9.262 -0.6589 -0.6736 -0.7323
  765MOL0     H 5502   3.904   4.963   9.036 -1.2330  0.6238  2.6160
  765MOL0     H 5503   3.944   4.915   8.819 -4.3535  0.2322 -1.3715
  765MOL0     H 5504   3.833   4.802   8.867 -2.0203  1.8068 -2.2701
  765MOL0     H 5505   3.817   4.816   8.632  0.6584 -0.5734 -1.3770
  765MOL0     H 5506   3.990   4.782   8.603 -1.5994 -1.8162 -3.3936
  765MOL0     H 5507   3.923   4.546   8.732  2.9048  1.2043 -2.4496
  765MOL0     H 5508   3.752   4.601   8.704 -0.0443 -0.5344 -1.2795
  765MOL0     H 5509   3.828   4.643   8.466  1.3683  1.2382  0.8660
  765MOL0     H 5510   3.980   4.560   8.520  0.8787  0.9920  2.1899
  765MOL0     H 5511   3.822   4.368   8.595 -0.9826  1.0635  1.3874
  765MOL0     H 5512   3.865   4.391   8.420  0.7672  3.5891 -1.0639
  765MOL0     H 5513   3.619   4.496   8.563  3.2801  1.2092  0.1989
  765MOL0     H 5514   3.640   4.513   8.391  2.0569  1.9320 -0.0417
  765MOL0     H 5515   3.592   4.249   8.540  2.1984 -1.3557  0.0034
  765MOL0     H 5516   3.675   4.267   8.379 -2.0382  2.2007 -2.0189
  765MOL0     H 5517   3.404   4.391   8.452 -0.1300  0.3552  0.4010
  765MOL0     H 5518   3.469   4.377   8.287 -2.1743  1.2245  0.8171
  765MOL0     H 5519   3.307   4.158   8.549 -1.6452 -0.4166 -0.6785
  765MOL0     H 5520   3.114   3.918   8.348 -1.2031 -0.6262  1.7253
  765MOL0     H 5521   3.136   3.965   8.512 -1.0544 -2.0407  0.5521
  765MOL0     H 5522   3.161   3.721   8.464  0.7592 -2.1455 -1.9449
  765MOL0     H 5523   3.272   3.750   8.338  0.4746 -4.4852  1.3109
  765MOL0     H 5524   3.443   3.837   8.506  0.7045  0.1901  1.0850
  765MOL0     H 5525   3.329   3.799   8.634 -1.7374 -3.4159 -1.0610
  765MOL0     H 5526   3.425   3.607   8.407 -0.8865 -3.6787  0.5516
  765MOL0     H 5527   3.505   3.598   8.561 -0.9182  0.5348  0.4822
  765MOL0     H 5528   3.525   3.390   8.526 -0.5141 -0.8512  2.9675
  765MOL0     H 5529   3.583   3.077   8.513  4.5996  1.2765  1.9343
  765MOL0     H 5530   3.654   3.221   8.465  1.1085 -2.6619  2.3984
  765MOL0     H 5531   3.608   3.107   8.334  0.3798  0.4730  0.1063
  765MOL0     H 5532   3.485   2.814   8.465  0.9877 -3.9400  2.4692
  765MOL0     H 5533   3.509   2.577   8.479  3.2839 -1.0355  0.1846
  765MOL0     H 5534   3.547   2.384   8.061 -0.8787  2.9995  2.0466
  765MOL0     H 5535   3.708   2.438   8.119  0.0264  0.9294  2.5171
  765MOL0     H 5536   3.570   2.186   8.227 -1.0590  0.1984 -1.1993
  765MOL0     H 5537   3.671   2.166   8.091 -1.3091 -0.1678  0.7088
  765MOL0     H 5538   3.795   2.280   8.349  1.0820  0.0890  0.2773
  765MOL0     H 5539   3.874   2.239   8.205 -1.7220 -0.2648 -1.0640
  765MOL0     H 5540   3.820   1.978   8.235 -0.6186  0.1474 -0.0962
  765MOL0     H 5541   3.749   2.042   8.378 -0.7134 -0.0182  0.0053
  765MOL0     H 5542   4.037   2.082   8.312  0.2005 -1.2547 -0.8621
  765MOL0     H 5543   3.959   2.100   8.478 -0.9666 -1.7766  0.6690
  765MOL0     H 5544   4.097   1.892   8.467  0.4882 -0.5873 -1.9584
  765MOL0     H 5545   3.997   1.825   8.335  1.2840 -0.1948 -0.9626
  765MOL0     H 5546   3.810   1.813   8.482  1.0885 -4.9623 -0.3386
  765MOL0     H 5547   3.903   1.911   8.606 -0.5574  0.3415  0.1497
  765MOL0     H 5548   3.900   1.637   8.539 -1.0953  1.1592 -0.8767
  765MOL0     H 5549   3.923   1.722   8.698  3.1291 -2.0124  0.3560
  765MOL0     H 5550   3.548   2.606   8.036  0.5008 -1.4952  0.6872
  765MOL0     H 5551   3.473   2.817   8.042 -3.1094  0.2358  1.1364
  765MOL0     H 5552   3.112   3.140   8.433 -1.0270  0.4353  1.8660
  765MOL0     H 5553   3.093   3.357   8.492 -1.3949 -1.3714 -2.0123
  765MOL0     H 5554   4.182   4.635   9.065 -0.8016  0.0721 -1.8866
  765MOL0     H 5555   4.218   4.694   9.306 -1.1851 -0.4480  0.9636
  765MOL0     H 5556   3.824   4.991   9.701  0.9640  0.1230 -0.7303
  765MOL0     H 5557   3.848   5.024   9.936  1.1446  0.3905 -0.3029
  765MOL0     H 5558   3.962   5.062  10.121 -0.2675 -1.4047 -0.9238
  765MOL0     H 5559   3.906   4.947  10.236  0.0284  2.1886  0.6400
  765MOL0     H 5560   4.209   5.003  10.244  1.3892  0.3527  0.1523
  765MOL0     H 5561   4.101   4.961  10.373  0.5871  4.2133  2.4499
  765MOL0     H 5562   4.046   5.237  10.254 -2.3208 -1.1321  0.9609
  765MOL0     H 5563   4.025   5.168  10.409  0.5395  0.9535  0.5636
  765MOL0     H 5564   4.324   5.166  10.326  2.0488 -0.3673  1.7936
  765MOL0     H 5565   4.245   5.162  10.490 -0.7387  1.9906  0.4917
  765MOL0     H 5566   4.266   5.551  10.512 -0.1390 -1.6224  1.1726
  765MOL0     H 5567   4.212   4.803   9.942  1.6446  1.0997 -0.7612
  765MOL0     H 5568   4.267   4.808   9.588 -0.3765 -1.2377 -0.8302
  765MOL0     H 5569   4.344   4.772   9.735 -1.7993  1.0869  2.6893
  765MOL0     H 5570   4.224   4.655   9.659  0.8171  0.1316 -0.8847
  766MOL0     O 5571   1.632   5.925   2.104  0.4191  0.0669  0.4389
  766MOL0     C 5572   1.710   5.832   2.076 -0.6094 -0.6426  0.3888
  766MOL0     O 5573   1.748   5.730   2.150  0.7034 -1.0772  0.1823
  766MOL0     C 5574   1.684   5.699   2.270  0.0792 -0.2281  0.3294
  766MOL0     C 5575   1.755   5.642   2.372  1.0226  0.2348  0.0108
  766MOL0     C 5576   1.697   5.589   2.491 -0.2068 -1.6693  0.4734
  766MOL0     C 5577   1.551   5.590   2.505  0.1477 -0.4485  0.6933
  766MOL0     O 5578   1.498   5.529   2.624  0.6706 -0.1275 -0.2433
  766MOL0     C 5579   1.361   5.556   2.655  0.4760 -1.0092 -0.2696
  766MOL0     C 5580   1.340   5.499   2.798 -0.4961  0.2188  0.1911
  766MOL0     C 5581   1.327   5.347   2.786 -0.5059  0.3605 -1.0454
  766MOL0     C 5582   1.328   5.271   2.919  0.0833 -0.0886  0.9697
  766MOL0     C 5583   1.352   5.118   2.911  0.3175 -0.0255  0.0336
  766MOL0     C 5584   1.383   5.066   3.056  0.7679 -0.4800 -0.3417
  766MOL0     C 5585   1.419   4.908   3.053  0.6824 -0.7207 -0.6652
  766MOL0     C 5586   1.279   4.826   3.074 -0.2060 -0.4153  0.1496
  766MOL0     N 5587   1.291   4.701   2.992  0.6944  0.2436 -0.4194
  766MOL0     C 5588   1.366   4.607   3.038 -0.0921 -0.2834  0.4161
  766MOL0     C 5589   1.363   4.512   2.949  0.0142 -0.1053  0.1461
  766MOL0     C 5590   1.441   4.387   2.965  0.7316 -0.6194 -0.6341
  766MOL0     C 5591   1.381   4.283   3.063  0.4142 -0.1747 -0.6364
  766MOL0     C 5592   1.487   4.176   3.076  0.2753  0.7259 -0.6479
  766MOL0     C 5593   1.421   4.042   3.119  0.4005 -0.0938 -0.1698
  766MOL0     O 5594   1.332   3.988   3.016  0.9173  0.2254 -0.7873
  766MOL0     C 5595   1.207   3.951   3.057  0.9168 -0.6942  0.3315
  766MOL0     C 5596   1.093   3.976   2.985  0.8370  0.0135  0.1411
  766MOL0     C 5597   0.958   3.953   3.033 -0.1998  0.5343 -0.3812
  766MOL0     C 5598   0.841   3.969   2.942  0.0138 -0.3964 -0.0293
  766MOL0     C 5599   0.944   3.884   3.156  0.1820  0.5501 -1.0587
  766MOL0     C 5600   0.822   3.850   3.221 -0.6643 -0.0186  0.1193
  766MOL0     O 5601   0.831   3.748   3.313  0.5567 -0.2029 -0.4033
  766MOL0     C 5602   0.713   3.716   3.377  0.0072  0.4093 -0.5950
  766MOL0     C 5603   0.694   3.773   3.507  0.1667  0.6893  0.5194
  766MOL0     C 5604   0.571   3.757   3.567 -0.8498 -0.3635 -0.0010
  766MOL0     C 5605   0.462   3.697   3.506  0.6169  0.2230  0.9394
  766MOL0     O 5606   0.348   3.700   3.583 -1.0289  0.2334  0.5455
  766MOL0     C 5607   0.223   3.632   3.531  0.3873 -0.7455  0.5549
  766MOL0     C 5608   0.130   3.637   3.646 -0.5447 -0.4609 -0.1329
  766MOL0     C 5609   0.005   3.556   3.610  0.3365  0.3780  0.4322
  766MOL0     C 5610  -0.101   3.553   3.724 -0.7032 -0.2601  1.0689
  766MOL0     C 5611  -0.202   3.669   3.706  0.6611 -0.3803 -0.2337
  766MOL0     C 5612  -0.323   3.665   3.793 -0.1781 -0.0134 -0.0272
  766MOL0     C 5613  -0.297   3.612   3.937 -1.1222  0.3395  0.8571
  766MOL0     C 5614  -0.387   3.684   4.043  0.1633  0.0398 -0.6942
  766MOL0    Cl 5615  -0.360   3.620   4.204 -0.5888 -0.0856  0.1011
  766MOL0     C 5616   0.480   3.633   3.388 -0.9420 -0.6572  0.8019
  766MOL0     C 5617   0.605   3.642   3.319 -0.0444 -0.6911 -0.2767
  766MOL0     O 5618   0.726   3.923   3.214 -0.2023 -0.6289  0.6274
  766MOL0     C 5619   1.060   3.833   3.213 -0.2540 -0.7824 -0.0887
  766MOL0     C 5620   1.193   3.873   3.170  0.1202  0.5420  0.1838
  766MOL0     N 5621   1.296   4.549   2.844 -0.2687 -0.8680  1.2011
  766MOL0     N 5622   1.253   4.670   2.859  0.7385 -0.5570 -0.4476
  766MOL0     C 5623   1.472   5.644   2.395 -1.0303 -0.3455 -0.7943
  766MOL0     C 5624   1.546   5.695   2.280  1.0346  0.3125  0.1146
  766MOL0     C 5625   1.788   5.839   1.947 -0.3754  0.6225  0.0937
  766MOL0     C 5626   1.885   5.739   1.913  0.4720 -0.0728  0.4072
  766MOL0     C 5627   1.968   5.737   1.800  0.0640 -0.2852 -0.0589
  766MOL0     C 5628   1.960   5.840   1.709  0.4125 -0.3906  0.9502
  766MOL0     O 5629   2.054   5.843   1.609 -0.4283  0.8240 -0.1080
  766MOL0     C 5630   2.113   5.969   1.569 -0.6045 -0.0140  0.6187
  766MOL0     C 5631   2.191   6.025   1.688  0.3550  0.2295 -1.0646
  766MOL0     C 5632   2.345   5.996   1.701 -0.4390 -0.1841 -0.4795
  766MOL0     C 5633   2.372   5.846   1.711 -0.6321 -0.2746  0.2521
  766MOL0     C 5634   2.340   5.795   1.844 -0.1535  1.0014 -0.9375
  766MOL0     C 5635   2.284   5.731   1.936  0.0016 -0.3659  0.4446
  766MOL0     C 5636   1.866   5.938   1.732 -0.4026 -0.2581 -0.4136
  766MOL0     C 5637   1.776   5.939   1.841  0.7290  0.4474 -0.1183
  766MOL0     C 5638   1.668   6.051   1.854  0.2610 -0.4061  0.4900
  766MOL0     H 5639   1.863   5.640   2.355  0.5708 -2.2120 -3.7857
  766MOL0     H 5640   1.760   5.568   2.577 -0.5203  1.7061  1.6987
  766MOL0     H 5641   1.289   5.514   2.585 -1.4464 -0.3131  1.2237
  766MOL0     H 5642   1.353   5.665   2.665  0.9345 -1.0597  0.7791
  766MOL0     H 5643   1.419   5.526   2.869 -1.1194  0.3324  0.8547
  766MOL0     H 5644   1.252   5.543   2.844 -1.3664 -0.5689 -0.6848
  766MOL0     H 5645   1.233   5.314   2.739 -0.5186 -2.5938  0.8392
  766MOL0     H 5646   1.415   5.308   2.735 -1.4532 -1.5678 -1.3171
  766MOL0     H 5647   1.418   5.307   2.969  1.1576 -0.6842 -0.4340
  766MOL0     H 5648   1.244   5.310   2.976 -0.8884  1.5647 -1.4164
  766MOL0     H 5649   1.438   5.101   2.845 -0.5003  2.2478 -1.7824
  766MOL0     H 5650   1.265   5.061   2.879 -0.5927  0.1912  1.9652
  766MOL0     H 5651   1.477   5.115   3.084  0.3624 -0.2000  0.5749
  766MOL0     H 5652   1.295   5.083   3.119  1.0691  0.4686 -0.1662
  766MOL0     H 5653   1.482   4.882   3.139  1.1125  1.1817 -0.3592
  766MOL0     H 5654   1.468   4.891   2.957  1.6494  0.3812 -0.3774
  766MOL0     H 5655   1.267   4.791   3.177  2.0431 -0.6518  0.3649
  766MOL0     H 5656   1.192   4.882   3.038  1.5490 -0.6464 -5.2590
  766MOL0     H 5657   1.406   4.595   3.138 -0.4059 -1.6928  0.3947
  766MOL0     H 5658   1.532   4.422   3.015  0.7979 -0.4986 -0.8382
  766MOL0     H 5659   1.470   4.347   2.867 -1.4518  0.3199 -1.7226
  766MOL0     H 5660   1.366   4.328   3.161  0.2693 -0.0572 -0.7119
  766MOL0     H 5661   1.283   4.252   3.026  0.8798 -1.9951 -0.4132
  766MOL0     H 5662   1.541   4.165   2.981  2.8516  1.0449  0.6891
  766MOL0     H 5663   1.570   4.197   3.144 -1.0069 -0.2392  1.3090
  766MOL0     H 5664   1.493   3.962   3.140 -0.7757 -1.2400 -0.3326
  766MOL0     H 5665   1.361   4.067   3.207 -0.9283  1.0480 -1.3454
  766MOL0     H 5666   1.111   4.023   2.889  1.5307 -0.4680  0.0287
  766MOL0     H 5667   0.794   3.870   2.949 -3.4621  1.1424  0.5761
  766MOL0     H 5668   0.862   3.997   2.839 -2.8136  2.2078 -0.0600
  766MOL0     H 5669   0.783   4.052   2.984  2.1336  0.7811  0.7721
  766MOL0     H 5670   0.780   3.811   3.561  0.4503 -3.2194  3.2341
  766MOL0     H 5671   0.563   3.784   3.672  0.6335  0.0287  0.0365
  766MOL0     H 5672   0.177   3.692   3.452  2.0436 -0.2652 -0.0791
  766MOL0     H 5673   0.232   3.527   3.501 -1.7753 -1.0437  0.7491
  766MOL0     H 5674   0.178   3.606   3.739  0.6511  1.8084  0.0982
  766MOL0     H 5675   0.088   3.736   3.666 -2.2549 -0.8237 -1.6162
  766MOL0     H 5676   0.053   3.459   3.598 -0.2890  0.4084 -3.2327
  766MOL0     H 5677  -0.039   3.577   3.513  1.3867  1.9717  0.2595
  766MOL0     H 5678  -0.046   3.582   3.814  1.9543  0.1659 -0.5921
  766MOL0     H 5679  -0.150   3.456   3.721  0.4774 -0.9915 -3.6923
  766MOL0     H 5680  -0.140   3.758   3.717 -0.2286  0.3101 -0.7257
  766MOL0     H 5681  -0.250   3.673   3.608 -4.1451  1.8417  1.9019
  766MOL0     H 5682  -0.401   3.598   3.756 -0.2404  0.4151 -0.6880
  766MOL0     H 5683  -0.365   3.766   3.791 -1.1866 -0.3359  2.1127
  766MOL0     H 5684  -0.194   3.639   3.964 -0.6314 -0.8138  0.2149
  766MOL0     H 5685  -0.306   3.503   3.939  3.7801 -0.3530 -1.1110
  766MOL0     H 5686  -0.493   3.674   4.018 -1.6417 -0.5012  5.5224
  766MOL0     H 5687  -0.362   3.790   4.050  0.0300  0.0221  0.0825
  766MOL0     H 5688   0.404   3.573   3.337 -1.9715  0.6569  0.7281
  766MOL0     H 5689   0.619   3.583   3.229  4.1240  0.6608 -0.7587
  766MOL0     H 5690   1.054   3.786   3.310  0.7268 -0.2471  0.2400
  766MOL0     H 5691   1.286   3.841   3.216 -0.4072 -1.9801 -0.3936
  766MOL0     H 5692   1.364   5.636   2.396 -1.1896  1.2651  1.3316
  766MOL0     H 5693   1.476   5.735   2.207 -0.4865  1.4668  2.0930
  766MOL0     H 5694   1.906   5.668   1.993 -2.2362 -0.0334  1.2436
  766MOL0     H 5695   2.051   5.666   1.791  1.9381  0.8077  5.1772
  766MOL0     H 5696   2.182   5.968   1.485 -2.2504  0.9143 -0.8115
  766MOL0     H 5697   2.037   6.043   1.544  1.3312  1.4997 -1.0868
  766MOL0     H 5698   2.141   6.011   1.784  0.9455  0.3896 -0.7263
  766MOL0     H 5699   2.175   6.133   1.677  0.8398  0.4567  0.2351
  766MOL0     H 5700   2.399   6.037   1.616 -0.4611 -1.8054 -1.3278
  766MOL0     H 5701   2.371   6.045   1.795 -0.9583  2.7744 -1.7784
  766MOL0     H 5702   2.480   5.835   1.700 -0.4108  1.9749 -0.3202
  766MOL0     H 5703   2.324   5.787   1.632  5.0085 -2.7848 -1.7897
  766MOL0     H 5704   2.223   5.693   2.016 -1.4911  1.8792  0.4818
  766MOL0     H 5705   1.865   6.029   1.673  0.4501  0.2241  0.3034
  766MOL0     H 5706   1.572   6.005   1.877  1.6712 -2.6996  2.1499
  766MOL0     H 5707   1.702   6.114   1.937 -2.4994 -0.0859  1.4866
  766MOL0     H 5708   1.663   6.109   1.761 -0.8936  0.8124  1.2728
  767MOL0     O 5709  10.055   0.311  11.236  0.1584  0.2611  0.4763
  767MOL0     C 5710  10.139   0.292  11.319  0.0856 -0.4095  1.1029
  767MOL0     O 5711  10.132   0.200  11.413 -0.2301  0.7284 -1.2322
  767MOL0     C 5712  10.047   0.095  11.411  0.7843  0.2568 -0.4751
  767MOL0     C 5713  10.112  -0.031  11.412 -0.3227  0.1839 -0.6282
  767MOL0     C 5714  10.034  -0.149  11.427 -0.5754 -0.5001  0.5397
  767MOL0     C 5715   9.899  -0.149  11.405  0.9715 -0.9517  0.0473
  767MOL0     O 5716   9.832  -0.268  11.413  0.0494  0.1663  0.4181
  767MOL0     C 5717   9.684  -0.284  11.388  0.1059 -0.0221  0.3985
  767MOL0     C 5718   9.646  -0.407  11.476 -0.2010  0.0113 -0.5446
  767MOL0     C 5719   9.727  -0.530  11.445 -0.5602  0.3380 -0.9485
  767MOL0     C 5720   9.677  -0.645  11.524 -0.2573 -0.7194  0.2579
  767MOL0     C 5721   9.752  -0.777  11.488 -1.0153 -0.7310 -0.6612
  767MOL0     C 5722   9.687  -0.915  11.516  1.2646  0.3690 -0.1901
  767MOL0     C 5723   9.563  -0.945  11.429 -0.3809 -0.0864  0.3925
  767MOL0     C 5724   9.491  -1.072  11.457  0.8546  1.1532 -0.5301
  767MOL0     N 5725   9.572  -1.191  11.487 -0.0332  0.5109  0.7378
  767MOL0     C 5726   9.633  -1.233  11.607  0.2706 -0.0715  0.3513
  767MOL0     C 5727   9.750  -1.295  11.569 -0.3401 -0.0513  0.2015
  767MOL0     C 5728   9.847  -1.333  11.677 -0.3383  0.0905  0.1000
  767MOL0     C 5729   9.934  -1.213  11.736  0.5940  0.7468 -0.6012
  767MOL0     C 5730  10.007  -1.125  11.634 -0.2648 -0.9641 -0.3028
  767MOL0     C 5731  10.050  -0.991  11.705 -1.1151  1.3629  0.2971
  767MOL0     O 5732  10.123  -0.902  11.621  0.6150 -0.6998 -0.2731
  767MOL0     C 5733  10.153  -0.789  11.676  0.0245 -0.7203 -0.5662
  767MOL0     C 5734  10.207  -0.753  11.801 -0.6880 -0.8108  0.1081
  767MOL0     C 5735  10.231  -0.621  11.850 -0.0407  0.4533  0.0593
  767MOL0     C 5736  10.280  -0.606  11.993  0.2076 -1.4129 -0.3667
  767MOL0     C 5737  10.207  -0.511  11.757  1.0114 -0.0865 -0.9065
  767MOL0     C 5738  10.248  -0.369  11.790 -0.0537 -0.5545  0.4780
  767MOL0     O 5739  10.297  -0.290  11.692 -0.0142 -0.2745 -0.1867
  767MOL0     C 5740  10.304  -0.163  11.740 -0.5727 -0.7627 -0.5412
  767MOL0     C 5741  10.195  -0.073  11.740 -0.0923  0.7612 -0.4034
  767MOL0     C 5742  10.207   0.061  11.762  0.1318  0.5400  0.1729
  767MOL0     C 5743  10.330   0.116  11.809  0.4797  0.8734  0.3816
  767MOL0     O 5744  10.338   0.246  11.835  0.3324  0.1877 -0.0443
  767MOL0     C 5745  10.440   0.281  11.936  0.0550 -0.5199 -0.0377
  767MOL0     C 5746  10.402   0.422  11.984 -0.1719 -0.0350  0.0386
  767MOL0     C 5747  10.529   0.494  12.044  0.4453 -0.1460  0.8114
  767MOL0     C 5748  10.535   0.637  11.992 -0.0446 -1.0052 -0.6566
  767MOL0     C 5749  10.657   0.727  12.008 -0.0302 -0.0417  0.2855
  767MOL0     C 5750  10.729   0.730  12.147  0.0633 -0.7746 -0.4028
  767MOL0     C 5751  10.792   0.876  12.165 -0.5958  0.1839 -0.0509
  767MOL0     C 5752  10.698   0.973  12.238  0.3692 -1.2594 -0.8564
  767MOL0    Cl 5753  10.637   0.906  12.402 -0.0281  0.0063  0.0686
  767MOL0     C 5754  10.444   0.026  11.812  0.0502 -0.8104 -1.2228
  767MOL0     C 5755  10.430  -0.110  11.782  0.3520  0.0611 -0.2534
  767MOL0     O 5756  10.236  -0.350  11.912 -0.3078  0.2766  0.6550
  767MOL0     C 5757  10.142  -0.542  11.642 -1.1807 -0.3901 -0.3453
  767MOL0     C 5758  10.119  -0.676  11.598 -0.5056 -0.9662 -0.3411
  767MOL0     N 5759   9.755  -1.310  11.436 -1.0475  0.7660  0.2807
  767MOL0     N 5760   9.650  -1.255  11.385  0.0587 -0.3768  0.3748
  767MOL0     C 5761   9.829  -0.020  11.391  0.7078 -0.2867 -0.3957
  767MOL0     C 5762   9.905   0.102  11.395  0.7538  1.1479 -0.4137
  767MOL0     C 5763  10.254   0.381  11.324  0.1912 -0.0759  0.7187
  767MOL0     C 5764  10.308   0.413  11.453  0.4329  0.3008 -0.1836
  767MOL0     C 5765  10.412   0.500  11.469 -0.6155 -0.2994 -0.8114
  767MOL0     C 5766  10.476   0.567  11.360 -0.3056 -0.3069  0.3948
  767MOL0     O 5767  10.562   0.671  11.376  0.3256 -0.4042  0.1546
  767MOL0     C 5768  10.692   0.631  11.352 -0.9922  0.0081  0.3249
  767MOL0     C 5769  10.782   0.761  11.362 -0.0534 -0.1214 -0.4002
  767MOL0     C 5770  10.740   0.885  11.283  0.5231 -0.8764 -0.2048
  767MOL0     C 5771  10.726   1.015  11.372 -0.4296  0.2881 -0.8140
  767MOL0     C 5772  10.727   1.132  11.291  0.0364  0.2314 -0.8725
  767MOL0     C 5773  10.696   1.237  11.235 -1.1660  0.1139 -0.8209
  767MOL0     C 5774  10.421   0.545  11.233  0.1029  0.2187 -0.5696
  767MOL0     C 5775  10.312   0.447  11.210 -1.2500  0.7256 -0.6139
  767MOL0     C 5776  10.278   0.424  11.069  0.6605  0.4186 -0.2921
  767MOL0     H 5777  10.220  -0.045  11.411 -0.1639  1.3453 -1.5086
  767MOL0     H 5778  10.076  -0.245  11.456  1.3126  0.6984  2.0064
  767MOL0     H 5779   9.667  -0.307  11.282  2.3010 -2.0621  0.4150
  767MOL0     H 5780   9.623  -0.205  11.434 -0.4321 -0.2548  0.0973
  767MOL0     H 5781   9.657  -0.376  11.580 -1.6750  2.5985 -1.0933
  767MOL0     H 5782   9.541  -0.433  11.458 -0.7173  0.6045  1.4133
  767MOL0     H 5783   9.704  -0.558  11.342 -0.2736 -0.5483 -0.7843
  767MOL0     H 5784   9.833  -0.509  11.461  0.5475 -1.2234 -4.8286
  767MOL0     H 5785   9.688  -0.622  11.630  0.8488 -1.6971  0.3809
  767MOL0     H 5786   9.569  -0.655  11.511 -0.6304  1.2927  1.4151
  767MOL0     H 5787   9.850  -0.785  11.537 -0.8357 -1.4061 -1.1129
  767MOL0     H 5788   9.768  -0.775  11.380 -2.3565  2.9719 -0.9088
  767MOL0     H 5789   9.761  -0.995  11.506  0.4406 -0.2916 -1.2871
  767MOL0     H 5790   9.652  -0.912  11.619  0.9954 -0.7104 -0.2351
  767MOL0     H 5791   9.596  -0.940  11.325  0.3610  0.2510  0.6386
  767MOL0     H 5792   9.497  -0.861  11.453  1.0575  1.1735  0.1434
  767MOL0     H 5793   9.427  -1.047  11.542  2.8889 -1.1627  1.8548
  767MOL0     H 5794   9.424  -1.089  11.373  0.6060  1.0391 -0.3117
  767MOL0     H 5795   9.592  -1.216  11.706 -2.7155 -1.3839 -0.5455
  767MOL0     H 5796   9.919  -1.412  11.651  3.3924  3.5539 -1.1953
  767MOL0     H 5797   9.787  -1.378  11.757 -0.7181  1.6505  0.7474
  767MOL0     H 5798   9.869  -1.144  11.790  0.5958  3.1987 -3.4791
  767MOL0     H 5799  10.018  -1.242  11.800  1.8280  0.3233 -2.3240
  767MOL0     H 5800  10.088  -1.188  11.594 -0.6411 -1.9634  0.4610
  767MOL0     H 5801   9.951  -1.074  11.556  2.7902  3.8851  0.2304
  767MOL0     H 5802   9.962  -0.936  11.741 -2.3914 -0.9574  0.9495
  767MOL0     H 5803  10.113  -1.009  11.792  1.5036 -0.8841 -1.8971
  767MOL0     H 5804  10.236  -0.834  11.868 -0.5476  0.7916  2.0543
  767MOL0     H 5805  10.280  -0.693  12.059  4.2479 -0.1193  1.7008
  767MOL0     H 5806  10.207  -0.543  12.045  0.9672 -1.6565  1.0599
  767MOL0     H 5807  10.374  -0.551  11.996  0.7683 -2.3854  1.4832
  767MOL0     H 5808  10.095  -0.104  11.711 -0.7795  2.3995  0.0945
  767MOL0     H 5809  10.124   0.130  11.762  0.4524  0.9330 -0.1725
  767MOL0     H 5810  10.453   0.208  12.016  1.4593  1.2173  1.4098
  767MOL0     H 5811  10.527   0.292  11.870 -0.9411  1.8008 -1.0860
  767MOL0     H 5812  10.355   0.478  11.903  1.9592  1.3868 -0.3028
  767MOL0     H 5813  10.330   0.407  12.065  0.0843 -1.1428  0.0892
  767MOL0     H 5814  10.619   0.440  12.012  0.0011  0.9981 -2.8112
  767MOL0     H 5815  10.525   0.497  12.153 -2.6168  0.5807  0.7689
  767MOL0     H 5816  10.452   0.688  12.041 -1.0932 -0.2219 -3.0954
  767MOL0     H 5817  10.515   0.657  11.887 -2.3544 -0.0781 -0.0861
  767MOL0     H 5818  10.734   0.696  11.937 -1.5548 -0.8148 -1.0657
  767MOL0     H 5819  10.626   0.828  11.981  1.9744  1.2879  2.5293
  767MOL0     H 5820  10.808   0.654  12.146 -0.0415 -0.8888 -0.0726
  767MOL0     H 5821  10.676   0.707  12.239  0.6511 -0.5621 -0.0084
  767MOL0     H 5822  10.813   0.915  12.065 -0.8769  1.0639  0.2194
  767MOL0     H 5823  10.883   0.869  12.225 -0.3386  0.1329 -0.4481
  767MOL0     H 5824  10.609   0.987  12.176 -0.5862 -1.2646  0.4457
  767MOL0     H 5825  10.740   1.073  12.250 -1.1552 -0.8296  1.5274
  767MOL0     H 5826  10.543   0.052  11.849 -0.5439 -2.3017  1.7779
  767MOL0     H 5827  10.506  -0.186  11.796 -2.3443 -2.5102  1.5711
  767MOL0     H 5828  10.114  -0.468  11.568  0.5395  1.9605  1.2254
  767MOL0     H 5829  10.072  -0.697  11.502 -0.9683 -0.9534 -0.1188
  767MOL0     H 5830   9.725   0.004  11.372  0.3901 -0.4864  0.9744
  767MOL0     H 5831   9.862   0.201  11.387  0.6782  1.1362 -0.1540
  767MOL0     H 5832  10.268   0.380  11.549 -0.6754 -2.1429 -1.3823
  767MOL0     H 5833  10.454   0.517  11.568 -1.9405  0.8637 -0.4105
  767MOL0     H 5834  10.725   0.559  11.428 -0.5008 -2.1640 -1.8316
  767MOL0     H 5835  10.701   0.578  11.257 -0.3289  0.0454  0.3622
  767MOL0     H 5836  10.887   0.743  11.337 -0.0588  0.6461 -0.9899
  767MOL0     H 5837  10.784   0.788  11.468  0.5339 -1.1782 -0.1266
  767MOL0     H 5838  10.820   0.906  11.212  0.5872 -1.7918 -0.4201
  767MOL0     H 5839  10.649   0.867  11.225 -0.3489  1.2834  0.4236
  767MOL0     H 5840  10.814   1.012  11.437 -0.7346  1.5268 -0.3020
  767MOL0     H 5841  10.639   1.015  11.438 -0.7101 -0.3207 -1.1874
  767MOL0     H 5842  10.671   1.328  11.186  1.7210  0.5364 -1.7436
  767MOL0     H 5843  10.456   0.602  11.147 -2.5260  0.7177 -1.4292
  767MOL0     H 5844  10.259   0.321  11.038 -0.1532  0.0674  1.2652
  767MOL0     H 5845  10.190   0.488  11.054 -0.3269 -0.6607  0.7596
  767MOL0     H 5846  10.351   0.456  10.993 -0.2268 -0.2359 -1.4529
  768MOL0     O 5847   9.892   2.222   9.032  0.7029 -0.0513  0.1867
  768MOL0     C 5848   9.824   2.271   9.125  0.7782 -0.6869  0.3901
  768MOL0     O 5849   9.710   2.227   9.170 -0.5560  0.2159  0.2764
  768MOL0     C 5850   9.664   2.107   9.124 -0.4503 -0.3817  0.4383
  768MOL0     C 5851   9.730   1.986   9.128 -0.1093 -0.4729  0.5896
  768MOL0     C 5852   9.670   1.858   9.092 -0.4956 -0.8972 -0.3015
  768MOL0     C 5853   9.545   1.853   9.038  0.0331 -0.1051  0.4059
  768MOL0     O 5854   9.497   1.727   9.004 -0.0209  0.7627 -0.5833
  768MOL0     C 5855   9.367   1.725   8.956 -0.8920 -0.5755  0.3640
  768MOL0     C 5856   9.331   1.595   8.894 -0.0115 -0.0415  0.2475
  768MOL0     C 5857   9.208   1.618   8.821  0.4386 -0.1143  0.8904
  768MOL0     C 5858   9.080   1.605   8.906 -0.2318 -0.2628  0.8733
  768MOL0     C 5859   8.950   1.610   8.818 -0.3048  0.3307  0.2617
  768MOL0     C 5860   8.831   1.657   8.908  0.5625 -0.9425  0.2349
  768MOL0     C 5861   8.707   1.688   8.823 -0.0397  1.7072  0.3088
  768MOL0     C 5862   8.574   1.657   8.898  0.4238  0.8144 -0.6519
  768MOL0     N 5863   8.454   1.664   8.816  0.2154  0.5236  0.3887
  768MOL0     C 5864   8.431   1.764   8.730  0.1952 -0.1985  1.0675
  768MOL0     C 5865   8.323   1.719   8.648 -1.2993  0.2471 -1.5267
  768MOL0     C 5866   8.264   1.796   8.536  0.8466 -0.2309 -0.0328
  768MOL0     C 5867   8.118   1.758   8.524  0.0077  0.2958  0.3322
  768MOL0     C 5868   8.040   1.868   8.450 -0.1983  0.1380  0.0450
  768MOL0     C 5869   7.901   1.833   8.418 -0.4598 -0.8116  0.8050
  768MOL0     O 5870   7.804   1.875   8.510 -0.0852  0.0272  0.0822
  768MOL0     C 5871   7.672   1.855   8.472  0.5711  1.2854 -0.0010
  768MOL0     C 5872   7.622   1.746   8.392  0.0060  0.4007  0.3184
  768MOL0     C 5873   7.494   1.749   8.347  0.2703 -0.3038  0.3582
  768MOL0     C 5874   7.480   1.644   8.239  0.7831 -0.4156 -0.7676
  768MOL0     C 5875   7.402   1.849   8.373  0.1709  0.3503 -0.1720
  768MOL0     C 5876   7.261   1.858   8.315  0.0275  0.2763 -0.0061
  768MOL0     O 5877   7.190   1.968   8.337  0.4407  0.7048 -0.0814
  768MOL0     C 5878   7.082   1.997   8.257 -0.9012  0.8252  0.2211
  768MOL0     C 5879   7.098   2.075   8.140 -1.1498 -0.3879  0.5335
  768MOL0     C 5880   6.990   2.103   8.052 -0.5045  0.0967 -0.8061
  768MOL0     C 5881   6.868   2.045   8.084  0.0065 -0.5321  0.0161
  768MOL0     O 5882   6.773   2.080   7.993 -0.6858  1.0856  0.1573
  768MOL0     C 5883   6.643   2.013   7.996  0.2592 -0.2440  0.4718
  768MOL0     C 5884   6.629   1.911   7.886 -0.2669  0.8011 -0.7029
  768MOL0     C 5885   6.484   1.863   7.866  0.1398 -1.0367 -0.0231
  768MOL0     C 5886   6.469   1.716   7.888  0.0275 -0.0761  0.3395
  768MOL0     C 5887   6.318   1.676   7.888 -0.0238 -0.5699  0.0652
  768MOL0     C 5888   6.282   1.545   7.957 -0.6480  0.1011 -0.2940
  768MOL0     C 5889   6.132   1.526   7.945 -0.3940 -0.6549 -0.8708
  768MOL0     C 5890   6.044   1.648   7.981 -1.2064 -0.4039  0.1884
  768MOL0    Cl 5891   5.874   1.599   8.021 -0.1815 -0.0070 -0.1314
  768MOL0     C 5892   6.845   1.982   8.205 -0.9337  0.9857  0.1123
  768MOL0     C 5893   6.949   1.958   8.294  0.1408 -0.5318  0.8754
  768MOL0     O 5894   7.221   1.759   8.248  0.4635  0.5957  0.7722
  768MOL0     C 5895   7.444   1.948   8.460  0.3969 -0.1709 -0.8853
  768MOL0     C 5896   7.577   1.947   8.505 -0.4059 -0.0699 -0.1537
  768MOL0     N 5897   8.286   1.593   8.694  0.5364  0.3424  0.2199
  768MOL0     N 5898   8.360   1.562   8.799 -0.4364 -0.0225  0.4350
  768MOL0     C 5899   9.484   1.973   9.022 -0.2036 -0.2499  0.6462
  768MOL0     C 5900   9.538   2.098   9.067  0.4278  0.4658  0.4462
  768MOL0     C 5901   9.878   2.374   9.194 -0.5749  0.4782  0.9307
  768MOL0     C 5902   9.909   2.353   9.330  0.2125  0.4040  0.3866
  768MOL0     C 5903   9.988   2.444   9.409  0.4715  0.7034  0.0450
  768MOL0     C 5904  10.013   2.573   9.350  0.5972 -0.6678  0.7884
  768MOL0     O 5905  10.084   2.675   9.404  0.6538 -0.0789  0.2487
  768MOL0     C 5906  10.090   2.657   9.549 -0.7621  0.8871 -0.4002
  768MOL0     C 5907  10.129   2.794   9.617 -0.6497 -0.3113  0.6594
  768MOL0     C 5908  10.163   2.780   9.771 -0.5163 -0.8289  0.1118
  768MOL0     C 5909  10.305   2.730   9.794 -0.8253  0.1092 -0.2627
  768MOL0     C 5910  10.339   2.733   9.936 -0.1154 -0.9026 -0.3021
  768MOL0     C 5911  10.343   2.755  10.049 -0.5469 -0.0381  0.6576
  768MOL0     C 5912   9.983   2.597   9.211 -0.2311  0.3652  0.1501
  768MOL0     C 5913   9.916   2.497   9.137  1.0264 -0.0381 -0.6944
  768MOL0     C 5914   9.843   2.530   9.004 -0.3455 -0.6624  0.3984
  768MOL0     H 5915   9.825   1.981   9.181 -0.1179 -1.7193  0.5279
  768MOL0     H 5916   9.728   1.768   9.109  1.0684  0.6744  4.3231
  768MOL0     H 5917   9.366   1.786   8.865  5.5422 -1.3431 -0.6963
  768MOL0     H 5918   9.286   1.755   9.024 -1.3513  0.0634 -0.4453
  768MOL0     H 5919   9.411   1.576   8.822  2.1168  1.9017  1.9541
  768MOL0     H 5920   9.305   1.513   8.962 -0.4666 -0.0596  0.0541
  768MOL0     H 5921   9.212   1.716   8.772 -1.2242  0.2154  1.3689
  768MOL0     H 5922   9.202   1.535   8.751  3.5078 -1.3767  1.9284
  768MOL0     H 5923   9.091   1.510   8.959  0.2201 -1.0793 -0.6230
  768MOL0     H 5924   9.069   1.689   8.976  1.2971  2.7111 -2.1487
  768MOL0     H 5925   8.942   1.520   8.757 -2.5164 -0.0416  1.0272
  768MOL0     H 5926   8.967   1.687   8.742  0.6724  0.6675  0.7997
  768MOL0     H 5927   8.800   1.581   8.980  0.8214 -0.2319  1.1122
  768MOL0     H 5928   8.862   1.747   8.962 -0.4907 -0.7600  0.5538
  768MOL0     H 5929   8.711   1.620   8.738 -0.9088  1.3911  0.5067
  768MOL0     H 5930   8.714   1.785   8.773  2.2977  0.9947 -0.8940
  768MOL0     H 5931   8.576   1.552   8.930 -4.1745  0.0946 -2.0178
  768MOL0     H 5932   8.559   1.713   8.991 -2.4377 -1.6957  0.5673
  768MOL0     H 5933   8.489   1.855   8.736  3.0865 -2.0422  4.4517
  768MOL0     H 5934   8.309   1.772   8.439 -2.7507 -1.8952 -1.4861
  768MOL0     H 5935   8.273   1.904   8.550  1.6042  0.1351 -2.7740
  768MOL0     H 5936   8.123   1.663   8.471  2.6603  1.4642 -1.7231
  768MOL0     H 5937   8.071   1.743   8.622 -1.1189  4.0101  0.5157
  768MOL0     H 5938   8.048   1.961   8.506  1.3496 -0.4420  0.8351
  768MOL0     H 5939   8.095   1.883   8.357  3.3324  3.3104  2.3424
  768MOL0     H 5940   7.875   1.884   8.324  0.8512 -4.1933 -1.6080
  768MOL0     H 5941   7.893   1.726   8.396  2.6447 -1.3230  1.7335
  768MOL0     H 5942   7.699   1.672   8.375 -0.4216 -0.0772  0.4217
  768MOL0     H 5943   7.498   1.688   8.140  0.2185 -3.2553 -2.2285
  768MOL0     H 5944   7.382   1.595   8.231  1.2981 -2.0227  1.7812
  768MOL0     H 5945   7.552   1.562   8.247 -2.5781 -4.1081 -3.7895
  768MOL0     H 5946   7.199   2.108   8.121 -1.0653 -0.5637  0.6752
  768MOL0     H 5947   6.984   2.172   7.969 -2.7217 -1.5085 -2.0842
  768MOL0     H 5948   6.621   1.961   8.089  0.0827  3.0519  2.4205
  768MOL0     H 5949   6.574   2.095   7.976  0.1769 -1.0013 -2.9412
  768MOL0     H 5950   6.657   1.970   7.798  1.6829  0.4611 -0.3515
  768MOL0     H 5951   6.696   1.828   7.909 -2.3351 -0.9102 -0.5797
  768MOL0     H 5952   6.462   1.889   7.762  2.5513  2.3002  0.1529
  768MOL0     H 5953   6.414   1.917   7.929  0.7701 -0.0709 -0.1360
  768MOL0     H 5954   6.513   1.686   7.983  6.6269  0.9785 -1.8710
  768MOL0     H 5955   6.538   1.659   7.824 -1.1340 -1.3507  0.1632
  768MOL0     H 5956   6.280   1.763   7.942  2.1430  0.5368 -0.0678
  768MOL0     H 5957   6.276   1.684   7.788 -1.6582 -1.5548  0.6349
  768MOL0     H 5958   6.324   1.533   8.057  1.1518 -5.5969 -1.3484
  768MOL0     H 5959   6.337   1.468   7.902  0.0124 -0.1090  0.6284
  768MOL0     H 5960   6.107   1.436   8.002 -1.4847 -0.3069 -0.7825
  768MOL0     H 5961   6.119   1.497   7.840 -2.0258 -3.2925 -0.0434
  768MOL0     H 5962   6.042   1.720   7.898 -0.7027 -2.3882 -1.6151
  768MOL0     H 5963   6.086   1.699   8.068 -2.3530 -0.6807  0.9227
  768MOL0     H 5964   6.742   1.968   8.234 -1.2725 -1.7641 -1.9634
  768MOL0     H 5965   6.932   1.923   8.395  1.4983  0.1840  1.3817
  768MOL0     H 5966   7.375   2.020   8.503 -0.8275 -0.0960 -2.8385
  768MOL0     H 5967   7.610   2.028   8.570 -0.2552 -1.1471  1.1512
  768MOL0     H 5968   9.388   1.979   8.972 -0.0802 -0.7009  0.3465
  768MOL0     H 5969   9.474   2.183   9.048  0.2870  0.3470  0.3816
  768MOL0     H 5970   9.890   2.255   9.370  0.0120  0.2874  0.0139
  768MOL0     H 5971  10.018   2.411   9.507  0.0990 -2.3270 -0.7466
  768MOL0     H 5972   9.994   2.623   9.587  0.6083 -2.2317  0.5605
  768MOL0     H 5973  10.162   2.576   9.564  0.6625  2.3928  1.4699
  768MOL0     H 5974  10.055   2.868   9.586 -3.4663 -3.0041  0.4539
  768MOL0     H 5975  10.221   2.832   9.572 -0.7480  0.3980  1.0390
  768MOL0     H 5976  10.147   2.876   9.821 -4.9051 -1.6709  0.7167
  768MOL0     H 5977  10.085   2.719   9.817 -1.1370  1.1108  1.8221
  768MOL0     H 5978  10.384   2.783   9.740 -1.1660  0.2884 -0.5917
  768MOL0     H 5979  10.329   2.632   9.753  4.0170  0.9527  0.0530
  768MOL0     H 5980  10.352   2.773  10.154 -4.5185  0.4201  1.0615
  768MOL0     H 5981   9.998   2.687   9.153 -1.5263 -0.0697 -0.9228
  768MOL0     H 5982   9.735   2.513   9.008 -0.3548 -1.6247 -2.0360
  768MOL0     H 5983   9.860   2.633   8.970  1.4927 -1.8475 -2.7180
  768MOL0     H 5984   9.891   2.469   8.927 -0.0745 -0.5519  0.4763
  769MOL0     O 5985   5.461   9.925   6.816 -0.1532 -0.1481  0.2174
  769MOL0     C 5986   5.451   9.808   6.861 -0.5505  0.5573  0.0263
  769MOL0     O 5987   5.378   9.714   6.811 -0.1323  0.0198 -0.2981
  769MOL0     C 5988   5.283   9.752   6.719 -0.0738  0.1833  0.1010
  769MOL0     C 5989   5.152   9.783   6.754  0.0219 -0.3997 -0.0399
  769MOL0     C 5990   5.059   9.816   6.655 -0.5744 -0.3702  0.2309
  769MOL0     C 5991   5.102   9.841   6.528 -0.4120  0.3734  0.9187
  769MOL0     O 5992   5.015   9.867   6.432  0.4472 -0.1223  0.1668
  769MOL0     C 5993   4.978   9.762   6.347 -0.7138 -0.4338 -0.3214
  769MOL0     C 5994   4.851   9.804   6.272 -0.2133 -0.1402  0.7055
  769MOL0     C 5995   4.753   9.689   6.266 -0.8789 -0.3070 -0.5297
  769MOL0     C 5996   4.620   9.711   6.195 -0.0608  0.3540 -0.7681
  769MOL0     C 5997   4.545   9.574   6.196 -0.1878  0.1963  0.6808
  769MOL0     C 5998   4.522   9.520   6.341  0.2417  0.6239  1.3143
  769MOL0     C 5999   4.433   9.388   6.335 -0.3773  0.3549  0.0831
  769MOL0     C 6000   4.289   9.425   6.288  0.0295 -1.2432 -1.2599
  769MOL0     N 6001   4.198   9.319   6.307  0.2556 -0.0179 -0.2102
  769MOL0     C 6002   4.184   9.204   6.226 -0.1542  0.6608 -0.2825
  769MOL0     C 6003   4.109   9.120   6.293 -0.7235 -0.7512 -0.7369
  769MOL0     C 6004   4.073   8.982   6.248 -0.0366 -1.2384  0.1965
  769MOL0     C 6005   4.146   8.872   6.337 -0.4061  1.9393 -0.1211
  769MOL0     C 6006   4.058   8.818   6.457 -0.6982  0.7355  0.1050
  769MOL0     C 6007   4.115   8.680   6.497 -0.0430 -0.0635 -0.7410
  769MOL0     O 6008   4.087   8.568   6.406 -0.7272  0.2718  0.9466
  769MOL0     C 6009   4.092   8.439   6.445  0.0327  0.2674 -0.5950
  769MOL0     C 6010   4.104   8.404   6.579 -0.6516 -0.4465 -0.5708
  769MOL0     C 6011   4.097   8.272   6.622 -0.3316  0.3173 -0.8992
  769MOL0     C 6012   4.071   8.256   6.770  0.5184 -0.1415 -0.7107
  769MOL0     C 6013   4.072   8.163   6.530 -0.0919 -0.7372  0.0142
  769MOL0     C 6014   4.054   8.022   6.567 -0.1001 -0.0007  0.7375
  769MOL0     O 6015   4.063   7.988   6.695 -0.3339  0.1715  0.4032
  769MOL0     C 6016   4.018   7.866   6.725  0.7129 -0.0869  0.3842
  769MOL0     C 6017   4.074   7.744   6.694  0.0940  0.8781  0.2531
  769MOL0     C 6018   4.021   7.619   6.745  0.1683 -0.5794 -0.3153
  769MOL0     C 6019   3.908   7.623   6.823 -0.9006 -0.4160 -0.3076
  769MOL0     O 6020   3.865   7.498   6.853 -0.1519  0.0071  0.2779
  769MOL0     C 6021   3.731   7.475   6.901 -0.8020  0.4494 -0.5928
  769MOL0     C 6022   3.696   7.333   6.885 -0.1282 -0.0054  0.0361
  769MOL0     C 6023   3.796   7.242   6.945  0.6157  0.9169 -0.0313
  769MOL0     C 6024   3.819   7.277   7.093  0.4270  0.9374 -0.0295
  769MOL0     C 6025   3.856   7.156   7.177 -0.1757  0.0435  0.1579
  769MOL0     C 6026   3.962   7.215   7.287 -0.1254  0.7069 -0.6818
  769MOL0     C 6027   3.906   7.339   7.358  0.3083 -0.1032  0.1130
  769MOL0     C 6028   3.972   7.383   7.489 -0.3900  0.0575 -0.2632
  769MOL0    Cl 6029   4.158   7.377   7.491  0.3324  0.1791  0.4497
  769MOL0     C 6030   3.842   7.751   6.861  0.6461  0.3487 -0.0068
  769MOL0     C 6031   3.907   7.870   6.810  0.0738  0.5587  0.4905
  769MOL0     O 6032   4.034   7.946   6.473 -0.5674  0.4933  0.1223
  769MOL0     C 6033   4.071   8.192   6.386 -0.5079 -1.0024 -0.6281
  769MOL0     C 6034   4.077   8.335   6.355 -0.2853 -0.6306 -0.1035
  769MOL0     N 6035   4.071   9.185   6.410 -0.8031  0.6811  0.9209
  769MOL0     N 6036   4.130   9.301   6.421  0.1816 -0.2720 -0.3902
  769MOL0     C 6037   5.235   9.829   6.496  0.8355 -0.4304  0.0290
  769MOL0     C 6038   5.325   9.786   6.590 -0.3363 -1.2275  0.1765
  769MOL0     C 6039   5.530   9.781   6.987 -0.8968 -0.0257  0.1077
  769MOL0     C 6040   5.648   9.847   7.008  0.6358 -0.0132  0.2647
  769MOL0     C 6041   5.728   9.817   7.124  1.1978  1.0853  0.3586
  769MOL0     C 6042   5.680   9.725   7.225 -0.2238 -0.3877  0.2410
  769MOL0     O 6043   5.753   9.703   7.337  0.1582  0.2628  0.1456
  769MOL0     C 6044   5.902   9.699   7.347  0.7752  1.1119  0.4234
  769MOL0     C 6045   5.970   9.601   7.256 -0.7689 -0.4605 -0.0850
  769MOL0     C 6046   6.128   9.603   7.271  0.6012 -0.0946  0.2550
  769MOL0     C 6047   6.195   9.471   7.229 -0.5969 -0.8415  0.4242
  769MOL0     C 6048   6.131   9.344   7.271  0.6559 -0.2923 -0.4895
  769MOL0     C 6049   6.090   9.250   7.334 -0.1730  0.3364  0.3848
  769MOL0     C 6050   5.556   9.670   7.208 -0.6715  0.5940 -0.3734
  769MOL0     C 6051   5.488   9.694   7.087  0.0484  0.3405 -0.3793
  769MOL0     C 6052   5.344   9.633   7.089  0.0749 -0.2388  0.1105
  769MOL0     H 6053   5.113   9.772   6.854  0.1512  1.9883  0.3453
  769MOL0     H 6054   4.959   9.811   6.697  0.3302 -1.1475  2.4468
  769MOL0     H 6055   4.960   9.683   6.421 -0.1738 -0.1454  0.1274
  769MOL0     H 6056   5.051   9.739   6.269 -1.7657 -0.6438 -1.2676
  769MOL0     H 6057   4.804   9.892   6.318 -0.4886 -0.1149  0.3826
  769MOL0     H 6058   4.877   9.841   6.173 -1.1136  2.9179  1.5164
  769MOL0     H 6059   4.809   9.603   6.228  1.9533  1.3712 -0.4359
  769MOL0     H 6060   4.735   9.665   6.371  2.8574  0.5477  0.4726
  769MOL0     H 6061   4.571   9.799   6.238 -0.0690 -0.7748  1.6876
  769MOL0     H 6062   4.630   9.734   6.088 -1.5001 -1.9382 -1.4612
  769MOL0     H 6063   4.588   9.493   6.137 -1.1334  1.8912 -2.5772
  769MOL0     H 6064   4.448   9.605   6.156  0.4261  1.4079  0.0680
  769MOL0     H 6065   4.625   9.499   6.372  0.6353 -3.5651 -1.8775
  769MOL0     H 6066   4.472   9.598   6.398 -1.6225  1.3688 -1.1732
  769MOL0     H 6067   4.433   9.353   6.439  4.3550 -0.2735  0.0792
  769MOL0     H 6068   4.464   9.314   6.260 -3.6137 -2.3003  1.0788
  769MOL0     H 6069   4.254   9.505   6.354  1.2280 -1.7871  0.0990
  769MOL0     H 6070   4.294   9.471   6.189  4.9021  1.1368 -0.2294
  769MOL0     H 6071   4.230   9.181   6.130 -0.4948 -2.6830  0.2284
  769MOL0     H 6072   4.113   8.964   6.148  2.8120 -0.6373  1.1324
  769MOL0     H 6073   3.965   8.965   6.251  0.0734 -1.8507  1.3623
  769MOL0     H 6074   4.172   8.782   6.280  2.0526  0.4865  2.9715
  769MOL0     H 6075   4.241   8.911   6.375 -1.3864  1.2315  3.4687
  769MOL0     H 6076   4.070   8.894   6.535  0.0222  1.3038 -0.5410
  769MOL0     H 6077   3.951   8.816   6.434 -0.5114  1.0210 -0.7950
  769MOL0     H 6078   4.221   8.684   6.525  0.2395  0.2049 -1.7998
  769MOL0     H 6079   4.056   8.653   6.585  1.7760 -1.2458  0.1747
  769MOL0     H 6080   4.110   8.479   6.658  0.2422  0.9125 -1.8721
  769MOL0     H 6081   4.061   8.351   6.825 -0.8146 -1.3226  1.1942
  769MOL0     H 6082   4.152   8.198   6.815 -0.4383 -0.2307  1.0072
  769MOL0     H 6083   3.975   8.208   6.791 -1.4814  2.2250 -3.5927
  769MOL0     H 6084   4.164   7.749   6.634 -1.1374 -1.2665 -1.9550
  769MOL0     H 6085   4.067   7.526   6.713 -1.1950 -1.5929  0.6129
  769MOL0     H 6086   3.715   7.507   7.004  0.8724  0.3373 -0.2785
  769MOL0     H 6087   3.659   7.542   6.852 -2.4645  0.9629  2.3253
  769MOL0     H 6088   3.600   7.323   6.936  0.9773 -1.2273  1.9988
  769MOL0     H 6089   3.685   7.306   6.779 -2.0897 -2.3440  0.7487
  769MOL0     H 6090   3.893   7.222   6.899  1.2581  1.0724  1.2092
  769MOL0     H 6091   3.755   7.141   6.937  3.8582 -0.5387  0.1332
  769MOL0     H 6092   3.741   7.340   7.137  0.1986  0.8156 -0.2552
  769MOL0     H 6093   3.910   7.337   7.104  2.1099 -1.8966  3.3448
  769MOL0     H 6094   3.762   7.116   7.215 -2.2553  2.2975 -2.2412
  769MOL0     H 6095   3.903   7.087   7.105 -0.0464  1.7856 -1.5201
  769MOL0     H 6096   4.054   7.246   7.238  1.1321 -2.3491 -0.4506
  769MOL0     H 6097   3.982   7.137   7.361 -1.9883 -0.0815 -0.9395
  769MOL0     H 6098   3.797   7.332   7.374  0.5322  1.0944  2.8970
  769MOL0     H 6099   3.923   7.427   7.296 -3.0393  0.4216 -0.2538
  769MOL0     H 6100   3.928   7.325   7.570  0.5607  0.5029  0.5872
  769MOL0     H 6101   3.948   7.488   7.508  0.7577  0.6093 -1.6509
  769MOL0     H 6102   3.752   7.754   6.922 -1.9843  2.6697 -3.5985
  769MOL0     H 6103   3.869   7.967   6.840 -1.4040  0.0197  0.4422
  769MOL0     H 6104   4.069   8.118   6.308 -1.9150 -1.0092 -0.6102
  769MOL0     H 6105   4.073   8.364   6.251 -0.8798 -2.3916 -0.5998
  769MOL0     H 6106   5.260   9.856   6.393  0.8761 -2.4484 -0.5343
  769MOL0     H 6107   5.428   9.772   6.556 -0.9723 -0.6108 -2.1912
  769MOL0     H 6108   5.683   9.917   6.933 -5.9727  2.9455 -0.8357
  769MOL0     H 6109   5.825   9.865   7.130  1.4772  1.1426 -2.9014
  769MOL0     H 6110   5.931   9.799   7.311  0.6133  0.9932 -0.0384
  769MOL0     H 6111   5.937   9.697   7.451  0.5724  2.1187  0.5227
  769MOL0     H 6112   5.947   9.619   7.151  0.7695 -0.0462 -0.3730
  769MOL0     H 6113   5.932   9.499   7.270 -1.1254 -0.4726 -1.0629
  769MOL0     H 6114   6.163   9.694   7.220 -0.3570 -0.2127 -0.6374
  769MOL0     H 6115   6.153   9.603   7.378  1.0149  3.6633  0.3029
  769MOL0     H 6116   6.298   9.468   7.265 -0.2963 -0.1667 -0.3395
  769MOL0     H 6117   6.203   9.460   7.120  0.6632 -0.0606  0.4214
  769MOL0     H 6118   6.060   9.160   7.384 -0.4076 -2.4730 -4.2222
  769MOL0     H 6119   5.521   9.598   7.281 -1.2410  0.6010 -0.6347
  769MOL0     H 6120   5.274   9.693   7.031  2.0571  1.3174 -0.7928
  769MOL0     H 6121   5.347   9.529   7.056  1.5817 -1.3978  3.4417
  769MOL0     H 6122   5.304   9.635   7.191 -1.3429  1.3544 -0.4376
  770MOL0     O 6123   9.573  10.766   6.640  0.3698 -0.4237 -0.3959
  770MOL0     C 6124   9.470  10.741   6.709 -0.4366  0.1096 -0.3909
  770MOL0     O 6125   9.369  10.658   6.673  0.4511  1.2670  0.8635
  770MOL0     C 6126   9.410  10.564   6.580  0.1380 -0.0777 -0.0809
  770MOL0     C 6127   9.457  10.437   6.622  0.1099 -0.3288 -0.6466
  770MOL0     C 6128   9.493  10.332   6.534  0.2935  0.0095  0.1507
  770MOL0     C 6129   9.472  10.359   6.401 -0.8720  0.2559  0.2935
  770MOL0     O 6130   9.498  10.263   6.305  0.5259 -0.5617  0.3719
  770MOL0     C 6131   9.620  10.196   6.309 -0.5588 -0.0129 -0.0671
  770MOL0     C 6132   9.597  10.053   6.370 -0.2003  0.3466 -0.0063
  770MOL0     C 6133   9.732   9.976   6.399  0.1276 -0.0710  0.1182
  770MOL0     C 6134   9.712   9.837   6.448 -0.6215  0.6653 -0.0044
  770MOL0     C 6135   9.640   9.748   6.348 -0.0408  0.1025  0.2027
  770MOL0     C 6136   9.632   9.602   6.384 -0.6265  0.4414  0.2428
  770MOL0     C 6137   9.519   9.571   6.488 -0.4260  0.7602  0.7622
  770MOL0     C 6138   9.385   9.524   6.433  0.9127  0.6327 -0.4517
  770MOL0     N 6139   9.298   9.635   6.422  0.1185 -0.7438 -0.9922
  770MOL0     C 6140   9.285   9.705   6.308 -0.0989 -0.4571 -0.2640
  770MOL0     C 6141   9.226   9.827   6.339 -0.1507 -0.7075 -0.2803
  770MOL0     C 6142   9.208   9.938   6.239  0.4390 -0.0461 -0.7546
  770MOL0     C 6143   9.233  10.074   6.300 -0.3973 -0.1552 -0.3838
  770MOL0     C 6144   9.104  10.134   6.367  0.1361 -0.0183  0.1308
  770MOL0     C 6145   9.118  10.283   6.394 -0.0306 -0.9659  0.0135
  770MOL0     O 6146   8.981  10.313   6.426  0.3026 -0.1140 -0.6934
  770MOL0     C 6147   8.964  10.397   6.537 -0.1265  0.6452 -0.3994
  770MOL0     C 6148   8.882  10.349   6.636  0.5561  0.5764  0.2437
  770MOL0     C 6149   8.856  10.418   6.756 -0.4106  0.1168  0.4694
  770MOL0     C 6150   8.778  10.351   6.867  0.2163  0.8086 -0.3427
  770MOL0     C 6151   8.913  10.549   6.771 -1.1986  0.9718 -0.4531
  770MOL0     C 6152   8.912  10.629   6.899 -1.4647  0.5938 -0.4184
  770MOL0     O 6153   8.795  10.622   6.975 -0.2132 -1.1201 -0.1350
  770MOL0     C 6154   8.796  10.706   7.082  1.2593  0.2565  1.2930
  770MOL0     C 6155   8.691  10.804   7.085 -0.5459 -0.1192  0.1900
  770MOL0     C 6156   8.677  10.896   7.195  0.1088  0.1434  0.1513
  770MOL0     C 6157   8.767  10.885   7.301 -0.5945 -0.3033 -0.0659
  770MOL0     O 6158   8.768  10.974   7.398 -0.5530  0.5196 -0.1444
  770MOL0     C 6159   8.673  10.948   7.499 -0.2264  0.1337  0.2244
  770MOL0     C 6160   8.671  11.046   7.613 -0.0543 -0.3936 -0.4999
  770MOL0     C 6161   8.782  11.055   7.716 -0.1716 -0.6367 -0.5122
  770MOL0     C 6162   8.779  11.194   7.786 -0.3037 -0.5346  0.2188
  770MOL0     C 6163   8.914  11.214   7.858  0.2179 -0.5712  0.3382
  770MOL0     C 6164   8.912  11.145   7.997  0.6757 -0.5769  0.0709
  770MOL0     C 6165   9.053  11.158   8.050 -1.5940 -0.6980  1.2068
  770MOL0     C 6166   9.147  11.032   8.023 -0.0322  0.2428  0.2748
  770MOL0    Cl 6167   9.117  10.901   8.129 -0.6024  0.2622  0.3455
  770MOL0     C 6168   8.871  10.799   7.290  0.1616 -0.0080 -0.2858
  770MOL0     C 6169   8.889  10.715   7.183  0.8687  0.1053 -1.0065
  770MOL0     O 6170   9.013  10.694   6.925 -0.2521  0.3464  0.5709
  770MOL0     C 6171   9.011  10.592   6.670 -0.5421  0.5865 -0.0987
  770MOL0     C 6172   9.026  10.519   6.553 -0.1516  0.6156 -0.5150
  770MOL0     N 6173   9.216   9.819   6.479  0.3439 -0.6867  0.7886
  770MOL0     N 6174   9.249   9.706   6.527  0.3381  0.1934  0.8442
  770MOL0     C 6175   9.423  10.480   6.357 -0.8749  0.9741 -0.6220
  770MOL0     C 6176   9.388  10.577   6.445  0.0616 -0.0796  1.4525
  770MOL0     C 6177   9.443  10.820   6.832 -0.1942  0.2603 -0.7176
  770MOL0     C 6178   9.308  10.814   6.886  0.0558 -0.3135  1.2247
  770MOL0     C 6179   9.273  10.880   7.006  0.2145 -0.2583 -0.2287
  770MOL0     C 6180   9.364  10.959   7.077  0.3046 -0.6458 -0.3187
  770MOL0     O 6181   9.339  11.013   7.203  0.0910  0.0852  0.5336
  770MOL0     C 6182   9.203  11.025   7.241  0.2331 -0.3380  0.5027
  770MOL0     C 6183   9.190  11.137   7.350  0.2830  0.1724  0.7008
  770MOL0     C 6184   9.050  11.178   7.388  0.6903 -0.9396  0.1016
  770MOL0     C 6185   8.960  11.242   7.275 -0.5191  0.4541  0.2979
  770MOL0     C 6186   9.024  11.343   7.185 -0.9181 -1.0124  0.2527
  770MOL0     C 6187   9.067  11.413   7.098 -0.5668  0.5020  0.5901
  770MOL0     C 6188   9.494  10.971   7.014  0.7253  0.6838  0.0476
  770MOL0     C 6189   9.539  10.903   6.903  0.9330  0.3147  0.5221
  770MOL0     C 6190   9.677  10.930   6.850 -1.0509 -0.4309 -0.3342
  770MOL0     H 6191   9.461  10.436   6.731  1.6636  3.0992 -0.5552
  770MOL0     H 6192   9.518  10.233   6.568  4.3601  0.0998 -2.0087
  770MOL0     H 6193   9.700  10.237   6.372 -2.7849  1.8311  1.7361
  770MOL0     H 6194   9.661  10.194   6.207 -0.8473 -0.8084 -0.1694
  770MOL0     H 6195   9.533  10.065   6.458 -1.3333 -1.0935 -0.5858
  770MOL0     H 6196   9.529   9.993   6.308 -1.5461  1.5410  0.2694
  770MOL0     H 6197   9.787   9.957   6.306  2.6397 -0.3902  1.5854
  770MOL0     H 6198   9.793  10.032   6.471  0.2367  1.9108 -1.4330
  770MOL0     H 6199   9.812   9.794   6.461 -0.8053 -1.2468 -3.6282
  770MOL0     H 6200   9.664   9.834   6.546 -0.3123 -0.8826  0.1213
  770MOL0     H 6201   9.707   9.741   6.262  1.2747 -4.7783  1.3544
  770MOL0     H 6202   9.542   9.782   6.314  1.2469  1.1397 -2.7713
  770MOL0     H 6203   9.611   9.541   6.295 -2.6056 -0.2103  1.1065
  770MOL0     H 6204   9.726   9.573   6.432 -1.0397 -2.6283 -0.5606
  770MOL0     H 6205   9.504   9.656   6.555 -1.7650  0.8900  0.3246
  770MOL0     H 6206   9.547   9.491   6.558 -0.0887  1.1706  1.0977
  770MOL0     H 6207   9.401   9.478   6.335 -1.1490 -0.1481 -0.4625
  770MOL0     H 6208   9.337   9.451   6.498 -0.0035  3.0618  1.7603
  770MOL0     H 6209   9.318   9.678   6.208  0.3034  1.0684 -0.5810
  770MOL0     H 6210   9.104   9.942   6.207 -0.0472 -0.8593  0.6176
  770MOL0     H 6211   9.274   9.925   6.154 -0.1277 -0.9013 -1.0710
  770MOL0     H 6212   9.314  10.039   6.365 -1.9598 -2.9683  0.2066
  770MOL0     H 6213   9.270  10.136   6.218  1.5787 -1.9477 -0.9420
  770MOL0     H 6214   9.022  10.105   6.302 -1.4281 -0.6236  2.2656
  770MOL0     H 6215   9.089  10.079   6.461 -0.8454 -3.5400 -1.8914
  770MOL0     H 6216   9.206  10.298   6.458  4.0698 -0.9162 -5.0277
  770MOL0     H 6217   9.144  10.337   6.303  3.2485  0.4577  1.6343
  770MOL0     H 6218   8.852  10.247   6.616 -0.3575  0.2786  2.8026
  770MOL0     H 6219   8.696  10.412   6.905 -0.1311  0.7468 -0.9767
  770MOL0     H 6220   8.831  10.326   6.959  1.5027  0.4562 -1.1516
  770MOL0     H 6221   8.728  10.258   6.838  2.2836 -1.5738  2.9196
  770MOL0     H 6222   8.625  10.826   7.001  3.2046 -0.5458 -3.1958
  770MOL0     H 6223   8.599  10.971   7.183 -0.4345 -0.7032 -2.2679
  770MOL0     H 6224   8.576  10.944   7.449  0.7538 -2.4842 -1.6661
  770MOL0     H 6225   8.707  10.849   7.531  2.2582 -0.2524 -3.0869
  770MOL0     H 6226   8.648  11.143   7.568  1.1238  0.6414  1.0285
  770MOL0     H 6227   8.582  11.006   7.662  0.6124 -1.5667 -0.1994
  770MOL0     H 6228   8.874  11.041   7.659 -0.3295 -0.8952 -0.7100
  770MOL0     H 6229   8.777  10.984   7.800  2.5007 -0.7775 -0.4091
  770MOL0     H 6230   8.700  11.203   7.861  0.9946  2.5001  1.3828
  770MOL0     H 6231   8.761  11.272   7.712 -0.0960 -2.6650 -2.2589
  770MOL0     H 6232   8.984  11.176   7.782 -1.0696  3.1379 -3.0885
  770MOL0     H 6233   8.944  11.316   7.883 -1.8629  0.0713  0.4066
  770MOL0     H 6234   8.884  11.040   8.000 -1.3067 -0.0536  2.2909
  770MOL0     H 6235   8.843  11.200   8.062  0.9559 -1.1713  0.8892
  770MOL0     H 6236   9.049  11.193   8.154  0.4728  0.9288  0.8018
  770MOL0     H 6237   9.120  11.232   8.006  1.1358 -3.1324  1.0123
  770MOL0     H 6238   9.249  11.064   8.045 -0.5650  2.0580  0.3134
  770MOL0     H 6239   9.132  10.994   7.922 -5.2597 -2.1996  1.5806
  770MOL0     H 6240   8.934  10.809   7.378 -1.8986  0.1714  1.2497
  770MOL0     H 6241   8.956  10.630   7.192 -2.3048 -2.5063  0.1265
  770MOL0     H 6242   9.073  10.681   6.679 -0.2635  0.6058 -1.8110
  770MOL0     H 6243   9.092  10.569   6.483  1.8649 -0.1509  0.7546
  770MOL0     H 6244   9.411  10.499   6.251 -1.8647  2.2027 -0.3099
  770MOL0     H 6245   9.358  10.674   6.406  2.3018 -0.6519 -2.1297
  770MOL0     H 6246   9.231  10.766   6.827 -0.0806 -1.7587  2.5206
  770MOL0     H 6247   9.174  10.867   7.049  0.5389 -2.2623  0.0236
  770MOL0     H 6248   9.139  11.048   7.156 -1.6663 -0.7969  1.7316
  770MOL0     H 6249   9.185  10.926   7.285  1.3433 -0.4883  0.6534
  770MOL0     H 6250   9.238  11.230   7.319 -1.5206  0.1062 -2.6742
  770MOL0     H 6251   9.239  11.087   7.435 -3.2837 -1.1489  2.1521
  770MOL0     H 6252   8.992  11.098   7.436 -0.2910  0.4113  1.2719
  770MOL0     H 6253   9.066  11.255   7.463 -1.6845  1.0934 -1.3127
  770MOL0     H 6254   8.876  11.296   7.319  1.3175  3.8610 -0.0276
  770MOL0     H 6255   8.903  11.170   7.216 -2.0617  2.3642 -0.6516
  770MOL0     H 6256   9.082  11.472   7.010 -2.4148  1.8755  1.1351
  770MOL0     H 6257   9.565  11.016   7.083  1.1556  0.7085 -0.4075
  770MOL0     H 6258   9.741  10.841   6.837  0.6694  0.5184  1.1034
  770MOL0     H 6259   9.693  10.986   6.758  1.3841 -1.0665 -0.3654
  770MOL0     H 6260   9.735  10.992   6.919  2.1712  1.0493 -3.9712
  771MOL0     O 6261   0.131   0.133  10.570  0.0237  0.8579  0.4151
  771MOL0     C 6262   0.241   0.083  10.595 -0.0161 -0.2301  0.4798
  771MOL0     O 6263   0.290   0.066  10.723 -0.2721 -0.6416 -0.3698
  771MOL0     C 6264   0.293   0.170  10.813 -0.1305  0.2916 -0.2804
  771MOL0     C 6265   0.329   0.143  10.945  0.5691 -0.4098  0.3911
  771MOL0     C 6266   0.348   0.252  11.034  0.3757 -0.2631  1.0561
  771MOL0     C 6267   0.320   0.380  10.994  0.1870  0.3233  0.1495
  771MOL0     O 6268   0.342   0.488  11.070  0.5968  0.2720  0.6629
  771MOL0     C 6269   0.224   0.563  11.090  1.0720  0.2843 -0.0611
  771MOL0     C 6270   0.233   0.682  11.187 -0.2117 -0.8428  0.6502
  771MOL0     C 6271   0.346   0.779  11.161 -1.2380 -0.4371 -0.3365
  771MOL0     C 6272   0.375   0.854  11.303 -1.0512 -0.5554  0.0176
  771MOL0     C 6273   0.500   0.949  11.276 -0.9343  0.3072  0.8310
  771MOL0     C 6274   0.541   1.027  11.400  0.7189 -0.5596 -0.0784
  771MOL0     C 6275   0.608   1.162  11.367 -0.1450  0.6189 -0.1356
  771MOL0     C 6276   0.515   1.282  11.350 -0.9760 -0.4897  0.0268
  771MOL0     N 6277   0.467   1.350  11.472  0.7384  0.1328  0.2823
  771MOL0     C 6278   0.475   1.300  11.595 -0.3642  0.0349 -0.3405
  771MOL0     C 6279   0.446   1.408  11.672  0.6471  0.7516  0.0956
  771MOL0     C 6280   0.461   1.413  11.825 -1.0915  0.1559 -0.3310
  771MOL0     C 6281   0.588   1.358  11.877  1.1465  0.0046 -0.6126
  771MOL0     C 6282   0.591   1.366  12.027  0.0709  0.1334 -0.7120
  771MOL0     C 6283   0.642   1.492  12.100  0.2801  0.1401  0.6322
  771MOL0     O 6284   0.777   1.518  12.072  0.4727  0.3235 -0.0086
  771MOL0     C 6285   0.876   1.432  12.112 -0.4172  0.4036 -0.3759
  771MOL0     C 6286   0.865   1.350  12.235 -0.2146 -0.4731  0.1353
  771MOL0     C 6287   0.985   1.281  12.280  0.1803  0.1077  0.0453
  771MOL0     C 6288   0.971   1.203  12.411  0.3551  0.4707 -0.4734
  771MOL0     C 6289   1.108   1.283  12.212  0.7662  0.3432 -0.2512
  771MOL0     C 6290   1.222   1.201  12.264 -0.9301 -0.0098 -0.3087
  771MOL0     O 6291   1.306   1.281  12.334  0.3728 -0.8501 -0.0368
  771MOL0     C 6292   1.432   1.239  12.364 -0.3480  0.2379  0.9697
  771MOL0     C 6293   1.478   1.283  12.493 -0.1681  0.1687 -0.1505
  771MOL0     C 6294   1.592   1.234  12.549 -1.0651  0.0923 -0.5767
  771MOL0     C 6295   1.678   1.143  12.482 -0.1576  0.3450  0.4009
  771MOL0     O 6296   1.797   1.099  12.530  0.2016 -0.4245  0.4366
  771MOL0     C 6297   1.861   1.145  12.654  1.1078  0.3242 -0.3673
  771MOL0     C 6298   1.982   1.058  12.675 -0.2836 -0.3028 -0.2100
  771MOL0     C 6299   2.042   1.076  12.812  0.3525  0.9660 -0.4802
  771MOL0     C 6300   2.143   0.966  12.842  0.3095 -0.1026  0.9493
  771MOL0     C 6301   2.194   0.980  12.984 -0.5880  0.0859  0.3534
  771MOL0     C 6302   2.315   0.893  13.018 -0.2802  0.0213  0.6565
  771MOL0     C 6303   2.265   0.750  13.063  0.4769  0.0523 -0.6487
  771MOL0     C 6304   2.389   0.689  13.149 -0.0540  0.0941 -0.4733
  771MOL0    Cl 6305   2.499   0.626  13.028 -0.4023 -0.2575 -0.0659
  771MOL0     C 6306   1.647   1.111  12.346  0.0591 -0.9133 -0.1997
  771MOL0     C 6307   1.525   1.156  12.290 -0.3930  0.4511  0.0415
  771MOL0     O 6308   1.238   1.085  12.233  0.1358  0.5727 -0.3342
  771MOL0     C 6309   1.116   1.362  12.087 -0.7575  0.9232 -0.1903
  771MOL0     C 6310   1.006   1.436  12.043 -0.2799 -1.8263 -0.8721
  771MOL0     N 6311   0.396   1.511  11.588 -0.0015 -0.5652 -0.7873
  771MOL0     N 6312   0.411   1.469  11.471  0.7360 -1.2172  0.4586
  771MOL0     C 6313   0.279   0.408  10.857  0.0697 -0.3065  0.0869
  771MOL0     C 6314   0.264   0.303  10.769 -1.3563  0.4052 -0.2040
  771MOL0     C 6315   0.309   0.006  10.491  0.0261 -0.2861 -0.8659
  771MOL0     C 6316   0.386  -0.107  10.520 -0.2466 -0.4418 -1.3723
  771MOL0     C 6317   0.439  -0.194  10.421  0.4773 -0.0584  0.0030
  771MOL0     C 6318   0.412  -0.172  10.284 -0.2906 -0.2548 -0.5634
  771MOL0     O 6319   0.475  -0.258  10.196  0.0300 -0.0316 -0.8970
  771MOL0     C 6320   0.474  -0.217  10.059 -0.8048 -0.3222  0.2341
  771MOL0     C 6321   0.349  -0.271   9.983  0.2934  0.2138 -0.4943
  771MOL0     C 6322   0.353  -0.423   9.943 -0.5648  0.7183  1.3995
  771MOL0     C 6323   0.476  -0.502   9.981  0.4612  1.2383 -0.2806
  771MOL0     C 6324   0.452  -0.643   9.930  0.4623  0.1404 -0.6918
  771MOL0     C 6325   0.430  -0.746   9.876  0.6741  0.2549  0.0082
  771MOL0     C 6326   0.334  -0.061  10.253 -0.4314  0.2396 -0.6540
  771MOL0     C 6327   0.290   0.033  10.349 -0.0206 -0.1371  0.1734
  771MOL0     C 6328   0.198   0.149  10.289 -0.8548  0.4683  0.7906
  771MOL0     H 6329   0.357   0.041  10.970  2.5305 -0.3108 -1.1485
  771MOL0     H 6330   0.376   0.238  11.138  1.0858  0.3347  0.9643
  771MOL0     H 6331   0.151   0.500  11.143  0.8963 -0.5703 -1.2731
  771MOL0     H 6332   0.176   0.611  11.005  2.0619  2.5501  0.5791
  771MOL0     H 6333   0.140   0.738  11.175  0.3132  0.3640  1.9356
  771MOL0     H 6334   0.241   0.639  11.288 -1.7354 -0.7573  0.8256
  771MOL0     H 6335   0.429   0.714  11.134 -0.6726  0.6592 -1.3024
  771MOL0     H 6336   0.326   0.856  11.086  3.2129  2.2952  0.9166
  771MOL0     H 6337   0.288   0.914  11.331  0.7989  2.9278 -0.9913
  771MOL0     H 6338   0.401   0.782  11.380  2.2431 -1.4208 -1.7119
  771MOL0     H 6339   0.475   1.018  11.195  0.3134 -0.4362 -0.2358
  771MOL0     H 6340   0.584   0.887  11.244 -0.5654  1.0596  0.3177
  771MOL0     H 6341   0.454   1.052  11.462  2.0887  1.5599  1.1155
  771MOL0     H 6342   0.610   0.963  11.455 -0.0608 -0.2544  1.2979
  771MOL0     H 6343   0.670   1.138  11.280  0.7776 -3.1075  1.3642
  771MOL0     H 6344   0.683   1.183  11.443 -1.7377  0.3171  1.5866
  771MOL0     H 6345   0.557   1.361  11.287 -1.0949 -0.0718  0.4640
  771MOL0     H 6346   0.427   1.248  11.295 -2.4952  0.7082  1.6488
  771MOL0     H 6347   0.514   1.204  11.629  2.2603  1.8577  2.2522
  771MOL0     H 6348   0.368   1.370  11.862 -0.9411  1.4671  1.7267
  771MOL0     H 6349   0.449   1.511  11.871  1.0941  0.7580 -0.9204
  771MOL0     H 6350   0.597   1.254  11.846 -1.1245  0.1335 -1.9937
  771MOL0     H 6351   0.676   1.413  11.842  0.8263  1.2760  0.4918
  771MOL0     H 6352   0.491   1.340  12.065  0.6328 -0.5439  0.3714
  771MOL0     H 6353   0.649   1.285  12.071  0.4957  2.6362  3.9803
  771MOL0     H 6354   0.591   1.586  12.077  3.2148  1.6695 -0.1335
  771MOL0     H 6355   0.638   1.466  12.206  4.0121  0.2976  0.9445
  771MOL0     H 6356   0.776   1.346  12.296 -1.0186 -0.7206 -1.0214
  771MOL0     H 6357   1.038   1.235  12.492 -3.1494  3.8488  1.4012
  771MOL0     H 6358   0.985   1.096  12.391 -1.8929 -0.2286  1.2312
  771MOL0     H 6359   0.873   1.225  12.454  0.8565  3.8240 -0.7430
  771MOL0     H 6360   1.411   1.347  12.550 -1.9359 -1.1080 -0.7053
  771MOL0     H 6361   1.632   1.279  12.640 -1.7756  2.7544 -1.4728
  771MOL0     H 6362   1.887   1.250  12.642 -2.5600  1.4661  0.5426
  771MOL0     H 6363   1.779   1.134  12.725 -1.0269  0.0045 -2.7135
  771MOL0     H 6364   1.956   0.953  12.663  0.8995 -0.3901 -2.6158
  771MOL0     H 6365   2.058   1.087  12.601  1.5497  0.7750  1.9829
  771MOL0     H 6366   1.959   1.061  12.883 -0.2199 -3.1022 -1.7123
  771MOL0     H 6367   2.089   1.174  12.818  2.9494 -0.1457 -0.8965
  771MOL0     H 6368   2.229   0.983  12.777 -0.3259  2.9014  0.7600
  771MOL0     H 6369   2.111   0.864  12.816  2.4265  0.1572 -3.5711
  771MOL0     H 6370   2.223   1.083  13.007  0.7754 -0.3981  0.8874
  771MOL0     H 6371   2.118   0.947  13.056  1.4023 -0.6404  2.2362
  771MOL0     H 6372   2.350   0.931  13.115  0.8138 -2.5913  1.3940
  771MOL0     H 6373   2.386   0.898  12.936 -0.6784  4.5248  0.3387
  771MOL0     H 6374   2.238   0.691  12.974  0.0850  1.1020 -1.2398
  771MOL0     H 6375   2.174   0.756  13.122 -0.6099 -1.8429 -2.0267
  771MOL0     H 6376   2.359   0.616  13.225 -0.5133  0.1048 -0.6440
  771MOL0     H 6377   2.433   0.771  13.206 -2.2681  1.4640 -0.6265
  771MOL0     H 6378   1.725   1.055  12.294 -1.0507 -4.0370  1.2630
  771MOL0     H 6379   1.490   1.134  12.190 -0.2947 -1.6305  0.4363
  771MOL0     H 6380   1.217   1.364  12.047 -0.8891 -1.2467 -0.7565
  771MOL0     H 6381   1.021   1.489  11.950  2.0193  1.5651  1.2331
  771MOL0     H 6382   0.259   0.510  10.826  0.1479  0.1160  1.3716
  771MOL0     H 6383   0.246   0.323  10.664  1.6543 -2.3229 -1.4171
  771MOL0     H 6384   0.393  -0.126  10.627  2.0800  0.0827 -1.3790
  771MOL0     H 6385   0.493  -0.287  10.439  0.7126  0.1683  0.4568
  771MOL0     H 6386   0.483  -0.109  10.044  1.3213 -0.8933 -4.0516
  771MOL0     H 6387   0.564  -0.253  10.008  0.5397  3.0409 -0.0334
  771MOL0     H 6388   0.331  -0.196   9.905  0.8957  1.5102  0.5847
  771MOL0     H 6389   0.266  -0.272  10.053  0.9949 -1.0955  0.3575
  771MOL0     H 6390   0.262  -0.474   9.975  0.6103 -1.9513  0.7608
  771MOL0     H 6391   0.350  -0.424   9.833 -1.4065 -0.9117  1.4051
  771MOL0     H 6392   0.469  -0.509  10.090  0.4327 -2.8604 -0.3849
  771MOL0     H 6393   0.569  -0.452   9.952 -1.2447  4.3533 -0.8196
  771MOL0     H 6394   0.421  -0.841   9.826 -0.3718  0.8377 -0.9561
  771MOL0     H 6395   0.307  -0.047  10.148  1.0581  3.1479 -0.7343
  771MOL0     H 6396   0.194   0.141  10.180  1.6309  1.7518  0.5434
  771MOL0     H 6397   0.095   0.137  10.326 -1.4049  2.1860 -0.1195
  771MOL0     H 6398   0.227   0.250  10.320  1.9084 -0.4898  1.6119
  772MOL0     O 6399   6.746   0.292  10.935 -0.5494 -0.4500 -1.1432
  772MOL0     C 6400   6.791   0.206  11.006 -0.0692  0.0222 -0.4225
  772MOL0     O 6401   6.927   0.203  11.039 -0.7706 -0.0694 -0.2132
  772MOL0     C 6402   7.007   0.299  10.978  1.0585  0.5026 -0.2146
  772MOL0     C 6403   7.082   0.391  11.046 -0.4952  0.0989  0.1977
  772MOL0     C 6404   7.168   0.479  10.973  0.1215  0.5547 -0.1331
  772MOL0     C 6405   7.176   0.465  10.838 -0.1342 -0.8516  0.2210
  772MOL0     O 6406   7.246   0.567  10.764 -0.2922 -0.0475 -0.5543
  772MOL0     C 6407   7.170   0.659  10.675 -0.1273  0.4433 -0.5554
  772MOL0     C 6408   7.097   0.770  10.742  0.1718 -0.2972  0.0866
  772MOL0     C 6409   7.192   0.867  10.809 -0.2756  0.4425 -0.1661
  772MOL0     C 6410   7.123   0.933  10.932 -0.9311  0.0075  0.4055
  772MOL0     C 6411   7.221   1.033  10.992 -0.3955 -0.1905  0.8576
  772MOL0     C 6412   7.158   1.110  11.115 -0.6258 -0.2296 -0.0410
  772MOL0     C 6413   7.256   1.155  11.219  0.4439 -0.6566  0.0464
  772MOL0     C 6414   7.324   1.293  11.207  1.2037  0.7238 -0.5758
  772MOL0     N 6415   7.352   1.346  11.071  0.2501 -0.2841 -0.3630
  772MOL0     C 6416   7.428   1.288  10.972  0.6230  0.6385 -0.0073
  772MOL0     C 6417   7.371   1.340  10.861  0.4578  0.6140  0.4630
  772MOL0     C 6418   7.419   1.282  10.719  1.2637 -0.9423  0.1577
  772MOL0     C 6419   7.499   1.380  10.630 -0.1447  0.5471  0.9357
  772MOL0     C 6420   7.642   1.328  10.632 -0.0613  0.0797  0.1745
  772MOL0     C 6421   7.736   1.424  10.566  0.0968  0.3749  0.0038
  772MOL0     O 6422   7.845   1.376  10.494  0.1029  0.7748  0.0199
  772MOL0     C 6423   7.823   1.305  10.377  0.7314  0.0995  0.2076
  772MOL0     C 6424   7.705   1.316  10.310 -0.0242 -0.1199  0.1389
  772MOL0     C 6425   7.683   1.244  10.185 -0.2425 -0.0762 -0.2404
  772MOL0     C 6426   7.556   1.268  10.121  0.9232  0.3259 -0.6666
  772MOL0     C 6427   7.791   1.168  10.133  0.3680  0.8185 -0.4379
  772MOL0     C 6428   7.794   1.089  10.003 -0.0036  0.6495 -0.0957
  772MOL0     O 6429   7.909   1.052   9.952 -0.0819 -0.2548  0.2255
  772MOL0     C 6430   7.924   0.973   9.839  0.7964 -0.8841 -0.3394
  772MOL0     C 6431   7.824   0.920   9.751  0.4230 -0.0584 -0.0127
  772MOL0     C 6432   7.879   0.855   9.636  0.3363 -0.0541 -0.3896
  772MOL0     C 6433   8.013   0.857   9.604 -0.3583  0.6088  0.7740
  772MOL0     O 6434   8.047   0.790   9.491  0.4975  0.1777 -0.4984
  772MOL0     C 6435   8.142   0.853   9.402 -0.2552 -0.0921 -1.0075
  772MOL0     C 6436   8.170   0.749   9.301 -0.3806 -0.1669 -0.4441
  772MOL0     C 6437   8.253   0.803   9.181  0.2293 -0.3265  0.2745
  772MOL0     C 6438   8.172   0.896   9.082  0.1588 -0.2695 -0.9766
  772MOL0     C 6439   8.120   0.819   8.966  0.8193 -0.2437 -0.5251
  772MOL0     C 6440   8.029   0.915   8.882 -0.9677  0.5150 -1.0173
  772MOL0     C 6441   7.896   0.913   8.947  0.1396  0.6955 -0.0151
  772MOL0     C 6442   7.798   1.007   8.886  0.6180 -0.8037  0.4060
  772MOL0    Cl 6443   7.640   1.001   8.958 -0.1904  0.0299  0.5091
  772MOL0     C 6444   8.102   0.912   9.688 -0.3268  0.6800  0.7373
  772MOL0     C 6445   8.059   0.961   9.812  0.2375  0.1604  0.1311
  772MOL0     O 6446   7.680   1.050   9.977  0.5143  0.0005  0.2335
  772MOL0     C 6447   7.918   1.180  10.195  0.2494 -0.5049  0.0026
  772MOL0     C 6448   7.927   1.243  10.319 -0.8744  0.2508  0.0922
  772MOL0     N 6449   7.299   1.455  10.886  0.0875  0.1583  0.2949
  772MOL0     N 6450   7.278   1.448  11.010  0.2379  0.8125  1.0710
  772MOL0     C 6451   7.109   0.363  10.765 -0.4083 -0.3610 -0.1331
  772MOL0     C 6452   7.019   0.294  10.840  1.0941  0.8897  0.2444
  772MOL0     C 6453   6.696   0.102  11.080 -0.4586  0.3878  0.2658
  772MOL0     C 6454   6.588   0.057  10.990 -0.0481  0.5951 -0.4848
  772MOL0     C 6455   6.518  -0.057  11.028  0.1263  0.3279 -1.1151
  772MOL0     C 6456   6.520  -0.109  11.161  1.8251  0.2284  0.9474
  772MOL0     O 6457   6.422  -0.197  11.206 -0.0838 -0.2168  0.2559
  772MOL0     C 6458   6.333  -0.275  11.115  0.6983  0.9234  0.2488
  772MOL0     C 6459   6.243  -0.356  11.198 -0.8071 -0.2134 -0.0846
  772MOL0     C 6460   6.133  -0.269  11.272  0.1342  0.4663  0.1388
  772MOL0     C 6461   6.081  -0.332  11.412  0.3765 -0.3348 -0.0531
  772MOL0     C 6462   6.055  -0.478  11.394  0.7922 -0.6190  0.4183
  772MOL0     C 6463   6.022  -0.596  11.375  0.1770  0.3054 -0.9558
  772MOL0     C 6464   6.621  -0.064  11.249  0.1538  0.6554  0.1800
  772MOL0     C 6465   6.714   0.034  11.204  0.4515  0.0555  0.3741
  772MOL0     C 6466   6.829   0.063  11.293 -0.0466 -0.1935  0.4987
  772MOL0     H 6467   7.078   0.396  11.155 -3.5824 -1.8553  0.3014
  772MOL0     H 6468   7.234   0.548  11.024  0.0083  1.3225 -1.0025
  772MOL0     H 6469   7.105   0.596  10.613 -1.0434  1.9924 -1.2029
  772MOL0     H 6470   7.245   0.714  10.619  1.6177  0.6340  1.8082
  772MOL0     H 6471   7.047   0.829  10.665  2.5711 -0.2920 -1.5743
  772MOL0     H 6472   7.024   0.728  10.811  2.5141 -0.6758  2.5068
  772MOL0     H 6473   7.293   0.825  10.824 -0.2497  0.1039 -1.2157
  772MOL0     H 6474   7.207   0.940  10.729  0.7202 -2.0680 -2.4375
  772MOL0     H 6475   7.036   0.994  10.906 -1.8710  0.2152  3.6859
  772MOL0     H 6476   7.085   0.853  10.995  0.2626  0.3248  1.5730
  772MOL0     H 6477   7.242   1.110  10.917 -1.7714 -0.3076  0.3342
  772MOL0     H 6478   7.304   0.968  11.019 -1.3812 -1.4142  1.0251
  772MOL0     H 6479   7.108   1.198  11.073  2.9218  3.4385  2.5609
  772MOL0     H 6480   7.089   1.031  11.147 -2.6807  1.0813 -0.9897
  772MOL0     H 6481   7.328   1.075  11.236  1.1215  0.2010  1.4496
  772MOL0     H 6482   7.191   1.163  11.307 -1.6737 -3.1615 -1.1536
  772MOL0     H 6483   7.255   1.364  11.254  2.3251  0.5702  1.3627
  772MOL0     H 6484   7.409   1.296  11.274  2.2814 -0.2342 -1.8362
  772MOL0     H 6485   7.489   1.199  10.983 -1.4187 -0.8001  0.3020
  772MOL0     H 6486   7.327   1.250  10.669 -1.4607  1.3120  3.2742
  772MOL0     H 6487   7.470   1.187  10.735  0.5374 -0.7806  4.5074
  772MOL0     H 6488   7.461   1.375  10.528  0.7173 -3.9646  0.6195
  772MOL0     H 6489   7.497   1.479  10.675 -0.1565  0.5452  0.9389
  772MOL0     H 6490   7.674   1.310  10.735  0.3893  0.7866  0.1584
  772MOL0     H 6491   7.638   1.233  10.577  5.7976 -0.7691  0.6265
  772MOL0     H 6492   7.676   1.488  10.501 -0.1599  1.4207  1.2308
  772MOL0     H 6493   7.779   1.488  10.644 -1.0943 -1.3026  2.1302
  772MOL0     H 6494   7.614   1.362  10.349  0.5179 -0.3170  1.7127
  772MOL0     H 6495   7.486   1.195  10.162  0.4718  2.0230  1.7631
  772MOL0     H 6496   7.551   1.254  10.012 -0.3306 -1.6644 -0.4097
  772MOL0     H 6497   7.526   1.372  10.138  0.2126 -0.1176  0.9218
  772MOL0     H 6498   7.724   0.891   9.781  0.9757 -0.6308  1.3609
  772MOL0     H 6499   7.806   0.828   9.560  0.5578 -0.2671 -0.5302
  772MOL0     H 6500   8.093   0.940   9.354 -1.7874  1.3969  2.8469
  772MOL0     H 6501   8.231   0.891   9.452 -0.1903 -0.2284 -1.0176
  772MOL0     H 6502   8.246   0.685   9.348  2.1702  1.2281 -2.4103
  772MOL0     H 6503   8.078   0.698   9.270 -1.3858  1.2085  0.1912
  772MOL0     H 6504   8.303   0.720   9.130 -2.5469 -1.3288 -1.0246
  772MOL0     H 6505   8.339   0.864   9.212  1.7877 -1.5251 -1.5024
  772MOL0     H 6506   8.239   0.964   9.029 -0.2816  0.8743 -0.1234
  772MOL0     H 6507   8.099   0.962   9.132 -3.0774 -1.8512 -3.2854
  772MOL0     H 6508   8.212   0.784   8.916  2.1822  2.5460 -0.1434
  772MOL0     H 6509   8.067   0.730   9.002  0.8337  1.0655  3.1170
  772MOL0     H 6510   8.015   0.879   8.780  3.7285 -0.4649 -1.5621
  772MOL0     H 6511   8.079   1.013   8.885  0.6839 -0.3007 -0.6982
  772MOL0     H 6512   7.907   0.931   9.054  1.3867  1.0932 -0.1919
  772MOL0     H 6513   7.854   0.812   8.944 -0.9441  1.0460  1.7018
  772MOL0     H 6514   7.788   0.984   8.780  0.8952 -1.3401  0.4958
  772MOL0     H 6515   7.836   1.110   8.893  3.1103 -1.6995  1.2957
  772MOL0     H 6516   8.209   0.903   9.675 -0.5808 -0.9328 -0.5242
  772MOL0     H 6517   8.138   0.991   9.880  0.5432 -1.9669  0.7789
  772MOL0     H 6518   8.017   1.154  10.159  1.4608  1.5811  1.6036
  772MOL0     H 6519   8.026   1.252  10.361 -0.1667  3.3117 -1.8626
  772MOL0     H 6520   7.122   0.364  10.657  4.5712  1.6444  0.1962
  772MOL0     H 6521   6.966   0.214  10.789 -0.4917  0.9868  1.6703
  772MOL0     H 6522   6.597   0.103  10.892  1.9973 -3.8917 -2.7356
  772MOL0     H 6523   6.452  -0.103  10.955 -0.8298  0.1437 -0.1565
  772MOL0     H 6524   6.265  -0.199  11.076 -3.8051 -0.5353  4.2287
  772MOL0     H 6525   6.393  -0.344  11.056 -0.6666 -1.6748  1.7084
  772MOL0     H 6526   6.299  -0.414  11.272 -1.9548 -0.6037  0.5150
  772MOL0     H 6527   6.192  -0.428  11.134 -0.7304 -1.0842  0.8042
  772MOL0     H 6528   6.146  -0.161  11.279  0.8791  0.4795 -1.2989
  772MOL0     H 6529   6.046  -0.273  11.206 -0.5460 -3.1589  1.0377
  772MOL0     H 6530   5.989  -0.276  11.435  0.5471  0.9837 -2.3135
  772MOL0     H 6531   6.156  -0.298  11.484 -1.7877 -0.0653  2.2336
  772MOL0     H 6532   5.974  -0.692  11.377  1.3180 -0.2722 -0.6710
  772MOL0     H 6533   6.621  -0.104  11.350 -0.1035 -2.9481 -1.0864
  772MOL0     H 6534   6.801   0.052  11.398  3.2204 -1.6108  1.3617
  772MOL0     H 6535   6.902  -0.019  11.287 -0.6563 -0.7479  0.4544
  772MOL0     H 6536   6.872   0.161  11.270  1.5844 -0.7998  0.8457
  773MOL0     O 6537   0.809  10.060   1.891  0.6718  0.2127 -1.3900
  773MOL0     C 6538   0.862  10.169   1.918  0.5660  0.4339  0.7416
  773MOL0     O 6539   0.811  10.273   1.985  0.4258  0.2520 -0.9511
  773MOL0     C 6540   0.707  10.235   2.064 -0.5101  0.2047 -0.2120
  773MOL0     C 6541   0.746  10.192   2.190  0.5851  0.0594  0.6139
  773MOL0     C 6542   0.644  10.156   2.278 -0.0273  0.2109 -0.3003
  773MOL0     C 6543   0.511  10.171   2.239 -0.3052  0.0815 -0.4036
  773MOL0     O 6544   0.414  10.136   2.322  0.3105  0.5877 -0.1850
  773MOL0     C 6545   0.340  10.245   2.380 -0.0220 -1.1075  0.2689
  773MOL0     C 6546   0.200  10.272   2.327  0.4249  0.1939  0.5865
  773MOL0     C 6547   0.108  10.159   2.370 -0.5888  0.6677 -0.5645
  773MOL0     C 6548  -0.047  10.191   2.341 -0.3633  0.2563 -0.6838
  773MOL0     C 6549  -0.096  10.219   2.195 -1.3947 -0.2995  0.3458
  773MOL0     C 6550  -0.070  10.089   2.114  0.0801  0.3547  0.1880
  773MOL0     C 6551  -0.101  10.130   1.965  0.4666 -0.3049 -0.2227
  773MOL0     C 6552  -0.100  10.019   1.866 -0.1324  0.6410  0.5747
  773MOL0     N 6553  -0.204  10.058   1.765  0.4603  0.3332  0.4865
  773MOL0     C 6554  -0.333  10.008   1.766 -0.2697  0.2838  0.3893
  773MOL0     C 6555  -0.390  10.075   1.654 -0.2750  0.0114 -1.2359
  773MOL0     C 6556  -0.530  10.042   1.613  0.4400 -0.8888 -0.1960
  773MOL0     C 6557  -0.530   9.913   1.523  0.1627  0.9189 -0.0479
  773MOL0     C 6558  -0.601   9.950   1.392 -1.1749  0.2399  0.5107
  773MOL0     C 6559  -0.627   9.829   1.295  0.1505 -0.5426 -0.2481
  773MOL0     O 6560  -0.507   9.750   1.277  0.5761 -0.1992  0.2503
  773MOL0     C 6561  -0.503   9.662   1.174 -0.6779 -1.4318 -0.4870
  773MOL0     C 6562  -0.387   9.666   1.100  1.1321 -0.2215  0.1133
  773MOL0     C 6563  -0.365   9.604   0.976 -1.4358  0.7907  0.2560
  773MOL0     C 6564  -0.225   9.611   0.912  0.2272  0.0723  0.0063
  773MOL0     C 6565  -0.473   9.540   0.917  0.5523  0.7497 -0.1915
  773MOL0     C 6566  -0.481   9.465   0.788  0.1169  0.1173  0.4176
  773MOL0     O 6567  -0.379   9.498   0.698 -0.2314  0.0820  0.4467
  773MOL0     C 6568  -0.346   9.437   0.583 -1.2973 -0.9059 -0.1810
  773MOL0     C 6569  -0.248   9.513   0.517  0.0671  0.0086  0.2272
  773MOL0     C 6570  -0.196   9.467   0.393 -0.1655  0.3999  0.4889
  773MOL0     C 6571  -0.232   9.341   0.353 -0.9113  0.1479 -0.5732
  773MOL0     O 6572  -0.167   9.288   0.241  0.5519 -0.8489  0.5228
  773MOL0     C 6573  -0.168   9.150   0.199 -0.1384 -0.2040  0.1183
  773MOL0     C 6574  -0.286   9.107   0.108  0.1864 -0.1423 -1.0511
  773MOL0     C 6575  -0.260   8.961   0.067 -0.0003  0.9002  1.0416
  773MOL0     C 6576  -0.394   8.899   0.025  0.5131  0.5762 -0.9788
  773MOL0     C 6577  -0.431   8.788   0.133 -0.1747  0.2013 -0.1133
  773MOL0     C 6578  -0.575   8.747   0.148 -0.6480  0.2780 -0.6268
  773MOL0     C 6579  -0.635   8.698   0.012 -0.0937  0.6288 -1.0282
  773MOL0     C 6580  -0.777   8.653   0.022 -0.5201 -0.2574  0.4452
  773MOL0    Cl 6581  -0.848   8.634  -0.136 -0.3807 -0.2029 -0.3459
  773MOL0     C 6582  -0.326   9.269   0.420 -0.8555  0.1129  0.2367
  773MOL0     C 6583  -0.389   9.314   0.535 -0.4275  0.7281  0.7714
  773MOL0     O 6584  -0.573   9.385   0.757  0.1248  0.9892 -0.5543
  773MOL0     C 6585  -0.595   9.534   0.989 -0.1197 -1.5758 -0.1465
  773MOL0     C 6586  -0.612   9.588   1.114 -0.6555 -0.2254 -0.1776
  773MOL0     N 6587  -0.298  10.169   1.600 -0.1235  0.1242  0.1307
  773MOL0     N 6588  -0.189  10.152   1.661 -0.0298  0.7069 -0.1534
  773MOL0     C 6589   0.473  10.219   2.115 -0.3127  0.0749 -0.1086
  773MOL0     C 6590   0.574  10.251   2.026  0.6459  0.7723 -0.4418
  773MOL0     C 6591   0.983  10.196   1.843  0.3138  0.1724  1.0048
  773MOL0     C 6592   0.976  10.233   1.701 -0.3857  0.9678 -0.4309
  773MOL0     C 6593   1.091  10.275   1.639  0.0413 -0.3021  0.4959
  773MOL0     C 6594   1.215  10.262   1.704 -0.3928 -0.4733 -0.2675
  773MOL0     O 6595   1.336  10.287   1.653  0.5222 -0.0337 -0.4361
  773MOL0     C 6596   1.353  10.261   1.513  0.3201 -0.6751  0.0779
  773MOL0     C 6597   1.498  10.291   1.467 -0.0143  0.0288 -0.7518
  773MOL0     C 6598   1.535  10.435   1.493  0.4290 -0.4283 -0.2070
  773MOL0     C 6599   1.678  10.452   1.550  0.7404 -1.0638 -0.6670
  773MOL0     C 6600   1.781  10.423   1.453 -0.0720  0.8872  0.2657
  773MOL0     C 6601   1.872  10.419   1.369  0.1723  0.3333 -0.5136
  773MOL0     C 6602   1.220  10.227   1.836 -0.4373  1.3956 -0.9714
  773MOL0     C 6603   1.111  10.197   1.909  0.7931  0.4968  0.7624
  773MOL0     C 6604   1.137  10.169   2.051  0.6834  1.4860  0.6586
  773MOL0     H 6605   0.849  10.196   2.224  0.5843  2.0216  0.4740
  773MOL0     H 6606   0.672  10.123   2.378 -2.3408 -1.7745 -0.2036
  773MOL0     H 6607   0.393  10.341   2.384  0.6603 -1.4740  0.1455
  773MOL0     H 6608   0.327  10.220   2.486  0.0053 -2.6570 -0.0748
  773MOL0     H 6609   0.165  10.366   2.371 -1.1829 -0.9843  1.9600
  773MOL0     H 6610   0.196  10.296   2.220 -0.2378 -1.2435  0.2648
  773MOL0     H 6611   0.137  10.067   2.318  0.4528  0.1735  0.8227
  773MOL0     H 6612   0.133  10.150   2.476 -0.6937 -1.8882 -0.6816
  773MOL0     H 6613  -0.107  10.107   2.377  0.8069 -0.3613 -0.1347
  773MOL0     H 6614  -0.073  10.286   2.389 -4.4900 -0.3914 -1.2642
  773MOL0     H 6615  -0.044  10.307   2.156 -1.2960  1.0811  3.3494
  773MOL0     H 6616  -0.204  10.233   2.194 -1.2922  1.2791 -3.1959
  773MOL0     H 6617   0.035  10.064   2.125  0.8159  3.0628  0.1100
  773MOL0     H 6618  -0.138  10.009   2.146  1.2430 -0.6928  0.1292
  773MOL0     H 6619  -0.052  10.224   1.937 -1.0611  1.0715  1.4847
  773MOL0     H 6620  -0.205  10.164   1.966  0.8376  1.2567 -3.3939
  773MOL0     H 6621   0.003  10.015   1.830  0.2553 -3.2643  1.6888
  773MOL0     H 6622  -0.142   9.934   1.920 -0.5194  0.0967 -0.5534
  773MOL0     H 6623  -0.368   9.928   1.831  1.7142  0.3170  1.5629
  773MOL0     H 6624  -0.578  10.117   1.550 -0.9877 -0.5671  1.1895
  773MOL0     H 6625  -0.594  10.021   1.699 -0.1654  2.1900  0.2191
  773MOL0     H 6626  -0.428   9.878   1.504  0.6409  1.2217  1.8460
  773MOL0     H 6627  -0.575   9.822   1.563  1.9764 -0.7687 -1.6080
  773MOL0     H 6628  -0.697  10.000   1.407 -1.5212 -0.4677  0.6824
  773MOL0     H 6629  -0.533  10.015   1.336 -1.8999  0.6184  0.0575
  773MOL0     H 6630  -0.711   9.765   1.321 -1.9062  1.0113 -2.6412
  773MOL0     H 6631  -0.656   9.869   1.197 -1.1437  0.2807  0.4446
  773MOL0     H 6632  -0.300   9.722   1.132  1.7297  2.2516 -4.8222
  773MOL0     H 6633  -0.148   9.660   0.972  1.7522  0.8988 -2.4890
  773MOL0     H 6634  -0.236   9.675   0.824 -0.5039 -0.9617 -0.6808
  773MOL0     H 6635  -0.184   9.513   0.883 -0.3649 -0.6944  1.6198
  773MOL0     H 6636  -0.232   9.610   0.564  0.0704 -1.1991  2.9045
  773MOL0     H 6637  -0.133   9.520   0.322  2.9130 -0.7976  2.1325
  773MOL0     H 6638  -0.080   9.130   0.137 -1.5856 -0.2239 -2.0300
  773MOL0     H 6639  -0.171   9.079   0.283 -0.7415 -1.0677 -0.6221
  773MOL0     H 6640  -0.377   9.104   0.169  1.8153 -1.6281  1.4864
  773MOL0     H 6641  -0.307   9.168   0.020  2.2252  0.1126 -1.3995
  773MOL0     H 6642  -0.208   8.899   0.140 -1.0902 -0.9357  0.3172
  773MOL0     H 6643  -0.205   8.965  -0.027 -0.3676 -3.8378  0.4147
  773MOL0     H 6644  -0.379   8.862  -0.077  0.5630  1.0099 -1.1313
  773MOL0     H 6645  -0.477   8.971   0.022 -0.6185 -0.6693 -0.3553
  773MOL0     H 6646  -0.364   8.705   0.110  0.0545  0.1780  0.6084
  773MOL0     H 6647  -0.394   8.809   0.234  0.9213  0.7586 -0.6171
  773MOL0     H 6648  -0.633   8.830   0.188  0.2322 -0.0247  1.4001
  773MOL0     H 6649  -0.593   8.665   0.218 -1.0110 -1.1605 -2.3272
  773MOL0     H 6650  -0.591   8.607  -0.031  1.7482  1.7113 -1.5701
  773MOL0     H 6651  -0.628   8.786  -0.052 -0.1671  0.7908 -0.8127
  773MOL0     H 6652  -0.827   8.732   0.079 -0.7873 -0.8216  1.0052
  773MOL0     H 6653  -0.789   8.557   0.073  2.6460 -0.3156  1.2967
  773MOL0     H 6654  -0.354   9.168   0.391  3.9505 -1.3573 -0.1210
  773MOL0     H 6655  -0.467   9.258   0.584 -0.9981  0.4310 -0.4401
  773MOL0     H 6656  -0.682   9.487   0.943 -1.1916 -0.7848  0.9906
  773MOL0     H 6657  -0.702   9.582   1.175 -1.4901 -3.2627 -1.5385
  773MOL0     H 6658   0.368  10.212   2.088 -0.4184  0.2476  0.2480
  773MOL0     H 6659   0.545  10.277   1.925 -1.5590  0.2275 -0.0111
  773MOL0     H 6660   0.882  10.225   1.648 -0.5576  1.1173 -0.1551
  773MOL0     H 6661   1.088  10.293   1.532 -1.7584  2.0978  0.8865
  773MOL0     H 6662   1.327  10.156   1.494  3.9108 -1.5051 -0.9248
  773MOL0     H 6663   1.295  10.327   1.448  2.1269 -0.6356 -1.5851
  773MOL0     H 6664   1.519  10.265   1.363 -0.2674 -0.4974 -0.6767
  773MOL0     H 6665   1.560  10.232   1.535  1.8070  2.5409 -0.0772
  773MOL0     H 6666   1.519  10.492   1.401 -0.2196  1.6075  1.1125
  773MOL0     H 6667   1.462  10.479   1.561  0.8920  0.1681 -0.0892
  773MOL0     H 6668   1.687  10.380   1.632  1.2611  0.9110  1.0835
  773MOL0     H 6669   1.689  10.551   1.594 -0.7010 -0.6505 -1.1741
  773MOL0     H 6670   1.958  10.411   1.307  0.0824  1.2727 -0.7772
  773MOL0     H 6671   1.318  10.228   1.882 -1.2977 -1.2170  1.1768
  773MOL0     H 6672   1.245  10.163   2.062  0.7717 -0.6741 -0.7311
  773MOL0     H 6673   1.081  10.232   2.120 -1.2479  0.5003  0.0755
  773MOL0     H 6674   1.100  10.070   2.082  1.5918  0.2163 -2.0283
  774MOL0     O 6675   1.231   4.041   5.865 -0.2689  0.0859 -0.7606
  774MOL0     C 6676   1.321   4.073   5.938 -0.7358 -0.7320 -0.3999
  774MOL0     O 6677   1.306   4.122   6.063 -0.6869 -0.1330 -1.2277
  774MOL0     C 6678   1.195   4.111   6.144 -0.0261  0.1593  0.2018
  774MOL0     C 6679   1.188   4.208   6.242 -0.1469 -0.0676 -0.5893
  774MOL0     C 6680   1.066   4.222   6.312 -0.8352 -0.0375 -0.4381
  774MOL0     C 6681   0.966   4.129   6.294 -0.0308 -0.2341 -0.6033
  774MOL0     O 6682   0.852   4.145   6.371 -0.6475  0.3209  0.0437
  774MOL0     C 6683   0.723   4.100   6.322 -0.9457 -0.2969 -0.1724
  774MOL0     C 6684   0.621   4.121   6.431 -0.6725 -0.9740 -0.2470
  774MOL0     C 6685   0.600   4.020   6.542  0.0425  0.5887 -0.3937
  774MOL0     C 6686   0.482   4.046   6.630  0.0222  1.3910 -0.3127
  774MOL0     C 6687   0.469   3.927   6.724 -1.2465  0.3470  0.2525
  774MOL0     C 6688   0.337   3.930   6.806 -0.2276  0.3617 -1.0127
  774MOL0     C 6689   0.345   3.823   6.918 -0.4013 -0.8215 -0.4654
  774MOL0     C 6690   0.415   3.893   7.042  0.0677  0.6286 -0.9891
  774MOL0     N 6691   0.450   3.783   7.142 -0.1674 -0.1268 -0.0060
  774MOL0     C 6692   0.386   3.771   7.257 -0.0466 -0.3090 -0.5575
  774MOL0     C 6693   0.437   3.652   7.307  0.7184  0.2129  0.4303
  774MOL0     C 6694   0.400   3.590   7.438  0.1042 -0.7820 -0.7232
  774MOL0     C 6695   0.428   3.685   7.562 -0.8533  0.1391 -0.0134
  774MOL0     C 6696   0.395   3.626   7.696  0.3759  0.4260  0.5106
  774MOL0     C 6697   0.246   3.612   7.699 -0.3370 -0.0440  0.1408
  774MOL0     O 6698   0.199   3.573   7.835 -0.7090 -0.1902 -0.0170
  774MOL0     C 6699   0.087   3.648   7.864  0.5236 -0.7757 -0.3226
  774MOL0     C 6700   0.109   3.792   7.870 -0.6546  0.3489 -0.5754
  774MOL0     C 6701   0.001   3.882   7.856  0.8265  0.3115  0.0495
  774MOL0     C 6702   0.027   4.029   7.843 -0.2425  0.2242  0.0106
  774MOL0     C 6703  -0.124   3.822   7.824 -0.1547 -0.1012 -0.8127
  774MOL0     C 6704  -0.241   3.914   7.803  1.1356  0.9890 -0.3215
  774MOL0     O 6705  -0.251   4.026   7.875  0.3021 -0.6137  0.1446
  774MOL0     C 6706  -0.351   4.105   7.822  0.3725 -0.3977  0.6885
  774MOL0     C 6707  -0.490   4.075   7.805 -1.0829 -1.0729  1.0469
  774MOL0     C 6708  -0.575   4.168   7.757  0.2700 -0.8700 -0.0789
  774MOL0     C 6709  -0.536   4.292   7.715 -0.5753 -0.1642  0.5374
  774MOL0     O 6710  -0.615   4.390   7.675  0.1885  0.8781 -0.2577
  774MOL0     C 6711  -0.740   4.364   7.598  0.1665 -0.0612  0.0135
  774MOL0     C 6712  -0.754   4.490   7.525  0.5012 -0.6242  0.2017
  774MOL0     C 6713  -0.637   4.507   7.423 -0.5373  0.1961  0.2016
  774MOL0     C 6714  -0.566   4.648   7.439 -0.0076 -0.6996 -0.6109
  774MOL0     C 6715  -0.417   4.647   7.387  0.0093 -1.2029  0.1752
  774MOL0     C 6716  -0.391   4.567   7.264  0.3834 -0.6949  0.8157
  774MOL0     C 6717  -0.247   4.572   7.202  0.9643 -0.8430  0.1827
  774MOL0     C 6718  -0.133   4.548   7.297 -0.1552  0.4760  0.8989
  774MOL0    Cl 6719  -0.128   4.383   7.357 -0.1736 -0.0051  0.4944
  774MOL0     C 6720  -0.398   4.318   7.732 -1.0395 -0.3337 -0.2917
  774MOL0     C 6721  -0.308   4.232   7.790  0.1859 -0.4626  0.0334
  774MOL0     O 6722  -0.318   3.873   7.709  0.0242 -0.0221 -0.3383
  774MOL0     C 6723  -0.144   3.683   7.812  0.3480 -0.2068 -0.3919
  774MOL0     C 6724  -0.039   3.599   7.842 -0.1135  1.0677  0.1581
  774MOL0     N 6725   0.537   3.610   7.227  0.5153 -0.1332  1.2036
  774MOL0     N 6726   0.538   3.692   7.120  0.0576  0.2541  0.0845
  774MOL0     C 6727   0.975   4.028   6.196 -0.2120  0.4037 -0.3064
  774MOL0     C 6728   1.101   4.012   6.128 -0.6177 -0.6192  0.0232
  774MOL0     C 6729   1.462   4.055   5.891  0.0681 -0.2774  0.6246
  774MOL0     C 6730   1.478   3.951   5.796 -0.3446 -0.9941  1.1619
  774MOL0     C 6731   1.601   3.913   5.743 -0.1378  0.0423 -0.3002
  774MOL0     C 6732   1.713   3.995   5.789  0.3311  0.7644  0.4697
  774MOL0     O 6733   1.836   3.974   5.737 -0.3642 -0.4144 -0.2547
  774MOL0     C 6734   1.908   3.861   5.795 -0.1684 -0.4050  0.9987
  774MOL0     C 6735   1.975   3.782   5.680 -0.0072  0.2552  0.9274
  774MOL0     C 6736   1.878   3.738   5.567 -0.6458 -0.1935  0.8784
  774MOL0     C 6737   1.954   3.653   5.465 -0.3290  0.2029  0.0552
  774MOL0     C 6738   1.958   3.728   5.341  0.6283  0.5575  0.4586
  774MOL0     C 6739   1.952   3.790   5.237  0.0687 -0.1799 -0.2354
  774MOL0     C 6740   1.694   4.101   5.877 -1.3874  0.5831 -0.1893
  774MOL0     C 6741   1.578   4.137   5.933  0.2844  0.0804 -0.0555
  774MOL0     C 6742   1.576   4.247   6.032 -0.0232  0.9559  0.4445
  774MOL0     H 6743   1.276   4.272   6.237 -0.2146 -0.0645 -2.3866
  774MOL0     H 6744   1.049   4.298   6.387  0.4860  0.7651 -0.9229
  774MOL0     H 6745   0.724   3.993   6.300  1.4601 -0.4423  0.3405
  774MOL0     H 6746   0.699   4.141   6.224 -2.1501 -2.8426 -1.0440
  774MOL0     H 6747   0.638   4.223   6.465 -1.4574 -0.4781 -1.2731
  774MOL0     H 6748   0.533   4.139   6.369  0.5781  2.7819 -1.2218
  774MOL0     H 6749   0.587   3.928   6.484  0.4953  2.1298 -3.1287
  774MOL0     H 6750   0.692   4.020   6.602 -0.9960 -0.5587  1.2900
  774MOL0     H 6751   0.497   4.127   6.703  0.2320 -1.4406  3.0522
  774MOL0     H 6752   0.387   4.059   6.577 -0.1338 -0.1160 -0.4420
  774MOL0     H 6753   0.557   3.924   6.788 -0.4614  3.1263 -0.5672
  774MOL0     H 6754   0.466   3.837   6.662  0.7035 -2.1094  3.4235
  774MOL0     H 6755   0.316   4.024   6.858 -1.9302  0.8125 -2.4139
  774MOL0     H 6756   0.249   3.910   6.745 -0.0469  0.2730 -1.2440
  774MOL0     H 6757   0.403   3.739   6.877  2.8393 -0.0462  2.1071
  774MOL0     H 6758   0.243   3.793   6.943 -0.4305 -0.3631 -0.0226
  774MOL0     H 6759   0.512   3.931   7.010  0.9959 -1.9118 -1.4073
  774MOL0     H 6760   0.351   3.973   7.082  3.9052  4.0383 -0.9459
  774MOL0     H 6761   0.316   3.838   7.307 -1.5958 -1.3962 -1.2222
  774MOL0     H 6762   0.461   3.501   7.457 -0.8888 -1.4876 -0.8050
  774MOL0     H 6763   0.296   3.556   7.435 -0.6386  1.0235  1.6456
  774MOL0     H 6764   0.535   3.712   7.558 -0.9538  0.6928  0.7697
  774MOL0     H 6765   0.379   3.782   7.552  1.1314  1.3923  1.4904
  774MOL0     H 6766   0.442   3.528   7.709  0.6771  0.5572  0.4247
  774MOL0     H 6767   0.422   3.692   7.779  2.0042  1.4882 -0.7986
  774MOL0     H 6768   0.204   3.705   7.659 -1.5836 -0.2830  0.8147
  774MOL0     H 6769   0.209   3.541   7.625 -1.4041  0.9039 -0.2746
  774MOL0     H 6770   0.208   3.836   7.881 -0.6314 -0.0296  0.7951
  774MOL0     H 6771   0.022   4.081   7.940  5.2663  3.6424 -1.0739
  774MOL0     H 6772  -0.055   4.076   7.788 -1.8071 -2.5530 -0.2375
  774MOL0     H 6773   0.121   4.058   7.795  0.2348  1.9504  1.8512
  774MOL0     H 6774  -0.529   3.976   7.826  3.1112 -3.0107  0.7018
  774MOL0     H 6775  -0.681   4.146   7.755  0.1372 -0.3200  0.5747
  774MOL0     H 6776  -0.723   4.284   7.526 -0.2470 -0.5529  0.4595
  774MOL0     H 6777  -0.829   4.334   7.654  0.0156 -3.0072 -1.6060
  774MOL0     H 6778  -0.855   4.504   7.487  0.1868  1.1488  1.5534
  774MOL0     H 6779  -0.760   4.567   7.602 -1.3821  0.0227 -0.5374
  774MOL0     H 6780  -0.671   4.510   7.319  2.2100  2.1122 -0.7500
  774MOL0     H 6781  -0.574   4.419   7.439 -1.3834 -0.0750  2.3939
  774MOL0     H 6782  -0.563   4.690   7.540 -0.8528 -1.5834 -0.1915
  774MOL0     H 6783  -0.632   4.724   7.396 -3.3661 -0.7009  3.8584
  774MOL0     H 6784  -0.384   4.747   7.360  0.8184 -2.2172 -3.1093
  774MOL0     H 6785  -0.356   4.609   7.469 -2.2451  0.3147  2.7152
  774MOL0     H 6786  -0.459   4.595   7.184  0.0033 -1.8660  0.7033
  774MOL0     H 6787  -0.411   4.462   7.290  0.0782 -0.9648 -0.4448
  774MOL0     H 6788  -0.242   4.672   7.156 -1.9406 -0.6106  0.1519
  774MOL0     H 6789  -0.243   4.513   7.110  1.5802  2.1778 -1.8893
  774MOL0     H 6790  -0.141   4.622   7.377 -0.2500 -2.2004  3.5373
  774MOL0     H 6791  -0.037   4.562   7.246 -0.1964  0.8804  0.9299
  774MOL0     H 6792  -0.361   4.407   7.683  2.9781 -1.3515  0.5831
  774MOL0     H 6793  -0.209   4.274   7.798  0.5691  0.3585 -5.4263
  774MOL0     H 6794  -0.247   3.660   7.790 -1.1608  4.2499  1.0076
  774MOL0     H 6795  -0.048   3.491   7.844  1.8356  0.8200 -1.6056
  774MOL0     H 6796   0.888   3.966   6.178  0.5669 -0.6651 -0.4976
  774MOL0     H 6797   1.113   3.928   6.059 -2.0180 -1.4234  0.7148
  774MOL0     H 6798   1.393   3.890   5.767 -1.4094  0.2849  1.4971
  774MOL0     H 6799   1.613   3.824   5.683  0.3038  0.5481 -0.9846
  774MOL0     H 6800   1.975   3.909   5.866 -3.3302  2.2704  2.4149
  774MOL0     H 6801   1.834   3.793   5.838 -1.3530 -0.5810 -1.1686
  774MOL0     H 6802   2.009   3.688   5.725 -0.2966 -0.1892  0.2392
  774MOL0     H 6803   2.057   3.839   5.637 -1.1297  0.5076 -1.0428
  774MOL0     H 6804   1.805   3.668   5.607  0.1882  0.0942  3.0293
  774MOL0     H 6805   1.814   3.813   5.520  1.7232 -0.9330 -4.2403
  774MOL0     H 6806   1.900   3.559   5.448 -3.1416  1.2352  2.4782
  774MOL0     H 6807   2.057   3.632   5.497 -1.1557 -1.0965  2.0398
  774MOL0     H 6808   1.937   3.848   5.148 -0.9386 -2.5619 -1.7282
  774MOL0     H 6809   1.783   4.163   5.881  0.5699 -2.0069 -0.3158
  774MOL0     H 6810   1.666   4.308   6.016 -0.8274  2.5115  1.6044
  774MOL0     H 6811   1.498   4.320   6.005  0.7908  0.4191 -4.2190
  774MOL0     H 6812   1.579   4.208   6.134  2.4917 -3.4235 -1.0672
  775MOL0     O 6813  10.733   5.635  10.813 -0.4287 -0.0140  0.0463
  775MOL0     C 6814  10.700   5.751  10.825  0.5461  0.5318 -0.1658
  775MOL0     O 6815  10.785   5.850  10.826 -0.7428  0.8335  0.2872
  775MOL0     C 6816  10.919   5.828  10.805 -0.4119 -0.7132  0.2149
  775MOL0     C 6817  10.962   5.841  10.673 -0.5129  0.4931 -1.5026
  775MOL0     C 6818  11.098   5.817  10.633  0.1864 -0.3649 -0.3255
  775MOL0     C 6819  11.190   5.769  10.727  0.1157 -0.0862 -0.4931
  775MOL0     O 6820  11.311   5.738  10.682 -0.1934 -0.3213  0.8834
  775MOL0     C 6821  11.428   5.743  10.765  0.4935  0.1899 -0.4045
  775MOL0     C 6822  11.457   5.883  10.832 -0.6420  0.6580  0.8664
  775MOL0     C 6823  11.609   5.891  10.856 -0.2719 -0.2814  0.4195
  775MOL0     C 6824  11.668   6.015  10.907  0.8279  0.6034 -0.0839
  775MOL0     C 6825  11.810   5.997  10.891  0.9032  0.1747 -0.1036
  775MOL0     C 6826  11.895   6.114  10.947  0.8853 -0.0179  0.6514
  775MOL0     C 6827  11.874   6.246  10.876  0.5365  0.0891 -0.3567
  775MOL0     C 6828  11.983   6.340  10.927 -0.3481 -0.6194 -0.4038
  775MOL0     N 6829  11.939   6.477  10.918 -1.2234  0.3645 -0.7479
  775MOL0     C 6830  11.880   6.546  10.814  0.0473 -0.4851  0.2151
  775MOL0     C 6831  11.874   6.674  10.853 -1.3549 -0.3645  0.3705
  775MOL0     C 6832  11.799   6.771  10.762 -0.1312  0.0764 -0.9318
  775MOL0     C 6833  11.799   6.913  10.820  0.8968  0.0061 -0.0410
  775MOL0     C 6834  11.734   7.022  10.736 -0.7740  0.0476 -1.2278
  775MOL0     C 6835  11.748   7.164  10.814 -0.4185 -0.5943  0.2705
  775MOL0     O 6836  11.666   7.260  10.748 -0.2294  0.4019 -0.5196
  775MOL0     C 6837  11.601   7.365  10.807  0.8894  0.7864 -0.2609
  775MOL0     C 6838  11.643   7.411  10.934  0.1419  0.2961  0.1145
  775MOL0     C 6839  11.562   7.516  11.000 -0.0280 -0.8115 -0.0567
  775MOL0     C 6840  11.597   7.556  11.138  0.5277 -0.9584 -0.2443
  775MOL0     C 6841  11.455   7.574  10.928 -0.1888 -0.1472 -0.5357
  775MOL0     C 6842  11.356   7.671  10.985  0.5052 -0.2911  0.1142
  775MOL0     O 6843  11.371   7.716  11.117  0.8987 -0.0061  0.2072
  775MOL0     C 6844  11.277   7.805  11.158 -0.5179 -1.1835  0.2580
  775MOL0     C 6845  11.271   7.930  11.095 -0.6171  0.6174 -0.4427
  775MOL0     C 6846  11.189   8.028  11.137 -0.8793 -0.5264 -0.2622
  775MOL0     C 6847  11.103   8.006  11.252 -0.0829 -0.1994 -0.2186
  775MOL0     O 6848  11.026   8.102  11.316  0.3858 -0.0046 -0.4654
  775MOL0     C 6849  11.006   8.239  11.275 -0.7710  0.4225 -0.1147
  775MOL0     C 6850  10.890   8.299  11.362 -0.4877 -0.4253 -0.0909
  775MOL0     C 6851  10.748   8.255  11.303  0.1741  0.7113  0.5778
  775MOL0     C 6852  10.623   8.291  11.390  0.6916 -0.4221 -0.1944
  775MOL0     C 6853  10.584   8.204  11.509  0.7228  0.3422  0.4577
  775MOL0     C 6854  10.478   8.287  11.590 -0.7472  0.0418 -0.1095
  775MOL0     C 6855  10.394   8.189  11.672  0.2699  0.3487 -0.9144
  775MOL0     C 6856  10.267   8.254  11.725  0.2187 -0.1750 -0.0712
  775MOL0    Cl 6857  10.149   8.261  11.592 -0.5785  0.2246 -0.7099
  775MOL0     C 6858  11.104   7.882  11.313  0.2679  0.1392  0.8249
  775MOL0     C 6859  11.187   7.782  11.266 -0.0086 -0.0134  0.7495
  775MOL0     O 6860  11.250   7.695  10.915 -0.0206  0.2800  0.0604
  775MOL0     C 6861  11.427   7.533  10.792  0.3959 -0.0889  0.4278
  775MOL0     C 6862  11.495   7.425  10.735 -0.2445  0.0335  0.7579
  775MOL0     N 6863  11.948   6.686  10.975 -0.4339 -0.9878  0.0113
  775MOL0     N 6864  11.988   6.571  11.012 -0.1319  0.1653 -1.0815
  775MOL0     C 6865  11.140   5.746  10.865 -0.8970  0.6850 -0.5082
  775MOL0     C 6866  11.013   5.781  10.899 -0.0093 -1.1997 -0.2963
  775MOL0     C 6867  10.553   5.779  10.828  0.2199 -0.4287 -0.5627
  775MOL0     C 6868  10.513   5.914  10.850  1.0615 -0.4505 -0.6646
  775MOL0     C 6869  10.383   5.953  10.852  0.0394  0.0846  0.0877
  775MOL0     C 6870  10.286   5.864  10.823  0.4053  0.4798 -0.6452
  775MOL0     O 6871  10.148   5.886  10.829 -0.1393  0.3698  0.8508
  775MOL0     C 6872  10.116   6.023  10.834  1.0048 -0.6546  0.0001
  775MOL0     C 6873   9.970   6.032  10.786  0.6996 -0.7044  0.3107
  775MOL0     C 6874   9.944   6.171  10.747  0.1733 -0.2584  0.5244
  775MOL0     C 6875   9.865   6.238  10.862  0.5044  0.6611 -1.2820
  775MOL0     C 6876   9.830   6.375  10.827  0.0531  0.7352 -0.0627
  775MOL0     C 6877   9.811   6.492  10.791 -0.7572  1.0148 -0.8254
  775MOL0     C 6878  10.324   5.740  10.803 -0.2361 -0.1649  0.5859
  775MOL0     C 6879  10.448   5.690  10.799  0.4228  0.2908  1.0596
  775MOL0     C 6880  10.465   5.549  10.766 -0.6312  0.8048 -0.6898
  775MOL0     H 6881  10.890   5.882  10.603 -1.7871  2.7323  0.9609
  775MOL0     H 6882  11.146   5.839  10.538  2.3791  1.8907  1.1794
  775MOL0     H 6883  11.511   5.721  10.697  0.2113 -1.3185 -0.3005
  775MOL0     H 6884  11.428   5.660  10.836 -2.4574  0.3349 -0.0901
  775MOL0     H 6885  11.410   5.965  10.776  1.1442  0.4560 -1.0534
  775MOL0     H 6886  11.415   5.879  10.933 -1.1047 -0.8189  0.6345
  775MOL0     H 6887  11.645   5.810  10.918  2.2267  1.4958  1.4380
  775MOL0     H 6888  11.658   5.856  10.765  0.8244 -2.8571  1.8867
  775MOL0     H 6889  11.637   6.111  10.863  1.9811  1.3050  0.5652
  775MOL0     H 6890  11.654   6.019  11.016  2.1544 -4.0774  0.4514
  775MOL0     H 6891  11.839   5.979  10.787  1.0562 -2.9358  0.3900
  775MOL0     H 6892  11.849   5.912  10.947  0.0849 -2.4372 -3.2458
  775MOL0     H 6893  11.861   6.121  11.051  0.4336 -0.3388  0.5330
  775MOL0     H 6894  12.001   6.091  10.953  0.4589 -3.9659 -2.3218
  775MOL0     H 6895  11.775   6.289  10.895  2.3525  3.4676  2.4961
  775MOL0     H 6896  11.874   6.223  10.769  3.6693  1.0154 -0.6457
  775MOL0     H 6897  12.016   6.315  11.028 -0.0303  1.8678  0.1585
  775MOL0     H 6898  12.075   6.325  10.868  1.5330 -0.3731  2.2951
  775MOL0     H 6899  11.841   6.513  10.718 -3.9159  3.6917  0.0724
  775MOL0     H 6900  11.700   6.735  10.734 -0.9837  1.0780  0.6782
  775MOL0     H 6901  11.858   6.796  10.673  0.4699  0.2325 -0.4987
  775MOL0     H 6902  11.743   6.896  10.912 -2.3005 -1.7589 -2.1078
  775MOL0     H 6903  11.904   6.933  10.845  0.8999 -0.9483  0.7467
  775MOL0     H 6904  11.781   7.030  10.638  1.3847  0.1807 -0.2567
  775MOL0     H 6905  11.626   7.008  10.722 -1.4474  1.8544  1.4302
  775MOL0     H 6906  11.716   7.155  10.918 -3.7292 -1.2030 -0.6742
  775MOL0     H 6907  11.850   7.202  10.811 -1.1940  1.7754  1.1304
  775MOL0     H 6908  11.725   7.362  10.985  2.1191  1.8212 -1.4209
  775MOL0     H 6909  11.515   7.514  11.199  0.0079  0.3224 -0.0259
  775MOL0     H 6910  11.617   7.661  11.159 -0.2340 -0.5016 -1.7158
  775MOL0     H 6911  11.688   7.498  11.158 -0.4955 -3.0402 -1.2040
  775MOL0     H 6912  11.323   7.938  11.000 -0.4258 -1.4130 -0.5726
  775MOL0     H 6913  11.204   8.122  11.084  1.4256 -0.6611  0.0200
  775MOL0     H 6914  11.094   8.299  11.295 -2.2086  2.3456  0.7632
  775MOL0     H 6915  10.973   8.249  11.171 -0.4709 -0.9822 -0.3758
  775MOL0     H 6916  10.917   8.263  11.462  0.6972 -3.8860 -1.4826
  775MOL0     H 6917  10.903   8.407  11.356 -2.8311 -0.1692 -2.1988
  775MOL0     H 6918  10.765   8.148  11.291 -0.2351  0.8891 -2.1236
  775MOL0     H 6919  10.723   8.293  11.204 -0.4884 -2.0799 -0.4235
  775MOL0     H 6920  10.537   8.285  11.323  0.7952  1.2294 -0.5032
  775MOL0     H 6921  10.629   8.392  11.431 -1.2532 -1.0357  1.8126
  775MOL0     H 6922  10.556   8.104  11.476  1.0883  0.5256 -0.4262
  775MOL0     H 6923  10.677   8.201  11.567  2.3567 -1.3457 -2.0165
  775MOL0     H 6924  10.404   8.339  11.527 -1.4546 -1.8292 -0.8947
  775MOL0     H 6925  10.539   8.354  11.651 -2.1176  1.4184 -0.1757
  775MOL0     H 6926  10.447   8.160  11.763 -1.7026  2.7108  1.1099
  775MOL0     H 6927  10.356   8.099  11.623 -1.6417  0.3985  0.3857
  775MOL0     H 6928  10.294   8.351  11.766 -2.1686 -0.1899  1.7141
  775MOL0     H 6929  10.222   8.193  11.803 -1.4482  2.5918  1.2724
  775MOL0     H 6930  11.038   7.849  11.392  1.2943 -0.7610  1.3359
  775MOL0     H 6931  11.169   7.685  11.312 -3.8624  0.6198  0.9843
  775MOL0     H 6932  11.338   7.570  10.741  1.0202  1.5947  0.5342
  775MOL0     H 6933  11.456   7.383  10.643 -3.1095  0.3810  1.7330
  775MOL0     H 6934  11.198   5.702  10.946  0.4297 -0.9055 -2.2598
  775MOL0     H 6935  10.972   5.756  10.996 -2.6013 -0.1971 -1.0379
  775MOL0     H 6936  10.590   5.987  10.874 -1.0816  1.9380 -0.6368
  775MOL0     H 6937  10.365   6.055  10.885 -1.3025  0.8453 -2.6834
  775MOL0     H 6938  10.122   6.061  10.937  2.2402  1.3964 -0.7608
  775MOL0     H 6939  10.182   6.077  10.765  0.0276 -0.6982 -0.9977
  775MOL0     H 6940   9.897   5.993  10.857 -2.0503  1.3499 -1.1820
  775MOL0     H 6941   9.969   5.975  10.692  2.8330  2.3176 -1.7377
  775MOL0     H 6942  10.040   6.221  10.733  0.0152 -0.2604 -0.7322
  775MOL0     H 6943   9.890   6.183  10.652 -0.7027 -1.9396  0.7678
  775MOL0     H 6944   9.926   6.219  10.951  3.1089 -1.6238 -3.3729
  775MOL0     H 6945   9.775   6.178  10.879 -0.2194  1.8531 -0.7728
  775MOL0     H 6946   9.811   6.593  10.754  0.3860  0.5664 -2.1532
  775MOL0     H 6947  10.245   5.667  10.791  1.2837 -1.8403  0.3383
  775MOL0     H 6948  10.368   5.498  10.765 -0.5256  0.5868 -0.2164
  775MOL0     H 6949  10.514   5.528  10.671 -0.1793 -3.4333  0.2580
  775MOL0     H 6950  10.527   5.506  10.845  3.7393  1.5868 -3.3903
  776MOL0     O 6951   5.681   6.990   0.325 -0.1941  0.0986  0.6454
  776MOL0     C 6952   5.644   6.980   0.444 -0.9080 -0.1343  0.6884
  776MOL0     O 6953   5.642   7.083   0.539 -0.6245 -0.0860  0.4776
  776MOL0     C 6954   5.678   7.210   0.501  0.8577  0.5258  0.5829
  776MOL0     C 6955   5.593   7.276   0.415 -0.1138 -0.5313  0.2789
  776MOL0     C 6956   5.604   7.411   0.404  0.0716 -0.1957  0.0742
  776MOL0     C 6957   5.705   7.477   0.464  0.6094 -0.1964  0.1442
  776MOL0     O 6958   5.721   7.608   0.424 -0.1220  0.0785  0.5961
  776MOL0     C 6959   5.837   7.678   0.440 -0.4865  1.0701  0.3006
  776MOL0     C 6960   5.836   7.771   0.564  1.0728 -0.2379  0.1281
  776MOL0     C 6961   5.974   7.849   0.560  0.2514 -0.4962  0.2081
  776MOL0     C 6962   5.998   7.920   0.696 -0.5124  0.6311 -0.3640
  776MOL0     C 6963   6.110   8.027   0.689  0.8874 -0.2332 -0.7617
  776MOL0     C 6964   6.113   8.117   0.816 -0.4440  0.1647  0.1138
  776MOL0     C 6965   6.199   8.073   0.937  0.6700 -0.9448 -1.5816
  776MOL0     C 6966   6.163   7.932   0.992  0.6083  0.5392  0.9631
  776MOL0     N 6967   6.249   7.873   1.097 -0.3798 -1.0023 -0.3786
  776MOL0     C 6968   6.377   7.814   1.079  0.0537 -0.2142 -0.1233
  776MOL0     C 6969   6.437   7.799   1.197 -0.6060 -0.2892  0.2856
  776MOL0     C 6970   6.582   7.748   1.221  0.9243 -0.6229 -0.4512
  776MOL0     C 6971   6.589   7.665   1.343 -0.1198 -0.6705  0.5184
  776MOL0     C 6972   6.541   7.521   1.325  0.2310  0.1498 -0.1120
  776MOL0     C 6973   6.391   7.493   1.333 -0.4004  0.2935 -0.0124
  776MOL0     O 6974   6.360   7.356   1.347 -0.2413  0.0061  0.2621
  776MOL0     C 6975   6.387   7.265   1.248 -0.2191 -0.2151 -0.5636
  776MOL0     C 6976   6.500   7.183   1.263  0.4660 -0.2104 -0.1219
  776MOL0     C 6977   6.526   7.081   1.180 -0.3781  0.2052 -0.6639
  776MOL0     C 6978   6.655   7.010   1.199  0.1726  0.4797  0.0541
  776MOL0     C 6979   6.423   7.046   1.085 -0.4055 -0.5536  0.5480
  776MOL0     C 6980   6.436   6.938   0.990  0.1744 -0.1267 -0.5188
  776MOL0     O 6981   6.315   6.879   0.952  0.3002  1.1935 -0.0454
  776MOL0     C 6982   6.315   6.758   0.894 -0.3297 -0.1691 -0.1839
  776MOL0     C 6983   6.254   6.658   0.971 -0.2373  0.0970  0.4518
  776MOL0     C 6984   6.225   6.533   0.915  0.5831  0.7732 -1.5658
  776MOL0     C 6985   6.270   6.507   0.788 -0.5575  0.6058  0.8173
  776MOL0     O 6986   6.233   6.385   0.723  0.4968  0.4559  0.0125
  776MOL0     C 6987   6.353   6.311   0.685 -0.4728  0.6590  0.3117
  776MOL0     C 6988   6.409   6.229   0.804 -0.4531  0.4194  0.2219
  776MOL0     C 6989   6.487   6.106   0.752 -0.6720 -0.0368 -0.2282
  776MOL0     C 6990   6.564   6.007   0.836 -0.3859  0.4835  0.2681
  776MOL0     C 6991   6.611   5.886   0.775  0.0726 -0.4008  0.7167
  776MOL0     C 6992   6.689   5.911   0.649 -0.6859  0.0758  0.5063
  776MOL0     C 6993   6.738   5.772   0.594  0.4320  0.2091 -0.5205
  776MOL0     C 6994   6.838   5.805   0.485 -0.4042 -0.7629 -0.1762
  776MOL0    Cl 6995   6.918   5.661   0.422  0.3437  0.3684 -0.0307
  776MOL0     C 6996   6.339   6.607   0.710  0.6115 -0.1673 -0.0513
  776MOL0     C 6997   6.367   6.725   0.765  0.2136 -0.5403  0.0113
  776MOL0     O 6998   6.546   6.895   0.957 -0.3426  0.7613  0.2099
  776MOL0     C 6999   6.306   7.129   1.077 -0.7223  0.0210 -0.2413
  776MOL0     C 7000   6.291   7.239   1.158 -0.0770  0.1603 -0.2445
  776MOL0     N 7001   6.339   7.837   1.294 -0.5370  0.2332  0.0466
  776MOL0     N 7002   6.243   7.898   1.230 -0.2944  0.3793  0.3086
  776MOL0     C 7003   5.791   7.410   0.563  0.2187 -0.3440  0.2796
  776MOL0     C 7004   5.770   7.271   0.582  0.6121 -0.0810  0.3024
  776MOL0     C 7005   5.602   6.843   0.500 -0.9314 -0.1047  0.3783
  776MOL0     C 7006   5.562   6.839   0.628 -0.3944 -0.5100  0.4373
  776MOL0     C 7007   5.503   6.732   0.684 -1.3318  0.1025  0.0267
  776MOL0     C 7008   5.486   6.611   0.608 -0.9285 -0.4956 -0.0829
  776MOL0     O 7009   5.452   6.495   0.658  0.6346  0.0845 -0.3152
  776MOL0     C 7010   5.397   6.498   0.790  0.8695 -0.0300  0.0653
  776MOL0     C 7011   5.378   6.355   0.842  0.8249  0.1804 -0.0128
  776MOL0     C 7012   5.291   6.330   0.975  0.6834 -0.4182  0.7855
  776MOL0     C 7013   5.173   6.229   0.962 -0.2319  0.5760 -0.4992
  776MOL0     C 7014   5.050   6.293   0.918  1.0265 -0.1903 -0.8548
  776MOL0     C 7015   4.947   6.358   0.888  0.0854  0.5835 -0.9157
  776MOL0     C 7016   5.526   6.611   0.474 -0.4267 -0.6566 -0.0577
  776MOL0     C 7017   5.589   6.727   0.428  0.7291  1.5562  0.7713
  776MOL0     C 7018   5.591   6.738   0.275  0.1987  1.0098 -0.2054
  776MOL0     H 7019   5.501   7.237   0.372 -2.2592  3.9517  0.2192
  776MOL0     H 7020   5.530   7.471   0.352 -0.6180 -0.6403  0.5242
  776MOL0     H 7021   5.844   7.730   0.343  0.6938  0.2520 -0.0752
  776MOL0     H 7022   5.918   7.606   0.450 -2.8538 -1.8062  0.0592
  776MOL0     H 7023   5.762   7.852   0.561 -0.3485 -1.5026  0.1310
  776MOL0     H 7024   5.820   7.710   0.653  0.2971 -1.2014 -0.6444
  776MOL0     H 7025   6.056   7.777   0.544  2.7773  1.3694  3.4340
  776MOL0     H 7026   5.988   7.926   0.483  1.9112 -0.8964  0.0523
  776MOL0     H 7027   5.914   7.983   0.727 -0.2885  1.2736 -1.0522
  776MOL0     H 7028   6.007   7.847   0.777  1.1438 -1.2705 -2.1372
  776MOL0     H 7029   6.108   8.084   0.596  0.1041 -3.2271 -2.6903
  776MOL0     H 7030   6.207   7.976   0.684  1.0900  0.2406 -1.8446
  776MOL0     H 7031   6.154   8.215   0.787  0.0843  1.7473  5.1328
  776MOL0     H 7032   6.010   8.132   0.849  0.3275  4.1014  1.2936
  776MOL0     H 7033   6.185   8.146   1.017  2.2201 -0.9134 -1.3115
  776MOL0     H 7034   6.305   8.069   0.912  1.0886 -3.6473  0.2811
  776MOL0     H 7035   6.061   7.935   1.032  0.8307  1.7747  1.4796
  776MOL0     H 7036   6.170   7.856   0.914 -1.5622 -0.2629  1.4638
  776MOL0     H 7037   6.420   7.794   0.981 -0.3284 -0.7469 -0.1833
  776MOL0     H 7038   6.650   7.834   1.224 -0.7276  0.7279 -0.0708
  776MOL0     H 7039   6.598   7.681   1.136 -2.5790 -3.3638  0.7645
  776MOL0     H 7040   6.695   7.644   1.359  0.8026 -1.7403 -5.0540
  776MOL0     H 7041   6.557   7.710   1.437  0.1661 -2.7197  1.6717
  776MOL0     H 7042   6.579   7.482   1.231 -2.3237 -1.4335 -0.5622
  776MOL0     H 7043   6.588   7.463   1.406 -2.0180  1.2899  2.1577
  776MOL0     H 7044   6.346   7.552   1.413 -2.2642 -2.1929  0.8838
  776MOL0     H 7045   6.349   7.533   1.240 -0.0816  1.5443  0.3596
  776MOL0     H 7046   6.575   7.213   1.335  1.9975 -1.1773 -1.2484
  776MOL0     H 7047   6.723   7.033   1.117  0.1965 -0.8087 -0.3069
  776MOL0     H 7048   6.637   6.902   1.197  4.2247 -0.3252 -0.6907
  776MOL0     H 7049   6.703   7.034   1.295  0.2003  1.9782 -0.3131
  776MOL0     H 7050   6.212   6.676   1.070  0.2281 -4.3986  1.6578
  776MOL0     H 7051   6.168   6.458   0.968  0.1867  2.3314  0.3058
  776MOL0     H 7052   6.312   6.239   0.613 -1.7305  1.3889  0.2554
  776MOL0     H 7053   6.427   6.369   0.629  1.4644 -1.2541  0.7878
  776MOL0     H 7054   6.485   6.282   0.864 -1.2260  1.9415 -0.0856
  776MOL0     H 7055   6.327   6.201   0.871 -0.2342  0.6832  0.6064
  776MOL0     H 7056   6.563   6.139   0.680 -0.4445 -2.0619 -0.9727
  776MOL0     H 7057   6.417   6.045   0.695 -0.1566 -0.2158 -0.6802
  776MOL0     H 7058   6.504   5.970   0.918 -1.1767  0.1534 -0.4453
  776MOL0     H 7059   6.646   6.065   0.880  0.1803 -0.8482  0.9963
  776MOL0     H 7060   6.680   5.830   0.840 -1.6274 -1.6155  1.5315
  776MOL0     H 7061   6.528   5.817   0.762  1.5115 -1.9681 -0.8578
  776MOL0     H 7062   6.766   5.987   0.663 -1.5372  1.5669 -2.1038
  776MOL0     H 7063   6.616   5.945   0.575  0.1153  1.5519  0.3652
  776MOL0     H 7064   6.645   5.737   0.547 -0.3729  2.1120 -0.4121
  776MOL0     H 7065   6.777   5.700   0.667  1.0115  0.3914 -0.6525
  776MOL0     H 7066   6.908   5.884   0.512  0.6578 -1.9108  0.5291
  776MOL0     H 7067   6.777   5.834   0.399  0.3474 -1.5346 -0.9817
  776MOL0     H 7068   6.366   6.580   0.609  1.4061 -1.4650  0.4820
  776MOL0     H 7069   6.428   6.798   0.712  1.5622 -1.9152 -0.4093
  776MOL0     H 7070   6.234   7.114   0.997  0.6772 -3.8718 -0.9698
  776MOL0     H 7071   6.204   7.303   1.147 -1.3737 -1.4328  0.1900
  776MOL0     H 7072   5.868   7.451   0.628 -1.2581 -1.3052  2.7451
  776MOL0     H 7073   5.824   7.202   0.647  1.2226 -0.9770 -1.1235
  776MOL0     H 7074   5.572   6.933   0.680 -0.0561  0.6678 -1.6391
  776MOL0     H 7075   5.483   6.734   0.791  1.2175  0.0484  0.5715
  776MOL0     H 7076   5.472   6.527   0.864  1.2782 -3.5212  1.2039
  776MOL0     H 7077   5.301   6.547   0.804  0.4351 -1.2388  1.6470
  776MOL0     H 7078   5.477   6.309   0.840  1.0016  0.4855 -3.5674
  776MOL0     H 7079   5.319   6.304   0.765 -0.6406 -1.1834  1.9036
  776MOL0     H 7080   5.352   6.289   1.056 -0.8994 -0.0090  2.2359
  776MOL0     H 7081   5.264   6.430   1.011 -1.8694 -0.8137  0.1500
  776MOL0     H 7082   5.162   6.171   1.054 -0.0655 -1.8385 -1.9165
  776MOL0     H 7083   5.190   6.154   0.884 -1.2289 -3.0696  2.4823
  776MOL0     H 7084   4.863   6.414   0.851  1.3902  1.8444 -2.1134
  776MOL0     H 7085   5.501   6.521   0.419 -1.8832  0.5587 -1.4941
  776MOL0     H 7086   5.567   6.642   0.231  1.4243  0.7348 -0.3184
  776MOL0     H 7087   5.536   6.816   0.221 -0.1250  1.6450  0.9940
  776MOL0     H 7088   5.699   6.756   0.264  0.2813  1.3750  1.0281
  777MOL0     O 7089   5.704   4.799   4.227 -0.5648  0.8484 -0.0106
  777MOL0     C 7090   5.687   4.910   4.166 -0.0797  0.9792 -0.3808
  777MOL0     O 7091   5.605   4.924   4.061  0.3439 -0.9389 -0.6194
  777MOL0     C 7092   5.513   4.825   4.020 -0.7299  0.3699 -0.0310
  777MOL0     C 7093   5.469   4.716   4.095 -0.1837  0.6021 -0.5031
  777MOL0     C 7094   5.374   4.629   4.045  0.0481  0.5975 -0.8140
  777MOL0     C 7095   5.334   4.636   3.911  0.1016 -0.6914  0.0266
  777MOL0     O 7096   5.246   4.558   3.856 -0.6200 -0.1122 -0.6328
  777MOL0     C 7097   5.102   4.593   3.868  0.2387  0.3017  0.4284
  777MOL0     C 7098   5.009   4.475   3.884 -0.1923  0.3065 -0.0083
  777MOL0     C 7099   4.868   4.534   3.908 -0.0665 -0.2795  0.1757
  777MOL0     C 7100   4.857   4.594   4.056 -0.1142 -0.2222  0.4622
  777MOL0     C 7101   4.708   4.613   4.100  0.1941  0.6241 -0.1058
  777MOL0     C 7102   4.708   4.679   4.242 -0.1501 -0.4133  0.0194
  777MOL0     C 7103   4.556   4.720   4.269  1.0837  0.3462  0.6472
  777MOL0     C 7104   4.531   4.800   4.391 -1.6384 -0.6072 -0.0325
  777MOL0     N 7105   4.564   4.935   4.354  1.4295  0.2128  0.8337
  777MOL0     C 7106   4.669   5.004   4.400 -0.0495 -0.5967 -0.0803
  777MOL0     C 7107   4.651   5.134   4.360  0.4945  0.1767 -0.3590
  777MOL0     C 7108   4.743   5.257   4.383  0.8921  0.7334  0.5539
  777MOL0     C 7109   4.669   5.373   4.455  0.6362 -0.3790 -0.7793
  777MOL0     C 7110   4.730   5.515   4.415  0.3316 -0.6733  0.1433
  777MOL0     C 7111   4.659   5.646   4.468  0.1019 -0.2114 -0.3079
  777MOL0     O 7112   4.525   5.659   4.414 -0.8938  1.4355  0.1409
  777MOL0     C 7113   4.492   5.708   4.292 -0.5778  0.0418  0.9102
  777MOL0     C 7114   4.357   5.708   4.259 -0.0599  0.4205  0.9920
  777MOL0     C 7115   4.311   5.741   4.124 -0.0580 -0.2235 -0.3637
  777MOL0     C 7116   4.163   5.728   4.095  0.0722 -0.8362 -0.7646
  777MOL0     C 7117   4.407   5.775   4.023 -0.6180 -0.5033 -0.3225
  777MOL0     C 7118   4.395   5.798   3.867 -0.3770  0.7218 -1.0836
  777MOL0     O 7119   4.506   5.832   3.793 -0.0768  0.6303  0.4109
  777MOL0     C 7120   4.487   5.868   3.664 -1.6662 -0.0709  0.2615
  777MOL0     C 7121   4.512   6.004   3.653 -1.3433  0.2463 -0.1111
  777MOL0     C 7122   4.521   6.069   3.528  0.4669  1.0013  0.2210
  777MOL0     C 7123   4.512   5.992   3.413  0.3382  0.0596 -0.1190
  777MOL0     O 7124   4.521   6.056   3.288 -0.0551  0.1695 -0.9971
  777MOL0     C 7125   4.564   5.984   3.168 -0.4791 -0.1420  0.7287
  777MOL0     C 7126   4.575   6.083   3.061  0.1819  0.5362  0.3606
  777MOL0     C 7127   4.643   6.014   2.943  0.6820  0.1772  0.1668
  777MOL0     C 7128   4.647   6.126   2.827 -0.2458 -0.2724  0.4432
  777MOL0     C 7129   4.719   6.065   2.703 -0.1213  0.5154  0.0102
  777MOL0     C 7130   4.704   6.157   2.586 -0.7881 -0.3771  0.7336
  777MOL0     C 7131   4.567   6.181   2.527 -0.0654 -0.4917  0.3787
  777MOL0     C 7132   4.571   6.242   2.389  0.6476 -0.6061  0.0768
  777MOL0    Cl 7133   4.623   6.417   2.405  0.3108  0.9705  0.1621
  777MOL0     C 7134   4.490   5.857   3.422  0.9248 -0.3328 -0.5236
  777MOL0     C 7135   4.479   5.791   3.547 -0.0985 -1.1248 -0.4309
  777MOL0     O 7136   4.293   5.753   3.815  0.0453 -0.4444  0.1376
  777MOL0     C 7137   4.543   5.787   4.069 -0.8501  0.6622  0.5965
  777MOL0     C 7138   4.585   5.750   4.196 -0.0200 -0.5240 -0.6918
  777MOL0     N 7139   4.541   5.132   4.275  0.4324 -0.0103  0.1924
  777MOL0     N 7140   4.488   5.016   4.280  0.4529  0.0518 -0.3944
  777MOL0     C 7141   5.377   4.744   3.833 -0.3303 -0.5088 -0.3655
  777MOL0     C 7142   5.460   4.837   3.891 -0.2156  0.4159  0.3772
  777MOL0     C 7143   5.752   5.030   4.227  0.5760  1.2800 -0.2881
  777MOL0     C 7144   5.826   5.000   4.345 -0.1874 -0.6264  0.0574
  777MOL0     C 7145   5.906   5.099   4.404  1.2770 -0.0810 -0.1400
  777MOL0     C 7146   5.918   5.221   4.352 -0.1488 -1.0858 -0.0762
  777MOL0     O 7147   5.985   5.300   4.430  0.1778 -0.0259  0.0765
  777MOL0     C 7148   6.005   5.436   4.388  0.3495  0.2335 -1.6127
  777MOL0     C 7149   6.115   5.504   4.468  0.2865  0.1777 -0.5146
  777MOL0     C 7150   6.249   5.432   4.471 -0.3517 -0.1665 -0.3793
  777MOL0     C 7151   6.363   5.526   4.487 -0.0877  0.3037  1.0217
  777MOL0     C 7152   6.344   5.617   4.588 -0.2578  0.0529 -0.0495
  777MOL0     C 7153   6.307   5.695   4.675  0.3248 -0.2907 -0.5275
  777MOL0     C 7154   5.839   5.251   4.241 -0.4524 -0.7393 -0.5824
  777MOL0     C 7155   5.753   5.154   4.177  0.0106  0.2091 -0.2465
  777MOL0     C 7156   5.643   5.210   4.090 -0.2491 -0.9500  0.1449
  777MOL0     H 7157   5.498   4.698   4.198 -0.8630  1.7740 -0.0985
  777MOL0     H 7158   5.334   4.546   4.102  0.6039  0.6424 -0.3514
  777MOL0     H 7159   5.069   4.640   3.775  0.2834  0.3743  0.4489
  777MOL0     H 7160   5.085   4.671   3.944 -3.6685  1.4626 -1.3778
  777MOL0     H 7161   5.009   4.408   3.797  0.5865 -0.3849  0.5060
  777MOL0     H 7162   5.036   4.427   3.979 -1.3008  1.2529  0.8020
  777MOL0     H 7163   4.828   4.607   3.838 -1.5829 -1.3323 -0.1192
  777MOL0     H 7164   4.804   4.445   3.897  0.6888 -0.5966 -2.5288
  777MOL0     H 7165   4.914   4.525   4.119  1.5617 -2.5122 -3.2472
  777MOL0     H 7166   4.897   4.695   4.064 -0.3297 -0.1228  0.2994
  777MOL0     H 7167   4.658   4.516   4.109  1.0490  0.1070 -0.7559
  777MOL0     H 7168   4.675   4.679   4.019  0.1174 -1.4623 -1.8915
  777MOL0     H 7169   4.736   4.604   4.317  0.4293  0.5087  0.7416
  777MOL0     H 7170   4.780   4.761   4.247  3.2590 -3.1586 -0.4150
  777MOL0     H 7171   4.510   4.621   4.277 -2.7077  2.0020  1.5366
  777MOL0     H 7172   4.513   4.766   4.180  0.1340 -1.4501  0.1464
  777MOL0     H 7173   4.425   4.794   4.415 -2.1738 -1.0948 -2.2610
  777MOL0     H 7174   4.594   4.775   4.477 -0.2936  3.2031  0.2720
  777MOL0     H 7175   4.749   4.969   4.465  0.0979  0.2217  0.1865
  777MOL0     H 7176   4.760   5.281   4.278 -3.8489 -1.0910 -0.9447
  777MOL0     H 7177   4.835   5.221   4.430  1.8540 -0.5507 -2.1319
  777MOL0     H 7178   4.567   5.372   4.415 -1.1445 -4.3248  3.0075
  777MOL0     H 7179   4.678   5.373   4.564  1.6936  3.0913 -0.7609
  777MOL0     H 7180   4.836   5.531   4.437 -0.1105  2.9986  0.2076
  777MOL0     H 7181   4.722   5.523   4.307 -0.2719  3.0866  0.3486
  777MOL0     H 7182   4.653   5.639   4.577  0.6382  0.2775 -0.2431
  777MOL0     H 7183   4.723   5.732   4.448  2.4246 -2.7139 -5.4030
  777MOL0     H 7184   4.295   5.667   4.338 -1.5469  0.7766  0.0495
  777MOL0     H 7185   4.108   5.784   4.172  0.0100 -0.5755 -0.9953
  777MOL0     H 7186   4.152   5.620   4.110  3.1079 -1.0064  0.8464
  777MOL0     H 7187   4.140   5.765   3.994  0.6818 -1.0299 -0.9777
  777MOL0     H 7188   4.530   6.056   3.746 -1.1099  1.4871 -0.8253
  777MOL0     H 7189   4.533   6.176   3.515 -1.6210  1.3282  0.5373
  777MOL0     H 7190   4.666   5.948   3.184 -0.0682 -0.7403 -2.5005
  777MOL0     H 7191   4.508   5.894   3.140  2.6785 -1.7161 -1.0578
  777MOL0     H 7192   4.474   6.116   3.035  0.8920  1.4681 -1.3840
  777MOL0     H 7193   4.632   6.161   3.112 -1.2572 -0.3622  3.6146
  777MOL0     H 7194   4.574   5.935   2.911  0.5237  0.1791  0.4983
  777MOL0     H 7195   4.739   5.973   2.976 -0.3625 -1.2914  1.5877
  777MOL0     H 7196   4.688   6.221   2.863 -3.3020  1.1422  0.5661
  777MOL0     H 7197   4.539   6.138   2.810 -0.2824 -1.9227 -0.8043
  777MOL0     H 7198   4.825   6.053   2.730  0.0653 -2.9338 -1.7985
  777MOL0     H 7199   4.675   5.968   2.681  5.5223 -2.5017  0.1103
  777MOL0     H 7200   4.770   6.116   2.509 -1.4466  0.7986 -0.5092
  777MOL0     H 7201   4.739   6.256   2.614 -2.5391 -0.0234  1.8642
  777MOL0     H 7202   4.526   6.252   2.599  0.6933  0.3622 -0.0096
  777MOL0     H 7203   4.508   6.089   2.522 -0.6762 -0.0707 -0.3729
  777MOL0     H 7204   4.470   6.246   2.347  0.9069  4.2527 -0.5686
  777MOL0     H 7205   4.641   6.177   2.335 -0.3580 -0.8481 -0.9677
  777MOL0     H 7206   4.471   5.796   3.335  0.1359  0.0880 -0.6630
  777MOL0     H 7207   4.472   5.682   3.551 -2.4579 -1.0287 -0.7910
  777MOL0     H 7208   4.629   5.816   4.009 -1.1874  0.6594  0.1062
  777MOL0     H 7209   4.691   5.747   4.217  0.3033 -1.5897 -2.3152
  777MOL0     H 7210   5.352   4.745   3.728  1.0917 -0.3113 -0.7105
  777MOL0     H 7211   5.490   4.920   3.827  3.8642  1.3450  3.1092
  777MOL0     H 7212   5.821   4.900   4.387  0.2943 -1.1368 -1.0660
  777MOL0     H 7213   5.953   5.082   4.501 -0.3828 -1.4812  0.4612
  777MOL0     H 7214   6.027   5.448   4.281  0.7258  0.4117 -1.5150
  777MOL0     H 7215   5.910   5.485   4.411  0.2624 -0.4494 -0.4058
  777MOL0     H 7216   6.075   5.500   4.570  1.0340 -0.8883 -0.2364
  777MOL0     H 7217   6.111   5.610   4.442 -1.0276  0.8736  2.0969
  777MOL0     H 7218   6.248   5.369   4.561 -3.6198  0.9862  0.5412
  777MOL0     H 7219   6.268   5.379   4.378 -4.0081 -0.0934 -1.2947
  777MOL0     H 7220   6.379   5.565   4.386 -1.3695 -3.2271 -0.7315
  777MOL0     H 7221   6.454   5.467   4.499 -0.4757 -0.5450 -0.0228
  777MOL0     H 7222   6.263   5.762   4.746  3.3950  1.6050 -0.2287
  777MOL0     H 7223   5.829   5.355   4.211  0.7149 -0.2603  0.5760
  777MOL0     H 7224   5.558   5.232   4.154  0.4560  0.8178  0.5096
  777MOL0     H 7225   5.672   5.305   4.044 -1.9181  1.2711  3.3307
  777MOL0     H 7226   5.612   5.147   4.005  1.4640 -1.5418 -0.0854
  778MOL0     O 7227   8.031   5.409   6.100  0.2104 -0.6429  0.0245
  778MOL0     C 7228   8.022   5.409   6.219 -0.5180 -1.3722  0.9000
  778MOL0     O 7229   7.925   5.482   6.293 -0.3552 -0.0485  0.1470
  778MOL0     C 7230   7.811   5.528   6.232  0.2764 -0.7545 -1.2452
  778MOL0     C 7231   7.751   5.637   6.280  0.6867 -0.4384  0.0733
  778MOL0     C 7232   7.628   5.682   6.235  0.2462  0.9469 -0.3831
  778MOL0     C 7233   7.560   5.608   6.146 -0.1471 -0.2046  1.1115
  778MOL0     O 7234   7.443   5.649   6.090  0.8882 -0.8115  0.3169
  778MOL0     C 7235   7.321   5.638   6.164 -0.2831  0.7153  0.4437
  778MOL0     C 7236   7.261   5.501   6.158 -0.1338 -0.0690 -0.9549
  778MOL0     C 7237   7.196   5.473   6.027 -0.3614 -0.3005  0.4881
  778MOL0     C 7238   7.109   5.340   6.020  0.1171 -0.6864 -0.1218
  778MOL0     C 7239   7.048   5.330   5.881 -1.0287  0.6893 -0.7883
  778MOL0     C 7240   6.947   5.213   5.876  0.4998 -0.5534 -0.1268
  778MOL0     C 7241   6.912   5.196   5.730  0.9346 -0.7956  0.2112
  778MOL0     C 7242   6.795   5.285   5.679  0.4957 -0.5978 -0.3671
  778MOL0     N 7243   6.759   5.256   5.545 -0.8751 -0.0233 -0.1418
  778MOL0     C 7244   6.672   5.165   5.510  0.6221  0.7224 -0.1612
  778MOL0     C 7245   6.611   5.198   5.392 -0.6226 -0.0727 -0.3537
  778MOL0     C 7246   6.490   5.131   5.323 -0.4989 -0.1102  0.2879
  778MOL0     C 7247   6.513   4.971   5.332  0.3983  1.4646  0.6691
  778MOL0     C 7248   6.584   4.909   5.216 -0.2233 -0.1320 -0.3174
  778MOL0     C 7249   6.736   4.976   5.197  0.6407 -0.0187 -0.1852
  778MOL0     O 7250   6.813   4.878   5.134  0.0229  0.1384  0.6929
  778MOL0     C 7251   6.789   4.850   4.993 -0.0113  0.1081 -0.4575
  778MOL0     C 7252   6.821   4.719   4.965 -0.1510 -0.0113 -0.6777
  778MOL0     C 7253   6.800   4.660   4.831  1.1406 -0.3216 -0.2707
  778MOL0     C 7254   6.843   4.523   4.810  0.2948 -0.2503 -0.1251
  778MOL0     C 7255   6.757   4.756   4.722  0.0165  0.5471 -0.5279
  778MOL0     C 7256   6.725   4.720   4.588 -0.4322 -0.4259 -1.1751
  778MOL0     O 7257   6.762   4.787   4.481 -0.0297 -0.7554 -0.2305
  778MOL0     C 7258   6.703   4.761   4.359 -0.1204  0.8712  1.1698
  778MOL0     C 7259   6.630   4.854   4.282  0.7650 -0.4687  0.0426
  778MOL0     C 7260   6.571   4.834   4.158 -0.6630 -0.3377  0.2874
  778MOL0     C 7261   6.593   4.711   4.098 -0.0161 -0.4505 -0.1792
  778MOL0     O 7262   6.550   4.675   3.973 -0.0658  0.1614 -0.0073
  778MOL0     C 7263   6.450   4.756   3.906  0.3917  0.2852 -0.2965
  778MOL0     C 7264   6.386   4.648   3.818  0.1356 -0.5080 -0.3099
  778MOL0     C 7265   6.297   4.551   3.903  0.2506 -0.5138 -0.2250
  778MOL0     C 7266   6.262   4.428   3.813 -0.0838  0.6274  0.4150
  778MOL0     C 7267   6.194   4.301   3.873  0.3440  0.1249 -0.0277
  778MOL0     C 7268   6.183   4.194   3.766  0.0578 -0.1418 -0.5207
  778MOL0     C 7269   6.098   4.077   3.823  0.2379 -0.3473  0.7381
  778MOL0     C 7270   6.019   4.008   3.709 -0.7948  0.9962 -0.3845
  778MOL0    Cl 7271   5.957   3.847   3.777  0.2802 -0.1545 -0.3158
  778MOL0     C 7272   6.659   4.609   4.165 -0.7995 -0.0585 -0.2637
  778MOL0     C 7273   6.706   4.635   4.295  0.1538  1.0310 -0.9637
  778MOL0     O 7274   6.662   4.614   4.582  0.1078 -0.1325 -0.4345
  778MOL0     C 7275   6.743   4.894   4.754 -0.3451  0.7940 -0.1327
  778MOL0     C 7276   6.760   4.942   4.882  0.1898  0.5377 -0.3075
  778MOL0     N 7277   6.685   5.309   5.348  0.5688  0.4360  0.1728
  778MOL0     N 7278   6.771   5.341   5.444 -0.3943 -0.2145  0.6788
  778MOL0     C 7279   7.621   5.488   6.096  0.7340  0.8916  1.0991
  778MOL0     C 7280   7.743   5.448   6.142  0.3200 -0.6928  0.0879
  778MOL0     C 7281   8.136   5.335   6.283  1.5569 -0.9929 -0.5830
  778MOL0     C 7282   8.262   5.315   6.226 -0.1958 -0.0616 -0.8392
  778MOL0     C 7283   8.358   5.235   6.293  0.4778  0.0601  0.3135
  778MOL0     C 7284   8.330   5.169   6.409  0.8556  1.0234  0.7222
  778MOL0     O 7285   8.436   5.096   6.459 -1.1941 -0.1501 -0.3383
  778MOL0     C 7286   8.437   5.029   6.588  0.4684 -0.4241 -0.9127
  778MOL0     C 7287   8.460   4.884   6.553 -1.1581  0.4369  0.1394
  778MOL0     C 7288   8.371   4.777   6.622 -0.2471 -0.0712  0.0834
  778MOL0     C 7289   8.373   4.788   6.770 -0.3265  0.2007  0.7953
  778MOL0     C 7290   8.507   4.767   6.819 -0.3125 -0.1198  0.5563
  778MOL0     C 7291   8.624   4.727   6.835 -0.9256 -0.1257 -1.1334
  778MOL0     C 7292   8.195   5.175   6.459 -0.2567 -0.0500  0.2822
  778MOL0     C 7293   8.105   5.271   6.403 -0.5991 -0.4312  0.5784
  778MOL0     C 7294   7.968   5.270   6.467 -0.1824  0.1895 -0.2702
  778MOL0     H 7295   7.798   5.700   6.355 -0.5778  0.3723  0.2240
  778MOL0     H 7296   7.590   5.774   6.278  3.4034  0.8445  3.2118
  778MOL0     H 7297   7.250   5.719   6.143  1.9233  2.4821 -0.5449
  778MOL0     H 7298   7.341   5.660   6.269  0.9218  0.4991  0.2716
  778MOL0     H 7299   7.332   5.420   6.177 -0.8235 -0.3834  0.4669
  778MOL0     H 7300   7.183   5.498   6.235  1.3979  2.4297  0.8343
  778MOL0     H 7301   7.143   5.568   6.018  0.3064  0.1561  1.2225
  778MOL0     H 7302   7.273   5.468   5.950  3.0801 -1.1153  3.6503
  778MOL0     H 7303   7.176   5.257   6.044  0.1925 -0.4818  0.3732
  778MOL0     H 7304   7.032   5.322   6.095 -0.4064 -0.7233 -0.6577
  778MOL0     H 7305   7.129   5.323   5.807 -0.5058 -1.8123 -0.0692
  778MOL0     H 7306   6.983   5.412   5.850 -1.2803  0.8387  0.0989
  778MOL0     H 7307   6.968   5.113   5.915  0.3010 -0.0354  1.3936
  778MOL0     H 7308   6.859   5.250   5.929  2.0226  0.8608  1.5552
  778MOL0     H 7309   6.889   5.092   5.707 -0.3754  0.0156 -2.6892
  778MOL0     H 7310   6.993   5.218   5.659  3.3326  1.3018  3.3176
  778MOL0     H 7311   6.708   5.267   5.743  2.4675  0.0511  2.7290
  778MOL0     H 7312   6.814   5.392   5.696 -2.8218  0.2235 -1.2059
  778MOL0     H 7313   6.657   5.079   5.574  2.1108  0.6540  0.1221
  778MOL0     H 7314   6.481   5.148   5.215  0.0941 -2.0878 -0.1038
  778MOL0     H 7315   6.398   5.157   5.377 -0.0772 -1.5274  1.7573
  778MOL0     H 7316   6.549   4.935   5.429 -0.6042 -1.0993  0.1801
  778MOL0     H 7317   6.412   4.929   5.321  1.0183  0.3202 -1.1194
  778MOL0     H 7318   6.589   4.805   5.249 -3.4627 -1.0543 -2.3411
  778MOL0     H 7319   6.532   4.907   5.120 -1.1922 -1.2804  0.2166
  778MOL0     H 7320   6.721   5.063   5.133 -2.3076 -2.2887 -2.8963
  778MOL0     H 7321   6.779   5.010   5.292  1.5612 -1.4743 -0.0536
  778MOL0     H 7322   6.858   4.675   5.057 -1.0274  1.5202  0.4597
  778MOL0     H 7323   6.753   4.468   4.837 -0.6893  1.6096  0.5777
  778MOL0     H 7324   6.921   4.489   4.879 -1.6815 -2.2235  1.3095
  778MOL0     H 7325   6.874   4.507   4.706  0.4251 -0.4341 -0.0577
  778MOL0     H 7326   6.614   4.946   4.338  0.4182  0.6566 -1.8058
  778MOL0     H 7327   6.530   4.917   4.102 -2.0234  0.2118  2.0012
  778MOL0     H 7328   6.377   4.794   3.978  0.4007 -1.8161  0.9296
  778MOL0     H 7329   6.489   4.824   3.830  0.7982 -1.0258 -1.2950
  778MOL0     H 7330   6.326   4.699   3.742 -1.4180  0.2927  1.3693
  778MOL0     H 7331   6.454   4.585   3.759 -0.4496  0.1667 -1.7611
  778MOL0     H 7332   6.207   4.601   3.941  0.8153  1.2450 -1.0688
  778MOL0     H 7333   6.343   4.527   4.000 -1.8168  1.6727  1.4023
  778MOL0     H 7334   6.357   4.391   3.773 -0.5414  0.5441 -0.6233
  778MOL0     H 7335   6.201   4.460   3.728  0.5088  2.5285  0.6459
  778MOL0     H 7336   6.253   4.256   3.954  0.9043  1.1878  0.1679
  778MOL0     H 7337   6.097   4.331   3.914  0.7977  1.4983  0.0763
  778MOL0     H 7338   6.284   4.168   3.730  0.3764  0.4179 -0.0453
  778MOL0     H 7339   6.128   4.229   3.678 -1.2636 -2.2436 -0.5993
  778MOL0     H 7340   6.018   4.122   3.882  0.5752  1.1522  0.1002
  778MOL0     H 7341   6.163   4.008   3.876  1.6491  0.1721 -0.2528
  778MOL0     H 7342   6.089   3.981   3.629  0.3177 -0.5096  1.0468
  778MOL0     H 7343   5.933   4.063   3.670 -1.9354  0.7481  1.6445
  778MOL0     H 7344   6.681   4.518   4.109  2.1163  0.6426 -0.4637
  778MOL0     H 7345   6.743   4.549   4.350 -1.8343 -0.1922 -1.4020
  778MOL0     H 7346   6.712   4.959   4.673  2.1895  1.3066 -0.7664
  778MOL0     H 7347   6.746   5.046   4.907  0.1164  0.2488  0.9147
  778MOL0     H 7348   7.576   5.418   6.026 -0.0892  0.1247  2.3465
  778MOL0     H 7349   7.796   5.360   6.106 -1.7412 -1.4319 -1.2733
  778MOL0     H 7350   8.297   5.373   6.141  3.6468 -1.0827 -0.1306
  778MOL0     H 7351   8.459   5.224   6.255  1.6029 -3.4547  3.6416
  778MOL0     H 7352   8.518   5.059   6.655 -2.0938  1.3067  1.6779
  778MOL0     H 7353   8.349   5.042   6.652  3.2414 -0.9739  3.4904
  778MOL0     H 7354   8.567   4.876   6.572 -1.1691  0.9107  0.4330
  778MOL0     H 7355   8.442   4.866   6.447 -5.2534  0.0186  0.7428
  778MOL0     H 7356   8.270   4.802   6.589  0.1440  0.2545 -0.9463
  778MOL0     H 7357   8.404   4.675   6.601  2.5148  0.4284  1.4600
  778MOL0     H 7358   8.313   4.717   6.827  0.8828 -2.8031 -1.4380
  778MOL0     H 7359   8.355   4.889   6.809 -0.5300  0.6747 -0.4734
  778MOL0     H 7360   8.725   4.691   6.848 -0.8464  0.1011 -1.1150
  778MOL0     H 7361   8.172   5.096   6.530  3.4799 -1.2871  0.3631
  778MOL0     H 7362   7.954   5.374   6.499  1.4341  0.4281 -0.2462
  778MOL0     H 7363   7.891   5.243   6.395  0.5249  0.9846 -1.3739
  778MOL0     H 7364   7.968   5.200   6.551 -2.3198  1.6648  1.0504
  779MOL0     O 7365   3.857   7.549  11.442  0.1238 -1.3865 -0.3916
  779MOL0     C 7366   3.806   7.593  11.338  0.0030 -0.1763  0.8642
  779MOL0     O 7367   3.678   7.591  11.308 -0.2905  0.1769 -0.6820
  779MOL0     C 7368   3.588   7.548  11.401 -0.3345 -0.3453  0.1094
  779MOL0     C 7369   3.533   7.424  11.374  0.4351  0.8058  0.1825
  779MOL0     C 7370   3.435   7.376  11.456  0.6475  0.3493  0.0599
  779MOL0     C 7371   3.386   7.441  11.573 -0.1734 -0.7751  0.1443
  779MOL0     O 7372   3.284   7.383  11.640 -0.4914 -0.0816  0.4097
  779MOL0     C 7373   3.284   7.387  11.784  0.2581  0.0170 -0.0625
  779MOL0     C 7374   3.150   7.431  11.830 -0.1901  0.4103  0.6692
  779MOL0     C 7375   3.130   7.580  11.791 -0.4482  0.2729 -0.3503
  779MOL0     C 7376   2.995   7.633  11.837 -0.8996  0.5191  0.3470
  779MOL0     C 7377   2.938   7.735  11.723  0.1310 -0.1329 -0.9746
  779MOL0     C 7378   2.820   7.823  11.771 -1.0216  0.5031 -0.3119
  779MOL0     C 7379   2.699   7.752  11.814  1.0156  0.1574  0.4253
  779MOL0     C 7380   2.572   7.839  11.839 -0.4042  0.5385  0.0365
  779MOL0     N 7381   2.465   7.747  11.822  0.1023  0.1328 -0.0446
  779MOL0     C 7382   2.448   7.640  11.899  0.3728 -0.2825 -0.6364
  779MOL0     C 7383   2.367   7.553  11.837 -0.3673  0.2533 -0.8106
  779MOL0     C 7384   2.313   7.428  11.895 -0.0065 -0.5024  0.2036
  779MOL0     C 7385   2.396   7.307  11.854  0.0644  0.1106  0.1873
  779MOL0     C 7386   2.313   7.179  11.852 -0.0456  0.3221 -0.9224
  779MOL0     C 7387   2.394   7.049  11.831 -0.8792  0.1914  0.8985
  779MOL0     O 7388   2.411   6.972  11.958  0.1875  0.2742  0.3162
  779MOL0     C 7389   2.481   6.855  11.935 -0.6055 -0.0901 -0.3064
  779MOL0     C 7390   2.443   6.755  12.013 -0.4739  1.3179  0.3656
  779MOL0     C 7391   2.494   6.623  12.004  0.1910 -0.3590 -0.4096
  779MOL0     C 7392   2.438   6.509  12.099  0.0441 -0.5292 -0.2922
  779MOL0     C 7393   2.599   6.602  11.913  0.1661  0.8624  0.2008
  779MOL0     C 7394   2.671   6.469  11.899  0.0463  0.6016  0.3649
  779MOL0     O 7395   2.733   6.458  11.775  0.0653 -0.0822 -0.4791
  779MOL0     C 7396   2.787   6.332  11.748  1.0179  0.6049  0.4632
  779MOL0     C 7397   2.880   6.328  11.655  0.1640 -0.6861 -0.0147
  779MOL0     C 7398   2.937   6.212  11.601  0.0096  0.1167  1.1124
  779MOL0     C 7399   2.892   6.086  11.646 -0.4946 -0.3802  0.7522
  779MOL0     O 7400   2.946   5.980  11.580  0.1950  0.4506 -0.1007
  779MOL0     C 7401   2.933   5.850  11.638 -0.5210  0.3333 -0.1789
  779MOL0     C 7402   3.021   5.753  11.566 -0.9377  0.7745  0.2221
  779MOL0     C 7403   3.094   5.657  11.662 -0.0680 -0.0024  0.3600
  779MOL0     C 7404   3.186   5.555  11.582 -0.3342 -0.2456 -0.6107
  779MOL0     C 7405   3.311   5.499  11.669 -0.6462  0.2586 -0.3255
  779MOL0     C 7406   3.422   5.603  11.665  0.8472  0.6412 -0.0903
  779MOL0     C 7407   3.548   5.532  11.716 -0.0660  1.7950 -0.9307
  779MOL0     C 7408   3.650   5.646  11.746 -0.2158  0.3762 -0.7433
  779MOL0    Cl 7409   3.805   5.574  11.803  0.1636 -0.2433 -0.2459
  779MOL0     C 7410   2.791   6.090  11.746  0.4199  0.1098 -0.8205
  779MOL0     C 7411   2.745   6.206  11.805 -0.3288 -0.1838  0.1538
  779MOL0     O 7412   2.689   6.395  11.992  0.4154 -0.7291 -0.0267
  779MOL0     C 7413   2.637   6.707  11.830 -0.0976 -0.4576  0.4652
  779MOL0     C 7414   2.571   6.829  11.833  0.0285  0.1426 -0.0305
  779MOL0     N 7415   2.340   7.605  11.710  0.6700 -0.6862 -0.8943
  779MOL0     N 7416   2.401   7.717  11.702  0.1491 -0.4955 -0.7874
  779MOL0     C 7417   3.446   7.564  11.602 -0.8188  0.3085 -0.2108
  779MOL0     C 7418   3.542   7.625  11.512 -0.0787  0.8090 -0.0714
  779MOL0     C 7419   3.899   7.641  11.221  0.1842  0.6902  0.2504
  779MOL0     C 7420   3.838   7.684  11.100  0.0783 -0.1150 -0.7816
  779MOL0     C 7421   3.908   7.747  11.002 -0.7396 -0.2030 -1.1430
  779MOL0     C 7422   4.044   7.764  11.011 -0.1438  0.3610  0.3781
  779MOL0     O 7423   4.110   7.836  10.910  0.1039 -0.0071 -0.0205
  779MOL0     C 7424   4.227   7.911  10.947 -0.2092  0.1355  0.1520
  779MOL0     C 7425   4.191   8.022  11.035 -0.1323 -0.3636  0.2402
  779MOL0     C 7426   4.321   8.110  11.070  0.2459  0.2258  0.4621
  779MOL0     C 7427   4.282   8.232  11.165 -0.8021  0.1025  0.8324
  779MOL0     C 7428   4.211   8.184  11.284  0.6795  0.8758  0.2231
  779MOL0     C 7429   4.162   8.137  11.392 -0.2151 -0.1221  0.1426
  779MOL0     C 7430   4.108   7.692  11.111 -0.7043  0.2983  0.1157
  779MOL0     C 7431   4.037   7.632  11.219  0.6076 -0.2268  0.4258
  779MOL0     C 7432   4.123   7.571  11.320 -1.0019  0.5851 -1.2941
  779MOL0     H 7433   3.560   7.356  11.293 -0.8446 -1.0167  1.2016
  779MOL0     H 7434   3.395   7.282  11.418 -0.1629  1.1339 -1.0973
  779MOL0     H 7435   3.359   7.447  11.836  0.5752 -0.0314 -0.4602
  779MOL0     H 7436   3.311   7.284  11.811  3.8084  0.4146 -1.6073
  779MOL0     H 7437   3.069   7.371  11.787 -0.4876  1.6224 -0.5583
  779MOL0     H 7438   3.151   7.414  11.938  6.4566  3.1895  1.5133
  779MOL0     H 7439   3.211   7.631  11.844  1.7671 -2.8260 -0.4519
  779MOL0     H 7440   3.145   7.586  11.683 -1.6456  2.2906 -0.4560
  779MOL0     H 7441   2.924   7.550  11.836  0.2684 -0.5848 -2.0055
  779MOL0     H 7442   3.006   7.679  11.935 -0.6910 -0.3312  0.7315
  779MOL0     H 7443   2.909   7.673  11.638 -1.7704 -0.3340 -0.2230
  779MOL0     H 7444   3.015   7.807  11.692 -1.6868  1.4479 -2.0161
  779MOL0     H 7445   2.853   7.899  11.843 -0.6455 -0.3050  0.3849
  779MOL0     H 7446   2.801   7.875  11.677  1.7588  0.2533 -1.1185
  779MOL0     H 7447   2.725   7.685  11.897 -0.6398 -0.1586  0.7277
  779MOL0     H 7448   2.670   7.680  11.738 -0.3058  0.8930  0.2166
  779MOL0     H 7449   2.568   7.868  11.944 -0.9574 -0.6420  0.3592
  779MOL0     H 7450   2.548   7.924  11.775 -1.0133 -0.4981 -1.1709
  779MOL0     H 7451   2.508   7.615  11.986 -0.3772 -1.1046 -0.3341
  779MOL0     H 7452   2.206   7.426  11.872 -0.3697  1.8325  1.3623
  779MOL0     H 7453   2.318   7.435  12.004  3.9228 -0.9377  0.1908
  779MOL0     H 7454   2.436   7.317  11.753  0.2502  0.9409  0.3377
  779MOL0     H 7455   2.481   7.297  11.923 -0.4163  3.4413  1.4530
  779MOL0     H 7456   2.268   7.164  11.951  0.1574  1.1063 -0.6986
  779MOL0     H 7457   2.239   7.182  11.771 -1.2981 -0.1906  0.1638
  779MOL0     H 7458   2.340   6.984  11.762 -1.9040 -0.8221  2.5633
  779MOL0     H 7459   2.491   7.067  11.785 -1.7111 -3.0953 -2.6708
  779MOL0     H 7460   2.368   6.774  12.089 -1.2404 -1.0312  0.2588
  779MOL0     H 7461   2.508   6.468  12.173  2.2197  0.6428 -1.5916
  779MOL0     H 7462   2.420   6.424  12.032  1.9621 -0.6813 -0.6957
  779MOL0     H 7463   2.348   6.557  12.138  0.9319 -2.4347  4.9532
  779MOL0     H 7464   2.901   6.430  11.625 -1.4997  0.6875  3.0102
  779MOL0     H 7465   3.013   6.209  11.523  0.5465 -2.4458  1.6425
  779MOL0     H 7466   2.968   5.843  11.741 -0.5491 -2.4352 -0.2757
  779MOL0     H 7467   2.828   5.820  11.638 -0.1748 -1.4994  3.5009
  779MOL0     H 7468   2.971   5.694  11.489  1.5413 -0.9767 -0.1306
  779MOL0     H 7469   3.085   5.818  11.505 -1.4752  3.4950  2.3116
  779MOL0     H 7470   3.022   5.602  11.722 -0.3956  2.0599  1.9743
  779MOL0     H 7471   3.162   5.709  11.730  1.4541  1.5470 -2.1856
  779MOL0     H 7472   3.222   5.622  11.504 -0.4441  1.7228  0.9497
  779MOL0     H 7473   3.127   5.472  11.542  0.3682 -0.9107 -0.2940
  779MOL0     H 7474   3.288   5.482  11.774 -2.4491 -2.7413 -1.0774
  779MOL0     H 7475   3.342   5.402  11.627  0.1593 -0.9809  2.8383
  779MOL0     H 7476   3.409   5.678  11.744  2.5723 -0.9230  1.7662
  779MOL0     H 7477   3.441   5.647  11.567 -2.0572 -0.5108 -1.2643
  779MOL0     H 7478   3.571   5.454  11.643 -3.3278 -2.2559  1.8715
  779MOL0     H 7479   3.525   5.475  11.807  0.9733  1.0920 -1.0900
  779MOL0     H 7480   3.601   5.717  11.814  1.3110  0.0173  0.7914
  779MOL0     H 7481   3.666   5.693  11.648 -2.2328  2.6785 -0.0608
  779MOL0     H 7482   2.735   6.002  11.777 -0.8878  1.1990  0.0277
  779MOL0     H 7483   2.669   6.189  11.881  1.4703 -1.0536  1.8553
  779MOL0     H 7484   2.725   6.712  11.765  0.4315 -0.6705  1.1562
  779MOL0     H 7485   2.602   6.908  11.765  0.8749  0.7636  1.0582
  779MOL0     H 7486   3.415   7.620  11.690 -0.0783  1.3682 -0.5979
  779MOL0     H 7487   3.592   7.719  11.535  1.5553 -0.7494  3.6819
  779MOL0     H 7488   3.730   7.682  11.093 -0.5502 -0.7107  4.5887
  779MOL0     H 7489   3.849   7.793  10.923 -1.6982  1.5799  0.5391
  779MOL0     H 7490   4.299   7.842  10.992  0.7644  0.1239 -1.3291
  779MOL0     H 7491   4.282   7.945  10.858 -1.8023  1.4181 -0.3917
  779MOL0     H 7492   4.140   7.997  11.128 -2.2059  1.6284 -0.2657
  779MOL0     H 7493   4.121   8.091  10.986 -0.9384 -1.3917 -0.0839
  779MOL0     H 7494   4.392   8.048  11.124  1.9023 -0.0418 -1.8801
  779MOL0     H 7495   4.371   8.149  10.981  2.3314 -2.8323  0.1548
  779MOL0     H 7496   4.209   8.292  11.111 -0.4975  0.3452  0.6833
  779MOL0     H 7497   4.368   8.296  11.188 -0.5856 -0.3963  1.4659
  779MOL0     H 7498   4.109   8.082  11.467 -0.4878  0.0396  0.0720
  779MOL0     H 7499   4.213   7.666  11.108 -0.4942  1.1884 -1.3554
  779MOL0     H 7500   4.106   7.619  11.417 -0.8013 -0.4123 -0.7473
  779MOL0     H 7501   4.110   7.464  11.341 -3.2927  0.7767 -1.4844
  779MOL0     H 7502   4.230   7.583  11.304 -0.2298  0.6208  2.7056
  780MOL0     O 7503   2.115   2.291   2.558 -0.3219  0.1249 -0.2424
  780MOL0     C 7504   2.181   2.288   2.660 -0.1735  0.1717 -0.4779
  780MOL0     O 7505   2.230   2.401   2.719  0.5004  0.6074  0.5268
  780MOL0     C 7506   2.218   2.528   2.657 -0.9349 -0.4108 -1.0773
  780MOL0     C 7507   2.229   2.631   2.757 -0.3142 -0.1063  0.9361
  780MOL0     C 7508   2.240   2.763   2.705  0.3125 -0.0415  0.7921
  780MOL0     C 7509   2.252   2.787   2.565 -0.2301  0.3114 -0.0522
  780MOL0     O 7510   2.250   2.921   2.527 -0.6745  0.1903  0.1958
  780MOL0     C 7511   2.328   2.960   2.408  0.3511 -0.1277  0.1918
  780MOL0     C 7512   2.355   3.109   2.397 -0.0349 -0.1568  0.0758
  780MOL0     C 7513   2.241   3.182   2.315  0.2899  0.6464  0.1847
  780MOL0     C 7514   2.287   3.316   2.252  0.4449  0.0261 -0.8453
  780MOL0     C 7515   2.177   3.393   2.191  0.0574  0.4906 -0.3361
  780MOL0     C 7516   2.144   3.341   2.051  0.7415  0.4452  0.2285
  780MOL0     C 7517   2.034   3.440   1.993 -0.2998 -0.7937 -0.8267
  780MOL0     C 7518   1.902   3.464   2.074 -0.6964 -0.4334  0.4846
  780MOL0     N 7519   1.809   3.541   1.990  0.0427  1.2295  0.7256
  780MOL0     C 7520   1.739   3.505   1.876 -0.8270 -0.1319 -0.0212
  780MOL0     C 7521   1.685   3.625   1.838 -0.7222  0.2003  0.2734
  780MOL0     C 7522   1.592   3.653   1.737  0.9005 -0.2376  0.1312
  780MOL0     C 7523   1.658   3.711   1.614 -0.1175 -0.3942 -0.4406
  780MOL0     C 7524   1.754   3.824   1.652 -0.4733  0.8257 -0.5970
  780MOL0     C 7525   1.774   3.906   1.532 -0.8876 -0.0825 -0.0158
  780MOL0     O 7526   1.657   3.975   1.481  0.5628  0.7080  1.0222
  780MOL0     C 7527   1.671   4.039   1.363 -0.2956  0.1893 -0.3322
  780MOL0     C 7528   1.802   4.065   1.315 -0.0874  0.1820 -0.0887
  780MOL0     C 7529   1.812   4.127   1.193  0.0038 -0.1014  0.3721
  780MOL0     C 7530   1.944   4.123   1.127 -1.7775 -0.2345 -0.5575
  780MOL0     C 7531   1.696   4.191   1.132  0.1995  1.0146  0.9057
  780MOL0     C 7532   1.695   4.255   0.997  0.7004  0.1131 -0.1779
  780MOL0     O 7533   1.726   4.176   0.898 -0.3760 -0.6906  0.6754
  780MOL0     C 7534   1.723   4.206   0.764 -0.9504  0.2249  0.3895
  780MOL0     C 7535   1.672   4.325   0.701 -0.2061 -0.0882 -0.3082
  780MOL0     C 7536   1.672   4.348   0.561 -0.4721 -0.3737  0.8335
  780MOL0     C 7537   1.746   4.260   0.481  0.6039 -0.0415  1.0721
  780MOL0     O 7538   1.744   4.290   0.347 -0.3386  0.0521  0.0463
  780MOL0     C 7539   1.698   4.185   0.263 -0.1218  0.7595  0.7439
  780MOL0     C 7540   1.815   4.092   0.213 -0.3473 -0.9173  0.0774
  780MOL0     C 7541   1.791   3.945   0.223 -0.8345 -0.5520 -0.0975
  780MOL0     C 7542   1.916   3.884   0.144 -0.0788 -0.3216  0.3811
  780MOL0     C 7543   1.896   3.898  -0.008 -0.0965  0.3697  0.3975
  780MOL0     C 7544   1.955   3.769  -0.084  0.3862  0.1233 -1.0569
  780MOL0     C 7545   1.873   3.639  -0.058 -1.2966  0.9145 -0.6689
  780MOL0     C 7546   1.759   3.608  -0.154 -0.3153 -0.2513  1.5659
  780MOL0    Cl 7547   1.600   3.639  -0.079 -0.3915  0.0922  0.0638
  780MOL0     C 7548   1.787   4.137   0.545 -0.1163 -0.5164  0.3651
  780MOL0     C 7549   1.775   4.109   0.677 -0.1423  0.1054  0.5301
  780MOL0     O 7550   1.653   4.368   0.994 -0.7855 -0.9044 -0.1839
  780MOL0     C 7551   1.574   4.167   1.193  1.5081 -0.6056  0.7238
  780MOL0     C 7552   1.558   4.089   1.309 -0.5050 -0.9463  0.6485
  780MOL0     N 7553   1.716   3.717   1.930 -1.0568 -0.5043 -0.0263
  780MOL0     N 7554   1.772   3.664   2.033 -0.5975 -0.2490  0.5194
  780MOL0     C 7555   2.257   2.683   2.476  0.1702  0.1479 -0.2857
  780MOL0     C 7556   2.232   2.548   2.523  0.1528 -0.7899  0.1494
  780MOL0     C 7557   2.215   2.155   2.706 -0.2704 -0.1620 -0.9778
  780MOL0     C 7558   2.300   2.143   2.819 -0.6547  0.1213 -0.1591
  780MOL0     C 7559   2.339   2.024   2.879  0.2664  0.0499 -0.7188
  780MOL0     C 7560   2.278   1.911   2.843 -0.0981  0.5646 -0.1677
  780MOL0     O 7561   2.291   1.786   2.894  0.4814 -0.9054  0.3169
  780MOL0     C 7562   2.403   1.749   2.973 -0.3409 -0.3414  0.2868
  780MOL0     C 7563   2.374   1.620   3.047  0.0925  0.5705 -0.1459
  780MOL0     C 7564   2.376   1.494   2.956 -0.1614  0.2711  0.1653
  780MOL0     C 7565   2.232   1.487   2.877 -0.8183 -0.2720  0.4330
  780MOL0     C 7566   2.186   1.351   2.851  0.8942  0.1478 -0.2849
  780MOL0     C 7567   2.156   1.235   2.826  0.9130 -0.5643 -0.0070
  780MOL0     C 7568   2.184   1.915   2.730 -0.2512  0.2135  0.2145
  780MOL0     C 7569   2.160   2.032   2.655 -0.0816  0.4170 -0.3677
  780MOL0     C 7570   2.083   2.021   2.528  0.0673  0.8751  0.2144
  780MOL0     H 7571   2.239   2.603   2.861  3.4692 -1.5561  0.3661
  780MOL0     H 7572   2.257   2.850   2.768 -3.3239 -0.8415  3.1417
  780MOL0     H 7573   2.281   2.920   2.317  2.2262  0.0448 -0.9002
  780MOL0     H 7574   2.425   2.911   2.400 -0.1615 -1.0169 -0.9632
  780MOL0     H 7575   2.371   3.165   2.489 -1.4915  2.9969 -1.4407
  780MOL0     H 7576   2.455   3.116   2.353  0.9030 -2.1716  1.7369
  780MOL0     H 7577   2.198   3.114   2.241  1.5782 -0.0507  0.0520
  780MOL0     H 7578   2.165   3.196   2.393  0.0423  0.6323 -0.0501
  780MOL0     H 7579   2.336   3.377   2.329  0.4164 -1.2335  0.1969
  780MOL0     H 7580   2.372   3.289   2.189  1.0607 -0.2475  0.0826
  780MOL0     H 7581   2.218   3.494   2.179  4.1086 -0.8932  0.1822
  780MOL0     H 7582   2.090   3.391   2.258  1.0610  0.4528  1.0043
  780MOL0     H 7583   2.230   3.336   1.984  0.3541  0.2696 -0.2599
  780MOL0     H 7584   2.093   3.244   2.056  1.8016 -0.0860  1.3019
  780MOL0     H 7585   2.009   3.416   1.889  1.4847 -2.1364 -0.9976
  780MOL0     H 7586   2.088   3.534   1.982 -1.4898  0.0267  0.1091
  780MOL0     H 7587   1.851   3.370   2.098 -3.7633  1.0894  0.4213
  780MOL0     H 7588   1.915   3.518   2.168 -0.0995  4.6332 -2.1248
  780MOL0     H 7589   1.735   3.409   1.825  2.2898  0.0122 -0.6905
  780MOL0     H 7590   1.510   3.719   1.769 -0.6806 -1.8832 -0.3223
  780MOL0     H 7591   1.555   3.560   1.694  4.5574 -0.9626 -1.8390
  780MOL0     H 7592   1.720   3.632   1.572  1.0704 -0.1619  0.7946
  780MOL0     H 7593   1.574   3.740   1.550  1.2093  2.0758 -1.1775
  780MOL0     H 7594   1.718   3.897   1.725  1.6242  1.1238  0.2102
  780MOL0     H 7595   1.843   3.772   1.691  0.2397 -0.4728 -3.6708
  780MOL0     H 7596   1.851   3.979   1.558  0.2096 -1.7446  1.6870
  780MOL0     H 7597   1.809   3.848   1.447  2.5596  0.2651  1.0172
  780MOL0     H 7598   1.895   4.032   1.360  0.4777  1.7866 -0.0172
  780MOL0     H 7599   1.944   4.105   1.020  4.9832  0.1866 -1.0394
  780MOL0     H 7600   2.014   4.051   1.172 -1.5740 -0.9034 -1.8867
  780MOL0     H 7601   2.003   4.214   1.139  3.6837 -3.4034 -0.2291
  780MOL0     H 7602   1.613   4.406   0.744 -3.2701 -0.6390 -3.0827
  780MOL0     H 7603   1.627   4.434   0.512  2.2381  0.2949 -0.7124
  780MOL0     H 7604   1.623   4.119   0.308  0.0811  1.6312  2.4660
  780MOL0     H 7605   1.654   4.226   0.172  0.7210 -0.3421 -0.1954
  780MOL0     H 7606   1.826   4.114   0.106 -1.4326 -0.0813  0.1131
  780MOL0     H 7607   1.908   4.116   0.264 -1.6639  7.3151 -0.0227
  780MOL0     H 7608   1.698   3.903   0.184 -0.4516 -0.7611 -0.8106
  780MOL0     H 7609   1.808   3.913   0.326  1.2373 -1.3310 -0.6137
  780MOL0     H 7610   1.935   3.781   0.177 -1.7589  0.0697  2.7769
  780MOL0     H 7611   2.004   3.944   0.168  0.5436 -1.3083  0.6482
  780MOL0     H 7612   1.791   3.915  -0.033  0.0137 -1.4767 -1.6383
  780MOL0     H 7613   1.946   3.991  -0.034  0.5125  0.0275  0.3289
  780MOL0     H 7614   2.060   3.750  -0.062  0.2239 -0.7250 -0.9998
  780MOL0     H 7615   1.949   3.789  -0.192  2.0021  1.0533 -1.0070
  780MOL0     H 7616   1.838   3.626   0.045 -1.9928  0.9115 -0.9020
  780MOL0     H 7617   1.944   3.560  -0.084  0.5312  2.2497  0.0673
  780MOL0     H 7618   1.751   3.500  -0.171 -2.4123 -0.3947  3.1207
  780MOL0     H 7619   1.782   3.663  -0.246 -0.1244 -1.3558  0.9355
  780MOL0     H 7620   1.845   4.066   0.488  5.2787  1.6389  2.5604
  780MOL0     H 7621   1.820   4.025   0.730 -0.7231  0.0550  0.9470
  780MOL0     H 7622   1.494   4.217   1.139 -0.0279 -2.0735  1.5416
  780MOL0     H 7623   1.463   4.077   1.359 -1.3802  1.9446 -0.1198
  780MOL0     H 7624   2.262   2.691   2.368  1.4745 -1.0161 -0.3368
  780MOL0     H 7625   2.239   2.467   2.452  1.5262 -2.4143  2.0517
  780MOL0     H 7626   2.346   2.231   2.862  1.2242  0.6031 -2.8389
  780MOL0     H 7627   2.404   2.039   2.964 -3.3990 -1.4358  2.6636
  780MOL0     H 7628   2.495   1.731   2.917 -1.1166  1.1375 -1.5574
  780MOL0     H 7629   2.433   1.827   3.044 -3.1223  0.9113  0.2106
  780MOL0     H 7630   2.280   1.622   3.103 -1.1750  0.2499 -2.1894
  780MOL0     H 7631   2.451   1.614   3.125  0.0507 -2.1497 -0.2276
  780MOL0     H 7632   2.458   1.496   2.883 -1.4704  0.0441 -1.3774
  780MOL0     H 7633   2.387   1.400   3.011 -2.6496 -0.3155 -0.2220
  780MOL0     H 7634   2.244   1.538   2.781 -1.5059  0.8288  0.9041
  780MOL0     H 7635   2.152   1.536   2.934 -1.9225 -0.6006 -0.7733
  780MOL0     H 7636   2.139   1.129   2.820  0.0160 -0.4023 -0.6717
  780MOL0     H 7637   2.157   1.816   2.693  1.3665 -0.7136  1.3372
  780MOL0     H 7638   2.134   2.071   2.445  1.0605  0.3928  0.5240
  780MOL0     H 7639   2.085   1.913   2.510 -0.0498  0.8425  0.3939
  780MOL0     H 7640   1.980   2.055   2.518  0.2287  0.7310 -2.8792
  781MOL0     O 7641   6.999   4.563   0.566 -0.0190 -0.1341  0.6032
  781MOL0     C 7642   7.087   4.539   0.487 -0.0862 -0.0807 -0.4348
  781MOL0     O 7643   7.211   4.595   0.493  0.1709  0.3446 -0.5779
  781MOL0     C 7644   7.235   4.700   0.576  0.4602 -0.6411 -0.8130
  781MOL0     C 7645   7.361   4.696   0.642  0.9436 -0.4157  0.5031
  781MOL0     C 7646   7.396   4.798   0.732  0.0907  0.3501  0.2708
  781MOL0     C 7647   7.326   4.917   0.736  0.3407  0.9357  1.0490
  781MOL0     O 7648   7.366   5.040   0.781 -0.8447  0.4336 -0.1463
  781MOL0     C 7649   7.501   5.073   0.774 -0.0882  1.1152 -0.3267
  781MOL0     C 7650   7.521   5.214   0.821 -0.1127 -0.8027  0.1041
  781MOL0     C 7651   7.419   5.254   0.934 -0.4707  0.1224  0.7438
  781MOL0     C 7652   7.440   5.173   1.061 -0.8239 -0.1414 -0.7805
  781MOL0     C 7653   7.350   5.235   1.172 -0.6281 -0.0527 -1.3191
  781MOL0     C 7654   7.394   5.185   1.309  0.9148 -0.3874  0.2642
  781MOL0     C 7655   7.529   5.233   1.359  0.3033 -0.5567 -0.7440
  781MOL0     C 7656   7.545   5.223   1.510 -0.0547  0.5280  0.0315
  781MOL0     N 7657   7.576   5.088   1.555  0.1599  0.0727  0.6923
  781MOL0     C 7658   7.486   4.996   1.595 -0.2869  0.0269  1.3108
  781MOL0     C 7659   7.568   4.889   1.628  0.1485  0.2298  0.4912
  781MOL0     C 7660   7.522   4.759   1.691 -0.3066  0.7330 -0.1734
  781MOL0     C 7661   7.587   4.741   1.832  0.2913 -0.5107  0.9637
  781MOL0     C 7662   7.504   4.669   1.934  0.7306  0.2340  0.2924
  781MOL0     C 7663   7.452   4.535   1.902 -0.1115  0.2645  0.0019
  781MOL0     O 7664   7.566   4.438   1.915  0.5396  0.8523 -0.6034
  781MOL0     C 7665   7.556   4.331   2.000 -0.4234 -0.3690  0.7213
  781MOL0     C 7666   7.679   4.277   2.031  0.1400 -0.7580  1.0942
  781MOL0     C 7667   7.688   4.160   2.110  0.1857 -0.5771  0.3999
  781MOL0     C 7668   7.825   4.112   2.156  0.5144 -0.8662  0.3975
  781MOL0     C 7669   7.569   4.106   2.164  0.4008  0.2236  0.8871
  781MOL0     C 7670   7.579   4.003   2.271  0.5041  0.1780 -0.8993
  781MOL0     O 7671   7.486   4.033   2.378 -0.2739  0.6244  0.5963
  781MOL0     C 7672   7.492   3.966   2.492 -0.4582  0.6341 -0.4761
  781MOL0     C 7673   7.610   3.954   2.560  0.5963  0.1133  0.2371
  781MOL0     C 7674   7.617   3.894   2.688 -0.3170 -0.1399 -0.1966
  781MOL0     C 7675   7.502   3.853   2.756 -0.3680 -0.9879  0.0758
  781MOL0     O 7676   7.508   3.816   2.891  0.2130 -0.0083 -0.2624
  781MOL0     C 7677   7.405   3.742   2.950  0.0137  0.6496 -0.3218
  781MOL0     C 7678   7.447   3.713   3.100 -0.4408 -0.3602 -0.1130
  781MOL0     C 7679   7.498   3.842   3.173 -0.3822 -0.2819  0.7979
  781MOL0     C 7680   7.559   3.809   3.314  0.5936  0.8933 -0.1502
  781MOL0     C 7681   7.636   3.913   3.375  0.3885  0.3050 -0.9222
  781MOL0     C 7682   7.570   4.028   3.449  0.6747 -0.6576  0.2570
  781MOL0     C 7683   7.493   3.991   3.571  0.3235 -0.7595 -0.0078
  781MOL0     C 7684   7.464   4.090   3.682 -1.0452  0.2244 -1.1978
  781MOL0    Cl 7685   7.607   4.100   3.778 -0.8247  0.0985 -0.3056
  781MOL0     C 7686   7.390   3.859   2.683 -0.4127 -0.5673 -0.5024
  781MOL0     C 7687   7.382   3.911   2.554 -0.2482  0.1577  0.7080
  781MOL0     O 7688   7.661   3.915   2.271  0.1154  0.1578  0.1571
  781MOL0     C 7689   7.444   4.166   2.136 -0.1130 -0.7582 -0.2158
  781MOL0     C 7690   7.435   4.285   2.060 -0.6660 -0.3582 -0.5005
  781MOL0     N 7691   7.699   4.913   1.584  0.4061 -1.0808 -0.3445
  781MOL0     N 7692   7.698   5.036   1.538 -1.0501 -0.2641 -1.1403
  781MOL0     C 7693   7.205   4.924   0.659 -0.2719  0.1831 -0.2526
  781MOL0     C 7694   7.158   4.816   0.590 -0.9337 -0.0272  0.3186
  781MOL0     C 7695   7.083   4.427   0.397 -0.1280  0.0052  0.2565
  781MOL0     C 7696   7.200   4.368   0.358  0.0907  0.1326 -0.3530
  781MOL0     C 7697   7.203   4.242   0.301 -0.1388 -0.2840  0.4222
  781MOL0     C 7698   7.080   4.188   0.256 -0.4730 -0.0626  0.2307
  781MOL0     O 7699   7.058   4.057   0.204  0.5627  0.4225 -0.1620
  781MOL0     C 7700   7.161   4.003   0.130 -0.2513 -0.0325 -0.4980
  781MOL0     C 7701   7.195   4.095   0.001  0.6233 -0.0040  0.4616
  781MOL0     C 7702   7.083   4.097  -0.102  0.8036  0.2087  0.8834
  781MOL0     C 7703   7.105   4.185  -0.227  0.5575 -1.9182  0.2077
  781MOL0     C 7704   7.000   4.181  -0.333  1.0644 -0.2261 -0.0546
  781MOL0     C 7705   6.917   4.171  -0.420  0.0515 -0.2334 -0.8404
  781MOL0     C 7706   6.963   4.256   0.284 -0.0254 -0.7222  0.4219
  781MOL0     C 7707   6.966   4.370   0.356  0.6943 -0.7323 -0.6664
  781MOL0     C 7708   6.830   4.406   0.418  0.0811  0.5591  0.1061
  781MOL0     H 7709   7.425   4.612   0.615 -0.8013 -1.2127 -1.4370
  781MOL0     H 7710   7.490   4.789   0.785  0.3758 -3.8628 -0.5385
  781MOL0     H 7711   7.556   5.051   0.683  2.4635  0.7750  1.2078
  781MOL0     H 7712   7.550   5.022   0.858  0.7353  2.5682  0.1091
  781MOL0     H 7713   7.624   5.234   0.849 -0.7720 -0.2444  2.3485
  781MOL0     H 7714   7.495   5.280   0.738 -3.7388 -0.4096  1.3591
  781MOL0     H 7715   7.427   5.360   0.960  5.4205  0.2460 -0.1638
  781MOL0     H 7716   7.316   5.225   0.910 -0.3142 -2.0978  2.3983
  781MOL0     H 7717   7.415   5.067   1.045  1.9801 -1.2602  1.3379
  781MOL0     H 7718   7.546   5.193   1.079 -0.6689  0.9386 -2.5982
  781MOL0     H 7719   7.244   5.219   1.149 -0.7138 -0.3545 -0.7436
  781MOL0     H 7720   7.362   5.343   1.177  0.6420 -0.1781  3.1049
  781MOL0     H 7721   7.319   5.234   1.371  1.8380  1.4264  0.0235
  781MOL0     H 7722   7.391   5.077   1.327  0.2722 -0.4235 -0.0327
  781MOL0     H 7723   7.539   5.339   1.337  0.9133 -0.1956  1.1235
  781MOL0     H 7724   7.609   5.175   1.311 -0.8844 -1.2557 -1.9595
  781MOL0     H 7725   7.627   5.290   1.538 -0.9603  1.8865 -0.4438
  781MOL0     H 7726   7.459   5.275   1.555 -3.0452 -1.4261 -2.9268
  781MOL0     H 7727   7.378   5.005   1.600 -0.3329 -0.4591  1.3021
  781MOL0     H 7728   7.526   4.671   1.626 -1.6890  0.7663 -0.3424
  781MOL0     H 7729   7.412   4.760   1.695 -0.5047 -1.5807 -2.4623
  781MOL0     H 7730   7.677   4.679   1.821  0.3079 -0.2129 -0.8015
  781MOL0     H 7731   7.613   4.838   1.874 -2.9685  1.3391 -0.8527
  781MOL0     H 7732   7.557   4.650   2.027 -0.0964 -1.2174  0.4923
  781MOL0     H 7733   7.417   4.734   1.954  0.9900 -0.4055  4.3067
  781MOL0     H 7734   7.376   4.529   1.980  0.8808  2.6704  1.2411
  781MOL0     H 7735   7.407   4.512   1.805  1.0587 -0.5915 -0.3646
  781MOL0     H 7736   7.769   4.329   2.001 -0.6868  0.8874  1.3306
  781MOL0     H 7737   7.909   4.177   2.130 -0.0135  0.7951  2.4990
  781MOL0     H 7738   7.832   4.010   2.117  0.8084 -0.7879  0.2472
  781MOL0     H 7739   7.821   4.118   2.265 -1.3257  1.0679  0.2852
  781MOL0     H 7740   7.690   4.018   2.527  0.3144  0.7170  0.7052
  781MOL0     H 7741   7.718   3.891   2.729  0.7447  0.9830 -2.5082
  781MOL0     H 7742   7.322   3.811   2.965 -0.2072 -0.0018  1.6842
  781MOL0     H 7743   7.372   3.654   2.893 -3.4461  0.0808  2.2076
  781MOL0     H 7744   7.365   3.681   3.165 -2.0789 -1.1233 -2.3996
  781MOL0     H 7745   7.523   3.635   3.098  1.0858  1.0163  1.4198
  781MOL0     H 7746   7.416   3.914   3.185 -0.1740  0.0104  0.4634
  781MOL0     H 7747   7.580   3.885   3.115  0.6761 -2.3843  0.6537
  781MOL0     H 7748   7.611   3.714   3.303 -0.7703 -0.1287  1.6505
  781MOL0     H 7749   7.477   3.784   3.383  0.2658  0.8347 -0.5570
  781MOL0     H 7750   7.711   3.870   3.441 -0.7463  0.2388  0.3846
  781MOL0     H 7751   7.689   3.944   3.284  1.0695  1.9041 -0.0359
  781MOL0     H 7752   7.503   4.071   3.375  0.1807 -0.7023  0.6734
  781MOL0     H 7753   7.642   4.105   3.480 -2.1658  3.5398 -2.5232
  781MOL0     H 7754   7.548   3.914   3.627 -1.5093 -3.9333 -2.2175
  781MOL0     H 7755   7.406   3.945   3.524  1.1066 -0.3715 -1.9570
  781MOL0     H 7756   7.383   4.053   3.746  1.7358 -2.8140  0.8371
  781MOL0     H 7757   7.430   4.186   3.643 -0.1222  1.1442  0.1630
  781MOL0     H 7758   7.291   3.836   2.722 -0.5642  2.6189  1.2850
  781MOL0     H 7759   7.282   3.919   2.514 -0.5433 -1.1811  1.1078
  781MOL0     H 7760   7.351   4.115   2.162 -0.2698 -0.6666 -0.5830
  781MOL0     H 7761   7.336   4.327   2.050 -1.3664 -1.4723  1.2190
  781MOL0     H 7762   7.155   5.021   0.654  0.4627  0.5238 -1.8434
  781MOL0     H 7763   7.063   4.835   0.542  0.3809  0.5066 -2.2091
  781MOL0     H 7764   7.302   4.399   0.380  0.6971  0.1003 -2.7761
  781MOL0     H 7765   7.286   4.174   0.321 -0.9676 -1.0385  1.3824
  781MOL0     H 7766   7.257   4.010   0.182  0.1396  1.6535 -1.3618
  781MOL0     H 7767   7.150   3.900   0.096 -1.3799  0.3544 -1.3711
  781MOL0     H 7768   7.285   4.056  -0.048  1.2907  1.0647  0.8074
  781MOL0     H 7769   7.216   4.194   0.040 -1.5381 -0.1265  2.1395
  781MOL0     H 7770   7.063   4.001  -0.150  0.6455  1.9307 -2.8530
  781MOL0     H 7771   6.985   4.122  -0.061  0.3904 -2.8533  2.0438
  781MOL0     H 7772   7.200   4.163  -0.277  0.1048 -3.0968 -0.1538
  781MOL0     H 7773   7.114   4.289  -0.194  1.1846 -1.7205 -0.5441
  781MOL0     H 7774   6.838   4.161  -0.491  0.6798  0.5261 -1.6646
  781MOL0     H 7775   6.871   4.207   0.254 -0.5892  0.1298  0.6907
  781MOL0     H 7776   6.756   4.327   0.400  0.3422  0.4643 -0.5755
  781MOL0     H 7777   6.828   4.409   0.528  1.4894 -1.2714  0.2260
  781MOL0     H 7778   6.793   4.504   0.387 -1.6274 -0.0532  0.0653
  782MOL0     O 7779   4.145  10.460   8.756 -0.2491  0.8045 -0.3282
  782MOL0     C 7780   4.234  10.448   8.839  0.7520 -0.1808 -0.4778
  782MOL0     O 7781   4.312  10.340   8.864  0.0390  1.0892  0.2847
  782MOL0     C 7782   4.276  10.212   8.821 -0.4222  1.2337 -0.2428
  782MOL0     C 7783   4.256  10.116   8.915  0.0791 -0.2406 -0.3348
  782MOL0     C 7784   4.216   9.987   8.879  0.0933  0.2279  0.2816
  782MOL0     C 7785   4.207   9.957   8.743  0.8753 -0.2316  0.0406
  782MOL0     O 7786   4.163   9.828   8.704 -0.2233 -0.4048 -0.3036
  782MOL0     C 7787   4.167   9.795   8.558 -0.5148  0.5282  0.4396
  782MOL0     C 7788   4.091   9.664   8.528 -0.4099 -0.2555  0.7843
  782MOL0     C 7789   4.122   9.596   8.390 -0.1718 -0.1784  0.4329
  782MOL0     C 7790   4.105   9.698   8.262  0.1273 -0.0745 -0.2942
  782MOL0     C 7791   4.087   9.607   8.138  0.1622  0.5676 -0.3074
  782MOL0     C 7792   4.040   9.684   8.007 -0.3606  1.5174 -0.9216
  782MOL0     C 7793   4.133   9.793   7.963  1.0004  0.2727  0.2784
  782MOL0     C 7794   4.072   9.873   7.847  0.4398  0.6071 -0.1121
  782MOL0     N 7795   3.960   9.960   7.880 -0.9572 -0.3231 -1.0896
  782MOL0     C 7796   3.825   9.933   7.879  0.0472  0.6629  0.6362
  782MOL0     C 7797   3.767  10.042   7.936  0.7376  0.4747 -1.8432
  782MOL0     C 7798   3.614  10.054   7.958 -0.3341 -0.7554  0.1240
  782MOL0     C 7799   3.592  10.053   8.110 -0.1087  0.6098 -0.2838
  782MOL0     C 7800   3.459  10.105   8.143  0.5208  0.8788  0.3950
  782MOL0     C 7801   3.459  10.106   8.295  0.2768  0.2075 -0.7031
  782MOL0     O 7802   3.540  10.219   8.333 -0.1149 -0.5920  0.2385
  782MOL0     C 7803   3.482  10.342   8.357 -0.8964  1.0382  0.2197
  782MOL0     C 7804   3.365  10.381   8.290 -0.0628  0.3468 -0.2886
  782MOL0     C 7805   3.298  10.501   8.304  0.9571  1.2505 -0.2386
  782MOL0     C 7806   3.150  10.502   8.249 -0.0537  0.4090 -1.2040
  782MOL0     C 7807   3.368  10.604   8.370 -0.5986 -0.6150  0.5605
  782MOL0     C 7808   3.311  10.742   8.409 -0.6286 -0.5096 -0.0713
  782MOL0     O 7809   3.366  10.795   8.523 -0.0924  0.6636  0.1051
  782MOL0     C 7810   3.338  10.914   8.580 -0.2192 -0.5316 -0.0116
  782MOL0     C 7811   3.229  10.999   8.546  0.5891  0.6014  0.6437
  782MOL0     C 7812   3.194  11.111   8.616  0.3143  0.5149 -1.1175
  782MOL0     C 7813   3.261  11.136   8.739  0.9646 -0.8324 -0.6028
  782MOL0     O 7814   3.203  11.243   8.815  0.1212  0.0906 -0.6405
  782MOL0     C 7815   3.267  11.297   8.932 -1.0042  0.7016  0.3350
  782MOL0     C 7816   3.205  11.428   8.977  1.4599  0.1231  0.2441
  782MOL0     C 7817   3.062  11.422   9.041 -1.1151 -0.6918 -0.1506
  782MOL0     C 7818   2.962  11.516   8.977  0.2424 -0.1269  0.2580
  782MOL0     C 7819   2.816  11.495   9.035  0.2274  1.1199  0.1743
  782MOL0     C 7820   2.724  11.569   8.933  0.2223  0.4736 -0.7863
  782MOL0     C 7821   2.583  11.557   8.992 -0.6758 -0.9045  0.2626
  782MOL0     C 7822   2.490  11.688   8.979  0.1433  0.8452  0.5910
  782MOL0    Cl 7823   2.477  11.723   8.810  0.0405 -0.1236  0.2095
  782MOL0     C 7824   3.366  11.058   8.778  0.4608  0.0781  0.1448
  782MOL0     C 7825   3.411  10.954   8.698  0.4035 -0.3547 -0.8414
  782MOL0     O 7826   3.224  10.783   8.332 -0.0770 -0.6829 -0.7145
  782MOL0     C 7827   3.495  10.565   8.431  0.2475 -1.0799  0.4693
  782MOL0     C 7828   3.553  10.435   8.428  0.1320 -1.0458 -0.5632
  782MOL0     N 7829   3.867  10.143   7.962 -0.5074  0.2256 -0.0955
  782MOL0     N 7830   3.977  10.097   7.917 -0.9325 -0.4430  0.2629
  782MOL0     C 7831   4.251  10.054   8.645  0.7458 -0.1219 -0.6437
  782MOL0     C 7832   4.280  10.183   8.687 -0.5776 -0.0325  0.4502
  782MOL0     C 7833   4.271  10.573   8.912  0.1208 -0.0420 -0.2812
  782MOL0     C 7834   4.408  10.594   8.941 -0.4808 -0.1920  0.0889
  782MOL0     C 7835   4.446  10.701   9.015 -0.0210  0.4987  0.3010
  782MOL0     C 7836   4.354  10.791   9.075  0.5519 -0.0203  0.0399
  782MOL0     O 7837   4.378  10.900   9.160 -0.0158 -0.5595 -0.0315
  782MOL0     C 7838   4.515  10.922   9.200  0.2652  0.0028  0.1811
  782MOL0     C 7839   4.566  10.841   9.321 -0.8478 -0.9537 -0.0296
  782MOL0     C 7840   4.471  10.828   9.444  0.2153 -0.3870 -0.5951
  782MOL0     C 7841   4.536  10.798   9.578 -1.7564 -0.2556  0.0706
  782MOL0     C 7842   4.626  10.678   9.577  0.0746 -0.7350  0.5827
  782MOL0     C 7843   4.685  10.570   9.579  0.7832 -0.6152 -0.5074
  782MOL0     C 7844   4.215  10.772   9.039  0.1072  0.1167 -0.7461
  782MOL0     C 7845   4.173  10.669   8.966 -0.4845  0.8947  1.0109
  782MOL0     C 7846   4.025  10.649   8.929  0.2360  0.6546  0.0763
  782MOL0     H 7847   4.269  10.150   9.017 -1.8386 -0.6778  0.0800
  782MOL0     H 7848   4.200   9.903   8.947 -1.6060  1.1193  1.0528
  782MOL0     H 7849   4.270   9.766   8.536 -0.9414 -2.0312  1.4723
  782MOL0     H 7850   4.132   9.871   8.488  0.9863  0.3021 -0.6130
  782MOL0     H 7851   4.111   9.593   8.609 -1.9560 -1.2331  0.3647
  782MOL0     H 7852   3.988   9.700   8.541  0.5178  2.0268  2.4920
  782MOL0     H 7853   4.226   9.566   8.378 -0.3510  0.1501 -3.0652
  782MOL0     H 7854   4.074   9.501   8.368  0.6569 -0.0477 -2.3437
  782MOL0     H 7855   4.025   9.771   8.273 -1.2512 -1.4646 -0.7894
  782MOL0     H 7856   4.202   9.749   8.252 -0.2992  0.8067  0.0141
  782MOL0     H 7857   4.018   9.530   8.171  2.3268 -1.4955 -0.3107
  782MOL0     H 7858   4.189   9.573   8.114  0.7158  0.3255  2.1797
  782MOL0     H 7859   4.041   9.618   7.921  0.8122  0.8124 -0.3909
  782MOL0     H 7860   3.944   9.733   8.026 -0.9746  0.4372 -1.2056
  782MOL0     H 7861   4.229   9.750   7.933  0.6974  1.0622 -2.0099
  782MOL0     H 7862   4.137   9.865   8.046 -1.8282 -0.4521  1.1516
  782MOL0     H 7863   4.144   9.937   7.793  0.7590 -0.8396 -1.4971
  782MOL0     H 7864   4.038   9.802   7.771  3.4173 -0.7021 -0.3857
  782MOL0     H 7865   3.778   9.835   7.868  3.3219 -1.1180  1.0718
  782MOL0     H 7866   3.563   9.964   7.923 -1.6401  0.0122 -0.0385
  782MOL0     H 7867   3.576  10.135   7.896 -0.7817 -0.6948  0.4717
  782MOL0     H 7868   3.597   9.953   8.154 -3.4997  0.7238  0.6905
  782MOL0     H 7869   3.663  10.122   8.157 -0.7625 -0.6026  2.6660
  782MOL0     H 7870   3.438  10.204   8.100 -1.6753 -0.6497 -2.3365
  782MOL0     H 7871   3.381  10.047   8.095  0.7731  0.8672 -0.0126
  782MOL0     H 7872   3.354  10.114   8.326 -0.7366  1.1822 -3.9849
  782MOL0     H 7873   3.503  10.023   8.351 -0.4765 -0.0841 -0.5207
  782MOL0     H 7874   3.311  10.308   8.231  1.9503 -1.2524 -0.2362
  782MOL0     H 7875   3.091  10.410   8.241 -1.6392  1.2377  0.1646
  782MOL0     H 7876   3.164  10.523   8.143  0.7383  0.6007 -1.0704
  782MOL0     H 7877   3.083  10.578   8.291  0.6427  0.6296 -0.4552
  782MOL0     H 7878   3.160  10.964   8.470  3.0412 -1.0533 -0.9542
  782MOL0     H 7879   3.111  11.173   8.583  0.6246  1.2668 -0.5142
  782MOL0     H 7880   3.270  11.236   9.023  0.8548 -1.0758 -0.8442
  782MOL0     H 7881   3.368  11.314   8.894 -1.6733 -0.0969 -1.9787
  782MOL0     H 7882   3.268  11.480   9.049  2.7028 -1.3306  0.2553
  782MOL0     H 7883   3.206  11.492   8.888  3.6407  0.2259  0.2978
  782MOL0     H 7884   3.067  11.449   9.147 -2.8617  1.4986 -0.5432
  782MOL0     H 7885   3.033  11.318   9.025  1.0951 -1.8207  2.4698
  782MOL0     H 7886   2.979  11.487   8.872 -0.5811  1.3997 -0.3253
  782MOL0     H 7887   2.987  11.622   8.985  0.7809 -0.3732  2.3780
  782MOL0     H 7888   2.796  11.389   9.015 -2.6849  1.8782 -1.5035
  782MOL0     H 7889   2.805  11.521   9.140 -1.2233 -1.5288  0.7793
  782MOL0     H 7890   2.745  11.549   8.828 -3.8957  2.2635 -2.1574
  782MOL0     H 7891   2.746  11.676   8.939  1.2614  0.5025 -3.5888
  782MOL0     H 7892   2.584  11.534   9.099  1.6827 -0.4617  0.3758
  782MOL0     H 7893   2.529  11.481   8.935  0.8449 -2.2854  0.5986
  782MOL0     H 7894   2.536  11.778   9.021  0.1193  1.7291 -1.1986
  782MOL0     H 7895   2.394  11.674   9.029  1.3233 -0.7666  2.5722
  782MOL0     H 7896   3.411  11.092   8.871  1.1132  1.6271 -0.7266
  782MOL0     H 7897   3.494  10.887   8.719  0.3445  0.0804  0.9324
  782MOL0     H 7898   3.535  10.639   8.500 -1.0333 -0.6495  0.7719
  782MOL0     H 7899   3.634  10.419   8.498 -0.6910  0.4311  0.7840
  782MOL0     H 7900   4.259  10.040   8.537 -2.9460 -0.6686 -0.9774
  782MOL0     H 7901   4.299  10.256   8.610 -3.8246 -0.8045 -1.2315
  782MOL0     H 7902   4.479  10.516   8.916 -1.1197 -0.0721 -2.3243
  782MOL0     H 7903   4.552  10.708   9.036 -0.1124  0.1950  0.8829
  782MOL0     H 7904   4.588  10.910   9.120  0.1390  1.0635 -0.1118
  782MOL0     H 7905   4.516  11.030   9.214 -2.0944  0.4232 -2.0715
  782MOL0     H 7906   4.655  10.894   9.357 -1.0080 -1.3571  0.9787
  782MOL0     H 7907   4.594  10.738   9.300 -0.6956 -0.5306 -2.1723
  782MOL0     H 7908   4.413  10.918   9.467  2.5312  0.8958  0.7309
  782MOL0     H 7909   4.404  10.745   9.423 -0.2985 -0.1532  0.0836
  782MOL0     H 7910   4.462  10.778   9.657 -4.2738  2.5823 -1.3855
  782MOL0     H 7911   4.592  10.886   9.610 -0.6164 -1.3139  1.1209
  782MOL0     H 7912   4.736  10.477   9.593  0.7242 -0.6180 -0.3185
  782MOL0     H 7913   4.147  10.844   9.086  0.4404  0.9923 -1.5701
  782MOL0     H 7914   3.979  10.570   8.990 -0.8405  0.7936 -0.5352
  782MOL0     H 7915   3.958  10.729   8.962 -0.7222  0.0655 -0.4008
  782MOL0     H 7916   4.005  10.623   8.825  2.4990 -1.8930  0.1840
  783MOL0     O 7917   3.885   4.767   2.763  0.4780 -0.2139 -0.1557
  783MOL0     C 7918   3.807   4.703   2.833 -0.6684  0.0583  0.3166
  783MOL0     O 7919   3.777   4.576   2.809 -0.4807 -0.3140 -0.0073
  783MOL0     C 7920   3.865   4.488   2.751 -1.0413 -0.3716 -0.6989
  783MOL0     C 7921   4.004   4.508   2.723 -0.1766 -0.1872 -0.5444
  783MOL0     C 7922   4.086   4.406   2.656 -0.4357 -0.0710  0.1017
  783MOL0     C 7923   4.015   4.296   2.608 -0.5368 -0.0545 -0.7189
  783MOL0     O 7924   4.093   4.217   2.527  0.6131  0.2502 -0.4998
  783MOL0     C 7925   4.048   4.082   2.498 -0.4612  0.4861 -0.6601
  783MOL0     C 7926   4.144   4.034   2.389 -1.8762  1.2911  0.2827
  783MOL0     C 7927   4.069   3.979   2.267 -0.1575  0.6438 -0.2469
  783MOL0     C 7928   4.168   3.924   2.167 -0.6376  0.2158  0.8180
  783MOL0     C 7929   4.112   3.821   2.066 -0.1326 -0.4255 -0.3171
  783MOL0     C 7930   4.188   3.799   1.940  0.3639  0.4264  0.3005
  783MOL0     C 7931   4.152   3.675   1.863  1.1145 -0.5899 -0.3181
  783MOL0     C 7932   4.209   3.665   1.717  0.0856  0.0812 -0.6635
  783MOL0     N 7933   4.163   3.538   1.656 -0.1916 -0.2321  0.1670
  783MOL0     C 7934   4.090   3.528   1.540 -0.0887 -0.6567  0.7430
  783MOL0     C 7935   4.089   3.400   1.503  0.6482 -0.4984  0.4165
  783MOL0     C 7936   4.030   3.344   1.376 -0.5469  0.3281 -0.5248
  783MOL0     C 7937   4.031   3.192   1.387 -0.1206 -0.1603  0.1075
  783MOL0     C 7938   4.008   3.131   1.246 -1.7493 -0.5546  0.4194
  783MOL0     C 7939   3.997   2.980   1.236  0.7693 -0.9881  0.2519
  783MOL0     O 7940   4.087   2.926   1.337 -0.1078  1.1109  0.2591
  783MOL0     C 7941   4.124   2.790   1.316  0.1024 -0.1973 -0.1407
  783MOL0     C 7942   4.206   2.738   1.421  0.2420 -1.2968 -0.6999
  783MOL0     C 7943   4.235   2.604   1.434 -0.8016 -0.0078  0.7507
  783MOL0     C 7944   4.320   2.559   1.551 -0.5988 -0.2530 -0.7008
  783MOL0     C 7945   4.197   2.516   1.333  0.3477  0.3521  0.3561
  783MOL0     C 7946   4.220   2.370   1.329 -0.2076 -0.3206  0.4901
  783MOL0     O 7947   4.158   2.312   1.220  0.3582  0.5668 -0.1235
  783MOL0     C 7948   4.186   2.180   1.189 -0.7283 -0.4975 -0.0887
  783MOL0     C 7949   4.267   2.147   1.084 -0.6259  0.1723  0.7441
  783MOL0     C 7950   4.283   2.018   1.059 -0.1459  0.6122  0.9163
  783MOL0     C 7951   4.227   1.913   1.133 -0.4124  0.3482  1.2841
  783MOL0     O 7952   4.251   1.779   1.118  0.0929  0.4632  0.6088
  783MOL0     C 7953   4.371   1.740   1.044 -0.1332 -0.2015  0.5070
  783MOL0     C 7954   4.406   1.599   1.097  0.8680 -0.2532 -0.3825
  783MOL0     C 7955   4.531   1.537   1.033 -0.0607 -0.5140 -0.3714
  783MOL0     C 7956   4.639   1.634   1.011 -0.6576  0.3801 -0.1962
  783MOL0     C 7957   4.773   1.562   0.974  0.0337  0.5556 -0.9620
  783MOL0     C 7958   4.837   1.530   1.111  0.0612  0.1317 -0.3822
  783MOL0     C 7959   4.980   1.465   1.081 -0.7472 -0.3039  0.7759
  783MOL0     C 7960   4.970   1.309   1.050 -0.7547 -0.6725 -0.4593
  783MOL0    Cl 7961   5.123   1.256   0.973 -0.0758  0.0309  0.1257
  783MOL0     C 7962   4.152   1.951   1.243 -0.0226 -0.2945 -0.6806
  783MOL0     C 7963   4.125   2.089   1.265 -0.2300  0.1796 -0.2057
  783MOL0     O 7964   4.297   2.313   1.405  0.4349  0.1219  0.1183
  783MOL0     C 7965   4.113   2.570   1.232 -0.7246 -0.0183 -0.1946
  783MOL0     C 7966   4.070   2.701   1.227 -0.5994 -0.0129 -0.7491
  783MOL0     N 7967   4.145   3.330   1.612  0.2718 -0.4757  0.5783
  783MOL0     N 7968   4.195   3.414   1.696  0.0343 -0.0204 -0.4376
  783MOL0     C 7969   3.878   4.277   2.632 -0.7112  0.0128  0.3045
  783MOL0     C 7970   3.813   4.372   2.707 -0.1302 -0.0849 -0.5703
  783MOL0     C 7971   3.734   4.760   2.948  0.5072  0.3989  0.3853
  783MOL0     C 7972   3.668   4.674   3.042 -0.2645 -0.0220 -0.9124
  783MOL0     C 7973   3.593   4.721   3.148  0.3783  0.0069 -0.1240
  783MOL0     C 7974   3.581   4.855   3.172  0.1826 -0.5440 -0.1982
  783MOL0     O 7975   3.526   4.911   3.284 -0.2377  0.0109  0.5939
  783MOL0     C 7976   3.434   4.840   3.364  0.1847 -0.7436 -0.6315
  783MOL0     C 7977   3.342   4.941   3.433 -1.5422  0.9366  0.2909
  783MOL0     C 7978   3.220   4.989   3.351  0.5101 -0.2671 -0.0527
  783MOL0     C 7979   3.251   5.019   3.210 -0.1603  0.1024 -0.6077
  783MOL0     C 7980   3.135   5.056   3.139 -0.4508 -1.0471  0.0400
  783MOL0     C 7981   3.041   5.069   3.063 -0.9131  0.5339 -0.8479
  783MOL0     C 7982   3.637   4.941   3.074 -0.1448 -0.1469 -0.7990
  783MOL0     C 7983   3.720   4.899   2.970  0.2689 -0.1196 -0.0693
  783MOL0     C 7984   3.776   5.000   2.878 -0.0493  0.8515  1.0761
  783MOL0     H 7985   4.063   4.591   2.760  1.0850 -1.0837 -0.4561
  783MOL0     H 7986   4.190   4.420   2.629 -0.1244  1.7381  1.9852
  783MOL0     H 7987   3.944   4.082   2.462 -0.3363 -2.9278 -1.3812
  783MOL0     H 7988   4.038   4.028   2.593  0.3616  2.9881  0.9323
  783MOL0     H 7989   4.224   4.109   2.384 -1.3880  0.8570  1.2517
  783MOL0     H 7990   4.183   3.936   2.421 -2.4116 -0.4079 -3.7283
  783MOL0     H 7991   4.014   3.893   2.305  0.9865 -0.1210 -0.2698
  783MOL0     H 7992   4.001   4.054   2.226  1.2473  1.5623 -0.9802
  783MOL0     H 7993   4.224   4.001   2.114  0.7864 -2.1038 -1.3360
  783MOL0     H 7994   4.244   3.866   2.220 -0.3202  1.3119  1.5927
  783MOL0     H 7995   4.010   3.848   2.037 -0.0635 -0.6948 -0.8220
  783MOL0     H 7996   4.091   3.726   2.118 -0.5171 -1.8241 -2.8541
  783MOL0     H 7997   4.168   3.880   1.869  0.8987 -0.2029 -0.5906
  783MOL0     H 7998   4.293   3.815   1.966  1.3631  0.5664 -3.2995
  783MOL0     H 7999   4.043   3.667   1.859  1.2847 -3.5651 -2.7714
  783MOL0     H 8000   4.173   3.582   1.917 -1.7626 -0.8926  0.4664
  783MOL0     H 8001   4.182   3.756   1.662  0.3527 -0.1193 -1.1345
  783MOL0     H 8002   4.317   3.667   1.735  0.0919  0.2427 -0.7244
  783MOL0     H 8003   4.045   3.616   1.495  1.8889 -0.0993 -0.2671
  783MOL0     H 8004   4.082   3.377   1.286  0.5179 -1.2338 -0.5162
  783MOL0     H 8005   3.927   3.378   1.363 -1.6277 -2.8075 -0.9679
  783MOL0     H 8006   4.123   3.138   1.410 -1.1957 -1.4913  1.4711
  783MOL0     H 8007   3.950   3.166   1.456 -1.6720  1.9991 -0.7802
  783MOL0     H 8008   3.926   3.174   1.188 -1.0220  0.0266 -0.1937
  783MOL0     H 8009   4.093   3.144   1.179 -3.9992 -0.5783 -2.6833
  783MOL0     H 8010   3.892   2.958   1.261  0.3709  1.0654  0.5848
  783MOL0     H 8011   4.017   2.942   1.136  0.2003 -0.9869  0.1354
  783MOL0     H 8012   4.237   2.805   1.501  0.0421 -2.3163  0.2690
  783MOL0     H 8013   4.419   2.520   1.526 -1.0911 -3.1089  1.3425
  783MOL0     H 8014   4.274   2.475   1.605  1.6202 -0.3316  1.2198
  783MOL0     H 8015   4.335   2.641   1.621 -1.2758 -0.2090 -0.6014
  783MOL0     H 8016   4.323   2.215   1.020 -0.5226 -0.0903  0.5526
  783MOL0     H 8017   4.348   1.987   0.979  1.1474 -1.0171  2.5047
  783MOL0     H 8018   4.343   1.732   0.939  2.3004 -0.6364 -0.1666
  783MOL0     H 8019   4.448   1.817   1.052 -2.0990  2.0030 -0.5820
  783MOL0     H 8020   4.422   1.611   1.205  1.2309  1.7003 -0.6079
  783MOL0     H 8021   4.319   1.534   1.086  0.6850  0.1844 -1.5815
  783MOL0     H 8022   4.509   1.502   0.932 -1.5507 -0.6053 -0.0316
  783MOL0     H 8023   4.561   1.456   1.100 -1.4682 -1.6410 -1.0534
  783MOL0     H 8024   4.651   1.705   1.093 -1.0930  1.6377 -1.1831
  783MOL0     H 8025   4.606   1.685   0.920  2.3938  3.7993  0.3724
  783MOL0     H 8026   4.750   1.476   0.910 -3.8953 -0.3673  1.3356
  783MOL0     H 8027   4.837   1.639   0.932  0.3596  1.0455  0.3766
  783MOL0     H 8028   4.775   1.473   1.181 -1.1803  1.2895 -0.5015
  783MOL0     H 8029   4.847   1.630   1.153 -2.4647  1.3062 -2.2506
  783MOL0     H 8030   5.048   1.486   1.164  0.2984  1.7959 -0.5575
  783MOL0     H 8031   5.029   1.514   0.997 -1.5313 -1.8012 -0.6300
  783MOL0     H 8032   4.884   1.286   0.986  1.7999 -1.5616 -3.8395
  783MOL0     H 8033   4.953   1.264   1.148  1.2941  0.7067  0.5869
  783MOL0     H 8034   4.124   1.872   1.312  0.4012 -0.6787 -0.9447
  783MOL0     H 8035   4.072   2.128   1.352  1.8397  0.8636  0.8166
  783MOL0     H 8036   4.059   2.512   1.157  1.0345 -1.4935 -0.3964
  783MOL0     H 8037   4.005   2.742   1.149  0.1560  3.4986  0.2604
  783MOL0     H 8038   3.818   4.203   2.579  1.8443 -1.3083 -0.9786
  783MOL0     H 8039   3.710   4.352   2.737  0.4827  0.5149  2.1703
  783MOL0     H 8040   3.663   4.566   3.044 -4.1146 -0.0204 -1.4405
  783MOL0     H 8041   3.549   4.646   3.213 -0.5144 -0.7039 -1.5068
  783MOL0     H 8042   3.380   4.760   3.312  1.4479 -2.5866  0.7292
  783MOL0     H 8043   3.486   4.789   3.446 -2.3782 -0.0610  1.5490
  783MOL0     H 8044   3.409   5.023   3.463 -0.1589  0.1751 -0.5809
  783MOL0     H 8045   3.301   4.893   3.522  0.2961 -0.4406  0.4634
  783MOL0     H 8046   3.142   4.913   3.354  0.6257 -0.3977 -0.3472
  783MOL0     H 8047   3.189   5.086   3.393 -0.8073 -0.4075 -0.6457
  783MOL0     H 8048   3.278   4.925   3.162  0.0977 -1.0879  1.7415
  783MOL0     H 8049   3.332   5.092   3.198  0.0751 -0.1690 -0.6897
  783MOL0     H 8050   2.960   5.066   2.994  0.0082  1.4398 -2.0277
  783MOL0     H 8051   3.626   5.043   3.110  1.3502 -0.9643  2.3060
  783MOL0     H 8052   3.730   4.987   2.779 -0.9784  1.2530  1.4434
  783MOL0     H 8053   3.756   5.099   2.922 -0.3103 -0.0390  3.0632
  783MOL0     H 8054   3.883   5.020   2.870 -0.5400  3.2322 -1.1335
  784MOL0     O 8055   4.002   6.335   1.287 -0.0033 -0.0307 -0.2033
  784MOL0     C 8056   3.883   6.294   1.305  0.0616  0.8814 -0.3756
  784MOL0     O 8057   3.803   6.355   1.396 -0.6564 -0.2888 -0.4918
  784MOL0     C 8058   3.819   6.492   1.409 -0.1125 -0.4557 -0.9080
  784MOL0     C 8059   3.856   6.596   1.320 -0.3316 -0.2606  0.6831
  784MOL0     C 8060   3.843   6.731   1.350  0.7012 -0.0328  1.2990
  784MOL0     C 8061   3.790   6.770   1.470  0.7930  0.7382  0.4302
  784MOL0     O 8062   3.791   6.904   1.484  1.6482  0.1567  0.0698
  784MOL0     C 8063   3.702   6.962   1.580 -0.0229  0.2180 -0.0271
  784MOL0     C 8064   3.793   6.990   1.705 -0.0763  0.6910 -0.5469
  784MOL0     C 8065   3.912   7.088   1.678  0.6724 -0.3378 -0.0014
  784MOL0     C 8066   3.990   7.129   1.808  0.3105  0.1156  0.5600
  784MOL0     C 8067   4.091   7.242   1.784  0.2773  0.5059  0.1666
  784MOL0     C 8068   4.150   7.305   1.919  1.3229 -0.8540  1.0384
  784MOL0     C 8069   4.243   7.207   1.993 -0.0604 -0.0458 -0.8782
  784MOL0     C 8070   4.304   7.265   2.120 -0.7623 -0.5362 -0.0149
  784MOL0     N 8071   4.382   7.175   2.200 -0.4326  0.9690 -0.7183
  784MOL0     C 8072   4.508   7.124   2.157  0.5118 -0.0861 -0.1235
  784MOL0     C 8073   4.548   7.045   2.261 -0.0250 -0.1533  0.0213
  784MOL0     C 8074   4.669   6.956   2.252  0.1751 -0.7595  0.2459
  784MOL0     C 8075   4.798   6.998   2.334 -0.2556  0.2346  0.2171
  784MOL0     C 8076   4.866   6.876   2.400 -0.7794  0.3297  0.2703
  784MOL0     C 8077   4.791   6.841   2.524 -0.5335 -0.1279  0.1685
  784MOL0     O 8078   4.857   6.912   2.633 -0.8508 -0.2013  0.6702
  784MOL0     C 8079   4.960   6.861   2.708 -0.1853 -0.9229 -0.1377
  784MOL0     C 8080   5.010   6.944   2.810 -0.0456 -0.0480  0.0690
  784MOL0     C 8081   5.103   6.886   2.904  0.5542 -0.0079 -0.4738
  784MOL0     C 8082   5.124   6.971   3.025  0.9079  0.4363 -1.6080
  784MOL0     C 8083   5.161   6.761   2.880  1.3446 -0.5523 -0.0637
  784MOL0     C 8084   5.265   6.699   2.958 -0.7328 -1.0161 -0.1945
  784MOL0     O 8085   5.343   6.602   2.908 -0.7416 -0.3308  0.4386
  784MOL0     C 8086   5.449   6.554   2.974 -1.3209 -0.4922  1.5189
  784MOL0     C 8087   5.574   6.602   2.945  0.2497  0.1098 -0.2144
  784MOL0     C 8088   5.688   6.537   2.993  0.8142 -0.5533 -0.5506
  784MOL0     C 8089   5.682   6.428   3.073 -1.1798  0.3751 -0.3591
  784MOL0     O 8090   5.801   6.369   3.101  0.7133 -0.4639 -0.8895
  784MOL0     C 8091   5.795   6.257   3.194  0.0310  0.1161  0.5311
  784MOL0     C 8092   5.938   6.233   3.256  0.9430 -0.8705  0.2285
  784MOL0     C 8093   6.064   6.234   3.167  0.1690  0.3845 -0.0978
  784MOL0     C 8094   6.194   6.226   3.236  0.1235  0.8682 -0.3545
  784MOL0     C 8095   6.312   6.227   3.141 -0.1744  0.7882 -0.0727
  784MOL0     C 8096   6.310   6.352   3.054  0.1695  0.0899 -0.3891
  784MOL0     C 8097   6.444   6.375   2.977 -0.1011  0.4585 -0.0233
  784MOL0     C 8098   6.481   6.256   2.892 -0.9748 -0.2017  0.7677
  784MOL0    Cl 8099   6.586   6.313   2.756 -0.0141 -0.0119  0.2460
  784MOL0     C 8100   5.559   6.396   3.129  0.5875 -0.7277  0.7542
  784MOL0     C 8101   5.440   6.451   3.070 -0.2914  0.0008 -0.1752
  784MOL0     O 8102   5.264   6.724   3.077  0.3552 -0.3681 -0.3179
  784MOL0     C 8103   5.103   6.680   2.773  0.3247 -0.3773 -0.3014
  784MOL0     C 8104   4.998   6.727   2.693  0.0383 -0.6593 -0.5030
  784MOL0     N 8105   4.462   7.049   2.365 -0.1525 -0.3706  0.3931
  784MOL0     N 8106   4.355   7.120   2.321 -0.3841 -0.3262 -0.5639
  784MOL0     C 8107   3.752   6.672   1.561  0.8949 -0.1501  0.0491
  784MOL0     C 8108   3.756   6.537   1.521  0.4285  0.3000  0.0954
  784MOL0     C 8109   3.830   6.176   1.239  0.2731  0.3511  0.0531
  784MOL0     C 8110   3.831   6.180   1.097 -0.0663  0.2982 -0.4315
  784MOL0     C 8111   3.766   6.088   1.025  0.0456  0.0285  0.6659
  784MOL0     C 8112   3.707   5.982   1.089 -0.1099 -1.1333 -0.2127
  784MOL0     O 8113   3.649   5.895   1.007  0.6256 -0.1945  0.7090
  784MOL0     C 8114   3.722   5.774   0.991  0.3886 -0.2428 -0.5386
  784MOL0     C 8115   3.651   5.664   0.906 -0.0738 -0.7287 -0.4327
  784MOL0     C 8116   3.639   5.708   0.749  0.1978 -0.2323  0.0026
  784MOL0     C 8117   3.755   5.661   0.658  0.3272 -0.9097 -0.2050
  784MOL0     C 8118   3.896   5.684   0.701 -0.1417  1.3301  1.6823
  784MOL0     C 8119   4.012   5.714   0.734  1.1923  0.8794  1.0698
  784MOL0     C 8120   3.715   5.970   1.228 -0.6134  0.9937 -0.5643
  784MOL0     C 8121   3.776   6.067   1.310  0.3187 -0.2592  0.4464
  784MOL0     C 8122   3.794   6.045   1.466 -0.5265  0.6423 -0.1021
  784MOL0     H 8123   3.885   6.551   1.226 -1.3115 -0.2051  0.3455
  784MOL0     H 8124   3.860   6.804   1.272 -1.2071  0.9414  1.7330
  784MOL0     H 8125   3.602   6.922   1.598  0.5100 -0.6699  1.0256
  784MOL0     H 8126   3.679   7.062   1.542 -0.0024  0.5213  0.7422
  784MOL0     H 8127   3.731   7.040   1.781 -1.2379 -3.7270  1.7390
  784MOL0     H 8128   3.831   6.895   1.744  1.8561  0.9161 -1.7409
  784MOL0     H 8129   3.984   7.041   1.611  1.0351 -1.9877  1.4818
  784MOL0     H 8130   3.879   7.179   1.627  0.3769  0.2017  1.1067
  784MOL0     H 8131   3.921   7.157   1.888  0.2183  2.2477 -0.2030
  784MOL0     H 8132   4.058   7.047   1.833 -0.7504 -0.9224  0.1192
  784MOL0     H 8133   4.045   7.323   1.728 -1.1035 -0.4320 -0.1016
  784MOL0     H 8134   4.173   7.207   1.721  3.1480  2.3638  2.5725
  784MOL0     H 8135   4.210   7.393   1.895 -0.9592  0.4251 -0.2900
  784MOL0     H 8136   4.069   7.335   1.986  0.2571 -2.1810  0.3646
  784MOL0     H 8137   4.330   7.179   1.933  1.9144 -1.7028  2.4576
  784MOL0     H 8138   4.182   7.122   2.025 -1.4379  1.9263  2.2344
  784MOL0     H 8139   4.361   7.354   2.093 -1.5615 -0.2365 -0.7709
  784MOL0     H 8140   4.226   7.295   2.190  0.8707  0.0820  1.5945
  784MOL0     H 8141   4.554   7.152   2.063  0.0983 -2.1068 -0.9962
  784MOL0     H 8142   4.708   6.951   2.150  0.6678  2.1658  0.1849
  784MOL0     H 8143   4.623   6.858   2.268  0.1393 -0.9102 -0.7286
  784MOL0     H 8144   4.858   7.059   2.265 -2.7401  0.0319 -2.3480
  784MOL0     H 8145   4.765   7.050   2.424 -0.4679 -3.7587  2.6667
  784MOL0     H 8146   4.855   6.792   2.332  0.8465 -0.7366  1.2497
  784MOL0     H 8147   4.973   6.885   2.424 -0.6424  1.5053 -0.6760
  784MOL0     H 8148   4.687   6.873   2.523 -0.9913 -1.5383  0.9382
  784MOL0     H 8149   4.786   6.736   2.552  3.1724 -0.8124 -1.1470
  784MOL0     H 8150   4.954   7.034   2.831  0.1962  0.1171  0.0103
  784MOL0     H 8151   5.226   7.002   3.046  0.7139  0.5033 -0.7235
  784MOL0     H 8152   5.097   6.917   3.116  0.7020  1.0275 -1.3137
  784MOL0     H 8153   5.073   7.067   3.025  0.7170  0.4352  1.4379
  784MOL0     H 8154   5.589   6.686   2.878 -0.2213  0.7104  0.4174
  784MOL0     H 8155   5.783   6.571   2.953 -0.2734 -0.2855 -3.0845
  784MOL0     H 8156   5.731   6.271   3.282  0.9153 -1.6151  1.5069
  784MOL0     H 8157   5.759   6.168   3.140 -0.7490  0.8343 -0.1692
  784MOL0     H 8158   5.962   6.304   3.336  1.6555 -2.7894  1.8060
  784MOL0     H 8159   5.947   6.136   3.305 -0.2760  0.5387  3.5392
  784MOL0     H 8160   6.072   6.327   3.111 -0.2360  3.0049  3.7702
  784MOL0     H 8161   6.046   6.146   3.104 -0.8837 -1.6675  2.7959
  784MOL0     H 8162   6.189   6.134   3.294  3.7405 -0.3733 -1.6761
  784MOL0     H 8163   6.203   6.313   3.301 -1.0878 -0.3663  1.5679
  784MOL0     H 8164   6.408   6.204   3.188  0.9474 -2.1452 -3.3359
  784MOL0     H 8165   6.309   6.134   3.084  1.6282  2.0142 -2.3535
  784MOL0     H 8166   6.296   6.440   3.118 -1.9058  0.5750 -1.4372
  784MOL0     H 8167   6.233   6.351   2.976 -1.7550 -2.2108  1.3742
  784MOL0     H 8168   6.518   6.397   3.054 -1.9657  5.5862  0.6734
  784MOL0     H 8169   6.459   6.470   2.925 -1.6504 -0.2062 -1.8109
  784MOL0     H 8170   6.383   6.211   2.873 -0.6681 -2.1373  3.2562
  784MOL0     H 8171   6.534   6.177   2.946 -0.2214  0.5710  1.1753
  784MOL0     H 8172   5.542   6.310   3.193 -1.0528 -0.1056  1.2261
  784MOL0     H 8173   5.339   6.421   3.096 -0.6543  0.9223 -0.4543
  784MOL0     H 8174   5.131   6.580   2.741 -0.4068 -0.9489  0.7591
  784MOL0     H 8175   4.966   6.667   2.608 -2.5695  0.2915 -0.2752
  784MOL0     H 8176   3.718   6.708   1.657  0.1355  1.1082 -0.6746
  784MOL0     H 8177   3.722   6.468   1.597 -0.0726  0.6259  0.1686
  784MOL0     H 8178   3.873   6.262   1.039 -0.0366  0.0323 -0.7857
  784MOL0     H 8179   3.767   6.108   0.918 -1.3043 -0.8604  0.4704
  784MOL0     H 8180   3.819   5.804   0.950  0.4064  1.0323  0.3727
  784MOL0     H 8181   3.738   5.734   1.092  1.3851  3.1443  0.7907
  784MOL0     H 8182   3.550   5.644   0.944 -0.6371 -0.1416 -1.5745
  784MOL0     H 8183   3.705   5.569   0.913  2.2683  0.5914  0.3913
  784MOL0     H 8184   3.548   5.663   0.707  1.2221 -1.7501 -0.6770
  784MOL0     H 8185   3.625   5.816   0.747  0.1777 -0.0173  4.1017
  784MOL0     H 8186   3.748   5.724   0.568  0.2482  2.1802  1.8230
  784MOL0     H 8187   3.735   5.557   0.631 -0.2103 -1.0360  0.6483
  784MOL0     H 8188   4.104   5.765   0.753  2.6263 -1.5047  0.9987
  784MOL0     H 8189   3.679   5.874   1.264  1.5269 -0.4254 -1.9901
  784MOL0     H 8190   3.786   5.948   1.515 -1.6616  0.9451  0.3378
  784MOL0     H 8191   3.880   6.105   1.497  1.7473 -2.0848 -0.6815
  784MOL0     H 8192   3.709   6.099   1.508  0.1606  3.4562 -2.0214
  785MOL0     O 8193  10.300   8.534   3.537  0.5922  0.5612  0.8418
  785MOL0     C 8194  10.316   8.415   3.540 -0.5543  0.0589 -1.0952
  785MOL0     O 8195  10.251   8.322   3.627 -0.2839  0.6682  0.4178
  785MOL0     C 8196  10.115   8.329   3.645  0.3169  0.5761 -1.0289
  785MOL0     C 8197  10.023   8.429   3.591 -1.1300  0.0439  0.7901
  785MOL0     C 8198   9.886   8.439   3.622 -0.0193 -0.4190 -1.0720
  785MOL0     C 8199   9.837   8.350   3.727  1.6641 -0.2783  0.0043
  785MOL0     O 8200   9.710   8.368   3.777  0.3851 -0.4927 -0.5572
  785MOL0     C 8201   9.602   8.295   3.702  0.5339 -0.0499  0.1708
  785MOL0     C 8202   9.453   8.347   3.715  0.4626 -0.2691  0.1424
  785MOL0     C 8203   9.434   8.464   3.615 -0.2169  0.5227 -0.7676
  785MOL0     C 8204   9.298   8.531   3.633  0.1060  0.4945 -0.0906
  785MOL0     C 8205   9.272   8.624   3.520  0.3739 -0.3577  0.1741
  785MOL0     C 8206   9.154   8.728   3.550 -0.1973 -0.5560 -0.2347
  785MOL0     C 8207   9.196   8.836   3.652 -0.1079  0.4813 -0.8750
  785MOL0     C 8208   9.127   8.831   3.781 -0.2686 -1.1566 -0.0791
  785MOL0     N 8209   9.196   8.901   3.890 -0.5759  0.6756 -0.3455
  785MOL0     C 8210   9.317   8.870   3.948  0.3646  0.4151  0.5412
  785MOL0     C 8211   9.342   8.971   4.032 -0.0363 -0.8416  0.4684
  785MOL0     C 8212   9.463   8.980   4.106 -0.1128 -0.0300  0.5316
  785MOL0     C 8213   9.497   8.877   4.213  0.1873  0.2210 -0.4030
  785MOL0     C 8214   9.371   8.860   4.306  0.1855 -0.0857  0.0069
  785MOL0     C 8215   9.367   8.729   4.393  0.3367  0.8278 -0.6347
  785MOL0     O 8216   9.233   8.718   4.440 -0.0951 -0.2203 -1.3398
  785MOL0     C 8217   9.218   8.649   4.555 -0.4359 -0.0285 -0.0560
  785MOL0     C 8218   9.103   8.670   4.633  0.2991 -0.0873  0.7497
  785MOL0     C 8219   9.090   8.612   4.758 -0.1897 -0.2997 -0.0648
  785MOL0     C 8220   8.964   8.644   4.834  0.0978 -0.0439  0.3856
  785MOL0     C 8221   9.197   8.539   4.819 -0.3364  0.0544 -0.3522
  785MOL0     C 8222   9.202   8.467   4.953 -0.2641  0.0853  0.4759
  785MOL0     O 8223   9.090   8.461   5.030 -0.2095  0.8481  1.1557
  785MOL0     C 8224   9.083   8.389   5.147  0.3222 -0.4193  0.0100
  785MOL0     C 8225   9.193   8.388   5.242 -0.1639  0.2479  0.4158
  785MOL0     C 8226   9.179   8.311   5.361  0.9989  0.0697 -0.0626
  785MOL0     C 8227   9.056   8.234   5.384  0.2756 -0.8621  0.4276
  785MOL0     O 8228   9.051   8.156   5.492 -0.5127 -0.7958 -0.3148
  785MOL0     C 8229   8.944   8.059   5.507 -0.3035  0.1980  0.0135
  785MOL0     C 8230   8.950   7.996   5.643 -0.0361 -0.1092  0.0454
  785MOL0     C 8231   8.900   8.093   5.753  1.2381 -0.8487  1.0732
  785MOL0     C 8232   8.906   8.041   5.887 -0.6075 -0.0566  0.1124
  785MOL0     C 8233   8.846   8.141   5.984  0.3661 -0.0598  0.3867
  785MOL0     C 8234   8.917   8.279   5.983  0.6309 -0.8301 -0.0921
  785MOL0     C 8235   9.068   8.265   6.007  0.0953  0.0867 -0.3144
  785MOL0     C 8236   9.138   8.402   6.057 -0.1488 -0.1250 -0.3703
  785MOL0    Cl 8237   9.134   8.522   5.934 -0.0754 -0.0351  0.5083
  785MOL0     C 8238   8.949   8.248   5.286 -0.1009  0.5396 -0.4294
  785MOL0     C 8239   8.967   8.321   5.170  0.8399 -0.4793  0.8365
  785MOL0     O 8240   9.312   8.425   4.989  0.6466  0.3435 -1.0778
  785MOL0     C 8241   9.306   8.507   4.732 -0.2734  0.5095  0.3898
  785MOL0     C 8242   9.308   8.556   4.605  0.6189  0.1937  1.2637
  785MOL0     N 8243   9.240   9.069   4.010 -0.0519 -0.5857 -0.7027
  785MOL0     N 8244   9.151   9.023   3.932  0.7411 -0.3847 -0.2848
  785MOL0     C 8245   9.922   8.260   3.778 -0.1558 -0.3433 -0.6938
  785MOL0     C 8246  10.056   8.251   3.740  0.0429  1.1130 -0.1483
  785MOL0     C 8247  10.424   8.363   3.459 -0.1776 -0.9196 -0.9774
  785MOL0     C 8248  10.391   8.243   3.388  0.5978 -0.8365  0.1282
  785MOL0     C 8249  10.462   8.189   3.285  0.2163 -0.4765 -0.3121
  785MOL0     C 8250  10.582   8.257   3.246 -1.1558 -0.0526  0.0963
  785MOL0     O 8251  10.679   8.210   3.157  0.5477 -0.2670  0.5006
  785MOL0     C 8252  10.620   8.127   3.050 -0.7230  1.1670  0.4319
  785MOL0     C 8253  10.717   8.123   2.937  0.2062  0.5746 -0.5940
  785MOL0     C 8254  10.849   8.052   2.973  0.2588 -0.2081  0.5362
  785MOL0     C 8255  10.846   7.907   3.027  1.1759 -0.8460 -0.8473
  785MOL0     C 8256  10.809   7.816   2.920  0.6791 -0.3610  1.3466
  785MOL0     C 8257  10.752   7.737   2.846 -0.7371 -0.2608 -0.4588
  785MOL0     C 8258  10.620   8.367   3.314  0.5607  0.2512 -0.4619
  785MOL0     C 8259  10.539   8.431   3.410 -0.6655 -0.6501 -0.4165
  785MOL0     C 8260  10.585   8.566   3.460 -0.2568  0.3455  0.0935
  785MOL0     H 8261  10.073   8.491   3.517  2.3570 -1.6362  1.5365
  785MOL0     H 8262   9.819   8.508   3.573  0.9580 -0.1342 -2.0267
  785MOL0     H 8263   9.599   8.193   3.741 -0.9815  0.6153  1.9524
  785MOL0     H 8264   9.619   8.287   3.594  2.4729  3.8472  0.0264
  785MOL0     H 8265   9.373   8.278   3.688  0.5556  0.3135 -1.7357
  785MOL0     H 8266   9.452   8.374   3.821  2.7746  0.4706  0.0286
  785MOL0     H 8267   9.514   8.538   3.613  0.6365 -0.3617 -0.3426
  785MOL0     H 8268   9.431   8.427   3.512 -2.6789  2.1089 -1.3428
  785MOL0     H 8269   9.217   8.459   3.650  1.5968 -0.8377  1.8185
  785MOL0     H 8270   9.294   8.594   3.722 -0.5117  0.7839 -0.3166
  785MOL0     H 8271   9.242   8.559   3.438  0.8632  0.7975 -0.9436
  785MOL0     H 8272   9.361   8.670   3.478 -0.6422  1.1889 -0.4053
  785MOL0     H 8273   9.123   8.780   3.460 -0.1065 -1.1463 -0.6162
  785MOL0     H 8274   9.070   8.671   3.592  0.2488  0.3422  2.0398
  785MOL0     H 8275   9.178   8.930   3.599 -0.6899 -0.8109 -3.1047
  785MOL0     H 8276   9.304   8.831   3.668 -0.2106 -1.6017 -0.5080
  785MOL0     H 8277   9.032   8.882   3.765 -0.3419 -0.5076  2.1443
  785MOL0     H 8278   9.104   8.730   3.817 -3.2406 -0.0772  1.3678
  785MOL0     H 8279   9.381   8.785   3.930 -0.4748  0.0226 -0.7384
  785MOL0     H 8280   9.460   9.075   4.159  0.6527 -0.5147  1.4861
  785MOL0     H 8281   9.535   8.993   4.026 -1.9582  0.2684 -1.1557
  785MOL0     H 8282   9.522   8.785   4.159  1.8903  1.8445 -2.5003
  785MOL0     H 8283   9.584   8.905   4.273  1.1205 -0.1548 -1.5472
  785MOL0     H 8284   9.367   8.944   4.376  1.1607 -1.7953  2.2487
  785MOL0     H 8285   9.281   8.858   4.244 -0.7542  3.3209  1.0674
  785MOL0     H 8286   9.394   8.643   4.331 -0.2544  0.4255 -0.3525
  785MOL0     H 8287   9.436   8.735   4.477  0.6090 -3.7525 -0.2623
  785MOL0     H 8288   9.028   8.745   4.606  0.0316 -0.0292  1.6161
  785MOL0     H 8289   8.898   8.559   4.812 -0.2979  0.1074  0.9658
  785MOL0     H 8290   8.923   8.740   4.802  1.8650  1.6084  2.6819
  785MOL0     H 8291   8.978   8.651   4.942  1.1621  1.0157  0.2017
  785MOL0     H 8292   9.284   8.445   5.223 -0.4371  0.8972  1.0079
  785MOL0     H 8293   9.261   8.323   5.431 -1.6148  1.8386  2.9781
  785MOL0     H 8294   8.843   8.088   5.477 -0.5823 -2.4299 -1.9592
  785MOL0     H 8295   8.966   7.989   5.426  0.2288  1.6253 -1.1437
  785MOL0     H 8296   8.880   7.912   5.646  1.2306 -1.3318 -2.1071
  785MOL0     H 8297   9.054   7.977   5.672  0.8271  0.9260 -2.1739
  785MOL0     H 8298   8.798   8.111   5.719  1.0190  2.8276  3.1790
  785MOL0     H 8299   8.948   8.188   5.728  1.4339 -1.2777 -0.2926
  785MOL0     H 8300   9.013   8.031   5.908  0.0639 -1.0361 -3.2169
  785MOL0     H 8301   8.872   7.938   5.900  1.2523 -0.6670  0.3485
  785MOL0     H 8302   8.743   8.148   5.950  0.6491 -4.7540 -2.2378
  785MOL0     H 8303   8.853   8.092   6.082  2.6781 -1.0480 -0.1912
  785MOL0     H 8304   8.879   8.349   6.058  1.2186 -1.1192  0.4801
  785MOL0     H 8305   8.901   8.323   5.884  0.3685 -0.9209 -0.0918
  785MOL0     H 8306   9.109   8.225   5.914  0.0435  2.1872 -1.3011
  785MOL0     H 8307   9.082   8.186   6.082  0.7020  2.0337  1.7531
  785MOL0     H 8308   9.244   8.380   6.072 -0.3158 -0.3622  0.5142
  785MOL0     H 8309   9.091   8.439   6.149 -2.6151 -1.6534 -0.9078
  785MOL0     H 8310   8.851   8.205   5.308 -0.8092  2.4148  0.2420
  785MOL0     H 8311   8.886   8.322   5.098  1.2969  0.4197  0.3165
  785MOL0     H 8312   9.386   8.436   4.750 -1.0775 -0.9303 -1.4114
  785MOL0     H 8313   9.379   8.513   4.535  0.1889  0.0356  0.9212
  785MOL0     H 8314   9.887   8.203   3.863  0.4765  0.1470 -0.0969
  785MOL0     H 8315  10.136   8.194   3.787  1.6494  3.2020 -0.1717
  785MOL0     H 8316  10.297   8.192   3.401  1.5087 -2.4309  0.7544
  785MOL0     H 8317  10.429   8.099   3.234  3.7972 -1.3928 -1.2996
  785MOL0     H 8318  10.589   8.028   3.086  0.7508  0.7319  0.5552
  785MOL0     H 8319  10.525   8.167   3.013 -0.5821  0.0277 -1.3038
  785MOL0     H 8320  10.746   8.224   2.906  1.4449  0.9250  1.5417
  785MOL0     H 8321  10.670   8.069   2.855  2.1875 -1.7658 -0.2899
  785MOL0     H 8322  10.899   8.054   2.875  0.2788 -1.9722  0.4760
  785MOL0     H 8323  10.909   8.113   3.041  0.7389  2.3526 -1.9958
  785MOL0     H 8324  10.776   7.905   3.111 -0.2667  1.0645 -1.9050
  785MOL0     H 8325  10.946   7.885   3.064 -0.5033 -2.0884  3.6457
  785MOL0     H 8326  10.689   7.692   2.772  2.1074 -0.8626 -2.6898
  785MOL0     H 8327  10.699   8.425   3.268 -0.3779  1.8615 -0.1342
  785MOL0     H 8328  10.551   8.643   3.390  1.2289  2.2903  1.3915
  785MOL0     H 8329  10.550   8.586   3.562  3.6727 -1.0926  1.9471
  785MOL0     H 8330  10.694   8.578   3.462 -0.1090 -0.8648  0.0956
  786MOL0     O 8331   5.227   5.805   3.651 -0.5518 -0.6024 -0.3251
  786MOL0     C 8332   5.110   5.818   3.613  0.3120 -1.4397 -0.7503
  786MOL0     O 8333   5.008   5.859   3.691 -0.2384  0.2609  0.5244
  786MOL0     C 8334   5.005   5.854   3.832 -0.7074  0.2390  0.4302
  786MOL0     C 8335   5.094   5.936   3.910  0.0353 -0.5367  0.2109
  786MOL0     C 8336   5.067   5.933   4.053 -0.0437 -0.2544  1.3901
  786MOL0     C 8337   4.979   5.836   4.106  1.4632  0.3393 -0.2960
  786MOL0     O 8338   4.960   5.818   4.239 -0.3431  0.4738  0.0886
  786MOL0     C 8339   4.971   5.922   4.342 -0.6318 -0.1421 -0.4199
  786MOL0     C 8340   5.053   5.880   4.464 -0.3150  0.1384  0.1485
  786MOL0     C 8341   5.094   5.990   4.557  0.1632 -0.9992  0.2088
  786MOL0     C 8342   5.196   5.958   4.663 -0.1442  0.3122  0.2374
  786MOL0     C 8343   5.193   6.056   4.783  0.8409 -0.0822 -0.1623
  786MOL0     C 8344   5.301   6.016   4.879  0.4008 -0.5670 -0.4737
  786MOL0     C 8345   5.304   5.888   4.952  0.2124  0.6843  0.5960
  786MOL0     C 8346   5.188   5.855   5.050  0.0822 -0.1960 -0.1687
  786MOL0     N 8347   5.175   5.707   5.075  0.7673  1.0842  0.5512
  786MOL0     C 8348   5.059   5.633   5.075  0.2344  0.1616 -0.0575
  786MOL0     C 8349   5.098   5.508   5.109  0.8794 -0.2735  0.6819
  786MOL0     C 8350   5.015   5.393   5.127 -0.9336 -0.6143  0.9713
  786MOL0     C 8351   5.076   5.249   5.116 -0.6428 -0.5397 -0.3671
  786MOL0     C 8352   5.154   5.199   5.234 -0.6366  0.3245 -0.0720
  786MOL0     C 8353   5.072   5.182   5.357 -0.4523  0.8941  0.6080
  786MOL0     O 8354   5.150   5.136   5.462  0.3332  0.1115  0.2004
  786MOL0     C 8355   5.080   5.033   5.523 -0.9577 -0.0759 -0.0062
  786MOL0     C 8356   5.040   5.073   5.652 -0.9696 -0.7319  0.4346
  786MOL0     C 8357   4.994   4.986   5.747  0.4637 -0.0596  0.1707
  786MOL0     C 8358   4.955   5.049   5.882  0.5620  0.0360  0.0533
  786MOL0     C 8359   4.977   4.848   5.715 -0.5485  0.9938 -0.3254
  786MOL0     C 8360   4.909   4.743   5.788 -0.4705 -0.6622 -0.3306
  786MOL0     O 8361   4.791   4.766   5.864 -0.3061 -0.6135  0.6240
  786MOL0     C 8362   4.761   4.690   5.972  0.7935 -0.2840  0.0342
  786MOL0     C 8363   4.623   4.673   5.983 -0.2274  0.1993 -0.4206
  786MOL0     C 8364   4.588   4.580   6.083 -1.0278 -0.2052  0.0366
  786MOL0     C 8365   4.672   4.537   6.184 -0.1303  0.8277  0.2825
  786MOL0     O 8366   4.622   4.452   6.275  0.2244  0.8169  0.1397
  786MOL0     C 8367   4.681   4.333   6.326 -0.3002  0.6227 -0.3233
  786MOL0     C 8368   4.636   4.317   6.480 -0.5733  0.1746  0.4644
  786MOL0     C 8369   4.729   4.203   6.536 -0.2438 -1.0783  0.0285
  786MOL0     C 8370   4.692   4.196   6.686  0.0404 -0.6904  0.7272
  786MOL0     C 8371   4.786   4.103   6.759 -0.1819 -0.3024 -0.0741
  786MOL0     C 8372   4.753   3.951   6.740 -0.0607  0.6418  0.9415
  786MOL0     C 8373   4.869   3.870   6.783 -0.2406 -0.1700 -0.1500
  786MOL0     C 8374   4.841   3.725   6.806  0.2290  0.3394 -0.0935
  786MOL0    Cl 8375   4.927   3.638   6.668 -0.3484  0.1795 -0.0936
  786MOL0     C 8376   4.808   4.571   6.175 -0.7612  1.2378  0.1626
  786MOL0     C 8377   4.856   4.637   6.066  0.0132 -0.9253 -0.2295
  786MOL0     O 8378   4.978   4.640   5.783  0.1644 -0.2019  0.3089
  786MOL0     C 8379   5.013   4.810   5.581  0.0450 -0.4999 -1.0794
  786MOL0     C 8380   5.067   4.900   5.485  0.5028  0.0931 -0.5326
  786MOL0     N 8381   5.232   5.508   5.127  0.5185 -1.0179 -0.2275
  786MOL0     N 8382   5.275   5.628   5.091 -0.1912 -0.0652 -0.4991
  786MOL0     C 8383   4.902   5.744   4.027 -0.3641 -0.3600 -0.7623
  786MOL0     C 8384   4.917   5.767   3.889  0.6466  0.5381  0.4935
  786MOL0     C 8385   5.076   5.807   3.468 -1.5776  0.7271 -0.0814
  786MOL0     C 8386   5.186   5.814   3.384  0.2985  0.8992 -0.4546
  786MOL0     C 8387   5.180   5.808   3.245  0.4146 -0.0868  0.0007
  786MOL0     C 8388   5.053   5.805   3.180 -0.7029 -0.7176 -1.1372
  786MOL0     O 8389   5.057   5.798   3.046 -0.3698  0.4812  0.0624
  786MOL0     C 8390   4.953   5.724   2.977 -0.3708 -0.3797 -0.6479
  786MOL0     C 8391   5.003   5.677   2.844  0.1197 -0.3998  0.0408
  786MOL0     C 8392   4.877   5.617   2.767  0.8469  0.2676 -0.0936
  786MOL0     C 8393   4.757   5.708   2.759  0.3921  0.0859 -0.2640
  786MOL0     C 8394   4.649   5.650   2.682 -0.9242  0.1718 -0.1680
  786MOL0     C 8395   4.595   5.609   2.587 -0.0072  0.8022  1.0691
  786MOL0     C 8396   4.934   5.804   3.263  0.8247  0.1556  0.4931
  786MOL0     C 8397   4.945   5.792   3.409 -0.5142  0.4210  0.3492
  786MOL0     C 8398   4.816   5.768   3.490  0.7495  0.0051  0.2528
  786MOL0     H 8399   5.159   6.015   3.875 -0.5712 -0.5741 -1.0423
  786MOL0     H 8400   5.121   5.998   4.121  1.8244  1.3245 -1.4162
  786MOL0     H 8401   4.869   5.948   4.371 -0.3586 -0.8097  1.2301
  786MOL0     H 8402   5.010   6.017   4.304  2.4736 -1.4064 -0.7352
  786MOL0     H 8403   4.985   5.809   4.512  2.0783 -3.1948 -1.0393
  786MOL0     H 8404   5.149   5.833   4.440  0.1470  1.6504 -1.1965
  786MOL0     H 8405   5.132   6.076   4.502 -2.3041 -0.6472 -1.1214
  786MOL0     H 8406   4.999   6.020   4.602 -0.8250  1.5104 -3.1349
  786MOL0     H 8407   5.159   5.860   4.694 -1.0049 -0.1358 -2.0109
  786MOL0     H 8408   5.298   5.963   4.624  0.5321  1.1826  2.0184
  786MOL0     H 8409   5.093   6.045   4.828 -0.0544 -5.5409 -2.6623
  786MOL0     H 8410   5.202   6.161   4.754  0.4663 -0.5096 -1.9521
  786MOL0     H 8411   5.396   6.038   4.830 -1.2776  3.0693 -2.4636
  786MOL0     H 8412   5.303   6.092   4.958  1.1479 -1.8265  0.7725
  786MOL0     H 8413   5.398   5.880   5.008  1.3916 -0.3242 -1.3949
  786MOL0     H 8414   5.309   5.815   4.870  1.3101  0.1860  1.0909
  786MOL0     H 8415   5.210   5.904   5.145  1.5314  0.3117 -0.7220
  786MOL0     H 8416   5.091   5.888   5.014 -1.6757 -2.7315  1.8740
  786MOL0     H 8417   4.965   5.663   5.029  1.2645  0.6883 -1.9092
  786MOL0     H 8418   4.939   5.396   5.048  1.3514  0.2374 -1.3434
  786MOL0     H 8419   4.963   5.390   5.223 -1.1921 -1.4160  0.8185
  786MOL0     H 8420   5.000   5.173   5.093 -1.6161  0.0525  0.7904
  786MOL0     H 8421   5.133   5.247   5.022  3.8561 -0.2286  2.1052
  786MOL0     H 8422   5.214   5.112   5.205 -0.1922  0.4456  0.4650
  786MOL0     H 8423   5.227   5.276   5.260 -0.7358 -0.2465  2.0471
  786MOL0     H 8424   5.007   5.265   5.387  1.6940  2.1297  2.1786
  786MOL0     H 8425   4.997   5.109   5.327  0.1092  1.0210 -1.1742
  786MOL0     H 8426   5.061   5.177   5.677  1.1003 -1.2253  0.8993
  786MOL0     H 8427   4.848   5.033   5.898  0.5529 -0.5052 -0.4846
  786MOL0     H 8428   4.979   5.154   5.896  0.3101  0.5388 -2.6392
  786MOL0     H 8429   5.010   4.999   5.962  1.4590 -0.5588 -0.9131
  786MOL0     H 8430   4.546   4.718   5.921  0.7595 -1.1505 -2.7899
  786MOL0     H 8431   4.485   4.545   6.089 -1.5485  1.4391  1.5605
  786MOL0     H 8432   4.633   4.251   6.271 -0.9226  0.4443  0.4626
  786MOL0     H 8433   4.790   4.337   6.313 -0.3188 -0.0243 -0.7454
  786MOL0     H 8434   4.640   4.414   6.530 -0.2147 -0.2641  1.3111
  786MOL0     H 8435   4.537   4.272   6.473  0.0939 -1.1449 -1.3139
  786MOL0     H 8436   4.833   4.229   6.514 -0.3344  0.6439  1.4352
  786MOL0     H 8437   4.704   4.108   6.487 -0.0521 -1.9056  1.4949
  786MOL0     H 8438   4.590   4.159   6.692 -0.4891  0.3369 -1.1429
  786MOL0     H 8439   4.706   4.296   6.728  1.8713  0.0190 -1.3526
  786MOL0     H 8440   4.886   4.128   6.722  0.1985 -1.0024  0.4694
  786MOL0     H 8441   4.774   4.126   6.865 -3.0975 -0.4986 -0.2743
  786MOL0     H 8442   4.743   3.932   6.632  3.3031 -0.3502  0.6606
  786MOL0     H 8443   4.668   3.911   6.795 -0.1470  1.2129  1.2280
  786MOL0     H 8444   4.900   3.911   6.880 -0.9205 -2.5736  1.1487
  786MOL0     H 8445   4.950   3.885   6.712  0.4542  0.9029  0.8300
  786MOL0     H 8446   4.734   3.703   6.798 -0.6800  4.4046 -1.8830
  786MOL0     H 8447   4.871   3.690   6.905  0.2789 -0.2439 -0.3118
  786MOL0     H 8448   4.882   4.534   6.245 -1.6287 -1.8931 -0.4360
  786MOL0     H 8449   4.959   4.669   6.053 -0.5429  0.1543 -2.4779
  786MOL0     H 8450   4.977   4.714   5.548  1.4171 -0.7956 -1.7762
  786MOL0     H 8451   5.093   4.867   5.385 -0.3838 -0.1727 -0.6859
  786MOL0     H 8452   4.833   5.670   4.065  0.6653 -0.7658  0.3912
  786MOL0     H 8453   4.860   5.699   3.826  1.6716 -0.0457  0.1698
  786MOL0     H 8454   5.289   5.811   3.416  0.1135 -0.2197  0.0760
  786MOL0     H 8455   5.262   5.816   3.175  1.9191 -0.9552  1.5971
  786MOL0     H 8456   4.930   5.640   3.044  0.0089 -0.1033 -0.1606
  786MOL0     H 8457   4.863   5.785   2.982 -1.1807 -1.4663 -1.5490
  786MOL0     H 8458   5.075   5.595   2.848  1.2270  0.5310  3.6631
  786MOL0     H 8459   5.043   5.761   2.786  1.2644 -1.1172 -0.2486
  786MOL0     H 8460   4.902   5.592   2.663 -1.0348  1.0835 -0.7852
  786MOL0     H 8461   4.837   5.525   2.810 -2.5754  0.7342 -1.8638
  786MOL0     H 8462   4.787   5.804   2.716  0.7660  0.1983  0.2365
  786MOL0     H 8463   4.713   5.727   2.858 -1.4781  2.3876 -1.4345
  786MOL0     H 8464   4.552   5.556   2.504  0.4825  2.4344 -0.2994
  786MOL0     H 8465   4.835   5.806   3.219 -0.6073 -2.9656  3.1805
  786MOL0     H 8466   4.762   5.862   3.477 -0.1885 -0.0807  2.9709
  786MOL0     H 8467   4.770   5.678   3.447  0.6271  0.1695  0.0396
  786MOL0     H 8468   4.838   5.750   3.595  2.3271  2.2735  0.3845
  787MOL0     O 8469   9.994   8.072   4.948  0.4566 -0.0180  0.5152
  787MOL0     C 8470   9.911   8.064   4.860  0.2933  0.4353 -0.4635
  787MOL0     O 8471   9.912   8.119   4.735 -0.3542 -0.1083 -0.2443
  787MOL0     C 8472  10.015   8.206   4.698  0.0069  0.0446  0.3597
  787MOL0     C 8473  10.022   8.329   4.762  0.7379 -0.1931  0.2257
  787MOL0     C 8474  10.095   8.438   4.692 -0.6320  0.7770 -0.1913
  787MOL0     C 8475  10.159   8.411   4.570 -0.4620  0.5254  0.1537
  787MOL0     O 8476  10.244   8.512   4.520 -0.2434  0.2096  0.5238
  787MOL0     C 8477  10.295   8.497   4.385 -0.4923  0.5463 -0.1789
  787MOL0     C 8478  10.376   8.619   4.342  0.8247 -0.5843 -0.3559
  787MOL0     C 8479  10.278   8.733   4.331 -0.1034 -0.9232 -0.8245
  787MOL0     C 8480  10.349   8.877   4.312 -0.6727 -0.4078  0.0543
  787MOL0     C 8481  10.256   9.003   4.302 -0.6813  0.9527 -0.2374
  787MOL0     C 8482  10.180   9.021   4.172 -1.2000  0.5654  0.7144
  787MOL0     C 8483  10.086   9.138   4.177  1.5160 -0.6694  0.4142
  787MOL0     C 8484   9.940   9.097   4.226 -0.5823 -0.3266  1.3868
  787MOL0     N 8485   9.852   9.206   4.224  0.4129 -0.0196 -0.4626
  787MOL0     C 8486   9.805   9.271   4.119 -0.5711  0.3841  0.1016
  787MOL0     C 8487   9.685   9.321   4.150 -0.5511 -0.1883 -0.3264
  787MOL0     C 8488   9.618   9.419   4.059 -0.1843  0.9019 -0.5872
  787MOL0     C 8489   9.644   9.408   3.904 -0.6038  0.1696  0.1149
  787MOL0     C 8490   9.572   9.527   3.830  0.1294  0.4360  0.2096
  787MOL0     C 8491   9.582   9.505   3.671 -1.1037  0.0369 -0.0577
  787MOL0     O 8492   9.510   9.380   3.632 -0.2807 -0.0125 -0.0906
  787MOL0     C 8493   9.587   9.281   3.589 -0.9259 -0.0185 -0.2345
  787MOL0     C 8494   9.560   9.155   3.636  0.6428 -0.0086 -0.6026
  787MOL0     C 8495   9.613   9.032   3.575 -0.6610  0.3155 -0.2228
  787MOL0     C 8496   9.565   8.914   3.645 -0.6426  0.4393 -0.4909
  787MOL0     C 8497   9.695   9.036   3.467 -0.8905  0.6913 -0.1901
  787MOL0     C 8498   9.769   8.925   3.400  0.4711 -0.3559  0.5347
  787MOL0     O 8499   9.851   8.963   3.296 -0.6636 -0.5345 -0.1457
  787MOL0     C 8500   9.945   8.871   3.250  0.5110  0.5226 -0.5185
  787MOL0     C 8501   9.941   8.840   3.113 -0.8056 -0.6185  0.3709
  787MOL0     C 8502  10.030   8.743   3.069  0.9694  0.5092 -0.1888
  787MOL0     C 8503  10.123   8.676   3.140  1.2225  0.3036 -0.5227
  787MOL0     O 8504  10.198   8.582   3.083 -0.4799  0.2160 -1.5163
  787MOL0     C 8505  10.325   8.546   3.152  0.2350  0.0913  0.5160
  787MOL0     C 8506  10.445   8.549   3.055  0.2764 -0.1803  0.0307
  787MOL0     C 8507  10.498   8.670   2.991 -0.3609 -0.2242  1.1611
  787MOL0     C 8508  10.570   8.767   3.078 -0.0494 -0.0762 -0.0041
  787MOL0     C 8509  10.709   8.723   3.094 -1.1565  0.7655  0.1942
  787MOL0     C 8510  10.752   8.773   3.230 -1.0498 -0.7026 -0.1648
  787MOL0     C 8511  10.902   8.774   3.237  0.6865 -0.6914 -0.5031
  787MOL0     C 8512  10.959   8.886   3.335  0.0780 -0.5683  0.7420
  787MOL0    Cl 8513  10.842   8.929   3.455 -0.3493  0.3983  0.5229
  787MOL0     C 8514  10.115   8.698   3.279 -0.8972 -1.0550 -0.7325
  787MOL0     C 8515  10.036   8.801   3.328  0.2392 -1.3993 -0.6976
  787MOL0     O 8516   9.757   8.811   3.443 -0.4333  0.4973 -0.7209
  787MOL0     C 8517   9.725   9.167   3.426 -0.2016 -0.7712  0.1283
  787MOL0     C 8518   9.673   9.290   3.482  0.1140 -0.0258  0.1269
  787MOL0     N 8519   9.653   9.277   4.277 -0.2363  0.2616  0.7066
  787MOL0     N 8520   9.755   9.216   4.326  0.6617 -0.1122  0.0245
  787MOL0     C 8521  10.161   8.278   4.524  0.8087  0.2068  0.0602
  787MOL0     C 8522  10.066   8.189   4.574  0.0731 -0.2867 -0.4020
  787MOL0     C 8523   9.796   7.969   4.890 -1.4189  0.8075  0.6114
  787MOL0     C 8524   9.832   7.857   4.959 -0.0308  0.7976  0.2890
  787MOL0     C 8525   9.746   7.750   4.979 -0.1896 -0.2939  0.1099
  787MOL0     C 8526   9.624   7.758   4.904  0.5237  0.3596 -0.4885
  787MOL0     O 8527   9.521   7.658   4.916  0.1986  0.3835  0.1066
  787MOL0     C 8528   9.438   7.683   5.026 -0.6745 -0.1913 -0.0937
  787MOL0     C 8529   9.343   7.566   5.029  0.3256 -0.1119 -0.9745
  787MOL0     C 8530   9.277   7.539   5.173 -0.1714  0.5103 -0.4625
  787MOL0     C 8531   9.184   7.415   5.181 -0.9737 -0.5058  0.3756
  787MOL0     C 8532   9.077   7.430   5.077 -0.3373 -0.3121  0.0498
  787MOL0     C 8533   8.994   7.463   4.994 -0.7682  0.2976 -0.2862
  787MOL0     C 8534   9.584   7.882   4.842 -0.0248  0.2411 -1.1400
  787MOL0     C 8535   9.670   7.990   4.831 -0.5147  0.1428 -0.4221
  787MOL0     C 8536   9.615   8.119   4.771 -0.1891 -0.4527  0.8802
  787MOL0     H 8537   9.961   8.347   4.850  1.7655  0.2867  0.8465
  787MOL0     H 8538  10.088   8.542   4.721 -2.8686  1.4112 -2.5798
  787MOL0     H 8539  10.220   8.469   4.310  0.7670 -1.3653 -0.7697
  787MOL0     H 8540  10.373   8.421   4.384 -1.1895 -0.1998 -2.2976
  787MOL0     H 8541  10.455   8.648   4.413 -1.2792 -0.7239  2.2164
  787MOL0     H 8542  10.425   8.608   4.245  0.0372 -1.6208 -0.6541
  787MOL0     H 8543  10.217   8.711   4.243  1.6208 -0.3054 -2.2347
  787MOL0     H 8544  10.211   8.743   4.417 -0.3429 -0.6849 -1.0372
  787MOL0     H 8545  10.430   8.895   4.383  1.5990  3.1782 -3.0146
  787MOL0     H 8546  10.401   8.869   4.216 -3.0847 -2.4002 -1.2157
  787MOL0     H 8547  10.326   9.087   4.299 -1.0025  1.3770  2.2332
  787MOL0     H 8548  10.200   9.001   4.395  1.3296  0.0536  1.0163
  787MOL0     H 8549  10.256   9.036   4.095 -2.1821 -3.3400 -1.2915
  787MOL0     H 8550  10.127   8.931   4.139  2.2781 -1.6704  0.7547
  787MOL0     H 8551  10.075   9.199   4.087  0.5888 -0.1307  0.8736
  787MOL0     H 8552  10.129   9.214   4.243 -3.1905 -0.6554  3.9682
  787MOL0     H 8553   9.901   9.033   4.147  2.5974 -1.0220  0.2272
  787MOL0     H 8554   9.951   9.045   4.322 -0.5189  0.1464  1.6431
  787MOL0     H 8555   9.868   9.291   4.032  3.2273  1.9027  2.9050
  787MOL0     H 8556   9.625   9.520   4.099 -0.3699  0.2312  1.2575
  787MOL0     H 8557   9.513   9.390   4.068 -0.6979  2.3953 -1.5260
  787MOL0     H 8558   9.751   9.420   3.888 -0.2108 -0.9435  1.7245
  787MOL0     H 8559   9.618   9.309   3.866 -0.0410 -0.0555  0.3199
  787MOL0     H 8560   9.467   9.526   3.860 -0.2827 -0.6731 -1.1514
  787MOL0     H 8561   9.610   9.623   3.868  1.9329  0.0025 -0.3804
  787MOL0     H 8562   9.544   9.593   3.620  0.3828  1.2445  0.8199
  787MOL0     H 8563   9.690   9.499   3.651 -0.9932 -1.6369  0.8255
  787MOL0     H 8564   9.491   9.143   3.719  2.6814  3.0160  1.7830
  787MOL0     H 8565   9.633   8.841   3.689 -1.9639 -0.2457  0.5133
  787MOL0     H 8566   9.502   8.858   3.576  0.4856 -1.7814  0.2035
  787MOL0     H 8567   9.505   8.933   3.735 -1.3221 -1.1218 -0.5911
  787MOL0     H 8568   9.867   8.898   3.059  0.0390  1.4238  1.2745
  787MOL0     H 8569  10.022   8.693   2.973 -1.1604 -0.9484  0.6705
  787MOL0     H 8570  10.349   8.623   3.225  1.0355  0.0466  0.3026
  787MOL0     H 8571  10.300   8.449   3.198 -1.7741 -1.7479 -3.8808
  787MOL0     H 8572  10.523   8.495   3.110  0.5015 -1.5656 -1.5757
  787MOL0     H 8573  10.421   8.476   2.976 -0.9600  2.5454 -2.3104
  787MOL0     H 8574  10.409   8.716   2.948 -2.0925 -2.2709  2.3503
  787MOL0     H 8575  10.562   8.648   2.905 -2.3324  0.5352 -0.5512
  787MOL0     H 8576  10.517   8.773   3.174 -0.9795  2.7148 -0.5831
  787MOL0     H 8577  10.571   8.871   3.044  1.8142 -0.0458  0.0010
  787MOL0     H 8578  10.722   8.614   3.091  1.5470  1.0497 -0.1103
  787MOL0     H 8579  10.775   8.774   3.023  2.7675 -1.5046  1.9034
  787MOL0     H 8580  10.724   8.707   3.313 -1.0624  1.1049  1.3314
  787MOL0     H 8581  10.715   8.875   3.240 -1.9833 -0.9155 -1.3556
  787MOL0     H 8582  10.933   8.788   3.133  0.3115 -1.6805 -0.7554
  787MOL0     H 8583  10.940   8.676   3.266  0.2161 -1.3338 -1.9810
  787MOL0     H 8584  10.962   8.977   3.275 -1.0635 -2.1611 -1.9178
  787MOL0     H 8585  11.059   8.862   3.371  0.4309 -1.9304 -0.9765
  787MOL0     H 8586  10.173   8.642   3.351  0.7106  1.0106 -0.3042
  787MOL0     H 8587  10.030   8.813   3.436 -2.7476 -0.9438 -0.8474
  787MOL0     H 8588   9.803   9.196   3.356  0.4173 -1.1361  0.6595
  787MOL0     H 8589   9.681   9.387   3.434 -3.4084 -0.5823 -1.8997
  787MOL0     H 8590  10.229   8.250   4.445  0.9448 -0.0961  0.2816
  787MOL0     H 8591  10.049   8.093   4.527 -0.8548  0.2071 -1.1201
  787MOL0     H 8592   9.931   7.844   5.002  0.5302 -3.1039 -1.7350
  787MOL0     H 8593   9.762   7.658   5.033 -0.5201 -0.3919  0.0484
  787MOL0     H 8594   9.494   7.673   5.119 -1.2112 -0.9580  0.1568
  787MOL0     H 8595   9.382   7.777   5.030 -2.0504 -0.8964 -1.3089
  787MOL0     H 8596   9.399   7.479   4.992  1.3444 -0.1282  0.5497
  787MOL0     H 8597   9.265   7.582   4.953 -1.0132 -1.4106  0.0580
  787MOL0     H 8598   9.363   7.519   5.239 -0.2244 -0.0133 -0.5526
  787MOL0     H 8599   9.223   7.628   5.207  3.1231  2.8121 -0.7120
  787MOL0     H 8600   9.147   7.397   5.282 -0.7823 -0.0836  0.5241
  787MOL0     H 8601   9.252   7.333   5.155 -0.2226 -0.2176  1.3889
  787MOL0     H 8602   8.918   7.487   4.923 -2.7907  2.0045  2.2417
  787MOL0     H 8603   9.483   7.899   4.808 -1.0111 -1.8994  0.4826
  787MOL0     H 8604   9.686   8.202   4.781  2.3909 -2.1904 -1.3868
  787MOL0     H 8605   9.594   8.105   4.664 -1.7071  3.8497  0.4098
  787MOL0     H 8606   9.519   8.147   4.816 -0.5716 -0.9458  0.3793
  788MOL0     O 8607  10.291   7.852   3.173  0.2499 -0.3903 -0.2266
  788MOL0     C 8608  10.196   7.902   3.118 -0.3051  0.3908 -0.4802
  788MOL0     O 8609  10.142   7.859   3.001 -0.0835 -0.3110 -0.2629
  788MOL0     C 8610  10.204   7.745   2.949  0.3876  0.1066 -0.4107
  788MOL0     C 8611  10.254   7.741   2.824 -0.5196 -0.0710 -0.0209
  788MOL0     C 8612  10.315   7.630   2.768  0.4469  0.1790 -0.1250
  788MOL0     C 8613  10.313   7.508   2.837  0.4983 -0.1292  0.3866
  788MOL0     O 8614  10.378   7.396   2.798 -0.8096 -0.2093 -0.4442
  788MOL0     C 8615  10.502   7.398   2.719 -0.6597 -0.2530  0.4292
  788MOL0     C 8616  10.606   7.292   2.759  0.1884 -0.8499  0.3233
  788MOL0     C 8617  10.568   7.145   2.710 -0.3187  0.3222 -0.6267
  788MOL0     C 8618  10.691   7.055   2.701 -0.1023  0.2487  1.0096
  788MOL0     C 8619  10.674   6.899   2.696 -0.7117 -0.8003 -0.4227
  788MOL0     C 8620  10.628   6.853   2.552  0.1445  0.3239  0.3253
  788MOL0     C 8621  10.620   6.697   2.527 -0.0131 -0.2239 -0.5012
  788MOL0     C 8622  10.754   6.626   2.538  0.3089 -0.9809 -0.0736
  788MOL0     N 8623  10.766   6.522   2.648 -0.6009 -1.3317 -0.4223
  788MOL0     C 8624  10.681   6.501   2.752  0.4224  0.7498  0.5656
  788MOL0     C 8625  10.740   6.398   2.824  0.6069 -0.8070  0.9783
  788MOL0     C 8626  10.688   6.344   2.946 -0.2569  0.6263 -0.3458
  788MOL0     C 8627  10.531   6.307   2.958  0.4791 -0.2190 -0.3088
  788MOL0     C 8628  10.487   6.250   3.096 -1.7075  1.6870  0.8360
  788MOL0     C 8629  10.340   6.269   3.116 -0.3304  0.0926  0.7871
  788MOL0     O 8630  10.325   6.414   3.134  0.1511  0.6087 -0.2108
  788MOL0     C 8631  10.197   6.459   3.133  0.9892  1.3879 -0.1484
  788MOL0     C 8632  10.085   6.375   3.157  0.6541  0.2881 -1.1178
  788MOL0     C 8633   9.951   6.420   3.164  1.0030 -0.4342 -0.2862
  788MOL0     C 8634   9.853   6.313   3.183  0.2792  0.5437 -1.3866
  788MOL0     C 8635   9.925   6.559   3.160  0.0223 -0.9552  0.0749
  788MOL0     C 8636   9.795   6.616   3.188  0.2207  0.1800  0.0160
  788MOL0     O 8637   9.752   6.733   3.130  0.5247 -0.3556  0.2681
  788MOL0     C 8638   9.639   6.799   3.171 -0.1218 -0.1255  0.1659
  788MOL0     C 8639   9.520   6.728   3.189  0.4461  0.0502 -0.3771
  788MOL0     C 8640   9.403   6.786   3.243 -0.2029 -0.1194  0.2242
  788MOL0     C 8641   9.417   6.915   3.287  0.3035 -0.5379  0.2830
  788MOL0     O 8642   9.311   6.988   3.347  1.1666  0.5229  0.3279
  788MOL0     C 8643   9.188   6.913   3.390 -0.9135 -0.2579  0.5184
  788MOL0     C 8644   9.100   7.016   3.456 -0.0048 -0.6949  0.3016
  788MOL0     C 8645   8.969   6.958   3.491  0.0015 -0.4567 -0.1865
  788MOL0     C 8646   8.972   6.881   3.623 -1.0869  0.2004 -0.4188
  788MOL0     C 8647   8.839   6.835   3.673  0.3896  0.0838 -0.0796
  788MOL0     C 8648   8.834   6.718   3.767 -0.0285  0.1816  0.3126
  788MOL0     C 8649   8.688   6.691   3.789 -0.7249  0.3201  0.5308
  788MOL0     C 8650   8.677   6.615   3.926  0.9319 -0.2991  0.1816
  788MOL0    Cl 8651   8.705   6.438   3.904  0.0643 -0.2274 -0.2108
  788MOL0     C 8652   9.535   6.996   3.272  0.8127  0.2284 -0.5783
  788MOL0     C 8653   9.646   6.936   3.224 -0.4337  0.8397  0.3808
  788MOL0     O 8654   9.730   6.550   3.272 -0.4127 -0.1024 -0.3002
  788MOL0     C 8655  10.035   6.652   3.128 -0.7957  0.2087  0.3444
  788MOL0     C 8656  10.166   6.599   3.117 -0.4920 -0.2408 -0.7400
  788MOL0     N 8657  10.873   6.376   2.772 -0.1072 -0.3152 -0.1905
  788MOL0     N 8658  10.877   6.446   2.661 -0.1152  0.0718  0.3903
  788MOL0     C 8659  10.248   7.500   2.961  1.0217  0.1713 -0.3466
  788MOL0     C 8660  10.194   7.616   3.010  0.1056 -0.0809 -0.2893
  788MOL0     C 8661  10.141   8.021   3.180  0.2890 -0.5884  0.1394
  788MOL0     C 8662  10.053   7.995   3.284 -0.3328  0.4048  0.8810
  788MOL0     C 8663   9.979   8.100   3.330  0.7404  1.0253 -0.4670
  788MOL0     C 8664   9.977   8.228   3.269  0.2619 -0.2555 -1.5237
  788MOL0     O 8665   9.876   8.306   3.312  0.2553  0.1620 -0.1355
  788MOL0     C 8666   9.857   8.438   3.249  0.2406 -0.2062  0.3738
  788MOL0     C 8667   9.722   8.492   3.298 -0.0706 -0.0414 -0.0254
  788MOL0     C 8668   9.603   8.411   3.247  0.0571  1.1261  0.5586
  788MOL0     C 8669   9.579   8.424   3.089  0.2215  0.2968  0.5206
  788MOL0     C 8670   9.566   8.563   3.047 -0.0333 -0.4313  0.6292
  788MOL0     C 8671   9.550   8.681   3.022  0.0944 -0.1773 -0.2169
  788MOL0     C 8672  10.061   8.265   3.171 -0.4759 -0.4149 -0.2786
  788MOL0     C 8673  10.136   8.152   3.123 -1.2091 -0.2014 -0.0238
  788MOL0     C 8674  10.211   8.168   2.995  0.6296 -0.3330 -0.9881
  788MOL0     H 8675  10.260   7.837   2.773 -3.5084 -0.3849 -1.1709
  788MOL0     H 8676  10.365   7.646   2.673  0.2869  0.5171 -0.1534
  788MOL0     H 8677  10.539   7.500   2.725 -2.9246  0.8938 -2.7600
  788MOL0     H 8678  10.478   7.369   2.617  3.9841 -0.5023 -0.8498
  788MOL0     H 8679  10.699   7.329   2.715 -0.5076  2.2630  1.2318
  788MOL0     H 8680  10.611   7.286   2.868  1.4137 -1.7624  0.2433
  788MOL0     H 8681  10.492   7.101   2.776 -3.8673 -0.4238 -4.7976
  788MOL0     H 8682  10.536   7.154   2.606 -0.6352  0.3707 -0.5253
  788MOL0     H 8683  10.742   7.080   2.607 -1.1753  1.7596  0.7957
  788MOL0     H 8684  10.768   7.066   2.777  2.2170 -0.1416 -1.1256
  788MOL0     H 8685  10.609   6.871   2.779  0.5559  3.3803  2.3323
  788MOL0     H 8686  10.777   6.869   2.715  0.1538  2.4635  0.7318
  788MOL0     H 8687  10.527   6.894   2.538 -0.1231  0.2404  1.8176
  788MOL0     H 8688  10.697   6.899   2.482 -0.3304  1.0761  0.3366
  788MOL0     H 8689  10.586   6.673   2.426  1.4249 -0.0077 -1.0641
  788MOL0     H 8690  10.550   6.655   2.601  0.0789  1.4556  0.6054
  788MOL0     H 8691  10.766   6.562   2.450 -2.5327 -0.7615 -0.7187
  788MOL0     H 8692  10.833   6.701   2.541  0.6507 -1.2701 -1.4354
  788MOL0     H 8693  10.592   6.561   2.770  0.2750  0.9049 -0.6467
  788MOL0     H 8694  10.710   6.418   3.023  3.0707 -2.3876  1.9273
  788MOL0     H 8695  10.740   6.254   2.978  0.0685  1.1724  0.6950
  788MOL0     H 8696  10.480   6.400   2.932 -0.2209 -0.1098  1.3123
  788MOL0     H 8697  10.501   6.233   2.884  0.6097 -0.5326 -0.0507
  788MOL0     H 8698  10.526   6.148   3.107 -1.8660  1.6734  1.3033
  788MOL0     H 8699  10.528   6.308   3.179 -0.8411  0.5323  1.2343
  788MOL0     H 8700  10.292   6.233   3.024 -1.3710  2.1630  0.4572
  788MOL0     H 8701  10.302   6.215   3.203 -1.1267 -1.7547 -0.6251
  788MOL0     H 8702  10.101   6.269   3.173 -1.8634  0.0849  0.6225
  788MOL0     H 8703   9.766   6.336   3.122 -0.6874  4.5044  1.0767
  788MOL0     H 8704   9.824   6.333   3.287  1.5342 -1.8594 -0.5162
  788MOL0     H 8705   9.884   6.209   3.176 -1.2256 -0.6364  4.2032
  788MOL0     H 8706   9.501   6.627   3.154 -0.3242  0.0359  0.0589
  788MOL0     H 8707   9.302   6.747   3.244 -1.0253  1.5409 -3.3673
  788MOL0     H 8708   9.139   6.864   3.306 -2.4222  0.7270  0.7987
  788MOL0     H 8709   9.205   6.839   3.469  0.3938 -0.1929  0.3301
  788MOL0     H 8710   9.152   7.057   3.543  1.3810 -2.2549  0.2536
  788MOL0     H 8711   9.072   7.102   3.393  1.0197 -0.4504  0.1602
  788MOL0     H 8712   8.934   6.893   3.410 -0.1169 -0.6148 -0.0086
  788MOL0     H 8713   8.895   7.038   3.495  0.6645  0.2634 -1.5282
  788MOL0     H 8714   9.020   6.950   3.694 -2.9259 -1.6109  2.8691
  788MOL0     H 8715   9.038   6.795   3.608 -0.6870  0.4412 -0.0525
  788MOL0     H 8716   8.801   6.923   3.725  1.6585  0.3904  0.3688
  788MOL0     H 8717   8.780   6.807   3.585  2.0213 -0.6014 -1.0032
  788MOL0     H 8718   8.889   6.756   3.854  2.6757 -0.8568 -0.8250
  788MOL0     H 8719   8.892   6.633   3.728  0.3874 -0.1304  1.5681
  788MOL0     H 8720   8.652   6.630   3.705  3.7337 -0.1462 -1.3128
  788MOL0     H 8721   8.635   6.785   3.807 -0.0458  0.0155  5.3944
  788MOL0     H 8722   8.582   6.624   3.980  0.9381  0.9021  0.0203
  788MOL0     H 8723   8.756   6.651   3.992  0.4076  1.1950  0.0258
  788MOL0     H 8724   9.535   7.095   3.316  3.1872 -0.7412  1.9324
  788MOL0     H 8725   9.724   7.011   3.219  1.1023 -0.6192  1.5145
  788MOL0     H 8726  10.023   6.759   3.108 -2.0500  0.2819  1.3114
  788MOL0     H 8727  10.255   6.661   3.110 -1.7893  1.7567 -0.4226
  788MOL0     H 8728  10.252   7.409   3.019  1.3228  1.1247  1.1978
  788MOL0     H 8729  10.160   7.615   3.113 -0.3655 -1.8052 -0.4274
  788MOL0     H 8730  10.072   7.896   3.322 -0.3395  0.0750  0.0424
  788MOL0     H 8731   9.936   8.083   3.428  3.5388 -2.0594  0.3924
  788MOL0     H 8732   9.932   8.507   3.289  1.2299 -1.6140  1.0334
  788MOL0     H 8733   9.855   8.442   3.140 -1.7227 -1.7999  0.2787
  788MOL0     H 8734   9.719   8.596   3.265 -0.7121 -0.7382 -2.3651
  788MOL0     H 8735   9.719   8.490   3.407 -1.4471 -1.3203 -0.0614
  788MOL0     H 8736   9.615   8.302   3.248  2.2262  1.2493 -1.9881
  788MOL0     H 8737   9.509   8.418   3.302 -1.3806  0.1603 -1.6026
  788MOL0     H 8738   9.491   8.362   3.066  1.8945 -1.6551 -0.9936
  788MOL0     H 8739   9.656   8.371   3.032  1.5075 -0.6373  2.9740
  788MOL0     H 8740   9.542   8.786   3.004  0.0147 -0.4209 -1.7390
  788MOL0     H 8741  10.067   8.360   3.120  1.6709  0.5900  1.6687
  788MOL0     H 8742  10.319   8.162   3.012  0.6423  1.6782 -0.0206
  788MOL0     H 8743  10.183   8.084   2.931  0.5993 -0.7367 -0.4530
  788MOL0     H 8744  10.190   8.262   2.943  1.7029  1.0403  0.9524
  789MOL0     O 8745   1.203   9.493   1.186  1.0015 -0.4347  0.3163
  789MOL0     C 8746   1.239   9.429   1.088 -0.5365 -0.8772 -1.3514
  789MOL0     O 8747   1.175   9.334   1.030 -0.0388 -0.2989  0.4385
  789MOL0     C 8748   1.087   9.246   1.090 -1.8194 -0.4210 -0.4922
  789MOL0     C 8749   1.067   9.130   1.025 -0.3848 -0.1914 -0.1958
  789MOL0     C 8750   1.000   9.020   1.084 -0.3940 -0.2276  0.6818
  789MOL0     C 8751   0.941   9.043   1.212  1.1094  0.3184 -0.1238
  789MOL0     O 8752   0.861   8.939   1.273 -1.1959  0.0079  0.0345
  789MOL0     C 8753   0.925   8.804   1.276 -0.1864  0.0255  0.1384
  789MOL0     C 8754   0.842   8.706   1.355 -0.0453 -0.2274 -0.0049
  789MOL0     C 8755   0.873   8.557   1.342 -0.8972 -1.2030  0.2565
  789MOL0     C 8756   0.767   8.458   1.375 -0.6061  0.7661 -0.4308
  789MOL0     C 8757   0.737   8.447   1.530 -0.5752  0.5622  0.4853
  789MOL0     C 8758   0.722   8.578   1.616 -0.0420  0.3109  0.3806
  789MOL0     C 8759   0.659   8.544   1.757 -0.0138  0.1139 -0.7286
  789MOL0     C 8760   0.620   8.675   1.835 -0.3630  0.4622  0.5571
  789MOL0     N 8761   0.716   8.720   1.938  0.8891 -0.0731 -0.2101
  789MOL0     C 8762   0.775   8.635   2.020 -0.9963  0.3473 -0.4765
  789MOL0     C 8763   0.846   8.720   2.114  0.6938  0.0493  0.6981
  789MOL0     C 8764   0.935   8.668   2.222  0.4642 -0.7483 -0.4959
  789MOL0     C 8765   1.076   8.667   2.158 -0.3979  1.0424  0.1930
  789MOL0     C 8766   1.196   8.634   2.245  0.2059  1.0255 -0.8257
  789MOL0     C 8767   1.175   8.513   2.342 -0.1240  0.6417 -0.4654
  789MOL0     O 8768   1.109   8.405   2.266  1.3762 -0.0609 -0.0772
  789MOL0     C 8769   1.180   8.312   2.194 -0.2521 -0.1833 -0.3125
  789MOL0     C 8770   1.309   8.333   2.138 -0.5038  0.6962 -0.6916
  789MOL0     C 8771   1.363   8.244   2.055  0.4044  0.0575 -0.2434
  789MOL0     C 8772   1.493   8.279   2.010 -0.3034  0.5279 -1.0517
  789MOL0     C 8773   1.301   8.119   2.037  0.1806  0.8686  0.7288
  789MOL0     C 8774   1.353   8.022   1.945 -1.0228  1.2565 -0.0712
  789MOL0     O 8775   1.481   7.978   1.946 -0.4576 -0.3525  0.1355
  789MOL0     C 8776   1.555   7.918   1.845  0.5411  0.0295  1.0348
  789MOL0     C 8777   1.677   7.871   1.874 -0.3377  0.6318 -0.1817
  789MOL0     C 8778   1.760   7.813   1.770  0.3727  0.5366 -0.4636
  789MOL0     C 8779   1.718   7.800   1.642 -0.5503 -0.7518 -0.8055
  789MOL0     O 8780   1.807   7.735   1.565 -0.0638  0.8638  0.5386
  789MOL0     C 8781   1.802   7.737   1.422  0.5820 -0.1724 -0.3346
  789MOL0     C 8782   1.700   7.642   1.351 -0.0230 -0.0402 -0.1956
  789MOL0     C 8783   1.745   7.494   1.379 -0.9313  0.5836 -0.0217
  789MOL0     C 8784   1.626   7.397   1.389  0.0856  0.6861 -1.0418
  789MOL0     C 8785   1.574   7.356   1.246 -0.2240 -1.0480 -0.2164
  789MOL0     C 8786   1.684   7.289   1.159  0.1592  0.6756  0.3668
  789MOL0     C 8787   1.616   7.245   1.025 -1.4036 -0.4828 -0.1932
  789MOL0     C 8788   1.718   7.170   0.935  0.4220  0.2017  0.6670
  789MOL0    Cl 8789   1.852   7.270   0.868 -0.4155  0.0588  0.1670
  789MOL0     C 8790   1.588   7.848   1.616 -0.0264  0.4809  0.2115
  789MOL0     C 8791   1.508   7.910   1.705 -0.0797 -0.2931  0.2829
  789MOL0     O 8792   1.269   7.981   1.870  0.6506  0.0755 -0.5201
  789MOL0     C 8793   1.169   8.096   2.080 -1.6941  0.2842  0.0715
  789MOL0     C 8794   1.116   8.193   2.158  0.3737  0.1895  0.4135
  789MOL0     N 8795   0.818   8.841   2.076 -1.1461 -0.3568  0.1756
  789MOL0     N 8796   0.740   8.843   1.971  0.5868  0.9945  0.6632
  789MOL0     C 8797   0.943   9.176   1.269  0.3281  0.1051  0.2216
  789MOL0     C 8798   1.019   9.266   1.211 -0.5760 -0.6359  0.2439
  789MOL0     C 8799   1.359   9.477   1.038  0.4744 -0.2981  0.3001
  789MOL0     C 8800   1.385   9.614   1.034 -0.3769 -0.3532  0.6456
  789MOL0     C 8801   1.516   9.651   0.987  0.2850  0.0477 -0.0493
  789MOL0     C 8802   1.618   9.560   0.950  0.8376  0.7825 -0.0953
  789MOL0     O 8803   1.742   9.593   0.899 -0.7153  1.1917 -0.3756
  789MOL0     C 8804   1.775   9.732   0.894 -0.8882 -0.6776  0.0644
  789MOL0     C 8805   1.925   9.741   0.876  0.4128  0.4374 -0.1192
  789MOL0     C 8806   2.002   9.678   0.993  0.5489  0.6071 -0.6732
  789MOL0     C 8807   2.114   9.777   1.037  0.0198 -0.4329 -1.2666
  789MOL0     C 8808   2.065   9.893   1.120  0.0703  0.6972  0.9336
  789MOL0     C 8809   2.021   9.990   1.181 -0.8166  0.3367  0.1737
  789MOL0     C 8810   1.578   9.433   0.935  0.0490  0.2000 -0.0471
  789MOL0     C 8811   1.459   9.384   0.986  0.1140 -0.6053 -0.0477
  789MOL0     C 8812   1.430   9.234   0.969  0.2847 -0.3291  0.0969
  789MOL0     H 8813   1.102   9.129   0.922 -0.9266  1.5201 -0.4298
  789MOL0     H 8814   1.000   8.925   1.033 -1.2382 -0.2383  0.6887
  789MOL0     H 8815   1.023   8.800   1.325  0.6662 -0.3436 -1.5317
  789MOL0     H 8816   0.932   8.762   1.176  4.5788 -3.4750  1.5705
  789MOL0     H 8817   0.844   8.736   1.460 -3.4905  1.1962 -0.2275
  789MOL0     H 8818   0.740   8.717   1.318 -1.0278  0.8352  2.7836
  789MOL0     H 8819   0.892   8.524   1.239 -2.8409 -2.4783  0.2593
  789MOL0     H 8820   0.960   8.537   1.406  0.3845  0.0972 -0.9988
  789MOL0     H 8821   0.675   8.466   1.315 -0.6066  0.4205 -0.4820
  789MOL0     H 8822   0.808   8.361   1.346 -0.1649  0.2505  1.7351
  789MOL0     H 8823   0.815   8.380   1.565  1.4315  2.0579 -0.8996
  789MOL0     H 8824   0.644   8.392   1.546  0.0206 -0.9406 -0.9701
  789MOL0     H 8825   0.823   8.619   1.629 -0.1623  1.5443 -1.9749
  789MOL0     H 8826   0.655   8.643   1.559 -1.0655  0.3270  1.5675
  789MOL0     H 8827   0.727   8.469   1.800  1.9550  0.8379 -2.4074
  789MOL0     H 8828   0.571   8.484   1.732 -0.6258  0.7715 -0.1730
  789MOL0     H 8829   0.601   8.752   1.759  0.5987  0.9563  0.7965
  789MOL0     H 8830   0.527   8.671   1.892 -2.2807  4.3780 -1.8087
  789MOL0     H 8831   0.774   8.527   2.021  1.7473  0.2598 -0.6388
  789MOL0     H 8832   0.908   8.571   2.264  2.2792 -2.2854 -2.6545
  789MOL0     H 8833   0.932   8.738   2.306 -0.6605  0.5975 -1.5967
  789MOL0     H 8834   1.074   8.586   2.084 -2.0414 -0.6586  1.9795
  789MOL0     H 8835   1.096   8.768   2.122  0.9360  1.1617  1.2342
  789MOL0     H 8836   1.293   8.621   2.196  0.1949 -0.5598 -0.5097
  789MOL0     H 8837   1.209   8.725   2.304 -2.0747  1.8307 -1.4516
  789MOL0     H 8838   1.267   8.478   2.389 -0.8917 -2.5734 -1.1404
  789MOL0     H 8839   1.106   8.535   2.424  1.4846  0.2268  1.0665
  789MOL0     H 8840   1.367   8.419   2.170 -1.5545  0.5501  1.8970
  789MOL0     H 8841   1.561   8.195   2.028  0.8144  1.5320 -0.4161
  789MOL0     H 8842   1.534   8.362   2.068  1.5410 -1.2419  0.2800
  789MOL0     H 8843   1.491   8.305   1.903 -2.1267  2.2623 -0.6610
  789MOL0     H 8844   1.723   7.875   1.973  1.1099 -0.1439 -0.7896
  789MOL0     H 8845   1.859   7.785   1.807  0.4056 -1.0796 -1.6713
  789MOL0     H 8846   1.763   7.837   1.398 -2.5918 -0.6882  1.9706
  789MOL0     H 8847   1.904   7.732   1.382  1.4615 -0.5710  1.8570
  789MOL0     H 8848   1.601   7.658   1.395  1.3512  0.9526  2.7968
  789MOL0     H 8849   1.691   7.673   1.247 -2.1563  0.0717 -0.0186
  789MOL0     H 8850   1.806   7.484   1.469  2.6206 -0.3415 -2.3346
  789MOL0     H 8851   1.810   7.480   1.292 -1.1608 -0.1187 -0.0883
  789MOL0     H 8852   1.549   7.444   1.451  2.2064  2.3376  0.5187
  789MOL0     H 8853   1.661   7.307   1.441  1.2907  0.7730 -1.6711
  789MOL0     H 8854   1.500   7.277   1.260 -0.0988 -1.1989 -0.3997
  789MOL0     H 8855   1.510   7.436   1.207 -0.4873  1.0210  3.9289
  789MOL0     H 8856   1.736   7.213   1.218  1.4173 -0.1430 -1.7093
  789MOL0     H 8857   1.759   7.365   1.136  1.0870 -0.8647 -2.1203
  789MOL0     H 8858   1.585   7.337   0.974  0.5465  0.9489  1.0781
  789MOL0     H 8859   1.521   7.194   1.046 -2.3106  0.3804 -1.9390
  789MOL0     H 8860   1.666   7.120   0.853  1.8599  0.0033 -0.1576
  789MOL0     H 8861   1.763   7.087   0.991  1.2049 -0.2393 -0.5768
  789MOL0     H 8862   1.550   7.827   1.516  1.3681  2.0826 -0.7058
  789MOL0     H 8863   1.422   7.968   1.672  2.1393  1.7933 -2.2497
  789MOL0     H 8864   1.105   8.011   2.062  0.0421 -0.5879 -2.6099
  789MOL0     H 8865   1.013   8.205   2.190 -0.0283  1.1386 -1.1049
  789MOL0     H 8866   0.908   9.190   1.371  0.1831  1.0138  0.0590
  789MOL0     H 8867   1.034   9.353   1.274 -0.4844 -1.9254  2.0782
  789MOL0     H 8868   1.311   9.690   1.053 -0.7686 -1.0848  2.2244
  789MOL0     H 8869   1.538   9.757   0.977  2.2869 -0.0377  2.3574
  789MOL0     H 8870   1.741   9.775   0.799  0.0733  0.9475  0.4157
  789MOL0     H 8871   1.741   9.792   0.979 -0.0206 -2.4276  1.7161
  789MOL0     H 8872   1.951   9.847   0.870 -2.9276  1.3441 -0.6066
  789MOL0     H 8873   1.945   9.705   0.774 -0.7435  1.2647 -0.6627
  789MOL0     H 8874   1.947   9.647   1.082  0.8985  1.0625 -0.2947
  789MOL0     H 8875   2.046   9.583   0.963 -1.3734 -0.3199 -0.6754
  789MOL0     H 8876   2.172   9.812   0.951  0.8728  0.2834 -0.4245
  789MOL0     H 8877   2.178   9.718   1.103 -0.1082 -0.6153 -1.3073
  789MOL0     H 8878   1.973  10.074   1.226 -2.2849  1.2107 -2.7362
  789MOL0     H 8879   1.640   9.357   0.889 -0.4632  1.1668 -2.5149
  789MOL0     H 8880   1.403   9.192   1.066 -2.6792  1.7992  0.3053
  789MOL0     H 8881   1.366   9.223   0.881 -0.3031  0.0024  0.4852
  789MOL0     H 8882   1.522   9.181   0.943  0.6527 -0.1401  0.9924
  790MOL0     O 8883  10.885   7.981   1.416  0.3867 -0.3457  0.3475
  790MOL0     C 8884  10.856   7.958   1.530 -0.3352 -0.3220 -0.8351
  790MOL0     O 8885  10.881   7.837   1.599 -0.4666 -0.5503 -0.1766
  790MOL0     C 8886  10.977   7.757   1.555  0.0882 -0.7827  0.2807
  790MOL0     C 8887  10.961   7.681   1.439  0.0327  0.7500 -0.5364
  790MOL0     C 8888  11.067   7.592   1.403  0.6535 -0.0746 -0.1844
  790MOL0     C 8889  11.190   7.578   1.472 -0.1208  0.4966 -0.2258
  790MOL0     O 8890  11.293   7.491   1.430  1.2537 -0.2557  0.3495
  790MOL0     C 8891  11.425   7.481   1.476 -0.3773  0.5041  0.0509
  790MOL0     C 8892  11.528   7.596   1.451 -0.7368  0.2976  0.3962
  790MOL0     C 8893  11.672   7.547   1.509 -0.1374 -0.3191  0.0773
  790MOL0     C 8894  11.785   7.649   1.503  0.1485  0.6954  0.8857
  790MOL0     C 8895  11.915   7.602   1.565  0.1249  0.0090 -1.1794
  790MOL0     C 8896  12.012   7.720   1.599  0.2532 -0.1113 -0.6609
  790MOL0     C 8897  12.038   7.810   1.481  0.4829  0.2167 -0.1008
  790MOL0     C 8898  12.135   7.923   1.515 -0.6188  0.1603  0.1331
  790MOL0     N 8899  12.129   8.029   1.410  0.1530  0.5378 -0.6117
  790MOL0     C 8900  12.171   8.029   1.284 -0.8807 -0.5157 -0.0499
  790MOL0     C 8901  12.177   8.162   1.250  0.3031 -0.2940 -0.3040
  790MOL0     C 8902  12.219   8.220   1.115 -0.1314 -0.1841 -0.4569
  790MOL0     C 8903  12.272   8.119   1.018 -0.5512  0.5938 -0.0693
  790MOL0     C 8904  12.290   8.184   0.883  0.1648 -0.0609  0.2163
  790MOL0     C 8905  12.401   8.283   0.868  0.8559  0.9969  0.5087
  790MOL0     O 8906  12.433   8.268   0.735  0.0152  0.2869  0.3223
  790MOL0     C 8907  12.512   8.166   0.685 -1.5417  0.6015 -0.2522
  790MOL0     C 8908  12.544   8.043   0.743  0.0548 -0.8034 -0.0760
  790MOL0     C 8909  12.610   7.940   0.674  0.1774  0.7356  0.6507
  790MOL0     C 8910  12.647   7.812   0.760 -0.3104 -0.9468  0.6394
  790MOL0     C 8911  12.657   7.970   0.544  0.5715 -0.2100  0.4594
  790MOL0     C 8912  12.732   7.873   0.461  0.7533 -0.3523 -0.6853
  790MOL0     O 8913  12.819   7.782   0.526  0.1468  0.4227  0.3015
  790MOL0     C 8914  12.869   7.683   0.444  1.1084 -1.0858 -0.2581
  790MOL0     C 8915  12.820   7.560   0.467  0.2150  0.3823  0.6206
  790MOL0     C 8916  12.839   7.454   0.378 -1.4583 -0.1170 -0.4177
  790MOL0     C 8917  12.936   7.478   0.271  0.9290 -0.1483  0.5354
  790MOL0     O 8918  12.985   7.384   0.181  0.1984 -0.1718 -0.1656
  790MOL0     C 8919  12.935   7.249   0.189  1.0107  0.2381 -0.7617
  790MOL0     C 8920  13.034   7.171   0.282 -0.0127  0.0009  0.1037
  790MOL0     C 8921  13.016   7.011   0.298  0.4604 -1.2477  0.8924
  790MOL0     C 8922  13.132   6.958   0.391 -0.1160 -0.2566 -0.7067
  790MOL0     C 8923  13.158   6.810   0.371  0.2465 -0.7864 -1.2272
  790MOL0     C 8924  13.288   6.749   0.434 -0.0157  0.0922 -0.0032
  790MOL0     C 8925  13.286   6.759   0.589  0.7348  0.2081 -0.0176
  790MOL0     C 8926  13.403   6.848   0.631 -0.3721  1.3154  0.1806
  790MOL0    Cl 8927  13.405   6.868   0.808  0.2314 -0.2621 -0.1837
  790MOL0     C 8928  12.993   7.603   0.262 -0.1560 -0.3715  1.0526
  790MOL0     C 8929  12.960   7.700   0.343 -0.9006 -0.0881  0.5205
  790MOL0     O 8930  12.713   7.874   0.341  0.5749 -0.2052  0.4552
  790MOL0     C 8931  12.632   8.099   0.488  0.1075 -0.4391  1.1243
  790MOL0     C 8932  12.552   8.189   0.557  0.4175  0.0575  0.2497
  790MOL0     N 8933  12.156   8.238   1.359 -0.1705 -0.1795 -0.0523
  790MOL0     N 8934  12.107   8.155   1.448 -0.7257 -0.5012  0.8783
  790MOL0     C 8935  11.196   7.658   1.594 -0.4163  0.0273  0.7599
  790MOL0     C 8936  11.092   7.747   1.631  0.5471 -0.1663  0.0951
  790MOL0     C 8937  10.789   8.065   1.603 -0.6152  0.1761 -0.0628
  790MOL0     C 8938  10.744   8.046   1.734  0.7863 -0.1685 -0.2069
  790MOL0     C 8939  10.697   8.148   1.809  0.3821  0.6475  0.2207
  790MOL0     C 8940  10.670   8.274   1.757 -0.0335  0.8501 -0.5203
  790MOL0     O 8941  10.621   8.371   1.849 -0.3794  0.1767 -0.3231
  790MOL0     C 8942  10.542   8.477   1.809 -0.0176 -0.8688 -0.0482
  790MOL0     C 8943  10.439   8.488   1.919 -0.1824  0.0792 -0.9946
  790MOL0     C 8944  10.318   8.591   1.902 -0.4674 -0.5371 -0.4838
  790MOL0     C 8945  10.218   8.527   1.807  0.1292 -0.7739  0.2849
  790MOL0     C 8946  10.102   8.622   1.788 -0.2888  0.3260 -1.6228
  790MOL0     C 8947   9.955   8.745   1.744  0.6073  1.1718 -0.8641
  790MOL0     C 8948  10.682   8.288   1.617 -0.4080 -0.0925 -0.8185
  790MOL0     C 8949  10.753   8.195   1.550  0.1674  0.9887  0.8122
  790MOL0     C 8950  10.775   8.240   1.411 -0.4707  0.0165 -0.7957
  790MOL0     H 8951  10.867   7.678   1.386  0.2316 -2.2690 -0.9141
  790MOL0     H 8952  11.049   7.521   1.323  0.2561 -1.4950  1.1185
  790MOL0     H 8953  11.463   7.394   1.422  0.0341 -1.1585  2.7812
  790MOL0     H 8954  11.422   7.443   1.579  1.1341 -1.3789 -0.5458
  790MOL0     H 8955  11.533   7.622   1.344 -2.5501 -1.5730 -0.2257
  790MOL0     H 8956  11.500   7.683   1.511  0.7975  1.2040 -0.1330
  790MOL0     H 8957  11.653   7.518   1.613 -1.4486  0.5167  0.0920
  790MOL0     H 8958  11.712   7.459   1.458 -2.3876 -0.1796 -2.1136
  790MOL0     H 8959  11.816   7.676   1.401  3.4917 -1.1678  1.2679
  790MOL0     H 8960  11.758   7.739   1.559  1.1401  0.1907  2.2084
  790MOL0     H 8961  11.986   7.535   1.515  2.4282  0.1867  1.5722
  790MOL0     H 8962  11.897   7.551   1.660 -0.9942 -0.3130 -1.5504
  790MOL0     H 8963  11.969   7.771   1.687  0.0371 -3.5289  1.3853
  790MOL0     H 8964  12.109   7.683   1.630 -0.3482 -1.4557 -0.3245
  790MOL0     H 8965  11.944   7.854   1.447 -0.4815 -1.0234  0.8351
  790MOL0     H 8966  12.078   7.750   1.399  1.3968  1.1611 -0.3659
  790MOL0     H 8967  12.118   7.960   1.616 -2.4009  4.0881 -1.4177
  790MOL0     H 8968  12.231   7.869   1.511 -1.4287 -1.6593  2.6763
  790MOL0     H 8969  12.179   7.940   1.221 -3.4386 -1.0253  0.2373
  790MOL0     H 8970  12.295   8.298   1.127 -3.1142  2.7636  0.7535
  790MOL0     H 8971  12.136   8.269   1.063 -1.2148 -0.8106  0.6324
  790MOL0     H 8972  12.367   8.083   1.058 -0.9544 -0.2585  0.1419
  790MOL0     H 8973  12.204   8.034   1.016  1.8420 -1.4541  0.4679
  790MOL0     H 8974  12.299   8.104   0.809  1.1564 -1.1648  1.4489
  790MOL0     H 8975  12.201   8.238   0.852  0.0612 -1.6249 -2.5509
  790MOL0     H 8976  12.364   8.385   0.877 -1.2031  0.1972  2.2552
  790MOL0     H 8977  12.492   8.259   0.925  1.6172  1.0114 -0.6797
  790MOL0     H 8978  12.506   8.018   0.841 -2.7327  1.9235 -0.3200
  790MOL0     H 8979  12.646   7.832   0.867  1.0631  0.8712  0.3592
  790MOL0     H 8980  12.753   7.795   0.742 -0.3648  1.0347 -2.3468
  790MOL0     H 8981  12.583   7.728   0.730 -1.3208 -0.1885  0.6216
  790MOL0     H 8982  12.747   7.550   0.546  0.2835  0.6874  0.7254
  790MOL0     H 8983  12.783   7.362   0.381  1.1778 -1.8007  1.7051
  790MOL0     H 8984  12.833   7.237   0.227  0.8847  1.4810 -0.6892
  790MOL0     H 8985  12.932   7.208   0.088  1.4010  1.1553 -1.1553
  790MOL0     H 8986  13.129   7.195   0.234 -0.8814 -0.5558 -2.0045
  790MOL0     H 8987  13.008   7.210   0.382 -1.9680 -0.8305 -0.0254
  790MOL0     H 8988  13.025   6.970   0.197  0.1303 -5.1584  2.2775
  790MOL0     H 8989  12.917   6.984   0.336  0.3747 -0.6106  1.1403
  790MOL0     H 8990  13.101   6.989   0.492 -1.3558 -1.4729 -0.6925
  790MOL0     H 8991  13.235   6.995   0.383  0.6410 -1.4408  2.1054
  790MOL0     H 8992  13.067   6.763   0.408  0.2269 -0.5446 -0.9682
  790MOL0     H 8993  13.170   6.800   0.263  1.6334  0.0634 -1.1724
  790MOL0     H 8994  13.377   6.803   0.399 -1.3604 -0.5731 -5.1375
  790MOL0     H 8995  13.299   6.645   0.404 -0.6481  0.4619 -1.5964
  790MOL0     H 8996  13.286   6.656   0.626 -3.9967 -0.4709 -1.2568
  790MOL0     H 8997  13.190   6.800   0.620 -1.0202 -1.4244 -2.8341
  790MOL0     H 8998  13.379   6.949   0.595 -0.8070  1.5664  1.1162
  790MOL0     H 8999  13.490   6.796   0.591 -2.5849 -1.2358 -1.6427
  790MOL0     H 9000  13.065   7.646   0.193 -1.6556  0.7957  0.1391
  790MOL0     H 9001  13.003   7.800   0.335  1.5871 -0.9062  2.3543
  790MOL0     H 9002  12.667   8.129   0.389  0.1104  1.1253  1.5658
  790MOL0     H 9003  12.510   8.276   0.508 -5.1149 -3.0350 -1.4427
  790MOL0     H 9004  11.290   7.662   1.648 -1.1345 -3.0019  2.4332
  790MOL0     H 9005  11.093   7.806   1.722 -0.0720  0.8295 -0.5320
  790MOL0     H 9006  10.741   7.947   1.778 -2.1877  0.8169  2.1405
  790MOL0     H 9007  10.657   8.136   1.909 -1.0935 -0.1830 -0.4374
  790MOL0     H 9008  10.592   8.574   1.800 -2.5898  0.6699  1.0735
  790MOL0     H 9009  10.487   8.461   1.715  0.0472  1.6324 -0.5761
  790MOL0     H 9010  10.501   8.507   2.007 -1.9105  2.3022 -0.1748
  790MOL0     H 9011  10.391   8.392   1.939 -1.9498  1.2728  0.7926
  790MOL0     H 9012  10.275   8.597   2.002  0.2476 -1.0528 -0.1343
  790MOL0     H 9013  10.350   8.691   1.870 -0.0930  1.2275  4.6201
  790MOL0     H 9014  10.189   8.436   1.859  0.5480 -1.0543  0.0386
  790MOL0     H 9015  10.259   8.508   1.707  2.9698  2.8079  0.5563
  790MOL0     H 9016   9.868   8.804   1.725 -1.8432 -1.6068  0.7279
  790MOL0     H 9017  10.638   8.375   1.569 -4.5022 -0.7151  1.3152
  790MOL0     H 9018  10.882   8.241   1.388  0.3708  3.3728  2.3357
  790MOL0     H 9019  10.725   8.176   1.337 -0.2061  0.5435 -1.4385
  790MOL0     H 9020  10.751   8.345   1.387 -1.0578 -0.1726 -1.0745
  791MOL0     O 9021   7.858   4.906   6.049  0.1054  0.9365 -0.3876
  791MOL0     C 9022   7.846   5.022   6.076 -0.6397 -0.9474  0.1409
  791MOL0     O 9023   7.923   5.122   6.044  0.7732 -0.3650  0.1066
  791MOL0     C 9024   8.046   5.085   5.998 -0.4584  0.0112 -0.4267
  791MOL0     C 9025   8.092   5.117   5.875  0.0130 -0.3654 -0.0911
  791MOL0     C 9026   8.208   5.060   5.823 -0.5267  0.2407 -0.8076
  791MOL0     C 9027   8.286   4.978   5.909 -0.8173 -0.8706  0.3228
  791MOL0     O 9028   8.391   4.915   5.843  0.2232 -0.0649 -0.2392
  791MOL0     C 9029   8.511   4.865   5.905 -0.1956 -0.3513 -0.0702
  791MOL0     C 9030   8.631   4.855   5.807  0.3867  1.0452 -0.9406
  791MOL0     C 9031   8.764   4.841   5.881  0.4644 -0.2929  0.1716
  791MOL0     C 9032   8.792   4.704   5.942 -0.0603  0.4399 -0.3405
  791MOL0     C 9033   8.871   4.611   5.849 -0.2046  1.4918  0.5698
  791MOL0     C 9034   8.792   4.554   5.728 -0.5160 -0.2687  0.6488
  791MOL0     C 9035   8.854   4.427   5.649 -0.1121 -0.2486 -0.0119
  791MOL0     C 9036   8.779   4.390   5.525  0.5355 -0.4973  0.2772
  791MOL0     N 9037   8.803   4.262   5.470  0.3409 -0.0231 -0.9063
  791MOL0     C 9038   8.758   4.145   5.528  0.4650  0.2193 -0.7432
  791MOL0     C 9039   8.789   4.048   5.441  0.1714  0.0327 -0.3253
  791MOL0     C 9040   8.776   3.906   5.483 -1.2205  0.4497  0.3352
  791MOL0     C 9041   8.895   3.827   5.421  0.4072  0.5187  0.0193
  791MOL0     C 9042   9.007   3.798   5.526 -0.7715  0.3890  0.5041
  791MOL0     C 9043   9.034   3.926   5.606  0.0726 -0.8691  0.3024
  791MOL0     O 9044   9.150   3.900   5.677 -0.6926 -0.0955  0.4838
  791MOL0     C 9045   9.212   4.002   5.744 -0.3251 -0.0176  0.4761
  791MOL0     C 9046   9.148   4.123   5.772 -0.0229 -1.4314  0.1804
  791MOL0     C 9047   9.204   4.212   5.867  0.2801  0.6700  0.2157
  791MOL0     C 9048   9.126   4.336   5.890 -0.1479 -0.9311 -0.3535
  791MOL0     C 9049   9.329   4.183   5.927  0.1403 -0.6877  0.8597
  791MOL0     C 9050   9.389   4.286   6.017  1.0858 -0.5542  0.3879
  791MOL0     O 9051   9.470   4.373   5.953 -0.1375 -0.1743  0.3829
  791MOL0     C 9052   9.504   4.488   6.027  0.4430  0.1451  0.0867
  791MOL0     C 9053   9.405   4.585   6.068 -0.5248 -0.2613  0.8305
  791MOL0     C 9054   9.447   4.692   6.146  0.2399 -0.1471  0.5789
  791MOL0     C 9055   9.584   4.707   6.180 -0.1506 -0.6965 -0.3601
  791MOL0     O 9056   9.623   4.823   6.250 -0.0390 -0.2183  0.0492
  791MOL0     C 9057   9.760   4.846   6.289  0.5851 -0.6395 -0.4700
  791MOL0     C 9058   9.748   4.967   6.384 -0.5976  0.6588 -0.3031
  791MOL0     C 9059   9.726   5.100   6.303 -0.3919 -0.7684  0.3121
  791MOL0     C 9060   9.713   5.206   6.412  0.1992 -0.1330  0.7187
  791MOL0     C 9061   9.836   5.259   6.485 -0.5413 -0.0384 -0.3316
  791MOL0     C 9062   9.860   5.210   6.629  0.2020 -0.2574 -0.5051
  791MOL0     C 9063   9.983   5.272   6.693 -0.3354  0.1386  0.4332
  791MOL0     C 9064   9.966   5.420   6.736  0.2781  0.2790  0.8843
  791MOL0    Cl 9065  10.119   5.457   6.823 -0.2093  0.0338  0.4588
  791MOL0     C 9066   9.666   4.595   6.161  1.0885 -0.1755 -0.0647
  791MOL0     C 9067   9.624   4.486   6.095  0.0142  0.0356  0.0500
  791MOL0     O 9068   9.335   4.307   6.129 -0.7351  0.2391  0.6665
  791MOL0     C 9069   9.386   4.057   5.904  0.3462  0.0985  0.0774
  791MOL0     C 9070   9.326   3.977   5.807 -0.1412 -0.7563 -0.1981
  791MOL0     N 9071   8.815   4.110   5.326 -0.1543  0.1586 -0.1105
  791MOL0     N 9072   8.826   4.235   5.344 -0.6892 -0.0385  0.0226
  791MOL0     C 9073   8.251   4.961   6.039  0.3714 -0.8038 -0.4233
  791MOL0     C 9074   8.138   5.021   6.082  0.0378 -0.5589 -1.0872
  791MOL0     C 9075   7.732   5.058   6.154 -0.6032  0.0065  0.6553
  791MOL0     C 9076   7.622   5.124   6.088 -0.2195 -0.4054 -0.5003
  791MOL0     C 9077   7.503   5.153   6.149 -0.6021 -0.0412 -0.2653
  791MOL0     C 9078   7.489   5.133   6.290  0.6682  0.1911  0.0386
  791MOL0     O 9079   7.371   5.185   6.347  0.9772  0.0454 -0.7595
  791MOL0     C 9080   7.401   5.255   6.478 -0.2461 -0.2015 -0.6749
  791MOL0     C 9081   7.520   5.357   6.460  0.3045  0.7428 -0.4305
  791MOL0     C 9082   7.542   5.437   6.598 -0.2086 -0.0384  0.2786
  791MOL0     C 9083   7.481   5.582   6.594  0.1316 -0.1020 -0.5432
  791MOL0     C 9084   7.330   5.567   6.587 -0.8217  0.1801  0.1180
  791MOL0     C 9085   7.210   5.566   6.583  0.3512  0.1509 -0.3648
  791MOL0     C 9086   7.597   5.076   6.360 -0.2943  1.0418  1.4468
  791MOL0     C 9087   7.710   5.035   6.294 -0.2277 -0.2393  0.1391
  791MOL0     C 9088   7.815   4.966   6.370 -0.5209 -0.7213 -0.1991
  791MOL0     H 9089   8.027   5.177   5.813  2.1169 -0.8914 -3.0208
  791MOL0     H 9090   8.247   5.078   5.723  1.1488  1.1194 -0.0459
  791MOL0     H 9091   8.489   4.766   5.947 -2.4082 -0.4722 -1.3578
  791MOL0     H 9092   8.529   4.941   5.981  0.6988 -1.4789  0.8844
  791MOL0     H 9093   8.609   4.768   5.744 -2.6458  2.5389 -2.1839
  791MOL0     H 9094   8.639   4.941   5.739 -1.7482  0.3486 -2.1960
  791MOL0     H 9095   8.854   4.867   5.825  0.6978 -1.9216 -0.2682
  791MOL0     H 9096   8.759   4.916   5.960 -4.7054  0.2072 -0.3167
  791MOL0     H 9097   8.858   4.712   6.029  0.9668 -0.0451 -1.0567
  791MOL0     H 9098   8.698   4.658   5.976  0.4812 -1.4755 -1.2960
  791MOL0     H 9099   8.894   4.522   5.907 -2.5149  1.4152  1.4891
  791MOL0     H 9100   8.958   4.664   5.809 -2.7009  5.0307 -0.7762
  791MOL0     H 9101   8.695   4.531   5.772 -1.0561 -2.5131 -1.4944
  791MOL0     H 9102   8.777   4.635   5.656  0.7425 -0.0231  0.6409
  791MOL0     H 9103   8.861   4.339   5.714  1.5612 -0.9278 -1.0465
  791MOL0     H 9104   8.959   4.442   5.622  0.5029 -1.4734  1.5177
  791MOL0     H 9105   8.677   4.385   5.565 -0.1416 -4.1162 -1.5259
  791MOL0     H 9106   8.798   4.467   5.450  2.7337 -1.3348 -0.1054
  791MOL0     H 9107   8.713   4.126   5.625  0.5582 -1.6896 -1.0477
  791MOL0     H 9108   8.694   3.876   5.417 -1.6961  2.7812 -0.2041
  791MOL0     H 9109   8.756   3.882   5.588  1.9043 -0.2932  0.8752
  791MOL0     H 9110   8.860   3.729   5.388 -3.6602  1.8802 -0.2085
  791MOL0     H 9111   8.944   3.881   5.339  1.6656 -0.3464  0.1701
  791MOL0     H 9112   8.978   3.724   5.602  1.2434  0.5807  1.5273
  791MOL0     H 9113   9.095   3.763   5.471 -1.7705  1.2997 -1.8012
  791MOL0     H 9114   9.038   4.013   5.539 -0.3983  2.1085  3.8254
  791MOL0     H 9115   8.948   3.938   5.673  0.9784  1.7695  1.1418
  791MOL0     H 9116   9.064   4.152   5.710  2.5308 -0.1408 -2.9673
  791MOL0     H 9117   9.161   4.402   5.969  0.7963 -2.0114  0.1582
  791MOL0     H 9118   9.023   4.319   5.923  0.1932  2.2953  2.9698
  791MOL0     H 9119   9.133   4.387   5.793  0.9674  1.5810  0.9536
  791MOL0     H 9120   9.305   4.581   6.026  0.5405  3.2605 -2.6121
  791MOL0     H 9121   9.371   4.766   6.166 -2.1417 -2.2503 -0.2425
  791MOL0     H 9122   9.799   4.766   6.353  3.9978  0.9164 -0.3922
  791MOL0     H 9123   9.828   4.862   6.205  0.6247  0.4386 -0.2485
  791MOL0     H 9124   9.665   4.955   6.455  0.7620 -1.3919  1.0365
  791MOL0     H 9125   9.842   4.972   6.440 -0.9570  0.6942  0.3061
  791MOL0     H 9126   9.641   5.105   6.235 -0.6435 -1.9837  0.5041
  791MOL0     H 9127   9.813   5.109   6.238 -0.3729 -0.2286  0.4139
  791MOL0     H 9128   9.643   5.168   6.486  0.7265 -0.0098  1.2910
  791MOL0     H 9129   9.665   5.289   6.359 -0.9023 -1.1156  0.1367
  791MOL0     H 9130   9.927   5.241   6.427  0.7960 -0.1250  1.6672
  791MOL0     H 9131   9.828   5.368   6.497  0.7238  0.1623 -1.1237
  791MOL0     H 9132   9.882   5.102   6.632 -0.3525 -0.4047 -1.5130
  791MOL0     H 9133   9.782   5.227   6.703  1.6941 -0.1873  1.1427
  791MOL0     H 9134  10.062   5.263   6.618 -1.3699 -1.9608 -0.4763
  791MOL0     H 9135  10.003   5.215   6.784  0.3748  1.8335  1.4041
  791MOL0     H 9136   9.885   5.422   6.809  1.3134 -2.3909  2.2507
  791MOL0     H 9137   9.946   5.484   6.650  2.3814 -1.8096 -1.3472
  791MOL0     H 9138   9.767   4.593   6.203  1.7503 -1.6494 -1.6043
  791MOL0     H 9139   9.685   4.397   6.098  4.2812  2.6715  0.9304
  791MOL0     H 9140   9.471   4.013   5.955  0.0061 -0.1802  0.4074
  791MOL0     H 9141   9.372   3.883   5.778 -0.0547 -2.8162  5.3790
  791MOL0     H 9142   8.305   4.912   6.119  0.2012  3.0116  2.3114
  791MOL0     H 9143   8.116   4.999   6.186  0.6360 -0.0762 -0.8522
  791MOL0     H 9144   7.625   5.159   5.985 -3.6504  1.6479 -0.0576
  791MOL0     H 9145   7.418   5.193   6.094 -1.1144 -3.0950 -1.8906
  791MOL0     H 9146   7.316   5.316   6.512  0.6345  0.6580  0.0423
  791MOL0     H 9147   7.417   5.176   6.552 -2.5127 -1.2382 -1.1829
  791MOL0     H 9148   7.492   5.421   6.375  3.1072  0.6928 -1.4875
  791MOL0     H 9149   7.616   5.313   6.433  1.0565 -1.0471  4.3296
  791MOL0     H 9150   7.525   5.371   6.684  0.7446 -2.6626 -1.4229
  791MOL0     H 9151   7.651   5.447   6.597 -0.1910 -0.0944  1.0871
  791MOL0     H 9152   7.511   5.643   6.508 -2.3189  0.7300 -0.9057
  791MOL0     H 9153   7.520   5.634   6.683 -3.3781  0.7026  0.7139
  791MOL0     H 9154   7.105   5.574   6.566 -0.0738  1.8004  2.3907
  791MOL0     H 9155   7.584   5.053   6.466  0.4065 -0.9183  1.1420
  791MOL0     H 9156   7.783   4.863   6.385  0.2478 -0.9827 -0.2658
  791MOL0     H 9157   7.912   4.975   6.319  1.4860 -1.4345  3.1183
  791MOL0     H 9158   7.827   5.007   6.471  0.7900 -0.0054 -0.6271
  792MOL0     O 9159   9.504   8.593   6.656 -0.0188 -0.0558  0.1855
  792MOL0     C 9160   9.388   8.576   6.643  0.9222  0.1235 -0.5612
  792MOL0     O 9161   9.285   8.671   6.662  0.2782  0.6940  0.4642
  792MOL0     C 9162   9.310   8.799   6.721  0.0620  0.6760 -0.0310
  792MOL0     C 9163   9.233   8.831   6.835 -0.5235  0.2954  0.2261
  792MOL0     C 9164   9.248   8.952   6.903  0.8380 -0.0554  1.5111
  792MOL0     C 9165   9.326   9.054   6.846 -0.0532 -0.9297 -0.4345
  792MOL0     O 9166   9.323   9.163   6.920 -0.1415 -0.1484 -0.3341
  792MOL0     C 9167   9.303   9.284   6.849 -0.3420 -0.3196 -0.2389
  792MOL0     C 9168   9.153   9.322   6.870  0.4424 -0.0417  0.3062
  792MOL0     C 9169   9.112   9.426   6.778 -0.2038  0.4785  0.1823
  792MOL0     C 9170   8.958   9.459   6.812 -0.2843  0.4436  0.0366
  792MOL0     C 9171   8.886   9.522   6.690  0.6111  0.1582  0.3438
  792MOL0     C 9172   8.880   9.672   6.716 -0.3846  0.0053  0.5724
  792MOL0     C 9173   8.809   9.736   6.595 -0.4598 -0.3054  0.1107
  792MOL0     C 9174   8.842   9.889   6.585  0.3884 -0.3109 -0.4868
  792MOL0     N 9175   8.806   9.972   6.703 -0.0787 -0.4788  0.3838
  792MOL0     C 9176   8.896   9.979   6.809 -0.2474  0.0097  0.2461
  792MOL0     C 9177   8.838   9.975   6.925  1.1980  0.3057 -0.3232
  792MOL0     C 9178   8.888   9.962   7.065  0.4370  0.3614 -0.1721
  792MOL0     C 9179   8.831  10.076   7.154  0.3956  0.7051 -0.1178
  792MOL0     C 9180   8.787  10.035   7.296 -0.2627  0.0166 -0.0488
  792MOL0     C 9181   8.669   9.938   7.312 -0.4361  0.6038 -0.7827
  792MOL0     O 9182   8.713   9.832   7.402 -0.2482  0.7388  0.1006
  792MOL0     C 9183   8.632   9.718   7.423  0.1246  0.5190 -0.2025
  792MOL0     C 9184   8.654   9.643   7.538 -0.0665 -0.0411 -0.9617
  792MOL0     C 9185   8.579   9.521   7.550  0.5050 -0.2059  0.4291
  792MOL0     C 9186   8.619   9.428   7.665  0.5550  0.5062 -0.2022
  792MOL0     C 9187   8.489   9.486   7.450  0.9705  0.4156  0.1379
  792MOL0     C 9188   8.435   9.346   7.441  0.5272 -0.2444  0.9104
  792MOL0     O 9189   8.498   9.228   7.454 -0.2844 -0.3497 -0.1683
  792MOL0     C 9190   8.440   9.119   7.411  0.2314  0.5905  0.5554
  792MOL0     C 9191   8.353   9.043   7.494  0.6667 -0.5372  0.9059
  792MOL0     C 9192   8.294   8.925   7.459  0.3119 -0.5665 -0.0381
  792MOL0     C 9193   8.319   8.875   7.330  0.0592  0.6231 -0.2749
  792MOL0     O 9194   8.264   8.749   7.304  1.2029  0.3516 -0.6316
  792MOL0     C 9195   8.251   8.710   7.168 -0.2536  0.4559  0.3267
  792MOL0     C 9196   8.342   8.591   7.138 -0.6762  0.6096  0.0051
  792MOL0     C 9197   8.308   8.478   7.229 -0.8695  0.0300  0.0209
  792MOL0     C 9198   8.390   8.353   7.166  0.7940 -0.0251 -0.3429
  792MOL0     C 9199   8.541   8.336   7.205  1.0828 -0.5746  0.8382
  792MOL0     C 9200   8.571   8.371   7.355  0.5310  0.0920 -0.5664
  792MOL0     C 9201   8.507   8.276   7.457 -0.1534  0.0688  0.5386
  792MOL0     C 9202   8.540   8.319   7.609 -0.5514  0.0154  0.8643
  792MOL0    Cl 9203   8.429   8.259   7.726 -0.4208  0.2046 -0.2753
  792MOL0     C 9204   8.414   8.941   7.244 -0.1303  0.0260 -1.0841
  792MOL0     C 9205   8.469   9.062   7.288  0.9276 -0.4832  0.1011
  792MOL0     O 9206   8.320   9.354   7.398 -0.5813 -0.1583 -0.7326
  792MOL0     C 9207   8.460   9.577   7.352 -0.0101  0.8507  0.6654
  792MOL0     C 9208   8.532   9.686   7.330  0.6773  0.1110 -0.3839
  792MOL0     N 9209   8.698   9.961   6.889 -0.2588  0.5745  0.3391
  792MOL0     N 9210   8.681   9.958   6.762  0.1965  0.8194 -0.6263
  792MOL0     C 9211   9.408   9.025   6.746 -0.6020  1.4029  0.9494
  792MOL0     C 9212   9.411   8.890   6.693  0.1498 -0.1979  0.7955
  792MOL0     C 9213   9.354   8.445   6.577  0.3132 -1.5854  0.9535
  792MOL0     C 9214   9.219   8.430   6.523 -1.6458  0.6917 -0.3983
  792MOL0     C 9215   9.172   8.307   6.456 -0.4512 -0.2047 -0.2358
  792MOL0     C 9216   9.271   8.218   6.424 -0.5483  0.1483  0.4825
  792MOL0     O 9217   9.237   8.110   6.339  0.2503 -0.2268  0.5034
  792MOL0     C 9218   9.340   8.044   6.254 -0.0534  0.2579  0.9145
  792MOL0     C 9219   9.407   8.140   6.146 -0.2622 -1.3355  0.3820
  792MOL0     C 9220   9.524   8.099   6.059  0.5750 -0.0352  0.4391
  792MOL0     C 9221   9.574   8.189   5.952  0.3718  0.1482 -0.0846
  792MOL0     C 9222   9.475   8.230   5.856  0.5641 -0.9741 -0.4634
  792MOL0     C 9223   9.381   8.255   5.774 -0.5857 -0.3578  0.4223
  792MOL0     C 9224   9.405   8.230   6.474  1.5271 -0.0942  1.6438
  792MOL0     C 9225   9.439   8.338   6.553 -0.6772 -0.4989 -0.1039
  792MOL0     C 9226   9.584   8.334   6.598 -0.1686  0.1853  0.6011
  792MOL0     H 9227   9.166   8.760   6.883  0.8124 -2.0699 -1.1855
  792MOL0     H 9228   9.179   8.972   6.984 -1.0352  1.3872 -0.3298
  792MOL0     H 9229   9.345   9.289   6.749  1.9786  0.5291  0.7064
  792MOL0     H 9230   9.375   9.352   6.897  2.1308 -2.5028 -0.6547
  792MOL0     H 9231   9.099   9.227   6.863  1.1808 -0.4403 -0.0722
  792MOL0     H 9232   9.151   9.360   6.973  1.4222 -0.8769  0.6540
  792MOL0     H 9233   9.170   9.518   6.784 -2.8685  2.2837  0.1483
  792MOL0     H 9234   9.115   9.391   6.674 -3.9567 -1.0106  0.4252
  792MOL0     H 9235   8.902   9.368   6.840 -1.6502  1.3780  0.4687
  792MOL0     H 9236   8.960   9.524   6.900  5.2386 -3.0907  3.1004
  792MOL0     H 9237   8.784   9.484   6.674  1.1140 -0.4176 -1.7421
  792MOL0     H 9238   8.932   9.500   6.594  0.3254 -0.7842  0.4080
  792MOL0     H 9239   8.834   9.695   6.813 -0.9156 -0.5777  0.4681
  792MOL0     H 9240   8.985   9.704   6.714 -1.2581  3.3058  1.6464
  792MOL0     H 9241   8.704   9.713   6.612  0.2139 -2.1800  2.3532
  792MOL0     H 9242   8.837   9.694   6.498  0.5482  1.5232 -0.4348
  792MOL0     H 9243   8.949   9.902   6.567  0.2614  1.7207 -0.0462
  792MOL0     H 9244   8.794   9.933   6.498  0.4503  3.1811  1.0686
  792MOL0     H 9245   9.002   9.992   6.791 -0.4847 -0.6260 -1.7871
  792MOL0     H 9246   8.997   9.967   7.069  0.7479 -2.4949 -2.0454
  792MOL0     H 9247   8.860   9.860   7.095  3.4040 -0.8077 -0.9628
  792MOL0     H 9248   8.907  10.152   7.170  1.3830  0.1482 -1.8735
  792MOL0     H 9249   8.743  10.116   7.103 -0.1187  1.7615  1.4969
  792MOL0     H 9250   8.866   9.988   7.356 -0.6540  0.7503  1.0554
  792MOL0     H 9251   8.773  10.132   7.343  0.2319  0.5684 -0.9886
  792MOL0     H 9252   8.580   9.995   7.341 -1.6406 -1.3884 -0.4364
  792MOL0     H 9253   8.641   9.893   7.216 -0.1504 -1.2782 -0.0208
  792MOL0     H 9254   8.724   9.671   7.616 -0.4844  0.6277 -0.8250
  792MOL0     H 9255   8.688   9.353   7.625 -1.4292 -2.1443  1.0281
  792MOL0     H 9256   8.534   9.370   7.702 -1.2891  3.2937  0.2215
  792MOL0     H 9257   8.650   9.475   7.759  0.2315 -1.5850  1.0180
  792MOL0     H 9258   8.338   9.078   7.596  3.1605 -1.0574  1.5328
  792MOL0     H 9259   8.225   8.872   7.523  1.2791 -1.0939  0.5898
  792MOL0     H 9260   8.148   8.682   7.144  0.1919  0.2624 -1.5635
  792MOL0     H 9261   8.273   8.791   7.097  1.3935  2.0638  2.4986
  792MOL0     H 9262   8.313   8.553   7.039 -1.5615 -0.7889  0.7636
  792MOL0     H 9263   8.450   8.607   7.137 -0.8051  1.6701 -1.8871
  792MOL0     H 9264   8.200   8.461   7.233 -1.0575  0.9129 -1.0252
  792MOL0     H 9265   8.344   8.508   7.328  0.7998 -0.5105 -0.3897
  792MOL0     H 9266   8.394   8.364   7.058  0.6475  0.5279 -0.2969
  792MOL0     H 9267   8.331   8.265   7.193  2.5259 -0.8936  0.8166
  792MOL0     H 9268   8.558   8.229   7.192  0.5177 -0.4753 -1.1206
  792MOL0     H 9269   8.613   8.391   7.143  0.2556 -1.2169 -0.7489
  792MOL0     H 9270   8.557   8.477   7.382  0.2655 -0.4303  1.5716
  792MOL0     H 9271   8.679   8.354   7.362  0.3550 -0.6141  0.6962
  792MOL0     H 9272   8.519   8.171   7.426 -0.9528  0.5221 -1.4527
  792MOL0     H 9273   8.400   8.299   7.459  0.1768  1.6366  1.0784
  792MOL0     H 9274   8.566   8.425   7.609 -1.5282  0.2806  0.0996
  792MOL0     H 9275   8.636   8.268   7.618  0.2538  0.8399 -1.9919
  792MOL0     H 9276   8.451   8.903   7.149 -1.3602  0.4314 -1.7385
  792MOL0     H 9277   8.529   9.110   7.211 -0.7045  0.1792 -0.8222
  792MOL0     H 9278   8.391   9.548   7.274  2.4949 -2.3369 -0.5744
  792MOL0     H 9279   8.502   9.753   7.250 -0.7943  2.1442  1.7261
  792MOL0     H 9280   9.486   9.091   6.709  0.7072  0.0961  1.2938
  792MOL0     H 9281   9.484   8.872   6.614  2.1331  3.4556  1.5455
  792MOL0     H 9282   9.136   8.499   6.534 -1.9194  0.5460 -1.4524
  792MOL0     H 9283   9.071   8.287   6.423 -0.3390  0.8740 -1.2773
  792MOL0     H 9284   9.418   7.993   6.312  0.5738 -1.5090 -1.3270
  792MOL0     H 9285   9.294   7.957   6.207 -1.8592  1.5184  0.2357
  792MOL0     H 9286   9.435   8.239   6.185 -0.7336 -0.9255 -0.3039
  792MOL0     H 9287   9.325   8.163   6.077  2.3045 -0.4140 -2.5635
  792MOL0     H 9288   9.613   8.083   6.120  0.4368 -2.1675  0.1502
  792MOL0     H 9289   9.499   7.997   6.029  1.7139  0.6193 -3.3668
  792MOL0     H 9290   9.665   8.148   5.907  1.2325  1.0967  0.7302
  792MOL0     H 9291   9.611   8.276   6.008  3.3003 -2.1665  1.8771
  792MOL0     H 9292   9.308   8.297   5.707  1.4832  1.6370 -0.7118
  792MOL0     H 9293   9.491   8.168   6.451 -0.4395 -2.0004 -1.4015
  792MOL0     H 9294   9.615   8.233   6.623 -2.7142 -0.6110  0.7930
  792MOL0     H 9295   9.642   8.370   6.512  0.3494 -3.7834 -0.9277
  792MOL0     H 9296   9.610   8.385   6.691  2.6960 -0.9618  0.5317
  793MOL0     O 9297   8.915   1.591   3.659 -0.0081  0.3456  0.3347
  793MOL0     C 9298   8.838   1.611   3.760 -0.5406  0.8284  0.7562
  793MOL0     O 9299   8.879   1.586   3.890 -0.4707  0.0279 -0.3469
  793MOL0     C 9300   8.988   1.508   3.918 -0.9275  0.4545  0.2530
  793MOL0     C 9301   8.966   1.402   4.007  0.3640 -0.3432 -0.2425
  793MOL0     C 9302   9.076   1.325   4.044  0.1166 -0.6020 -0.4095
  793MOL0     C 9303   9.207   1.338   3.989  0.7471 -0.2895 -0.0618
  793MOL0     O 9304   9.298   1.244   4.012  0.6462  0.2945  0.5215
  793MOL0     C 9305   9.384   1.184   3.908  0.2649  0.4043 -0.9887
  793MOL0     C 9306   9.379   1.043   3.931  0.4669  1.0848 -0.2382
  793MOL0     C 9307   9.454   1.000   4.068 -0.1324  1.0259  1.0419
  793MOL0     C 9308   9.605   0.974   4.055 -0.0002 -0.2620 -0.1733
  793MOL0     C 9309   9.674   0.984   4.189 -0.1810  0.5951  0.2067
  793MOL0     C 9310   9.815   1.037   4.173 -0.6130  0.2384 -0.2544
  793MOL0     C 9311   9.892   1.032   4.307  0.6855  0.5411 -0.0555
  793MOL0     C 9312  10.038   1.100   4.299  0.0215  0.7490 -0.5904
  793MOL0     N 9313  10.023   1.241   4.253  0.0664 -0.0770 -0.3867
  793MOL0     C 9314   9.963   1.335   4.329  0.4239 -0.1816 -0.2367
  793MOL0     C 9315   9.929   1.437   4.240  0.1283 -0.4169 -1.2426
  793MOL0     C 9316   9.867   1.571   4.264 -0.5439 -1.3569 -0.6508
  793MOL0     C 9317   9.714   1.559   4.308  0.3301  0.1072 -0.1794
  793MOL0     C 9318   9.612   1.504   4.211  0.2641  0.5248  0.4583
  793MOL0     C 9319   9.467   1.488   4.276  0.5966  0.6865  0.6506
  793MOL0     O 9320   9.429   1.586   4.376  0.2880 -0.2564  0.0783
  793MOL0     C 9321   9.399   1.714   4.327  0.3393 -0.2828  0.3242
  793MOL0     C 9322   9.340   1.757   4.209 -0.0025 -0.1236  0.5946
  793MOL0     C 9323   9.287   1.889   4.186 -0.0791 -1.2645  0.0169
  793MOL0     C 9324   9.221   1.919   4.053 -0.4907  0.0617  0.1568
  793MOL0     C 9325   9.313   1.988   4.284  0.1204  0.7151  0.5718
  793MOL0     C 9326   9.261   2.122   4.280 -0.3057  0.8816 -0.2663
  793MOL0     O 9327   9.127   2.135   4.244 -0.5479 -0.2900 -0.1352
  793MOL0     C 9328   9.066   2.258   4.267 -0.0929  1.2061 -0.3509
  793MOL0     C 9329   8.999   2.282   4.380 -0.5483  0.5840  0.7457
  793MOL0     C 9330   8.922   2.398   4.385 -1.3656 -0.6835 -0.0238
  793MOL0     C 9331   8.908   2.489   4.276 -0.3966  0.3786 -0.4208
  793MOL0     O 9332   8.808   2.580   4.284  0.2597  0.0671 -0.4117
  793MOL0     C 9333   8.816   2.687   4.179 -0.6395 -0.5644 -0.3787
  793MOL0     C 9334   8.672   2.765   4.177  0.0416 -0.6695 -0.3446
  793MOL0     C 9335   8.559   2.677   4.102 -0.2922 -0.8049  0.7154
  793MOL0     C 9336   8.408   2.722   4.127  0.2780  0.0672  0.3396
  793MOL0     C 9337   8.329   2.678   4.004 -0.8263 -0.1705  0.5291
  793MOL0     C 9338   8.304   2.528   3.988 -0.2018  0.1021 -0.0995
  793MOL0     C 9339   8.208   2.498   3.883  0.0648  0.2585  0.5750
  793MOL0     C 9340   8.152   2.361   3.889  0.7246  0.2406 -0.1043
  793MOL0    Cl 9341   8.045   2.346   3.747 -0.2484 -0.0864 -0.6005
  793MOL0     C 9342   8.995   2.469   4.169  0.2677  0.6914  0.4868
  793MOL0     C 9343   9.075   2.353   4.167  0.0518 -0.1479  0.0868
  793MOL0     O 9344   9.334   2.211   4.325  0.0384  0.1594  0.5881
  793MOL0     C 9345   9.387   1.952   4.400 -0.0877  0.8174 -0.8012
  793MOL0     C 9346   9.419   1.815   4.421 -0.3871  0.2071 -0.8043
  793MOL0     N 9347   9.973   1.396   4.114  0.5337  1.2075 -0.4929
  793MOL0     N 9348  10.030   1.282   4.127  0.8362 -0.2947  0.9370
  793MOL0     C 9349   9.218   1.447   3.895 -0.0735  0.2682  0.1041
  793MOL0     C 9350   9.104   1.527   3.856  0.0551  0.4671  0.1710
  793MOL0     C 9351   8.716   1.694   3.757 -0.2838  0.4973 -0.8625
  793MOL0     C 9352   8.664   1.747   3.878  0.3392  0.2335 -0.1788
  793MOL0     C 9353   8.538   1.798   3.896  0.5485  0.5268 -0.8441
  793MOL0     C 9354   8.458   1.825   3.788 -0.2844  0.2744 -0.2693
  793MOL0     O 9355   8.327   1.868   3.809 -0.6062  0.9448 -0.4355
  793MOL0     C 9356   8.311   1.970   3.906  0.2519 -0.0985 -0.2657
  793MOL0     C 9357   8.224   1.914   4.021 -0.8278 -0.4280 -0.9099
  793MOL0     C 9358   8.085   1.872   3.973 -0.8450  0.1120  0.1597
  793MOL0     C 9359   7.990   1.844   4.084 -0.5693  0.2737 -0.6178
  793MOL0     C 9360   7.851   1.845   4.043 -0.3488 -0.7105  1.0221
  793MOL0     C 9361   7.737   1.849   4.001 -0.0747  0.5857 -0.1124
  793MOL0     C 9362   8.513   1.792   3.658 -0.1795  0.3188 -0.2161
  793MOL0     C 9363   8.644   1.733   3.644 -0.1228  0.2741  0.1898
  793MOL0     C 9364   8.692   1.713   3.506 -0.3788 -0.0698 -1.3715
  793MOL0     H 9365   8.871   1.378   4.054 -0.2867 -0.2278 -1.4323
  793MOL0     H 9366   9.060   1.248   4.119  0.3086 -0.3332 -0.0872
  793MOL0     H 9367   9.488   1.215   3.915  1.0640 -2.3536  1.4481
  793MOL0     H 9368   9.347   1.207   3.807 -0.1810 -4.0877 -2.0858
  793MOL0     H 9369   9.274   1.012   3.935  0.8169 -0.3385 -1.2876
  793MOL0     H 9370   9.420   1.000   3.840 -2.1291  0.5012 -1.2288
  793MOL0     H 9371   9.432   1.066   4.153  0.2879 -0.3165  2.2495
  793MOL0     H 9372   9.416   0.900   4.094  1.0247  0.3419  0.1986
  793MOL0     H 9373   9.618   0.881   3.999 -1.7689 -1.9557  2.0131
  793MOL0     H 9374   9.650   1.054   3.997  3.6910 -1.1293  1.2152
  793MOL0     H 9375   9.681   0.883   4.232 -0.8886  1.2406  1.9071
  793MOL0     H 9376   9.616   1.031   4.269 -1.5058 -0.8182  0.1221
  793MOL0     H 9377   9.872   0.981   4.098 -1.1876  0.1772 -0.6580
  793MOL0     H 9378   9.814   1.139   4.133  2.6833  1.0383  1.3810
  793MOL0     H 9379   9.891   0.932   4.352  0.8321  0.3161 -0.5415
  793MOL0     H 9380   9.834   1.088   4.380 -0.7877  1.3467 -1.7875
  793MOL0     H 9381  10.073   1.105   4.403 -1.5534  3.9897 -0.0751
  793MOL0     H 9382  10.112   1.048   4.238  4.1203  1.0719  3.5614
  793MOL0     H 9383   9.941   1.330   4.435  2.1715 -1.5905  0.1022
  793MOL0     H 9384   9.866   1.625   4.168  1.8718  0.3936  0.2005
  793MOL0     H 9385   9.931   1.623   4.336 -0.5695  1.8934 -2.7226
  793MOL0     H 9386   9.716   1.505   4.404 -2.0510 -2.1165 -1.2607
  793MOL0     H 9387   9.685   1.660   4.340  0.6501 -0.1552  1.0071
  793MOL0     H 9388   9.607   1.576   4.130 -0.0371 -0.9292 -0.8632
  793MOL0     H 9389   9.639   1.406   4.170 -0.6251 -0.3896  1.9299
  793MOL0     H 9390   9.382   1.474   4.208  0.1065  3.2050  0.6576
  793MOL0     H 9391   9.477   1.393   4.329 -1.1524  2.3057  4.2059
  793MOL0     H 9392   9.326   1.677   4.138 -0.3858 -0.2439  0.8018
  793MOL0     H 9393   9.125   1.968   4.069 -0.5225  0.4187 -0.9885
  793MOL0     H 9394   9.196   1.825   4.003  0.6775  0.4767 -1.3040
  793MOL0     H 9395   9.286   1.976   3.985  1.9223 -1.9711  0.6420
  793MOL0     H 9396   8.994   2.226   4.473  0.0377  4.6575  3.4634
  793MOL0     H 9397   8.859   2.419   4.471  2.6315  3.1620  2.3700
  793MOL0     H 9398   8.896   2.759   4.198 -0.9286 -0.7847  2.0787
  793MOL0     H 9399   8.828   2.641   4.080 -0.6129  0.9986 -1.1218
  793MOL0     H 9400   8.626   2.759   4.276  1.8633  0.2346  0.6084
  793MOL0     H 9401   8.681   2.872   4.154  1.3634 -1.2113 -2.6656
  793MOL0     H 9402   8.575   2.576   4.141  2.7515 -0.3961  0.7835
  793MOL0     H 9403   8.586   2.681   3.996 -1.9981  2.7663  0.2511
  793MOL0     H 9404   8.402   2.831   4.140  0.4409  0.2648 -1.1519
  793MOL0     H 9405   8.363   2.664   4.208  0.9695 -1.4400 -0.3179
  793MOL0     H 9406   8.229   2.720   4.012 -0.9683 -0.6634  1.4944
  793MOL0     H 9407   8.370   2.714   3.909  0.4496  2.0244  1.8242
  793MOL0     H 9408   8.276   2.491   4.087 -0.1288  2.3957  0.8331
  793MOL0     H 9409   8.400   2.479   3.968 -0.2445 -0.4338  0.9139
  793MOL0     H 9410   8.250   2.523   3.785 -0.0376  1.2508  0.7635
  793MOL0     H 9411   8.133   2.577   3.898 -0.5764  0.3491 -2.4269
  793MOL0     H 9412   8.107   2.336   3.986 -0.1933 -0.0230 -0.5884
  793MOL0     H 9413   8.224   2.281   3.871  2.0043  0.4654  3.2571
  793MOL0     H 9414   8.998   2.529   4.079  0.9573 -3.1082 -2.2961
  793MOL0     H 9415   9.129   2.329   4.076 -0.9740  1.8069 -1.1186
  793MOL0     H 9416   9.405   2.023   4.480  0.1962 -1.4816  1.2947
  793MOL0     H 9417   9.469   1.805   4.517 -4.0905  0.3537  1.3299
  793MOL0     H 9418   9.315   1.465   3.850  0.2987 -0.3327  0.6478
  793MOL0     H 9419   9.111   1.602   3.779 -1.3020  0.7478  0.3118
  793MOL0     H 9420   8.713   1.740   3.975 -0.3309  0.7145  0.2018
  793MOL0     H 9421   8.516   1.813   4.002  1.9024 -1.9445 -0.1316
  793MOL0     H 9422   8.403   2.010   3.948 -0.4392  0.4747  0.7635
  793MOL0     H 9423   8.269   2.060   3.860  0.5775  0.9636  1.4168
  793MOL0     H 9424   8.207   1.993   4.094 -1.5904 -2.6864  1.4820
  793MOL0     H 9425   8.271   1.833   4.077  1.6446  2.8578  2.2188
  793MOL0     H 9426   8.043   1.946   3.904 -2.4233 -0.9931 -0.1212
  793MOL0     H 9427   8.100   1.778   3.920 -0.4254  0.5308 -0.4870
  793MOL0     H 9428   8.001   1.933   4.147 -0.2579 -0.5743  0.5619
  793MOL0     H 9429   8.013   1.752   4.138 -0.2231  0.0592 -1.1295
  793MOL0     H 9430   7.637   1.844   3.964 -0.2610 -2.8423  0.5649
  793MOL0     H 9431   8.458   1.811   3.566  2.4874  1.4096 -1.6688
  793MOL0     H 9432   8.745   1.617   3.497  1.1472  0.8351 -2.5676
  793MOL0     H 9433   8.607   1.710   3.437 -1.0246  1.7143 -0.7090
  793MOL0     H 9434   8.753   1.800   3.481 -2.0962  1.3945 -0.7258
  794MOL0     O 9435   3.929   6.917   6.863 -0.6366 -0.4917  0.7776
  794MOL0     C 9436   4.001   6.834   6.915 -0.9060  0.5573  0.5279
  794MOL0     O 9437   3.966   6.735   7.001 -0.1137 -0.0629  0.1321
  794MOL0     C 9438   3.838   6.755   7.049  0.7907  0.3538 -0.2103
  794MOL0     C 9439   3.830   6.809   7.176  0.4790  0.4435  0.5755
  794MOL0     C 9440   3.709   6.818   7.235  0.2674  0.3857  0.3657
  794MOL0     C 9441   3.587   6.796   7.167 -0.8558 -0.6656  0.1309
  794MOL0     O 9442   3.473   6.824   7.235 -0.1217  0.0985  0.7610
  794MOL0     C 9443   3.348   6.805   7.165 -0.2168  0.2656  0.9251
  794MOL0     C 9444   3.230   6.847   7.258  0.2048  0.3281 -0.2007
  794MOL0     C 9445   3.170   6.991   7.238  0.8120 -0.0170 -0.6521
  794MOL0     C 9446   3.264   7.111   7.269 -0.0770  0.2443  0.4360
  794MOL0     C 9447   3.193   7.245   7.283 -0.4972 -1.4235  0.7860
  794MOL0     C 9448   3.233   7.349   7.175 -0.9662 -0.5040  1.6695
  794MOL0     C 9449   3.381   7.381   7.153 -0.4692  0.2375  0.4300
  794MOL0     C 9450   3.458   7.430   7.266 -0.2438  0.0513  0.1947
  794MOL0     N 9451   3.437   7.573   7.303  0.7631 -0.1343  0.1491
  794MOL0     C 9452   3.323   7.629   7.353 -0.0027  0.4211  0.3222
  794MOL0     C 9453   3.354   7.765   7.362  0.7815 -0.4675 -0.4746
  794MOL0     C 9454   3.281   7.878   7.432  0.2618 -1.0947 -0.1228
  794MOL0     C 9455   3.126   7.856   7.442 -0.4438  0.2152 -0.1777
  794MOL0     C 9456   3.048   7.875   7.313 -0.0011 -1.5036  0.1247
  794MOL0     C 9457   3.094   7.794   7.186 -0.2790 -0.9141 -0.4897
  794MOL0     O 9458   3.037   7.860   7.078  0.1616  0.8673  1.3670
  794MOL0     C 9459   3.069   7.824   6.946 -0.2088 -0.5390  1.0265
  794MOL0     C 9460   3.197   7.763   6.908 -0.1324  0.6504 -0.4789
  794MOL0     C 9461   3.219   7.727   6.769  0.1954 -0.2201 -0.3279
  794MOL0     C 9462   3.351   7.669   6.732 -0.1538  0.4192  0.2181
  794MOL0     C 9463   3.123   7.763   6.668  0.8653  0.7173  0.2762
  794MOL0     C 9464   3.129   7.725   6.526 -0.3105  0.4472 -0.6847
  794MOL0     O 9465   3.086   7.816   6.433  0.5652  0.0035 -0.8445
  794MOL0     C 9466   3.063   7.766   6.308 -0.7151 -0.1924 -0.9822
  794MOL0     C 9467   2.953   7.695   6.274  1.3543  1.3909  0.0320
  794MOL0     C 9468   2.931   7.644   6.145 -0.5425 -0.3793 -0.6947
  794MOL0     C 9469   3.016   7.667   6.041  0.1363 -0.8302 -0.1733
  794MOL0     O 9470   3.013   7.618   5.912 -0.4837 -0.5817  0.3668
  794MOL0     C 9471   2.900   7.545   5.868 -0.3885 -0.2151 -0.2962
  794MOL0     C 9472   2.902   7.516   5.725  0.3565  0.5224 -0.3097
  794MOL0     C 9473   2.881   7.648   5.642 -0.1440  0.1727 -0.0895
  794MOL0     C 9474   2.922   7.602   5.505  0.5188  0.1107 -0.4005
  794MOL0     C 9475   2.909   7.721   5.416  0.1997  0.4279  0.3659
  794MOL0     C 9476   2.919   7.691   5.259  0.4923 -0.0042  0.3487
  794MOL0     C 9477   3.023   7.583   5.215  0.1082  0.3002 -0.2932
  794MOL0     C 9478   3.067   7.609   5.074  0.2093  0.5948 -1.4236
  794MOL0    Cl 9479   3.146   7.470   5.007 -0.4670  0.1472 -0.2550
  794MOL0     C 9480   3.114   7.762   6.076 -0.9878 -0.0600  0.7525
  794MOL0     C 9481   3.139   7.807   6.206 -0.3481  0.2293  0.3129
  794MOL0     O 9482   3.168   7.617   6.501 -0.9854 -0.2343  0.2733
  794MOL0     C 9483   3.005   7.829   6.714 -0.3745 -0.0195 -0.9379
  794MOL0     C 9484   2.978   7.863   6.848  0.3814 -0.5521 -0.3275
  794MOL0     N 9485   3.464   7.787   7.288  0.3509  0.0792  0.8308
  794MOL0     N 9486   3.499   7.674   7.244  0.3929  0.5261 -0.5222
  794MOL0     C 9487   3.597   6.758   7.028  0.3391  0.2096  0.0040
  794MOL0     C 9488   3.725   6.732   6.972 -0.4372  0.2385  0.8021
  794MOL0     C 9489   4.145   6.830   6.877 -0.5201  0.1951 -0.3766
  794MOL0     C 9490   4.210   6.698   6.878  0.5250 -0.0939  1.0196
  794MOL0     C 9491   4.342   6.694   6.841 -0.2190  0.2951 -1.1139
  794MOL0     C 9492   4.410   6.793   6.785 -0.5872 -0.1688 -0.7526
  794MOL0     O 9493   4.547   6.775   6.750 -0.1398  0.0435 -1.4192
  794MOL0     C 9494   4.600   6.826   6.629 -0.6019 -1.0343  0.6024
  794MOL0     C 9495   4.642   6.710   6.540 -0.2585  0.2828 -0.1184
  794MOL0     C 9496   4.525   6.622   6.505 -0.1232 -0.5771  0.5798
  794MOL0     C 9497   4.556   6.533   6.381 -0.3322  0.3963  0.2251
  794MOL0     C 9498   4.572   6.624   6.266 -0.7533 -0.0210 -0.2582
  794MOL0     C 9499   4.589   6.689   6.166 -1.0775 -0.1760  0.6770
  794MOL0     C 9500   4.348   6.918   6.776 -0.8891  0.1387 -0.3138
  794MOL0     C 9501   4.219   6.942   6.830 -0.2430  0.0390 -0.4228
  794MOL0     C 9502   4.166   7.087   6.826 -0.0276 -0.6648  0.3809
  794MOL0     H 9503   3.916   6.836   7.238  1.7750  0.0868 -0.9954
  794MOL0     H 9504   3.715   6.852   7.338 -1.0703 -0.0271  0.5940
  794MOL0     H 9505   3.347   6.696   7.154 -0.4313  0.2258  1.3191
  794MOL0     H 9506   3.335   6.853   7.068  0.7265 -0.2440  0.5312
  794MOL0     H 9507   3.145   6.779   7.246  0.0227  0.7997 -1.9140
  794MOL0     H 9508   3.255   6.833   7.364 -2.0507 -0.6339  0.2689
  794MOL0     H 9509   3.148   7.000   7.132 -0.6322 -0.7977 -0.4415
  794MOL0     H 9510   3.072   6.985   7.285  1.0016  0.8297 -0.1296
  794MOL0     H 9511   3.315   7.099   7.366  0.1713  1.4918  0.4783
  794MOL0     H 9512   3.333   7.107   7.184 -2.4611 -3.7006 -1.5843
  794MOL0     H 9513   3.216   7.292   7.379  2.5611 -2.2512  0.5467
  794MOL0     H 9514   3.088   7.224   7.260 -0.6276 -2.7190  2.3697
  794MOL0     H 9515   3.216   7.303   7.077  2.4097 -1.9679  1.6282
  794MOL0     H 9516   3.174   7.440   7.169  2.2530  1.7789  1.7301
  794MOL0     H 9517   3.397   7.456   7.075 -0.3840 -1.8186 -1.6273
  794MOL0     H 9518   3.435   7.301   7.103 -1.0338  0.3955 -0.4667
  794MOL0     H 9519   3.440   7.364   7.352  0.2262  0.3749  0.5451
  794MOL0     H 9520   3.557   7.405   7.229 -0.8451 -2.6486  0.1554
  794MOL0     H 9521   3.234   7.583   7.395  0.7096  0.8842  2.4949
  794MOL0     H 9522   3.298   7.977   7.389 -3.3776  0.3716  1.4893
  794MOL0     H 9523   3.311   7.892   7.536  0.1789  1.4400 -0.3911
  794MOL0     H 9524   3.114   7.764   7.500  0.0503  1.8822  2.7773
  794MOL0     H 9525   3.109   7.932   7.519  1.1688 -0.0054  0.4474
  794MOL0     H 9526   2.945   7.845   7.334 -0.3263 -1.5474 -1.4113
  794MOL0     H 9527   3.028   7.982   7.296 -1.6054 -1.5968  1.1545
  794MOL0     H 9528   3.203   7.789   7.191 -0.2912 -2.6420  4.7603
  794MOL0     H 9529   3.058   7.692   7.205 -1.0000 -0.4192  0.9762
  794MOL0     H 9530   3.275   7.741   6.980  0.0237 -0.4387 -0.9503
  794MOL0     H 9531   3.406   7.730   6.659 -2.1741  4.0455  1.4533
  794MOL0     H 9532   3.335   7.569   6.690 -3.8923  1.3230 -0.9145
  794MOL0     H 9533   3.405   7.669   6.827 -1.2137 -0.2202  0.8468
  794MOL0     H 9534   2.880   7.673   6.351  2.0657  1.9841  0.8940
  794MOL0     H 9535   2.841   7.585   6.132 -1.4602  0.1898  2.2445
  794MOL0     H 9536   2.880   7.454   5.925  1.0621 -1.3420 -1.4918
  794MOL0     H 9537   2.814   7.608   5.892  0.0916  0.5644 -0.5721
  794MOL0     H 9538   2.999   7.467   5.714 -1.3224 -3.7012  1.6548
  794MOL0     H 9539   2.818   7.449   5.705 -0.1601  0.2344  2.4400
  794MOL0     H 9540   2.931   7.740   5.674  1.4699  0.2051 -2.4720
  794MOL0     H 9541   2.775   7.672   5.651  0.6870  4.2635  0.7346
  794MOL0     H 9542   2.853   7.529   5.462 -0.3874  2.2523 -2.8176
  794MOL0     H 9543   3.022   7.558   5.503  0.6730  0.3536 -3.6826
  794MOL0     H 9544   2.816   7.778   5.422  1.0200  1.6437  2.2822
  794MOL0     H 9545   2.994   7.786   5.441 -1.0028  2.4090 -0.4428
  794MOL0     H 9546   2.956   7.785   5.219  1.4924 -0.8005 -0.6568
  794MOL0     H 9547   2.822   7.669   5.214  0.8189  0.0711 -0.3987
  794MOL0     H 9548   2.979   7.485   5.234  2.1087 -0.6833 -0.4765
  794MOL0     H 9549   3.117   7.588   5.272 -0.1646 -0.5727  0.2469
  794MOL0     H 9550   3.146   7.684   5.065  0.9615 -0.4146 -3.8930
  794MOL0     H 9551   2.993   7.640   5.000 -0.2839  0.3363 -1.0498
  794MOL0     H 9552   3.179   7.804   6.000 -2.9118 -0.7641 -1.4233
  794MOL0     H 9553   3.215   7.883   6.225  0.0633  0.6050 -2.3760
  794MOL0     H 9554   2.928   7.861   6.644 -0.7394 -0.6575 -0.8379
  794MOL0     H 9555   2.883   7.907   6.878  1.7846  1.1010  2.0074
  794MOL0     H 9556   3.510   6.748   6.965 -2.0996  4.3477  2.1968
  794MOL0     H 9557   3.739   6.692   6.872 -0.4443 -3.4246  2.1178
  794MOL0     H 9558   4.162   6.610   6.920  2.1876 -0.1692  2.9436
  794MOL0     H 9559   4.382   6.593   6.849 -3.8679 -1.2674 -0.0397
  794MOL0     H 9560   4.512   6.872   6.582 -0.5444 -0.4036  1.0924
  794MOL0     H 9561   4.675   6.905   6.635  0.7887 -2.2074 -0.5882
  794MOL0     H 9562   4.732   6.673   6.590  2.5604  4.6681 -1.3098
  794MOL0     H 9563   4.681   6.759   6.450 -4.2267  1.2680 -1.4789
  794MOL0     H 9564   4.496   6.556   6.587 -1.3310 -3.6307 -2.1130
  794MOL0     H 9565   4.435   6.681   6.488  0.5941  0.4095  0.1128
  794MOL0     H 9566   4.459   6.483   6.369  0.3821 -1.1987  0.9548
  794MOL0     H 9567   4.642   6.466   6.383 -0.0234  0.7818 -0.0388
  794MOL0     H 9568   4.593   6.744   6.074 -2.5029  1.5210  1.5887
  794MOL0     H 9569   4.420   6.990   6.737  0.9888 -0.9822  0.8885
  794MOL0     H 9570   4.257   7.146   6.805  0.8167 -2.6284 -1.9286
  794MOL0     H 9571   4.115   7.110   6.732  1.9098 -1.3508 -0.8915
  794MOL0     H 9572   4.117   7.123   6.918 -1.3288 -0.1676 -0.4779
  795MOL0     O 9573   9.781   4.425  10.653 -0.3430 -0.5342 -0.3830
  795MOL0     C 9574   9.672   4.466  10.626  0.2681 -0.4716  0.1067
  795MOL0     O 9575   9.620   4.573  10.675  0.2570  0.1284 -0.6403
  795MOL0     C 9576   9.678   4.691  10.725 -1.1478  0.1812 -0.5403
  795MOL0     C 9577   9.808   4.718  10.704  0.3775 -0.0844 -0.2822
  795MOL0     C 9578   9.872   4.835  10.763  1.1219  1.0810  0.3916
  795MOL0     C 9579   9.799   4.917  10.841  0.5763  0.1041 -0.5261
  795MOL0     O 9580   9.861   5.030  10.891 -1.3161 -0.0558 -0.0766
  795MOL0     C 9581   9.784   5.142  10.909 -0.0661  0.1871  0.1029
  795MOL0     C 9582   9.765   5.165  11.067  0.3824  0.1233 -0.6875
  795MOL0     C 9583   9.652   5.263  11.122  0.3557  0.6404 -0.6673
  795MOL0     C 9584   9.645   5.250  11.281 -0.9198  0.7237 -0.0579
  795MOL0     C 9585   9.520   5.317  11.338 -0.6388  0.6373  0.1832
  795MOL0     C 9586   9.477   5.240  11.474  0.7085 -0.6844 -0.0293
  795MOL0     C 9587   9.355   5.316  11.537  0.1004 -0.1144 -0.2759
  795MOL0     C 9588   9.287   5.256  11.667  0.4837  0.1237 -0.0270
  795MOL0     N 9589   9.170   5.342  11.698  0.2935  0.2477  0.1903
  795MOL0     C 9590   9.146   5.412  11.819  1.0956 -0.0907 -0.3314
  795MOL0     C 9591   9.014   5.453  11.803 -0.8872  0.6688  0.2708
  795MOL0     C 9592   8.927   5.552  11.878 -0.1595 -0.5435  0.7712
  795MOL0     C 9593   8.834   5.477  11.982  0.6011 -0.2221  0.2173
  795MOL0     C 9594   8.697   5.432  11.936  0.2861  0.9041  1.0631
  795MOL0     C 9595   8.704   5.347  11.821  0.4031  0.4298  0.5722
  795MOL0     O 9596   8.762   5.214  11.865 -0.5203 -1.0107 -0.0460
  795MOL0     C 9597   8.756   5.105  11.782 -0.6014 -0.6262  0.5839
  795MOL0     C 9598   8.680   5.098  11.668 -0.3401 -0.2735 -0.0778
  795MOL0     C 9599   8.678   4.985  11.591  0.3952 -0.9408  0.5597
  795MOL0     C 9600   8.585   4.986  11.475  0.1250 -0.5724 -0.2429
  795MOL0     C 9601   8.745   4.861  11.633  0.2047  0.0531  0.0671
  795MOL0     C 9602   8.750   4.741  11.543 -0.0218  0.3471 -0.4794
  795MOL0     O 9603   8.817   4.638  11.596 -0.1358 -0.0491  1.1464
  795MOL0     C 9604   8.840   4.520  11.526  0.2891 -0.5259  0.0498
  795MOL0     C 9605   8.966   4.468  11.540 -0.1189  0.7337 -0.3141
  795MOL0     C 9606   8.982   4.332  11.484  0.6478  0.2488 -0.3257
  795MOL0     C 9607   8.873   4.260  11.438 -0.4381 -0.2927 -1.0026
  795MOL0     O 9608   8.910   4.138  11.392  0.6485  0.3277 -0.5782
  795MOL0     C 9609   8.815   4.061  11.324 -0.4206 -0.2846 -0.1028
  795MOL0     C 9610   8.872   3.924  11.268  1.0539 -0.1338  0.3593
  795MOL0     C 9611   8.942   3.943  11.127  0.2431  0.3759 -0.4349
  795MOL0     C 9612   9.015   3.806  11.102  0.5579 -0.8937  0.0664
  795MOL0     C 9613   9.104   3.797  10.965 -0.9339  0.0991 -0.1748
  795MOL0     C 9614   9.191   3.672  10.968 -0.6274  0.6898  0.0574
  795MOL0     C 9615   9.275   3.643  10.840  0.3310 -0.6702  0.2075
  795MOL0     C 9616   9.176   3.576  10.731  0.2924 -0.2284  0.5635
  795MOL0    Cl 9617   9.112   3.416  10.765 -0.1839 -0.0140  0.0627
  795MOL0     C 9618   8.743   4.321  11.441 -0.8704  0.4769 -0.5888
  795MOL0     C 9619   8.733   4.450  11.478 -0.1061  0.3147 -0.2431
  795MOL0     O 9620   8.684   4.736  11.437  0.0739 -0.1402 -0.4682
  795MOL0     C 9621   8.815   4.864  11.754  0.2943 -0.4303  0.4307
  795MOL0     C 9622   8.820   4.990  11.822 -0.3127  1.0989 -0.6852
  795MOL0     N 9623   8.970   5.406  11.680 -0.5180 -0.0472  0.0233
  795MOL0     N 9624   9.066   5.354  11.611  0.1928  0.2197 -0.8585
  795MOL0     C 9625   9.665   4.885  10.863  0.6060 -0.8358 -0.2208
  795MOL0     C 9626   9.607   4.778  10.803 -0.6561 -0.4961  0.1433
  795MOL0     C 9627   9.590   4.392  10.529 -0.0670  0.2850  0.3791
  795MOL0     C 9628   9.457   4.421  10.514  0.7957 -0.5275 -0.7299
  795MOL0     C 9629   9.366   4.367  10.422  0.3183  0.1308 -1.2331
  795MOL0     C 9630   9.423   4.267  10.333 -0.0815 -0.0613  0.3119
  795MOL0     O 9631   9.356   4.197  10.247 -0.1686 -0.0794  0.2845
  795MOL0     C 9632   9.244   4.256  10.194 -0.8819  1.3875  0.7761
  795MOL0     C 9633   9.188   4.160  10.088 -0.7847  0.0324  0.2036
  795MOL0     C 9634   9.102   4.227   9.990  0.1812  0.1098 -0.0317
  795MOL0     C 9635   9.176   4.307   9.882  0.4033 -0.5353  0.3124
  795MOL0     C 9636   9.086   4.375   9.791  0.0007 -1.6754  0.9158
  795MOL0     C 9637   9.003   4.431   9.720 -0.3043  0.2966  0.0369
  795MOL0     C 9638   9.556   4.244  10.346 -0.8061 -0.3446  0.9377
  795MOL0     C 9639   9.640   4.295  10.448  0.3574  1.1255 -0.0502
  795MOL0     C 9640   9.781   4.231  10.453  0.8191  0.5802 -0.1309
  795MOL0     H 9641   9.876   4.655  10.647  1.2409 -0.9824  1.6393
  795MOL0     H 9642   9.976   4.857  10.739  1.0160 -0.8246 -2.2353
  795MOL0     H 9643   9.685   5.136  10.861  0.5964  2.8694 -1.8046
  795MOL0     H 9644   9.836   5.218  10.851  2.1890 -2.0446 -1.0138
  795MOL0     H 9645   9.737   5.070  11.113  0.6051  0.5013  0.2523
  795MOL0     H 9646   9.861   5.197  11.109  0.8085 -1.2515 -0.5682
  795MOL0     H 9647   9.664   5.366  11.089  1.0762  0.1515 -1.9996
  795MOL0     H 9648   9.559   5.226  11.077 -0.2895 -1.2440  1.9770
  795MOL0     H 9649   9.644   5.143  11.300  0.4242  0.4800 -1.1295
  795MOL0     H 9650   9.728   5.298  11.335  0.3070  0.3085 -1.4804
  795MOL0     H 9651   9.437   5.298  11.269 -0.9302  2.3133  0.0258
  795MOL0     H 9652   9.524   5.426  11.343 -0.9868  0.9738 -3.5941
  795MOL0     H 9653   9.462   5.134  11.454  1.7618 -0.4823 -2.2515
  795MOL0     H 9654   9.564   5.246  11.540  0.5768 -2.1542  0.2981
  795MOL0     H 9655   9.272   5.319  11.466 -1.2320 -0.5832  1.1893
  795MOL0     H 9656   9.395   5.417  11.553  1.8369 -0.7513 -0.3902
  795MOL0     H 9657   9.266   5.151  11.649  0.3412  0.2358 -0.5457
  795MOL0     H 9658   9.344   5.250  11.760  0.9835  3.6847  0.0338
  795MOL0     H 9659   9.213   5.438  11.900 -1.0698 -1.5613  2.0980
  795MOL0     H 9660   8.864   5.606  11.807 -0.3767 -2.6763 -0.7750
  795MOL0     H 9661   8.993   5.627  11.922  0.9682 -0.7158 -0.5718
  795MOL0     H 9662   8.889   5.398  12.034 -2.5330 -3.9890 -1.6542
  795MOL0     H 9663   8.806   5.554  12.054  0.1042 -0.4401  0.2607
  795MOL0     H 9664   8.645   5.378  12.016 -0.3878  1.1870  0.8234
  795MOL0     H 9665   8.636   5.518  11.908  2.0174  1.6909 -0.5304
  795MOL0     H 9666   8.599   5.330  11.797  0.2502 -0.3190  1.6936
  795MOL0     H 9667   8.748   5.397  11.735  0.5871  1.7344  1.3909
  795MOL0     H 9668   8.656   5.194  11.622  2.4386 -1.4002 -4.5531
  795MOL0     H 9669   8.524   4.896  11.479 -0.2664 -0.3029 -0.1532
  795MOL0     H 9670   8.637   4.996  11.379 -0.4900 -1.5097 -0.6892
  795MOL0     H 9671   8.511   5.067  11.480  2.0028  1.1712  0.7609
  795MOL0     H 9672   9.039   4.529  11.591  0.5406 -1.1103  1.0098
  795MOL0     H 9673   9.079   4.286  11.472  1.0933  0.3148  2.4193
  795MOL0     H 9674   8.725   4.046  11.383  0.3697 -0.5551  1.0786
  795MOL0     H 9675   8.781   4.113  11.234 -5.2707 -0.7801  1.1937
  795MOL0     H 9676   8.931   3.871  11.343 -0.2649  0.6851  2.0574
  795MOL0     H 9677   8.784   3.862  11.245  0.7927  0.0795  0.7549
  795MOL0     H 9678   9.003   4.034  11.122 -1.8222  1.8695  0.1359
  795MOL0     H 9679   8.862   3.969  11.058 -0.4627  0.9095  0.5614
  795MOL0     H 9680   8.948   3.721  11.089 -1.1219  0.5315 -1.0445
  795MOL0     H 9681   9.085   3.796  11.185 -0.2037  1.1753  1.0291
  795MOL0     H 9682   9.051   3.811  10.870 -0.0782 -0.7233 -0.7896
  795MOL0     H 9683   9.165   3.886  10.981 -0.3878 -0.1297 -0.9026
  795MOL0     H 9684   9.139   3.579  10.992 -0.0138  0.0625 -0.9895
  795MOL0     H 9685   9.262   3.699  11.047 -1.0503  0.7587  0.4203
  795MOL0     H 9686   9.362   3.581  10.860  2.4615  1.9292 -0.5137
  795MOL0     H 9687   9.328   3.734  10.814 -3.5767  2.3029  1.6800
  795MOL0     H 9688   9.229   3.571  10.635  1.6974  0.7792  1.2583
  795MOL0     H 9689   9.093   3.646  10.718 -1.8623 -2.5829  0.8253
  795MOL0     H 9690   8.656   4.266  11.408  0.3103 -3.9830  2.8180
  795MOL0     H 9691   8.629   4.481  11.482 -2.0452 -4.7033 -3.1078
  795MOL0     H 9692   8.853   4.774  11.801 -4.0294 -2.3916  0.5921
  795MOL0     H 9693   8.853   4.998  11.926 -2.3842 -3.9963  0.6593
  795MOL0     H 9694   9.610   4.947  10.933  1.2031 -2.6102  1.9439
  795MOL0     H 9695   9.502   4.753  10.806 -0.7413 -0.1650  3.0104
  795MOL0     H 9696   9.407   4.481  10.589 -2.1782 -2.4717 -0.9663
  795MOL0     H 9697   9.264   4.403  10.431  1.0938  2.6056 -1.4266
  795MOL0     H 9698   9.161   4.272  10.263 -2.0312  2.2524 -0.7344
  795MOL0     H 9699   9.283   4.349  10.150 -0.2261  0.3039 -1.0110
  795MOL0     H 9700   9.140   4.087  10.153 -1.3111 -0.9248 -1.2111
  795MOL0     H 9701   9.277   4.117  10.042 -0.8909 -0.8428  0.7913
  795MOL0     H 9702   9.040   4.152   9.939 -3.4470  4.5586 -3.0423
  795MOL0     H 9703   9.031   4.286  10.050 -0.3445 -1.3212  0.8320
  795MOL0     H 9704   9.245   4.249   9.820  2.9123  2.3084  0.2091
  795MOL0     H 9705   9.236   4.382   9.933  1.0054 -1.1865  0.5709
  795MOL0     H 9706   8.925   4.462   9.652 -1.9353  1.2075  2.2106
  795MOL0     H 9707   9.595   4.174  10.274 -1.1720  0.4132 -0.0241
  795MOL0     H 9708   9.817   4.216  10.555  1.9625  0.4431 -0.5365
  795MOL0     H 9709   9.788   4.129  10.415  2.9994  0.6869 -0.1841
  795MOL0     H 9710   9.845   4.296  10.391 -0.6489  0.2542 -2.0777
  796MOL0     O 9711   2.452  10.206   7.807 -0.4819 -0.2453  0.4566
  796MOL0     C 9712   2.559  10.165   7.760  0.6117  0.1264 -0.5161
  796MOL0     O 9713   2.653  10.251   7.693  0.5746  0.2546  0.0686
  796MOL0     C 9714   2.594  10.360   7.633 -0.2135  0.3256 -0.0203
  796MOL0     C 9715   2.581  10.356   7.494  1.3627 -0.5166  0.2386
  796MOL0     C 9716   2.508  10.454   7.430 -0.2707  0.6127  1.2451
  796MOL0     C 9717   2.445  10.561   7.498  0.3739 -0.5915  0.1225
  796MOL0     O 9718   2.374  10.656   7.428  0.1469 -0.9123  0.3279
  796MOL0     C 9719   2.368  10.785   7.496  0.3133 -0.5826  0.3065
  796MOL0     C 9720   2.500  10.851   7.497 -0.2957  0.1313 -0.5360
  796MOL0     C 9721   2.565  10.855   7.363  0.6017  0.2143  1.9549
  796MOL0     C 9722   2.675  10.954   7.345 -0.1079 -0.0656  0.0285
  796MOL0     C 9723   2.745  10.948   7.210 -1.2298 -0.1128  0.6958
  796MOL0     C 9724   2.844  11.056   7.189 -0.0543 -0.0310 -0.9224
  796MOL0     C 9725   2.961  11.050   7.289 -0.2699  0.2874 -0.3707
  796MOL0     C 9726   3.061  11.170   7.269  0.4178 -0.0321 -0.7899
  796MOL0     N 9727   3.137  11.155   7.142 -0.6358 -0.0319 -0.0686
  796MOL0     C 9728   3.200  11.038   7.109  0.7535 -0.8510  0.3008
  796MOL0     C 9729   3.231  11.058   6.978  0.1821 -0.0632 -0.1796
  796MOL0     C 9730   3.321  10.967   6.891  0.1721 -0.0224  0.0813
  796MOL0     C 9731   3.430  11.048   6.822  0.2530  0.3087 -0.4317
  796MOL0     C 9732   3.531  11.114   6.915  1.1600 -0.1440 -0.9253
  796MOL0     C 9733   3.635  11.011   6.959  0.4771  0.1594 -0.5279
  796MOL0     O 9734   3.575  10.910   7.046  0.3540  0.5419  0.4601
  796MOL0     C 9735   3.579  10.918   7.180 -0.4669  1.0109  1.2315
  796MOL0     C 9736   3.612  11.032   7.249 -1.0557  0.3322 -0.1778
  796MOL0     C 9737   3.630  11.036   7.387  0.5068 -0.5127  0.3706
  796MOL0     C 9738   3.640  11.174   7.458 -0.3505 -0.2250 -0.4340
  796MOL0     C 9739   3.630  10.911   7.458 -0.4306  0.6631 -0.0538
  796MOL0     C 9740   3.639  10.907   7.607 -0.1193  0.4404  0.4905
  796MOL0     O 9741   3.554  10.986   7.680  0.6013  0.4864  0.0438
  796MOL0     C 9742   3.567  10.965   7.816  0.0567 -0.9669 -1.0794
  796MOL0     C 9743   3.463  10.910   7.893  0.2471  0.1282 -0.3025
  796MOL0     C 9744   3.468  10.901   8.037  0.8258  0.6937  0.0265
  796MOL0     C 9745   3.584  10.948   8.106  0.1373  0.2035  0.5344
  796MOL0     O 9746   3.602  10.933   8.242 -0.1659  0.1063  0.6123
  796MOL0     C 9747   3.563  11.051   8.323  0.3539  0.7489  0.1810
  796MOL0     C 9748   3.690  11.136   8.358  0.4492  1.2501  0.5689
  796MOL0     C 9749   3.662  11.275   8.426  0.4532  0.8622  0.1541
  796MOL0     C 9750   3.530  11.284   8.502 -1.0650  0.4746 -0.2472
  796MOL0     C 9751   3.508  11.430   8.553 -0.1728  0.7419 -0.5814
  796MOL0     C 9752   3.465  11.537   8.443  0.3876 -0.5541 -0.2557
  796MOL0     C 9753   3.580  11.628   8.404  0.5528 -0.2696  0.4616
  796MOL0     C 9754   3.536  11.715   8.285  0.1186  0.4485  0.2115
  796MOL0    Cl 9755   3.518  11.629   8.129 -0.0586  0.2577  0.2444
  796MOL0     C 9756   3.696  11.005   8.024  1.4483  0.3336  0.6907
  796MOL0     C 9757   3.679  11.008   7.881 -0.8194  0.9971  0.4810
  796MOL0     O 9758   3.728  10.843   7.662  0.0691  0.7929 -0.2282
  796MOL0     C 9759   3.609  10.794   7.389 -0.5339 -0.3083 -0.2743
  796MOL0     C 9760   3.579  10.798   7.255 -0.5333 -0.2650 -0.2160
  796MOL0     N 9761   3.168  11.170   6.926 -0.1853 -0.4041 -0.2250
  796MOL0     N 9762   3.114  11.223   7.024 -0.3824  0.1322 -0.0012
  796MOL0     C 9763   2.454  10.561   7.643  0.2149  0.3856 -0.6240
  796MOL0     C 9764   2.538  10.467   7.706  0.4750 -0.1061  0.1772
  796MOL0     C 9765   2.607  10.022   7.773  0.4360 -0.2332 -0.7551
  796MOL0     C 9766   2.743  10.002   7.735  0.6112  0.1157  0.6027
  796MOL0     C 9767   2.794   9.872   7.742 -0.4535 -0.2764  0.5135
  796MOL0     C 9768   2.720   9.756   7.787  0.3927  0.4216  0.3535
  796MOL0     O 9769   2.776   9.625   7.791 -0.3329  0.5346  1.7428
  796MOL0     C 9770   2.767   9.540   7.909  0.0374 -0.2304 -0.9321
  796MOL0     C 9771   2.911   9.473   7.947  0.2333 -0.1645  0.3240
  796MOL0     C 9772   3.004   9.573   8.020 -0.5846  0.6298  0.7030
  796MOL0     C 9773   3.149   9.523   8.053  0.4795 -0.6749  0.3594
  796MOL0     C 9774   3.239   9.627   8.108  0.0479 -1.4555  0.6514
  796MOL0     C 9775   3.314   9.706   8.151 -0.2363 -0.2066  0.3479
  796MOL0     C 9776   2.591   9.778   7.816  0.7648 -0.5257  0.0026
  796MOL0     C 9777   2.527   9.909   7.801 -0.3226 -0.2673  1.3912
  796MOL0     C 9778   2.375   9.927   7.829 -0.4823  0.4623  1.0202
  796MOL0     H 9779   2.637  10.283   7.437  3.8613  0.8033  0.8555
  796MOL0     H 9780   2.506  10.454   7.322  1.7300 -1.9211  1.1027
  796MOL0     H 9781   2.319  10.766   7.592  0.1406 -2.4875 -0.1170
  796MOL0     H 9782   2.287  10.828   7.437 -0.7668 -3.4198 -0.4619
  796MOL0     H 9783   2.487  10.955   7.528  0.6051  0.3406 -0.8140
  796MOL0     H 9784   2.557  10.785   7.564 -0.8915 -1.1160 -1.2234
  796MOL0     H 9785   2.600  10.755   7.337  0.9383  0.6441  0.6782
  796MOL0     H 9786   2.482  10.881   7.296  0.6674  0.8789  2.1244
  796MOL0     H 9787   2.633  11.054   7.364  3.7639  1.3881  2.0254
  796MOL0     H 9788   2.751  10.931   7.420  1.9326 -1.5594 -2.3549
  796MOL0     H 9789   2.681  10.960   7.122 -0.3946 -0.3886  0.0357
  796MOL0     H 9790   2.792  10.851   7.194  0.3132  0.7015 -0.0488
  796MOL0     H 9791   2.886  11.040   7.090  2.6869  0.7951  0.0224
  796MOL0     H 9792   2.795  11.153   7.205 -0.1145 -0.0935 -0.7255
  796MOL0     H 9793   3.009  10.952   7.298  0.9354  0.8324 -0.6936
  796MOL0     H 9794   2.923  11.068   7.390 -4.3336 -4.7456 -0.5669
  796MOL0     H 9795   3.013  11.267   7.285  0.9920  0.4564 -1.9463
  796MOL0     H 9796   3.153  11.169   7.328  1.4487 -1.7837 -2.3317
  796MOL0     H 9797   3.226  10.952   7.171  3.9218 -0.2767 -0.0472
  796MOL0     H 9798   3.256  10.929   6.812 -1.7971  0.5830  1.3215
  796MOL0     H 9799   3.354  10.875   6.940  1.9919 -0.2059 -1.3994
  796MOL0     H 9800   3.486  10.979   6.759 -0.1110 -3.3102  2.8555
  796MOL0     H 9801   3.380  11.130   6.768  0.6291  0.6305 -0.2935
  796MOL0     H 9802   3.593  11.198   6.882  0.3752  1.8628  2.2281
  796MOL0     H 9803   3.473  11.160   6.996  1.3493  0.3871 -1.0860
  796MOL0     H 9804   3.675  10.963   6.870 -0.0320  1.5409 -1.5338
  796MOL0     H 9805   3.721  11.053   7.013 -0.7696  1.3694  0.6092
  796MOL0     H 9806   3.628  11.125   7.195 -3.5473  0.1835 -1.3218
  796MOL0     H 9807   3.740  11.175   7.502 -1.3084  0.7671  1.8817
  796MOL0     H 9808   3.561  11.183   7.533  0.2053  0.7972  0.0447
  796MOL0     H 9809   3.625  11.256   7.387 -1.8385  0.7634  0.9568
  796MOL0     H 9810   3.368  10.877   7.852  0.4141  0.2960 -0.8360
  796MOL0     H 9811   3.380  10.889   8.099 -0.0356 -1.0642 -1.4316
  796MOL0     H 9812   3.500  11.104   8.250 -1.4928 -2.6151 -0.8825
  796MOL0     H 9813   3.513  11.029   8.418 -0.7496  0.8743 -0.3575
  796MOL0     H 9814   3.753  11.070   8.419  0.4164 -0.3292 -1.0355
  796MOL0     H 9815   3.746  11.171   8.271 -1.4604  1.7059 -0.5215
  796MOL0     H 9816   3.666  11.354   8.351 -2.2012  0.8611 -0.0805
  796MOL0     H 9817   3.744  11.294   8.496 -0.8826  3.1710  1.2077
  796MOL0     H 9818   3.516  11.210   8.582 -3.0675  0.7231 -0.3296
  796MOL0     H 9819   3.453  11.254   8.431 -0.4987 -0.7143 -0.3793
  796MOL0     H 9820   3.416  11.421   8.611  0.5801  0.5629  0.6237
  796MOL0     H 9821   3.594  11.450   8.617 -1.9787  0.0150  2.2609
  796MOL0     H 9822   3.382  11.601   8.477 -0.1565 -0.4079 -1.7674
  796MOL0     H 9823   3.415  11.492   8.357  0.4673  2.3904 -1.9739
  796MOL0     H 9824   3.665  11.570   8.368 -0.8308 -0.6680 -2.4016
  796MOL0     H 9825   3.610  11.692   8.488  0.5623  0.3639 -0.0208
  796MOL0     H 9826   3.602  11.802   8.288  2.4728 -1.2521  0.5874
  796MOL0     H 9827   3.433  11.747   8.301 -0.4680 -0.7195 -1.0116
  796MOL0     H 9828   3.793  11.031   8.064  2.4412 -4.1146  1.6483
  796MOL0     H 9829   3.758  11.050   7.820 -0.5532 -1.0156 -0.6160
  796MOL0     H 9830   3.613  10.698   7.440  1.6725  1.1567  2.6012
  796MOL0     H 9831   3.543  10.705   7.213 -2.9358 -1.0201  3.0882
  796MOL0     H 9832   2.405  10.623   7.717 -0.2920 -2.2795  1.4494
  796MOL0     H 9833   2.553  10.471   7.814 -1.6795 -1.7201  0.6059
  796MOL0     H 9834   2.804  10.081   7.693  2.6654 -1.9965 -0.6021
  796MOL0     H 9835   2.901   9.860   7.727 -0.1486 -0.1885  2.4243
  796MOL0     H 9836   2.749   9.608   7.992 -1.1761 -0.5917 -0.8788
  796MOL0     H 9837   2.685   9.469   7.903 -0.4989  0.3339 -0.4154
  796MOL0     H 9838   2.957   9.431   7.857 -1.7926 -0.3355 -0.6883
  796MOL0     H 9839   2.889   9.395   8.020 -2.4164  1.3261  1.2166
  796MOL0     H 9840   3.004   9.667   7.964  1.5035  0.6727  0.6744
  796MOL0     H 9841   2.964   9.594   8.120 -2.4906  1.7986 -0.2521
  796MOL0     H 9842   3.181   9.492   7.953 -0.6953 -0.2400 -0.1607
  796MOL0     H 9843   3.148   9.436   8.119  0.2254  0.0089  1.2719
  796MOL0     H 9844   3.378   9.786   8.184 -0.4083 -0.5563  1.5734
  796MOL0     H 9845   2.525   9.698   7.850  0.7372 -0.5888 -0.2023
  796MOL0     H 9846   2.334   9.826   7.832 -1.9642  0.8482 -2.0769
  796MOL0     H 9847   2.364   9.977   7.926 -0.5642  0.2238  1.1343
  796MOL0     H 9848   2.312   9.974   7.752 -0.5728 -2.3284 -0.7177
  797MOL0     O 9849  10.541   3.414   6.131 -0.4243  0.2212  0.1538
  797MOL0     C 9850  10.559   3.357   6.242 -0.0712  0.4363  0.7893
  797MOL0     O 9851  10.537   3.412   6.366  0.4392 -0.2839 -0.2031
  797MOL0     C 9852  10.453   3.520   6.381  0.3220 -0.3194  0.7221
  797MOL0     C 9853  10.314   3.496   6.404  0.4912  0.3603  0.0202
  797MOL0     C 9854  10.233   3.603   6.421  1.2096  0.1556  1.2435
  797MOL0     C 9855  10.287   3.734   6.410 -0.2111 -0.5829  0.4330
  797MOL0     O 9856  10.207   3.850   6.404  0.2166  0.0597 -1.0154
  797MOL0     C 9857  10.142   3.861   6.532  0.9718 -0.1892 -0.5961
  797MOL0     C 9858  10.138   4.010   6.574  0.0033 -0.3356  0.9148
  797MOL0     C 9859  10.048   4.036   6.697 -0.2977 -1.2349  0.3450
  797MOL0     C 9860  10.133   4.005   6.831  0.4409  0.6944  0.3454
  797MOL0     C 9861  10.046   3.978   6.948  0.2217  0.6838 -0.8243
  797MOL0     C 9862   9.922   4.067   6.972 -0.5777 -0.4451  0.1006
  797MOL0     C 9863   9.847   4.049   7.096  0.4664 -0.4840  0.3288
  797MOL0     C 9864   9.783   3.911   7.091  0.3274  0.3634  0.0774
  797MOL0     N 9865   9.706   3.904   7.212 -0.3976 -0.9488 -0.3852
  797MOL0     C 9866   9.728   3.810   7.309  0.8401 -0.0774 -0.2226
  797MOL0     C 9867   9.620   3.818   7.395  1.7258 -0.6622  0.5339
  797MOL0     C 9868   9.604   3.745   7.525 -0.2623  0.7413 -0.0962
  797MOL0     C 9869   9.656   3.825   7.647  0.7507 -0.8939 -0.4822
  797MOL0     C 9870   9.611   3.979   7.654  0.2693 -0.7143 -0.3156
  797MOL0     C 9871   9.689   4.074   7.574  0.0280  0.0726 -0.4992
  797MOL0     O 9872   9.829   4.071   7.600 -0.0218  0.1757  0.0222
  797MOL0     C 9873   9.905   4.151   7.521  0.0053 -0.6009  0.3035
  797MOL0     C 9874  10.035   4.121   7.534  0.0337  0.5902 -0.4995
  797MOL0     C 9875  10.145   4.207   7.480  0.5604  0.2727 -0.0014
  797MOL0     C 9876  10.292   4.171   7.495 -0.3426 -0.2177 -0.6422
  797MOL0     C 9877  10.102   4.321   7.403  0.8053 -0.3737  0.1411
  797MOL0     C 9878  10.190   4.410   7.340  0.6300 -0.0285 -0.3536
  797MOL0     O 9879  10.282   4.361   7.247 -0.1321  0.2447  0.5068
  797MOL0     C 9880  10.373   4.456   7.201  0.7723 -0.1940  0.2497
  797MOL0     C 9881  10.380   4.490   7.062  0.4713  0.4372 -0.6686
  797MOL0     C 9882  10.479   4.575   7.013  0.5549 -0.9005 -0.3472
  797MOL0     C 9883  10.574   4.627   7.100  0.2801  1.1050 -0.8920
  797MOL0     O 9884  10.672   4.702   7.053 -1.2863  0.2585  0.1848
  797MOL0     C 9885  10.775   4.617   6.987 -0.2183 -0.4061  0.4189
  797MOL0     C 9886  10.906   4.699   6.997  0.3988  0.7435  0.7052
  797MOL0     C 9887  10.927   4.790   6.872  0.6131 -0.7380  0.1569
  797MOL0     C 9888  11.055   4.865   6.897  0.3146  0.6848 -0.1990
  797MOL0     C 9889  11.176   4.837   6.808 -0.7420 -0.0158 -0.0039
  797MOL0     C 9890  11.208   4.686   6.825 -0.2471 -0.9056  0.2883
  797MOL0     C 9891  11.338   4.658   6.756  0.1728  0.1274 -0.1830
  797MOL0     C 9892  11.373   4.516   6.717  0.2047  0.0206 -0.5838
  797MOL0    Cl 9893  11.401   4.415   6.861 -0.4606  0.6615 -0.2511
  797MOL0     C 9894  10.567   4.603   7.239  0.1761  0.2338 -0.6411
  797MOL0     C 9895  10.468   4.511   7.290  0.3132  1.3020  0.1280
  797MOL0     O 9896  10.178   4.530   7.382  0.3969  0.0578 -0.6474
  797MOL0     C 9897   9.964   4.357   7.402 -1.6836 -0.8888  0.2250
  797MOL0     C 9898   9.870   4.272   7.461 -0.2116 -0.3415 -0.0898
  797MOL0     N 9899   9.536   3.911   7.341 -0.4656 -0.2056 -0.3075
  797MOL0     N 9900   9.580   3.961   7.234 -0.0213  1.0595 -0.4544
  797MOL0     C 9901  10.429   3.757   6.404  0.3560  0.4727  0.9287
  797MOL0     C 9902  10.506   3.647   6.380  0.2229 -0.4366  0.4331
  797MOL0     C 9903  10.580   3.208   6.248  0.2070  0.7445  0.1615
  797MOL0     C 9904  10.526   3.145   6.365  0.5418  0.2782 -0.2085
  797MOL0     C 9905  10.546   3.008   6.381  0.0350  0.4086  0.5724
  797MOL0     C 9906  10.618   2.933   6.283  0.2753  0.5493 -0.0148
  797MOL0     O 9907  10.638   2.795   6.320  0.2442 -0.4914 -0.3067
  797MOL0     C 9908  10.769   2.734   6.327  0.7325 -0.0452  1.1618
  797MOL0     C 9909  10.855   2.770   6.450  1.1412  0.5624 -0.0044
  797MOL0     C 9910  10.991   2.693   6.460  0.8916  0.3117  0.4093
  797MOL0     C 9911  10.976   2.561   6.532 -0.2916 -0.2956 -0.3264
  797MOL0     C 9912  11.077   2.470   6.488  0.0323  0.3697 -0.2285
  797MOL0     C 9913  11.160   2.383   6.458  0.7115  0.7729  0.8136
  797MOL0     C 9914  10.665   2.993   6.171 -0.9697  0.0335 -0.4197
  797MOL0     C 9915  10.661   3.131   6.152 -0.4113 -0.6064  0.2263
  797MOL0     C 9916  10.732   3.199   6.039  0.1681 -0.2110  0.5140
  797MOL0     H 9917  10.287   3.391   6.409 -1.0489  0.6508 -1.3435
  797MOL0     H 9918  10.128   3.586   6.439  1.5662 -2.5294  1.1439
  797MOL0     H 9919  10.184   3.801   6.613  0.3621  0.4169  0.1825
  797MOL0     H 9920  10.037   3.840   6.512  0.9948 -0.6125 -0.2831
  797MOL0     H 9921  10.235   4.055   6.599 -0.8737  1.2575  1.6132
  797MOL0     H 9922  10.099   4.059   6.484  0.5544 -3.8143 -1.3783
  797MOL0     H 9923  10.014   4.141   6.695 -2.2583 -1.8124  0.5303
  797MOL0     H 9924   9.954   3.984   6.678 -2.2756  2.7977 -2.4468
  797MOL0     H 9925  10.198   3.919   6.812  1.5264  1.5194  0.2345
  797MOL0     H 9926  10.196   4.093   6.844  0.8655  0.2014  1.8324
  797MOL0     H 9927  10.113   4.000   7.031  1.3151  3.2503 -2.2791
  797MOL0     H 9928  10.022   3.871   6.950  0.8629  0.5126  1.9046
  797MOL0     H 9929   9.945   4.174   6.975 -0.6124 -0.1719 -3.7067
  797MOL0     H 9930   9.849   4.063   6.890 -3.3339  0.6679  2.3298
  797MOL0     H 9931   9.763   4.118   7.100 -1.2967 -2.3989 -1.1713
  797MOL0     H 9932   9.914   4.062   7.182  0.0367 -1.7313  0.8752
  797MOL0     H 9933   9.718   3.901   7.003 -1.7454 -1.7752  1.7106
  797MOL0     H 9934   9.865   3.840   7.106  0.6589  0.7440  0.0775
  797MOL0     H 9935   9.815   3.746   7.318  0.5379 -0.2480  2.0678
  797MOL0     H 9936   9.669   3.658   7.509  0.3744  1.2812 -0.5303
  797MOL0     H 9937   9.502   3.710   7.539  0.3077 -1.2821 -0.6351
  797MOL0     H 9938   9.642   3.779   7.746  1.8992 -0.8221 -0.2740
  797MOL0     H 9939   9.764   3.826   7.632  0.7525 -0.8868 -0.4708
  797MOL0     H 9940   9.504   3.978   7.632  0.2624 -4.3958 -0.8541
  797MOL0     H 9941   9.631   4.007   7.757  2.0470 -4.8110  0.6442
  797MOL0     H 9942   9.678   4.075   7.465  2.7434 -0.6406 -0.8464
  797MOL0     H 9943   9.652   4.172   7.607  2.8694  0.7622  0.9441
  797MOL0     H 9944  10.075   4.036   7.589  0.1441  2.6446  2.8321
  797MOL0     H 9945  10.311   4.167   7.602 -0.1736  1.1036 -0.6048
  797MOL0     H 9946  10.357   4.244   7.445 -0.3504  0.3797  0.2058
  797MOL0     H 9947  10.305   4.069   7.458 -2.2984 -0.2683 -1.3334
  797MOL0     H 9948  10.305   4.451   6.995 -1.2953 -0.5244  1.7308
  797MOL0     H 9949  10.479   4.586   6.905  0.3009  1.1770 -0.1761
  797MOL0     H 9950  10.783   4.518   7.032 -0.4726 -0.2544  0.8085
  797MOL0     H 9951  10.744   4.606   6.883 -2.2948 -0.7974  1.0323
  797MOL0     H 9952  10.905   4.758   7.090  0.5999  1.7016  0.1137
  797MOL0     H 9953  10.972   4.613   7.008 -2.0114 -1.1178  1.5791
  797MOL0     H 9954  10.843   4.860   6.870 -0.2395 -1.7356 -2.6544
  797MOL0     H 9955  10.933   4.742   6.774 -2.4783  2.0120 -1.5556
  797MOL0     H 9956  11.078   4.832   6.999 -1.5709 -3.6167 -0.9194
  797MOL0     H 9957  11.036   4.972   6.886  1.2002  0.6930 -2.0314
  797MOL0     H 9958  11.157   4.860   6.703  1.0328 -1.0988 -0.6146
  797MOL0     H 9959  11.265   4.897   6.832  0.7501 -0.6767 -3.3208
  797MOL0     H 9960  11.135   4.614   6.786  0.9324 -1.5415 -0.7973
  797MOL0     H 9961  11.209   4.665   6.932  0.1817  2.6702  1.1392
  797MOL0     H 9962  11.415   4.710   6.815 -1.1472  1.2597  0.6262
  797MOL0     H 9963  11.335   4.715   6.663 -0.3645 -0.8276 -0.7530
  797MOL0     H 9964  11.453   4.505   6.643  1.2025 -3.5042  0.7955
  797MOL0     H 9965  11.287   4.476   6.663  0.2887 -0.2178 -0.5436
  797MOL0     H 9966  10.636   4.659   7.301  0.2648 -1.3974  0.8131
  797MOL0     H 9967  10.463   4.491   7.396 -0.2520  0.8478  0.0262
  797MOL0     H 9968   9.929   4.449   7.357 -1.3429  0.7429  3.0423
  797MOL0     H 9969   9.767   4.307   7.464 -0.2129 -0.3943  2.1925
  797MOL0     H 9970  10.464   3.860   6.405  0.7269  0.3469  1.0931
  797MOL0     H 9971  10.610   3.673   6.359 -0.3870 -0.4144 -3.1887
  797MOL0     H 9972  10.458   3.182   6.441  2.1087 -1.5206  2.2086
  797MOL0     H 9973  10.503   2.958   6.467  1.5611  2.9446  2.9843
  797MOL0     H 9974  10.742   2.628   6.319  0.1007  0.2381 -1.7479
  797MOL0     H 9975  10.831   2.759   6.241  3.7147  0.2611  3.2608
  797MOL0     H 9976  10.798   2.747   6.541 -2.6554  4.2345 -1.1033
  797MOL0     H 9977  10.863   2.879   6.446  1.4931  0.5421  0.1514
  797MOL0     H 9978  11.021   2.686   6.355 -0.5711  2.8992 -0.2743
  797MOL0     H 9979  11.066   2.757   6.508  1.1428  1.4694 -1.4385
  797MOL0     H 9980  10.876   2.518   6.526 -0.7495  0.8292 -0.9429
  797MOL0     H 9981  10.997   2.564   6.639 -2.4765 -1.6727  0.2094
  797MOL0     H 9982  11.244   2.339   6.408  1.1931  2.4968  0.0092
  797MOL0     H 9983  10.710   2.926   6.098 -1.4646 -1.2523  0.4142
  797MOL0     H 9984  10.657   3.216   5.961  1.3483 -2.7529 -1.3342
  797MOL0     H 9985  10.793   3.284   6.069  1.5572 -1.4793  1.4293
  797MOL0     H 9986  10.805   3.134   5.990 -1.6188 -1.5233 -0.5258
  798MOL0     O 9987   4.327   3.535   2.136 -0.0796  0.3373  0.3776
  798MOL0     C 9988   4.419   3.555   2.222 -0.3401 -0.0689 -0.3351
  798MOL0     O 9989   4.557   3.555   2.204 -0.0961  1.1796 -0.5154
  798MOL0     C 9990   4.602   3.507   2.083 -0.2628 -0.2598 -0.4323
  798MOL0     C 9991   4.620   3.377   2.070  0.7568 -0.4099  0.8616
  798MOL0     C 9992   4.665   3.328   1.948 -0.4039  0.6690  0.3628
  798MOL0     C 9993   4.686   3.406   1.836 -0.1692 -0.4793  0.4022
  798MOL0     O 9994   4.735   3.346   1.725  0.0401 -0.3296 -0.9530
  798MOL0     C 9995   4.747   3.426   1.611 -1.2264 -0.1332  0.2252
  798MOL0     C 9996   4.802   3.331   1.504 -0.3923 -0.1759 -0.2133
  798MOL0     C 9997   4.760   3.390   1.371 -1.1282  0.6366 -0.0353
  798MOL0     C 9998   4.749   3.282   1.248  0.1911 -0.4455  0.3775
  798MOL0     C 9999   4.879   3.202   1.222  0.3864 -0.7864 -0.3798
  798MOL0     C10000   4.875   3.130   1.091  0.2829  0.5617 -0.3988
  798MOL0     C10001   5.018   3.100   1.030  0.9314  0.3604 -0.5467
  798MOL0     C10002   5.009   2.981   0.941 -0.2031  0.2364  1.3436
  798MOL0     N10003   5.005   3.034   0.802  0.5542 -0.2768  0.2336
  798MOL0     C10004   5.117   3.053   0.728 -0.9336  0.1898 -0.0928
  798MOL0     C10005   5.072   3.117   0.621  0.4741  0.2950  0.7589
  798MOL0     C10006   5.151   3.165   0.499 -0.0194 -0.1503 -0.9310
  798MOL0     C10007   5.221   3.296   0.544 -0.6305 -0.1151  0.1536
  798MOL0     C10008   5.360   3.294   0.618 -0.3330 -0.1288 -0.1432
  798MOL0     C10009   5.392   3.433   0.678  0.9864  0.3185 -0.7049
  798MOL0     O10010   5.532   3.447   0.672 -0.1196  0.2695  0.8090
  798MOL0     C10011   5.592   3.516   0.565 -0.3213  0.4442 -0.7612
  798MOL0     C10012   5.526   3.524   0.442 -1.1715  0.0751 -0.3016
  798MOL0     C10013   5.592   3.596   0.341  0.1795 -0.0208 -0.0666
  798MOL0     C10014   5.506   3.619   0.215 -0.4579  0.5137 -0.1566
  798MOL0     C10015   5.720   3.654   0.358 -0.3043 -0.0474 -0.8601
  798MOL0     C10016   5.790   3.739   0.266  0.4804  0.2068  0.5440
  798MOL0     O10017   5.717   3.843   0.206 -1.0646  0.4860  0.1860
  798MOL0     C10018   5.780   3.927   0.111 -0.5073  0.0393 -0.3391
  798MOL0     C10019   5.822   3.875  -0.012 -0.2982  0.9674 -0.0647
  798MOL0     C10020   5.899   3.958  -0.097  0.5425  0.5085  0.3163
  798MOL0     C10021   5.935   4.090  -0.060  0.3340  0.2225  0.4582
  798MOL0     O10022   6.011   4.151  -0.159 -0.0333  0.3000 -0.8470
  798MOL0     C10023   6.122   4.232  -0.103 -0.5150 -0.5436  0.1394
  798MOL0     C10024   6.093   4.384  -0.113 -0.3125 -0.9478  0.6563
  798MOL0     C10025   6.041   4.437  -0.253 -0.8660  1.3429  0.9726
  798MOL0     C10026   5.976   4.577  -0.252  0.3449 -0.4834 -0.5628
  798MOL0     C10027   5.885   4.603  -0.147  1.2093 -0.3665 -0.3100
  798MOL0     C10028   5.776   4.710  -0.166  0.8655  0.4376 -0.9174
  798MOL0     C10029   5.830   4.844  -0.149 -1.3278 -0.0396  0.4230
  798MOL0     C10030   5.714   4.951  -0.144 -0.3400  0.4664 -0.4746
  798MOL0    Cl10031   5.678   4.985  -0.330  0.3467 -0.4307  0.3323
  798MOL0     C10032   5.893   4.130   0.066  0.1606 -0.0321  0.3028
  798MOL0     C10033   5.812   4.052   0.152 -0.3024  0.1337  0.7042
  798MOL0     O10034   5.915   3.724   0.253 -0.0883  0.3000 -0.0410
  798MOL0     C10035   5.785   3.622   0.480 -0.1954  0.0572  0.0463
  798MOL0     C10036   5.726   3.547   0.586  2.5951 -0.5967  0.1054
  798MOL0     N10037   4.931   3.129   0.628 -0.2148 -0.2441  0.2438
  798MOL0     N10038   4.894   3.074   0.741 -0.5089 -0.2484  0.8172
  798MOL0     C10039   4.650   3.542   1.843 -0.4671  0.1159  0.4785
  798MOL0     C10040   4.604   3.592   1.970  0.1151 -0.6667 -0.2947
  798MOL0     C10041   4.371   3.584   2.358 -0.0130 -0.1738  0.3065
  798MOL0     C10042   4.232   3.579   2.382  0.9671  0.1049 -0.8275
  798MOL0     C10043   4.174   3.630   2.503 -0.3677  0.4466  0.0332
  798MOL0     C10044   4.248   3.683   2.603 -0.3660  0.2847  0.0948
  798MOL0     O10045   4.187   3.709   2.720  1.2086  0.1261  0.5282
  798MOL0     C10046   4.240   3.820   2.792 -0.4711  0.4468  0.3404
  798MOL0     C10047   4.140   3.884   2.884  0.4942 -0.1462 -1.1001
  798MOL0     C10048   4.089   3.803   3.012  0.4482  0.7100  0.0006
  798MOL0     C10049   4.034   3.657   2.977 -0.4793 -0.1899 -0.4515
  798MOL0     C10050   3.944   3.641   2.862  0.2420 -0.0162  0.1679
  798MOL0     C10051   3.849   3.635   2.782 -0.4697  0.9890  0.8932
  798MOL0     C10052   4.381   3.695   2.576  0.9011 -0.2118 -0.4930
  798MOL0     C10053   4.445   3.644   2.463 -0.6254 -0.7932  0.9066
  798MOL0     C10054   4.595   3.668   2.469  0.4806  0.1462  0.2076
  798MOL0     H10055   4.602   3.312   2.155 -1.4748  0.4563  1.1201
  798MOL0     H10056   4.696   3.224   1.954 -2.2002  0.0573 -0.2836
  798MOL0     H10057   4.826   3.501   1.623  0.4872 -1.9616  0.9175
  798MOL0     H10058   4.651   3.470   1.583 -0.6302 -0.0927 -1.8930
  798MOL0     H10059   4.911   3.320   1.505 -0.3850 -0.6537 -2.1293
  798MOL0     H10060   4.761   3.231   1.520  0.2968 -0.4405 -0.0241
  798MOL0     H10061   4.657   3.424   1.378 -2.1689 -1.6738 -2.3120
  798MOL0     H10062   4.832   3.468   1.342  0.2527  0.2416  2.0998
  798MOL0     H10063   4.675   3.202   1.256  0.3329 -0.5062  1.1783
  798MOL0     H10064   4.731   3.347   1.161 -1.7200 -2.6830 -1.0228
  798MOL0     H10065   4.904   3.136   1.306 -4.0486 -2.5012 -0.1236
  798MOL0     H10066   4.954   3.281   1.210 -1.1690  0.5185 -2.1130
  798MOL0     H10067   4.819   3.039   1.113  2.6943 -1.2774 -1.4569
  798MOL0     H10068   4.807   3.174   1.017 -1.6683  2.6644  2.4140
  798MOL0     H10069   5.087   3.076   1.112 -0.3882 -1.2258  0.1317
  798MOL0     H10070   5.055   3.189   0.978  0.7013  1.4059  1.0013
  798MOL0     H10071   5.097   2.915   0.940 -2.4551 -3.2361 -3.0393
  798MOL0     H10072   4.923   2.916   0.961  1.8094 -2.7479  0.9623
  798MOL0     H10073   5.218   3.023   0.751 -2.2767 -3.7338  1.6151
  798MOL0     H10074   5.091   3.198   0.414 -0.1180  1.4139 -0.2891
  798MOL0     H10075   5.225   3.091   0.466  2.2452  1.7830 -0.4325
  798MOL0     H10076   5.238   3.357   0.455  2.5854  1.5828  1.7523
  798MOL0     H10077   5.153   3.343   0.616 -0.6907 -1.0746  0.7405
  798MOL0     H10078   5.344   3.221   0.697 -1.9466 -0.1445 -0.4544
  798MOL0     H10079   5.439   3.253   0.555 -2.2313 -3.7036 -0.4485
  798MOL0     H10080   5.344   3.508   0.616 -4.2043 -3.1014 -1.3830
  798MOL0     H10081   5.351   3.457   0.776 -0.8635 -0.6772 -1.1898
  798MOL0     H10082   5.428   3.480   0.427 -1.2959 -0.0315  0.7706
  798MOL0     H10083   5.477   3.721   0.189 -2.9746  0.5934  2.5589
  798MOL0     H10084   5.410   3.566   0.216 -2.0169  3.1541 -0.0625
  798MOL0     H10085   5.565   3.579   0.131  0.9316 -0.8805  1.4043
  798MOL0     H10086   5.801   3.770  -0.031  1.6453  1.0596 -3.6548
  798MOL0     H10087   5.944   3.934  -0.193  2.8531  0.1119  1.4462
  798MOL0     H10088   6.136   4.217   0.004 -1.5726 -1.3041  0.1902
  798MOL0     H10089   6.217   4.207  -0.152 -0.1883 -0.7620  0.8767
  798MOL0     H10090   6.015   4.402  -0.038  1.9869  1.7056  2.6117
  798MOL0     H10091   6.181   4.441  -0.083 -0.6493  1.0598 -1.8171
  798MOL0     H10092   5.973   4.358  -0.288 -0.7503  1.9167 -0.6391
  798MOL0     H10093   6.120   4.432  -0.328 -0.0102 -2.5527  1.9256
  798MOL0     H10094   5.917   4.589  -0.343 -0.3181  0.2434 -0.0464
  798MOL0     H10095   6.056   4.652  -0.246 -0.9295  1.0233 -1.4312
  798MOL0     H10096   5.837   4.506  -0.128  0.2987  0.6461  3.2552
  798MOL0     H10097   5.938   4.627  -0.054  1.0581  0.2258 -0.3737
  798MOL0     H10098   5.699   4.694  -0.090  2.1382 -3.6028 -0.2499
  798MOL0     H10099   5.725   4.697  -0.262  1.9056 -1.4418 -1.2536
  798MOL0     H10100   5.901   4.865  -0.229 -0.0870 -0.1599  1.4614
  798MOL0     H10101   5.886   4.844  -0.055  1.0468 -1.2963 -0.9234
  798MOL0     H10102   5.745   5.049  -0.109 -0.4451  1.8399 -3.8371
  798MOL0     H10103   5.619   4.922  -0.097 -1.1617  5.4093  1.4364
  798MOL0     H10104   5.932   4.222   0.108  0.3876 -1.1118  2.5555
  798MOL0     H10105   5.782   4.081   0.252  0.3555 -0.0772  0.9734
  798MOL0     H10106   5.887   3.656   0.491 -0.0394 -0.4818  0.2947
  798MOL0     H10107   5.784   3.518   0.673  2.3072 -1.2533  0.0906
  798MOL0     H10108   4.668   3.608   1.759 -1.3165  0.4841  0.5752
  798MOL0     H10109   4.599   3.701   1.965  2.0091 -0.4635  1.2757
  798MOL0     H10110   4.165   3.546   2.303  1.1384  1.9366 -1.8081
  798MOL0     H10111   4.068   3.620   2.525 -0.4107  0.8572  0.0273
  798MOL0     H10112   4.323   3.784   2.853 -1.1815  1.3429  1.9006
  798MOL0     H10113   4.266   3.905   2.728  0.5147  1.1546  1.6198
  798MOL0     H10114   4.052   3.898   2.822  1.3879 -0.3707 -2.4669
  798MOL0     H10115   4.201   3.966   2.924  2.9151 -1.7719 -1.2566
  798MOL0     H10116   4.159   3.791   3.096 -1.5692 -2.5274  1.4288
  798MOL0     H10117   4.001   3.855   3.050 -0.9503 -2.0651  0.8360
  798MOL0     H10118   3.986   3.625   3.070  3.0961  1.7433  2.2956
  798MOL0     H10119   4.122   3.594   2.960 -0.3243 -0.1073  0.0258
  798MOL0     H10120   3.772   3.602   2.714 -1.6911  1.2237  2.1042
  798MOL0     H10121   4.434   3.742   2.658 -0.3847 -0.4318  0.4929
  798MOL0     H10122   4.657   3.577   2.472 -0.4727 -0.7090 -2.5701
  798MOL0     H10123   4.625   3.724   2.380 -0.1554 -0.4484 -0.3874
  798MOL0     H10124   4.626   3.726   2.557 -0.7996  1.3417 -0.0986
  799MOL0     O10125   2.864   6.642   4.923  0.1873  0.1193 -0.4287
  799MOL0     C10126   2.955   6.646   5.003 -0.0651  0.5615 -1.1288
  799MOL0     O10127   2.947   6.572   5.127 -0.0348  0.7841 -0.2780
  799MOL0     C10128   2.837   6.510   5.152 -0.8404 -0.0518 -0.4011
  799MOL0     C10129   2.720   6.567   5.201 -0.6545  0.5242 -0.0560
  799MOL0     C10130   2.613   6.491   5.233  0.0778 -1.1183  0.2931
  799MOL0     C10131   2.622   6.345   5.244 -0.2932 -0.4196 -0.5961
  799MOL0     O10132   2.532   6.258   5.285  0.0804  0.0142  0.3061
  799MOL0     C10133   2.385   6.303   5.285 -0.3462 -0.1650 -0.0400
  799MOL0     C10134   2.323   6.350   5.151  0.2177 -0.3090  0.8136
  799MOL0     C10135   2.366   6.256   5.044  0.1571  0.9001 -1.1261
  799MOL0     C10136   2.268   6.243   4.925  0.6254  0.9147 -0.4340
  799MOL0     C10137   2.309   6.130   4.824 -0.5967  0.2319 -0.2327
  799MOL0     C10138   2.445   6.161   4.753 -0.2641  0.6082  0.4754
  799MOL0     C10139   2.471   6.049   4.660  0.7057  0.5280  0.2956
  799MOL0     C10140   2.620   6.053   4.627  0.8238 -0.1571 -0.0025
  799MOL0     N10141   2.670   5.978   4.511  0.1525 -0.4288 -0.6375
  799MOL0     C10142   2.673   6.027   4.380 -0.0903  0.7106  0.0624
  799MOL0     C10143   2.708   5.926   4.306 -0.5575  0.9508  0.4458
  799MOL0     C10144   2.753   5.933   4.162 -0.3858  0.0577  0.1451
  799MOL0     C10145   2.900   5.951   4.168 -0.3208 -0.4538  0.2710
  799MOL0     C10146   2.952   5.947   4.023  0.3396 -0.1610  1.0117
  799MOL0     C10147   2.904   6.053   3.920 -1.0655  0.3177 -0.0855
  799MOL0     O10148   2.871   6.177   3.984  0.3024  0.1927 -0.3736
  799MOL0     C10149   2.959   6.279   3.974 -0.3686 -0.2941  0.9274
  799MOL0     C10150   3.090   6.259   4.022  0.2781  0.2936 -0.2933
  799MOL0     C10151   3.178   6.367   4.019  0.7181  0.5226 -0.3525
  799MOL0     C10152   3.318   6.342   4.045  0.0535  0.1631 -0.6676
  799MOL0     C10153   3.139   6.492   3.964 -0.2456  0.1351  0.0272
  799MOL0     C10154   3.232   6.607   3.956 -0.6827  0.5081 -0.0046
  799MOL0     O10155   3.283   6.658   4.072  0.0494  0.5038 -0.3705
  799MOL0     C10156   3.369   6.767   4.078  0.7344  0.3839  0.4106
  799MOL0     C10157   3.334   6.883   4.010  0.6785 -0.5845  0.3908
  799MOL0     C10158   3.419   6.995   4.012 -0.5162 -1.1330 -0.6376
  799MOL0     C10159   3.547   6.984   4.050 -0.1322 -0.1245 -0.8523
  799MOL0     O10160   3.644   7.081   4.026  0.4087  0.5663  0.0999
  799MOL0     C10161   3.731   7.135   4.117  0.9246  0.3095 -0.1740
  799MOL0     C10162   3.808   7.253   4.065 -0.3706  0.6403 -0.2853
  799MOL0     C10163   3.717   7.382   4.053  0.3307 -0.2386 -0.2194
  799MOL0     C10164   3.803   7.498   4.012  0.3111  0.5368  0.4869
  799MOL0     C10165   3.718   7.623   3.965 -0.5618  0.2155 -0.0511
  799MOL0     C10166   3.799   7.752   3.953  0.6015  0.7414  0.0902
  799MOL0     C10167   3.921   7.737   3.865  0.0036  1.1449 -0.0655
  799MOL0     C10168   3.984   7.863   3.812  0.6091  0.2412 -0.0007
  799MOL0    Cl10169   4.032   7.966   3.965 -0.1162 -0.0532  0.1320
  799MOL0     C10170   3.583   6.871   4.131  0.3730 -0.1389 -0.8965
  799MOL0     C10171   3.502   6.760   4.137  0.7893  0.5355 -0.7826
  799MOL0     O10172   3.265   6.628   3.842  0.0207  0.8544  0.1450
  799MOL0     C10173   3.008   6.503   3.914 -0.7458 -0.4619  0.7873
  799MOL0     C10174   2.920   6.400   3.926 -0.3998 -0.3788 -0.2414
  799MOL0     N10175   2.737   5.820   4.397 -0.8564  0.6027  0.0887
  799MOL0     N10176   2.718   5.856   4.514  0.1080  0.5163  0.0698
  799MOL0     C10177   2.746   6.289   5.209 -0.3382 -0.3818  0.4657
  799MOL0     C10178   2.856   6.371   5.173 -0.7570  0.2592  0.0376
  799MOL0     C10179   3.069   6.737   4.996  0.5874  0.5838  0.2804
  799MOL0     C10180   3.132   6.783   5.117  0.1399 -0.4651  0.0179
  799MOL0     C10181   3.240   6.872   5.101  0.0767  0.6315 -0.0851
  799MOL0     C10182   3.274   6.929   4.978 -1.4166  0.3907 -0.8081
  799MOL0     O10183   3.394   7.002   4.979 -0.4541 -0.0077  0.0958
  799MOL0     C10184   3.419   7.072   4.863 -0.3701 -0.0175  0.3641
  799MOL0     C10185   3.529   7.178   4.887 -0.0930  0.6156 -0.5611
  799MOL0     C10186   3.576   7.202   4.746 -0.1283 -0.7489  0.4133
  799MOL0     C10187   3.696   7.295   4.750  0.3134 -0.2978  1.0126
  799MOL0     C10188   3.741   7.344   4.620 -0.8781  0.4842  0.0356
  799MOL0     C10189   3.797   7.374   4.513 -0.1518  0.4073 -1.1569
  799MOL0     C10190   3.220   6.884   4.864 -0.4017 -0.0265 -0.3127
  799MOL0     C10191   3.117   6.787   4.867 -0.4393  0.9437  0.1132
  799MOL0     C10192   3.083   6.729   4.732  0.2391  0.0594 -0.3157
  799MOL0     H10193   2.731   6.674   5.216  0.0365  0.3502  0.7349
  799MOL0     H10194   2.527   6.555   5.253 -1.5350 -1.9927 -3.0460
  799MOL0     H10195   2.376   6.385   5.357 -1.7102 -0.3476  0.0289
  799MOL0     H10196   2.324   6.223   5.328 -0.2701  1.8933  4.4700
  799MOL0     H10197   2.214   6.354   5.154  0.1786  0.0273 -0.4995
  799MOL0     H10198   2.345   6.452   5.117  0.9028 -0.5896  0.3913
  799MOL0     H10199   2.467   6.295   5.025  2.5323 -0.8612  5.2348
  799MOL0     H10200   2.378   6.156   5.086  3.8873  1.3695 -0.7678
  799MOL0     H10201   2.170   6.214   4.963  0.7713 -0.0031 -0.7273
  799MOL0     H10202   2.259   6.337   4.869 -2.0824  0.4395 -0.9386
  799MOL0     H10203   2.233   6.115   4.748  0.6975 -1.2039 -1.3064
  799MOL0     H10204   2.329   6.039   4.883  0.5531 -0.8338 -2.1612
  799MOL0     H10205   2.434   6.255   4.698  2.9386  1.6563  1.4351
  799MOL0     H10206   2.527   6.179   4.824 -1.0596 -0.3650  1.6891
  799MOL0     H10207   2.406   6.054   4.572 -3.0995  0.1045  2.8900
  799MOL0     H10208   2.451   5.958   4.716 -0.2308  1.6825  1.9202
  799MOL0     H10209   2.643   6.159   4.613  1.7974  0.2125  3.5107
  799MOL0     H10210   2.685   6.023   4.709  1.7599 -0.1949 -0.7394
  799MOL0     H10211   2.653   6.130   4.354 -0.3397 -0.0325 -2.9882
  799MOL0     H10212   2.711   6.012   4.099 -0.5919  0.6019  0.9555
  799MOL0     H10213   2.724   5.839   4.113  2.4922 -1.4420  1.1000
  799MOL0     H10214   2.924   6.057   4.185  1.6775  0.5900 -6.3429
  799MOL0     H10215   2.943   5.877   4.236  0.8573  1.1618  1.3595
  799MOL0     H10216   3.057   5.976   4.032  0.1857  0.9288 -0.3114
  799MOL0     H10217   2.959   5.844   3.985  1.5447  0.3927 -0.3592
  799MOL0     H10218   2.982   6.065   3.845  0.9964  2.9513  2.2373
  799MOL0     H10219   2.817   6.009   3.871 -0.9386  0.2360 -0.2411
  799MOL0     H10220   3.123   6.161   4.054 -1.9029 -1.0028 -1.7223
  799MOL0     H10221   3.329   6.242   4.087  1.3657  0.2211 -0.8206
  799MOL0     H10222   3.361   6.415   4.114 -1.3422  0.3886 -0.0056
  799MOL0     H10223   3.374   6.341   3.950 -2.8935 -3.8992 -2.6608
  799MOL0     H10224   3.237   6.892   3.961  0.3220 -0.0800  1.1700
  799MOL0     H10225   3.382   7.076   3.951 -0.7425  2.3980  3.6434
  799MOL0     H10226   3.678   7.162   4.208  3.1734  2.2175  0.6792
  799MOL0     H10227   3.793   7.049   4.144  0.4751  0.7141  2.4215
  799MOL0     H10228   3.889   7.267   4.137 -1.4627 -3.2156  2.0022
  799MOL0     H10229   3.861   7.233   3.972  3.1667 -2.4297  2.1061
  799MOL0     H10230   3.680   7.400   4.155 -2.6057 -1.6006 -0.9123
  799MOL0     H10231   3.630   7.378   3.987 -0.6423 -0.6297  1.0391
  799MOL0     H10232   3.871   7.472   3.931  2.4486  1.1121  2.0191
  799MOL0     H10233   3.860   7.526   4.101 -1.1465  1.9671  1.0152
  799MOL0     H10234   3.675   7.612   3.865 -0.2054  4.0153 -0.7842
  799MOL0     H10235   3.626   7.635   4.023 -1.7363 -1.5447 -1.4194
  799MOL0     H10236   3.837   7.786   4.049  1.7543 -0.7735  0.2125
  799MOL0     H10237   3.748   7.842   3.917 -0.5647  0.3767  0.7846
  799MOL0     H10238   3.878   7.698   3.773 -1.6045  2.4514  0.0847
  799MOL0     H10239   3.993   7.674   3.918  0.4689  0.7007 -1.2101
  799MOL0     H10240   3.912   7.912   3.746  1.5199  0.9074 -0.5305
  799MOL0     H10241   4.071   7.847   3.747  0.7220 -0.5156  0.3304
  799MOL0     H10242   3.679   6.857   4.180 -0.4242  1.4283  1.2964
  799MOL0     H10243   3.534   6.672   4.193 -2.6059 -1.5689 -1.8473
  799MOL0     H10244   2.984   6.589   3.853  1.1510 -0.8588 -0.6199
  799MOL0     H10245   2.815   6.413   3.903 -0.9212  0.2151  2.1747
  799MOL0     H10246   2.769   6.183   5.206  0.8290 -0.1291 -0.8301
  799MOL0     H10247   2.953   6.330   5.148  0.0030  0.5605  2.2217
  799MOL0     H10248   3.107   6.742   5.215  3.4262  1.5313  1.8607
  799MOL0     H10249   3.301   6.897   5.187 -1.0275  2.1684  0.2960
  799MOL0     H10250   3.459   7.001   4.790 -1.3651 -1.1156  0.8706
  799MOL0     H10251   3.327   7.114   4.822 -0.6307 -0.1218  0.8303
  799MOL0     H10252   3.613   7.149   4.952  1.3185  3.6625 -0.8204
  799MOL0     H10253   3.489   7.269   4.933  2.2441  1.3486  0.2137
  799MOL0     H10254   3.602   7.115   4.685  1.9786  1.1583 -1.5955
  799MOL0     H10255   3.502   7.255   4.684  0.4859 -0.3271  0.0350
  799MOL0     H10256   3.777   7.244   4.803 -0.2636  0.5107  2.7416
  799MOL0     H10257   3.681   7.385   4.810  1.3692  1.0193 -0.5915
  799MOL0     H10258   3.863   7.415   4.438 -0.4314 -2.6948 -3.2545
  799MOL0     H10259   3.253   6.915   4.766 -2.4098  2.1311 -0.3824
  799MOL0     H10260   3.164   6.664   4.698  0.5965 -0.5545  1.5905
  799MOL0     H10261   2.992   6.669   4.736  0.0598  0.2661 -1.2121
  799MOL0     H10262   3.063   6.810   4.661  2.5036 -0.1121 -1.2182
  800MOL0     O10263   2.317   9.700   0.512 -0.0771 -0.0710 -0.8374
  800MOL0     C10264   2.261   9.661   0.408  0.0116  0.1396 -0.2125
  800MOL0     O10265   2.284   9.534   0.370 -0.5963 -0.4282  0.1452
  800MOL0     C10266   2.360   9.436   0.440  0.4856 -0.9965  0.3240
  800MOL0     C10267   2.413   9.340   0.357 -0.2776 -0.9226 -0.3145
  800MOL0     C10268   2.494   9.229   0.400  0.3814 -0.3836 -0.5666
  800MOL0     C10269   2.524   9.225   0.538  0.5471 -0.2557  0.8547
  800MOL0     O10270   2.621   9.147   0.598  0.9550  0.8430  0.0111
  800MOL0     C10271   2.737   9.146   0.517 -0.2261  0.6359 -0.1415
  800MOL0     C10272   2.859   9.115   0.592 -0.0741 -0.2402 -0.5214
  800MOL0     C10273   2.921   9.256   0.647 -0.8035 -0.0807  1.1829
  800MOL0     C10274   2.856   9.329   0.758 -0.6447  0.2829 -0.2942
  800MOL0     C10275   2.936   9.465   0.782 -0.2380  0.5239  0.3211
  800MOL0     C10276   2.865   9.532   0.905  0.3011  0.6273  0.0203
  800MOL0     C10277   2.724   9.601   0.878 -0.1388  0.0927 -0.0214
  800MOL0     C10278   2.663   9.652   1.008  0.2079 -0.3775  0.5561
  800MOL0     N10279   2.566   9.550   1.049 -0.5996 -0.1037 -0.3141
  800MOL0     C10280   2.604   9.422   1.078  0.3375  0.5455 -0.2639
  800MOL0     C10281   2.493   9.348   1.083  0.4273 -0.3845  0.1551
  800MOL0     C10282   2.502   9.203   1.114  0.0786 -0.6383  0.0091
  800MOL0     C10283   2.573   9.126   1.003 -0.7456 -0.9646  0.0788
  800MOL0     C10284   2.533   8.979   0.980  0.3303 -1.3972 -0.3496
  800MOL0     C10285   2.563   8.887   1.088 -0.0364 -0.0589 -0.2872
  800MOL0     O10286   2.708   8.880   1.103  0.1321 -0.2731 -0.2562
  800MOL0     C10287   2.763   8.773   1.045  0.2687 -0.2500 -0.1221
  800MOL0     C10288   2.851   8.807   0.940 -0.8062  1.2904  1.0537
  800MOL0     C10289   2.934   8.703   0.879 -0.3560  0.3897  0.8331
  800MOL0     C10290   3.019   8.749   0.765  0.2927 -0.1423  0.4428
  800MOL0     C10291   2.921   8.564   0.911 -0.6919 -0.9401 -0.7266
  800MOL0     C10292   3.009   8.445   0.863  0.5492  0.3412 -0.4877
  800MOL0     O10293   3.143   8.473   0.853  0.5211 -0.1508  0.7671
  800MOL0     C10294   3.239   8.373   0.872  0.2575  0.3169 -1.1321
  800MOL0     C10295   3.279   8.306   0.767 -0.2508  0.4675  0.0027
  800MOL0     C10296   3.369   8.200   0.778  0.4175  0.4776 -0.5511
  800MOL0     C10297   3.426   8.166   0.897  0.4207  1.0979 -0.4558
  800MOL0     O10298   3.524   8.081   0.902  0.1208 -0.0075  0.2886
  800MOL0     C10299   3.609   8.072   1.017 -1.1539  0.4456 -0.1776
  800MOL0     C10300   3.564   7.950   1.100 -0.4344  0.4573  0.8036
  800MOL0     C10301   3.623   7.952   1.242  0.1821 -0.2999  0.5478
  800MOL0     C10302   3.775   7.940   1.240  0.3306 -0.5308 -0.2697
  800MOL0     C10303   3.841   7.835   1.144  0.4994 -0.3357  0.1171
  800MOL0     C10304   3.821   7.690   1.167  0.6674  0.4652  0.3026
  800MOL0     C10305   3.896   7.652   1.293  0.3624  0.1704  0.3465
  800MOL0     C10306   3.874   7.505   1.320  0.3864  0.1327 -0.3370
  800MOL0    Cl10307   3.709   7.458   1.374  0.1973 -0.1609  0.1848
  800MOL0     C10308   3.372   8.234   1.013 -0.1516 -0.4879 -0.2807
  800MOL0     C10309   3.277   8.330   1.001  0.5436 -0.4897  0.5498
  800MOL0     O10310   2.956   8.335   0.847  0.3017 -0.2355 -0.0167
  800MOL0     C10311   2.815   8.534   0.998  0.8769 -0.2828  0.1924
  800MOL0     C10312   2.737   8.638   1.067 -0.0273  0.8738 -0.0576
  800MOL0     N10313   2.393   9.430   1.053 -0.5174 -0.0543  0.2503
  800MOL0     N10314   2.438   9.550   1.029  0.6865  0.2108  0.1242
  800MOL0     C10315   2.478   9.323   0.621 -0.4780 -1.2969 -0.6611
  800MOL0     C10316   2.398   9.429   0.576  0.4134  0.2455  0.2007
  800MOL0     C10317   2.150   9.731   0.328  0.2760 -0.7090 -0.1892
  800MOL0     C10318   2.091   9.648   0.229  0.2887 -0.1818  0.1208
  800MOL0     C10319   1.978   9.690   0.159 -0.0405  0.4930 -0.1400
  800MOL0     C10320   1.913   9.802   0.205 -0.2121 -0.0080  0.1319
  800MOL0     O10321   1.812   9.850   0.137 -0.4776  0.9261  0.1481
  800MOL0     C10322   1.688   9.773   0.135 -0.3449 -0.2255  0.8843
  800MOL0     C10323   1.637   9.743   0.274 -0.5872  0.2527 -1.1203
  800MOL0     C10324   1.607   9.879   0.338 -0.7196 -0.6448  0.7628
  800MOL0     C10325   1.544   9.875   0.483  0.4062  0.7058  0.7736
  800MOL0     C10326   1.485  10.013   0.491 -0.3077  0.6376  0.3218
  800MOL0     C10327   1.408  10.103   0.493  1.1322  0.2656 -0.5933
  800MOL0     C10328   1.972   9.885   0.294 -0.3023 -0.1246 -0.0680
  800MOL0     C10329   2.086   9.856   0.368 -0.3504  0.5223 -1.4770
  800MOL0     C10330   2.130   9.946   0.476  0.5408  0.2095 -0.1014
  800MOL0     H10331   2.395   9.342   0.250  0.8678 -1.9042 -0.5498
  800MOL0     H10332   2.533   9.150   0.337 -3.0726 -3.1655  0.4585
  800MOL0     H10333   2.749   9.247   0.479  3.3542  0.0598 -0.9713
  800MOL0     H10334   2.718   9.080   0.432 -1.7758  1.0479 -0.1306
  800MOL0     H10335   2.822   9.058   0.678  0.3105  0.7205  0.3003
  800MOL0     H10336   2.938   9.053   0.548 -0.9526 -0.6223 -1.5965
  800MOL0     H10337   3.016   9.220   0.687 -1.4647 -3.4758  0.0498
  800MOL0     H10338   2.928   9.331   0.568 -1.0559 -1.0121  0.2535
  800MOL0     H10339   2.763   9.362   0.711 -0.9034  2.9840  1.8862
  800MOL0     H10340   2.834   9.268   0.846 -2.2739  0.2052 -0.7208
  800MOL0     H10341   2.928   9.524   0.691  3.5863  0.8279  0.0027
  800MOL0     H10342   3.040   9.439   0.803 -0.6022 -0.5528  0.8964
  800MOL0     H10343   2.871   9.463   0.989 -1.3231  0.7224  0.2508
  800MOL0     H10344   2.918   9.620   0.944  1.4037 -0.3840  0.8407
  800MOL0     H10345   2.652   9.537   0.827 -0.9763  0.6436  0.4558
  800MOL0     H10346   2.734   9.687   0.811 -0.2725 -0.8567 -1.3038
  800MOL0     H10347   2.734   9.680   1.086 -0.1633  0.6918  0.5299
  800MOL0     H10348   2.607   9.745   0.992 -2.1872 -1.7731  0.4604
  800MOL0     H10349   2.704   9.388   1.105 -0.5309 -2.4375 -0.4747
  800MOL0     H10350   2.400   9.166   1.117 -0.9780  1.7989 -1.9031
  800MOL0     H10351   2.560   9.199   1.207  0.4493 -1.2929 -0.2500
  800MOL0     H10352   2.567   9.178   0.908 -0.3247 -0.7706  0.1564
  800MOL0     H10353   2.676   9.129   1.040 -0.8745 -2.1214  0.5730
  800MOL0     H10354   2.427   8.965   0.958  0.2811 -2.2777  0.3990
  800MOL0     H10355   2.584   8.939   0.892  1.0828 -1.7661  0.2391
  800MOL0     H10356   2.512   8.931   1.175 -0.5237  0.4796 -0.8301
  800MOL0     H10357   2.520   8.787   1.083  1.1692 -0.7012  1.2784
  800MOL0     H10358   2.864   8.911   0.913 -3.9162  0.7740 -3.7368
  800MOL0     H10359   3.122   8.720   0.788  0.7812  0.1353 -1.2213
  800MOL0     H10360   3.021   8.858   0.770 -0.4284 -0.1680  1.3972
  800MOL0     H10361   2.979   8.706   0.672  0.5749 -1.0510  0.7336
  800MOL0     H10362   3.258   8.329   0.663  2.0524  1.4754 -0.3155
  800MOL0     H10363   3.406   8.148   0.690 -0.1287  0.8028 -0.9782
  800MOL0     H10364   3.710   8.052   0.978 -0.7743 -2.8212  2.0603
  800MOL0     H10365   3.613   8.164   1.075  1.2397  0.5630 -0.4178
  800MOL0     H10366   3.455   7.947   1.104 -0.4459 -0.1561  0.1190
  800MOL0     H10367   3.593   7.863   1.040  1.8377  2.4061 -1.0967
  800MOL0     H10368   3.580   7.876   1.308 -1.6881  1.1347  1.0816
  800MOL0     H10369   3.586   8.041   1.294 -1.1592 -1.0503  0.9233
  800MOL0     H10370   3.801   7.933   1.346 -2.2253  4.4064  0.9703
  800MOL0     H10371   3.814   8.040   1.222 -1.3047 -0.0543 -1.3608
  800MOL0     H10372   3.810   7.877   1.048 -2.8847  1.9004  1.9712
  800MOL0     H10373   3.949   7.848   1.146  0.5720 -0.9202  0.4787
  800MOL0     H10374   3.871   7.629   1.091  1.3008 -2.2336  2.7366
  800MOL0     H10375   3.716   7.663   1.157  0.2668  2.5498 -2.3330
  800MOL0     H10376   3.871   7.712   1.381 -1.8576 -2.0041  1.3358
  800MOL0     H10377   4.005   7.662   1.292  0.3802  0.4817 -2.3589
  800MOL0     H10378   3.941   7.476   1.402 -0.8992 -1.5615  0.1742
  800MOL0     H10379   3.906   7.460   1.226 -2.6620 -1.9991 -0.4840
  800MOL0     H10380   3.384   8.196   1.114 -1.8090 -1.6111 -0.4635
  800MOL0     H10381   3.231   8.368   1.092  0.4148 -1.4427  0.8932
  800MOL0     H10382   2.780   8.432   1.014  0.9790 -0.6058 -1.4868
  800MOL0     H10383   2.666   8.613   1.145  0.0510 -0.2971 -0.3459
  800MOL0     H10384   2.519   9.331   0.721  2.3830 -2.0197 -1.6844
  800MOL0     H10385   2.373   9.499   0.656  1.1399  1.6045 -0.7126
  800MOL0     H10386   2.138   9.554   0.201  0.3296 -0.9621  2.5506
  800MOL0     H10387   1.937   9.617   0.091 -1.2374 -1.1921  2.2392
  800MOL0     H10388   1.616   9.831   0.076  0.7274 -0.3391 -0.5862
  800MOL0     H10389   1.711   9.675   0.091 -0.2340  0.3900 -0.4879
  800MOL0     H10390   1.716   9.689   0.327  1.4639  2.0006 -2.2137
  800MOL0     H10391   1.549   9.683   0.251  0.4329 -1.2357 -1.3252
  800MOL0     H10392   1.709   9.914   0.357  0.3068 -3.7319  1.5235
  800MOL0     H10393   1.548   9.936   0.265  0.4283  0.8599  0.9374
  800MOL0     H10394   1.621   9.846   0.555  1.7418  1.0680 -0.4826
  800MOL0     H10395   1.469   9.796   0.498 -0.4695  1.2196 -0.6569
  800MOL0     H10396   1.330  10.175   0.497  2.5408  1.8150  0.1437
  800MOL0     H10397   1.923   9.978   0.322  0.8370  0.8212 -1.0863
  800MOL0     H10398   2.079  10.043   0.470  0.8284  0.7858  3.9522
  800MOL0     H10399   2.083   9.895   0.560  1.4782  2.0829  1.6598
  800MOL0     H10400   2.239   9.944   0.479  0.7564  3.7150  3.0420
  801MOL0     O10401   0.508   2.124   3.156 -0.1439 -0.2303 -1.0116
  801MOL0     C10402   0.491   2.018   3.096 -1.0244 -0.7736 -0.3805
  801MOL0     O10403   0.374   1.987   3.033 -1.0674  0.0276 -0.6052
  801MOL0     C10404   0.278   2.086   3.019  0.2955  0.3982  0.0938
  801MOL0     C10405   0.248   2.112   2.886  0.4589  0.2099  0.0336
  801MOL0     C10406   0.135   2.191   2.853 -0.3378  1.1263 -0.4567
  801MOL0     C10407   0.054   2.256   2.948 -0.0239 -0.0901  0.2538
  801MOL0     O10408  -0.057   2.326   2.915  0.0187  0.3475  1.0149
  801MOL0     C10409  -0.024   2.439   2.831 -0.0868  0.1755  0.1656
  801MOL0     C10410  -0.104   2.559   2.882 -0.1504  0.4742 -1.4225
  801MOL0     C10411  -0.248   2.518   2.897  0.2487 -0.9191  0.3849
  801MOL0     C10412  -0.339   2.641   2.876 -0.5137  0.8295 -0.0232
  801MOL0     C10413  -0.468   2.641   2.953  0.1335 -0.5776 -0.8250
  801MOL0     C10414  -0.565   2.544   2.871  0.4202  0.1723 -0.4489
  801MOL0     C10415  -0.711   2.548   2.930  0.3233  0.1826  0.1463
  801MOL0     C10416  -0.743   2.425   3.029 -0.4789 -0.1604 -0.1933
  801MOL0     N10417  -0.790   2.303   2.978 -0.4572  0.5715 -0.1672
  801MOL0     C10418  -0.717   2.199   2.923 -0.0574 -1.4228 -0.0793
  801MOL0     C10419  -0.818   2.127   2.870  0.2189  0.1018 -0.1710
  801MOL0     C10420  -0.812   1.991   2.818  0.3372  0.4759  0.7516
  801MOL0     C10421  -0.696   1.962   2.726 -0.1731  0.6680 -0.4689
  801MOL0     C10422  -0.647   1.819   2.719 -0.2266 -0.8988 -0.1441
  801MOL0     C10423  -0.571   1.785   2.846  0.0421  0.6564  0.5979
  801MOL0     O10424  -0.642   1.769   2.975  0.7824  0.6007  0.0649
  801MOL0     C10425  -0.570   1.742   3.083 -0.4098 -0.4349  0.2849
  801MOL0     C10426  -0.636   1.669   3.181 -0.4796 -0.3171  0.3911
  801MOL0     C10427  -0.587   1.648   3.309  0.5628  0.2981  1.0664
  801MOL0     C10428  -0.693   1.583   3.404 -0.8581  0.2065 -0.0963
  801MOL0     C10429  -0.454   1.691   3.332 -0.2635 -0.6329  0.5787
  801MOL0     C10430  -0.386   1.675   3.453  0.3035 -0.2389  0.1445
  801MOL0     O10431  -0.241   1.665   3.438 -0.5115 -1.1610 -0.9589
  801MOL0     C10432  -0.157   1.614   3.534  0.5257  0.2060  0.3977
  801MOL0     C10433  -0.105   1.485   3.521 -0.4170  0.0732  0.4935
  801MOL0     C10434  -0.029   1.442   3.619 -0.4697 -0.5461 -0.2168
  801MOL0     C10435  -0.003   1.506   3.739 -0.0960  0.4845  0.4513
  801MOL0     O10436   0.084   1.467   3.837  0.1820 -0.6301 -1.0944
  801MOL0     C10437   0.104   1.331   3.875 -0.1552  0.3556  0.2755
  801MOL0     C10438   0.232   1.314   3.973  1.1807 -0.0493 -0.0742
  801MOL0     C10439   0.269   1.164   3.972 -0.0985 -0.5110  0.3981
  801MOL0     C10440   0.274   1.121   4.122  0.0811 -0.3902 -0.2040
  801MOL0     C10441   0.310   0.974   4.146  0.0749  0.2883  1.0352
  801MOL0     C10442   0.462   0.952   4.147 -1.3854 -0.4290  0.1420
  801MOL0     C10443   0.509   0.808   4.163  0.7653  0.5041  0.1782
  801MOL0     C10444   0.496   0.719   4.046  0.7440 -0.1505 -0.4359
  801MOL0    Cl10445   0.596   0.564   4.054 -0.0889 -0.0146  0.1670
  801MOL0     C10446  -0.052   1.630   3.760  0.5787 -1.0982  0.7261
  801MOL0     C10447  -0.135   1.690   3.655 -0.0541 -0.2829  0.2851
  801MOL0     O10448  -0.448   1.667   3.558 -0.1978  0.5491 -0.3098
  801MOL0     C10449  -0.381   1.758   3.230  0.0929 -0.2956  0.1543
  801MOL0     C10450  -0.440   1.780   3.102  1.2004  0.0889 -0.8799
  801MOL0     N10451  -0.943   2.194   2.885 -0.3604  0.2298 -0.5428
  801MOL0     N10452  -0.920   2.300   2.956  0.0255  0.3117  1.4972
  801MOL0     C10453   0.101   2.243   3.086  0.3141  1.0606  0.3515
  801MOL0     C10454   0.204   2.157   3.118  0.3693 -0.3679  0.2812
  801MOL0     C10455   0.614   1.935   3.062  0.6641 -0.6588  0.7015
  801MOL0     C10456   0.731   2.004   3.056  0.2850  0.2630  0.4528
  801MOL0     C10457   0.851   1.933   3.028 -0.3197 -0.2607  0.1562
  801MOL0     C10458   0.847   1.796   2.997  0.8034  0.1946  0.2488
  801MOL0     O10459   0.949   1.717   2.952  0.4233 -0.1795  0.2856
  801MOL0     C10460   1.077   1.767   2.933 -0.5797  0.0594 -0.0768
  801MOL0     C10461   1.166   1.688   2.838 -0.5084  1.3814  0.3779
  801MOL0     C10462   1.311   1.742   2.852  0.2654 -0.8541  0.7668
  801MOL0     C10463   1.393   1.672   2.960 -0.5825 -0.2866  0.2258
  801MOL0     C10464   1.426   1.536   2.910  0.4310 -0.3131 -0.4248
  801MOL0     C10465   1.418   1.418   2.868  0.5235 -0.4995  0.2302
  801MOL0     C10466   0.723   1.729   3.007 -0.2377 -0.4896  1.3402
  801MOL0     C10467   0.607   1.792   3.041 -0.6337 -0.5622  0.9537
  801MOL0     C10468   0.477   1.714   3.043 -0.6235  0.3311  0.4662
  801MOL0     H10469   0.315   2.067   2.814  3.0014  2.0942  1.0551
  801MOL0     H10470   0.117   2.184   2.746  0.0186  0.2690 -0.4685
  801MOL0     H10471  -0.054   2.422   2.728  0.0730 -0.2965  0.1939
  801MOL0     H10472   0.081   2.468   2.835 -0.3177  0.9554  2.6271
  801MOL0     H10473  -0.067   2.592   2.979  0.3705  0.1901 -1.5209
  801MOL0     H10474  -0.095   2.646   2.816 -2.0445 -0.9048 -3.6627
  801MOL0     H10475  -0.269   2.452   2.813 -2.2970  0.2348  0.0168
  801MOL0     H10476  -0.266   2.468   2.993 -2.7380  0.8594  0.8959
  801MOL0     H10477  -0.283   2.731   2.900  3.2345 -0.6409 -2.4043
  801MOL0     H10478  -0.363   2.651   2.770 -0.8730  1.5573  0.1242
  801MOL0     H10479  -0.513   2.741   2.942  1.3154  0.4594  2.5333
  801MOL0     H10480  -0.460   2.618   3.059  4.8711 -0.0124 -0.8540
  801MOL0     H10481  -0.564   2.580   2.767  4.0955  1.0428 -0.2441
  801MOL0     H10482  -0.528   2.441   2.880 -1.2565 -0.3480  0.9202
  801MOL0     H10483  -0.776   2.533   2.843 -2.7724  0.5057  2.2639
  801MOL0     H10484  -0.741   2.644   2.973  0.0942  0.5950 -0.9071
  801MOL0     H10485  -0.652   2.414   3.089 -3.0821 -1.5022  3.9942
  801MOL0     H10486  -0.817   2.460   3.102  1.3706  1.0968  1.1823
  801MOL0     H10487  -0.609   2.192   2.909  0.4960 -1.4481  3.3357
  801MOL0     H10488  -0.900   1.966   2.757  1.6893  0.2539 -1.1864
  801MOL0     H10489  -0.808   1.925   2.905  0.7850  2.0222  1.9610
  801MOL0     H10490  -0.742   1.982   2.628  1.2387 -1.1045 -1.5487
  801MOL0     H10491  -0.613   2.030   2.743 -0.0376  0.3557  0.1312
  801MOL0     H10492  -0.734   1.753   2.717 -2.1636  1.4591  1.0712
  801MOL0     H10493  -0.580   1.803   2.634 -1.9427  1.6251 -2.1524
  801MOL0     H10494  -0.516   1.692   2.828 -0.1240  0.9024 -1.5311
  801MOL0     H10495  -0.481   1.847   2.850  0.0309  0.8906 -1.4328
  801MOL0     H10496  -0.737   1.648   3.148 -0.9647 -1.5266  2.4665
  801MOL0     H10497  -0.708   1.475   3.393 -0.6921  0.4266 -3.5911
  801MOL0     H10498  -0.788   1.632   3.378 -0.8077 -0.9042 -2.6584
  801MOL0     H10499  -0.672   1.606   3.508 -0.7530 -0.5259  0.0493
  801MOL0     H10500  -0.117   1.427   3.430 -2.6563  0.7526  0.3078
  801MOL0     H10501   0.009   1.342   3.597 -0.5415 -1.1786  2.1871
  801MOL0     H10502   0.014   1.305   3.932 -2.0137  1.2245 -2.1105
  801MOL0     H10503   0.119   1.276   3.782 -0.5237  2.3711 -1.0508
  801MOL0     H10504   0.317   1.369   3.932  0.8211  0.4607 -0.1380
  801MOL0     H10505   0.191   1.346   4.070  0.1129 -0.1710 -0.4712
  801MOL0     H10506   0.366   1.139   3.929 -1.0778 -1.5719 -1.2776
  801MOL0     H10507   0.194   1.101   3.922 -0.4587 -0.4028  0.7953
  801MOL0     H10508   0.171   1.138   4.155  0.3000  0.5917  0.0060
  801MOL0     H10509   0.325   1.194   4.186 -1.0521 -0.3452  0.6908
  801MOL0     H10510   0.253   0.944   4.235 -2.6884  2.5969  0.1763
  801MOL0     H10511   0.263   0.915   4.067  2.9324  1.2023 -1.5398
  801MOL0     H10512   0.504   1.010   4.230 -0.2987 -2.1254  0.8255
  801MOL0     H10513   0.503   0.996   4.055 -0.0683 -0.9832  0.4369
  801MOL0     H10514   0.447   0.761   4.240  1.2949  0.1836  0.4161
  801MOL0     H10515   0.615   0.815   4.188  1.2000  1.8103 -1.8302
  801MOL0     H10516   0.540   0.769   3.959  0.6958 -0.3352 -0.5667
  801MOL0     H10517   0.388   0.706   4.031  0.2179  4.2106 -2.0819
  801MOL0     H10518  -0.029   1.673   3.857 -1.6580  0.9986  0.4146
  801MOL0     H10519  -0.179   1.788   3.668  1.4600  0.6234 -1.0577
  801MOL0     H10520  -0.282   1.803   3.234 -0.8044  2.3907 -3.2244
  801MOL0     H10521  -0.364   1.822   3.037  4.1039 -1.2389  1.4300
  801MOL0     H10522   0.070   2.301   3.172  1.1906  1.7644  0.2140
  801MOL0     H10523   0.246   2.156   3.218 -0.8808 -2.4495  0.8433
  801MOL0     H10524   0.731   2.112   3.067 -1.6470  0.0841  3.5985
  801MOL0     H10525   0.937   1.996   3.008  1.3434 -1.9644  1.6272
  801MOL0     H10526   1.079   1.862   2.879 -0.0631 -1.2233 -2.4437
  801MOL0     H10527   1.114   1.807   3.029 -2.6347 -1.5866  1.4854
  801MOL0     H10528   1.142   1.710   2.734  1.4257 -0.5081 -0.5631
  801MOL0     H10529   1.153   1.580   2.849  2.5442  1.0671  2.2209
  801MOL0     H10530   1.354   1.718   2.755  0.3699 -0.2486  0.6572
  801MOL0     H10531   1.307   1.850   2.872 -0.4759 -0.6895 -0.2042
  801MOL0     H10532   1.329   1.657   3.047  0.9919  0.0347  1.4655
  801MOL0     H10533   1.476   1.739   2.983 -1.9072  1.8815 -0.9967
  801MOL0     H10534   1.390   1.326   2.821  1.4654  0.0933 -1.6049
  801MOL0     H10535   0.728   1.623   2.987 -1.4676 -0.6453  1.7736
  801MOL0     H10536   0.431   1.738   3.139 -0.2655 -1.4104  1.1041
  801MOL0     H10537   0.403   1.746   2.968  0.3028  1.4111 -0.0099
  801MOL0     H10538   0.483   1.605   3.029 -4.1574  0.1232 -0.5028
  802MOL0     O10539   8.612   0.340   2.653 -0.4000  0.0192  0.0337
  802MOL0     C10540   8.710   0.398   2.602 -0.8908 -0.8739 -0.1572
  802MOL0     O10541   8.769   0.361   2.485  0.4150 -0.6169 -0.2185
  802MOL0     C10542   8.703   0.247   2.425 -0.4441 -1.1944 -0.6356
  802MOL0     C10543   8.695   0.123   2.490  0.8774 -0.4631 -0.1833
  802MOL0     C10544   8.628   0.013   2.430  0.0863  0.3912 -0.0356
  802MOL0     C10545   8.580   0.014   2.297 -0.4642 -0.2390  0.5763
  802MOL0     O10546   8.529  -0.090   2.234 -0.1529  0.1425  0.4964
  802MOL0     C10547   8.434  -0.182   2.302 -0.6116 -0.9781  1.3423
  802MOL0     C10548   8.342  -0.246   2.199  0.3222 -0.1098  0.7498
  802MOL0     C10549   8.409  -0.380   2.189  0.0747 -0.3975  0.0976
  802MOL0     C10550   8.320  -0.467   2.101 -0.5137  0.3723 -1.0894
  802MOL0     C10551   8.372  -0.620   2.082 -0.1008 -0.6495 -0.0232
  802MOL0     C10552   8.340  -0.677   1.940 -0.3644  0.8577 -0.1091
  802MOL0     C10553   8.355  -0.832   1.939 -0.7354 -0.8974 -0.3253
  802MOL0     C10554   8.272  -0.909   2.039 -0.4552 -0.1497 -0.0625
  802MOL0     N10555   8.284  -1.054   2.006 -0.2170 -0.2179 -0.4363
  802MOL0     C10556   8.180  -1.113   1.932  0.2067  0.0360 -1.0092
  802MOL0     C10557   8.215  -1.246   1.909  0.2882 -0.5409 -0.1389
  802MOL0     C10558   8.132  -1.360   1.874  0.1025  1.4643  0.1365
  802MOL0     C10559   8.156  -1.401   1.729 -0.5614 -0.0240 -1.0465
  802MOL0     C10560   8.145  -1.288   1.623 -0.2327 -0.4438  0.6470
  802MOL0     C10561   8.173  -1.350   1.479 -0.4954 -0.2531 -1.3850
  802MOL0     O10562   8.166  -1.244   1.387  0.1850 -0.0882  1.0006
  802MOL0     C10563   8.189  -1.264   1.254  0.1438  0.2363  0.4955
  802MOL0     C10564   8.162  -1.164   1.163  0.1286 -0.2330  0.1746
  802MOL0     C10565   8.172  -1.184   1.023  0.9662 -0.0101 -0.2336
  802MOL0     C10566   8.147  -1.063   0.933 -0.1984 -0.1990 -0.2690
  802MOL0     C10567   8.212  -1.311   0.971  0.8975  0.4165  0.3760
  802MOL0     C10568   8.212  -1.338   0.823 -0.4317  0.5411 -0.7889
  802MOL0     O10569   8.287  -1.448   0.771  0.8070 -0.0211  0.1325
  802MOL0     C10570   8.257  -1.480   0.647 -0.5111  0.5201 -0.1901
  802MOL0     C10571   8.296  -1.402   0.537 -0.5428  0.2299  0.0995
  802MOL0     C10572   8.269  -1.440   0.406 -0.4034  0.1598 -0.2857
  802MOL0     C10573   8.186  -1.552   0.387  0.1268 -0.7635  1.4997
  802MOL0     O10574   8.168  -1.570   0.244  0.0805 -0.0588 -0.0763
  802MOL0     C10575   8.073  -1.662   0.193 -1.1046  0.9276 -0.4883
  802MOL0     C10576   7.922  -1.627   0.220 -1.5814  0.3434 -0.3922
  802MOL0     C10577   7.825  -1.732   0.170  0.2462 -1.0874  0.2570
  802MOL0     C10578   7.813  -1.731   0.021 -0.2990 -1.7273  0.3527
  802MOL0     C10579   7.758  -1.859  -0.040  0.6211 -0.0414 -0.7517
  802MOL0     C10580   7.609  -1.889  -0.020  0.1722 -0.1612 -0.7352
  802MOL0     C10581   7.508  -1.782  -0.078 -0.5084  0.7044 -0.0258
  802MOL0     C10582   7.368  -1.830  -0.043  0.8033 -0.8669 -0.5660
  802MOL0    Cl10583   7.265  -1.726  -0.129 -0.4513  0.0203  0.0490
  802MOL0     C10584   8.136  -1.628   0.489  1.0048 -0.6165 -0.4528
  802MOL0     C10585   8.177  -1.595   0.621  1.0631 -0.1966 -0.4586
  802MOL0     O10586   8.137  -1.273   0.752  0.5568  0.4912  0.0567
  802MOL0     C10587   8.245  -1.408   1.064  0.1777  0.1391  0.5732
  802MOL0     C10588   8.240  -1.384   1.195 -0.0167  0.1671  0.3032
  802MOL0     N10589   8.339  -1.261   1.956  0.2375  1.0328  0.6706
  802MOL0     N10590   8.384  -1.151   2.010  0.0646  0.6283 -1.0601
  802MOL0     C10591   8.605   0.134   2.231 -0.2230 -1.1157 -0.8346
  802MOL0     C10592   8.659   0.249   2.294 -0.1381  0.4918  0.5180
  802MOL0     C10593   8.776   0.504   2.674  0.4387  0.2536 -0.1712
  802MOL0     C10594   8.912   0.540   2.658  0.4730  0.9326  0.4355
  802MOL0     C10595   8.970   0.642   2.725  0.0395 -0.2655 -0.6119
  802MOL0     C10596   8.904   0.702   2.834 -0.2187 -0.4278  0.3739
  802MOL0     O10597   8.956   0.800   2.917  0.5532 -0.8662 -0.4473
  802MOL0     C10598   9.099   0.804   2.904  0.1591  0.6862 -0.6525
  802MOL0     C10599   9.160   0.847   3.044 -0.7662 -0.9860  0.4171
  802MOL0     C10600   9.152   0.741   3.160 -0.7585 -0.4956  0.3276
  802MOL0     C10601   9.260   0.744   3.272 -0.6558  0.0329 -1.0620
  802MOL0     C10602   9.272   0.875   3.346  0.0160  1.0939  0.4118
  802MOL0     C10603   9.279   0.987   3.393  0.8849  0.4765  0.9683
  802MOL0     C10604   8.771   0.676   2.850  0.6483 -0.0257 -0.2871
  802MOL0     C10605   8.705   0.581   2.767  0.8953  1.2520 -0.8548
  802MOL0     C10606   8.553   0.592   2.782  0.2026  0.5826 -0.5125
  802MOL0     H10607   8.738   0.106   2.588 -0.3110  0.7228  0.5822
  802MOL0     H10608   8.621  -0.080   2.487  2.0834  0.7093  0.7932
  802MOL0     H10609   8.370  -0.113   2.357  1.0958  2.3535 -0.5141
  802MOL0     H10610   8.491  -0.254   2.361 -1.2674 -0.4625  2.6449
  802MOL0     H10611   8.241  -0.256   2.241  0.4709  1.1299  1.4623
  802MOL0     H10612   8.345  -0.185   2.108 -0.5679 -0.4741  0.4594
  802MOL0     H10613   8.508  -0.365   2.145 -0.6530 -1.6267 -2.1057
  802MOL0     H10614   8.405  -0.434   2.285  1.0000 -0.8166 -0.0946
  802MOL0     H10615   8.222  -0.474   2.149  0.4092  0.4336  0.8844
  802MOL0     H10616   8.316  -0.424   2.000  0.1035 -0.4929 -1.4969
  802MOL0     H10617   8.324  -0.671   2.166  1.8327  0.1978  1.6952
  802MOL0     H10618   8.480  -0.635   2.079 -0.1819 -1.0855 -2.1857
  802MOL0     H10619   8.238  -0.659   1.906 -0.0263  2.3504 -0.4079
  802MOL0     H10620   8.402  -0.631   1.862  0.5365 -1.5893 -0.9322
  802MOL0     H10621   8.460  -0.851   1.961 -0.9601 -1.2727  0.4715
  802MOL0     H10622   8.338  -0.855   1.833  0.5544 -2.7624 -0.1747
  802MOL0     H10623   8.315  -0.901   2.140  1.2158 -1.7985 -0.5699
  802MOL0     H10624   8.166  -0.885   2.042 -0.7028 -1.0079 -1.3113
  802MOL0     H10625   8.085  -1.067   1.908  0.8646  0.4931 -2.9945
  802MOL0     H10626   8.028  -1.330   1.893 -0.2785  2.3094 -2.8174
  802MOL0     H10627   8.154  -1.437   1.948 -0.2771  0.8787 -0.3475
  802MOL0     H10628   8.252  -1.454   1.737  0.4825  1.4499 -2.9551
  802MOL0     H10629   8.079  -1.474   1.704 -0.7765 -0.3424  0.4264
  802MOL0     H10630   8.046  -1.242   1.620 -0.5253 -0.7455  3.2034
  802MOL0     H10631   8.219  -1.212   1.651 -2.0354  1.0853  1.5306
  802MOL0     H10632   8.275  -1.387   1.476 -0.3963 -0.0355 -4.7520
  802MOL0     H10633   8.101  -1.431   1.462 -2.3643  0.9924  0.1349
  802MOL0     H10634   8.134  -1.062   1.188  3.0223  1.1359 -1.6951
  802MOL0     H10635   8.097  -0.987   0.994 -0.7876 -0.1444 -0.8092
  802MOL0     H10636   8.069  -1.083   0.859 -2.2214  2.3198  0.9939
  802MOL0     H10637   8.239  -1.018   0.895 -0.0740 -0.3023 -0.0920
  802MOL0     H10638   8.371  -1.324   0.550  0.0494 -0.6564  2.5154
  802MOL0     H10639   8.314  -1.380   0.328 -0.2229  1.7672  0.9886
  802MOL0     H10640   8.096  -1.665   0.086 -0.3575  1.9889 -0.3701
  802MOL0     H10641   8.096  -1.757   0.243 -2.3947  1.3542  0.9899
  802MOL0     H10642   7.903  -1.612   0.327  2.2542  0.6807  0.3924
  802MOL0     H10643   7.904  -1.529   0.177 -3.4563  1.3346  2.3345
  802MOL0     H10644   7.723  -1.719   0.209  1.2390  1.3835  2.3206
  802MOL0     H10645   7.867  -1.828   0.203  0.6400 -0.4546  1.6615
  802MOL0     H10646   7.911  -1.726  -0.027 -0.7058 -0.4947 -0.3993
  802MOL0     H10647   7.761  -1.643  -0.019 -0.2205  0.4393  4.4795
  802MOL0     H10648   7.790  -1.861  -0.144  1.4814 -1.7103 -0.4856
  802MOL0     H10649   7.809  -1.945   0.004 -2.3533 -1.9615 -0.7877
  802MOL0     H10650   7.592  -1.890   0.088  0.0229 -2.0389 -0.7398
  802MOL0     H10651   7.585  -1.987  -0.063 -1.2049 -0.0527 -0.2581
  802MOL0     H10652   7.513  -1.780  -0.188 -3.5281 -2.8746 -0.3985
  802MOL0     H10653   7.532  -1.690  -0.024  3.6924 -1.8512  3.0923
  802MOL0     H10654   7.357  -1.828   0.066 -0.4467  0.2290 -0.6754
  802MOL0     H10655   7.344  -1.931  -0.078 -1.3855  0.6835 -4.0862
  802MOL0     H10656   8.070  -1.713   0.478  2.8596 -2.5109  1.7646
  802MOL0     H10657   8.132  -1.649   0.703 -1.8378  0.6438 -1.3698
  802MOL0     H10658   8.278  -1.501   1.020  0.9472  1.8305 -2.7319
  802MOL0     H10659   8.258  -1.472   1.257  2.1717 -1.4801 -2.4612
  802MOL0     H10660   8.568   0.137   2.129  1.5053  0.2279 -1.4664
  802MOL0     H10661   8.676   0.340   2.238 -2.2668  1.4829  1.3927
  802MOL0     H10662   8.979   0.487   2.591  2.0446  0.1511  2.4949
  802MOL0     H10663   9.074   0.650   2.693 -0.3757 -3.6097 -3.4724
  802MOL0     H10664   9.150   0.709   2.888  2.9908  1.7588  1.3108
  802MOL0     H10665   9.130   0.877   2.828  0.2488  0.3169 -0.9787
  802MOL0     H10666   9.147   0.954   3.066  2.7599 -0.0665 -1.3202
  802MOL0     H10667   9.268   0.846   3.029 -0.8470  0.4116 -0.4482
  802MOL0     H10668   9.055   0.758   3.209 -1.1094  0.1601 -0.5683
  802MOL0     H10669   9.148   0.640   3.118  0.2241  0.0418 -1.1199
  802MOL0     H10670   9.361   0.713   3.241  0.7188  0.6807  2.3810
  802MOL0     H10671   9.223   0.671   3.345 -0.4269  1.8657  0.9655
  802MOL0     H10672   9.282   1.089   3.427  1.1140  0.9423 -0.4194
  802MOL0     H10673   8.724   0.741   2.923 -2.5071 -1.9739 -0.3641
  802MOL0     H10674   8.507   0.580   2.684  2.4955 -0.9297 -1.4709
  802MOL0     H10675   8.519   0.526   2.862 -2.3922  3.1979  0.7450
  802MOL0     H10676   8.519   0.691   2.814  0.6489  0.3793  0.6299
  803MOL0     O10677  11.021  10.995   2.957  0.0122  0.6723 -0.7227
  803MOL0     C10678  11.135  11.030   2.976 -0.8402  0.3081 -0.6035
  803MOL0     O10679  11.178  11.078   3.098  0.2778  0.3089 -0.0830
  803MOL0     C10680  11.091  11.111   3.203  0.4170  0.3632 -0.8611
  803MOL0     C10681  10.986  11.020   3.250  0.5069  0.0719 -1.2587
  803MOL0     C10682  10.882  11.078   3.327 -0.2795  0.0665  0.3599
  803MOL0     C10683  10.879  11.212   3.366  0.5254  0.1763  0.0400
  803MOL0     O10684  10.777  11.275   3.438  0.5987 -0.5548 -0.3241
  803MOL0     C10685  10.805  11.341   3.560  0.1252  0.8460  0.2922
  803MOL0     C10686  10.796  11.498   3.538  0.0551  0.2801 -0.5006
  803MOL0     C10687  10.770  11.559   3.684  0.0388  0.0382  0.5938
  803MOL0     C10688  10.727  11.703   3.696 -1.0133  0.3129  0.8617
  803MOL0     C10689  10.741  11.736   3.853  0.4652  0.0566  0.1348
  803MOL0     C10690  10.846  11.853   3.862 -0.1983 -1.1468  0.2275
  803MOL0     C10691  10.861  11.894   4.012 -0.2865  0.2250  0.2294
  803MOL0     C10692  10.964  12.010   4.022 -0.1134 -0.3210  0.4754
  803MOL0     N10693  11.101  11.973   3.980 -0.7986  0.1218 -0.6285
  803MOL0     C10694  11.155  11.950   3.855  0.4452  0.0497 -0.6037
  803MOL0     C10695  11.289  11.952   3.872 -0.0356 -0.0760 -0.2608
  803MOL0     C10696  11.391  11.980   3.767 -0.4308  0.5102 -0.1370
  803MOL0     C10697  11.457  11.846   3.712  0.3492 -0.1579 -1.1101
  803MOL0     C10698  11.522  11.868   3.584  0.5233  0.4117  0.2461
  803MOL0     C10699  11.637  11.769   3.568 -0.1637 -0.2671  0.4844
  803MOL0     O10700  11.592  11.637   3.575  0.3438  0.7414 -0.2530
  803MOL0     C10701  11.690  11.539   3.594  0.9872 -0.4003  0.0654
  803MOL0     C10702  11.650  11.406   3.594  0.3701 -0.7348  0.1280
  803MOL0     C10703  11.729  11.296   3.590  0.6341 -0.9730 -0.3160
  803MOL0     C10704  11.659  11.160   3.596  0.1543 -0.2797  0.1570
  803MOL0     C10705  11.872  11.321   3.600  0.8307  0.1271 -0.7215
  803MOL0     C10706  11.981  11.219   3.589 -0.4038 -0.2732 -1.2684
  803MOL0     O10707  12.117  11.250   3.631 -0.3661  0.2431 -0.3867
  803MOL0     C10708  12.197  11.138   3.634  0.5616 -0.9076 -0.0615
  803MOL0     C10709  12.189  11.084   3.761 -0.0423 -0.0636 -0.1052
  803MOL0     C10710  12.241  10.955   3.771 -0.0510  0.3750  0.6980
  803MOL0     C10711  12.294  10.888   3.664  0.8852  0.2142 -0.2120
  803MOL0     O10712  12.338  10.760   3.687 -0.4146 -0.1170 -0.8272
  803MOL0     C10713  12.467  10.718   3.635 -0.3086  0.7740  0.3493
  803MOL0     C10714  12.495  10.578   3.678 -0.5179 -0.2591 -0.4629
  803MOL0     C10715  12.370  10.482   3.664 -0.8857  0.0096  0.1085
  803MOL0     C10716  12.320  10.483   3.515 -0.8182 -0.3305  0.1058
  803MOL0     C10717  12.209  10.374   3.489  0.2889 -0.1024  1.4340
  803MOL0     C10718  12.154  10.373   3.350  0.2651  0.2657  0.2123
  803MOL0     C10719  12.037  10.274   3.335  0.2770 -0.4497  0.0508
  803MOL0     C10720  12.091  10.137   3.283 -0.6367 -0.0821 -0.0433
  803MOL0    Cl10721  11.959  10.021   3.327  0.5083  0.1742  0.5014
  803MOL0     C10722  12.308  10.950   3.536  0.5732  0.0217  0.1725
  803MOL0     C10723  12.247  11.076   3.517 -0.2392 -0.3253  0.4039
  803MOL0     O10724  11.954  11.114   3.540 -0.0657  0.1008  0.3056
  803MOL0     C10725  11.914  11.454   3.615 -0.3294  0.6363 -0.3985
  803MOL0     C10726  11.827  11.558   3.604  0.3493  0.7180  1.0001
  803MOL0     N10727  11.302  11.955   4.009 -0.8881  0.4530  0.1016
  803MOL0     N10728  11.200  11.966   4.072 -0.2035 -0.1817  0.6357
  803MOL0     C10729  10.992  11.289   3.334  0.8489  0.4087 -0.3037
  803MOL0     C10730  11.096  11.238   3.251  0.2498  0.3948  0.2818
  803MOL0     C10731  11.230  11.032   2.862  0.5883 -0.0461  0.8597
  803MOL0     C10732  11.350  11.103   2.895 -0.3578  0.7197  1.0168
  803MOL0     C10733  11.441  11.120   2.789  0.4332 -0.9701  0.4035
  803MOL0     C10734  11.427  11.070   2.655 -0.4754  0.3741 -0.2345
  803MOL0     O10735  11.514  11.073   2.539 -0.5561 -0.4944  0.0058
  803MOL0     C10736  11.617  11.174   2.541  0.9065 -1.0952  0.3301
  803MOL0     C10737  11.542  11.297   2.492  1.5890  0.2903 -0.1332
  803MOL0     C10738  11.637  11.415   2.462  0.0853 -0.0305  0.0245
  803MOL0     C10739  11.694  11.479   2.594 -1.0283 -0.0956 -0.5443
  803MOL0     C10740  11.600  11.525   2.701 -0.0297 -0.0232 -0.2649
  803MOL0     C10741  11.525  11.564   2.793 -0.8129 -0.6571  0.2211
  803MOL0     C10742  11.317  10.989   2.630 -0.6356  0.6698 -0.0462
  803MOL0     C10743  11.218  10.970   2.728 -1.0547  0.9118  0.3736
  803MOL0     C10744  11.092  10.901   2.678  0.6189 -0.6796  0.7889
  803MOL0     H10745  10.980  10.912   3.234  3.8008 -0.1793 -1.5580
  803MOL0     H10746  10.810  10.999   3.348  0.8722 -1.3489 -0.7687
  803MOL0     H10747  10.900  11.309   3.602  0.5076  1.0315 -0.4149
  803MOL0     H10748  10.733  11.316   3.639  1.7512  0.6766  1.7717
  803MOL0     H10749  10.888  11.534   3.491  0.4323  1.1825  0.8408
  803MOL0     H10750  10.711  11.505   3.469 -0.3199 -0.7289 -0.1545
  803MOL0     H10751  10.695  11.500   3.737  0.3494  0.0860  1.1027
  803MOL0     H10752  10.869  11.555   3.731  0.3208 -1.8787 -0.0736
  803MOL0     H10753  10.791  11.755   3.624  1.8076 -3.5243  0.2988
  803MOL0     H10754  10.626  11.713   3.656 -1.2240 -2.1796  0.6116
  803MOL0     H10755  10.775  11.653   3.915  0.3620  1.0727  1.6155
  803MOL0     H10756  10.644  11.768   3.891  0.7344  2.9648 -1.3148
  803MOL0     H10757  10.944  11.815   3.832  0.2933  0.5715 -0.5159
  803MOL0     H10758  10.819  11.941   3.802 -1.4724 -2.3183 -1.0009
  803MOL0     H10759  10.885  11.818   4.087  1.2393  0.4343 -0.0312
  803MOL0     H10760  10.762  11.927   4.046  1.4391  0.5764  6.0213
  803MOL0     H10761  10.942  12.088   3.948 -0.0974  1.5352  2.3527
  803MOL0     H10762  10.968  12.032   4.129 -0.3689 -1.9996  0.8661
  803MOL0     H10763  11.096  11.959   3.764 -2.1219 -0.5937  0.9160
  803MOL0     H10764  11.471  12.036   3.816  1.1095 -1.5483 -0.1724
  803MOL0     H10765  11.351  12.033   3.681 -2.0269 -1.1806 -0.4989
  803MOL0     H10766  11.522  11.809   3.793  0.3131  1.2480 -0.4064
  803MOL0     H10767  11.378  11.773   3.691 -1.2113  0.9546  0.5853
  803MOL0     H10768  11.460  11.865   3.493  1.8080  4.1742 -0.9513
  803MOL0     H10769  11.564  11.968   3.576 -2.5876  1.7011 -2.3048
  803MOL0     H10770  11.685  11.786   3.472  0.1456 -4.0873 -0.2221
  803MOL0     H10771  11.706  11.793   3.649  0.1721  2.8938 -0.6138
  803MOL0     H10772  11.543  11.395   3.579  0.2948  1.2116 -1.0832
  803MOL0     H10773  11.666  11.090   3.512 -0.6345  0.0368 -0.1855
  803MOL0     H10774  11.550  11.172   3.601  0.1785  0.4148 -0.6302
  803MOL0     H10775  11.699  11.099   3.677  1.1850  0.3779  0.1660
  803MOL0     H10776  12.150  11.140   3.845 -3.1258 -1.4790 -0.4188
  803MOL0     H10777  12.246  10.916   3.872  2.2338 -3.1514 -0.5340
  803MOL0     H10778  12.463  10.725   3.526 -1.9056  5.5722  0.5049
  803MOL0     H10779  12.546  10.785   3.668 -0.2707  0.3466  1.1580
  803MOL0     H10780  12.569  10.526   3.618 -1.7901 -0.0754 -2.2746
  803MOL0     H10781  12.525  10.580   3.783  0.0913 -0.7916 -0.6255
  803MOL0     H10782  12.294  10.499   3.741  1.3956  0.1645  2.4586
  803MOL0     H10783  12.410  10.381   3.676 -0.5296 -0.1310 -1.8268
  803MOL0     H10784  12.401  10.462   3.445 -1.7727 -2.3180 -0.4597
  803MOL0     H10785  12.271  10.577   3.488  1.8803  0.6859 -1.6563
  803MOL0     H10786  12.230  10.273   3.525  2.3427  0.4113  1.8189
  803MOL0     H10787  12.132  10.409   3.558 -2.1820  0.8020 -1.5003
  803MOL0     H10788  12.236  10.340   3.285  1.6941  1.6901  1.2368
  803MOL0     H10789  12.130  10.478   3.326 -3.9390 -0.7016 -0.6927
  803MOL0     H10790  11.966  10.308   3.258  2.4863 -0.9288 -2.3423
  803MOL0     H10791  11.983  10.264   3.430  0.2318  0.2531  0.1058
  803MOL0     H10792  12.182  10.112   3.337 -1.2583  3.3006  2.9394
  803MOL0     H10793  12.104  10.143   3.174 -0.6069  0.6557 -0.0056
  803MOL0     H10794  12.356  10.905   3.449  0.0016  2.4021 -1.4767
  803MOL0     H10795  12.245  11.124   3.420  3.1395 -0.2923  0.2186
  803MOL0     H10796  12.015  11.490   3.627 -0.3169  0.5307 -0.1839
  803MOL0     H10797  11.869  11.657   3.613 -1.9298  1.8444  0.2052
  803MOL0     H10798  11.007  11.383   3.385  2.1021 -1.9426  4.1342
  803MOL0     H10799  11.179  11.299   3.215  0.6020 -0.6190 -0.6832
  803MOL0     H10800  11.366  11.144   2.994  1.0386 -2.1473  2.1225
  803MOL0     H10801  11.520  11.187   2.822 -1.9942  1.7291  1.1080
  803MOL0     H10802  11.664  11.204   2.635  2.1550  1.6023 -1.0483
  803MOL0     H10803  11.700  11.149   2.475  0.0658 -0.1813 -1.1401
  803MOL0     H10804  11.464  11.324   2.564  0.6083 -0.4089 -0.8915
  803MOL0     H10805  11.495  11.250   2.405 -0.9203 -1.7030  2.0849
  803MOL0     H10806  11.719  11.378   2.400 -0.0668 -0.0957 -0.1380
  803MOL0     H10807  11.594  11.499   2.406  3.6066 -0.7420 -4.4454
  803MOL0     H10808  11.766  11.560   2.579  0.7259 -0.9145  2.4903
  803MOL0     H10809  11.761  11.407   2.641 -1.1205  0.4021  0.3649
  803MOL0     H10810  11.451  11.581   2.869  0.6503  1.0653  1.3589
  803MOL0     H10811  11.293  10.955   2.529 -2.8875 -1.1573  1.0091
  803MOL0     H10812  11.091  10.810   2.739  2.2620 -0.4571  1.2093
  803MOL0     H10813  11.009  10.963   2.714  0.8091 -2.0331  3.8638
  803MOL0     H10814  11.093  10.870   2.574  4.2041 -1.0610  0.8066
  804MOL0     O10815  11.355  10.883  10.702  1.1057 -0.1203 -0.2984
  804MOL0     C10816  11.403  10.976  10.758 -0.2017 -0.0449 -0.7419
  804MOL0     O10817  11.511  10.972  10.836  0.1330 -0.4682  0.1956
  804MOL0     C10818  11.594  10.864  10.852 -0.0401 -0.1832  0.4063
  804MOL0     C10819  11.708  10.869  10.781 -0.5117  0.0269 -0.5856
  804MOL0     C10820  11.801  10.766  10.775 -0.2473 -0.2340  0.0835
  804MOL0     C10821  11.785  10.658  10.861 -0.0056 -0.9937 -0.6689
  804MOL0     O10822  11.878  10.557  10.866 -0.5966 -0.0329 -0.5481
  804MOL0     C10823  11.907  10.489  10.746 -1.3495  0.1829 -0.7453
  804MOL0     C10824  11.785  10.406  10.708  0.1339 -0.3798 -0.3977
  804MOL0     C10825  11.783  10.304  10.599  0.0523 -0.8351  1.0990
  804MOL0     C10826  11.854  10.173  10.635  0.8797 -0.4075 -0.4734
  804MOL0     C10827  11.869  10.076  10.522 -0.0181 -0.0145 -0.1796
  804MOL0     C10828  11.985  10.121  10.426 -0.7854 -0.3927 -0.7954
  804MOL0     C10829  12.109  10.030  10.416  0.4448 -0.0952  0.3089
  804MOL0     C10830  12.203  10.082  10.308  0.0441 -0.1809 -0.2705
  804MOL0     N10831  12.303   9.977  10.273 -0.1055 -0.0738  0.3852
  804MOL0     C10832  12.305   9.912  10.157  0.6266 -0.6145 -0.2051
  804MOL0     C10833  12.418   9.843  10.150  0.4502 -1.1712  0.2757
  804MOL0     C10834  12.467   9.737  10.047 -0.2292 -0.6036  0.2775
  804MOL0     C10835  12.588   9.780   9.956 -0.5606  1.1885  0.0460
  804MOL0     C10836  12.632   9.676   9.854 -0.1204 -0.0769  0.2381
  804MOL0     C10837  12.737   9.714   9.753  0.7410 -0.6253 -0.0928
  804MOL0     O10838  12.841   9.742   9.836  0.4238 -0.5516 -1.0940
  804MOL0     C10839  12.970   9.773   9.800 -0.3073  0.2750  0.7250
  804MOL0     C10840  13.061   9.795   9.906 -0.4359  0.3558  0.0452
  804MOL0     C10841  13.206   9.807   9.889 -0.6885  0.8153 -0.1815
  804MOL0     C10842  13.298   9.841  10.009  0.2029  0.0431 -0.2530
  804MOL0     C10843  13.255   9.797   9.756 -0.4197 -1.2674 -0.2980
  804MOL0     C10844  13.401   9.783   9.723  0.3268  0.1415  0.4998
  804MOL0     O10845  13.488   9.809   9.825  0.1736 -0.7368  0.7171
  804MOL0     C10846  13.616   9.774   9.806  0.2017 -0.3023 -0.2415
  804MOL0     C10847  13.673   9.671   9.867 -0.6140 -0.0522  0.0388
  804MOL0     C10848  13.807   9.650   9.849  0.1056  0.4177 -0.3339
  804MOL0     C10849  13.890   9.737   9.775 -0.7592 -0.2026 -0.3351
  804MOL0     O10850  14.021   9.715   9.741  0.3615  0.0088  0.2167
  804MOL0     C10851  14.069   9.579   9.761  0.9779 -0.2155  0.2984
  804MOL0     C10852  14.216   9.585   9.701  0.6475  0.2479  0.1012
  804MOL0     C10853  14.240   9.667   9.569  1.0770 -0.4689 -1.7284
  804MOL0     C10854  14.371   9.635   9.506  0.1140  1.2500  0.8400
  804MOL0     C10855  14.489   9.659   9.596  0.1629  0.7252 -0.1265
  804MOL0     C10856  14.613   9.644   9.510 -0.4680 -0.2479  0.2616
  804MOL0     C10857  14.741   9.610   9.588 -0.3109 -0.6892  0.7951
  804MOL0     C10858  14.857   9.633   9.488 -0.0428 -0.0402 -0.6354
  804MOL0    Cl10859  14.849   9.505   9.362 -0.1936 -0.1690  0.3505
  804MOL0     C10860  13.827   9.852   9.729  0.2103  0.9301 -0.6914
  804MOL0     C10861  13.694   9.860   9.739  0.0701 -0.0444  0.8286
  804MOL0     O10862  13.434   9.730   9.615 -0.3670 -0.0741  0.0490
  804MOL0     C10863  13.153   9.782   9.645  0.5210 -0.4369 -0.7810
  804MOL0     C10864  13.017   9.767   9.671 -0.4321 -0.0819  0.7381
  804MOL0     N10865  12.495   9.889  10.260  0.1714  0.2179  0.2991
  804MOL0     N10866  12.425   9.957  10.340  0.5705 -0.5075 -0.5329
  804MOL0     C10867  11.669  10.651  10.937 -0.2414 -0.2182 -0.6326
  804MOL0     C10868  11.567  10.756  10.935  0.0828 -0.0276 -0.4023
  804MOL0     C10869  11.325  11.096  10.765  0.4731  1.3622  0.2238
  804MOL0     C10870  11.318  11.164  10.891  0.7218  0.5743  0.0972
  804MOL0     C10871  11.238  11.284  10.909  0.2614 -0.5325  0.3667
  804MOL0     C10872  11.162  11.333  10.801  0.2607 -0.1861 -0.0878
  804MOL0     O10873  11.079  11.444  10.809 -0.0772 -0.6408 -0.0102
  804MOL0     C10874  11.022  11.482  10.935  1.0030  0.4955  0.6549
  804MOL0     C10875  10.885  11.546  10.905  0.7970 -0.4820 -0.6412
  804MOL0     C10876  10.828  11.608  11.030 -0.5487  0.1586  0.1918
  804MOL0     C10877  10.670  11.626  11.028 -0.1216  0.1422  0.5341
  804MOL0     C10878  10.638  11.733  11.125 -0.4015 -0.1838  0.3643
  804MOL0     C10879  10.609  11.820  11.201  0.6675 -0.2412 -0.6138
  804MOL0     C10880  11.155  11.260  10.686  0.1479 -0.6330  0.4904
  804MOL0     C10881  11.241  11.143  10.658  0.2237 -0.3792 -0.2674
  804MOL0     C10882  11.236  11.082  10.522 -0.9207  0.1738 -0.7960
  804MOL0     H10883  11.728  10.956  10.719 -0.4687  1.9299  1.9650
  804MOL0     H10884  11.882  10.796  10.710  0.3329  1.7524  1.6279
  804MOL0     H10885  12.000  10.432  10.754  0.0592  2.5506  5.0578
  804MOL0     H10886  11.917  10.565  10.668 -0.9804 -0.2134 -1.0818
  804MOL0     H10887  11.749  10.351  10.796  0.3691  0.4777  0.2517
  804MOL0     H10888  11.716  10.488  10.683  3.6016  2.8250 -0.3051
  804MOL0     H10889  11.679  10.272  10.588  1.0943 -4.1697 -0.2459
  804MOL0     H10890  11.824  10.335  10.503 -0.0817 -3.4905  0.1019
  804MOL0     H10891  11.943  10.186  10.697  0.3862 -2.2790  0.7130
  804MOL0     H10892  11.778  10.123  10.696  1.7943 -0.5739  0.5495
  804MOL0     H10893  11.773  10.081  10.468 -0.5376  2.1910  0.8492
  804MOL0     H10894  11.894   9.980  10.568  3.0136  0.8908  0.2791
  804MOL0     H10895  11.941  10.125  10.326 -1.8316  3.3157 -0.3354
  804MOL0     H10896  12.015  10.223  10.453 -2.8778 -0.0926  0.6703
  804MOL0     H10897  12.065   9.935  10.385 -0.0097  0.5288 -1.0423
  804MOL0     H10898  12.154  10.033  10.516  1.3671 -0.1390 -0.0985
  804MOL0     H10899  12.143  10.123  10.226 -0.2209 -0.0476 -0.0085
  804MOL0     H10900  12.263  10.165  10.349  2.4624 -0.9094 -2.0741
  804MOL0     H10901  12.225   9.907  10.084 -2.4061  2.0946  2.5950
  804MOL0     H10902  12.388   9.707   9.978  0.2501  3.3133 -2.3056
  804MOL0     H10903  12.501   9.652  10.107  3.8218  0.5559 -0.0928
  804MOL0     H10904  12.543   9.867   9.908 -0.4141  0.7928 -0.8179
  804MOL0     H10905  12.667   9.804  10.027  0.1550 -2.3198  0.5998
  804MOL0     H10906  12.662   9.579   9.896 -0.5914  0.0081  0.7758
  804MOL0     H10907  12.547   9.640   9.795  3.7315 -5.5473 -2.9862
  804MOL0     H10908  12.754   9.639   9.674 -2.6056  1.8635 -3.5562
  804MOL0     H10909  12.699   9.803   9.702 -1.5917 -1.4619  0.0423
  804MOL0     H10910  13.024   9.805  10.007  0.7194 -0.4681  0.5670
  804MOL0     H10911  13.370   9.759  10.020  1.7657  1.4606  0.5126
  804MOL0     H10912  13.244   9.853  10.103 -1.7769  2.2698 -1.5618
  804MOL0     H10913  13.353   9.934   9.994 -1.0221  0.4094 -3.0464
  804MOL0     H10914  13.618   9.612   9.939  1.2240 -2.1549 -0.1702
  804MOL0     H10915  13.849   9.561   9.896  0.7670  1.2638  0.7052
  804MOL0     H10916  14.079   9.553   9.867 -0.0840  1.1893  0.7853
  804MOL0     H10917  13.998   9.514   9.709 -1.2745  2.0120  0.3256
  804MOL0     H10918  14.293   9.621   9.770 -0.9072  0.6423  1.7178
  804MOL0     H10919  14.240   9.481   9.678  3.9691  1.4676 -2.9204
  804MOL0     H10920  14.259   9.771   9.598 -0.5619 -0.2397 -1.3746
  804MOL0     H10921  14.149   9.664   9.509 -1.4893 -1.5010  1.9211
  804MOL0     H10922  14.380   9.688   9.410  3.5870 -1.6636 -0.6681
  804MOL0     H10923  14.364   9.532   9.469 -1.0807  1.8707 -0.8280
  804MOL0     H10924  14.484   9.755   9.649 -1.0622  0.8837 -0.5051
  804MOL0     H10925  14.488   9.589   9.680  5.7023  1.4232  0.8669
  804MOL0     H10926  14.627   9.732   9.447  1.4191 -0.4925  0.2842
  804MOL0     H10927  14.596   9.556   9.447  2.2086 -2.2011  2.0114
  804MOL0     H10928  14.738   9.507   9.624 -0.6339 -0.5061  1.3034
  804MOL0     H10929  14.768   9.667   9.678 -0.5977 -1.7699  1.5871
  804MOL0     H10930  14.951   9.617   9.541 -1.2999 -1.8574  1.1782
  804MOL0     H10931  14.855   9.731   9.440  1.4565  0.5993  0.5235
  804MOL0     H10932  13.884   9.919   9.666  0.8725  3.1741  2.0818
  804MOL0     H10933  13.646   9.936   9.678  1.4081 -0.6010 -1.0365
  804MOL0     H10934  13.180   9.769   9.540 -0.8641  1.5054 -1.4403
  804MOL0     H10935  12.949   9.732   9.594  0.2381 -1.8698  0.8937
  804MOL0     H10936  11.667  10.567  11.005 -3.9602 -1.4049 -1.9387
  804MOL0     H10937  11.477  10.748  10.996  1.0241 -2.1646  0.8342
  804MOL0     H10938  11.380  11.149  10.978 -0.6494 -1.4430  0.7922
  804MOL0     H10939  11.226  11.344  10.999  1.6562  3.1137 -1.6465
  804MOL0     H10940  11.017  11.391  10.996 -3.6495 -0.3885 -0.6397
  804MOL0     H10941  11.080  11.562  10.981  0.8762  1.8765 -1.4471
  804MOL0     H10942  10.818  11.467  10.871 -0.7521  0.1474  0.8285
  804MOL0     H10943  10.894  11.623  10.827 -1.6198 -1.0446 -1.5655
  804MOL0     H10944  10.839  11.542  11.116 -2.2824  1.1624  1.2481
  804MOL0     H10945  10.873  11.708  11.037  3.1504 -1.1451 -1.9882
  804MOL0     H10946  10.608  11.538  11.045 -0.2497 -0.4230 -2.3327
  804MOL0     H10947  10.641  11.664  10.929  2.5225  2.7071  0.6027
  804MOL0     H10948  10.579  11.896  11.271 -0.0514 -0.6721 -0.4363
  804MOL0     H10949  11.091  11.293  10.604 -3.0467 -3.4680  1.6026
  804MOL0     H10950  11.337  11.070  10.482 -1.2139 -2.4168 -0.9700
  804MOL0     H10951  11.178  10.991  10.535 -0.8251  0.3249  0.8858
  804MOL0     H10952  11.194  11.148  10.446  1.3605  0.1729 -2.1673
  805MOL0     O10953   9.573  11.503   7.439 -0.1490 -0.3292 -0.5896
  805MOL0     C10954   9.453  11.504   7.409  0.0913 -0.2206  0.2756
  805MOL0     O10955   9.344  11.463   7.484 -0.1133 -0.4517  0.7371
  805MOL0     C10956   9.359  11.434   7.615  0.4189  0.6795  0.0260
  805MOL0     C10957   9.325  11.537   7.691  0.4005 -0.1341 -0.0090
  805MOL0     C10958   9.327  11.517   7.825  1.1827  0.7594 -0.4687
  805MOL0     C10959   9.353  11.394   7.879  0.3962  1.5989  0.1669
  805MOL0     O10960   9.354  11.381   8.018 -0.4426 -0.3435 -0.5609
  805MOL0     C10961   9.468  11.418   8.096 -0.4238 -1.0095  0.3829
  805MOL0     C10962   9.426  11.534   8.190  0.4060  0.2330 -1.0220
  805MOL0     C10963   9.538  11.581   8.286  0.2807 -0.3669  0.9256
  805MOL0     C10964   9.510  11.709   8.380  0.2020  1.1252  0.2020
  805MOL0     C10965   9.646  11.770   8.403  0.1833  0.8278  0.6210
  805MOL0     C10966   9.724  11.676   8.500  0.8117  0.0851  0.6470
  805MOL0     C10967   9.855  11.742   8.568 -0.1288  0.0988 -0.1073
  805MOL0     C10968   9.965  11.638   8.601  0.4724 -0.0334 -0.2485
  805MOL0     N10969  10.054  11.610   8.481 -0.1191 -0.0067  0.1237
  805MOL0     C10970  10.169  11.682   8.452 -0.6436  0.3111  0.0490
  805MOL0     C10971  10.205  11.638   8.331 -0.4090  0.1408 -0.8606
  805MOL0     C10972  10.318  11.673   8.244  0.1142  0.3539  0.3404
  805MOL0     C10973  10.444  11.623   8.321  0.0484 -0.2568  0.2416
  805MOL0     C10974  10.511  11.742   8.395  0.0149  0.8636  0.7103
  805MOL0     C10975  10.651  11.716   8.457 -0.1593 -0.4724  1.2941
  805MOL0     O10976  10.746  11.665   8.360 -0.2854 -0.0594 -0.7861
  805MOL0     C10977  10.857  11.612   8.418 -0.1700 -0.7298  0.5746
  805MOL0     C10978  10.909  11.642   8.548  0.4147  1.0315  0.3395
  805MOL0     C10979  11.021  11.571   8.602 -0.7966 -0.6560  0.5929
  805MOL0     C10980  11.078  11.622   8.730 -0.4382 -0.6026 -0.6623
  805MOL0     C10981  11.080  11.465   8.526 -0.0809 -0.2910  0.9446
  805MOL0     C10982  11.193  11.384   8.568  0.0677 -0.7136  0.1086
  805MOL0     O10983  11.162  11.274   8.632  0.1575  0.0997  1.0226
  805MOL0     C10984  11.259  11.183   8.672 -0.6589 -0.7217 -0.5348
  805MOL0     C10985  11.260  11.158   8.811 -0.0358  0.4880  0.0560
  805MOL0     C10986  11.338  11.052   8.861 -0.7991 -0.1908  0.0389
  805MOL0     C10987  11.411  10.966   8.779  1.0902  0.2152 -1.0528
  805MOL0     O10988  11.474  10.853   8.819 -0.1270  0.8385  0.9085
  805MOL0     C10989  11.413  10.772   8.920  0.9183  0.9860 -0.1297
  805MOL0     C10990  11.270  10.717   8.904  0.0210 -0.0208 -0.1237
  805MOL0     C10991  11.207  10.656   9.036 -0.5511  0.4531 -1.6545
  805MOL0     C10992  11.246  10.503   9.051  0.5315  0.1599 -0.7964
  805MOL0     C10993  11.205  10.442   9.192  0.5602  0.9462 -0.3897
  805MOL0     C10994  11.253  10.295   9.202  0.1154  0.0444 -0.6553
  805MOL0     C10995  11.178  10.217   9.315  0.0257  0.1798 -0.2186
  805MOL0     C10996  11.262  10.133   9.403 -0.7334  0.5100  0.0842
  805MOL0    Cl10997  11.353  10.009   9.305  0.2557 -0.3437 -0.2333
  805MOL0     C10998  11.425  11.007   8.645  0.4075  0.2060 -0.4329
  805MOL0     C10999  11.349  11.116   8.590  0.1702 -0.7532 -0.4951
  805MOL0     O11000  11.304  11.428   8.541 -0.1504 -0.4007 -0.6757
  805MOL0     C11001  11.026  11.434   8.397 -1.1958  0.1909  0.2101
  805MOL0     C11002  10.914  11.504   8.344  0.5896  1.2504 -0.1277
  805MOL0     N11003  10.098  11.565   8.276  0.3649 -0.0838  0.6461
  805MOL0     N11004  10.012  11.544   8.374  0.0277  0.5599  0.4526
  805MOL0     C11005   9.378  11.279   7.802 -0.2292 -0.6602  0.8423
  805MOL0     C11006   9.386  11.303   7.661  0.7517  0.5764 -1.1851
  805MOL0     C11007   9.423  11.560   7.276  0.2139  0.1889  1.5990
  805MOL0     C11008   9.416  11.695   7.272  0.3626  0.0703 -0.1465
  805MOL0     C11009   9.403  11.767   7.152  0.1661  0.8787  0.2241
  805MOL0     C11010   9.391  11.706   7.027  0.0499  0.2704  0.3129
  805MOL0     O11011   9.370  11.772   6.909 -0.4875  0.4560 -0.8353
  805MOL0     C11012   9.365  11.916   6.906 -0.7592 -0.6381  0.8794
  805MOL0     C11013   9.364  11.989   6.763 -0.5301  1.0710  0.7951
  805MOL0     C11014   9.227  11.982   6.689 -0.3152  0.5065 -0.2477
  805MOL0     C11015   9.218  12.063   6.568  0.3581  0.3235  0.5412
  805MOL0     C11016   9.192  12.205   6.590 -0.1780  0.1883  0.3521
  805MOL0     C11017   9.156  12.317   6.596 -0.3359 -0.6982 -0.2777
  805MOL0     C11018   9.411  11.566   7.030  0.1686  0.2284 -0.4614
  805MOL0     C11019   9.434  11.488   7.150  0.1877 -1.8024 -0.1730
  805MOL0     C11020   9.430  11.339   7.149  0.0671  0.4546 -0.0220
  805MOL0     H11021   9.278  11.623   7.645 -1.8873 -1.4574 -0.3007
  805MOL0     H11022   9.292  11.595   7.892  2.0635  1.1797 -0.4951
  805MOL0     H11023   9.550  11.448   8.031  2.4173 -2.0470  3.2110
  805MOL0     H11024   9.496  11.339   8.167 -0.8051 -1.5071 -0.0191
  805MOL0     H11025   9.385  11.608   8.121  0.3504 -0.0687 -1.3206
  805MOL0     H11026   9.346  11.492   8.251 -0.2698  0.6925 -1.5720
  805MOL0     H11027   9.559  11.500   8.357 -1.3386  0.2936  2.2248
  805MOL0     H11028   9.628  11.587   8.224 -0.2347  1.5977  0.3177
  805MOL0     H11029   9.444  11.781   8.331 -3.3957 -0.7002  2.0039
  805MOL0     H11030   9.465  11.672   8.472  0.2854  2.7563  0.9376
  805MOL0     H11031   9.645  11.863   8.462  1.4529  1.6346 -0.5682
  805MOL0     H11032   9.693  11.789   8.306  2.9667  1.8836  2.0528
  805MOL0     H11033   9.649  11.666   8.579 -0.1373 -2.2085 -0.4669
  805MOL0     H11034   9.737  11.573   8.465 -2.2186 -0.1581 -0.0543
  805MOL0     H11035   9.830  11.790   8.663 -1.7011 -1.6689  0.4499
  805MOL0     H11036   9.908  11.817   8.510  0.4116  0.1686  0.4613
  805MOL0     H11037  10.033  11.681   8.676  2.3150 -0.3428 -1.6503
  805MOL0     H11038   9.933  11.541   8.640 -0.4597  1.2514  2.4390
  805MOL0     H11039  10.224  11.748   8.517 -2.3606  0.5313  1.3496
  805MOL0     H11040  10.324  11.781   8.232  0.0331  0.0986 -2.9522
  805MOL0     H11041  10.312  11.613   8.153 -2.4492 -0.7764  1.1761
  805MOL0     H11042  10.418  11.536   8.382 -0.4502  0.2571  0.7826
  805MOL0     H11043  10.507  11.581   8.242 -0.6080  1.0740 -1.0388
  805MOL0     H11044  10.522  11.815   8.314  0.1376 -1.3264 -1.3706
  805MOL0     H11045  10.443  11.776   8.474 -1.3522 -1.4802  0.6285
  805MOL0     H11046  10.689  11.816   8.478  0.6648  0.2705 -2.8420
  805MOL0     H11047  10.644  11.646   8.541  0.4686  2.0623  3.6147
  805MOL0     H11048  10.874  11.730   8.600  0.6414  1.7217 -0.6421
  805MOL0     H11049  11.050  11.720   8.770  2.2777  0.2706 -0.6781
  805MOL0     H11050  11.187  11.609   8.729 -0.7474 -4.7551 -0.8494
  805MOL0     H11051  11.051  11.552   8.810  2.9665 -0.7939  0.4710
  805MOL0     H11052  11.198  11.209   8.884 -0.2002  2.2167 -1.2357
  805MOL0     H11053  11.334  11.043   8.969  0.0269  0.1480  0.1049
  805MOL0     H11054  11.470  10.686   8.957  1.2236  0.4787 -1.7109
  805MOL0     H11055  11.402  10.833   9.010 -0.6976 -1.4402  1.4650
  805MOL0     H11056  11.208  10.802   8.875  0.4911  0.8110  1.2366
  805MOL0     H11057  11.267  10.643   8.824  0.7869 -0.8573  0.5970
  805MOL0     H11058  11.098  10.649   9.037 -0.4518 -2.4838 -1.1524
  805MOL0     H11059  11.235  10.710   9.127 -2.5704 -1.7411  0.4363
  805MOL0     H11060  11.355  10.494   9.052  0.4560 -2.2851  2.0533
  805MOL0     H11061  11.198  10.442   8.974 -1.1500 -0.5511  0.7421
  805MOL0     H11062  11.219  10.506   9.280  0.4490 -2.1166  2.0145
  805MOL0     H11063  11.096  10.454   9.198  0.5532  0.3011  1.5510
  805MOL0     H11064  11.361  10.291   9.224  0.0229  0.8223 -0.0088
  805MOL0     H11065  11.234  10.246   9.107  0.5217  2.8310 -2.2757
  805MOL0     H11066  11.103  10.150   9.273  1.7380 -1.5545 -0.6132
  805MOL0     H11067  11.118  10.289   9.372  0.8453  3.2504 -2.8815
  805MOL0     H11068  11.205  10.077   9.478 -0.6804 -1.4677 -1.2541
  805MOL0     H11069  11.331  10.186   9.469 -0.6959 -2.1299  2.3558
  805MOL0     H11070  11.492  10.954   8.578  2.7363  0.8041  1.3147
  805MOL0     H11071  11.349  11.135   8.483 -0.6870  0.2040 -0.3413
  805MOL0     H11072  11.074  11.350   8.348 -1.5452 -0.6266  1.2290
  805MOL0     H11073  10.870  11.483   8.247  1.0318 -1.4497  0.1657
  805MOL0     H11074   9.398  11.184   7.849 -0.8342 -3.4400 -3.9165
  805MOL0     H11075   9.404  11.218   7.597  0.4984 -1.7971  1.6900
  805MOL0     H11076   9.404  11.748   7.367 -0.2415 -0.1022 -0.1228
  805MOL0     H11077   9.421  11.875   7.149 -0.0697  0.8926 -2.0551
  805MOL0     H11078   9.279  11.951   6.964 -0.2775  2.8548 -0.3128
  805MOL0     H11079   9.458  11.948   6.953 -0.4296  1.2831 -0.9721
  805MOL0     H11080   9.441  11.952   6.695 -1.5859 -0.1973  0.2330
  805MOL0     H11081   9.384  12.094   6.786  0.8023  1.6762 -2.4849
  805MOL0     H11082   9.234  11.883   6.645 -0.0124  1.0305 -1.4016
  805MOL0     H11083   9.140  11.984   6.756  0.8477 -2.1922  1.4902
  805MOL0     H11084   9.139  12.026   6.502  1.1969 -2.1234  0.8109
  805MOL0     H11085   9.309  12.057   6.508 -1.3319 -2.6084 -2.0383
  805MOL0     H11086   9.116  12.416   6.598 -1.9086 -1.1134 -3.6312
  805MOL0     H11087   9.402  11.515   6.935 -2.1862  0.7207 -0.5824
  805MOL0     H11088   9.476  11.309   7.243  1.3242  3.3199  0.3796
  805MOL0     H11089   9.333  11.290   7.135  0.9397 -0.8863 -1.7545
  805MOL0     H11090   9.492  11.301   7.067 -0.5763 -1.3801  0.3053
  806MOL0     O11091   5.908   7.643   8.313  0.4877 -0.9869 -0.0382
  806MOL0     C11092   5.840   7.544   8.337  0.2514  1.0294  0.2552
  806MOL0     O11093   5.839   7.423   8.261 -0.4663 -0.1467  0.3305
  806MOL0     C11094   5.919   7.425   8.148  0.2397 -1.0986 -0.1054
  806MOL0     C11095   6.038   7.355   8.129 -0.5555 -1.0085 -0.0586
  806MOL0     C11096   6.099   7.366   8.006  0.5536 -0.4044 -0.1785
  806MOL0     C11097   6.057   7.452   7.912  0.8805  0.1209  0.1090
  806MOL0     O11098   6.138   7.458   7.797  0.2210 -0.5237 -0.3645
  806MOL0     C11099   6.229   7.573   7.804 -0.7154 -0.6499 -0.1105
  806MOL0     C11100   6.361   7.546   7.722 -0.2299  0.0720 -0.3176
  806MOL0     C11101   6.448   7.422   7.768 -0.0343  0.1849 -1.1589
  806MOL0     C11102   6.539   7.452   7.889  1.0719 -0.2245 -0.4214
  806MOL0     C11103   6.651   7.358   7.915 -0.1597 -0.2632  0.8031
  806MOL0     C11104   6.718   7.405   8.036  0.8415 -0.8680  0.9697
  806MOL0     C11105   6.833   7.308   8.089  0.8699  0.4751  0.2334
  806MOL0     C11106   6.896   7.345   8.221 -0.1508  0.4259  0.6283
  806MOL0     N11107   6.826   7.298   8.346 -0.5074  0.3256 -0.3886
  806MOL0     C11108   6.737   7.372   8.418 -0.8969  0.0515 -0.0097
  806MOL0     C11109   6.726   7.298   8.532  0.2008 -0.4226 -0.0495
  806MOL0     C11110   6.629   7.328   8.649 -0.2319 -0.2369 -0.2611
  806MOL0     C11111   6.593   7.198   8.720  0.9071 -1.3692 -1.6609
  806MOL0     C11112   6.483   7.228   8.825 -0.3532  0.0761  0.5840
  806MOL0     C11113   6.488   7.135   8.948 -0.4520 -0.2154  0.1267
  806MOL0     O11114   6.385   7.173   9.040  0.3941 -0.1656  0.3552
  806MOL0     C11115   6.404   7.269   9.133 -0.0332  0.5059 -0.6041
  806MOL0     C11116   6.518   7.346   9.150 -1.2720 -0.2152 -1.1569
  806MOL0     C11117   6.534   7.444   9.249 -0.0258 -0.0107 -0.8876
  806MOL0     C11118   6.667   7.519   9.270  0.3939  0.2588 -0.0045
  806MOL0     C11119   6.416   7.468   9.333 -0.6004 -0.4050  0.4157
  806MOL0     C11120   6.406   7.572   9.438  1.5475  0.0254 -0.9605
  806MOL0     O11121   6.294   7.563   9.520  0.1273  0.7187 -1.3496
  806MOL0     C11122   6.288   7.658   9.617  0.1449  0.0443  0.0677
  806MOL0     C11123   6.309   7.627   9.746  0.5484  0.4126 -0.5666
  806MOL0     C11124   6.331   7.717   9.847  0.2861 -0.1849 -0.4251
  806MOL0     C11125   6.299   7.849   9.827  0.0736 -0.2662  0.4686
  806MOL0     O11126   6.321   7.935   9.924  0.6044  0.3274 -0.6764
  806MOL0     C11127   6.353   8.072   9.895 -0.4688  0.7711 -0.0530
  806MOL0     C11128   6.499   8.102   9.847  0.0313  0.9846 -0.6029
  806MOL0     C11129   6.604   8.008   9.906  0.9105 -0.2546 -0.7718
  806MOL0     C11130   6.743   8.067   9.891  0.4699 -0.3607 -0.5464
  806MOL0     C11131   6.842   7.947   9.885 -0.2781 -0.4049  0.8570
  806MOL0     C11132   6.988   7.985   9.907  0.0121 -0.6550 -0.1802
  806MOL0     C11133   7.085   7.865   9.918  0.7393 -0.8217  0.1149
  806MOL0     C11134   7.223   7.917   9.966 -0.8839 -0.3044  0.3715
  806MOL0    Cl11135   7.218   7.995  10.127  0.1261 -0.3435 -0.3295
  806MOL0     C11136   6.255   7.888   9.695  0.6637 -0.2007 -0.2841
  806MOL0     C11137   6.250   7.791   9.588 -0.5932  0.0948 -0.0542
  806MOL0     O11138   6.492   7.662   9.446 -0.4888  0.3628  0.9515
  806MOL0     C11139   6.306   7.390   9.311  0.0403 -1.3267  0.0403
  806MOL0     C11140   6.300   7.301   9.207  0.3481  1.6171  0.1291
  806MOL0     N11141   6.798   7.185   8.524 -0.1533  0.2169  0.6251
  806MOL0     N11142   6.847   7.177   8.405  0.8720 -0.2749 -0.1555
  806MOL0     C11143   5.949   7.532   7.930  0.7391  0.6773  1.2412
  806MOL0     C11144   5.870   7.505   8.047 -0.2863 -0.6204 -0.4032
  806MOL0     C11145   5.728   7.553   8.438  0.0431 -0.0297  0.6402
  806MOL0     C11146   5.677   7.434   8.486  0.0184 -0.3705 -0.3443
  806MOL0     C11147   5.569   7.425   8.566  0.1456 -0.7544 -0.3761
  806MOL0     C11148   5.510   7.542   8.622 -0.8036  0.1681  0.1531
  806MOL0     O11149   5.394   7.551   8.701 -0.2957  0.9080 -0.3101
  806MOL0     C11150   5.359   7.444   8.786 -0.0014 -0.5178 -0.3969
  806MOL0     C11151   5.257   7.358   8.712 -0.3611  0.4673  0.0148
  806MOL0     C11152   5.150   7.297   8.803 -0.3185 -0.2692 -0.0818
  806MOL0     C11153   5.098   7.157   8.743  0.7547 -0.7885  0.0047
  806MOL0     C11154   5.022   7.187   8.624  0.2284 -0.2321  0.8617
  806MOL0     C11155   4.984   7.220   8.514 -0.6424  0.3161  0.7100
  806MOL0     C11156   5.565   7.661   8.582  0.5295 -0.3658  0.0510
  806MOL0     C11157   5.670   7.672   8.484  0.2972  1.1320  0.4896
  806MOL0     C11158   5.727   7.807   8.446 -0.4002 -0.5691 -0.6463
  806MOL0     H11159   6.072   7.314   8.224  0.9539  0.6302  0.1495
  806MOL0     H11160   6.194   7.314   7.999  0.7665 -0.3933  1.8758
  806MOL0     H11161   6.258   7.598   7.907  2.1799  2.0560 -1.4380
  806MOL0     H11162   6.180   7.664   7.769 -0.0815  0.0338  0.7465
  806MOL0     H11163   6.324   7.548   7.619 -0.0657  1.4072 -0.3612
  806MOL0     H11164   6.407   7.644   7.738 -1.7889  0.5769  1.5620
  806MOL0     H11165   6.384   7.341   7.805  2.7757  0.2325  4.9518
  806MOL0     H11166   6.499   7.396   7.675 -3.4794 -1.4028 -2.7903
  806MOL0     H11167   6.568   7.557   7.898 -2.5419  0.9017 -0.3640
  806MOL0     H11168   6.474   7.435   7.975  2.4862 -1.3162  0.4642
  806MOL0     H11169   6.721   7.343   7.832  0.4691 -1.0656  1.4595
  806MOL0     H11170   6.597   7.264   7.931 -0.9372  0.1879  0.8771
  806MOL0     H11171   6.761   7.503   8.015  3.5077 -2.0447  0.4554
  806MOL0     H11172   6.647   7.407   8.119 -0.9936  2.2515 -0.4907
  806MOL0     H11173   6.912   7.305   8.014 -0.9466 -0.6934 -1.7484
  806MOL0     H11174   6.806   7.202   8.101  4.9071 -0.5296  2.3161
  806MOL0     H11175   6.995   7.297   8.223 -0.5925 -0.5697 -0.3542
  806MOL0     H11176   6.911   7.454   8.218 -1.6929  0.6467 -0.0031
  806MOL0     H11177   6.693   7.469   8.397  2.2845  1.3832 -1.1486
  806MOL0     H11178   6.535   7.369   8.608 -0.8676 -0.3763  1.0170
  806MOL0     H11179   6.673   7.402   8.717  1.3834  1.3455 -2.8541
  806MOL0     H11180   6.560   7.117   8.655  0.7339 -3.6031  1.0385
  806MOL0     H11181   6.678   7.168   8.782  1.7452  2.2631 -0.7956
  806MOL0     H11182   6.490   7.333   8.855 -1.1944  0.2140  0.3478
  806MOL0     H11183   6.381   7.225   8.783  0.6483 -1.6270 -1.9682
  806MOL0     H11184   6.466   7.032   8.919 -1.8625  0.0788  0.0672
  806MOL0     H11185   6.580   7.143   9.006 -2.3716 -0.8235  3.5120
  806MOL0     H11186   6.592   7.335   9.071 -1.7795 -1.5552 -1.4693
  806MOL0     H11187   6.745   7.497   9.196  0.3076  2.5095 -0.8455
  806MOL0     H11188   6.708   7.492   9.368  1.6443 -0.5471 -0.7237
  806MOL0     H11189   6.647   7.626   9.257  1.2878  0.4002 -0.2807
  806MOL0     H11190   6.334   7.522   9.758 -0.4982  0.3457  1.5734
  806MOL0     H11191   6.374   7.684   9.941  2.4381  2.0622 -0.5123
  806MOL0     H11192   6.278   8.111   9.826  0.0988 -0.4956 -1.4527
  806MOL0     H11193   6.346   8.124   9.991 -0.4235 -0.8775  0.8769
  806MOL0     H11194   6.506   8.082   9.739 -2.8677 -2.0889 -0.3844
  806MOL0     H11195   6.516   8.210   9.857 -1.2807  1.1022  0.6232
  806MOL0     H11196   6.605   7.905   9.869 -0.2658 -0.6158  0.1444
  806MOL0     H11197   6.576   8.013  10.012 -1.9012  3.3793 -1.4570
  806MOL0     H11198   6.764   8.135   9.974 -0.4726 -1.9447  1.0746
  806MOL0     H11199   6.739   8.119   9.795 -2.6060 -2.4583 -1.7148
  806MOL0     H11200   6.814   7.874   9.961  0.3535 -0.5187  0.9783
  806MOL0     H11201   6.842   7.886   9.794  0.8113  0.0325  0.5547
  806MOL0     H11202   6.974   8.033  10.004 -4.0966  2.1376 -1.8604
  806MOL0     H11203   7.023   8.060   9.835 -0.0111 -0.9387 -0.4909
  806MOL0     H11204   7.101   7.822   9.819 -1.8432 -2.7093  0.4118
  806MOL0     H11205   7.042   7.803   9.997  0.6781 -0.0510  0.7065
  806MOL0     H11206   7.266   7.990   9.897 -1.8140 -1.8426 -1.9405
  806MOL0     H11207   7.283   7.826   9.957 -1.3845 -0.5322 -0.8405
  806MOL0     H11208   6.227   7.989   9.667 -2.9172 -1.0702 -0.3502
  806MOL0     H11209   6.220   7.818   9.487 -1.9512  0.1792  0.3531
  806MOL0     H11210   6.221   7.394   9.378  0.5821  1.3554  0.6511
  806MOL0     H11211   6.208   7.245   9.194  0.6957  0.9333  0.5418
  806MOL0     H11212   5.918   7.604   7.856 -1.6268 -0.8608  0.6240
  806MOL0     H11213   5.783   7.568   8.062  1.5922  2.3529 -1.0703
  806MOL0     H11214   5.723   7.339   8.463 -0.5463 -0.7608  0.1107
  806MOL0     H11215   5.536   7.321   8.567 -0.4541 -0.5988 -1.8589
  806MOL0     H11216   5.449   7.393   8.820 -0.9626 -3.4287 -1.9016
  806MOL0     H11217   5.305   7.492   8.868  1.1076 -1.3973  0.8864
  806MOL0     H11218   5.316   7.276   8.669 -2.0935 -1.3002  0.8270
  806MOL0     H11219   5.209   7.416   8.632 -0.0299  1.5417  0.5787
  806MOL0     H11220   5.205   7.280   8.896 -0.9233  2.4153  0.8667
  806MOL0     H11221   5.072   7.368   8.834  1.1187  0.7772  1.2356
  806MOL0     H11222   5.037   7.123   8.828  1.7218  1.2977  1.6356
  806MOL0     H11223   5.184   7.092   8.723  0.3437 -0.4938 -3.2085
  806MOL0     H11224   4.962   7.265   8.419  1.0506  0.4170  0.3436
  806MOL0     H11225   5.524   7.734   8.651  1.8867 -2.0046  2.7645
  806MOL0     H11226   5.655   7.888   8.460 -1.1181 -0.7089 -3.0657
  806MOL0     H11227   5.824   7.825   8.495 -1.1002 -1.4368  1.1553
  806MOL0     H11228   5.745   7.806   8.338  1.7115 -0.0989 -0.3445
  807MOL0     O11229   4.961   4.993   7.098 -0.5395  0.0467  0.0842
  807MOL0     C11230   4.943   5.102   7.156  0.3723  0.4988  0.1945
  807MOL0     O11231   5.036   5.190   7.190 -0.4725  0.6794 -0.5040
  807MOL0     C11232   5.169   5.187   7.182 -0.3786  0.3663 -0.9211
  807MOL0     C11233   5.238   5.285   7.251 -0.7519  0.4113 -0.8953
  807MOL0     C11234   5.377   5.294   7.251 -0.3262  0.0196 -0.9711
  807MOL0     C11235   5.457   5.190   7.183  0.1314  0.4533 -0.9152
  807MOL0     O11236   5.594   5.194   7.187  0.0724  0.1167  0.2802
  807MOL0     C11237   5.661   5.099   7.096  0.4860 -0.6206 -0.5682
  807MOL0     C11238   5.794   5.173   7.051 -0.1175  0.4711  0.1982
  807MOL0     C11239   5.872   5.243   7.163  0.6921 -0.2366  0.5430
  807MOL0     C11240   6.017   5.277   7.105  0.1142 -0.0516 -0.4884
  807MOL0     C11241   6.013   5.391   7.007 -0.6459 -0.2801  0.7414
  807MOL0     C11242   6.157   5.425   6.959  0.1859  0.2788  0.5895
  807MOL0     C11243   6.152   5.555   6.874 -0.4406 -0.2454 -0.2240
  807MOL0     C11244   6.122   5.672   6.960  0.9332 -0.2760  0.6449
  807MOL0     N11245   6.127   5.783   6.857 -0.3910  0.3489  0.0234
  807MOL0     C11246   6.020   5.840   6.799  0.2565  0.8604 -0.6084
  807MOL0     C11247   6.079   5.910   6.687 -0.1631  0.5618 -0.1604
  807MOL0     C11248   6.010   5.991   6.588  0.2396  0.2759  0.0535
  807MOL0     C11249   5.881   6.052   6.642 -0.7874  0.7101 -1.2462
  807MOL0     C11250   5.794   6.115   6.541  0.5281 -0.0270 -0.0706
  807MOL0     C11251   5.850   6.253   6.511  0.1448  0.8345  0.0972
  807MOL0     O11252   5.956   6.222   6.413  0.4499  0.2852 -0.4194
  807MOL0     C11253   5.979   6.331   6.333 -0.1996  0.6678  1.2994
  807MOL0     C11254   5.948   6.459   6.354  0.4076 -0.5480  0.7314
  807MOL0     C11255   5.999   6.560   6.271  0.7651 -0.1509  0.7969
  807MOL0     C11256   5.943   6.702   6.304  0.3829  0.2889  0.7081
  807MOL0     C11257   6.075   6.532   6.157 -1.1100 -0.3901 -0.4371
  807MOL0     C11258   6.123   6.637   6.050  0.6989 -0.4668  0.4822
  807MOL0     O11259   6.213   6.584   5.959  0.6787 -0.1273 -0.0560
  807MOL0     C11260   6.222   6.637   5.840 -0.6744  1.3136  0.0821
  807MOL0     C11261   6.165   6.576   5.734  0.2419  0.0315  0.4672
  807MOL0     C11262   6.186   6.623   5.603  0.1515  0.2690  0.0494
  807MOL0     C11263   6.256   6.749   5.581  0.6031  0.6059  0.7662
  807MOL0     O11264   6.272   6.785   5.455  0.6065  0.3602  1.3158
  807MOL0     C11265   6.320   6.918   5.430 -0.3501 -0.2555  0.0013
  807MOL0     C11266   6.325   6.960   5.288 -0.8624  0.0508  0.1698
  807MOL0     C11267   6.347   6.833   5.189 -0.0979 -0.1508  0.2690
  807MOL0     C11268   6.494   6.774   5.205  0.3979 -0.7700  1.3104
  807MOL0     C11269   6.551   6.726   5.068 -0.3587 -0.2234  0.8921
  807MOL0     C11270   6.458   6.622   4.997  0.5303 -0.4312 -0.4208
  807MOL0     C11271   6.488   6.615   4.848 -0.6261  0.3124 -0.4016
  807MOL0     C11272   6.390   6.520   4.766 -0.0451 -0.2692 -1.4629
  807MOL0    Cl11273   6.294   6.428   4.885  0.0433  0.0130 -0.3284
  807MOL0     C11274   6.314   6.811   5.689 -0.5876  0.8392 -0.9227
  807MOL0     C11275   6.297   6.756   5.819  0.5704  0.9258  0.7582
  807MOL0     O11276   6.077   6.750   6.041 -0.0843  0.4635 -0.5328
  807MOL0     C11277   6.109   6.394   6.138  0.0467  0.1394  0.9611
  807MOL0     C11278   6.057   6.297   6.224 -0.1265 -0.0209  0.9884
  807MOL0     N11279   6.211   5.898   6.701 -0.4831 -0.0740  0.6150
  807MOL0     N11280   6.237   5.835   6.799 -0.2995 -0.6319  0.6741
  807MOL0     C11281   5.383   5.089   7.118  0.1954  0.5042  0.5317
  807MOL0     C11282   5.247   5.093   7.118 -0.1676 -0.6941  0.4741
  807MOL0     C11283   4.806   5.155   7.172 -0.1783 -0.0586 -0.1931
  807MOL0     C11284   4.704   5.089   7.243 -0.0774 -0.4717 -0.2960
  807MOL0     C11285   4.573   5.142   7.251 -0.0896  0.8359 -0.3187
  807MOL0     C11286   4.546   5.249   7.175  0.5668  0.2539 -0.8413
  807MOL0     O11287   4.412   5.280   7.188 -0.6065 -0.2530  0.0546
  807MOL0     C11288   4.367   5.361   7.081  0.1577 -0.7160  0.6128
  807MOL0     C11289   4.214   5.372   7.085 -0.5210 -0.1479  0.2354
  807MOL0     C11290   4.154   5.465   6.981 -0.7822 -0.2202 -0.2120
  807MOL0     C11291   4.118   5.608   7.033  0.5930 -0.6937  0.1697
  807MOL0     C11292   4.237   5.681   7.086 -1.0189 -0.0892 -0.6095
  807MOL0     C11293   4.341   5.743   7.135 -0.5995  0.2246  0.4607
  807MOL0     C11294   4.640   5.322   7.108 -0.8341  0.5467  0.0293
  807MOL0     C11295   4.771   5.275   7.101  0.0171  1.4467 -0.5310
  807MOL0     C11296   4.864   5.354   7.010 -0.3451 -0.2481 -0.1532
  807MOL0     H11297   5.182   5.361   7.305  1.0441  2.0710 -1.2676
  807MOL0     H11298   5.425   5.379   7.298  0.6462 -0.7324 -0.5729
  807MOL0     H11299   5.601   5.081   7.006 -1.7614 -1.4748  1.0226
  807MOL0     H11300   5.688   5.007   7.149 -0.1323  0.7229  2.2562
  807MOL0     H11301   5.860   5.093   7.016 -0.0318 -0.9222  3.1885
  807MOL0     H11302   5.769   5.239   6.968  1.2678 -0.9163 -1.4174
  807MOL0     H11303   5.829   5.339   7.194  0.5193 -0.8572  2.3223
  807MOL0     H11304   5.878   5.184   7.255  0.4675  0.2645  0.8887
  807MOL0     H11305   6.079   5.311   7.188  1.1647 -2.5449 -0.1687
  807MOL0     H11306   6.072   5.192   7.063  0.6494 -0.7071  1.4518
  807MOL0     H11307   5.962   5.478   7.050 -1.5599 -0.0132 -0.8026
  807MOL0     H11308   5.958   5.356   6.919 -0.3999  0.8138  0.1278
  807MOL0     H11309   6.226   5.441   7.043  1.9250 -0.9970 -0.5143
  807MOL0     H11310   6.192   5.339   6.901  0.0495  1.5773 -1.5238
  807MOL0     H11311   6.075   5.546   6.797  0.0201 -1.9053 -0.5348
  807MOL0     H11312   6.243   5.569   6.815  0.2305  0.3791  0.9372
  807MOL0     H11313   6.024   5.667   7.007 -0.2424 -0.5007 -1.6690
  807MOL0     H11314   6.209   5.674   7.027  0.1325  3.9223  1.8261
  807MOL0     H11315   5.914   5.846   6.823  0.1087  1.6919 -1.3995
  807MOL0     H11316   5.992   5.937   6.495 -0.6745  1.4290 -0.4630
  807MOL0     H11317   6.084   6.068   6.564  1.3193 -0.7274  0.1129
  807MOL0     H11318   5.820   5.969   6.678  0.4797  0.8513  1.4714
  807MOL0     H11319   5.905   6.123   6.723 -2.9417  0.2101 -0.0951
  807MOL0     H11320   5.788   6.065   6.444  0.0606 -0.4678  0.1791
  807MOL0     H11321   5.699   6.122   6.594  1.6104 -0.1122  2.0020
  807MOL0     H11322   5.762   6.312   6.484 -0.8428 -0.7140 -0.2712
  807MOL0     H11323   5.889   6.299   6.602  0.0927  1.4400 -0.1822
  807MOL0     H11324   5.887   6.490   6.438 -0.4672  1.1125 -0.4703
  807MOL0     H11325   6.008   6.788   6.284  1.0964 -0.6912 -1.4911
  807MOL0     H11326   5.912   6.699   6.409 -0.8768 -1.3814  0.3334
  807MOL0     H11327   5.858   6.711   6.237 -1.4624  3.2525  3.1987
  807MOL0     H11328   6.093   6.495   5.741 -0.2644  0.1560 -2.1460
  807MOL0     H11329   6.144   6.573   5.516 -0.7545 -0.2318  0.7566
  807MOL0     H11330   6.251   6.987   5.480  0.6655  1.3100 -0.6738
  807MOL0     H11331   6.420   6.948   5.465 -1.3964  4.0934 -0.0727
  807MOL0     H11332   6.238   7.022   5.267 -3.3024 -2.2068  2.8430
  807MOL0     H11333   6.409   7.030   5.284 -1.5956  0.9558  0.2552
  807MOL0     H11334   6.343   6.876   5.089  0.6768 -0.4336  0.1068
  807MOL0     H11335   6.278   6.749   5.202  1.1256 -1.3090 -0.4450
  807MOL0     H11336   6.493   6.689   5.274 -0.4052 -0.9402  1.1069
  807MOL0     H11337   6.561   6.856   5.233 -0.0638  0.4432 -0.8949
  807MOL0     H11338   6.563   6.808   4.997 -2.1913 -0.4893  0.2103
  807MOL0     H11339   6.655   6.695   5.078 -0.1874  0.2949  0.7132
  807MOL0     H11340   6.364   6.676   5.009 -0.1594 -1.7840  0.5008
  807MOL0     H11341   6.453   6.523   5.044 -0.7838 -0.5186 -0.7012
  807MOL0     H11342   6.590   6.583   4.824  0.2838  0.2708  2.9271
  807MOL0     H11343   6.474   6.713   4.802  2.7252 -0.6052 -3.9496
  807MOL0     H11344   6.445   6.458   4.694  0.1889 -2.7206  0.6903
  807MOL0     H11345   6.319   6.573   4.702  1.0914  0.3571 -2.2478
  807MOL0     H11346   6.368   6.905   5.680 -0.6023  0.7832 -1.6401
  807MOL0     H11347   6.338   6.793   5.912  2.1473 -1.7066  1.1951
  807MOL0     H11348   6.159   6.375   6.043 -3.8367 -2.9253 -0.7762
  807MOL0     H11349   6.079   6.191   6.211 -0.1586  0.1211 -0.2813
  807MOL0     H11350   5.427   5.006   7.064  0.7720 -0.7484  2.7961
  807MOL0     H11351   5.195   5.014   7.064 -2.7212  1.6525 -0.7881
  807MOL0     H11352   4.728   4.994   7.290  0.8007 -0.9015 -1.5685
  807MOL0     H11353   4.495   5.101   7.315  1.5363 -0.3346  0.9876
  807MOL0     H11354   4.402   5.464   7.094 -3.2532  0.4432  1.6175
  807MOL0     H11355   4.396   5.315   6.987 -1.8868  1.0452 -0.9877
  807MOL0     H11356   4.201   5.414   7.185  2.1096 -2.0904  1.5156
  807MOL0     H11357   4.182   5.268   7.072  2.0711 -0.8980 -0.7328
  807MOL0     H11358   4.215   5.472   6.890 -1.7580  2.1111 -0.7557
  807MOL0     H11359   4.063   5.416   6.946  0.1088 -1.0009 -1.5393
  807MOL0     H11360   4.036   5.600   7.104  0.6408  1.0697  0.4538
  807MOL0     H11361   4.074   5.661   6.948  1.6666 -1.4286 -0.8974
  807MOL0     H11362   4.416   5.801   7.184 -0.5247  0.0362  0.5710
  807MOL0     H11363   4.610   5.399   7.038 -0.3140 -2.3709 -3.7570
  807MOL0     H11364   4.879   5.444   7.071 -1.0568 -1.0433  1.2662
  807MOL0     H11365   4.959   5.310   6.979  0.0532  2.6292 -3.6667
  807MOL0     H11366   4.807   5.378   6.920  0.2961 -1.6090 -0.9425
  808MOL0     O11367   2.965   6.412  11.054  0.6102 -0.1693 -0.6192
  808MOL0     C11368   2.895   6.463  11.136  1.4335 -0.3104  0.2896
  808MOL0     O11369   2.872   6.601  11.146  0.2435 -0.4321  0.2767
  808MOL0     C11370   2.922   6.688  11.050 -0.2259 -0.3877  0.8701
  808MOL0     C11371   2.821   6.747  10.972 -0.3345 -0.2090 -0.7126
  808MOL0     C11372   2.852   6.841  10.867 -0.3138  0.1974 -0.4518
  808MOL0     C11373   2.991   6.866  10.841  0.5594 -0.6076 -0.5933
  808MOL0     O11374   3.043   6.961  10.756  0.4004 -0.2290  0.0990
  808MOL0     C11375   2.987   6.997  10.626 -0.1149  0.6470  0.9599
  808MOL0     C11376   2.944   7.144  10.610  0.3802 -1.4345  0.2604
  808MOL0     C11377   2.868   7.171  10.481 -0.8131  0.2434 -0.0431
  808MOL0     C11378   2.827   7.317  10.442 -0.2299  1.0194  0.0095
  808MOL0     C11379   2.734   7.375  10.553  0.3127 -0.3428  0.3220
  808MOL0     C11380   2.664   7.509  10.523 -0.8343  0.2647  0.3723
  808MOL0     C11381   2.755   7.624  10.472  0.7227 -0.2841  0.0651
  808MOL0     C11382   2.676   7.760  10.469  0.4547  0.5046  0.2590
  808MOL0     N11383   2.750   7.870  10.405 -0.5535 -0.2843  0.6264
  808MOL0     C11384   2.810   7.973  10.471 -0.2235 -0.2621 -0.9033
  808MOL0     C11385   2.853   8.054  10.372 -0.0891 -0.3226  0.2301
  808MOL0     C11386   2.952   8.172  10.397  0.1698  1.2463  0.3243
  808MOL0     C11387   3.084   8.141  10.459 -0.6485  0.6539 -0.0638
  808MOL0     C11388   3.112   8.180  10.610 -0.1186 -0.1308  0.0632
  808MOL0     C11389   3.264   8.191  10.643  0.3943 -0.0521  0.9331
  808MOL0     O11390   3.327   8.287  10.544 -0.4139  0.6629 -0.0970
  808MOL0     C11391   3.413   8.386  10.598  0.5214  0.8850 -0.8273
  808MOL0     C11392   3.506   8.360  10.714 -0.0222 -0.0082  0.5018
  808MOL0     C11393   3.603   8.458  10.744  0.0470  0.1093  0.6623
  808MOL0     C11394   3.695   8.415  10.851 -1.2610  0.0366 -0.0514
  808MOL0     C11395   3.577   8.591  10.687  0.2942  0.6672 -0.0750
  808MOL0     C11396   3.645   8.712  10.724  0.6707 -0.3517  0.8421
  808MOL0     O11397   3.783   8.702  10.696  0.0572  0.0738 -0.0412
  808MOL0     C11398   3.880   8.801  10.726 -0.2733  0.3691 -0.1549
  808MOL0     C11399   3.845   8.939  10.737  0.6675 -0.4293  0.6326
  808MOL0     C11400   3.942   9.030  10.789 -0.5652 -0.4582  0.2950
  808MOL0     C11401   4.071   8.981  10.816  0.0735  0.2141 -1.1408
  808MOL0     O11402   4.169   9.059  10.881  0.0790  0.6296 -0.1189
  808MOL0     C11403   4.216   9.152  10.780 -0.3341  0.9293 -0.1807
  808MOL0     C11404   4.333   9.249  10.827 -0.3089  0.4777  0.0799
  808MOL0     C11405   4.474   9.193  10.854 -0.4044 -0.5050  1.1749
  808MOL0     C11406   4.571   9.306  10.894  0.1536  0.3966  0.4181
  808MOL0     C11407   4.706   9.257  10.955 -0.2739  0.4197 -0.6826
  808MOL0     C11408   4.791   9.153  10.880 -0.1381 -0.1623  0.4436
  808MOL0     C11409   4.863   9.204  10.752  0.1629 -0.5457  0.3565
  808MOL0     C11410   4.918   9.349  10.765  0.2061  0.4478  0.3026
  808MOL0    Cl11411   5.067   9.384  10.684 -0.7752  0.0851 -0.0962
  808MOL0     C11412   4.109   8.853  10.800  0.0881 -0.6105 -0.0427
  808MOL0     C11413   4.009   8.762  10.752  0.7922 -0.1552  0.0758
  808MOL0     O11414   3.591   8.809  10.768 -0.5146  0.3552  0.2084
  808MOL0     C11415   3.486   8.616  10.589  0.4652  0.1976  0.5962
  808MOL0     C11416   3.396   8.510  10.549 -0.5716  0.2927  0.3586
  808MOL0     N11417   2.820   8.000  10.259 -0.5524 -0.5717 -0.0690
  808MOL0     N11418   2.753   7.895  10.273  0.5012 -0.0204  0.5205
  808MOL0     C11419   3.086   6.808  10.927  0.0582  0.4851 -1.1765
  808MOL0     C11420   3.055   6.714  11.028  0.1414 -0.0660 -0.8751
  808MOL0     C11421   2.818   6.367  11.223 -1.1930  1.0396 -0.9811
  808MOL0     C11422   2.715   6.415  11.307 -1.8773  0.5804  0.0990
  808MOL0     C11423   2.622   6.336  11.373  0.0481  0.3373 -0.3510
  808MOL0     C11424   2.636   6.195  11.371  1.4155  0.5653  0.1031
  808MOL0     O11425   2.553   6.105  11.438  0.6946 -0.9355  0.4285
  808MOL0     C11426   2.419   6.139  11.476  0.4069  0.3410  0.0186
  808MOL0     C11427   2.364   6.043  11.582 -0.0330 -0.0917 -0.8239
  808MOL0     C11428   2.336   5.907  11.524 -0.2340 -0.0443  0.3026
  808MOL0     C11429   2.254   5.826  11.620 -0.2169 -0.3964 -0.2559
  808MOL0     C11430   2.246   5.692  11.560 -0.6587 -0.2134 -0.2534
  808MOL0     C11431   2.237   5.584  11.512 -0.9104 -0.8900 -0.1361
  808MOL0     C11432   2.749   6.141  11.307  0.9403 -0.8008  0.5580
  808MOL0     C11433   2.837   6.225  11.228 -0.3740 -0.4307 -0.1180
  808MOL0     C11434   2.946   6.148  11.159 -0.3376  0.2038  0.7593
  808MOL0     H11435   2.719   6.709  10.972 -0.1317 -0.7783 -1.5826
  808MOL0     H11436   2.774   6.896  10.814 -0.3956  1.6658  1.0995
  808MOL0     H11437   2.909   6.921  10.610 -0.4100  0.9327  1.0178
  808MOL0     H11438   3.066   6.987  10.552 -1.2101  2.3012 -0.5186
  808MOL0     H11439   2.888   7.182  10.696  4.2120  1.4583  1.8178
  808MOL0     H11440   3.031   7.211  10.603 -1.4515  0.9076 -2.3170
  808MOL0     H11441   2.922   7.125  10.398  0.5648 -0.5178  1.2157
  808MOL0     H11442   2.779   7.109  10.482  1.6456 -3.6663 -1.5003
  808MOL0     H11443   2.921   7.370  10.421  0.7538 -1.1084 -1.3244
  808MOL0     H11444   2.773   7.323  10.347  0.1000  0.2270 -0.2401
  808MOL0     H11445   2.789   7.384  10.647  0.0126 -3.5026  0.9280
  808MOL0     H11446   2.655   7.301  10.572  0.1497 -0.5280 -0.9705
  808MOL0     H11447   2.591   7.488  10.445 -0.6459 -0.1974  0.3138
  808MOL0     H11448   2.607   7.529  10.614 -2.8323 -3.8925  0.2769
  808MOL0     H11449   2.792   7.597  10.373 -0.4457  3.1737 -1.4496
  808MOL0     H11450   2.839   7.643  10.539  0.6283  0.6261 -0.0600
  808MOL0     H11451   2.577   7.747  10.426  0.1532 -1.3744  1.4146
  808MOL0     H11452   2.655   7.777  10.575 -2.8513 -0.2569 -0.1650
  808MOL0     H11453   2.851   7.975  10.571  0.5871  1.4954 -1.2456
  808MOL0     H11454   2.900   8.248  10.456 -1.9758  0.0856  0.0259
  808MOL0     H11455   2.979   8.211  10.298  5.0022 -2.2808 -0.1331
  808MOL0     H11456   3.089   8.032  10.454 -2.4651  0.3352  2.8735
  808MOL0     H11457   3.163   8.170  10.389  0.6116 -2.8092 -0.3084
  808MOL0     H11458   3.072   8.275  10.648  0.8054  0.8413 -1.3016
  808MOL0     H11459   3.062   8.105  10.672 -0.2413 -0.2003 -0.1174
  808MOL0     H11460   3.270   8.230  10.745 -1.1173 -5.3132  3.3673
  808MOL0     H11461   3.312   8.093  10.640  0.4913 -0.0238  1.5283
  808MOL0     H11462   3.498   8.259  10.752 -0.0506 -0.3774 -0.4376
  808MOL0     H11463   3.775   8.343  10.832  0.9887  2.1951  0.6434
  808MOL0     H11464   3.625   8.382  10.928 -2.9704  4.2373  0.4904
  808MOL0     H11465   3.739   8.507  10.891 -0.6669 -1.0384  1.8731
  808MOL0     H11466   3.746   8.980  10.718  1.3241  0.7868 -0.2656
  808MOL0     H11467   3.929   9.135  10.815  2.4662  0.5967 -1.8032
  808MOL0     H11468   4.254   9.096  10.693  0.2648 -0.9806  1.2337
  808MOL0     H11469   4.134   9.218  10.753 -1.1685  0.0377  0.1340
  808MOL0     H11470   4.340   9.333  10.757 -1.6937  1.5404  1.1376
  808MOL0     H11471   4.311   9.303  10.920  2.8781 -3.1781  3.2997
  808MOL0     H11472   4.517   9.160  10.759 -3.3107  0.7833 -0.7607
  808MOL0     H11473   4.458   9.105  10.916 -3.1220 -1.3894 -0.6002
  808MOL0     H11474   4.527   9.377  10.964  2.5244  0.4138  2.0202
  808MOL0     H11475   4.592   9.370  10.807 -2.0669 -0.7561 -1.0465
  808MOL0     H11476   4.764   9.344  10.984 -3.3929  2.1110  1.0571
  808MOL0     H11477   4.688   9.194  11.043 -2.5784 -0.9836 -2.0365
  808MOL0     H11478   4.738   9.061  10.853 -2.5651  2.1713 -3.8736
  808MOL0     H11479   4.869   9.126  10.952 -1.0315 -0.1324  1.4606
  808MOL0     H11480   4.783   9.209  10.678 -0.9241 -1.2626  1.4488
  808MOL0     H11481   4.944   9.134  10.730 -0.0460 -0.7687  0.2972
  808MOL0     H11482   4.942   9.374  10.869 -0.2677  1.2375  0.2299
  808MOL0     H11483   4.831   9.414  10.752 -3.6223 -3.6525  2.8729
  808MOL0     H11484   4.217   8.842  10.810  0.2733  2.2806  2.8693
  808MOL0     H11485   4.037   8.659  10.732  1.3369  0.3446 -1.9163
  808MOL0     H11486   3.473   8.711  10.539 -2.8638 -0.5623 -0.2290
  808MOL0     H11487   3.324   8.528  10.469  0.5662  2.5895 -0.2502
  808MOL0     H11488   3.191   6.830  10.908  0.0540 -0.8312 -3.0299
  808MOL0     H11489   3.128   6.671  11.097  2.1507  3.1308 -0.7604
  808MOL0     H11490   2.694   6.521  11.300  1.5040  1.3340 -0.5035
  808MOL0     H11491   2.534   6.378  11.421 -0.9844 -0.0136 -1.8692
  808MOL0     H11492   2.410   6.239  11.519  2.9708  1.5175 -1.8830
  808MOL0     H11493   2.349   6.123  11.393  2.1747 -0.2297 -1.4275
  808MOL0     H11494   2.277   6.094  11.626  0.8169  0.3219  0.4510
  808MOL0     H11495   2.447   6.046  11.653  0.8358  1.5550 -1.8406
  808MOL0     H11496   2.294   5.918  11.423  1.3903  1.5303 -0.2521
  808MOL0     H11497   2.434   5.863  11.503 -1.2320 -1.4184 -1.8047
  808MOL0     H11498   2.153   5.869  11.623  0.4608  1.2545  2.9378
  808MOL0     H11499   2.295   5.829  11.721  0.4854 -2.6694 -0.4172
  808MOL0     H11500   2.211   5.489  11.471 -0.9759 -0.8461 -0.1952
  808MOL0     H11501   2.771   6.035  11.309  0.4290 -0.9087  0.5833
  808MOL0     H11502   2.921   6.151  11.053 -0.5397  0.4719  0.8156
  808MOL0     H11503   3.037   6.184  11.209 -1.5208 -0.7904  3.8828
  808MOL0     H11504   2.967   6.048  11.199  1.9470  0.5899  0.6659
  809MOL0     O11505   9.080   4.685   4.201  0.3409  0.1921  0.4135
  809MOL0     C11506   9.099   4.564   4.196  0.0335 -0.5353  1.0959
  809MOL0     O11507   9.196   4.505   4.128  0.1310 -0.3115  0.0598
  809MOL0     C11508   9.319   4.562   4.137  0.0092  0.1298  0.0557
  809MOL0     C11509   9.402   4.506   4.236 -0.4793 -0.1780  0.2865
  809MOL0     C11510   9.538   4.550   4.249  0.2479  0.5084  1.2092
  809MOL0     C11511   9.588   4.652   4.169 -0.0870  0.3389  0.4083
  809MOL0     O11512   9.717   4.699   4.165  0.2732 -0.0472  0.1500
  809MOL0     C11513   9.813   4.645   4.253  0.0484  1.1513  0.6256
  809MOL0     C11514   9.795   4.712   4.383 -0.9011  0.1352  0.7272
  809MOL0     C11515   9.817   4.868   4.383  0.7354  0.4382  0.2063
  809MOL0     C11516   9.688   4.937   4.369  0.0480 -0.2350  0.2365
  809MOL0     C11517   9.705   5.093   4.380  0.0568 -1.0499  0.3194
  809MOL0     C11518   9.759   5.158   4.250  0.2063 -0.7318 -0.4474
  809MOL0     C11519   9.693   5.128   4.116  0.4963  0.4655  0.8454
  809MOL0     C11520   9.542   5.171   4.117  0.2608  0.0157  0.1736
  809MOL0     N11521   9.459   5.129   4.012 -0.5338 -0.2706  0.0517
  809MOL0     C11522   9.470   5.185   3.891  0.2611 -0.9212 -0.1081
  809MOL0     C11523   9.435   5.091   3.805 -0.0751  0.9867  0.1581
  809MOL0     C11524   9.425   5.118   3.653  0.3122  0.1812  0.2049
  809MOL0     C11525   9.339   5.233   3.619 -0.1465  0.1377  0.6658
  809MOL0     C11526   9.197   5.201   3.665 -0.2542 -0.2763 -0.0375
  809MOL0     C11527   9.152   5.056   3.621  0.4697  0.2444  0.2511
  809MOL0     O11528   9.012   5.050   3.639 -0.2230  0.0616 -0.6526
  809MOL0     C11529   8.960   4.923   3.642 -0.1071  0.2434 -1.0932
  809MOL0     C11530   8.997   4.834   3.745 -0.0670 -0.0586  0.4502
  809MOL0     C11531   8.959   4.698   3.750 -0.4358  0.2667 -0.7676
  809MOL0     C11532   9.024   4.610   3.847  0.1974  0.1880  0.0095
  809MOL0     C11533   8.852   4.651   3.662 -0.3491 -0.1149 -0.5457
  809MOL0     C11534   8.784   4.523   3.671  0.1067  0.1597 -0.4800
  809MOL0     O11535   8.714   4.486   3.563 -0.1472  0.7611  0.0332
  809MOL0     C11536   8.662   4.357   3.545 -0.3316  0.1712 -0.0130
  809MOL0     C11537   8.547   4.350   3.476  0.7440  0.3659  0.5662
  809MOL0     C11538   8.476   4.224   3.445 -1.3381 -0.2774 -0.2146
  809MOL0     C11539   8.530   4.106   3.499 -1.1039 -0.2816 -0.8145
  809MOL0     O11540   8.463   3.985   3.472  0.8639 -0.6322 -0.5087
  809MOL0     C11541   8.508   3.857   3.523 -0.2590 -0.6836 -0.4943
  809MOL0     C11542   8.415   3.746   3.500  0.1721  0.1259  1.3564
  809MOL0     C11543   8.443   3.619   3.580 -0.0519 -0.5116 -0.9170
  809MOL0     C11544   8.332   3.519   3.536  0.6494 -0.4022 -0.2890
  809MOL0     C11545   8.377   3.375   3.580  0.2434  1.6162  0.4787
  809MOL0     C11546   8.273   3.268   3.574 -0.2440  0.1578  0.5084
  809MOL0     C11547   8.303   3.140   3.647  0.3492  0.0032  0.5162
  809MOL0     C11548   8.188   3.035   3.627  0.4923 -0.4949 -0.4044
  809MOL0    Cl11549   8.261   2.868   3.648 -0.0095 -0.2563 -0.7956
  809MOL0     C11550   8.647   4.112   3.576  0.6014 -0.5115 -0.5477
  809MOL0     C11551   8.711   4.239   3.603  0.4163 -0.3180  0.1348
  809MOL0     O11552   8.768   4.471   3.783 -0.0575 -0.0077  0.2742
  809MOL0     C11553   8.809   4.743   3.565  1.6785  0.4228  0.7300
  809MOL0     C11554   8.861   4.873   3.549 -0.7948 -0.2061 -1.0110
  809MOL0     N11555   9.401   4.974   3.877 -0.4441 -0.2529 -0.2422
  809MOL0     N11556   9.417   5.002   3.998  0.3067 -0.0154 -1.2374
  809MOL0     C11557   9.498   4.714   4.083  0.3404 -0.6660  0.6108
  809MOL0     C11558   9.363   4.670   4.059  0.0556  0.0393  0.5091
  809MOL0     C11559   8.999   4.470   4.257 -0.9816  0.3375 -0.0407
  809MOL0     C11560   9.008   4.332   4.233  0.6020 -0.0941 -0.7614
  809MOL0     C11561   8.919   4.240   4.303 -0.4518 -0.3359 -0.5802
  809MOL0     C11562   8.830   4.278   4.403  0.0079  0.0892  0.7349
  809MOL0     O11563   8.760   4.181   4.474 -0.0486 -0.5135 -0.6321
  809MOL0     C11564   8.675   4.206   4.592 -0.9937 -0.3464 -0.0920
  809MOL0     C11565   8.548   4.281   4.543  0.6764  0.4322  0.1781
  809MOL0     C11566   8.416   4.207   4.566  0.1247  0.2109  0.8352
  809MOL0     C11567   8.396   4.082   4.478 -1.1613 -0.3625 -0.1400
  809MOL0     C11568   8.275   3.993   4.504 -0.5241 -0.5512 -0.0890
  809MOL0     C11569   8.171   3.934   4.526  0.1137  0.5446 -0.5904
  809MOL0     C11570   8.826   4.414   4.428 -0.5629  0.4265 -0.2066
  809MOL0     C11571   8.899   4.515   4.349 -0.6782  0.3046 -0.0518
  809MOL0     C11572   8.889   4.650   4.398  0.5945  0.1638 -0.2980
  809MOL0     H11573   9.378   4.418   4.295  0.3314  0.2714  1.3093
  809MOL0     H11574   9.606   4.490   4.309  4.0098 -0.0785 -3.1255
  809MOL0     H11575   9.908   4.672   4.205 -0.6547  2.2809 -0.1656
  809MOL0     H11576   9.805   4.537   4.267  1.1121  1.1157  1.0837
  809MOL0     H11577   9.690   4.688   4.404 -1.9507  0.9934 -2.8271
  809MOL0     H11578   9.862   4.670   4.458  0.4307  0.5064 -0.2090
  809MOL0     H11579   9.874   4.898   4.472  0.4099  0.2463  0.4853
  809MOL0     H11580   9.877   4.909   4.301  2.7265  2.1415  2.3732
  809MOL0     H11581   9.655   4.917   4.267  0.5340 -0.4108  0.1098
  809MOL0     H11582   9.613   4.905   4.442 -2.7729  1.8994 -1.5323
  809MOL0     H11583   9.754   5.125   4.472 -0.1075  1.1551 -0.3179
  809MOL0     H11584   9.601   5.126   4.392 -0.6697 -2.5108 -1.4089
  809MOL0     H11585   9.774   5.267   4.254 -0.8461 -0.5773 -0.4515
  809MOL0     H11586   9.859   5.113   4.248 -0.2939 -1.9281  0.5568
  809MOL0     H11587   9.713   5.024   4.091 -1.1505  0.4237 -0.4292
  809MOL0     H11588   9.734   5.195   4.039 -2.8073  0.1803 -1.3607
  809MOL0     H11589   9.501   5.122   4.206  0.8021 -1.2059 -0.2261
  809MOL0     H11590   9.517   5.277   4.119 -2.3329 -0.5394  1.1826
  809MOL0     H11591   9.495   5.282   3.849 -0.1939 -1.4206 -1.6076
  809MOL0     H11592   9.401   5.026   3.599  0.8029 -0.2681  0.7494
  809MOL0     H11593   9.527   5.147   3.626  1.7771 -3.8974  0.6780
  809MOL0     H11594   9.360   5.329   3.668 -2.6555  1.3459 -0.4554
  809MOL0     H11595   9.337   5.253   3.512  1.4955  2.4563  0.9786
  809MOL0     H11596   9.194   5.212   3.774 -2.1888  0.6192 -0.1445
  809MOL0     H11597   9.126   5.268   3.617  0.0123 -2.0196 -3.0961
  809MOL0     H11598   9.162   5.047   3.512  1.2592 -1.0775  0.4130
  809MOL0     H11599   9.212   4.977   3.667  2.5775  0.8749 -1.2354
  809MOL0     H11600   9.063   4.886   3.813  0.2142  3.7134 -2.3473
  809MOL0     H11601   8.958   4.572   3.925 -0.8699  1.5719 -0.1892
  809MOL0     H11602   9.097   4.666   3.907 -3.2485 -0.0676  5.0360
  809MOL0     H11603   9.064   4.524   3.793  0.0309 -0.7145  1.2673
  809MOL0     H11604   8.510   4.437   3.423 -2.6984 -0.3644  1.4590
  809MOL0     H11605   8.396   4.229   3.372 -0.8983  0.7026 -0.6457
  809MOL0     H11606   8.607   3.834   3.482  0.5003  2.0201 -0.3109
  809MOL0     H11607   8.526   3.880   3.628  1.9972 -2.4959 -0.4046
  809MOL0     H11608   8.311   3.777   3.511  0.0823  0.5302 -0.2685
  809MOL0     H11609   8.423   3.728   3.392  0.6069  0.8910  1.2552
  809MOL0     H11610   8.449   3.634   3.688 -0.0198  1.1602 -1.1139
  809MOL0     H11611   8.540   3.574   3.555  1.3910  2.0378 -0.3195
  809MOL0     H11612   8.314   3.524   3.428  0.6691  2.9496 -0.2509
  809MOL0     H11613   8.239   3.552   3.583 -0.0334 -3.1647  0.4610
  809MOL0     H11614   8.454   3.342   3.510 -0.7146 -0.2392  0.2317
  809MOL0     H11615   8.414   3.371   3.683  0.2766  1.8154  0.4739
  809MOL0     H11616   8.249   3.248   3.469 -7.0884  0.1992  1.5611
  809MOL0     H11617   8.179   3.308   3.615  0.8856  2.1518  1.3024
  809MOL0     H11618   8.326   3.168   3.751  4.3255  3.9874 -1.0679
  809MOL0     H11619   8.390   3.082   3.615  0.3315 -0.1811  0.8022
  809MOL0     H11620   8.155   3.037   3.523 -0.7537  0.8857 -0.0207
  809MOL0     H11621   8.100   3.056   3.689 -0.4631  3.2342 -2.7731
  809MOL0     H11622   8.696   4.024   3.616  1.3767 -0.8672 -2.2032
  809MOL0     H11623   8.808   4.226   3.651 -1.8407 -2.1412  4.9024
  809MOL0     H11624   8.724   4.733   3.497  3.1494  1.6632 -1.4154
  809MOL0     H11625   8.818   4.933   3.470 -2.8373 -1.8024 -1.1746
  809MOL0     H11626   9.533   4.795   4.021 -0.9491  2.1374  3.2950
  809MOL0     H11627   9.321   4.719   3.972  1.2436  6.6984  3.0732
  809MOL0     H11628   9.085   4.293   4.167  1.2541  0.9675 -0.6490
  809MOL0     H11629   8.942   4.134   4.297 -1.0572 -0.3814 -3.0302
  809MOL0     H11630   8.660   4.104   4.626  1.1302 -0.1454  1.6663
  809MOL0     H11631   8.731   4.260   4.669  0.3167  2.0038 -2.5075
  809MOL0     H11632   8.560   4.302   4.436 -1.8920 -0.8160 -0.4590
  809MOL0     H11633   8.546   4.366   4.611  0.4004 -0.1402  0.9028
  809MOL0     H11634   8.417   4.173   4.670  1.1573  0.8147  1.0406
  809MOL0     H11635   8.333   4.273   4.536  1.0050  0.2926 -1.5817
  809MOL0     H11636   8.485   4.020   4.486 -3.1016 -3.1095  2.0451
  809MOL0     H11637   8.380   4.114   4.374 -4.0264  1.3694  0.7117
  809MOL0     H11638   8.090   3.877   4.567 -1.5338  3.4552  0.5061
  809MOL0     H11639   8.755   4.454   4.498 -4.3663 -2.4278 -2.0667
  809MOL0     H11640   8.870   4.707   4.306  0.0979  1.7971  0.7770
  809MOL0     H11641   8.817   4.663   4.479 -1.1238 -1.1401 -1.5431
  809MOL0     H11642   8.985   4.689   4.431  0.0319  1.5929 -0.2552
  810MOL0     O11643  11.399   9.140   3.271 -0.7648  0.1433  0.0418
  810MOL0     C11644  11.284   9.152   3.303  0.0088  0.4540 -0.5065
  810MOL0     O11645  11.181   9.113   3.216  0.8412  0.2048 -0.2509
  810MOL0     C11646  11.195   9.007   3.128  0.7105  0.5756 -0.1256
  810MOL0     C11647  11.222   8.867   3.163  0.1247  0.4640  0.4274
  810MOL0     C11648  11.199   8.770   3.062 -1.1629  0.7672  0.1188
  810MOL0     C11649  11.159   8.804   2.929  0.4983 -0.0612 -0.4815
  810MOL0     O11650  11.121   8.713   2.842 -1.0896  0.2317  0.4055
  810MOL0     C11651  11.224   8.693   2.737  0.8870  0.1389  1.1872
  810MOL0     C11652  11.323   8.593   2.792 -1.1723  0.0263  0.0209
  810MOL0     C11653  11.396   8.489   2.694 -0.3991  0.2963 -0.1497
  810MOL0     C11654  11.446   8.362   2.770  0.7859  0.0243 -0.2215
  810MOL0     C11655  11.517   8.271   2.670 -0.4224  0.3766 -0.1041
  810MOL0     C11656  11.601   8.155   2.736  0.7215  0.2341  0.3319
  810MOL0     C11657  11.744   8.207   2.728 -0.4637  0.3908  0.6627
  810MOL0     C11658  11.833   8.112   2.814 -0.3061 -0.5825 -0.4472
  810MOL0     N11659  11.837   7.975   2.768 -1.0437 -0.1705 -0.5423
  810MOL0     C11660  11.799   7.866   2.841  0.5699  0.1741  0.0252
  810MOL0     C11661  11.855   7.759   2.775  1.3036 -0.5691  0.4214
  810MOL0     C11662  11.848   7.600   2.786  0.0903 -0.6358  0.8543
  810MOL0     C11663  11.797   7.563   2.923 -0.3300 -0.3985  1.1162
  810MOL0     C11664  11.775   7.415   2.933  0.2082 -0.1682  0.5657
  810MOL0     C11665  11.650   7.376   2.854  0.1228 -0.4600 -0.5890
  810MOL0     O11666  11.560   7.282   2.919  0.2050 -0.4524 -0.1039
  810MOL0     C11667  11.513   7.191   2.826 -0.7352  0.2295 -0.9234
  810MOL0     C11668  11.457   7.222   2.700 -1.1917  0.3281 -0.0469
  810MOL0     C11669  11.410   7.117   2.614  0.6144 -0.5060  0.2207
  810MOL0     C11670  11.373   7.150   2.471 -0.1126  0.0369  0.6868
  810MOL0     C11671  11.403   6.985   2.668  0.3950 -0.7967 -0.3042
  810MOL0     C11672  11.341   6.872   2.602 -0.1299 -0.2687 -0.2866
  810MOL0     O11673  11.318   6.763   2.676  0.1957 -0.4302 -0.1051
  810MOL0     C11674  11.328   6.643   2.612 -0.0559 -0.0977 -0.0417
  810MOL0     C11675  11.219   6.561   2.641  0.4108  0.9015  0.0351
  810MOL0     C11676  11.210   6.435   2.595  0.9658  0.3327  0.1178
  810MOL0     C11677  11.306   6.385   2.508 -0.0819 -0.2215 -0.3197
  810MOL0     O11678  11.308   6.249   2.477 -0.0570 -0.3374 -0.6230
  810MOL0     C11679  11.192   6.179   2.461 -0.0301  0.4190 -0.5272
  810MOL0     C11680  11.205   6.049   2.380  0.5305  0.3048  0.0371
  810MOL0     C11681  11.234   5.917   2.452 -0.8745 -0.0705 -0.1546
  810MOL0     C11682  11.187   5.790   2.378  0.0283 -0.1451  0.6951
  810MOL0     C11683  11.279   5.677   2.435  1.1898 -0.4443  0.6470
  810MOL0     C11684  11.226   5.539   2.386  0.0670  0.4886 -0.2599
  810MOL0     C11685  11.305   5.415   2.427  0.2567  0.1729 -0.4394
  810MOL0     C11686  11.445   5.419   2.364  1.2189  0.4880 -0.0574
  810MOL0    Cl11687  11.433   5.435   2.181 -0.2569  0.7543 -0.5072
  810MOL0     C11688  11.416   6.464   2.475  0.6212 -0.6597 -0.7460
  810MOL0     C11689  11.426   6.596   2.524  0.5282  0.0172 -0.1709
  810MOL0     O11690  11.309   6.881   2.482  1.0154 -0.8163  0.0805
  810MOL0     C11691  11.458   6.957   2.795 -0.4112 -0.7341 -0.6213
  810MOL0     C11692  11.522   7.057   2.868  0.0936 -0.2159  0.5446
  810MOL0     N11693  11.891   7.810   2.655 -0.8766  0.7679  0.7433
  810MOL0     N11694  11.877   7.936   2.644 -0.7212  0.8424 -0.3009
  810MOL0     C11695  11.137   8.943   2.898  0.1191 -0.2030  0.1369
  810MOL0     C11696  11.151   9.039   3.001  0.2461 -0.2191 -0.2116
  810MOL0     C11697  11.250   9.243   3.415 -0.0818 -0.5415 -0.4515
  810MOL0     C11698  11.122   9.299   3.422 -0.3306 -0.4268 -0.7751
  810MOL0     C11699  11.086   9.389   3.522  0.4169 -0.4492  1.0129
  810MOL0     C11700  11.174   9.446   3.606  0.0948  0.3830  0.8273
  810MOL0     O11701  11.155   9.558   3.689  1.0656  0.3498  0.4812
  810MOL0     C11702  11.033   9.639   3.662 -0.3144  0.3695 -0.3217
  810MOL0     C11703  11.025   9.770   3.733  0.6519 -0.2240  0.4647
  810MOL0     C11704  11.008   9.741   3.883 -0.3774 -0.8367 -0.1948
  810MOL0     C11705  11.076   9.851   3.961 -1.0456 -1.0431 -0.2959
  810MOL0     C11706  11.037   9.993   3.932 -0.4781 -0.5538  1.2493
  810MOL0     C11707  11.027  10.107   3.886  0.4906 -0.8617 -0.6238
  810MOL0     C11708  11.302   9.386   3.606 -1.0158  0.0883  0.0128
  810MOL0     C11709  11.337   9.290   3.512  0.6101  0.3583 -1.0460
  810MOL0     C11710  11.489   9.264   3.514 -0.4093 -0.1807 -0.0661
  810MOL0     H11711  11.258   8.838   3.261 -2.5268  1.2637  1.7324
  810MOL0     H11712  11.232   8.672   3.094  0.9832  0.9335 -1.3670
  810MOL0     H11713  11.257   8.794   2.711 -0.3670  0.5144  0.9841
  810MOL0     H11714  11.192   8.642   2.645 -2.7078  0.2255  2.2311
  810MOL0     H11715  11.405   8.648   2.838 -1.0786 -1.1179  1.3007
  810MOL0     H11716  11.289   8.546   2.884 -2.1771  1.5258  0.4500
  810MOL0     H11717  11.327   8.460   2.614  0.1216  2.5345 -1.5071
  810MOL0     H11718  11.478   8.535   2.639 -0.8621  1.4877  0.1299
  810MOL0     H11719  11.526   8.394   2.837  3.3608 -4.4184 -0.7160
  810MOL0     H11720  11.371   8.304   2.825  2.5407 -4.2035 -1.8042
  810MOL0     H11721  11.577   8.336   2.606 -2.9694 -0.4943 -3.7090
  810MOL0     H11722  11.437   8.224   2.612 -3.5477  1.8204  2.7290
  810MOL0     H11723  11.569   8.136   2.839 -0.2809 -1.2205 -0.2198
  810MOL0     H11724  11.591   8.061   2.682 -0.2837 -0.8576  2.3117
  810MOL0     H11725  11.757   8.307   2.771 -1.0688  0.3609  0.9196
  810MOL0     H11726  11.772   8.206   2.622 -1.1794  2.7816  0.3846
  810MOL0     H11727  11.936   8.146   2.805 -0.5454 -0.0645 -1.3909
  810MOL0     H11728  11.807   8.127   2.919  2.7102  2.1412  0.0727
  810MOL0     H11729  11.731   7.866   2.926 -1.4254 -1.6038 -1.4461
  810MOL0     H11730  11.945   7.553   2.767  1.0120  0.3035  3.0052
  810MOL0     H11731  11.786   7.569   2.701  1.7841  1.2978 -1.2172
  810MOL0     H11732  11.866   7.595   3.002  1.5734  1.4089 -1.1090
  810MOL0     H11733  11.699   7.609   2.939  0.3090  2.4972 -2.0719
  810MOL0     H11734  11.861   7.349   2.915  0.8266  0.8780 -0.5019
  810MOL0     H11735  11.746   7.398   3.037  1.0892  4.6978  1.8329
  810MOL0     H11736  11.592   7.466   2.831  0.9902  0.3078  0.1247
  810MOL0     H11737  11.688   7.329   2.763 -0.3806 -5.0850  1.3421
  810MOL0     H11738  11.473   7.324   2.665  0.9692  0.5211  1.3093
  810MOL0     H11739  11.271   7.119   2.448 -0.1902 -0.1679  1.2770
  810MOL0     H11740  11.428   7.092   2.396 -1.8425 -1.2079  0.3207
  810MOL0     H11741  11.401   7.255   2.458  1.8972  0.0498  3.8205
  810MOL0     H11742  11.136   6.593   2.703  0.2933  0.8319 -0.0847
  810MOL0     H11743  11.131   6.372   2.636  1.0774  0.6589  0.8454
  810MOL0     H11744  11.170   6.159   2.566  1.0546  3.8295  0.4904
  810MOL0     H11745  11.112   6.235   2.412 -0.7758 -1.5885 -1.7052
  810MOL0     H11746  11.110   6.036   2.328  0.8654  2.3146 -1.1794
  810MOL0     H11747  11.289   6.063   2.311  1.7443 -1.0049  1.1907
  810MOL0     H11748  11.181   5.905   2.547 -2.6070 -3.7446 -1.3805
  810MOL0     H11749  11.342   5.912   2.473 -0.8694 -1.3855 -0.3924
  810MOL0     H11750  11.198   5.814   2.271  1.5460  3.1908  1.4498
  810MOL0     H11751  11.079   5.779   2.391 -0.4253  3.0555  0.4824
  810MOL0     H11752  11.386   5.694   2.426  0.7852  4.3635  2.3590
  810MOL0     H11753  11.259   5.684   2.542 -1.7926  1.7720  0.0630
  810MOL0     H11754  11.209   5.549   2.278  1.1756 -0.5278 -0.5458
  810MOL0     H11755  11.128   5.522   2.430  0.7176 -0.6965  0.8109
  810MOL0     H11756  11.245   5.329   2.396 -0.7238 -0.1626  2.2083
  810MOL0     H11757  11.310   5.414   2.536 -1.0791 -2.0238 -0.3455
  810MOL0     H11758  11.500   5.332   2.401  1.3113  1.0139  1.0953
  810MOL0     H11759  11.506   5.504   2.394 -2.6619  2.7364  2.2499
  810MOL0     H11760  11.499   6.430   2.415  1.4850  0.3144 -0.1331
  810MOL0     H11761  11.512   6.658   2.503  0.6811  1.4344  3.9127
  810MOL0     H11762  11.461   6.859   2.842  0.6089  1.4571  4.6031
  810MOL0     H11763  11.581   7.034   2.956 -0.5687 -2.2398  0.5121
  810MOL0     H11764  11.096   8.972   2.802  0.4886  0.8041  0.2664
  810MOL0     H11765  11.124   9.143   2.983 -0.7253  0.1787  2.8980
  810MOL0     H11766  11.047   9.298   3.344 -3.2638 -1.1346  1.8330
  810MOL0     H11767  10.985   9.426   3.506  1.6066  2.0866 -1.6048
  810MOL0     H11768  11.052   9.668   3.559  2.2707 -4.0109 -1.3400
  810MOL0     H11769  10.945   9.576   3.676  0.2363 -0.2308  0.5421
  810MOL0     H11770  10.936   9.824   3.699  2.3406  0.3751 -3.5654
  810MOL0     H11771  11.126   9.810   3.723  0.5473 -0.2704 -1.0725
  810MOL0     H11772  10.902   9.733   3.911 -0.3018 -1.6269 -0.0861
  810MOL0     H11773  11.042   9.638   3.897 -0.6194 -0.9010 -0.0823
  810MOL0     H11774  11.181   9.830   3.943 -1.1006 -2.5318  0.8619
  810MOL0     H11775  11.060   9.845   4.070  0.9237  0.9060  0.1626
  810MOL0     H11776  11.026  10.213   3.869 -1.9780 -0.6886  0.2233
  810MOL0     H11777  11.374   9.422   3.679  1.2925 -2.9044 -0.5813
  810MOL0     H11778  11.555   9.325   3.452 -0.0469  0.3195  0.8079
  810MOL0     H11779  11.523   9.269   3.617 -1.6949  3.9655  0.3154
  810MOL0     H11780  11.505   9.161   3.480  0.7067  0.4849 -1.7068
  811MOL0     O11781   8.209   9.041   9.573  0.0661 -0.4606 -0.2676
  811MOL0     C11782   8.194   9.127   9.649  0.4902  0.4392  0.9222
  811MOL0     O11783   8.159   9.119   9.775 -0.1730 -0.1771 -0.1570
  811MOL0     C11784   8.106   8.998   9.819  0.3209 -0.2803 -0.4152
  811MOL0     C11785   8.024   8.906   9.749  0.0818  1.2110 -0.8398
  811MOL0     C11786   7.969   8.803   9.822  0.2393  0.6633 -0.1139
  811MOL0     C11787   8.003   8.771   9.954 -0.2837 -1.0813 -0.1921
  811MOL0     O11788   7.965   8.660  10.017 -0.4689  0.3626  0.4591
  811MOL0     C11789   7.824   8.645  10.045 -0.6562  0.0832 -0.5843
  811MOL0     C11790   7.766   8.517   9.975 -0.2091 -0.9509 -0.5989
  811MOL0     C11791   7.621   8.505  10.023  0.3820 -0.2366 -1.0435
  811MOL0     C11792   7.564   8.373   9.974 -0.8314 -0.1892  0.0692
  811MOL0     C11793   7.422   8.336  10.031  0.6568 -0.3955  0.5811
  811MOL0     C11794   7.318   8.430   9.970 -0.2888  0.7936 -0.2919
  811MOL0     C11795   7.172   8.412  10.019  0.5085  0.4402  0.0308
  811MOL0     C11796   7.138   8.387  10.168  0.9368 -1.3917 -1.0786
  811MOL0     N11797   6.997   8.420  10.209 -0.5766 -0.6423  0.4930
  811MOL0     C11798   6.881   8.366  10.160 -0.4033  0.0701  0.2399
  811MOL0     C11799   6.787   8.427  10.220  0.1388  0.3276 -0.9126
  811MOL0     C11800   6.648   8.385  10.188 -0.1720 -0.2522 -0.4602
  811MOL0     C11801   6.548   8.446  10.285 -0.3648 -0.1087 -0.0319
  811MOL0     C11802   6.408   8.395  10.260  0.1152 -1.1119  0.5373
  811MOL0     C11803   6.342   8.461  10.139  0.6421  0.4446  0.1778
  811MOL0     O11804   6.206   8.502  10.171 -0.4569 -0.4900  0.6047
  811MOL0     C11805   6.115   8.407  10.207  0.3090  1.0534  0.9486
  811MOL0     C11806   5.999   8.446  10.281  0.0914  1.1882 -0.7452
  811MOL0     C11807   5.895   8.349  10.294 -0.2848 -0.7208 -1.2234
  811MOL0     C11808   5.783   8.423  10.367 -0.7606  0.3075  0.6857
  811MOL0     C11809   5.902   8.218  10.245  0.3727 -0.6595 -0.2090
  811MOL0     C11810   5.785   8.122  10.263 -0.3206 -0.3153 -0.6486
  811MOL0     O11811   5.826   7.998  10.241 -0.1637  0.3086 -0.1838
  811MOL0     C11812   5.717   7.908  10.271 -0.0278 -0.9325 -0.9526
  811MOL0     C11813   5.628   7.893  10.172 -0.4054 -1.7192 -0.4841
  811MOL0     C11814   5.527   7.809  10.185 -0.0564  0.2061 -0.1730
  811MOL0     C11815   5.507   7.740  10.306 -0.5238 -0.2941  0.3102
  811MOL0     O11816   5.410   7.646  10.320 -0.2399  0.4945  0.4564
  811MOL0     C11817   5.444   7.523  10.263  0.0368 -0.0102  0.0965
  811MOL0     C11818   5.349   7.410  10.314 -1.2853  0.8083  0.4378
  811MOL0     C11819   5.197   7.448  10.348  0.6549 -0.4137 -1.2208
  811MOL0     C11820   5.117   7.348  10.430  0.0444  0.4847 -0.9839
  811MOL0     C11821   5.132   7.201  10.372  0.3030 -0.4603  0.4271
  811MOL0     C11822   5.066   7.077  10.436  0.9890 -0.0847  0.6521
  811MOL0     C11823   5.134   7.043  10.564  0.0579  0.0132 -0.1939
  811MOL0     C11824   5.025   6.999  10.662 -0.7958 -0.0991  0.8501
  811MOL0    Cl11825   5.094   6.978  10.813 -0.1790 -1.0881  0.3297
  811MOL0     C11826   5.592   7.755  10.414 -0.1042 -0.4572  0.4519
  811MOL0     C11827   5.704   7.838  10.394  0.4594  0.3481 -0.5316
  811MOL0     O11828   5.671   8.162  10.292  0.3893 -0.0532 -0.3739
  811MOL0     C11829   6.030   8.180  10.192 -0.2672 -0.0647  0.4443
  811MOL0     C11830   6.133   8.273  10.175  1.3141 -0.8885  0.5928
  811MOL0     N11831   6.835   8.534  10.304  0.1988  0.0792 -0.2526
  811MOL0     N11832   6.965   8.521  10.295  0.6716 -0.8780 -0.5171
  811MOL0     C11833   8.094   8.856  10.019  0.5830 -0.4647  0.1508
  811MOL0     C11834   8.131   8.975   9.952 -0.7472 -0.0078 -0.6413
  811MOL0     C11835   8.230   9.263   9.593 -0.3573 -0.2271  0.1181
  811MOL0     C11836   8.359   9.277   9.529  0.2338  0.3479 -1.3011
  811MOL0     C11837   8.407   9.399   9.489 -0.4235 -0.1524  0.4931
  811MOL0     C11838   8.324   9.513   9.494  0.0489  0.2142  0.3063
  811MOL0     O11839   8.359   9.637   9.455  0.0293  0.5626  0.6271
  811MOL0     C11840   8.498   9.660   9.410  0.0491 -0.3481  0.8130
  811MOL0     C11841   8.540   9.808   9.393 -0.4796  0.1437 -0.6025
  811MOL0     C11842   8.682   9.820   9.458  0.8344 -0.4270 -0.2095
  811MOL0     C11843   8.749   9.959   9.458 -0.0333 -0.0668 -0.4865
  811MOL0     C11844   8.677  10.050   9.553  0.1849  0.5226 -0.2258
  811MOL0     C11845   8.619  10.111   9.637  0.1145 -0.4898  0.3499
  811MOL0     C11846   8.202   9.502   9.555  0.3428  0.4948 -0.0941
  811MOL0     C11847   8.150   9.376   9.603  0.5782  0.4754  0.1481
  811MOL0     C11848   8.019   9.372   9.685 -0.0056 -0.2798  0.8449
  811MOL0     H11849   8.003   8.912   9.643  0.0270  3.2299 -0.7563
  811MOL0     H11850   7.892   8.745   9.773 -1.4755  4.4206 -2.2844
  811MOL0     H11851   7.768   8.730  10.006 -1.2926 -1.0201 -2.2039
  811MOL0     H11852   7.810   8.642  10.153  0.1234  2.9191 -0.3271
  811MOL0     H11853   7.773   8.523   9.866  3.3905 -0.4020 -0.4311
  811MOL0     H11854   7.825   8.431  10.007  4.9313  2.8821  1.4233
  811MOL0     H11855   7.622   8.498  10.133  1.5564  2.8046 -0.7601
  811MOL0     H11856   7.570   8.597   9.992 -1.0358 -0.8590 -0.6441
  811MOL0     H11857   7.541   8.371   9.867 -3.7069 -1.9999  0.6105
  811MOL0     H11858   7.629   8.287   9.993 -3.3479 -2.0054  1.0131
  811MOL0     H11859   7.413   8.343  10.139 -1.2643  1.9478  0.3586
  811MOL0     H11860   7.393   8.236   9.998 -0.2686  0.1138 -0.1983
  811MOL0     H11861   7.347   8.535   9.983  0.9006  0.6694 -1.6862
  811MOL0     H11862   7.319   8.423   9.861 -1.0579  1.7979 -0.3701
  811MOL0     H11863   7.129   8.333   9.957  1.7572 -0.4578  0.2667
  811MOL0     H11864   7.115   8.501   9.991 -3.9713 -1.7589  1.2667
  811MOL0     H11865   7.143   8.279  10.184  0.8393 -1.6692 -2.7382
  811MOL0     H11866   7.201   8.442  10.238 -0.5391 -0.4587 -0.4378
  811MOL0     H11867   6.862   8.272  10.108  1.4053 -1.7718  2.6586
  811MOL0     H11868   6.638   8.276  10.188  1.3229 -0.4349 -2.1922
  811MOL0     H11869   6.627   8.410  10.083  0.6482  1.7441 -0.2017
  811MOL0     H11870   6.578   8.420  10.387 -2.0345  1.8126  1.0312
  811MOL0     H11871   6.547   8.555  10.276 -0.1370 -0.1842 -1.0738
  811MOL0     H11872   6.421   8.287  10.252  0.8608 -0.9322 -1.0171
  811MOL0     H11873   6.360   8.437  10.349 -0.7570  2.5873 -1.4942
  811MOL0     H11874   6.402   8.542  10.097  2.2972  0.8069  2.9603
  811MOL0     H11875   6.329   8.398  10.051 -2.1442  0.4827  0.4675
  811MOL0     H11876   5.986   8.550  10.308 -2.1445  0.9866 -0.8586
  811MOL0     H11877   5.814   8.510  10.425  1.9640 -0.3500  0.3464
  811MOL0     H11878   5.738   8.348  10.433 -0.4660 -2.3222 -1.8917
  811MOL0     H11879   5.700   8.441  10.298  1.7794 -2.2342 -3.4709
  811MOL0     H11880   5.636   7.967  10.093 -1.3628  1.6171  2.3024
  811MOL0     H11881   5.448   7.805  10.111  0.1330 -0.5209 -0.3464
  811MOL0     H11882   5.436   7.547  10.156  1.7353  2.2858  0.3998
  811MOL0     H11883   5.544   7.490  10.290 -1.3480 -1.5701  4.1296
  811MOL0     H11884   5.357   7.331  10.239  0.6448  2.5587 -1.3015
  811MOL0     H11885   5.393   7.356  10.399  1.7938 -0.7742 -1.9830
  811MOL0     H11886   5.137   7.453  10.256 -1.5454 -3.7165 -0.1476
  811MOL0     H11887   5.198   7.546  10.397  5.5344 -0.4700 -0.7030
  811MOL0     H11888   5.014   7.383  10.422 -0.9092 -1.8463  0.3014
  811MOL0     H11889   5.144   7.365  10.534  0.2812  0.7675 -1.0870
  811MOL0     H11890   5.112   7.201  10.265 -2.1380 -1.1028  0.8188
  811MOL0     H11891   5.239   7.182  10.363  0.4633  0.1217  1.0052
  811MOL0     H11892   5.104   6.996  10.374  2.3016  0.8849  0.1428
  811MOL0     H11893   4.957   7.068  10.433  1.1098 -1.3291 -0.8800
  811MOL0     H11894   5.184   7.126  10.614 -0.4417  0.0937  0.1775
  811MOL0     H11895   5.202   6.959  10.546  1.8320  0.6255  2.8762
  811MOL0     H11896   4.966   6.912  10.631 -2.3815  0.9866  0.6906
  811MOL0     H11897   4.957   7.081  10.686  0.4865  1.0607  0.6556
  811MOL0     H11898   5.582   7.709  10.512 -2.0849  1.7044  1.3569
  811MOL0     H11899   5.778   7.843  10.474  2.1001  1.7419 -2.0586
  811MOL0     H11900   6.045   8.081  10.151 -0.8267  0.8696 -2.2257
  811MOL0     H11901   6.224   8.239  10.127  0.9223 -2.0631  0.6612
  811MOL0     H11902   8.126   8.830  10.119  0.3251  0.7704  0.5757
  811MOL0     H11903   8.189   9.035  10.021 -0.9414 -2.1761  1.5522
  811MOL0     H11904   8.434   9.199   9.519  3.2868  3.0546 -1.1417
  811MOL0     H11905   8.508   9.408   9.451  0.1312  0.8939  2.1009
  811MOL0     H11906   8.576   9.608   9.466  0.5377  1.1328  1.5517
  811MOL0     H11907   8.506   9.637   9.303 -1.8267  1.5436  0.1949
  811MOL0     H11908   8.460   9.872   9.430 -2.8841 -1.7924 -2.1038
  811MOL0     H11909   8.544   9.825   9.285 -0.7264 -0.2191 -0.6702
  811MOL0     H11910   8.675   9.782   9.560  1.5899 -3.3396 -1.1575
  811MOL0     H11911   8.751   9.759   9.399  1.6098 -2.1360  2.3166
  811MOL0     H11912   8.761  10.016   9.366 -0.6694  0.9107  0.0202
  811MOL0     H11913   8.853   9.952   9.489  0.0809  2.6275  0.0072
  811MOL0     H11914   8.555  10.177   9.691 -1.8801 -0.3602 -2.0263
  811MOL0     H11915   8.132   9.584   9.552 -0.3059 -0.0341  0.3206
  811MOL0     H11916   8.037   9.337   9.787 -0.7555 -2.2697  0.3514
  811MOL0     H11917   7.978   9.473   9.687 -0.5977 -0.5156  1.1552
  811MOL0     H11918   7.946   9.303   9.641  0.7464 -1.2346  1.0553
  812MOL0     O11919  11.504   4.933   0.055  0.1001 -0.7811 -0.0404
  812MOL0     C11920  11.536   5.041  -0.003  0.4073  0.5453 -1.3482
  812MOL0     O11921  11.455   5.136  -0.039  0.4890  0.2226  1.2083
  812MOL0     C11922  11.346   5.150   0.044 -0.6269  0.2129 -0.5501
  812MOL0     C11923  11.232   5.086   0.009 -0.2604 -0.1005  0.6138
  812MOL0     C11924  11.104   5.125   0.064 -0.0256  0.3011  1.0177
  812MOL0     C11925  11.094   5.223   0.155  0.0508 -0.2856  0.2898
  812MOL0     O11926  10.972   5.271   0.205 -0.3629  0.1428  0.6640
  812MOL0     C11927  10.965   5.343   0.330 -0.0236 -0.0036  1.1536
  812MOL0     C11928  10.978   5.493   0.300 -0.1990 -0.2750 -0.0134
  812MOL0     C11929  10.859   5.556   0.212 -1.0701 -0.0999 -0.2263
  812MOL0     C11930  10.913   5.568   0.063  0.3235 -0.6654 -0.0551
  812MOL0     C11931  10.817   5.643  -0.026  0.3892 -0.0442 -0.6212
  812MOL0     C11932  10.741   5.758   0.037  0.1185 -0.4411  0.4867
  812MOL0     C11933  10.670   5.863  -0.059 -0.8372 -0.3634  0.2086
  812MOL0     C11934  10.613   5.984   0.017 -0.8396  0.1638 -0.3468
  812MOL0     N11935  10.495   5.951   0.104  0.2084  0.4343  0.0379
  812MOL0     C11936  10.377   5.877   0.073 -0.5069  0.7046 -0.1553
  812MOL0     C11937  10.290   5.901   0.177 -0.3560 -0.9723 -0.1792
  812MOL0     C11938  10.140   5.864   0.217 -0.2980 -0.7084  0.4359
  812MOL0     C11939  10.028   5.947   0.158 -0.0880  0.3351 -0.7017
  812MOL0     C11940   9.983   5.903   0.014 -0.4714  0.4753  0.0707
  812MOL0     C11941   9.905   6.022  -0.039 -0.1040  0.4698  0.9861
  812MOL0     O11942   9.771   6.018   0.025 -0.1594  0.0689  0.7429
  812MOL0     C11943   9.717   6.144   0.054 -1.0106 -1.6098  0.9659
  812MOL0     C11944   9.724   6.274  -0.017 -0.3288 -0.0348 -0.4734
  812MOL0     C11945   9.655   6.389   0.037  0.2709 -0.4929  0.8227
  812MOL0     C11946   9.661   6.515  -0.041  1.1366 -0.5459  0.6428
  812MOL0     C11947   9.592   6.374   0.163 -0.0204 -0.6240 -0.2188
  812MOL0     C11948   9.524   6.486   0.245 -0.3340 -0.3883 -0.2403
  812MOL0     O11949   9.434   6.461   0.344 -0.1679  0.2691  0.1439
  812MOL0     C11950   9.423   6.561   0.440 -0.2537 -0.2453  1.4412
  812MOL0     C11951   9.529   6.586   0.523  0.4784  0.7850 -0.0858
  812MOL0     C11952   9.519   6.688   0.617  0.1325  0.4123  0.4245
  812MOL0     C11953   9.405   6.775   0.630  0.1686  0.8524  0.9284
  812MOL0     O11954   9.412   6.889   0.714 -0.3875 -0.0813  0.4376
  812MOL0     C11955   9.510   6.987   0.691 -0.2531  0.3296 -0.7308
  812MOL0     C11956   9.470   7.082   0.584 -0.4527 -0.7152  0.0017
  812MOL0     C11957   9.346   7.173   0.622  1.0819  0.4161  0.7738
  812MOL0     C11958   9.369   7.321   0.589 -1.3062  0.1014  0.2478
  812MOL0     C11959   9.249   7.417   0.605  0.7656  0.2238 -0.5955
  812MOL0     C11960   9.174   7.424   0.729  0.0377 -0.0950 -0.0723
  812MOL0     C11961   9.244   7.456   0.857  0.0981 -1.2142 -0.9839
  812MOL0     C11962   9.179   7.555   0.961 -0.0579 -0.0704  0.5198
  812MOL0    Cl11963   9.150   7.722   0.887 -0.5662 -0.5197  0.0548
  812MOL0     C11964   9.293   6.739   0.553  1.1992  0.6949 -0.2627
  812MOL0     C11965   9.300   6.631   0.461 -0.4816 -0.3149  0.2219
  812MOL0     O11966   9.559   6.602   0.217  0.1664  0.3198  0.0493
  812MOL0     C11967   9.612   6.266   0.236 -0.1886  0.3016  0.8951
  812MOL0     C11968   9.664   6.151   0.180  0.1631 -0.1836  0.1984
  812MOL0     N11969  10.357   5.986   0.269  0.1219  0.2080 -0.6206
  812MOL0     N11970  10.475   6.011   0.229 -0.1842 -0.0300  0.3037
  812MOL0     C11971  11.214   5.287   0.196  0.3766  0.3733  0.5082
  812MOL0     C11972  11.340   5.251   0.140  0.7787 -0.1474 -0.1945
  812MOL0     C11973  11.684   5.055  -0.031 -0.3925 -0.1851 -0.6756
  812MOL0     C11974  11.737   5.174  -0.083  0.6273 -0.1548  0.3521
  812MOL0     C11975  11.872   5.195  -0.106  0.2995 -0.0348  0.2719
  812MOL0     C11976  11.965   5.091  -0.084  0.9525  0.0220  0.1707
  812MOL0     O11977  12.099   5.104  -0.111 -0.1158  0.8759 -0.8334
  812MOL0     C11978  12.166   5.230  -0.080 -0.0173  0.3966 -0.2365
  812MOL0     C11979  12.244   5.286  -0.193 -0.4869  0.2035 -0.3482
  812MOL0     C11980  12.360   5.374  -0.141 -0.6400  1.0125  0.0916
  812MOL0     C11981  12.408   5.468  -0.249  0.3171 -0.1418  0.7176
  812MOL0     C11982  12.463   5.401  -0.366 -0.5883 -0.7007 -0.8524
  812MOL0     C11983  12.508   5.338  -0.461  0.5842  1.3633 -0.3656
  812MOL0     C11984  11.916   4.974  -0.041  0.9245  0.3058  0.1072
  812MOL0     C11985  11.784   4.949  -0.005 -0.5028  0.3538 -0.0403
  812MOL0     C11986  11.746   4.815   0.049 -0.1580  0.1549 -0.3075
  812MOL0     H11987  11.226   5.013  -0.071 -1.3403  0.1082  0.4813
  812MOL0     H11988  11.011   5.077   0.037 -1.1158  0.1600  4.4413
  812MOL0     H11989  11.051   5.314   0.391  2.8806 -0.4817 -2.7355
  812MOL0     H11990  10.872   5.319   0.381 -0.6304 -2.4657 -0.8866
  812MOL0     H11991  10.979   5.543   0.397 -0.7729  1.7639 -1.0071
  812MOL0     H11992  11.072   5.515   0.248  0.0463  0.3383  0.6745
  812MOL0     H11993  10.778   5.482   0.209 -0.4341 -0.7941 -2.5059
  812MOL0     H11994  10.830   5.650   0.259 -1.5453 -0.9572  1.2459
  812MOL0     H11995  11.000   5.633   0.067  0.9603 -1.4891 -0.2740
  812MOL0     H11996  10.950   5.471   0.027 -3.4151 -2.4450  0.2959
  812MOL0     H11997  10.737   5.581  -0.065  0.6690 -0.0142 -1.2577
  812MOL0     H11998  10.873   5.684  -0.111 -0.7814  0.6603 -1.0744
  812MOL0     H11999  10.671   5.714   0.108 -0.6507  0.0704  0.0550
  812MOL0     H12000  10.812   5.812   0.101  1.4241 -0.8583 -0.5575
  812MOL0     H12001  10.592   5.826  -0.127 -2.2070 -1.4546  2.2675
  812MOL0     H12002  10.745   5.917  -0.118 -0.8844 -0.0380  0.4478
  812MOL0     H12003  10.688   6.035   0.079 -1.1712 -0.0901  0.2739
  812MOL0     H12004  10.569   6.056  -0.052 -0.9844  1.8233  1.3849
  812MOL0     H12005  10.366   5.818  -0.017 -1.9206 -0.0005  0.4542
  812MOL0     H12006  10.143   5.879   0.325  0.5378 -0.4226  0.3837
  812MOL0     H12007  10.117   5.758   0.205 -0.8821 -0.3431 -2.3777
  812MOL0     H12008   9.947   5.936   0.231  1.4641 -0.6250  0.9630
  812MOL0     H12009  10.067   6.049   0.162  0.4567  0.1389 -0.9513
  812MOL0     H12010  10.067   5.898  -0.057 -1.7954 -2.0096 -1.4914
  812MOL0     H12011   9.932   5.806   0.015  1.2342 -0.4635  0.1895
  812MOL0     H12012   9.955   6.117  -0.018  0.7674  0.0255  0.9906
  812MOL0     H12013   9.902   6.011  -0.147  3.5100  1.1999  0.6800
  812MOL0     H12014   9.776   6.276  -0.112  0.1263 -0.3674 -0.2363
  812MOL0     H12015   9.570   6.543  -0.094  2.3835 -0.0530 -1.3714
  812MOL0     H12016   9.735   6.516  -0.122  1.3603 -0.3759  0.8478
  812MOL0     H12017   9.709   6.591   0.021 -0.8520  2.1987 -0.9388
  812MOL0     H12018   9.617   6.522   0.523  0.2282  0.3606 -2.4709
  812MOL0     H12019   9.597   6.696   0.691  1.6001 -1.7271 -0.7681
  812MOL0     H12020   9.508   7.044   0.784 -1.6725 -2.0617  0.7975
  812MOL0     H12021   9.607   6.939   0.672 -0.4436  0.6205 -2.7406
  812MOL0     H12022   9.560   7.143   0.572 -1.7613  0.8066 -3.1830
  812MOL0     H12023   9.448   7.022   0.495  1.3188 -2.8271  0.9015
  812MOL0     H12024   9.326   7.167   0.729 -2.1540  1.8669  0.3671
  812MOL0     H12025   9.267   7.135   0.557 -0.2620  4.4785 -0.2782
  812MOL0     H12026   9.417   7.321   0.491 -0.9856 -2.7097  0.3146
  812MOL0     H12027   9.443   7.354   0.663 -0.8489 -1.3406  0.4688
  812MOL0     H12028   9.284   7.512   0.565 -1.0271  3.1251  3.9253
  812MOL0     H12029   9.171   7.379   0.538 -0.2585 -0.6768  1.0281
  812MOL0     H12030   9.134   7.324   0.747  2.1606 -1.4086 -2.0510
  812MOL0     H12031   9.102   7.505   0.718 -0.5764 -0.2943  2.0529
  812MOL0     H12032   9.343   7.496   0.830 -0.2327 -1.5875 -2.9195
  812MOL0     H12033   9.254   7.365   0.916 -0.2281 -0.0196  1.0126
  812MOL0     H12034   9.245   7.556   1.048  1.5849  0.4256 -0.6617
  812MOL0     H12035   9.085   7.513   0.995  0.8179 -0.7566  2.2063
  812MOL0     H12036   9.207   6.805   0.559  2.2936  2.0693  0.8506
  812MOL0     H12037   9.226   6.610   0.384 -0.3826 -1.4279  0.4136
  812MOL0     H12038   9.590   6.262   0.343  3.4266 -1.1349  1.7288
  812MOL0     H12039   9.680   6.063   0.241  3.0292  0.1461  0.0945
  812MOL0     H12040  11.225   5.358   0.277 -3.0285 -0.3536  1.7611
  812MOL0     H12041  11.422   5.317   0.166 -1.4290  1.5412  3.2840
  812MOL0     H12042  11.673   5.258  -0.110  1.6586  0.8139  0.8225
  812MOL0     H12043  11.904   5.294  -0.137  0.6204  0.2290  1.3911
  812MOL0     H12044  12.097   5.309  -0.049  1.6192  2.1276 -0.8206
  812MOL0     H12045  12.235   5.211   0.003  1.3413 -1.8158 -1.7464
  812MOL0     H12046  12.173   5.357  -0.235 -1.5095  0.9335  2.3855
  812MOL0     H12047  12.276   5.205  -0.260 -0.9668 -1.6070  1.4760
  812MOL0     H12048  12.323   5.432  -0.055  1.1884 -0.8042  2.2109
  812MOL0     H12049  12.439   5.315  -0.095 -1.3539 -1.9864 -2.2670
  812MOL0     H12050  12.492   5.525  -0.208  2.8796 -2.4481 -0.9801
  812MOL0     H12051  12.319   5.526  -0.273  0.6391  0.5630  1.1878
  812MOL0     H12052  12.562   5.272  -0.526  1.8423  0.7536  1.2234
  812MOL0     H12053  11.984   4.892  -0.021 -1.1326 -1.0235  2.2346
  812MOL0     H12054  11.670   4.766  -0.012  1.3556 -1.2107 -1.1580
  812MOL0     H12055  11.832   4.749   0.035 -0.1446 -0.1325  1.0417
  812MOL0     H12056  11.717   4.824   0.154  1.2527 -0.1522  0.1275
  813MOL0     O12057   4.246   6.205   2.746  0.5416  0.4317  0.4525
  813MOL0     C12058   4.221   6.141   2.849 -0.8180 -0.9038 -0.7696
  813MOL0     O12059   4.181   6.009   2.845 -0.2610 -0.6409  0.8382
  813MOL0     C12060   4.145   5.947   2.727  0.4370 -0.4499 -0.4416
  813MOL0     C12061   4.064   6.013   2.629  0.2883  0.5043 -1.1907
  813MOL0     C12062   4.019   5.940   2.523 -0.4119 -0.1732 -0.6946
  813MOL0     C12063   4.055   5.805   2.498  0.4847 -0.4369  1.1135
  813MOL0     O12064   4.010   5.754   2.379  0.3539 -0.2473  0.3098
  813MOL0     C12065   4.021   5.608   2.369  0.3987  0.2819  0.5422
  813MOL0     C12066   3.972   5.549   2.235 -0.4109 -0.0507 -1.4045
  813MOL0     C12067   3.981   5.396   2.233  0.1264 -0.3134  0.3026
  813MOL0     C12068   3.917   5.330   2.106  0.0954 -0.4161  0.4298
  813MOL0     C12069   3.948   5.185   2.093  1.0356 -0.6585 -1.1867
  813MOL0     C12070   3.834   5.109   2.027 -0.5129 -0.7871 -0.9220
  813MOL0     C12071   3.851   4.969   2.043  0.0446  0.4530 -0.1049
  813MOL0     C12072   3.748   4.881   1.964  0.3891  0.4409  0.1088
  813MOL0     N12073   3.822   4.769   1.903  0.7044  0.0775  0.3294
  813MOL0     C12074   3.801   4.639   1.911 -1.4706  0.0311 -0.5799
  813MOL0     C12075   3.859   4.579   1.801  0.3431  0.3576  0.0505
  813MOL0     C12076   3.845   4.437   1.752 -0.1693  0.7632  0.0274
  813MOL0     C12077   3.787   4.434   1.614 -0.0006  0.9553  0.1259
  813MOL0     C12078   3.721   4.290   1.588 -0.1938  0.1787  0.5264
  813MOL0     C12079   3.684   4.260   1.451 -0.0780 -0.2254 -0.8833
  813MOL0     O12080   3.568   4.326   1.411 -0.7081 -0.3107 -0.3735
  813MOL0     C12081   3.449   4.290   1.456  1.6046 -0.1300 -0.0820
  813MOL0     C12082   3.343   4.372   1.430  0.4620 -0.2533 -0.7104
  813MOL0     C12083   3.212   4.340   1.484  0.2346 -0.3844  0.0292
  813MOL0     C12084   3.103   4.438   1.465  0.6267  0.2182  0.0948
  813MOL0     C12085   3.179   4.211   1.537  0.0037 -0.4755  0.3899
  813MOL0     C12086   3.044   4.159   1.576  0.2355 -0.7341  0.0640
  813MOL0     O12087   3.034   4.043   1.646 -0.5156  0.4502 -0.1021
  813MOL0     C12088   2.914   3.993   1.668 -0.7635 -0.5311  0.0519
  813MOL0     C12089   2.858   3.999   1.791  0.3447  0.9437  0.0439
  813MOL0     C12090   2.741   3.927   1.822  0.3623 -0.0506 -0.0565
  813MOL0     C12091   2.671   3.861   1.718  0.0539 -0.2051  0.7127
  813MOL0     O12092   2.554   3.796   1.732  0.4429 -0.2830 -0.4458
  813MOL0     C12093   2.574   3.669   1.801  0.6018  0.1866 -0.3603
  813MOL0     C12094   2.430   3.601   1.796 -0.6158  0.3028  0.6119
  813MOL0     C12095   2.396   3.538   1.658 -1.0879 -0.3241 -0.3441
  813MOL0     C12096   2.301   3.420   1.673 -1.0029 -0.0967  0.6359
  813MOL0     C12097   2.214   3.388   1.550  0.1497 -0.1180  0.6442
  813MOL0     C12098   2.295   3.335   1.430 -0.0079  0.0460 -0.6187
  813MOL0     C12099   2.219   3.308   1.306  0.5798  0.3103  0.7706
  813MOL0     C12100   2.088   3.224   1.321 -0.1441 -0.4570 -0.1127
  813MOL0    Cl12101   2.116   3.064   1.400  0.0634 -0.0669 -0.0664
  813MOL0     C12102   2.736   3.847   1.598 -0.8521 -0.0183  0.6258
  813MOL0     C12103   2.856   3.916   1.563 -0.2184  0.3957  0.2985
  813MOL0     O12104   2.945   4.232   1.557 -0.4886  0.1678 -0.4246
  813MOL0     C12105   3.291   4.121   1.530  0.7488  1.1667 -0.8288
  813MOL0     C12106   3.419   4.161   1.501  0.5236  0.5732  0.9314
  813MOL0     N12107   3.923   4.678   1.723  0.5381 -0.5793  0.5001
  813MOL0     N12108   3.889   4.791   1.786 -0.8522 -0.1583 -0.4486
  813MOL0     C12109   4.147   5.748   2.581  0.2922  0.2057  0.2850
  813MOL0     C12110   4.184   5.816   2.700  0.0653 -0.1074  0.1969
  813MOL0     C12111   4.248   6.215   2.984  0.0151 -0.0757  0.1403
  813MOL0     C12112   4.300   6.349   2.982  0.7596  0.2849 -0.5754
  813MOL0     C12113   4.341   6.408   3.110  0.7695 -0.1796 -0.2655
  813MOL0     C12114   4.325   6.343   3.228  0.1047  0.3839  0.4831
  813MOL0     O12115   4.345   6.397   3.348 -1.5393 -0.1216 -0.9508
  813MOL0     C12116   4.457   6.479   3.363 -0.4059 -0.7135 -0.5404
  813MOL0     C12117   4.488   6.509   3.513  0.0920 -0.1288  0.4082
  813MOL0     C12118   4.617   6.595   3.530  0.2680 -0.3741  0.4508
  813MOL0     C12119   4.584   6.743   3.534  0.9995  0.2584  0.7257
  813MOL0     C12120   4.689   6.827   3.577 -0.1829 -0.2195 -1.1206
  813MOL0     C12121   4.758   6.911   3.635 -0.3920  0.0256 -0.0373
  813MOL0     C12122   4.261   6.217   3.223 -0.3600  0.0745  0.1158
  813MOL0     C12123   4.229   6.149   3.104  0.0132 -0.2496 -0.9699
  813MOL0     C12124   4.181   6.008   3.123  0.6898  0.0668 -0.4505
  813MOL0     H12125   4.010   6.101   2.661 -1.1843  0.5942 -3.6235
  813MOL0     H12126   3.945   5.988   2.460 -0.8674  1.1475  0.7906
  813MOL0     H12127   3.972   5.551   2.448 -1.0416 -2.0857 -1.9061
  813MOL0     H12128   4.129   5.592   2.379  1.4832  4.5771 -1.7372
  813MOL0     H12129   3.869   5.579   2.215 -1.4390 -2.2574  0.1029
  813MOL0     H12130   4.037   5.590   2.157  1.3146  0.9589  0.4751
  813MOL0     H12131   4.074   5.340   2.242 -1.2599 -2.5684  1.7443
  813MOL0     H12132   3.925   5.368   2.323 -2.6602  1.3690 -0.7571
  813MOL0     H12133   3.812   5.348   2.132  0.4842  0.6291  1.3208
  813MOL0     H12134   3.945   5.388   2.018  3.9595 -1.0209  1.0729
  813MOL0     H12135   3.963   5.143   2.193  0.3257 -0.9752 -1.2016
  813MOL0     H12136   4.036   5.173   2.029 -0.2359 -0.1429 -3.1365
  813MOL0     H12137   3.745   5.137   2.085  0.7837 -1.1849  1.3928
  813MOL0     H12138   3.823   5.130   1.920 -1.0450 -2.1013 -1.1443
  813MOL0     H12139   3.839   4.940   2.147  1.5629  0.3204  0.0485
  813MOL0     H12140   3.954   4.940   2.020 -0.4555 -1.3330 -0.2347
  813MOL0     H12141   3.658   4.841   2.013  1.0344 -0.0335  0.9382
  813MOL0     H12142   3.713   4.949   1.886  1.4191 -0.5890 -1.3081
  813MOL0     H12143   3.741   4.596   1.991  1.3973 -0.3748  1.4787
  813MOL0     H12144   3.791   4.372   1.822  0.2159  0.5022  0.0857
  813MOL0     H12145   3.947   4.401   1.733 -0.1835  2.1071 -3.1727
  813MOL0     H12146   3.701   4.502   1.608 -1.8037 -1.2215 -0.1332
  813MOL0     H12147   3.868   4.460   1.545  1.7247 -3.8569 -0.0577
  813MOL0     H12148   3.792   4.215   1.620  1.8813  2.3617  1.3318
  813MOL0     H12149   3.632   4.282   1.651 -0.2061 -2.4735  0.2797
  813MOL0     H12150   3.768   4.292   1.388  0.5027 -1.3867 -0.7196
  813MOL0     H12151   3.676   4.152   1.440  0.2806 -0.3651  0.0818
  813MOL0     H12152   3.371   4.466   1.384  2.1161 -0.7043 -0.6750
  813MOL0     H12153   3.131   4.543   1.472  0.2013  0.2999  0.5847
  813MOL0     H12154   3.032   4.462   1.544  1.2100  1.8632  0.1464
  813MOL0     H12155   3.053   4.410   1.371 -3.1585  1.4794  1.5493
  813MOL0     H12156   2.915   4.057   1.863 -0.6928 -1.2721  2.8413
  813MOL0     H12157   2.690   3.928   1.918  2.4842  1.3386  1.1337
  813MOL0     H12158   2.639   3.604   1.742 -0.4936 -0.5988 -0.7103
  813MOL0     H12159   2.606   3.692   1.904 -2.4207  0.9144  0.5275
  813MOL0     H12160   2.430   3.521   1.871 -2.4025  0.9576  1.3625
  813MOL0     H12161   2.346   3.663   1.829 -0.4435  0.9751 -0.1866
  813MOL0     H12162   2.490   3.510   1.610 -0.3840  0.6806  0.4046
  813MOL0     H12163   2.353   3.608   1.585  1.0092  0.3076 -1.0626
  813MOL0     H12164   2.240   3.444   1.761  1.3142  1.6011  1.8797
  813MOL0     H12165   2.361   3.334   1.702  3.2508  1.9841 -1.0749
  813MOL0     H12166   2.134   3.319   1.577 -3.3825  1.8045 -3.5648
  813MOL0     H12167   2.160   3.477   1.515  0.6740 -0.8886 -2.4913
  813MOL0     H12168   2.333   3.236   1.458 -1.3062 -1.1296 -2.6727
  813MOL0     H12169   2.377   3.402   1.402  0.8128 -1.2677 -1.5409
  813MOL0     H12170   2.282   3.255   1.234  1.4711  0.5559  1.3643
  813MOL0     H12171   2.182   3.401   1.260 -1.8897 -0.4708  1.0316
  813MOL0     H12172   2.031   3.216   1.228 -1.6025  0.6165  0.6534
  813MOL0     H12173   2.025   3.285   1.386 -0.2777  0.7908 -1.3554
  813MOL0     H12174   2.689   3.787   1.521 -2.8139 -0.1915  1.8752
  813MOL0     H12175   2.910   3.915   1.469  1.3597 -1.7414  1.1245
  813MOL0     H12176   3.279   4.014   1.538  2.1307  0.9867 -0.8454
  813MOL0     H12177   3.499   4.089   1.507  1.3363  1.2683 -0.8712
  813MOL0     H12178   4.192   5.651   2.565  2.1104  0.9609  0.5560
  813MOL0     H12179   4.245   5.764   2.773  1.7204  4.3880  2.3951
  813MOL0     H12180   4.326   6.400   2.890 -2.4695 -0.0366 -1.7930
  813MOL0     H12181   4.380   6.508   3.116  2.6789 -0.9265  0.4367
  813MOL0     H12182   4.547   6.430   3.324  1.4640 -0.4093  2.9791
  813MOL0     H12183   4.445   6.578   3.316 -0.6448  1.4927  3.7133
  813MOL0     H12184   4.502   6.420   3.575 -2.7255  0.9789  2.8472
  813MOL0     H12185   4.404   6.560   3.561  0.1331 -0.1821  0.5391
  813MOL0     H12186   4.669   6.556   3.617  2.8005  1.7540  0.0016
  813MOL0     H12187   4.688   6.575   3.449 -1.7987  0.9325 -1.8413
  813MOL0     H12188   4.498   6.757   3.600  0.9214  3.1419  0.1417
  813MOL0     H12189   4.563   6.777   3.432 -1.6248 -0.5985  0.8956
  813MOL0     H12190   4.801   7.000   3.677 -2.2077  0.9422 -0.0543
  813MOL0     H12191   4.229   6.165   3.313  3.9179 -4.0943 -0.3898
  813MOL0     H12192   4.246   5.937   3.073  0.3667 -1.1047  0.7428
  813MOL0     H12193   4.163   5.974   3.226 -2.1302 -0.3123 -0.9732
  813MOL0     H12194   4.083   5.987   3.079 -0.0558 -2.9641  2.2330
  814MOL0     O12195   4.761   3.449  11.252  0.4705 -0.0698  0.2188
  814MOL0     C12196   4.830   3.545  11.258 -1.2381 -0.7912 -0.5248
  814MOL0     O12197   4.791   3.673  11.252  0.1807 -1.1005 -0.0425
  814MOL0     C12198   4.655   3.710  11.248  0.0852 -0.1770  0.4035
  814MOL0     C12199   4.622   3.845  11.286 -0.4683 -0.2187 -0.3840
  814MOL0     C12200   4.499   3.898  11.291  0.7923  0.5400 -0.0341
  814MOL0     C12201   4.397   3.820  11.236  0.6198  0.1296  0.5304
  814MOL0     O12202   4.260   3.853  11.221 -0.2790  0.4063 -0.3124
  814MOL0     C12203   4.194   3.929  11.319  0.7126  0.4670 -0.9186
  814MOL0     C12204   4.044   3.913  11.329 -0.2639  0.3284 -0.5545
  814MOL0     C12205   4.006   3.761  11.335  0.9162  0.2025 -0.2456
  814MOL0     C12206   3.851   3.736  11.360  1.0634  0.4110  0.3930
  814MOL0     C12207   3.805   3.595  11.323 -0.3521 -1.1271 -0.1127
  814MOL0     C12208   3.890   3.487  11.387  0.6617  0.1482  0.0473
  814MOL0     C12209   3.836   3.347  11.371  0.1780 -0.5242 -0.5448
  814MOL0     C12210   3.917   3.256  11.454 -0.8531  0.4546 -1.0757
  814MOL0     N12211   4.051   3.233  11.409  0.1594  0.2079  0.7493
  814MOL0     C12212   4.092   3.207  11.281  0.3299  0.1625  0.2463
  814MOL0     C12213   4.227   3.218  11.284  0.2482  0.4620 -0.3936
  814MOL0     C12214   4.320   3.198  11.174 -1.0837  0.0860 -0.3727
  814MOL0     C12215   4.365   3.046  11.181 -0.4710  0.7011  0.1665
  814MOL0     C12216   4.464   3.026  11.068 -0.5355 -0.6091  0.4142
  814MOL0     C12217   4.601   3.102  11.100 -1.2420  0.4241  0.2262
  814MOL0     O12218   4.718   3.054  11.039 -0.4516  0.6239  0.0436
  814MOL0     C12219   4.709   3.024  10.904  0.5886 -0.0545  0.1065
  814MOL0     C12220   4.653   3.113  10.805 -0.0885 -0.1498 -1.5118
  814MOL0     C12221   4.631   3.055  10.680 -0.1277  0.4880  0.1560
  814MOL0     C12222   4.586   3.154  10.576  0.0550 -0.3979  0.6350
  814MOL0     C12223   4.641   2.920  10.651  0.7459  0.7487  0.7487
  814MOL0     C12224   4.592   2.854  10.527 -0.3717  0.2000  0.3231
  814MOL0     O12225   4.545   2.931  10.423 -0.4841  0.0067 -0.8956
  814MOL0     C12226   4.504   2.871  10.303  0.7557  0.0016  0.1232
  814MOL0     C12227   4.386   2.796  10.306  0.5501  0.6216  0.3318
  814MOL0     C12228   4.327   2.770  10.180 -0.3227 -0.2794  0.2411
  814MOL0     C12229   4.398   2.794  10.057 -0.7979 -0.1754  0.4413
  814MOL0     O12230   4.347   2.752   9.930  0.9356 -0.6725  0.1017
  814MOL0     C12231   4.339   2.856   9.831  0.1827  0.0037 -0.5562
  814MOL0     C12232   4.249   2.818   9.717  0.0550 -0.4137 -0.0922
  814MOL0     C12233   4.280   2.912   9.597  0.4053  0.4369 -0.1438
  814MOL0     C12234   4.206   2.861   9.475 -0.7137 -0.3487 -0.2932
  814MOL0     C12235   4.064   2.912   9.476 -0.3523 -0.1618 -0.1445
  814MOL0     C12236   3.987   2.881   9.341  1.0842 -0.1155  0.2182
  814MOL0     C12237   4.004   2.733   9.294  0.5135 -1.2213 -0.7839
  814MOL0     C12238   3.931   2.729   9.148  0.1702 -0.2686  0.1754
  814MOL0    Cl12239   3.922   2.558   9.098 -0.0868 -0.1930  0.0294
  814MOL0     C12240   4.520   2.855  10.058 -0.5153 -0.6425  0.2668
  814MOL0     C12241   4.582   2.888  10.180 -0.2869  0.0411 -0.1330
  814MOL0     O12242   4.606   2.734  10.525 -0.4249  0.4588  0.0190
  814MOL0     C12243   4.721   2.842  10.743  1.0277 -0.4942  0.1819
  814MOL0     C12244   4.756   2.896  10.867  0.6692 -0.1148  0.6102
  814MOL0     N12245   4.265   3.249  11.420  0.1310 -0.2816  0.5180
  814MOL0     N12246   4.160   3.265  11.487 -0.1002  0.1392 -0.6439
  814MOL0     C12247   4.429   3.697  11.177  0.6432 -0.3250  0.7560
  814MOL0     C12248   4.551   3.637  11.179  0.3611 -0.3844  0.1241
  814MOL0     C12249   4.977   3.521  11.278  0.5513  0.5891 -0.8444
  814MOL0     C12250   5.056   3.633  11.307 -0.0901  0.3026  0.1914
  814MOL0     C12251   5.189   3.627  11.320 -0.9498 -0.2142  0.6479
  814MOL0     C12252   5.255   3.505  11.310 -0.6094 -0.0967 -0.4072
  814MOL0     O12253   5.387   3.486  11.321 -0.1228  1.2240 -0.2957
  814MOL0     C12254   5.479   3.593  11.334  1.2209  0.6788 -0.0218
  814MOL0     C12255   5.489   3.685  11.204  0.8835  0.4694 -0.5956
  814MOL0     C12256   5.555   3.816  11.247  0.5941 -0.8066  0.5204
  814MOL0     C12257   5.710   3.804  11.264 -0.7619  0.7911  0.7408
  814MOL0     C12258   5.792   3.765  11.140 -0.7667 -0.1759 -0.1788
  814MOL0     C12259   5.850   3.741  11.033  0.3598 -0.5798 -0.0625
  814MOL0     C12260   5.180   3.391  11.293  0.2555 -0.0154 -0.0278
  814MOL0     C12261   5.045   3.398  11.268 -0.1094 -0.7774 -0.7777
  814MOL0     C12262   4.970   3.264  11.238 -0.1583 -0.5188 -0.9511
  814MOL0     H12263   4.712   3.897  11.319  0.2402 -0.7001 -1.4814
  814MOL0     H12264   4.478   3.994  11.336 -0.7205  0.1042  0.2642
  814MOL0     H12265   4.216   4.036  11.316 -0.9590  0.9480  1.5844
  814MOL0     H12266   4.236   3.901  11.416  1.1529  1.4276 -0.8144
  814MOL0     H12267   4.008   3.959  11.422 -1.3179 -1.1995 -0.1662
  814MOL0     H12268   4.011   3.970  11.241 -1.5939 -1.1926 -1.0863
  814MOL0     H12269   4.026   3.711  11.240 -1.3177 -1.2119 -0.0567
  814MOL0     H12270   4.080   3.722  11.405  2.1485  1.7405 -0.6383
  814MOL0     H12271   3.843   3.757  11.467  3.0914  1.5089  0.3794
  814MOL0     H12272   3.789   3.811  11.312  0.4614  1.4818  2.6932
  814MOL0     H12273   3.819   3.588  11.215  1.9762 -0.3053  0.0874
  814MOL0     H12274   3.702   3.598  11.359  0.2040  0.5721  1.4565
  814MOL0     H12275   3.988   3.489  11.336 -0.0887 -1.3300 -1.5532
  814MOL0     H12276   3.922   3.511  11.489  3.9382  3.7587 -1.5518
  814MOL0     H12277   3.844   3.325  11.264  3.1864  0.1994 -0.5471
  814MOL0     H12278   3.734   3.341  11.411  0.9246 -0.8086  1.4464
  814MOL0     H12279   3.925   3.308  11.550 -0.6784  4.0950 -2.8668
  814MOL0     H12280   3.873   3.157  11.458  0.3704 -0.2029 -2.6718
  814MOL0     H12281   4.032   3.182  11.194 -0.9886  1.3217  0.7706
  814MOL0     H12282   4.404   3.263  11.200  1.2313 -3.7097  2.8766
  814MOL0     H12283   4.272   3.232  11.083 -1.1366 -1.2660 -0.8722
  814MOL0     H12284   4.419   3.043  11.276 -0.7283 -3.1039  0.3790
  814MOL0     H12285   4.277   2.980  11.178 -0.2338  0.3982 -0.3007
  814MOL0     H12286   4.494   2.921  11.058  0.8736  0.0016 -4.3044
  814MOL0     H12287   4.439   3.044  10.963  1.4554 -1.4232 -0.2463
  814MOL0     H12288   4.580   3.202  11.059 -0.4983  0.0594 -1.1143
  814MOL0     H12289   4.621   3.128  11.204 -1.2807  1.3666  0.0130
  814MOL0     H12290   4.621   3.212  10.836  0.5449  0.5393 -2.9768
  814MOL0     H12291   4.480   3.145  10.551 -0.3438  2.0561  1.2075
  814MOL0     H12292   4.643   3.144  10.483 -0.0914 -2.8772  0.7442
  814MOL0     H12293   4.593   3.254  10.619  2.8066 -0.5254  0.6625
  814MOL0     H12294   4.350   2.778  10.407  0.6876  1.4567  0.5367
  814MOL0     H12295   4.231   2.721  10.166 -0.5599 -0.0314  0.9516
  814MOL0     H12296   4.311   2.952   9.874  1.9552  0.4516 -0.3465
  814MOL0     H12297   4.441   2.862   9.793 -0.5241 -0.8249 -2.7111
  814MOL0     H12298   4.277   2.719   9.681  2.2692  0.4146 -0.8295
  814MOL0     H12299   4.143   2.831   9.741 -0.0169  1.9670 -1.3856
  814MOL0     H12300   4.386   2.902   9.575  1.0848 -0.7630  3.0426
  814MOL0     H12301   4.262   3.015   9.629  2.4479  0.6136  0.5854
  814MOL0     H12302   4.210   2.753   9.464  4.8516 -0.4092 -0.3424
  814MOL0     H12303   4.267   2.895   9.390  0.1622 -0.5820  0.2314
  814MOL0     H12304   4.022   2.863   9.565  2.0908 -1.8059  0.1993
  814MOL0     H12305   4.068   3.020   9.491  2.9225 -0.6896  5.3891
  814MOL0     H12306   4.026   2.949   9.265  0.3736  2.2012  1.8072
  814MOL0     H12307   3.880   2.904   9.350  1.6200  2.6618  0.5231
  814MOL0     H12308   3.961   2.662   9.365  0.7571 -1.0008 -0.4178
  814MOL0     H12309   4.109   2.722   9.268  0.2356 -1.0728 -2.0382
  814MOL0     H12310   3.967   2.802   9.076 -2.7324 -0.8804 -2.0713
  814MOL0     H12311   3.827   2.761   9.158  0.8925  2.1515  0.5218
  814MOL0     H12312   4.583   2.863   9.971 -1.1346 -0.7223 -0.1948
  814MOL0     H12313   4.674   2.946  10.178 -0.3700  0.2076 -2.5369
  814MOL0     H12314   4.734   2.736  10.725 -2.6618 -0.6567 -3.0595
  814MOL0     H12315   4.816   2.843  10.940  3.9638 -0.9753 -2.4330
  814MOL0     H12316   4.350   3.647  11.121  0.5891 -1.0580  1.4646
  814MOL0     H12317   4.572   3.550  11.117  0.5289 -0.6828  0.5980
  814MOL0     H12318   5.015   3.733  11.311  4.4222  2.3611  0.4627
  814MOL0     H12319   5.247   3.715  11.347  2.0422 -2.4844  2.2486
  814MOL0     H12320   5.467   3.644  11.430  0.4323  1.5180 -0.5538
  814MOL0     H12321   5.572   3.536  11.340 -0.0898 -1.6247 -0.5601
  814MOL0     H12322   5.390   3.702  11.161  0.7825 -1.0516 -1.0259
  814MOL0     H12323   5.541   3.641  11.118 -0.4036  0.6241 -1.4795
  814MOL0     H12324   5.520   3.885  11.170  1.0343 -2.8286 -1.5964
  814MOL0     H12325   5.506   3.866  11.331  0.1206  4.2824 -2.3677
  814MOL0     H12326   5.750   3.743  11.346  1.0503 -0.7312 -1.1678
  814MOL0     H12327   5.756   3.902  11.280  3.2187 -0.5958 -0.8401
  814MOL0     H12328   5.892   3.710  10.939  1.3305  0.9847 -0.1642
  814MOL0     H12329   5.240   3.303  11.309  0.3732  0.4174  2.2667
  814MOL0     H12330   4.891   3.266  11.162 -0.3062  0.0507 -0.7873
  814MOL0     H12331   5.039   3.187  11.201 -0.4712 -0.6171 -1.3327
  814MOL0     H12332   4.919   3.248  11.333 -1.9314  4.3489 -0.8223
  815MOL0     O12333   2.298   1.359   8.347  0.3967 -0.8133 -0.2025
  815MOL0     C12334   2.204   1.389   8.419 -0.3786 -0.2745  0.2964
  815MOL0     O12335   2.072   1.348   8.398  0.2382 -0.0576  0.3648
  815MOL0     C12336   2.041   1.290   8.273  0.0404 -0.1919 -1.0087
  815MOL0     C12337   2.068   1.357   8.152 -0.4267 -0.2656  0.7161
  815MOL0     C12338   2.027   1.305   8.028 -0.2055  0.3916  0.2708
  815MOL0     C12339   1.948   1.187   8.025  0.4347  0.3787 -0.4378
  815MOL0     O12340   1.918   1.104   7.927  0.9038  0.3557  0.2585
  815MOL0     C12341   1.998   1.118   7.808 -0.5012  0.1591  0.1922
  815MOL0     C12342   1.948   1.175   7.678 -0.1583  0.3215  0.1649
  815MOL0     C12343   2.023   1.129   7.549 -0.1317 -0.1293  0.8371
  815MOL0     C12344   1.962   1.208   7.426  0.6603 -0.7235  1.5179
  815MOL0     C12345   1.988   1.158   7.279  0.5880 -0.0685  0.5631
  815MOL0     C12346   2.133   1.131   7.228  0.0366  0.2195 -0.5016
  815MOL0     C12347   2.231   1.240   7.270  0.2256  0.0210 -0.0614
  815MOL0     C12348   2.189   1.381   7.218 -0.3958  0.5611  0.6261
  815MOL0     N12349   2.276   1.491   7.276 -0.9840  0.2311  0.1582
  815MOL0     C12350   2.386   1.525   7.201  0.7941  0.1648  0.0492
  815MOL0     C12351   2.467   1.582   7.294 -0.2938 -0.4351 -0.7797
  815MOL0     C12352   2.601   1.644   7.261 -0.0157  0.0948  0.0903
  815MOL0     C12353   2.596   1.778   7.191 -0.6593 -1.2758 -0.0272
  815MOL0     C12354   2.557   1.880   7.303  0.6519 -1.1669 -0.1808
  815MOL0     C12355   2.580   2.024   7.273  1.4102  0.5806 -1.2579
  815MOL0     O12356   2.718   2.057   7.263 -0.0229  0.5739 -1.0290
  815MOL0     C12357   2.773   2.094   7.388 -0.4372  1.0666  0.0587
  815MOL0     C12358   2.782   2.225   7.414 -0.7136 -1.4395  0.2886
  815MOL0     C12359   2.832   2.271   7.539 -0.5497 -0.8363  0.4478
  815MOL0     C12360   2.852   2.421   7.550  0.5299  0.2090  0.3864
  815MOL0     C12361   2.886   2.184   7.639 -1.0894 -0.1277  0.0296
  815MOL0     C12362   2.932   2.216   7.771 -0.4217  0.4136 -0.2452
  815MOL0     O12363   3.019   2.120   7.831 -0.2538 -0.4103  0.2472
  815MOL0     C12364   3.038   2.147   7.961  0.2663 -0.1580  0.4508
  815MOL0     C12365   3.168   2.147   8.001 -0.2140 -0.7062 -1.4719
  815MOL0     C12366   3.201   2.155   8.133 -1.0358 -0.0225 -0.0887
  815MOL0     C12367   3.108   2.162   8.233  0.0484 -0.1524 -1.4704
  815MOL0     O12368   3.148   2.164   8.357 -0.0986  0.3280  0.2531
  815MOL0     C12369   3.258   2.251   8.398  0.4387  0.9927 -0.2980
  815MOL0     C12370   3.236   2.270   8.543  0.3915 -0.8122 -0.4517
  815MOL0     C12371   3.285   2.142   8.624 -0.1304 -0.3325 -0.0708
  815MOL0     C12372   3.432   2.167   8.664  0.8784 -0.0212 -0.3380
  815MOL0     C12373   3.477   2.071   8.765  0.2741 -0.2928  0.0763
  815MOL0     C12374   3.629   2.074   8.786  0.3720  0.5781  0.7972
  815MOL0     C12375   3.705   2.215   8.779  0.3954 -0.3272  0.1473
  815MOL0     C12376   3.837   2.209   8.854  0.0175  0.3966  0.6511
  815MOL0    Cl12377   3.936   2.353   8.827  0.7919  0.1595  0.2341
  815MOL0     C12378   2.972   2.138   8.207 -0.6985  0.5552  0.4915
  815MOL0     C12379   2.940   2.132   8.066  0.5334 -0.4788  0.5328
  815MOL0     O12380   2.882   2.309   7.830 -0.6040 -0.4129 -0.1899
  815MOL0     C12381   2.898   2.044   7.595 -0.0126  0.8381  0.4430
  815MOL0     C12382   2.840   1.999   7.467 -0.5720 -0.3798  0.2390
  815MOL0     N12383   2.405   1.586   7.427  0.0910  0.4416  0.4088
  815MOL0     N12384   2.289   1.527   7.406 -1.0320 -0.1572  0.0522
  815MOL0     C12385   1.898   1.138   8.148  0.1427 -0.2479  0.7910
  815MOL0     C12386   1.947   1.182   8.265  0.7248 -0.7833  0.8549
  815MOL0     C12387   2.223   1.490   8.533  0.1021  0.0470 -0.4256
  815MOL0     C12388   2.110   1.544   8.594  0.4965  0.1286 -0.4664
  815MOL0     C12389   2.117   1.645   8.694  0.3543  0.4412 -0.2442
  815MOL0     C12390   2.248   1.686   8.748  0.2705  0.5657  0.1310
  815MOL0     O12391   2.263   1.755   8.866 -0.2419  0.9117 -0.6117
  815MOL0     C12392   2.143   1.782   8.947  0.4959  0.1744  0.0765
  815MOL0     C12393   2.194   1.824   9.084 -0.3890 -0.4119  0.0432
  815MOL0     C12394   2.247   1.967   9.076 -0.9658  0.4420 -0.2641
  815MOL0     C12395   2.324   2.000   9.205 -0.3510 -0.6086  0.0524
  815MOL0     C12396   2.359   2.143   9.195  0.4120 -0.4088 -0.3941
  815MOL0     C12397   2.403   2.256   9.176 -0.3559 -0.3566  0.4934
  815MOL0     C12398   2.359   1.630   8.673  0.3058 -1.4229 -0.1045
  815MOL0     C12399   2.350   1.541   8.569 -0.2958  0.3148 -0.0828
  815MOL0     C12400   2.487   1.492   8.509 -0.2895  0.0915 -0.1876
  815MOL0     H12401   2.147   1.430   8.149 -1.4604  0.8497 -0.8332
  815MOL0     H12402   2.077   1.339   7.937 -0.2997  0.1564  0.1298
  815MOL0     H12403   2.031   1.016   7.782 -0.1673  0.5227 -0.8436
  815MOL0     H12404   2.092   1.170   7.831 -1.2450  1.7573 -0.2722
  815MOL0     H12405   1.845   1.144   7.659  1.1849 -3.9824 -1.2823
  815MOL0     H12406   1.948   1.284   7.692  1.8584  0.0843  2.7871
  815MOL0     H12407   2.131   1.144   7.552  0.0667 -1.5761  1.7572
  815MOL0     H12408   2.018   1.020   7.538  1.8470 -0.2426  0.7335
  815MOL0     H12409   1.853   1.210   7.436  0.8015 -1.7796  4.2637
  815MOL0     H12410   1.991   1.313   7.429 -0.3069 -0.4494  1.6374
  815MOL0     H12411   1.940   1.231   7.213  1.4285 -0.0290 -0.0127
  815MOL0     H12412   1.933   1.064   7.276 -1.0340  0.6812  3.1152
  815MOL0     H12413   2.170   1.035   7.266 -1.6014 -0.1771  0.1707
  815MOL0     H12414   2.133   1.112   7.121 -0.9782 -1.3649 -0.2437
  815MOL0     H12415   2.333   1.221   7.233  0.5161  1.6824 -0.2235
  815MOL0     H12416   2.238   1.241   7.379 -0.9566 -4.3991  0.2523
  815MOL0     H12417   2.200   1.382   7.109  0.2396 -2.4467  0.5917
  815MOL0     H12418   2.088   1.416   7.239  0.2572  2.6497  0.6084
  815MOL0     H12419   2.398   1.507   7.095 -0.1166  1.0533 -0.2219
  815MOL0     H12420   2.636   1.577   7.182  0.3934  1.2283 -0.7171
  815MOL0     H12421   2.657   1.647   7.355 -2.8746  0.8643  1.8985
  815MOL0     H12422   2.694   1.815   7.158 -1.0364  1.5977  1.7300
  815MOL0     H12423   2.532   1.780   7.103  0.7178  0.2377 -1.0663
  815MOL0     H12424   2.450   1.861   7.317  0.3908 -0.0323 -0.5660
  815MOL0     H12425   2.605   1.852   7.397 -2.3807  0.2368  1.9392
  815MOL0     H12426   2.523   2.054   7.184 -0.1813  0.3074 -0.3694
  815MOL0     H12427   2.535   2.084   7.353  1.5701 -0.1929 -0.5733
  815MOL0     H12428   2.758   2.304   7.343 -0.0185 -1.1302  0.3782
  815MOL0     H12429   2.918   2.455   7.469 -2.0036  4.2729 -0.2919
  815MOL0     H12430   2.912   2.451   7.637 -0.2200 -0.5129  1.1688
  815MOL0     H12431   2.757   2.471   7.531  0.0900 -1.7145 -3.5534
  815MOL0     H12432   3.247   2.148   7.926  1.3466  0.7412  0.1027
  815MOL0     H12433   3.306   2.141   8.158 -2.0221 -3.1166  3.1403
  815MOL0     H12434   3.360   2.219   8.373 -0.9038 -3.3770 -1.0076
  815MOL0     H12435   3.244   2.352   8.358 -0.5273  1.5370  1.3137
  815MOL0     H12436   3.290   2.362   8.566  0.7729 -1.2493  0.4695
  815MOL0     H12437   3.128   2.277   8.560  0.3847 -1.4992 -0.1557
  815MOL0     H12438   3.290   2.048   8.569  0.8717 -2.8088  3.8555
  815MOL0     H12439   3.213   2.136   8.705  0.9670  4.5853  1.6345
  815MOL0     H12440   3.440   2.268   8.707  1.9537 -1.0233  1.9621
  815MOL0     H12441   3.500   2.164   8.578 -2.3741  1.2397 -3.2227
  815MOL0     H12442   3.436   2.103   8.862 -1.6599 -3.2795  0.3630
  815MOL0     H12443   3.443   1.970   8.742 -2.8666  1.0982 -2.0960
  815MOL0     H12444   3.668   2.030   8.694 -0.3935  3.5975 -1.1207
  815MOL0     H12445   3.655   2.011   8.871 -0.5035  0.4104  0.9559
  815MOL0     H12446   3.653   2.291   8.837  1.5250  0.9415 -0.4228
  815MOL0     H12447   3.722   2.239   8.673  1.3737  0.8204  0.5437
  815MOL0     H12448   3.891   2.120   8.819 -2.4747 -0.1155 -2.3672
  815MOL0     H12449   3.812   2.203   8.960  1.4771  0.1267  0.9997
  815MOL0     H12450   2.897   2.130   8.285  0.5125 -0.7260  1.5509
  815MOL0     H12451   2.843   2.096   8.034  0.8499 -0.2418 -0.7443
  815MOL0     H12452   2.956   1.973   7.653  0.6595  0.9936 -0.0222
  815MOL0     H12453   2.837   1.894   7.440  1.6843 -1.3362  3.2265
  815MOL0     H12454   1.827   1.056   8.137 -0.6673  0.4955  0.3825
  815MOL0     H12455   1.917   1.142   8.362  1.8941 -3.5605  0.1805
  815MOL0     H12456   2.007   1.513   8.583 -0.5138  1.9345  2.6348
  815MOL0     H12457   2.034   1.689   8.747  2.1080  1.9898  1.3833
  815MOL0     H12458   2.075   1.858   8.906 -1.0430 -0.5610  1.1764
  815MOL0     H12459   2.087   1.688   8.953  2.1954 -0.9995 -1.3667
  815MOL0     H12460   2.267   1.751   9.120 -0.4601 -0.5175 -0.0257
  815MOL0     H12461   2.114   1.837   9.158 -0.0997 -0.2520  0.3289
  815MOL0     H12462   2.319   1.981   8.995  1.1111  1.2165  1.6142
  815MOL0     H12463   2.162   2.035   9.063 -2.1711 -0.0438  3.7160
  815MOL0     H12464   2.411   1.933   9.208 -0.1911 -0.3790  1.9038
  815MOL0     H12465   2.252   1.984   9.286 -1.9645 -1.2702 -1.4419
  815MOL0     H12466   2.445   2.353   9.157  2.4542 -1.4525  0.5239
  815MOL0     H12467   2.449   1.663   8.725 -0.3767 -1.0535  0.8841
  815MOL0     H12468   2.488   1.384   8.488 -0.4418 -0.5089  2.5171
  815MOL0     H12469   2.523   1.539   8.417  4.1433 -3.7677 -0.8449
  815MOL0     H12470   2.573   1.510   8.575 -1.5657 -1.5312  2.0540
  816MOL0     O12471   1.645   7.859   0.640  0.4229 -0.4569  0.2085
  816MOL0     C12472   1.695   7.836   0.743 -0.1016 -0.1097  0.3900
  816MOL0     O12473   1.640   7.871   0.860 -0.2078 -0.6234 -0.3395
  816MOL0     C12474   1.514   7.926   0.869  0.3164  0.0727  0.0266
  816MOL0     C12475   1.470   8.050   0.811  0.0562 -0.3617  0.6227
  816MOL0     C12476   1.342   8.095   0.830 -0.4517 -0.3016  0.5047
  816MOL0     C12477   1.263   8.027   0.921 -0.0074 -0.2997  0.1432
  816MOL0     O12478   1.147   8.095   0.958 -0.6872 -0.2246 -0.0316
  816MOL0     C12479   1.155   8.139   1.095  0.2676 -0.4043  0.1508
  816MOL0     C12480   1.048   8.068   1.167  0.3971  0.5904 -0.0916
  816MOL0     C12481   1.058   8.102   1.314  0.6491 -0.1727  0.0653
  816MOL0     C12482   0.941   8.068   1.407  0.0158  0.6049 -0.7491
  816MOL0     C12483   0.974   8.074   1.555 -0.6666  0.0544  0.6768
  816MOL0     C12484   0.861   8.021   1.644  0.8278 -0.7075 -0.7772
  816MOL0     C12485   0.900   8.019   1.796 -0.1128  1.0228  0.2456
  816MOL0     C12486   0.772   7.978   1.870 -0.4378  0.3644  0.4369
  816MOL0     N12487   0.785   8.006   2.021  0.7930  0.1802  0.3011
  816MOL0     C12488   0.803   7.906   2.117 -0.2080 -0.4229 -0.2792
  816MOL0     C12489   0.798   7.967   2.231  0.1353  1.0534 -0.0949
  816MOL0     C12490   0.854   7.888   2.348  0.0035 -0.2652 -0.7587
  816MOL0     C12491   1.000   7.906   2.361 -0.0550 -0.2628 -0.6850
  816MOL0     C12492   1.034   7.912   2.503  0.2570 -0.1213  0.2980
  816MOL0     C12493   1.180   7.969   2.521 -0.3840  0.0285 -0.1142
  816MOL0     O12494   1.223   7.929   2.653  0.2468  0.0251 -0.6794
  816MOL0     C12495   1.228   8.023   2.755  0.1855 -0.0369 -0.9986
  816MOL0     C12496   1.257   7.963   2.879 -0.5007 -0.1210  0.0005
  816MOL0     C12497   1.273   8.038   2.995 -0.3812  0.0901  0.8703
  816MOL0     C12498   1.294   7.946   3.109 -0.3076  0.9829  0.2458
  816MOL0     C12499   1.241   8.173   3.005  0.1252 -0.2899 -0.1460
  816MOL0     C12500   1.241   8.259   3.127  0.2537  0.1054 -0.6658
  816MOL0     O12501   1.295   8.211   3.238  0.2335 -0.3021 -0.5783
  816MOL0     C12502   1.299   8.297   3.350 -0.6632  0.6249 -0.0760
  816MOL0     C12503   1.344   8.427   3.357  0.5756 -0.2689  0.2780
  816MOL0     C12504   1.343   8.510   3.464  0.0004  0.4121 -0.4230
  816MOL0     C12505   1.310   8.451   3.581 -0.5306  0.8672 -0.0953
  816MOL0     O12506   1.346   8.535   3.693 -0.2080 -0.2337  0.1159
  816MOL0     C12507   1.359   8.472   3.826  0.0426  0.1982  0.3633
  816MOL0     C12508   1.491   8.382   3.828 -0.4408 -0.0066 -0.2654
  816MOL0     C12509   1.576   8.407   3.952 -0.0617 -0.0832 -0.0975
  816MOL0     C12510   1.680   8.297   3.989  0.5584 -0.5528 -0.1264
  816MOL0     C12511   1.747   8.326   4.121 -0.3172  0.5072  0.0223
  816MOL0     C12512   1.867   8.229   4.150  0.4831 -0.4771 -0.5413
  816MOL0     C12513   1.935   8.153   4.037 -0.3489 -0.4073  0.3721
  816MOL0     C12514   2.042   8.053   4.083 -0.3337 -0.3417  0.4284
  816MOL0    Cl12515   2.030   7.895   4.001  0.0483 -0.0833 -0.0211
  816MOL0     C12516   1.272   8.317   3.584 -0.1812  0.2344 -0.4369
  816MOL0     C12517   1.265   8.239   3.468  0.9347 -1.0067  0.6740
  816MOL0     O12518   1.193   8.369   3.112 -0.5416  1.2476  0.0251
  816MOL0     C12519   1.204   8.234   2.883  0.1348  0.2578  0.5222
  816MOL0     C12520   1.211   8.161   2.759 -0.3000 -1.0340  0.3481
  816MOL0     N12521   0.771   8.102   2.213  0.4655  0.1185  0.8152
  816MOL0     N12522   0.773   8.122   2.083  0.0435 -0.7115  0.5366
  816MOL0     C12523   1.297   7.911   0.984 -0.8719 -0.4610  0.3834
  816MOL0     C12524   1.426   7.859   0.956 -0.1372 -0.1016 -1.0682
  816MOL0     C12525   1.820   7.746   0.733 -1.1601  1.0902 -0.1087
  816MOL0     C12526   1.895   7.748   0.611  0.8009  0.4865  1.0222
  816MOL0     C12527   1.999   7.667   0.588  1.1377  0.8345  0.8739
  816MOL0     C12528   2.046   7.581   0.692  0.0990 -0.3100 -0.5329
  816MOL0     O12529   2.163   7.505   0.686  0.1966  0.5390  0.1598
  816MOL0     C12530   2.269   7.578   0.622  1.3447 -1.0236  0.4167
  816MOL0     C12531   2.334   7.662   0.728 -0.4508 -0.5653  0.4933
  816MOL0     C12532   2.379   7.579   0.845  0.0256 -1.0798 -0.2317
  816MOL0     C12533   2.424   7.671   0.966 -0.2312  0.2286  0.4526
  816MOL0     C12534   2.546   7.611   1.020 -0.2408  0.3979 -0.2144
  816MOL0     C12535   2.648   7.566   1.060 -0.5650  0.0050 -0.2107
  816MOL0     C12536   1.971   7.568   0.808  0.1157  0.1019  0.7127
  816MOL0     C12537   1.860   7.649   0.834 -0.4427 -0.9638 -0.8240
  816MOL0     C12538   1.805   7.648   0.973  0.0465  0.8223 -0.6490
  816MOL0     H12539   1.536   8.103   0.743 -2.3492 -1.1696 -2.5804
  816MOL0     H12540   1.301   8.190   0.798 -0.1923 -1.3303 -3.3956
  816MOL0     H12541   1.148   8.248   1.105  1.1501 -0.4961  2.6946
  816MOL0     H12542   1.252   8.113   1.138  0.5181 -2.9386 -1.7439
  816MOL0     H12543   0.952   8.097   1.124 -0.2683 -2.7180 -1.1184
  816MOL0     H12544   1.055   7.960   1.158  0.0652  0.4459  1.2120
  816MOL0     H12545   1.138   8.042   1.358 -0.2439  0.2204  2.3932
  816MOL0     H12546   1.081   8.207   1.336 -0.1552 -0.3176  1.8180
  816MOL0     H12547   0.848   8.123   1.389 -1.3933 -1.4705 -0.2410
  816MOL0     H12548   0.906   7.965   1.395 -0.8714  0.8407 -0.2704
  816MOL0     H12549   0.988   8.174   1.597 -0.0725 -0.7537  2.4680
  816MOL0     H12550   1.052   8.003   1.584 -2.3177 -1.3189  1.9259
  816MOL0     H12551   0.770   8.079   1.629  2.1838  1.4643 -1.0611
  816MOL0     H12552   0.837   7.917   1.618  3.2380 -1.5066 -0.0933
  816MOL0     H12553   0.938   8.115   1.832 -0.1926  2.0288 -2.2002
  816MOL0     H12554   0.976   7.944   1.818 -0.6803  0.8031  1.5831
  816MOL0     H12555   0.700   8.051   1.830  0.9358  1.8534  0.5546
  816MOL0     H12556   0.740   7.875   1.855  1.5194 -0.3105  0.7258
  816MOL0     H12557   0.828   7.802   2.096 -1.3577 -0.5243 -1.2901
  816MOL0     H12558   0.838   7.781   2.331  2.2888 -0.2467 -3.8099
  816MOL0     H12559   0.802   7.924   2.437  1.2163 -0.5572  0.0927
  816MOL0     H12560   1.063   7.831   2.311 -1.7101 -1.9630 -0.3098
  816MOL0     H12561   1.040   8.000   2.319 -0.1224 -0.6703 -1.6948
  816MOL0     H12562   0.966   7.981   2.554  1.2489  1.1816 -0.0863
  816MOL0     H12563   1.029   7.814   2.551 -0.6898  0.8297  2.2544
  816MOL0     H12564   1.244   7.925   2.443  1.0853  1.1178  0.4407
  816MOL0     H12565   1.180   8.076   2.501 -0.6534  0.3907  1.6841
  816MOL0     H12566   1.274   7.856   2.880  0.5302  0.0338 -0.1378
  816MOL0     H12567   1.322   7.844   3.080  1.2528  2.0785 -2.4747
  816MOL0     H12568   1.205   7.927   3.169 -0.1622 -1.4415 -0.1966
  816MOL0     H12569   1.382   7.971   3.169 -0.6195 -1.8758  2.0845
  816MOL0     H12570   1.372   8.482   3.267  1.3338  1.8842  1.7418
  816MOL0     H12571   1.384   8.610   3.473  4.4380 -1.3483  1.8202
  816MOL0     H12572   1.367   8.546   3.906 -2.0746 -0.1899  1.0140
  816MOL0     H12573   1.269   8.419   3.859 -0.2632  1.4286  1.5921
  816MOL0     H12574   1.466   8.277   3.838  3.0564 -0.8720  0.8829
  816MOL0     H12575   1.544   8.386   3.732 -1.2012 -0.6374 -0.7219
  816MOL0     H12576   1.503   8.413   4.033 -1.5537  0.3663 -1.4219
  816MOL0     H12577   1.631   8.501   3.950 -1.1611  0.5776 -1.9228
  816MOL0     H12578   1.758   8.306   3.914  2.9031  0.5063  2.2895
  816MOL0     H12579   1.630   8.200   3.977 -6.5153  2.5985 -1.1329
  816MOL0     H12580   1.794   8.424   4.112 -1.2296  1.2554  2.5024
  816MOL0     H12581   1.683   8.329   4.210  1.8144  1.6501  1.5963
  816MOL0     H12582   1.836   8.151   4.219 -2.7634  0.6244 -0.6052
  816MOL0     H12583   1.945   8.286   4.202 -0.4513  1.6171 -1.3003
  816MOL0     H12584   1.990   8.215   3.966  1.6541 -1.0361  1.3191
  816MOL0     H12585   1.852   8.111   3.978  1.0692  1.2910 -3.1166
  816MOL0     H12586   2.058   8.041   4.191  0.0696 -2.2373  0.1954
  816MOL0     H12587   2.132   8.105   4.049 -0.3139  0.5605  1.8005
  816MOL0     H12588   1.270   8.264   3.679 -2.6696  1.2607  0.1370
  816MOL0     H12589   1.230   8.136   3.472  0.3885 -0.7994  1.7530
  816MOL0     H12590   1.169   8.336   2.897 -1.1106 -0.4722  3.6972
  816MOL0     H12591   1.188   8.229   2.678  3.5400  1.4505  1.0745
  816MOL0     H12592   1.223   7.855   1.040 -2.5742  1.1325 -0.1725
  816MOL0     H12593   1.456   7.773   1.015 -3.2129 -0.3751  0.3000
  816MOL0     H12594   1.860   7.807   0.526  0.5634  2.1075  2.2014
  816MOL0     H12595   2.049   7.664   0.491  2.1783 -2.4598  1.3536
  816MOL0     H12596   2.332   7.497   0.583  3.1964  0.3127  0.4993
  816MOL0     H12597   2.240   7.635   0.534  0.3928 -1.9051  0.1492
  816MOL0     H12598   2.266   7.741   0.760  1.4840  0.5694  2.0584
  816MOL0     H12599   2.425   7.709   0.690 -0.1632 -1.8401 -0.4551
  816MOL0     H12600   2.295   7.520   0.885 -1.8403  0.2093 -2.0190
  816MOL0     H12601   2.449   7.503   0.809 -2.0274 -3.0926 -0.2282
  816MOL0     H12602   2.346   7.680   1.042 -1.0363  1.4686 -0.4831
  816MOL0     H12603   2.429   7.771   0.923 -0.7948 -1.1551 -3.2009
  816MOL0     H12604   2.750   7.547   1.084 -0.1460 -1.3025 -2.7431
  816MOL0     H12605   1.995   7.495   0.884 -1.7271  0.8896  2.1294
  816MOL0     H12606   1.831   7.742   1.023  1.9236  0.3911 -0.7203
  816MOL0     H12607   1.697   7.647   0.959  0.1427 -0.3048 -1.4353
  816MOL0     H12608   1.838   7.558   1.026  0.0233  0.9868 -0.3512
  817MOL0     O12609   2.078  10.014   4.165  0.2547  0.0385 -0.5309
  817MOL0     C12610   2.013   9.931   4.229  0.0150 -0.8772  0.0367
  817MOL0     O12611   1.938   9.956   4.346 -0.1957 -0.6943  0.2725
  817MOL0     C12612   1.931  10.086   4.396 -0.5641 -0.2447 -0.3334
  817MOL0     C12613   1.902  10.195   4.315  0.3792 -0.1116  0.9882
  817MOL0     C12614   1.930  10.328   4.360 -0.1033 -0.4421 -0.1996
  817MOL0     C12615   1.961  10.339   4.496 -0.9665 -0.2748 -0.9050
  817MOL0     O12616   1.981  10.461   4.554  0.7882 -0.8378 -0.6781
  817MOL0     C12617   2.007  10.580   4.471 -0.6685 -0.0821  0.3605
  817MOL0     C12618   2.051  10.692   4.561 -0.6719 -1.2761 -0.4999
  817MOL0     C12619   2.097  10.816   4.479  0.0989  0.0743 -0.0954
  817MOL0     C12620   2.240  10.793   4.413 -0.4857  0.0452 -0.8035
  817MOL0     C12621   2.331  10.925   4.419  0.0678  1.4409  0.4580
  817MOL0     C12622   2.440  10.923   4.308  0.0935 -0.3276 -0.1932
  817MOL0     C12623   2.555  10.823   4.342 -0.3807  0.2073 -1.5729
  817MOL0     C12624   2.671  10.844   4.250 -1.1222  0.6974 -0.6143
  817MOL0     N12625   2.748  10.724   4.228  0.2414  0.3101  0.0541
  817MOL0     C12626   2.847  10.683   4.312  1.2881  0.1724 -0.0159
  817MOL0     C12627   2.891  10.569   4.272  0.8704 -0.1412 -0.3553
  817MOL0     C12628   3.019  10.496   4.304  1.1251  0.5188  0.5078
  817MOL0     C12629   2.985  10.382   4.408 -0.6218  0.0224  0.2800
  817MOL0     C12630   3.111  10.304   4.468  0.0259 -0.6083 -0.1434
  817MOL0     C12631   3.085  10.220   4.592  0.7245 -0.4060 -0.3511
  817MOL0     O12632   3.089  10.328   4.684 -0.1144 -0.3947  0.1876
  817MOL0     C12633   3.026  10.305   4.806  0.0077 -0.6233  0.1013
  817MOL0     C12634   3.082  10.210   4.900 -0.0667  0.1898  0.0001
  817MOL0     C12635   3.019  10.171   5.021 -1.0592 -0.2205 -0.3279
  817MOL0     C12636   3.061  10.039   5.066 -0.3366 -1.2391 -0.7953
  817MOL0     C12637   2.906  10.243   5.064  0.2884  0.7847  0.8996
  817MOL0     C12638   2.844  10.219   5.191 -0.1733 -0.6013 -0.3444
  817MOL0     O12639   2.918  10.175   5.302  0.2364 -0.4304 -0.1405
  817MOL0     C12640   2.849  10.167   5.419 -0.2964  0.0220  0.4823
  817MOL0     C12641   2.843  10.048   5.502  0.2115 -0.8350  0.0917
  817MOL0     C12642   2.769  10.040   5.620 -0.1979  0.7119  0.2974
  817MOL0     C12643   2.704  10.156   5.662 -0.0530  0.7521 -0.1333
  817MOL0     O12644   2.642  10.154   5.784  0.2999  0.4370  0.0789
  817MOL0     C12645   2.505  10.141   5.757  0.3837  0.4474  0.0211
  817MOL0     C12646   2.431  10.077   5.881 -0.3353 -0.8878 -0.4170
  817MOL0     C12647   2.448   9.923   5.899 -0.4262  0.0556  0.1721
  817MOL0     C12648   2.366   9.876   6.012 -0.7079 -0.6682  0.5184
  817MOL0     C12649   2.376   9.727   6.035 -0.7575  0.7063 -0.9881
  817MOL0     C12650   2.332   9.699   6.184  0.0942  0.0946 -0.1433
  817MOL0     C12651   2.456   9.687   6.276  0.0522  0.2749  0.5445
  817MOL0     C12652   2.425   9.731   6.415 -0.4608  0.6175 -0.0855
  817MOL0    Cl12653   2.319   9.613   6.502 -0.2499 -0.1811 -0.2850
  817MOL0     C12654   2.712  10.275   5.591  0.0410 -0.8559  0.2239
  817MOL0     C12655   2.787  10.284   5.471  0.5678  0.4505 -0.4405
  817MOL0     O12656   2.725  10.227   5.194 -0.0866 -0.0375 -0.1017
  817MOL0     C12657   2.882  10.367   4.997  0.6497 -0.0898 -0.7255
  817MOL0     C12658   2.948  10.399   4.873 -0.2889  0.1965  0.4306
  817MOL0     N12659   2.803  10.538   4.167  0.5844 -0.3171 -0.7892
  817MOL0     N12660   2.713  10.627   4.143 -0.1447  0.6095 -0.4340
  817MOL0     C12661   1.975  10.226   4.577 -0.3625 -0.0269 -0.7317
  817MOL0     C12662   1.983  10.099   4.520 -0.6379 -0.3340 -0.5796
  817MOL0     C12663   1.992   9.802   4.169  0.3555 -0.7036 -0.3313
  817MOL0     C12664   1.858   9.750   4.163  1.0941  0.0854 -0.0609
  817MOL0     C12665   1.838   9.616   4.149  0.4088  0.6681  0.1922
  817MOL0     C12666   1.941   9.528   4.136  0.6318 -0.8828  0.0609
  817MOL0     O12667   1.905   9.399   4.120  0.7181  0.1492 -0.2572
  817MOL0     C12668   1.976   9.315   4.035  0.3617 -0.2402  0.5743
  817MOL0     C12669   1.984   9.176   4.088 -0.5533  0.3754 -1.1057
  817MOL0     C12670   1.860   9.093   4.129 -0.4570 -0.3859  0.9522
  817MOL0     C12671   1.741   9.103   4.033  0.6170 -1.0479  0.6233
  817MOL0     C12672   1.635   9.190   4.085  0.9133  0.5482 -0.4138
  817MOL0     C12673   1.560   9.267   4.144 -0.4978 -0.6283  0.5537
  817MOL0     C12674   2.069   9.579   4.131  0.3683  0.6786 -0.3333
  817MOL0     C12675   2.099   9.719   4.149 -0.4347 -0.5168  0.0111
  817MOL0     C12676   2.242   9.760   4.156  0.6118  0.1938 -1.0597
  817MOL0     H12677   1.862  10.182   4.215 -0.6220  0.6966  1.2755
  817MOL0     H12678   1.922  10.423   4.308 -0.3231  0.4212  1.3568
  817MOL0     H12679   1.917  10.606   4.414  0.5463 -0.1391 -1.6991
  817MOL0     H12680   2.091  10.559   4.404  0.1381  2.1955  0.5705
  817MOL0     H12681   1.957  10.712   4.613 -0.9325 -1.1809 -1.0066
  817MOL0     H12682   2.127  10.668   4.637  0.1554 -1.1083 -1.2519
  817MOL0     H12683   2.031  10.836   4.393  0.4205  0.4420 -0.2583
  817MOL0     H12684   2.095  10.907   4.539  1.0380 -0.8173  1.3360
  817MOL0     H12685   2.309  10.716   4.448  0.5870  0.2431 -2.3587
  817MOL0     H12686   2.223  10.767   4.308  2.4000 -0.9782 -1.1196
  817MOL0     H12687   2.372  10.936   4.519  0.2520 -4.1432  1.3139
  817MOL0     H12688   2.259  11.005   4.402 -1.8030  1.1441  5.3073
  817MOL0     H12689   2.381  10.903   4.218 -3.7281  0.3780  1.9365
  817MOL0     H12690   2.479  11.023   4.286  0.1962 -0.9699 -3.4837
  817MOL0     H12691   2.518  10.720   4.334 -0.2503 -0.3420  2.7519
  817MOL0     H12692   2.597  10.843   4.441 -1.7367  0.3233 -1.0022
  817MOL0     H12693   2.627  10.862   4.151 -2.9690 -0.1679  0.0090
  817MOL0     H12694   2.721  10.941   4.262 -1.4500  0.8506 -0.4808
  817MOL0     H12695   2.889  10.741   4.394 -0.4719 -3.3281  3.7168
  817MOL0     H12696   3.106  10.559   4.325  2.6559 -1.4150  0.2919
  817MOL0     H12697   3.043  10.443   4.211 -1.1642  1.6902 -0.8087
  817MOL0     H12698   2.942  10.440   4.490  1.4418 -1.1811  2.3396
  817MOL0     H12699   2.905  10.316   4.374 -0.1973  0.8717 -2.6105
  817MOL0     H12700   3.150  10.240   4.388  3.6097  2.4399 -1.1360
  817MOL0     H12701   3.184  10.383   4.492 -1.4704  0.8115 -0.1281
  817MOL0     H12702   2.992  10.167   4.574  0.3054  0.5753 -1.1662
  817MOL0     H12703   3.169  10.152   4.613 -0.3642 -1.0237  2.4613
  817MOL0     H12704   3.171  10.160   4.863  0.3827 -0.3382  1.6991
  817MOL0     H12705   2.992   9.954   5.061 -0.9185 -0.7257 -1.6754
  817MOL0     H12706   3.072  10.047   5.175 -2.6210  0.1994 -0.5915
  817MOL0     H12707   3.160  10.015   5.028 -0.5003 -1.8579 -0.8388
  817MOL0     H12708   2.891   9.957   5.468 -1.1747 -2.5527  2.4021
  817MOL0     H12709   2.766   9.951   5.682  1.9725  0.4249  0.0679
  817MOL0     H12710   2.472  10.245   5.744  1.3838  0.8561  0.6288
  817MOL0     H12711   2.469  10.095   5.665  0.4209 -0.4254  0.4334
  817MOL0     H12712   2.468  10.136   5.966 -1.6381  1.7725 -1.5797
  817MOL0     H12713   2.322  10.087   5.876 -0.3376  0.7728  1.5005
  817MOL0     H12714   2.552   9.890   5.897 -0.6048 -0.6065 -2.9123
  817MOL0     H12715   2.415   9.877   5.805  0.9324  2.5509 -1.6556
  817MOL0     H12716   2.262   9.903   5.990 -0.9400 -0.9654  1.2094
  817MOL0     H12717   2.394   9.931   6.103 -0.3389  0.4049 -0.2337
  817MOL0     H12718   2.296   9.682   5.974 -1.6607  0.1323  0.5744
  817MOL0     H12719   2.467   9.674   6.005 -1.6006 -0.9945 -0.7178
  817MOL0     H12720   2.277   9.605   6.193  1.8639 -1.2133 -1.9882
  817MOL0     H12721   2.264   9.775   6.222  1.2743  0.5919  1.0695
  817MOL0     H12722   2.541   9.741   6.233  0.5902 -1.5521 -0.8346
  817MOL0     H12723   2.492   9.584   6.267 -0.2245  0.2393 -0.2578
  817MOL0     H12724   2.378   9.830   6.418 -0.6247  0.7601 -3.4030
  817MOL0     H12725   2.525   9.738   6.458 -0.2553 -2.7912  0.2825
  817MOL0     H12726   2.684  10.364   5.647  3.2731  0.3646  0.1329
  817MOL0     H12727   2.791  10.378   5.417  1.5349  1.5372  1.4120
  817MOL0     H12728   2.811  10.433   5.044 -0.1196 -0.4782 -1.3279
  817MOL0     H12729   2.911  10.485   4.818 -3.4090 -0.1337  1.8074
  817MOL0     H12730   2.019  10.238   4.676  2.0664 -1.6988 -1.5294
  817MOL0     H12731   2.021  10.010   4.570  1.0896 -0.7048 -2.4234
  817MOL0     H12732   1.779   9.819   4.191 -1.4073 -2.4124 -0.5065
  817MOL0     H12733   1.736   9.583   4.159  0.7482 -0.2042  0.8619
  817MOL0     H12734   1.932   9.330   3.936  1.2283  3.2156  0.5815
  817MOL0     H12735   2.078   9.349   4.014 -0.2659  1.1629 -0.3835
  817MOL0     H12736   2.043   9.189   4.179  0.0990 -0.9664 -1.3082
  817MOL0     H12737   2.014   9.111   4.005  0.6464  1.3897 -1.4855
  817MOL0     H12738   1.894   8.989   4.129  0.6969 -0.0314  1.5798
  817MOL0     H12739   1.832   9.113   4.233 -0.4798 -0.2362  0.9184
  817MOL0     H12740   1.697   9.005   4.010  1.1965 -0.5557 -3.4937
  817MOL0     H12741   1.792   9.133   3.941  3.0065 -2.4688  1.3943
  817MOL0     H12742   1.501   9.337   4.199  1.3852 -0.0509  1.9389
  817MOL0     H12743   2.157   9.516   4.120 -1.2874 -2.4752  2.4841
  817MOL0     H12744   2.272   9.857   4.115  1.3293  1.4786  2.1876
  817MOL0     H12745   2.277   9.764   4.260  0.1955  2.4639 -0.9462
  817MOL0     H12746   2.312   9.688   4.112 -2.0827 -3.7756  0.5486
  818MOL0     O12747   1.005   1.598   9.032 -0.1377 -1.0716 -0.6080
  818MOL0     C12748   0.915   1.632   9.113 -0.1678 -0.0057 -0.2834
  818MOL0     O12749   0.817   1.718   9.089  0.3124 -0.4333 -0.7175
  818MOL0     C12750   0.772   1.733   8.964 -0.7823  0.0741  0.5573
  818MOL0     C12751   0.723   1.624   8.889  0.8327 -0.0227 -0.6812
  818MOL0     C12752   0.683   1.638   8.758 -0.4388 -0.3953  0.1117
  818MOL0     C12753   0.695   1.769   8.692 -0.3368  0.3537 -0.1012
  818MOL0     O12754   0.672   1.769   8.556  0.1972  0.8410 -0.1260
  818MOL0     C12755   0.613   1.895   8.507 -0.6241 -0.6525 -0.4858
  818MOL0     C12756   0.527   1.875   8.393 -0.1403  0.2533  0.0731
  818MOL0     C12757   0.460   2.007   8.345  0.1204 -1.1148  0.6125
  818MOL0     C12758   0.560   2.084   8.262 -0.3878  0.0684  0.4425
  818MOL0     C12759   0.495   2.224   8.235  0.3600 -0.0893 -0.6160
  818MOL0     C12760   0.604   2.338   8.234  0.1581 -1.3534 -0.2492
  818MOL0     C12761   0.552   2.478   8.180 -0.4791  0.6260 -0.1521
  818MOL0     C12762   0.673   2.582   8.179 -0.3993 -0.0510 -0.4800
  818MOL0     N12763   0.633   2.692   8.085  0.3849  0.8667 -0.1049
  818MOL0     C12764   0.617   2.670   7.948  0.0512  0.3154 -0.3957
  818MOL0     C12765   0.568   2.787   7.906  0.1288  0.1240 -0.5079
  818MOL0     C12766   0.535   2.814   7.762  0.3985 -0.4421  0.6803
  818MOL0     C12767   0.497   2.693   7.688  0.6462  0.0373  0.3170
  818MOL0     C12768   0.430   2.733   7.555  0.6948  0.0006 -0.5194
  818MOL0     C12769   0.393   2.617   7.458 -0.3979 -0.0077  0.1822
  818MOL0     O12770   0.320   2.526   7.538 -0.3297  0.7160 -0.4701
  818MOL0     C12771   0.346   2.396   7.531 -1.0222  0.7590 -0.8526
  818MOL0     C12772   0.343   2.318   7.652  0.5186  0.5680 -0.5524
  818MOL0     C12773   0.410   2.198   7.656 -0.3540  0.4003  0.1615
  818MOL0     C12774   0.451   2.134   7.792  0.0057 -0.2674  0.2133
  818MOL0     C12775   0.458   2.137   7.538 -0.9519  0.2410  0.2401
  818MOL0     C12776   0.506   1.997   7.516  0.4110  0.2805 -0.9522
  818MOL0     O12777   0.609   1.981   7.433  0.0302 -0.2117 -0.0148
  818MOL0     C12778   0.674   1.864   7.418 -0.3238 -0.1470 -0.5801
  818MOL0     C12779   0.742   1.845   7.291 -0.2966  0.3256  0.2116
  818MOL0     C12780   0.813   1.728   7.267 -0.1709 -0.1161 -0.2292
  818MOL0     C12781   0.824   1.629   7.369  0.5440  0.0029 -0.1142
  818MOL0     O12782   0.899   1.512   7.347  0.0217  1.0202 -0.6789
  818MOL0     C12783   1.023   1.527   7.408 -0.0495  0.6772 -0.5109
  818MOL0     C12784   1.097   1.390   7.419  0.0321 -0.7216  0.6490
  818MOL0     C12785   1.238   1.423   7.479  0.7014  0.2485 -0.8016
  818MOL0     C12786   1.266   1.295   7.571  0.3907 -0.0893  0.0976
  818MOL0     C12787   1.421   1.269   7.609 -0.3307 -0.2424  0.3455
  818MOL0     C12788   1.435   1.141   7.693  0.5706 -0.3890 -0.2910
  818MOL0     C12789   1.554   1.135   7.781 -0.9134 -0.2744 -0.5410
  818MOL0     C12790   1.587   0.990   7.829  0.0324  0.2061 -0.3630
  818MOL0    Cl12791   1.678   0.917   7.695  0.0285 -0.0801  0.0698
  818MOL0     C12792   0.770   1.647   7.494  0.1708 -0.9066  0.0539
  818MOL0     C12793   0.705   1.773   7.527  0.6801 -0.9100 -0.2282
  818MOL0     O12794   0.452   1.900   7.576 -0.0564 -0.8795 -0.0525
  818MOL0     C12795   0.449   2.207   7.417 -0.0737  0.7905  0.2946
  818MOL0     C12796   0.406   2.339   7.415 -0.7093 -0.2976 -0.7058
  818MOL0     N12797   0.575   2.882   8.006 -0.3262 -0.3006 -0.4267
  818MOL0     N12798   0.607   2.824   8.116 -0.2275 -0.5854  1.2905
  818MOL0     C12799   0.753   1.872   8.770  0.0229  0.4168  0.1811
  818MOL0     C12800   0.769   1.857   8.901  0.2109  0.2112 -1.0524
  818MOL0     C12801   0.922   1.586   9.248 -0.4838 -0.4064 -0.9008
  818MOL0     C12802   1.048   1.536   9.297 -0.6549 -0.2503 -0.4167
  818MOL0     C12803   1.065   1.476   9.422 -0.3780  0.0059  0.5005
  818MOL0     C12804   0.964   1.489   9.521  0.6754 -0.5089 -0.0984
  818MOL0     O12805   0.989   1.431   9.643  0.4107 -0.2585 -0.2747
  818MOL0     C12806   0.902   1.449   9.756  0.0956  0.6138  0.1605
  818MOL0     C12807   0.965   1.519   9.863 -0.7949 -0.4568 -0.0298
  818MOL0     C12808   0.979   1.667   9.828  0.0421 -0.8558 -0.5135
  818MOL0     C12809   1.113   1.723   9.787 -0.0227  0.1648 -0.2056
  818MOL0     C12810   1.115   1.860   9.744  0.1436 -0.1700  0.5248
  818MOL0     C12811   1.137   1.976   9.730 -0.6168 -0.7538  0.3948
  818MOL0     C12812   0.842   1.555   9.483  0.0903 -0.2093 -0.3673
  818MOL0     C12813   0.819   1.601   9.352 -0.9104 -0.7052 -0.4604
  818MOL0     C12814   0.676   1.642   9.313  0.3200 -0.1515  0.7138
  818MOL0     H12815   0.722   1.529   8.943  0.9520  0.7353  0.7022
  818MOL0     H12816   0.656   1.546   8.707 -0.1776 -0.6918  0.5040
  818MOL0     H12817   0.697   1.961   8.486  1.4430 -2.0068  2.7616
  818MOL0     H12818   0.548   1.927   8.589 -3.8740 -3.7446 -1.5844
  818MOL0     H12819   0.580   1.824   8.312 -0.0587  1.4664 -0.6726
  818MOL0     H12820   0.452   1.804   8.428  1.1146 -0.0131  2.4273
  818MOL0     H12821   0.361   1.998   8.302 -0.9271 -0.8510  2.8185
  818MOL0     H12822   0.434   2.075   8.426 -1.8460 -0.9922 -0.0839
  818MOL0     H12823   0.651   2.076   8.321 -0.6927 -2.7913  0.6832
  818MOL0     H12824   0.572   2.040   8.162 -3.4586  0.3563 -0.1827
  818MOL0     H12825   0.426   2.247   8.318 -1.2154 -0.4277 -1.7868
  818MOL0     H12826   0.438   2.208   8.143 -0.6784 -0.7961  0.1229
  818MOL0     H12827   0.655   2.352   8.330  0.7109  1.7416 -0.8618
  818MOL0     H12828   0.681   2.299   8.167  0.6873 -0.4939 -0.1578
  818MOL0     H12829   0.458   2.506   8.229  0.2276  2.9091  0.0172
  818MOL0     H12830   0.526   2.458   8.076 -0.8776 -0.3167  0.1148
  818MOL0     H12831   0.690   2.616   8.281  2.7125  0.2401 -0.9844
  818MOL0     H12832   0.770   2.539   8.154  1.2188  2.3957  1.1803
  818MOL0     H12833   0.631   2.580   7.889 -0.9589  0.4091 -0.7928
  818MOL0     H12834   0.626   2.846   7.712 -0.1872  2.6960  1.4215
  818MOL0     H12835   0.454   2.887   7.773 -0.4914 -1.6436  2.7529
  818MOL0     H12836   0.583   2.627   7.673 -0.1283 -0.8705 -0.3323
  818MOL0     H12837   0.417   2.641   7.742 -1.0543  1.4624 -0.7314
  818MOL0     H12838   0.338   2.787   7.579  0.6796 -1.0487  2.0661
  818MOL0     H12839   0.491   2.804   7.498 -2.0768  2.8875 -0.1746
  818MOL0     H12840   0.343   2.652   7.368 -0.0177 -1.5108 -0.6424
  818MOL0     H12841   0.487   2.565   7.438 -2.3624 -2.2660 -4.8556
  818MOL0     H12842   0.308   2.351   7.749  1.4426 -2.7879  1.0759
  818MOL0     H12843   0.506   2.204   7.857  2.2917 -2.9123  1.3467
  818MOL0     H12844   0.514   2.049   7.765 -0.1107  0.7071 -3.8252
  818MOL0     H12845   0.361   2.107   7.847  0.7175 -1.3581  0.8850
  818MOL0     H12846   0.738   1.920   7.213  0.2686  0.3957  0.2498
  818MOL0     H12847   0.862   1.723   7.170  0.1442 -3.1560 -0.0224
  818MOL0     H12848   1.079   1.597   7.346  1.1232  0.8311  0.6782
  818MOL0     H12849   1.020   1.555   7.514 -1.8718  1.4457 -0.7434
  818MOL0     H12850   1.038   1.326   7.484  2.6470 -1.4056  2.4924
  818MOL0     H12851   1.116   1.348   7.319  3.8683 -0.2451  1.0171
  818MOL0     H12852   1.223   1.515   7.535 -0.9910 -1.0854  1.0575
  818MOL0     H12853   1.315   1.425   7.401 -1.5190  3.2793 -3.1330
  818MOL0     H12854   1.230   1.207   7.516  1.2019 -1.5064  1.7134
  818MOL0     H12855   1.206   1.304   7.663 -1.8502  1.7678 -1.4269
  818MOL0     H12856   1.486   1.259   7.521  0.0669  1.3810  0.4353
  818MOL0     H12857   1.456   1.353   7.670 -1.6284  1.9266 -1.7247
  818MOL0     H12858   1.436   1.056   7.623  0.8159  0.0347 -0.8104
  818MOL0     H12859   1.344   1.126   7.751  0.6154  2.6642  0.7096
  818MOL0     H12860   1.543   1.201   7.867  4.2092 -0.4876  0.6006
  818MOL0     H12861   1.641   1.171   7.724  0.1188 -2.6749 -0.6214
  818MOL0     H12862   1.501   0.928   7.855  0.7136 -0.4873  0.2993
  818MOL0     H12863   1.649   0.983   7.919 -0.2519 -2.0542 -0.2973
  818MOL0     H12864   0.777   1.571   7.571  0.9134  0.1507  1.0594
  818MOL0     H12865   0.663   1.798   7.623  0.7564 -1.7123  0.0182
  818MOL0     H12866   0.497   2.179   7.324  0.9459 -0.1833  1.0922
  818MOL0     H12867   0.404   2.384   7.316  3.2285 -0.8357 -1.2223
  818MOL0     H12868   0.771   1.967   8.719 -0.6398  0.1462 -0.5899
  818MOL0     H12869   0.803   1.941   8.961 -3.4604  2.3609 -1.6463
  818MOL0     H12870   1.132   1.524   9.230 -1.1031 -1.6435 -0.7702
  818MOL0     H12871   1.160   1.436   9.455 -0.1910  1.3739  1.7043
  818MOL0     H12872   0.803   1.492   9.742 -0.4766 -0.7540 -0.1277
  818MOL0     H12873   0.888   1.345   9.785  2.1331 -0.1526 -1.3194
  818MOL0     H12874   1.061   1.482   9.898  1.5785  2.4397 -2.8121
  818MOL0     H12875   0.892   1.514   9.944 -2.8767  0.2839 -1.7413
  818MOL0     H12876   0.915   1.688   9.742  1.6785  3.2720 -0.9814
  818MOL0     H12877   0.935   1.728   9.907  0.4886  2.0391 -2.3477
  818MOL0     H12878   1.149   1.659   9.705  3.5546 -0.6359  1.7969
  818MOL0     H12879   1.182   1.718   9.871 -1.2358 -1.8257  0.7489
  818MOL0     H12880   1.170   2.076   9.709  4.6391 -2.5209 -1.4309
  818MOL0     H12881   0.756   1.559   9.549 -0.8479  0.2389 -1.5817
  818MOL0     H12882   0.604   1.617   9.391 -2.6455  2.4425 -0.9513
  818MOL0     H12883   0.669   1.746   9.279  2.3777 -1.0897 -3.2300
  818MOL0     H12884   0.649   1.587   9.223  0.5413  1.9556 -0.7122
  819MOL0     O12885  11.565   5.462   0.277 -0.4756 -0.8782 -0.0145
  819MOL0     C12886  11.644   5.538   0.222 -0.2171 -0.0949  0.6521
  819MOL0     O12887  11.777   5.510   0.179  0.3408  0.5353  0.0443
  819MOL0     C12888  11.847   5.396   0.209  0.5188  0.2006  0.2879
  819MOL0     C12889  11.983   5.395   0.210 -0.6715 -1.5645 -0.0217
  819MOL0     C12890  12.061   5.287   0.242 -0.4595  0.4195 -0.0789
  819MOL0     C12891  12.000   5.162   0.267 -0.9309 -1.0547  0.4490
  819MOL0     O12892  12.081   5.061   0.306 -0.6436  0.0804  0.0680
  819MOL0     C12893  12.024   4.953   0.382 -0.0516 -0.7755  0.0600
  819MOL0     C12894  12.130   4.842   0.396  0.8032 -0.3398 -0.8562
  819MOL0     C12895  12.088   4.721   0.497  0.1089  0.5065  0.6816
  819MOL0     C12896  12.142   4.594   0.451 -0.5420  0.0347 -0.3708
  819MOL0     C12897  12.087   4.470   0.514 -0.4453 -0.0256 -0.1827
  819MOL0     C12898  12.026   4.485   0.653 -0.5498  1.6550 -0.7609
  819MOL0     C12899  11.992   4.356   0.726  0.7075  0.1961  0.5559
  819MOL0     C12900  11.878   4.280   0.660 -0.0133  0.2953 -0.4839
  819MOL0     N12901  11.833   4.163   0.736 -0.1711 -0.3915  0.9456
  819MOL0     C12902  11.908   4.046   0.758  0.3341 -0.1998  0.4744
  819MOL0     C12903  11.822   3.976   0.836 -0.6333 -0.1932  1.1797
  819MOL0     C12904  11.828   3.827   0.862  0.8312 -0.1276 -0.0372
  819MOL0     C12905  11.970   3.789   0.914  0.2855 -0.4320  0.7818
  819MOL0     C12906  12.006   3.847   1.057 -0.1926  0.0288  0.2675
  819MOL0     C12907  11.900   3.804   1.163 -0.1745 -0.0153 -0.4272
  819MOL0     O12908  11.859   3.662   1.147  0.7442 -0.1772 -0.0187
  819MOL0     C12909  11.767   3.621   1.241  0.3812  0.4060 -1.0853
  819MOL0     C12910  11.810   3.540   1.347  0.3589  0.7366 -0.5890
  819MOL0     C12911  11.718   3.497   1.446 -0.4048  0.0812 -0.0994
  819MOL0     C12912  11.774   3.410   1.551  0.0739  0.7773  0.5912
  819MOL0     C12913  11.577   3.537   1.432 -0.2289  1.0075 -0.4916
  819MOL0     C12914  11.460   3.486   1.512 -0.2338  0.2044 -0.0188
  819MOL0     O12915  11.357   3.567   1.539  0.7620  0.0688  0.2774
  819MOL0     C12916  11.247   3.515   1.599 -0.0901 -0.1327 -0.1188
  819MOL0     C12917  11.177   3.422   1.542  0.0990  0.3712 -0.2791
  819MOL0     C12918  11.072   3.359   1.604  0.3711 -1.2994  0.1573
  819MOL0     C12919  11.038   3.405   1.733 -0.5070  0.2908  1.0523
  819MOL0     O12920  10.943   3.352   1.813  0.2893 -0.1812  0.6606
  819MOL0     C12921  10.822   3.317   1.738  0.6260  0.4745 -0.0988
  819MOL0     C12922  10.796   3.166   1.751 -0.3868 -0.1323  0.2781
  819MOL0     C12923  10.716   3.113   1.631  0.0851 -0.3169 -0.2571
  819MOL0     C12924  10.575   3.153   1.633  0.7146 -0.5003  0.5894
  819MOL0     C12925  10.499   3.104   1.511  0.2575 -0.5268  0.7021
  819MOL0     C12926  10.358   3.167   1.516  0.0996 -0.7163 -0.0038
  819MOL0     C12927  10.262   3.101   1.411 -0.4751  0.5903  0.0986
  819MOL0     C12928  10.115   3.125   1.442 -0.6455  0.1525  0.3668
  819MOL0    Cl12929  10.018   3.123   1.294  0.0652 -0.2412 -0.0005
  819MOL0     C12930  11.119   3.500   1.803  0.5697  0.1258  0.3501
  819MOL0     C12931  11.218   3.557   1.732 -0.2570  0.1573  0.0483
  819MOL0     O12932  11.480   3.374   1.558 -0.5641  0.3187  0.3224
  819MOL0     C12933  11.540   3.615   1.320 -0.5464 -0.2908  0.6536
  819MOL0     C12934  11.631   3.660   1.230  1.0130  0.1819 -0.4170
  819MOL0     N12935  11.720   4.052   0.887 -0.0756 -1.0466 -0.5836
  819MOL0     N12936  11.727   4.159   0.811  0.3384 -0.0760 -0.1004
  819MOL0     C12937  11.864   5.160   0.248  0.5269 -1.1961 -0.4775
  819MOL0     C12938  11.785   5.271   0.219  0.2494  0.1019 -0.2780
  819MOL0     C12939  11.598   5.676   0.178 -0.2983  0.5258  0.5855
  819MOL0     C12940  11.692   5.764   0.115 -0.1990 -0.5739 -0.3403
  819MOL0     C12941  11.663   5.899   0.084  0.2503 -0.9506  0.1584
  819MOL0     C12942  11.528   5.945   0.100 -0.4381 -0.6032 -0.4861
  819MOL0     O12943  11.482   6.057   0.041 -0.3471 -0.4749 -0.4424
  819MOL0     C12944  11.362   6.120   0.098 -0.1531  0.3185  0.6976
  819MOL0     C12945  11.362   6.260   0.045  1.1495  0.3156 -0.2744
  819MOL0     C12946  11.299   6.275  -0.095  0.3819  0.0214  0.0994
  819MOL0     C12947  11.240   6.407  -0.142  0.6288  0.7383  0.7272
  819MOL0     C12948  11.334   6.515  -0.138 -1.2365  0.4087  0.5105
  819MOL0     C12949  11.407   6.611  -0.143  0.4973 -0.7019  0.6864
  819MOL0     C12950  11.433   5.850   0.135  0.4417  0.2169  0.5814
  819MOL0     C12951  11.466   5.721   0.171  0.6906 -0.1774 -0.5640
  819MOL0     C12952  11.346   5.623   0.189  0.1064 -1.7504 -0.1681
  819MOL0     H12953  12.036   5.489   0.198  1.3209 -2.4962  1.0605
  819MOL0     H12954  12.160   5.312   0.278 -1.2465 -0.4579  3.0440
  819MOL0     H12955  11.931   4.919   0.335  0.3471  1.0415 -2.2119
  819MOL0     H12956  12.009   4.991   0.484  0.5889 -0.1748 -0.0668
  819MOL0     H12957  12.148   4.807   0.294  1.1957  1.3221 -1.3961
  819MOL0     H12958  12.219   4.896   0.430  0.8451 -1.8554  1.6670
  819MOL0     H12959  12.135   4.747   0.592 -1.0560  2.4600  0.7843
  819MOL0     H12960  11.979   4.714   0.498 -0.1668  0.6083 -4.2396
  819MOL0     H12961  12.099   4.581   0.352 -1.7479  0.6107  0.0662
  819MOL0     H12962  12.248   4.596   0.425  0.4237 -1.8135  2.8467
  819MOL0     H12963  12.159   4.387   0.520 -1.0210 -0.5389 -0.2706
  819MOL0     H12964  12.010   4.416   0.459 -1.8907 -1.5805  3.0835
  819MOL0     H12965  12.099   4.534   0.718 -1.7369 -2.1492  3.9722
  819MOL0     H12966  11.928   4.533   0.646 -1.0686  0.6987 -0.1407
  819MOL0     H12967  11.954   4.391   0.823 -1.3955 -2.4716  0.8167
  819MOL0     H12968  12.087   4.306   0.743  0.4432  0.3298  2.8143
  819MOL0     H12969  11.790   4.341   0.635 -1.1166 -0.9861  0.1378
  819MOL0     H12970  11.925   4.233   0.572  0.5866 -1.4371  0.7120
  819MOL0     H12971  11.987   4.020   0.689 -1.0103  0.5107 -1.4451
  819MOL0     H12972  11.801   3.773   0.771 -1.0284  1.5145 -0.5323
  819MOL0     H12973  11.750   3.812   0.938 -0.7206  3.0691 -0.8213
  819MOL0     H12974  11.974   3.680   0.906 -3.8946 -0.6365 -1.4431
  819MOL0     H12975  12.050   3.825   0.848 -0.2662 -0.7436 -0.0792
  819MOL0     H12976  12.107   3.816   1.087  0.7783  0.1413 -2.5784
  819MOL0     H12977  12.004   3.956   1.060  1.4879  0.0631  1.9116
  819MOL0     H12978  11.939   3.827   1.263 -2.3216 -1.8856  0.9550
  819MOL0     H12979  11.812   3.866   1.147 -0.5434 -0.8082 -1.6049
  819MOL0     H12980  11.909   3.495   1.348  0.9656  1.6835  3.5668
  819MOL0     H12981  11.849   3.460   1.614 -1.8838 -0.6031  4.3299
  819MOL0     H12982  11.816   3.317   1.511 -1.0736 -0.1803  1.5762
  819MOL0     H12983  11.698   3.384   1.624  1.7367 -0.3643  1.9969
  819MOL0     H12984  11.204   3.375   1.447 -1.9007 -1.6113  0.0600
  819MOL0     H12985  11.016   3.287   1.546  3.1664 -3.8313  0.3212
  819MOL0     H12986  10.740   3.364   1.793  1.3728  2.4545 -0.5643
  819MOL0     H12987  10.813   3.355   1.635  2.1964  2.4226  0.4072
  819MOL0     H12988  10.891   3.112   1.745 -0.8171 -0.9221  0.4745
  819MOL0     H12989  10.740   3.156   1.844  0.7571 -1.3799  0.8671
  819MOL0     H12990  10.723   3.004   1.643  0.0942 -0.3962 -0.9143
  819MOL0     H12991  10.758   3.146   1.535 -0.1795 -3.4189 -1.5724
  819MOL0     H12992  10.564   3.262   1.634 -0.1484 -0.5801  1.1484
  819MOL0     H12993  10.536   3.117   1.729  2.2096 -0.0259  1.3940
  819MOL0     H12994  10.546   3.138   1.418 -0.1195 -1.0987  0.3001
  819MOL0     H12995  10.499   2.995   1.516 -1.4462 -0.7740 -2.2952
  819MOL0     H12996  10.365   3.275   1.499  1.2751 -0.5481  1.3907
  819MOL0     H12997  10.323   3.145   1.617  1.7061 -2.0571  0.2956
  819MOL0     H12998  10.277   2.993   1.410  0.8472  0.7553  0.4133
  819MOL0     H12999  10.284   3.146   1.314  0.6257 -0.0086  0.0523
  819MOL0     H13000  10.107   3.223   1.490 -0.5727  1.0587 -1.4049
  819MOL0     H13001  10.085   3.046   1.511  0.7666 -1.6867 -1.0112
  819MOL0     H13002  11.107   3.518   1.909  1.8185  0.0389  0.5192
  819MOL0     H13003  11.292   3.613   1.789  3.1810 -1.9888 -1.9353
  819MOL0     H13004  11.433   3.627   1.305 -0.8885 -1.3333  2.0407
  819MOL0     H13005  11.607   3.726   1.147 -1.6946 -1.5003 -1.1087
  819MOL0     H13006  11.811   5.068   0.269  0.7148 -1.2922 -0.4142
  819MOL0     H13007  11.677   5.270   0.203  0.1350  0.2037  0.4655
  819MOL0     H13008  11.796   5.738   0.128  0.2271  1.1072 -0.2339
  819MOL0     H13009  11.751   5.958   0.060  1.7530 -2.4569  1.6944
  819MOL0     H13010  11.273   6.072   0.056  0.7120 -0.3201 -0.4845
  819MOL0     H13011  11.350   6.134   0.206 -4.0625  1.0148  0.3188
  819MOL0     H13012  11.459   6.308   0.029  0.4288  1.6043 -0.9455
  819MOL0     H13013  11.305   6.328   0.109  0.2225 -0.5064 -0.2071
  819MOL0     H13014  11.374   6.252  -0.172 -0.9408  0.9788 -1.5584
  819MOL0     H13015  11.211   6.211  -0.111 -0.3575  1.4591 -2.1540
  819MOL0     H13016  11.157   6.426  -0.075 -3.1568 -1.3661 -2.8853
  819MOL0     H13017  11.195   6.384  -0.239 -2.5925 -0.9352  2.4693
  819MOL0     H13018  11.461   6.704  -0.150 -2.0782  0.7714 -1.6971
  819MOL0     H13019  11.325   5.859   0.134  0.0928 -2.7532  1.4171
  819MOL0     H13020  11.251   5.676   0.176  0.6020 -0.0965  2.2565
  819MOL0     H13021  11.360   5.546   0.113 -0.8268  0.4657 -2.7709
  819MOL0     H13022  11.356   5.571   0.285 -1.9184  0.5014  1.3723
  820MOL0     O13023   1.813   2.702   7.889 -0.2923  0.0925  0.7508
  820MOL0     C13024   1.812   2.588   7.834  0.2676  0.3039  0.3608
  820MOL0     O13025   1.720   2.495   7.859 -0.6206 -0.4975 -0.3350
  820MOL0     C13026   1.616   2.542   7.925  0.3237 -0.2632  0.4022
  820MOL0     C13027   1.574   2.477   8.041 -0.0387 -0.2688  0.6216
  820MOL0     C13028   1.464   2.527   8.119  0.3417  0.0341  0.1157
  820MOL0     C13029   1.389   2.632   8.059  1.4576  0.5528 -0.5338
  820MOL0     O13030   1.281   2.676   8.129 -0.1544 -0.8158 -0.3473
  820MOL0     C13031   1.292   2.796   8.210  0.6881 -0.6069  0.3247
  820MOL0     C13032   1.151   2.802   8.269 -1.0210 -0.2906  0.1562
  820MOL0     C13033   1.116   2.677   8.348 -0.6425 -0.3435 -0.1516
  820MOL0     C13034   0.963   2.680   8.386  0.1243  0.3665  0.8160
  820MOL0     C13035   0.945   2.620   8.527 -0.1039 -0.4500  0.6660
  820MOL0     C13036   0.960   2.465   8.530  0.5093 -1.0813  0.3815
  820MOL0     C13037   0.950   2.403   8.665 -0.1491 -0.8324  0.4496
  820MOL0     C13038   1.088   2.381   8.730 -0.9392 -0.5050 -0.0273
  820MOL0     N13039   1.077   2.283   8.843 -0.6724 -0.8086 -0.5504
  820MOL0     C13040   1.016   2.314   8.970  1.1012 -0.1947  0.3566
  820MOL0     C13041   1.034   2.204   9.047  0.1559 -0.2148  0.4905
  820MOL0     C13042   1.009   2.194   9.198  0.1569 -0.0437  0.5369
  820MOL0     C13043   1.010   2.040   9.250  0.5257 -0.5337  0.6588
  820MOL0     C13044   0.978   2.019   9.398 -0.3707  0.3736 -0.1302
  820MOL0     C13045   0.869   2.108   9.469 -1.0588  0.0113  0.3379
  820MOL0     O13046   0.742   2.062   9.427 -0.5354 -0.7316  0.1697
  820MOL0     C13047   0.682   1.974   9.508  0.4143  0.3385 -0.1215
  820MOL0     C13048   0.549   1.946   9.468 -0.1592 -0.6950 -0.8047
  820MOL0     C13049   0.476   1.853   9.538 -0.6264  0.1826 -0.2432
  820MOL0     C13050   0.344   1.819   9.487  0.3298  0.2142 -0.3627
  820MOL0     C13051   0.528   1.779   9.646 -0.9788  0.3984 -0.6885
  820MOL0     C13052   0.454   1.681   9.726  0.4064  0.0950 -0.7281
  820MOL0     O13053   0.344   1.731   9.788  0.1774 -0.7513  0.0890
  820MOL0     C13054   0.245   1.648   9.822  0.4296 -0.0066 -0.0837
  820MOL0     C13055   0.202   1.670   9.946  0.3145 -0.3035  0.3447
  820MOL0     C13056   0.119   1.569  10.019  0.1834 -0.2889  1.0880
  820MOL0     C13057   0.084   1.452   9.944  0.7382  0.8359  0.2796
  820MOL0     O13058   0.009   1.349  10.001 -0.6025  0.4318  0.2431
  820MOL0     C13059  -0.083   1.398  10.096  0.7178  1.0193  0.1869
  820MOL0     C13060  -0.208   1.308  10.090 -0.0289 -0.6574  1.1952
  820MOL0     C13061  -0.172   1.171  10.143 -0.3660  0.6626 -0.4407
  820MOL0     C13062  -0.289   1.076  10.129  0.1604 -0.1163  0.0870
  820MOL0     C13063  -0.248   0.944  10.193 -0.2621 -0.1762 -0.2831
  820MOL0     C13064  -0.382   0.863  10.197 -0.2556  0.7409  0.0998
  820MOL0     C13065  -0.357   0.725  10.255 -0.3945 -0.1583 -0.2218
  820MOL0     C13066  -0.368   0.752  10.413  0.4643 -0.5220 -0.3725
  820MOL0    Cl13067  -0.530   0.751  10.475  0.3431 -0.4609  0.3396
  820MOL0     C13068   0.112   1.444   9.802  0.1634 -0.3392  0.2629
  820MOL0     C13069   0.204   1.538   9.750  0.6249  0.2595  0.7703
  820MOL0     O13070   0.497   1.569   9.738  0.0830 -0.3567 -0.0688
  820MOL0     C13071   0.656   1.809   9.678  0.3622  0.4890  0.4486
  820MOL0     C13072   0.738   1.897   9.609 -0.2540 -0.4105  0.7923
  820MOL0     N13073   1.087   2.103   8.970  0.3474  1.1588  0.1847
  820MOL0     N13074   1.116   2.157   8.858 -0.5291  0.6518  0.7640
  820MOL0     C13075   1.415   2.688   7.938 -0.5132 -0.0854  0.4877
  820MOL0     C13076   1.530   2.643   7.871  0.0645 -1.1682 -0.2384
  820MOL0     C13077   1.931   2.545   7.766 -0.4561  0.6505  0.2384
  820MOL0     C13078   1.982   2.413   7.793  0.2432  0.8012 -0.5229
  820MOL0     C13079   2.092   2.364   7.744 -1.1454  0.5411 -0.2617
  820MOL0     C13080   2.162   2.434   7.642 -0.1076  0.6017  0.9854
  820MOL0     O13081   2.263   2.368   7.586  0.0994 -0.0108 -0.0513
  820MOL0     C13082   2.393   2.420   7.606 -0.9298  0.0106 -0.2466
  820MOL0     C13083   2.465   2.315   7.699  1.2666  0.6608  0.5075
  820MOL0     C13084   2.473   2.169   7.639 -1.2969  0.2833 -0.2772
  820MOL0     C13085   2.534   2.070   7.743  0.0175  0.8604 -0.3198
  820MOL0     C13086   2.534   1.930   7.701 -0.1806  0.1872 -0.7500
  820MOL0     C13087   2.533   1.819   7.658 -0.0731  0.3167 -0.0137
  820MOL0     C13088   2.120   2.562   7.605  0.7828 -0.3755  0.2796
  820MOL0     C13089   1.998   2.613   7.664 -0.1574 -0.4017  0.3746
  820MOL0     C13090   1.953   2.745   7.607 -0.8542  0.2546  0.5525
  820MOL0     H13091   1.629   2.388   8.071 -0.0294 -0.4507  0.0670
  820MOL0     H13092   1.430   2.484   8.213 -0.1251 -1.6591 -0.7864
  820MOL0     H13093   1.309   2.882   8.145  0.2013  1.2026  2.4776
  820MOL0     H13094   1.375   2.796   8.281 -0.5363  3.0030  1.9793
  820MOL0     H13095   1.151   2.897   8.323  0.1951  0.6134 -1.3473
  820MOL0     H13096   1.090   2.816   8.180  2.0066  1.2711 -1.8578
  820MOL0     H13097   1.135   2.590   8.285 -0.3643  0.0522 -0.6206
  820MOL0     H13098   1.171   2.666   8.442 -0.6064  3.3416  0.3976
  820MOL0     H13099   0.929   2.784   8.388 -2.0145 -0.0430 -3.2113
  820MOL0     H13100   0.919   2.624   8.304  1.8731  1.2702 -0.8115
  820MOL0     H13101   0.844   2.645   8.563 -0.6573  0.6630 -1.5078
  820MOL0     H13102   1.019   2.655   8.600  0.4246  1.6579 -0.7686
  820MOL0     H13103   0.879   2.420   8.472 -1.1382  1.1681  0.7969
  820MOL0     H13104   1.054   2.445   8.477  1.4814 -2.1189  2.3973
  820MOL0     H13105   0.911   2.303   8.642  1.2425 -0.9828 -1.5657
  820MOL0     H13106   0.890   2.464   8.733  1.5140  1.5915 -0.1062
  820MOL0     H13107   1.159   2.347   8.654 -0.4114 -1.8289  1.0116
  820MOL0     H13108   1.138   2.474   8.758 -0.3259 -0.8023 -0.1149
  820MOL0     H13109   0.960   2.403   8.994 -2.2358 -0.3065 -5.1452
  820MOL0     H13110   0.912   2.237   9.227  0.1633  1.1941 -1.1577
  820MOL0     H13111   1.077   2.261   9.252  2.1420  0.7780 -2.7244
  820MOL0     H13112   0.943   1.986   9.183 -0.8256  2.7628 -0.8606
  820MOL0     H13113   1.114   2.010   9.234  0.5504  0.0316 -0.3115
  820MOL0     H13114   0.966   1.910   9.403 -2.0949  0.5025 -0.8687
  820MOL0     H13115   1.066   2.049   9.457  0.5911  0.7101 -1.6865
  820MOL0     H13116   0.880   2.104   9.578  1.0565 -0.1119  0.1582
  820MOL0     H13117   0.879   2.216   9.454  2.8539 -0.1635  0.6883
  820MOL0     H13118   0.510   2.005   9.385  2.0559  0.9550 -0.7690
  820MOL0     H13119   0.322   1.890   9.407 -0.9336  1.8703  1.3477
  820MOL0     H13120   0.279   1.813   9.575  0.8220  1.4555  0.1195
  820MOL0     H13121   0.338   1.719   9.444 -0.9872  0.2333 -0.2671
  820MOL0     H13122   0.238   1.761   9.993 -0.0512  0.0233  0.0020
  820MOL0     H13123   0.098   1.590  10.124  0.7891  2.9677  0.6831
  820MOL0     H13124  -0.040   1.401  10.196  0.4387  2.0741  0.2877
  820MOL0     H13125  -0.106   1.504  10.080 -0.6422  0.7563  0.2839
  820MOL0     H13126  -0.297   1.344  10.142  0.0728  1.5094 -0.0094
  820MOL0     H13127  -0.226   1.303   9.982 -1.3756  1.2696  1.2792
  820MOL0     H13128  -0.135   1.177  10.246 -1.7383  1.0246  0.0555
  820MOL0     H13129  -0.096   1.132  10.075 -1.6004 -0.6647 -1.0996
  820MOL0     H13130  -0.318   1.079  10.024  1.4724  0.7355 -0.2824
  820MOL0     H13131  -0.368   1.121  10.190 -1.2892  1.4269 -2.7494
  820MOL0     H13132  -0.178   0.898  10.122 -1.2631  0.2939 -1.6056
  820MOL0     H13133  -0.199   0.967  10.288  0.3777  1.5381 -0.9962
  820MOL0     H13134  -0.397   0.852  10.090  1.1145  2.1446 -0.2903
  820MOL0     H13135  -0.462   0.913  10.253 -0.5315  1.1390 -0.6415
  820MOL0     H13136  -0.257   0.691  10.226  0.3231  0.7891  1.0955
  820MOL0     H13137  -0.430   0.647  10.228  0.4319 -0.2720 -2.3011
  820MOL0     H13138  -0.319   0.845  10.445  0.0594 -0.2941 -0.4048
  820MOL0     H13139  -0.331   0.664  10.465 -2.4009 -2.2644 -1.0624
  820MOL0     H13140   0.079   1.357   9.745 -1.2713 -0.2213  0.8642
  820MOL0     H13141   0.247   1.529   9.651 -0.2099  0.1142  0.4142
  820MOL0     H13142   0.684   1.753   9.767 -0.8061 -0.7565  0.0743
  820MOL0     H13143   0.844   1.898   9.633 -0.2349 -2.0736  0.8820
  820MOL0     H13144   1.358   2.771   7.900  0.0478 -1.1404 -2.9746
  820MOL0     H13145   1.554   2.688   7.776 -0.5954 -1.1037 -0.3774
  820MOL0     H13146   1.936   2.360   7.875 -0.4851 -0.0773 -1.4805
  820MOL0     H13147   2.122   2.262   7.767 -2.5102  0.1699 -0.0470
  820MOL0     H13148   2.456   2.433   7.518  3.6945 -3.5216  2.0746
  820MOL0     H13149   2.401   2.514   7.661  1.7902 -0.2347 -0.0953
  820MOL0     H13150   2.420   2.334   7.796  0.4443  2.1757 -0.1307
  820MOL0     H13151   2.568   2.345   7.720  1.2903  1.7350 -0.9322
  820MOL0     H13152   2.376   2.133   7.603 -2.3478  4.0475 -1.6391
  820MOL0     H13153   2.540   2.161   7.553  2.3738  0.0008  2.3670
  820MOL0     H13154   2.471   2.068   7.833 -3.1420 -2.9327 -2.2799
  820MOL0     H13155   2.633   2.102   7.776 -0.5932 -0.2376  2.9169
  820MOL0     H13156   2.512   1.723   7.615  0.1360  1.2263 -2.2374
  820MOL0     H13157   2.172   2.612   7.524  0.6974 -0.0240  0.4386
  820MOL0     H13158   1.939   2.734   7.499 -2.1920 -0.3900  0.7637
  820MOL0     H13159   1.854   2.761   7.650  0.1894 -2.5864  4.6210
  820MOL0     H13160   2.013   2.833   7.628 -2.2345  1.7799 -1.5182
  821MOL0     O13161   2.453   2.702   2.232 -0.2514  0.4201  0.7149
  821MOL0     C13162   2.560   2.636   2.222  0.2526 -0.4758  0.3456
  821MOL0     O13163   2.573   2.514   2.168  0.2074 -0.6696 -0.1334
  821MOL0     C13164   2.459   2.451   2.140  0.9475 -0.4990  0.9295
  821MOL0     C13165   2.385   2.474   2.017  0.4291  0.0282  0.8644
  821MOL0     C13166   2.266   2.394   1.988 -1.0584 -1.0794 -0.0349
  821MOL0     C13167   2.210   2.327   2.092  0.3956  0.8318 -0.2199
  821MOL0     O13168   2.111   2.248   2.048 -0.0186 -0.4502  0.0999
  821MOL0     C13169   2.129   2.110   2.084 -0.3421  0.1494  0.5337
  821MOL0     C13170   2.037   2.012   2.019 -0.4557  1.7620  0.0112
  821MOL0     C13171   1.898   1.999   2.065  0.8890  0.5504  0.0062
  821MOL0     C13172   1.825   1.873   2.027  0.3959  0.4585 -0.9220
  821MOL0     C13173   1.681   1.871   2.054  0.6363 -0.2935  0.4612
  821MOL0     C13174   1.632   1.861   2.196 -0.0519  0.5027 -0.1478
  821MOL0     C13175   1.478   1.846   2.209 -0.1584 -0.3956  0.7491
  821MOL0     C13176   1.451   1.856   2.358  0.1098  0.1883  0.0649
  821MOL0     N13177   1.308   1.838   2.390  0.5359  0.1467 -0.8219
  821MOL0     C13178   1.203   1.933   2.392  0.4618  0.7555  0.3217
  821MOL0     C13179   1.099   1.854   2.437  0.2262 -0.1529 -1.3355
  821MOL0     C13180   0.953   1.891   2.452  0.1640 -0.8302 -0.5733
  821MOL0     C13181   0.907   1.899   2.608  0.6635  0.3835 -0.1935
  821MOL0     C13182   0.753   1.900   2.629  0.5081 -0.8074  0.9993
  821MOL0     C13183   0.699   2.024   2.565 -0.4310 -0.4830  0.1992
  821MOL0     O13184   0.769   2.143   2.591 -0.7895  0.6684 -0.9118
  821MOL0     C13185   0.723   2.219   2.693  0.2006  0.4184  0.7691
  821MOL0     C13186   0.799   2.336   2.704  0.5274  0.7156  0.2698
  821MOL0     C13187   0.767   2.428   2.803  0.0667 -0.6407  0.5117
  821MOL0     C13188   0.842   2.558   2.800  0.6783  0.6206  0.8613
  821MOL0     C13189   0.661   2.403   2.894  0.1335 -0.8501  0.0742
  821MOL0     C13190   0.628   2.489   3.013  0.1552  0.5864 -1.0990
  821MOL0     O13191   0.507   2.463   3.066 -0.3657 -0.2300 -0.1557
  821MOL0     C13192   0.455   2.535   3.170  0.0210  0.8350 -0.3039
  821MOL0     C13193   0.478   2.671   3.194  0.0709 -0.4573 -0.7181
  821MOL0     C13194   0.405   2.727   3.296 -0.2313  0.3460  0.0364
  821MOL0     C13195   0.302   2.660   3.367  0.1991 -0.2255 -0.3972
  821MOL0     O13196   0.251   2.723   3.479 -0.0793 -0.1278 -0.2966
  821MOL0     C13197   0.120   2.768   3.482  0.1334  0.4918 -0.3317
  821MOL0     C13198   0.077   2.883   3.397  0.9378 -0.0551  0.1226
  821MOL0     C13199   0.175   3.000   3.400  0.3833  0.6579  0.3348
  821MOL0     C13200   0.101   3.135   3.370 -0.5612  0.1169  0.5462
  821MOL0     C13201   0.187   3.255   3.419 -0.6901  0.6045 -0.6871
  821MOL0     C13202   0.336   3.251   3.359 -0.6113  0.3399 -0.1443
  821MOL0     C13203   0.358   3.240   3.206 -0.6478 -0.7788  0.7084
  821MOL0     C13204   0.486   3.167   3.147  0.0046 -0.8125  0.8029
  821MOL0    Cl13205   0.629   3.262   3.200  0.0233  0.3901  0.0850
  821MOL0     C13206   0.285   2.522   3.346  0.3899  0.7435 -0.3819
  821MOL0     C13207   0.371   2.468   3.249  0.9460  0.6397 -0.4851
  821MOL0     O13208   0.714   2.561   3.065 -1.2629  0.4359 -0.8731
  821MOL0     C13209   0.584   2.290   2.878 -0.3707  0.1377  0.1000
  821MOL0     C13210   0.619   2.189   2.781 -0.1500 -0.7964 -0.2443
  821MOL0     N13211   1.141   1.729   2.468 -0.1496  0.5466 -0.4035
  821MOL0     N13212   1.265   1.714   2.438 -0.6465 -0.8956 -0.1471
  821MOL0     C13213   2.275   2.317   2.218  0.0056 -0.5935  0.4760
  821MOL0     C13214   2.395   2.375   2.238 -0.0785 -0.7603 -0.3856
  821MOL0     C13215   2.688   2.702   2.276 -0.0627  0.6842  1.0354
  821MOL0     C13216   2.772   2.618   2.349 -0.3352 -0.0497 -0.5877
  821MOL0     C13217   2.893   2.664   2.408 -0.4249  0.1374 -0.6366
  821MOL0     C13218   2.936   2.796   2.407 -1.2430 -0.3805  0.9849
  821MOL0     O13219   3.048   2.848   2.470  0.5384 -0.1535 -0.6459
  821MOL0     C13220   3.148   2.774   2.533 -0.4327 -0.4005 -0.0076
  821MOL0     C13221   3.268   2.762   2.448 -1.6234  0.0294 -0.1783
  821MOL0     C13222   3.220   2.694   2.315 -0.7244  0.3478 -0.7206
  821MOL0     C13223   3.327   2.665   2.212 -0.3900  0.5673 -0.2917
  821MOL0     C13224   3.437   2.573   2.239 -0.6824 -0.6475 -0.7822
  821MOL0     C13225   3.544   2.515   2.250 -0.9661 -0.0574  0.1911
  821MOL0     C13226   2.853   2.874   2.336  0.2029  0.4561  1.1068
  821MOL0     C13227   2.731   2.838   2.279  0.5404 -0.7089  0.3196
  821MOL0     C13228   2.676   2.936   2.184  0.0860  0.7531 -0.2293
  821MOL0     H13229   2.434   2.530   1.938  1.9000  1.3432  2.6404
  821MOL0     H13230   2.218   2.394   1.891  1.0900 -1.3230 -1.1296
  821MOL0     H13231   2.107   2.104   2.192  1.6536 -0.5151  0.9419
  821MOL0     H13232   2.227   2.078   2.050 -0.9245  1.4378 -2.6413
  821MOL0     H13233   2.046   2.030   1.912 -2.7568  1.3537 -0.3080
  821MOL0     H13234   2.083   1.920   2.056 -1.0155  1.0928 -0.9160
  821MOL0     H13235   1.902   1.995   2.175  2.6037 -1.8726 -0.0548
  821MOL0     H13236   1.834   2.077   2.025  0.6921 -0.2290 -1.2455
  821MOL0     H13237   1.833   1.858   1.919 -2.7735 -1.1048 -1.0587
  821MOL0     H13238   1.865   1.788   2.083 -0.1332  3.4017  4.6221
  821MOL0     H13239   1.652   1.781   2.000 -0.4635 -1.4745  2.8640
  821MOL0     H13240   1.643   1.962   2.007 -0.2983 -2.2857 -3.0262
  821MOL0     H13241   1.672   1.768   2.238 -0.9023  0.4501  0.5657
  821MOL0     H13242   1.686   1.936   2.254  1.6423 -1.5483  1.0981
  821MOL0     H13243   1.445   1.747   2.178  1.0228 -0.1490 -1.4980
  821MOL0     H13244   1.424   1.931   2.166  2.7999  1.1350 -0.2375
  821MOL0     H13245   1.523   1.791   2.409  0.9998 -0.3639 -1.7999
  821MOL0     H13246   1.477   1.959   2.385  0.1967  0.2567 -0.2798
  821MOL0     H13247   1.204   2.032   2.347 -0.9507 -0.1056 -1.8110
  821MOL0     H13248   0.894   1.813   2.402 -0.7139 -2.3466  2.5875
  821MOL0     H13249   0.936   1.985   2.398  0.5878 -0.1452  0.4652
  821MOL0     H13250   0.943   1.804   2.649 -0.6237 -1.1869 -2.4341
  821MOL0     H13251   0.951   1.982   2.663  2.8353 -2.6102  2.9990
  821MOL0     H13252   0.693   1.818   2.587 -2.7074  1.5135  0.6546
  821MOL0     H13253   0.726   1.915   2.734  2.0590  0.7422  1.2058
  821MOL0     H13254   0.711   2.004   2.459 -0.3045  1.9015 -0.3034
  821MOL0     H13255   0.591   2.026   2.581 -0.8699  2.8233 -2.2091
  821MOL0     H13256   0.877   2.359   2.632 -0.0904  0.7537 -0.3943
  821MOL0     H13257   0.919   2.555   2.878 -0.4402  3.0025  2.1392
  821MOL0     H13258   0.775   2.641   2.824  0.7846  1.2712 -0.9488
  821MOL0     H13259   0.892   2.579   2.705 -0.0798  3.5668  1.0180
  821MOL0     H13260   0.554   2.725   3.137  0.5385  1.6577  1.7278
  821MOL0     H13261   0.416   2.831   3.326  0.5968  1.1027 -2.5953
  821MOL0     H13262   0.055   2.681   3.465 -1.0330  1.4057 -0.7563
  821MOL0     H13263   0.092   2.801   3.582 -0.6480  2.5277 -1.1445
  821MOL0     H13264   0.080   2.845   3.295  1.8776  2.6391 -0.9166
  821MOL0     H13265  -0.023   2.916   3.427 -0.1569 -1.4533 -1.7788
  821MOL0     H13266   0.261   2.998   3.332  1.9014  4.6582  1.8130
  821MOL0     H13267   0.222   3.022   3.497  1.0412  1.3003 -0.1147
  821MOL0     H13268   0.007   3.141   3.425 -0.2983  1.2710  0.8967
  821MOL0     H13269   0.084   3.148   3.263  2.2256 -0.3334 -0.0235
  821MOL0     H13270   0.126   3.343   3.397 -0.1168  1.3850  0.7588
  821MOL0     H13271   0.205   3.261   3.527  0.8282  0.0129 -0.8834
  821MOL0     H13272   0.395   3.169   3.401 -0.0908  0.7853  0.0066
  821MOL0     H13273   0.386   3.340   3.399  1.6319 -1.9988  2.6710
  821MOL0     H13274   0.357   3.344   3.175  1.6127 -0.5498  1.2516
  821MOL0     H13275   0.272   3.186   3.166  0.6210 -2.2374 -0.1488
  821MOL0     H13276   0.486   3.166   3.038  1.2063  2.7594  0.6360
  821MOL0     H13277   0.492   3.061   3.175  1.7036 -0.9950 -0.0814
  821MOL0     H13278   0.226   2.457   3.409 -0.3238  0.1021 -1.6753
  821MOL0     H13279   0.350   2.363   3.236  0.8334  0.5095  0.6482
  821MOL0     H13280   0.505   2.268   2.951 -0.2887  1.5381  0.6384
  821MOL0     H13281   0.563   2.096   2.784 -2.8881  0.7577  1.6661
  821MOL0     H13282   2.220   2.275   2.302 -0.3637  1.3710  1.2963
  821MOL0     H13283   2.452   2.374   2.331 -2.9783 -1.4655  1.5339
  821MOL0     H13284   2.762   2.510   2.352  1.1574 -0.2348 -1.3445
  821MOL0     H13285   2.960   2.594   2.457  1.2428  1.7132 -0.5723
  821MOL0     H13286   3.167   2.821   2.629 -0.2125 -0.9466  0.2222
  821MOL0     H13287   3.112   2.676   2.566 -0.0648 -0.2307  0.9136
  821MOL0     H13288   3.345   2.697   2.490 -1.0444  0.6363 -0.2846
  821MOL0     H13289   3.313   2.859   2.423 -1.0380 -0.9536 -3.5357
  821MOL0     H13290   3.172   2.597   2.333 -3.3104  1.2571 -2.1228
  821MOL0     H13291   3.148   2.758   2.263 -0.4791 -1.4629 -3.5365
  821MOL0     H13292   3.366   2.766   2.198 -1.4536  0.8462 -1.3376
  821MOL0     H13293   3.269   2.617   2.134  1.6895 -1.6535 -0.5963
  821MOL0     H13294   3.626   2.446   2.256 -0.0953  0.9986  0.7528
  821MOL0     H13295   2.878   2.975   2.307 -0.2437 -0.8429 -5.0593
  821MOL0     H13296   2.696   3.038   2.217  0.7279  0.9031 -1.0388
  821MOL0     H13297   2.727   2.932   2.087  0.2330  0.2189 -0.1341
  821MOL0     H13298   2.567   2.926   2.180 -0.1312  1.8159  1.8770
  822MOL0     O13299   2.346   6.271   9.035 -0.4121 -0.4502 -0.0681
  822MOL0     C13300   2.279   6.347   8.961  1.0863  1.0568  0.2735
  822MOL0     O13301   2.158   6.401   9.002  0.1437  0.3028  0.1186
  822MOL0     C13302   2.099   6.331   9.103  0.6876 -0.5309 -0.4768
  822MOL0     C13303   2.096   6.388   9.233 -0.0696  0.4962 -0.6846
  822MOL0     C13304   2.023   6.327   9.332 -0.0038 -0.3915 -0.0783
  822MOL0     C13305   1.955   6.208   9.307 -0.3236 -0.6685 -0.0733
  822MOL0     O13306   1.896   6.161   9.417  0.0296  0.4686  0.0359
  822MOL0     C13307   1.807   6.053   9.395  0.7713 -0.3982  0.7011
  822MOL0     C13308   1.722   6.037   9.521 -0.7799  0.0049 -0.3777
  822MOL0     C13309   1.606   5.946   9.504 -0.7962 -0.1139 -0.3125
  822MOL0     C13310   1.523   5.930   9.628 -0.1189  0.8562 -0.5234
  822MOL0     C13311   1.414   5.828   9.608 -0.2765  0.1276 -0.5111
  822MOL0     C13312   1.322   5.869   9.491  0.7091 -0.7011  0.3636
  822MOL0     C13313   1.176   5.821   9.523  0.8323  0.1447 -0.0578
  822MOL0     C13314   1.151   5.670   9.490  0.1844  0.1787 -0.4102
  822MOL0     N13315   1.003   5.657   9.527 -1.4986 -0.3106 -0.2257
  822MOL0     C13316   0.941   5.540   9.521 -0.3905 -0.3434 -0.1143
  822MOL0     C13317   0.823   5.558   9.577  0.2259 -0.4208  0.3070
  822MOL0     C13318   0.726   5.454   9.589 -0.5080  0.0523 -0.3438
  822MOL0     C13319   0.575   5.487   9.609 -0.4786  0.1525 -0.2967
  822MOL0     C13320   0.518   5.523   9.477 -0.9154  0.1306  1.0677
  822MOL0     C13321   0.497   5.418   9.369  0.6371 -0.0145 -0.3644
  822MOL0     O13322   0.392   5.325   9.384 -0.3384  0.6989 -0.4168
  822MOL0     C13323   0.380   5.233   9.283 -0.1577  0.6414 -0.5966
  822MOL0     C13324   0.403   5.105   9.315  0.2307  1.1140 -0.2350
  822MOL0     C13325   0.384   4.994   9.224 -0.1551 -0.0469 -1.2642
  822MOL0     C13326   0.419   4.848   9.278 -0.2708 -0.2733  0.4756
  822MOL0     C13327   0.332   5.028   9.096  0.0549  0.0943  0.5281
  822MOL0     C13328   0.295   4.929   8.994  0.5680  0.2080 -0.7611
  822MOL0     O13329   0.340   4.800   9.018 -0.4173  0.8390  0.1350
  822MOL0     C13330   0.356   4.705   8.918  0.4239  0.2481  0.9192
  822MOL0     C13331   0.452   4.719   8.810  0.2651  1.2052 -0.2127
  822MOL0     C13332   0.462   4.626   8.708 -0.6017  0.6268  0.0936
  822MOL0     C13333   0.390   4.508   8.709 -0.3804 -0.1423 -1.3824
  822MOL0     O13334   0.418   4.411   8.614  0.4217 -0.6930  0.5389
  822MOL0     C13335   0.334   4.299   8.602 -1.4363  0.4304 -0.4661
  822MOL0     C13336   0.357   4.222   8.480  0.3118  0.4501  1.1565
  822MOL0     C13337   0.262   4.267   8.362  0.0836  0.3446  0.0539
  822MOL0     C13338   0.335   4.275   8.228  0.3027  0.7916  0.2770
  822MOL0     C13339   0.368   4.138   8.165 -0.5144  0.6440  0.8279
  822MOL0     C13340   0.415   4.162   8.022 -0.1577 -0.0616 -0.4427
  822MOL0     C13341   0.439   4.022   7.957 -0.3241  0.9992  0.2361
  822MOL0     C13342   0.421   4.022   7.811 -0.8955  1.3665  0.4082
  822MOL0    Cl13343   0.559   4.104   7.726 -0.2184  0.3685 -0.0916
  822MOL0     C13344   0.296   4.499   8.810 -0.2536  0.3799 -0.5338
  822MOL0     C13345   0.274   4.592   8.911 -0.3994  0.0642  0.2159
  822MOL0     O13346   0.221   4.953   8.903  0.5206 -0.4153 -1.2577
  822MOL0     C13347   0.325   5.165   9.058  1.0057 -0.3673 -0.4842
  822MOL0     C13348   0.350   5.258   9.150 -0.6218 -0.4510  0.9768
  822MOL0     N13349   0.816   5.691   9.614  0.1035 -0.3193  0.2735
  822MOL0     N13350   0.928   5.753   9.594 -0.0826 -0.1692 -0.8874
  822MOL0     C13351   1.955   6.155   9.176 -0.0879 -0.9129 -0.6153
  822MOL0     C13352   2.023   6.223   9.071 -0.6179  0.0253  1.0540
  822MOL0     C13353   2.322   6.366   8.820  0.4207  0.6271 -0.4027
  822MOL0     C13354   2.265   6.477   8.756  0.3961 -0.5336  0.2954
  822MOL0     C13355   2.278   6.506   8.626  0.2675  0.2376  0.3436
  822MOL0     C13356   2.342   6.412   8.544  0.3644 -0.2685 -0.5371
  822MOL0     O13357   2.339   6.411   8.409  0.2705  0.6877  0.6582
  822MOL0     C13358   2.302   6.531   8.337 -0.3481 -1.2997 -0.0713
  822MOL0     C13359   2.403   6.643   8.341 -0.7273 -0.9543  0.4651
  822MOL0     C13360   2.384   6.772   8.249  0.7084  0.1428  0.3743
  822MOL0     C13361   2.239   6.825   8.243 -0.1681  0.4056  0.2527
  822MOL0     C13362   2.180   6.849   8.370  0.8660 -0.7982  0.6903
  822MOL0     C13363   2.147   6.908   8.473 -0.6056 -0.5377 -0.6669
  822MOL0     C13364   2.396   6.300   8.604 -0.5216  0.0189 -0.0547
  822MOL0     C13365   2.386   6.275   8.739 -0.1151 -0.6449  0.2063
  822MOL0     C13366   2.436   6.140   8.792  0.5317  0.2713  0.1189
  822MOL0     H13367   2.138   6.485   9.257 -0.7273  0.2982  1.4015
  822MOL0     H13368   2.001   6.364   9.431 -3.0077 -1.3380 -0.2855
  822MOL0     H13369   1.858   5.959   9.373  1.0122 -0.4571  1.4930
  822MOL0     H13370   1.746   6.086   9.311  2.1453  0.1599 -0.1104
  822MOL0     H13371   1.795   6.005   9.596  1.6330  0.2197 -2.4504
  822MOL0     H13372   1.683   6.133   9.554 -0.6233 -1.0326  3.1567
  822MOL0     H13373   1.543   6.006   9.438 -0.1926 -0.2788 -1.0358
  822MOL0     H13374   1.621   5.846   9.461 -4.5761 -0.8461 -0.3340
  822MOL0     H13375   1.593   5.881   9.696 -1.5114 -3.2868 -1.7509
  822MOL0     H13376   1.463   6.015   9.661  0.4704  1.3494 -0.7008
  822MOL0     H13377   1.361   5.830   9.704 -0.4894 -0.2170 -0.6197
  822MOL0     H13378   1.458   5.728   9.598  0.7898  0.4452  0.6944
  822MOL0     H13379   1.321   5.978   9.491  1.7519 -0.6725  1.1893
  822MOL0     H13380   1.345   5.824   9.394 -1.4251 -1.0214 -0.0366
  822MOL0     H13381   1.103   5.863   9.453  2.6357  0.9490 -1.5361
  822MOL0     H13382   1.150   5.864   9.619 -0.6466  3.7324 -1.8897
  822MOL0     H13383   1.173   5.658   9.384  2.1314  0.4979 -0.0919
  822MOL0     H13384   1.215   5.612   9.558  0.8356  3.1266  1.7067
  822MOL0     H13385   0.982   5.448   9.479  2.0105  1.3053 -1.6793
  822MOL0     H13386   0.754   5.396   9.678 -2.3925  1.9976  1.6310
  822MOL0     H13387   0.743   5.384   9.507 -0.6773  0.2046 -0.5070
  822MOL0     H13388   0.535   5.392   9.646  2.5044 -1.9647 -1.9891
  822MOL0     H13389   0.551   5.558   9.688 -0.2253 -1.7259  1.5421
  822MOL0     H13390   0.416   5.560   9.487 -0.8731  1.2425 -1.7309
  822MOL0     H13391   0.594   5.591   9.437  0.3995  0.1339  3.4026
  822MOL0     H13392   0.481   5.480   9.280 -0.9996 -1.8705 -1.4315
  822MOL0     H13393   0.587   5.356   9.355  2.2333  2.1722 -0.3560
  822MOL0     H13394   0.432   5.073   9.414  1.0505 -0.3171 -0.9123
  822MOL0     H13395   0.494   4.796   9.217 -0.5637 -1.4509  1.0833
  822MOL0     H13396   0.331   4.783   9.273 -1.1333  0.7367  1.8695
  822MOL0     H13397   0.462   4.844   9.378 -1.3253  1.1023  1.0058
  822MOL0     H13398   0.513   4.809   8.817  1.2239  0.5070  0.6397
  822MOL0     H13399   0.539   4.651   8.636  0.1028  1.7164  1.1687
  822MOL0     H13400   0.356   4.229   8.683  0.3738  0.8398 -0.5576
  822MOL0     H13401   0.232   4.334   8.616 -0.7597  1.2778  3.5290
  822MOL0     H13402   0.464   4.225   8.457  0.5494 -3.5558  0.8818
  822MOL0     H13403   0.341   4.115   8.499  1.5212  0.2446  1.0943
  822MOL0     H13404   0.229   4.369   8.385  0.5146  1.0352 -2.1636
  822MOL0     H13405   0.176   4.200   8.367 -0.2305  0.8207  2.0394
  822MOL0     H13406   0.426   4.336   8.228  2.1493 -1.7638 -0.9126
  822MOL0     H13407   0.269   4.324   8.155  0.8589 -0.0101 -0.8032
  822MOL0     H13408   0.451   4.086   8.215  1.4051  1.4590 -1.3399
  822MOL0     H13409   0.282   4.071   8.160 -1.2646  1.6698 -2.0210
  822MOL0     H13410   0.495   4.236   8.010  0.7514 -0.3073  3.0416
  822MOL0     H13411   0.336   4.206   7.960 -0.1097 -1.9628 -1.9577
  822MOL0     H13412   0.366   3.948   7.993 -1.7243  0.4798 -3.3128
  822MOL0     H13413   0.542   4.001   7.990 -0.1437  1.3215 -0.1254
  822MOL0     H13414   0.328   4.074   7.785 -0.8403  1.5081  0.4895
  822MOL0     H13415   0.426   3.920   7.772  3.9659  1.1152  1.0338
  822MOL0     H13416   0.239   4.408   8.825  2.6176 -1.7691 -1.8484
  822MOL0     H13417   0.214   4.566   8.997  2.4110  0.2542  2.3786
  822MOL0     H13418   0.280   5.191   8.962  0.6567 -1.5292 -0.6487
  822MOL0     H13419   0.319   5.357   9.118 -0.2654 -0.9961 -1.2411
  822MOL0     H13420   1.910   6.061   9.146  2.3005 -1.4772 -2.6879
  822MOL0     H13421   2.008   6.181   8.972  0.2377  1.4606  0.2698
  822MOL0     H13422   2.220   6.545   8.827 -2.3162 -3.8877  2.0404
  822MOL0     H13423   2.239   6.602   8.593 -0.0757  0.7830  2.2099
  822MOL0     H13424   2.296   6.506   8.230 -1.7575  2.6195 -1.1133
  822MOL0     H13425   2.205   6.574   8.365  1.2171  2.1959  0.6021
  822MOL0     H13426   2.496   6.595   8.308 -0.9100  1.1152 -3.7221
  822MOL0     H13427   2.401   6.679   8.445 -0.3449 -2.2024  0.9255
  822MOL0     H13428   2.456   6.848   8.280  2.3863 -1.9975  2.0924
  822MOL0     H13429   2.410   6.754   8.144 -2.4168  0.9051 -0.6231
  822MOL0     H13430   2.179   6.752   8.187  0.3817 -0.4672  0.7766
  822MOL0     H13431   2.240   6.908   8.171  2.5770 -1.8581 -2.6547
  822MOL0     H13432   2.126   6.953   8.568  2.9358  0.2191 -0.1162
  822MOL0     H13433   2.445   6.220   8.551 -0.4408 -2.0311  2.9173
  822MOL0     H13434   2.481   6.085   8.708 -0.2252 -0.1465 -0.0259
  822MOL0     H13435   2.503   6.154   8.877  2.9235 -4.6432 -0.5719
  822MOL0     H13436   2.344   6.089   8.821 -0.7844  1.2055 -2.1099
  823MOL0     O13437  10.571   1.401   1.523 -0.1240 -0.5132  0.2811
  823MOL0     C13438  10.453   1.421   1.488  0.6638 -0.0329  0.1984
  823MOL0     O13439  10.346   1.334   1.500 -0.0411  0.4420 -0.5869
  823MOL0     C13440  10.383   1.215   1.562 -1.1743 -0.1781  0.1675
  823MOL0     C13441  10.479   1.123   1.506  0.3180  0.8014  0.4373
  823MOL0     C13442  10.497   1.006   1.569  1.0480  0.3897 -0.0094
  823MOL0     C13443  10.418   0.976   1.680 -1.0373 -0.2745  0.3851
  823MOL0     O13444  10.421   0.858   1.735 -0.3598  0.0707 -0.3897
  823MOL0     C13445  10.504   0.754   1.681  0.1823  0.2468 -0.0921
  823MOL0     C13446  10.494   0.633   1.775 -1.5059  0.4124 -0.6165
  823MOL0     C13447  10.355   0.587   1.817 -0.7440  0.2388  0.7743
  823MOL0     C13448  10.348   0.463   1.902 -0.8370 -0.2645  0.4851
  823MOL0     C13449  10.211   0.451   1.971  0.6671 -0.5455  0.9128
  823MOL0     C13450  10.180   0.557   2.082 -0.8631 -0.1670  0.4374
  823MOL0     C13451  10.078   0.488   2.171  1.2160  0.9966  0.0779
  823MOL0     C13452   9.994   0.582   2.245  0.7028 -0.4534 -0.0709
  823MOL0     N13453  10.053   0.641   2.367 -0.2559  0.6677 -0.9730
  823MOL0     C13454  10.178   0.702   2.383  0.6382  0.3195 -0.1384
  823MOL0     C13455  10.211   0.699   2.517  0.2081 -0.0834  0.6147
  823MOL0     C13456  10.352   0.746   2.575  0.1189 -0.4278 -0.0411
  823MOL0     C13457  10.457   0.629   2.556  0.4112  0.8152 -0.5198
  823MOL0     C13458  10.420   0.489   2.619 -0.2383 -0.1067 -0.2119
  823MOL0     C13459  10.512   0.371   2.581  0.0515  0.0916 -0.3373
  823MOL0     O13460  10.637   0.370   2.652  0.5606  0.8065  1.1529
  823MOL0     C13461  10.740   0.337   2.573 -0.4983  0.2541  0.6611
  823MOL0     C13462  10.775   0.206   2.531 -1.2502 -0.0621  0.9938
  823MOL0     C13463  10.912   0.189   2.483  0.5756  0.8466  0.5906
  823MOL0     C13464  10.953   0.054   2.439 -0.4128  0.0510  0.7410
  823MOL0     C13465  10.995   0.295   2.482 -0.8461  0.0165  0.9110
  823MOL0     C13466  11.135   0.292   2.422  0.5450  0.5484 -0.4809
  823MOL0     O13467  11.212   0.187   2.458 -0.3220 -0.1735  0.2307
  823MOL0     C13468  11.345   0.208   2.472 -0.0578  0.4739 -0.6481
  823MOL0     C13469  11.407   0.191   2.599 -0.5448  0.4069 -0.8147
  823MOL0     C13470  11.545   0.220   2.612  0.6737  0.6661  0.1987
  823MOL0     C13471  11.628   0.247   2.497  0.5235  1.0221 -0.9209
  823MOL0     O13472  11.765   0.277   2.511  0.7831  1.0521 -0.3071
  823MOL0     C13473  11.835   0.259   2.647  0.4404 -0.7663 -0.1568
  823MOL0     C13474  11.964   0.347   2.639  0.0677  0.1042  0.3705
  823MOL0     C13475  12.059   0.316   2.522 -0.2882 -0.3924 -0.4648
  823MOL0     C13476  12.199   0.346   2.572  0.5387  0.5505  0.6588
  823MOL0     C13477  12.309   0.312   2.458  0.2184 -1.0553 -0.1152
  823MOL0     C13478  12.311   0.159   2.424  0.3662 -1.3596  0.0918
  823MOL0     C13479  12.417   0.123   2.319 -0.1736 -0.0863  0.3481
  823MOL0     C13480  12.548   0.130   2.395 -0.0686  0.6100 -0.3666
  823MOL0    Cl13481  12.685   0.046   2.301  0.6906  0.3174  0.1956
  823MOL0     C13482  11.569   0.265   2.374  0.2690 -0.1368  0.3920
  823MOL0     C13483  11.428   0.254   2.365  0.0578  0.8888  0.1522
  823MOL0     O13484  11.162   0.372   2.332  0.1856  0.0968  0.2425
  823MOL0     C13485  10.951   0.433   2.495  0.3362  0.4201 -0.1100
  823MOL0     C13486  10.823   0.448   2.537  0.1936  0.7577  0.8922
  823MOL0     N13487  10.106   0.641   2.586  0.4372  0.8007  0.4789
  823MOL0     N13488  10.016   0.618   2.501  0.6583  0.0238  1.4923
  823MOL0     C13489  10.323   1.068   1.732 -0.6083 -0.1007  0.1989
  823MOL0     C13490  10.307   1.189   1.674  0.5021 -0.7709 -0.1302
  823MOL0     C13491  10.424   1.540   1.405 -0.1183  0.6580 -0.6645
  823MOL0     C13492  10.330   1.529   1.305 -0.7574 -0.2482 -0.0390
  823MOL0     C13493  10.286   1.631   1.220 -0.4664 -0.3988 -0.0792
  823MOL0     C13494  10.335   1.756   1.259 -1.2812  0.6600  0.0306
  823MOL0     O13495  10.296   1.874   1.198  0.1469  0.0351 -0.3707
  823MOL0     C13496  10.197   1.943   1.284 -0.1565 -0.2194 -0.7137
  823MOL0     C13497  10.055   1.926   1.234 -0.0969  0.1400 -0.1220
  823MOL0     C13498   9.961   1.879   1.344 -0.7131 -0.3336 -0.5655
  823MOL0     C13499   9.822   1.868   1.282 -1.0213 -0.1939 -0.2480
  823MOL0     C13500   9.731   1.820   1.376  0.0230  0.8753 -0.8720
  823MOL0     C13501   9.661   1.776   1.467  0.2175  0.3324 -0.1651
  823MOL0     C13502  10.432   1.776   1.357  0.0818 -0.6340 -0.7975
  823MOL0     C13503  10.476   1.666   1.430  0.6850 -0.3838  0.3821
  823MOL0     C13504  10.572   1.692   1.548 -0.1192 -0.4895  0.6762
  823MOL0     H13505  10.528   1.141   1.410 -3.5749  3.2984 -1.3460
  823MOL0     H13506  10.569   0.936   1.529 -1.4658 -3.1510  1.1385
  823MOL0     H13507  10.606   0.791   1.666 -0.1570  0.5674 -1.9132
  823MOL0     H13508  10.465   0.741   1.579 -3.4213  1.2262  1.0115
  823MOL0     H13509  10.555   0.554   1.729 -3.4612 -0.4383 -1.8952
  823MOL0     H13510  10.543   0.666   1.867  1.3693 -1.1285 -1.4645
  823MOL0     H13511  10.309   0.673   1.867 -0.1059 -0.3891  2.5152
  823MOL0     H13512  10.305   0.573   1.721 -0.0526  0.0797  0.4257
  823MOL0     H13513  10.374   0.379   1.838  1.3628  1.7588 -1.4691
  823MOL0     H13514  10.428   0.473   1.976 -1.7744 -1.1477  1.6557
  823MOL0     H13515  10.212   0.352   2.015 -0.5496 -1.8313 -1.7106
  823MOL0     H13516  10.126   0.455   1.901  2.0922 -1.2974 -0.9675
  823MOL0     H13517  10.272   0.584   2.134 -0.1458 -0.4303 -0.6560
  823MOL0     H13518  10.131   0.648   2.047  1.4562  1.2509  0.7201
  823MOL0     H13519  10.131   0.428   2.245  2.2400  2.7916  0.8793
  823MOL0     H13520  10.010   0.421   2.118  1.0429 -1.5253  3.1556
  823MOL0     H13521   9.960   0.658   2.174 -0.5621 -0.6742  0.2772
  823MOL0     H13522   9.902   0.533   2.281  0.6274 -0.6754 -0.5528
  823MOL0     H13523  10.224   0.751   2.298  2.1922 -0.6689  0.0913
  823MOL0     H13524  10.333   0.776   2.679 -0.7205  1.0630 -0.5983
  823MOL0     H13525  10.387   0.829   2.514 -0.0048  0.3861  0.9638
  823MOL0     H13526  10.483   0.604   2.453  2.8438  0.4910  0.1045
  823MOL0     H13527  10.551   0.672   2.593  0.9565  0.9227 -1.9675
  823MOL0     H13528  10.430   0.510   2.725  2.0446 -3.4494  0.3982
  823MOL0     H13529  10.320   0.460   2.583 -0.9940  1.8660  0.1627
  823MOL0     H13530  10.453   0.285   2.614  1.5684 -0.6874  0.4731
  823MOL0     H13531  10.520   0.366   2.472 -1.2750  3.2454 -0.6807
  823MOL0     H13532  10.702   0.127   2.532 -1.6026  0.1743 -1.2358
  823MOL0     H13533  11.008   0.052   2.345 -2.4593  1.5949 -0.5600
  823MOL0     H13534  10.869  -0.014   2.423  1.5972 -2.9743  2.1601
  823MOL0     H13535  11.013   0.025   2.526 -1.8477 -1.2746  1.3332
  823MOL0     H13536  11.352   0.146   2.682 -1.9350 -0.8693 -2.3628
  823MOL0     H13537  11.595   0.212   2.708 -1.4164 -1.9155  1.1985
  823MOL0     H13538  11.789   0.313   2.730 -0.8729 -3.0647  0.6988
  823MOL0     H13539  11.852   0.154   2.669 -0.4190 -0.5997  1.4127
  823MOL0     H13540  11.930   0.451   2.645 -1.4853 -0.4662  2.5716
  823MOL0     H13541  12.015   0.325   2.733 -0.7958  2.1774  1.4001
  823MOL0     H13542  12.046   0.389   2.441  2.8320  3.8595  2.4262
  823MOL0     H13543  12.042   0.213   2.489 -1.0102  0.1818 -1.9532
  823MOL0     H13544  12.239   0.288   2.656  0.4199  1.3752  1.2920
  823MOL0     H13545  12.213   0.451   2.597  0.4546  0.4263  1.2423
  823MOL0     H13546  12.294   0.368   2.366  0.5499 -0.2713  0.3033
  823MOL0     H13547  12.400   0.354   2.501 -0.1181  0.9718 -1.2849
  823MOL0     H13548  12.228   0.142   2.355  0.7129  1.9214 -1.3434
  823MOL0     H13549  12.310   0.110   2.522 -0.0348  2.5126  2.2569
  823MOL0     H13550  12.419   0.184   2.229  0.0352  0.8532  0.9799
  823MOL0     H13551  12.390   0.029   2.271  1.3906 -0.7894  0.7727
  823MOL0     H13552  12.535   0.106   2.501 -0.4934  4.7833  0.6917
  823MOL0     H13553  12.584   0.232   2.406 -2.4541  1.4819  0.0888
  823MOL0     H13554  11.623   0.281   2.281 -0.0948 -1.1116  0.0009
  823MOL0     H13555  11.394   0.265   2.262 -0.1822 -0.5789  0.0528
  823MOL0     H13556  11.015   0.521   2.489 -1.1931  1.4964 -1.0548
  823MOL0     H13557  10.787   0.546   2.566 -2.1903  0.8597 -1.9325
  823MOL0     H13558  10.258   1.041   1.814 -0.3350 -2.1501 -0.1887
  823MOL0     H13559  10.240   1.249   1.734 -2.2109 -2.3464 -1.4181
  823MOL0     H13560  10.276   1.437   1.283  2.2065 -1.7068 -1.8631
  823MOL0     H13561  10.211   1.607   1.145  0.5028 -0.8339 -0.9523
  823MOL0     H13562  10.206   1.909   1.387  1.5011 -2.9266 -1.6339
  823MOL0     H13563  10.224   2.049   1.278 -1.0619 -0.0150 -1.3350
  823MOL0     H13564  10.045   1.852   1.154 -0.4120  1.2860 -1.1756
  823MOL0     H13565  10.022   2.026   1.203  0.0682 -0.0041 -0.7791
  823MOL0     H13566  10.006   1.787   1.383  4.6742  3.1542  2.8355
  823MOL0     H13567   9.978   1.952   1.424  0.8078 -1.8740  0.5896
  823MOL0     H13568   9.820   1.788   1.208  0.4290 -0.7612  0.2785
  823MOL0     H13569   9.787   1.959   1.232 -1.9716 -1.7078 -2.4880
  823MOL0     H13570   9.593   1.739   1.541 -2.4415  1.7965 -1.6889
  823MOL0     H13571  10.484   1.871   1.368 -1.1534  0.1130 -1.2325
  823MOL0     H13572  10.510   1.667   1.635 -2.3156 -1.4571 -1.0491
  823MOL0     H13573  10.666   1.637   1.537  0.6843  0.9252  0.2844
  823MOL0     H13574  10.596   1.798   1.555 -0.8852 -0.3917  2.2190
  824MOL0     O13575   6.841   8.707   7.980 -0.8171 -0.9338 -0.5907
  824MOL0     C13576   6.774   8.794   8.042 -0.0727 -0.6675  0.4050
  824MOL0     O13577   6.752   8.789   8.176 -0.1127 -0.4157  0.0848
  824MOL0     C13578   6.774   8.670   8.235  1.3194 -0.1287 -0.6293
  824MOL0     C13579   6.664   8.585   8.252 -1.4177 -0.9152  0.2535
  824MOL0     C13580   6.669   8.465   8.310  0.1966 -0.4723 -0.4298
  824MOL0     C13581   6.786   8.416   8.357  0.5023 -0.1341 -0.2989
  824MOL0     O13582   6.783   8.295   8.419  1.3298 -0.7515 -0.7171
  824MOL0     C13583   6.873   8.277   8.520 -0.5812  0.2523 -0.1514
  824MOL0     C13584   6.852   8.136   8.592  0.2587  1.1061 -0.0784
  824MOL0     C13585   6.701   8.096   8.600  0.4386 -0.4730  0.9274
  824MOL0     C13586   6.682   7.995   8.716  0.5831 -0.5847  0.0492
  824MOL0     C13587   6.549   8.003   8.799 -0.1484 -0.0556 -0.2706
  824MOL0     C13588   6.424   7.968   8.717 -0.5227  0.7284  0.2407
  824MOL0     C13589   6.290   7.999   8.784  0.2392 -0.3143 -0.4887
  824MOL0     C13590   6.195   8.079   8.694 -0.6079 -0.4294 -0.0232
  824MOL0     N13591   6.247   8.210   8.646 -0.3708  0.0333 -0.2397
  824MOL0     C13592   6.269   8.325   8.719  0.6249 -0.5040 -0.3518
  824MOL0     C13593   6.348   8.407   8.648  0.2403  0.9705  0.5192
  824MOL0     C13594   6.410   8.530   8.695  0.0188  0.0625 -0.4280
  824MOL0     C13595   6.528   8.508   8.784 -0.4996  0.0505 -0.0863
  824MOL0     C13596   6.562   8.636   8.870  1.3278  0.3187 -0.2725
  824MOL0     C13597   6.687   8.621   8.949  0.1361  0.1864  0.3099
  824MOL0     O13598   6.673   8.664   9.086 -0.4611  0.5569 -0.0310
  824MOL0     C13599   6.618   8.782   9.125  0.5066 -0.4731 -0.5028
  824MOL0     C13600   6.574   8.781   9.258 -0.0515  0.7593 -0.1119
  824MOL0     C13601   6.510   8.890   9.320  0.3454  0.2373 -0.0311
  824MOL0     C13602   6.500   8.890   9.469 -0.1971  0.4819  0.8978
  824MOL0     C13603   6.474   9.003   9.245  0.1617 -0.1577  0.7760
  824MOL0     C13604   6.389   9.113   9.296 -1.6150  0.6675 -0.9145
  824MOL0     O13605   6.300   9.083   9.393  0.3124  0.5733 -0.0238
  824MOL0     C13606   6.163   9.103   9.392 -0.6603  0.4368  0.2783
  824MOL0     C13607   6.105   9.224   9.380 -0.9142  0.3267  1.4568
  824MOL0     C13608   5.972   9.235   9.419 -0.2970 -0.1982  0.3275
  824MOL0     C13609   5.887   9.124   9.432 -0.3523 -0.0125 -1.0923
  824MOL0     O13610   5.750   9.135   9.439  0.8045 -0.4347  0.1657
  824MOL0     C13611   5.694   9.237   9.357  0.6370 -0.2476  0.4079
  824MOL0     C13612   5.540   9.215   9.345 -0.5876 -0.1189 -0.2869
  824MOL0     C13613   5.461   9.285   9.462  0.2976 -0.1499 -0.0203
  824MOL0     C13614   5.313   9.273   9.468  0.4030  0.5503  0.1587
  824MOL0     C13615   5.236   9.333   9.341  0.0150  0.4481  0.4102
  824MOL0     C13616   5.217   9.480   9.340  0.1154 -0.3630  0.1503
  824MOL0     C13617   5.171   9.538   9.198 -0.6382  0.8213  0.2343
  824MOL0     C13618   5.067   9.453   9.124  0.7308  0.5267 -0.5104
  824MOL0    Cl13619   5.010   9.536   8.983 -0.4599 -0.1303  0.2639
  824MOL0     C13620   5.942   8.991   9.426 -0.1756 -0.7463  0.5160
  824MOL0     C13621   6.086   8.986   9.413  0.6033  1.2789 -0.8514
  824MOL0     O13622   6.405   9.230   9.243  1.1868  1.0988  1.1307
  824MOL0     C13623   6.534   9.014   9.112 -0.1834  0.1168  0.1284
  824MOL0     C13624   6.603   8.899   9.052  0.8954 -1.1872  0.6161
  824MOL0     N13625   6.366   8.340   8.526 -1.1981 -0.4814 -0.4890
  824MOL0     N13626   6.307   8.231   8.523  0.0704 -0.4099  0.4070
  824MOL0     C13627   6.900   8.498   8.336 -0.1784  0.9333 -0.7406
  824MOL0     C13628   6.898   8.624   8.283  0.1534  0.6675 -1.0889
  824MOL0     C13629   6.728   8.914   7.964 -0.2277 -0.7150 -0.3448
  824MOL0     C13630   6.660   9.014   8.039 -0.0328 -1.1323 -0.2137
  824MOL0     C13631   6.642   9.152   8.006  0.3991 -0.5973  0.7539
  824MOL0     C13632   6.683   9.184   7.877  0.4424  0.6069 -0.0038
  824MOL0     O13633   6.644   9.304   7.815  0.3307  0.2582 -0.3468
  824MOL0     C13634   6.585   9.409   7.887  0.7187 -1.3183 -0.3664
  824MOL0     C13635   6.548   9.531   7.797  0.2834  1.9445  0.0057
  824MOL0     C13636   6.602   9.665   7.793  0.3289 -0.6402 -0.5031
  824MOL0     C13637   6.521   9.765   7.884  0.0903 -0.5904 -0.0400
  824MOL0     C13638   6.535   9.738   8.027 -0.1495  0.8661 -0.0216
  824MOL0     C13639   6.526   9.697   8.137 -0.2451  1.3018  0.2281
  824MOL0     C13640   6.737   9.087   7.793  0.7291 -0.4405  0.0518
  824MOL0     C13641   6.760   8.946   7.835 -0.5726  0.2949  0.2712
  824MOL0     C13642   6.814   8.848   7.730  0.4122  0.2215 -0.5340
  824MOL0     H13643   6.570   8.636   8.234 -0.5886  0.5103 -0.1985
  824MOL0     H13644   6.573   8.420   8.335  1.0933 -2.7478 -0.8258
  824MOL0     H13645   6.857   8.358   8.591 -0.5375 -0.5406  0.7926
  824MOL0     H13646   6.976   8.275   8.484 -0.4351 -1.9342  0.2472
  824MOL0     H13647   6.904   8.056   8.539 -1.5358  1.2998 -2.3183
  824MOL0     H13648   6.901   8.131   8.689  0.0743 -3.8861  0.0174
  824MOL0     H13649   6.646   8.185   8.632 -0.2681  0.3769 -2.2740
  824MOL0     H13650   6.646   8.065   8.510 -0.5085  1.6984  0.7119
  824MOL0     H13651   6.683   7.900   8.662 -0.4692  0.5795 -2.1445
  824MOL0     H13652   6.777   7.994   8.770  0.9064 -1.1293 -0.5134
  824MOL0     H13653   6.539   8.102   8.844  1.8858 -0.2028  0.6385
  824MOL0     H13654   6.562   7.928   8.877 -0.2749 -3.0037 -2.8838
  824MOL0     H13655   6.428   8.012   8.617 -5.6934 -2.9785 -2.0789
  824MOL0     H13656   6.422   7.862   8.687 -1.2933  1.3240 -2.0779
  824MOL0     H13657   6.298   8.057   8.877  1.9005 -1.4099  0.0777
  824MOL0     H13658   6.249   7.903   8.815  3.2256 -1.5170  0.0853
  824MOL0     H13659   6.188   8.026   8.599  1.6077 -1.6001  0.4026
  824MOL0     H13660   6.091   8.086   8.728 -1.5849 -2.3922 -2.3631
  824MOL0     H13661   6.233   8.334   8.821 -3.9678 -3.5270 -1.3743
  824MOL0     H13662   6.340   8.590   8.754 -0.2959  1.4936 -2.1652
  824MOL0     H13663   6.433   8.570   8.596 -0.2677 -1.4594 -1.1343
  824MOL0     H13664   6.516   8.417   8.843  1.3164 -0.3233 -0.2189
  824MOL0     H13665   6.617   8.505   8.720  0.8046  1.7218  1.5318
  824MOL0     H13666   6.554   8.722   8.803 -1.6772 -1.3387 -2.2948
  824MOL0     H13667   6.476   8.646   8.937  0.2702  0.1813 -1.5598
  824MOL0     H13668   6.701   8.512   8.954 -1.0458 -0.0440 -0.8296
  824MOL0     H13669   6.770   8.665   8.894  0.6413 -0.9584  0.1171
  824MOL0     H13670   6.601   8.689   9.308 -2.8006 -1.3009 -2.1124
  824MOL0     H13671   6.562   8.807   9.503  1.9001  1.9018  0.7351
  824MOL0     H13672   6.399   8.864   9.502  0.2567  2.0312  3.8512
  824MOL0     H13673   6.525   8.983   9.520  1.6450 -0.3696  1.6253
  824MOL0     H13674   6.173   9.308   9.366  1.0065 -1.3241  0.4893
  824MOL0     H13675   5.933   9.335   9.437 -0.4416 -0.6545  2.9593
  824MOL0     H13676   5.717   9.334   9.401  3.7912  0.0157 -1.4934
  824MOL0     H13677   5.739   9.234   9.257 -1.9005 -0.8955 -0.8109
  824MOL0     H13678   5.509   9.267   9.254 -2.8556 -0.5945  0.1361
  824MOL0     H13679   5.512   9.110   9.342  0.0957 -0.3464  0.7336
  824MOL0     H13680   5.497   9.388   9.456 -0.1277 -0.0227 -0.4138
  824MOL0     H13681   5.503   9.243   9.554  2.3359 -1.4310 -1.4422
  824MOL0     H13682   5.280   9.315   9.563 -0.4392  0.5246 -0.1174
  824MOL0     H13683   5.287   9.167   9.477  1.2670  0.4645  2.2289
  824MOL0     H13684   5.286   9.302   9.249  0.8330  1.4627  0.4959
  824MOL0     H13685   5.141   9.278   9.337  2.3514 -3.9556 -0.3133
  824MOL0     H13686   5.309   9.532   9.368  1.2646 -1.7143 -0.9570
  824MOL0     H13687   5.131   9.499   9.405  1.9220 -0.2398  2.6486
  824MOL0     H13688   5.248   9.523   9.121 -1.0901 -2.2562  0.2408
  824MOL0     H13689   5.148   9.645   9.201  0.6096  1.0968  0.9669
  824MOL0     H13690   4.977   9.431   9.183  1.8428 -3.1443  0.0509
  824MOL0     H13691   5.116   9.359   9.098  5.4374  1.3701  3.7409
  824MOL0     H13692   5.884   8.903   9.403 -0.9758 -0.0817 -0.0890
  824MOL0     H13693   6.129   8.886   9.409 -0.1078  0.9442 -0.4537
  824MOL0     H13694   6.532   9.090   9.035  0.7543 -0.6322 -0.6536
  824MOL0     H13695   6.646   8.917   8.954 -2.8237 -1.5901 -1.2530
  824MOL0     H13696   6.996   8.462   8.372 -0.9729 -0.3100  0.2004
  824MOL0     H13697   6.985   8.687   8.266  0.4204  0.2252 -1.3924
  824MOL0     H13698   6.631   8.974   8.136  1.2990 -1.0005  0.2578
  824MOL0     H13699   6.582   9.215   8.072 -1.2525 -0.7667 -0.5021
  824MOL0     H13700   6.500   9.351   7.924  1.1758 -1.7647  0.0014
  824MOL0     H13701   6.635   9.437   7.980 -1.1179  1.7699 -0.1825
  824MOL0     H13702   6.439   9.521   7.794  0.2602  1.8564  0.9279
  824MOL0     H13703   6.583   9.490   7.701 -1.1901  0.8646 -0.1154
  824MOL0     H13704   6.707   9.653   7.822 -0.9540 -0.6429  5.3943
  824MOL0     H13705   6.602   9.712   7.694 -3.3439 -0.4576 -0.5500
  824MOL0     H13706   6.416   9.764   7.856  0.5827 -1.7914 -2.1059
  824MOL0     H13707   6.548   9.870   7.873 -0.0221 -0.6209 -0.6567
  824MOL0     H13708   6.509   9.665   8.238 -0.0801  0.8735  0.1228
  824MOL0     H13709   6.764   9.113   7.691  1.6926 -1.9704 -0.1086
  824MOL0     H13710   6.743   8.765   7.733  0.9683 -0.2546 -0.1315
  824MOL0     H13711   6.817   8.882   7.626  1.3489  0.2106 -0.5189
  824MOL0     H13712   6.916   8.812   7.749  0.6033 -0.0116 -1.8999
  825MOL0     O13713   6.460  10.103   7.956 -0.3768 -0.0573 -0.0984
  825MOL0     C13714   6.358  10.083   8.021 -0.5312 -1.8805 -0.4364
  825MOL0     O13715   6.238  10.135   7.996  0.8823 -0.0830  0.2872
  825MOL0     C13716   6.216  10.218   7.899  0.4152  0.0836  1.2661
  825MOL0     C13717   6.106  10.202   7.816 -0.2382  0.1856  0.2255
  825MOL0     C13718   6.051  10.309   7.735  0.0279  1.4763 -0.5355
  825MOL0     C13719   6.128  10.426   7.727 -0.0095 -0.2549 -0.1029
  825MOL0     O13720   6.086  10.511   7.633  0.7627 -0.2987 -0.1101
  825MOL0     C13721   6.140  10.649   7.634  0.4881  0.9524 -0.1263
  825MOL0     C13722   6.044  10.739   7.556 -0.4792  0.0009  0.1701
  825MOL0     C13723   5.980  10.662   7.435  0.4284 -0.0206 -0.4417
  825MOL0     C13724   5.912  10.757   7.319 -0.0092  0.6123  0.0644
  825MOL0     C13725   5.884  10.677   7.194 -1.2702  0.3075  0.9807
  825MOL0     C13726   5.829  10.758   7.073  0.5991 -0.3486  0.0883
  825MOL0     C13727   5.803  10.700   6.936  0.7624 -0.3800 -0.3316
  825MOL0     C13728   5.813  10.797   6.820 -0.5452 -1.3719 -0.5897
  825MOL0     N13729   5.950  10.852   6.811 -0.0481 -0.2648  0.3060
  825MOL0     C13730   5.960  10.989   6.834 -0.5170 -0.6509  0.1945
  825MOL0     C13731   6.089  11.010   6.838  0.1265 -0.5057 -0.6208
  825MOL0     C13732   6.150  11.137   6.901 -0.0414  0.3627  0.5707
  825MOL0     C13733   6.262  11.098   6.996 -0.6901 -0.2692 -0.2504
  825MOL0     C13734   6.336  11.216   7.063  0.6532  0.3577 -0.2654
  825MOL0     C13735   6.361  11.329   6.958 -0.6454 -0.2145 -0.5765
  825MOL0     O13736   6.447  11.425   7.024 -0.6475 -0.5145 -0.3892
  825MOL0     C13737   6.455  11.553   6.972  0.5384 -1.3241 -0.3410
  825MOL0     C13738   6.521  11.655   7.043  0.0848 -0.0876  0.5990
  825MOL0     C13739   6.538  11.784   6.992 -0.3152 -0.2115  0.3367
  825MOL0     C13740   6.629  11.866   7.085 -1.4313 -0.0222 -0.3065
  825MOL0     C13741   6.493  11.815   6.862 -1.0198  0.8499  0.1340
  825MOL0     C13742   6.519  11.948   6.799  0.5368 -0.0699  0.6634
  825MOL0     O13743   6.465  11.972   6.677  0.5130  0.7791  0.5645
  825MOL0     C13744   6.509  12.076   6.590 -0.3251 -0.7929  0.1520
  825MOL0     C13745   6.434  12.100   6.476  0.1413 -0.8833  1.2964
  825MOL0     C13746   6.454  12.211   6.390 -0.0964 -0.9766 -0.7884
  825MOL0     C13747   6.561  12.303   6.408  0.7976 -0.3028 -0.0270
  825MOL0     O13748   6.569  12.408   6.320  0.3402 -0.0758  0.4585
  825MOL0     C13749   6.703  12.445   6.278 -0.3529 -0.3674 -0.0557
  825MOL0     C13750   6.792  12.539   6.368  0.3358 -0.5008  0.5191
  825MOL0     C13751   6.733  12.655   6.439  1.2619 -0.4042 -0.8265
  825MOL0     C13752   6.807  12.790   6.442  0.1913  0.5234  0.7364
  825MOL0     C13753   6.725  12.900   6.509  0.6811 -0.8310  0.6653
  825MOL0     C13754   6.759  12.902   6.655 -0.2994  0.0386  0.3452
  825MOL0     C13755   6.685  13.011   6.727 -0.2901  0.2307  0.1680
  825MOL0     C13756   6.704  13.011   6.883 -0.7714 -0.2821  1.2543
  825MOL0    Cl13757   6.620  12.895   6.979  0.0408  0.4707 -0.3609
  825MOL0     C13758   6.645  12.273   6.523  0.4392 -1.0190 -0.5587
  825MOL0     C13759   6.627  12.156   6.595 -0.3474 -0.8281 -0.5125
  825MOL0     O13760   6.583  12.034   6.854  0.4021 -0.1209 -0.1552
  825MOL0     C13761   6.418  11.708   6.793 -0.5051 -0.2232  0.1067
  825MOL0     C13762   6.400  11.583   6.845  0.3466  0.5920 -0.4283
  825MOL0     N13763   6.163  10.900   6.808 -0.1208 -0.2967  0.4774
  825MOL0     N13764   6.075  10.796   6.792  0.2883  0.1174 -0.3687
  825MOL0     C13765   6.229  10.451   7.819  0.9175 -0.7773  0.1086
  825MOL0     C13766   6.272  10.344   7.898 -0.4597  0.6232 -0.2810
  825MOL0     C13767   6.381  10.018   8.149 -0.0220  0.8292 -0.5172
  825MOL0     C13768   6.271   9.933   8.194 -0.3101 -0.3122 -0.3979
  825MOL0     C13769   6.267   9.864   8.320  0.5930  0.0499 -0.3961
  825MOL0     C13770   6.381   9.863   8.400 -0.4667 -0.5842 -0.6909
  825MOL0     O13771   6.419   9.784   8.504 -0.3814  0.9159  0.0507
  825MOL0     C13772   6.325   9.695   8.559 -0.1064  0.3957 -0.1164
  825MOL0     C13773   6.339   9.567   8.469 -0.0740  0.6832  0.7995
  825MOL0     C13774   6.211   9.485   8.452  0.2108  0.3753  0.1101
  825MOL0     C13775   6.213   9.370   8.344  0.2859 -0.7115 -0.7976
  825MOL0     C13776   6.243   9.428   8.210 -0.0905 -0.0061 -0.0028
  825MOL0     C13777   6.289   9.474   8.100  0.1742  0.1025 -0.2812
  825MOL0     C13778   6.488   9.935   8.351 -0.0199  0.4171 -0.9241
  825MOL0     C13779   6.494  10.009   8.223 -0.0834 -0.5137 -0.1231
  825MOL0     C13780   6.626  10.063   8.184  0.1463 -1.6636 -0.2003
  825MOL0     H13781   6.070  10.100   7.808 -0.8334  0.3576  0.6120
  825MOL0     H13782   5.968  10.289   7.668 -0.5631 -1.9321  0.9862
  825MOL0     H13783   6.239  10.651   7.588  0.8028 -2.1297  0.2451
  825MOL0     H13784   6.141  10.685   7.737 -4.2338 -0.0328  0.4931
  825MOL0     H13785   5.966  10.775   7.624 -3.3556 -1.3186 -2.1559
  825MOL0     H13786   6.104  10.815   7.505  1.2460 -1.6504 -0.3801
  825MOL0     H13787   6.057  10.596   7.393  1.1884 -1.9124  3.4812
  825MOL0     H13788   5.902  10.597   7.474  0.5139  0.8170  1.2079
  825MOL0     H13789   5.815  10.775   7.366 -0.8264 -0.4053 -1.1575
  825MOL0     H13790   5.970  10.847   7.298  0.2683 -0.0060 -2.0052
  825MOL0     H13791   5.810  10.599   7.213 -0.3599 -1.1547 -1.1004
  825MOL0     H13792   5.972  10.625   7.156 -1.9482 -0.4780  0.4514
  825MOL0     H13793   5.731  10.802   7.094  0.1182 -1.6028  0.6011
  825MOL0     H13794   5.893  10.846   7.066  1.0673 -0.6365  0.6042
  825MOL0     H13795   5.705  10.654   6.920  0.8316 -0.8126  0.4792
  825MOL0     H13796   5.869  10.614   6.925  0.9466 -0.0094 -2.7498
  825MOL0     H13797   5.789  10.752   6.724  0.4841 -0.3321 -1.3682
  825MOL0     H13798   5.735  10.872   6.832 -0.5256 -1.0823 -2.0973
  825MOL0     H13799   5.875  11.051   6.861  1.6527  3.5079 -1.6554
  825MOL0     H13800   6.072  11.181   6.964  0.1402 -0.9111  1.7208
  825MOL0     H13801   6.185  11.199   6.817 -2.7194 -0.1035 -0.9800
  825MOL0     H13802   6.234  11.019   7.066 -0.6424 -1.7152 -1.7953
  825MOL0     H13803   6.342  11.055   6.935  0.3118  1.3520 -0.1330
  825MOL0     H13804   6.282  11.260   7.147  3.5418 -1.8959  3.0610
  825MOL0     H13805   6.428  11.168   7.098 -0.7164 -1.8276  0.5049
  825MOL0     H13806   6.396  11.292   6.861 -1.3913 -0.2356 -0.8380
  825MOL0     H13807   6.260  11.367   6.944 -0.4938  1.3467  1.9646
  825MOL0     H13808   6.568  11.616   7.133 -0.7669 -2.6472  0.0158
  825MOL0     H13809   6.676  11.803   7.161 -2.1160 -1.3283 -0.9327
  825MOL0     H13810   6.576  11.945   7.140  0.1186  3.1953 -3.0825
  825MOL0     H13811   6.707  11.899   7.016 -2.0313  1.9665 -0.1113
  825MOL0     H13812   6.347  12.039   6.453 -0.5842  0.4148  0.5060
  825MOL0     H13813   6.390  12.242   6.309  1.7889  3.1655 -0.9930
  825MOL0     H13814   6.761  12.357   6.250  0.2857 -0.0473  0.2339
  825MOL0     H13815   6.681  12.502   6.187 -2.0170 -0.0930  0.4816
  825MOL0     H13816   6.858  12.468   6.419  3.7509  0.9989 -1.4320
  825MOL0     H13817   6.864  12.581   6.298 -1.4080  1.3172 -0.2635
  825MOL0     H13818   6.712  12.635   6.544  0.9126 -0.1352 -0.8467
  825MOL0     H13819   6.636  12.676   6.393  0.8925  1.0418  0.5437
  825MOL0     H13820   6.821  12.832   6.342 -2.9829  1.6192  0.6464
  825MOL0     H13821   6.907  12.777   6.485  1.1724  5.6101  0.5945
  825MOL0     H13822   6.744  13.001   6.470 -0.6369 -1.0697 -0.6919
  825MOL0     H13823   6.618  12.885   6.491  1.1673 -3.7590 -0.2835
  825MOL0     H13824   6.865  12.928   6.664 -0.5845  1.8654 -1.0419
  825MOL0     H13825   6.738  12.806   6.702  1.6402  1.4662  4.7743
  825MOL0     H13826   6.582  12.984   6.705 -0.8873  1.9260  0.7484
  825MOL0     H13827   6.713  13.112   6.696 -0.9742 -0.0459 -1.4253
  825MOL0     H13828   6.667  13.108   6.918  1.7267  1.2643 -0.1164
  825MOL0     H13829   6.811  12.993   6.901 -0.7029 -3.2319 -1.2824
  825MOL0     H13830   6.739  12.329   6.530 -1.3066  2.1154 -0.0752
  825MOL0     H13831   6.692  12.154   6.682 -0.0374 -1.3819 -0.7489
  825MOL0     H13832   6.386  11.712   6.689  2.1277 -4.6277 -1.1219
  825MOL0     H13833   6.344  11.508   6.792  0.0650  0.5024 -0.0067
  825MOL0     H13834   6.279  10.547   7.827 -0.5173  0.4706 -3.5976
  825MOL0     H13835   6.344  10.365   7.977 -0.6716 -0.1002  0.1133
  825MOL0     H13836   6.177   9.926   8.141  0.1178  2.6314 -1.7177
  825MOL0     H13837   6.188   9.790   8.322  0.4113  0.2512 -0.0249
  825MOL0     H13838   6.346   9.679   8.665 -1.0640  1.1504  0.2007
  825MOL0     H13839   6.226   9.741   8.568  0.3414  1.3105  0.2571
  825MOL0     H13840   6.420   9.501   8.501 -1.9703 -0.5851  3.2734
  825MOL0     H13841   6.366   9.590   8.365  0.4612  0.2268  0.8333
  825MOL0     H13842   6.197   9.432   8.547 -3.7157 -1.7351 -1.4123
  825MOL0     H13843   6.129   9.555   8.434 -0.7184 -1.0717 -1.6374
  825MOL0     H13844   6.119   9.314   8.336  0.0481 -0.4890  0.2719
  825MOL0     H13845   6.295   9.303   8.372 -0.1624 -1.4589 -1.2403
  825MOL0     H13846   6.321   9.504   8.002 -1.3800  3.0926  0.0109
  825MOL0     H13847   6.585   9.926   8.400 -0.4851 -0.0320 -0.0752
  825MOL0     H13848   6.620  10.171   8.166  2.2323 -1.1652  1.6367
  825MOL0     H13849   6.699  10.047   8.264  0.0239  2.1341  0.8404
  825MOL0     H13850   6.673  10.011   8.100  0.5939 -1.8575  0.1700
  826MOL0     O13851   4.580   6.983   4.362 -1.0500  0.2595 -0.2156
  826MOL0     C13852   4.692   6.936   4.367  0.5594  0.4266 -0.7428
  826MOL0     O13853   4.734   6.838   4.464 -0.4547 -0.0403  0.8841
  826MOL0     C13854   4.645   6.750   4.517  0.2390 -0.4592  0.1451
  826MOL0     C13855   4.548   6.812   4.602  0.0234  0.0728 -1.4343
  826MOL0     C13856   4.455   6.730   4.663  0.1734  1.3101 -0.0952
  826MOL0     C13857   4.455   6.587   4.650 -0.1546 -0.8225 -0.0935
  826MOL0     O13858   4.363   6.505   4.706 -0.1661 -0.1583 -0.2036
  826MOL0     C13859   4.311   6.543   4.829  0.7111 -0.5555  0.0783
  826MOL0     C13860   4.242   6.423   4.883  0.3833  0.8413  0.0698
  826MOL0     C13861   4.091   6.403   4.845  0.4096  0.1890 -0.3821
  826MOL0     C13862   3.983   6.476   4.924 -0.0919 -0.5505 -0.0193
  826MOL0     C13863   3.842   6.459   4.875 -0.4275 -0.9387  0.4693
  826MOL0     C13864   3.807   6.566   4.761 -0.7274  0.0257  0.3053
  826MOL0     C13865   3.809   6.712   4.809  0.8301 -1.0103 -0.4548
  826MOL0     C13866   3.766   6.798   4.692 -0.4634  1.0387 -0.5790
  826MOL0     N13867   3.868   6.844   4.600 -0.6463  0.1616  0.2647
  826MOL0     C13868   4.004   6.866   4.605 -0.9548  0.4344 -0.3917
  826MOL0     C13869   4.039   6.920   4.483 -0.0506 -1.0748  0.8553
  826MOL0     C13870   4.182   6.937   4.447  0.9622 -0.2867  0.0881
  826MOL0     C13871   4.223   7.079   4.424  0.6516  0.0465 -0.0989
  826MOL0     C13872   4.189   7.163   4.555 -0.2357  0.1272 -0.0364
  826MOL0     C13873   4.270   7.297   4.558  0.5216  1.0624 -0.7103
  826MOL0     O13874   4.210   7.375   4.661  1.2861  0.8132  0.2902
  826MOL0     C13875   4.271   7.488   4.699  0.5895  0.1552 -0.2471
  826MOL0     C13876   4.371   7.551   4.625 -0.6652  0.2172  0.9485
  826MOL0     C13877   4.401   7.687   4.643 -0.9271 -0.7526  0.6022
  826MOL0     C13878   4.514   7.748   4.556  0.1195  0.8947 -0.5798
  826MOL0     C13879   4.363   7.754   4.764 -0.2197 -1.3322 -0.3191
  826MOL0     C13880   4.407   7.888   4.814  0.2777  0.7392 -0.7490
  826MOL0     O13881   4.309   7.965   4.878 -0.2166  0.2061 -0.0955
  826MOL0     C13882   4.360   8.051   4.970  0.2854 -0.6406 -1.1084
  826MOL0     C13883   4.392   8.007   5.102 -0.1305  0.0267  0.2890
  826MOL0     C13884   4.422   8.100   5.202  0.5046 -0.7664 -0.2349
  826MOL0     C13885   4.429   8.239   5.175  0.3859 -0.3483  0.4230
  826MOL0     O13886   4.461   8.341   5.270  0.5549  0.0191 -0.5746
  826MOL0     C13887   4.563   8.317   5.361 -0.1199  0.0062 -0.6930
  826MOL0     C13888   4.609   8.455   5.395  0.1643  0.1713 -0.2958
  826MOL0     C13889   4.684   8.516   5.271  0.7454  0.2800  0.7568
  826MOL0     C13890   4.737   8.656   5.294  0.2391  0.5457 -0.2575
  826MOL0     C13891   4.765   8.731   5.156 -0.0065  0.2936 -0.5305
  826MOL0     C13892   4.827   8.870   5.188 -0.2187  0.3039  0.5578
  826MOL0     C13893   4.919   8.921   5.077  0.2588 -0.6671  1.1197
  826MOL0     C13894   4.949   9.068   5.106  0.9622 -0.2949 -0.7728
  826MOL0    Cl13895   5.070   9.098   5.228 -0.3990  0.2304  0.0787
  826MOL0     C13896   4.402   8.278   5.046 -0.8679 -0.1669  0.0094
  826MOL0     C13897   4.374   8.195   4.946 -0.0865  1.3765 -0.2206
  826MOL0     O13898   4.528   7.920   4.798 -0.0486 -0.0906 -0.2362
  826MOL0     C13899   4.259   7.690   4.828  0.1845 -0.8133 -0.3074
  826MOL0     C13900   4.225   7.561   4.805  0.2455 -0.0017 -1.4317
  826MOL0     N13901   3.926   6.933   4.411 -0.4356  0.2000  0.2360
  826MOL0     N13902   3.823   6.881   4.475 -0.8386 -0.5978 -1.3745
  826MOL0     C13903   4.554   6.541   4.565  0.7961  0.2742 -0.9185
  826MOL0     C13904   4.641   6.615   4.493 -0.6091 -0.2287 -0.4601
  826MOL0     C13905   4.800   6.989   4.278 -0.4565 -0.9246  0.5225
  826MOL0     C13906   4.763   7.013   4.144 -0.9114 -0.6325 -0.8845
  826MOL0     C13907   4.859   7.051   4.049 -1.1957 -0.3866 -0.2811
  826MOL0     C13908   4.996   7.064   4.081  1.0844  0.0903 -1.6917
  826MOL0     O13909   5.082   7.125   4.004  0.4067  0.2277  0.5027
  826MOL0     C13910   5.153   7.039   3.923  0.7703  0.2055 -0.1517
  826MOL0     C13911   5.233   7.109   3.820  0.0617  0.1681 -1.0787
  826MOL0     C13912   5.328   7.199   3.901  0.3422  0.2672 -0.3861
  826MOL0     C13913   5.477   7.211   3.862  0.1712  0.0080  0.1300
  826MOL0     C13914   5.566   7.283   3.958 -0.0043  0.4945  0.2666
  826MOL0     C13915   5.640   7.359   4.017 -0.4410  1.4795 -0.7534
  826MOL0     C13916   5.027   7.036   4.211  0.5660  0.0244 -0.1337
  826MOL0     C13917   4.938   6.999   4.311  0.1011 -1.2084 -0.1866
  826MOL0     C13918   5.001   6.978   4.447  0.4341  0.8056 -0.4662
  826MOL0     H13919   4.541   6.917   4.628 -3.1235 -0.6043  0.9709
  826MOL0     H13920   4.380   6.783   4.721 -0.8437 -1.1670  0.9500
  826MOL0     H13921   4.241   6.626   4.816  0.4276 -0.3934  2.2109
  826MOL0     H13922   4.388   6.564   4.904  1.6450  3.6501 -1.7827
  826MOL0     H13923   4.288   6.330   4.849  1.5996 -0.2516  4.1143
  826MOL0     H13924   4.244   6.420   4.992  2.2312 -2.4011  0.0763
  826MOL0     H13925   4.076   6.435   4.741 -1.0129  0.7818 -0.0179
  826MOL0     H13926   4.074   6.295   4.847 -0.1346  0.2579  1.8037
  826MOL0     H13927   3.991   6.453   5.031  1.0793 -0.4142 -0.0636
  826MOL0     H13928   4.002   6.584   4.923 -1.8807 -0.1728 -2.7095
  826MOL0     H13929   3.781   6.480   4.963 -2.1247 -1.2542 -0.5773
  826MOL0     H13930   3.828   6.357   4.838 -1.9268 -1.5204  2.4374
  826MOL0     H13931   3.883   6.575   4.683 -0.9123  2.3230  0.3295
  826MOL0     H13932   3.708   6.544   4.721 -1.2724  2.1736  0.3491
  826MOL0     H13933   3.899   6.750   4.857 -1.0896  0.9583  1.8982
  826MOL0     H13934   3.723   6.734   4.874 -0.9807  1.6758 -3.4566
  826MOL0     H13935   3.690   6.741   4.638 -2.0204 -0.5635  2.9200
  826MOL0     H13936   3.713   6.886   4.728  2.1559  2.3383  0.3600
  826MOL0     H13937   4.057   6.823   4.688 -1.2304  0.6019 -0.1267
  826MOL0     H13938   4.215   6.894   4.352  1.0001  2.8496 -1.4459
  826MOL0     H13939   4.248   6.898   4.525  1.3076 -0.1170 -0.1169
  826MOL0     H13940   4.330   7.083   4.399  0.8893  2.5186  1.0027
  826MOL0     H13941   4.169   7.115   4.336 -0.6770 -0.8204  0.3465
  826MOL0     H13942   4.082   7.181   4.546 -0.1541  0.6213 -0.0098
  826MOL0     H13943   4.200   7.108   4.649 -3.0891  2.1913  1.6477
  826MOL0     H13944   4.374   7.269   4.581  0.5286  2.6894  1.6382
  826MOL0     H13945   4.277   7.345   4.460  0.6422  1.3224 -0.5754
  826MOL0     H13946   4.406   7.512   4.530 -1.8876 -0.5836  0.7928
  826MOL0     H13947   4.500   7.854   4.535  0.1759  1.0966  0.3523
  826MOL0     H13948   4.512   7.687   4.465 -1.2298  0.3477 -0.2056
  826MOL0     H13949   4.604   7.729   4.616 -1.9819 -2.0320  1.9456
  826MOL0     H13950   4.392   7.901   5.124  0.9416  0.4634  2.8151
  826MOL0     H13951   4.459   8.061   5.296  0.3496 -2.1573 -0.7229
  826MOL0     H13952   4.521   8.256   5.442 -0.6962 -0.5767 -1.4198
  826MOL0     H13953   4.637   8.252   5.311 -0.8630 -2.7000  1.4531
  826MOL0     H13954   4.533   8.521   5.438  2.6815  0.6640  4.0177
  826MOL0     H13955   4.688   8.457   5.471 -0.6497 -0.7236  0.6066
  826MOL0     H13956   4.614   8.515   5.187  1.8988  1.2557 -0.2552
  826MOL0     H13957   4.769   8.448   5.256  0.2096 -1.0212  3.1660
  826MOL0     H13958   4.823   8.653   5.361  0.1551 -0.8892 -0.1859
  826MOL0     H13959   4.664   8.719   5.347  0.5486  0.7964 -0.1297
  826MOL0     H13960   4.838   8.677   5.095 -0.9006  0.4751 -1.8081
  826MOL0     H13961   4.667   8.745   5.109 -0.1251 -0.1318 -0.4108
  826MOL0     H13962   4.875   8.863   5.286 -0.0111 -3.1604  0.3235
  826MOL0     H13963   4.742   8.938   5.199 -0.7526 -0.5830  2.3365
  826MOL0     H13964   4.867   8.920   4.981 -1.2225  1.0337  1.8364
  826MOL0     H13965   5.015   8.869   5.065  0.3369  0.0687 -2.4513
  826MOL0     H13966   4.861   9.128   5.133  0.2210 -1.9699  0.6808
  826MOL0     H13967   4.999   9.107   5.016  4.3614 -1.4548  0.4764
  826MOL0     H13968   4.418   8.380   5.013 -0.2645  0.2088  1.4117
  826MOL0     H13969   4.347   8.227   4.845 -1.9671 -1.7967 -0.8606
  826MOL0     H13970   4.195   7.738   4.901 -2.0179 -0.4355 -2.3502
  826MOL0     H13971   4.151   7.509   4.865  0.8324  1.6706  0.8602
  826MOL0     H13972   4.561   6.433   4.561 -1.1370 -0.2589  3.3638
  826MOL0     H13973   4.716   6.576   4.425  0.9282  1.3679  0.2531
  826MOL0     H13974   4.665   7.007   4.097 -0.5019 -1.8422 -1.6289
  826MOL0     H13975   4.819   7.080   3.953  1.4161  1.9725 -0.7704
  826MOL0     H13976   5.219   6.979   3.987  0.0516  0.1316  0.5509
  826MOL0     H13977   5.082   6.978   3.866  0.4755  1.6069 -1.3376
  826MOL0     H13978   5.157   7.160   3.761 -2.6919  3.1473  4.2695
  826MOL0     H13979   5.279   7.029   3.761 -0.3027 -0.5889 -0.3615
  826MOL0     H13980   5.283   7.298   3.901  1.3065  0.8358  2.7777
  826MOL0     H13981   5.333   7.176   4.008 -2.7454  2.0972  0.2595
  826MOL0     H13982   5.480   7.278   3.776  0.3653  1.4192  1.1833
  826MOL0     H13983   5.515   7.111   3.840 -2.0512 -0.6122 -1.1187
  826MOL0     H13984   5.693   7.446   4.052  1.6636  1.3219 -3.2029
  826MOL0     H13985   5.133   7.053   4.227  0.4997 -0.1070  0.4730
  826MOL0     H13986   4.978   7.063   4.512 -3.4170 -1.1703  1.0458
  826MOL0     H13987   4.958   6.889   4.492  3.2563 -1.5162 -2.0097
  826MOL0     H13988   5.108   6.957   4.437  0.8382  1.0255  2.4475
  827MOL0     O13989   1.691   9.892   7.442  0.1281  0.3318 -0.0860
  827MOL0     C13990   1.587   9.914   7.376 -0.3898  0.0408  0.8696
  827MOL0     O13991   1.489   9.822   7.345 -1.5526  0.1144 -0.3522
  827MOL0     C13992   1.509   9.690   7.372 -0.8214  0.1614  0.0125
  827MOL0     C13993   1.452   9.641   7.490  0.3445  0.5904 -0.2792
  827MOL0     C13994   1.470   9.504   7.513 -0.4185 -0.7613 -0.5053
  827MOL0     C13995   1.534   9.416   7.428  0.3714 -0.5240  0.5144
  827MOL0     O13996   1.561   9.289   7.473 -0.1469 -0.5853 -0.3049
  827MOL0     C13997   1.677   9.212   7.435 -0.0097 -0.1792  0.3377
  827MOL0     C13998   1.659   9.082   7.521 -0.2929 -1.0294  0.3168
  827MOL0     C13999   1.740   8.977   7.454  0.0286  0.1125 -0.3320
  827MOL0     C14000   1.747   8.851   7.540  0.0538  0.3067 -0.5975
  827MOL0     C14001   1.830   8.749   7.467 -0.1462 -0.2148  0.1210
  827MOL0     C14002   1.809   8.611   7.527  0.3815  0.1923 -0.6417
  827MOL0     C14003   1.679   8.543   7.479 -0.3264 -0.1045  0.4577
  827MOL0     C14004   1.655   8.410   7.557 -0.0017 -0.1399  0.4129
  827MOL0     N14005   1.526   8.359   7.511 -0.0489  0.0105 -0.1948
  827MOL0     C14006   1.402   8.399   7.545  0.5862 -0.2937  0.0100
  827MOL0     C14007   1.316   8.296   7.514  0.0622 -0.1727  0.7656
  827MOL0     C14008   1.169   8.308   7.499 -0.3276 -0.3360 -0.3097
  827MOL0     C14009   1.090   8.218   7.597  0.2725  0.0961 -0.0775
  827MOL0     C14010   1.143   8.246   7.739 -0.4518 -0.1611 -0.1204
  827MOL0     C14011   1.091   8.375   7.799 -0.0665 -0.0362 -0.4942
  827MOL0     O14012   1.212   8.429   7.840  0.3079 -0.1892 -0.0819
  827MOL0     C14013   1.202   8.556   7.884 -0.1443 -0.4842  0.9341
  827MOL0     C14014   1.316   8.630   7.886 -0.5370  0.4125 -0.1700
  827MOL0     C14015   1.329   8.745   7.961 -0.0031 -1.4107 -0.0108
  827MOL0     C14016   1.467   8.804   7.950 -0.5873  0.1704 -0.8038
  827MOL0     C14017   1.221   8.795   8.031  0.7549 -0.7586 -0.7992
  827MOL0     C14018   1.226   8.902   8.134 -0.0139 -0.0775  0.2450
  827MOL0     O14019   1.112   8.952   8.188  0.1590 -0.1965  0.3412
  827MOL0     C14020   1.125   9.041   8.289  0.6278  0.6803 -0.6913
  827MOL0     C14021   1.181   9.171   8.272  1.0369  0.0558 -0.7766
  827MOL0     C14022   1.155   9.265   8.373 -0.1668 -0.0972 -0.8854
  827MOL0     C14023   1.074   9.231   8.487 -0.4967 -0.2451  0.6845
  827MOL0     O14024   1.053   9.315   8.599  0.1785  0.0055  0.0689
  827MOL0     C14025   1.154   9.406   8.628 -0.2348 -0.5525 -1.0554
  827MOL0     C14026   1.087   9.523   8.709  0.1602  0.6100 -0.8859
  827MOL0     C14027   1.018   9.624   8.623 -0.8479 -0.5092  0.4740
  827MOL0     C14028   0.960   9.741   8.707  0.4455  0.3831  0.3417
  827MOL0     C14029   0.892   9.850   8.627  0.1959 -0.1779 -0.8103
  827MOL0     C14030   0.842   9.976   8.720  0.6377  0.1301  0.6607
  827MOL0     C14031   0.737  10.047   8.643 -0.0403 -0.4337  0.6724
  827MOL0     C14032   0.735  10.199   8.661  0.0206  0.1867  0.7131
  827MOL0    Cl14033   0.873  10.267   8.562  0.0248  0.0383 -0.6125
  827MOL0     C14034   1.017   9.110   8.490  0.0353  0.0577 -0.2316
  827MOL0     C14035   1.044   9.012   8.401 -0.2917  0.1591  0.3455
  827MOL0     O14036   1.338   8.947   8.161  0.1779 -0.6647 -0.4208
  827MOL0     C14037   1.099   8.737   8.007  0.7908  0.2224  0.6967
  827MOL0     C14038   1.091   8.617   7.937 -0.5771 -0.2052 -0.1602
  827MOL0     N14039   1.399   8.197   7.449 -0.0504 -0.0305  0.1364
  827MOL0     N14040   1.522   8.244   7.441 -0.1493 -0.3151 -0.5414
  827MOL0     C14041   1.590   9.469   7.311 -0.0665 -0.1334 -0.5575
  827MOL0     C14042   1.573   9.608   7.283 -0.0578  0.0323  0.1645
  827MOL0     C14043   1.560  10.055   7.326  0.7470 -0.5878  0.1909
  827MOL0     C14044   1.429  10.094   7.309 -0.4459 -0.4325 -0.2348
  827MOL0     C14045   1.398  10.230   7.281  0.5720 -0.3711  0.1979
  827MOL0     C14046   1.503  10.319   7.251  0.5243 -0.7930  0.6201
  827MOL0     O14047   1.479  10.453   7.230 -0.4256 -1.0868  0.4215
  827MOL0     C14048   1.357  10.515   7.279 -1.1132 -0.6754 -0.5982
  827MOL0     C14049   1.260  10.524   7.158 -0.3587 -0.9026 -0.2337
  827MOL0     C14050   1.119  10.482   7.200 -0.2673  0.0796 -0.2901
  827MOL0     C14051   1.011  10.473   7.082 -0.9815  0.1489  0.2880
  827MOL0     C14052   0.974  10.609   7.039  0.9184 -0.2022 -0.0851
  827MOL0     C14053   0.959  10.727   7.004  0.0363  0.0365  0.0344
  827MOL0     C14054   1.637  10.279   7.259  0.1440  0.0605 -0.6350
  827MOL0     C14055   1.666  10.147   7.298  0.0008  0.1720 -0.5248
  827MOL0     C14056   1.804  10.103   7.273 -0.1061 -0.1257 -0.8724
  827MOL0     H14057   1.387   9.703   7.551  1.3889 -0.1955  1.7431
  827MOL0     H14058   1.421   9.474   7.605 -2.2590 -2.5542 -1.9882
  827MOL0     H14059   1.771   9.264   7.452 -0.2889 -0.0597  1.6456
  827MOL0     H14060   1.661   9.193   7.329 -0.5158  1.0438  0.1816
  827MOL0     H14061   1.710   9.101   7.616  0.8664  0.5548 -0.5695
  827MOL0     H14062   1.552   9.064   7.528 -1.1567  2.5003 -1.3085
  827MOL0     H14063   1.695   8.953   7.357  2.9251 -1.0868 -1.4939
  827MOL0     H14064   1.838   9.023   7.440  0.0860 -0.0646 -0.5139
  827MOL0     H14065   1.797   8.883   7.632 -2.1049  1.5267  0.2440
  827MOL0     H14066   1.642   8.822   7.555  0.6263 -2.3898 -1.2605
  827MOL0     H14067   1.938   8.765   7.463 -0.3108  0.6456 -2.2272
  827MOL0     H14068   1.798   8.747   7.362 -4.3576  0.8164  1.1903
  827MOL0     H14069   1.891   8.541   7.509 -1.0843 -1.2535 -2.1869
  827MOL0     H14070   1.792   8.612   7.635 -0.8992 -1.2140 -0.7849
  827MOL0     H14071   1.694   8.529   7.371 -2.0691  0.7114  0.0729
  827MOL0     H14072   1.591   8.606   7.493  1.0554  2.9762 -3.0505
  827MOL0     H14073   1.739   8.344   7.532  0.3148 -0.7908  2.9230
  827MOL0     H14074   1.660   8.409   7.667  1.0045 -0.3219  0.3755
  827MOL0     H14075   1.377   8.499   7.579 -0.3654 -1.2610  2.3867
  827MOL0     H14076   1.137   8.286   7.397 -0.8943 -3.0087  0.3902
  827MOL0     H14077   1.163   8.416   7.516  2.0250  0.2371 -2.4164
  827MOL0     H14078   0.984   8.242   7.586 -1.0250 -4.6483 -0.0389
  827MOL0     H14079   1.111   8.117   7.561  3.0761  0.1866  1.0930
  827MOL0     H14080   1.109   8.170   7.809 -3.7674  2.4171  1.3538
  827MOL0     H14081   1.252   8.243   7.738 -0.3645  1.4635 -2.2167
  827MOL0     H14082   1.037   8.428   7.719  0.7179  1.1088 -0.2799
  827MOL0     H14083   1.019   8.353   7.879 -1.4544  0.6997 -1.4929
  827MOL0     H14084   1.393   8.589   7.822 -0.9904 -1.8306  0.6259
  827MOL0     H14085   1.534   8.757   8.022 -2.1835 -2.5560 -0.9406
  827MOL0     H14086   1.464   8.912   7.965 -2.5556  0.0762 -0.1667
  827MOL0     H14087   1.505   8.791   7.848  0.9136 -1.5388 -0.0788
  827MOL0     H14088   1.240   9.196   8.185  0.8956  2.6338 -0.1941
  827MOL0     H14089   1.220   9.352   8.362  0.9685  0.3147  5.4005
  827MOL0     H14090   1.230   9.370   8.699 -0.6533  2.7627  1.3212
  827MOL0     H14091   1.195   9.453   8.538  1.6453  2.7554  1.2994
  827MOL0     H14092   1.009   9.491   8.778  0.8746  3.2683  1.3070
  827MOL0     H14093   1.157   9.585   8.765 -1.0188  1.4248 -0.2774
  827MOL0     H14094   0.937   9.576   8.568 -0.0514 -0.3935 -0.8467
  827MOL0     H14095   1.086   9.660   8.545 -0.0078  1.1354  1.8879
  827MOL0     H14096   1.038   9.778   8.775 -1.2944  2.1388  1.5133
  827MOL0     H14097   0.880   9.688   8.760 -0.0792  0.3817 -0.4310
  827MOL0     H14098   0.966   9.890   8.557  2.3083  0.1597  1.4723
  827MOL0     H14099   0.810   9.800   8.576  0.8811 -0.4741 -1.6372
  827MOL0     H14100   0.929  10.039   8.741  0.4599  0.4402  0.4591
  827MOL0     H14101   0.804   9.933   8.813 -1.0763 -0.6566 -0.3464
  827MOL0     H14102   0.642  10.007   8.679 -0.7675  1.7694  1.3589
  827MOL0     H14103   0.757  10.031   8.536  1.9233  0.2085  0.8978
  827MOL0     H14104   0.743  10.238   8.763  0.2981  1.6189  0.1643
  827MOL0     H14105   0.641  10.221   8.610 -1.7843 -3.8815  1.8467
  827MOL0     H14106   0.960   9.088   8.579 -0.6447 -0.1059 -0.7001
  827MOL0     H14107   0.997   8.915   8.412  1.0468 -0.5406  0.0380
  827MOL0     H14108   1.010   8.779   8.052 -0.2912 -0.0866 -1.0536
  827MOL0     H14109   0.996   8.565   7.939  0.0825 -1.4454  1.3685
  827MOL0     H14110   1.653   9.422   7.236  0.4282  0.0581 -0.2636
  827MOL0     H14111   1.614   9.653   7.193 -0.2310  0.4440  0.2916
  827MOL0     H14112   1.346  10.024   7.307 -0.6852 -0.2047 -3.3592
  827MOL0     H14113   1.292  10.247   7.264 -0.3426 -2.3305  3.0889
  827MOL0     H14114   1.318  10.461   7.365 -0.4075  2.5968  1.9410
  827MOL0     H14115   1.385  10.616   7.309  0.9632 -1.3961  0.0753
  827MOL0     H14116   1.292  10.468   7.069 -0.0064  1.1558 -1.4888
  827MOL0     H14117   1.247  10.627   7.121 -1.2461 -0.2527  1.7654
  827MOL0     H14118   1.127  10.379   7.237  3.6718 -1.2276 -3.9307
  827MOL0     H14119   1.077  10.552   7.273 -2.0225 -0.1724 -1.0055
  827MOL0     H14120   0.924  10.426   7.128 -2.0001  2.0278  0.3552
  827MOL0     H14121   1.061  10.416   7.002 -0.9168 -1.9091  1.7216
  827MOL0     H14122   0.966  10.832   6.986 -1.7297  0.4776  1.5879
  827MOL0     H14123   1.720  10.348   7.249 -0.6585  1.4058  1.3641
  827MOL0     H14124   1.816  10.013   7.211  0.7917 -0.2684 -0.5084
  827MOL0     H14125   1.871  10.182   7.237  2.5152 -2.4292 -1.5001
  827MOL0     H14126   1.849  10.068   7.366  1.4607 -1.6259 -2.1102
  828MOL0     O14127   7.758   6.318   9.914  0.5667 -0.0710  0.1298
  828MOL0     C14128   7.668   6.257   9.963 -0.0164  0.5780  0.5514
  828MOL0     O14129   7.544   6.309   9.986  0.7192  0.3509 -0.6722
  828MOL0     C14130   7.459   6.244  10.071  0.2610 -0.6590 -0.8481
  828MOL0     C14131   7.461   6.277  10.206  0.9432  0.2287  0.5413
  828MOL0     C14132   7.368   6.217  10.289 -0.3611 -0.8861 -0.0099
  828MOL0     C14133   7.263   6.140  10.246 -0.2661 -0.0344  0.1213
  828MOL0     O14134   7.169   6.088  10.331 -0.4877  0.2383  0.0528
  828MOL0     C14135   7.163   6.161  10.454 -0.7080  0.9826  0.6290
  828MOL0     C14136   7.049   6.098  10.540  0.1388  0.5933 -1.0076
  828MOL0     C14137   7.068   6.127  10.691 -0.4456  0.2499 -0.6079
  828MOL0     C14138   7.086   6.281  10.724  0.9461 -0.2260 -0.6421
  828MOL0     C14139   6.985   6.379  10.671  0.4073 -0.2682 -0.7934
  828MOL0     C14140   6.851   6.377  10.738  0.1597  0.2251 -0.0888
  828MOL0     C14141   6.730   6.425  10.649  0.5959 -0.7085 -0.2401
  828MOL0     C14142   6.602   6.458  10.728  0.7345  0.6724  0.7669
  828MOL0     N14143   6.571   6.337  10.815  0.4521  0.0372  0.7552
  828MOL0     C14144   6.558   6.221  10.752 -0.3554  0.0576 -0.8657
  828MOL0     C14145   6.558   6.132  10.852  0.5974  0.2700  0.3574
  828MOL0     C14146   6.558   5.976  10.858  0.0147 -0.4574  1.0329
  828MOL0     C14147   6.583   5.911  10.720  0.0917 -0.2980  0.1333
  828MOL0     C14148   6.584   5.756  10.727 -0.5100 -0.4357 -0.2653
  828MOL0     C14149   6.460   5.698  10.785 -0.5803  0.5361 -0.8107
  828MOL0     O14150   6.500   5.680  10.921  0.4494 -0.1250  0.0723
  828MOL0     C14151   6.403   5.632  11.008  0.1120 -0.4266  0.7372
  828MOL0     C14152   6.281   5.579  10.957  0.4750 -0.1839 -0.2668
  828MOL0     C14153   6.178   5.534  11.042  1.6360  0.4142 -1.0309
  828MOL0     C14154   6.048   5.495  10.971 -0.3338 -0.1789  0.4345
  828MOL0     C14155   6.192   5.553  11.180 -0.6811  0.4358  0.5203
  828MOL0     C14156   6.082   5.542  11.277 -0.0732  1.2013  0.5944
  828MOL0     O14157   6.097   5.603  11.406  0.2347  0.7518  0.8126
  828MOL0     C14158   5.985   5.654  11.460  1.0318  0.3726 -0.8709
  828MOL0     C14159   6.000   5.701  11.589  0.2520  0.4894  0.1741
  828MOL0     C14160   5.884   5.733  11.662  0.1025 -0.2299 -0.4075
  828MOL0     C14161   5.758   5.743  11.607  0.4963  0.7629  0.4031
  828MOL0     O14162   5.649   5.783  11.678  0.0832 -0.4926  0.2743
  828MOL0     C14163   5.519   5.761  11.631  1.0259 -0.5272  0.2886
  828MOL0     C14164   5.423   5.828  11.736  0.6087  0.3997 -0.5465
  828MOL0     C14165   5.269   5.828  11.694  0.1683 -0.1159 -0.5718
  828MOL0     C14166   5.183   5.867  11.823  0.0585 -0.4464  0.0259
  828MOL0     C14167   5.241   5.986  11.915  0.4993  0.9579  0.1764
  828MOL0     C14168   5.137   6.056  12.006 -0.2164  0.2634  0.1209
  828MOL0     C14169   5.198   6.184  12.073 -0.0746  0.0054 -0.3974
  828MOL0     C14170   5.079   6.267  12.138 -0.4387 -0.9962  0.2262
  828MOL0    Cl14171   4.955   6.335  12.035 -0.1164  0.3796  0.0987
  828MOL0     C14172   5.747   5.707  11.471  0.0640  0.5100  0.3032
  828MOL0     C14173   5.859   5.675  11.395  0.8926  0.3629  0.7273
  828MOL0     O14174   5.992   5.460  11.245  0.0693  0.0333 -0.0229
  828MOL0     C14175   6.316   5.610  11.232  0.1361  0.4345 -0.1651
  828MOL0     C14176   6.422   5.644  11.139 -0.8318  0.7771 -0.6746
  828MOL0     N14177   6.573   6.207  10.968  0.4597  0.1196  0.0425
  828MOL0     N14178   6.555   6.331  10.943 -0.0592 -0.1486  0.5360
  828MOL0     C14179   7.249   6.114  10.111 -0.1253  0.6135 -0.3087
  828MOL0     C14180   7.348   6.165  10.032 -0.2546  0.1684 -0.5351
  828MOL0     C14181   7.710   6.103   9.991 -0.7091 -1.4775  0.1503
  828MOL0     C14182   7.656   6.014   9.898 -0.1413 -0.2762  0.0330
  828MOL0     C14183   7.713   5.889   9.888  0.3395 -0.0185  0.8878
  828MOL0     C14184   7.827   5.860   9.957 -0.0065 -0.6063 -0.2658
  828MOL0     O14185   7.869   5.735   9.930 -0.2997 -0.8407 -0.5593
  828MOL0     C14186   7.951   5.681  10.034 -0.1163 -0.0386  0.7740
  828MOL0     C14187   7.925   5.532  10.037  0.1675  0.3632 -0.9444
  828MOL0     C14188   7.786   5.476  10.051 -0.8274 -0.0229 -0.5940
  828MOL0     C14189   7.698   5.487   9.923  0.0422  0.2776  0.7962
  828MOL0     C14190   7.561   5.438   9.949  0.0394  0.7751  0.1598
  828MOL0     C14191   7.446   5.410   9.960 -1.0727 -0.5679  0.2007
  828MOL0     C14192   7.878   5.948  10.051  0.5863 -0.6673 -0.8360
  828MOL0     C14193   7.817   6.074  10.075 -0.5320  1.0300 -0.0691
  828MOL0     C14194   7.872   6.170  10.178  0.4359 -0.0418 -1.0981
  828MOL0     H14195   7.535   6.345  10.247  0.3903 -0.1259  2.2144
  828MOL0     H14196   7.389   6.254  10.389 -1.2998  0.7103 -0.3635
  828MOL0     H14197   7.137   6.264  10.429 -2.3360  0.7845  1.4046
  828MOL0     H14198   7.255   6.146  10.511 -1.0238  1.4512  1.2631
  828MOL0     H14199   6.950   6.123  10.500  0.7502  0.3546 -2.7727
  828MOL0     H14200   7.046   5.989  10.533 -1.7402  0.6527 -1.7899
  828MOL0     H14201   7.000   6.090  10.769  2.1498 -0.1221  1.6475
  828MOL0     H14202   7.163   6.078  10.715  0.9383  2.5829 -1.0462
  828MOL0     H14203   7.100   6.281  10.832  1.6080  0.3994 -0.7237
  828MOL0     H14204   7.179   6.306  10.674  2.2127 -2.2687  0.5712
  828MOL0     H14205   6.969   6.360  10.564 -0.3266 -1.9592 -0.4280
  828MOL0     H14206   7.029   6.478  10.679 -0.5152 -0.0043  3.6227
  828MOL0     H14207   6.833   6.274  10.771 -1.1010 -0.2633 -2.0685
  828MOL0     H14208   6.861   6.436  10.829 -0.2684 -0.7882  0.6404
  828MOL0     H14209   6.714   6.351  10.570  2.7746  0.1623 -1.5973
  828MOL0     H14210   6.767   6.513  10.596 -2.1691  0.2422 -0.7888
  828MOL0     H14211   6.623   6.547  10.789  0.2229  0.1098  1.8005
  828MOL0     H14212   6.518   6.476  10.661 -1.5300 -1.1423  2.9190
  828MOL0     H14213   6.575   6.200  10.646 -0.9184  1.8493 -1.3484
  828MOL0     H14214   6.458   5.944  10.887 -0.3740 -0.0484  0.1970
  828MOL0     H14215   6.642   5.935  10.913  1.0630 -2.1981 -1.6434
  828MOL0     H14216   6.497   5.939  10.659  2.5195 -0.1004 -3.5304
  828MOL0     H14217   6.673   5.942  10.666 -0.3558  0.2281 -0.3238
  828MOL0     H14218   6.589   5.720  10.623  0.0633 -0.0800 -0.3648
  828MOL0     H14219   6.679   5.720  10.767 -0.7413 -5.2159 -3.1894
  828MOL0     H14220   6.378   5.771  10.774 -2.5066 -1.5941 -1.2778
  828MOL0     H14221   6.438   5.605  10.733  2.3767  0.2227 -1.6483
  828MOL0     H14222   6.252   5.571  10.853  0.9118  0.3687 -0.4393
  828MOL0     H14223   6.011   5.399  11.009  0.8297 -0.8676 -0.1095
  828MOL0     H14224   6.059   5.470  10.865 -1.0743 -0.2401  0.3682
  828MOL0     H14225   5.970   5.571  10.977 -0.1688  0.0833 -0.5217
  828MOL0     H14226   6.095   5.682  11.637  1.1689 -0.7347 -1.9776
  828MOL0     H14227   5.892   5.758  11.768 -0.7167 -0.3449 -0.3093
  828MOL0     H14228   5.497   5.817  11.540 -3.1557 -2.4414 -0.1061
  828MOL0     H14229   5.503   5.654  11.616  1.5593 -0.6847  0.8036
  828MOL0     H14230   5.448   5.782  11.832  1.0104 -0.4424 -1.0466
  828MOL0     H14231   5.467   5.927  11.754 -0.3271  0.9244 -1.0643
  828MOL0     H14232   5.233   5.736  11.648 -2.4611 -0.1431  1.3324
  828MOL0     H14233   5.257   5.899  11.612 -0.3823 -1.9649 -2.1849
  828MOL0     H14234   5.175   5.782  11.890 -3.5029 -0.7963 -0.6737
  828MOL0     H14235   5.085   5.892  11.783 -1.6620 -3.2704  2.1360
  828MOL0     H14236   5.328   5.946  11.967  0.8472  0.6184 -0.6412
  828MOL0     H14237   5.286   6.062  11.849 -0.7545  0.5970 -1.1487
  828MOL0     H14238   5.105   5.988  12.085  2.2801  2.5681  3.3640
  828MOL0     H14239   5.047   6.073  11.946  0.3695 -0.6248 -1.0667
  828MOL0     H14240   5.242   6.241  11.991  0.7348 -0.9990 -0.6930
  828MOL0     H14241   5.274   6.160  12.149 -0.5007 -1.1182 -0.3097
  828MOL0     H14242   5.110   6.354  12.196 -1.7641 -1.1131  1.1691
  828MOL0     H14243   5.032   6.209  12.218  0.3590  1.2549  2.4667
  828MOL0     H14244   5.651   5.706  11.420  0.5391 -3.4025 -0.9224
  828MOL0     H14245   5.849   5.644  11.291 -1.5321 -0.5602  1.1570
  828MOL0     H14246   6.320   5.626  11.339 -0.1830 -0.7002  0.0370
  828MOL0     H14247   6.509   5.701  11.169  0.6822 -1.4993 -0.5167
  828MOL0     H14248   7.173   6.052  10.066  1.4032 -4.1809  2.9716
  828MOL0     H14249   7.354   6.139   9.927 -1.8288  1.5310 -1.0032
  828MOL0     H14250   7.572   6.039   9.834  1.9070  2.3376 -1.8593
  828MOL0     H14251   7.685   5.814   9.814  2.1868  1.0254 -0.9784
  828MOL0     H14252   8.060   5.686  10.024 -0.0130 -1.1169  1.1702
  828MOL0     H14253   7.936   5.731  10.130  2.3039  1.3973  0.4747
  828MOL0     H14254   7.985   5.489  10.118  5.1284  1.9919 -3.3036
  828MOL0     H14255   7.971   5.491   9.947 -2.6559 -0.6576 -2.0191
  828MOL0     H14256   7.788   5.370  10.077  1.6777  0.3146  0.9713
  828MOL0     H14257   7.732   5.538  10.124  1.6070 -0.8779  2.1276
  828MOL0     H14258   7.758   5.449   9.839 -1.4158  2.6175 -1.4618
  828MOL0     H14259   7.681   5.593   9.900 -0.2437 -0.1073 -0.9507
  828MOL0     H14260   7.340   5.403   9.945 -1.6602  1.3266  2.7444
  828MOL0     H14261   7.966   5.919  10.108 -0.2463  0.4637  1.1261
  828MOL0     H14262   7.943   6.243  10.140  0.3194  0.7929  0.2167
  828MOL0     H14263   7.787   6.221  10.223  0.1737 -1.7684  0.5038
  828MOL0     H14264   7.920   6.111  10.258  0.2816 -1.2304 -1.8482
  829MOL0     O14265   9.838   5.305   1.911  0.3300 -0.2069 -0.4574
  829MOL0     C14266   9.923   5.217   1.928 -0.2510  0.3640  0.0972
  829MOL0     O14267  10.061   5.214   1.911 -0.0904 -0.0599 -0.0949
  829MOL0     C14268  10.141   5.320   1.859  0.2788  0.0603 -0.6942
  829MOL0     C14269  10.270   5.287   1.864 -1.2040  0.2555  0.3202
  829MOL0     C14270  10.367   5.379   1.827  0.6881  0.2582  0.4403
  829MOL0     C14271  10.326   5.508   1.791  0.4079  0.7524  0.3540
  829MOL0     O14272  10.429   5.580   1.735  0.0127 -0.2562 -0.0519
  829MOL0     C14273  10.405   5.719   1.719  0.0795  0.5800 -0.5737
  829MOL0     C14274  10.509   5.787   1.650  0.6060  0.3889 -0.0584
  829MOL0     C14275  10.453   5.922   1.585 -0.1018 -0.1156 -0.0027
  829MOL0     C14276  10.563   6.007   1.515 -0.6029  0.3760  0.0825
  829MOL0     C14277  10.614   6.115   1.604 -0.3467 -0.8120 -0.4424
  829MOL0     C14278  10.650   6.070   1.748 -1.2018  0.6479 -0.3564
  829MOL0     C14279  10.722   6.182   1.818  0.5362 -0.2583  0.5664
  829MOL0     C14280  10.761   6.149   1.962  0.0233 -0.3351 -0.4467
  829MOL0     N14281  10.800   6.278   2.034 -0.3311 -0.6322  0.2058
  829MOL0     C14282  10.918   6.344   2.038 -1.3116 -1.2673  0.5507
  829MOL0     C14283  10.908   6.438   2.130  0.3742 -0.0297 -0.5401
  829MOL0     C14284  11.020   6.535   2.146 -0.2245  0.3259  0.3898
  829MOL0     C14285  10.989   6.684   2.183 -0.4806  1.7992 -1.0751
  829MOL0     C14286  10.952   6.766   2.063 -0.3118 -0.1037 -0.0383
  829MOL0     C14287  10.907   6.902   2.099  0.7919 -0.1806 -0.5795
  829MOL0     O14288  10.941   6.941   2.236 -0.4336 -0.6618 -0.5790
  829MOL0     C14289  10.909   7.067   2.276 -1.9385 -1.0906  1.0239
  829MOL0     C14290  10.973   7.111   2.395  0.6748  0.1256  0.1018
  829MOL0     C14291  10.957   7.239   2.454 -0.1734  0.1857  1.0309
  829MOL0     C14292  11.052   7.283   2.557  0.5078 -0.0008  0.7414
  829MOL0     C14293  10.870   7.329   2.384  0.8797  0.0953  0.0334
  829MOL0     C14294  10.850   7.477   2.418  0.1352  0.4429  0.5000
  829MOL0     O14295  10.787   7.548   2.317 -0.8270  0.2045 -0.0899
  829MOL0     C14296  10.708   7.654   2.365 -0.2145 -0.4592 -1.0198
  829MOL0     C14297  10.762   7.772   2.422  0.0589 -1.0177 -0.7343
  829MOL0     C14298  10.667   7.854   2.488 -0.9431  0.4785 -0.5820
  829MOL0     C14299  10.530   7.830   2.490  0.2090 -0.0179  0.0908
  829MOL0     O14300  10.435   7.915   2.552 -0.3382 -0.1322  0.4734
  829MOL0     C14301  10.469   8.050   2.585  0.1830 -0.1164 -0.0392
  829MOL0     C14302  10.367   8.139   2.651  1.6627  0.8347 -0.3501
  829MOL0     C14303  10.236   8.168   2.574 -0.1139 -0.0720 -1.0082
  829MOL0     C14304  10.142   8.250   2.657 -0.4894  0.2727 -0.6232
  829MOL0     C14305  10.005   8.266   2.593  0.5830 -0.2791 -0.3031
  829MOL0     C14306   9.909   8.327   2.698  0.9615  0.3947 -0.0585
  829MOL0     C14307   9.780   8.365   2.636  0.8406  1.8866 -0.1764
  829MOL0     C14308   9.697   8.251   2.573  0.3053  0.4427 -0.3461
  829MOL0    Cl14309   9.630   8.152   2.700 -0.6388 -0.2025 -0.1963
  829MOL0     C14310  10.484   7.716   2.431  0.6033  0.5827  0.2641
  829MOL0     C14311  10.574   7.624   2.374 -0.1626 -0.0110  0.4500
  829MOL0     O14312  10.898   7.529   2.524  0.4092  0.7513 -0.0242
  829MOL0     C14313  10.799   7.279   2.272 -0.1555 -1.0430 -0.7133
  829MOL0     C14314  10.821   7.154   2.218  0.2634  0.8201 -0.0030
  829MOL0     N14315  10.784   6.434   2.180  1.2989 -0.7060 -0.8017
  829MOL0     N14316  10.719   6.339   2.123  0.6080 -0.6678  0.2890
  829MOL0     C14317  10.187   5.545   1.803 -0.8651  0.6421 -0.3489
  829MOL0     C14318  10.097   5.451   1.842  0.1373 -0.1266  0.4897
  829MOL0     C14319   9.887   5.089   2.000 -0.3773 -1.8377  1.4085
  829MOL0     C14320   9.753   5.095   2.056  0.2830 -0.0820 -0.3111
  829MOL0     C14321   9.693   4.979   2.110 -0.1932 -0.7720 -0.1007
  829MOL0     C14322   9.763   4.861   2.104 -0.3575 -0.1548  0.8234
  829MOL0     O14323   9.733   4.736   2.140  0.4979  0.4102 -0.5759
  829MOL0     C14324   9.598   4.725   2.195 -0.3101 -0.2506  0.6552
  829MOL0     C14325   9.531   4.587   2.170  0.0445 -0.1894 -0.2989
  829MOL0     C14326   9.623   4.477   2.196  0.1391 -0.4826  0.2209
  829MOL0     C14327   9.551   4.357   2.199  0.8752  0.9924 -0.6034
  829MOL0     C14328   9.644   4.243   2.219 -0.8132 -0.4407  0.0383
  829MOL0     C14329   9.719   4.163   2.270  0.3372  1.2049  1.2097
  829MOL0     C14330   9.891   4.855   2.050 -0.4976  0.5794 -0.2194
  829MOL0     C14331   9.954   4.966   1.986  0.9068  0.9669 -0.5882
  829MOL0     C14332  10.094   4.946   1.933  0.4318 -0.4575 -0.1610
  829MOL0     H14333  10.297   5.184   1.882 -0.3552  0.1723 -1.3459
  829MOL0     H14334  10.471   5.350   1.820  0.5576 -0.2232  0.4809
  829MOL0     H14335  10.392   5.764   1.818  0.3631  2.1570 -1.2345
  829MOL0     H14336  10.313   5.720   1.661  0.6968 -3.9555 -2.0865
  829MOL0     H14337  10.585   5.806   1.726  0.5115 -2.4901  0.8650
  829MOL0     H14338  10.549   5.716   1.578 -0.8116  1.0954 -1.6150
  829MOL0     H14339  10.380   5.894   1.508  0.0590  0.1514 -0.2556
  829MOL0     H14340  10.393   5.990   1.646 -1.1396  0.1725 -1.3012
  829MOL0     H14341  10.652   5.948   1.491  1.0677  2.2309  1.3700
  829MOL0     H14342  10.527   6.039   1.417  1.4113 -0.2328 -0.9098
  829MOL0     H14343  10.525   6.176   1.625 -1.9702 -3.8841  2.8604
  829MOL0     H14344  10.702   6.167   1.567  1.9889 -0.4921  4.6411
  829MOL0     H14345  10.555   6.041   1.795 -0.1281 -0.1502  1.4087
  829MOL0     H14346  10.704   5.975   1.745 -1.9669  0.0340  2.3962
  829MOL0     H14347  10.662   6.274   1.809  1.6666  0.4493  0.0542
  829MOL0     H14348  10.811   6.209   1.761 -1.8626  2.5855 -2.2337
  829MOL0     H14349  10.675   6.097   2.003  0.3485 -1.3297 -0.9880
  829MOL0     H14350  10.848   6.083   1.961 -0.6459 -1.2271 -1.6919
  829MOL0     H14351  11.003   6.345   1.971 -1.0867 -1.6157  0.8309
  829MOL0     H14352  11.066   6.538   2.047 -1.4600 -1.4787 -0.2773
  829MOL0     H14353  11.090   6.496   2.221 -1.4247  0.5949  1.6950
  829MOL0     H14354  10.915   6.682   2.264  0.6587  0.2826 -0.0145
  829MOL0     H14355  11.076   6.731   2.232  0.3603  1.2302 -1.9917
  829MOL0     H14356  11.032   6.782   1.990 -0.7595  0.4735 -0.4138
  829MOL0     H14357  10.866   6.714   2.019 -1.9638  2.1970  0.3178
  829MOL0     H14358  10.933   6.982   2.029  1.0829 -0.7941 -1.1970
  829MOL0     H14359  10.799   6.888   2.094  0.3243  2.0489  1.7166
  829MOL0     H14360  11.040   7.040   2.442  1.7385  1.7945  1.1980
  829MOL0     H14361  11.011   7.354   2.629  2.5190  1.0808  0.8861
  829MOL0     H14362  11.136   7.333   2.507 -0.4624 -0.8595 -1.9673
  829MOL0     H14363  11.095   7.198   2.610  5.1396  3.0912  2.5651
  829MOL0     H14364  10.865   7.803   2.409 -0.0069  1.6001  3.3919
  829MOL0     H14365  10.715   7.946   2.520  0.9924 -1.1143  1.5093
  829MOL0     H14366  10.534   8.030   2.671 -1.5490 -1.4017  1.0168
  829MOL0     H14367  10.529   8.096   2.505  1.0699 -0.5612  0.3523
  829MOL0     H14368  10.337   8.106   2.751 -2.4007  0.4381 -1.5558
  829MOL0     H14369  10.409   8.238   2.673 -0.9012  1.1387  4.6791
  829MOL0     H14370  10.195   8.075   2.533 -0.3464 -0.2001 -0.4960
  829MOL0     H14371  10.267   8.221   2.483  4.0937 -2.4385 -1.2418
  829MOL0     H14372  10.192   8.345   2.675  0.5942  0.1269 -2.6160
  829MOL0     H14373  10.134   8.202   2.755  0.9461  3.1231  1.0237
  829MOL0     H14374   9.992   8.331   2.507 -0.8647 -1.0042 -0.6649
  829MOL0     H14375   9.971   8.167   2.561 -1.3799  0.8036 -1.8193
  829MOL0     H14376   9.956   8.421   2.730 -0.9193  1.2005  0.5216
  829MOL0     H14377   9.898   8.265   2.787  0.0656  2.2321  1.1958
  829MOL0     H14378   9.795   8.439   2.558  2.3167  0.9897 -0.7806
  829MOL0     H14379   9.713   8.405   2.713  1.1311  0.4240  0.9016
  829MOL0     H14380   9.761   8.182   2.516  1.3103  1.6226 -0.6856
  829MOL0     H14381   9.616   8.287   2.510  0.0915 -0.1782 -0.4318
  829MOL0     H14382  10.379   7.691   2.436  1.1408 -2.2523 -0.7275
  829MOL0     H14383  10.528   7.543   2.319 -0.4658  1.7469 -2.0871
  829MOL0     H14384  10.746   7.352   2.212  1.3437  3.9582  3.2997
  829MOL0     H14385  10.787   7.140   2.116  1.0293 -0.6800 -0.0812
  829MOL0     H14386  10.159   5.646   1.777  4.1238  3.1106  2.4975
  829MOL0     H14387   9.997   5.491   1.860  0.3483 -0.6979  3.5118
  829MOL0     H14388   9.693   5.186   2.053  1.1808  0.8145  3.6052
  829MOL0     H14389   9.602   5.001   2.165 -0.1323  2.1015 -0.9976
  829MOL0     H14390   9.612   4.745   2.301 -0.8207 -0.5478  0.7820
  829MOL0     H14391   9.528   4.796   2.150  2.8946  1.1249 -2.7364
  829MOL0     H14392   9.495   4.585   2.067 -0.8817 -0.3350  0.0167
  829MOL0     H14393   9.434   4.581   2.221 -0.1375 -0.2778 -0.6545
  829MOL0     H14394   9.716   4.464   2.140  2.3407  1.5601  3.1179
  829MOL0     H14395   9.652   4.499   2.299  1.8460  2.3214 -0.7439
  829MOL0     H14396   9.495   4.351   2.105  1.4649  0.8871 -0.9539
  829MOL0     H14397   9.478   4.359   2.280  2.0626  1.3373  0.4972
  829MOL0     H14398   9.785   4.088   2.310 -1.4636 -0.2753  1.5690
  829MOL0     H14399   9.922   4.752   2.032  0.1806  0.7218  0.1199
  829MOL0     H14400  10.163   5.002   1.997  3.0187 -3.0973 -0.4270
  829MOL0     H14401  10.127   4.842   1.931  0.4949 -0.4676  0.8082
  829MOL0     H14402  10.099   4.975   1.828 -2.5436 -4.3794 -1.6584
  830MOL0     O14403   4.275   1.054   6.683 -0.1430 -0.4524  0.2257
  830MOL0     C14404   4.310   1.120   6.782 -0.6469  0.8941  0.7613
  830MOL0     O14405   4.262   1.238   6.830 -0.8616  0.7128  0.0344
  830MOL0     C14406   4.150   1.300   6.788 -0.2398  0.3582 -0.2162
  830MOL0     C14407   4.105   1.302   6.659 -0.4864 -0.7130  0.4427
  830MOL0     C14408   3.993   1.371   6.620 -0.0017 -0.2563 -0.2190
  830MOL0     C14409   3.925   1.443   6.719  0.1157  0.1297  0.0136
  830MOL0     O14410   3.810   1.512   6.701  0.8116  0.2972 -0.1441
  830MOL0     C14411   3.708   1.451   6.620  0.9739 -0.1879  0.8741
  830MOL0     C14412   3.710   1.514   6.475 -0.2590 -0.2987 -0.6852
  830MOL0     C14413   3.701   1.666   6.470  0.0298  0.6750  0.0293
  830MOL0     C14414   3.676   1.704   6.328  0.0367 -0.5323  0.1668
  830MOL0     C14415   3.639   1.854   6.318 -0.0591 -0.4188  1.1583
  830MOL0     C14416   3.589   1.897   6.181  1.1676 -0.4906  0.7463
  830MOL0     C14417   3.543   2.039   6.173 -0.0608 -0.4721  1.0030
  830MOL0     C14418   3.433   2.068   6.260 -0.0921 -0.0334  0.0023
  830MOL0     N14419   3.317   1.993   6.232  0.4729 -0.6632 -0.5878
  830MOL0     C14420   3.233   1.955   6.329 -0.0701 -1.7468 -0.4137
  830MOL0     C14421   3.133   1.892   6.277 -0.6888 -0.5832 -0.3708
  830MOL0     C14422   3.013   1.847   6.357  0.4252 -0.1799  0.7667
  830MOL0     C14423   2.880   1.865   6.283  0.0682  0.4800 -0.4953
  830MOL0     C14424   2.785   1.752   6.329 -0.4837 -0.3512 -0.0486
  830MOL0     C14425   2.636   1.793   6.294 -0.1552  1.1621  1.0547
  830MOL0     O14426   2.617   1.848   6.158  0.1191 -0.4684  0.1111
  830MOL0     C14427   2.533   1.955   6.137 -1.7825  0.6494  0.3486
  830MOL0     C14428   2.530   2.018   6.011 -0.1246 -0.9105 -0.2426
  830MOL0     C14429   2.451   2.137   5.989  0.7135 -0.4378  0.8141
  830MOL0     C14430   2.466   2.222   5.858 -0.5961  0.9150  0.1153
  830MOL0     C14431   2.357   2.178   6.082  0.1017 -0.4064  0.2611
  830MOL0     C14432   2.256   2.283   6.061 -0.1091  0.2642 -0.8526
  830MOL0     O14433   2.189   2.333   6.177 -0.2676  0.6352  0.9734
  830MOL0     C14434   2.095   2.427   6.149 -0.7789  0.2480 -0.1593
  830MOL0     C14435   1.961   2.387   6.167 -0.5838  0.1066 -0.0794
  830MOL0     C14436   1.865   2.482   6.132 -0.7128  0.7383 -0.3382
  830MOL0     C14437   1.897   2.607   6.116 -0.2276 -0.8991  0.2237
  830MOL0     O14438   1.793   2.688   6.085 -0.3761  0.1464  1.0391
  830MOL0     C14439   1.793   2.827   6.125  0.1511 -0.1857 -0.6121
  830MOL0     C14440   1.652   2.864   6.183 -0.0925 -0.8816 -0.0003
  830MOL0     C14441   1.605   2.766   6.298 -0.1139 -0.1623 -0.3167
  830MOL0     C14442   1.478   2.818   6.353  0.1194 -0.5533 -1.0722
  830MOL0     C14443   1.456   2.766   6.497  0.4680 -0.3537 -0.5216
  830MOL0     C14444   1.359   2.847   6.582 -0.2014  0.5459 -0.0716
  830MOL0     C14445   1.218   2.844   6.506 -0.3629 -0.3684 -0.7615
  830MOL0     C14446   1.083   2.826   6.594 -0.5349 -0.2030 -0.3680
  830MOL0    Cl14447   1.051   2.962   6.699 -0.4094 -0.1945 -0.2267
  830MOL0     C14448   2.037   2.647   6.109  0.1633  0.1482  0.2924
  830MOL0     C14449   2.134   2.549   6.109 -0.0276  0.5377 -0.0180
  830MOL0     O14450   2.205   2.301   5.943 -0.3875  0.5666  0.2944
  830MOL0     C14451   2.351   2.109   6.200 -0.6349 -0.3723 -0.1568
  830MOL0     C14452   2.432   2.001   6.222  0.0439  0.1760  0.4003
  830MOL0     N14453   3.141   1.909   6.143  1.2929 -0.5607 -0.4350
  830MOL0     N14454   3.256   1.965   6.118 -0.1259 -0.6962 -0.8168
  830MOL0     C14455   3.971   1.454   6.851 -0.5426  0.0522 -0.0929
  830MOL0     C14456   4.084   1.381   6.884 -0.1287  0.6191  0.3844
  830MOL0     C14457   4.434   1.059   6.856 -0.3932  0.4085 -0.0149
  830MOL0     C14458   4.475   0.924   6.841  0.1210  0.3601 -0.5151
  830MOL0     C14459   4.597   0.869   6.894  0.3909  0.1866  0.3498
  830MOL0     C14460   4.686   0.949   6.968  0.5611 -0.0188  0.1525
  830MOL0     O14461   4.811   0.905   6.998 -0.8732  0.1025  0.3590
  830MOL0     C14462   4.874   0.971   7.110 -0.0410 -0.2349 -0.1527
  830MOL0     C14463   4.980   0.881   7.171  0.3568 -0.6044  0.2380
  830MOL0     C14464   5.060   0.958   7.281 -0.4758 -0.5539  0.1092
  830MOL0     C14465   4.961   1.034   7.384 -0.1927 -0.4236 -0.8051
  830MOL0     C14466   5.038   1.081   7.503 -0.5774 -0.0318 -0.5978
  830MOL0     C14467   5.105   1.132   7.587 -0.0511 -0.2746 -0.3077
  830MOL0     C14468   4.649   1.081   6.982 -0.3168 -0.4637  0.3896
  830MOL0     C14469   4.527   1.133   6.941  0.5199  0.0350  0.2441
  830MOL0     C14470   4.511   1.285   6.971  0.1080 -0.7027  0.0677
  830MOL0     H14471   4.176   1.264   6.587  0.6178  0.4011  0.9055
  830MOL0     H14472   3.956   1.361   6.518 -2.8242  1.4442  0.5096
  830MOL0     H14473   3.611   1.466   6.668  2.0284 -0.7736  3.3327
  830MOL0     H14474   3.715   1.342   6.617 -1.6317 -0.5084  2.8345
  830MOL0     H14475   3.802   1.475   6.432  0.7006 -0.8745  1.7376
  830MOL0     H14476   3.625   1.468   6.422 -1.5102 -0.7601  1.5943
  830MOL0     H14477   3.612   1.687   6.530 -2.0180 -2.6453 -1.5642
  830MOL0     H14478   3.795   1.703   6.511  1.6761 -0.6763 -2.2962
  830MOL0     H14479   3.759   1.678   6.262  1.9358  1.9691  1.4063
  830MOL0     H14480   3.584   1.652   6.298 -0.1497 -0.8529  1.2585
  830MOL0     H14481   3.721   1.924   6.331 -0.1745  0.2841 -1.3660
  830MOL0     H14482   3.562   1.866   6.395 -1.1300 -1.4831  0.2883
  830MOL0     H14483   3.654   1.884   6.095 -1.5273 -2.2307 -1.2071
  830MOL0     H14484   3.499   1.840   6.155  1.6645 -0.6372 -0.7502
  830MOL0     H14485   3.512   2.054   6.069  0.5411 -3.3203  0.3465
  830MOL0     H14486   3.617   2.115   6.201 -1.7807  0.9072  2.0603
  830MOL0     H14487   3.459   2.069   6.366 -0.6326  0.1876  0.1342
  830MOL0     H14488   3.401   2.171   6.243  1.1819  0.7954  2.2041
  830MOL0     H14489   3.258   1.966   6.434  3.3241  0.6924 -1.3017
  830MOL0     H14490   2.995   1.900   6.451 -5.3728  1.4124 -0.7846
  830MOL0     H14491   3.020   1.740   6.381 -0.0633  0.2463  3.1215
  830MOL0     H14492   2.847   1.963   6.320 -0.4673  0.1799 -0.1684
  830MOL0     H14493   2.888   1.875   6.175  1.4744 -0.6351 -0.5160
  830MOL0     H14494   2.809   1.657   6.281  0.4792 -0.6890  1.0645
  830MOL0     H14495   2.793   1.737   6.437  0.4458  1.2083  0.1335
  830MOL0     H14496   2.566   1.709   6.304  1.8342 -1.4445 -3.4480
  830MOL0     H14497   2.608   1.866   6.369 -1.6638  0.4421  1.2248
  830MOL0     H14498   2.609   1.978   5.948 -1.2527 -1.2321 -1.4874
  830MOL0     H14499   2.568   2.212   5.820 -0.1436 -1.6702  1.6629
  830MOL0     H14500   2.448   2.325   5.889 -0.8395  0.7169  0.6629
  830MOL0     H14501   2.401   2.191   5.776  0.0553  2.8702 -1.2070
  830MOL0     H14502   1.940   2.285   6.197 -6.5283  1.4099  1.3275
  830MOL0     H14503   1.764   2.444   6.127 -0.1590 -0.9767  0.6163
  830MOL0     H14504   1.867   2.841   6.204 -0.3514  2.2788 -0.5030
  830MOL0     H14505   1.831   2.877   6.035  0.3644 -1.6608 -1.3749
  830MOL0     H14506   1.656   2.962   6.233 -0.4423 -2.4915  3.4373
  830MOL0     H14507   1.572   2.874   6.110  0.5144 -1.3110 -0.7314
  830MOL0     H14508   1.692   2.759   6.363  1.3827  1.1336 -2.1099
  830MOL0     H14509   1.587   2.667   6.254  1.6798 -1.7091  2.1609
  830MOL0     H14510   1.389   2.799   6.294  0.2596  3.0723 -2.6935
  830MOL0     H14511   1.488   2.927   6.363 -0.5197 -0.7057  4.1473
  830MOL0     H14512   1.412   2.666   6.498  1.4772 -0.8113 -0.8854
  830MOL0     H14513   1.543   2.768   6.563  1.7327 -0.2983 -2.1183
  830MOL0     H14514   1.406   2.946   6.580 -0.3386  0.6778  1.5936
  830MOL0     H14515   1.354   2.803   6.682 -1.3010 -0.8028 -0.6897
  830MOL0     H14516   1.205   2.752   6.448  1.5021  0.6314 -2.9345
  830MOL0     H14517   1.218   2.925   6.433  1.2442 -0.4838 -0.9450
  830MOL0     H14518   1.087   2.737   6.657  0.6836  0.8539  1.1306
  830MOL0     H14519   1.004   2.829   6.518 -0.8732 -1.7419 -0.0960
  830MOL0     H14520   2.079   2.744   6.084  3.5080 -1.1902  0.0667
  830MOL0     H14521   2.242   2.562   6.103  0.2556 -1.1957  0.7039
  830MOL0     H14522   2.281   2.131   6.280 -0.0387 -1.0994  0.5833
  830MOL0     H14523   2.426   1.936   6.309 -0.9506 -1.0629 -0.5425
  830MOL0     H14524   3.915   1.512   6.924 -0.1808  0.0314  0.2086
  830MOL0     H14525   4.123   1.381   6.985  1.3921  4.0986 -0.0676
  830MOL0     H14526   4.406   0.857   6.791  0.2565 -1.3620  1.4784
  830MOL0     H14527   4.636   0.770   6.874  1.5451  1.1896 -3.0525
  830MOL0     H14528   4.925   1.063   7.080 -0.2471 -0.3330 -0.7979
  830MOL0     H14529   4.794   0.961   7.184  0.8596 -3.3554  0.5644
  830MOL0     H14530   5.046   0.853   7.088  0.4487 -0.2284  0.1805
  830MOL0     H14531   4.936   0.792   7.218  2.3074 -0.7581  1.9134
  830MOL0     H14532   5.135   0.893   7.327  2.0900  0.5478 -2.1946
  830MOL0     H14533   5.120   1.040   7.238 -0.7276  0.2135  1.1893
  830MOL0     H14534   4.895   0.953   7.417  1.2617 -1.5616 -0.5629
  830MOL0     H14535   4.912   1.120   7.336  1.6382  2.2813  1.8652
  830MOL0     H14536   5.162   1.182   7.663 -2.0137  1.4848  0.1153
  830MOL0     H14537   4.720   1.155   7.020  1.3709 -1.5727 -0.4910
  830MOL0     H14538   4.419   1.286   7.029 -0.4163 -4.3550 -0.4442
  830MOL0     H14539   4.586   1.340   7.029 -0.7964  0.5651  0.0728
  830MOL0     H14540   4.517   1.342   6.878 -0.0656 -2.4796 -1.0707
  831MOL0     O14541   6.644   4.089   1.031 -0.0530  0.1953  0.2866
  831MOL0     C14542   6.554   4.060   1.107  0.5801 -0.6718  0.2924
  831MOL0     O14543   6.570   4.048   1.235  0.6043  0.1533 -1.2487
  831MOL0     C14544   6.687   4.079   1.286 -0.9473  0.8484 -0.0491
  831MOL0     C14545   6.723   4.217   1.292 -0.0119  0.4540 -0.3515
  831MOL0     C14546   6.848   4.249   1.341 -0.6353 -0.5221  0.4925
  831MOL0     C14547   6.936   4.151   1.403 -0.3436 -0.2036 -0.6945
  831MOL0     O14548   7.048   4.175   1.488  0.9734  0.5536 -0.3138
  831MOL0     C14549   7.099   4.302   1.483 -0.3987 -0.2479  0.5839
  831MOL0     C14550   7.228   4.299   1.554 -0.0700  0.1499 -0.9058
  831MOL0     C14551   7.333   4.301   1.448 -0.2622 -0.1852 -0.2274
  831MOL0     C14552   7.478   4.299   1.519  0.6106 -0.2663  0.7296
  831MOL0     C14553   7.581   4.332   1.407 -0.5414  0.1059  0.5830
  831MOL0     C14554   7.733   4.327   1.449 -0.0879 -0.0570 -0.1229
  831MOL0     C14555   7.766   4.436   1.558 -0.3459 -0.6448  0.5511
  831MOL0     C14556   7.908   4.415   1.606 -0.1881  0.2459 -0.4464
  831MOL0     N14557   7.940   4.502   1.724  0.4164 -0.0895  0.0086
  831MOL0     C14558   7.940   4.639   1.728  0.8160  0.6837 -0.1245
  831MOL0     C14559   7.989   4.669   1.849 -1.0911 -0.6035  0.8587
  831MOL0     C14560   7.989   4.803   1.915  0.3232 -0.1658 -0.2600
  831MOL0     C14561   7.921   4.800   2.057  0.2970 -0.3022 -0.5057
  831MOL0     C14562   7.930   4.938   2.133  0.6099 -0.6834 -0.1873
  831MOL0     C14563   7.853   5.065   2.096  0.6633 -0.4930  0.4082
  831MOL0     O14564   7.712   5.041   2.114 -0.7162 -0.4024  0.1884
  831MOL0     C14565   7.625   5.105   2.031 -0.8865  0.8322 -0.3070
  831MOL0     C14566   7.496   5.052   2.017  0.1838 -0.7261 -0.2244
  831MOL0     C14567   7.393   5.112   1.946 -0.0831  0.7170 -0.7011
  831MOL0     C14568   7.267   5.029   1.927  0.4912  0.7631 -0.2420
  831MOL0     C14569   7.424   5.227   1.878 -0.4623 -0.0007  0.0505
  831MOL0     C14570   7.329   5.308   1.798 -0.3893  0.3378  0.4399
  831MOL0     O14571   7.346   5.449   1.788  0.1780 -0.5786 -0.1295
  831MOL0     C14572   7.253   5.521   1.726  0.4460 -1.1084  1.3875
  831MOL0     C14573   7.228   5.515   1.584 -1.2808 -0.6564  0.0870
  831MOL0     C14574   7.125   5.586   1.520 -0.4404 -0.0800  0.1653
  831MOL0     C14575   7.047   5.667   1.596  0.7584  0.3640  0.1720
  831MOL0     O14576   6.953   5.749   1.541  0.2646 -0.0969 -0.0007
  831MOL0     C14577   6.986   5.819   1.419 -0.4453  0.2345 -0.5587
  831MOL0     C14578   6.886   5.941   1.403 -0.4003 -0.4827  0.7573
  831MOL0     C14579   6.934   6.033   1.288  0.7961  1.4732  0.3600
  831MOL0     C14580   6.917   5.974   1.145 -0.0912 -0.2911  0.8521
  831MOL0     C14581   6.965   6.070   1.029  0.3399 -0.4750  0.5376
  831MOL0     C14582   6.922   6.222   1.046  0.4194  0.0311 -0.8045
  831MOL0     C14583   7.008   6.314   0.969 -0.0936  0.3390 -0.1421
  831MOL0     C14584   7.151   6.336   1.015 -0.0223 -0.3051  0.6417
  831MOL0    Cl14585   7.211   6.466   0.916  0.7020 -0.1391 -0.1414
  831MOL0     C14586   7.054   5.672   1.737 -0.4921  1.0699 -0.6031
  831MOL0     C14587   7.167   5.606   1.792  0.2039 -0.6562 -0.7891
  831MOL0     O14588   7.256   5.248   1.728  0.5053 -0.5119  0.2281
  831MOL0     C14589   7.550   5.280   1.885  0.7705 -0.7412  1.3525
  831MOL0     C14590   7.652   5.225   1.961  0.1319  0.3907 -0.7307
  831MOL0     N14591   8.021   4.551   1.915 -0.2362  0.3209  0.0583
  831MOL0     N14592   7.992   4.447   1.843 -0.1666 -0.6428  0.6984
  831MOL0     C14593   6.885   4.016   1.395 -0.3820 -0.0240 -0.5163
  831MOL0     C14594   6.769   3.980   1.334  0.6167  0.1752  1.1812
  831MOL0     C14595   6.417   4.032   1.047 -0.1435 -0.1904 -0.5893
  831MOL0     C14596   6.400   4.082   0.920 -0.8689  0.1492  1.0532
  831MOL0     C14597   6.278   4.047   0.844 -0.4329  0.6450 -0.5655
  831MOL0     C14598   6.178   3.980   0.900  1.0085 -1.5915 -0.7493
  831MOL0     O14599   6.056   3.969   0.835  0.3541 -0.6494  0.0073
  831MOL0     C14600   6.038   4.003   0.700  0.4569  0.3463 -0.3586
  831MOL0     C14601   5.928   3.923   0.619  0.5644  0.5518  0.0672
  831MOL0     C14602   5.781   3.966   0.641 -0.0294  0.1993 -0.1429
  831MOL0     C14603   5.743   4.084   0.551  0.6208  0.3662  0.9849
  831MOL0     C14604   5.615   4.128   0.602  0.6968 -0.8148 -0.5213
  831MOL0     C14605   5.514   4.183   0.656 -0.6568  0.7489 -0.4255
  831MOL0     C14606   6.187   3.942   1.037  0.5321  0.1044  0.1976
  831MOL0     C14607   6.305   3.964   1.108 -0.0226 -1.9210 -0.0647
  831MOL0     C14608   6.303   3.920   1.254  0.2254 -0.0378 -0.2193
  831MOL0     H14609   6.651   4.281   1.243  2.2530  2.2581 -1.4835
  831MOL0     H14610   6.877   4.353   1.333  1.9962 -1.2472 -0.4128
  831MOL0     H14611   7.038   4.384   1.523  0.0567  1.0746 -1.2596
  831MOL0     H14612   7.117   4.332   1.379  2.1140  0.3205  1.1176
  831MOL0     H14613   7.222   4.392   1.610 -1.1703  1.0407 -2.4073
  831MOL0     H14614   7.235   4.219   1.628  2.7700  1.6758  0.6063
  831MOL0     H14615   7.329   4.216   1.378 -2.3494  0.4652 -0.9966
  831MOL0     H14616   7.334   4.392   1.388  2.1250  1.0692  1.5763
  831MOL0     H14617   7.483   4.369   1.602  2.9110  1.2560 -0.5837
  831MOL0     H14618   7.506   4.199   1.554  2.0651 -0.3122 -0.4713
  831MOL0     H14619   7.569   4.435   1.372  1.4878 -0.1266 -0.9692
  831MOL0     H14620   7.560   4.273   1.317 -1.3382 -0.3777  1.0702
  831MOL0     H14621   7.756   4.228   1.488 -3.2929 -1.0184 -0.3712
  831MOL0     H14622   7.789   4.359   1.361  0.1907 -0.6412 -0.1612
  831MOL0     H14623   7.703   4.430   1.648 -0.1682 -0.2156  0.7077
  831MOL0     H14624   7.756   4.540   1.524 -1.5421 -1.5393 -2.0954
  831MOL0     H14625   7.916   4.310   1.636 -3.9409  0.1703  0.7179
  831MOL0     H14626   7.972   4.438   1.520 -0.7138 -0.5260 -1.0482
  831MOL0     H14627   7.903   4.705   1.649  3.1666  2.1267 -0.1353
  831MOL0     H14628   7.937   4.877   1.853  0.7493 -1.7026 -2.5957
  831MOL0     H14629   8.093   4.836   1.919  0.9625 -1.9451 -1.2637
  831MOL0     H14630   7.817   4.768   2.053  0.2979 -0.9302  2.2410
  831MOL0     H14631   7.984   4.733   2.116 -0.5334 -0.3483  0.3554
  831MOL0     H14632   7.899   4.910   2.234  2.1395  0.5511  0.6750
  831MOL0     H14633   8.031   4.969   2.162 -0.1412  3.1268 -1.1855
  831MOL0     H14634   7.878   5.148   2.162 -0.8887 -0.5204  1.0906
  831MOL0     H14635   7.877   5.100   1.995 -3.0576  0.5748 -0.2565
  831MOL0     H14636   7.486   4.958   2.070  2.2460 -0.4871  0.6793
  831MOL0     H14637   7.272   4.957   1.844 -0.1306 -1.2874  1.4266
  831MOL0     H14638   7.177   5.091   1.920 -1.8877 -2.2945  0.9491
  831MOL0     H14639   7.246   4.970   2.016 -4.3946  0.5933 -1.1960
  831MOL0     H14640   7.285   5.446   1.523 -0.8070 -2.4620  2.4109
  831MOL0     H14641   7.107   5.580   1.413 -0.8851 -2.4296  0.3147
  831MOL0     H14642   7.084   5.866   1.431 -0.6276  0.6297 -0.5887
  831MOL0     H14643   6.987   5.757   1.330  1.6450  2.4691 -2.2221
  831MOL0     H14644   6.794   5.883   1.387  0.2077 -1.2944  0.0458
  831MOL0     H14645   6.868   6.003   1.490 -1.9819 -2.8369  2.2377
  831MOL0     H14646   7.040   6.060   1.294  1.8976 -1.9120 -1.3479
  831MOL0     H14647   6.880   6.127   1.302 -2.0276  0.0483 -0.1200
  831MOL0     H14648   6.811   5.956   1.126 -0.3929 -0.3028  2.4067
  831MOL0     H14649   6.962   5.876   1.125  1.3449  0.4649  0.2614
  831MOL0     H14650   7.073   6.055   1.025  0.3780  0.0442 -1.1798
  831MOL0     H14651   6.923   6.037   0.934  0.9817  1.2086 -0.3729
  831MOL0     H14652   6.913   6.255   1.150 -1.3506  0.9313 -1.2134
  831MOL0     H14653   6.817   6.229   1.016 -0.0930 -2.1551  0.2642
  831MOL0     H14654   6.965   6.415   0.975 -0.3809  0.1481  2.8846
  831MOL0     H14655   7.001   6.291   0.863 -3.3172  3.9744 -0.9539
  831MOL0     H14656   7.212   6.245   1.020 -0.2373 -0.3980  1.7764
  831MOL0     H14657   7.132   6.371   1.117  0.9834 -3.0981  1.8973
  831MOL0     H14658   6.991   5.739   1.795 -2.0975 -0.2349 -0.7908
  831MOL0     H14659   7.202   5.610   1.895  1.0038 -1.1865 -1.0336
  831MOL0     H14660   7.570   5.372   1.831 -2.7180  0.6197  2.0832
  831MOL0     H14661   7.748   5.275   1.949  0.7971 -1.2187 -2.8432
  831MOL0     H14662   6.948   3.943   1.444  0.3112 -1.1975 -3.0136
  831MOL0     H14663   6.734   3.877   1.332  1.4477 -0.1127 -0.4704
  831MOL0     H14664   6.474   4.133   0.860 -2.8384  0.2553 -1.4315
  831MOL0     H14665   6.274   4.074   0.739  4.0580 -0.2847 -1.1823
  831MOL0     H14666   5.997   4.104   0.693 -3.9513 -1.3129 -1.0860
  831MOL0     H14667   6.132   3.987   0.645  1.5242 -1.5885  1.8154
  831MOL0     H14668   5.934   3.830   0.676  2.4626  1.1187  0.8806
  831MOL0     H14669   5.958   3.889   0.519 -0.4746 -0.0515 -0.0522
  831MOL0     H14670   5.713   3.886   0.611  0.6656 -0.7157  0.7019
  831MOL0     H14671   5.768   3.981   0.749  1.0317 -1.1599  0.1935
  831MOL0     H14672   5.752   4.052   0.447  1.4200  2.0250  0.5010
  831MOL0     H14673   5.802   4.174   0.569 -1.7330  2.3642 -0.5965
  831MOL0     H14674   5.432   4.231   0.704  1.4541  0.0225  4.5453
  831MOL0     H14675   6.108   3.884   1.085  1.3207 -1.4771 -0.3614
  831MOL0     H14676   6.351   3.822   1.240 -0.7338 -0.6453  0.6309
  831MOL0     H14677   6.357   3.995   1.312 -0.4160 -0.4085  0.8787
  831MOL0     H14678   6.203   3.903   1.294 -0.9757 -0.3321 -3.0581
  832MOL0     O14679   7.234   8.069   2.548 -0.7831  0.0570 -0.0241
  832MOL0     C14680   7.136   8.081   2.611 -0.1280 -0.0020 -0.0408
  832MOL0     O14681   7.128   8.052   2.747 -0.2901  0.2372 -0.1903
  832MOL0     C14682   7.238   8.000   2.812  0.4482 -0.5605  0.3287
  832MOL0     C14683   7.367   8.063   2.813  0.0574  0.9377  0.1197
  832MOL0     C14684   7.471   8.009   2.885 -0.0409 -1.0356 -0.4391
  832MOL0     C14685   7.450   7.903   2.978  0.4698  0.1416 -0.0142
  832MOL0     O14686   7.551   7.855   3.056  0.5566  0.0408 -0.3273
  832MOL0     C14687   7.600   7.726   3.038  0.1448  0.3984 -0.5183
  832MOL0     C14688   7.721   7.729   2.959 -0.5812 -0.4982  0.3344
  832MOL0     C14689   7.817   7.850   2.969 -0.5375  0.3583 -0.1915
  832MOL0     C14690   7.912   7.839   3.088 -0.2069 -0.0858 -0.9516
  832MOL0     C14691   8.049   7.908   3.095 -0.2388  0.4604  0.8774
  832MOL0     C14692   8.043   8.060   3.125  0.0441 -0.2009  0.0066
  832MOL0     C14693   8.025   8.106   3.270  0.5412  0.2569  0.2891
  832MOL0     C14694   8.041   8.253   3.290  0.9004 -0.7706 -0.0637
  832MOL0     N14695   7.940   8.337   3.212 -1.0881 -0.5814 -0.2461
  832MOL0     C14696   7.806   8.312   3.215  0.1642  0.0441 -0.0273
  832MOL0     C14697   7.764   8.358   3.086  0.5244 -0.7800 -0.1061
  832MOL0     C14698   7.624   8.326   3.032 -0.4948 -0.5516  0.2865
  832MOL0     C14699   7.541   8.456   3.039 -0.1131  0.0392 -0.1124
  832MOL0     C14700   7.487   8.480   3.181 -0.0847 -0.5774  0.8784
  832MOL0     C14701   7.383   8.586   3.182 -0.5189  0.1539 -0.0019
  832MOL0     O14702   7.273   8.554   3.093  0.0991  0.5491  0.3674
  832MOL0     C14703   7.174   8.640   3.087  0.6995 -0.5470 -0.5106
  832MOL0     C14704   7.112   8.653   2.965 -0.1078 -0.4880  0.3207
  832MOL0     C14705   7.008   8.748   2.941  0.1298  1.0362  0.3513
  832MOL0     C14706   6.953   8.769   2.808  0.0111  0.3316  0.4167
  832MOL0     C14707   6.960   8.824   3.052 -0.4435 -0.2329  0.9758
  832MOL0     C14708   6.857   8.926   3.051 -0.5187  0.7148  0.2918
  832MOL0     O14709   6.777   8.937   3.158 -0.1843 -0.4160 -0.1407
  832MOL0     C14710   6.702   9.051   3.163  0.6978  0.0930 -0.4778
  832MOL0     C14711   6.768   9.157   3.233  0.4206 -0.3418  0.2478
  832MOL0     C14712   6.707   9.278   3.237  0.2499 -0.5129  0.4199
  832MOL0     C14713   6.580   9.298   3.176  1.9069 -0.1297 -0.0741
  832MOL0     O14714   6.517   9.423   3.195 -0.0817 -0.0439  0.5173
  832MOL0     C14715   6.468   9.455   3.328  0.8152  0.1937 -0.2759
  832MOL0     C14716   6.510   9.601   3.363  0.2278  0.4624  0.4730
  832MOL0     C14717   6.426   9.658   3.482 -0.3164 -0.3262  0.2665
  832MOL0     C14718   6.449   9.581   3.612  0.6911 -0.5879 -0.9375
  832MOL0     C14719   6.355   9.638   3.723  0.3306  0.6178  0.9520
  832MOL0     C14720   6.358   9.560   3.853  0.6160  0.2555 -0.1635
  832MOL0     C14721   6.278   9.619   3.969 -0.3164 -0.5557  0.1316
  832MOL0     C14722   6.261   9.517   4.074 -0.6930  0.9266  0.2963
  832MOL0    Cl14723   6.413   9.413   4.103  0.4273 -0.3782  0.0461
  832MOL0     C14724   6.510   9.186   3.123  0.2478 -0.4181  0.5905
  832MOL0     C14725   6.569   9.064   3.113  0.0491 -0.1753 -1.1894
  832MOL0     O14726   6.845   8.987   2.950 -0.1437 -0.0858  0.4893
  832MOL0     C14727   7.010   8.788   3.181 -0.1693  0.2796  0.5428
  832MOL0     C14728   7.119   8.711   3.194 -0.2239  0.0061 -0.3254
  832MOL0     N14729   7.878   8.410   3.015  0.0626  0.0273 -0.0552
  832MOL0     N14730   7.976   8.406   3.099  0.0231  0.2278 -0.1774
  832MOL0     C14731   7.317   7.845   2.992 -0.1507  0.5358 -0.3571
  832MOL0     C14732   7.217   7.888   2.905 -0.0206  0.3284 -0.1695
  832MOL0     C14733   7.019   8.131   2.543 -1.2730  0.3062 -1.4339
  832MOL0     C14734   6.896   8.133   2.620 -1.1297 -0.8413 -0.4289
  832MOL0     C14735   6.778   8.193   2.567  0.2430  0.3327  0.0419
  832MOL0     C14736   6.776   8.233   2.432  0.3711 -0.0110 -1.2564
  832MOL0     O14737   6.650   8.262   2.385 -0.4423  0.7332  0.2056
  832MOL0     C14738   6.649   8.327   2.253 -0.5049  0.4283  0.5326
  832MOL0     C14739   6.677   8.239   2.138 -0.2697 -0.8188 -0.1355
  832MOL0     C14740   6.687   8.315   1.995  0.8902 -0.0529 -0.2869
  832MOL0     C14741   6.546   8.337   1.932 -0.9330 -1.3071 -0.6003
  832MOL0     C14742   6.468   8.450   1.992 -0.5556 -1.1185 -0.1220
  832MOL0     C14743   6.415   8.543   2.037  0.4672 -0.5289  0.4341
  832MOL0     C14744   6.893   8.233   2.365  0.4209 -0.3734  0.3415
  832MOL0     C14745   7.013   8.189   2.419  0.8945 -0.0027 -0.4082
  832MOL0     C14746   7.135   8.215   2.328  0.1499 -0.2372 -1.0447
  832MOL0     H14747   7.385   8.148   2.748 -2.2309  0.4314 -1.3085
  832MOL0     H14748   7.569   8.054   2.879  2.5525 -5.5932  1.9748
  832MOL0     H14749   7.529   7.652   3.001  2.7281 -2.6695  0.1537
  832MOL0     H14750   7.627   7.693   3.139 -3.1521 -1.7929 -0.2131
  832MOL0     H14751   7.774   7.634   2.967 -3.3434 -1.9772  3.4830
  832MOL0     H14752   7.672   7.736   2.862 -4.0865  0.3848  1.9898
  832MOL0     H14753   7.874   7.871   2.879  0.5669  3.3581  1.0761
  832MOL0     H14754   7.760   7.943   2.974  0.8382  1.5404 -3.6371
  832MOL0     H14755   7.858   7.872   3.177  0.9002  2.0660 -1.0182
  832MOL0     H14756   7.929   7.732   3.107 -0.5070  0.1653  0.8730
  832MOL0     H14757   8.100   7.886   3.000 -2.0113 -0.5611  0.1141
  832MOL0     H14758   8.108   7.867   3.177 -1.9181  0.2039  2.0117
  832MOL0     H14759   8.138   8.107   3.098  1.0408 -0.8488  2.1443
  832MOL0     H14760   7.966   8.114   3.068 -0.5937  0.8756  1.7852
  832MOL0     H14761   8.098   8.044   3.323  1.7907 -0.2264 -1.8810
  832MOL0     H14762   7.923   8.075   3.296 -0.4963  0.0081 -3.4651
  832MOL0     H14763   8.013   8.265   3.395  1.1366 -0.5100 -0.0294
  832MOL0     H14764   8.145   8.282   3.276  0.5450  0.6106 -0.0028
  832MOL0     H14765   7.745   8.252   3.281  0.0854 -1.4552 -1.3984
  832MOL0     H14766   7.585   8.239   3.086  0.5956 -0.6546  0.9293
  832MOL0     H14767   7.626   8.303   2.925 -2.0089  2.5927 -0.5422
  832MOL0     H14768   7.585   8.544   2.992 -2.7432  0.7667 -1.4136
  832MOL0     H14769   7.454   8.425   2.980 -1.7365  0.3109  2.0536
  832MOL0     H14770   7.440   8.389   3.218 -2.0937 -0.3871 -1.0448
  832MOL0     H14771   7.571   8.502   3.248  2.1307  1.4898 -2.3380
  832MOL0     H14772   7.351   8.607   3.284 -0.0464 -0.7186  0.3360
  832MOL0     H14773   7.423   8.678   3.138  0.3265 -1.9656 -4.2784
  832MOL0     H14774   7.128   8.588   2.880 -2.1748 -0.8114  0.1197
  832MOL0     H14775   7.015   8.714   2.737  0.8597  3.5700 -1.5916
  832MOL0     H14776   6.953   8.875   2.779  0.5730  0.4656  0.8852
  832MOL0     H14777   6.855   8.720   2.800  1.5633 -3.1491  1.0700
  832MOL0     H14778   6.870   9.144   3.267  0.3223  1.2812  1.2180
  832MOL0     H14779   6.771   9.357   3.274  2.5262 -1.9628 -0.2300
  832MOL0     H14780   6.360   9.449   3.342  0.7562  1.6293  0.0807
  832MOL0     H14781   6.508   9.381   3.398 -0.2541 -2.4101 -2.2615
  832MOL0     H14782   6.614   9.607   3.396  1.0841 -0.9411 -1.7635
  832MOL0     H14783   6.506   9.666   3.275  3.2207  1.4418  0.9302
  832MOL0     H14784   6.320   9.676   3.467 -0.0731  0.5313 -0.5093
  832MOL0     H14785   6.470   9.757   3.498  1.4466 -1.2614  1.5470
  832MOL0     H14786   6.555   9.587   3.636  1.2742 -0.1836 -3.3043
  832MOL0     H14787   6.425   9.477   3.590 -3.1203  0.6303 -3.7367
  832MOL0     H14788   6.375   9.744   3.741  2.2128  1.0935 -3.0507
  832MOL0     H14789   6.255   9.637   3.678  0.0816  4.4223  1.0549
  832MOL0     H14790   6.462   9.563   3.885  0.2065  1.3450  1.1663
  832MOL0     H14791   6.323   9.459   3.830 -3.2317  1.2921  0.3388
  832MOL0     H14792   6.186   9.658   3.923  1.6581  1.6440 -2.2388
  832MOL0     H14793   6.333   9.703   4.012  1.0024 -1.7671  0.8808
  832MOL0     H14794   6.181   9.445   4.053  0.3763 -0.2620  0.1684
  832MOL0     H14795   6.248   9.563   4.172  0.3471  0.3713  0.7128
  832MOL0     H14796   6.415   9.214   3.080  1.2339  1.6208 -0.3576
  832MOL0     H14797   6.523   8.970   3.085  0.0990  0.0230 -1.9401
  832MOL0     H14798   6.977   8.841   3.270  3.5642  0.0807  2.2475
  832MOL0     H14799   7.156   8.693   3.294  0.6746  1.6781 -0.3167
  832MOL0     H14800   7.297   7.762   3.059  0.3723 -0.0395 -0.9030
  832MOL0     H14801   7.117   7.844   2.899  0.5264 -0.8116 -3.9656
  832MOL0     H14802   6.899   8.094   2.721 -1.8571  0.3156  0.0634
  832MOL0     H14803   6.688   8.196   2.628  1.0972 -1.3145  1.4686
  832MOL0     H14804   6.545   8.361   2.245 -1.0784 -0.8372  2.1766
  832MOL0     H14805   6.718   8.412   2.257 -1.3180  1.0551  1.8596
  832MOL0     H14806   6.591   8.176   2.114 -0.1809 -0.2472 -2.1501
  832MOL0     H14807   6.768   8.178   2.139  0.6800  0.5032 -1.5184
  832MOL0     H14808   6.731   8.412   2.021  1.7653 -1.3388  3.7437
  832MOL0     H14809   6.741   8.251   1.925  1.4151 -0.7771  0.7453
  832MOL0     H14810   6.479   8.252   1.949 -2.2567  0.0961  1.7757
  832MOL0     H14811   6.557   8.346   1.823 -1.3499 -0.0308 -0.5565
  832MOL0     H14812   6.344   8.621   2.056  0.7308  0.1512 -1.1884
  832MOL0     H14813   6.906   8.270   2.264  1.1665 -1.0313  0.1862
  832MOL0     H14814   7.107   8.279   2.244  1.5728  2.4991  0.4246
  832MOL0     H14815   7.211   8.265   2.388 -1.7092 -0.8417  2.0619
  832MOL0     H14816   7.176   8.121   2.292 -2.1434 -2.2927  1.3454
  833MOL0     O14817   7.692   6.857   2.086 -0.3584 -0.4759  0.2481
  833MOL0     C14818   7.810   6.831   2.075  0.6563  0.5395  0.6812
  833MOL0     O14819   7.867   6.709   2.091 -0.1163 -0.2393  0.0916
  833MOL0     C14820   7.807   6.612   2.150 -0.5129 -0.2474 -0.6154
  833MOL0     C14821   7.817   6.605   2.297 -0.9251  0.6736  0.4305
  833MOL0     C14822   7.774   6.481   2.355  0.4181  0.7294 -0.1314
  833MOL0     C14823   7.733   6.368   2.281  1.0638  0.2439  0.4029
  833MOL0     O14824   7.701   6.257   2.356  0.0843  0.2818  0.1101
  833MOL0     C14825   7.697   6.128   2.287 -1.0439  0.1830 -1.2199
  833MOL0     C14826   7.832   6.080   2.236 -1.1768  0.3175 -0.9081
  833MOL0     C14827   7.820   5.949   2.146 -0.0203  0.6611  0.8427
  833MOL0     C14828   7.948   5.904   2.076 -0.7391 -0.8863 -0.7469
  833MOL0     C14829   8.017   5.797   2.164  0.0273 -0.1673 -0.2618
  833MOL0     C14830   7.965   5.653   2.148 -0.6002  0.5160  0.1625
  833MOL0     C14831   8.030   5.559   2.260  0.1708  0.7005  0.3167
  833MOL0     C14832   7.945   5.437   2.271 -0.6956  0.1622 -1.0626
  833MOL0     N14833   7.809   5.450   2.328 -1.0988 -0.2916  0.7767
  833MOL0     C14834   7.737   5.331   2.337  0.2371 -0.7854  0.3603
  833MOL0     C14835   7.606   5.382   2.351  0.1651  0.4502  1.0034
  833MOL0     C14836   7.478   5.310   2.341  0.1349 -0.2951  1.3328
  833MOL0     C14837   7.450   5.223   2.460  0.5118 -0.1224 -0.6003
  833MOL0     C14838   7.406   5.286   2.596 -1.2443  0.4161  0.0096
  833MOL0     C14839   7.265   5.248   2.638  0.3150  0.7516 -0.5505
  833MOL0     O14840   7.171   5.334   2.568  0.6986 -0.7177 -0.6508
  833MOL0     C14841   7.044   5.309   2.600  0.4901  0.0271 -0.6591
  833MOL0     C14842   6.985   5.373   2.707 -0.4370 -0.4225  0.0023
  833MOL0     C14843   6.853   5.350   2.740  0.6057  0.3852 -0.2922
  833MOL0     C14844   6.809   5.421   2.863  0.5460 -0.0513 -0.5483
  833MOL0     C14845   6.769   5.265   2.662  1.4219 -0.6287  0.0122
  833MOL0     C14846   6.619   5.248   2.685  0.0982  0.1032 -1.3896
  833MOL0     O14847   6.555   5.152   2.610  0.2340 -0.2461  0.5710
  833MOL0     C14848   6.426   5.113   2.648 -0.0966 -0.0768  0.3537
  833MOL0     C14849   6.393   5.074   2.778 -0.4530  0.0765 -0.4777
  833MOL0     C14850   6.266   5.036   2.819 -0.8381  0.2632  0.6650
  833MOL0     C14851   6.171   5.028   2.714 -0.9649 -0.6109 -0.2575
  833MOL0     O14852   6.036   4.995   2.726 -0.5820  0.1482 -0.1471
  833MOL0     C14853   5.993   4.961   2.861 -0.4566 -0.4731  0.1056
  833MOL0     C14854   5.859   4.895   2.868  1.0773  1.2519 -0.1184
  833MOL0     C14855   5.813   4.837   3.010 -0.2813  0.2414 -0.2700
  833MOL0     C14856   5.677   4.766   3.021 -0.5449 -0.4926  0.0682
  833MOL0     C14857   5.653   4.668   3.142  0.0862  0.4555 -0.8393
  833MOL0     C14858   5.625   4.751   3.266 -0.2084  0.2671  0.1030
  833MOL0     C14859   5.640   4.667   3.392 -0.5404 -0.1739  0.9432
  833MOL0     C14860   5.637   4.747   3.526 -0.3953 -0.3539 -0.4396
  833MOL0    Cl14861   5.759   4.864   3.572 -0.2402 -0.0451 -0.1390
  833MOL0     C14862   6.207   5.054   2.582 -1.4562 -1.2991 -0.4210
  833MOL0     C14863   6.331   5.102   2.553 -0.4760 -0.9008 -0.1307
  833MOL0     O14864   6.559   5.316   2.767 -0.1648 -0.3065  0.0595
  833MOL0     C14865   6.832   5.194   2.557  0.3496 -0.5573 -0.9993
  833MOL0     C14866   6.962   5.233   2.517  0.1938 -0.7046  0.0845
  833MOL0     N14867   7.605   5.522   2.342 -0.8059  0.5185  0.3405
  833MOL0     N14868   7.730   5.561   2.326  0.0459  0.2822  0.9402
  833MOL0     C14869   7.713   6.389   2.149  0.1601 -0.1279  0.0422
  833MOL0     C14870   7.748   6.504   2.083  0.2456  0.2417  0.0127
  833MOL0     C14871   7.892   6.946   2.033 -0.6135 -0.3193 -0.4742
  833MOL0     C14872   7.968   7.006   2.133 -0.2104  0.1720  0.4091
  833MOL0     C14873   8.041   7.126   2.105  0.4053  0.5803  0.6246
  833MOL0     C14874   8.038   7.182   1.971 -0.3308 -0.4982  0.0883
  833MOL0     O14875   8.109   7.296   1.933  0.4291 -0.0498  0.6553
  833MOL0     C14876   8.217   7.344   2.002  0.0088  0.1627  0.2542
  833MOL0     C14877   8.281   7.462   1.928  0.4961  0.1232 -0.7056
  833MOL0     C14878   8.311   7.418   1.779  0.4444  0.2179  0.7524
  833MOL0     C14879   8.357   7.539   1.709  0.6585 -0.3676 -0.7298
  833MOL0     C14880   8.482   7.587   1.761  0.2595 -0.3410 -0.0088
  833MOL0     C14881   8.587   7.614   1.805  0.3405  0.2044 -0.4267
  833MOL0     C14882   7.961   7.113   1.882 -0.7560 -0.0254 -0.4948
  833MOL0     C14883   7.888   6.993   1.908  0.9173  1.0047 -1.0969
  833MOL0     C14884   7.799   6.946   1.793  0.1506 -0.3822  0.2671
  833MOL0     H14885   7.850   6.684   2.364 -0.2659  1.0632 -0.3385
  833MOL0     H14886   7.797   6.475   2.461 -1.0418 -0.6852  0.1307
  833MOL0     H14887   7.632   6.124   2.200 -1.5352 -1.5897 -0.8203
  833MOL0     H14888   7.662   6.050   2.356 -0.8408 -0.7435 -2.1336
  833MOL0     H14889   7.873   6.163   2.178 -1.0817  1.3549  0.5782
  833MOL0     H14890   7.902   6.074   2.320 -0.0950  4.3253 -1.3192
  833MOL0     H14891   7.780   5.869   2.209  1.0004 -0.6188 -0.0818
  833MOL0     H14892   7.740   5.969   2.075  0.7193  2.3297  0.4253
  833MOL0     H14893   7.912   5.865   1.980 -2.1831 -2.4480  0.3652
  833MOL0     H14894   8.016   5.985   2.049 -3.0237  0.9092 -1.5298
  833MOL0     H14895   8.006   5.833   2.266  0.0339 -1.5201  0.2448
  833MOL0     H14896   8.124   5.804   2.142  0.9546 -1.3689  3.2475
  833MOL0     H14897   7.855   5.652   2.150 -0.5854 -0.4169  0.6495
  833MOL0     H14898   7.993   5.615   2.050 -0.5413  1.4445 -0.1960
  833MOL0     H14899   8.029   5.605   2.359 -1.2685  1.6154 -0.0932
  833MOL0     H14900   8.132   5.532   2.228 -0.3936  1.3266 -2.2463
  833MOL0     H14901   7.930   5.391   2.173 -2.8078 -1.6446  0.0198
  833MOL0     H14902   7.990   5.368   2.343  0.9041  1.2466 -0.9695
  833MOL0     H14903   7.783   5.233   2.336  0.6866 -0.6264 -2.1508
  833MOL0     H14904   7.475   5.251   2.248  0.1367  1.2911  0.2805
  833MOL0     H14905   7.403   5.388   2.325 -0.5283 -1.2494 -0.5304
  833MOL0     H14906   7.377   5.145   2.438  1.3160 -0.7371 -1.1428
  833MOL0     H14907   7.540   5.162   2.469  0.8961  0.6911  1.5593
  833MOL0     H14908   7.479   5.248   2.667  1.5363  2.5521 -1.4930
  833MOL0     H14909   7.425   5.394   2.588 -4.4468  1.5236  3.8079
  833MOL0     H14910   7.251   5.140   2.623 -0.8223  0.5119  1.7557
  833MOL0     H14911   7.255   5.260   2.746  2.5964  0.8199 -0.3070
  833MOL0     H14912   7.051   5.434   2.767  0.2286 -0.2874 -0.8494
  833MOL0     H14913   6.898   5.467   2.908 -1.1202  3.6886 -0.6766
  833MOL0     H14914   6.771   5.352   2.939  0.7119 -1.4916 -1.7253
  833MOL0     H14915   6.735   5.500   2.849 -0.7239 -1.2486 -0.8167
  833MOL0     H14916   6.466   5.080   2.859  2.5475 -0.4397 -2.9640
  833MOL0     H14917   6.247   5.014   2.923  0.3527  3.8888  1.8082
  833MOL0     H14918   6.060   4.888   2.907 -1.0901  0.0467  1.9236
  833MOL0     H14919   5.998   5.053   2.921 -0.7576 -0.3529 -0.0486
  833MOL0     H14920   5.775   4.955   2.832 -0.3155 -0.2791  0.3790
  833MOL0     H14921   5.872   4.807   2.804  1.2158  1.2913 -0.1435
  833MOL0     H14922   5.814   4.928   3.070 -0.2658  1.7057 -2.3870
  833MOL0     H14923   5.880   4.764   3.056  2.5754  2.3551 -0.7931
  833MOL0     H14924   5.660   4.701   2.934 -3.2673 -0.3376  0.4152
  833MOL0     H14925   5.592   4.833   3.034 -1.3096 -1.6534  1.2506
  833MOL0     H14926   5.565   4.609   3.117 -1.9656  2.8745  0.2033
  833MOL0     H14927   5.734   4.596   3.159 -0.0205  0.5209 -0.0214
  833MOL0     H14928   5.525   4.796   3.259  0.9226  2.7468 -1.4513
  833MOL0     H14929   5.699   4.831   3.279  1.5853 -0.6850 -3.1684
  833MOL0     H14930   5.737   4.616   3.388  0.4103  1.4916  1.5783
  833MOL0     H14931   5.566   4.587   3.385 -0.4912 -0.1160 -0.4602
  833MOL0     H14932   5.621   4.680   3.611  1.4470 -0.6182 -0.2510
  833MOL0     H14933   5.546   4.807   3.518 -0.4634 -0.3438  0.3116
  833MOL0     H14934   6.128   5.027   2.512 -4.1956  1.6640  1.2628
  833MOL0     H14935   6.347   5.130   2.449 -1.0121 -0.4554 -0.0934
  833MOL0     H14936   6.781   5.127   2.489 -3.7796  1.1813  0.1370
  833MOL0     H14937   6.999   5.176   2.432  0.3875 -3.1820  1.7390
  833MOL0     H14938   7.675   6.302   2.097 -2.6262 -0.5609  2.5367
  833MOL0     H14939   7.738   6.505   1.975  2.1851 -0.7527 -0.2232
  833MOL0     H14940   7.982   6.960   2.230 -0.6957 -1.6221 -0.3256
  833MOL0     H14941   8.100   7.183   2.175 -1.1728  3.4126 -0.2001
  833MOL0     H14942   8.174   7.374   2.097  1.1909 -3.3868  2.0951
  833MOL0     H14943   8.295   7.268   2.016 -1.2549 -0.7227  3.2650
  833MOL0     H14944   8.372   7.492   1.979 -0.0114  1.5822 -0.6266
  833MOL0     H14945   8.224   7.555   1.934  3.7864  2.2416  3.8525
  833MOL0     H14946   8.377   7.331   1.788 -1.3302 -1.4242 -0.9078
  833MOL0     H14947   8.217   7.377   1.743 -0.1123  0.9212  1.3733
  833MOL0     H14948   8.294   7.628   1.720  1.2817  0.0808 -0.7144
  833MOL0     H14949   8.367   7.509   1.604  0.8840 -1.2268 -0.4666
  833MOL0     H14950   8.690   7.627   1.831  1.4956 -2.8127 -2.8594
  833MOL0     H14951   7.946   7.159   1.785  0.3048 -0.7690 -1.0406
  833MOL0     H14952   7.699   6.980   1.818  0.4407  1.3363 -0.7520
  833MOL0     H14953   7.827   6.996   1.700  1.2015 -1.3272  0.0481
  833MOL0     H14954   7.809   6.839   1.772 -2.5239 -0.0968 -3.3218
  834MOL0     O14955   8.608   4.156   1.580 -0.7656  0.1620 -0.5690
  834MOL0     C14956   8.711   4.112   1.552 -1.0576  0.6418 -1.5318
  834MOL0     O14957   8.832   4.182   1.531  0.1452 -0.5980 -0.3971
  834MOL0     C14958   8.805   4.320   1.507  0.3402  0.1246 -0.6235
  834MOL0     C14959   8.773   4.369   1.377  0.3125  0.7006 -0.2865
  834MOL0     C14960   8.745   4.504   1.356  0.1798  0.1538 -0.9514
  834MOL0     C14961   8.763   4.597   1.459 -0.6664 -0.5000 -0.2039
  834MOL0     O14962   8.741   4.729   1.457  0.0031 -0.5564 -0.8473
  834MOL0     C14963   8.700   4.797   1.336  1.0002  0.0429 -0.0013
  834MOL0     C14964   8.710   4.953   1.329  0.7741 -0.7633  0.8349
  834MOL0     C14965   8.637   5.025   1.445 -0.2148 -1.3592 -0.4378
  834MOL0     C14966   8.699   5.162   1.495 -1.0014  0.4506 -0.1546
  834MOL0     C14967   8.615   5.194   1.615  0.2430 -0.4203 -0.5050
  834MOL0     C14968   8.652   5.338   1.665 -0.4409 -0.1373 -0.2166
  834MOL0     C14969   8.601   5.345   1.811  0.8811  0.2423 -0.5326
  834MOL0     C14970   8.449   5.346   1.809 -0.1359 -0.5716 -0.4957
  834MOL0     N14971   8.410   5.470   1.886 -0.0095 -0.4644  0.3585
  834MOL0     C14972   8.410   5.599   1.843  0.2220  0.6650 -0.6221
  834MOL0     C14973   8.338   5.672   1.932 -1.1738 -1.0467 -0.3469
  834MOL0     C14974   8.306   5.815   1.908 -0.0707  0.0946  0.4311
  834MOL0     C14975   8.179   5.831   1.816 -0.4681  0.1489  0.3786
  834MOL0     C14976   8.168   5.978   1.763  0.0455 -0.3149  0.2707
  834MOL0     C14977   8.073   5.988   1.648 -0.3664 -0.6145  0.0722
  834MOL0     O14978   8.077   6.120   1.595  0.1010  0.3789  0.3060
  834MOL0     C14979   7.967   6.205   1.613  0.6038  1.2481  0.7700
  834MOL0     C14980   7.965   6.324   1.537  0.6163  0.2812  0.1042
  834MOL0     C14981   7.858   6.414   1.547 -0.3899  0.2234 -0.0213
  834MOL0     C14982   7.863   6.527   1.449  0.4379 -0.2943  0.1293
  834MOL0     C14983   7.769   6.397   1.654  0.2924  0.4777  0.0253
  834MOL0     C14984   7.670   6.504   1.683  0.4538 -0.5856  0.1567
  834MOL0     O14985   7.574   6.477   1.773  0.2791  0.2044 -0.9145
  834MOL0     C14986   7.467   6.565   1.780  0.4297 -0.4853  0.1768
  834MOL0     C14987   7.343   6.538   1.717 -0.2048  1.5025 -1.2309
  834MOL0     C14988   7.232   6.616   1.754  0.0911 -0.1464  0.0717
  834MOL0     C14989   7.243   6.730   1.836  0.1138 -0.7961  0.1303
  834MOL0     O14990   7.136   6.805   1.866  0.5140  0.5031 -0.0895
  834MOL0     C14991   7.100   6.790   2.006  0.7055 -0.5056  0.6498
  834MOL0     C14992   6.942   6.796   2.020 -0.3009 -0.4437 -0.0712
  834MOL0     C14993   6.895   6.678   1.926 -0.9639 -0.5935  0.0840
  834MOL0     C14994   6.746   6.642   1.925 -0.2378 -0.3899  0.1003
  834MOL0     C14995   6.728   6.563   1.799 -0.7758 -0.3889  0.1555
  834MOL0     C14996   6.595   6.492   1.756  0.7664 -1.2516  0.0233
  834MOL0     C14997   6.601   6.389   1.643  0.8584  0.9955  0.0027
  834MOL0     C14998   6.628   6.240   1.688  0.1791 -0.9714 -0.6816
  834MOL0    Cl14999   6.811   6.220   1.678  0.2964  0.1935  0.3597
  834MOL0     C15000   7.369   6.755   1.892 -0.1894  0.5587 -0.2850
  834MOL0     C15001   7.481   6.671   1.866  0.3552  0.2142 -0.6338
  834MOL0     O15002   7.693   6.615   1.638  0.4668  0.5523 -0.3196
  834MOL0     C15003   7.762   6.271   1.716  0.2459  0.3497  0.4849
  834MOL0     C15004   7.856   6.174   1.694  0.3585  0.5035 -0.3690
  834MOL0     N15005   8.310   5.591   2.039  0.2190  1.0493 -0.8672
  834MOL0     N15006   8.336   5.477   2.003  0.4258 -0.8499  0.7511
  834MOL0     C15007   8.801   4.547   1.586  0.2948 -0.2094 -0.5958
  834MOL0     C15008   8.822   4.414   1.607 -0.0564 -0.2945  0.1128
  834MOL0     C15009   8.729   3.963   1.525 -0.7498  0.3275 -0.0338
  834MOL0     C15010   8.622   3.884   1.582  0.4643  0.5701 -0.8467
  834MOL0     C15011   8.629   3.741   1.597  0.4223 -0.4036 -0.4380
  834MOL0     C15012   8.737   3.680   1.536  0.2999  0.7083  0.8746
  834MOL0     O15013   8.740   3.535   1.531 -0.4947  0.0282  0.2882
  834MOL0     C15014   8.814   3.459   1.434  0.8230 -0.1405 -0.2406
  834MOL0     C15015   8.759   3.313   1.435 -0.3477 -0.7406  0.0287
  834MOL0     C15016   8.831   3.223   1.340  0.6755  0.3926  0.7977
  834MOL0     C15017   8.746   3.100   1.311 -0.1565  0.1988 -0.1755
  834MOL0     C15018   8.819   3.011   1.225  0.5318 -0.1218  0.7373
  834MOL0     C15019   8.874   2.919   1.166 -0.4455 -0.6393 -0.5452
  834MOL0     C15020   8.837   3.755   1.465 -0.3531 -0.0319  0.3866
  834MOL0     C15021   8.840   3.897   1.472  0.3475  0.4066 -0.6428
  834MOL0     C15022   8.964   3.959   1.404  0.3619 -0.2859  0.8328
  834MOL0     H15023   8.755   4.278   1.321  1.3687 -0.5417  1.3002
  834MOL0     H15024   8.706   4.526   1.257  0.6411  0.9628 -0.9655
  834MOL0     H15025   8.598   4.764   1.317 -0.8457  5.1862 -0.7290
  834MOL0     H15026   8.769   4.761   1.259  0.1519 -1.6741  0.0073
  834MOL0     H15027   8.819   4.969   1.328  0.7808 -0.7905 -0.1231
  834MOL0     H15028   8.668   4.990   1.236 -1.9119 -0.3846  2.1200
  834MOL0     H15029   8.540   5.040   1.395  0.4158 -3.8723 -2.6685
  834MOL0     H15030   8.631   4.961   1.533  0.1265 -1.5449 -0.5484
  834MOL0     H15031   8.806   5.159   1.516 -0.6245  1.6942 -1.7295
  834MOL0     H15032   8.686   5.248   1.429  1.8498  2.7784  2.0479
  834MOL0     H15033   8.641   5.117   1.689  0.5870  1.7629  1.7974
  834MOL0     H15034   8.507   5.206   1.599  0.3382  3.6308  0.6728
  834MOL0     H15035   8.760   5.349   1.654 -0.3111 -1.4214 -0.4272
  834MOL0     H15036   8.602   5.415   1.606 -1.5567 -0.8018 -0.1787
  834MOL0     H15037   8.644   5.436   1.854  0.9186 -0.0571  0.0619
  834MOL0     H15038   8.638   5.272   1.883  0.7409  1.2084  0.5401
  834MOL0     H15039   8.406   5.343   1.708  2.1602  1.4024 -1.6333
  834MOL0     H15040   8.417   5.256   1.864  1.8192 -1.3401 -0.5360
  834MOL0     H15041   8.460   5.628   1.752  1.3071  2.7749  0.5719
  834MOL0     H15042   8.396   5.849   1.855  0.5767 -4.0340 -1.5147
  834MOL0     H15043   8.298   5.865   2.006 -0.4287  1.0424 -0.0700
  834MOL0     H15044   8.185   5.762   1.731  0.7246  1.0840 -0.3383
  834MOL0     H15045   8.093   5.814   1.880  0.4467  2.4303  2.3673
  834MOL0     H15046   8.135   6.042   1.845 -2.4893  1.0584 -1.6362
  834MOL0     H15047   8.269   6.001   1.728 -0.3522  0.2994 -0.5012
  834MOL0     H15048   8.092   5.911   1.574 -1.0175 -0.5057 -0.2085
  834MOL0     H15049   7.977   5.966   1.696 -1.4326  0.3095 -1.5708
  834MOL0     H15050   8.052   6.345   1.475 -0.1598  0.8997 -0.8054
  834MOL0     H15051   7.934   6.599   1.489  0.5052 -1.9413  3.2983
  834MOL0     H15052   7.766   6.576   1.432 -0.1581  0.1570  4.0171
  834MOL0     H15053   7.891   6.498   1.347 -1.2973  0.8369 -0.7155
  834MOL0     H15054   7.343   6.458   1.644 -1.1377  1.5552 -1.3021
  834MOL0     H15055   7.143   6.591   1.698  1.5443 -0.9952 -1.9975
  834MOL0     H15056   7.147   6.698   2.044 -0.2877 -1.7605 -0.9944
  834MOL0     H15057   7.147   6.877   2.051  0.7147  0.8227 -1.7330
  834MOL0     H15058   6.912   6.793   2.125 -0.2774 -2.3563 -0.0720
  834MOL0     H15059   6.898   6.891   1.990 -2.0054 -0.4947  2.0259
  834MOL0     H15060   6.957   6.589   1.939 -0.7407 -0.6549 -1.2606
  834MOL0     H15061   6.916   6.718   1.826 -2.1296  2.0532  0.8138
  834MOL0     H15062   6.684   6.732   1.918 -1.8773 -1.3346  1.5629
  834MOL0     H15063   6.709   6.586   2.012 -2.4152  1.1134  0.2124
  834MOL0     H15064   6.748   6.629   1.714  1.1375  1.5297  1.9852
  834MOL0     H15065   6.811   6.492   1.800  0.1296  0.6032 -0.9076
  834MOL0     H15066   6.525   6.572   1.728  2.8579  0.5227 -0.4648
  834MOL0     H15067   6.555   6.445   1.846  2.3821 -1.9692  0.3953
  834MOL0     H15068   6.669   6.419   1.563 -0.8664  0.6739 -1.6583
  834MOL0     H15069   6.515   6.392   1.575 -0.0377 -1.4197  0.9248
  834MOL0     H15070   6.561   6.172   1.635 -5.0352  2.2150  1.0819
  834MOL0     H15071   6.601   6.221   1.792 -0.0033 -0.8795 -0.7130
  834MOL0     H15072   7.382   6.850   1.942  3.1507  0.6611 -1.1290
  834MOL0     H15073   7.575   6.678   1.920 -0.7484  2.2689  1.2254
  834MOL0     H15074   7.682   6.254   1.786 -1.2145  5.6423  0.5189
  834MOL0     H15075   7.828   6.088   1.755 -3.7670 -0.2560 -2.9272
  834MOL0     H15076   8.818   4.607   1.675  1.0178  0.0807 -0.9226
  834MOL0     H15077   8.852   4.380   1.706  3.0594 -0.3157 -0.7113
  834MOL0     H15078   8.531   3.919   1.630  0.1503 -0.1229 -0.9280
  834MOL0     H15079   8.539   3.693   1.635 -0.3468  3.0811  2.8195
  834MOL0     H15080   8.808   3.510   1.337 -1.4677  1.7735  0.8013
  834MOL0     H15081   8.917   3.454   1.471  0.2489  1.8903  1.8009
  834MOL0     H15082   8.654   3.317   1.404 -0.9700  0.8224  2.1495
  834MOL0     H15083   8.784   3.277   1.535  1.2755  0.9935  0.3035
  834MOL0     H15084   8.861   3.262   1.242  0.8934 -3.6298 -0.9506
  834MOL0     H15085   8.921   3.186   1.391 -0.4414 -1.3155  1.6268
  834MOL0     H15086   8.653   3.120   1.257  1.3280  1.6324 -2.3454
  834MOL0     H15087   8.727   3.054   1.408  1.6103  0.6101  0.4125
  834MOL0     H15088   8.900   2.830   1.113 -0.2896 -0.8582 -0.1022
  834MOL0     H15089   8.908   3.699   1.405 -1.9850  1.6110 -3.4544
  834MOL0     H15090   9.053   3.911   1.448 -0.2908  0.7475  3.4976
  834MOL0     H15091   8.963   3.924   1.301  3.0585 -2.3306  1.3743
  834MOL0     H15092   8.976   4.068   1.400  1.6560 -0.3629  1.6936
  835MOL0     O15093   6.105   6.512   2.207 -0.4459 -0.0521 -0.3427
  835MOL0     C15094   6.174   6.415   2.206 -0.3830 -0.6802  0.4424
  835MOL0     O15095   6.319   6.417   2.186  0.2915 -0.3414 -0.6875
  835MOL0     C15096   6.376   6.537   2.151 -1.1768  0.4679 -0.2544
  835MOL0     C15097   6.365   6.591   2.030  0.7852 -1.0276  0.3730
  835MOL0     C15098   6.408   6.725   1.996 -1.6709  0.8382  0.4398
  835MOL0     C15099   6.486   6.797   2.091  0.5240 -0.8384 -1.0661
  835MOL0     O15100   6.542   6.918   2.076 -0.4477  0.2436  0.0986
  835MOL0     C15101   6.509   7.013   1.972  0.9007  0.0709  0.9402
  835MOL0     C15102   6.610   7.055   1.864  0.4939 -0.6226  0.7629
  835MOL0     C15103   6.729   7.116   1.943 -0.0695 -0.8383  0.1092
  835MOL0     C15104   6.831   7.172   1.856 -0.3344  0.1877  0.6946
  835MOL0     C15105   6.957   7.232   1.922  0.1460 -0.4975 -0.8334
  835MOL0     C15106   6.929   7.351   2.025  0.1013  0.3215 -0.1932
  835MOL0     C15107   7.054   7.413   2.098  0.2994  1.0020  0.7853
  835MOL0     C15108   7.008   7.529   2.180 -0.0336 -1.2386  0.2920
  835MOL0     N15109   7.130   7.604   2.213 -0.0466  0.3132  0.2910
  835MOL0     C15110   7.231   7.569   2.293  0.9793  0.1591 -0.5153
  835MOL0     C15111   7.306   7.688   2.293  0.6609 -0.2058  0.2515
  835MOL0     C15112   7.426   7.702   2.376  0.7118 -0.7479  0.2098
  835MOL0     C15113   7.424   7.827   2.461 -0.3112 -1.8504 -0.0790
  835MOL0     C15114   7.529   7.808   2.574 -1.3405  0.6898 -0.6390
  835MOL0     C15115   7.661   7.809   2.514 -0.7503  0.4592 -0.3978
  835MOL0     O15116   7.749   7.775   2.618 -0.1368  0.8454 -0.8346
  835MOL0     C15117   7.882   7.797   2.595  0.5087 -0.1249  0.7980
  835MOL0     C15118   7.963   7.714   2.672 -1.1128  1.2174 -0.1585
  835MOL0     C15119   8.093   7.691   2.636 -0.5785 -0.4986 -0.3977
  835MOL0     C15120   8.172   7.611   2.737 -0.8782 -0.2276 -0.0896
  835MOL0     C15121   8.145   7.757   2.520 -0.0406  0.0931  1.0560
  835MOL0     C15122   8.279   7.735   2.483  0.1746  0.1909  0.1246
  835MOL0     O15123   8.344   7.844   2.435  1.3332 -0.8345 -0.2361
  835MOL0     C15124   8.456   7.820   2.358  0.9416  0.3520 -0.0104
  835MOL0     C15125   8.437   7.871   2.231  1.1393  0.0521 -0.4904
  835MOL0     C15126   8.536   7.860   2.135  0.6611  0.5841  0.2022
  835MOL0     C15127   8.662   7.811   2.165  0.6445 -1.0428 -0.3156
  835MOL0     O15128   8.755   7.809   2.068 -0.2009  0.6318 -0.1529
  835MOL0     C15129   8.886   7.771   2.106 -1.0075 -0.3373  0.0281
  835MOL0     C15130   8.989   7.776   1.992 -0.4488  0.6391 -0.8643
  835MOL0     C15131   9.019   7.918   1.956 -1.0353 -0.2570 -0.7482
  835MOL0     C15132   8.922   7.970   1.844  0.5552 -0.6352 -0.6534
  835MOL0     C15133   8.903   8.121   1.831  0.0073 -0.0715 -0.5463
  835MOL0     C15134   8.795   8.148   1.717  0.8922  0.5067 -0.5728
  835MOL0     C15135   8.850   8.138   1.574  0.2252  0.3403 -0.8779
  835MOL0     C15136   8.751   8.127   1.460 -0.4390  0.2830 -0.1910
  835MOL0    Cl15137   8.791   7.990   1.361 -0.4885 -0.1585 -0.4015
  835MOL0     C15138   8.690   7.766   2.299  0.9295 -0.6927 -0.6283
  835MOL0     C15139   8.582   7.768   2.391  0.3845 -0.4187  0.3712
  835MOL0     O15140   8.324   7.618   2.480  0.1982 -0.0925 -0.3125
  835MOL0     C15141   8.072   7.844   2.450  0.1390  0.4758  0.2689
  835MOL0     C15142   7.943   7.864   2.481  0.5763 -0.6345  1.0737
  835MOL0     N15143   7.244   7.786   2.221  0.1638 -1.0970  0.2658
  835MOL0     N15144   7.149   7.731   2.166  0.6108  0.5046  0.0206
  835MOL0     C15145   6.506   6.735   2.211 -1.1007  0.3755 -0.9113
  835MOL0     C15146   6.447   6.614   2.244 -0.3546 -0.2253  0.6894
  835MOL0     C15147   6.107   6.282   2.234  0.2828  0.9785 -0.2571
  835MOL0     C15148   5.984   6.283   2.313  0.0086 -0.6133  0.1723
  835MOL0     C15149   5.928   6.160   2.334  0.2361  0.1628  0.5824
  835MOL0     C15150   5.968   6.053   2.260 -0.5029 -0.4631 -0.0432
  835MOL0     O15151   5.893   5.946   2.268  0.2307  0.2431 -0.1861
  835MOL0     C15152   5.831   5.895   2.145 -0.0186  0.2471 -0.6088
  835MOL0     C15153   5.704   5.969   2.093 -0.4182  0.8944 -1.2344
  835MOL0     C15154   5.593   5.955   2.197  0.0664 -0.6522 -0.0048
  835MOL0     C15155   5.460   5.995   2.144  0.1303 -0.3053  0.8754
  835MOL0     C15156   5.356   5.998   2.248  0.3937  0.0391 -1.6053
  835MOL0     C15157   5.268   5.989   2.340  0.4207 -0.7450  0.0004
  835MOL0     C15158   6.075   6.055   2.180 -1.1638 -1.0971 -1.1931
  835MOL0     C15159   6.160   6.167   2.172  1.0604  0.2007  0.0825
  835MOL0     C15160   6.277   6.165   2.084  0.7760  0.3045  0.7412
  835MOL0     H15161   6.315   6.537   1.951  0.1843 -3.3386  2.2035
  835MOL0     H15162   6.395   6.758   1.894  1.4449 -2.6708 -1.3444
  835MOL0     H15163   6.480   7.100   2.030  0.0579  0.2920  0.2080
  835MOL0     H15164   6.423   6.986   1.909  2.0205  0.3172 -0.7791
  835MOL0     H15165   6.650   6.972   1.806 -0.1595 -2.2295  2.5031
  835MOL0     H15166   6.568   7.133   1.800  2.3830 -1.4226 -1.5951
  835MOL0     H15167   6.683   7.193   2.006 -0.5882 -0.6961 -0.4369
  835MOL0     H15168   6.780   7.048   2.013  1.2067  1.0970  1.1702
  835MOL0     H15169   6.862   7.088   1.792 -2.3192 -0.2792  0.2483
  835MOL0     H15170   6.786   7.249   1.793  3.0552 -0.3238 -2.7428
  835MOL0     H15171   7.019   7.266   1.839  0.2026 -2.9548 -1.8916
  835MOL0     H15172   7.019   7.145   1.948 -0.6151 -0.2253  2.2758
  835MOL0     H15173   6.884   7.432   1.968 -3.2728 -0.8013  0.6908
  835MOL0     H15174   6.850   7.319   2.093 -1.1362 -3.3994 -3.0487
  835MOL0     H15175   7.125   7.437   2.018  1.5154  1.0322  1.8402
  835MOL0     H15176   7.089   7.335   2.167 -1.1432  0.9362  1.4707
  835MOL0     H15177   6.951   7.597   2.116  0.7955 -0.6885  0.1181
  835MOL0     H15178   6.941   7.490   2.257 -0.0427 -1.8037  0.0030
  835MOL0     H15179   7.266   7.474   2.335  3.1585  0.5972 -1.1882
  835MOL0     H15180   7.511   7.708   2.307  1.3595 -0.1152  1.0332
  835MOL0     H15181   7.437   7.611   2.435 -2.0462 -1.0163  0.4198
  835MOL0     H15182   7.440   7.921   2.407 -0.7047 -0.9454  1.3295
  835MOL0     H15183   7.328   7.835   2.513  0.5417 -2.1669  1.5995
  835MOL0     H15184   7.527   7.901   2.631  0.2475  1.7368 -2.2061
  835MOL0     H15185   7.508   7.719   2.634  1.1024  0.3825 -0.1326
  835MOL0     H15186   7.665   7.729   2.439 -0.5558  0.2953 -0.2140
  835MOL0     H15187   7.684   7.899   2.455 -0.3421 -1.4859 -3.4573
  835MOL0     H15188   7.925   7.650   2.752 -0.1160  2.0601  1.0185
  835MOL0     H15189   8.279   7.635   2.740 -1.0401  0.7451 -1.3475
  835MOL0     H15190   8.159   7.503   2.745 -1.2186 -0.1100  1.2650
  835MOL0     H15191   8.145   7.644   2.838 -0.2828  3.1964 -0.9233
  835MOL0     H15192   8.344   7.912   2.193  2.2361  2.0055 -1.2265
  835MOL0     H15193   8.529   7.881   2.028  1.8971  1.8430  0.3405
  835MOL0     H15194   8.927   7.827   2.190 -2.6428  0.4253  0.3646
  835MOL0     H15195   8.876   7.672   2.153 -0.9520  0.1837  1.1697
  835MOL0     H15196   9.080   7.721   2.018  0.6401  1.2846 -3.0753
  835MOL0     H15197   8.961   7.721   1.901  3.4645  1.5682 -2.8481
  835MOL0     H15198   9.124   7.930   1.929 -0.9756 -0.3128 -0.5447
  835MOL0     H15199   9.013   7.992   2.037 -1.6752 -0.8257 -0.2640
  835MOL0     H15200   8.821   7.929   1.857 -0.0689  1.1114  0.4664
  835MOL0     H15201   8.950   7.927   1.748  0.2857 -1.2696 -0.4497
  835MOL0     H15202   8.848   8.150   1.921 -2.9198  1.6234 -2.6945
  835MOL0     H15203   8.982   8.194   1.809 -1.1045  1.4198  0.2508
  835MOL0     H15204   8.765   8.252   1.732 -2.1771 -0.1806 -1.1726
  835MOL0     H15205   8.713   8.081   1.745  1.4397 -0.8653 -2.0589
  835MOL0     H15206   8.921   8.055   1.575 -1.8297 -1.5505 -2.2091
  835MOL0     H15207   8.922   8.219   1.562  3.6572 -2.4800 -0.8185
  835MOL0     H15208   8.749   8.209   1.387 -0.5599  0.9968  0.6071
  835MOL0     H15209   8.651   8.127   1.504 -0.8272 -2.3106 -0.9063
  835MOL0     H15210   8.788   7.739   2.337  0.8032  0.4406  0.5742
  835MOL0     H15211   8.601   7.724   2.488  1.4428 -6.3213 -2.0435
  835MOL0     H15212   8.110   7.906   2.370  0.9124  0.1689  0.3950
  835MOL0     H15213   7.894   7.946   2.431  1.3881 -2.0581 -2.3428
  835MOL0     H15214   6.563   6.793   2.283  3.0344 -0.0826 -3.4979
  835MOL0     H15215   6.445   6.571   2.344 -2.9053 -0.5300  0.5720
  835MOL0     H15216   5.954   6.376   2.360 -1.5202 -1.0428  0.1098
  835MOL0     H15217   5.833   6.151   2.386 -1.0868 -1.4462 -1.9433
  835MOL0     H15218   5.911   5.887   2.071  0.3629  1.0654 -0.2956
  835MOL0     H15219   5.802   5.792   2.167  2.3459  0.3350  4.0640
  835MOL0     H15220   5.683   5.914   2.000  1.5583 -3.9923  0.8181
  835MOL0     H15221   5.737   6.068   2.062  2.1303 -0.0864 -1.9415
  835MOL0     H15222   5.597   5.855   2.240  1.2886 -1.3404 -1.6149
  835MOL0     H15223   5.614   6.014   2.287  0.1933 -3.4004  1.8932
  835MOL0     H15224   5.438   5.915   2.073  0.8573 -0.2831  0.6191
  835MOL0     H15225   5.457   6.092   2.094  0.6933 -0.4119  0.6352
  835MOL0     H15226   5.201   5.992   2.424 -4.1910 -2.5102 -3.1992
  835MOL0     H15227   6.092   5.959   2.134 -2.4061 -2.5378  1.1303
  835MOL0     H15228   6.368   6.166   2.145  0.3031  0.0114  1.4762
  835MOL0     H15229   6.281   6.071   2.029  0.6144  1.5258 -1.4526
  835MOL0     H15230   6.270   6.243   2.008  0.9755  0.1230  0.5344
  836MOL0     O15231   7.843   7.032   6.159  0.0776 -0.1026 -0.7098
  836MOL0     C15232   7.796   7.094   6.255  0.5662  0.5516 -0.5861
  836MOL0     O15233   7.752   7.225   6.257  0.9467 -0.6256  0.7603
  836MOL0     C15234   7.789   7.305   6.154  0.5835  0.1402 -0.4853
  836MOL0     C15235   7.701   7.407   6.101 -0.2282  0.0061  0.2475
  836MOL0     C15236   7.741   7.477   5.982 -0.5045 -1.2727  0.5046
  836MOL0     C15237   7.873   7.473   5.928 -0.1965  0.0834  0.1938
  836MOL0     O15238   7.929   7.565   5.835  1.0626  0.3428  0.0282
  836MOL0     C15239   7.892   7.709   5.841  0.3314 -0.6569 -0.4144
  836MOL0     C15240   7.960   7.788   5.728  0.6082 -1.0472 -0.7953
  836MOL0     C15241   8.111   7.763   5.721  1.0193 -0.2816 -0.5445
  836MOL0     C15242   8.174   7.829   5.605 -1.3246 -0.7509  0.0381
  836MOL0     C15243   8.330   7.859   5.627  0.8713 -0.0333 -0.9426
  836MOL0     C15244   8.399   7.911   5.503  0.5613  0.9637  0.3526
  836MOL0     C15245   8.366   7.838   5.376  0.8938 -0.1587  0.2142
  836MOL0     C15246   8.448   7.869   5.251 -0.2681 -0.3756  0.3034
  836MOL0     N15247   8.448   8.015   5.215 -0.7280  0.5324 -0.3177
  836MOL0     C15248   8.538   8.105   5.264 -0.0766 -0.3621  0.1833
  836MOL0     C15249   8.513   8.224   5.197 -0.4326 -0.9970 -0.0173
  836MOL0     C15250   8.581   8.355   5.229 -0.2562  0.0159 -0.6342
  836MOL0     C15251   8.520   8.434   5.335 -0.2788 -1.1747 -0.2068
  836MOL0     C15252   8.572   8.381   5.476  0.1244  0.7874  2.1428
  836MOL0     C15253   8.507   8.458   5.589 -0.2098 -0.2980 -0.1437
  836MOL0     O15254   8.539   8.597   5.581 -0.3691 -0.7055 -0.5298
  836MOL0     C15255   8.484   8.682   5.672 -0.4822 -0.3950  0.8917
  836MOL0     C15256   8.432   8.654   5.803  0.3499 -0.0388 -0.2289
  836MOL0     C15257   8.379   8.753   5.880 -0.1894  0.1074 -0.6787
  836MOL0     C15258   8.325   8.703   6.011 -0.0697 -0.4599 -0.0523
  836MOL0     C15259   8.390   8.889   5.852 -0.6517  0.0561  0.5920
  836MOL0     C15260   8.372   8.997   5.950 -0.5005 -0.8762 -0.1547
  836MOL0     O15261   8.359   9.124   5.885 -0.0964  0.6966  0.5036
  836MOL0     C15262   8.324   9.223   5.966 -1.4356  0.8777 -0.1171
  836MOL0     C15263   8.198   9.224   6.033 -0.1448 -1.2819 -0.1692
  836MOL0     C15264   8.171   9.331   6.122 -0.3971  0.8320 -0.4681
  836MOL0     C15265   8.248   9.439   6.124 -0.7952 -0.5875  0.0681
  836MOL0     O15266   8.196   9.551   6.174 -0.3403  0.2239  0.9811
  836MOL0     C15267   8.087   9.602   6.095 -0.1349  0.2508 -1.1408
  836MOL0     C15268   8.089   9.753   6.120 -0.7066  0.1367  1.2455
  836MOL0     C15269   8.209   9.815   6.059 -0.1848 -0.2403  0.8355
  836MOL0     C15270   8.192   9.968   6.044  0.0429  0.4217  0.3393
  836MOL0     C15271   8.305  10.052   5.968 -0.3802  1.0335  0.1828
  836MOL0     C15272   8.257  10.186   5.923  0.2763 -0.2268  0.2306
  836MOL0     C15273   8.242  10.289   6.037 -0.1088 -0.8720 -0.6923
  836MOL0     C15274   8.192  10.424   5.992  0.8671  0.0923  0.5877
  836MOL0    Cl15275   8.213  10.522   6.138 -0.4083 -0.2999  0.5553
  836MOL0     C15276   8.363   9.436   6.051 -0.7117 -0.3592  1.0741
  836MOL0     C15277   8.413   9.332   5.972  0.0141 -0.2194  0.3577
  836MOL0     O15278   8.383   8.980   6.076  0.3375 -1.0753 -0.4092
  836MOL0     C15279   8.445   8.914   5.721  0.1574  0.4353  0.0922
  836MOL0     C15280   8.488   8.811   5.637 -0.2120  0.0178  0.3958
  836MOL0     N15281   8.421   8.197   5.100 -0.0776 -0.0898 -0.9044
  836MOL0     N15282   8.380   8.080   5.113 -0.1789  0.4353 -0.9667
  836MOL0     C15283   7.960   7.379   5.991 -0.1288 -0.2668  0.5677
  836MOL0     C15284   7.915   7.302   6.095  0.9761  0.2356  0.8139
  836MOL0     C15285   7.820   7.023   6.380  0.0540 -0.0509 -0.1418
  836MOL0     C15286   7.844   7.116   6.490 -0.1948  0.9554  0.9159
  836MOL0     C15287   7.855   7.066   6.622  0.5306 -0.1533  0.3487
  836MOL0     C15288   7.827   6.927   6.641 -0.0015 -0.3196 -0.2736
  836MOL0     O15289   7.847   6.882   6.773  0.0100 -0.2047  0.2724
  836MOL0     C15290   7.783   6.766   6.818 -0.3691 -0.7338  0.0152
  836MOL0     C15291   7.820   6.752   6.963  0.2754  0.4331 -0.1123
  836MOL0     C15292   7.725   6.647   7.027 -0.4774 -1.0749 -0.2888
  836MOL0     C15293   7.733   6.504   6.970 -1.2413 -0.3479 -0.0381
  836MOL0     C15294   7.869   6.444   7.005  0.3411 -1.1157  0.1942
  836MOL0     C15295   7.983   6.400   7.027 -0.7997  0.4502 -0.4953
  836MOL0     C15296   7.812   6.834   6.537 -0.6265 -1.0821  0.6026
  836MOL0     C15297   7.804   6.886   6.404  0.5654 -0.0525 -0.7291
  836MOL0     C15298   7.782   6.776   6.304  0.1694  0.1990 -0.4785
  836MOL0     H15299   7.603   7.439   6.134 -0.5318  2.1211 -2.3755
  836MOL0     H15300   7.664   7.538   5.936  1.3205  1.3053  0.6884
  836MOL0     H15301   7.932   7.749   5.935  0.0442 -1.5688  0.1060
  836MOL0     H15302   7.782   7.712   5.837  0.3593 -1.0455 -2.3922
  836MOL0     H15303   7.909   7.756   5.636 -2.5493  0.3161  0.3108
  836MOL0     H15304   7.932   7.894   5.731 -2.5283 -1.7876  0.2703
  836MOL0     H15305   8.160   7.791   5.815  0.5669 -2.7062  0.4894
  836MOL0     H15306   8.126   7.656   5.704  1.1425 -0.6675  1.6191
  836MOL0     H15307   8.166   7.771   5.512  1.0923  2.1491 -2.1809
  836MOL0     H15308   8.125   7.925   5.590  0.0326  0.3259  2.0802
  836MOL0     H15309   8.381   7.766   5.653  0.8630  0.0856 -0.4790
  836MOL0     H15310   8.343   7.928   5.712  2.8329  0.3493 -1.5033
  836MOL0     H15311   8.363   8.012   5.483  0.2278  0.3725 -2.5519
  836MOL0     H15312   8.508   7.916   5.508  0.6183  0.7442 -0.5704
  836MOL0     H15313   8.265   7.865   5.345  0.3559 -0.5612  1.5548
  836MOL0     H15314   8.370   7.732   5.404  4.9130 -0.1743  0.2787
  836MOL0     H15315   8.550   7.832   5.266  0.1087  0.7750  0.6857
  836MOL0     H15316   8.387   7.821   5.173 -2.2822  0.4305  1.3020
  836MOL0     H15317   8.603   8.093   5.350  0.1038  3.1824  0.7019
  836MOL0     H15318   8.564   8.418   5.141 -2.3539  0.6604  0.1563
  836MOL0     H15319   8.685   8.340   5.260 -0.3525 -0.3454 -0.4764
  836MOL0     H15320   8.544   8.540   5.320  2.8496 -1.3711  2.2691
  836MOL0     H15321   8.411   8.425   5.339 -0.3307 -0.3247  1.6607
  836MOL0     H15322   8.532   8.280   5.478  0.6831  0.3613 -1.4495
  836MOL0     H15323   8.681   8.379   5.481  0.3781  2.5628 -0.5406
  836MOL0     H15324   8.398   8.457   5.582 -0.3995 -0.8744  2.1170
  836MOL0     H15325   8.531   8.418   5.688  3.5374  1.1844 -0.2799
  836MOL0     H15326   8.446   8.556   5.847 -2.0900  0.5365  2.0707
  836MOL0     H15327   8.395   8.724   6.093  2.6394  0.8544 -2.5014
  836MOL0     H15328   8.306   8.595   6.006  3.6996 -1.4176  2.0724
  836MOL0     H15329   8.240   8.758   6.051 -0.6579 -0.8556 -0.7428
  836MOL0     H15330   8.134   9.136   6.042 -1.7373 -0.3678 -1.8890
  836MOL0     H15331   8.089   9.326   6.193 -1.2115 -0.5983 -1.4599
  836MOL0     H15332   8.105   9.586   5.988 -0.1351 -2.1337 -0.8387
  836MOL0     H15333   7.995   9.550   6.125  1.3128 -1.4527  0.5592
  836MOL0     H15334   8.002   9.802   6.074  0.3706 -0.9379 -2.2773
  836MOL0     H15335   8.097   9.785   6.224 -2.5207 -0.0959  1.4986
  836MOL0     H15336   8.213   9.766   5.961 -3.9835  0.0354  0.3829
  836MOL0     H15337   8.304   9.791   6.108  0.6703 -1.4145 -1.2244
  836MOL0     H15338   8.180  10.007   6.146 -1.9654 -1.0199  0.7024
  836MOL0     H15339   8.092   9.985   6.004 -0.0770 -0.0228  0.4443
  836MOL0     H15340   8.399  10.067   6.022  0.3115  0.7814 -0.9171
  836MOL0     H15341   8.333  10.001   5.875 -0.7124 -0.2394  0.7463
  836MOL0     H15342   8.159  10.183   5.874 -0.7995 -0.0273  2.2698
  836MOL0     H15343   8.324  10.224   5.845 -1.4159  0.4763 -0.9442
  836MOL0     H15344   8.346  10.298   6.068  0.3047 -2.3398 -1.5150
  836MOL0     H15345   8.178  10.246   6.115  3.4440 -4.3907  0.6486
  836MOL0     H15346   8.087  10.413   5.963  1.0494 -1.4069  0.4042
  836MOL0     H15347   8.255  10.468   5.915  0.6652 -0.4736  0.0949
  836MOL0     H15348   8.412   9.533   6.048 -2.6354  0.6668  1.0859
  836MOL0     H15349   8.503   9.351   5.913  0.0116 -3.0863 -0.6963
  836MOL0     H15350   8.449   9.015   5.683 -0.7578  0.5762  0.3397
  836MOL0     H15351   8.522   8.827   5.535 -1.0315 -0.6443  0.0075
  836MOL0     H15352   8.065   7.380   5.964 -0.6650  0.5485 -1.6402
  836MOL0     H15353   7.989   7.225   6.118  0.3284 -1.5475 -2.4063
  836MOL0     H15354   7.850   7.223   6.475 -3.7923  1.0430 -1.0634
  836MOL0     H15355   7.890   7.130   6.703 -1.3467  2.6240 -0.8697
  836MOL0     H15356   7.674   6.772   6.807 -0.1020  1.7890 -2.5289
  836MOL0     H15357   7.824   6.683   6.760  0.8846  0.0331 -0.2410
  836MOL0     H15358   7.803   6.846   7.017  1.5537  0.4693  0.2627
  836MOL0     H15359   7.919   6.708   6.976 -0.4943 -1.1435  0.6450
  836MOL0     H15360   7.735   6.648   7.136 -0.2450  2.7761 -0.1851
  836MOL0     H15361   7.620   6.679   7.019 -0.2820  0.0457  1.2069
  836MOL0     H15362   7.712   6.508   6.863 -2.8862  0.3936  0.2911
  836MOL0     H15363   7.655   6.439   7.010  0.7338 -3.1026 -0.3628
  836MOL0     H15364   8.076   6.357   7.056 -1.0785 -0.2184 -0.5722
  836MOL0     H15365   7.779   6.733   6.556 -1.6321 -1.3258 -2.0271
  836MOL0     H15366   7.738   6.683   6.341  0.1084 -0.3594 -1.8990
  836MOL0     H15367   7.724   6.803   6.216  0.9164 -0.6946 -1.2634
  836MOL0     H15368   7.874   6.759   6.246  0.1731  3.3021 -1.5256
  837MOL0     O15369   1.945   6.406  11.255 -0.4855  0.5583  0.0288
  837MOL0     C15370   1.979   6.308  11.194  0.0196  0.6890 -1.3236
  837MOL0     O15371   2.064   6.311  11.096  0.1801  0.8717 -0.3558
  837MOL0     C15372   2.126   6.430  11.068 -0.1488 -0.0234  0.1799
  837MOL0     C15373   2.226   6.475  11.147  0.1112 -0.9019  0.2255
  837MOL0     C15374   2.290   6.586  11.111 -0.0464 -0.5978 -0.2689
  837MOL0     C15375   2.257   6.663  11.002 -0.0754  0.8305 -0.2418
  837MOL0     O15376   2.302   6.776  10.957 -0.5468 -0.0333  0.1884
  837MOL0     C15377   2.392   6.856  11.043  0.3110 -0.6164  1.2143
  837MOL0     C15378   2.320   6.940  11.141 -0.9551 -0.5006  0.8372
  837MOL0     C15379   2.255   7.048  11.055 -0.2999  0.3922 -0.5341
  837MOL0     C15380   2.208   7.169  11.140  0.2482 -0.7112  0.3411
  837MOL0     C15381   2.148   7.276  11.053 -0.2295 -0.1710 -0.6213
  837MOL0     C15382   2.206   7.412  11.085 -0.1134 -0.4913 -0.3344
  837MOL0     C15383   2.153   7.524  10.987  0.5749  0.0097  0.4105
  837MOL0     C15384   2.220   7.521  10.844 -0.2318  0.3017 -0.2169
  837MOL0     N15385   2.327   7.621  10.825  0.3105 -0.1343 -0.2869
  837MOL0     C15386   2.428   7.641  10.907 -0.8422 -0.1789 -1.1303
  837MOL0     C15387   2.496   7.748  10.867  1.1336 -0.1774 -0.0627
  837MOL0     C15388   2.615   7.800  10.942  1.0432  0.3614 -0.8320
  837MOL0     C15389   2.740   7.835  10.859 -0.5477  0.3884 -0.1430
  837MOL0     C15390   2.858   7.854  10.953 -1.2317 -0.1842 -0.1698
  837MOL0     C15391   2.919   7.728  11.025 -0.3887 -0.5973  0.1692
  837MOL0     O15392   2.957   7.638  10.920  0.1447 -0.8502 -0.2139
  837MOL0     C15393   3.088   7.575  10.924  0.9638 -0.3306 -0.2733
  837MOL0     C15394   3.202   7.635  10.975  0.1737  0.1575  0.5353
  837MOL0     C15395   3.329   7.575  10.968 -0.4241  0.3633 -0.8830
  837MOL0     C15396   3.445   7.641  11.044 -0.0326 -0.5683  0.4606
  837MOL0     C15397   3.341   7.457  10.894 -1.5330 -0.3466  0.8139
  837MOL0     C15398   3.479   7.399  10.871  0.0829 -1.0578  0.1767
  837MOL0     O15399   3.575   7.485  10.830  0.0917 -1.0276 -0.1424
  837MOL0     C15400   3.696   7.435  10.798  0.3886 -0.0814  0.6902
  837MOL0     C15401   3.746   7.456  10.664  0.3638  0.2823  0.0168
  837MOL0     C15402   3.877   7.410  10.631 -0.5611  0.8027 -0.4949
  837MOL0     C15403   3.954   7.346  10.731 -0.1576  0.1053  0.9121
  837MOL0     O15404   4.079   7.302  10.701  0.0267  0.1283 -0.6622
  837MOL0     C15405   4.082   7.177  10.622  0.6674  0.0929 -0.3561
  837MOL0     C15406   4.203   7.105  10.685  0.2536 -0.1016 -0.0343
  837MOL0     C15407   4.236   6.991  10.601 -0.6697 -0.0482 -0.0661
  837MOL0     C15408   4.341   6.912  10.691  0.6485 -0.2434 -0.1748
  837MOL0     C15409   4.408   6.793  10.617 -0.8503  0.7539  0.2679
  837MOL0     C15410   4.559   6.816  10.599 -0.3364 -0.0910  0.0290
  837MOL0     C15411   4.644   6.702  10.545  0.4631  0.3585  0.1008
  837MOL0     C15412   4.586   6.661  10.413 -0.1581 -0.2681  0.2391
  837MOL0    Cl15413   4.723   6.562  10.353 -0.1537 -0.0191 -0.3008
  837MOL0     C15414   3.903   7.322  10.861 -0.9742 -0.0428  1.1502
  837MOL0     C15415   3.774   7.364  10.893 -0.9461 -1.6579 -0.3792
  837MOL0     O15416   3.484   7.279  10.874 -0.6384  0.1948  0.8735
  837MOL0     C15417   3.225   7.393  10.851  0.6741 -1.0670 -0.7977
  837MOL0     C15418   3.102   7.451  10.859 -0.6197  0.2849 -0.4399
  837MOL0     N15419   2.434   7.786  10.745  0.4057  0.4078  0.4451
  837MOL0     N15420   2.338   7.703  10.712 -0.4736 -0.0917 -0.6671
  837MOL0     C15421   2.164   6.602  10.914 -0.1906  0.2761 -0.8020
  837MOL0     C15422   2.093   6.489  10.951 -0.1850 -1.0773  0.6658
  837MOL0     C15423   1.911   6.179  11.232  0.0973  0.6420  0.6637
  837MOL0     C15424   1.871   6.093  11.134  0.6233  0.4397 -0.2982
  837MOL0     C15425   1.798   5.978  11.165  0.4498 -0.6891 -1.5440
  837MOL0     C15426   1.775   5.946  11.301 -0.1274  0.1398 -0.3300
  837MOL0     O15427   1.703   5.835  11.343  0.6802  0.6816  0.4022
  837MOL0     C15428   1.660   5.799  11.476 -0.0157 -0.5025 -0.1578
  837MOL0     C15429   1.773   5.714  11.537 -0.3823 -1.0441  0.7792
  837MOL0     C15430   1.742   5.638  11.666  0.0890  0.3479  0.0724
  837MOL0     C15431   1.853   5.618  11.759  0.9710 -0.5710 -0.2468
  837MOL0     C15432   1.872   5.741  11.836  0.8837  0.7392  0.2517
  837MOL0     C15433   1.885   5.839  11.908 -1.1431 -0.2527 -0.1596
  837MOL0     C15434   1.815   6.034  11.398  0.8571  0.0144  0.0324
  837MOL0     C15435   1.891   6.144  11.370  0.5383 -0.4774 -0.3726
  837MOL0     C15436   1.961   6.220  11.484  0.7661 -0.6195  0.5801
  837MOL0     H15437   2.256   6.428  11.240  0.3288  1.2506  1.2940
  837MOL0     H15438   2.376   6.627  11.165  0.0670  2.4652 -2.5395
  837MOL0     H15439   2.461   6.913  10.980 -0.8185 -0.1536  0.3674
  837MOL0     H15440   2.461   6.787  11.094  0.6159 -2.4039 -1.4076
  837MOL0     H15441   2.245   6.879  11.192 -0.3700 -1.9740  0.0105
  837MOL0     H15442   2.399   6.985  11.203 -0.0235 -2.0571  0.8333
  837MOL0     H15443   2.322   7.091  10.980  0.0442 -1.2625 -1.2156
  837MOL0     H15444   2.161   7.010  11.014 -1.6409  0.9770  1.8032
  837MOL0     H15445   2.134   7.145  11.217  1.6889  1.9065  2.6726
  837MOL0     H15446   2.286   7.213  11.203  1.1952 -2.3932  0.4097
  837MOL0     H15447   2.040   7.277  11.072 -0.6175 -1.0979 -2.6159
  837MOL0     H15448   2.170   7.251  10.949  2.0457  0.9565 -0.4748
  837MOL0     H15449   2.177   7.448  11.185  1.1430  3.4730 -1.2195
  837MOL0     H15450   2.314   7.401  11.095 -0.0805  0.6894  0.9580
  837MOL0     H15451   2.164   7.626  11.025 -2.0465  0.0934  1.1170
  837MOL0     H15452   2.048   7.497  10.971  0.2164  1.6859 -0.2385
  837MOL0     H15453   2.266   7.425  10.819 -0.9723  0.5444 -2.7399
  837MOL0     H15454   2.144   7.529  10.766 -1.4851 -0.3945  0.8858
  837MOL0     H15455   2.432   7.575  10.993  0.8789  0.6112 -0.5447
  837MOL0     H15456   2.632   7.731  11.025 -2.7879  1.0002  0.7098
  837MOL0     H15457   2.587   7.893  10.993 -1.9814 -1.1208  0.4456
  837MOL0     H15458   2.756   7.764  10.777 -2.9136  2.3026 -2.4176
  837MOL0     H15459   2.739   7.930  10.806  0.0774 -0.7837 -2.4071
  837MOL0     H15460   2.939   7.903  10.899 -0.6074 -0.7280  0.2580
  837MOL0     H15461   2.832   7.923  11.034 -0.4355 -0.6474  0.4970
  837MOL0     H15462   3.005   7.766  11.081  0.4877 -1.4962 -0.5253
  837MOL0     H15463   2.846   7.679  11.091 -0.4210 -0.1585  0.4639
  837MOL0     H15464   3.193   7.734  11.019 -2.6545  0.3760 -0.3218
  837MOL0     H15465   3.515   7.569  11.086 -0.2611 -1.7750 -1.1352
  837MOL0     H15466   3.400   7.673  11.138 -4.4285 -3.5538 -0.3167
  837MOL0     H15467   3.492   7.715  10.978  1.0587 -0.9465  0.8099
  837MOL0     H15468   3.686   7.512  10.593  1.4624 -0.7635 -1.8103
  837MOL0     H15469   3.910   7.418  10.528 -0.7067  2.5048 -0.4412
  837MOL0     H15470   3.987   7.123  10.627  1.2522 -1.2170 -2.1457
  837MOL0     H15471   4.096   7.203  10.517 -1.3978 -1.1214 -1.0095
  837MOL0     H15472   4.286   7.176  10.692 -1.0631  1.7806 -2.2266
  837MOL0     H15473   4.188   7.079  10.790  2.2225 -0.5610  0.1832
  837MOL0     H15474   4.267   7.014  10.499 -0.9934  0.9057  0.0438
  837MOL0     H15475   4.144   6.935  10.582 -0.1667 -0.6063 -0.9340
  837MOL0     H15476   4.290   6.868  10.778  1.4758  3.7185  2.5582
  837MOL0     H15477   4.418   6.977  10.734  0.9757 -0.6663 -0.1147
  837MOL0     H15478   4.377   6.696  10.658 -7.8799  0.3382 -4.4007
  837MOL0     H15479   4.371   6.778  10.516  1.6761 -1.5242 -0.4650
  837MOL0     H15480   4.591   6.825  10.703  1.0721  1.0859 -0.4850
  837MOL0     H15481   4.585   6.905  10.541 -0.0896  0.2563  0.6701
  837MOL0     H15482   4.646   6.624  10.622 -4.2929  0.5132  0.7148
  837MOL0     H15483   4.746   6.733  10.522  0.4173 -1.6810 -3.5367
  837MOL0     H15484   4.573   6.758  10.364  0.6343  0.1344  0.8091
  837MOL0     H15485   4.491   6.609  10.418 -1.2896  1.7607  0.8469
  837MOL0     H15486   3.971   7.283  10.936 -1.2230 -4.2355 -0.5588
  837MOL0     H15487   3.736   7.360  10.994 -0.7377 -2.7783 -0.3321
  837MOL0     H15488   3.238   7.292  10.811 -2.0046 -3.4897  3.5963
  837MOL0     H15489   3.025   7.413  10.792 -1.5546  0.2853  0.6078
  837MOL0     H15490   2.150   6.649  10.817  1.1478  1.9900 -0.2192
  837MOL0     H15491   2.023   6.454  10.876  3.0946 -0.9469 -2.7539
  837MOL0     H15492   1.893   6.131  11.035 -0.4242  0.9328 -0.3606
  837MOL0     H15493   1.758   5.915  11.086 -1.4001 -0.1432 -1.1024
  837MOL0     H15494   1.634   5.885  11.539 -1.3909 -3.8441  4.3595
  837MOL0     H15495   1.571   5.736  11.474  0.0498 -0.5851 -0.4317
  837MOL0     H15496   1.861   5.777  11.556  0.0676 -2.4902  4.0937
  837MOL0     H15497   1.809   5.630  11.477  2.7439 -1.3367  2.8287
  837MOL0     H15498   1.654   5.679  11.716 -1.1204 -2.7631  0.7174
  837MOL0     H15499   1.714   5.535  11.643 -1.7636  1.0790 -1.2229
  837MOL0     H15500   1.950   5.591  11.715  2.9043  2.1273  2.0070
  837MOL0     H15501   1.834   5.541  11.834  3.4701 -1.3142 -0.2671
  837MOL0     H15502   1.901   5.928  11.966  2.0280 -1.8452  1.7045
  837MOL0     H15503   1.789   6.014  11.501  0.8362  0.6672  0.1598
  837MOL0     H15504   1.952   6.160  11.574 -0.1676  0.3763  1.1744
  837MOL0     H15505   2.065   6.228  11.450  0.8799  0.2984  1.0919
  837MOL0     H15506   1.928   6.324  11.497 -1.8204 -1.0787 -1.4405
  838MOL0     O15507  11.357   6.513   8.719 -1.4754 -0.7722  0.4100
  838MOL0     C15508  11.293   6.600   8.783 -0.7720 -0.5833 -0.1243
  838MOL0     O15509  11.183   6.661   8.737 -0.7594  0.7768  0.0637
  838MOL0     C15510  11.147   6.626   8.608 -0.2617 -0.1837 -0.0794
  838MOL0     C15511  11.233   6.651   8.501 -0.2970  0.2690  0.4483
  838MOL0     C15512  11.184   6.645   8.372 -0.8615  0.7051  0.2038
  838MOL0     C15513  11.045   6.611   8.347  0.7784  0.6316 -0.2709
  838MOL0     O15514  10.979   6.600   8.222  0.0816 -0.8540  0.1890
  838MOL0     C15515  11.044   6.653   8.109  0.5673 -0.5109  0.5887
  838MOL0     C15516  10.935   6.648   8.005  0.8716 -0.2450  0.5418
  838MOL0     C15517  10.956   6.715   7.862 -0.0618 -0.6901 -0.5337
  838MOL0     C15518  10.964   6.871   7.880  0.2669  0.7547  0.6170
  838MOL0     C15519  10.995   6.950   7.753 -0.0122  0.2545  0.2016
  838MOL0     C15520  10.973   7.096   7.783 -0.1133 -0.7584  0.2304
  838MOL0     C15521  10.977   7.201   7.668 -0.3495  0.9707 -0.1803
  838MOL0     C15522  10.849   7.175   7.576  0.2446 -0.8348 -0.3711
  838MOL0     N15523  10.844   7.264   7.465  0.3263  0.4454 -0.6778
  838MOL0     C15524  10.809   7.225   7.340 -0.3307  0.8961 -1.3093
  838MOL0     C15525  10.794   7.330   7.267 -0.8154 -0.3543  1.0423
  838MOL0     C15526  10.781   7.328   7.123  0.2427  0.0459 -0.7101
  838MOL0     C15527  10.917   7.335   7.062 -0.2095 -0.2547 -0.1722
  838MOL0     C15528  10.922   7.323   6.907 -0.7953  0.8834  0.0361
  838MOL0     C15529  10.840   7.435   6.841 -1.5846  0.9482 -0.0241
  838MOL0     O15530  10.866   7.428   6.701  1.3373 -0.0574  0.6821
  838MOL0     C15531  10.917   7.544   6.649  0.1662 -0.2477 -1.2976
  838MOL0     C15532  11.048   7.561   6.604 -0.2275  0.4279  0.3733
  838MOL0     C15533  11.105   7.688   6.561  0.5667 -0.4339  0.1777
  838MOL0     C15534  11.246   7.693   6.516 -0.2249  0.2863  0.6519
  838MOL0     C15535  11.016   7.802   6.578 -0.3021 -0.4758  0.1607
  838MOL0     C15536  11.053   7.945   6.578  0.6415  0.2273  0.3732
  838MOL0     O15537  10.964   8.037   6.610  0.0634 -0.0411 -0.2289
  838MOL0     C15538  10.988   8.172   6.597  0.3659 -0.8510  0.4432
  838MOL0     C15539  11.013   8.235   6.473  0.2946  0.4793  0.1414
  838MOL0     C15540  11.035   8.373   6.465 -0.2416 -0.7163  0.8723
  838MOL0     C15541  11.057   8.450   6.585  0.3973 -0.4554  0.2299
  838MOL0     O15542  11.086   8.584   6.562  0.2367  0.0825 -0.1508
  838MOL0     C15543  11.040   8.680   6.657 -0.7753  0.3156 -0.7024
  838MOL0     C15544  10.998   8.803   6.587 -0.5542 -0.6484 -0.8776
  838MOL0     C15545  10.955   8.914   6.683  0.1407 -0.0455  0.4680
  838MOL0     C15546  10.974   9.056   6.626 -0.8716  0.0574 -0.3147
  838MOL0     C15547  10.956   9.174   6.726  0.3673 -1.0621 -0.5766
  838MOL0     C15548  10.961   9.317   6.662  0.3864 -0.1212  0.5648
  838MOL0     C15549  10.852   9.332   6.562 -0.1581  0.4792  0.0216
  838MOL0     C15550  10.788   9.464   6.576  0.3499 -0.1306  0.3094
  838MOL0    Cl15551  10.674   9.453   6.721  0.3611  0.1529 -0.0237
  838MOL0     C15552  11.042   8.384   6.706  0.0390  0.3612 -0.8172
  838MOL0     C15553  11.004   8.250   6.716 -0.2844  0.7256 -0.1949
  838MOL0     O15554  11.166   7.970   6.550 -0.2911 -0.0340  0.5877
  838MOL0     C15555  10.881   7.777   6.612  0.1504  0.2409 -0.3135
  838MOL0     C15556  10.833   7.650   6.635  0.1201  0.9352  0.5309
  838MOL0     N15557  10.818   7.439   7.352  1.1647 -0.0361  0.7235
  838MOL0     N15558  10.823   7.401   7.474 -0.1517  0.4480  0.4641
  838MOL0     C15559  10.952   6.602   8.463 -0.9395  0.1125  0.7266
  838MOL0     C15560  11.008   6.603   8.590  0.3389  0.1849 -0.5171
  838MOL0     C15561  11.355   6.647   8.901 -0.5070  0.4006 -0.0590
  838MOL0     C15562  11.313   6.773   8.947 -0.0432 -0.3656  0.2503
  838MOL0     C15563  11.374   6.833   9.061  0.3815  0.2362 -0.0063
  838MOL0     C15564  11.486   6.777   9.126  0.3977  0.2277 -0.0365
  838MOL0     O15565  11.523   6.859   9.229 -0.9216  0.6516  0.4658
  838MOL0     C15566  11.616   6.809   9.329  0.0245 -1.4796 -0.4135
  838MOL0     C15567  11.562   6.838   9.461 -0.3761 -0.1916  0.0404
  838MOL0     C15568  11.538   6.985   9.483 -0.8400 -0.0009 -0.2698
  838MOL0     C15569  11.666   7.045   9.545 -0.6911  0.0496  0.0635
  838MOL0     C15570  11.678   7.056   9.689  0.4851  0.3506  0.4374
  838MOL0     C15571  11.686   7.096   9.801  0.3866  0.0783 -0.1029
  838MOL0     C15572  11.525   6.650   9.081 -0.3782 -1.0275 -0.1459
  838MOL0     C15573  11.465   6.581   8.974 -0.1397 -0.2651  1.2271
  838MOL0     C15574  11.519   6.441   8.937  0.3356  0.1477  0.2484
  838MOL0     H15575  11.340   6.662   8.513  0.3679 -2.5977 -1.6681
  838MOL0     H15576  11.246   6.673   8.287  1.1760 -2.5982  0.4086
  838MOL0     H15577  11.130   6.598   8.070  3.1068  1.3258  3.1441
  838MOL0     H15578  11.083   6.755   8.123  1.6696 -0.5081 -1.9939
  838MOL0     H15579  10.924   6.542   7.984  1.8311 -0.6424  1.9143
  838MOL0     H15580  10.845   6.688   8.053  0.2754 -2.9415  1.8129
  838MOL0     H15581  11.054   6.692   7.819 -0.0412  1.5669 -1.8751
  838MOL0     H15582  10.878   6.687   7.791  0.9601  0.0523 -2.0150
  838MOL0     H15583  10.871   6.908   7.924 -2.5080 -0.5315 -3.6010
  838MOL0     H15584  11.048   6.894   7.947  2.4788 -2.1014 -0.9906
  838MOL0     H15585  10.921   6.918   7.679  3.3960 -3.1169 -2.1379
  838MOL0     H15586  11.094   6.920   7.717  0.0245  0.2564  0.3009
  838MOL0     H15587  10.880   7.108   7.840  0.3514 -0.4010  0.9184
  838MOL0     H15588  11.052   7.134   7.847  1.0780 -2.2183 -0.3022
  838MOL0     H15589  11.063   7.168   7.609  0.1923 -1.7325  1.9124
  838MOL0     H15590  10.971   7.305   7.702  0.2395  0.9066  0.1304
  838MOL0     H15591  10.848   7.076   7.530  0.4816 -1.7781  1.5401
  838MOL0     H15592  10.758   7.193   7.633 -0.0573 -0.0081 -1.0947
  838MOL0     H15593  10.787   7.128   7.297  2.6656 -0.2122 -0.5368
  838MOL0     H15594  10.733   7.424   7.101 -0.3560  0.0938  0.6730
  838MOL0     H15595  10.719   7.244   7.091 -0.2680 -0.9577  2.5385
  838MOL0     H15596  10.957   7.434   7.085 -2.6856  1.0910 -1.3038
  838MOL0     H15597  10.969   7.247   7.101 -2.4789 -0.5126  2.5791
  838MOL0     H15598  11.023   7.317   6.865 -1.6223  0.1323 -1.9445
  838MOL0     H15599  10.881   7.231   6.865  1.2620  0.9721 -2.3921
  838MOL0     H15600  10.731   7.432   6.852 -1.3738  0.5377  2.3087
  838MOL0     H15601  10.861   7.536   6.877 -0.1728  1.5235 -2.2550
  838MOL0     H15602  11.113   7.473   6.607 -0.8943 -0.0576  0.7432
  838MOL0     H15603  11.304   7.770   6.567  0.4255  1.7625 -2.0909
  838MOL0     H15604  11.252   7.713   6.408 -0.8348 -2.6801 -0.0039
  838MOL0     H15605  11.295   7.599   6.542  0.9207  0.9465  0.9472
  838MOL0     H15606  11.017   8.186   6.376  2.2152  0.3747  0.2191
  838MOL0     H15607  11.049   8.413   6.365  2.0390 -2.2200  0.5058
  838MOL0     H15608  10.959   8.644   6.720  1.5393 -0.4653  2.0781
  838MOL0     H15609  11.130   8.699   6.717  0.3825  0.1283 -2.3119
  838MOL0     H15610  11.093   8.822   6.536  0.3401 -0.9891  0.5986
  838MOL0     H15611  10.920   8.788   6.512  0.4774 -0.4793 -2.0123
  838MOL0     H15612  11.008   8.902   6.778  1.0004 -1.1309 -0.1255
  838MOL0     H15613  10.848   8.899   6.705 -0.0694 -2.3825 -1.6653
  838MOL0     H15614  10.899   9.082   6.551 -0.6831  3.7883  0.6084
  838MOL0     H15615  11.070   9.065   6.576 -0.9454 -1.2139 -0.7185
  838MOL0     H15616  10.862   9.167   6.781 -1.3009 -2.0112 -3.3403
  838MOL0     H15617  11.044   9.177   6.791 -0.9129  3.5368  1.3918
  838MOL0     H15618  11.054   9.331   6.606 -0.4319  0.1215 -0.7958
  838MOL0     H15619  10.959   9.394   6.739  3.0147 -0.4130  0.9907
  838MOL0     H15620  10.780   9.250   6.556 -0.0441  0.2862  1.0949
  838MOL0     H15621  10.894   9.332   6.461  2.1835  1.2683  0.9211
  838MOL0     H15622  10.740   9.478   6.480  1.2866 -1.3391 -0.3695
  838MOL0     H15623  10.853   9.549   6.597 -1.1758  0.7519  1.6966
  838MOL0     H15624  11.058   8.433   6.802  2.0285  3.2857 -2.4909
  838MOL0     H15625  11.003   8.219   6.820 -2.6749 -0.0799 -0.4065
  838MOL0     H15626  10.810   7.859   6.615 -2.8513 -2.1955  1.8400
  838MOL0     H15627  10.730   7.627   6.659 -0.3047  1.3737 -0.7817
  838MOL0     H15628  10.848   6.582   8.442 -0.4497  0.8407 -3.2315
  838MOL0     H15629  10.939   6.603   8.674  0.1134 -1.1719 -0.6769
  838MOL0     H15630  11.236   6.830   8.897  2.4545 -0.0826 -3.7331
  838MOL0     H15631  11.336   6.929   9.095 -0.4225  0.3319 -1.1221
  838MOL0     H15632  11.629   6.701   9.323 -0.1124 -1.4799 -0.7138
  838MOL0     H15633  11.714   6.857   9.320 -0.1682 -1.0458 -0.2412
  838MOL0     H15634  11.613   6.798   9.550 -1.6623  1.7071  1.7248
  838MOL0     H15635  11.462   6.793   9.464 -1.1088  1.3851  0.3157
  838MOL0     H15636  11.520   7.052   9.399  1.2199  3.6285  1.9135
  838MOL0     H15637  11.451   7.003   9.546 -1.2979 -2.2905 -0.1697
  838MOL0     H15638  11.687   7.144   9.504  0.7924 -0.4301 -0.3869
  838MOL0     H15639  11.751   6.986   9.511 -0.7492  2.0321 -4.1308
  838MOL0     H15640  11.697   7.127   9.903  1.5208 -2.2502  0.5549
  838MOL0     H15641  11.603   6.591   9.129 -0.5008 -1.4027 -0.4009
  838MOL0     H15642  11.441   6.364   8.926 -0.5614  0.8387  1.4544
  838MOL0     H15643  11.576   6.455   8.845  0.4610 -1.1162  0.1143
  838MOL0     H15644  11.584   6.404   9.018 -0.3720  0.2185  0.8641
  839MOL0     O15645   7.527  10.348   1.516  0.0819 -0.2153  0.4974
  839MOL0     C15646   7.585  10.299   1.620  0.7252 -0.7450 -0.5067
  839MOL0     O15647   7.680  10.208   1.615 -0.7590  0.0828 -0.4982
  839MOL0     C15648   7.699  10.140   1.497 -0.0244 -0.0374 -0.4032
  839MOL0     C15649   7.810  10.182   1.411  0.2815 -0.2736  0.1613
  839MOL0     C15650   7.851  10.109   1.299  0.8032 -0.3220  0.6425
  839MOL0     C15651   7.777   9.988   1.277 -0.8382 -0.0671 -0.1040
  839MOL0     O15652   7.795   9.914   1.160  0.3011 -0.6168 -0.2625
  839MOL0     C15653   7.888   9.810   1.170 -0.7378  0.3914  0.0556
  839MOL0     C15654   7.988   9.801   1.045 -0.4572 -0.8764 -0.4407
  839MOL0     C15655   8.101   9.694   1.062  0.2489 -0.4775  1.0784
  839MOL0     C15656   8.168   9.672   0.918 -0.1819 -0.2267 -0.1161
  839MOL0     C15657   8.278   9.769   0.891 -0.5830  0.4485  0.7338
  839MOL0     C15658   8.411   9.697   0.920  0.0457  0.0268  0.4566
  839MOL0     C15659   8.525   9.786   0.893  0.1064 -0.1483 -0.1578
  839MOL0     C15660   8.540   9.832   0.741 -0.3364  1.1854 -0.4431
  839MOL0     N15661   8.659   9.903   0.726 -0.1487 -1.4205 -0.3547
  839MOL0     C15662   8.788   9.871   0.755  0.1506  0.4215  0.0349
  839MOL0     C15663   8.867   9.972   0.709 -0.1166  0.7248  0.6869
  839MOL0     C15664   9.029  10.000   0.716  0.2657 -0.0128  0.0707
  839MOL0     C15665   9.073  10.056   0.853 -0.0295  0.3738 -0.4337
  839MOL0     C15666   9.060   9.948   0.963 -0.5660 -0.9723  0.0895
  839MOL0     C15667   8.938   9.964   1.052  1.0287 -1.2837 -0.4986
  839MOL0     O15668   8.903   9.843   1.112 -0.9645 -0.6022  0.4493
  839MOL0     C15669   8.787   9.857   1.183 -0.7016 -1.0026 -0.5221
  839MOL0     C15670   8.754   9.745   1.259  0.2698 -1.3972 -0.0835
  839MOL0     C15671   8.634   9.724   1.332 -0.0572 -0.5188 -0.3206
  839MOL0     C15672   8.620   9.593   1.398  0.5082  0.1041  0.4128
  839MOL0     C15673   8.547   9.840   1.351  0.3996  0.0771  0.3847
  839MOL0     C15674   8.422   9.821   1.427 -0.2659 -0.3432 -0.3221
  839MOL0     O15675   8.308   9.872   1.376 -0.3961 -0.3419 -0.0377
  839MOL0     C15676   8.198   9.808   1.426  0.2396  0.5380 -0.2933
  839MOL0     C15677   8.173   9.675   1.410 -0.6074  1.2578  0.0895
  839MOL0     C15678   8.062   9.611   1.475 -0.2134  0.5933  0.4415
  839MOL0     C15679   7.981   9.683   1.550 -0.2173  0.0019  0.8347
  839MOL0     O15680   7.880   9.618   1.623 -0.1789  0.0958  0.5738
  839MOL0     C15681   7.747   9.645   1.602  0.2358  0.2254  0.5724
  839MOL0     C15682   7.719   9.592   1.457 -0.1156 -0.3655 -0.2621
  839MOL0     C15683   7.569   9.597   1.435  0.1174 -0.1364  0.3261
  839MOL0     C15684   7.537   9.559   1.288 -0.4686  0.0636  0.1211
  839MOL0     C15685   7.384   9.537   1.272  0.7867 -1.0165  0.2471
  839MOL0     C15686   7.355   9.476   1.139  0.1184  0.1796 -0.1732
  839MOL0     C15687   7.209   9.453   1.112  1.1652 -0.1179 -0.1832
  839MOL0     C15688   7.171   9.369   0.985 -0.4008  0.5587 -0.3531
  839MOL0    Cl15689   6.997   9.412   0.943 -0.2863  0.0044 -0.0617
  839MOL0     C15690   7.995   9.816   1.568 -0.6914  0.2985 -0.5947
  839MOL0     C15691   8.108   9.883   1.504 -1.2425 -0.3642 -0.3752
  839MOL0     O15692   8.430   9.777   1.544 -0.0888 -0.1571  0.5175
  839MOL0     C15693   8.587   9.960   1.288  0.6845  0.3849  0.1943
  839MOL0     C15694   8.703   9.968   1.210 -0.4240 -0.8310 -0.3567
  839MOL0     N15695   8.783  10.072   0.669  0.2510  0.2773  0.1868
  839MOL0     N15696   8.663  10.037   0.685  0.1202  0.3099  0.1398
  839MOL0     C15697   7.682   9.938   1.370  0.9447 -0.0377 -0.1441
  839MOL0     C15698   7.638  10.014   1.474  1.1206  0.5224  0.5715
  839MOL0     C15699   7.549  10.367   1.749 -0.0465  0.2514  0.6824
  839MOL0     C15700   7.630  10.348   1.860  0.5509 -0.4331 -0.4079
  839MOL0     C15701   7.596  10.398   1.983  0.1306 -0.0423 -0.3886
  839MOL0     C15702   7.481  10.471   2.000 -0.2055 -0.4989 -0.4926
  839MOL0     O15703   7.446  10.513   2.124  0.4798  0.3922 -0.7905
  839MOL0     C15704   7.356  10.618   2.136 -0.2276 -0.8455 -0.1906
  839MOL0     C15705   7.335  10.667   2.274  0.1170  0.7610  0.0107
  839MOL0     C15706   7.461  10.667   2.368  0.8914  0.3361 -0.0926
  839MOL0     C15707   7.406  10.643   2.514  0.1897  0.1863 -0.0163
  839MOL0     C15708   7.298  10.737   2.549  0.8240  0.3405  0.1689
  839MOL0     C15709   7.217  10.828   2.569  0.0107 -0.1259  0.1093
  839MOL0     C15710   7.397  10.491   1.893 -0.7724  0.4206  0.4256
  839MOL0     C15711   7.428  10.438   1.769  0.5401  0.4442 -0.5382
  839MOL0     C15712   7.325  10.475   1.661  0.4266  0.6466 -0.7238
  839MOL0     H15713   7.868  10.264   1.450 -0.9202  0.0975  1.2350
  839MOL0     H15714   7.936  10.146   1.242 -0.0222  1.6825  0.6182
  839MOL0     H15715   7.834   9.715   1.170 -0.6695  0.3119 -2.1050
  839MOL0     H15716   7.946   9.816   1.262  1.7954 -0.4640 -1.3856
  839MOL0     H15717   7.941   9.792   0.947  0.4754 -1.1041 -0.8747
  839MOL0     H15718   8.048   9.892   1.051  1.4457 -2.1158  0.0449
  839MOL0     H15719   8.181   9.723   1.132  1.2667  2.1128 -0.9846
  839MOL0     H15720   8.059   9.602   1.103  0.7785 -1.1817  0.0812
  839MOL0     H15721   8.205   9.569   0.914  1.1254  0.2520 -1.0335
  839MOL0     H15722   8.100   9.694   0.836  0.6913 -2.7778 -1.6359
  839MOL0     H15723   8.257   9.867   0.935 -1.9929  0.2309  0.6087
  839MOL0     H15724   8.283   9.777   0.782  0.0011  2.4818  0.8849
  839MOL0     H15725   8.419   9.642   1.014  0.9850  1.2496  1.1314
  839MOL0     H15726   8.412   9.617   0.845 -0.7149  1.4471 -1.1295
  839MOL0     H15727   8.620   9.740   0.922  0.8646  0.4814 -1.5415
  839MOL0     H15728   8.515   9.877   0.954  2.4973  1.7011 -2.2931
  839MOL0     H15729   8.537   9.754   0.665  3.6383  2.2134 -1.9377
  839MOL0     H15730   8.457   9.898   0.713 -3.7376 -1.4329  2.5900
  839MOL0     H15731   8.813   9.774   0.796 -1.7540 -0.3978 -0.5948
  839MOL0     H15732   9.056  10.065   0.632  0.8566 -0.5117 -0.1327
  839MOL0     H15733   9.093   9.916   0.686 -1.4689 -0.7581 -1.7775
  839MOL0     H15734   9.174  10.099   0.853 -0.7457  2.1715 -1.1550
  839MOL0     H15735   9.021  10.151   0.867  2.3539  1.3626  2.9372
  839MOL0     H15736   9.052   9.852   0.912  0.0772 -1.8389  1.5271
  839MOL0     H15737   9.145   9.948   1.032  0.8698 -1.6482 -1.6311
  839MOL0     H15738   8.950  10.050   1.118 -1.2805 -0.9619 -0.4179
  839MOL0     H15739   8.856   9.990   0.984  0.6340 -1.5280 -0.1223
  839MOL0     H15740   8.829   9.667   1.265 -0.6094 -2.3642 -1.0322
  839MOL0     H15741   8.528   9.588   1.458  0.5834 -0.1852  0.5074
  839MOL0     H15742   8.713   9.573   1.452  0.9458 -0.4897 -0.5430
  839MOL0     H15743   8.623   9.507   1.330 -2.8999 -0.1490  0.3860
  839MOL0     H15744   8.237   9.598   1.366 -1.3122 -0.3525  1.7295
  839MOL0     H15745   8.036   9.506   1.476  0.0042  0.5341  1.0845
  839MOL0     H15746   7.689   9.598   1.682 -1.7616  2.3998  0.5015
  839MOL0     H15747   7.726   9.752   1.613 -1.9807 -0.0099 -0.7138
  839MOL0     H15748   7.771   9.653   1.382 -3.6403  1.0589 -1.7800
  839MOL0     H15749   7.753   9.488   1.452 -1.1371 -0.7019 -0.3691
  839MOL0     H15750   7.535   9.700   1.451  1.9707  0.5831 -0.1472
  839MOL0     H15751   7.516   9.517   1.488  0.0346 -1.3238 -1.4502
  839MOL0     H15752   7.585   9.462   1.279  2.5637  1.0118  3.6655
  839MOL0     H15753   7.582   9.619   1.208  2.0433 -2.0819 -0.2138
  839MOL0     H15754   7.335   9.482   1.352  1.5873 -0.9294  0.8140
  839MOL0     H15755   7.342   9.638   1.263 -1.3271 -1.9854 -1.6144
  839MOL0     H15756   7.414   9.385   1.119 -2.5542 -1.7223  0.0579
  839MOL0     H15757   7.375   9.537   1.050 -0.6889 -0.6053 -0.9090
  839MOL0     H15758   7.159   9.549   1.099 -1.2367 -1.0142  1.6528
  839MOL0     H15759   7.150   9.404   1.190 -0.7187  0.7225 -1.0081
  839MOL0     H15760   7.174   9.262   1.010  2.3784  0.8914  1.1162
  839MOL0     H15761   7.246   9.392   0.909  0.5153  1.1704  0.7156
  839MOL0     H15762   7.928   9.870   1.635  2.0234 -0.0612  2.6477
  839MOL0     H15763   8.123   9.990   1.495  2.9027 -0.5866  1.5661
  839MOL0     H15764   8.536  10.055   1.296  2.9797  1.6174  1.1655
  839MOL0     H15765   8.737  10.061   1.166  1.3102 -0.6772  1.2080
  839MOL0     H15766   7.634   9.845   1.339  0.9206 -0.1942  0.3426
  839MOL0     H15767   7.549   9.987   1.530  1.1068  0.7516  0.6618
  839MOL0     H15768   7.725  10.302   1.834  0.6296  0.6890 -2.2963
  839MOL0     H15769   7.669  10.380   2.061  0.0104  1.2682  0.0646
  839MOL0     H15770   7.395  10.702   2.078 -1.9326 -0.7896 -1.3366
  839MOL0     H15771   7.259  10.603   2.088 -0.9549  2.5132 -0.0148
  839MOL0     H15772   7.254  10.607   2.318 -2.4502  3.3450 -0.9345
  839MOL0     H15773   7.290  10.766   2.267 -5.1832 -1.3947 -0.7057
  839MOL0     H15774   7.533  10.584   2.361 -0.4046 -0.9727  1.2378
  839MOL0     H15775   7.493  10.771   2.358 -2.5097  1.8376  2.6113
  839MOL0     H15776   7.490  10.640   2.584  0.5611 -2.5468 -0.4408
  839MOL0     H15777   7.360  10.545   2.528 -0.2278  0.2719 -0.7414
  839MOL0     H15778   7.144  10.905   2.587 -1.0578 -1.7064  3.2299
  839MOL0     H15779   7.318  10.566   1.897  1.1784  2.6276  0.1465
  839MOL0     H15780   7.362  10.551   1.592  0.6748  0.0709 -1.2421
  839MOL0     H15781   7.299  10.386   1.602 -0.4630 -1.6707  2.8612
  839MOL0     H15782   7.231  10.518   1.698  1.3763  1.0067  1.3799
  840MOL0     O15783   6.883   4.611   8.893 -1.1032 -0.3758  0.2618
  840MOL0     C15784   6.829   4.687   8.819  0.6288 -0.5185  0.4395
  840MOL0     O15785   6.731   4.781   8.857 -0.9393  0.1532 -0.0386
  840MOL0     C15786   6.661   4.765   8.971  0.4250 -0.7994  0.3675
  840MOL0     C15787   6.612   4.883   9.041 -0.1172 -0.0729  0.4409
  840MOL0     C15788   6.545   4.870   9.167  0.4618  0.0469 -1.0597
  840MOL0     C15789   6.532   4.747   9.235 -0.8243 -0.1376 -0.3765
  840MOL0     O15790   6.476   4.744   9.361  0.7404 -0.8836  0.0013
  840MOL0     C15791   6.430   4.619   9.425  0.7449  0.1246  0.3873
  840MOL0     C15792   6.295   4.633   9.497 -0.0057  0.0210 -0.4201
  840MOL0     C15793   6.251   4.513   9.579 -0.6163 -1.1581  0.0490
  840MOL0     C15794   6.121   4.544   9.660  0.1925  0.6006 -1.5330
  840MOL0     C15795   6.080   4.424   9.753  0.4119 -0.8642 -0.3435
  840MOL0     C15796   5.956   4.455   9.819  0.5460  0.2702 -0.0233
  840MOL0     C15797   5.952   4.577   9.918  0.3929  0.3313 -0.2236
  840MOL0     C15798   5.862   4.547  10.043 -0.1652 -0.1755 -0.0005
  840MOL0     N15799   5.716   4.554  10.025 -0.4072  0.1148  0.4757
  840MOL0     C15800   5.662   4.663   9.982 -0.7179 -0.8898 -0.8446
  840MOL0     C15801   5.536   4.623   9.949  0.9693  0.8494 -0.2488
  840MOL0     C15802   5.448   4.736   9.886 -0.6650  0.4023 -0.3507
  840MOL0     C15803   5.446   4.730   9.725  0.0572  0.5317  0.0172
  840MOL0     C15804   5.587   4.782   9.676  0.6866 -1.2449  0.0059
  840MOL0     C15805   5.650   4.673   9.585 -0.3331  0.2970  0.3813
  840MOL0     O15806   5.773   4.734   9.540 -0.2706 -0.0426 -0.8618
  840MOL0     C15807   5.855   4.682   9.452 -0.7405 -0.1907  0.2685
  840MOL0     C15808   5.833   4.552   9.401 -0.1748 -0.9275  0.1851
  840MOL0     C15809   5.913   4.497   9.292  0.4339  0.6699 -0.6150
  840MOL0     C15810   5.894   4.352   9.261  0.1623 -0.5127  0.5125
  840MOL0     C15811   6.000   4.580   9.232 -0.2623  0.3898  0.7070
  840MOL0     C15812   6.063   4.551   9.102  0.2024 -0.6233 -0.1701
  840MOL0     O15813   6.205   4.565   9.085  0.1110  0.7425  1.0153
  840MOL0     C15814   6.245   4.584   8.954  0.3488 -0.7217 -0.5073
  840MOL0     C15815   6.309   4.702   8.931  1.1033 -0.9356  1.0020
  840MOL0     C15816   6.368   4.730   8.805 -0.2463 -0.3957  0.0647
  840MOL0     C15817   6.354   4.650   8.698 -0.4219  0.9470 -1.0742
  840MOL0     O15818   6.404   4.678   8.574 -0.2831 -0.3105 -0.2357
  840MOL0     C15819   6.544   4.649   8.547  0.0502 -0.5992 -0.1667
  840MOL0     C15820   6.565   4.510   8.500 -0.5877 -0.0460 -0.4136
  840MOL0     C15821   6.518   4.479   8.358  0.1637 -0.4414  0.3610
  840MOL0     C15822   6.629   4.459   8.244  0.1242 -0.0198 -0.1721
  840MOL0     C15823   6.557   4.456   8.111  0.3440 -0.6000 -0.0897
  840MOL0     C15824   6.661   4.465   8.003 -0.1752  0.6732  0.5127
  840MOL0     C15825   6.607   4.440   7.860  0.0068 -0.4549  0.6398
  840MOL0     C15826   6.669   4.537   7.753  0.5258  0.4949  0.3500
  840MOL0    Cl15827   6.855   4.501   7.742 -0.2942  0.0731  0.5406
  840MOL0     C15828   6.273   4.534   8.721 -0.4612  0.2137 -0.0318
  840MOL0     C15829   6.220   4.500   8.848 -0.6774 -0.3268 -0.0115
  840MOL0     O15830   5.981   4.542   9.016  0.4304 -0.6458 -0.3776
  840MOL0     C15831   6.027   4.706   9.278  0.4564 -0.0320  0.2691
  840MOL0     C15832   5.959   4.757   9.387 -1.0129 -0.1832  0.6891
  840MOL0     N15833   5.521   4.484   9.949  0.2769  0.1928 -0.2379
  840MOL0     N15834   5.639   4.441   9.997  0.9995  0.3452  0.4306
  840MOL0     C15835   6.572   4.632   9.165  0.5738  0.6408  0.2206
  840MOL0     C15836   6.640   4.643   9.035  1.1147 -0.3870  0.4827
  840MOL0     C15837   6.886   4.685   8.676  0.4460 -0.1884 -0.0676
  840MOL0     C15838   6.885   4.813   8.615 -0.5884  0.5616  0.4083
  840MOL0     C15839   6.938   4.837   8.491 -0.0319 -1.1681 -0.0215
  840MOL0     C15840   7.012   4.737   8.426 -0.4360 -0.1933  0.5276
  840MOL0     O15841   7.062   4.754   8.304 -0.0116  0.5255 -0.0678
  840MOL0     C15842   7.093   4.886   8.247  0.4847  1.1454 -0.2565
  840MOL0     C15843   7.175   4.865   8.117  0.7004 -0.1657 -0.8129
  840MOL0     C15844   7.087   4.807   8.003  1.1390  0.3389  0.1498
  840MOL0     C15845   7.120   4.822   7.862  0.6580  0.2468 -1.0824
  840MOL0     C15846   7.258   4.800   7.822 -0.3594  0.2441  0.3382
  840MOL0     C15847   7.371   4.787   7.795 -0.2635  0.5816  0.0469
  840MOL0     C15848   7.008   4.605   8.478  0.2853  1.0683  0.3777
  840MOL0     C15849   6.942   4.577   8.603  0.9061 -0.3284 -0.0913
  840MOL0     C15850   6.938   4.439   8.648 -0.0403 -0.2565 -0.2233
  840MOL0     H15851   6.627   4.981   8.995 -3.0606 -0.6779 -2.1320
  840MOL0     H15852   6.505   4.952   9.225  3.6760  0.7823  0.3145
  840MOL0     H15853   6.497   4.583   9.504 -0.3822  2.2652  2.4579
  840MOL0     H15854   6.417   4.540   9.350  1.1219  0.6718 -0.2595
  840MOL0     H15855   6.307   4.713   9.571  2.4621 -2.2897  1.9137
  840MOL0     H15856   6.215   4.660   9.428 -0.2492  0.6405  0.0838
  840MOL0     H15857   6.228   4.439   9.502  4.3030 -0.1026 -2.8374
  840MOL0     H15858   6.327   4.468   9.644 -0.1580  1.0834  1.1817
  840MOL0     H15859   6.144   4.625   9.730 -0.4851 -0.8580  0.4955
  840MOL0     H15860   6.047   4.584   9.591 -0.1411 -1.2139 -2.2978
  840MOL0     H15861   6.167   4.404   9.816  0.0280 -1.5792 -0.0273
  840MOL0     H15862   6.057   4.345   9.681 -0.3391  0.9463 -2.1889
  840MOL0     H15863   5.883   4.471   9.739  0.4924  0.6214  0.0935
  840MOL0     H15864   5.935   4.359   9.867  1.0409  0.1454 -0.0582
  840MOL0     H15865   5.916   4.671   9.874 -2.0017  0.2291  1.3712
  840MOL0     H15866   6.054   4.603   9.950 -0.6433 -0.5750  4.5237
  840MOL0     H15867   5.889   4.454  10.094  0.8250  0.9033  1.5584
  840MOL0     H15868   5.880   4.631  10.110 -2.4241  0.3689 -0.0192
  840MOL0     H15869   5.701   4.761  10.005 -4.3019 -0.0101  2.5909
  840MOL0     H15870   5.486   4.835   9.912 -0.3514  0.5647 -1.3837
  840MOL0     H15871   5.346   4.713   9.919 -0.2999 -0.4048  0.2541
  840MOL0     H15872   5.423   4.626   9.702 -2.1525  1.0128 -0.0963
  840MOL0     H15873   5.372   4.800   9.684 -1.1692  0.0489  1.3202
  840MOL0     H15874   5.564   4.865   9.609 -0.6532 -0.4802  1.3497
  840MOL0     H15875   5.653   4.812   9.757 -0.6088 -1.0688  1.0292
  840MOL0     H15876   5.658   4.581   9.643 -0.3847  0.0102 -0.0594
  840MOL0     H15877   5.587   4.647   9.500 -1.6170 -2.2752  2.0037
  840MOL0     H15878   5.753   4.485   9.432 -0.8847 -0.8297 -1.3537
  840MOL0     H15879   5.979   4.325   9.198  2.7394  4.8733  1.1736
  840MOL0     H15880   5.801   4.335   9.204 -0.9025  1.3139  1.6030
  840MOL0     H15881   5.901   4.283   9.346  2.2011 -2.3487 -1.0391
  840MOL0     H15882   6.315   4.774   9.012 -0.7062 -1.4557  1.6639
  840MOL0     H15883   6.421   4.821   8.779 -2.2160  0.3721 -1.5619
  840MOL0     H15884   6.584   4.717   8.471  0.9097  1.1491  1.7469
  840MOL0     H15885   6.603   4.665   8.637 -1.0306  2.0195  0.1627
  840MOL0     H15886   6.669   4.476   8.499 -0.7108 -0.9248 -4.9286
  840MOL0     H15887   6.503   4.448   8.565 -2.5560  1.0189 -1.1892
  840MOL0     H15888   6.461   4.564   8.320  0.7429 -1.2257 -2.4684
  840MOL0     H15889   6.453   4.392   8.366 -0.3947  0.0281  0.9867
  840MOL0     H15890   6.676   4.362   8.259 -1.9887 -1.1750 -0.6553
  840MOL0     H15891   6.710   4.534   8.244 -0.3723  0.5289 -0.6393
  840MOL0     H15892   6.502   4.362   8.100  5.5894 -4.0067 -0.8289
  840MOL0     H15893   6.489   4.542   8.102  1.9381  0.7412  0.1242
  840MOL0     H15894   6.738   4.391   8.024 -1.3581 -1.1779 -1.3374
  840MOL0     H15895   6.701   4.567   8.008 -0.6217  0.9193 -0.6067
  840MOL0     H15896   6.498   4.434   7.864  0.0310 -0.0956  2.7454
  840MOL0     H15897   6.636   4.339   7.828  0.6014 -0.0706 -0.0925
  840MOL0     H15898   6.658   4.638   7.794 -0.0896  0.9073 -0.7669
  840MOL0     H15899   6.621   4.524   7.656  1.5551  1.0992 -0.2662
  840MOL0     H15900   6.240   4.476   8.635 -0.9695  2.1937 -1.2447
  840MOL0     H15901   6.175   4.403   8.866  0.9568 -0.6578  2.9972
  840MOL0     H15902   6.100   4.756   9.215 -0.2098  1.2657  0.4830
  840MOL0     H15903   5.967   4.863   9.410 -2.2172  0.4321 -1.4843
  840MOL0     H15904   6.568   4.532   9.205  2.5647  0.2838 -0.3441
  840MOL0     H15905   6.679   4.550   8.995  2.1102  0.3564 -0.3240
  840MOL0     H15906   6.830   4.898   8.653 -2.2362  0.8485 -2.3998
  840MOL0     H15907   6.919   4.932   8.441  1.4833  0.4669  2.2831
  840MOL0     H15908   6.991   4.920   8.226  0.6045  0.2876 -2.5397
  840MOL0     H15909   7.141   4.951   8.320 -0.3027  2.2832 -0.7295
  840MOL0     H15910   7.263   4.808   8.151 -1.0262 -0.0227  4.8612
  840MOL0     H15911   7.213   4.965   8.095  0.1177 -0.0545 -1.3607
  840MOL0     H15912   7.088   4.701   8.031 -0.2351  0.4402  0.6911
  840MOL0     H15913   6.983   4.838   8.018  2.1614  3.2801  2.1202
  840MOL0     H15914   7.090   4.924   7.839 -1.7090 -0.1525 -0.0505
  840MOL0     H15915   7.052   4.766   7.797  1.2033 -2.3279  0.4077
  840MOL0     H15916   7.469   4.753   7.770 -1.1760  0.8074 -4.6166
  840MOL0     H15917   7.056   4.521   8.429 -1.3573 -0.9959  2.1153
  840MOL0     H15918   6.965   4.368   8.569 -0.3613  0.4849 -1.0161
  840MOL0     H15919   6.992   4.413   8.739 -1.5798 -2.6694  0.0789
  840MOL0     H15920   6.837   4.422   8.686  1.0356 -0.0007  3.0303
  841MOL0     O15921   4.649  11.472   4.255  0.5560  0.8174  0.0983
  841MOL0     C15922   4.702  11.438   4.157  0.1833  0.2709  0.9331
  841MOL0     O15923   4.802  11.502   4.094 -0.6679 -0.4227  0.4240
  841MOL0     C15924   4.820  11.637   4.124  1.2128  0.6706 -0.1183
  841MOL0     C15925   4.727  11.731   4.090  0.0320 -0.7711  0.1978
  841MOL0     C15926   4.749  11.864   4.101 -0.5465 -1.5929 -0.5817
  841MOL0     C15927   4.873  11.903   4.145 -0.7268 -0.1612  0.1666
  841MOL0     O15928   4.911  12.037   4.152  0.2280  0.1041 -0.1002
  841MOL0     C15929   4.817  12.133   4.206  0.4736  0.5051 -0.7523
  841MOL0     C15930   4.855  12.170   4.349 -0.6869 -0.6778  0.1348
  841MOL0     C15931   4.820  12.049   4.443  0.3080 -0.1276  0.9239
  841MOL0     C15932   4.844  12.102   4.581 -0.6018  0.3923 -0.5786
  841MOL0     C15933   4.772  12.027   4.701  0.2379 -0.1539 -0.0830
  841MOL0     C15934   4.858  12.022   4.827 -0.6975  0.8238  0.5358
  841MOL0     C15935   4.953  11.901   4.829 -0.0321  0.2972 -0.3473
  841MOL0     C15936   4.967  11.816   4.946 -0.1666  0.1780 -1.0805
  841MOL0     N15937   5.063  11.878   5.038  0.7021  0.1855  0.5031
  841MOL0     C15938   5.199  11.863   5.041 -0.9286  0.2022  1.1364
  841MOL0     C15939   5.247  11.952   5.134  0.1809  0.2702 -0.2315
  841MOL0     C15940   5.386  11.993   5.169  0.7512  0.4069 -0.0158
  841MOL0     C15941   5.432  11.938   5.305  0.0724  0.3573 -0.4470
  841MOL0     C15942   5.354  11.982   5.433 -0.2476 -0.2085 -1.4044
  841MOL0     C15943   5.364  12.129   5.447 -0.5690 -0.2132 -0.8750
  841MOL0     O15944   5.499  12.149   5.499  0.4329 -1.0315 -0.4971
  841MOL0     C15945   5.574  12.249   5.443  0.2337 -0.5849 -0.3442
  841MOL0     C15946   5.707  12.215   5.397  0.3783  0.1506  0.0347
  841MOL0     C15947   5.798  12.315   5.352  0.0608  0.0949  0.5145
  841MOL0     C15948   5.930  12.271   5.290 -0.1553  0.8517  0.4923
  841MOL0     C15949   5.761  12.445   5.368  0.3668 -0.4225  0.5210
  841MOL0     C15950   5.847  12.564   5.311  0.2300  0.5995  0.5829
  841MOL0     O15951   5.802  12.689   5.330  0.0495 -0.0759 -0.5319
  841MOL0     C15952   5.869  12.800   5.304 -0.4726  0.2454 -0.1298
  841MOL0     C15953   6.006  12.807   5.351 -0.8307  0.4454  0.2396
  841MOL0     C15954   6.072  12.933   5.358  0.2823 -1.1884 -0.0079
  841MOL0     C15955   6.001  13.051   5.319 -0.6776 -0.2559  0.4802
  841MOL0     O15956   6.070  13.163   5.323 -0.7431 -0.1996 -0.5840
  841MOL0     C15957   6.040  13.265   5.423  0.0848 -0.2158  0.4408
  841MOL0     C15958   6.155  13.376   5.409  0.3361 -0.8215  0.2040
  841MOL0     C15959   6.114  13.471   5.288 -0.1793 -0.2782 -0.1052
  841MOL0     C15960   6.209  13.594   5.267 -0.1717 -0.3085 -0.1764
  841MOL0     C15961   6.342  13.540   5.219  0.3958  0.4997  0.3221
  841MOL0     C15962   6.430  13.651   5.185  0.0265  0.9883  1.0437
  841MOL0     C15963   6.575  13.598   5.185 -0.2933 -0.6433  0.0005
  841MOL0     C15964   6.624  13.576   5.332  0.4274  0.3128  0.8887
  841MOL0    Cl15965   6.786  13.541   5.304 -0.0949  0.0270  0.4541
  841MOL0     C15966   5.870  13.044   5.262 -0.0966 -0.0724  0.8153
  841MOL0     C15967   5.806  12.917   5.249  1.0668 -0.0214 -0.1828
  841MOL0     O15968   5.936  12.537   5.237  0.0256  0.0407  0.9020
  841MOL0     C15969   5.626  12.478   5.409 -0.1294  0.6927 -0.4155
  841MOL0     C15970   5.537  12.374   5.450  1.0073  0.4754  0.3465
  841MOL0     N15971   5.131  12.020   5.177  1.0290  0.1688 -0.8987
  841MOL0     N15972   5.023  11.967   5.134  0.0377  0.1099 -0.5652
  841MOL0     C15973   4.969  11.810   4.176 -0.5912 -0.5890  0.7103
  841MOL0     C15974   4.942  11.671   4.172 -0.1559 -0.2208  0.5965
  841MOL0     C15975   4.675  11.289   4.113  1.0818  1.4372  0.1206
  841MOL0     C15976   4.545  11.234   4.135 -0.7676 -0.2303 -0.4106
  841MOL0     C15977   4.510  11.109   4.072 -0.6601 -0.2447 -0.6460
  841MOL0     C15978   4.603  11.032   4.007 -0.4371  0.9080  0.4091
  841MOL0     O15979   4.577  10.904   3.972 -0.1940  0.2905 -1.0941
  841MOL0     C15980   4.457  10.845   3.994 -1.0752  0.2773 -0.1911
  841MOL0     C15981   4.437  10.709   3.924 -0.4112 -0.5875 -0.6095
  841MOL0     C15982   4.512  10.579   3.962  0.2594 -0.7457  0.5640
  841MOL0     C15983   4.650  10.614   4.036  0.8072  0.0640  1.0580
  841MOL0     C15984   4.739  10.495   4.031  0.0601 -1.1434  0.3712
  841MOL0     C15985   4.831  10.417   4.051  0.5154  0.0325  0.2206
  841MOL0     C15986   4.733  11.086   3.995  0.2592  0.0853 -0.4751
  841MOL0     C15987   4.773  11.217   4.044  0.2751  0.0412  0.6800
  841MOL0     C15988   4.909  11.261   4.014  0.8901 -1.1097  0.1458
  841MOL0     H15989   4.638  11.702   4.033 -1.8917  2.1620  1.4859
  841MOL0     H15990   4.668  11.930   4.073  1.8162  0.0200 -4.5003
  841MOL0     H15991   4.715  12.097   4.196 -0.1199  1.9151 -0.0648
  841MOL0     H15992   4.819  12.227   4.150  1.7080 -0.7666 -2.9860
  841MOL0     H15993   4.962  12.185   4.369 -1.4487  0.1409  4.6721
  841MOL0     H15994   4.798  12.257   4.382 -2.9260 -2.3936  1.0350
  841MOL0     H15995   4.715  12.029   4.423 -0.4958  4.3534 -0.4538
  841MOL0     H15996   4.886  11.964   4.422 -2.1137 -2.1895  1.2599
  841MOL0     H15997   4.953  12.107   4.595 -0.3300 -1.3952 -1.7402
  841MOL0     H15998   4.816  12.208   4.588  0.4276  0.8236 -2.3937
  841MOL0     H15999   4.714  11.936   4.684  0.0830 -0.0655 -0.0309
  841MOL0     H16000   4.693  12.098   4.728 -1.3313 -1.6896 -0.4692
  841MOL0     H16001   4.915  12.113   4.846 -1.3794  1.0005  1.8340
  841MOL0     H16002   4.790  12.015   4.912 -0.6527 -2.6927  0.4086
  841MOL0     H16003   5.052  11.931   4.794 -1.1309  1.8838 -2.2715
  841MOL0     H16004   4.914  11.836   4.749 -0.5698  2.1356 -1.6458
  841MOL0     H16005   4.871  11.803   4.996  0.6143 -2.4344 -0.1173
  841MOL0     H16006   5.002  11.715   4.924 -3.3958 -1.4238  0.4429
  841MOL0     H16007   5.260  11.800   4.978 -0.8515 -0.7508  2.1240
  841MOL0     H16008   5.401  12.101   5.165  4.3355  0.0787  0.8555
  841MOL0     H16009   5.460  11.946   5.104  0.2128 -3.1073  1.6607
  841MOL0     H16010   5.437  11.829   5.300  4.0547  0.4355 -2.6173
  841MOL0     H16011   5.536  11.969   5.321  0.4793 -0.4593 -1.4061
  841MOL0     H16012   5.251  11.945   5.422  0.5541 -2.6934 -0.9789
  841MOL0     H16013   5.401  11.932   5.518 -0.5305 -0.2605 -1.2769
  841MOL0     H16014   5.336  12.184   5.357 -1.2391 -1.1098 -1.2268
  841MOL0     H16015   5.302  12.163   5.531 -0.1518  0.1849 -0.7182
  841MOL0     H16016   5.727  12.108   5.392 -2.3719 -0.3953 -1.1168
  841MOL0     H16017   5.939  12.283   5.182  1.2895  1.2756  0.6388
  841MOL0     H16018   5.945  12.166   5.317  0.4399  1.8143  4.6159
  841MOL0     H16019   6.011  12.327   5.338 -0.5222 -0.3396  2.6703
  841MOL0     H16020   6.047  12.721   5.403 -0.2292  0.7820  0.3264
  841MOL0     H16021   6.173  12.942   5.397  0.5101  0.0770 -0.8209
  841MOL0     H16022   5.947  13.306   5.381  2.3162  3.5870 -1.3718
  841MOL0     H16023   6.009  13.225   5.520 -0.9506 -4.1327 -1.3110
  841MOL0     H16024   6.146  13.421   5.509 -1.2978  0.3151 -0.4052
  841MOL0     H16025   6.256  13.334   5.406  1.1699  0.9540  1.3233
  841MOL0     H16026   6.020  13.522   5.311  0.7620  2.2345 -1.3859
  841MOL0     H16027   6.097  13.416   5.195 -1.7442  0.2530 -0.1482
  841MOL0     H16028   6.226  13.640   5.365  1.6568  1.7027 -1.3432
  841MOL0     H16029   6.177  13.675   5.201  0.7668  0.0086 -0.2559
  841MOL0     H16030   6.376  13.483   5.306  0.5152 -1.9425 -1.2178
  841MOL0     H16031   6.342  13.476   5.130  1.6274 -0.3275  0.8758
  841MOL0     H16032   6.413  13.731   5.257  1.0519  2.1747  0.0217
  841MOL0     H16033   6.412  13.694   5.086  2.7586  2.0805  0.9342
  841MOL0     H16034   6.634  13.675   5.136  0.6006 -1.3935 -0.1342
  841MOL0     H16035   6.581  13.498   5.140  0.7453 -0.3235 -0.5891
  841MOL0     H16036   6.571  13.507   5.399  2.8744 -0.3683  2.2636
  841MOL0     H16037   6.608  13.673   5.380 -2.7005  0.3835 -0.0657
  841MOL0     H16038   5.815  13.131   5.226  0.0317  0.0631  0.9479
  841MOL0     H16039   5.712  12.915   5.195  0.3065 -1.1408  1.0904
  841MOL0     H16040   5.592  12.581   5.401  1.2519  1.3019  1.0016
  841MOL0     H16041   5.432  12.392   5.471  1.1104 -1.3164  2.7811
  841MOL0     H16042   5.062  11.847   4.216 -0.9131  0.7059  0.3369
  841MOL0     H16043   5.022  11.602   4.199  1.2068 -0.1377 -2.7522
  841MOL0     H16044   4.470  11.301   4.176 -2.6448 -1.3675 -1.8014
  841MOL0     H16045   4.418  11.075   4.120  0.7040 -2.7229  0.4503
  841MOL0     H16046   4.436  10.815   4.097  0.7413 -0.0830  0.1160
  841MOL0     H16047   4.384  10.919   3.960 -0.2571  1.5307  0.6402
  841MOL0     H16048   4.465  10.729   3.820  0.6190  3.9369  0.2849
  841MOL0     H16049   4.332  10.680   3.923 -0.1616 -1.5304 -1.3371
  841MOL0     H16050   4.454  10.518   4.032 -0.7862 -2.0899 -1.3922
  841MOL0     H16051   4.521  10.515   3.875 -1.2031 -0.7685  0.4208
  841MOL0     H16052   4.636  10.643   4.140  2.2945  2.1256  0.7375
  841MOL0     H16053   4.699  10.700   3.990  0.6780  0.8435  2.3484
  841MOL0     H16054   4.897  10.338   4.081  1.1878  0.3704 -0.3422
  841MOL0     H16055   4.806  11.021   3.947  0.7092 -0.1232  0.4638
  841MOL0     H16056   4.919  11.334   3.933  1.9449  0.5318  1.7012
  841MOL0     H16057   4.964  11.299   4.100  2.1619  1.0973 -1.5548
  841MOL0     H16058   4.965  11.177   3.970  0.3494 -1.8948  0.9163
  842MOL0     O16059   8.946   0.358   3.791  0.8555 -0.3913 -0.7015
  842MOL0     C16060   8.941   0.415   3.679  1.0682 -0.8095 -0.4576
  842MOL0     O16061   9.034   0.403   3.581  0.6077  0.2294  0.3686
  842MOL0     C16062   9.158   0.337   3.596  1.1579 -1.0565 -0.9244
  842MOL0     C16063   9.224   0.303   3.717 -0.6788  0.7277 -0.0677
  842MOL0     C16064   9.358   0.259   3.717  0.2967 -0.3902 -0.0741
  842MOL0     C16065   9.436   0.263   3.599  0.6594  0.1410 -0.2209
  842MOL0     O16066   9.572   0.240   3.597 -0.0728  0.1495 -0.8398
  842MOL0     C16067   9.634   0.163   3.698 -0.4936 -0.9695  0.0468
  842MOL0     C16068   9.794   0.149   3.679 -0.2980  0.2253  0.4773
  842MOL0     C16069   9.843   0.044   3.576 -0.7607  0.3511  0.3524
  842MOL0     C16070   9.791  -0.096   3.606  0.7475 -0.2766  0.1048
  842MOL0     C16071   9.888  -0.201   3.544  0.2315  0.1575  0.2974
  842MOL0     C16072   9.900  -0.200   3.394 -0.0486 -1.2340  0.5095
  842MOL0     C16073   9.961  -0.317   3.321 -0.1119  0.0207  0.1790
  842MOL0     C16074  10.009  -0.285   3.173 -0.2745 -0.1407  0.4003
  842MOL0     N16075  10.142  -0.223   3.167 -0.6409  0.1043  0.0516
  842MOL0     C16076  10.266  -0.288   3.178 -0.1554 -0.7371 -0.4843
  842MOL0     C16077  10.350  -0.190   3.144 -0.3426 -0.2720  0.1948
  842MOL0     C16078  10.507  -0.201   3.142 -0.0224  0.2328  0.2341
  842MOL0     C16079  10.561  -0.312   3.045  0.7157  0.4868 -0.0331
  842MOL0     C16080  10.714  -0.327   3.057  1.1077  0.5197 -0.8486
  842MOL0     C16081  10.784  -0.390   2.934  0.0450  0.7755 -0.0301
  842MOL0     O16082  10.752  -0.324   2.814 -0.3897 -0.4292 -0.6153
  842MOL0     C16083  10.823  -0.207   2.797  0.1572 -0.3404  0.2894
  842MOL0     C16084  10.957  -0.210   2.766  0.9528  0.8508 -0.6341
  842MOL0     C16085  11.032  -0.094   2.767  0.6327  0.9620  0.3800
  842MOL0     C16086  11.188  -0.117   2.759 -0.6402  0.2461 -0.6369
  842MOL0     C16087  10.974   0.036   2.800 -0.6401 -0.1272 -0.2317
  842MOL0     C16088  11.046   0.156   2.804 -0.0966 -0.3692 -0.2398
  842MOL0     O16089  10.978   0.273   2.784 -0.7500  0.5110 -0.5678
  842MOL0     C16090  11.048   0.385   2.818 -0.5776 -0.6929  0.3102
  842MOL0     C16091  11.167   0.427   2.758  0.6449 -0.5355 -0.6064
  842MOL0     C16092  11.233   0.540   2.795  0.7260 -0.1026  0.5822
  842MOL0     C16093  11.173   0.626   2.885 -0.2009 -0.5498  0.6894
  842MOL0     O16094  11.236   0.754   2.904 -0.6692  0.1335 -0.5893
  842MOL0     C16095  11.261   0.807   3.036 -0.2391  0.8695  0.1676
  842MOL0     C16096  11.317   0.944   3.014  0.5086  0.6159  0.4542
  842MOL0     C16097  11.466   0.946   3.003  0.0830  0.2977 -0.4312
  842MOL0     C16098  11.504   0.971   2.855  0.6796 -0.0981 -0.2202
  842MOL0     C16099  11.647   1.008   2.842 -0.2111  0.3079  0.1572
  842MOL0     C16100  11.674   0.999   2.685  0.0375  0.0196  0.4495
  842MOL0     C16101  11.818   1.042   2.668  0.1576 -0.0051 -0.2780
  842MOL0     C16102  11.869   0.971   2.539 -1.0004  0.1916 -0.4185
  842MOL0    Cl16103  11.932   0.801   2.575  0.5252  0.6343 -0.5475
  842MOL0     C16104  11.057   0.592   2.949  0.0591 -0.3496  0.5699
  842MOL0     C16105  10.999   0.465   2.918  0.2878  0.2316 -0.3138
  842MOL0     O16106  11.163   0.155   2.843 -0.4869  0.3622 -0.1951
  842MOL0     C16107  10.839   0.038   2.819  0.3285  0.0096  0.0595
  842MOL0     C16108  10.768  -0.082   2.817 -0.0730 -0.5068  0.2426
  842MOL0     N16109  10.281  -0.079   3.113 -0.1729 -0.1582  0.2522
  842MOL0     N16110  10.158  -0.092   3.122 -0.4008 -1.0752 -0.7390
  842MOL0     C16111   9.365   0.293   3.481 -0.2111 -0.0851  0.0303
  842MOL0     C16112   9.230   0.334   3.482  0.7715  0.2989  0.4670
  842MOL0     C16113   8.823   0.508   3.653 -0.7793 -0.1303  0.5044
  842MOL0     C16114   8.710   0.500   3.732  0.5886  1.1308 -0.9669
  842MOL0     C16115   8.598   0.583   3.713 -0.3641 -1.1700 -0.3915
  842MOL0     C16116   8.594   0.668   3.599  0.7423  0.4544  0.0452
  842MOL0     O16117   8.480   0.747   3.591  0.5097  0.6386 -0.7720
  842MOL0     C16118   8.461   0.844   3.486  0.5614  0.1914 -0.3320
  842MOL0     C16119   8.308   0.847   3.459 -0.1087  0.2012 -0.6878
  842MOL0     C16120   8.259   0.991   3.522  0.8235  0.6295  0.1180
  842MOL0     C16121   8.111   1.018   3.528  0.2300  0.4217 -1.1141
  842MOL0     C16122   8.053   0.990   3.402 -0.2509 -0.3244 -0.2823
  842MOL0     C16123   8.000   0.972   3.289 -0.7739  0.8815 -0.4579
  842MOL0     C16124   8.703   0.673   3.506  0.2325  0.2531 -0.3058
  842MOL0     C16125   8.820   0.599   3.540 -0.4621 -0.6747  1.1541
  842MOL0     C16126   8.932   0.642   3.450  0.2626  0.2769  0.0810
  842MOL0     H16127   9.171   0.320   3.810 -0.9683  1.8609 -0.4207
  842MOL0     H16128   9.400   0.220   3.809  0.6785 -2.8229 -1.1801
  842MOL0     H16129   9.593   0.062   3.703  1.2396 -1.8084 -1.3106
  842MOL0     H16130   9.628   0.226   3.787  2.2350 -0.2989 -0.1483
  842MOL0     H16131   9.828   0.248   3.648 -0.9086 -0.4284 -2.6315
  842MOL0     H16132   9.841   0.137   3.777  3.7134  4.1747 -0.6072
  842MOL0     H16133   9.813   0.068   3.473 -0.2850  3.3363  0.8271
  842MOL0     H16134   9.952   0.045   3.581 -0.8242  1.0367  4.1855
  842MOL0     H16135   9.805  -0.107   3.714  0.0826  1.1594  0.3597
  842MOL0     H16136   9.685  -0.106   3.583  0.8866  2.4812 -2.2357
  842MOL0     H16137   9.848  -0.300   3.568 -0.7572  0.7020  0.9474
  842MOL0     H16138   9.990  -0.203   3.585 -0.4144  2.1696  2.1761
  842MOL0     H16139   9.799  -0.188   3.353 -0.7147 -2.6904  1.6603
  842MOL0     H16140   9.953  -0.110   3.361  0.1462 -0.3018  3.1300
  842MOL0     H16141   9.889  -0.399   3.310  2.4461 -2.6169  1.5958
  842MOL0     H16142  10.052  -0.352   3.371  2.7245  2.8959 -2.5089
  842MOL0     H16143  10.016  -0.386   3.132  2.1926  0.5592 -1.1419
  842MOL0     H16144   9.932  -0.219   3.133  2.0810  3.6359  1.5713
  842MOL0     H16145  10.288  -0.387   3.217 -1.2062 -0.5555  0.6270
  842MOL0     H16146  10.531  -0.222   3.247 -1.6344  1.1010  0.8160
  842MOL0     H16147  10.558  -0.111   3.105 -2.3115  1.0294 -1.1711
  842MOL0     H16148  10.512  -0.408   3.064 -4.2460  2.9840  1.3404
  842MOL0     H16149  10.542  -0.287   2.940  1.2411 -0.1393 -0.2862
  842MOL0     H16150  10.747  -0.224   3.067 -1.5056  1.4161 -0.7979
  842MOL0     H16151  10.748  -0.385   3.143 -3.3073  0.4989  1.1501
  842MOL0     H16152  10.893  -0.378   2.944 -0.1450  4.3176 -0.9582
  842MOL0     H16153  10.757  -0.496   2.935 -2.0915  1.2493  1.9273
  842MOL0     H16154  10.999  -0.308   2.747 -0.2978 -0.3727  2.2134
  842MOL0     H16155  11.226  -0.043   2.688  1.1496  3.1733  3.0107
  842MOL0     H16156  11.198  -0.214   2.709 -0.0932  0.2227 -0.4850
  842MOL0     H16157  11.231  -0.111   2.860 -1.1466  4.6771 -0.5045
  842MOL0     H16158  11.200   0.351   2.687  3.1006  1.4947 -1.8018
  842MOL0     H16159  11.326   0.556   2.742  1.4266  1.8020  2.2717
  842MOL0     H16160  11.170   0.833   3.090 -2.3225  0.7005 -2.9879
  842MOL0     H16161  11.321   0.731   3.088  0.0106 -0.1951 -1.5910
  842MOL0     H16162  11.260   0.992   2.934  0.0343  3.2674  2.2469
  842MOL0     H16163  11.293   1.009   3.098 -0.9531 -1.7116  1.9684
  842MOL0     H16164  11.505   0.851   3.041 -0.0054  0.5694  0.3531
  842MOL0     H16165  11.506   1.016   3.077 -0.2130 -4.2077  4.5897
  842MOL0     H16166  11.434   1.044   2.814 -0.5871  0.5052  2.7610
  842MOL0     H16167  11.497   0.874   2.805  1.4758  0.2455 -1.0398
  842MOL0     H16168  11.668   1.099   2.900 -1.6563 -0.5927  2.2290
  842MOL0     H16169  11.699   0.930   2.897 -2.6765 -0.3142  1.7696
  842MOL0     H16170  11.602   1.067   2.640 -1.3108 -0.3431  1.9462
  842MOL0     H16171  11.662   0.898   2.646  3.1098 -0.9624  1.7108
  842MOL0     H16172  11.891   1.018   2.745 -1.1960  0.2278  1.1195
  842MOL0     H16173  11.817   1.150   2.651 -0.5927  0.3722  1.8906
  842MOL0     H16174  11.948   1.033   2.496  0.0553  0.2456  1.4790
  842MOL0     H16175  11.786   0.949   2.471 -1.5379 -1.1641  0.6234
  842MOL0     H16176  11.017   0.667   3.017  1.6184  0.5209  0.5622
  842MOL0     H16177  10.908   0.432   2.967  0.8777  0.7885  1.2300
  842MOL0     H16178  10.783   0.126   2.851  0.8381  0.5325 -0.4437
  842MOL0     H16179  10.668  -0.076   2.858 -1.2669 -1.8066 -2.2292
  842MOL0     H16180   9.424   0.292   3.390  0.9625  0.1492  0.7627
  842MOL0     H16181   9.196   0.360   3.382  3.1010  0.0478 -0.4486
  842MOL0     H16182   8.708   0.416   3.801 -2.4711  0.5189 -1.6541
  842MOL0     H16183   8.511   0.584   3.777  0.5036 -0.8408  0.8023
  842MOL0     H16184   8.492   0.944   3.517 -2.0889  3.6240 -6.7473
  842MOL0     H16185   8.518   0.819   3.396  0.9177 -0.4099  0.0498
  842MOL0     H16186   8.263   0.757   3.502  0.8552  0.2837  0.5483
  842MOL0     H16187   8.297   0.845   3.350  1.4462  3.2422 -0.9972
  842MOL0     H16188   8.293   0.997   3.625  1.5607 -0.0195 -0.0768
  842MOL0     H16189   8.314   1.067   3.467  1.7537  1.0176  1.5482
  842MOL0     H16190   8.098   1.122   3.559 -0.5675 -0.0938  0.4359
  842MOL0     H16191   8.066   0.972   3.617  0.1394  2.0400 -0.2831
  842MOL0     H16192   7.951   0.964   3.194 -0.3684 -1.4415 -0.5234
  842MOL0     H16193   8.702   0.738   3.419 -0.8515  0.1339 -0.3998
  842MOL0     H16194   8.934   0.751   3.438 -1.1110  0.4105  0.9039
  842MOL0     H16195   9.031   0.629   3.495  0.5540  1.4426 -0.1814
  842MOL0     H16196   8.918   0.605   3.348  0.3796 -1.9682  0.8206
  843MOL0     O16197   9.777   8.931   4.508  0.3010 -0.5905 -0.1872
  843MOL0     C16198   9.708   8.839   4.551 -0.8737 -0.8488 -0.2192
  843MOL0     O16199   9.629   8.854   4.659 -1.0003 -0.3140  0.7728
  843MOL0     C16200   9.601   8.973   4.702  0.1306  0.3242  0.3227
  843MOL0     C16201   9.553   9.096   4.632  0.0061  0.2072  0.5351
  843MOL0     C16202   9.501   9.205   4.715 -0.4448  0.7229  0.9940
  843MOL0     C16203   9.513   9.207   4.849  0.1800  0.1280 -0.2368
  843MOL0     O16204   9.481   9.313   4.923 -0.0671  0.5043 -0.7729
  843MOL0     C16205   9.381   9.283   5.016  0.4154 -1.0891 -0.2301
  843MOL0     C16206   9.308   9.413   5.064 -0.2926  0.1620  0.5495
  843MOL0     C16207   9.285   9.510   4.944 -0.4476  0.3787 -0.5825
  843MOL0     C16208   9.222   9.446   4.816 -0.0633 -0.8737 -0.9799
  843MOL0     C16209   9.155   9.562   4.734  1.1408 -0.0530 -0.3541
  843MOL0     C16210   9.066   9.494   4.628 -0.3500  0.2738 -0.3210
  843MOL0     C16211   8.960   9.588   4.559 -0.2025  0.0601 -0.4146
  843MOL0     C16212   8.832   9.610   4.651 -0.4622 -0.3444  0.5466
  843MOL0     N16213   8.732   9.507   4.664  0.8202 -1.1310  0.1468
  843MOL0     C16214   8.708   9.406   4.577 -0.4716 -0.1973 -0.0448
  843MOL0     C16215   8.626   9.328   4.647  0.0019  0.9890 -0.6079
  843MOL0     C16216   8.554   9.210   4.582  0.1479 -0.4838  0.2717
  843MOL0     C16217   8.519   9.221   4.435  0.2394 -0.0487  0.0335
  843MOL0     C16218   8.415   9.331   4.406 -0.6918  0.1310 -0.2833
  843MOL0     C16219   8.385   9.328   4.261 -0.0430  0.3958  0.5025
  843MOL0     O16220   8.263   9.403   4.234 -1.0931  0.1634  0.6736
  843MOL0     C16221   8.275   9.536   4.255 -0.3818 -1.7154 -0.7798
  843MOL0     C16222   8.158   9.599   4.301  0.2600  0.2550  0.1759
  843MOL0     C16223   8.152   9.733   4.323 -0.2098 -0.2048  0.7195
  843MOL0     C16224   8.037   9.785   4.397 -0.0203 -0.1347  0.5892
  843MOL0     C16225   8.260   9.810   4.278  0.2839 -0.4479 -0.7362
  843MOL0     C16226   8.279   9.954   4.313 -0.1695  0.0025 -0.4087
  843MOL0     O16227   8.411   9.992   4.324  0.8227 -1.2161  0.0625
  843MOL0     C16228   8.441  10.132   4.337  0.0530  1.0504  0.7952
  843MOL0     C16229   8.389  10.206   4.447 -0.6352  0.1475  0.5550
  843MOL0     C16230   8.441  10.334   4.468  0.2917  0.6943 -0.7443
  843MOL0     C16231   8.530  10.388   4.376  0.7096 -0.4927  1.3571
  843MOL0     O16232   8.583  10.514   4.396  0.0913 -0.1489 -0.2131
  843MOL0     C16233   8.698  10.514   4.482 -0.3775  0.4344  0.2090
  843MOL0     C16234   8.822  10.560   4.410 -0.5800  1.5476  0.2899
  843MOL0     C16235   8.922  10.613   4.515  0.4592  0.2499 -0.9813
  843MOL0     C16236   9.063  10.639   4.463  0.4472 -0.2394  0.1039
  843MOL0     C16237   9.148  10.506   4.445 -0.0656  0.0844 -0.0714
  843MOL0     C16238   9.207  10.469   4.577 -0.0471 -0.2014 -0.4129
  843MOL0     C16239   9.317  10.363   4.560  1.0408  0.4529 -1.0005
  843MOL0     C16240   9.451  10.418   4.527 -0.5167  0.0285 -0.5567
  843MOL0    Cl16241   9.575  10.290   4.556 -0.4436  0.5593  0.1521
  843MOL0     C16242   8.553  10.331   4.256  0.2008  0.0820 -0.0330
  843MOL0     C16243   8.509  10.190   4.235  0.1131 -1.6754 -0.5130
  843MOL0     O16244   8.190  10.031   4.324  0.5007  0.2791  0.5439
  843MOL0     C16245   8.377   9.749   4.219  0.3587  1.0850  0.0417
  843MOL0     C16246   8.386   9.610   4.209  0.3726 -0.8057 -0.1564
  843MOL0     N16247   8.599   9.375   4.774 -0.5766  0.1351  0.7379
  843MOL0     N16248   8.658   9.488   4.784 -0.1423  0.1385 -0.5573
  843MOL0     C16249   9.560   9.087   4.913 -0.9753  0.1769  0.8304
  843MOL0     C16250   9.599   8.979   4.842  0.3703  0.2545  0.2764
  843MOL0     C16251   9.731   8.696   4.485  0.3413 -0.3039 -0.0020
  843MOL0     C16252   9.739   8.675   4.340 -0.5106 -0.0927 -0.4649
  843MOL0     C16253   9.744   8.547   4.290 -0.6026 -0.2487  0.1799
  843MOL0     C16254   9.749   8.436   4.361  0.1604 -0.1212  0.0712
  843MOL0     O16255   9.739   8.323   4.291  0.0427  0.0906 -0.1530
  843MOL0     C16256   9.669   8.218   4.360 -0.7974  0.1491  0.2698
  843MOL0     C16257   9.573   8.150   4.268  0.2013 -0.1633  0.6132
  843MOL0     C16258   9.460   8.241   4.254  0.2357  0.5519 -0.0788
  843MOL0     C16259   9.478   8.332   4.123  0.3148  0.7816  1.0905
  843MOL0     C16260   9.360   8.414   4.093 -0.4682 -0.1709  0.3388
  843MOL0     C16261   9.264   8.475   4.070  0.7467  0.6535 -0.3326
  843MOL0     C16262   9.749   8.457   4.503 -0.1926  0.0874  0.9619
  843MOL0     C16263   9.736   8.581   4.565 -0.2288 -0.1190 -0.4136
  843MOL0     C16264   9.738   8.583   4.724 -0.0381 -0.2347  0.4825
  843MOL0     H16265   9.543   9.105   4.524  1.5945  1.8773  0.4699
  843MOL0     H16266   9.456   9.291   4.666 -0.3143 -1.3604 -3.2512
  843MOL0     H16267   9.424   9.234   5.103 -0.7207  0.8680  1.5449
  843MOL0     H16268   9.305   9.220   4.970 -0.7626 -0.8607  1.3094
  843MOL0     H16269   9.214   9.384   5.110 -2.6084  1.6300 -2.8532
  843MOL0     H16270   9.367   9.470   5.138  0.0711  2.1194 -1.1388
  843MOL0     H16271   9.211   9.582   4.979 -2.0662 -1.7454  0.5728
  843MOL0     H16272   9.381   9.558   4.923  0.2878 -0.5580  0.5022
  843MOL0     H16273   9.301   9.411   4.750  0.8842  1.4093 -1.1635
  843MOL0     H16274   9.157   9.364   4.845 -1.3302  0.8761  1.5039
  843MOL0     H16275   9.233   9.625   4.690 -0.1217  0.9027 -1.2707
  843MOL0     H16276   9.076   9.605   4.796  0.5002 -1.6275 -0.0200
  843MOL0     H16277   9.129   9.448   4.552  1.8845 -0.0133  1.5997
  843MOL0     H16278   9.008   9.412   4.672 -0.9249  1.9208  2.2075
  843MOL0     H16279   8.930   9.558   4.458  1.8708 -0.4196 -0.9389
  843MOL0     H16280   9.006   9.686   4.550  0.2827 -0.2476 -1.5381
  843MOL0     H16281   8.848   9.661   4.746 -1.1747  3.5442 -1.2253
  843MOL0     H16282   8.784   9.685   4.588  2.6793  0.3931 -1.2112
  843MOL0     H16283   8.747   9.392   4.477  0.3331  1.0339  0.0676
  843MOL0     H16284   8.462   9.202   4.640 -0.7381 -2.1518 -1.2450
  843MOL0     H16285   8.604   9.115   4.600 -0.4043 -1.1586 -1.5117
  843MOL0     H16286   8.610   9.238   4.377  0.6514 -1.5976  0.1924
  843MOL0     H16287   8.472   9.129   4.400  1.2514 -0.8845  0.8323
  843MOL0     H16288   8.326   9.310   4.466  0.6065 -1.2067  1.3003
  843MOL0     H16289   8.448   9.430   4.439 -0.2063  0.5737 -1.9836
  843MOL0     H16290   8.473   9.351   4.201  0.9866 -2.7614  0.6009
  843MOL0     H16291   8.380   9.222   4.234  2.3302 -0.0298  1.4423
  843MOL0     H16292   8.067   9.542   4.318  0.3386 -0.6803 -2.1661
  843MOL0     H16293   8.058   9.864   4.470 -2.3606  0.5405  0.6254
  843MOL0     H16294   7.984   9.709   4.456 -2.2659  2.0933  1.6456
  843MOL0     H16295   7.967   9.821   4.322  1.2585 -2.4026 -1.8552
  843MOL0     H16296   8.306  10.170   4.505 -0.0239 -0.1461  1.2615
  843MOL0     H16297   8.433  10.390   4.561  3.5330 -1.6262  1.1597
  843MOL0     H16298   8.683  10.593   4.556  0.1320  0.0136  0.7705
  843MOL0     H16299   8.706  10.417   4.532  0.9389 -0.0943 -0.9661
  843MOL0     H16300   8.871  10.477   4.357  1.8872  2.1118  1.5167
  843MOL0     H16301   8.790  10.641   4.344  1.7925 -0.1612 -3.2660
  843MOL0     H16302   8.930  10.557   4.609 -2.7847  2.3946  0.7793
  843MOL0     H16303   8.876  10.707   4.546 -2.7139 -2.3717  3.5339
  843MOL0     H16304   9.111  10.701   4.539  1.9248  0.6538 -1.4948
  843MOL0     H16305   9.063  10.691   4.366  5.3626 -0.8236 -0.4628
  843MOL0     H16306   9.088  10.430   4.393 -0.3158 -0.8061  1.4640
  843MOL0     H16307   9.227  10.537   4.375 -0.8233 -0.6527 -1.2929
  843MOL0     H16308   9.123  10.437   4.639  0.1613  1.6643  0.9344
  843MOL0     H16309   9.247  10.550   4.638  2.1906 -1.7004  0.2306
  843MOL0     H16310   9.280  10.294   4.484 -1.3980 -0.0001  0.4926
  843MOL0     H16311   9.328  10.304   4.652 -0.8231 -0.2250 -1.1601
  843MOL0     H16312   9.464  10.516   4.573 -0.3056 -0.8099  1.2480
  843MOL0     H16313   9.463  10.435   4.420 -0.6545 -1.3572 -0.8173
  843MOL0     H16314   8.619  10.381   4.186 -0.1164  1.5826  0.6989
  843MOL0     H16315   8.552  10.141   4.149 -0.0539  3.6107 -4.0436
  843MOL0     H16316   8.453   9.821   4.191 -0.5660  1.9744 -0.2487
  843MOL0     H16317   8.470   9.561   4.162 -0.5801 -1.8163 -0.8547
  843MOL0     H16318   9.545   9.077   5.020  2.1974 -0.2405  1.3085
  843MOL0     H16319   9.603   8.888   4.902 -3.5151  1.1809  2.2968
  843MOL0     H16320   9.738   8.760   4.273 -0.0812  2.8472  3.0278
  843MOL0     H16321   9.760   8.540   4.183  2.3632 -1.7292  0.6289
  843MOL0     H16322   9.749   8.150   4.390  1.0611  2.2841  0.4137
  843MOL0     H16323   9.624   8.253   4.453  2.3167  0.9462  1.6074
  843MOL0     H16324   9.537   8.060   4.319  1.0496 -1.1922 -0.5356
  843MOL0     H16325   9.622   8.127   4.172 -2.6746 -1.0082 -0.7511
  843MOL0     H16326   9.374   8.178   4.231  1.1009 -0.0862 -1.7251
  843MOL0     H16327   9.452   8.300   4.346  2.8311  0.0156  0.5740
  843MOL0     H16328   9.503   8.262   4.043 -0.5051  0.6449  0.9512
  843MOL0     H16329   9.563   8.401   4.130 -0.1378  1.6325 -1.1095
  843MOL0     H16330   9.177   8.530   4.040  0.2375  1.1204  1.8096
  843MOL0     H16331   9.746   8.369   4.567 -0.1203 -2.9232 -2.8399
  843MOL0     H16332   9.636   8.594   4.763 -0.7833  2.5950 -1.9425
  843MOL0     H16333   9.765   8.490   4.775 -0.5094 -1.9031 -2.1345
  843MOL0     H16334   9.811   8.658   4.757 -0.8701  1.7281 -1.8722
  844MOL0     O16335   1.811   5.216   1.633  0.0600 -0.8510  0.3319
  844MOL0     C16336   1.697   5.195   1.599 -0.1462 -0.5107  0.3221
  844MOL0     O16337   1.641   5.068   1.588 -0.7262  0.3598 -0.3586
  844MOL0     C16338   1.696   4.958   1.658 -0.7328  0.4169 -1.0007
  844MOL0     C16339   1.758   4.849   1.596 -0.3586  0.2760 -0.0691
  844MOL0     C16340   1.850   4.775   1.658  0.1642  0.1682  0.2172
  844MOL0     C16341   1.864   4.791   1.794  0.5409 -0.5070  0.7502
  844MOL0     O16342   1.945   4.715   1.868  0.6492  0.0010 -0.5479
  844MOL0     C16343   2.083   4.692   1.827  0.2394 -0.5718 -1.0128
  844MOL0     C16344   2.133   4.563   1.899 -0.1948 -0.5209 -0.4868
  844MOL0     C16345   2.059   4.449   1.842 -0.3122  0.0432 -0.4666
  844MOL0     C16346   2.119   4.319   1.903 -0.0807 -0.0907  0.9285
  844MOL0     C16347   2.031   4.210   1.845  0.4614  1.0712  0.2872
  844MOL0     C16348   2.092   4.082   1.916  0.0219  0.3796  0.1500
  844MOL0     C16349   2.011   3.956   1.897 -0.2412  0.9601 -0.4371
  844MOL0     C16350   2.092   3.829   1.854  0.9516  0.4432 -0.1435
  844MOL0     N16351   2.151   3.830   1.719  0.3419  0.9061  0.8975
  844MOL0     C16352   2.275   3.885   1.697 -0.3983  0.0623 -0.4560
  844MOL0     C16353   2.287   3.926   1.567 -1.1670  0.4469 -0.4047
  844MOL0     C16354   2.405   4.004   1.512 -1.2364 -0.8531  0.7407
  844MOL0     C16355   2.347   4.132   1.435  0.5106 -0.9034  0.6325
  844MOL0     C16356   2.251   4.221   1.515 -0.8806 -0.2887  0.1530
  844MOL0     C16357   2.163   4.305   1.425  0.0814  0.7700  0.4402
  844MOL0     O16358   2.067   4.365   1.510 -0.0116  1.0358 -0.6134
  844MOL0     C16359   1.960   4.427   1.438  0.7071 -0.6813 -0.0455
  844MOL0     C16360   1.968   4.517   1.320  1.3524  0.1344  0.4710
  844MOL0     C16361   1.850   4.599   1.278 -0.6965  0.1513 -0.9810
  844MOL0     C16362   1.863   4.671   1.149 -0.0650  0.0563 -0.8787
  844MOL0     C16363   1.720   4.572   1.338 -1.1312  0.2638 -0.2207
  844MOL0     C16364   1.600   4.641   1.317 -0.1001 -0.1878  0.3669
  844MOL0     O16365   1.497   4.619   1.412 -0.2835  0.1022 -0.7495
  844MOL0     C16366   1.380   4.678   1.389  0.5120  0.8467 -1.1801
  844MOL0     C16367   1.270   4.604   1.347  0.2748  0.7757 -0.2460
  844MOL0     C16368   1.150   4.664   1.320 -0.4519 -0.0124  0.7165
  844MOL0     C16369   1.129   4.797   1.330 -0.3099 -1.2587 -0.3878
  844MOL0     O16370   1.012   4.854   1.291 -0.0900 -0.8975  0.0578
  844MOL0     C16371   0.911   4.776   1.235 -0.2780 -0.2528 -0.6144
  844MOL0     C16372   0.781   4.862   1.237  0.8320  0.9865 -0.6173
  844MOL0     C16373   0.777   4.981   1.137 -0.1804 -1.1147 -0.1846
  844MOL0     C16374   0.768   4.933   0.994 -0.9265  0.1544 -0.1637
  844MOL0     C16375   0.734   5.051   0.895 -0.0725 -0.8191 -0.5128
  844MOL0     C16376   0.848   5.143   0.866 -0.3629 -0.5307  0.3081
  844MOL0     C16377   0.935   5.080   0.761 -0.4207  0.0359  0.4663
  844MOL0     C16378   1.077   5.139   0.755 -0.8170  0.1049  0.3151
  844MOL0    Cl16379   1.073   5.299   0.694  0.2410  0.0793 -0.0697
  844MOL0     C16380   1.235   4.878   1.391 -0.6694 -0.2777  0.3431
  844MOL0     C16381   1.356   4.812   1.422 -0.0769 -0.2547  0.0064
  844MOL0     O16382   1.587   4.713   1.212  0.3178  0.5549 -0.1113
  844MOL0     C16383   1.716   4.476   1.448 -0.4242 -0.1201  1.3346
  844MOL0     C16384   1.831   4.402   1.488  0.5530 -0.2203 -0.6688
  844MOL0     N16385   2.157   3.901   1.512 -1.1868 -0.3869 -0.5925
  844MOL0     N16386   2.081   3.851   1.602  0.2632  0.1998  0.3187
  844MOL0     C16387   1.790   4.885   1.869 -0.3646 -0.2131 -0.0852
  844MOL0     C16388   1.716   4.974   1.797  1.0658  0.4529 -0.1483
  844MOL0     C16389   1.621   5.322   1.558 -0.3231  0.7667 -0.1431
  844MOL0     C16390   1.503   5.296   1.487 -1.2426  0.3382 -0.2128
  844MOL0     C16391   1.435   5.405   1.435 -0.1670 -0.0528  0.2874
  844MOL0     C16392   1.475   5.537   1.456 -0.3824  0.1950  0.1977
  844MOL0     O16393   1.411   5.644   1.400  0.2619 -0.4582 -0.2342
  844MOL0     C16394   1.436   5.672   1.255  0.5263  0.0051  0.6476
  844MOL0     C16395   1.315   5.740   1.191 -0.2291 -0.0085 -0.4681
  844MOL0     C16396   1.320   5.743   1.038  0.3020  0.3785  0.0004
  844MOL0     C16397   1.271   5.888   0.989 -0.6577  0.3072 -1.2566
  844MOL0     C16398   1.307   5.915   0.849 -0.6380 -0.6803 -0.0077
  844MOL0     C16399   1.332   5.944   0.732  0.4976  0.2664 -1.1097
  844MOL0     C16400   1.594   5.563   1.529  0.8653  0.4089 -0.2163
  844MOL0     C16401   1.657   5.451   1.595  0.3555 -0.6027  0.6164
  844MOL0     C16402   1.771   5.490   1.690  1.1367 -0.6595 -0.3027
  844MOL0     H16403   1.725   4.852   1.493 -2.1647 -0.0046  0.4691
  844MOL0     H16404   1.907   4.701   1.603  0.0037 -1.0217  1.5709
  844MOL0     H16405   2.135   4.783   1.857 -1.0064 -0.8741  2.5270
  844MOL0     H16406   2.090   4.661   1.722 -1.4604  1.0134 -1.6375
  844MOL0     H16407   2.240   4.551   1.883  0.2216  0.5173  1.2420
  844MOL0     H16408   2.122   4.571   2.008  1.5729  3.9170 -0.4363
  844MOL0     H16409   1.950   4.451   1.859 -0.5919 -2.0289 -1.6815
  844MOL0     H16410   2.079   4.452   1.734  1.2980 -2.3763 -0.2957
  844MOL0     H16411   2.226   4.302   1.890 -0.5018 -1.7385 -0.9311
  844MOL0     H16412   2.101   4.321   2.010  0.5325 -0.7100  1.0496
  844MOL0     H16413   2.038   4.198   1.737  0.0032 -2.0810  0.5214
  844MOL0     H16414   1.925   4.220   1.872 -0.4653 -3.2102 -1.0795
  844MOL0     H16415   2.191   4.052   1.879 -1.3284 -5.0743  0.1427
  844MOL0     H16416   2.093   4.102   2.023 -0.7169 -2.6286  0.8030
  844MOL0     H16417   1.939   3.968   1.816 -0.3524  3.0404 -0.0729
  844MOL0     H16418   1.967   3.936   1.996 -1.1653 -0.2450 -1.0726
  844MOL0     H16419   2.167   3.817   1.933 -1.1835 -0.1042  1.9017
  844MOL0     H16420   2.029   3.740   1.853  0.0886  1.0490 -1.2611
  844MOL0     H16421   2.350   3.898   1.774  0.1769  0.1959 -1.0268
  844MOL0     H16422   2.460   3.947   1.437  1.0840 -0.5745  2.1362
  844MOL0     H16423   2.476   4.040   1.587  0.0626 -1.2306 -0.2804
  844MOL0     H16424   2.425   4.197   1.393 -1.6775  0.1676 -2.0814
  844MOL0     H16425   2.296   4.110   1.341 -1.0645  2.0896  0.6663
  844MOL0     H16426   2.181   4.164   1.576 -0.5287 -2.6775 -1.5723
  844MOL0     H16427   2.301   4.292   1.583 -4.5503 -1.1530  4.2125
  844MOL0     H16428   2.229   4.366   1.362  0.2913 -2.6187 -2.9859
  844MOL0     H16429   2.120   4.237   1.350 -0.7019  1.2989  0.3974
  844MOL0     H16430   2.063   4.539   1.271  0.9383  2.1192  0.4606
  844MOL0     H16431   1.827   4.771   1.174 -1.4968 -1.1326  2.2373
  844MOL0     H16432   1.804   4.624   1.069 -3.7756  2.6464  0.0856
  844MOL0     H16433   1.963   4.677   1.105 -0.3876 -1.3690 -1.8633
  844MOL0     H16434   1.271   4.495   1.342  1.0949  0.6356  1.9993
  844MOL0     H16435   1.078   4.588   1.291  0.4983 -0.9293  0.7283
  844MOL0     H16436   0.932   4.751   1.131 -0.0518 -0.7817 -0.4441
  844MOL0     H16437   0.901   4.684   1.294  0.2761  1.7469  2.8406
  844MOL0     H16438   0.689   4.803   1.242 -0.0799  2.3720 -0.4137
  844MOL0     H16439   0.784   4.917   1.331 -0.9261 -1.1703  0.8042
  844MOL0     H16440   0.873   5.030   1.155  0.1110 -2.5343  2.7068
  844MOL0     H16441   0.699   5.055   1.157  0.5438  0.2194 -2.0020
  844MOL0     H16442   0.689   4.859   0.985 -0.8821 -0.0383  0.8619
  844MOL0     H16443   0.862   4.880   0.973 -0.6391  0.4617  0.3082
  844MOL0     H16444   0.697   5.016   0.799  1.4365 -1.7922 -0.7721
  844MOL0     H16445   0.651   5.104   0.943  0.8639  1.0302 -0.8676
  844MOL0     H16446   0.913   5.165   0.951 -1.9618  0.6641  1.2832
  844MOL0     H16447   0.814   5.242   0.832 -1.9356 -1.3388 -0.5997
  844MOL0     H16448   0.889   5.092   0.662 -0.2411 -2.7719 -0.0521
  844MOL0     H16449   0.938   4.971   0.774 -2.5859 -0.2703 -0.9783
  844MOL0     H16450   1.128   5.074   0.684 -2.5362  0.9381 -1.7998
  844MOL0     H16451   1.134   5.131   0.848  1.1549  0.5858 -0.7970
  844MOL0     H16452   1.230   4.986   1.400  2.3227 -0.0678  0.3324
  844MOL0     H16453   1.427   4.860   1.488 -0.9061  0.0491  0.6937
  844MOL0     H16454   1.627   4.445   1.502 -1.1774 -2.0116 -0.8291
  844MOL0     H16455   1.817   4.341   1.577  0.4434  0.9043  0.1129
  844MOL0     H16456   1.809   4.902   1.975  4.9935 -1.8901 -0.4527
  844MOL0     H16457   1.665   5.058   1.845  1.4438  0.3789  0.3979
  844MOL0     H16458   1.473   5.194   1.468  2.2664 -0.5035 -1.8996
  844MOL0     H16459   1.337   5.388   1.391  0.4185  1.2457 -1.6780
  844MOL0     H16460   1.523   5.736   1.238 -0.2805  0.4325 -2.3847
  844MOL0     H16461   1.453   5.578   1.202 -2.2667 -1.2248  1.7091
  844MOL0     H16462   1.313   5.841   1.234  2.1143 -0.1511  0.1185
  844MOL0     H16463   1.230   5.676   1.218 -0.7579  0.4933 -0.9112
  844MOL0     H16464   1.418   5.717   0.995 -0.3832 -2.2568 -0.1280
  844MOL0     H16465   1.258   5.665   0.994  0.7161  0.2603 -0.3847
  844MOL0     H16466   1.315   5.961   1.058  0.8395 -0.0856 -1.7629
  844MOL0     H16467   1.162   5.887   0.994 -0.6061 -0.5905  0.3421
  844MOL0     H16468   1.357   5.961   0.629  0.6038  1.2452 -0.9238
  844MOL0     H16469   1.621   5.668   1.533  0.2192  0.5530  0.7495
  844MOL0     H16470   1.867   5.444   1.662  1.4583  0.4147 -1.0259
  844MOL0     H16471   1.794   5.597   1.687  1.5890 -0.5339  3.1768
  844MOL0     H16472   1.751   5.450   1.790  1.1958 -0.7031 -0.3082
  845MOL0     O16473   8.551   5.250   6.880  0.1877  0.2280 -0.6843
  845MOL0     C16474   8.591   5.362   6.890  0.0761 -1.0415 -1.0519
  845MOL0     O16475   8.685   5.403   6.985  0.8105 -1.4894 -1.2228
  845MOL0     C16476   8.733   5.311   7.072  0.6021  0.5586  0.1844
  845MOL0     C16477   8.871   5.277   7.070 -0.9020 -0.1734  0.3963
  845MOL0     C16478   8.926   5.187   7.161  0.0991  0.5661 -0.4012
  845MOL0     C16479   8.842   5.136   7.262  0.4144  0.4953 -0.2007
  845MOL0     O16480   8.908   5.064   7.354 -0.0212  0.5580  0.2500
  845MOL0     C16481   8.939   5.131   7.471 -1.0446  0.4114 -0.2777
  845MOL0     C16482   9.028   5.030   7.537 -0.5020  1.6081 -0.4826
  845MOL0     C16483   9.141   4.982   7.440  0.0054 -0.3562 -0.4782
  845MOL0     C16484   9.268   4.942   7.506 -0.2626 -0.1531  1.0165
  845MOL0     C16485   9.250   4.800   7.561 -0.0207  0.2151 -0.6088
  845MOL0     C16486   9.304   4.781   7.703  0.4806 -0.1311  0.2229
  845MOL0     C16487   9.208   4.845   7.809  0.5168  0.1953 -1.1084
  845MOL0     C16488   9.081   4.755   7.852 -0.7866 -0.3252 -0.1331
  845MOL0     N16489   9.127   4.624   7.917  0.4381  0.7602  0.0645
  845MOL0     C16490   9.228   4.613   8.002  0.2601 -0.0100 -0.2835
  845MOL0     C16491   9.259   4.482   8.009 -0.4125  0.6695 -0.1147
  845MOL0     C16492   9.361   4.410   8.100 -0.1991  0.3635 -0.0771
  845MOL0     C16493   9.449   4.324   8.010  0.2779 -0.1054  0.5759
  845MOL0     C16494   9.523   4.408   7.910 -0.1020 -0.1602 -0.0937
  845MOL0     C16495   9.599   4.536   7.973 -0.2425  0.6712  0.1791
  845MOL0     O16496   9.693   4.480   8.066 -0.4616  0.2619  0.1973
  845MOL0     C16497   9.758   4.567   8.152  0.1357  0.0764  0.0429
  845MOL0     C16498   9.757   4.711   8.143  0.2875 -0.4539 -0.3914
  845MOL0     C16499   9.838   4.795   8.229  0.3619  0.7930 -0.3981
  845MOL0     C16500   9.828   4.938   8.208 -0.6991 -0.6042 -0.0896
  845MOL0     C16501   9.907   4.741   8.340 -0.0243  0.3071 -0.1242
  845MOL0     C16502   9.981   4.816   8.453  0.4480 -0.4289  0.1460
  845MOL0     O16503  10.021   4.744   8.554  0.6613  0.3746  0.3760
  845MOL0     C16504  10.074   4.806   8.655 -1.8770 -0.7806 -0.1331
  845MOL0     C16505   9.994   4.809   8.768 -0.9444 -1.0211 -0.5501
  845MOL0     C16506  10.022   4.881   8.887  0.2435 -0.6737  0.6633
  845MOL0     C16507  10.138   4.949   8.886 -0.5393 -0.3028  0.6213
  845MOL0     O16508  10.179   5.030   8.982  0.0325  0.2667 -0.6735
  845MOL0     C16509  10.088   5.080   9.076  0.7263 -0.4545  0.0472
  845MOL0     C16510  10.159   5.167   9.171 -0.2528  0.0776 -0.4061
  845MOL0     C16511  10.285   5.109   9.238  0.6249 -0.6150 -1.0020
  845MOL0     C16512  10.340   5.206   9.343  0.0506 -0.6032 -0.1813
  845MOL0     C16513  10.429   5.118   9.433 -0.1550 -0.2834 -0.0874
  845MOL0     C16514  10.483   5.187   9.560  0.5086  0.6509 -1.3249
  845MOL0     C16515  10.613   5.124   9.614 -0.0056 -0.0332  0.8223
  845MOL0     C16516  10.726   5.164   9.520 -0.5724  0.2177  1.4021
  845MOL0    Cl16517  10.890   5.144   9.588 -0.3801 -0.2900 -0.3690
  845MOL0     C16518  10.226   4.946   8.778  0.2526 -0.1867  0.0005
  845MOL0     C16519  10.196   4.875   8.660  0.3729  0.3518  0.5145
  845MOL0     O16520   9.995   4.937   8.443  0.1281 -0.5734 -0.4344
  845MOL0     C16521   9.904   4.597   8.350 -0.0820 -0.1383  0.0253
  845MOL0     C16522   9.833   4.517   8.258  0.6854 -0.0573 -0.1267
  845MOL0     N16523   9.183   4.416   7.910 -0.4466 -0.1972  0.5295
  845MOL0     N16524   9.097   4.504   7.857 -0.9010  0.1213 -0.0304
  845MOL0     C16525   8.701   5.159   7.256 -0.1915  0.3500  0.6517
  845MOL0     C16526   8.655   5.252   7.169  0.2890  0.4950 -0.4907
  845MOL0     C16527   8.535   5.460   6.797  0.1496 -0.0471  0.0340
  845MOL0     C16528   8.483   5.411   6.672 -0.5337 -0.7066 -0.6102
  845MOL0     C16529   8.436   5.498   6.568 -0.6102 -0.1968  0.3394
  845MOL0     C16530   8.443   5.641   6.585 -0.5317 -0.3227 -0.7457
  845MOL0     O16531   8.419   5.733   6.489 -0.4610  0.5474  0.1359
  845MOL0     C16532   8.365   5.690   6.355 -0.5090  0.4014 -0.0530
  845MOL0     C16533   8.329   5.812   6.274  0.7957 -0.2823  0.2701
  845MOL0     C16534   8.235   5.779   6.148 -0.6810  0.2316 -0.2039
  845MOL0     C16535   8.166   5.894   6.079 -0.6599  0.2227  0.0500
  845MOL0     C16536   8.044   5.920   6.150  0.1494 -0.6997 -0.7341
  845MOL0     C16537   7.937   5.978   6.179 -0.3236  0.1194  0.1626
  845MOL0     C16538   8.480   5.692   6.719 -0.2694  1.7891 -0.0568
  845MOL0     C16539   8.518   5.598   6.820  0.1031  0.1040 -0.5285
  845MOL0     C16540   8.529   5.659   6.959 -1.4761 -0.5635 -0.4552
  845MOL0     H16541   8.941   5.323   7.002 -0.7204 -0.0304  0.6811
  845MOL0     H16542   9.033   5.168   7.165  0.4039  2.2200 -0.0711
  845MOL0     H16543   8.853   5.137   7.539  1.0788 -1.4235  2.8291
  845MOL0     H16544   8.989   5.225   7.448 -0.2116  0.1621  0.4500
  845MOL0     H16545   9.068   5.072   7.630 -1.3068  0.7758  0.2501
  845MOL0     H16546   8.967   4.944   7.564  0.0351  1.2419 -0.4151
  845MOL0     H16547   9.105   4.904   7.373 -2.4117 -0.8947  1.3296
  845MOL0     H16548   9.168   5.071   7.382  0.1997  1.3070  2.0063
  845MOL0     H16549   9.353   4.941   7.437 -0.9300  1.0588  0.1347
  845MOL0     H16550   9.301   5.011   7.585  2.4075  0.2045 -0.2742
  845MOL0     H16551   9.305   4.740   7.489 -1.9170 -0.8426 -1.2578
  845MOL0     H16552   9.141   4.788   7.561 -0.1668  1.2110  1.5902
  845MOL0     H16553   9.311   4.676   7.733 -0.0217 -0.4642 -0.7977
  845MOL0     H16554   9.402   4.831   7.702  0.7027 -0.5302  0.8334
  845MOL0     H16555   9.168   4.942   7.776 -2.5942 -1.1064 -1.5048
  845MOL0     H16556   9.275   4.849   7.895 -1.1653 -1.7073  0.3831
  845MOL0     H16557   9.037   4.815   7.932 -2.5517 -0.5639 -0.8641
  845MOL0     H16558   9.007   4.734   7.774 -0.3749 -2.4319 -0.0064
  845MOL0     H16559   9.273   4.685   8.069 -4.3673  2.8104  0.2736
  845MOL0     H16560   9.299   4.350   8.167 -1.3093  0.4093 -1.0194
  845MOL0     H16561   9.409   4.487   8.161 -3.5726  2.6970 -0.1201
  845MOL0     H16562   9.516   4.257   8.064 -0.0318 -2.4804 -1.7593
  845MOL0     H16563   9.377   4.260   7.957 -2.4079  0.6846  2.9620
  845MOL0     H16564   9.600   4.340   7.873 -0.5226  0.5665 -2.5005
  845MOL0     H16565   9.454   4.429   7.828 -1.1761  1.0780  1.0804
  845MOL0     H16566   9.638   4.583   7.883 -2.8435  1.1063 -0.8036
  845MOL0     H16567   9.524   4.604   8.013 -0.2983  0.6903  0.0435
  845MOL0     H16568   9.713   4.748   8.052  3.7805  1.6090 -1.4415
  845MOL0     H16569   9.778   4.982   8.295 -1.2689 -1.2994 -0.0518
  845MOL0     H16570   9.767   4.965   8.121  4.2537  1.9980 -3.2137
  845MOL0     H16571   9.925   4.985   8.191 -0.0841 -0.2564  3.5268
  845MOL0     H16572   9.911   4.741   8.785  0.6374 -2.0062  6.1385
  845MOL0     H16573   9.955   4.875   8.972 -1.3140  1.0217 -0.3683
  845MOL0     H16574  10.017   5.143   9.023 -0.5813 -0.4754  1.6765
  845MOL0     H16575  10.024   5.007   9.127  0.3863 -1.2406 -1.4521
  845MOL0     H16576  10.182   5.250   9.105 -0.5662  0.1692 -0.3993
  845MOL0     H16577  10.083   5.198   9.243 -2.3672 -0.5300 -2.2460
  845MOL0     H16578  10.355   5.076   9.161  3.3270 -0.0231  1.0570
  845MOL0     H16579  10.252   5.022   9.296 -0.0184  1.8283  2.6195
  845MOL0     H16580  10.270   5.250   9.414  1.2639  0.9457  0.1128
  845MOL0     H16581  10.390   5.281   9.281 -2.3371  0.4630 -0.9059
  845MOL0     H16582  10.375   5.028   9.465  1.5243 -1.4668 -0.4179
  845MOL0     H16583  10.508   5.089   9.363  0.3872  4.6307 -1.8617
  845MOL0     H16584  10.405   5.172   9.635 -0.6820 -0.2358 -2.6839
  845MOL0     H16585  10.490   5.296   9.551  2.2908  0.6577 -0.2690
  845MOL0     H16586  10.607   5.016   9.633 -1.6958 -0.1012  0.0557
  845MOL0     H16587  10.645   5.172   9.707  1.0179  3.3003 -1.0940
  845MOL0     H16588  10.721   5.263   9.475  4.5287  0.6017  1.1659
  845MOL0     H16589  10.722   5.091   9.439 -0.9707  0.1821  1.4522
  845MOL0     H16590  10.314   5.010   8.775 -2.4033  3.8598 -0.2083
  845MOL0     H16591  10.257   4.887   8.571 -2.0515  1.0689 -1.1501
  845MOL0     H16592   9.973   4.564   8.427  2.8258  1.2576 -1.8202
  845MOL0     H16593   9.828   4.409   8.260 -3.8110 -0.0454 -0.3851
  845MOL0     H16594   8.637   5.104   7.325 -1.7218  2.6898  1.1874
  845MOL0     H16595   8.556   5.294   7.177  0.2479  0.3738 -0.3661
  845MOL0     H16596   8.478   5.304   6.651  0.1603 -0.6039 -1.3644
  845MOL0     H16597   8.401   5.456   6.474  3.3164 -0.7356 -1.0619
  845MOL0     H16598   8.426   5.615   6.303 -2.4023 -0.9001 -0.4891
  845MOL0     H16599   8.270   5.640   6.376 -0.3369  0.4015  0.7535
  845MOL0     H16600   8.414   5.865   6.230  0.2049  0.9688  0.5896
  845MOL0     H16601   8.276   5.867   6.352 -0.4197 -3.2726  1.7262
  845MOL0     H16602   8.299   5.728   6.076 -0.7938  0.3777 -0.4076
  845MOL0     H16603   8.158   5.710   6.182  0.7201 -0.8858  0.8254
  845MOL0     H16604   8.138   5.861   5.978 -0.5519  0.5977 -0.1058
  845MOL0     H16605   8.231   5.982   6.087  0.9460 -1.0431  1.7659
  845MOL0     H16606   7.860   6.045   6.214  0.7191  2.3468 -1.5872
  845MOL0     H16607   8.501   5.796   6.745 -0.5447  2.5546 -2.6416
  845MOL0     H16608   8.463   5.743   6.984 -5.3039 -2.9143 -1.8073
  845MOL0     H16609   8.499   5.591   7.039 -2.6849 -0.7224 -1.0087
  845MOL0     H16610   8.630   5.695   6.979 -1.1348  0.7460 -3.8583
  846MOL0     O16611  10.554  11.587   4.607 -0.4495  0.2781  0.4503
  846MOL0     C16612  10.578  11.527   4.712 -0.3833 -0.0125 -1.0670
  846MOL0     O16613  10.700  11.538   4.775 -0.2858  0.2055  0.7038
  846MOL0     C16614  10.778  11.643   4.732  0.1857  0.4680  0.3035
  846MOL0     C16615  10.772  11.768   4.796  0.1959  1.1121  0.3483
  846MOL0     C16616  10.848  11.875   4.742  0.8340 -0.3666  0.2762
  846MOL0     C16617  10.933  11.859   4.631  1.0014 -0.6487  0.6185
  846MOL0     O16618  11.009  11.961   4.590 -0.3696 -0.4796 -0.4578
  846MOL0     C16619  11.085  11.957   4.467  0.3606  0.3561 -0.8343
  846MOL0     C16620  11.227  11.919   4.485 -0.6049  0.7918 -0.0865
  846MOL0     C16621  11.306  12.023   4.573 -0.3231 -0.1546  0.1062
  846MOL0     C16622  11.440  11.991   4.609 -0.0098 -0.8166  0.1523
  846MOL0     C16623  11.503  12.122   4.657 -0.5638 -0.2137  0.2727
  846MOL0     C16624  11.641  12.095   4.722  0.0234 -0.0161  1.0023
  846MOL0     C16625  11.713  12.220   4.768 -0.6721 -0.4859 -0.1396
  846MOL0     C16626  11.681  12.299   4.903  0.4714 -0.6067  0.0316
  846MOL0     N16627  11.729  12.442   4.907  0.7564 -0.1186 -0.4081
  846MOL0     C16628  11.665  12.543   4.984 -0.1375  0.9327  0.1465
  846MOL0     C16629  11.734  12.658   4.959 -0.6616 -0.2392  0.0137
  846MOL0     C16630  11.696  12.791   5.019 -0.5236 -0.6995  0.1353
  846MOL0     C16631  11.805  12.832   5.130  0.6347 -0.3037  0.6869
  846MOL0     C16632  11.809  12.726   5.248 -0.7448 -0.2064 -0.4839
  846MOL0     C16633  11.736  12.765   5.375  0.2899 -0.9036  0.4595
  846MOL0     O16634  11.812  12.861   5.451  0.1712 -0.7056 -0.1578
  846MOL0     C16635  11.756  12.879   5.574  0.0651 -0.8269 -0.6633
  846MOL0     C16636  11.826  12.969   5.651  0.2281  0.3819  0.2914
  846MOL0     C16637  11.781  13.007   5.782 -0.9692  0.1593 -1.2046
  846MOL0     C16638  11.884  13.080   5.858 -0.3895  0.1431 -0.3866
  846MOL0     C16639  11.655  12.947   5.831 -0.2163  0.6965  0.4035
  846MOL0     C16640  11.586  12.980   5.954  0.9578 -0.2571  0.3116
  846MOL0     O16641  11.487  12.887   5.992  0.0248  0.3562 -0.3155
  846MOL0     C16642  11.418  12.888   6.106 -1.0134  0.4195 -0.9842
  846MOL0     C16643  11.370  13.000   6.167 -1.0790  0.9286  0.4084
  846MOL0     C16644  11.298  12.987   6.283  0.4696  0.2667 -0.2545
  846MOL0     C16645  11.271  12.858   6.342  0.4241  0.1347 -0.1944
  846MOL0     O16646  11.195  12.844   6.449  0.4602  0.2372  0.2835
  846MOL0     C16647  11.083  12.920   6.475 -0.7365  0.3907 -0.8184
  846MOL0     C16648  11.039  12.868   6.614 -0.3301  0.1336  0.0276
  846MOL0     C16649  10.940  12.976   6.671  0.1239 -0.1231  0.0728
  846MOL0     C16650  10.798  12.971   6.600 -0.3542 -0.6723 -0.4917
  846MOL0     C16651  10.705  13.077   6.668  0.6804  0.0274 -0.7088
  846MOL0     C16652  10.702  13.095   6.822  0.3630 -0.3596 -0.4947
  846MOL0     C16653  10.673  12.971   6.893  0.0506  0.2829 -0.4919
  846MOL0     C16654  10.680  12.996   7.048 -0.6396  0.2538  0.8392
  846MOL0    Cl16655  10.635  12.845   7.144 -0.2421 -0.3330 -0.1506
  846MOL0     C16656  11.315  12.748   6.279  0.6678  0.6976  0.2253
  846MOL0     C16657  11.388  12.758   6.162 -0.7622  0.6209  1.4132
  846MOL0     O16658  11.599  13.083   6.015  0.1599  0.5034 -0.2856
  846MOL0     C16659  11.591  12.854   5.747  0.4716 -0.5400  0.4219
  846MOL0     C16660  11.639  12.816   5.622  0.4717  0.8108  0.1202
  846MOL0     N16661  11.836  12.625   4.867  0.0392  0.1452  1.3399
  846MOL0     N16662  11.832  12.501   4.839 -0.4006 -0.2546  1.0527
  846MOL0     C16663  10.936  11.738   4.565 -0.2017  0.7756  0.5221
  846MOL0     C16664  10.855  11.632   4.612  0.5209  0.3116  0.1077
  846MOL0     C16665  10.484  11.427   4.761  0.4372 -0.4165 -0.0105
  846MOL0     C16666  10.534  11.303   4.800 -0.2566  0.2720  0.2104
  846MOL0     C16667  10.462  11.191   4.835  0.0341 -0.0224 -0.4575
  846MOL0     C16668  10.326  11.200   4.839 -0.0664  0.4058  0.6178
  846MOL0     O16669  10.248  11.092   4.860  0.7835  0.4290 -0.3335
  846MOL0     C16670  10.239  11.009   4.747 -1.2330 -0.5059 -0.1411
  846MOL0     C16671  10.339  10.885   4.753 -0.8552  0.2676 -0.2391
  846MOL0     C16672  10.308  10.790   4.636 -0.0394  0.4100  0.2556
  846MOL0     C16673  10.357  10.656   4.669 -1.7276  0.4558  0.0142
  846MOL0     C16674  10.356  10.561   4.554  0.5093  0.3427  0.9928
  846MOL0     C16675  10.335  10.483   4.457 -0.4752  0.9861  0.0768
  846MOL0     C16676  10.274  11.329   4.839  0.1995  0.0190  0.5005
  846MOL0     C16677  10.345  11.444   4.799 -0.3095 -0.6589  1.1156
  846MOL0     C16678  10.279  11.579   4.771 -0.8867 -0.3336 -0.8030
  846MOL0     H16679  10.718  11.765   4.890  0.8095  0.9957  0.7050
  846MOL0     H16680  10.825  11.964   4.799  0.8044 -0.7060  0.7964
  846MOL0     H16681  11.082  12.061   4.432  0.1543  1.6118  2.4854
  846MOL0     H16682  11.042  11.904   4.382  1.0464 -0.0939 -0.8984
  846MOL0     H16683  11.232  11.826   4.543 -4.4625 -0.1713 -1.0252
  846MOL0     H16684  11.269  11.911   4.385  0.1272  0.7746  0.2134
  846MOL0     H16685  11.291  12.118   4.520  1.4698 -0.1206 -0.3988
  846MOL0     H16686  11.248  12.030   4.666 -2.9600 -0.6735 -1.4222
  846MOL0     H16687  11.445  11.901   4.672  2.4335 -1.1585 -0.4138
  846MOL0     H16688  11.499  11.970   4.519  0.4240 -0.1587  0.2767
  846MOL0     H16689  11.445  12.175   4.732  0.7605  2.4248 -0.4541
  846MOL0     H16690  11.521  12.191   4.573  1.1460  0.3835  1.0689
  846MOL0     H16691  11.640  12.029   4.810 -1.7248 -1.6719 -0.1794
  846MOL0     H16692  11.698  12.033   4.653  0.9254 -1.0506  2.6045
  846MOL0     H16693  11.709  12.299   4.693 -1.2793  0.4117  0.8096
  846MOL0     H16694  11.820  12.195   4.773  0.4071  3.3693 -0.4040
  846MOL0     H16695  11.571  12.299   4.908  0.4927 -1.8024  0.9704
  846MOL0     H16696  11.728  12.242   4.983  2.3521 -2.1114 -2.0220
  846MOL0     H16697  11.582  12.537   5.054  0.6022  2.7454  1.2581
  846MOL0     H16698  11.608  12.794   5.083 -0.1205 -1.7702  0.7775
  846MOL0     H16699  11.686  12.865   4.939 -1.0289  1.3041  1.9333
  846MOL0     H16700  11.905  12.833   5.086  0.2859  0.5868 -0.1385
  846MOL0     H16701  11.787  12.937   5.157 -3.0722  0.0632 -2.3249
  846MOL0     H16702  11.777  12.627   5.216  0.8907 -2.1392  3.1758
  846MOL0     H16703  11.912  12.717   5.283 -1.3182 -0.6591  1.1854
  846MOL0     H16704  11.629  12.778   5.356  0.2270  0.8180  1.7928
  846MOL0     H16705  11.731  12.672   5.432 -1.3203 -2.2259 -1.6525
  846MOL0     H16706  11.917  13.011   5.611 -0.6638  0.0058 -2.2901
  846MOL0     H16707  11.933  13.005   5.921  0.7176  0.9333 -0.2847
  846MOL0     H16708  11.826  13.154   5.914  1.2022  0.9374  0.2596
  846MOL0     H16709  11.963  13.118   5.793 -0.2205  1.3111  0.4760
  846MOL0     H16710  11.392  13.099   6.129 -1.3711  0.7292 -0.3005
  846MOL0     H16711  11.266  13.080   6.331 -1.3368  1.2238 -3.0552
  846MOL0     H16712  11.113  13.025   6.478  0.6973 -0.0112  1.7834
  846MOL0     H16713  11.025  12.897   6.385  1.1558 -0.3717 -1.9084
  846MOL0     H16714  10.981  12.775   6.605 -1.6118  0.7004  1.8468
  846MOL0     H16715  11.129  12.862   6.676  0.3317  0.1957 -0.9099
  846MOL0     H16716  10.985  13.076   6.660 -0.2002  0.0530  0.3349
  846MOL0     H16717  10.933  12.967   6.780  0.1257 -0.1345  0.0719
  846MOL0     H16718  10.756  12.870   6.595  0.5609 -1.0067 -1.6575
  846MOL0     H16719  10.813  13.014   6.501 -1.2595  2.0858  0.4711
  846MOL0     H16720  10.732  13.179   6.639  3.2386  0.0313  1.4004
  846MOL0     H16721  10.601  13.058   6.638 -0.5252  0.7992  2.5362
  846MOL0     H16722  10.628  13.166   6.861  1.8811  0.3402  1.2244
  846MOL0     H16723  10.804  13.129   6.841  1.5896 -1.6477 -3.8625
  846MOL0     H16724  10.735  12.883   6.875 -0.1311 -0.4566  2.0878
  846MOL0     H16725  10.571  12.943   6.867  0.0681  0.0108 -0.2659
  846MOL0     H16726  10.615  13.081   7.070 -1.2095  0.3681 -1.0735
  846MOL0     H16727  10.781  13.028   7.076 -0.8507  0.1666  1.7118
  846MOL0     H16728  11.290  12.654   6.327  0.8275  1.4196  1.7863
  846MOL0     H16729  11.425  12.670   6.110 -0.1242  1.5478  0.2266
  846MOL0     H16730  11.510  12.794   5.786 -1.1998 -0.3517 -2.4868
  846MOL0     H16731  11.577  12.741   5.574  0.6710 -1.5469  3.2548
  846MOL0     H16732  10.987  11.723   4.471  1.0498 -0.8610  1.3997
  846MOL0     H16733  10.856  11.538   4.558  1.8391  0.0788  0.5026
  846MOL0     H16734  10.637  11.267   4.795 -1.0395 -2.0891 -0.3971
  846MOL0     H16735  10.517  11.101   4.860  1.4038  0.6403 -1.0349
  846MOL0     H16736  10.135  10.977   4.747 -1.0690 -1.0606  0.4347
  846MOL0     H16737  10.252  11.063   4.652  0.7754 -0.2583  0.2291
  846MOL0     H16738  10.340  10.836   4.850  0.6610 -1.0769 -0.8866
  846MOL0     H16739  10.439  10.925   4.736 -0.7330  0.3031  0.5486
  846MOL0     H16740  10.201  10.770   4.624 -0.5275 -0.1534  4.3220
  846MOL0     H16741  10.345  10.832   4.542  4.7041 -2.9536  0.3099
  846MOL0     H16742  10.299  10.607   4.748  0.2423 -2.1737 -0.0069
  846MOL0     H16743  10.460  10.678   4.697 -0.6464 -1.9954 -1.6189
  846MOL0     H16744  10.324  10.424   4.368  3.8790  1.7526 -1.1793
  846MOL0     H16745  10.166  11.334   4.845  0.1434 -2.1627  2.6274
  846MOL0     H16746  10.172  11.573   4.750 -0.8870 -0.4376 -0.7703
  846MOL0     H16747  10.284  11.644   4.859 -2.8847 -1.2405  0.0462
  846MOL0     H16748  10.322  11.636   4.687 -1.1074  1.1044  0.0259
  847MOL0     O16749   2.857   4.382  10.696  0.0441 -0.1606  0.2202
  847MOL0     C16750   2.777   4.477  10.686  0.3837  0.6318 -0.4832
  847MOL0     O16751   2.750   4.566  10.783 -0.1566 -0.8824  0.2965
  847MOL0     C16752   2.844   4.595  10.876 -0.2514 -0.4201 -0.2855
  847MOL0     C16753   2.836   4.534  11.007 -0.4930 -0.4575 -0.4394
  847MOL0     C16754   2.939   4.575  11.102  0.5401  0.3758  0.2897
  847MOL0     C16755   3.042   4.663  11.060  0.2401 -0.7437 -0.1586
  847MOL0     O16756   3.124   4.706  11.164  0.4117 -0.3422 -1.3227
  847MOL0     C16757   3.266   4.735  11.157  0.1375  0.4698  0.3032
  847MOL0     C16758   3.307   4.770  11.290  0.9350  0.6546  0.3262
  847MOL0     C16759   3.453   4.807  11.293  0.2325 -0.7692 -0.0539
  847MOL0     C16760   3.550   4.689  11.282  0.2971  0.2070 -0.9443
  847MOL0     C16761   3.694   4.724  11.324 -0.8504 -0.1323  0.2516
  847MOL0     C16762   3.703   4.712  11.479 -0.2871 -0.3863 -0.5777
  847MOL0     C16763   3.841   4.729  11.536 -0.4554 -0.2665  0.5607
  847MOL0     C16764   3.879   4.690  11.681  0.2137 -0.4285 -0.8628
  847MOL0     N16765   3.802   4.780  11.770 -0.0504 -0.7371 -0.7988
  847MOL0     C16766   3.847   4.867  11.878 -0.5050 -0.4121 -0.4767
  847MOL0     C16767   3.751   4.881  11.970 -0.1854  0.3083  0.2093
  847MOL0     C16768   3.777   4.933  12.111  0.3607 -0.3904  0.2537
  847MOL0     C16769   3.781   5.085  12.116  0.0520 -0.3206 -0.0977
  847MOL0     C16770   3.877   5.151  12.024  0.1788  0.7051  0.7251
  847MOL0     C16771   3.903   5.305  12.044 -1.3657 -0.2336  0.3638
  847MOL0     O16772   3.946   5.362  11.919 -0.2226  0.8332  0.3120
  847MOL0     C16773   4.084   5.367  11.880  0.7717 -0.0754  0.1095
  847MOL0     C16774   4.189   5.311  11.955  0.1930 -0.4391 -0.7361
  847MOL0     C16775   4.319   5.303  11.918  1.2080 -0.6378 -0.4948
  847MOL0     C16776   4.415   5.272  12.029 -0.0097  0.3930  0.3147
  847MOL0     C16777   4.355   5.350  11.793  0.4073 -0.9903 -0.1830
  847MOL0     C16778   4.478   5.348  11.735  0.4466  0.8823  1.0143
  847MOL0     O16779   4.541   5.236  11.767  0.1594  0.1070  0.6882
  847MOL0     C16780   4.680   5.225  11.740 -0.1268  0.2798  0.4691
  847MOL0     C16781   4.770   5.285  11.828  0.0346 -0.0096 -0.4549
  847MOL0     C16782   4.902   5.267  11.807 -0.4578 -0.1620 -1.1088
  847MOL0     C16783   4.954   5.183  11.711 -0.0853  0.1462  0.0904
  847MOL0     O16784   5.082   5.143  11.698 -0.1638 -0.6377  0.0933
  847MOL0     C16785   5.149   5.106  11.826  0.0484 -0.2768  0.9866
  847MOL0     C16786   5.266   5.025  11.784 -1.8781  0.6558 -0.6555
  847MOL0     C16787   5.356   4.986  11.914  0.4427 -0.3779  0.1816
  847MOL0     C16788   5.443   5.087  11.975  0.6739  0.0370 -0.0567
  847MOL0     C16789   5.507   5.032  12.113  0.1085 -0.9256 -0.9267
  847MOL0     C16790   5.603   5.139  12.173 -0.3946  0.1336 -0.1678
  847MOL0     C16791   5.690   5.071  12.280  0.6756 -0.5894  0.8720
  847MOL0     C16792   5.830   5.021  12.234  0.6057 -0.0369 -1.1598
  847MOL0    Cl16793   5.816   4.878  12.140 -0.3166  0.4827  0.0213
  847MOL0     C16794   4.859   5.110  11.628  0.4621 -0.5073  0.6456
  847MOL0     C16795   4.725   5.135  11.638  0.0867 -0.1240 -0.0256
  847MOL0     O16796   4.535   5.440  11.681  0.0128 -0.4388 -0.1516
  847MOL0     C16797   4.255   5.421  11.721  0.6481 -0.0560 -0.2786
  847MOL0     C16798   4.123   5.430  11.759  0.8123  0.1199 -1.0411
  847MOL0     N16799   3.643   4.818  11.919 -0.6005  0.3239  1.0504
  847MOL0     N16800   3.667   4.758  11.799 -0.4758  0.0850 -0.0517
  847MOL0     C16801   3.038   4.723  10.935 -0.3242 -0.5446 -0.6456
  847MOL0     C16802   2.941   4.692  10.842 -0.4977 -0.0459  0.4497
  847MOL0     C16803   2.692   4.475  10.563 -0.1969 -0.0095  0.0012
  847MOL0     C16804   2.640   4.601  10.531  0.0566 -1.1216 -0.2524
  847MOL0     C16805   2.549   4.614  10.428  0.1276  0.2925  0.5670
  847MOL0     C16806   2.517   4.501  10.337 -0.5708  1.0510  0.0123
  847MOL0     O16807   2.429   4.515  10.235  0.3713 -0.1755  0.5262
  847MOL0     C16808   2.415   4.640  10.161  0.7215  0.7280  0.3031
  847MOL0     C16809   2.543   4.692  10.105 -0.6753 -1.3339  0.2372
  847MOL0     C16810   2.515   4.820  10.015 -1.0751  0.4922 -0.5865
  847MOL0     C16811   2.459   4.945  10.095  0.2429  0.2885 -0.3940
  847MOL0     C16812   2.540   4.974  10.214  0.2778 -0.1696  0.5829
  847MOL0     C16813   2.613   4.996  10.307  0.6049 -0.8579  0.1148
  847MOL0     C16814   2.577   4.377  10.371  0.9991 -0.8249 -0.2598
  847MOL0     C16815   2.655   4.364  10.486 -0.3950  0.6052 -0.2129
  847MOL0     C16816   2.697   4.219  10.519  0.5134  0.6698  0.0837
  847MOL0     H16817   2.760   4.459  11.027 -2.7514  0.7394 -3.6725
  847MOL0     H16818   2.933   4.545  11.207 -0.8058 -2.9778 -0.6074
  847MOL0     H16819   3.282   4.827  11.101  1.8063 -0.3579 -0.6679
  847MOL0     H16820   3.329   4.657  11.112 -0.9417 -1.9210  2.6119
  847MOL0     H16821   3.251   4.856  11.326  2.1573 -0.4483  5.6831
  847MOL0     H16822   3.290   4.689  11.362  3.4585  1.4122  1.8747
  847MOL0     H16823   3.475   4.883  11.218  1.6499 -0.5063  0.6059
  847MOL0     H16824   3.465   4.856  11.390 -3.5812 -0.1330  0.2443
  847MOL0     H16825   3.509   4.612  11.348 -0.4150  2.2379  1.1127
  847MOL0     H16826   3.557   4.648  11.181  0.0481 -1.1888 -0.4168
  847MOL0     H16827   3.712   4.823  11.281  1.4395 -0.9502 -0.8398
  847MOL0     H16828   3.758   4.650  11.273 -1.9947  0.0818 -1.6092
  847MOL0     H16829   3.637   4.792  11.515  0.1534 -1.3372  2.7194
  847MOL0     H16830   3.657   4.615  11.502  0.2967 -0.0011  2.7188
  847MOL0     H16831   3.875   4.832  11.521  2.3460 -1.1034  0.6253
  847MOL0     H16832   3.905   4.664  11.476 -0.9221 -0.9513  0.7929
  847MOL0     H16833   3.855   4.585  11.701 -1.6506  0.2275  0.6519
  847MOL0     H16834   3.987   4.707  11.690  0.2756 -0.5925 -1.2724
  847MOL0     H16835   3.953   4.886  11.890 -0.6611  0.4281 -0.3220
  847MOL0     H16836   3.867   4.894  12.159  0.0460 -0.1583  1.0507
  847MOL0     H16837   3.693   4.889  12.166  1.8763 -1.2968  2.0008
  847MOL0     H16838   3.680   5.119  12.093 -0.0102 -0.7087 -0.4101
  847MOL0     H16839   3.827   5.120  12.209  0.3157  2.2265 -1.0938
  847MOL0     H16840   3.978   5.108  12.033 -0.2345 -1.2087 -2.4650
  847MOL0     H16841   3.837   5.144  11.923 -0.7003 -2.9792  1.1942
  847MOL0     H16842   3.805   5.353  12.051 -0.2696  2.6958 -2.2460
  847MOL0     H16843   3.955   5.342  12.133  1.1598  1.2709 -1.6169
  847MOL0     H16844   4.163   5.279  12.055 -0.5012 -0.3502 -0.8852
  847MOL0     H16845   4.477   5.361  12.043  2.1549 -1.3194  2.5915
  847MOL0     H16846   4.478   5.185  12.007 -0.6952 -1.5145  4.8496
  847MOL0     H16847   4.363   5.265  12.125  1.0392  3.2709  1.2138
  847MOL0     H16848   4.728   5.347  11.907 -1.8513  0.9319 -2.1223
  847MOL0     H16849   4.965   5.316  11.881  1.0131 -0.1641 -2.3048
  847MOL0     H16850   5.189   5.188  11.886  0.0093  0.2092  0.3495
  847MOL0     H16851   5.089   5.035  11.884 -1.0346 -4.3008 -4.2881
  847MOL0     H16852   5.249   4.930  11.732  0.2032 -0.3772  0.4155
  847MOL0     H16853   5.335   5.081  11.721 -3.5082  2.3918 -0.9971
  847MOL0     H16854   5.393   4.884  11.899 -5.0234 -2.6775 -0.0953
  847MOL0     H16855   5.290   4.961  11.998  1.5759 -2.5435  0.4870
  847MOL0     H16856   5.401   5.186  11.994 -1.2683 -0.4096 -1.7075
  847MOL0     H16857   5.525   5.121  11.912 -0.3838 -1.4399 -2.3424
  847MOL0     H16858   5.425   5.007  12.182  0.5580 -2.6716 -0.9870
  847MOL0     H16859   5.560   4.937  12.106 -0.1644 -1.0891 -0.8166
  847MOL0     H16860   5.541   5.220  12.213 -0.1282  1.3308 -2.0568
  847MOL0     H16861   5.661   5.181  12.090  1.9676  2.1144  2.2513
  847MOL0     H16862   5.646   4.985  12.330 -0.6406  0.0306  0.8106
  847MOL0     H16863   5.704   5.154  12.351  0.0813  0.7908 -0.5633
  847MOL0     H16864   5.891   4.985  12.318 -1.5613  0.4403  0.7118
  847MOL0     H16865   5.879   5.108  12.187  0.0685  0.2829 -1.1320
  847MOL0     H16866   4.903   5.026  11.575  2.0806 -0.3048  1.6048
  847MOL0     H16867   4.653   5.070  11.589  1.3349 -1.1069 -0.5788
  847MOL0     H16868   4.269   5.459  11.620 -0.5326  0.3222 -0.3148
  847MOL0     H16869   4.053   5.488  11.700  0.9753  1.6133  0.1520
  847MOL0     H16870   3.107   4.804  10.914 -0.3299 -0.0016  1.2379
  847MOL0     H16871   2.933   4.728  10.740  3.4530 -1.2982 -0.4712
  847MOL0     H16872   2.661   4.692  10.586 -2.9578  0.3253 -1.2619
  847MOL0     H16873   2.516   4.713  10.397 -0.0856 -0.7806 -3.0282
  847MOL0     H16874   2.339   4.627  10.084 -0.8436  3.2036  1.2972
  847MOL0     H16875   2.367   4.716  10.224  4.6590  1.9797  2.1107
  847MOL0     H16876   2.584   4.610  10.045  0.1504 -1.6008  1.1419
  847MOL0     H16877   2.614   4.722  10.182  0.7202  4.4434 -2.7598
  847MOL0     H16878   2.611   4.849   9.971 -0.3673  0.7761  1.0651
  847MOL0     H16879   2.441   4.806   9.936 -1.3438  0.5553 -0.3472
  847MOL0     H16880   2.354   4.930  10.124  0.0029  1.2368 -0.7321
  847MOL0     H16881   2.464   5.039  10.038  1.1015  1.5899  1.7341
  847MOL0     H16882   2.683   5.014  10.386  2.2676 -0.8356 -1.2879
  847MOL0     H16883   2.548   4.301  10.300 -0.2509 -0.4225 -0.2048
  847MOL0     H16884   2.701   4.199  10.626  2.8848  1.0536  0.1125
  847MOL0     H16885   2.639   4.138  10.474 -0.2830  1.4035 -0.2408
  847MOL0     H16886   2.799   4.222  10.479  0.2626  3.2075 -0.5599
  848MOL0     O16887  11.495   2.250   8.527  0.6940 -0.0791  0.3657
  848MOL0     C16888  11.385   2.232   8.470  0.1372  0.1485  1.2319
  848MOL0     O16889  11.306   2.123   8.470 -0.7610 -0.1054 -0.1914
  848MOL0     C16890  11.312   2.043   8.584 -0.2290 -0.4256  0.3119
  848MOL0     C16891  11.317   2.093   8.717 -0.2085 -0.2734  0.8352
  848MOL0     C16892  11.291   2.005   8.819  0.3428  1.1304 -0.8551
  848MOL0     C16893  11.267   1.865   8.791  0.4103 -0.0073  0.0392
  848MOL0     O16894  11.239   1.774   8.890  0.8963 -0.3374 -0.3281
  848MOL0     C16895  11.265   1.815   9.022 -0.2554  1.4183 -0.3082
  848MOL0     C16896  11.276   1.681   9.112  0.0078 -0.3784  0.4395
  848MOL0     C16897  11.285   1.719   9.253 -0.6839  0.1845 -0.0537
  848MOL0     C16898  11.427   1.756   9.294  0.8825 -0.8251 -0.2941
  848MOL0     C16899  11.518   1.631   9.297 -0.3104  0.8199 -0.7065
  848MOL0     C16900  11.668   1.664   9.289  0.8005 -1.0227 -0.4473
  848MOL0     C16901  11.705   1.688   9.144 -0.5127 -1.1217  1.3634
  848MOL0     C16902  11.845   1.745   9.119 -1.0054  0.2107 -0.9914
  848MOL0     N16903  11.868   1.884   9.161  0.6601  0.0425  0.8374
  848MOL0     C16904  11.986   1.950   9.148  0.3182 -0.1994 -0.2682
  848MOL0     C16905  11.958   2.085   9.167 -1.4591 -0.3805  0.4985
  848MOL0     C16906  12.059   2.203   9.176  0.6083 -0.1340 -0.2995
  848MOL0     C16907  12.091   2.251   9.035  0.0321  0.9220 -0.0124
  848MOL0     C16908  12.218   2.348   9.026  0.5277  0.6647 -0.2333
  848MOL0     C16909  12.228   2.464   9.121  0.0229  0.1175 -0.4506
  848MOL0     O16910  12.102   2.538   9.111 -1.1561  0.5389  0.0269
  848MOL0     C16911  12.093   2.654   9.178  0.3431 -0.5675  0.2681
  848MOL0     C16912  11.972   2.719   9.148  0.3445 -0.2666 -0.0325
  848MOL0     C16913  11.935   2.841   9.220  0.6048  0.9142  0.5909
  848MOL0     C16914  11.800   2.895   9.198  0.3405  0.0584 -0.0320
  848MOL0     C16915  12.022   2.903   9.314  0.4203  0.0224  0.0079
  848MOL0     C16916  11.988   3.024   9.397 -0.4015  0.2449 -0.2513
  848MOL0     O16917  12.090   3.070   9.474 -0.3887  0.4153 -0.2208
  848MOL0     C16918  12.040   3.126   9.588  0.4796  0.4364 -0.9570
  848MOL0     C16919  12.034   3.261   9.586  0.2126 -0.0678  0.1346
  848MOL0     C16920  11.983   3.329   9.697 -1.5482 -0.7662  0.3663
  848MOL0     C16921  11.944   3.263   9.813 -0.6416 -0.2030  1.0827
  848MOL0     O16922  11.902   3.330   9.923  1.0217  0.0035  0.2203
  848MOL0     C16923  11.999   3.407   9.999 -0.3929 -1.5738 -1.1317
  848MOL0     C16924  11.931   3.547  10.016 -0.8372 -0.7229 -0.8569
  848MOL0     C16925  12.008   3.674  10.081 -0.0609  0.3175  0.1438
  848MOL0     C16926  12.113   3.716   9.985 -0.1265  0.5407  0.3502
  848MOL0     C16927  12.204   3.829  10.044 -0.4658  0.0589 -1.2808
  848MOL0     C16928  12.276   3.907   9.931 -0.3899 -1.1189  0.6997
  848MOL0     C16929  12.363   4.024   9.984 -0.1209 -0.9187  0.1402
  848MOL0     C16930  12.293   4.121  10.087  0.3549  0.0052  0.6018
  848MOL0    Cl16931  12.349   4.286  10.068  0.3714  0.0809 -0.0771
  848MOL0     C16932  11.929   3.128   9.808 -1.2717  0.1945 -0.9041
  848MOL0     C16933  11.985   3.059   9.698  0.3730  1.3993  0.9120
  848MOL0     O16934  11.878   3.067   9.395  0.4144  0.4153  0.0595
  848MOL0     C16935  12.153   2.846   9.323  0.4625  0.4001  0.2299
  848MOL0     C16936  12.181   2.721   9.266 -0.6843 -0.4975 -0.1421
  848MOL0     N16937  11.824   2.089   9.201  0.0442 -0.0975  0.7116
  848MOL0     N16938  11.768   1.970   9.192  0.8958 -0.3378  0.4221
  848MOL0     C16939  11.276   1.817   8.662  0.2272  0.0780  0.2794
  848MOL0     C16940  11.283   1.905   8.554 -0.2291 -0.6416 -0.0218
  848MOL0     C16941  11.334   2.331   8.360 -0.9831 -0.1929  0.7516
  848MOL0     C16942  11.215   2.306   8.286 -0.7296  1.0289 -0.6295
  848MOL0     C16943  11.162   2.392   8.197 -0.1074 -0.8417  0.0579
  848MOL0     C16944  11.232   2.508   8.180  0.8816  0.7122  0.3798
  848MOL0     O16945  11.164   2.592   8.087 -0.2751  0.4101  0.3806
  848MOL0     C16946  11.203   2.719   8.040  0.1721  0.1798  0.3496
  848MOL0     C16947  11.122   2.827   8.115 -0.6624  0.3847  0.0344
  848MOL0     C16948  10.969   2.823   8.084  0.1646 -0.7693 -0.6362
  848MOL0     C16949  10.905   2.945   8.151 -0.8646 -0.6395 -0.0532
  848MOL0     C16950  10.758   2.971   8.149 -0.4551 -0.2929  0.5387
  848MOL0     C16951  10.640   2.985   8.174 -0.4658  0.8037 -0.3840
  848MOL0     C16952  11.358   2.532   8.233  0.7115 -0.7053  0.4855
  848MOL0     C16953  11.413   2.454   8.331 -0.3853  1.1899 -0.1598
  848MOL0     C16954  11.547   2.503   8.387  0.2983  0.5959 -0.7071
  848MOL0     H16955  11.317   2.197   8.746 -0.9292 -0.3140  1.0185
  848MOL0     H16956  11.299   2.030   8.924 -0.2627 -2.7482  0.2737
  848MOL0     H16957  11.193   1.892   9.051 -0.7531 -0.1063  3.0800
  848MOL0     H16958  11.363   1.862   9.036  0.7072 -0.1590 -1.3555
  848MOL0     H16959  11.193   1.611   9.102  1.6583 -2.1492 -1.9975
  848MOL0     H16960  11.359   1.625   9.070  0.9990  1.1852  0.2248
  848MOL0     H16961  11.223   1.809   9.265  2.5410  2.8910 -1.9556
  848MOL0     H16962  11.243   1.643   9.320 -1.7090  0.7387 -0.0407
  848MOL0     H16963  11.464   1.836   9.229 -0.7121  0.1377 -0.0550
  848MOL0     H16964  11.415   1.798   9.395  0.2443 -2.6745  0.4477
  848MOL0     H16965  11.489   1.561   9.218 -0.8829 -0.7040  0.8080
  848MOL0     H16966  11.506   1.581   9.393  1.5307 -0.7492 -1.2220
  848MOL0     H16967  11.690   1.751   9.352 -1.3320 -0.7231 -0.0411
  848MOL0     H16968  11.728   1.587   9.338 -0.8355 -2.0342  0.0690
  848MOL0     H16969  11.636   1.743   9.080  0.6870 -1.2468 -0.1150
  848MOL0     H16970  11.706   1.593   9.090 -1.2364 -2.0006  2.8374
  848MOL0     H16971  11.911   1.671   9.165  1.3696  1.8778 -1.5057
  848MOL0     H16972  11.859   1.745   9.010 -1.5395  0.6020 -1.0618
  848MOL0     H16973  12.089   1.919   9.138  0.3130 -0.2100 -0.2888
  848MOL0     H16974  12.155   2.178   9.221  0.4523  1.0986  0.7897
  848MOL0     H16975  12.019   2.277   9.246  3.2986 -0.6730  1.9631
  848MOL0     H16976  12.118   2.166   8.972  0.5065  1.4922 -0.6000
  848MOL0     H16977  12.002   2.305   9.002  0.8114  2.9826  1.0578
  848MOL0     H16978  12.310   2.293   9.044  2.4603  3.2157 -1.6422
  848MOL0     H16979  12.217   2.378   8.921  2.1783 -4.4237 -1.9777
  848MOL0     H16980  12.235   2.437   9.227 -1.4548  1.2517 -0.0291
  848MOL0     H16981  12.315   2.522   9.090  0.0797 -0.4620 -1.4310
  848MOL0     H16982  11.905   2.671   9.078  0.2301 -0.8880  0.4940
  848MOL0     H16983  11.823   2.997   9.164 -0.8044  0.2370 -0.3106
  848MOL0     H16984  11.734   2.885   9.284  0.0327  0.7373 -0.1757
  848MOL0     H16985  11.750   2.843   9.116 -2.0305  0.3955  1.1169
  848MOL0     H16986  12.067   3.303   9.492 -4.4001  1.3120 -1.1200
  848MOL0     H16987  11.999   3.437   9.690  2.5895 -1.0959  1.7732
  848MOL0     H16988  12.009   3.366  10.100  1.9000  2.8566  0.7242
  848MOL0     H16989  12.100   3.430   9.964  0.8393 -2.0307  1.8157
  848MOL0     H16990  11.902   3.579   9.915  2.5795  1.2830 -1.3678
  848MOL0     H16991  11.847   3.519  10.079 -0.8376  0.4045 -0.3543
  848MOL0     H16992  12.055   3.637  10.173 -0.3970 -0.5648 -0.0318
  848MOL0     H16993  11.934   3.754  10.092 -2.6294 -1.4597 -2.7326
  848MOL0     H16994  12.069   3.743   9.888 -2.1917 -1.1590  0.7507
  848MOL0     H16995  12.175   3.629   9.961 -2.2933 -0.9258 -0.2460
  848MOL0     H16996  12.148   3.895  10.111 -0.2318  0.0415 -1.0640
  848MOL0     H16997  12.288   3.781  10.097 -0.6587 -0.8036 -1.7487
  848MOL0     H16998  12.200   3.950   9.864  0.0711  0.8623  1.3740
  848MOL0     H16999  12.344   3.837   9.882  2.5562  0.3097  2.4797
  848MOL0     H17000  12.376   4.080   9.891 -0.2404 -0.8670  0.1560
  848MOL0     H17001  12.457   3.982  10.022  0.3971 -1.4065 -1.5576
  848MOL0     H17002  12.309   4.089  10.191 -1.3310 -0.6764  0.6845
  848MOL0     H17003  12.185   4.129  10.071  0.3624  1.4567  1.1423
  848MOL0     H17004  11.886   3.073   9.891 -1.6129 -0.0244 -1.2237
  848MOL0     H17005  11.980   2.950   9.692 -1.6655  1.4342  1.1373
  848MOL0     H17006  12.229   2.893   9.385  2.5235 -1.1872 -0.9824
  848MOL0     H17007  12.270   2.671   9.301 -0.7067 -0.8390 -0.5612
  848MOL0     H17008  11.267   1.709   8.651 -1.5782  0.2356 -0.1879
  848MOL0     H17009  11.299   1.866   8.454 -1.6086  1.6486 -1.2116
  848MOL0     H17010  11.158   2.215   8.304  0.9068 -0.3176 -1.9431
  848MOL0     H17011  11.071   2.390   8.139  2.8564 -0.4468 -5.2384
  848MOL0     H17012  11.309   2.744   8.046  0.5590 -1.4766  0.8777
  848MOL0     H17013  11.168   2.730   7.937 -1.6607 -0.8088  0.8147
  848MOL0     H17014  11.170   2.915   8.072  0.5389 -0.8441 -1.2801
  848MOL0     H17015  11.148   2.826   8.222  4.0020  1.4493 -0.8701
  848MOL0     H17016  10.966   2.835   7.976  3.2090  0.9553 -0.6431
  848MOL0     H17017  10.919   2.734   8.122 -0.7767 -0.2627 -0.6596
  848MOL0     H17018  10.956   3.029   8.104  4.2245 -2.0168  2.2499
  848MOL0     H17019  10.938   2.957   8.255 -0.5266 -3.1703  0.1854
  848MOL0     H17020  10.538   2.987   8.205 -0.8856 -1.2818 -1.4790
  848MOL0     H17021  11.400   2.632   8.224  1.5493 -1.1467 -0.7942
  848MOL0     H17022  11.522   2.532   8.490  0.4561  1.0360 -0.7913
  848MOL0     H17023  11.629   2.430   8.397 -0.0652  0.2538 -0.1511
  848MOL0     H17024  11.583   2.597   8.344  0.6203  0.7588 -0.1053
  849MOL0     O17025   1.388   1.577   1.840 -0.2167  0.5347 -0.5433
  849MOL0     C17026   1.504   1.532   1.834 -0.1424  1.5289 -0.2142
  849MOL0     O17027   1.603   1.598   1.764 -0.3241 -0.3701 -0.0764
  849MOL0     C17028   1.568   1.695   1.675 -0.1318  0.4097 -1.1765
  849MOL0     C17029   1.672   1.787   1.647  0.5623 -1.4018 -0.3546
  849MOL0     C17030   1.664   1.865   1.527  0.0684  0.8081 -0.0560
  849MOL0     C17031   1.543   1.879   1.459 -0.3923  0.1369 -0.4959
  849MOL0     O17032   1.546   1.963   1.355 -1.0910  0.5930 -0.1594
  849MOL0     C17033   1.429   2.032   1.300  0.3281 -0.0281 -1.1833
  849MOL0     C17034   1.438   2.045   1.151  0.7314  0.8321  0.6255
  849MOL0     C17035   1.518   2.172   1.117 -0.2068 -0.9297 -0.5567
  849MOL0     C17036   1.568   2.164   0.978  0.0016 -0.2901  0.1530
  849MOL0     C17037   1.668   2.279   0.954 -0.5097 -0.2268  0.4291
  849MOL0     C17038   1.607   2.426   0.948  0.4897 -0.0496 -0.4046
  849MOL0     C17039   1.731   2.505   0.919  0.1535 -1.5075  0.9714
  849MOL0     C17040   1.691   2.650   0.903 -0.4202 -0.3292 -0.2818
  849MOL0     N17041   1.806   2.741   0.898 -0.6730  0.7728  0.4320
  849MOL0     C17042   1.933   2.720   0.965 -0.2370 -0.0751  0.2399
  849MOL0     C17043   2.008   2.818   0.904  0.2315  0.2838 -1.0616
  849MOL0     C17044   2.131   2.876   0.972  0.6188 -0.2726  0.1848
  849MOL0     C17045   2.241   2.765   0.984 -0.2947 -0.5478 -0.2012
  849MOL0     C17046   2.391   2.798   1.004  0.3765  0.4248  0.8052
  849MOL0     C17047   2.423   2.870   1.142  0.0188 -0.8558  0.8715
  849MOL0     O17048   2.544   2.838   1.195 -0.5051 -0.1174 -0.8055
  849MOL0     C17049   2.604   2.926   1.291  0.7232  0.4872 -0.1138
  849MOL0     C17050   2.736   2.892   1.327  0.1291 -0.1756  0.2883
  849MOL0     C17051   2.805   2.964   1.425 -0.1671  0.8589  0.0230
  849MOL0     C17052   2.943   2.909   1.452 -0.0303 -0.2355 -0.7611
  849MOL0     C17053   2.739   3.079   1.494  0.3204  0.0498  0.4673
  849MOL0     C17054   2.795   3.151   1.609 -0.4906  0.4327 -0.1632
  849MOL0     O17055   2.713   3.247   1.663  0.4847 -0.1119 -0.1729
  849MOL0     C17056   2.715   3.255   1.798  0.7789 -0.1129 -0.6542
  849MOL0     C17057   2.827   3.312   1.865 -0.5471 -0.1726  1.0243
  849MOL0     C17058   2.835   3.331   2.002 -0.3530  0.2252 -0.2870
  849MOL0     C17059   2.715   3.281   2.080  0.2163  0.6328 -0.3460
  849MOL0     O17060   2.704   3.293   2.215 -0.7431  0.4379 -0.5214
  849MOL0     C17061   2.811   3.362   2.281 -0.0127  0.0699 -0.3406
  849MOL0     C17062   2.769   3.394   2.426 -0.0521 -0.2998 -0.3382
  849MOL0     C17063   2.872   3.441   2.524  0.3577  0.1350  0.6319
  849MOL0     C17064   2.989   3.344   2.541  0.0588 -0.9433  0.4469
  849MOL0     C17065   3.096   3.404   2.627  0.5048  0.0465  0.4659
  849MOL0     C17066   3.187   3.284   2.650  0.6909 -0.1589 -0.4911
  849MOL0     C17067   3.291   3.331   2.750  0.7780  0.3118 -0.0477
  849MOL0     C17068   3.414   3.402   2.682  0.7664  0.4269 -0.6605
  849MOL0    Cl17069   3.526   3.459   2.814 -0.3215 -0.2779  0.2707
  849MOL0     C17070   2.609   3.217   2.011  0.2838 -0.6330 -0.2499
  849MOL0     C17071   2.608   3.199   1.869  0.0462  0.3648  0.7443
  849MOL0     O17072   2.894   3.098   1.664 -0.3505  0.7121 -1.3026
  849MOL0     C17073   2.618   3.121   1.442  0.4148 -0.5421 -0.5946
  849MOL0     C17074   2.541   3.037   1.353 -0.4387  0.8200  0.3964
  849MOL0     N17075   1.937   2.876   0.803 -1.5093  0.4816 -0.0456
  849MOL0     N17076   1.818   2.831   0.801  0.6168  0.0509 -0.5931
  849MOL0     C17077   1.430   1.800   1.503 -0.2938 -1.6982  0.5828
  849MOL0     C17078   1.444   1.712   1.608  1.0047 -0.3936 -0.2616
  849MOL0     C17079   1.545   1.410   1.924  1.4616  0.9406  0.4817
  849MOL0     C17080   1.680   1.364   1.929 -0.9487 -0.3823 -0.3012
  849MOL0     C17081   1.732   1.259   2.003  0.2687 -0.8179  0.1183
  849MOL0     C17082   1.642   1.186   2.087  0.6822 -0.2226 -0.1693
  849MOL0     O17083   1.677   1.073   2.152 -0.3891  0.0905 -0.5434
  849MOL0     C17084   1.785   0.994   2.101 -0.0345  0.4159 -0.5356
  849MOL0     C17085   1.784   0.845   2.175 -0.0732 -0.4659  0.7307
  849MOL0     C17086   1.793   0.872   2.329 -0.3686  0.5766  0.3692
  849MOL0     C17087   1.726   0.764   2.412  0.1947  0.3530  0.5518
  849MOL0     C17088   1.815   0.648   2.389 -0.0992  0.6279  0.1239
  849MOL0     C17089   1.879   0.550   2.366  0.4019  0.4303  0.1008
  849MOL0     C17090   1.511   1.240   2.096  0.6650  0.4741  0.0398
  849MOL0     C17091   1.451   1.341   2.013 -1.0196  0.2523  0.3284
  849MOL0     C17092   1.299   1.360   2.034 -1.1537 -0.0288 -1.2902
  849MOL0     H17093   1.771   1.787   1.691  1.8301  0.3033 -2.9466
  849MOL0     H17094   1.744   1.932   1.500  0.6456  0.5281  0.9128
  849MOL0     H17095   1.431   2.125   1.357  0.4064  0.5137 -2.0566
  849MOL0     H17096   1.343   1.968   1.321  2.0968 -1.8136  1.2239
  849MOL0     H17097   1.454   1.950   1.099  0.1624  0.6972  0.6800
  849MOL0     H17098   1.335   2.074   1.127  0.4009  0.8733  1.9962
  849MOL0     H17099   1.443   2.252   1.122  0.2161 -0.5190 -0.6442
  849MOL0     H17100   1.594   2.191   1.194 -0.1419 -2.0596 -0.3285
  849MOL0     H17101   1.609   2.066   0.955  0.3346  0.5676 -3.4619
  849MOL0     H17102   1.481   2.181   0.914  0.6398 -2.1487 -1.2637
  849MOL0     H17103   1.719   2.252   0.861 -1.5398 -0.7081 -0.0166
  849MOL0     H17104   1.740   2.282   1.036  0.7761  1.9559 -0.6925
  849MOL0     H17105   1.529   2.437   0.873 -1.7140 -3.5246  1.0920
  849MOL0     H17106   1.552   2.456   1.038 -0.1700  1.2703 -1.2227
  849MOL0     H17107   1.782   2.477   0.826 -2.4040  0.2415 -1.0863
  849MOL0     H17108   1.805   2.480   0.995  0.7862  0.2159  0.9692
  849MOL0     H17109   1.633   2.672   0.813 -1.3995 -1.2066  0.0992
  849MOL0     H17110   1.629   2.672   0.991 -2.0898  0.0379 -1.4935
  849MOL0     H17111   1.955   2.650   1.044 -0.8827  2.1014  2.4845
  849MOL0     H17112   2.084   2.904   1.067 -1.0423  0.7546 -0.8846
  849MOL0     H17113   2.167   2.963   0.917 -0.0667  0.7306  1.2694
  849MOL0     H17114   2.199   2.699   1.060 -0.5971  0.6739  0.7340
  849MOL0     H17115   2.248   2.718   0.886  2.4095 -1.6011  0.4165
  849MOL0     H17116   2.433   2.699   0.983 -4.0339 -1.2578 -1.2653
  849MOL0     H17117   2.414   2.867   0.923 -0.6723 -1.0412 -0.8176
  849MOL0     H17118   2.399   2.975   1.121  1.0345 -0.7270  0.2626
  849MOL0     H17119   2.349   2.834   1.214 -0.7350  3.2480  2.4146
  849MOL0     H17120   2.783   2.805   1.283  0.7269 -0.3814  1.2966
  849MOL0     H17121   3.001   2.878   1.364 -0.4601  0.5118 -1.3152
  849MOL0     H17122   2.937   2.829   1.527 -0.4043  1.7288  1.4098
  849MOL0     H17123   2.998   2.990   1.499 -3.2893  2.0357 -0.5477
  849MOL0     H17124   2.908   3.348   1.802  0.5554 -1.3444  1.7313
  849MOL0     H17125   2.918   3.385   2.047 -2.2902  2.8703  0.3608
  849MOL0     H17126   2.899   3.298   2.280  0.3313  0.5380 -1.8874
  849MOL0     H17127   2.834   3.451   2.221 -0.5039  0.2341 -0.2919
  849MOL0     H17128   2.687   3.467   2.430 -0.9568 -1.3347  1.0087
  849MOL0     H17129   2.728   3.297   2.457 -3.8043  0.3105 -2.7758
  849MOL0     H17130   2.811   3.462   2.612 -0.4825  2.1556 -0.3838
  849MOL0     H17131   2.898   3.541   2.490 -2.2036  0.6154 -0.1186
  849MOL0     H17132   3.028   3.308   2.445  1.1202 -2.4061  1.3701
  849MOL0     H17133   2.931   3.264   2.587  0.1389 -0.7476  0.8946
  849MOL0     H17134   3.140   3.492   2.579  2.3197 -2.4381 -2.8729
  849MOL0     H17135   3.050   3.436   2.721 -0.2055 -0.7427  0.4024
  849MOL0     H17136   3.227   3.238   2.559 -2.3140 -2.4583 -0.8181
  849MOL0     H17137   3.126   3.204   2.693 -0.8336  1.2109 -0.0104
  849MOL0     H17138   3.340   3.253   2.809  1.7205  0.5812 -0.4617
  849MOL0     H17139   3.245   3.393   2.827 -1.8514 -0.5579 -0.8011
  849MOL0     H17140   3.369   3.480   2.621 -1.6923  2.1107  2.9564
  849MOL0     H17141   3.468   3.340   2.610  1.7755  1.6707 -1.0084
  849MOL0     H17142   2.523   3.182   2.068  0.6164 -1.1068 -0.0287
  849MOL0     H17143   2.528   3.157   1.809 -1.1814  2.9009  0.4944
  849MOL0     H17144   2.566   3.213   1.471  1.2459  0.1011 -1.0997
  849MOL0     H17145   2.439   3.054   1.323 -0.6090 -1.7119 -0.6845
  849MOL0     H17146   1.344   1.813   1.438 -0.5500  1.1314  1.3393
  849MOL0     H17147   1.359   1.650   1.635  1.7738 -1.6710 -0.6685
  849MOL0     H17148   1.746   1.401   1.852 -1.1040  1.9452  0.6145
  849MOL0     H17149   1.834   1.222   1.998  0.4527 -0.7241  2.3442
  849MOL0     H17150   1.758   0.986   1.995  2.6787  1.6360 -1.4031
  849MOL0     H17151   1.881   1.047   2.099 -0.6995  1.6560 -1.6972
  849MOL0     H17152   1.867   0.779   2.148 -0.1991 -0.9777  1.5769
  849MOL0     H17153   1.688   0.795   2.154  1.1769 -3.7888  2.2127
  849MOL0     H17154   1.894   0.892   2.368  0.3872 -0.3230 -1.0634
  849MOL0     H17155   1.744   0.968   2.348  1.4023  1.3499  1.3545
  849MOL0     H17156   1.621   0.752   2.383  0.1945 -1.3139  1.1475
  849MOL0     H17157   1.720   0.779   2.520  0.1137 -1.6458  0.8646
  849MOL0     H17158   1.939   0.466   2.336 -0.2749  0.5022 -1.5327
  849MOL0     H17159   1.450   1.169   2.152 -0.9756  2.0462  0.3064
  849MOL0     H17160   1.238   1.403   1.953 -4.3063  0.5728  1.2071
  849MOL0     H17161   1.257   1.270   2.079 -1.8870  1.1451  0.4854
  849MOL0     H17162   1.302   1.436   2.112  3.0522 -1.2911  0.0266
  850MOL0     O17163   7.995   8.160   4.979  0.3231  0.2904  0.3090
  850MOL0     C17164   7.998   8.225   4.866  0.2319 -0.2571  0.0778
  850MOL0     O17165   8.061   8.343   4.839 -0.0085 -0.0195 -1.0385
  850MOL0     C17166   8.060   8.420   4.952  0.5301 -0.4158  0.6268
  850MOL0     C17167   8.183   8.461   5.010  0.1488 -0.7760  0.9683
  850MOL0     C17168   8.197   8.559   5.110  0.5316  0.6653  0.1626
  850MOL0     C17169   8.075   8.616   5.164  1.3016  0.5003  0.1761
  850MOL0     O17170   8.062   8.713   5.256 -0.1529 -0.9880  0.0450
  850MOL0     C17171   8.184   8.738   5.318 -0.2208  0.6085 -0.4580
  850MOL0     C17172   8.174   8.865   5.414 -0.8636  0.1713 -0.1852
  850MOL0     C17173   8.118   8.995   5.347  0.4865 -0.6243 -0.8615
  850MOL0     C17174   8.153   9.122   5.428  0.3289 -0.3184  0.1859
  850MOL0     C17175   8.097   9.133   5.571  0.5361  0.3278 -0.9103
  850MOL0     C17176   8.103   9.272   5.627  0.0776  0.3791 -0.0334
  850MOL0     C17177   7.980   9.351   5.596  0.1082  0.7635  0.5085
  850MOL0     C17178   7.991   9.477   5.676 -0.7186  0.0738  0.0431
  850MOL0     N17179   7.894   9.575   5.623 -0.5462  0.7041 -0.5227
  850MOL0     C17180   7.767   9.611   5.680 -0.2818  0.4441  0.4389
  850MOL0     C17181   7.706   9.681   5.585  1.4452 -0.0626 -0.1413
  850MOL0     C17182   7.564   9.746   5.588  0.3843 -0.3032 -1.1806
  850MOL0     C17183   7.533   9.856   5.699 -0.5223  0.0840 -0.0930
  850MOL0     C17184   7.537   9.994   5.630  0.6923  0.8809 -0.5510
  850MOL0     C17185   7.525  10.110   5.741  0.7203 -0.6270  0.3149
  850MOL0     O17186   7.603  10.088   5.865  0.4476 -0.0680  0.6238
  850MOL0     C17187   7.591  10.180   5.968  0.5752 -0.6213  1.0209
  850MOL0     C17188   7.655  10.135   6.080 -0.4499  0.0456  0.0728
  850MOL0     C17189   7.635  10.200   6.201  0.3326 -0.1602 -0.5051
  850MOL0     C17190   7.708  10.128   6.313 -0.5140 -0.2579  0.1047
  850MOL0     C17191   7.563  10.321   6.214  0.1098 -0.1375  1.2929
  850MOL0     C17192   7.539  10.400   6.339 -0.5838 -0.3457  0.8193
  850MOL0     O17193   7.436  10.491   6.315  0.4957  0.4795 -0.9163
  850MOL0     C17194   7.337  10.503   6.410  0.1532  1.6259  0.3803
  850MOL0     C17195   7.310  10.414   6.514  0.1940  0.5973 -0.7502
  850MOL0     C17196   7.192  10.417   6.584  0.4227  0.1157  0.6143
  850MOL0     C17197   7.098  10.517   6.561  0.3136 -0.7240 -0.4011
  850MOL0     O17198   6.976  10.521   6.626  0.3566  0.1856 -0.0564
  850MOL0     C17199   6.979  10.572   6.755  0.4322 -0.7243 -0.1429
  850MOL0     C17200   6.836  10.614   6.805  0.4040 -0.8751  0.5752
  850MOL0     C17201   6.773  10.719   6.707  1.1781  0.8180  0.0904
  850MOL0     C17202   6.622  10.734   6.745  0.0640  0.4275 -1.0678
  850MOL0     C17203   6.558  10.871   6.735  0.7702  0.9638 -0.5616
  850MOL0     C17204   6.534  10.915   6.598 -0.0496  0.3929 -0.8686
  850MOL0     C17205   6.518  11.067   6.594  0.3996  0.7161  0.1417
  850MOL0     C17206   6.433  11.128   6.475 -0.3846 -0.2130  0.2225
  850MOL0    Cl17207   6.307  11.239   6.534  0.1466 -0.0020 -0.1508
  850MOL0     C17208   7.131  10.610   6.470  0.6017  0.0494  0.5006
  850MOL0     C17209   7.248  10.606   6.392  0.0235 -0.3761 -0.2074
  850MOL0     O17210   7.600  10.393   6.444  0.8220  0.8048 -0.2453
  850MOL0     C17211   7.496  10.369   6.092  0.1396 -0.0935 -0.4615
  850MOL0     C17212   7.517  10.302   5.976 -0.5008  0.3539  0.2400
  850MOL0     N17213   7.777   9.681   5.472 -0.7578  0.3702  0.1443
  850MOL0     N17214   7.882   9.607   5.493 -0.8057 -0.6218  0.0946
  850MOL0     C17215   7.952   8.557   5.117 -1.0604  0.4101 -1.0898
  850MOL0     C17216   7.943   8.464   5.009 -1.0645 -0.5411 -0.7362
  850MOL0     C17217   7.929   8.156   4.759 -1.1642  0.4753 -0.1108
  850MOL0     C17218   8.002   8.081   4.669 -0.5814 -0.5752  0.7646
  850MOL0     C17219   7.949   8.015   4.562  0.6549 -0.1064 -0.0562
  850MOL0     C17220   7.809   7.992   4.554 -0.1351 -0.3292  1.0132
  850MOL0     O17221   7.742   7.926   4.450  0.5395 -0.1092 -0.4867
  850MOL0     C17222   7.808   7.801   4.398  0.5136 -0.5670 -0.5952
  850MOL0     C17223   7.712   7.743   4.291 -0.4717  0.7498 -0.1176
  850MOL0     C17224   7.774   7.622   4.236  0.6055  0.0676  0.1931
  850MOL0     C17225   7.678   7.570   4.132  0.6534  0.2126 -0.1744
  850MOL0     C17226   7.753   7.467   4.063 -0.6328 -1.1447  0.2291
  850MOL0     C17227   7.825   7.390   4.001  0.1047  0.2597  0.5393
  850MOL0     C17228   7.728   8.056   4.652 -0.0716  0.9329  0.0812
  850MOL0     C17229   7.790   8.136   4.749  0.6103  0.0755 -0.2288
  850MOL0     C17230   7.702   8.216   4.844 -0.6948  0.9624 -0.1658
  850MOL0     H17231   8.275   8.420   4.969  1.5829  1.7086  1.5080
  850MOL0     H17232   8.288   8.592   5.158  0.6550 -0.7449  0.9211
  850MOL0     H17233   8.257   8.773   5.244  1.6548 -0.0345  0.9983
  850MOL0     H17234   8.233   8.656   5.371 -3.5897 -2.0551 -1.1166
  850MOL0     H17235   8.115   8.843   5.503  0.1541 -2.2764 -0.0319
  850MOL0     H17236   8.272   8.881   5.461 -0.8389  0.5009 -0.3458
  850MOL0     H17237   8.132   9.011   5.240 -1.7461  0.5709 -1.0449
  850MOL0     H17238   8.009   8.986   5.339  0.5391 -0.7736 -1.4185
  850MOL0     H17239   8.262   9.134   5.432  0.5087 -0.0839 -3.1834
  850MOL0     H17240   8.112   9.205   5.369  1.4822 -0.6718 -1.1686
  850MOL0     H17241   8.154   9.061   5.631 -0.6077 -0.5188 -0.8233
  850MOL0     H17242   7.991   9.113   5.558 -0.0991  1.1255  2.2540
  850MOL0     H17243   8.123   9.270   5.735 -0.7299  3.0767  0.2508
  850MOL0     H17244   8.191   9.332   5.601 -1.0394  0.8538 -3.1289
  850MOL0     H17245   7.896   9.294   5.635  0.1441 -0.6967 -1.4506
  850MOL0     H17246   7.956   9.366   5.491  2.3801  2.7188  0.1806
  850MOL0     H17247   7.964   9.457   5.780 -0.5829 -3.4415 -0.4700
  850MOL0     H17248   8.092   9.518   5.675  0.8818 -3.3491  1.5532
  850MOL0     H17249   7.739   9.591   5.783 -2.3338 -1.2135 -0.3643
  850MOL0     H17250   7.491   9.666   5.601  1.2758 -0.6633  2.9534
  850MOL0     H17251   7.545   9.787   5.489 -2.2880  3.3179  0.5928
  850MOL0     H17252   7.428   9.843   5.728 -0.6378 -1.9438 -1.2270
  850MOL0     H17253   7.603   9.840   5.781 -0.2588 -0.3288 -0.3956
  850MOL0     H17254   7.632   9.989   5.576  0.1009 -1.4576 -1.4647
  850MOL0     H17255   7.453  10.011   5.563  0.7610 -1.6469 -1.3911
  850MOL0     H17256   7.531  10.209   5.694 -3.8788 -0.1120  0.3182
  850MOL0     H17257   7.422  10.120   5.778  1.0950 -0.0419  1.2093
  850MOL0     H17258   7.724  10.052   6.067  0.8323  1.4603 -3.8613
  850MOL0     H17259   7.771  10.197   6.370  0.3211 -0.1238 -0.9355
  850MOL0     H17260   7.769  10.047   6.270 -1.7080 -0.4326 -1.3665
  850MOL0     H17261   7.638  10.087   6.386 -1.2160  1.7802  0.6429
  850MOL0     H17262   7.376  10.329   6.530 -2.2412 -1.0055  1.4931
  850MOL0     H17263   7.170  10.342   6.659 -3.5810  0.1878 -0.2402
  850MOL0     H17264   7.026  10.514   6.835 -2.6687 -1.7201  1.1206
  850MOL0     H17265   7.023  10.672   6.746  0.4155 -0.8375 -1.8229
  850MOL0     H17266   6.775  10.523   6.802  1.0813 -1.3482  0.7041
  850MOL0     H17267   6.843  10.660   6.904  1.9782 -2.1667  1.1246
  850MOL0     H17268   6.773  10.692   6.601 -3.9598  1.1190 -0.2716
  850MOL0     H17269   6.820  10.816   6.726 -1.3270  1.4296  4.7042
  850MOL0     H17270   6.612  10.689   6.844  6.0822  2.3172  0.8500
  850MOL0     H17271   6.567  10.678   6.668  0.6155  0.7723 -1.7245
  850MOL0     H17272   6.458  10.878   6.777  0.9148  1.3902 -0.2851
  850MOL0     H17273   6.638  10.926   6.783  1.7301 -1.7894  1.2564
  850MOL0     H17274   6.441  10.876   6.555 -0.1475 -0.1841 -0.1523
  850MOL0     H17275   6.623  10.892   6.539  2.3977  2.2832  1.8154
  850MOL0     H17276   6.620  11.108   6.594  1.7090 -2.2665  1.4173
  850MOL0     H17277   6.460  11.089   6.684  1.4889  1.3150  0.7101
  850MOL0     H17278   6.387  11.054   6.409  0.6214  0.2458 -1.0302
  850MOL0     H17279   6.501  11.176   6.404 -0.5554  1.3573  1.0569
  850MOL0     H17280   7.061  10.691   6.452  2.3509  1.8049  1.2394
  850MOL0     H17281   7.276  10.681   6.319  1.6726  1.4167  2.1113
  850MOL0     H17282   7.431  10.455   6.078 -0.2955 -0.4653 -0.7666
  850MOL0     H17283   7.466  10.345   5.891  0.1200 -1.7171 -1.2436
  850MOL0     H17284   7.867   8.589   5.176  1.0733  0.7548  2.0356
  850MOL0     H17285   7.848   8.420   4.983 -1.6801 -0.8490  1.7478
  850MOL0     H17286   8.109   8.075   4.685  0.0106  3.6952 -0.3172
  850MOL0     H17287   8.013   7.955   4.497 -0.2038 -0.5134 -0.5347
  850MOL0     H17288   7.910   7.820   4.363  1.2000 -3.0270 -0.1589
  850MOL0     H17289   7.805   7.726   4.478 -2.6329  0.0795  0.0281
  850MOL0     H17290   7.709   7.819   4.213  0.3265 -1.9238 -2.9877
  850MOL0     H17291   7.616   7.717   4.336  0.1288  0.4618  1.0363
  850MOL0     H17292   7.867   7.659   4.193 -0.2052  1.3253 -0.5613
  850MOL0     H17293   7.794   7.550   4.316 -0.3083 -0.2698  0.1378
  850MOL0     H17294   7.651   7.646   4.059  3.6032  1.9757  0.3681
  850MOL0     H17295   7.589   7.538   4.185  0.3783  1.9794  0.5218
  850MOL0     H17296   7.881   7.312   3.953  1.1554  1.2762  0.0700
  850MOL0     H17297   7.620   8.054   4.647 -0.1299  3.5137 -2.6241
  850MOL0     H17298   7.599   8.192   4.815  0.1869 -2.1874 -1.0847
  850MOL0     H17299   7.727   8.188   4.947 -2.6622  1.8706  0.6047
  850MOL0     H17300   7.714   8.324   4.826 -3.1957  1.5213  1.1301
  851MOL0     O17301   7.082   8.268   3.343  0.7350 -0.5070 -0.6588
  851MOL0     C17302   7.054   8.217   3.236 -0.7369  0.1535  1.2190
  851MOL0     O17303   7.116   8.101   3.184  0.4656  0.0013  0.6844
  851MOL0     C17304   7.225   8.059   3.262 -0.0698 -0.9028 -0.3998
  851MOL0     C17305   7.205   7.950   3.348 -0.4475  0.3360  0.2902
  851MOL0     C17306   7.308   7.888   3.412 -0.0659 -0.3635 -0.2281
  851MOL0     C17307   7.437   7.941   3.404  1.0154 -0.7445  0.1068
  851MOL0     O17308   7.548   7.886   3.467  0.0402  0.0834 -0.1377
  851MOL0     C17309   7.525   7.787   3.558  1.2579  1.1404  0.5364
  851MOL0     C17310   7.654   7.746   3.622  0.8801  0.0421 -0.5637
  851MOL0     C17311   7.697   7.864   3.713 -0.7652  0.7845  0.5229
  851MOL0     C17312   7.812   7.815   3.806 -0.4753 -0.0537  0.0099
  851MOL0     C17313   7.836   7.911   3.918 -0.1569  0.3480 -0.6072
  851MOL0     C17314   7.979   7.897   3.969 -0.1131  0.7188  0.4091
  851MOL0     C17315   8.012   8.000   4.075 -0.4868 -1.1272  0.3066
  851MOL0     C17316   8.156   7.995   4.137 -1.3797 -0.0504  0.2126
  851MOL0     N17317   8.261   8.015   4.036 -0.4653 -0.5242 -0.6714
  851MOL0     C17318   8.277   8.127   3.955 -0.3480 -0.0400  0.2744
  851MOL0     C17319   8.398   8.109   3.893  0.6567  0.6776  0.3558
  851MOL0     C17320   8.490   8.214   3.833  0.6661 -0.0678  0.7183
  851MOL0     C17321   8.498   8.164   3.678 -0.2006 -0.1810 -0.5876
  851MOL0     C17322   8.530   8.266   3.576  0.0838 -0.2662  0.7351
  851MOL0     C17323   8.406   8.352   3.563  0.5648 -0.5940  1.2237
  851MOL0     O17324   8.414   8.405   3.426 -0.1431 -0.2058 -0.1492
  851MOL0     C17325   8.324   8.504   3.400  0.2161 -0.6235 -0.1892
  851MOL0     C17326   8.317   8.549   3.262 -0.0498  1.1968 -0.5863
  851MOL0     C17327   8.224   8.635   3.211 -0.2611 -0.2753 -0.0193
  851MOL0     C17328   8.233   8.645   3.056  0.3215 -0.6566  0.2176
  851MOL0     C17329   8.139   8.697   3.302 -0.5345 -0.1654 -0.0150
  851MOL0     C17330   8.041   8.796   3.254  0.7521  0.4745  0.3190
  851MOL0     O17331   8.002   8.782   3.120  0.1330  0.1888 -0.2233
  851MOL0     C17332   7.894   8.845   3.070 -0.8364 -0.8764 -0.3155
  851MOL0     C17333   7.820   8.766   2.983 -0.2121  0.4909  0.6723
  851MOL0     C17334   7.717   8.812   2.905  0.4126  0.1644 -0.6315
  851MOL0     C17335   7.675   8.944   2.922  0.7217 -0.0236 -0.5036
  851MOL0     O17336   7.569   8.988   2.853 -0.3063 -0.3528 -0.4620
  851MOL0     C17337   7.449   8.906   2.877 -0.2641 -0.8342  0.7999
  851MOL0     C17338   7.376   8.873   2.746 -0.2387  0.0086  0.0181
  851MOL0     C17339   7.461   8.783   2.651  0.4432  1.1144  0.3243
  851MOL0     C17340   7.415   8.804   2.506  0.3713  0.5031  0.5437
  851MOL0     C17341   7.280   8.751   2.478 -0.3801  0.5368  0.0076
  851MOL0     C17342   7.246   8.728   2.323  0.3110 -0.5727 -1.2675
  851MOL0     C17343   7.100   8.720   2.283 -0.6229 -0.9121 -0.6811
  851MOL0     C17344   7.032   8.580   2.308  0.3843 -0.0947 -0.1245
  851MOL0    Cl17345   6.950   8.578   2.475  0.4996  0.4744 -0.1719
  851MOL0     C17346   7.746   9.025   3.017  1.0730 -0.5925  0.7218
  851MOL0     C17347   7.862   8.979   3.079 -0.1272 -0.3142 -0.1064
  851MOL0     O17348   7.990   8.871   3.340 -0.2244  0.8625  0.4871
  851MOL0     C17349   8.138   8.661   3.439  0.6433  0.1397  0.5966
  851MOL0     C17350   8.224   8.559   3.487 -0.0221  0.5555 -0.7279
  851MOL0     N17351   8.451   7.979   3.933  0.7240  0.0361 -0.2403
  851MOL0     N17352   8.361   7.927   4.010  0.4267  0.2995  0.0173
  851MOL0     C17353   7.451   8.052   3.321 -0.7878 -0.1505  0.7162
  851MOL0     C17354   7.352   8.112   3.250 -0.2403  0.5811 -0.7083
  851MOL0     C17355   6.957   8.281   3.147  0.4560 -0.8736  0.1238
  851MOL0     C17356   6.966   8.254   3.010  0.8770  0.2168 -0.2902
  851MOL0     C17357   6.888   8.320   2.915  0.2642 -0.0681  0.2604
  851MOL0     C17358   6.797   8.406   2.962 -0.3869 -0.2966  0.9160
  851MOL0     O17359   6.724   8.472   2.865  0.0926  0.6262  0.6054
  851MOL0     C17360   6.596   8.526   2.879 -0.9773 -0.4826  0.2418
  851MOL0     C17361   6.533   8.599   2.763 -0.9503 -0.4682  0.0627
  851MOL0     C17362   6.509   8.525   2.624  0.0088  0.9603  0.1126
  851MOL0     C17363   6.417   8.589   2.522 -0.1351  0.6999  0.8837
  851MOL0     C17364   6.284   8.591   2.573  0.0995 -0.6407  0.3116
  851MOL0     C17365   6.173   8.598   2.609 -0.9405  0.2102  0.5650
  851MOL0     C17366   6.780   8.431   3.094  0.3735 -0.0532 -0.0751
  851MOL0     C17367   6.860   8.372   3.187  0.4038 -0.4114  0.7928
  851MOL0     C17368   6.825   8.407   3.336 -0.8032 -0.3208  0.1671
  851MOL0     H17369   7.108   7.901   3.353  0.4614 -1.5619  0.1759
  851MOL0     H17370   7.286   7.804   3.476 -0.8497 -2.4108 -2.9720
  851MOL0     H17371   7.480   7.710   3.495  2.7574 -0.0640  0.8720
  851MOL0     H17372   7.463   7.823   3.641 -0.5764  1.3048 -0.8450
  851MOL0     H17373   7.621   7.660   3.680 -2.8924  1.9075  0.3830
  851MOL0     H17374   7.731   7.717   3.550  1.1578  0.4496 -0.4353
  851MOL0     H17375   7.729   7.947   3.648 -0.5721  1.5681  1.5998
  851MOL0     H17376   7.620   7.913   3.772  0.6840  2.3634  1.1945
  851MOL0     H17377   7.803   7.714   3.846 -0.0340 -0.5651 -1.1285
  851MOL0     H17378   7.893   7.806   3.734 -2.0320  0.9784 -1.9730
  851MOL0     H17379   7.766   7.883   3.998  0.3954 -1.6953 -0.7669
  851MOL0     H17380   7.824   8.016   3.890 -4.8040 -0.3310 -1.9565
  851MOL0     H17381   7.986   7.795   4.009 -1.0476  0.7079  0.5512
  851MOL0     H17382   8.039   7.908   3.878 -1.2563 -1.3621 -0.6807
  851MOL0     H17383   7.936   7.999   4.154  0.3322 -1.1268  1.1054
  851MOL0     H17384   8.005   8.100   4.031  0.9812 -1.7997 -1.5631
  851MOL0     H17385   8.163   8.072   4.215 -0.2083 -1.0063  1.0950
  851MOL0     H17386   8.170   7.902   4.192  3.3321  0.5115  0.3644
  851MOL0     H17387   8.236   8.227   3.957 -1.7162 -0.5931  2.4040
  851MOL0     H17388   8.587   8.221   3.882 -0.3900  1.8553  2.7157
  851MOL0     H17389   8.446   8.314   3.833 -2.9667 -1.5080  0.3102
  851MOL0     H17390   8.574   8.085   3.689  1.1637  1.3621  2.0155
  851MOL0     H17391   8.403   8.114   3.658 -0.3031  0.0173 -0.5929
  851MOL0     H17392   8.624   8.315   3.603  0.7914 -1.1853 -0.0121
  851MOL0     H17393   8.569   8.217   3.486 -0.9904  2.6991 -1.5321
  851MOL0     H17394   8.321   8.284   3.575  1.0832 -1.2807  1.1098
  851MOL0     H17395   8.413   8.429   3.641  0.7519  0.0345  0.5959
  851MOL0     H17396   8.393   8.499   3.201 -1.6425 -1.6626 -0.4210
  851MOL0     H17397   8.165   8.574   3.009  0.9058 -0.8183 -0.4055
  851MOL0     H17398   8.334   8.622   3.021  1.4154  3.8210 -0.2029
  851MOL0     H17399   8.223   8.747   3.019  1.1160 -0.9843 -0.9377
  851MOL0     H17400   7.845   8.662   2.964  2.1290  1.4220 -2.1598
  851MOL0     H17401   7.686   8.748   2.822  4.1127 -2.0897 -0.5167
  851MOL0     H17402   7.469   8.816   2.935 -1.4132 -0.5622  1.6686
  851MOL0     H17403   7.389   8.976   2.937  0.7128 -0.8648  1.8423
  851MOL0     H17404   7.294   8.805   2.769 -1.0478  0.6330 -0.9203
  851MOL0     H17405   7.330   8.963   2.703 -0.0095 -0.4228 -1.1576
  851MOL0     H17406   7.455   8.678   2.681 -2.9271  0.8988 -0.6550
  851MOL0     H17407   7.567   8.812   2.645  0.6040  0.4238 -0.5263
  851MOL0     H17408   7.488   8.749   2.446 -4.2671 -3.2061 -2.4260
  851MOL0     H17409   7.412   8.912   2.487  3.8705  1.0516  2.2686
  851MOL0     H17410   7.263   8.661   2.537 -1.3561  1.6721  1.5442
  851MOL0     H17411   7.213   8.831   2.513 -1.1546 -1.5094  3.8393
  851MOL0     H17412   7.284   8.635   2.280  0.6994 -0.4773 -1.1344
  851MOL0     H17413   7.290   8.809   2.264  1.1646 -1.4529 -1.8677
  851MOL0     H17414   7.099   8.748   2.177 -0.5608  2.7985  0.1619
  851MOL0     H17415   7.049   8.807   2.327 -1.1063  0.3855 -3.5435
  851MOL0     H17416   7.101   8.496   2.299  1.0272  0.3945  0.1622
  851MOL0     H17417   6.947   8.572   2.239 -0.2712 -0.3871  0.6987
  851MOL0     H17418   7.701   9.124   3.021  4.2109  1.1353 -1.5922
  851MOL0     H17419   7.918   9.032   3.156 -0.7699  1.2856 -0.6868
  851MOL0     H17420   8.067   8.704   3.509 -2.4977  0.2306 -2.3779
  851MOL0     H17421   8.200   8.530   3.589 -0.5174  0.5703 -0.8405
  851MOL0     H17422   7.546   8.102   3.336 -1.0170  0.9686 -1.2433
  851MOL0     H17423   7.385   8.191   3.182  0.1832  1.7050  0.7595
  851MOL0     H17424   7.040   8.181   2.978  1.5385 -0.4345  2.3972
  851MOL0     H17425   6.904   8.308   2.808 -1.6582 -0.8644  0.0159
  851MOL0     H17426   6.521   8.448   2.894 -2.9826  0.5448 -3.2851
  851MOL0     H17427   6.605   8.604   2.955 -1.1498  0.5485 -0.7665
  851MOL0     H17428   6.593   8.686   2.738  0.9288 -2.2546 -2.1885
  851MOL0     H17429   6.431   8.619   2.797 -1.6943  0.2857 -2.3772
  851MOL0     H17430   6.614   8.526   2.593  0.0719 -1.6208  0.0440
  851MOL0     H17431   6.479   8.422   2.645 -0.4499  0.4873 -2.4857
  851MOL0     H17432   6.409   8.527   2.433  0.7354 -0.6788  1.7209
  851MOL0     H17433   6.433   8.695   2.499  0.9218  0.1688 -1.0341
  851MOL0     H17434   6.073   8.612   2.646 -1.2191  0.4157 -0.2463
  851MOL0     H17435   6.714   8.512   3.121  2.9101  1.9977  0.4596
  851MOL0     H17436   6.828   8.313   3.392  0.0503 -0.2610  0.2293
  851MOL0     H17437   6.893   8.478   3.384  0.7947 -1.1286 -0.8108
  851MOL0     H17438   6.722   8.444   3.347 -0.2734  2.4165 -2.6249
  852MOL0     O17439  11.149   1.323   9.051 -0.1917  0.7999 -0.1034
  852MOL0     C17440  11.033   1.348   9.013 -0.3668 -0.0744  0.6987
  852MOL0     O17441  10.921   1.356   9.090  0.2452 -0.4001 -0.2987
  852MOL0     C17442  10.933   1.338   9.226 -0.1985 -0.1056 -0.2521
  852MOL0     C17443  10.987   1.433   9.313  0.1680 -0.3874  0.4755
  852MOL0     C17444  10.990   1.406   9.452 -0.2454 -0.0668 -0.0363
  852MOL0     C17445  10.946   1.286   9.504 -0.6307 -0.4799 -0.3809
  852MOL0     O17446  10.953   1.270   9.642 -0.4778 -0.2100  0.8561
  852MOL0     C17447  10.998   1.135   9.683 -0.3712 -0.4718  1.5811
  852MOL0     C17448  11.123   1.079   9.606 -0.0266 -0.1656  0.7350
  852MOL0     C17449  11.179   0.964   9.683 -0.1448 -0.2739  0.1946
  852MOL0     C17450  11.326   0.952   9.640  0.4260 -0.2197 -0.5327
  852MOL0     C17451  11.408   0.860   9.729 -0.6816  0.5028 -0.1920
  852MOL0     C17452  11.555   0.869   9.698 -0.8966  0.7120 -0.1547
  852MOL0     C17453  11.602   0.825   9.560 -0.1715  0.0311 -0.2720
  852MOL0     C17454  11.749   0.807   9.562  0.4614 -0.6746  0.8072
  852MOL0     N17455  11.806   0.689   9.617  0.9810 -0.8541 -0.4000
  852MOL0     C17456  11.753   0.558   9.609  0.0977  0.5180  0.0972
  852MOL0     C17457  11.857   0.478   9.633  0.1960  0.6117 -0.3617
  852MOL0     C17458  11.845   0.327   9.624  0.0650  0.2487 -0.1695
  852MOL0     C17459  11.968   0.247   9.593  0.5173  0.8672  0.2489
  852MOL0     C17460  12.022   0.244   9.449 -0.3199  1.0423 -0.1535
  852MOL0     C17461  12.036   0.373   9.374 -0.4703 -0.6149  0.0705
  852MOL0     O17462  11.907   0.399   9.314  0.2890  0.1301  0.4575
  852MOL0     C17463  11.914   0.480   9.208 -0.9236 -0.1339  0.0356
  852MOL0     C17464  11.987   0.599   9.210 -0.2250  0.9582  0.1466
  852MOL0     C17465  12.013   0.680   9.093  0.5235 -0.0173  0.4418
  852MOL0     C17466  12.067   0.818   9.114  0.5513 -0.2813  0.0634
  852MOL0     C17467  11.962   0.635   8.970 -0.6825  0.1270 -0.9654
  852MOL0     C17468  11.978   0.695   8.837 -0.5334  0.2989 -0.0538
  852MOL0     O17469  11.888   0.655   8.733 -0.5614 -0.2568 -0.2278
  852MOL0     C17470  11.889   0.717   8.613  0.0814  0.1509 -0.0740
  852MOL0     C17471  11.992   0.736   8.523  0.8331  0.0647 -1.0156
  852MOL0     C17472  11.974   0.791   8.402  0.0940  0.4925  0.0246
  852MOL0     C17473  11.844   0.839   8.360 -1.0914  1.0728  0.2632
  852MOL0     O17474  11.803   0.875   8.235  0.1144 -0.5841  0.5401
  852MOL0     C17475  11.901   0.903   8.134  1.1514 -0.3414 -0.2419
  852MOL0     C17476  11.821   0.976   8.016 -1.2241 -0.0868 -0.4913
  852MOL0     C17477  11.906   1.007   7.887 -0.7716  0.5330 -0.8631
  852MOL0     C17478  11.816   1.036   7.766  0.0045  0.4390 -0.0160
  852MOL0     C17479  11.729   1.157   7.782 -0.3293 -0.0011 -1.1978
  852MOL0     C17480  11.695   1.217   7.652 -0.3737 -0.4279 -0.1875
  852MOL0     C17481  11.564   1.292   7.660  0.2739  0.8667 -0.5182
  852MOL0     C17482  11.548   1.391   7.542  0.4696 -0.1525 -0.4086
  852MOL0    Cl17483  11.528   1.296   7.387  0.3254  0.1475 -0.6000
  852MOL0     C17484  11.739   0.835   8.448 -0.3545  1.1522 -0.8504
  852MOL0     C17485  11.760   0.778   8.575 -0.4643  0.4174 -0.8034
  852MOL0     O17486  12.061   0.790   8.838  0.4000 -0.1693  0.5693
  852MOL0     C17487  11.874   0.521   8.978  0.6726  0.0329  0.7486
  852MOL0     C17488  11.852   0.447   9.092  0.1198  0.5015 -0.5171
  852MOL0     N17489  11.967   0.549   9.667  0.2217  0.4312  0.1894
  852MOL0     N17490  11.929   0.679   9.669 -0.0954  0.1250 -0.3528
  852MOL0     C17491  10.890   1.186   9.422 -0.8160  0.0212 -0.1232
  852MOL0     C17492  10.880   1.219   9.283  1.2284 -0.2321  0.1507
  852MOL0     C17493  11.018   1.367   8.865  0.5311 -0.3171  0.2320
  852MOL0     C17494  11.026   1.498   8.806 -0.1776  0.2823 -0.9028
  852MOL0     C17495  10.985   1.523   8.680 -0.4331  0.4624  0.4419
  852MOL0     C17496  10.912   1.426   8.593  1.3360  0.4264 -0.2059
  852MOL0     O17497  10.888   1.440   8.458  0.1383  0.6801  0.0414
  852MOL0     C17498  10.752   1.421   8.427  0.4400 -0.0574  0.0151
  852MOL0     C17499  10.749   1.486   8.288  0.4627 -0.9348 -0.3197
  852MOL0     C17500  10.713   1.638   8.288 -0.2433 -0.1384 -0.1396
  852MOL0     C17501  10.703   1.674   8.131 -0.2449  0.3196 -0.1099
  852MOL0     C17502  10.605   1.608   8.056  0.7072  0.0018 -0.1396
  852MOL0     C17503  10.529   1.552   7.979  0.1197 -0.0597 -0.2232
  852MOL0     C17504  10.895   1.300   8.659 -0.7487  0.3775 -0.0916
  852MOL0     C17505  10.939   1.271   8.789 -0.2588 -0.5640 -1.0144
  852MOL0     C17506  10.920   1.130   8.841  0.5433 -0.2597  0.3032
  852MOL0     H17507  11.020   1.529   9.274  1.6563  0.2282  3.0727
  852MOL0     H17508  11.032   1.466   9.531  0.8244 -2.2440  1.1368
  852MOL0     H17509  10.919   1.059   9.686 -0.0542 -1.0366 -1.4976
  852MOL0     H17510  11.022   1.151   9.789  0.5895  0.4902  1.2360
  852MOL0     H17511  11.093   1.041   9.508  4.2987 -0.4581 -0.6732
  852MOL0     H17512  11.201   1.156   9.604 -2.4513  2.4823  1.6159
  852MOL0     H17513  11.170   0.974   9.792 -2.1103 -0.5262  0.0890
  852MOL0     H17514  11.126   0.873   9.651  2.3528 -1.4905 -0.7213
  852MOL0     H17515  11.331   0.920   9.536 -0.4807 -1.1086 -0.3128
  852MOL0     H17516  11.382   1.045   9.657  3.8867 -2.1708 -0.1897
  852MOL0     H17517  11.374   0.756   9.733 -0.1975  0.2485 -1.8737
  852MOL0     H17518  11.391   0.893   9.832  0.0653 -3.8049  1.5212
  852MOL0     H17519  11.581   0.975   9.704  2.7337  0.0726 -2.1030
  852MOL0     H17520  11.617   0.817   9.771 -3.2941  0.7905  2.0812
  852MOL0     H17521  11.597   0.906   9.486  2.5533  0.8365  0.3076
  852MOL0     H17522  11.554   0.731   9.533  0.4521  0.0239 -1.4080
  852MOL0     H17523  11.789   0.810   9.460  1.1606 -0.3016  1.0814
  852MOL0     H17524  11.781   0.893   9.622 -1.9925  0.3667  0.7215
  852MOL0     H17525  11.655   0.525   9.576 -0.0457 -0.5407  1.4717
  852MOL0     H17526  11.772   0.298   9.548  1.8929 -1.0957 -1.4810
  852MOL0     H17527  11.802   0.290   9.718 -0.2841 -1.5716 -0.9957
  852MOL0     H17528  12.048   0.291   9.654  0.5104  1.3384 -0.0778
  852MOL0     H17529  11.944   0.145   9.625  2.5081 -0.5756 -2.4641
  852MOL0     H17530  12.125   0.211   9.462 -0.3811  1.5658  2.1964
  852MOL0     H17531  11.972   0.179   9.377 -1.7475  3.1130 -1.1312
  852MOL0     H17532  12.066   0.459   9.436  1.4311 -3.7549  3.9377
  852MOL0     H17533  12.114   0.356   9.298 -1.3422 -0.8436 -0.7960
  852MOL0     H17534  12.028   0.637   9.303  2.9560 -1.5170 -0.0558
  852MOL0     H17535  12.006   0.888   9.057  2.7134  2.8023  1.3157
  852MOL0     H17536  12.167   0.838   9.075  0.0667  0.9294 -0.5982
  852MOL0     H17537  12.063   0.850   9.218 -0.7575  0.1615 -0.0976
  852MOL0     H17538  12.092   0.707   8.555  0.1107  0.5060  1.9870
  852MOL0     H17539  12.057   0.796   8.333 -0.3901 -3.3878 -1.0625
  852MOL0     H17540  11.990   0.961   8.160  0.2298  1.1288 -0.2507
  852MOL0     H17541  11.937   0.803   8.109  0.5061 -1.2290  2.0951
  852MOL0     H17542  11.735   0.914   7.988 -0.2922 -2.2991  1.2435
  852MOL0     H17543  11.797   1.069   8.068 -0.6139  1.0604 -2.1910
  852MOL0     H17544  11.976   0.926   7.864  0.7370  1.0872  1.3921
  852MOL0     H17545  11.970   1.093   7.909  0.0645 -0.1409 -0.6058
  852MOL0     H17546  11.749   0.957   7.731 -1.0933  1.2045  0.2963
  852MOL0     H17547  11.884   1.057   7.682  2.3779 -3.5397  0.6850
  852MOL0     H17548  11.638   1.132   7.837 -0.3546  1.5035 -0.5108
  852MOL0     H17549  11.775   1.231   7.847 -1.9513 -0.2110  0.2791
  852MOL0     H17550  11.688   1.146   7.569 -0.2594  2.6450 -3.0668
  852MOL0     H17551  11.771   1.289   7.619 -0.2997 -0.7235 -0.6806
  852MOL0     H17552  11.560   1.336   7.760  0.1346 -2.2346  0.9490
  852MOL0     H17553  11.485   1.217   7.659 -1.4848  2.4869  2.5809
  852MOL0     H17554  11.646   1.440   7.535  1.0143 -1.3316 -1.2689
  852MOL0     H17555  11.460   1.456   7.551  1.2599  1.1653 -1.6638
  852MOL0     H17556  11.636   0.856   8.423 -1.3208  1.3263  2.7424
  852MOL0     H17557  11.684   0.766   8.652  1.8343  1.1285  1.7472
  852MOL0     H17558  11.822   0.488   8.888  3.0019  0.0712 -0.6909
  852MOL0     H17559  11.786   0.362   9.087  1.5608 -0.7779  1.1412
  852MOL0     H17560  10.854   1.094   9.466  0.3221  0.1428  1.1220
  852MOL0     H17561  10.820   1.147   9.227  0.8595 -0.7737  1.2140
  852MOL0     H17562  11.056   1.579   8.871 -3.8974 -0.6091  2.3228
  852MOL0     H17563  10.997   1.620   8.631  0.0715  0.0101 -0.3528
  852MOL0     H17564  10.725   1.315   8.429 -2.1876  0.4883  3.2035
  852MOL0     H17565  10.671   1.470   8.483 -1.1433 -1.1918 -1.1728
  852MOL0     H17566  10.663   1.438   8.241  0.3552 -2.8110  1.6623
  852MOL0     H17567  10.831   1.466   8.219 -0.2229 -1.3853 -1.0195
  852MOL0     H17568  10.632   1.673   8.352  0.0222  0.3364 -0.0530
  852MOL0     H17569  10.801   1.698   8.312  0.2553 -0.0888 -1.9365
  852MOL0     H17570  10.796   1.649   8.081  0.8180  1.4882  1.1830
  852MOL0     H17571  10.686   1.782   8.120 -0.7939  0.3011  0.4650
  852MOL0     H17572  10.473   1.496   7.906 -2.3150 -0.6803  1.9681
  852MOL0     H17573  10.869   1.209   8.605  1.6904 -1.7174  1.9928
  852MOL0     H17574  11.015   1.076   8.843 -0.3515 -2.0629 -1.7675
  852MOL0     H17575  10.885   1.128   8.945 -0.4555 -1.5932 -0.0366
  852MOL0     H17576  10.844   1.078   8.783 -2.6930  3.6378  0.5708
  853MOL0     O17577  10.947   9.071   1.652 -0.0885 -0.0537  0.3380
  853MOL0     C17578  11.037   9.157   1.651  1.2535  0.2197 -0.1074
  853MOL0     O17579  11.105   9.207   1.540 -0.1323  0.0815 -0.2591
  853MOL0     C17580  11.046   9.173   1.424  0.1778  0.0300 -0.0921
  853MOL0     C17581  10.975   9.254   1.340 -0.3569 -0.1990  0.3541
  853MOL0     C17582  10.916   9.201   1.220  0.1509  1.6677 -0.1196
  853MOL0     C17583  10.932   9.058   1.193 -0.0201  0.7866  0.3660
  853MOL0     O17584  10.869   9.000   1.081 -0.4203  0.1168 -0.4100
  853MOL0     C17585  10.776   9.081   0.999  0.9236 -0.0169  0.6809
  853MOL0     C17586  10.634   9.100   1.054  1.0616  0.5129 -0.4506
  853MOL0     C17587  10.573   8.954   1.066  0.0536 -0.0201  0.6969
  853MOL0     C17588  10.427   8.958   1.113 -0.5623  0.5793  0.8870
  853MOL0     C17589  10.374   8.813   1.133  0.1831 -0.7940  0.1464
  853MOL0     C17590  10.434   8.732   1.252 -0.5705 -0.7444 -0.3449
  853MOL0     C17591  10.364   8.588   1.261  1.3176 -0.2576 -0.1365
  853MOL0     C17592  10.396   8.524   1.389 -0.9206  0.4030 -0.6572
  853MOL0     N17593  10.340   8.395   1.418  0.3977  0.8163 -0.0151
  853MOL0     C17594  10.400   8.273   1.388  0.2290  0.5386  0.1481
  853MOL0     C17595  10.312   8.173   1.428 -0.0230  0.3709  1.1430
  853MOL0     C17596  10.325   8.024   1.444  0.0139 -0.3676  0.2676
  853MOL0     C17597  10.429   7.996   1.559  0.3353 -1.0641  0.1679
  853MOL0     C17598  10.429   7.854   1.591 -0.1713  0.4556  0.4864
  853MOL0     C17599  10.518   7.779   1.487  0.6118 -0.4579  0.4140
  853MOL0     O17600  10.537   7.642   1.543 -0.1209 -0.0533 -0.1840
  853MOL0     C17601  10.568   7.536   1.462 -0.7776  0.0936  0.4068
  853MOL0     C17602  10.612   7.539   1.326 -0.3346 -0.9624 -0.5138
  853MOL0     C17603  10.637   7.417   1.262  0.2467  0.1347  0.7634
  853MOL0     C17604  10.699   7.423   1.131  0.7556  1.3048 -0.3103
  853MOL0     C17605  10.626   7.295   1.325 -0.9275 -0.0039 -0.9193
  853MOL0     C17606  10.641   7.160   1.272 -0.1434  0.8231 -0.6346
  853MOL0     O17607  10.735   7.084   1.326 -0.9380  1.0703 -0.9926
  853MOL0     C17608  10.746   6.947   1.285  0.6153 -0.1931 -0.1924
  853MOL0     C17609  10.797   6.924   1.156  0.2830 -0.3073  0.1261
  853MOL0     C17610  10.793   6.793   1.100 -1.0635 -0.9619 -0.8242
  853MOL0     C17611  10.761   6.684   1.184 -0.4607  0.5981  0.3874
  853MOL0     O17612  10.767   6.558   1.139  0.5266  0.4584  0.4870
  853MOL0     C17613  10.649   6.519   1.067  0.1587  0.4320 -0.5937
  853MOL0     C17614  10.614   6.366   1.107  0.7366 -0.2914  0.8177
  853MOL0     C17615  10.741   6.287   1.059  0.8632  0.0724  0.8276
  853MOL0     C17616  10.693   6.149   1.067  0.2008 -0.5966 -0.6158
  853MOL0     C17617  10.808   6.051   1.023  0.0306 -0.1935 -0.2087
  853MOL0     C17618  10.764   5.911   1.017 -0.0272  0.1939 -0.2406
  853MOL0     C17619  10.712   5.846   1.143  0.7505  0.2869 -0.2803
  853MOL0     C17620  10.689   5.693   1.134 -0.4163  0.0313 -0.5236
  853MOL0    Cl17621  10.847   5.616   1.126  0.3575 -0.4986 -0.0681
  853MOL0     C17622  10.710   6.713   1.313 -0.8886  0.3552 -0.1096
  853MOL0     C17623  10.700   6.836   1.360 -1.0316  0.7438 -0.6909
  853MOL0     O17624  10.591   7.142   1.167  0.0866  0.0154 -0.3391
  853MOL0     C17625  10.585   7.294   1.459 -0.1517 -0.2655  0.0154
  853MOL0     C17626  10.560   7.409   1.528  0.8136 -1.1476  0.4754
  853MOL0     N17627  10.201   8.233   1.481 -0.8101  0.0782 -0.7920
  853MOL0     N17628  10.221   8.366   1.475 -0.5673 -0.3867 -0.2521
  853MOL0     C17629  11.013   8.989   1.278 -1.1843  0.1098 -0.0191
  853MOL0     C17630  11.065   9.040   1.393 -0.3219 -0.2720 -1.1877
  853MOL0     C17631  11.075   9.212   1.783  0.2623  1.0798 -0.1411
  853MOL0     C17632  10.975   9.219   1.882  0.0265 -0.5086 -0.6288
  853MOL0     C17633  10.998   9.289   2.001 -0.4499  0.3998 -1.0373
  853MOL0     C17634  11.122   9.355   2.024  0.6046 -0.6042  0.3315
  853MOL0     O17635  11.133   9.422   2.147 -0.3751 -0.5153 -0.2027
  853MOL0     C17636  11.250   9.488   2.185  0.3756  0.0274 -0.5171
  853MOL0     C17637  11.281   9.621   2.101  0.3060 -0.2079  0.0259
  853MOL0     C17638  11.421   9.667   2.109 -0.2781 -0.2862  0.0491
  853MOL0     C17639  11.504   9.607   1.994 -0.6763  0.2106 -0.5681
  853MOL0     C17640  11.550   9.468   2.015  0.9435 -0.5497 -0.6537
  853MOL0     C17641  11.582   9.351   2.021  0.4517 -0.1488 -0.2497
  853MOL0     C17642  11.221   9.340   1.930  0.5774  0.4340  0.4528
  853MOL0     C17643  11.204   9.261   1.811 -0.3051 -0.2853  0.8949
  853MOL0     C17644  11.326   9.238   1.730  0.5893 -0.2529 -0.4705
  853MOL0     H17645  10.973   9.361   1.358 -2.7682  0.0595 -1.0442
  853MOL0     H17646  10.865   9.272   1.155  0.9141  1.0945 -1.3818
  853MOL0     H17647  10.760   9.026   0.906 -0.2270  1.3823  0.0187
  853MOL0     H17648  10.824   9.175   0.971 -0.6357  0.4551 -0.5851
  853MOL0     H17649  10.654   9.152   1.148 -0.5167 -1.7207  1.2117
  853MOL0     H17650  10.570   9.161   0.989 -0.0742 -0.6567 -0.4820
  853MOL0     H17651  10.572   8.911   0.965 -0.6498  0.7733  0.3595
  853MOL0     H17652  10.636   8.888   1.127  0.5355 -2.4161 -2.1286
  853MOL0     H17653  10.449   9.012   1.205  2.9959  1.3540 -0.2401
  853MOL0     H17654  10.362   9.020   1.050  1.8475 -0.0815 -2.5097
  853MOL0     H17655  10.402   8.759   1.042 -0.0079 -3.5799  1.6353
  853MOL0     H17656  10.265   8.825   1.134  0.2107 -0.4980 -0.2521
  853MOL0     H17657  10.541   8.717   1.239 -0.4348 -0.7813  0.7063
  853MOL0     H17658  10.410   8.781   1.347  0.0709  2.0584 -1.5279
  853MOL0     H17659  10.395   8.532   1.173 -1.3585  1.3108 -2.2305
  853MOL0     H17660  10.255   8.584   1.260  1.2815  0.6723 -1.3025
  853MOL0     H17661  10.502   8.500   1.378 -0.4497  0.2809  3.0918
  853MOL0     H17662  10.375   8.579   1.482 -0.1000 -1.1541  0.4766
  853MOL0     H17663  10.501   8.275   1.348  0.3151  4.4937  0.1861
  853MOL0     H17664  10.357   7.979   1.350 -2.5626 -0.5959 -0.5937
  853MOL0     H17665  10.228   7.974   1.455 -0.4274  0.8480  2.4700
  853MOL0     H17666  10.529   8.034   1.537  1.8093 -1.8401  4.5109
  853MOL0     H17667  10.389   8.047   1.647  0.6972 -0.8980  0.2395
  853MOL0     H17668  10.465   7.831   1.692  5.1310  1.2866 -0.9250
  853MOL0     H17669  10.330   7.812   1.574  0.6203 -0.9721 -0.8316
  853MOL0     H17670  10.469   7.770   1.389  0.5562 -1.8049  0.5451
  853MOL0     H17671  10.606   7.842   1.476  0.0312  0.2195 -0.5027
  853MOL0     H17672  10.619   7.626   1.262  0.5263 -0.8313 -0.2526
  853MOL0     H17673  10.633   7.435   1.045 -0.8749 -1.0633  0.5014
  853MOL0     H17674  10.751   7.332   1.101 -1.9908 -1.0303  1.4962
  853MOL0     H17675  10.765   7.511   1.128  0.8455  1.2935  0.8496
  853MOL0     H17676  10.841   7.014   1.114 -0.8275  0.7443  1.1695
  853MOL0     H17677  10.836   6.782   1.001  0.2971 -3.3425 -0.0610
  853MOL0     H17678  10.566   6.589   1.083  2.3345  3.7666 -2.7532
  853MOL0     H17679  10.662   6.530   0.959 -1.4022  1.7230 -0.6876
  853MOL0     H17680  10.583   6.354   1.211 -3.7521 -2.8105 -0.5589
  853MOL0     H17681  10.527   6.350   1.043 -0.9898  4.0866  1.7287
  853MOL0     H17682  10.832   6.297   1.120  1.5807  0.4908 -0.2934
  853MOL0     H17683  10.760   6.313   0.955  1.8867 -5.0661 -0.5435
  853MOL0     H17684  10.605   6.132   1.005 -1.7210  4.4880  0.2302
  853MOL0     H17685  10.662   6.120   1.168  1.2616 -2.9013 -0.8772
  853MOL0     H17686  10.839   6.088   0.924 -5.6770  2.6276 -1.3992
  853MOL0     H17687  10.885   6.067   1.099  1.4675 -2.5154 -1.0596
  853MOL0     H17688  10.851   5.862   0.972 -1.0277  0.2976 -2.3779
  853MOL0     H17689  10.680   5.912   0.948 -0.3386 -0.5610  0.1069
  853MOL0     H17690  10.613   5.881   1.174 -0.0632 -2.8740  1.1989
  853MOL0     H17691  10.779   5.859   1.228  0.8031 -0.5397 -0.1834
  853MOL0     H17692  10.622   5.655   1.056 -1.0936  1.5190 -0.6959
  853MOL0     H17693  10.641   5.660   1.226  2.5920 -0.6916  0.8857
  853MOL0     H17694  10.684   6.628   1.376  0.7333 -0.8564 -1.0124
  853MOL0     H17695  10.656   6.852   1.458 -2.7151 -2.8161 -0.6955
  853MOL0     H17696  10.556   7.199   1.504 -2.0622  0.5232  0.5675
  853MOL0     H17697  10.512   7.402   1.624  1.5574  1.3266  1.1026
  853MOL0     H17698  11.026   8.883   1.262 -0.0678  0.4297 -1.4023
  853MOL0     H17699  11.114   8.974   1.464 -0.8384 -0.8424 -1.3474
  853MOL0     H17700  10.875   9.182   1.864 -0.4565 -0.3694  1.4676
  853MOL0     H17701  10.922   9.292   2.078 -0.2581 -2.0419 -0.6723
  853MOL0     H17702  11.247   9.513   2.291 -1.7740 -2.4363  0.0967
  853MOL0     H17703  11.328   9.413   2.175  0.7885  0.5204 -1.0958
  853MOL0     H17704  11.214   9.691   2.152  1.3677 -0.2413  1.4997
  853MOL0     H17705  11.243   9.613   1.999  1.8095  1.6542 -0.7335
  853MOL0     H17706  11.422   9.776   2.102  0.5592 -0.1580  1.6090
  853MOL0     H17707  11.461   9.656   2.211 -2.5860  0.3837  1.0820
  853MOL0     H17708  11.586   9.672   1.960  0.8989 -2.2115 -1.6572
  853MOL0     H17709  11.443   9.612   1.904  1.0651 -0.7709 -1.8830
  853MOL0     H17710  11.609   9.247   2.025  1.3319 -0.2370 -4.3148
  853MOL0     H17711  11.323   9.376   1.940  0.7957  1.1891 -3.0286
  853MOL0     H17712  11.415   9.228   1.793 -1.5898  1.8388  3.3118
  853MOL0     H17713  11.318   9.150   1.666 -0.6778  1.3264 -2.6062
  853MOL0     H17714  11.344   9.322   1.662  2.9566 -0.1223  0.2461
  854MOL0     O17715   6.512   7.324   4.654  0.1283  0.0164  0.2369
  854MOL0     C17716   6.472   7.439   4.620 -0.6664  0.5631  0.4972
  854MOL0     O17717   6.366   7.464   4.544  1.2010 -0.1199 -0.4509
  854MOL0     C17718   6.284   7.364   4.501  0.4932 -0.3246 -0.3512
  854MOL0     C17719   6.156   7.343   4.554  0.5877 -0.0710  0.0942
  854MOL0     C17720   6.063   7.246   4.504 -0.9053  0.3091 -0.0821
  854MOL0     C17721   6.103   7.178   4.384 -1.0501  0.7811 -0.2137
  854MOL0     O17722   6.004   7.105   4.322  0.0906 -0.4932 -0.2969
  854MOL0     C17723   5.978   7.134   4.188  0.5736 -0.8145  0.1542
  854MOL0     C17724   5.847   7.075   4.143 -0.7491  0.4068  0.2192
  854MOL0     C17725   5.886   6.926   4.115 -1.1752 -0.7377  0.1140
  854MOL0     C17726   5.777   6.859   4.040 -0.8352  0.3161  0.2483
  854MOL0     C17727   5.668   6.816   4.131 -0.1065  0.0693 -0.7023
  854MOL0     C17728   5.704   6.700   4.225 -0.6627 -0.5889  0.1780
  854MOL0     C17729   5.583   6.614   4.260 -0.6451  0.5168 -0.1668
  854MOL0     C17730   5.641   6.481   4.333 -0.7060 -0.3920 -0.3488
  854MOL0     N17731   5.733   6.508   4.447  0.4611 -0.9538  0.8168
  854MOL0     C17732   5.868   6.531   4.454 -0.7966  0.5182 -0.8756
  854MOL0     C17733   5.894   6.580   4.580  0.7011 -0.0119  0.7388
  854MOL0     C17734   6.010   6.639   4.647  0.4179  0.0844  0.4584
  854MOL0     C17735   6.042   6.778   4.599 -0.1252 -0.2484  0.7637
  854MOL0     C17736   6.171   6.834   4.663 -0.2814  1.0211 -0.3304
  854MOL0     C17737   6.166   6.850   4.821  0.5724 -0.1723  0.1973
  854MOL0     O17738   6.067   6.943   4.857  0.5984 -0.1593  0.3436
  854MOL0     C17739   6.087   7.066   4.913 -0.5650  0.3634  0.5525
  854MOL0     C17740   6.027   7.096   5.029  0.2414  0.2067  0.8168
  854MOL0     C17741   6.051   7.223   5.089  0.6804 -0.5003 -0.2952
  854MOL0     C17742   5.980   7.251   5.225  0.0051  0.0743  1.5855
  854MOL0     C17743   6.141   7.309   5.019 -0.1501  1.1421 -0.2212
  854MOL0     C17744   6.182   7.447   5.066 -0.5588 -0.1218  0.6200
  854MOL0     O17745   6.236   7.529   4.974  0.0383  0.4254  0.4619
  854MOL0     C17746   6.280   7.648   5.015  1.0977  1.4647 -0.7604
  854MOL0     C17747   6.185   7.758   5.044 -0.6190  0.6468 -0.4418
  854MOL0     C17748   6.230   7.884   5.086 -0.4651  0.5750 -0.0027
  854MOL0     C17749   6.372   7.903   5.099  0.1181  0.0401 -0.4895
  854MOL0     O17750   6.436   8.017   5.148  0.3712  0.6241 -0.3809
  854MOL0     C17751   6.362   8.100   5.235 -0.2853  0.0216 -0.3291
  854MOL0     C17752   6.470   8.180   5.319 -0.1523 -0.3034 -0.4423
  854MOL0     C17753   6.528   8.074   5.417  0.5653 -0.1042 -0.1525
  854MOL0     C17754   6.684   8.061   5.400 -0.8286 -0.6269 -0.2973
  854MOL0     C17755   6.750   7.999   5.524 -0.2711 -0.2300 -0.4520
  854MOL0     C17756   6.901   7.989   5.514 -0.6610 -0.9836  0.0276
  854MOL0     C17757   6.977   7.973   5.658  0.0028  0.5042  0.6705
  854MOL0     C17758   7.083   7.860   5.656  0.5601 -0.0618  1.2852
  854MOL0    Cl17759   7.106   7.778   5.808 -0.5011  0.3134 -0.0980
  854MOL0     C17760   6.461   7.801   5.066  0.4702 -0.2328  0.7119
  854MOL0     C17761   6.412   7.678   5.020 -0.0798 -0.6884 -0.2011
  854MOL0     O17762   6.162   7.471   5.183 -0.4742 -0.0423  0.2477
  854MOL0     C17763   6.218   7.267   4.905 -0.3393  0.9499  0.2048
  854MOL0     C17764   6.185   7.142   4.855 -0.3320  0.4653  0.2115
  854MOL0     N17765   5.772   6.579   4.654  0.7345 -0.4968 -0.6224
  854MOL0     N17766   5.681   6.531   4.570  0.5748 -0.7260  0.2487
  854MOL0     C17767   6.238   7.186   4.330 -0.0198 -0.2769  0.0094
  854MOL0     C17768   6.323   7.283   4.391  0.2803  0.5524 -0.2254
  854MOL0     C17769   6.551   7.559   4.655 -0.0858  0.5940 -0.1329
  854MOL0     C17770   6.485   7.679   4.669  0.3466  0.9044 -1.0509
  854MOL0     C17771   6.549   7.801   4.691 -0.3698  0.3340 -0.3032
  854MOL0     C17772   6.687   7.807   4.688  0.1423  0.5491  0.9102
  854MOL0     O17773   6.747   7.928   4.712 -0.7557 -0.4910 -0.3143
  854MOL0     C17774   6.888   7.945   4.683  0.2058  0.2104  1.6821
  854MOL0     C17775   6.927   8.087   4.637 -0.6461 -0.5156 -0.1101
  854MOL0     C17776   6.896   8.201   4.746  1.0587  1.1418  0.2351
  854MOL0     C17777   6.974   8.185   4.877 -0.3245  0.1794 -0.5451
  854MOL0     C17778   6.894   8.123   4.981 -0.2610  0.0173 -0.2462
  854MOL0     C17779   6.815   8.071   5.055 -0.1202 -0.4738  0.0422
  854MOL0     C17780   6.757   7.688   4.676  0.4108 -0.3667 -0.1463
  854MOL0     C17781   6.695   7.564   4.655  0.2535  0.4987  0.2024
  854MOL0     C17782   6.784   7.435   4.629  0.2607 -0.9776  0.4464
  854MOL0     H17783   6.124   7.414   4.630 -1.7490 -0.1135 -0.7551
  854MOL0     H17784   5.963   7.251   4.545 -1.6403  2.7644 -1.9542
  854MOL0     H17785   6.069   7.090   4.145  0.1721 -1.0112 -0.5108
  854MOL0     H17786   5.974   7.243   4.183  0.9376 -0.7431  1.2190
  854MOL0     H17787   5.774   7.079   4.224 -2.7794 -0.6910 -1.4595
  854MOL0     H17788   5.794   7.131   4.065 -0.3154  1.8776  0.9405
  854MOL0     H17789   5.984   6.928   4.066 -0.5635 -1.6312  1.2381
  854MOL0     H17790   5.914   6.886   4.213  1.8436  0.0386 -0.3317
  854MOL0     H17791   5.745   6.923   3.958 -2.2566  0.5379  0.9546
  854MOL0     H17792   5.827   6.773   3.996  2.6504  3.0521 -1.7086
  854MOL0     H17793   5.586   6.795   4.062 -2.3222 -0.3423  1.8683
  854MOL0     H17794   5.630   6.899   4.192 -2.5971  1.2685 -3.5938
  854MOL0     H17795   5.780   6.638   4.176  0.5177  1.9756 -1.4426
  854MOL0     H17796   5.748   6.743   4.315  5.2519 -0.1875 -2.4193
  854MOL0     H17797   5.519   6.574   4.181  0.5219 -3.2719  0.6337
  854MOL0     H17798   5.521   6.679   4.324 -0.2300  0.5886  0.1671
  854MOL0     H17799   5.557   6.416   4.357  1.1744 -2.9772 -0.3129
  854MOL0     H17800   5.699   6.427   4.258 -3.1597  0.2326 -2.8407
  854MOL0     H17801   5.955   6.519   4.390 -0.3621 -2.0274  0.0670
  854MOL0     H17802   6.100   6.578   4.633  0.9418  0.5881  1.5125
  854MOL0     H17803   6.007   6.640   4.757  1.6061  0.6321  0.5024
  854MOL0     H17804   6.053   6.777   4.490 -0.8160  1.6073  0.6363
  854MOL0     H17805   5.964   6.851   4.625  1.7853  2.0448  0.3638
  854MOL0     H17806   6.251   6.763   4.643  0.4223  0.3682  3.8508
  854MOL0     H17807   6.201   6.927   4.613 -0.8709  2.1490  1.3061
  854MOL0     H17808   6.155   6.756   4.876  2.6487 -0.2051  0.6516
  854MOL0     H17809   6.261   6.895   4.851 -1.1777  3.7942  0.4103
  854MOL0     H17810   5.957   7.016   5.051 -3.2859  2.4443 -1.2312
  854MOL0     H17811   5.883   7.201   5.231 -1.5721  2.4784 -1.0029
  854MOL0     H17812   5.947   7.355   5.214  1.4802  0.4116 -0.1600
  854MOL0     H17813   6.052   7.224   5.302  3.9036  0.4432 -1.5708
  854MOL0     H17814   6.081   7.753   5.015  0.2267 -0.8834 -3.6584
  854MOL0     H17815   6.157   7.965   5.097 -0.0521  0.9937 -0.3204
  854MOL0     H17816   6.299   8.170   5.180 -2.3493  0.3367  2.2661
  854MOL0     H17817   6.287   8.047   5.295 -2.9072  4.2840  0.5602
  854MOL0     H17818   6.534   8.217   5.238  1.0764 -2.0391 -0.3187
  854MOL0     H17819   6.422   8.261   5.374 -1.2253 -1.5100  0.4593
  854MOL0     H17820   6.476   7.978   5.414 -0.1773  0.2149  1.3752
  854MOL0     H17821   6.505   8.115   5.516  0.0994 -0.2797 -0.1838
  854MOL0     H17822   6.730   8.160   5.393 -0.5725 -0.7419 -0.2601
  854MOL0     H17823   6.721   8.015   5.308 -0.0980 -0.2433 -0.2080
  854MOL0     H17824   6.732   8.070   5.606 -0.7830 -1.0614  0.1763
  854MOL0     H17825   6.710   7.900   5.551 -0.5490  0.1279  0.4930
  854MOL0     H17826   6.940   8.085   5.481  2.2976 -2.1586 -0.1324
  854MOL0     H17827   6.938   7.919   5.439 -0.3580 -1.7922  0.9086
  854MOL0     H17828   6.917   7.944   5.744  4.1697 -2.4989  2.9661
  854MOL0     H17829   7.023   8.069   5.680  2.6899  0.4290 -3.4771
  854MOL0     H17830   7.176   7.917   5.646 -1.7647  3.8955 -0.1176
  854MOL0     H17831   7.061   7.785   5.580  0.4759  0.4912  0.7560
  854MOL0     H17832   6.567   7.825   5.068  1.8018 -2.9676 -6.6731
  854MOL0     H17833   6.489   7.613   4.980  1.5483  0.2369  1.2909
  854MOL0     H17834   6.301   7.323   4.864  0.3636  1.1282  1.8044
  854MOL0     H17835   6.227   7.106   4.762  2.0355  2.5433  0.3727
  854MOL0     H17836   6.270   7.125   4.246  4.7212  1.6145  0.1218
  854MOL0     H17837   6.427   7.291   4.360  0.4037 -1.0193 -0.3027
  854MOL0     H17838   6.377   7.686   4.682 -0.0711  0.8526 -3.7937
  854MOL0     H17839   6.486   7.888   4.706  2.1562  2.0659  1.1276
  854MOL0     H17840   6.952   7.916   4.766  2.5576 -0.8461 -0.3827
  854MOL0     H17841   6.913   7.869   4.608 -1.8911  0.5035  0.5981
  854MOL0     H17842   6.869   8.107   4.547 -2.6077 -0.0274  1.1978
  854MOL0     H17843   7.036   8.081   4.626 -0.8426 -0.9208 -2.3306
  854MOL0     H17844   6.933   8.294   4.702 -1.2723  2.5780  1.1336
  854MOL0     H17845   6.789   8.203   4.766  0.5230 -0.3987 -2.1319
  854MOL0     H17846   7.000   8.286   4.908  0.8364 -0.2897  0.0759
  854MOL0     H17847   7.064   8.125   4.861 -0.0425  0.3705  0.2714
  854MOL0     H17848   6.732   8.027   5.108 -0.2543  1.8644  1.9526
  854MOL0     H17849   6.864   7.674   4.693  0.4115  2.8815  4.0387
  854MOL0     H17850   6.776   7.359   4.707  2.2231 -0.5702  1.1032
  854MOL0     H17851   6.759   7.392   4.532 -0.5088  1.2896 -0.4153
  854MOL0     H17852   6.888   7.467   4.621 -0.2116  0.1551 -2.3011
  855MOL0     O17853   8.925   6.131   2.470 -0.0478  0.0035  0.2253
  855MOL0     C17854   9.036   6.156   2.429  0.5229  0.4377  0.5780
  855MOL0     O17855   9.056   6.242   2.322 -0.0811  0.7539  0.1470
  855MOL0     C17856   8.957   6.291   2.237 -0.7384  1.0244  0.2401
  855MOL0     C17857   8.991   6.270   2.103  0.2070  0.1661 -0.4394
  855MOL0     C17858   8.894   6.317   2.012  0.1615 -0.6430 -0.4409
  855MOL0     C17859   8.773   6.378   2.052  0.3472 -0.0225 -0.1495
  855MOL0     O17860   8.694   6.426   1.956 -0.4825 -0.7577  0.3621
  855MOL0     C17861   8.602   6.532   1.991  0.2599  0.5515  0.4725
  855MOL0     C17862   8.665   6.662   2.036  0.1208 -0.3990  0.2134
  855MOL0     C17863   8.745   6.727   1.917  0.3673  0.2298 -0.1015
  855MOL0     C17864   8.712   6.871   1.887 -0.0560  0.1493 -0.6237
  855MOL0     C17865   8.768   6.923   1.752  0.1101 -0.0024 -0.1169
  855MOL0     C17866   8.918   6.897   1.749 -0.1366 -0.4404  0.8580
  855MOL0     C17867   8.994   6.965   1.635  0.6015 -0.3021  0.1295
  855MOL0     C17868   9.100   7.063   1.689 -0.4552 -0.4264 -0.4870
  855MOL0     N17869   9.219   6.988   1.715  0.2611 -0.1564  0.4505
  855MOL0     C17870   9.260   6.946   1.846  0.7546 -1.5590 -0.0898
  855MOL0     C17871   9.377   6.885   1.826  0.5458 -0.2459  0.1567
  855MOL0     C17872   9.456   6.822   1.931 -1.0229  0.8087 -0.7944
  855MOL0     C17873   9.445   6.664   1.934  0.4478  0.2937 -0.0089
  855MOL0     C17874   9.537   6.620   2.043 -0.2200 -0.7951  0.2890
  855MOL0     C17875   9.474   6.644   2.183  0.2275  0.7477 -1.2879
  855MOL0     O17876   9.521   6.766   2.240  0.0480 -0.7509 -0.1021
  855MOL0     C17877   9.596   6.759   2.349  0.7376 -0.5006  0.4355
  855MOL0     C17878   9.551   6.807   2.472  0.0317  0.2999 -0.4387
  855MOL0     C17879   9.634   6.813   2.587  0.0833  0.0257  0.6813
  855MOL0     C17880   9.573   6.883   2.702 -0.6883  1.4608  0.7477
  855MOL0     C17881   9.776   6.770   2.571  0.4671  0.0239  0.6544
  855MOL0     C17882   9.880   6.797   2.675 -0.0603 -0.1588  0.2332
  855MOL0     O17883  10.010   6.785   2.636  0.3430  0.8960 -0.1516
  855MOL0     C17884  10.107   6.796   2.731  0.4240 -0.8868 -0.0254
  855MOL0     C17885  10.192   6.690   2.765 -0.6503  0.7993  0.0609
  855MOL0     C17886  10.309   6.716   2.844  0.2577  0.4349  0.7359
  855MOL0     C17887  10.336   6.847   2.886 -0.2739 -0.4190  0.2210
  855MOL0     O17888  10.454   6.881   2.964 -1.0291 -0.1778  0.1162
  855MOL0     C17889  10.546   6.779   3.011 -0.3896  0.0217  0.2524
  855MOL0     C17890  10.674   6.862   3.047  0.8500 -0.4551 -0.1049
  855MOL0     C17891  10.802   6.766   3.040  1.2726  0.7442 -0.1486
  855MOL0     C17892  10.935   6.842   3.018 -0.1965 -0.3463 -0.2047
  855MOL0     C17893  11.041   6.730   3.033  0.4125 -1.0479 -0.5271
  855MOL0     C17894  11.179   6.776   2.970  0.7837  0.8751 -0.3380
  855MOL0     C17895  11.252   6.894   3.045 -0.9169  1.1923 -0.6825
  855MOL0     C17896  11.396   6.854   3.098  0.1056  1.0559 -0.2201
  855MOL0    Cl17897  11.367   6.777   3.259 -0.3609  0.0199  0.6236
  855MOL0     C17898  10.243   6.946   2.863 -0.5454  0.1608 -0.3188
  855MOL0     C17899  10.141   6.924   2.777  0.2376  0.0552  1.3410
  855MOL0     O17900   9.841   6.809   2.792  0.0015 -0.1391 -0.1508
  855MOL0     C17901   9.812   6.725   2.443  0.4247 -0.4250  0.7597
  855MOL0     C17902   9.725   6.717   2.331  0.1197 -0.3741  0.0689
  855MOL0     N17903   9.414   6.902   1.691 -0.3563 -0.3233 -0.1887
  855MOL0     N17904   9.319   6.958   1.629 -0.3796  0.2723 -0.4778
  855MOL0     C17905   8.752   6.388   2.187  0.7881 -1.1508  0.2665
  855MOL0     C17906   8.840   6.337   2.282 -0.2811  0.0523  0.5318
  855MOL0     C17907   9.159   6.107   2.508  0.4870 -1.1894 -0.8759
  855MOL0     C17908   9.132   6.015   2.608 -0.2752  0.6094  0.0188
  855MOL0     C17909   9.239   5.953   2.687  0.0045 -0.0931  0.3990
  855MOL0     C17910   9.371   5.985   2.658 -0.2964 -0.0650 -0.1858
  855MOL0     O17911   9.470   5.919   2.727  0.8915 -0.9763 -0.7122
  855MOL0     C17912   9.605   5.961   2.715  0.1898 -0.4601  1.2018
  855MOL0     C17913   9.698   5.912   2.824  0.7390 -0.0227 -0.3581
  855MOL0     C17914   9.708   5.758   2.823 -0.6856  0.0747  0.6658
  855MOL0     C17915   9.823   5.727   2.919  0.2348  0.1988  0.1922
  855MOL0     C17916   9.803   5.581   2.952  0.6408 -0.4097 -0.2361
  855MOL0     C17917   9.791   5.466   2.974  0.0288 -0.0901 -0.4948
  855MOL0     C17918   9.402   6.082   2.551 -0.3361  0.3068  0.3220
  855MOL0     C17919   9.294   6.142   2.484 -0.2027  0.5274  0.6641
  855MOL0     C17920   9.333   6.242   2.378 -0.0720  0.4059 -0.2521
  855MOL0     H17921   9.087   6.232   2.068 -0.1611 -1.4207  0.2037
  855MOL0     H17922   8.916   6.324   1.906  1.1128 -0.7875 -0.2662
  855MOL0     H17923   8.532   6.500   2.069 -0.4227  0.2024 -0.2648
  855MOL0     H17924   8.539   6.547   1.902  0.1661  1.5800  0.7001
  855MOL0     H17925   8.580   6.723   2.068 -1.5993 -0.7822 -3.1230
  855MOL0     H17926   8.729   6.661   2.124  0.1409  2.3885  0.3170
  855MOL0     H17927   8.852   6.730   1.938  0.4997  4.0957 -0.6343
  855MOL0     H17928   8.726   6.669   1.826 -1.4622  0.9035 -0.1981
  855MOL0     H17929   8.603   6.884   1.890 -0.4388 -2.4753  1.6465
  855MOL0     H17930   8.759   6.922   1.971  1.8378 -3.8450  0.9875
  855MOL0     H17931   8.745   7.030   1.746 -0.4368  0.0901  2.4720
  855MOL0     H17932   8.716   6.872   1.671 -0.7798 -1.2758  1.2051
  855MOL0     H17933   8.959   6.932   1.844 -1.2377 -1.3919  1.7169
  855MOL0     H17934   8.922   6.788   1.739 -0.1636 -0.3552 -0.2441
  855MOL0     H17935   8.923   7.018   1.571  1.0380  1.5501  1.0941
  855MOL0     H17936   9.048   6.889   1.578  0.8120  0.4606 -0.7106
  855MOL0     H17937   9.122   7.149   1.625  2.1426 -3.1996 -3.6914
  855MOL0     H17938   9.067   7.113   1.781 -0.5311 -2.5101  0.6800
  855MOL0     H17939   9.200   6.957   1.936  0.0987 -0.0341 -0.6633
  855MOL0     H17940   9.428   6.869   2.026  3.2780 -0.1308  1.1868
  855MOL0     H17941   9.558   6.853   1.909  0.1546 -2.2695 -0.1573
  855MOL0     H17942   9.341   6.637   1.954  0.1720 -0.1381 -1.8287
  855MOL0     H17943   9.471   6.617   1.838  1.0679  0.8542 -0.1215
  855MOL0     H17944   9.564   6.517   2.020 -0.0592 -0.9363  1.0789
  855MOL0     H17945   9.626   6.683   2.033 -0.8948  0.1695  0.2829
  855MOL0     H17946   9.365   6.634   2.176  0.3210 -1.4360 -0.5629
  855MOL0     H17947   9.516   6.559   2.239 -0.0869  0.0069 -2.1513
  855MOL0     H17948   9.451   6.847   2.479  0.5022  1.3390  0.5816
  855MOL0     H17949   9.629   6.977   2.705  0.7430  0.7512 -1.2532
  855MOL0     H17950   9.588   6.822   2.791  1.5099 -1.1993 -1.2527
  855MOL0     H17951   9.467   6.903   2.687 -0.5952  1.8704  0.6182
  855MOL0     H17952  10.170   6.592   2.724  0.3921  0.4550  0.2896
  855MOL0     H17953  10.373   6.632   2.870  0.8125  0.5154 -0.3511
  855MOL0     H17954  10.506   6.722   3.095 -0.3437 -1.4880 -0.7270
  855MOL0     H17955  10.563   6.708   2.929 -0.5601  0.8808 -0.5526
  855MOL0     H17956  10.693   6.920   2.956  2.5692  0.2823  0.6754
  855MOL0     H17957  10.677   6.929   3.134  0.1284 -0.4760 -0.0599
  855MOL0     H17958  10.793   6.691   2.960  0.6093 -0.7455  1.2799
  855MOL0     H17959  10.808   6.696   3.123  2.2473  0.5902 -0.3317
  855MOL0     H17960  10.953   6.924   3.089 -1.7791 -0.1364 -0.0090
  855MOL0     H17961  10.926   6.881   2.917 -1.2753  0.0613  0.0388
  855MOL0     H17962  11.045   6.693   3.136  0.3018  2.2324  0.7610
  855MOL0     H17963  11.008   6.642   2.976  1.0787 -1.4248 -0.3402
  855MOL0     H17964  11.167   6.808   2.866  5.1763  1.6905 -0.7981
  855MOL0     H17965  11.237   6.684   2.963  3.3455  2.3844 -0.3668
  855MOL0     H17966  11.190   6.924   3.130 -2.3129 -3.5112  0.2884
  855MOL0     H17967  11.260   6.979   2.978 -0.5743  1.0921 -0.7694
  855MOL0     H17968  11.451   6.945   3.126 -0.6322  1.0731  1.2897
  855MOL0     H17969  11.450   6.781   3.038  2.0751 -0.2111  2.8463
  855MOL0     H17970  10.271   7.044   2.899  1.4298  0.1425 -1.6562
  855MOL0     H17971  10.066   7.001   2.761 -1.9127 -2.2943 -1.0510
  855MOL0     H17972   9.914   6.708   2.412 -0.0250  1.0336 -1.8645
  855MOL0     H17973   9.759   6.683   2.233 -0.8152  0.6436 -0.6315
  855MOL0     H17974   8.661   6.434   2.223  1.1131 -0.9525  0.8478
  855MOL0     H17975   8.805   6.332   2.385 -0.9710 -0.4893  0.2756
  855MOL0     H17976   9.034   5.970   2.617  0.0577 -0.3397 -0.8627
  855MOL0     H17977   9.218   5.872   2.756  2.7690  1.2574  3.0652
  855MOL0     H17978   9.647   5.926   2.621 -1.5951 -0.6403  0.4233
  855MOL0     H17979   9.613   6.070   2.718 -0.4140 -0.3925  0.6535
  855MOL0     H17980   9.651   5.931   2.920 -2.1340 -1.7515 -1.2976
  855MOL0     H17981   9.791   5.971   2.826 -1.1970  3.2947  1.6426
  855MOL0     H17982   9.610   5.728   2.862  0.3067 -1.3876  2.1578
  855MOL0     H17983   9.724   5.720   2.722 -1.2723  1.3428  0.0787
  855MOL0     H17984   9.804   5.783   3.011 -1.2144 -2.4647  1.6234
  855MOL0     H17985   9.923   5.748   2.880 -1.1497 -0.7020 -4.5172
  855MOL0     H17986   9.777   5.360   2.981  1.6962 -0.4094 -1.5515
  855MOL0     H17987   9.503   6.113   2.524 -0.4331 -0.1925 -0.6379
  855MOL0     H17988   9.439   6.269   2.382 -0.2717  1.3529 -0.8990
  855MOL0     H17989   9.331   6.204   2.276  2.5653  2.5629 -1.2483
  855MOL0     H17990   9.274   6.334   2.389  0.0836  0.2781  2.4766
  856MOL0     O17991  10.778   6.106  11.079  1.1966  1.1083  0.7008
  856MOL0     C17992  10.746   6.176  10.984  0.7166 -0.6868  0.5037
  856MOL0     O17993  10.841   6.223  10.883  0.9301 -0.4198  0.4602
  856MOL0     C17994  10.965   6.224  10.930 -0.1960 -1.3893 -0.0006
  856MOL0     C17995  11.052   6.138  10.871  0.3981 -0.1674 -0.7101
  856MOL0     C17996  11.191   6.139  10.899  0.2682  1.5883 -0.1846
  856MOL0     C17997  11.239   6.231  10.993  0.1671  0.0424  0.1693
  856MOL0     O17998  11.374   6.238  11.008  0.2843  0.3501  0.4677
  856MOL0     C17999  11.434   6.303  11.122  1.3381  0.2590 -0.3350
  856MOL0     C18000  11.576   6.338  11.090 -0.1210  0.3821 -0.1844
  856MOL0     C18001  11.631   6.411  11.217 -1.0751  0.1399  0.1559
  856MOL0     C18002  11.616   6.568  11.209  0.2150 -1.2466  0.8154
  856MOL0     C18003  11.705   6.649  11.301 -0.2432  0.3159 -0.6140
  856MOL0     C18004  11.672   6.798  11.288 -0.2115  0.2166  0.3866
  856MOL0     C18005  11.768   6.891  11.357  0.0747  0.2913  0.2030
  856MOL0     C18006  11.741   7.043  11.328 -0.7939 -0.4644  0.1214
  856MOL0     N18007  11.826   7.106  11.226  0.4734  0.1239  0.3940
  856MOL0     C18008  11.932   7.049  11.153 -0.2875  0.2276  0.2092
  856MOL0     C18009  11.990   7.146  11.078  0.5361  0.4316  0.4292
  856MOL0     C18010  12.096   7.128  10.975 -0.5555  0.2565  0.0521
  856MOL0     C18011  12.240   7.128  11.030  0.4395  1.2735 -0.2125
  856MOL0     C18012  12.341   7.096  10.925 -0.2159 -0.4847 -0.2046
  856MOL0     C18013  12.468   7.032  10.991  0.4515 -0.3435  0.1419
  856MOL0     O18014  12.438   6.896  11.029 -0.7726  0.7168  0.0350
  856MOL0     C18015  12.430   6.807  10.916  0.2328 -0.3872  0.2493
  856MOL0     C18016  12.548   6.746  10.868  0.3499  0.9405 -0.4673
  856MOL0     C18017  12.540   6.651  10.760  1.0629 -0.5997 -0.3890
  856MOL0     C18018  12.661   6.576  10.708  0.7954 -0.4233 -0.1163
  856MOL0     C18019  12.407   6.630  10.705 -0.3067 -0.3912  0.5930
  856MOL0     C18020  12.389   6.525  10.596  0.3479  0.2385  0.7330
  856MOL0     O18021  12.458   6.539  10.481  0.5430  0.0568  0.0165
  856MOL0     C18022  12.448   6.450  10.374 -0.2087  0.8725  0.5017
  856MOL0     C18023  12.487   6.487  10.247  0.5811 -0.6091 -0.6802
  856MOL0     C18024  12.492   6.402  10.145  0.4430  0.2352  1.0711
  856MOL0     C18025  12.457   6.269  10.162  0.1566  0.4223 -0.5705
  856MOL0     O18026  12.439   6.176  10.063 -0.2807  0.2362 -0.0997
  856MOL0     C18027  12.436   6.206   9.919  0.3562  0.1881 -0.1111
  856MOL0     C18028  12.439   6.064   9.856  0.4042  0.0645  0.8362
  856MOL0     C18029  12.300   6.001   9.870 -0.2501  0.8714 -1.1326
  856MOL0     C18030  12.294   5.923  10.003  0.2088 -0.3789 -0.0322
  856MOL0     C18031  12.198   5.812   9.994  0.2560  0.8008 -0.2799
  856MOL0     C18032  12.150   5.751  10.127 -0.8362  0.5703 -0.0261
  856MOL0     C18033  12.073   5.617  10.112 -0.4990 -0.3455 -0.1958
  856MOL0     C18034  11.934   5.636  10.056 -0.8499 -0.2099  0.4559
  856MOL0    Cl18035  11.863   5.474  10.093  0.2863 -0.1840  0.2335
  856MOL0     C18036  12.427   6.226  10.281 -0.3824  1.1304 -0.4559
  856MOL0     C18037  12.420   6.312  10.383 -0.3077  0.0244 -0.3200
  856MOL0     O18038  12.292   6.455  10.610  0.1972 -0.1144 -0.0766
  856MOL0     C18039  12.295   6.700  10.758 -0.1957 -0.3907  0.0968
  856MOL0     C18040  12.305   6.786  10.861  0.0498  0.5516  0.1955
  856MOL0     N18041  11.911   7.255  11.102 -0.0009 -0.3205  0.7360
  856MOL0     N18042  11.812   7.236  11.188 -0.6381 -0.5722 -0.5225
  856MOL0     C18043  11.142   6.309  11.060  0.4468 -1.3886  0.0422
  856MOL0     C18044  11.009   6.308  11.031 -0.2541  0.8110  1.5456
  856MOL0     C18045  10.604   6.227  10.963  0.7114 -0.0656  0.9425
  856MOL0     C18046  10.560   6.276  10.840 -0.0673 -0.1108  0.9348
  856MOL0     C18047  10.431   6.329  10.799 -0.6555 -0.2200  0.2339
  856MOL0     C18048  10.342   6.348  10.899  0.8966  0.0013  0.5993
  856MOL0     O18049  10.223   6.419  10.883 -0.2545 -0.8445 -0.6297
  856MOL0     C18050  10.183   6.526  10.977  0.5382  0.4105  0.8208
  856MOL0     C18051  10.219   6.662  10.924 -0.3997  1.0632  0.7138
  856MOL0     C18052  10.144   6.676  10.791 -0.1953  0.3701  0.7165
  856MOL0     C18053  10.112   6.826  10.771  0.0660  0.3591 -0.5085
  856MOL0     C18054   9.976   6.852  10.836 -0.4226  0.4525 -0.0685
  856MOL0     C18055   9.862   6.875  10.877 -0.8343  0.2814 -0.2974
  856MOL0     C18056  10.366   6.293  11.029  0.2845  0.3862 -0.3470
  856MOL0     C18057  10.493   6.224  11.058  0.2754 -0.0585  0.3597
  856MOL0     C18058  10.510   6.180  11.197  0.1498 -1.1125 -0.1499
  856MOL0     H18059  11.002   6.074  10.798 -0.7032  0.1901 -0.2970
  856MOL0     H18060  11.258   6.066  10.855  0.9327  1.1834  1.4337
  856MOL0     H18061  11.422   6.246  11.215 -3.0990  0.4909 -0.5523
  856MOL0     H18062  11.392   6.401  11.148  1.1133 -0.5933  2.8995
  856MOL0     H18063  11.618   6.238  11.071 -1.3530 -0.2447  0.2653
  856MOL0     H18064  11.581   6.402  11.002 -1.6074 -1.2288 -1.5423
  856MOL0     H18065  11.578   6.374  11.306  0.7041  0.9397  1.6047
  856MOL0     H18066  11.738   6.396  11.229 -0.4271  3.5145 -0.4006
  856MOL0     H18067  11.657   6.598  11.112  0.3379  1.1136  1.5311
  856MOL0     H18068  11.511   6.597  11.212  0.5680  0.0496  2.9624
  856MOL0     H18069  11.808   6.637  11.264 -1.3053  0.5193 -4.0156
  856MOL0     H18070  11.683   6.604  11.398  1.9915 -5.9313 -2.5371
  856MOL0     H18071  11.665   6.826  11.182  0.4843  1.4896  0.6596
  856MOL0     H18072  11.579   6.809  11.343 -0.2579 -0.5120  0.4610
  856MOL0     H18073  11.873   6.868  11.337  0.0674  0.6183 -0.2210
  856MOL0     H18074  11.763   6.872  11.465 -0.4475  1.2565  0.3639
  856MOL0     H18075  11.632   7.057  11.321 -0.8152  1.0250  2.3720
  856MOL0     H18076  11.771   7.098  11.418  1.3889  0.9921 -1.4192
  856MOL0     H18077  11.963   6.946  11.165 -1.1166  0.0426  0.8661
  856MOL0     H18078  12.085   7.205  10.897  2.2216  1.2748  0.5317
  856MOL0     H18079  12.085   7.033  10.922  1.8570 -1.2458  2.0153
  856MOL0     H18080  12.255   7.226  11.076  2.0941  0.1918  1.6662
  856MOL0     H18081  12.243   7.056  11.112  3.2173  0.3389 -1.0349
  856MOL0     H18082  12.304   7.033  10.842 -1.0924 -0.0456 -0.1635
  856MOL0     H18083  12.375   7.193  10.890  1.4213 -1.0049 -0.1055
  856MOL0     H18084  12.553   7.041  10.923 -0.3450  3.9445 -0.5200
  856MOL0     H18085  12.488   7.097  11.077  0.4403  1.5198 -1.1980
  856MOL0     H18086  12.648   6.772  10.902  0.3670  3.1523 -1.9958
  856MOL0     H18087  12.637   6.470  10.718 -3.5903  0.5582  2.2898
  856MOL0     H18088  12.754   6.612  10.753  0.0517  0.9464  0.4048
  856MOL0     H18089  12.662   6.587  10.599 -0.6306 -1.0664 -0.2181
  856MOL0     H18090  12.511   6.590  10.221 -2.2870 -0.1131 -1.7533
  856MOL0     H18091  12.519   6.441  10.047  3.5865  0.1983  1.8229
  856MOL0     H18092  12.350   6.265   9.884 -0.9152 -1.7954 -0.5094
  856MOL0     H18093  12.527   6.255   9.883  0.5457 -1.0596 -1.3784
  856MOL0     H18094  12.448   6.077   9.747 -0.3925 -0.0705  0.7475
  856MOL0     H18095  12.514   5.997   9.898 -0.1170 -0.1639  1.4242
  856MOL0     H18096  12.281   5.937   9.784  3.9229 -6.0235  2.1661
  856MOL0     H18097  12.219   6.073   9.859 -3.6800 -2.2615  1.2834
  856MOL0     H18098  12.270   5.992  10.084  1.3399  0.3606 -0.3097
  856MOL0     H18099  12.389   5.884  10.040 -0.3563 -0.0359  1.9220
  856MOL0     H18100  12.104   5.843   9.946 -0.2157  0.3736  0.3585
  856MOL0     H18101  12.258   5.741   9.936  1.6317  2.2783 -0.7628
  856MOL0     H18102  12.085   5.820  10.181 -1.3774  0.5153 -0.6017
  856MOL0     H18103  12.233   5.729  10.195 -1.9611  1.7362  1.8353
  856MOL0     H18104  12.072   5.557  10.204 -0.5149  1.6999  1.2060
  856MOL0     H18105  12.131   5.553  10.045 -0.1405  1.5847 -1.8214
  856MOL0     H18106  11.936   5.661   9.950  0.4769 -2.0883 -0.0132
  856MOL0     H18107  11.877   5.716  10.105 -0.2012  3.2245 -3.8337
  856MOL0     H18108  12.396   6.124  10.303 -0.8920  1.3034 -0.3471
  856MOL0     H18109  12.390   6.289  10.485  2.7331  2.1220  1.2028
  856MOL0     H18110  12.198   6.682  10.714 -0.5494 -0.7664  1.0078
  856MOL0     H18111  12.209   6.828  10.889 -0.6938  0.3794 -1.9560
  856MOL0     H18112  11.173   6.369  11.145  0.2132 -1.7302  0.3680
  856MOL0     H18113  10.949   6.375  11.091 -0.3911  2.1838 -0.0365
  856MOL0     H18114  10.626   6.252  10.758  0.6142  1.0367  1.1248
  856MOL0     H18115  10.413   6.361  10.697 -0.0487 -0.1270  0.1517
  856MOL0     H18116  10.074   6.524  10.991  0.6565 -1.0202  1.7715
  856MOL0     H18117  10.218   6.507  11.079  4.0924 -2.5534 -0.7287
  856MOL0     H18118  10.327   6.673  10.913 -0.2668 -0.4093  0.4047
  856MOL0     H18119  10.188   6.733  11.001  1.4968  0.3915  2.1762
  856MOL0     H18120  10.202   6.636  10.707  1.8953  3.5925  0.4584
  856MOL0     H18121  10.054   6.613  10.788 -0.8746  1.3447 -1.1466
  856MOL0     H18122  10.099   6.852  10.666  0.6581  7.3399  0.6811
  856MOL0     H18123  10.191   6.893  10.805  3.4361 -3.5714  0.2991
  856MOL0     H18124   9.766   6.909  10.909  0.4628  3.2276  0.8072
  856MOL0     H18125  10.287   6.296  11.103 -0.2702  0.0875 -0.9114
  856MOL0     H18126  10.462   6.251  11.265  1.3064 -2.0540  1.7483
  856MOL0     H18127  10.487   6.073  11.200  0.1069 -1.1445 -1.3520
  856MOL0     H18128  10.612   6.201  11.228 -0.3203  1.5905 -0.1780
  857MOL0     O18129   5.731   9.475  10.830  0.2158 -0.0292  0.2236
  857MOL0     C18130   5.840   9.479  10.764 -0.3876  0.8145 -0.1055
  857MOL0     O18131   5.928   9.378  10.768 -0.7058 -0.6814  0.4035
  857MOL0     C18132   5.899   9.270  10.848  0.4182 -0.4590 -0.0562
  857MOL0     C18133   5.833   9.151  10.809  0.1219 -0.5579 -0.2133
  857MOL0     C18134   5.799   9.047  10.894  0.7704 -0.3741  0.3526
  857MOL0     C18135   5.832   9.052  11.025  0.3760  0.4483 -0.9129
  857MOL0     O18136   5.785   8.959  11.111  0.1000 -0.4090  0.1751
  857MOL0     C18137   5.840   8.926  11.233  0.9109  0.6919 -1.0707
  857MOL0     C18138   5.736   8.955  11.353 -0.5030  0.5402  0.3304
  857MOL0     C18139   5.775   8.904  11.491 -0.7844 -0.6620  0.5046
  857MOL0     C18140   5.813   8.754  11.502 -0.3329  0.4804 -0.2043
  857MOL0     C18141   5.698   8.656  11.471 -1.3047 -0.0768  0.3128
  857MOL0     C18142   5.752   8.515  11.446  0.2019  0.9120 -0.5055
  857MOL0     C18143   5.827   8.454  11.574 -0.1862  0.1152  0.1609
  857MOL0     C18144   5.843   8.303  11.573 -0.1597 -0.4573  1.5017
  857MOL0     N18145   5.905   8.247  11.699 -0.5226 -0.4565 -0.4578
  857MOL0     C18146   5.840   8.256  11.816  0.1222  0.0589 -0.8717
  857MOL0     C18147   5.939   8.230  11.904  1.1372  0.7729  0.7181
  857MOL0     C18148   5.903   8.221  12.047  0.0640 -0.1441 -0.3302
  857MOL0     C18149   5.924   8.347  12.130  0.5754  1.1752 -0.9899
  857MOL0     C18150   6.064   8.410  12.136 -0.6035 -0.2639  1.0545
  857MOL0     C18151   6.055   8.531  12.225 -0.3709 -0.7894  0.7561
  857MOL0     O18152   5.952   8.630  12.188 -0.4661 -0.2944  0.4261
  857MOL0     C18153   5.924   8.724  12.286  0.1095 -0.4503  0.1175
  857MOL0     C18154   5.978   8.751  12.414  0.6578 -0.6022  0.2909
  857MOL0     C18155   5.939   8.868  12.486 -0.5330 -0.0476 -0.3745
  857MOL0     C18156   6.007   8.866  12.625 -0.0835  0.7921 -0.3201
  857MOL0     C18157   5.867   8.971  12.422 -0.2211 -0.6476 -0.5262
  857MOL0     C18158   5.859   9.109  12.466 -0.1478  0.2102  0.4241
  857MOL0     O18159   5.778   9.196  12.394 -1.0166  1.1544  0.1850
  857MOL0     C18160   5.812   9.328  12.398 -0.3783  0.2137  0.3227
  857MOL0     C18161   5.892   9.397  12.303 -0.0836 -0.1162 -0.3474
  857MOL0     C18162   5.923   9.533  12.318  1.1124  0.3072 -0.1255
  857MOL0     C18163   5.893   9.603  12.439  0.8888 -0.6819  0.4965
  857MOL0     O18164   5.932   9.736  12.449 -0.1601  0.3683 -1.5516
  857MOL0     C18165   5.967   9.804  12.569  0.4625  0.3893 -0.4248
  857MOL0     C18166   6.090   9.896  12.546 -0.1538 -0.0305  0.3209
  857MOL0     C18167   6.206   9.834  12.465 -0.3882 -0.0846  0.4378
  857MOL0     C18168   6.322   9.937  12.438  0.6587  0.2101 -0.8855
  857MOL0     C18169   6.418   9.889  12.329  0.3783 -0.5682 -0.1793
  857MOL0     C18170   6.533   9.993  12.319  1.0711  0.3971  0.0796
  857MOL0     C18171   6.654   9.936  12.240 -0.6115  0.7619  0.2132
  857MOL0     C18172   6.746  10.057  12.209 -0.6859  0.3818  0.3651
  857MOL0    Cl18173   6.901   9.982  12.146  0.6298 -0.1558 -0.4482
  857MOL0     C18174   5.814   9.553  12.534  0.2585 -0.0990  0.1451
  857MOL0     C18175   5.783   9.406  12.509 -0.2658 -0.1729  0.1153
  857MOL0     O18176   5.923   9.140  12.564  0.0848 -0.9494  0.4344
  857MOL0     C18177   5.805   8.929  12.307  0.0205  0.6120 -0.3375
  857MOL0     C18178   5.827   8.809  12.245 -1.0737 -0.2688  1.2347
  857MOL0     N18179   6.047   8.176  11.842  0.9283  0.5854  0.0830
  857MOL0     N18180   6.037   8.200  11.715  0.9813 -0.5332 -0.5342
  857MOL0     C18181   5.899   9.169  11.068 -0.7245  1.4266 -0.2292
  857MOL0     C18182   5.939   9.277  10.982 -0.5659  0.5113 -0.5220
  857MOL0     C18183   5.877   9.594  10.683 -0.9027  1.4844 -0.0497
  857MOL0     C18184   5.784   9.702  10.681  0.3093  0.5158 -0.5619
  857MOL0     C18185   5.794   9.806  10.593  0.8114 -0.7791 -0.1278
  857MOL0     C18186   5.900   9.814  10.507  0.5512  0.1854  1.1198
  857MOL0     O18187   5.913   9.915  10.415 -0.7371 -0.5065  0.3261
  857MOL0     C18188   5.809  10.019  10.414 -0.1609  0.2300 -0.2140
  857MOL0     C18189   5.846  10.135  10.311  1.0452 -0.3887 -0.6056
  857MOL0     C18190   5.722  10.192  10.248  0.2995  0.1139 -0.2987
  857MOL0     C18191   5.740  10.337  10.212 -0.7874  0.1055 -0.4959
  857MOL0     C18192   5.625  10.393  10.146  0.3192  0.2521 -0.0821
  857MOL0     C18193   5.539  10.445  10.085 -0.4534 -0.1866  0.1011
  857MOL0     C18194   5.997   9.713  10.514 -0.3412  0.3149 -0.0132
  857MOL0     C18195   5.995   9.605  10.603  0.0028 -0.0029  0.1072
  857MOL0     C18196   6.107   9.509  10.602 -0.2562 -0.1370  0.5001
  857MOL0     H18197   5.798   9.137  10.707  1.6786  1.2397 -1.0466
  857MOL0     H18198   5.742   8.967  10.849  2.1468 -1.3477  0.2937
  857MOL0     H18199   5.929   8.987  11.254  2.5280 -2.3157  1.8832
  857MOL0     H18200   5.865   8.820  11.231 -0.6559  0.1764  1.6227
  857MOL0     H18201   5.714   9.062  11.356 -0.9216  0.6134 -2.6253
  857MOL0     H18202   5.647   8.897  11.326 -0.3099  0.4577 -0.1380
  857MOL0     H18203   5.866   8.952  11.527 -1.2546 -0.4197  1.3914
  857MOL0     H18204   5.689   8.913  11.557 -1.2376 -1.5526  0.0616
  857MOL0     H18205   5.896   8.732  11.433 -0.9457 -2.3123 -0.1830
  857MOL0     H18206   5.859   8.729  11.598 -2.0218 -0.6206  0.3496
  857MOL0     H18207   5.651   8.697  11.381 -0.7546  3.5204  1.4993
  857MOL0     H18208   5.629   8.652  11.556 -0.8540 -1.0662  0.6470
  857MOL0     H18209   5.665   8.449  11.435  0.5425  0.4694 -0.5435
  857MOL0     H18210   5.815   8.515  11.357  1.1949 -1.5033  0.1382
  857MOL0     H18211   5.769   8.494  11.657 -1.7453 -0.4260 -0.6401
  857MOL0     H18212   5.926   8.500  11.582  0.0709 -0.4166  0.0923
  857MOL0     H18213   5.748   8.252  11.553  0.9954 -1.1599 -3.3326
  857MOL0     H18214   5.911   8.288  11.490 -1.7945  0.2066 -0.0275
  857MOL0     H18215   5.740   8.289  11.841 -0.1211 -0.5287 -1.0590
  857MOL0     H18216   5.962   8.138  12.086 -0.2428  0.3340  1.2222
  857MOL0     H18217   5.799   8.188  12.044  0.2973 -0.8679 -2.7194
  857MOL0     H18218   5.860   8.430  12.097  0.5492  2.8919  2.8640
  857MOL0     H18219   5.898   8.320  12.233  0.4985  3.0932 -0.4728
  857MOL0     H18220   6.141   8.350  12.187  0.5672  1.1317  0.9973
  857MOL0     H18221   6.093   8.431  12.032 -1.2889 -0.1071  0.8939
  857MOL0     H18222   6.053   8.506  12.332  0.0668 -0.1927  0.9069
  857MOL0     H18223   6.155   8.572  12.209 -1.4819  2.6579  1.8607
  857MOL0     H18224   6.035   8.670  12.458  0.4850 -1.4207 -0.9288
  857MOL0     H18225   6.112   8.885  12.602 -0.2746 -1.1186 -3.2270
  857MOL0     H18226   5.989   8.770  12.673 -0.0076  0.1986 -1.4442
  857MOL0     H18227   5.971   8.950  12.686 -1.6667  0.6359 -0.9718
  857MOL0     H18228   5.909   9.342  12.211 -3.0230 -0.3223 -0.8745
  857MOL0     H18229   5.971   9.596  12.244  2.6929 -0.3442  0.2982
  857MOL0     H18230   5.881   9.861  12.608  0.3093 -0.1443  0.0372
  857MOL0     H18231   6.000   9.724  12.637  0.4737  0.0162 -0.8636
  857MOL0     H18232   6.073   9.993  12.497  0.3834 -0.9627 -1.8466
  857MOL0     H18233   6.139   9.913  12.642  0.9822 -3.4010  0.4452
  857MOL0     H18234   6.162   9.807  12.369  2.0771 -0.3932 -0.6984
  857MOL0     H18235   6.250   9.748  12.516  2.2843  0.5200 -0.6651
  857MOL0     H18236   6.384   9.937  12.528 -0.0694 -1.6573 -0.3340
  857MOL0     H18237   6.281  10.033  12.405 -0.5544  0.0286  0.0150
  857MOL0     H18238   6.469   9.799  12.365  1.6169  0.6338  1.1998
  857MOL0     H18239   6.362   9.878  12.236  4.3737  2.7284 -3.3384
  857MOL0     H18240   6.568  10.027  12.417 -1.1973  2.2405  0.3549
  857MOL0     H18241   6.501  10.086  12.271 -0.4829 -1.3027 -2.3817
  857MOL0     H18242   6.622   9.886  12.148  1.0806 -0.8661  0.4639
  857MOL0     H18243   6.712   9.860  12.293 -3.1559 -1.2857  0.2251
  857MOL0     H18244   6.763  10.128  12.290 -1.0183 -0.6566  1.3725
  857MOL0     H18245   6.702  10.118  12.129  1.7317  0.5181 -0.9257
  857MOL0     H18246   5.781   9.614  12.618  4.8770 -0.4216  2.5758
  857MOL0     H18247   5.727   9.353  12.586 -0.6823 -2.1272 -1.4366
  857MOL0     H18248   5.733   9.001  12.267  1.0264  2.5073  1.1506
  857MOL0     H18249   5.783   8.788  12.148 -2.3544 -2.3530  2.2137
  857MOL0     H18250   5.925   9.189  11.171 -0.4022  3.3765 -0.6559
  857MOL0     H18251   5.997   9.361  11.019  1.9918 -1.6213  0.6671
  857MOL0     H18252   5.700   9.683  10.746 -0.8313 -2.0053 -2.5670
  857MOL0     H18253   5.724   9.889  10.593 -0.0816 -1.5127  0.5721
  857MOL0     H18254   5.719   9.972  10.373  1.4803 -0.8484 -2.7873
  857MOL0     H18255   5.784  10.063  10.511 -1.3991 -1.3947  0.2380
  857MOL0     H18256   5.905  10.093  10.229  2.9343  1.4862 -0.2804
  857MOL0     H18257   5.896  10.215  10.366 -2.6737  1.6147  0.1991
  857MOL0     H18258   5.688  10.137  10.160  1.3413 -1.7068  0.3815
  857MOL0     H18259   5.640  10.192  10.322  1.5367  0.6362  1.1254
  857MOL0     H18260   5.816  10.358  10.136 -2.6659  2.3860 -1.8947
  857MOL0     H18261   5.777  10.400  10.294 -0.4676 -0.7722  0.0462
  857MOL0     H18262   5.471  10.490  10.016 -0.4275 -0.3310 -0.0199
  857MOL0     H18263   6.084   9.724  10.449  3.7967  0.3316  4.8862
  857MOL0     H18264   6.189   9.535  10.535 -0.4830  0.4405  0.4387
  857MOL0     H18265   6.131   9.520  10.709  1.6669  2.0348 -0.0523
  857MOL0     H18266   6.078   9.411  10.566 -2.3289  0.3237  0.7599
  858MOL0     O18267   8.691  10.860   3.800  0.6100  0.0692  0.0302
  858MOL0     C18268   8.666  10.794   3.899  0.5173 -0.6590  0.0486
  858MOL0     O18269   8.626  10.665   3.906  0.0595 -0.1868 -0.3145
  858MOL0     C18270   8.659  10.567   3.813 -0.0347 -0.6615  1.3050
  858MOL0     C18271   8.568  10.458   3.798 -0.6182 -0.2133 -0.9999
  858MOL0     C18272   8.598  10.369   3.701  0.4989 -0.4213 -0.0997
  858MOL0     C18273   8.699  10.384   3.612  0.6029  0.2203  0.2410
  858MOL0     O18274   8.701  10.299   3.497  0.1918  0.2320  0.2007
  858MOL0     C18275   8.820  10.222   3.478  0.2218 -0.0164  1.3757
  858MOL0     C18276   8.777  10.081   3.472 -0.6881  1.0025 -0.2993
  858MOL0     C18277   8.702  10.026   3.586  0.1226  0.0924  1.0797
  858MOL0     C18278   8.771  10.025   3.719 -0.1099  0.0179  0.0235
  858MOL0     C18279   8.693   9.947   3.825  0.2440  0.2780 -0.4441
  858MOL0     C18280   8.794   9.914   3.940 -0.5492 -0.0160  0.1173
  858MOL0     C18281   8.709   9.865   4.061 -0.1453  0.4404  0.5857
  858MOL0     C18282   8.803   9.818   4.171 -0.4250  0.1713  0.2765
  858MOL0     N18283   8.795   9.663   4.167 -0.1650 -0.3942  0.1694
  858MOL0     C18284   8.858   9.582   4.083  0.0207  0.2076  0.3983
  858MOL0     C18285   8.814   9.460   4.121  0.1154 -0.7370  1.1775
  858MOL0     C18286   8.861   9.331   4.062 -0.2135  0.1785  0.9973
  858MOL0     C18287   8.905   9.228   4.170  1.0841 -0.7651  0.0290
  858MOL0     C18288   9.042   9.266   4.209 -0.1006 -0.7797  0.1196
  858MOL0     C18289   9.095   9.177   4.307 -0.1555 -0.2240  0.6395
  858MOL0     O18290   9.004   9.151   4.412  1.0731 -0.9889  0.7154
  858MOL0     C18291   9.050   9.100   4.532  0.1043 -0.0430  0.9723
  858MOL0     C18292   8.977   9.142   4.642 -0.0191 -0.2820 -0.4803
  858MOL0     C18293   8.997   9.087   4.767  0.1165 -0.3224 -0.6486
  858MOL0     C18294   8.896   9.144   4.874 -0.0632 -0.0298  0.1437
  858MOL0     C18295   9.109   9.016   4.806 -0.6833  0.0738  0.5769
  858MOL0     C18296   9.157   8.979   4.939  1.4698  0.0855 -0.7527
  858MOL0     O18297   9.245   8.873   4.949 -0.5592  0.9673  0.0399
  858MOL0     C18298   9.283   8.829   5.073  0.0699 -0.2645  0.0765
  858MOL0     C18299   9.409   8.776   5.086 -0.1857 -0.0669  0.3553
  858MOL0     C18300   9.448   8.705   5.193 -0.3861 -0.6211 -0.1948
  858MOL0     C18301   9.362   8.689   5.302 -0.1862 -0.0657  0.0795
  858MOL0     O18302   9.411   8.622   5.414 -0.7757  0.6226 -0.6871
  858MOL0     C18303   9.340   8.615   5.539 -0.4899  0.4308  0.5201
  858MOL0     C18304   9.389   8.745   5.625  0.5011  1.4778 -0.4855
  858MOL0     C18305   9.534   8.771   5.651 -0.2081 -0.4929  0.2120
  858MOL0     C18306   9.562   8.688   5.780 -1.0906 -0.7639  0.6097
  858MOL0     C18307   9.722   8.683   5.798 -0.5630  0.5249 -0.1428
  858MOL0     C18308   9.752   8.599   5.924  1.0211  0.3796  0.8655
  858MOL0     C18309   9.896   8.575   5.940 -0.6575 -0.3887  0.6149
  858MOL0     C18310   9.941   8.438   5.958 -0.6996  0.7755  0.0289
  858MOL0    Cl18311   9.877   8.353   6.109  0.3343 -0.3096 -0.1882
  858MOL0     C18312   9.232   8.746   5.294  0.2411 -0.5230 -0.1683
  858MOL0     C18313   9.196   8.821   5.183  0.4904  0.0564 -0.4403
  858MOL0     O18314   9.115   9.045   5.033  0.9958  0.1289 -0.4032
  858MOL0     C18315   9.195   9.000   4.700 -0.4756  0.8703  0.4400
  858MOL0     C18316   9.166   9.035   4.567 -0.2369  0.5059  0.1370
  858MOL0     N18317   8.729   9.471   4.224  0.1830 -0.2986  0.3806
  858MOL0     N18318   8.713   9.593   4.250  0.2200 -0.4458  0.4257
  858MOL0     C18319   8.800  10.479   3.630 -0.1314  0.0284 -0.8232
  858MOL0     C18320   8.772  10.577   3.729 -0.2296 -0.5315 -0.8640
  858MOL0     C18321   8.663  10.871   4.025 -0.1921 -0.3915 -0.1070
  858MOL0     C18322   8.736  10.989   4.020 -1.5509  0.5821 -1.5576
  858MOL0     C18323   8.740  11.076   4.130 -0.1261  0.3024  0.3150
  858MOL0     C18324   8.689  11.044   4.257  0.1313 -0.1051 -1.1792
  858MOL0     O18325   8.743  11.117   4.350 -0.1232 -0.7357  0.5524
  858MOL0     C18326   8.724  11.104   4.490  1.3806 -0.1592 -0.4172
  858MOL0     C18327   8.793  11.221   4.551  0.3725  0.0195  0.1252
  858MOL0     C18328   8.733  11.351   4.503  0.5727 -0.7623 -0.6616
  858MOL0     C18329   8.789  11.466   4.591  0.8952  0.1803  0.2798
  858MOL0     C18330   8.722  11.597   4.551 -0.0414  0.2303  0.8016
  858MOL0     C18331   8.687  11.708   4.517  0.5320 -0.4819  0.1584
  858MOL0     C18332   8.612  10.925   4.266 -0.9449 -0.4772 -0.9379
  858MOL0     C18333   8.598  10.844   4.153  0.4499 -0.8659 -0.2744
  858MOL0     C18334   8.535  10.712   4.186  0.5295 -0.7677  0.0069
  858MOL0     H18335   8.490  10.445   3.872  0.5959 -0.5442  0.2617
  858MOL0     H18336   8.541  10.277   3.715  1.4292 -0.5985  3.3354
  858MOL0     H18337   8.882  10.237   3.567  3.0704  0.4704 -0.5375
  858MOL0     H18338   8.876  10.264   3.394 -0.8718  2.4718  1.7800
  858MOL0     H18339   8.705  10.065   3.391 -0.4162 -4.0798  0.1663
  858MOL0     H18340   8.862  10.012   3.473 -0.1148  1.6846  1.7810
  858MOL0     H18341   8.610  10.085   3.590  1.0303  1.7725 -1.1746
  858MOL0     H18342   8.676   9.925   3.553  0.9750 -0.3220  1.6200
  858MOL0     H18343   8.867   9.977   3.698  1.4869  2.8906  0.3322
  858MOL0     H18344   8.799  10.126   3.750 -1.1098  0.8549 -1.6166
  858MOL0     H18345   8.640   9.858   3.792 -0.1469  0.4935 -0.3957
  858MOL0     H18346   8.623  10.023   3.861 -0.4354 -0.6065  0.1376
  858MOL0     H18347   8.854   9.835   3.895  1.0469  1.5580 -0.6447
  858MOL0     H18348   8.856  10.001   3.966  1.1650 -0.5956 -1.8153
  858MOL0     H18349   8.645   9.780   4.036  1.4978 -0.3890 -0.9503
  858MOL0     H18350   8.659   9.954   4.099  2.2050  1.4490  1.5101
  858MOL0     H18351   8.907   9.839   4.146 -0.0614  0.4991  1.9459
  858MOL0     H18352   8.771   9.865   4.265 -2.3634  1.7247 -1.0802
  858MOL0     H18353   8.914   9.605   3.993  0.4371  2.1231  1.1148
  858MOL0     H18354   8.938   9.357   3.989 -0.5646 -0.1412  0.5091
  858MOL0     H18355   8.772   9.293   4.012  0.5731 -2.5177  1.4819
  858MOL0     H18356   8.836   9.228   4.255 -0.1280  0.0878 -0.9199
  858MOL0     H18357   8.914   9.129   4.126  3.0359 -0.7901  0.4163
  858MOL0     H18358   9.112   9.268   4.125  0.3303 -3.2836  0.3449
  858MOL0     H18359   9.053   9.366   4.253  0.9215 -2.2419  3.4977
  858MOL0     H18360   9.135   9.087   4.260  1.7705  1.2868 -0.7876
  858MOL0     H18361   9.183   9.224   4.352 -0.9118 -1.3106  3.4712
  858MOL0     H18362   8.905   9.218   4.616  1.1986  0.6826 -1.1274
  858MOL0     H18363   8.808   9.193   4.830 -0.7827 -2.5404 -1.4036
  858MOL0     H18364   8.934   9.217   4.946 -0.1367  2.1786 -1.9185
  858MOL0     H18365   8.855   9.064   4.936 -0.0843 -0.5026 -0.4776
  858MOL0     H18366   9.471   8.777   4.998 -1.5073 -0.2738 -0.6108
  858MOL0     H18367   9.536   8.643   5.201 -0.0016  0.0607  1.0611
  858MOL0     H18368   9.232   8.602   5.533 -0.1434 -4.2801  0.8460
  858MOL0     H18369   9.367   8.521   5.588 -1.2792  1.3275  2.8143
  858MOL0     H18370   9.352   8.833   5.571 -1.3182  0.8336 -0.3633
  858MOL0     H18371   9.346   8.742   5.726  0.8988  0.5872 -0.3373
  858MOL0     H18372   9.543   8.877   5.676  3.8284 -1.0944  2.0858
  858MOL0     H18373   9.592   8.740   5.563  0.1701  4.0119 -1.3862
  858MOL0     H18374   9.524   8.588   5.757 -0.8231 -1.3387  2.4935
  858MOL0     H18375   9.506   8.726   5.866 -1.0328  2.4198 -0.6403
  858MOL0     H18376   9.762   8.624   5.715 -3.2267 -0.7511 -0.6239
  858MOL0     H18377   9.774   8.780   5.802  1.8753 -0.7347  2.9996
  858MOL0     H18378   9.704   8.502   5.915 -0.7642  1.3663 -1.3460
  858MOL0     H18379   9.705   8.646   6.011  0.2271  0.5737  0.3428
  858MOL0     H18380   9.936   8.641   6.017 -0.4977  0.1723  0.0577
  858MOL0     H18381   9.941   8.600   5.844  0.7350 -3.0889  0.4709
  858MOL0     H18382  10.049   8.432   5.968 -0.8822  0.1928  2.3031
  858MOL0     H18383   9.913   8.371   5.876 -0.4576  0.1670  0.4419
  858MOL0     H18384   9.163   8.726   5.375  0.3504  1.2079  0.3969
  858MOL0     H18385   9.089   8.841   5.176  0.0956 -1.0690  1.6358
  858MOL0     H18386   9.282   8.940   4.726 -2.5334 -1.7921  1.5939
  858MOL0     H18387   9.250   9.018   4.500  0.5035  1.3146  0.8364
  858MOL0     H18388   8.881  10.471   3.557 -1.0292  0.5602 -1.9151
  858MOL0     H18389   8.840  10.661   3.728 -2.4045  1.3124 -1.2817
  858MOL0     H18390   8.786  11.022   3.930 -0.3364  1.2500 -0.6628
  858MOL0     H18391   8.791  11.170   4.111  0.3747 -0.3780 -2.0136
  858MOL0     H18392   8.619  11.095   4.521  1.1173 -2.8206 -1.7799
  858MOL0     H18393   8.757  11.007   4.528 -1.0988 -0.3371  1.5775
  858MOL0     H18394   8.901  11.215   4.535  0.4473 -2.0156  1.0479
  858MOL0     H18395   8.775  11.214   4.659 -0.4315 -2.1668 -0.1110
  858MOL0     H18396   8.768  11.367   4.401  0.4751  0.9740 -0.4478
  858MOL0     H18397   8.624  11.342   4.505  0.4889 -0.4181 -2.2392
  858MOL0     H18398   8.897  11.483   4.587  0.8436  0.4694  0.1133
  858MOL0     H18399   8.758  11.450   4.695 -1.6762  2.3453 -0.0445
  858MOL0     H18400   8.662  11.808   4.491 -1.8430 -0.2630  2.9082
  858MOL0     H18401   8.567  10.898   4.360 -0.6633 -0.2436 -0.7352
  858MOL0     H18402   8.447  10.694   4.124  0.1600  0.1214  0.2479
  858MOL0     H18403   8.608  10.632   4.179  2.9295  1.4036 -1.5966
  858MOL0     H18404   8.499  10.704   4.289 -1.1279 -0.8920 -0.5513
  859MOL0     O18405   5.079  10.300  10.310  0.0255 -0.7327  0.4561
  859MOL0     C18406   5.032  10.403  10.364 -0.1857  0.9840 -0.5849
  859MOL0     O18407   4.940  10.404  10.466 -0.0304 -0.1242  0.5487
  859MOL0     C18408   4.842  10.312  10.485 -0.5955  0.2306  1.4099
  859MOL0     C18409   4.807  10.217  10.388 -0.5284  0.3303 -0.5744
  859MOL0     C18410   4.704  10.126  10.398 -0.0650 -0.1564  0.0147
  859MOL0     C18411   4.629  10.137  10.516  0.4039 -0.4813 -0.3122
  859MOL0     O18412   4.526  10.053  10.532  0.1543  0.4311  0.3575
  859MOL0     C18413   4.527   9.945  10.627  0.0870  0.5134 -0.1642
  859MOL0     C18414   4.408   9.963  10.723  0.3859  1.0003 -1.0758
  859MOL0     C18415   4.362   9.838  10.805 -1.0123 -0.4379 -0.6311
  859MOL0     C18416   4.261   9.891  10.913 -0.0869 -0.1157  0.0622
  859MOL0     C18417   4.237   9.805  11.028 -0.6967  1.6713 -0.2507
  859MOL0     C18418   4.147   9.859  11.135  0.3466 -0.4724  0.0751
  859MOL0     C18419   4.127   9.776  11.261  0.4149  0.6303 -0.4946
  859MOL0     C18420   4.251   9.789  11.351 -0.1044  0.4526 -0.0758
  859MOL0     N18421   4.232   9.691  11.460 -0.9663 -0.2592  0.4064
  859MOL0     C18422   4.165   9.712  11.580  0.0742 -0.1506 -0.3661
  859MOL0     C18423   4.197   9.613  11.667  0.2472 -1.5135  0.6809
  859MOL0     C18424   4.147   9.616  11.810  0.5346 -0.3231  0.8236
  859MOL0     C18425   4.010   9.530  11.804  0.5910 -0.0693 -0.5576
  859MOL0     C18426   3.946   9.524  11.943 -0.0040 -0.4968 -0.3652
  859MOL0     C18427   3.882   9.654  11.989  0.3501  0.3411 -0.1197
  859MOL0     O18428   3.983   9.735  12.044  0.0073 -0.5856 -0.6060
  859MOL0     C18429   3.963   9.863  12.081  0.3062 -0.0545 -0.9827
  859MOL0     C18430   4.053   9.933  12.157  0.0138 -0.5455  0.2715
  859MOL0     C18431   4.033  10.068  12.209 -0.3680 -0.2259  0.1548
  859MOL0     C18432   4.153  10.128  12.282 -0.8761 -0.4788  0.0559
  859MOL0     C18433   3.912  10.143  12.169 -0.1074  0.6649 -0.6895
  859MOL0     C18434   3.888  10.288  12.220  0.0023  0.4865  0.0355
  859MOL0     O18435   3.988  10.358  12.279  0.2389 -1.2496  0.0741
  859MOL0     C18436   3.965  10.491  12.295 -0.0207 -1.1543  0.4047
  859MOL0     C18437   3.849  10.535  12.369 -1.0984  1.0664  0.6467
  859MOL0     C18438   3.819  10.665  12.387  0.7833 -0.4412  0.6696
  859MOL0     C18439   3.893  10.761  12.322 -0.6649  0.7103  0.2322
  859MOL0     O18440   3.843  10.891  12.314  0.5248  0.3386 -0.7629
  859MOL0     C18441   3.913  11.004  12.277  1.0907 -1.1518 -0.5300
  859MOL0     C18442   3.833  11.132  12.241  0.1395 -0.3096 -0.5512
  859MOL0     C18443   3.759  11.190  12.353 -1.0564  0.0113  0.4253
  859MOL0     C18444   3.715  11.331  12.325  0.3744 -0.3474  0.8754
  859MOL0     C18445   3.637  11.381  12.443 -0.5629 -1.1412  0.4970
  859MOL0     C18446   3.720  11.409  12.567 -0.6105 -0.3286  0.0023
  859MOL0     C18447   3.636  11.473  12.685 -0.8486 -0.0800 -0.4916
  859MOL0     C18448   3.752  11.509  12.795  0.6277  0.7408 -0.4136
  859MOL0    Cl18449   3.803  11.366  12.859 -0.0208  0.1585  0.0340
  859MOL0     C18450   4.013  10.721  12.255 -1.2100 -0.6177  0.8793
  859MOL0     C18451   4.046  10.583  12.239  0.0734 -0.2700 -0.9120
  859MOL0     O18452   3.770  10.319  12.208  0.3494  0.5212 -0.6459
  859MOL0     C18453   3.812  10.063  12.116  0.1119 -0.3287  0.0346
  859MOL0     C18454   3.836   9.930  12.077  0.9710 -0.1688  0.5928
  859MOL0     N18455   4.274   9.525  11.608  0.1459  0.2058 -0.3895
  859MOL0     N18456   4.296   9.574  11.488  0.3580  0.2328  0.5138
  859MOL0     C18457   4.662  10.223  10.618 -0.0415 -0.0614  0.0888
  859MOL0     C18458   4.772  10.312  10.599  1.1742  0.1275 -0.6685
  859MOL0     C18459   5.093  10.532  10.320 -0.8944 -0.5001 -0.3567
  859MOL0     C18460   5.114  10.634  10.412 -1.2938 -0.1256 -0.2966
  859MOL0     C18461   5.184  10.754  10.379 -0.5370 -0.2232 -0.4758
  859MOL0     C18462   5.229  10.775  10.253 -0.0701  0.8051  0.2428
  859MOL0     O18463   5.299  10.893  10.222  0.4350  0.3140 -0.0623
  859MOL0     C18464   5.420  10.905  10.291  0.0932  0.3932 -1.2921
  859MOL0     C18465   5.526  10.847  10.215  0.2971 -0.7867 -0.7253
  859MOL0     C18466   5.551  10.896  10.067 -0.5029  0.7693  0.3112
  859MOL0     C18467   5.516  11.039  10.029  0.6864 -0.2731 -0.0176
  859MOL0     C18468   5.598  11.131  10.104  0.3251 -0.6449 -0.2143
  859MOL0     C18469   5.668  11.213  10.160 -0.6009 -0.3302 -0.4413
  859MOL0     C18470   5.201  10.682  10.154  0.6642  0.3727  1.0884
  859MOL0     C18471   5.137  10.563  10.183 -1.1694 -0.2217  0.0429
  859MOL0     C18472   5.126  10.454  10.079  0.0994 -0.4616 -0.4492
  859MOL0     H18473   4.857  10.217  10.292  0.0625  3.5478 -0.3724
  859MOL0     H18474   4.676  10.055  10.321 -3.1276  3.4509 -2.5861
  859MOL0     H18475   4.624   9.946  10.678 -0.0318 -1.5574  0.1855
  859MOL0     H18476   4.505   9.852  10.574 -0.3631  0.5749 -0.0914
  859MOL0     H18477   4.439  10.047  10.787  2.3956 -0.4654 -0.0287
  859MOL0     H18478   4.326  10.006  10.664  0.1174  0.4189 -1.1260
  859MOL0     H18479   4.321   9.763  10.738 -1.0893  0.5998 -1.7714
  859MOL0     H18480   4.444   9.778  10.847 -2.0760 -2.5622 -1.4559
  859MOL0     H18481   4.294   9.990  10.945 -1.8648  0.7120 -0.5108
  859MOL0     H18482   4.165   9.918  10.867  0.8968  0.4634 -1.7228
  859MOL0     H18483   4.330   9.772  11.075 -1.1708 -2.7536 -1.8606
  859MOL0     H18484   4.187   9.713  10.995  1.8170 -0.9052  2.5832
  859MOL0     H18485   4.198   9.951  11.165 -2.3791  1.5344 -1.0260
  859MOL0     H18486   4.051   9.893  11.097  0.4072  0.9610  1.1053
  859MOL0     H18487   4.099   9.673  11.238  2.5346 -0.2884  0.7057
  859MOL0     H18488   4.041   9.811  11.319  1.7438  0.8704  1.4460
  859MOL0     H18489   4.332   9.768  11.281  0.4755 -0.8094  0.9284
  859MOL0     H18490   4.261   9.891  11.391  0.4162  0.1738  0.5222
  859MOL0     H18491   4.120   9.801  11.623 -0.9045 -1.6324  1.8829
  859MOL0     H18492   4.133   9.719  11.845  1.2196 -0.1488  0.6055
  859MOL0     H18493   4.219   9.572  11.879  2.4975  1.0682 -0.2071
  859MOL0     H18494   3.939   9.567  11.728 -0.3196 -0.1953  0.2094
  859MOL0     H18495   4.027   9.424  11.783  1.3615  0.3170 -2.0749
  859MOL0     H18496   3.865   9.454  11.919  1.0591 -1.1406 -2.3204
  859MOL0     H18497   4.009   9.492  12.026 -1.6302 -0.1801  1.0646
  859MOL0     H18498   3.847   9.704  11.899 -1.6274  1.2298  1.0646
  859MOL0     H18499   3.788   9.641  12.045  0.3904 -2.0480 -0.4886
  859MOL0     H18500   4.150   9.892  12.185  0.6861  0.9228  0.1746
  859MOL0     H18501   4.208  10.173  12.199 -0.3834  1.7692  1.5211
  859MOL0     H18502   4.217  10.047  12.320  0.9481  0.0058 -1.8356
  859MOL0     H18503   4.122  10.190  12.366 -0.5282 -0.3607  0.1010
  859MOL0     H18504   3.779  10.468  12.418  1.0003 -0.0775  2.2749
  859MOL0     H18505   3.726  10.693  12.436 -0.4694  2.3269 -2.8626
  859MOL0     H18506   3.972  11.032  12.365  0.6944 -1.6069 -0.1058
  859MOL0     H18507   3.977  10.976  12.194  1.2263 -1.2872 -0.3819
  859MOL0     H18508   3.890  11.215  12.200 -3.9329  2.2703 -1.5158
  859MOL0     H18509   3.757  11.106  12.167 -0.0711  3.1152 -1.6789
  859MOL0     H18510   3.826  11.186  12.440 -0.0638 -0.1217 -0.3287
  859MOL0     H18511   3.671  11.129  12.374 -1.7541  1.1699  0.9997
  859MOL0     H18512   3.647  11.344  12.240  0.3555 -3.0215  0.3914
  859MOL0     H18513   3.807  11.380  12.294 -0.1276 -1.5847 -3.2322
  859MOL0     H18514   3.588  11.476  12.421 -1.0271 -1.9061 -2.0899
  859MOL0     H18515   3.555  11.314  12.471 -1.9044  1.1859  2.5141
  859MOL0     H18516   3.799  11.479  12.536 -1.8968 -0.7736 -5.2790
  859MOL0     H18517   3.765  11.314  12.596  1.0290 -0.1681 -1.7854
  859MOL0     H18518   3.560  11.403  12.719  1.5791 -3.7752 -1.9897
  859MOL0     H18519   3.587  11.560  12.641  0.3362  1.1393  0.4879
  859MOL0     H18520   3.702  11.564  12.875  2.1555 -0.1527  1.2413
  859MOL0     H18521   3.825  11.578  12.752  0.6442  0.3368 -1.0455
  859MOL0     H18522   4.086  10.781  12.203  1.0704 -2.5032  1.7196
  859MOL0     H18523   4.140  10.556  12.193 -0.2282  0.8797 -2.2675
  859MOL0     H18524   3.713  10.106  12.124  0.8212  1.3872  0.2041
  859MOL0     H18525   3.760   9.878  12.019 -0.6178  1.0380  1.5022
  859MOL0     H18526   4.596  10.224  10.704 -0.0489 -0.4612  0.0908
  859MOL0     H18527   4.791  10.388  10.675 -1.4060 -0.6064  0.8213
  859MOL0     H18528   5.082  10.621  10.515 -1.7112  1.9399 -0.1418
  859MOL0     H18529   5.213  10.820  10.460 -2.3284  2.8206 -2.1492
  859MOL0     H18530   5.443  11.012  10.289  2.6627 -0.0313  0.2138
  859MOL0     H18531   5.428  10.874  10.396  3.2156 -1.9594 -2.0723
  859MOL0     H18532   5.539  10.739  10.222  0.3519 -0.6820  1.2488
  859MOL0     H18533   5.608  10.895  10.269 -1.5024  2.2904 -0.4961
  859MOL0     H18534   5.658  10.881  10.052 -0.9613 -2.0204 -0.7090
  859MOL0     H18535   5.503  10.821  10.003  0.8900  0.3333 -0.2593
  859MOL0     H18536   5.410  11.061  10.044  0.5062 -1.4128  0.4780
  859MOL0     H18537   5.535  11.055   9.922 -0.7058  1.1842 -0.0987
  859MOL0     H18538   5.742  11.278  10.203  1.2360 -2.3420 -0.3813
  859MOL0     H18539   5.219  10.725  10.056 -1.2213  0.6640  0.8168
  859MOL0     H18540   5.138  10.508   9.985  0.6425  0.4929  0.1571
  859MOL0     H18541   5.197  10.373  10.097 -0.2559 -0.4518  1.0710
  859MOL0     H18542   5.023  10.418  10.084 -0.4463  0.9261 -1.0390
  860MOL0     O18543   9.884   7.504   2.110  0.8293  0.9317  0.5243
  860MOL0     C18544  10.005   7.512   2.089  0.0839  0.3233  0.2355
  860MOL0     O18545  10.089   7.610   2.142  0.6740  1.1992 -0.0236
  860MOL0     C18546  10.047   7.682   2.247  0.5948  1.1867 -0.9839
  860MOL0     C18547  10.121   7.690   2.367 -0.0399  0.3293 -0.1634
  860MOL0     C18548  10.091   7.784   2.471 -0.9131  0.4177 -1.0750
  860MOL0     C18549   9.971   7.845   2.462 -0.1234  0.1283  0.1385
  860MOL0     O18550   9.907   7.937   2.546  0.4530  0.0618  0.1452
  860MOL0     C18551   9.944   7.937   2.684  0.1435 -0.4187 -0.5894
  860MOL0     C18552   9.904   7.814   2.751  0.2745  0.8276 -0.0826
  860MOL0     C18553   9.756   7.831   2.776  0.3731 -0.5404  0.7622
  860MOL0     C18554   9.673   7.704   2.802 -0.4242 -0.1698 -0.5536
  860MOL0     C18555   9.549   7.727   2.902 -0.7826  0.0779  0.1812
  860MOL0     C18556   9.461   7.841   2.874 -0.0862  0.1896  0.1508
  860MOL0     C18557   9.343   7.853   2.969 -0.6477 -0.5573  0.4827
  860MOL0     C18558   9.227   7.759   2.935 -1.0370  0.0448  0.6270
  860MOL0     N18559   9.176   7.697   3.057  0.8864 -0.2917 -0.2288
  860MOL0     C18560   9.236   7.600   3.132  0.0570  0.2199 -0.5413
  860MOL0     C18561   9.163   7.574   3.239  0.0556 -0.5706 -0.7317
  860MOL0     C18562   9.206   7.493   3.355 -0.1359 -0.2536 -1.1123
  860MOL0     C18563   9.247   7.585   3.475 -0.0354 -0.1883 -0.2105
  860MOL0     C18564   9.257   7.517   3.616  1.2103 -0.3885 -0.1480
  860MOL0     C18565   9.241   7.627   3.727  0.7444  0.0828  0.6848
  860MOL0     O18566   9.240   7.578   3.867  0.6596  0.2021  0.3838
  860MOL0     C18567   9.118   7.558   3.935  0.2811  0.7582  0.0946
  860MOL0     C18568   8.993   7.578   3.872 -0.7451 -0.4095  0.8494
  860MOL0     C18569   8.873   7.562   3.933  0.7392  0.8383  0.3079
  860MOL0     C18570   8.747   7.601   3.854 -0.3497  0.7016 -0.3720
  860MOL0     C18571   8.861   7.509   4.061  0.5573 -0.5086  0.1763
  860MOL0     C18572   8.736   7.500   4.140  0.5776  0.7430 -0.9856
  860MOL0     O18573   8.751   7.484   4.272  0.7619  0.5521 -0.0014
  860MOL0     C18574   8.652   7.430   4.351  1.0052 -1.2286  0.7738
  860MOL0     C18575   8.664   7.299   4.410 -0.4342 -0.3512  0.8469
  860MOL0     C18576   8.562   7.247   4.489 -0.4579 -0.3080  0.1076
  860MOL0     C18577   8.448   7.317   4.507  0.7433 -0.2237 -0.2033
  860MOL0     O18578   8.327   7.285   4.579  0.8300 -0.1646  0.6510
  860MOL0     C18579   8.323   7.194   4.689 -0.1609  0.5761  0.4193
  860MOL0     C18580   8.311   7.057   4.620 -0.8013  0.2548 -0.2340
  860MOL0     C18581   8.301   6.949   4.738 -0.0946 -0.6602  0.9694
  860MOL0     C18582   8.268   6.812   4.685 -0.0997 -0.1776  0.3527
  860MOL0     C18583   8.250   6.708   4.793  0.4906  1.7727 -0.4806
  860MOL0     C18584   8.209   6.577   4.711  0.2421  0.2441 -0.1832
  860MOL0     C18585   8.184   6.467   4.822  0.8819 -0.2965  0.2017
  860MOL0     C18586   8.103   6.353   4.752  0.2056  0.3598 -0.2061
  860MOL0    Cl18587   8.203   6.277   4.622  0.1665 -0.4607 -0.1115
  860MOL0     C18588   8.441   7.446   4.453  0.4328 -0.3363  0.1209
  860MOL0     C18589   8.535   7.509   4.370 -0.3997  0.2411 -0.6168
  860MOL0     O18590   8.624   7.486   4.085  0.2602  0.7793  0.3558
  860MOL0     C18591   8.984   7.474   4.118  0.7186  0.3440 -0.1365
  860MOL0     C18592   9.112   7.507   4.066  0.2605 -1.2981 -0.1409
  860MOL0     N18593   9.052   7.661   3.234  0.3924 -0.8517 -0.0237
  860MOL0     N18594   9.069   7.746   3.137 -0.3017  0.6092 -0.2665
  860MOL0     C18595   9.887   7.834   2.355 -0.2584 -0.1294  0.0846
  860MOL0     C18596   9.932   7.766   2.244 -0.0546  1.3856 -0.7328
  860MOL0     C18597  10.068   7.432   1.987 -0.1821 -0.1946  0.2129
  860MOL0     C18598  10.132   7.487   1.876  0.0940  0.3812  0.7085
  860MOL0     C18599  10.192   7.398   1.782 -0.0567 -0.4860 -0.4767
  860MOL0     C18600  10.180   7.264   1.790  0.6563 -0.1823  0.1109
  860MOL0     O18601  10.232   7.189   1.688  0.1628 -0.1674 -0.0346
  860MOL0     C18602  10.224   7.048   1.697  0.2849  0.1202 -0.0853
  860MOL0     C18603  10.305   6.989   1.583  0.2525 -0.5780  0.2499
  860MOL0     C18604  10.227   6.975   1.448  0.5180 -0.4325 -0.0936
  860MOL0     C18605  10.310   6.907   1.335  0.8395 -0.1533  0.0153
  860MOL0     C18606  10.264   6.771   1.301  0.1674  0.2915 -0.1566
  860MOL0     C18607  10.219   6.662   1.271 -0.1723  1.0095 -0.1850
  860MOL0     C18608  10.107   7.215   1.899 -0.1044  0.5023  0.1370
  860MOL0     C18609  10.049   7.289   1.997 -0.6740 -1.5772 -0.5375
  860MOL0     C18610   9.983   7.215   2.109 -0.3050  0.2861 -0.4342
  860MOL0     H18611  10.209   7.628   2.386 -0.5156 -0.4605 -0.4707
  860MOL0     H18612  10.143   7.785   2.566 -2.1728 -0.4289 -0.3417
  860MOL0     H18613   9.916   8.028   2.738  2.2004 -0.1056  0.0247
  860MOL0     H18614  10.053   7.940   2.685  0.1583  1.2236  1.9291
  860MOL0     H18615   9.907   7.729   2.682 -2.4194  1.6522 -1.3552
  860MOL0     H18616   9.955   7.791   2.845  0.7087  3.8657  0.5136
  860MOL0     H18617   9.747   7.889   2.868 -1.1117  0.8835 -0.2067
  860MOL0     H18618   9.704   7.887   2.697  0.6919 -0.6318  0.4828
  860MOL0     H18619   9.638   7.656   2.711  0.3929 -2.6735  0.3707
  860MOL0     H18620   9.748   7.638   2.848  0.5531  0.4761 -1.1796
  860MOL0     H18621   9.593   7.743   3.001  2.6865  1.5304 -1.4282
  860MOL0     H18622   9.491   7.637   2.880  2.0943 -1.8924  0.2485
  860MOL0     H18623   9.524   7.929   2.887 -0.6649  0.5143  0.8219
  860MOL0     H18624   9.423   7.826   2.773  0.3159 -2.0567  0.2703
  860MOL0     H18625   9.310   7.957   2.971  2.1589  0.5069 -1.1594
  860MOL0     H18626   9.380   7.838   3.071 -3.2435 -1.3028  1.3762
  860MOL0     H18627   9.153   7.812   2.873 -1.6832 -2.2686 -0.6935
  860MOL0     H18628   9.259   7.672   2.877  4.2523  2.2842 -0.3530
  860MOL0     H18629   9.326   7.541   3.115 -0.0363  0.4404 -1.9168
  860MOL0     H18630   9.285   7.421   3.330 -0.1555 -1.5469  2.0513
  860MOL0     H18631   9.120   7.442   3.399 -1.4606  0.3869 -2.8886
  860MOL0     H18632   9.350   7.619   3.458  0.8153 -1.6708  1.5349
  860MOL0     H18633   9.174   7.665   3.471 -1.0703 -0.9720  1.7152
  860MOL0     H18634   9.188   7.434   3.633 -1.4510  2.2457  3.4188
  860MOL0     H18635   9.360   7.484   3.631  1.8309  1.9688  1.3077
  860MOL0     H18636   9.325   7.697   3.722 -2.0380  3.6009 -0.8897
  860MOL0     H18637   9.154   7.691   3.714  0.4704 -0.4243 -0.0227
  860MOL0     H18638   8.993   7.606   3.767  4.8862 -1.5664  0.2390
  860MOL0     H18639   8.699   7.682   3.909  0.2363  0.9607 -0.2287
  860MOL0     H18640   8.684   7.513   3.839 -0.3518  1.1125 -3.4282
  860MOL0     H18641   8.773   7.638   3.755  0.0107  0.1906 -0.4750
  860MOL0     H18642   8.757   7.251   4.382  1.1143  2.3397  0.9855
  860MOL0     H18643   8.580   7.148   4.530 -1.0048  0.2603  1.8107
  860MOL0     H18644   8.408   7.198   4.758  0.8696 -2.4311 -0.5359
  860MOL0     H18645   8.233   7.210   4.749 -2.6277 -0.2920 -2.7482
  860MOL0     H18646   8.229   7.067   4.548 -0.0277  4.6637 -0.7933
  860MOL0     H18647   8.405   7.021   4.578 -0.2532 -0.6666  1.6959
  860MOL0     H18648   8.222   6.985   4.805  0.4410  0.1785  1.1667
  860MOL0     H18649   8.394   6.928   4.793 -0.8135 -4.3209  1.0359
  860MOL0     H18650   8.347   6.800   4.610 -1.5211  1.8879 -1.6008
  860MOL0     H18651   8.181   6.813   4.619  0.7032 -1.6144 -0.8115
  860MOL0     H18652   8.342   6.694   4.849  0.5671  4.3501  0.1460
  860MOL0     H18653   8.171   6.726   4.867 -0.5042  1.3651 -1.4100
  860MOL0     H18654   8.283   6.549   4.635  1.4013  1.3250  0.5107
  860MOL0     H18655   8.111   6.603   4.669  1.6038  2.7812 -2.1520
  860MOL0     H18656   8.138   6.504   4.915  0.6373 -1.8354  0.7222
  860MOL0     H18657   8.270   6.414   4.863 -0.2510 -1.8460  0.6818
  860MOL0     H18658   8.014   6.391   4.702  0.0362  0.6747  0.3191
  860MOL0     H18659   8.083   6.286   4.837 -2.8227 -0.5143 -1.5056
  860MOL0     H18660   8.349   7.499   4.476  1.0967 -0.5630  3.9146
  860MOL0     H18661   8.519   7.607   4.326  1.7248  1.5200  1.2577
  860MOL0     H18662   8.986   7.436   4.220  0.9781  4.0850  1.3977
  860MOL0     H18663   9.209   7.499   4.115 -0.1479 -0.2066  0.9014
  860MOL0     H18664   9.792   7.884   2.349  0.0953  1.0570  2.6902
  860MOL0     H18665   9.876   7.764   2.151 -0.4165 -2.1576 -0.5796
  860MOL0     H18666  10.138   7.593   1.854  3.1735  1.0641  3.9474
  860MOL0     H18667  10.218   7.453   1.692  0.2635  0.9956  0.4758
  860MOL0     H18668  10.269   7.013   1.791 -0.8935 -0.5053  0.2603
  860MOL0     H18669  10.121   7.012   1.694  0.4611 -0.7529  2.0208
  860MOL0     H18670  10.340   6.890   1.613  0.5822 -0.1783  1.2405
  860MOL0     H18671  10.393   7.053   1.575 -1.0561  1.4682  1.3301
  860MOL0     H18672  10.131   6.925   1.466 -0.8817  2.0566 -0.2664
  860MOL0     H18673  10.199   7.076   1.417 -1.0270 -0.7382  0.2162
  860MOL0     H18674  10.411   6.913   1.377  1.2078  1.5045 -0.9992
  860MOL0     H18675  10.315   6.969   1.245  2.0073 -0.0507  0.1243
  860MOL0     H18676  10.172   6.566   1.259 -0.0261  1.1993 -2.6304
  860MOL0     H18677  10.102   7.106   1.901 -2.1840  0.5592  0.4999
  860MOL0     H18678  10.037   7.235   2.202 -1.4278  0.3392  0.2235
  860MOL0     H18679   9.882   7.248   2.132 -1.6331 -3.7631  0.3183
  860MOL0     H18680   9.985   7.106   2.101  0.1165 -0.1226  3.5795
  861MOL0     O18681   0.760   3.932   1.627  0.1043 -0.3746  0.5679
  861MOL0     C18682   0.804   4.043   1.619  0.1848 -0.8234  0.3115
  861MOL0     O18683   0.921   4.092   1.673  0.9052 -0.5021  0.4490
  861MOL0     C18684   1.007   4.010   1.745 -0.1815  0.6383 -0.4420
  861MOL0     C18685   1.067   3.900   1.681  0.5196 -0.2328 -0.1999
  861MOL0     C18686   1.145   3.815   1.749  0.1014  0.0087  0.2376
  861MOL0     C18687   1.185   3.842   1.879 -0.0917  0.0910  0.1301
  861MOL0     O18688   1.266   3.753   1.943  0.1064  0.3574  0.0927
  861MOL0     C18689   1.273   3.752   2.087  0.2071  0.3169 -0.5661
  861MOL0     C18690   1.397   3.840   2.127  0.5479  0.2179 -0.3073
  861MOL0     C18691   1.448   3.829   2.273 -0.4474 -0.5664 -1.0136
  861MOL0     C18692   1.401   3.940   2.371  0.3890 -0.0917  0.3592
  861MOL0     C18693   1.472   3.944   2.507  0.4136  0.7977  0.6678
  861MOL0     C18694   1.461   3.804   2.566 -0.0060 -0.4734 -0.6198
  861MOL0     C18695   1.487   3.823   2.718  0.8040  0.4238 -0.2040
  861MOL0     C18696   1.499   3.685   2.785 -0.2938  0.3299 -0.1336
  861MOL0     N18697   1.375   3.602   2.778  0.6732  0.6560 -0.7208
  861MOL0     C18698   1.256   3.637   2.838 -0.5300  0.4590 -0.0313
  861MOL0     C18699   1.159   3.554   2.795 -0.5620  0.6894  0.8101
  861MOL0     C18700   1.011   3.552   2.831 -0.7725 -0.5920  0.1688
  861MOL0     C18701   0.968   3.410   2.855  0.4718 -0.0929 -0.3260
  861MOL0     C18702   0.880   3.341   2.748  0.7425  0.3925  0.4923
  861MOL0     C18703   0.956   3.297   2.626 -0.7901 -0.4457 -0.1411
  861MOL0     O18704   0.887   3.181   2.577  0.0683  0.1633  0.3562
  861MOL0     C18705   0.966   3.101   2.504 -0.4655  1.2637 -0.2131
  861MOL0     C18706   0.905   2.978   2.468 -0.1985 -0.7501  0.9172
  861MOL0     C18707   0.968   2.895   2.381  0.3687 -0.3948  0.1048
  861MOL0     C18708   0.904   2.767   2.374  0.2960  0.3019  1.0369
  861MOL0     C18709   1.101   2.931   2.322 -0.3919  0.1564 -0.4617
  861MOL0     C18710   1.179   2.839   2.227  0.4229  0.9198 -1.4993
  861MOL0     O18711   1.280   2.899   2.161  0.3324 -0.3132 -0.2300
  861MOL0     C18712   1.375   2.818   2.104  0.1991  0.4108  0.8748
  861MOL0     C18713   1.475   2.758   2.184  0.4808  0.8767 -0.0841
  861MOL0     C18714   1.574   2.683   2.123 -0.5918  0.6036  0.2547
  861MOL0     C18715   1.592   2.686   1.982 -0.7794  0.4921  0.9384
  861MOL0     O18716   1.677   2.609   1.913 -0.1943  0.4575 -0.3726
  861MOL0     C18717   1.782   2.536   1.978 -0.3062  0.3531  0.0144
  861MOL0     C18718   1.874   2.472   1.876 -0.8378 -0.7385 -0.3880
  861MOL0     C18719   1.966   2.590   1.825  0.3754  0.0459  0.3917
  861MOL0     C18720   2.031   2.544   1.698 -0.2174  0.0365 -1.1347
  861MOL0     C18721   2.125   2.652   1.630  0.5956  0.0838 -1.0928
  861MOL0     C18722   2.176   2.579   1.503  0.2974  1.0134 -1.0120
  861MOL0     C18723   2.293   2.648   1.430  0.6388  0.0570  0.2999
  861MOL0     C18724   2.432   2.639   1.502  0.0548  0.1091 -0.2954
  861MOL0    Cl18725   2.471   2.476   1.572 -0.6846  0.2865 -0.0647
  861MOL0     C18726   1.493   2.742   1.908  0.7771  0.3758  0.1166
  861MOL0     C18727   1.389   2.809   1.964 -0.6580 -1.6578  0.6864
  861MOL0     O18728   1.153   2.715   2.228 -0.1746 -0.6755 -0.3454
  861MOL0     C18729   1.161   3.053   2.366  0.0969 -1.2402  0.2520
  861MOL0     C18730   1.097   3.137   2.449  0.3182  0.3430 -0.0225
  861MOL0     N18731   1.234   3.466   2.710  0.2246 -0.6828 -0.2547
  861MOL0     N18732   1.363   3.490   2.704 -0.4145  0.8021 -0.3115
  861MOL0     C18733   1.135   3.963   1.943  0.6877 -0.1659  0.0873
  861MOL0     C18734   1.049   4.042   1.870  0.9975  0.6603  0.1115
  861MOL0     C18735   0.718   4.147   1.559  0.3012 -0.5243  0.5413
  861MOL0     C18736   0.709   4.276   1.612  0.5652 -0.2052  0.5553
  861MOL0     C18737   0.651   4.381   1.546 -0.1048  0.3019 -0.1853
  861MOL0     C18738   0.573   4.361   1.429 -0.1654 -0.1436 -0.6038
  861MOL0     O18739   0.519   4.474   1.363  0.1233  0.9324 -0.5690
  861MOL0     C18740   0.472   4.454   1.232  0.5116  0.1116  0.7308
  861MOL0     C18741   0.448   4.589   1.171  0.1559  0.2750 -0.1541
  861MOL0     C18742   0.393   4.565   1.040  0.1137 -0.6675 -0.5181
  861MOL0     C18743   0.350   4.693   0.971  0.1813  0.3899 -0.3196
  861MOL0     C18744   0.212   4.723   1.011 -0.8982 -0.3534  0.1616
  861MOL0     C18745   0.104   4.752   1.048  0.1695  0.4678 -1.0462
  861MOL0     C18746   0.559   4.226   1.392 -0.8452 -0.1617  0.3378
  861MOL0     C18747   0.638   4.125   1.447  0.2311 -0.4265  1.0656
  861MOL0     C18748   0.628   3.987   1.386 -0.0910 -0.7824  0.8451
  861MOL0     H18749   1.047   3.900   1.574 -3.1772 -2.2785  0.3570
  861MOL0     H18750   1.192   3.725   1.710  1.3272  0.5280  0.4696
  861MOL0     H18751   1.279   3.649   2.122 -0.3779 -0.1664 -1.8597
  861MOL0     H18752   1.178   3.785   2.132 -0.6272 -2.5239 -0.0939
  861MOL0     H18753   1.470   3.796   2.058 -1.0482 -1.9930 -0.7050
  861MOL0     H18754   1.386   3.945   2.100 -1.4670 -0.2210 -1.3465
  861MOL0     H18755   1.441   3.727   2.312  0.8823 -0.6878 -1.0473
  861MOL0     H18756   1.551   3.862   2.258 -0.4578 -0.1118 -0.1587
  861MOL0     H18757   1.422   4.036   2.324  0.1448 -0.2428 -0.0618
  861MOL0     H18758   1.293   3.924   2.376  0.6741 -2.7898 -0.5747
  861MOL0     H18759   1.430   4.020   2.574 -0.3933  1.9246 -1.0377
  861MOL0     H18760   1.578   3.959   2.488  0.1145  0.8411 -1.0741
  861MOL0     H18761   1.361   3.770   2.536  0.8644  0.6081 -5.5310
  861MOL0     H18762   1.539   3.740   2.524  0.7393 -1.4874  2.1017
  861MOL0     H18763   1.400   3.871   2.764  1.2790  0.4046  0.7389
  861MOL0     H18764   1.582   3.875   2.735  0.1396  0.7822  3.1358
  861MOL0     H18765   1.586   3.638   2.738  0.3282 -1.0637  2.2473
  861MOL0     H18766   1.532   3.692   2.889  2.2466 -2.8181 -0.5611
  861MOL0     H18767   1.239   3.730   2.891  2.3221  1.7839 -1.2606
  861MOL0     H18768   0.958   3.595   2.745 -2.6772 -1.7111  0.7270
  861MOL0     H18769   0.987   3.618   2.916  1.8700 -0.4483  0.8913
  861MOL0     H18770   1.050   3.337   2.856 -0.6218 -1.3712 -0.5550
  861MOL0     H18771   0.915   3.409   2.950 -1.2824  0.9945 -1.2464
  861MOL0     H18772   0.846   3.249   2.798 -1.9085  1.2763  0.4812
  861MOL0     H18773   0.784   3.388   2.725 -1.1878 -2.6406  1.6444
  861MOL0     H18774   0.960   3.378   2.553  0.7144 -1.4921 -1.2828
  861MOL0     H18775   1.056   3.277   2.665 -1.2789  1.7422  2.5268
  861MOL0     H18776   0.821   2.949   2.530 -0.3203 -0.3698  0.9347
  861MOL0     H18777   0.810   2.771   2.430 -0.3073  0.5183  0.0429
  861MOL0     H18778   0.962   2.682   2.412 -0.5600 -0.9562 -0.3571
  861MOL0     H18779   0.879   2.754   2.268  0.6539  2.8048  0.5973
  861MOL0     H18780   1.477   2.781   2.290 -0.8585  0.7354 -0.0096
  861MOL0     H18781   1.636   2.635   2.198  0.4127  0.3527 -0.7279
  861MOL0     H18782   1.834   2.599   2.051  3.3530 -3.1072  0.7467
  861MOL0     H18783   1.732   2.455   2.032  2.1750 -0.6941  0.9129
  861MOL0     H18784   1.938   2.395   1.921  1.3066  0.8137 -0.6652
  861MOL0     H18785   1.823   2.448   1.782 -2.2330  2.2906 -0.5200
  861MOL0     H18786   2.049   2.611   1.893  0.5795  0.5531 -0.0060
  861MOL0     H18787   1.906   2.677   1.799 -3.0809 -1.5965  2.1601
  861MOL0     H18788   1.946   2.522   1.633 -1.4266  1.5469 -0.1240
  861MOL0     H18789   2.085   2.453   1.726  0.0067  1.2734  3.0967
  861MOL0     H18790   2.074   2.745   1.603 -0.2129  0.0992  0.4063
  861MOL0     H18791   2.203   2.679   1.703 -1.1216 -2.4854  1.9424
  861MOL0     H18792   2.093   2.573   1.433  0.7933 -1.2503 -1.4554
  861MOL0     H18793   2.206   2.476   1.523  1.7048  1.7305  0.9463
  861MOL0     H18794   2.261   2.752   1.418 -0.2386 -0.3025 -0.6400
  861MOL0     H18795   2.296   2.597   1.333 -0.3363 -0.3797  0.4910
  861MOL0     H18796   2.424   2.706   1.588  0.2244 -1.2938  0.8567
  861MOL0     H18797   2.511   2.671   1.434  1.3770  0.8619  1.5181
  861MOL0     H18798   1.488   2.740   1.800 -0.6776  0.4275  0.1686
  861MOL0     H18799   1.320   2.864   1.901  0.6151  0.2009  0.8376
  861MOL0     H18800   1.260   3.085   2.333  0.1925 -1.5983  0.1794
  861MOL0     H18801   1.154   3.229   2.459  0.6190  0.9937 -4.9233
  861MOL0     H18802   1.149   3.972   2.050 -1.1983 -4.0598  0.8277
  861MOL0     H18803   1.012   4.137   1.907 -0.8784  0.6648 -1.6123
  861MOL0     H18804   0.759   4.292   1.707 -0.1955  2.1368  0.6165
  861MOL0     H18805   0.668   4.479   1.589 -0.2012  0.0029  0.5350
  861MOL0     H18806   0.529   4.380   1.174  0.5646 -0.6654  1.7280
  861MOL0     H18807   0.374   4.407   1.245  0.4633  0.3807  1.3855
  861MOL0     H18808   0.546   4.636   1.159 -0.4815  1.2222 -2.1328
  861MOL0     H18809   0.394   4.657   1.237  2.4180 -0.0905  2.2381
  861MOL0     H18810   0.481   4.522   0.991  1.1606 -0.5965  1.2036
  861MOL0     H18811   0.314   4.489   1.043 -0.0969 -0.5083  3.4287
  861MOL0     H18812   0.348   4.683   0.862 -1.7772  2.0394 -0.5064
  861MOL0     H18813   0.397   4.784   1.009 -1.5528  1.3853 -0.4569
  861MOL0     H18814   0.020   4.794   1.100  0.4100 -1.6164  1.2384
  861MOL0     H18815   0.496   4.202   1.306 -1.8486 -0.3305  1.0954
  861MOL0     H18816   0.550   3.934   1.441 -1.4059 -0.6172 -0.7948
  861MOL0     H18817   0.589   3.992   1.284 -0.4412 -2.0901  0.8942
  861MOL0     H18818   0.716   3.921   1.393 -0.0117 -0.5336  2.7552
  862MOL0     O18819   0.593   8.403   4.989 -0.3067  0.1948 -0.0426
  862MOL0     C18820   0.495   8.381   4.917  0.1262  0.5896  0.2344
  862MOL0     O18821   0.456   8.476   4.829  0.6865 -0.0829 -0.2449
  862MOL0     C18822   0.503   8.605   4.855  0.2840 -0.2433  0.1520
  862MOL0     C18823   0.559   8.676   4.754 -0.6940 -1.3337  0.4416
  862MOL0     C18824   0.595   8.808   4.779  0.1273 -0.3263  0.1421
  862MOL0     C18825   0.563   8.861   4.892  0.5541  0.1917 -0.4017
  862MOL0     O18826   0.599   8.994   4.903  0.6355  0.4287  0.3018
  862MOL0     C18827   0.603   9.056   5.033 -0.4413 -0.3790 -0.9599
  862MOL0     C18828   0.694   9.173   5.045  0.8213 -1.0752  0.1264
  862MOL0     C18829   0.683   9.265   4.927 -1.0564 -1.3694 -0.3641
  862MOL0     C18830   0.773   9.399   4.957  1.2500  1.2938 -0.0785
  862MOL0     C18831   0.777   9.484   4.830  0.6688  0.3195  0.6022
  862MOL0     C18832   0.874   9.598   4.843 -0.6456 -0.8617 -0.9478
  862MOL0     C18833   1.028   9.574   4.865 -0.3941 -0.0087 -0.8080
  862MOL0     C18834   1.091   9.504   4.736 -0.9308  0.6502 -0.0013
  862MOL0     N18835   1.105   9.586   4.617  0.8613  0.5127  0.8419
  862MOL0     C18836   1.003   9.619   4.529  0.1068  0.4064 -0.8479
  862MOL0     C18837   1.059   9.685   4.432 -0.8011 -0.5488 -0.3681
  862MOL0     C18838   0.981   9.745   4.317  0.3886  0.1755  0.1269
  862MOL0     C18839   0.968   9.666   4.190 -0.2015  0.6276  1.2270
  862MOL0     C18840   0.880   9.542   4.175  0.0607  0.6529 -0.3906
  862MOL0     C18841   0.890   9.428   4.274 -0.4946 -0.6829  0.3321
  862MOL0     O18842   1.022   9.353   4.252 -0.0201  0.1206  0.4549
  862MOL0     C18843   1.064   9.307   4.368 -0.3782  0.1132 -0.5953
  862MOL0     C18844   0.991   9.214   4.442  0.6288  0.4508  0.8791
  862MOL0     C18845   1.048   9.161   4.563 -0.6912 -0.1570  0.1196
  862MOL0     C18846   0.967   9.078   4.657 -0.5192  0.5143 -0.3982
  862MOL0     C18847   1.172   9.200   4.604  0.1121  0.0324 -0.4440
  862MOL0     C18848   1.237   9.161   4.729 -0.2356  0.4110 -0.1862
  862MOL0     O18849   1.207   9.232   4.847  0.8665  0.0056  0.3864
  862MOL0     C18850   1.286   9.212   4.954  0.3706 -0.5608  0.7858
  862MOL0     C18851   1.212   9.207   5.077 -0.6526 -0.3626 -1.3774
  862MOL0     C18852   1.289   9.181   5.193 -0.3841 -0.7250  0.0598
  862MOL0     C18853   1.420   9.146   5.188 -1.3287 -0.9664  0.7562
  862MOL0     O18854   1.475   9.110   5.313 -0.4407 -0.0468  0.2307
  862MOL0     C18855   1.525   8.980   5.304  0.1148  0.0261 -0.4720
  862MOL0     C18856   1.601   8.940   5.431 -0.9715  0.1186  0.3704
  862MOL0     C18857   1.706   9.043   5.477  0.2381 -0.0633 -0.5827
  862MOL0     C18858   1.794   8.979   5.584  0.1961 -0.0766 -0.1096
  862MOL0     C18859   1.933   9.047   5.594  0.9678 -0.3660 -0.3445
  862MOL0     C18860   1.933   9.188   5.659 -0.8193 -0.2528 -0.1729
  862MOL0     C18861   1.960   9.198   5.813  0.8335 -0.5463  0.4113
  862MOL0     C18862   1.844   9.267   5.884  0.4467 -0.2481 -0.8749
  862MOL0    Cl18863   1.714   9.152   5.914 -0.0432 -0.3794  0.2731
  862MOL0     C18864   1.502   9.153   5.064  0.8760  0.2468  0.3520
  862MOL0     C18865   1.422   9.190   4.949 -0.9080  0.8627 -0.5605
  862MOL0     O18866   1.301   9.051   4.726  0.7648  0.8477  1.1765
  862MOL0     C18867   1.255   9.279   4.510  0.4581  0.3602 -0.2415
  862MOL0     C18868   1.192   9.344   4.409 -0.2019  0.1768 -0.0289
  862MOL0     N18869   1.189   9.707   4.461 -0.2995  0.2160 -1.6055
  862MOL0     N18870   1.213   9.652   4.585 -0.5524  0.6122 -0.0424
  862MOL0     C18871   0.498   8.794   4.999  0.0505  0.7489 -0.6519
  862MOL0     C18872   0.463   8.665   4.980 -0.1222  0.1907 -0.3785
  862MOL0     C18873   0.419   8.254   4.917  1.1703  0.4628  0.1909
  862MOL0     C18874   0.317   8.236   4.819  0.0153  0.0776  0.2007
  862MOL0     C18875   0.245   8.117   4.814 -0.3275 -0.3374  0.1231
  862MOL0     C18876   0.258   8.022   4.915 -0.8323  0.3267  0.2181
  862MOL0     O18877   0.168   7.910   4.932 -0.8874  0.5990  0.7191
  862MOL0     C18878   0.113   7.857   4.808  0.5847  0.2602  0.4780
  862MOL0     C18879  -0.030   7.910   4.761 -0.6596 -0.1271 -0.0564
  862MOL0     C18880  -0.130   7.826   4.830  0.6415 -0.0159 -0.6227
  862MOL0     C18881  -0.265   7.857   4.772  0.2340 -0.5518  0.6901
  862MOL0     C18882  -0.276   7.827   4.629 -0.3993  0.2452 -0.7699
  862MOL0     C18883  -0.286   7.789   4.522  0.8714 -0.6791  1.3088
  862MOL0     C18884   0.352   8.044   5.020 -0.5937 -0.4017  1.0941
  862MOL0     C18885   0.436   8.155   5.020  0.7546 -0.6069 -0.7401
  862MOL0     C18886   0.537   8.151   5.122  0.1953 -0.7722 -0.3952
  862MOL0     H18887   0.575   8.627   4.659  1.2868 -1.4918  0.8059
  862MOL0     H18888   0.647   8.870   4.707 -0.5868 -0.5536 -0.5817
  862MOL0     H18889   0.655   8.996   5.108  0.1867 -0.6165 -1.5698
  862MOL0     H18890   0.506   9.088   5.070  0.4758  0.1808  1.0962
  862MOL0     H18891   0.654   9.235   5.126  1.0671 -0.3014 -0.3263
  862MOL0     H18892   0.796   9.147   5.073  1.5799  1.8761  0.4518
  862MOL0     H18893   0.712   9.215   4.835  1.7616  0.4216 -0.5647
  862MOL0     H18894   0.579   9.300   4.921 -0.5267  0.2692 -0.5818
  862MOL0     H18895   0.749   9.455   5.048  0.0784 -0.8522  1.0178
  862MOL0     H18896   0.872   9.364   4.988  0.3592 -0.0568  1.4080
  862MOL0     H18897   0.679   9.531   4.815 -0.2949 -2.0575 -1.0066
  862MOL0     H18898   0.804   9.426   4.742 -1.4888  0.9515 -0.5536
  862MOL0     H18899   0.852   9.666   4.760 -1.4601  1.0362  0.7345
  862MOL0     H18900   0.842   9.655   4.931 -1.4653 -4.7119  1.5091
  862MOL0     H18901   1.045   9.519   4.958 -0.9572  0.1824 -0.5869
  862MOL0     H18902   1.081   9.669   4.878  1.1524 -1.2118  3.1522
  862MOL0     H18903   1.189   9.464   4.766 -2.0262 -1.2350  1.2798
  862MOL0     H18904   1.028   9.417   4.712 -1.0412  1.3809 -2.6406
  862MOL0     H18905   0.896   9.610   4.549  0.6661 -0.7706  2.2065
  862MOL0     H18906   1.037   9.833   4.285 -1.9339  1.2708 -1.1825
  862MOL0     H18907   0.883   9.778   4.353  1.0555  2.5334 -0.0580
  862MOL0     H18908   0.926   9.746   4.129 -0.4542  0.0130  0.5884
  862MOL0     H18909   1.066   9.636   4.152 -2.0114 -0.5366 -3.1595
  862MOL0     H18910   0.777   9.577   4.186  0.3048  1.2258  0.1815
  862MOL0     H18911   0.890   9.508   4.072 -0.6200  2.2892 -1.0332
  862MOL0     H18912   0.892   9.462   4.379  3.2080  0.5281  0.0153
  862MOL0     H18913   0.812   9.354   4.253 -1.1767 -0.1935  1.0947
  862MOL0     H18914   0.891   9.185   4.411  0.3976  2.2586 -0.2388
  862MOL0     H18915   0.943   9.132   4.749  1.1581  3.3731 -1.5319
  862MOL0     H18916   1.018   8.984   4.682 -3.0193 -0.3275  2.0861
  862MOL0     H18917   0.867   9.054   4.620 -1.4960  1.2452  1.6390
  862MOL0     H18918   1.106   9.196   5.093 -0.6665  0.1271 -1.1148
  862MOL0     H18919   1.235   9.180   5.288  0.9342  0.5094  0.8744
  862MOL0     H18920   1.442   8.910   5.295  0.6766 -0.7398  0.0991
  862MOL0     H18921   1.591   8.968   5.217  0.6883 -1.7927  0.1562
  862MOL0     H18922   1.528   8.918   5.509 -1.2300 -0.9108 -0.1535
  862MOL0     H18923   1.659   8.849   5.413  1.8876  1.4497  2.2054
  862MOL0     H18924   1.655   9.122   5.534  0.5463 -0.6009  0.4708
  862MOL0     H18925   1.772   9.085   5.400  2.6397 -2.1031  0.2228
  862MOL0     H18926   1.804   8.874   5.556  0.8025  0.3036 -1.3888
  862MOL0     H18927   1.739   8.980   5.679  1.0926  2.5348  0.4876
  862MOL0     H18928   1.987   8.978   5.660 -0.2230 -1.5875 -0.6113
  862MOL0     H18929   1.974   9.064   5.494 -0.3576  4.6439 -0.3002
  862MOL0     H18930   1.837   9.237   5.640 -2.6060 -3.1645  0.6741
  862MOL0     H18931   2.010   9.245   5.608 -2.7601  2.6576 -0.0536
  862MOL0     H18932   2.048   9.260   5.833 -1.0956  3.1694 -1.5620
  862MOL0     H18933   1.972   9.098   5.856 -1.4667 -1.9931 -2.0690
  862MOL0     H18934   1.808   9.361   5.842  0.8932  0.0230 -0.6650
  862MOL0     H18935   1.878   9.290   5.986 -3.5687  0.0394  0.5503
  862MOL0     H18936   1.608   9.132   5.060  1.5763  2.4148  3.6347
  862MOL0     H18937   1.464   9.203   4.850 -1.2110 -4.5452 -1.6855
  862MOL0     H18938   1.357   9.296   4.542  1.0910 -4.6766  1.3445
  862MOL0     H18939   1.247   9.415   4.347  1.3824 -1.3721 -0.4720
  862MOL0     H18940   0.468   8.840   5.093 -1.8658  1.4560 -1.5560
  862MOL0     H18941   0.396   8.612   5.046 -0.5112 -1.3198 -1.9146
  862MOL0     H18942   0.309   8.323   4.754 -1.5341 -0.5517 -0.5103
  862MOL0     H18943   0.168   8.101   4.740  1.1982  1.3321 -1.9915
  862MOL0     H18944   0.174   7.872   4.718  1.0602 -0.5955  0.6547
  862MOL0     H18945   0.111   7.750   4.826 -1.8568  0.3619  1.2183
  862MOL0     H18946  -0.035   7.895   4.653  2.0304 -1.0408 -0.1352
  862MOL0     H18947  -0.035   8.015   4.792  0.2370 -0.2469  0.5322
  862MOL0     H18948  -0.122   7.718   4.816 -1.9013 -0.3928  0.4318
  862MOL0     H18949  -0.117   7.834   4.938  3.1806 -3.1167 -0.5404
  862MOL0     H18950  -0.292   7.961   4.794  1.6472  0.1947 -0.9539
  862MOL0     H18951  -0.340   7.792   4.818  1.5086 -0.8760  2.4070
  862MOL0     H18952  -0.301   7.741   4.427 -4.6007 -1.3798  2.2145
  862MOL0     H18953   0.373   7.961   5.087 -1.8065  0.6198  2.7965
  862MOL0     H18954   0.514   8.223   5.202 -4.0233 -2.9855  0.6608
  862MOL0     H18955   0.540   8.057   5.178 -0.2845 -1.2019 -1.0706
  862MOL0     H18956   0.635   8.165   5.077  0.7588 -1.7968  0.4611
  863MOL0     O18957   2.828   3.025   5.165  0.4084  0.6602 -0.7156
  863MOL0     C18958   2.844   3.013   5.284  1.2030 -0.2385 -0.6193
  863MOL0     O18959   2.758   3.083   5.379 -0.4969  0.6284  0.7819
  863MOL0     C18960   2.674   3.176   5.331 -0.9508  0.6586  0.5863
  863MOL0     C18961   2.703   3.277   5.246 -0.6759  0.1197 -0.3167
  863MOL0     C18962   2.612   3.386   5.223 -0.3488  0.5094 -0.3643
  863MOL0     C18963   2.485   3.386   5.275  0.0008 -0.3521  0.2462
  863MOL0     O18964   2.402   3.497   5.255  0.4521 -0.2195 -0.1521
  863MOL0     C18965   2.452   3.629   5.283 -0.4373  0.4322  1.4250
  863MOL0     C18966   2.431   3.677   5.427 -0.2309  0.1374 -1.0957
  863MOL0     C18967   2.513   3.602   5.539 -0.0532 -0.9977 -0.1887
  863MOL0     C18968   2.510   3.678   5.673  0.5188 -0.0825 -0.9233
  863MOL0     C18969   2.536   3.582   5.779  0.6811  1.1416  0.2465
  863MOL0     C18970   2.564   3.645   5.909 -0.1685  0.4502  0.7279
  863MOL0     C18971   2.716   3.711   5.906  0.3016  0.9543 -0.5859
  863MOL0     C18972   2.746   3.772   6.041 -0.0357 -0.5239 -0.1066
  863MOL0     N18973   2.885   3.800   6.042 -0.6305  0.3600 -0.3816
  863MOL0     C18974   2.944   3.909   5.975 -0.4982 -0.1149 -0.0712
  863MOL0     C18975   3.073   3.904   6.003  0.2574  0.1740  0.9359
  863MOL0     C18976   3.165   4.014   5.953 -0.5680  0.3760  0.0437
  863MOL0     C18977   3.287   3.962   5.881  0.3364  0.5630  0.1666
  863MOL0     C18978   3.404   3.904   5.961 -0.4812  0.0133 -0.1085
  863MOL0     C18979   3.515   3.837   5.878 -0.0626  0.1273 -0.5288
  863MOL0     O18980   3.454   3.749   5.785 -0.3637  0.7080 -0.7005
  863MOL0     C18981   3.454   3.785   5.653  0.1925  0.5056  0.4471
  863MOL0     C18982   3.428   3.683   5.569 -0.0623 -0.4585  0.9876
  863MOL0     C18983   3.394   3.701   5.434  0.1906  0.4546 -0.3169
  863MOL0     C18984   3.347   3.587   5.336  0.3855 -0.5339  0.8604
  863MOL0     C18985   3.406   3.837   5.381  0.0275  0.2749  0.6945
  863MOL0     C18986   3.392   3.872   5.234 -0.3768  0.0198 -0.8462
  863MOL0     O18987   3.498   3.813   5.163 -0.3311  0.3537 -0.0582
  863MOL0     C18988   3.493   3.800   5.024  0.0555 -0.5815  0.7180
  863MOL0     C18989   3.586   3.861   4.934 -1.2105  0.9728 -0.4910
  863MOL0     C18990   3.580   3.841   4.793 -0.5068 -0.6093  0.1084
  863MOL0     C18991   3.467   3.765   4.740 -0.1781  0.1549  0.2558
  863MOL0     O18992   3.443   3.738   4.607  0.5382 -0.0284  0.1228
  863MOL0     C18993   3.560   3.715   4.540  0.4552  1.2868  0.6554
  863MOL0     C18994   3.540   3.657   4.394  0.3949  0.4965  0.5912
  863MOL0     C18995   3.670   3.619   4.327  0.0279 -0.2967  0.3454
  863MOL0     C18996   3.651   3.532   4.202 -0.6539  0.1413  0.5463
  863MOL0     C18997   3.781   3.516   4.137  0.1814  0.4643 -0.6972
  863MOL0     C18998   3.763   3.443   4.003  0.6475  0.5162 -0.9142
  863MOL0     C18999   3.896   3.422   3.928  0.0057 -0.6205 -0.0811
  863MOL0     C19000   3.888   3.364   3.787  0.2352  0.2745  0.1066
  863MOL0    Cl19001   4.037   3.301   3.713 -0.3557 -0.1422  0.1116
  863MOL0     C19002   3.385   3.703   4.835  0.3929  0.3078  0.1161
  863MOL0     C19003   3.390   3.723   4.971  0.1622 -0.2457  0.4717
  863MOL0     O19004   3.302   3.949   5.189 -0.4346  0.2584 -1.2161
  863MOL0     C19005   3.453   3.937   5.471  0.9831  0.2686 -0.0925
  863MOL0     C19006   3.475   3.914   5.610 -0.1089 -0.2447  0.4870
  863MOL0     N19007   3.095   3.800   6.081  0.0092  0.3208  0.1685
  863MOL0     N19008   2.985   3.738   6.108 -0.1781  0.6397  0.1916
  863MOL0     C19009   2.454   3.274   5.356 -0.8564  0.4190  0.3198
  863MOL0     C19010   2.545   3.170   5.385 -0.2085 -0.0292 -0.2675
  863MOL0     C19011   2.976   2.965   5.339  0.6050 -0.4619 -0.0323
  863MOL0     C19012   3.000   2.987   5.471  0.0695 -0.3034 -0.5972
  863MOL0     C19013   3.113   2.943   5.538 -0.2554 -0.5776 -0.6158
  863MOL0     C19014   3.192   2.843   5.478 -0.7370 -0.4687 -0.1570
  863MOL0     O19015   3.305   2.809   5.553  0.1848 -0.9447 -0.3699
  863MOL0     C19016   3.421   2.771   5.484 -0.1670 -0.6061 -1.4729
  863MOL0     C19017   3.453   2.612   5.478 -0.2081 -0.4556 -0.7444
  863MOL0     C19018   3.508   2.550   5.608  0.5681 -1.5514  0.5861
  863MOL0     C19019   3.656   2.512   5.593 -1.2406 -0.1691 -0.4175
  863MOL0     C19020   3.671   2.369   5.601 -0.5997 -0.1304  0.6556
  863MOL0     C19021   3.685   2.258   5.576  1.0209 -0.1090  0.2840
  863MOL0     C19022   3.165   2.814   5.346  0.2068  0.1255 -0.6569
  863MOL0     C19023   3.062   2.867   5.280 -0.5664 -0.7147  0.4983
  863MOL0     C19024   3.044   2.810   5.140  0.1122  0.3008 -1.3834
  863MOL0     H19025   2.795   3.287   5.189  1.2577  4.6014  2.9832
  863MOL0     H19026   2.646   3.465   5.157  2.1498  0.1892  0.4356
  863MOL0     H19027   2.413   3.710   5.220  5.0310  2.1096 -0.3895
  863MOL0     H19028   2.558   3.636   5.258 -0.5673 -3.0096 -0.8548
  863MOL0     H19029   2.460   3.783   5.427  0.7503 -0.1144 -0.1527
  863MOL0     H19030   2.325   3.655   5.437  0.2394 -3.4019 -2.5880
  863MOL0     H19031   2.479   3.498   5.540 -0.9371 -0.8122 -2.6249
  863MOL0     H19032   2.618   3.603   5.510 -0.2513  1.1932 -1.0759
  863MOL0     H19033   2.595   3.746   5.662  1.5321 -0.6632  2.2507
  863MOL0     H19034   2.419   3.734   5.699  0.0962 -1.1076 -0.1506
  863MOL0     H19035   2.627   3.523   5.759 -1.1861 -1.7887 -0.2424
  863MOL0     H19036   2.456   3.508   5.785  0.5413  1.2360 -0.4521
  863MOL0     H19037   2.480   3.705   5.943 -1.3943 -2.2415  2.8030
  863MOL0     H19038   2.583   3.560   5.975  2.2528 -0.8941 -1.4697
  863MOL0     H19039   2.727   3.788   5.829  1.1809  2.8837  1.3682
  863MOL0     H19040   2.775   3.620   5.888 -1.3816 -0.3741  0.2269
  863MOL0     H19041   2.682   3.860   6.045 -1.9026 -1.7362 -1.4501
  863MOL0     H19042   2.716   3.707   6.124 -2.2341  0.2392 -0.2366
  863MOL0     H19043   2.888   3.980   5.915 -0.0836 -0.9817 -1.5126
  863MOL0     H19044   3.199   4.077   6.036  0.3102  2.2649 -1.6575
  863MOL0     H19045   3.113   4.073   5.876  3.5532  1.5814 -2.1338
  863MOL0     H19046   3.250   3.893   5.804 -0.2341  2.6852 -1.5863
  863MOL0     H19047   3.328   4.048   5.826 -3.3366  2.3645 -0.0240
  863MOL0     H19048   3.449   3.982   6.022  1.8667 -2.6566  1.8336
  863MOL0     H19049   3.382   3.826   6.034  3.7206  0.5930  2.0847
  863MOL0     H19050   3.582   3.912   5.835  0.3812  0.2689  0.3697
  863MOL0     H19051   3.567   3.774   5.951 -0.9592 -0.5246 -0.4422
  863MOL0     H19052   3.426   3.581   5.608  0.6011 -1.9111 -2.4024
  863MOL0     H19053   3.430   3.528   5.295  2.6796  3.0404 -0.0348
  863MOL0     H19054   3.287   3.642   5.263  0.1650  0.6980  1.9370
  863MOL0     H19055   3.280   3.520   5.391 -1.2748  1.7978  1.8568
  863MOL0     H19056   3.657   3.926   4.983 -1.2878 -1.7149  3.6068
  863MOL0     H19057   3.639   3.892   4.717 -1.1872 -0.8139 -0.5673
  863MOL0     H19058   3.610   3.810   4.521  0.3250  1.2516  0.1064
  863MOL0     H19059   3.622   3.647   4.598 -2.6055  0.7439  3.6223
  863MOL0     H19060   3.484   3.564   4.393 -1.8589  1.7543  1.2747
  863MOL0     H19061   3.499   3.738   4.332  1.9943  2.9090  2.4857
  863MOL0     H19062   3.731   3.577   4.408  1.6428  1.6888  0.2610
  863MOL0     H19063   3.722   3.710   4.294  1.8450 -2.0928 -2.0978
  863MOL0     H19064   3.579   3.575   4.132  0.2731  1.1399  0.1838
  863MOL0     H19065   3.611   3.435   4.232  1.5134 -0.3303  2.1892
  863MOL0     H19066   3.808   3.621   4.126 -0.2423  0.6687  0.1874
  863MOL0     H19067   3.856   3.474   4.204  0.0212  1.7967  0.3569
  863MOL0     H19068   3.679   3.486   3.947  0.8757  1.9563 -0.1772
  863MOL0     H19069   3.727   3.343   4.028 -0.3708  0.4122 -2.5963
  863MOL0     H19070   3.958   3.362   3.995  1.7241 -0.3956 -1.3694
  863MOL0     H19071   3.924   3.527   3.916  0.0537 -0.8545 -2.7616
  863MOL0     H19072   3.857   3.442   3.716  2.3553  2.3134  1.2392
  863MOL0     H19073   3.811   3.287   3.790  0.3132  0.1503 -0.8873
  863MOL0     H19074   3.319   3.630   4.790  3.2686 -2.3938 -0.0937
  863MOL0     H19075   3.331   3.680   5.051 -0.2867  2.1268  1.5311
  863MOL0     H19076   3.478   4.024   5.412 -0.4296  0.2092 -0.8078
  863MOL0     H19077   3.496   3.995   5.680  1.2117 -0.6757  0.6221
  863MOL0     H19078   2.352   3.262   5.391 -1.3573 -1.4240 -1.5905
  863MOL0     H19079   2.501   3.084   5.434 -0.2822  0.0141 -0.2571
  863MOL0     H19080   2.938   3.052   5.532 -3.4193 -1.9605 -2.1027
  863MOL0     H19081   3.142   2.980   5.636  1.5795 -2.7023 -0.2767
  863MOL0     H19082   3.419   2.815   5.383 -1.5239  1.1988 -0.7044
  863MOL0     H19083   3.512   2.804   5.535  0.7535 -2.9480 -1.4797
  863MOL0     H19084   3.534   2.611   5.405 -0.9593 -1.8690 -1.6075
  863MOL0     H19085   3.367   2.553   5.444 -2.9421  2.5537  0.4729
  863MOL0     H19086   3.494   2.613   5.696 -1.7701  1.3392 -1.6466
  863MOL0     H19087   3.447   2.461   5.626 -2.3164  0.8258  3.9096
  863MOL0     H19088   3.709   2.548   5.682 -1.0381 -1.1046 -0.1436
  863MOL0     H19089   3.699   2.552   5.501 -2.0649 -0.3399 -0.8838
  863MOL0     H19090   3.677   2.154   5.550  0.4508  0.3129 -1.3709
  863MOL0     H19091   3.225   2.732   5.307 -0.3925 -0.5027 -0.2808
  863MOL0     H19092   2.938   2.784   5.127 -0.0814  0.7215 -0.6935
  863MOL0     H19093   3.070   2.887   5.067 -0.9842  1.6293 -0.4437
  863MOL0     H19094   3.108   2.723   5.126 -0.0333  0.3173 -2.2617
  864MOL0     O19095   3.311   6.988   5.565 -0.3996 -0.1898  0.2892
  864MOL0     C19096   3.387   6.942   5.480 -0.3278  0.8246 -0.4325
  864MOL0     O19097   3.483   7.008   5.412 -0.1732 -0.8367 -0.4560
  864MOL0     C19098   3.478   7.147   5.402 -0.4552 -0.1591  0.1969
  864MOL0     C19099   3.445   7.248   5.505 -0.4876  0.8957 -0.0665
  864MOL0     C19100   3.439   7.385   5.462 -0.1064 -0.0148  0.1276
  864MOL0     C19101   3.469   7.428   5.332 -0.1186  0.0096  0.3536
  864MOL0     O19102   3.474   7.562   5.314 -0.0677  0.2084  0.1576
  864MOL0     C19103   3.553   7.615   5.202 -0.7148  0.3445 -0.3321
  864MOL0     C19104   3.469   7.648   5.081 -0.6056  0.1374  0.5975
  864MOL0     C19105   3.553   7.673   4.965 -0.6388  0.1096  0.3954
  864MOL0     C19106   3.470   7.697   4.837  0.6475 -0.2057 -0.8430
  864MOL0     C19107   3.433   7.572   4.765  0.2318 -0.0799 -0.2516
  864MOL0     C19108   3.339   7.601   4.646 -0.2866  0.7344 -1.4009
  864MOL0     C19109   3.194   7.622   4.702 -0.7092  0.4439 -0.2613
  864MOL0     C19110   3.101   7.640   4.587 -0.3113 -1.1964  0.7433
  864MOL0     N19111   2.956   7.648   4.629 -0.2713  0.3052 -0.0371
  864MOL0     C19112   2.897   7.547   4.699 -0.2513  0.2308  0.3565
  864MOL0     C19113   2.764   7.572   4.707 -0.3589 -0.1010  0.6585
  864MOL0     C19114   2.656   7.486   4.773 -0.9212  0.2003 -0.1944
  864MOL0     C19115   2.666   7.481   4.927 -0.2870  0.1133 -0.9405
  864MOL0     C19116   2.533   7.431   4.980 -0.4749  0.1884  0.6263
  864MOL0     C19117   2.520   7.426   5.122 -1.1369  0.0852  0.0753
  864MOL0     O19118   2.513   7.563   5.175  0.5437  0.1279 -0.4094
  864MOL0     C19119   2.500   7.585   5.307 -0.2175  0.0689 -0.4190
  864MOL0     C19120   2.488   7.491   5.400 -0.1074  0.8204 -1.0803
  864MOL0     C19121   2.476   7.517   5.541 -0.3330 -0.4156  0.7138
  864MOL0     C19122   2.460   7.392   5.628  1.0936  1.0419  0.9644
  864MOL0     C19123   2.472   7.655   5.594 -0.9050 -0.3774 -0.8063
  864MOL0     C19124   2.473   7.698   5.742  0.4529 -0.5068  0.7284
  864MOL0     O19125   2.493   7.831   5.763  0.7131  0.6408 -0.1396
  864MOL0     C19126   2.517   7.869   5.899  0.0102 -0.1638 -0.9975
  864MOL0     C19127   2.612   7.819   5.990 -0.0505 -1.0841  0.0301
  864MOL0     C19128   2.649   7.890   6.104 -0.6382  0.7533 -0.2768
  864MOL0     C19129   2.572   7.995   6.155  0.4932  0.3265  0.9153
  864MOL0     O19130   2.613   8.060   6.271 -0.0668  0.2795 -0.0690
  864MOL0     C19131   2.586   8.201   6.294  0.8154 -0.4840 -0.4093
  864MOL0     C19132   2.714   8.256   6.368 -0.2806 -0.2947 -1.4179
  864MOL0     C19133   2.682   8.237   6.524  0.2253 -0.5580 -0.0072
  864MOL0     C19134   2.610   8.110   6.580  0.5084  1.7088 -0.0780
  864MOL0     C19135   2.610   8.101   6.737 -0.6077 -0.4135 -0.7958
  864MOL0     C19136   2.550   7.975   6.794 -0.4452  0.0273  0.1285
  864MOL0     C19137   2.544   7.957   6.947  0.3673  0.0534 -1.2930
  864MOL0     C19138   2.540   7.806   6.966 -0.2866 -0.1072  0.1632
  864MOL0    Cl19139   2.379   7.754   6.899 -0.1406  0.5357 -0.3070
  864MOL0     C19140   2.466   8.042   6.068 -0.0860 -0.6267 -0.6674
  864MOL0     C19141   2.447   7.990   5.948  0.3626 -0.1752 -0.2083
  864MOL0     O19142   2.468   7.617   5.827  0.9211  1.0597 -0.0653
  864MOL0     C19143   2.472   7.749   5.493 -0.3424  0.7278 -1.2352
  864MOL0     C19144   2.494   7.721   5.356 -0.0452 -0.1377  0.4745
  864MOL0     N19145   2.739   7.694   4.646 -0.1042  0.0606  0.1159
  864MOL0     N19146   2.856   7.738   4.604 -1.0436 -0.6950 -0.2972
  864MOL0     C19147   3.500   7.333   5.234 -0.5556  0.0333 -0.6176
  864MOL0     C19148   3.504   7.194   5.267  0.3391 -0.5007 -0.3861
  864MOL0     C19149   3.393   6.794   5.456  0.6104  0.5026  0.3117
  864MOL0     C19150   3.512   6.741   5.403 -0.0550 -0.0572  0.2811
  864MOL0     C19151   3.524   6.616   5.352  0.2107  0.5640  0.6518
  864MOL0     C19152   3.408   6.532   5.345  0.5548 -0.0190 -1.0176
  864MOL0     O19153   3.423   6.418   5.265  0.1826 -0.5871 -0.5296
  864MOL0     C19154   3.294   6.388   5.198  0.3764 -0.2424 -0.2162
  864MOL0     C19155   3.296   6.278   5.093  0.9874 -0.8474 -0.8396
  864MOL0     C19156   3.436   6.253   5.040 -0.0131 -0.0557 -0.9310
  864MOL0     C19157   3.513   6.374   4.975 -0.9088 -0.4390 -0.0102
  864MOL0     C19158   3.447   6.411   4.852  0.3978  1.2784 -0.7749
  864MOL0     C19159   3.389   6.457   4.758 -0.1285  0.1620 -0.8652
  864MOL0     C19160   3.288   6.580   5.407  0.3041  0.0402 -0.3716
  864MOL0     C19161   3.277   6.710   5.461  0.2502  0.0208 -0.6174
  864MOL0     C19162   3.125   6.748   5.495 -0.8587 -0.7235 -0.8156
  864MOL0     H19163   3.409   7.220   5.603  2.7447  0.3850  1.0889
  864MOL0     H19164   3.404   7.464   5.528 -0.3770  1.2187 -1.4208
  864MOL0     H19165   3.625   7.538   5.172 -1.3484  0.4292 -2.1947
  864MOL0     H19166   3.611   7.701   5.237  0.4024  0.1752 -1.6811
  864MOL0     H19167   3.401   7.566   5.058 -2.9237  2.1843 -0.3220
  864MOL0     H19168   3.397   7.729   5.095 -1.5077 -0.1605 -1.7858
  864MOL0     H19169   3.605   7.767   4.988 -2.3607  2.0278 -2.8372
  864MOL0     H19170   3.625   7.592   4.949  1.4630  2.0549 -0.4913
  864MOL0     H19171   3.381   7.756   4.862  1.4360  0.6179  0.1034
  864MOL0     H19172   3.533   7.756   4.769  2.1748 -1.7957 -0.8702
  864MOL0     H19173   3.383   7.496   4.825 -0.2694  0.3848 -0.0743
  864MOL0     H19174   3.531   7.533   4.736  0.2705 -1.4675  1.5970
  864MOL0     H19175   3.369   7.686   4.584  2.8925  0.9920  0.3235
  864MOL0     H19176   3.326   7.507   4.591 -4.9174 -1.4162  2.5041
  864MOL0     H19177   3.189   7.714   4.760 -2.2743 -0.1433  0.6075
  864MOL0     H19178   3.162   7.537   4.764 -1.1843  0.8501  0.0542
  864MOL0     H19179   3.119   7.741   4.549  0.7828 -1.2314  1.1549
  864MOL0     H19180   3.117   7.562   4.513 -2.1152  0.1290 -1.1842
  864MOL0     H19181   2.938   7.449   4.717 -0.9265 -0.4914 -1.7048
  864MOL0     H19182   2.676   7.382   4.744  0.9343  0.3407  0.4180
  864MOL0     H19183   2.559   7.518   4.734 -0.6408  2.8526  1.0921
  864MOL0     H19184   2.742   7.407   4.952 -2.3597 -1.9531 -0.3293
  864MOL0     H19185   2.683   7.579   4.972 -2.8243 -0.9988  2.9059
  864MOL0     H19186   2.464   7.509   4.947 -1.6142 -1.1890 -0.3756
  864MOL0     H19187   2.496   7.341   4.930 -0.8198  0.8387 -0.3144
  864MOL0     H19188   2.423   7.379   5.143  0.3099 -3.4704 -0.4819
  864MOL0     H19189   2.607   7.377   5.166 -0.4925  2.7918  2.0527
  864MOL0     H19190   2.475   7.391   5.360  2.4894 -0.1244  0.2224
  864MOL0     H19191   2.360   7.410   5.669  1.0846 -0.0577  1.4757
  864MOL0     H19192   2.526   7.378   5.714  2.1974  0.0351 -0.0282
  864MOL0     H19193   2.474   7.304   5.565  0.8990  3.2802 -2.4524
  864MOL0     H19194   2.678   7.734   5.971  1.6224  0.3714 -0.9783
  864MOL0     H19195   2.727   7.855   6.172  1.3184 -0.0332 -2.7833
  864MOL0     H19196   2.597   8.264   6.205  0.6212  0.2966  0.1121
  864MOL0     H19197   2.493   8.218   6.349  0.7318  1.8189 -1.1557
  864MOL0     H19198   2.803   8.198   6.340  1.2671  2.1315 -1.8389
  864MOL0     H19199   2.749   8.359   6.352 -0.1743 -0.2824 -1.1252
  864MOL0     H19200   2.617   8.317   6.560 -3.7634 -3.4183 -0.1597
  864MOL0     H19201   2.778   8.243   6.576 -0.2956 -3.8631  1.6090
  864MOL0     H19202   2.645   8.016   6.535 -2.3784  1.4777 -2.1548
  864MOL0     H19203   2.508   8.113   6.542  0.9504  0.9189 -1.3927
  864MOL0     H19204   2.713   8.112   6.773 -0.9128  0.3776 -0.1179
  864MOL0     H19205   2.550   8.185   6.774  1.0747  0.1709  0.7584
  864MOL0     H19206   2.604   7.891   6.750  1.1126 -1.5133  4.4533
  864MOL0     H19207   2.447   7.974   6.758 -1.0387 -0.7325  1.7654
  864MOL0     H19208   2.451   8.005   6.980 -1.1924 -0.7044 -4.1951
  864MOL0     H19209   2.629   8.006   6.995 -1.0315 -0.1994  1.6166
  864MOL0     H19210   2.560   7.767   7.066  2.4441 -1.8366 -0.9272
  864MOL0     H19211   2.614   7.751   6.906  0.5381  2.9338 -1.8368
  864MOL0     H19212   2.414   8.127   6.111  3.7695  0.9857  1.3711
  864MOL0     H19213   2.383   8.059   5.894  1.0633  1.0655  0.5016
  864MOL0     H19214   2.474   7.855   5.518 -1.2095 -0.0017  2.4742
  864MOL0     H19215   2.498   7.806   5.288 -2.5221  2.0370  2.7957
  864MOL0     H19216   3.528   7.370   5.136  2.0719 -0.8167 -0.2594
  864MOL0     H19217   3.539   7.123   5.193 -2.6580 -2.1762 -0.3603
  864MOL0     H19218   3.603   6.801   5.395 -0.3310  0.2010 -1.3365
  864MOL0     H19219   3.613   6.585   5.298 -0.2707 -1.0289  0.7227
  864MOL0     H19220   3.216   6.359   5.268  0.7181 -0.1690  0.2016
  864MOL0     H19221   3.257   6.476   5.145 -2.4792 -1.5030 -0.4974
  864MOL0     H19222   3.232   6.305   5.008 -0.1927  2.0763  0.8085
  864MOL0     H19223   3.262   6.182   5.131 -1.3125  0.7990  1.6578
  864MOL0     H19224   3.501   6.216   5.120 -1.1195  0.4995  0.2406
  864MOL0     H19225   3.430   6.175   4.963  2.3225 -1.8301  0.5412
  864MOL0     H19226   3.615   6.337   4.963 -0.9396 -0.0016 -1.9803
  864MOL0     H19227   3.520   6.463   5.037  3.4344  1.2791 -2.5544
  864MOL0     H19228   3.341   6.491   4.669 -0.4121  1.3189 -0.2887
  864MOL0     H19229   3.209   6.506   5.400  1.1900 -0.9423 -0.1687
  864MOL0     H19230   3.061   6.660   5.483  0.2572 -1.6942  0.0961
  864MOL0     H19231   3.118   6.786   5.598 -2.1273 -1.1953 -0.7032
  864MOL0     H19232   3.085   6.827   5.430 -1.0401 -0.5697 -0.5225
  865MOL0     O19233   8.266  10.494   3.368  0.6292  0.1407 -0.6848
  865MOL0     C19234   8.294  10.521   3.483  0.7381  1.2899 -0.6798
  865MOL0     O19235   8.296  10.419   3.586 -0.4893 -0.0259  0.3890
  865MOL0     C19236   8.290  10.291   3.543  0.2151 -0.1147 -0.9484
  865MOL0     C19237   8.387  10.227   3.463 -0.1144 -1.0252 -1.2741
  865MOL0     C19238   8.371  10.092   3.443 -0.3042  0.5924 -0.0572
  865MOL0     C19239   8.263  10.009   3.480  0.6523  0.3884 -0.7813
  865MOL0     O19240   8.268   9.874   3.451  0.3997 -1.1290 -0.0167
  865MOL0     C19241   8.144   9.802   3.431  0.6271 -0.8183  1.8162
  865MOL0     C19242   8.142   9.722   3.304 -0.1172 -0.1316 -0.0323
  865MOL0     C19243   8.011   9.642   3.290  0.3286  0.4066 -0.1502
  865MOL0     C19244   8.041   9.538   3.181 -0.6801  0.6047 -1.4346
  865MOL0     C19245   7.916   9.438   3.179  0.5295 -0.5611  0.1837
  865MOL0     C19246   7.934   9.335   3.062 -0.0388 -0.6232 -0.6281
  865MOL0     C19247   7.918   9.392   2.926 -0.9832  0.0536  0.7857
  865MOL0     C19248   7.900   9.293   2.811 -0.0303 -0.1225 -0.1598
  865MOL0     N19249   8.033   9.241   2.774  0.6379 -0.3638 -0.3722
  865MOL0     C19250   8.088   9.254   2.647  0.1750  0.2701 -1.2917
  865MOL0     C19251   8.190   9.169   2.641  0.7704  0.1976  0.2737
  865MOL0     C19252   8.290   9.160   2.530  0.4302  0.1365 -0.1926
  865MOL0     C19253   8.235   9.083   2.408  0.0523 -0.2677  0.5291
  865MOL0     C19254   8.317   9.119   2.288  0.3740 -0.4252  0.2912
  865MOL0     C19255   8.279   9.240   2.214  0.8615 -1.0839  0.4737
  865MOL0     O19256   8.133   9.256   2.185 -0.9409  0.5113 -0.7236
  865MOL0     C19257   8.095   9.184   2.074  1.1386  0.0309  0.2456
  865MOL0     C19258   8.102   9.251   1.950  1.0936  0.8658 -0.7459
  865MOL0     C19259   8.057   9.180   1.834 -0.0825  0.3312  1.1046
  865MOL0     C19260   8.057   9.264   1.709 -0.0077 -0.5008  0.2016
  865MOL0     C19261   8.009   9.048   1.841  0.2662 -0.4334 -0.8527
  865MOL0     C19262   7.958   8.965   1.723 -0.8964 -0.4254  0.0113
  865MOL0     O19263   7.850   8.871   1.741 -0.0976  0.4603  0.2843
  865MOL0     C19264   7.789   8.803   1.647  0.3113  0.0768  0.5980
  865MOL0     C19265   7.807   8.813   1.506  0.3793  0.8835  0.5212
  865MOL0     C19266   7.715   8.733   1.428 -0.4657  0.4248  0.0121
  865MOL0     C19267   7.625   8.643   1.487 -0.6816  0.0783  0.4776
  865MOL0     O19268   7.549   8.555   1.413  0.5762  0.5421 -0.9918
  865MOL0     C19269   7.509   8.560   1.279  0.7995 -0.2685 -0.2761
  865MOL0     C19270   7.420   8.442   1.246 -0.8935 -0.4422 -0.2794
  865MOL0     C19271   7.303   8.413   1.336  0.1599  0.0561 -0.4021
  865MOL0     C19272   7.190   8.491   1.265  0.3357  1.6994 -0.1869
  865MOL0     C19273   7.073   8.506   1.369  0.3515  0.0536 -0.0058
  865MOL0     C19274   6.948   8.575   1.329  0.1269  1.1262  0.7369
  865MOL0     C19275   6.852   8.595   1.441 -0.1635 -0.0704 -0.9473
  865MOL0     C19276   6.704   8.585   1.392  0.0642  0.2012 -0.5515
  865MOL0    Cl19277   6.692   8.718   1.262 -0.4182  0.5876 -0.3301
  865MOL0     C19278   7.610   8.637   1.630  0.6853  0.3916 -0.4878
  865MOL0     C19279   7.696   8.713   1.705  0.2642 -0.0604 -0.2517
  865MOL0     O19280   8.009   8.998   1.615 -0.0234 -0.0674  0.0388
  865MOL0     C19281   8.004   8.987   1.972 -0.0217  0.6585  0.1622
  865MOL0     C19282   8.048   9.051   2.087 -0.2585 -0.2043  0.3368
  865MOL0     N19283   8.176   9.093   2.757 -0.0838  0.5410  0.8245
  865MOL0     N19284   8.081   9.125   2.828  0.4253 -1.0775 -0.4204
  865MOL0     C19285   8.173  10.078   3.560  0.1434  0.2263 -0.1223
  865MOL0     C19286   8.183  10.217   3.591  0.2099 -0.5949 -0.0676
  865MOL0     C19287   8.324  10.671   3.511  0.1386  0.9097 -0.1419
  865MOL0     C19288   8.360  10.706   3.645  0.7380  0.1570  0.1137
  865MOL0     C19289   8.395  10.831   3.681  0.1905  0.7418  0.5459
  865MOL0     C19290   8.397  10.937   3.583  0.1733 -0.8759  0.6026
  865MOL0     O19291   8.398  11.077   3.618  0.9305 -1.0974  0.3109
  865MOL0     C19292   8.447  11.124   3.745 -0.2475 -0.5800  0.3171
  865MOL0     C19293   8.348  11.126   3.849 -0.3688  0.0112  1.0365
  865MOL0     C19294   8.408  11.201   3.976 -0.7945  0.3280  0.3591
  865MOL0     C19295   8.462  11.339   3.954  1.2572 -0.4292 -0.3365
  865MOL0     C19296   8.505  11.391   4.087 -0.0481  0.7803  0.5854
  865MOL0     C19297   8.541  11.430   4.188  0.6237  0.9036 -0.1746
  865MOL0     C19298   8.357  10.903   3.451 -0.0059 -0.3751  0.6719
  865MOL0     C19299   8.318  10.769   3.408 -0.0155 -0.4611 -0.2893
  865MOL0     C19300   8.277  10.751   3.266  0.3916 -0.3278  0.0994
  865MOL0     H19301   8.472  10.288   3.436 -1.4583  1.9404  0.6318
  865MOL0     H19302   8.449  10.038   3.389  0.8832  0.7893  1.3960
  865MOL0     H19303   8.065   9.878   3.431  1.0312 -0.2047 -1.6151
  865MOL0     H19304   8.115   9.731   3.509  1.1348  0.9740  3.7136
  865MOL0     H19305   8.148   9.795   3.223  1.0431 -2.3470 -2.0294
  865MOL0     H19306   8.234   9.664   3.302  0.6438  1.0680 -1.2178
  865MOL0     H19307   7.995   9.588   3.384 -1.6753 -2.6702 -2.1060
  865MOL0     H19308   7.929   9.711   3.269 -0.4250 -0.9357 -1.8964
  865MOL0     H19309   8.053   9.596   3.089  0.3041  0.9264 -1.1137
  865MOL0     H19310   8.129   9.476   3.198 -2.7504 -1.5823  2.9890
  865MOL0     H19311   7.823   9.495   3.179  1.1136  0.4261  0.5609
  865MOL0     H19312   7.924   9.384   3.273  1.3727 -0.6819  0.0495
  865MOL0     H19313   8.029   9.280   3.058 -0.3264 -1.0547 -2.4076
  865MOL0     H19314   7.849   9.268   3.075 -2.2244  2.2139  0.7341
  865MOL0     H19315   7.997   9.466   2.910  0.6617 -0.7422  4.2746
  865MOL0     H19316   7.825   9.449   2.936 -0.4502  1.1031 -0.0345
  865MOL0     H19317   7.843   9.204   2.840  0.8416 -0.6069  0.1051
  865MOL0     H19318   7.845   9.325   2.722  1.3561 -2.0595 -1.8161
  865MOL0     H19319   8.059   9.337   2.583 -0.0069  2.5093  1.5396
  865MOL0     H19320   8.381   9.103   2.553  2.3619  1.1764 -4.3081
  865MOL0     H19321   8.334   9.256   2.502 -1.1566  0.5360 -1.4704
  865MOL0     H19322   8.250   8.975   2.423 -1.5164 -1.0156 -2.3332
  865MOL0     H19323   8.130   9.102   2.384  1.1315  2.0191 -3.3259
  865MOL0     H19324   8.425   9.135   2.298  0.0742  2.2611  0.1435
  865MOL0     H19325   8.307   9.031   2.224  1.2593  0.8383 -1.6954
  865MOL0     H19326   8.314   9.332   2.262 -0.0117  0.3886 -1.5756
  865MOL0     H19327   8.331   9.221   2.119 -1.0847 -4.7648 -0.0614
  865MOL0     H19328   8.129   9.356   1.957  0.7287  0.8429  1.6789
  865MOL0     H19329   8.047   9.368   1.740 -2.4602 -0.7025  0.2873
  865MOL0     H19330   7.986   9.234   1.631  0.5693 -1.1992 -0.0687
  865MOL0     H19331   8.160   9.266   1.672 -0.2285 -1.4090 -0.5085
  865MOL0     H19332   7.867   8.887   1.453  1.6623 -0.2564  0.3277
  865MOL0     H19333   7.712   8.757   1.322  3.2829  1.0601 -0.1091
  865MOL0     H19334   7.470   8.659   1.253  1.1304 -0.1938 -0.4926
  865MOL0     H19335   7.601   8.555   1.219  2.4453  2.3908  1.7929
  865MOL0     H19336   7.385   8.472   1.147  0.8319 -2.3831 -1.5692
  865MOL0     H19337   7.472   8.346   1.234 -2.5181 -1.2973 -0.8859
  865MOL0     H19338   7.318   8.451   1.438 -1.6741  0.4634 -0.2503
  865MOL0     H19339   7.270   8.309   1.344  0.2676  0.1216  1.4662
  865MOL0     H19340   7.156   8.437   1.177 -2.0353  2.4771  0.1726
  865MOL0     H19341   7.212   8.592   1.229 -2.8559  2.0006 -1.6647
  865MOL0     H19342   7.046   8.412   1.419  0.9097 -0.6135 -0.9500
  865MOL0     H19343   7.121   8.567   1.447  0.0361 -0.4332  0.5801
  865MOL0     H19344   6.903   8.511   1.252 -0.5846  1.1985  1.0880
  865MOL0     H19345   6.973   8.671   1.283 -2.4299  1.3055 -0.4961
  865MOL0     H19346   6.876   8.690   1.488  0.6576 -0.8724  0.3172
  865MOL0     H19347   6.866   8.523   1.522 -1.5249 -2.0484 -2.3754
  865MOL0     H19348   6.627   8.587   1.469 -0.5033  1.1191 -1.1287
  865MOL0     H19349   6.679   8.486   1.352  1.7380 -1.5378  2.3147
  865MOL0     H19350   7.535   8.578   1.684  1.8197  0.3938  1.1674
  865MOL0     H19351   7.673   8.719   1.811  2.5902 -0.3226  0.3076
  865MOL0     H19352   7.959   8.889   1.986 -2.2807  1.8010  1.6327
  865MOL0     H19353   8.053   9.010   2.188 -2.5391  0.7026  0.8922
  865MOL0     H19354   8.086  10.020   3.591 -0.6658  1.2702 -0.4056
  865MOL0     H19355   8.115  10.280   3.647 -1.7187 -2.0353 -0.7124
  865MOL0     H19356   8.364  10.624   3.716  0.9407 -0.2436 -0.3576
  865MOL0     H19357   8.422  10.855   3.783 -1.4965 -1.1162  1.4942
  865MOL0     H19358   8.538  11.068   3.769 -0.7322 -1.9683 -0.9297
  865MOL0     H19359   8.491  11.222   3.721  1.3056 -1.6645 -1.5460
  865MOL0     H19360   8.331  11.022   3.878  2.7192 -0.4101  1.6496
  865MOL0     H19361   8.251  11.157   3.809 -0.7918 -2.3758  0.0264
  865MOL0     H19362   8.332  11.220   4.051 -1.4472  3.4854 -0.9501
  865MOL0     H19363   8.483  11.141   4.029 -0.4295 -0.8944 -1.4455
  865MOL0     H19364   8.401  11.415   3.903  0.5111 -0.1950  0.8571
  865MOL0     H19365   8.553  11.314   3.899 -0.0561 -4.1024 -1.1440
  865MOL0     H19366   8.588  11.476   4.272 -0.9104  0.5562  0.9159
  865MOL0     H19367   8.341  10.983   3.380  1.2945  1.3350  2.2289
  865MOL0     H19368   8.179  10.702   3.271 -0.9558  2.0026 -1.3511
  865MOL0     H19369   8.257  10.845   3.214 -0.3934 -0.5901 -0.0871
  865MOL0     H19370   8.353  10.694   3.213 -0.0892 -0.0945 -0.8720
  866MOL0     O19371   4.033  11.352   3.181  0.0533  0.0615 -0.8504
  866MOL0     C19372   3.954  11.431   3.140  0.9729 -0.7063  0.6486
  866MOL0     O19373   3.971  11.566   3.140 -0.4124  0.1736 -0.7541
  866MOL0     C19374   4.105  11.624   3.152  0.7636  1.0392 -0.6692
  866MOL0     C19375   4.112  11.741   3.222  0.0744  0.5514  0.5479
  866MOL0     C19376   4.230  11.797   3.261  0.1852 -0.1342  0.5671
  866MOL0     C19377   4.351  11.741   3.224  0.4524 -1.3571  0.1750
  866MOL0     O19378   4.460  11.800   3.280  0.3010 -0.0192  0.1243
  866MOL0     C19379   4.586  11.726   3.288  0.0499  0.6675  0.6710
  866MOL0     C19380   4.699  11.816   3.352 -0.2557 -0.4853  1.1044
  866MOL0     C19381   4.767  11.913   3.244  0.5754  0.1288  0.3418
  866MOL0     C19382   4.899  11.956   3.306  0.6487  0.7207  0.3879
  866MOL0     C19383   4.957  12.065   3.215  0.3711 -0.7167 -0.8924
  866MOL0     C19384   5.077  12.133   3.276 -0.6727 -0.0025  0.9204
  866MOL0     C19385   5.148  12.263   3.203  0.4741  1.0742  0.3397
  866MOL0     C19386   5.056  12.378   3.197  0.6564  0.1791 -0.3053
  866MOL0     N19387   5.093  12.494   3.271  0.0391 -0.5873 -0.6513
  866MOL0     C19388   5.189  12.586   3.248  0.0905 -0.2697 -0.0646
  866MOL0     C19389   5.177  12.679   3.346 -0.3450  0.8076  0.0909
  866MOL0     C19390   5.249  12.808   3.371 -0.5516  0.4123  0.5571
  866MOL0     C19391   5.174  12.908   3.473 -0.3833  0.7477  0.0696
  866MOL0     C19392   5.223  12.885   3.616 -0.0438 -0.8809 -0.0154
  866MOL0     C19393   5.325  12.774   3.649 -0.0894  0.3779 -0.6859
  866MOL0     O19394   5.338  12.777   3.789 -0.0714 -0.6024  0.8119
  866MOL0     C19395   5.261  12.721   3.880 -0.6042  0.3539 -0.3867
  866MOL0     C19396   5.148  12.660   3.846  0.2897  0.0944 -0.1796
  866MOL0     C19397   5.061  12.610   3.945 -0.6667 -1.5442 -0.4783
  866MOL0     C19398   4.931  12.559   3.902 -0.6849  0.2543  0.5395
  866MOL0     C19399   5.108  12.607   4.077  0.2943 -0.8927 -0.0746
  866MOL0     C19400   5.026  12.547   4.187 -0.7220  0.4558 -0.5486
  866MOL0     O19401   5.069  12.456   4.280 -0.8590 -0.3620  0.5000
  866MOL0     C19402   5.154  12.354   4.242  0.5069  0.4049 -0.3242
  866MOL0     C19403   5.191  12.258   4.334  0.4773 -0.7687  0.1956
  866MOL0     C19404   5.265  12.148   4.296  0.4035 -0.1106 -0.0092
  866MOL0     C19405   5.303  12.116   4.168 -0.3042 -0.8188 -0.5013
  866MOL0     O19406   5.363  11.991   4.164 -0.1853 -0.0042  0.1164
  866MOL0     C19407   5.356  11.925   4.041 -0.4731 -0.1869 -0.2248
  866MOL0     C19408   5.416  11.787   4.048  0.1293 -0.1369 -0.3739
  866MOL0     C19409   5.564  11.796   4.074 -1.0149  0.7979 -0.0222
  866MOL0     C19410   5.641  11.682   3.991 -0.0028  0.0213 -0.5863
  866MOL0     C19411   5.648  11.710   3.835  0.0157 -0.0427 -0.4081
  866MOL0     C19412   5.753  11.625   3.764 -0.2723  0.1353  0.3699
  866MOL0     C19413   5.720  11.625   3.613 -0.4337 -0.1147 -0.5887
  866MOL0     C19414   5.706  11.766   3.557 -0.2529  0.0593  0.1182
  866MOL0    Cl19415   5.549  11.849   3.557  0.2686 -0.4989 -0.2578
  866MOL0     C19416   5.272  12.212   4.073 -0.2796 -0.3450 -0.6062
  866MOL0     C19417   5.190  12.324   4.103  0.2114  0.2950  0.8585
  866MOL0     O19418   4.926  12.613   4.206 -0.4514  1.0073 -0.1072
  866MOL0     C19419   5.222  12.669   4.112 -0.6063 -0.3067  0.5491
  866MOL0     C19420   5.304  12.729   4.017  0.2981 -0.4952  0.6919
  866MOL0     N19421   5.089  12.624   3.438 -0.4174 -0.7247  0.1827
  866MOL0     N19422   5.039  12.520   3.397  0.7272 -0.3554 -0.3204
  866MOL0     C19423   4.346  11.616   3.149  0.1305 -0.1002  0.5876
  866MOL0     C19424   4.225  11.556   3.113 -0.9288 -0.5968  0.4148
  866MOL0     C19425   3.822  11.378   3.101 -0.2206  1.0097  0.4870
  866MOL0     C19426   3.722  11.472   3.063  0.4304  0.8311  0.1360
  866MOL0     C19427   3.601  11.428   3.028 -0.4709  0.3677  0.4245
  866MOL0     C19428   3.588  11.293   2.999  0.5478 -0.2228  0.0392
  866MOL0     O19429   3.474  11.257   2.938 -0.0340  0.5455 -0.0145
  866MOL0     C19430   3.453  11.330   2.817  0.6819 -0.0246 -0.9154
  866MOL0     C19431   3.355  11.271   2.718 -0.6816  0.8848 -0.2903
  866MOL0     C19432   3.225  11.356   2.701 -0.3138  0.1989  0.2166
  866MOL0     C19433   3.109  11.280   2.640  0.1692 -0.0869  0.0428
  866MOL0     C19434   2.977  11.345   2.675  0.7837  0.8817 -0.3993
  866MOL0     C19435   2.864  11.377   2.710  0.7727  0.4682 -0.4534
  866MOL0     C19436   3.682  11.194   3.024 -0.1676  0.0962 -0.8490
  866MOL0     C19437   3.801  11.239   3.085  0.3277 -0.2156 -1.6759
  866MOL0     C19438   3.894  11.121   3.132 -0.6658  0.1378  0.1739
  866MOL0     H19439   4.022  11.800   3.240  0.6195  2.6069 -2.5494
  866MOL0     H19440   4.226  11.882   3.328 -0.0105 -0.7439  1.3458
  866MOL0     H19441   4.616  11.705   3.185 -2.3259  2.6628 -0.5213
  866MOL0     H19442   4.577  11.638   3.353  0.5566 -0.6947 -1.0209
  866MOL0     H19443   4.666  11.871   3.440 -1.3057  0.4002  0.1914
  866MOL0     H19444   4.780  11.748   3.379  0.3089 -0.2993 -0.0579
  866MOL0     H19445   4.779  11.863   3.147  0.8574  2.0272 -0.6398
  866MOL0     H19446   4.706  11.999   3.215  5.0584  2.8915 -2.0478
  866MOL0     H19447   4.867  12.011   3.395 -1.2476  2.4069 -1.2171
  866MOL0     H19448   4.982  11.884   3.309  2.1305  1.6351 -5.6755
  866MOL0     H19449   4.879  12.139   3.194 -0.2409 -0.1338  2.7605
  866MOL0     H19450   4.996  12.018   3.125  3.5227 -0.5251  0.2511
  866MOL0     H19451   5.051  12.164   3.378 -3.3807  0.5407  0.1380
  866MOL0     H19452   5.166  12.069   3.282 -1.9168 -1.6683  2.5734
  866MOL0     H19453   5.167  12.237   3.098 -0.8497  1.2146  0.0503
  866MOL0     H19454   5.242  12.289   3.252  0.0641 -2.4423  3.4155
  866MOL0     H19455   5.051  12.417   3.095  2.7742  0.5753 -0.3008
  866MOL0     H19456   4.956  12.346   3.229  1.5578  0.2895  3.0125
  866MOL0     H19457   5.249  12.595   3.159  1.7626  2.6533  1.2207
  866MOL0     H19458   5.240  12.854   3.272  0.4099 -4.1431 -1.9044
  866MOL0     H19459   5.357  12.794   3.381 -0.2846  0.6344 -1.5382
  866MOL0     H19460   5.181  13.011   3.436 -0.8857  0.7166 -0.1134
  866MOL0     H19461   5.065  12.899   3.471 -0.4283  0.9251  1.1518
  866MOL0     H19462   5.268  12.980   3.648  0.3142 -1.2109  0.4672
  866MOL0     H19463   5.137  12.871   3.682  1.0192  1.8614  2.1696
  866MOL0     H19464   5.285  12.675   3.625 -0.9551  0.2544  1.0929
  866MOL0     H19465   5.425  12.786   3.608  0.4100 -0.7149  0.1764
  866MOL0     H19466   5.121  12.639   3.743  1.9903 -0.2405 -0.5776
  866MOL0     H19467   4.931  12.573   3.793  1.2596  7.3864  0.9595
  866MOL0     H19468   4.843  12.612   3.939 -1.8048 -1.3322  0.2577
  866MOL0     H19469   4.922  12.452   3.925 -0.6241  0.5904  2.2134
  866MOL0     H19470   5.158  12.267   4.437 -0.2966  0.9998 -0.1592
  866MOL0     H19471   5.287  12.081   4.379  1.8254  0.2086 -0.1185
  866MOL0     H19472   5.254  11.914   4.004  0.4883 -1.3932 -2.7619
  866MOL0     H19473   5.416  11.975   3.964  2.0504 -2.4554  0.0921
  866MOL0     H19474   5.378  11.729   4.133  2.8925 -1.2808  0.1877
  866MOL0     H19475   5.395  11.717   3.966 -1.7372  1.0914 -1.0036
  866MOL0     H19476   5.581  11.789   4.181 -0.1479  2.9833  0.0312
  866MOL0     H19477   5.616  11.886   4.039 -0.5817  0.5980  0.0935
  866MOL0     H19478   5.604  11.581   4.010  1.6235 -1.0585 -2.7431
  866MOL0     H19479   5.747  11.685   4.019  0.4003  2.3344 -2.0234
  866MOL0     H19480   5.548  11.684   3.800 -1.2700  1.1950  2.1185
  866MOL0     H19481   5.672  11.814   3.813  1.1490  0.2025  1.6695
  866MOL0     H19482   5.764  11.522   3.796  2.0474 -0.2530 -1.4451
  866MOL0     H19483   5.847  11.678   3.779  1.1287 -2.3034  0.5723
  866MOL0     H19484   5.644  11.561   3.568  0.6009 -0.8590 -1.3339
  866MOL0     H19485   5.809  11.575   3.576 -0.0792 -0.3900  0.5818
  866MOL0     H19486   5.752  11.767   3.457  2.4799  3.3328  1.2253
  866MOL0     H19487   5.774  11.825   3.619 -1.3113  0.7250  0.6644
  866MOL0     H19488   5.298  12.183   3.972 -2.1142  0.7511 -1.4481
  866MOL0     H19489   5.190  12.381   4.011  1.0264 -1.4174 -0.2547
  866MOL0     H19490   5.268  12.665   4.210  2.4271  1.4635 -0.6886
  866MOL0     H19491   5.399  12.777   4.036 -1.2969  3.8922 -1.1853
  866MOL0     H19492   4.435  11.568   3.110 -1.0233 -3.2709  1.5926
  866MOL0     H19493   4.234  11.468   3.050  0.9575  0.1982 -0.5026
  866MOL0     H19494   3.738  11.579   3.056  1.7575  0.6071 -0.5621
  866MOL0     H19495   3.514  11.489   3.006 -2.2570 -2.4332 -0.8717
  866MOL0     H19496   3.413  11.431   2.833  3.7306  1.5729 -2.4078
  866MOL0     H19497   3.547  11.350   2.766  1.9629 -1.0083  0.9436
  866MOL0     H19498   3.341  11.163   2.721 -1.8274  0.9091 -2.6071
  866MOL0     H19499   3.395  11.294   2.619 -0.5102  1.0964 -0.1721
  866MOL0     H19500   3.189  11.363   2.804 -0.0864  0.1998  0.2983
  866MOL0     H19501   3.234  11.456   2.657 -1.9600 -0.1043 -0.9066
  866MOL0     H19502   3.110  11.175   2.669  1.0756 -0.4630 -1.2759
  866MOL0     H19503   3.126  11.286   2.532 -1.8519  0.1687 -0.3154
  866MOL0     H19504   2.778  11.417   2.759 -0.3031 -0.1149 -1.8047
  866MOL0     H19505   3.658  11.090   3.004 -1.4704  0.0225  0.9192
  866MOL0     H19506   3.973  11.095   3.061 -1.2176  1.3471 -0.9312
  866MOL0     H19507   3.931  11.138   3.234 -0.2033 -0.1657  0.0613
  866MOL0     H19508   3.842  11.027   3.151 -1.7021  1.1178  2.6132
  867MOL0     O19509  10.505   2.777   7.160 -0.8966  0.3342  0.7170
  867MOL0     C19510  10.438   2.771   7.048  0.3437  1.0677 -0.4244
  867MOL0     O19511  10.483   2.814   6.921  0.1103 -0.5111 -0.2967
  867MOL0     C19512  10.620   2.818   6.896  0.4265 -0.1298 -0.1738
  867MOL0     C19513  10.709   2.731   6.962 -0.1824 -0.2173 -1.2754
  867MOL0     C19514  10.851   2.736   6.944  0.8456 -0.4762  0.2617
  867MOL0     C19515  10.893   2.818   6.838  0.3090  0.3084  0.1161
  867MOL0     O19516  11.031   2.810   6.826 -0.4521 -0.6415 -0.0252
  867MOL0     C19517  11.093   2.923   6.757 -0.1757 -1.0658  0.4732
  867MOL0     C19518  11.248   2.924   6.755 -0.8553 -0.4679  0.3144
  867MOL0     C19519  11.298   2.914   6.900 -0.2388 -0.6413 -0.6334
  867MOL0     C19520  11.308   3.053   6.960 -0.3834  0.0525 -0.2957
  867MOL0     C19521  11.298   3.054   7.117 -0.2722  0.3765  0.6055
  867MOL0     C19522  11.159   3.001   7.156  0.9587  0.3547 -0.1298
  867MOL0     C19523  11.119   3.044   7.300  0.4022  0.6560  0.2944
  867MOL0     C19524  10.974   3.000   7.341 -0.8790  0.2401 -0.3820
  867MOL0     N19525  10.867   3.085   7.292  0.0154 -0.8019 -0.0879
  867MOL0     C19526  10.800   3.067   7.178 -0.3213 -0.2543 -0.8269
  867MOL0     C19527  10.717   3.176   7.161  0.1757  0.2749 -0.1533
  867MOL0     C19528  10.635   3.232   7.049  0.7131  0.5816 -0.4843
  867MOL0     C19529  10.492   3.175   7.052 -0.0143 -0.3421  0.6272
  867MOL0     C19530  10.409   3.224   6.938  1.3120  0.2540  0.3551
  867MOL0     C19531  10.267   3.174   6.951 -0.0288  0.8059  0.5773
  867MOL0     O19532  10.182   3.235   6.857 -0.0752 -0.3942  0.0732
  867MOL0     C19533  10.049   3.191   6.873  0.2229 -1.1679 -0.2711
  867MOL0     C19534   9.985   3.121   6.973 -0.2487  0.2491  0.8223
  867MOL0     C19535   9.850   3.085   6.973  0.1122  0.2028 -0.7874
  867MOL0     C19536   9.820   2.981   7.085  0.4987 -0.0062  0.0332
  867MOL0     C19537   9.771   3.128   6.870 -0.4812 -0.3574  0.1598
  867MOL0     C19538   9.621   3.092   6.853 -0.3039 -0.6104  0.1471
  867MOL0     O19539   9.552   3.153   6.752 -0.0806 -0.5414  0.1675
  867MOL0     C19540   9.415   3.167   6.780  0.1433 -0.3910 -0.0754
  867MOL0     C19541   9.323   3.063   6.740  0.0987 -0.7080 -0.1093
  867MOL0     C19542   9.191   3.081   6.764  0.4426  0.0643  0.1565
  867MOL0     C19543   9.140   3.189   6.837  0.4943  0.3797 -0.3732
  867MOL0     O19544   9.009   3.178   6.870  0.0232  0.3448  0.3172
  867MOL0     C19545   8.930   3.294   6.888 -0.1311 -0.0257  0.2258
  867MOL0     C19546   8.819   3.302   6.785  0.1836 -0.4040 -0.3621
  867MOL0     C19547   8.856   3.275   6.644 -0.7784 -0.1407 -1.1109
  867MOL0     C19548   8.920   3.388   6.575  1.1522 -0.1415 -0.4868
  867MOL0     C19549   8.942   3.348   6.425  0.0552 -0.8284 -1.1586
  867MOL0     C19550   9.066   3.413   6.356 -0.4450  0.8325 -0.3184
  867MOL0     C19551   9.110   3.344   6.218  0.6489  0.5066 -1.1898
  867MOL0     C19552   9.206   3.224   6.247 -0.4281  0.7085  0.3444
  867MOL0    Cl19553   9.284   3.156   6.091 -0.1480 -0.0197 -0.3340
  867MOL0     C19554   9.233   3.286   6.884 -0.2134 -0.6133  0.5138
  867MOL0     C19555   9.366   3.280   6.853 -0.4515  0.6893  0.6653
  867MOL0     O19556   9.569   3.014   6.932 -0.7308 -0.1317  0.1507
  867MOL0     C19557   9.834   3.185   6.762 -0.6945  0.2756 -0.2336
  867MOL0     C19558   9.971   3.220   6.769  0.5236 -0.1776  0.6452
  867MOL0     N19559  10.728   3.243   7.277 -0.6705  0.4027  0.0703
  867MOL0     N19560  10.835   3.201   7.340 -0.2984  0.2532  0.0081
  867MOL0     C19561  10.806   2.891   6.761 -0.1419 -0.1548  0.3754
  867MOL0     C19562  10.670   2.889   6.789  0.4973 -0.3185 -0.1736
  867MOL0     C19563  10.296   2.733   7.038  1.2200  0.8487 -0.2352
  867MOL0     C19564  10.261   2.649   6.926  0.1636  0.3074  0.3352
  867MOL0     C19565  10.133   2.609   6.907  0.4758 -0.0295 -0.1809
  867MOL0     C19566  10.029   2.657   6.996  0.0440 -0.2807  0.3886
  867MOL0     O19567   9.892   2.642   6.977  1.0448 -0.6190 -0.4005
  867MOL0     C19568   9.848   2.591   6.850  0.5034 -0.9405  0.3667
  867MOL0     C19569   9.700   2.619   6.833  0.3204 -0.7892  0.9960
  867MOL0     C19570   9.656   2.544   6.714 -0.2908 -0.8574  0.2530
  867MOL0     C19571   9.701   2.619   6.582 -0.4506 -0.7402 -0.0505
  867MOL0     C19572   9.666   2.547   6.459  0.1025 -0.3581 -0.8790
  867MOL0     C19573   9.623   2.475   6.376  0.3202 -0.0592  0.5868
  867MOL0     C19574  10.067   2.734   7.111  0.0734  1.0831  0.5345
  867MOL0     C19575  10.200   2.772   7.132  0.0326 -0.1095 -0.1456
  867MOL0     C19576  10.216   2.873   7.243  1.0561 -0.7987 -0.1038
  867MOL0     H19577  10.675   2.662   7.038 -1.3750  1.0443 -0.6368
  867MOL0     H19578  10.919   2.669   6.996  1.3458  1.3758  2.1010
  867MOL0     H19579  11.065   3.015   6.808 -1.7086 -0.1216 -1.9200
  867MOL0     H19580  11.049   2.940   6.658 -1.4026  0.4778  1.2371
  867MOL0     H19581  11.294   2.850   6.689  1.2577 -1.6150  2.9252
  867MOL0     H19582  11.294   3.019   6.725  0.3373 -1.7273 -2.1784
  867MOL0     H19583  11.246   2.843   6.965  1.1810  0.0602  1.3448
  867MOL0     H19584  11.399   2.873   6.898 -0.9257 -2.6350  1.3851
  867MOL0     H19585  11.401   3.100   6.928  0.8328 -2.3624 -0.5263
  867MOL0     H19586  11.224   3.110   6.919 -0.9247 -1.9072 -2.0767
  867MOL0     H19587  11.316   3.156   7.153  3.8525  0.8183 -2.0206
  867MOL0     H19588  11.368   2.992   7.174 -1.2586 -1.3235  0.0355
  867MOL0     H19589  11.078   3.042   7.095 -2.3699 -1.3880  2.7455
  867MOL0     H19590  11.151   2.892   7.151 -2.1794  0.3817  1.8735
  867MOL0     H19591  11.105   3.152   7.308 -3.8353  0.2806  0.2825
  867MOL0     H19592  11.205   3.014   7.360 -0.2555 -0.9927  0.4775
  867MOL0     H19593  10.955   2.896   7.312 -3.0020 -0.5947  3.3075
  867MOL0     H19594  10.976   2.999   7.450  2.9400 -2.2334 -0.2763
  867MOL0     H19595  10.815   2.985   7.109  1.9948  1.8865 -3.0814
  867MOL0     H19596  10.674   3.204   6.951  1.4325 -0.6758  0.1397
  867MOL0     H19597  10.638   3.340   7.068  1.7927  0.5630 -0.4778
  867MOL0     H19598  10.501   3.067   7.038  1.1422 -0.3349  1.2505
  867MOL0     H19599  10.441   3.193   7.147 -1.3269 -2.9784  0.5223
  867MOL0     H19600  10.404   3.334   6.937 -2.3158  0.3736 -4.1674
  867MOL0     H19601  10.453   3.201   6.840 -0.3184  0.7137 -0.5267
  867MOL0     H19602  10.260   3.066   6.941 -0.0225  1.0025 -2.5005
  867MOL0     H19603  10.231   3.205   7.050 -0.4579 -0.0133  0.6842
  867MOL0     H19604  10.054   3.104   7.055  1.5882  3.9525  0.2673
  867MOL0     H19605   9.727   3.020   7.127 -0.8204 -0.7282 -2.0803
  867MOL0     H19606   9.892   2.990   7.167  0.4793 -0.4408  0.0994
  867MOL0     H19607   9.811   2.876   7.057 -1.3448  0.2682 -0.5120
  867MOL0     H19608   9.365   2.976   6.690 -2.0061 -0.1926 -3.0112
  867MOL0     H19609   9.125   3.005   6.723 -1.5014  0.8680  1.6513
  867MOL0     H19610   8.888   3.292   6.989  0.6763  0.1897  0.5802
  867MOL0     H19611   8.998   3.379   6.876  1.2519 -1.1914 -0.5616
  867MOL0     H19612   8.752   3.221   6.813 -4.0456  3.1828  1.0655
  867MOL0     H19613   8.763   3.395   6.799 -0.5452 -0.5572 -2.1248
  867MOL0     H19614   8.764   3.264   6.587 -0.8748  2.0052 -1.4389
  867MOL0     H19615   8.913   3.181   6.640 -3.4830 -1.8323 -3.6066
  867MOL0     H19616   9.014   3.404   6.629  0.9533 -1.1429  0.1786
  867MOL0     H19617   8.856   3.476   6.586 -1.6574 -1.9756 -1.1402
  867MOL0     H19618   8.940   3.239   6.420  1.5224 -0.8493 -1.5728
  867MOL0     H19619   8.854   3.390   6.375  1.1243  3.0914 -0.1033
  867MOL0     H19620   9.157   3.406   6.417 -2.5132 -2.2957  2.8236
  867MOL0     H19621   9.055   3.522   6.359  0.0844  1.0322 -2.9397
  867MOL0     H19622   9.171   3.424   6.173  2.6399  0.0868  0.5958
  867MOL0     H19623   9.033   3.312   6.147 -1.7213  0.6689  1.1468
  867MOL0     H19624   9.153   3.143   6.299  0.4461  0.7798  1.3722
  867MOL0     H19625   9.279   3.253   6.323 -2.4026  2.9210  1.5535
  867MOL0     H19626   9.200   3.358   6.958 -1.2006 -1.3092  0.7710
  867MOL0     H19627   9.431   3.354   6.899  2.8198 -2.0168  0.8667
  867MOL0     H19628   9.769   3.225   6.685 -2.5361  2.2218  2.1811
  867MOL0     H19629  10.015   3.277   6.688  0.0663  1.3043  1.4193
  867MOL0     H19630  10.832   2.952   6.675  1.5308 -3.4973 -1.7071
  867MOL0     H19631  10.593   2.941   6.733 -0.1538  2.3301  2.8698
  867MOL0     H19632  10.320   2.620   6.839 -0.6114  2.0965 -0.8546
  867MOL0     H19633  10.108   2.568   6.810 -1.2978 -1.8480  0.9694
  867MOL0     H19634   9.896   2.649   6.770 -0.9830 -1.2038 -0.7440
  867MOL0     H19635   9.871   2.484   6.855 -0.9341 -1.2606  4.8923
  867MOL0     H19636   9.683   2.727   6.836  0.8217 -0.6853  0.1780
  867MOL0     H19637   9.640   2.571   6.911 -1.3487 -1.4010 -0.5834
  867MOL0     H19638   9.697   2.443   6.709  0.6218 -0.4526 -1.1408
  867MOL0     H19639   9.547   2.542   6.714 -0.2995 -1.6319 -0.8681
  867MOL0     H19640   9.808   2.641   6.583 -0.8465  1.4690 -0.1603
  867MOL0     H19641   9.647   2.714   6.577  0.1955 -0.3236  0.6285
  867MOL0     H19642   9.581   2.416   6.298  0.0100 -0.2140  0.8718
  867MOL0     H19643   9.990   2.761   7.182 -1.3758 -1.7675  0.1965
  867MOL0     H19644  10.140   2.951   7.229  1.2537 -0.5275  0.3334
  867MOL0     H19645  10.201   2.827   7.341 -0.5374 -1.0469 -0.4341
  867MOL0     H19646  10.312   2.926   7.245  1.9793 -2.3110  3.3317
  868MOL0     O19647  10.122  10.103  10.835 -0.1584 -0.5274 -0.5144
  868MOL0     C19648  10.093  10.170  10.729 -0.2709  0.0563 -0.0416
  868MOL0     O19649  10.179  10.184  10.620 -0.9426  0.2122 -0.8370
  868MOL0     C19650  10.315  10.164  10.655  0.1318 -0.2121 -0.3155
  868MOL0     C19651  10.369  10.046  10.641  0.2091  1.3565  0.7199
  868MOL0     C19652  10.504  10.020  10.669 -0.2881 -0.3276 -0.1308
  868MOL0     C19653  10.582  10.118  10.728 -0.9695 -0.6812 -0.4369
  868MOL0     O19654  10.714  10.083  10.752 -0.2718 -0.2123  0.4413
  868MOL0     C19655  10.805  10.184  10.797 -0.3391 -0.7430  0.1134
  868MOL0     C19656  10.962  10.144  10.800  0.5992  0.2272 -0.3709
  868MOL0     C19657  11.019  10.114  10.653  0.6276 -0.5450 -0.6120
  868MOL0     C19658  11.182  10.115  10.660 -0.1879 -0.2044  0.7239
  868MOL0     C19659  11.248  10.133  10.520 -0.2294  1.1627  0.0244
  868MOL0     C19660  11.243  10.006  10.428  0.0174  0.6711  0.2867
  868MOL0     C19661  11.320  10.010  10.296 -0.0760  0.7545 -0.0682
  868MOL0     C19662  11.463   9.956  10.312  0.2246 -0.1305  0.1307
  868MOL0     N19663  11.561  10.021  10.231  0.5365 -0.0747  1.3598
  868MOL0     C19664  11.649   9.959  10.146 -0.8902  0.1720 -0.1259
  868MOL0     C19665  11.727  10.056  10.092  0.5727  1.0293  0.3510
  868MOL0     C19666  11.840  10.015  10.004 -0.5101  0.2024 -0.7705
  868MOL0     C19667  11.899  10.131   9.918  0.1365 -0.1824  0.1288
  868MOL0     C19668  11.993  10.067   9.808 -0.4326 -0.1658  0.1059
  868MOL0     C19669  12.045  10.165   9.704 -0.7520  1.3661 -0.3154
  868MOL0     O19670  12.115  10.266   9.780 -0.8620 -0.0924 -0.0935
  868MOL0     C19671  12.158  10.374   9.699 -0.4440  0.7658 -1.1018
  868MOL0     C19672  12.150  10.395   9.559  0.3262 -0.4203 -0.7993
  868MOL0     C19673  12.176  10.509   9.494  0.8543 -1.5454  0.6276
  868MOL0     C19674  12.163  10.518   9.346 -0.1128  0.3286  0.5777
  868MOL0     C19675  12.228  10.619   9.569 -0.6237 -0.1912  0.4453
  868MOL0     C19676  12.267  10.752   9.511 -0.9535  0.3376 -0.4812
  868MOL0     O19677  12.334  10.828   9.599  0.0512  0.0212 -0.5660
  868MOL0     C19678  12.377  10.955   9.555 -0.1456  0.5441  0.2113
  868MOL0     C19679  12.336  11.068   9.624 -1.0164  0.2114  1.2297
  868MOL0     C19680  12.387  11.191   9.582  0.6083  0.3796  0.0176
  868MOL0     C19681  12.479  11.199   9.472  0.2486 -0.5596  0.4610
  868MOL0     O19682  12.522  11.326   9.449  0.5538 -0.3687 -0.6721
  868MOL0     C19683  12.625  11.348   9.352  0.2143  0.5357 -0.9110
  868MOL0     C19684  12.638  11.501   9.357  0.4341 -0.0887 -0.3009
  868MOL0     C19685  12.560  11.562   9.237  0.4902  0.5479  0.5836
  868MOL0     C19686  12.405  11.555   9.233  0.1320 -0.1717  0.4545
  868MOL0     C19687  12.321  11.633   9.135 -1.6186  1.0021  0.2209
  868MOL0     C19688  12.170  11.624   9.170 -0.1670  0.8957 -0.3211
  868MOL0     C19689  12.081  11.684   9.064 -1.3706 -0.6210 -0.8485
  868MOL0     C19690  11.943  11.626   9.048  0.1896 -0.5063  0.0217
  868MOL0    Cl19691  11.845  11.613   9.197  0.2817  0.1224  0.2517
  868MOL0     C19692  12.523  11.086   9.408  0.3874 -0.4977  0.5599
  868MOL0     C19693  12.476  10.959   9.450  0.5387  0.0471  0.1063
  868MOL0     O19694  12.224  10.783   9.403  0.5016  0.0690 -0.2012
  868MOL0     C19695  12.249  10.591   9.707  0.6225 -0.4044 -0.2178
  868MOL0     C19696  12.207  10.476   9.769  0.0251  0.4098 -0.5566
  868MOL0     N19697  11.703  10.178  10.157  0.7375  1.4599 -0.4682
  868MOL0     N19698  11.598  10.150  10.238  0.2303  0.1803  0.5936
  868MOL0     C19699  10.523  10.242  10.751  0.5428  0.3508 -0.1432
  868MOL0     C19700  10.388  10.263  10.718 -0.4634 -0.1406 -0.0058
  868MOL0     C19701   9.962  10.219  10.712 -0.8948  0.0270  0.1908
  868MOL0     C19702   9.908  10.308  10.805 -0.5312 -1.5827 -0.8619
  868MOL0     C19703   9.780  10.370  10.783 -1.5024 -0.8220  0.1049
  868MOL0     C19704   9.701  10.326  10.675  1.3117  0.2395 -0.6447
  868MOL0     O19705   9.577  10.383  10.630 -0.2907 -0.2906 -0.5491
  868MOL0     C19706   9.507  10.468  10.717  0.1502  1.0311 -1.3104
  868MOL0     C19707   9.382  10.519  10.645 -0.6606  0.8387  0.2070
  868MOL0     C19708   9.318  10.626  10.736  0.3994 -0.7728 -0.2106
  868MOL0     C19709   9.171  10.645  10.689  0.6492 -0.0314 -0.2186
  868MOL0     C19710   9.171  10.734  10.573 -0.1245  0.0783  0.3410
  868MOL0     C19711   9.161  10.797  10.475 -0.7981 -0.2319  0.6835
  868MOL0     C19712   9.752  10.236  10.582  0.2692 -0.1420  0.0882
  868MOL0     C19713   9.876  10.171  10.609  0.1059 -0.9596 -0.1029
  868MOL0     C19714   9.918  10.057  10.527 -0.0819  0.4646  0.0150
  868MOL0     H19715  10.307   9.964  10.605  1.9870  0.0650  0.4958
  868MOL0     H19716  10.547   9.928  10.631 -1.1906 -0.9373  0.2773
  868MOL0     H19717  10.773  10.205  10.900 -0.9702  2.5303 -0.6457
  868MOL0     H19718  10.798  10.282  10.749  0.4685 -0.0701  1.3120
  868MOL0     H19719  11.024  10.218  10.851  0.5412 -0.4919  0.7682
  868MOL0     H19720  10.983  10.047  10.846  1.6781 -0.0861 -1.4659
  868MOL0     H19721  10.981  10.019  10.613 -2.7219 -0.0703  1.0949
  868MOL0     H19722  10.982  10.190  10.583 -1.8964  0.3090  1.4885
  868MOL0     H19723  11.217  10.209  10.704  1.4088 -0.1922 -0.4704
  868MOL0     H19724  11.227  10.039  10.724  0.4567  0.1157  0.6654
  868MOL0     H19725  11.353  10.156  10.543  0.4535 -0.1384 -1.5915
  868MOL0     H19726  11.192  10.213  10.471 -2.4605 -1.7340 -2.5715
  868MOL0     H19727  11.262   9.917  10.489  0.4889  1.4596  1.3316
  868MOL0     H19728  11.135  10.006  10.411 -0.0585  2.8738  0.4924
  868MOL0     H19729  11.327  10.113  10.260  0.0749  0.2293 -1.6296
  868MOL0     H19730  11.272   9.949  10.219 -0.8475  0.2992  0.7515
  868MOL0     H19731  11.481   9.975  10.418  0.5135  0.5492 -0.0339
  868MOL0     H19732  11.475   9.849  10.294  0.2527 -0.3099  1.1273
  868MOL0     H19733  11.671   9.854  10.131 -1.6731  0.3445 -3.0896
  868MOL0     H19734  11.794   9.945   9.934  2.0132  0.9319 -3.3351
  868MOL0     H19735  11.917   9.954  10.053 -1.3219  0.5991  1.1024
  868MOL0     H19736  11.820  10.181   9.862  1.8059  1.7115 -0.6973
  868MOL0     H19737  11.956  10.207   9.973  1.8573  0.3692 -2.2504
  868MOL0     H19738  12.084  10.028   9.856 -0.5203 -1.5065 -0.7626
  868MOL0     H19739  11.942   9.983   9.761 -0.8267 -0.4615  1.0381
  868MOL0     H19740  12.120  10.115   9.643 -0.6580  3.3526 -1.9403
  868MOL0     H19741  11.963  10.196   9.639  1.5648  2.1850 -3.0532
  868MOL0     H19742  12.138  10.314   9.487 -2.5252 -1.6248  0.8298
  868MOL0     H19743  12.257  10.552   9.301 -0.2996 -0.4300 -0.4444
  868MOL0     H19744  12.087  10.590   9.315 -2.4043 -2.0711  0.2078
  868MOL0     H19745  12.151  10.422   9.294  0.6705  0.2583  0.5130
  868MOL0     H19746  12.267  11.065   9.708 -2.5832  2.4397  0.1215
  868MOL0     H19747  12.355  11.288   9.618 -3.9026 -0.9660  0.2075
  868MOL0     H19748  12.715  11.299   9.391 -0.8550  0.5239  1.7832
  868MOL0     H19749  12.609  11.313   9.250  0.9452 -0.5848 -0.6702
  868MOL0     H19750  12.612  11.549   9.452  0.9900  3.0672 -1.6012
  868MOL0     H19751  12.745  11.521   9.351  0.6553 -0.8208  1.0537
  868MOL0     H19752  12.591  11.531   9.136 -3.6951  4.3972 -2.2755
  868MOL0     H19753  12.582  11.669   9.235  1.3300  0.6015  4.5565
  868MOL0     H19754  12.368  11.577   9.333 -1.5976 -5.6701  1.3985
  868MOL0     H19755  12.383  11.449   9.217  2.1483 -0.9025  2.1659
  868MOL0     H19756  12.345  11.740   9.124 -0.0914  0.5722 -1.0844
  868MOL0     H19757  12.341  11.587   9.038 -3.3322  2.7264 -1.0407
  868MOL0     H19758  12.152  11.663   9.271 -0.0315 -1.0256  0.4982
  868MOL0     H19759  12.146  11.517   9.171  0.3087  0.7736  1.3559
  868MOL0     H19760  12.136  11.689   8.969  0.0350  3.0486 -0.0545
  868MOL0     H19761  12.083  11.792   9.081  2.5938 -0.3223 -2.0304
  868MOL0     H19762  11.946  11.528   9.000 -0.2832  0.1109 -1.2977
  868MOL0     H19763  11.885  11.698   8.989  0.0796 -0.3658  0.2970
  868MOL0     H19764  12.594  11.090   9.326 -0.4409  0.4735 -0.1426
  868MOL0     H19765  12.497  10.868   9.393 -0.0024  0.9704 -1.6511
  868MOL0     H19766  12.281  10.669   9.776  0.6603 -1.7699  1.3578
  868MOL0     H19767  12.198  10.471   9.877  0.1713  0.4351 -0.5429
  868MOL0     H19768  10.579  10.320  10.802  0.3396  0.4739 -0.1106
  868MOL0     H19769  10.344  10.362  10.729 -0.7229 -0.0171 -1.8485
  868MOL0     H19770   9.976  10.349  10.879  1.3175 -0.6815 -2.9122
  868MOL0     H19771   9.759  10.447  10.857  0.6043 -0.0590 -0.0198
  868MOL0     H19772   9.479  10.429  10.815 -0.4501  2.9868 -0.6609
  868MOL0     H19773   9.566  10.558  10.738  1.9684 -0.4289  0.2335
  868MOL0     H19774   9.313  10.434  10.640  1.6348 -1.2403  1.1205
  868MOL0     H19775   9.402  10.554  10.544  0.6081 -0.4533 -0.0225
  868MOL0     H19776   9.307  10.591  10.839  0.1883  1.9197  0.7474
  868MOL0     H19777   9.383  10.713  10.741 -0.5710 -0.0584  0.4764
  868MOL0     H19778   9.111  10.698  10.764 -0.9516  3.1738 -3.4664
  868MOL0     H19779   9.114  10.557  10.661  0.6500  0.4988 -1.9960
  868MOL0     H19780   9.152  10.870  10.397  3.1680  1.3461  1.4415
  868MOL0     H19781   9.718  10.215  10.481 -2.2722 -1.4876  1.1183
  868MOL0     H19782   9.942  10.089  10.425 -0.9681  0.6873 -0.1362
  868MOL0     H19783  10.000  10.001  10.571 -1.1528 -1.0706  0.1434
  868MOL0     H19784   9.838   9.982  10.517 -3.2008  3.5145  0.0222
  869MOL0     O19785   7.541   7.766   7.046  0.0366 -0.0231  0.0246
  869MOL0     C19786   7.591   7.880   7.037  0.0389 -0.0440  1.1551
  869MOL0     O19787   7.675   7.928   7.138  0.3618  0.2033 -0.0349
  869MOL0     C19788   7.715   7.835   7.226  0.2410  0.1673 -0.9398
  869MOL0     C19789   7.667   7.816   7.353  0.6430  0.1561  0.3859
  869MOL0     C19790   7.738   7.730   7.445  0.2266  0.3055  0.4223
  869MOL0     C19791   7.864   7.664   7.412  0.2800  0.3476 -0.3721
  869MOL0     O19792   7.933   7.570   7.488 -0.4130  0.1053  0.3677
  869MOL0     C19793   7.863   7.519   7.609 -0.7691 -0.4333 -0.3489
  869MOL0     C19794   7.870   7.627   7.719  0.2512  0.5565 -1.2709
  869MOL0     C19795   8.003   7.704   7.745 -0.1110  0.5137 -0.4173
  869MOL0     C19796   8.093   7.596   7.799  0.2771 -0.3521  0.2253
  869MOL0     C19797   8.201   7.661   7.883  0.1772  0.9928 -0.2669
  869MOL0     C19798   8.314   7.720   7.780 -0.6711 -0.1847 -0.1523
  869MOL0     C19799   8.408   7.790   7.875 -1.1806  0.0539 -0.5871
  869MOL0     C19800   8.504   7.894   7.811  0.4562  0.1367  0.8562
  869MOL0     N19801   8.635   7.841   7.758 -0.4047  0.7578  0.1361
  869MOL0     C19802   8.655   7.700   7.739  0.0050  0.4744  0.9168
  869MOL0     C19803   8.785   7.682   7.773  0.2942 -0.0497  0.6136
  869MOL0     C19804   8.867   7.558   7.776  0.3484 -0.4551  0.2890
  869MOL0     C19805   8.783   7.448   7.726 -0.1022 -0.6804  0.8168
  869MOL0     C19806   8.855   7.315   7.716 -0.0223 -0.4091  0.3339
  869MOL0     C19807   8.898   7.276   7.579  0.5378  0.4348 -0.2225
  869MOL0     O19808   8.939   7.143   7.566 -0.4708  0.0195 -0.2784
  869MOL0     C19809   8.849   7.047   7.591 -0.3955  0.2005 -0.9354
  869MOL0     C19810   8.715   7.051   7.548 -0.5910  1.6841  0.0868
  869MOL0     C19811   8.627   6.950   7.580  0.2031  0.1429  0.0498
  869MOL0     C19812   8.491   6.972   7.523 -0.5512  0.0470  0.4552
  869MOL0     C19813   8.673   6.835   7.649  0.2515  0.3753  0.4892
  869MOL0     C19814   8.574   6.726   7.680 -0.7769 -0.1115  0.3523
  869MOL0     O19815   8.630   6.605   7.705 -0.5754  0.0726  0.3156
  869MOL0     C19816   8.577   6.530   7.802  0.4212  0.6035 -0.2442
  869MOL0     C19817   8.442   6.491   7.824  0.9061 -0.0058 -1.5425
  869MOL0     C19818   8.390   6.401   7.919  0.0812 -0.1966  0.9834
  869MOL0     C19819   8.475   6.347   8.012  0.0958  0.1149  0.8335
  869MOL0     O19820   8.432   6.272   8.111  0.1416 -0.1609  0.0208
  869MOL0     C19821   8.418   6.136   8.068 -0.1699 -0.0912 -0.2919
  869MOL0     C19822   8.276   6.073   8.121  0.0395 -0.1213  0.6152
  869MOL0     C19823   8.151   6.144   8.058 -0.0489  0.5791  0.5722
  869MOL0     C19824   8.018   6.090   8.114 -0.4105  0.4115 -0.0204
  869MOL0     C19825   7.976   5.949   8.056  0.2421 -0.0188 -0.7195
  869MOL0     C19826   7.904   5.864   8.169  1.3463 -0.5427 -0.2835
  869MOL0     C19827   7.865   5.735   8.108  0.0731 -0.1247  0.7549
  869MOL0     C19828   7.781   5.644   8.190 -0.5155 -0.4918 -0.6666
  869MOL0    Cl19829   7.628   5.714   8.204 -0.2542  0.3545 -0.1885
  869MOL0     C19830   8.608   6.376   8.001  1.1287 -0.1296  0.6167
  869MOL0     C19831   8.661   6.462   7.888  1.3690 -1.1047 -0.4798
  869MOL0     O19832   8.462   6.757   7.701 -0.7909 -0.4222  0.0226
  869MOL0     C19833   8.803   6.825   7.686 -0.3828  0.6696 -0.2062
  869MOL0     C19834   8.895   6.933   7.667  0.1186  0.6296  0.2186
  869MOL0     N19835   8.837   7.806   7.805  0.2143  0.0253  0.4130
  869MOL0     N19836   8.745   7.904   7.794  0.7134 -0.8384  0.4233
  869MOL0     C19837   7.914   7.689   7.294  0.1419  0.3187 -0.2835
  869MOL0     C19838   7.841   7.762   7.196 -0.0725  0.2760  0.4285
  869MOL0     C19839   7.553   7.961   6.917 -0.7988  0.1361  0.7301
  869MOL0     C19840   7.568   8.102   6.924  0.1711 -0.5640  0.2873
  869MOL0     C19841   7.524   8.184   6.823 -0.0802 -0.1878 -0.0117
  869MOL0     C19842   7.469   8.134   6.707  0.7830 -0.7829  0.1874
  869MOL0     O19843   7.424   8.221   6.604 -0.2378  0.2279 -0.3276
  869MOL0     C19844   7.403   8.175   6.473  0.0674  0.2737 -0.1312
  869MOL0     C19845   7.469   8.272   6.379 -0.2414  0.0365  0.3995
  869MOL0     C19846   7.625   8.257   6.354  0.2153 -0.2992  0.4898
  869MOL0     C19847   7.711   8.235   6.472 -0.0903 -0.5004  0.4656
  869MOL0     C19848   7.726   8.354   6.564  0.3428  0.4638 -0.3716
  869MOL0     C19849   7.738   8.437   6.655  0.0740  0.7552  0.1790
  869MOL0     C19850   7.470   7.998   6.689  0.3620 -0.4686 -1.4419
  869MOL0     C19851   7.510   7.907   6.792  0.9881  0.4832  0.3180
  869MOL0     C19852   7.478   7.760   6.767 -0.7776 -0.7233 -1.0205
  869MOL0     H19853   7.573   7.859   7.387  0.6499 -0.3167  1.0234
  869MOL0     H19854   7.680   7.727   7.537 -0.3326 -1.3760  0.0526
  869MOL0     H19855   7.918   7.439   7.658  0.0870  1.3017  1.6588
  869MOL0     H19856   7.761   7.488   7.583 -1.0883  0.2481  0.0644
  869MOL0     H19857   7.793   7.705   7.716  0.1217  0.5930  1.0346
  869MOL0     H19858   7.852   7.570   7.811  1.6378 -2.7733 -2.8924
  869MOL0     H19859   8.031   7.756   7.654  1.2506  0.0923 -0.2569
  869MOL0     H19860   7.991   7.780   7.823 -1.2193  2.1170 -2.0595
  869MOL0     H19861   8.043   7.510   7.845  0.1768  0.3862  1.5334
  869MOL0     H19862   8.141   7.551   7.712  0.1433 -4.0379  1.8699
  869MOL0     H19863   8.248   7.575   7.931 -2.0419  0.5006  1.1433
  869MOL0     H19864   8.165   7.733   7.957  1.0208  0.2283  0.9006
  869MOL0     H19865   8.366   7.642   7.724 -0.9124 -1.1702  0.9445
  869MOL0     H19866   8.268   7.792   7.713 -0.9743 -1.4518 -1.3603
  869MOL0     H19867   8.458   7.708   7.927 -2.0988 -1.2818 -1.7322
  869MOL0     H19868   8.345   7.849   7.942 -2.2568  0.7814 -2.1839
  869MOL0     H19869   8.456   7.965   7.743 -1.6028  0.4316  2.5174
  869MOL0     H19870   8.536   7.957   7.894 -1.4096  3.5436 -0.8100
  869MOL0     H19871   8.585   7.628   7.697  1.5207  0.9157 -2.7717
  869MOL0     H19872   8.906   7.533   7.875 -0.1173 -1.0741  0.3209
  869MOL0     H19873   8.956   7.567   7.712  0.8689  2.5248  1.2626
  869MOL0     H19874   8.691   7.434   7.784 -0.6824 -2.0135 -0.3759
  869MOL0     H19875   8.743   7.465   7.626  0.4629  0.1465  0.7141
  869MOL0     H19876   8.941   7.297   7.782  1.0949 -0.5872 -1.1237
  869MOL0     H19877   8.790   7.236   7.754  0.9017 -2.3243 -1.8179
  869MOL0     H19878   8.826   7.302   7.501  4.1030  2.4794 -3.2096
  869MOL0     H19879   8.989   7.334   7.558  0.0048  1.1031 -0.7469
  869MOL0     H19880   8.672   7.123   7.479 -0.7866 -0.1470 -1.8168
  869MOL0     H19881   8.482   7.060   7.459  4.1830 -1.8599 -3.4623
  869MOL0     H19882   8.426   6.982   7.611  0.0762 -1.8103  1.1779
  869MOL0     H19883   8.467   6.883   7.464 -1.2178 -0.6673  1.7458
  869MOL0     H19884   8.361   6.540   7.772  2.4027  2.4788 -1.6802
  869MOL0     H19885   8.283   6.383   7.928  0.3288 -1.9491  0.7933
  869MOL0     H19886   8.427   6.129   7.959  2.4559  2.3805 -0.3586
  869MOL0     H19887   8.494   6.074   8.115 -0.2140  1.4025  1.8908
  869MOL0     H19888   8.281   5.970   8.083  0.2664 -0.2067  0.8737
  869MOL0     H19889   8.269   6.072   8.230  0.8524  0.4374  0.6844
  869MOL0     H19890   8.158   6.129   7.949  3.0886 -1.6346  0.9354
  869MOL0     H19891   8.168   6.250   8.079  1.5011  0.8595 -1.6358
  869MOL0     H19892   7.946   6.154   8.063  2.5804  1.7868 -2.9348
  869MOL0     H19893   8.023   6.094   8.223  0.9408 -1.8828  0.0813
  869MOL0     H19894   7.908   5.966   7.972 -1.4030 -1.9347  0.1371
  869MOL0     H19895   8.073   5.903   8.034  0.8833  1.7604 -1.8355
  869MOL0     H19896   7.814   5.910   8.211  0.7102 -2.1505  0.1539
  869MOL0     H19897   7.975   5.856   8.252  4.4141  0.5397 -2.5863
  869MOL0     H19898   7.958   5.685   8.079  0.2940  0.4442  0.4540
  869MOL0     H19899   7.805   5.753   8.018 -0.5281 -0.0767  1.1604
  869MOL0     H19900   7.824   5.632   8.290 -1.1645 -0.3480 -0.3641
  869MOL0     H19901   7.776   5.547   8.139  1.1222  0.3971 -2.6766
  869MOL0     H19902   8.672   6.318   8.067 -0.2310 -2.1776  0.2501
  869MOL0     H19903   8.764   6.482   7.863  0.8323  0.7083 -1.4207
  869MOL0     H19904   8.849   6.737   7.730 -0.1414 -1.4410 -4.2414
  869MOL0     H19905   9.000   6.925   7.690 -0.1060 -2.6038  0.5826
  869MOL0     H19906   8.003   7.637   7.259 -0.1394 -1.7709  1.7997
  869MOL0     H19907   7.888   7.776   7.099 -1.6715 -2.1341 -0.8165
  869MOL0     H19908   7.616   8.161   7.001 -0.6179 -1.0377  1.1565
  869MOL0     H19909   7.553   8.288   6.828  1.7502 -0.7259  1.8095
  869MOL0     H19910   7.442   8.074   6.457 -2.0370 -1.1882  2.9838
  869MOL0     H19911   7.297   8.176   6.446  0.1560 -0.0464 -0.4894
  869MOL0     H19912   7.435   8.372   6.411 -2.7257 -0.3017 -0.9534
  869MOL0     H19913   7.411   8.250   6.289  1.7604 -0.3021 -0.8578
  869MOL0     H19914   7.636   8.169   6.290  0.6791 -2.6918  3.5790
  869MOL0     H19915   7.659   8.349   6.305  0.9781 -0.6727  0.2972
  869MOL0     H19916   7.809   8.239   6.424  0.6326  2.5561  1.9501
  869MOL0     H19917   7.686   8.143   6.526  0.7421 -1.3088 -0.4720
  869MOL0     H19918   7.720   8.508   6.733 -1.2737 -1.3490  1.9026
  869MOL0     H19919   7.435   7.947   6.599 -2.3440 -1.3701  0.0203
  869MOL0     H19920   7.485   7.751   6.659  1.2356  3.6320 -1.4984
  869MOL0     H19921   7.558   7.696   6.806  1.5840  3.0745  1.1141
  869MOL0     H19922   7.387   7.729   6.819  0.2273 -0.7287  0.8237
  870MOL0     O19923  10.900   1.378   4.470  0.1903 -0.1311 -0.2368
  870MOL0     C19924  10.995   1.300   4.437  0.4619 -0.3073 -0.5576
  870MOL0     O19925  11.060   1.224   4.531  0.4174  0.0406 -0.2147
  870MOL0     C19926  11.041   1.247   4.658 -0.5058 -0.1888 -0.9932
  870MOL0     C19927  11.039   1.136   4.740 -0.4584  1.2081  0.1826
  870MOL0     C19928  11.078   1.131   4.868  0.4903  0.3839  1.2659
  870MOL0     C19929  11.119   1.250   4.933  1.4629 -0.1251 -0.2842
  870MOL0     O19930  11.170   1.245   5.060 -0.7761 -0.4298 -0.3677
  870MOL0     C19931  11.240   1.125   5.110  0.5828 -0.6966  0.3830
  870MOL0     C19932  11.328   1.162   5.234  0.8265  0.2246  0.4091
  870MOL0     C19933  11.260   1.239   5.344  0.6451  0.1725  0.4564
  870MOL0     C19934  11.142   1.158   5.393  0.3405  0.3106  0.2610
  870MOL0     C19935  11.095   1.194   5.536  0.0130 -0.7953  0.0133
  870MOL0     C19936  11.201   1.134   5.629  0.1316  0.5576 -0.5587
  870MOL0     C19937  11.168   1.108   5.774 -0.1152  0.1145 -0.1350
  870MOL0     C19938  11.166   0.963   5.821 -0.4690  0.0488  0.9259
  870MOL0     N19939  11.293   0.886   5.804 -0.1731  0.1193  0.2566
  870MOL0     C19940  11.309   0.797   5.702  0.0993 -0.1329  0.7774
  870MOL0     C19941  11.441   0.756   5.706  0.6843 -0.0987 -1.1130
  870MOL0     C19942  11.492   0.660   5.611 -0.2642  0.0520  0.2695
  870MOL0     C19943  11.599   0.738   5.523  0.3997 -0.1623  0.4021
  870MOL0     C19944  11.549   0.743   5.372 -0.4655  0.2497  0.2022
  870MOL0     C19945  11.552   0.605   5.315  0.8918  0.3061  0.8268
  870MOL0     O19946  11.522   0.612   5.177 -0.0815  0.2201 -0.6917
  870MOL0     C19947  11.482   0.495   5.098 -0.3453 -0.0076 -0.7046
  870MOL0     C19948  11.361   0.466   5.059  1.3383  0.2325 -1.1358
  870MOL0     C19949  11.320   0.352   5.002 -0.3073  0.7628  0.7051
  870MOL0     C19950  11.174   0.336   4.961 -0.2298  0.4479 -0.8597
  870MOL0     C19951  11.424   0.249   4.966  0.1622 -0.0094 -0.2379
  870MOL0     C19952  11.395   0.116   4.916 -0.1499 -0.4472  0.1424
  870MOL0     O19953  11.261   0.080   4.916  0.4217  0.9166  0.1954
  870MOL0     C19954  11.216  -0.051   4.884 -0.7799 -0.7805 -1.1155
  870MOL0     C19955  11.086  -0.057   4.866  0.0946  0.4120  0.6040
  870MOL0     C19956  11.028  -0.187   4.863  0.6974  0.1330 -1.0631
  870MOL0     C19957  11.097  -0.305   4.877 -0.2468 -0.7137  0.6368
  870MOL0     O19958  11.033  -0.424   4.887  0.5642 -0.2778  0.4202
  870MOL0     C19959  10.918  -0.432   4.969  0.3516 -0.4109 -0.0329
  870MOL0     C19960  10.879  -0.580   4.967  0.3277  0.1691  0.2700
  870MOL0     C19961  10.762  -0.610   5.058  0.2646  0.2224 -0.4474
  870MOL0     C19962  10.727  -0.752   5.062  0.5921  0.0408 -0.1667
  870MOL0     C19963  10.584  -0.783   5.108  0.1882 -0.4564  0.2913
  870MOL0     C19964  10.567  -0.925   5.142 -0.2676  0.1088 -0.5787
  870MOL0     C19965  10.407  -0.945   5.132  0.4826 -1.0275 -0.1230
  870MOL0     C19966  10.360  -1.071   5.209  0.3938 -0.0028 -0.0275
  870MOL0    Cl19967  10.377  -1.216   5.107 -0.1263 -0.2781  0.1864
  870MOL0     C19968  11.233  -0.297   4.886 -0.0490  0.6622  0.2540
  870MOL0     C19969  11.292  -0.171   4.888  0.5878 -1.5219 -0.9948
  870MOL0     O19970  11.483   0.054   4.865 -0.2497 -0.0142  0.3050
  870MOL0     C19971  11.554   0.280   5.003  0.2257  1.1895  0.1386
  870MOL0     C19972  11.581   0.408   5.063  0.1081  0.0813  0.0824
  870MOL0     N19973  11.493   0.820   5.813  0.1873  1.0499  0.3877
  870MOL0     N19974  11.410   0.911   5.861 -0.3048  0.4760 -0.3769
  870MOL0     C19975  11.100   1.364   4.860 -0.7638  0.5259  0.3496
  870MOL0     C19976  11.055   1.370   4.726 -0.6639 -0.7491 -1.3970
  870MOL0     C19977  11.019   1.287   4.287  0.5875  0.6444 -0.3718
  870MOL0     C19978  10.957   1.383   4.207 -0.7292 -0.3961 -0.1033
  870MOL0     C19979  10.992   1.395   4.071  0.3222 -0.6943 -0.0114
  870MOL0     C19980  11.065   1.297   4.007  0.3787  0.3889 -0.9261
  870MOL0     O19981  11.078   1.283   3.870  0.0648  0.5237  0.0566
  870MOL0     C19982  11.120   1.386   3.791 -0.5531  0.0693  0.3927
  870MOL0     C19983  11.168   1.335   3.651  0.1711 -0.6281  0.5417
  870MOL0     C19984  11.238   1.206   3.653  0.5752  0.7062  0.0925
  870MOL0     C19985  11.351   1.195   3.757 -0.3607  0.1338  0.7803
  870MOL0     C19986  11.432   1.079   3.750 -0.3147  0.2362 -0.0524
  870MOL0     C19987  11.514   0.991   3.743 -1.3894  0.6232  0.7905
  870MOL0     C19988  11.104   1.190   4.081  0.1622 -1.3068  0.4791
  870MOL0     C19989  11.097   1.190   4.222 -0.7140 -0.5305 -0.8476
  870MOL0     C19990  11.166   1.085   4.303 -0.5277 -0.7767  0.2295
  870MOL0     H19991  11.043   1.038   4.692  2.6710  0.7633  1.1139
  870MOL0     H19992  11.097   1.035   4.914 -0.6917 -1.4986 -1.8346
  870MOL0     H19993  11.306   1.084   5.034  2.0041  1.3565  0.4224
  870MOL0     H19994  11.166   1.049   5.135  1.4425 -1.6153  0.1807
  870MOL0     H19995  11.355   1.061   5.266 -0.3053  0.3021  1.6954
  870MOL0     H19996  11.419   1.209   5.195  0.9271 -1.5417 -1.6836
  870MOL0     H19997  11.336   1.263   5.420  2.2734  0.2714 -1.1427
  870MOL0     H19998  11.224   1.335   5.306 -0.9856 -0.6398 -0.1304
  870MOL0     H19999  11.047   1.162   5.339 -0.4553 -0.7810  1.5067
  870MOL0     H20000  11.168   1.051   5.388 -2.0597 -0.3220 -0.0766
  870MOL0     H20001  10.998   1.158   5.570  0.8247  1.7949  6.3321
  870MOL0     H20002  11.103   1.302   5.552 -2.2449 -0.9974  3.2410
  870MOL0     H20003  11.238   1.040   5.586 -1.8308 -0.3463 -0.3972
  870MOL0     H20004  11.284   1.204   5.626  1.5118 -0.8683 -5.4859
  870MOL0     H20005  11.076   1.165   5.785  0.9910  2.0815 -0.6314
  870MOL0     H20006  11.251   1.160   5.823 -0.2307  3.4133 -3.0118
  870MOL0     H20007  11.133   0.949   5.925 -1.8360 -1.6364  0.3038
  870MOL0     H20008  11.086   0.912   5.768  0.8462  1.2142 -2.4671
  870MOL0     H20009  11.237   0.756   5.631 -0.4943  1.1854  0.5829
  870MOL0     H20010  11.408   0.638   5.545 -1.8140 -1.8440  2.7071
  870MOL0     H20011  11.530   0.575   5.667 -0.2200 -1.0684 -1.3958
  870MOL0     H20012  11.608   0.838   5.567  1.3785 -0.0421 -0.0413
  870MOL0     H20013  11.700   0.698   5.531  0.2358 -0.1562  5.1281
  870MOL0     H20014  11.451   0.783   5.346  0.6124  1.3731 -2.5564
  870MOL0     H20015  11.607   0.819   5.318 -0.5314 -1.2358 -2.0793
  870MOL0     H20016  11.652   0.563   5.328  0.4064 -3.0813 -3.8724
  870MOL0     H20017  11.483   0.531   5.357  2.8066 -2.5516 -0.7295
  870MOL0     H20018  11.286   0.539   5.088  0.0400 -0.8029 -1.7440
  870MOL0     H20019  11.113   0.427   4.958 -1.3593 -0.3017 -1.9914
  870MOL0     H20020  11.124   0.275   5.037  0.9081  1.2047  0.5435
  870MOL0     H20021  11.161   0.302   4.857 -0.2676  2.5845 -1.6066
  870MOL0     H20022  11.028   0.035   4.862 -1.0209 -0.2824 -0.1611
  870MOL0     H20023  10.920  -0.193   4.849  0.4807 -0.4175  0.5506
  870MOL0     H20024  10.944  -0.401   5.071  1.6241 -4.4746  1.0444
  870MOL0     H20025  10.837  -0.372   4.926  1.2527 -0.1411 -1.4285
  870MOL0     H20026  10.841  -0.598   4.866  1.4537  2.9930 -0.7456
  870MOL0     H20027  10.965  -0.643   4.991 -0.7678 -1.0631  1.1176
  870MOL0     H20028  10.677  -0.560   5.013 -2.2056 -2.2214  1.1328
  870MOL0     H20029  10.766  -0.578   5.163  2.2883 -1.0373 -0.0794
  870MOL0     H20030  10.800  -0.804   5.125 -1.5723 -3.2151 -0.1073
  870MOL0     H20031  10.744  -0.790   4.961 -0.7775  0.4043 -0.5563
  870MOL0     H20032  10.555  -0.723   5.195 -1.5531  2.4462 -2.0912
  870MOL0     H20033  10.519  -0.758   5.024  1.5779 -0.9353 -0.9770
  870MOL0     H20034  10.605  -0.940   5.244  0.7118 -0.9823 -1.0756
  870MOL0     H20035  10.624  -0.986   5.071 -2.0678 -3.2694  0.6409
  870MOL0     H20036  10.367  -0.947   5.030  0.1744 -3.5081 -0.0298
  870MOL0     H20037  10.358  -0.860   5.180 -0.8501 -1.2783 -0.9698
  870MOL0     H20038  10.253  -1.052   5.214  0.4234  0.0110  0.6757
  870MOL0     H20039  10.421  -1.081   5.300  2.1872  1.0621 -1.0514
  870MOL0     H20040  11.294  -0.386   4.897  0.8688  1.4577  1.8915
  870MOL0     H20041  11.399  -0.164   4.875  0.6904  1.1735  0.4232
  870MOL0     H20042  11.631   0.211   4.970  2.1341  1.8906  2.7343
  870MOL0     H20043  11.687   0.430   5.072 -0.1103  2.1122 -1.6373
  870MOL0     H20044  11.130   1.442   4.930 -1.2475  0.5510  0.5294
  870MOL0     H20045  11.073   1.466   4.678  0.1370  1.0408  2.1607
  870MOL0     H20046  10.910   1.468   4.254  0.2176 -1.7414  3.6401
  870MOL0     H20047  10.948   1.483   4.026  2.5705  0.8216  0.6161
  870MOL0     H20048  11.037   1.455   3.774 -0.5853  0.4645  1.9817
  870MOL0     H20049  11.202   1.443   3.836  0.0764  0.1109 -0.7725
  870MOL0     H20050  11.236   1.408   3.607  0.5669 -0.3616  1.5660
  870MOL0     H20051  11.083   1.323   3.583  2.3748 -2.1487 -2.1587
  870MOL0     H20052  11.166   1.127   3.677 -1.4146  2.2345 -0.5933
  870MOL0     H20053  11.271   1.168   3.555 -0.8034 -1.3438  0.3571
  870MOL0     H20054  11.295   1.182   3.849 -0.7858  1.8585  0.7934
  870MOL0     H20055  11.414   1.285   3.758 -0.0429  0.1415 -3.0372
  870MOL0     H20056  11.587   0.913   3.751 -1.6030  0.2069 -0.9112
  870MOL0     H20057  11.164   1.115   4.030  1.5014 -0.8037  1.2599
  870MOL0     H20058  11.230   1.137   4.373 -0.6724 -0.8722  0.4326
  870MOL0     H20059  11.090   1.019   4.348 -3.7321  1.0776 -1.9988
  870MOL0     H20060  11.230   1.027   4.235 -1.2159 -2.6118  1.0706
  871MOL0     O20061   9.994   6.060   9.080  0.2359  0.4789  0.7188
  871MOL0     C20062   9.927   5.996   8.995 -0.5340  0.4092 -0.1928
  871MOL0     O20063   9.805   6.024   8.946 -0.1869 -0.2362  0.5115
  871MOL0     C20064   9.730   6.129   8.975 -0.1509  0.8775 -0.6460
  871MOL0     C20065   9.789   6.249   8.984  0.0555  0.6385 -0.0984
  871MOL0     C20066   9.710   6.363   9.020 -0.3333 -0.6627 -0.0579
  871MOL0     C20067   9.577   6.357   9.062  0.0300  0.3841  0.0060
  871MOL0     O20068   9.502   6.466   9.106  0.3437  0.1624 -0.2475
  871MOL0     C20069   9.544   6.597   9.098  0.6872  0.4966  0.1149
  871MOL0     C20070   9.423   6.681   9.128  0.6980 -0.0067  0.3438
  871MOL0     C20071   9.469   6.827   9.141  0.5260 -0.6454 -0.0182
  871MOL0     C20072   9.354   6.923   9.176 -0.1354 -0.2366  0.2842
  871MOL0     C20073   9.380   7.074   9.183 -0.2673  0.4920 -0.8768
  871MOL0     C20074   9.475   7.112   9.308 -0.0531  0.2569 -0.1055
  871MOL0     C20075   9.498   7.266   9.308  0.5593 -0.8456 -0.1556
  871MOL0     C20076   9.563   7.300   9.446  0.1277  0.4847  0.6697
  871MOL0     N20077   9.474   7.322   9.557 -0.2246 -0.4179 -0.0921
  871MOL0     C20078   9.514   7.351   9.688  0.3229 -0.2483 -0.0676
  871MOL0     C20079   9.409   7.308   9.770  0.1182  0.7641 -0.5432
  871MOL0     C20080   9.416   7.300   9.925 -0.4717  0.5356 -0.0489
  871MOL0     C20081   9.512   7.185   9.955 -0.0564  0.7815 -1.0230
  871MOL0     C20082   9.513   7.167  10.111  0.6255 -0.2450  0.1560
  871MOL0     C20083   9.627   7.072  10.160  0.0478 -0.5413  0.0328
  871MOL0     O20084   9.606   6.931  10.135 -0.2408  0.9311 -0.3525
  871MOL0     C20085   9.712   6.849  10.158  0.0131 -0.3812 -0.0287
  871MOL0     C20086   9.752   6.757  10.065  0.5421 -0.4446 -0.4692
  871MOL0     C20087   9.879   6.697  10.085  0.6977  0.0943  0.1599
  871MOL0     C20088   9.913   6.602   9.974  0.3176  0.4199  0.1628
  871MOL0     C20089   9.947   6.708  10.202 -0.3204  0.0009  0.1554
  871MOL0     C20090  10.068   6.639  10.231  0.4191  0.0136  0.1143
  871MOL0     O20091  10.102   6.620  10.363  0.2318  0.3816 -0.2118
  871MOL0     C20092  10.177   6.514  10.391 -0.4179  0.8012 -0.2234
  871MOL0     C20093  10.313   6.502  10.346  1.1483 -0.7836  0.3437
  871MOL0     C20094  10.383   6.394  10.384  0.0605  0.3299  0.3554
  871MOL0     C20095  10.326   6.287  10.458  0.8426 -0.0610  0.1268
  871MOL0     O20096  10.401   6.183  10.505 -1.1550  0.7043  0.4098
  871MOL0     C20097  10.351   6.062  10.457 -0.8167  1.1875  0.5352
  871MOL0     C20098  10.448   5.939  10.489 -0.3584  0.3150 -0.0606
  871MOL0     C20099  10.533   5.923  10.371 -0.1109  0.7014 -1.0685
  871MOL0     C20100  10.662   5.830  10.383  0.3857 -0.2547 -0.3547
  871MOL0     C20101  10.705   5.777  10.238 -0.5181 -0.0317 -0.4700
  871MOL0     C20102  10.732   5.881  10.126  0.1192 -0.6181 -0.0118
  871MOL0     C20103  10.755   5.804   9.990  0.4570  0.2060 -0.7837
  871MOL0     C20104  10.743   5.885   9.865 -0.1108 -0.8738  0.5485
  871MOL0    Cl20105  10.859   6.021   9.852  0.2891 -0.2284  0.3405
  871MOL0     C20106  10.187   6.295  10.497 -0.1460 -0.7438 -0.3441
  871MOL0     C20107  10.119   6.412  10.465 -0.5232  0.7121  0.1601
  871MOL0     O20108  10.139   6.602  10.136  0.8217 -0.1889 -0.5606
  871MOL0     C20109   9.910   6.803  10.295  0.6573 -0.2556 -0.2431
  871MOL0     C20110   9.792   6.877  10.272  0.5395 -0.1955 -0.1497
  871MOL0     N20111   9.307   7.266   9.682  0.2045  0.7564 -0.2379
  871MOL0     N20112   9.349   7.269   9.562  0.1218  0.2303  0.5749
  871MOL0     C20113   9.518   6.231   9.068  0.0004  0.1797  0.7945
  871MOL0     C20114   9.597   6.119   9.018  0.4095  0.6796  0.4297
  871MOL0     C20115   9.995   5.877   8.939 -0.0438 -0.1157 -0.3176
  871MOL0     C20116   9.907   5.773   8.895 -0.9010  0.1105 -0.2666
  871MOL0     C20117   9.961   5.648   8.852 -0.2535 -0.0592 -0.2143
  871MOL0     C20118  10.095   5.618   8.860  0.2315 -0.0422  0.1194
  871MOL0     O20119  10.141   5.492   8.836  0.5401  0.1303 -0.0272
  871MOL0     C20120  10.269   5.466   8.778  0.2552  0.5276 -0.9288
  871MOL0     C20121  10.269   5.355   8.670 -0.1658  0.2888  0.0762
  871MOL0     C20122  10.173   5.385   8.549 -0.3027 -0.1600  0.5688
  871MOL0     C20123  10.128   5.258   8.484  0.3509  0.0099  0.4431
  871MOL0     C20124  10.117   5.268   8.337  0.2433 -0.5783 -0.3466
  871MOL0     C20125  10.114   5.256   8.215  0.2800  0.3432 -0.1634
  871MOL0     C20126  10.177   5.727   8.891  0.4198 -0.4385  0.1908
  871MOL0     C20127  10.135   5.850   8.929  0.0795  0.2765 -0.7726
  871MOL0     C20128  10.240   5.940   8.978 -0.8743 -0.4249  1.2471
  871MOL0     H20129   9.892   6.252   8.950 -0.5070 -1.6077 -2.3697
  871MOL0     H20130   9.770   6.454   9.022 -0.3298 -0.6522 -0.5107
  871MOL0     H20131   9.584   6.611   8.997  1.1725  0.0233  0.2378
  871MOL0     H20132   9.628   6.616   9.165  0.1067 -1.1037  1.3317
  871MOL0     H20133   9.351   6.673   9.046 -2.2243  0.6400  2.6580
  871MOL0     H20134   9.367   6.640   9.213  1.0626 -4.9077 -1.4968
  871MOL0     H20135   9.541   6.832   9.223  0.4333 -2.3371  0.2014
  871MOL0     H20136   9.513   6.867   9.049 -2.0580  2.2196 -0.1591
  871MOL0     H20137   9.283   6.916   9.093  2.2668  3.2002 -2.3501
  871MOL0     H20138   9.316   6.881   9.270  0.6292  2.7040  2.0507
  871MOL0     H20139   9.281   7.119   9.199 -0.5961 -0.7601  0.8671
  871MOL0     H20140   9.417   7.119   9.091  0.1807 -0.2860 -1.0840
  871MOL0     H20141   9.442   7.078   9.406  0.9357 -1.2758 -0.2613
  871MOL0     H20142   9.573   7.073   9.277  0.7225  3.2177 -1.7807
  871MOL0     H20143   9.407   7.325   9.293  0.0231 -1.3600  0.9398
  871MOL0     H20144   9.568   7.285   9.226  1.7750 -3.4124  0.1747
  871MOL0     H20145   9.627   7.222   9.488  1.3841  1.7580  1.2079
  871MOL0     H20146   9.620   7.392   9.432 -0.8939  1.1092  0.5161
  871MOL0     H20147   9.612   7.382   9.724 -0.3660  1.4212  0.4632
  871MOL0     H20148   9.314   7.289   9.963  0.1609 -1.0132  1.3220
  871MOL0     H20149   9.461   7.390   9.967  0.6168 -0.1768  0.3360
  871MOL0     H20150   9.479   7.090   9.912  2.8212 -0.8136 -0.0068
  871MOL0     H20151   9.611   7.196   9.909  0.2111 -4.1711 -2.1325
  871MOL0     H20152   9.529   7.264  10.159 -0.3941  1.7811 -3.2920
  871MOL0     H20153   9.415   7.130  10.143 -0.5267  3.4707  1.4715
  871MOL0     H20154   9.714   7.099  10.100 -2.0291  1.8055 -2.1994
  871MOL0     H20155   9.660   7.098  10.261 -1.5974 -1.9863  0.9993
  871MOL0     H20156   9.693   6.739   9.975 -0.8736  2.7260 -0.3280
  871MOL0     H20157   9.935   6.506  10.022 -4.6627 -0.9977  0.2323
  871MOL0     H20158   9.999   6.655   9.932 -0.5648  2.5191  0.8918
  871MOL0     H20159   9.831   6.595   9.901  0.5655 -0.8314 -0.0102
  871MOL0     H20160  10.374   6.587  10.317  2.9945 -1.1700  2.7654
  871MOL0     H20161  10.489   6.409  10.364 -0.5785 -0.4285 -5.4833
  871MOL0     H20162  10.272   6.022  10.521  0.1491 -2.4030 -0.3008
  871MOL0     H20163  10.328   6.074  10.351  2.7572 -0.8639 -0.6505
  871MOL0     H20164  10.499   5.955  10.584 -1.1798  0.6153  0.3336
  871MOL0     H20165  10.389   5.847  10.490 -2.0956  1.3346 -1.7342
  871MOL0     H20166  10.566   6.026  10.352  0.9248  2.0804  5.6395
  871MOL0     H20167  10.461   5.884  10.298 -2.8197  0.3522  1.5802
  871MOL0     H20168  10.641   5.744  10.446 -0.6773 -0.6518 -1.2142
  871MOL0     H20169  10.734   5.904  10.421  1.7685 -1.7882  0.1052
  871MOL0     H20170  10.795   5.715  10.245  0.0648  0.9826  3.9392
  871MOL0     H20171  10.615   5.719  10.219 -0.0147 -0.7782 -0.6095
  871MOL0     H20172  10.821   5.941  10.150  0.0497 -0.5848  0.1620
  871MOL0     H20173  10.648   5.951  10.124  1.3287  0.9416  0.7149
  871MOL0     H20174  10.679   5.726   9.978  2.8660 -2.8297  1.9640
  871MOL0     H20175  10.849   5.748   9.992  0.3062 -0.1086 -1.8976
  871MOL0     H20176  10.642   5.925   9.862  0.5902  1.1995  2.0974
  871MOL0     H20177  10.756   5.820   9.778  1.9661 -0.2795  0.3700
  871MOL0     H20178  10.154   6.212  10.558 -1.2829  0.2985  0.5083
  871MOL0     H20179  10.015   6.433  10.486 -0.4551  3.1091 -1.4768
  871MOL0     H20180   9.969   6.817  10.385  2.0160 -2.7027 -0.6627
  871MOL0     H20181   9.764   6.950  10.348 -0.7421  0.5395 -1.2813
  871MOL0     H20182   9.416   6.216   9.102 -1.3978  0.2021 -2.8968
  871MOL0     H20183   9.549   6.024   9.000  0.0123  0.3163  2.9657
  871MOL0     H20184   9.801   5.795   8.886 -1.5288 -2.8761 -1.2202
  871MOL0     H20185   9.889   5.576   8.815 -2.4917  2.8170 -1.9098
  871MOL0     H20186  10.311   5.561   8.744 -0.5114  1.0001 -0.5931
  871MOL0     H20187  10.328   5.430   8.863 -0.7354  1.3718  0.1575
  871MOL0     H20188  10.228   5.266   8.718  1.5882  0.2743  1.6858
  871MOL0     H20189  10.373   5.337   8.642  0.0015  1.0048  0.2115
  871MOL0     H20190  10.085   5.448   8.566 -1.3470 -1.3059 -0.3435
  871MOL0     H20191  10.228   5.452   8.482 -1.8081  0.3734 -0.1743
  871MOL0     H20192  10.028   5.246   8.526 -0.4555  0.0746 -1.3909
  871MOL0     H20193  10.191   5.169   8.491  0.0662 -0.9343 -4.7691
  871MOL0     H20194  10.111   5.232   8.110  2.3437  0.0103 -0.1935
  871MOL0     H20195  10.282   5.716   8.869  0.1062  1.0999 -2.5832
  871MOL0     H20196  10.335   5.919   8.929 -0.9585  0.5322  0.6492
  871MOL0     H20197  10.214   6.042   8.948 -1.2083 -0.7326  0.4707
  871MOL0     H20198  10.247   5.924   9.086 -2.7945  1.8615  1.7989
  872MOL0     O20199   7.753  10.146   5.412 -0.1145  0.6316 -0.8916
  872MOL0     C20200   7.865  10.197   5.402  0.3747  0.1139  0.1584
  872MOL0     O20201   7.893  10.324   5.338 -0.6671  0.0297  0.6457
  872MOL0     C20202   7.780  10.392   5.310  0.0411 -0.0771 -0.9431
  872MOL0     C20203   7.711  10.372   5.193  0.9507  1.2743  1.3256
  872MOL0     C20204   7.585  10.432   5.171 -0.1142  0.0151  0.6945
  872MOL0     C20205   7.521  10.508   5.272  0.6371  0.3127 -1.2658
  872MOL0     O20206   7.402  10.578   5.266  0.2758 -0.0308 -0.3245
  872MOL0     C20207   7.289  10.501   5.229 -0.3835 -0.0687 -0.6905
  872MOL0     C20208   7.248  10.538   5.087 -0.9231 -0.5721  0.4086
  872MOL0     C20209   7.178  10.676   5.075  0.1318 -0.8996  0.1091
  872MOL0     C20210   7.173  10.705   4.915  0.4010  0.5865 -1.0227
  872MOL0     C20211   7.123  10.844   4.884  0.3981  0.3550  0.8940
  872MOL0     C20212   7.115  10.872   4.733 -0.3015 -0.2299 -0.0632
  872MOL0     C20213   7.044  11.000   4.686 -0.3526  0.1511  1.1118
  872MOL0     C20214   6.984  10.985   4.548  0.0482  0.3553  0.3708
  872MOL0     N20215   7.084  10.959   4.441 -0.1562 -0.4304  0.0844
  872MOL0     C20216   7.179  11.052   4.410  0.2007  0.3509  0.0647
  872MOL0     C20217   7.273  10.981   4.336  0.1745  0.1305  0.2505
  872MOL0     C20218   7.381  11.059   4.256 -0.7430 -0.5103 -0.3878
  872MOL0     C20219   7.325  11.154   4.142  0.7909  0.0262 -0.6585
  872MOL0     C20220   7.332  11.100   4.006 -0.0185 -0.5303 -0.4719
  872MOL0     C20221   7.211  11.144   3.921 -1.2562 -0.3667  0.4153
  872MOL0     O20222   7.100  11.056   3.928  0.4517  0.4486 -0.2036
  872MOL0     C20223   7.013  11.048   3.823  1.2100  0.0805  0.1373
  872MOL0     C20224   6.925  10.946   3.817  0.4019  0.5103  0.3502
  872MOL0     C20225   6.810  10.947   3.738  0.7094 -0.0863  0.0795
  872MOL0     C20226   6.715  10.820   3.741  0.3444 -0.1694  0.0337
  872MOL0     C20227   6.784  11.057   3.651  0.3292 -0.0351 -0.0624
  872MOL0     C20228   6.663  11.066   3.556  1.2050 -0.3422  0.0795
  872MOL0     O20229   6.647  11.177   3.490 -0.6904  0.4659 -0.5333
  872MOL0     C20230   6.546  11.215   3.413  0.4554  0.1480 -0.0336
  872MOL0     C20231   6.569  11.292   3.296 -0.4184  1.8059  0.2742
  872MOL0     C20232   6.458  11.337   3.216  0.1736 -0.3992  0.0855
  872MOL0     C20233   6.321  11.316   3.248 -0.2829  0.4201  0.1898
  872MOL0     O20234   6.213  11.371   3.176  0.0687  0.0128 -0.0874
  872MOL0     C20235   6.231  11.397   3.030 -0.2776  0.3305  0.0869
  872MOL0     C20236   6.098  11.422   2.951  0.6624 -0.6605 -0.5429
  872MOL0     C20237   6.012  11.299   2.942  0.5447  0.5101 -0.2348
  872MOL0     C20238   5.864  11.311   2.990  1.2435  0.5425  1.9256
  872MOL0     C20239   5.782  11.423   2.914 -0.0820  0.0470  0.5614
  872MOL0     C20240   5.794  11.449   2.761  0.0157 -0.0831  0.3103
  872MOL0     C20241   5.752  11.324   2.690 -0.9778  0.7425  0.3272
  872MOL0     C20242   5.734  11.331   2.539 -0.3104 -0.4320 -0.3628
  872MOL0    Cl20243   5.603  11.453   2.514  0.3479 -0.0831  0.0089
  872MOL0     C20244   6.298  11.239   3.363 -0.5166  0.4559  0.2712
  872MOL0     C20245   6.407  11.193   3.440  1.0043 -0.1737  0.2549
  872MOL0     O20246   6.589  10.965   3.536  0.2027 -1.4327  0.4445
  872MOL0     C20247   6.882  11.160   3.645 -0.1665  0.4347 -0.3321
  872MOL0     C20248   6.989  11.158   3.738  0.0953 -0.8519 -0.4401
  872MOL0     N20249   7.240  10.852   4.334  1.0734 -0.7791  0.0078
  872MOL0     N20250   7.125  10.840   4.398  0.1583 -0.1749  0.5957
  872MOL0     C20251   7.600  10.535   5.390 -0.0441  0.6760  0.3392
  872MOL0     C20252   7.719  10.474   5.415  0.4151  0.7449 -0.2484
  872MOL0     C20253   7.976  10.133   5.476  1.5450  0.8572 -0.2650
  872MOL0     C20254   7.965   9.995   5.480 -1.4271 -0.6895  0.0795
  872MOL0     C20255   8.079   9.928   5.536 -0.0651  0.8556  0.2420
  872MOL0     C20256   8.195   9.983   5.593  0.2082  0.0283 -0.3961
  872MOL0     O20257   8.291   9.907   5.664  0.0011  0.6935  0.8404
  872MOL0     C20258   8.432   9.934   5.626 -0.2395  0.8953  0.1030
  872MOL0     C20259   8.493   9.819   5.540  0.0359 -0.2105 -0.2260
  872MOL0     C20260   8.494   9.684   5.619  0.4960  0.2054  0.6243
  872MOL0     C20261   8.515   9.553   5.529  0.2521 -0.6266  0.3585
  872MOL0     C20262   8.389   9.518   5.452  0.6545 -0.3831 -0.1088
  872MOL0     C20263   8.273   9.506   5.406 -0.4640 -0.0220 -1.1140
  872MOL0     C20264   8.201  10.126   5.594 -0.4682  0.8860  0.2349
  872MOL0     C20265   8.090  10.196   5.536  0.4895 -0.9608 -0.5750
  872MOL0     C20266   8.115  10.352   5.546 -0.4030  0.1864  0.2535
  872MOL0     H20267   7.757  10.302   5.124 -0.4426 -0.8384  2.4324
  872MOL0     H20268   7.523  10.396   5.090  1.7509 -1.4979 -0.1525
  872MOL0     H20269   7.207  10.511   5.301  1.1006  0.0361  1.0466
  872MOL0     H20270   7.309  10.393   5.234 -0.4347 -0.1183 -1.4419
  872MOL0     H20271   7.340  10.535   5.028 -2.0589 -2.1022 -1.3777
  872MOL0     H20272   7.188  10.457   5.045  0.7157  0.2910 -4.2566
  872MOL0     H20273   7.077  10.650   5.110 -0.0664 -0.7112 -0.3137
  872MOL0     H20274   7.219  10.763   5.126 -1.2193 -0.9456  1.3359
  872MOL0     H20275   7.278  10.698   4.884  1.7737 -1.8311  3.2541
  872MOL0     H20276   7.118  10.624   4.867  0.7206  0.1230 -0.6265
  872MOL0     H20277   7.188  10.927   4.913  0.2338 -0.2418  3.1899
  872MOL0     H20278   7.022  10.860   4.924 -2.3738 -3.0080 -3.6866
  872MOL0     H20279   7.216  10.871   4.693 -0.2245 -0.4508  0.1332
  872MOL0     H20280   7.066  10.785   4.688  2.7618 -1.1315 -1.9449
  872MOL0     H20281   7.118  11.078   4.702 -0.6484  1.0221 -1.3095
  872MOL0     H20282   6.955  11.019   4.746  0.2862  0.6808  1.9071
  872MOL0     H20283   6.916  10.900   4.543 -1.7843  1.8260 -1.1752
  872MOL0     H20284   6.914  11.062   4.513 -0.4826  0.2252  1.1125
  872MOL0     H20285   7.165  11.160   4.402  1.1280  0.3897 -1.2609
  872MOL0     H20286   7.456  10.985   4.225  1.9794  1.8122  0.2693
  872MOL0     H20287   7.442  11.125   4.318  1.3203 -2.2443 -0.4293
  872MOL0     H20288   7.220  11.170   4.168  1.1812 -1.6832  2.3958
  872MOL0     H20289   7.372  11.253   4.142  1.5938 -0.1073 -5.4546
  872MOL0     H20290   7.425  11.141   3.968 -1.1926  0.6806 -2.1969
  872MOL0     H20291   7.345  10.991   4.007  3.8856 -0.2145 -0.8031
  872MOL0     H20292   7.187  11.248   3.946  2.9297  1.5317 -2.3218
  872MOL0     H20293   7.250  11.144   3.818  0.0709 -0.1763  0.9084
  872MOL0     H20294   6.946  10.853   3.868  1.2916 -0.4410 -1.6516
  872MOL0     H20295   6.760  10.746   3.808  1.6936 -0.2421 -0.8967
  872MOL0     H20296   6.718  10.780   3.639  2.6412  1.4780 -0.6381
  872MOL0     H20297   6.611  10.838   3.770  0.5631 -1.2141  1.5964
  872MOL0     H20298   6.673  11.310   3.267 -0.5862  1.4670 -0.5852
  872MOL0     H20299   6.484  11.404   3.135 -1.4149 -0.2962 -0.3692
  872MOL0     H20300   6.298  11.483   3.026  2.4446 -1.6982 -0.6581
  872MOL0     H20301   6.277  11.304   2.995 -1.4873 -1.0411  1.8951
  872MOL0     H20302   6.042  11.496   3.009  0.8871 -0.6186 -0.3776
  872MOL0     H20303   6.112  11.466   2.852  0.5232  0.8236  0.0758
  872MOL0     H20304   6.059  11.222   3.005 -2.6162  0.6383  2.6014
  872MOL0     H20305   6.016  11.262   2.839  2.4900 -0.0825  0.0058
  872MOL0     H20306   5.861  11.320   3.099  1.0270 -2.0106  2.1854
  872MOL0     H20307   5.816  11.216   2.966  0.9381  0.4280  2.9375
  872MOL0     H20308   5.674  11.416   2.934  0.1087 -0.7296  1.4086
  872MOL0     H20309   5.806  11.522   2.954 -1.9368  1.1213 -0.8062
  872MOL0     H20310   5.899  11.479   2.751  0.7849 -1.6453  2.7755
  872MOL0     H20311   5.726  11.525   2.721 -0.4761 -1.8067 -2.3986
  872MOL0     H20312   5.657  11.301   2.738  0.5998  0.2080  3.5195
  872MOL0     H20313   5.817  11.243   2.726 -3.9625 -1.6176  0.7872
  872MOL0     H20314   5.718  11.237   2.484 -1.4512 -0.6445  0.3026
  872MOL0     H20315   5.819  11.388   2.500  0.9918 -1.9835  0.0676
  872MOL0     H20316   6.201  11.231   3.411 -1.4667 -1.0059 -1.7730
  872MOL0     H20317   6.379  11.134   3.527  3.0253  2.1444  2.6410
  872MOL0     H20318   6.870  11.253   3.590 -3.9240  1.6100  2.0599
  872MOL0     H20319   7.057  11.242   3.747 -2.5126  1.7190 -2.5255
  872MOL0     H20320   7.564  10.600   5.468  2.0703  2.7777 -0.3028
  872MOL0     H20321   7.785  10.490   5.500 -0.7289 -1.0082  1.0200
  872MOL0     H20322   7.883   9.935   5.442 -2.3843  0.3215  0.4967
  872MOL0     H20323   8.076   9.819   5.538  2.0248  0.7595  1.3590
  872MOL0     H20324   8.444  10.012   5.550 -0.0720 -0.5834 -1.4480
  872MOL0     H20325   8.500   9.956   5.709  5.3077  0.0326 -3.6874
  872MOL0     H20326   8.596   9.838   5.511  0.7152 -1.9590  0.8449
  872MOL0     H20327   8.426   9.809   5.454 -1.4246 -2.0106  1.0119
  872MOL0     H20328   8.581   9.673   5.684  1.4036 -0.2403 -0.6346
  872MOL0     H20329   8.399   9.688   5.673 -0.3673 -1.2564 -0.7165
  872MOL0     H20330   8.533   9.478   5.607  1.6494 -0.7452 -0.0622
  872MOL0     H20331   8.595   9.557   5.455 -0.1453 -1.9731 -0.1763
  872MOL0     H20332   8.180   9.480   5.360  0.6674  0.2119 -3.7222
  872MOL0     H20333   8.285  10.171   5.646  0.0719 -0.0035  0.1514
  872MOL0     H20334   8.193  10.365   5.470 -0.6637 -0.8474 -0.1961
  872MOL0     H20335   8.029  10.416   5.525 -2.4349  0.6724  7.3436
  872MOL0     H20336   8.136  10.377   5.651 -2.8662 -4.1176  2.0260
  873MOL0     O20337   4.153   9.230   5.861  0.7654 -0.1136 -0.0020
  873MOL0     C20338   4.225   9.192   5.768  0.8147  1.2104  0.3579
  873MOL0     O20339   4.218   9.063   5.721  0.0361 -0.5568 -0.2903
  873MOL0     C20340   4.144   8.979   5.791 -0.8370  0.2848  0.0061
  873MOL0     C20341   4.014   8.962   5.739  0.3961 -1.0100 -0.4205
  873MOL0     C20342   3.933   8.863   5.798 -0.2676  0.0446  0.0862
  873MOL0     C20343   3.974   8.776   5.909 -0.4658 -0.4231 -0.7533
  873MOL0     O20344   3.891   8.672   5.958  0.1825 -0.2806  0.5152
  873MOL0     C20345   3.899   8.635   6.094 -0.6689  0.7763 -0.9623
  873MOL0     C20346   3.775   8.560   6.131 -0.2691 -0.3693 -0.1122
  873MOL0     C20347   3.765   8.396   6.102  0.4775 -1.1407  0.0736
  873MOL0     C20348   3.646   8.324   6.160  0.0735 -0.6607 -0.0969
  873MOL0     C20349   3.652   8.176   6.115 -0.5973  0.8277 -0.5025
  873MOL0     C20350   3.637   8.132   5.972  0.1195 -0.2772 -0.4950
  873MOL0     C20351   3.686   7.997   5.922  0.2836  0.3566  0.4099
  873MOL0     C20352   3.618   7.875   5.982 -0.9700  0.7611  0.7043
  873MOL0     N20353   3.638   7.754   5.891  0.1682 -0.0035 -0.4147
  873MOL0     C20354   3.736   7.651   5.889  0.6289 -0.6084 -0.6672
  873MOL0     C20355   3.694   7.555   5.811 -0.0600  0.6918 -0.5034
  873MOL0     C20356   3.757   7.416   5.792 -0.0459  1.0913 -0.5489
  873MOL0     C20357   3.803   7.330   5.916 -0.0551 -1.2117 -0.2122
  873MOL0     C20358   3.952   7.360   5.928  0.4872  0.5096 -0.2725
  873MOL0     C20359   4.020   7.258   6.028  0.1411  0.0878 -1.0708
  873MOL0     O20360   3.996   7.295   6.163  0.6287 -0.2085  0.4911
  873MOL0     C20361   4.107   7.292   6.246 -0.3469 -0.0864  0.0636
  873MOL0     C20362   4.203   7.190   6.237 -0.3606 -0.2952  0.2340
  873MOL0     C20363   4.312   7.188   6.322 -1.4288  0.0461  0.2663
  873MOL0     C20364   4.391   7.066   6.300  0.9120 -0.2135 -0.6763
  873MOL0     C20365   4.324   7.283   6.431  0.4204  0.6787  0.1597
  873MOL0     C20366   4.438   7.279   6.532 -0.1512  0.2923 -0.5801
  873MOL0     O20367   4.460   7.387   6.611  0.3108  0.7278  0.6841
  873MOL0     C20368   4.537   7.390   6.728 -0.1235  0.4590 -0.1941
  873MOL0     C20369   4.645   7.310   6.768  0.7812  0.0692  0.2352
  873MOL0     C20370   4.711   7.329   6.891  0.0072 -1.0269  0.5984
  873MOL0     C20371   4.673   7.429   6.979 -0.7796  0.3499  0.0728
  873MOL0     O20372   4.724   7.443   7.111  0.0188 -1.0643  0.1250
  873MOL0     C20373   4.862   7.479   7.113 -1.0459 -0.4917 -0.0626
  873MOL0     C20374   4.904   7.597   7.035  0.0311  0.3017 -0.5262
  873MOL0     C20375   5.045   7.641   7.089 -0.1519  0.5590 -0.1591
  873MOL0     C20376   5.177   7.596   7.011  0.9279 -0.5119  0.7817
  873MOL0     C20377   5.305   7.613   7.087  0.7382 -1.1430 -0.4883
  873MOL0     C20378   5.436   7.564   7.020  0.1556  0.0944  1.0943
  873MOL0     C20379   5.551   7.556   7.121 -1.3516 -0.4790  0.6571
  873MOL0     C20380   5.622   7.697   7.144  0.4569 -0.0321 -0.1952
  873MOL0    Cl20381   5.657   7.784   6.996 -0.1588 -0.3840 -0.0565
  873MOL0     C20382   4.572   7.512   6.941  0.3887  0.1254 -0.3825
  873MOL0     C20383   4.505   7.490   6.814 -0.5761  0.2353  0.2082
  873MOL0     O20384   4.517   7.193   6.516 -0.8210  0.2004 -0.6297
  873MOL0     C20385   4.225   7.378   6.434 -0.1286  0.5029 -0.7158
  873MOL0     C20386   4.128   7.391   6.342  0.2798 -0.6803 -0.1921
  873MOL0     N20387   3.576   7.596   5.761 -0.6353  0.3099 -0.0080
  873MOL0     N20388   3.540   7.716   5.804 -0.7885 -0.2205  0.4152
  873MOL0     C20389   4.104   8.802   5.957  0.3649 -0.6399  0.1260
  873MOL0     C20390   4.191   8.890   5.895  0.0026  0.2565  0.6170
  873MOL0     C20391   4.287   9.298   5.692 -0.1395 -0.6925  0.2843
  873MOL0     C20392   4.324   9.260   5.559 -0.4290 -0.9659  1.1503
  873MOL0     C20393   4.365   9.367   5.465  0.2746  0.0052 -0.3758
  873MOL0     C20394   4.365   9.494   5.509  0.0373  0.7659  0.5050
  873MOL0     O20395   4.389   9.585   5.411  0.1189 -0.7222  0.9141
  873MOL0     C20396   4.460   9.701   5.441 -0.9109 -0.7304 -0.3848
  873MOL0     C20397   4.498   9.771   5.307  0.0275 -0.5868  0.5029
  873MOL0     C20398   4.612   9.877   5.330  0.8377  0.1391 -0.5691
  873MOL0     C20399   4.677   9.932   5.204 -0.6015 -0.0055  1.3725
  873MOL0     C20400   4.753   9.815   5.139  0.1817 -0.2102 -0.9140
  873MOL0     C20401   4.799   9.727   5.072 -0.1070 -0.1242 -0.1973
  873MOL0     C20402   4.345   9.519   5.643  0.2425 -0.6328  0.1832
  873MOL0     C20403   4.302   9.430   5.739  0.7111  0.4906  0.2345
  873MOL0     C20404   4.280   9.489   5.883 -0.2216 -1.0882 -0.3519
  873MOL0     H20405   3.970   9.035   5.672 -0.1947 -0.7699  0.2264
  873MOL0     H20406   3.831   8.847   5.763 -0.9024  2.6841  0.5306
  873MOL0     H20407   3.905   8.719   6.164  0.1743  0.1377 -0.2391
  873MOL0     H20408   3.994   8.582   6.102 -0.8426  0.4025 -1.3076
  873MOL0     H20409   3.754   8.584   6.236 -3.3775  1.1370 -0.9639
  873MOL0     H20410   3.698   8.602   6.067  0.8417  1.8009 -0.1097
  873MOL0     H20411   3.769   8.399   5.993  2.0911 -0.8955  0.1084
  873MOL0     H20412   3.857   8.336   6.108 -0.6948 -2.8981  4.2389
  873MOL0     H20413   3.639   8.346   6.266 -0.3425 -3.3634  0.5034
  873MOL0     H20414   3.559   8.362   6.106  0.3160 -1.9165 -1.4484
  873MOL0     H20415   3.566   8.127   6.161  0.5712  0.7024  1.6655
  873MOL0     H20416   3.741   8.140   6.168 -1.7032  0.5722  1.2753
  873MOL0     H20417   3.532   8.147   5.946  0.7279  4.6669 -1.1643
  873MOL0     H20418   3.696   8.210   5.921 -1.0464  0.1062 -1.2993
  873MOL0     H20419   3.794   7.989   5.936 -0.0514 -3.2317  2.0405
  873MOL0     H20420   3.671   8.008   5.814  0.5732 -1.1922  0.1848
  873MOL0     H20421   3.656   7.865   6.084  0.0906  0.8558  0.3365
  873MOL0     H20422   3.511   7.894   5.991 -0.9834  0.7836  0.4842
  873MOL0     H20423   3.824   7.646   5.953  1.0304  2.2531 -0.8594
  873MOL0     H20424   3.824   7.418   5.706 -0.1731 -0.1198 -0.6990
  873MOL0     H20425   3.671   7.354   5.767  1.7316 -2.1889  0.8369
  873MOL0     H20426   3.758   7.362   6.010 -0.2882  1.8106 -1.2377
  873MOL0     H20427   3.789   7.223   5.900  0.5404 -1.4653  0.8523
  873MOL0     H20428   4.002   7.365   5.831 -0.8086  1.4946 -0.9191
  873MOL0     H20429   3.974   7.454   5.979  1.0836  1.7472 -2.6734
  873MOL0     H20430   3.964   7.166   6.011 -0.2059  0.4933 -2.2329
  873MOL0     H20431   4.122   7.235   5.996  0.7096 -1.0854  1.3419
  873MOL0     H20432   4.202   7.114   6.159 -0.1424  0.9574 -1.0380
  873MOL0     H20433   4.432   7.024   6.392  0.0098  2.9993  1.3168
  873MOL0     H20434   4.464   7.080   6.220 -0.7561  0.9398 -2.0751
  873MOL0     H20435   4.320   6.990   6.264  0.7144  0.6818 -2.2881
  873MOL0     H20436   4.671   7.233   6.696 -0.6888 -0.6005  0.4007
  873MOL0     H20437   4.798   7.270   6.915  0.9262 -0.9449 -2.1780
  873MOL0     H20438   4.903   7.493   7.214 -0.0867 -0.7534 -0.4038
  873MOL0     H20439   4.932   7.399   7.089  1.1190  1.1855  0.2778
  873MOL0     H20440   4.886   7.583   6.928 -0.8585 -0.8100 -0.2546
  873MOL0     H20441   4.833   7.678   7.053 -0.8573  0.7362 -4.7573
  873MOL0     H20442   5.054   7.613   7.194 -1.9525  0.9445  0.1265
  873MOL0     H20443   5.039   7.750   7.081 -0.2344  0.4862 -1.2554
  873MOL0     H20444   5.169   7.638   6.910 -0.0081 -3.3886 -0.4293
  873MOL0     H20445   5.159   7.489   7.003  0.0689 -0.2391 -1.9386
  873MOL0     H20446   5.308   7.721   7.101 -3.5289 -0.7063 -1.4888
  873MOL0     H20447   5.294   7.571   7.187 -0.7404 -1.0182 -0.5845
  873MOL0     H20448   5.459   7.633   6.939  1.6752  1.6157  2.7418
  873MOL0     H20449   5.423   7.464   6.978 -1.3692  0.0185  1.6556
  873MOL0     H20450   5.620   7.488   7.071 -2.8059  0.2539 -2.6393
  873MOL0     H20451   5.510   7.519   7.215 -1.6916 -1.0106  0.3037
  873MOL0     H20452   5.713   7.692   7.204 -1.2231  0.1667  2.5584
  873MOL0     H20453   5.543   7.754   7.193 -0.1940  0.6460 -1.9455
  873MOL0     H20454   4.557   7.593   7.011  1.8217  0.7844 -0.8216
  873MOL0     H20455   4.413   7.543   6.790 -1.5213 -1.1023  0.7797
  873MOL0     H20456   4.230   7.439   6.524 -1.2682 -0.6228  0.1340
  873MOL0     H20457   4.053   7.467   6.357  0.7800  0.0846 -1.3927
  873MOL0     H20458   4.147   8.737   6.033  1.4600  2.6242  2.5331
  873MOL0     H20459   4.294   8.908   5.923  0.1573  3.7594 -1.5316
  873MOL0     H20460   4.299   9.170   5.504  0.6736 -0.0127 -1.0525
  873MOL0     H20461   4.374   9.351   5.358 -3.0034 -1.1173 -0.6138
  873MOL0     H20462   4.398   9.772   5.496  0.0351  0.8403 -1.2959
  873MOL0     H20463   4.549   9.682   5.501 -1.6029 -1.7845  0.3670
  873MOL0     H20464   4.411   9.817   5.258  0.9874 -1.5978 -2.3019
  873MOL0     H20465   4.528   9.692   5.238 -3.2182 -1.5297 -0.0158
  873MOL0     H20466   4.584   9.961   5.394 -0.0651 -1.0375  0.6395
  873MOL0     H20467   4.685   9.821   5.391 -0.2235  0.0704  0.6687
  873MOL0     H20468   4.750  10.009   5.227 -1.7900  1.0904  1.5648
  873MOL0     H20469   4.612   9.974   5.127  2.0491 -0.0783 -1.0388
  873MOL0     H20470   4.838   9.656   5.001 -0.4573 -0.3423 -0.1694
  873MOL0     H20471   4.327   9.618   5.684 -0.7616 -1.5109  2.0070
  873MOL0     H20472   4.301   9.595   5.899 -6.1929  0.1829  1.6501
  873MOL0     H20473   4.174   9.488   5.911 -0.7805 -2.5936 -2.2836
  873MOL0     H20474   4.337   9.430   5.955 -2.4242 -3.2643 -0.2636
  874MOL0     O20475   1.797   4.810  10.335 -0.2988  0.3147 -0.3083
  874MOL0     C20476   1.796   4.706  10.266  0.6674 -0.9803  0.1446
  874MOL0     O20477   1.839   4.702  10.134  0.0296 -0.3286 -0.7003
  874MOL0     C20478   1.861   4.824  10.070 -0.8731  0.3110 -0.0726
  874MOL0     C20479   1.990   4.859  10.034 -0.1553  0.0244  0.4156
  874MOL0     C20480   2.007   4.987   9.997 -0.5355  0.0523 -0.4631
  874MOL0     C20481   1.908   5.098  10.014  0.5859 -0.0719 -0.0592
  874MOL0     O20482   1.920   5.236   9.980 -0.6262  0.2308  0.5886
  874MOL0     C20483   2.053   5.301   9.973 -0.4766 -0.4569 -0.6022
  874MOL0     C20484   2.060   5.456   9.951 -0.4658 -0.1996  0.6953
  874MOL0     C20485   2.024   5.519  10.080 -0.1576 -0.2809 -0.4512
  874MOL0     C20486   2.053   5.667  10.074  1.6717 -0.2447 -0.5713
  874MOL0     C20487   2.088   5.742  10.209  0.6567  0.3879  0.4816
  874MOL0     C20488   2.013   5.709  10.330  0.5332  0.0486  0.3930
  874MOL0     C20489   1.886   5.799  10.340  1.0022  0.3803 -0.0664
  874MOL0     C20490   1.909   5.933  10.403 -0.5827  0.0853 -0.2965
  874MOL0     N20491   1.916   5.923  10.549 -0.3518 -0.3487 -0.1855
  874MOL0     C20492   2.014   5.888  10.641  0.2741 -0.2230  0.6688
  874MOL0     C20493   1.977   5.932  10.756 -0.3318  0.1907 -0.1374
  874MOL0     C20494   2.043   5.914  10.878 -0.1136  0.0965  0.8187
  874MOL0     C20495   2.144   6.032  10.878  0.5412  0.4390  0.9874
  874MOL0     C20496   2.247   6.006  10.993 -0.5748  0.4880  0.3388
  874MOL0     C20497   2.345   5.891  10.965 -0.2976 -0.4279  0.0983
  874MOL0     O20498   2.388   5.895  10.830 -0.9239 -0.4354  0.1134
  874MOL0     C20499   2.462   5.799  10.767  0.3645  0.0766  0.3710
  874MOL0     C20500   2.501   5.819  10.634 -0.3749 -0.5636 -0.2184
  874MOL0     C20501   2.552   5.722  10.558  0.1079 -0.0343  0.8965
  874MOL0     C20502   2.586   5.752  10.410 -0.2844  0.3058  0.2163
  874MOL0     C20503   2.580   5.597  10.619  1.0228 -0.1015  0.6392
  874MOL0     C20504   2.649   5.508  10.538  0.2576  0.1936  0.2379
  874MOL0     O20505   2.780   5.527  10.496 -0.5747 -0.1383 -0.6870
  874MOL0     C20506   2.846   5.431  10.430 -0.8491  0.2804 -0.1146
  874MOL0     C20507   2.900   5.312  10.485  0.0258  0.3642  0.0598
  874MOL0     C20508   2.975   5.231  10.404 -0.3354  0.5224  0.2430
  874MOL0     C20509   3.000   5.260  10.265 -0.7416 -0.8232  0.1013
  874MOL0     O20510   3.074   5.168  10.200  0.4042 -0.7248  0.0589
  874MOL0     C20511   3.006   5.122  10.083  0.5116 -0.8330 -0.2101
  874MOL0     C20512   2.983   4.971  10.092 -1.2961  0.3481 -0.0532
  874MOL0     C20513   2.963   4.928   9.946  0.8824  0.3133 -0.2512
  874MOL0     C20514   2.945   4.779   9.944  0.0170  0.2063  0.7436
  874MOL0     C20515   2.941   4.719   9.804  0.0271 -1.0592  0.2965
  874MOL0     C20516   2.805   4.737   9.745 -0.7645 -0.4867  1.2021
  874MOL0     C20517   2.808   4.701   9.598 -0.1295  0.0999 -0.2914
  874MOL0     C20518   2.680   4.631   9.552 -0.2095 -0.4407 -0.5566
  874MOL0    Cl20519   2.690   4.638   9.366  0.1704  0.0888  0.0526
  874MOL0     C20520   2.948   5.374  10.209 -0.3667 -0.3939 -0.4818
  874MOL0     C20521   2.864   5.453  10.290  0.1871  1.2244  0.3331
  874MOL0     O20522   2.573   5.418  10.501 -0.5237 -0.3951  1.4192
  874MOL0     C20523   2.569   5.577  10.752  0.1856  0.0178  0.2026
  874MOL0     C20524   2.511   5.680  10.829 -0.8845  0.4186  0.0191
  874MOL0     N20525   1.863   6.008  10.747  0.2018  1.3310 -0.3674
  874MOL0     N20526   1.822   5.993  10.622  0.9411  0.9611  0.4199
  874MOL0     C20527   1.771   5.061  10.029  1.1508 -0.4840  1.0143
  874MOL0     C20528   1.759   4.924  10.055 -0.3088  0.1641 -0.4033
  874MOL0     C20529   1.724   4.596  10.334  0.5721  0.3784 -0.1190
  874MOL0     C20530   1.596   4.616  10.387 -1.3083  0.2170 -0.6230
  874MOL0     C20531   1.531   4.522  10.469  1.7035 -0.5321  0.0799
  874MOL0     C20532   1.594   4.400  10.489  0.0295 -0.1528 -0.6417
  874MOL0     O20533   1.517   4.303  10.550 -0.1408 -0.2492 -0.8442
  874MOL0     C20534   1.571   4.237  10.667 -0.5665 -0.5762 -0.1446
  874MOL0     C20535   1.455   4.172  10.729 -0.7170  0.2699  0.0628
  874MOL0     C20536   1.498   4.118  10.864 -1.0284 -0.1797 -0.2829
  874MOL0     C20537   1.391   4.033  10.932  0.1925  0.1588 -0.4605
  874MOL0     C20538   1.368   3.909  10.863  0.0280 -0.2448  0.1400
  874MOL0     C20539   1.323   3.813  10.799 -0.3868 -0.4524  0.2693
  874MOL0     C20540   1.718   4.380  10.442 -0.7284 -0.0515 -0.0221
  874MOL0     C20541   1.788   4.474  10.363  0.0715 -0.5756  0.9071
  874MOL0     C20542   1.926   4.439  10.330 -0.1977 -0.0663  0.8810
  874MOL0     H20543   2.072   4.787  10.032 -0.7176 -0.6121 -0.1864
  874MOL0     H20544   2.107   5.008   9.962 -0.5509 -1.1872 -1.3569
  874MOL0     H20545   2.117   5.265   9.892  2.7664  1.1619  1.0502
  874MOL0     H20546   2.111   5.273  10.062 -0.4910  0.9660 -0.1294
  874MOL0     H20547   2.163   5.483   9.925 -1.0580  1.4242 -0.0767
  874MOL0     H20548   1.988   5.485   9.874  0.3114  1.1993  0.4518
  874MOL0     H20549   1.917   5.514  10.106 -0.3645  1.2094 -0.9588
  874MOL0     H20550   2.088   5.485  10.162  0.4800 -1.0374 -1.2443
  874MOL0     H20551   2.139   5.687  10.009  2.0643  0.2020  0.0644
  874MOL0     H20552   1.966   5.709  10.023  0.6338  0.6078  1.7642
  874MOL0     H20553   2.087   5.848  10.185  0.3327  0.6011  1.4268
  874MOL0     H20554   2.192   5.713  10.224  0.0866 -1.5010  1.1341
  874MOL0     H20555   1.977   5.605  10.337  0.5687  0.0603  0.7604
  874MOL0     H20556   2.076   5.726  10.418  1.8173 -2.6677  0.1066
  874MOL0     H20557   1.815   5.739  10.397  1.5521 -0.7863 -0.5737
  874MOL0     H20558   1.845   5.815  10.240 -1.2454  2.8565  1.1296
  874MOL0     H20559   2.000   5.969  10.356 -0.7977  1.0199 -0.0190
  874MOL0     H20560   1.833   6.010  10.389 -2.4451 -1.4495  0.7679
  874MOL0     H20561   2.107   5.834  10.623  1.0409  1.4984 -1.0424
  874MOL0     H20562   2.083   5.812  10.877  1.3900  0.6607 -0.1492
  874MOL0     H20563   1.975   5.940  10.960 -1.2681  0.2244 -0.1656
  874MOL0     H20564   2.211   6.048  10.793  0.7386  1.1508  1.2614
  874MOL0     H20565   2.092   6.128  10.879  1.8615  1.3769 -2.7412
  874MOL0     H20566   2.294   6.102  11.014 -0.6159  0.3405  1.1441
  874MOL0     H20567   2.194   5.984  11.087 -0.8826  1.9964  0.5356
  874MOL0     H20568   2.430   5.902  11.033  0.7785 -1.8330 -0.9712
  874MOL0     H20569   2.285   5.806  10.998 -3.8411  2.9557  3.4124
  874MOL0     H20570   2.466   5.916  10.601  1.7101  1.0055  1.8227
  874MOL0     H20571   2.522   5.835  10.379 -1.1975 -0.4991 -0.1274
  874MOL0     H20572   2.559   5.665  10.349 -0.7991  0.4680  0.2069
  874MOL0     H20573   2.690   5.781  10.399 -0.9321  2.3643 -0.9374
  874MOL0     H20574   2.863   5.286  10.584 -0.6703 -1.9733 -0.7289
  874MOL0     H20575   3.008   5.137  10.447 -2.2040 -1.8443 -2.9739
  874MOL0     H20576   2.910   5.170  10.066 -0.4328 -0.7594  4.1580
  874MOL0     H20577   3.074   5.147  10.001 -0.5903  2.0104 -0.3456
  874MOL0     H20578   3.070   4.926  10.141 -2.2240 -2.4457 -0.7926
  874MOL0     H20579   2.899   4.945  10.157 -0.0280  1.0922  1.9419
  874MOL0     H20580   3.047   4.963   9.885  1.3281  0.5180  0.4663
  874MOL0     H20581   2.875   4.978   9.905 -0.3829 -1.7355 -0.1798
  874MOL0     H20582   2.852   4.752   9.993 -0.4493 -0.5467 -0.5042
  874MOL0     H20583   3.025   4.734  10.003  0.9879 -0.4566 -0.9936
  874MOL0     H20584   3.020   4.756   9.738  1.9962  0.0967  3.1034
  874MOL0     H20585   2.955   4.610   9.809 -1.0087 -1.2027  0.2845
  874MOL0     H20586   2.755   4.834   9.756 -0.4440 -0.2531  0.6702
  874MOL0     H20587   2.741   4.668   9.800  2.4085 -1.7673  3.5967
  874MOL0     H20588   2.895   4.642   9.566 -0.6145  0.9949 -3.5014
  874MOL0     H20589   2.821   4.798   9.549 -1.2940  1.2407  1.5213
  874MOL0     H20590   2.588   4.684   9.580  1.0076  0.9018  1.1505
  874MOL0     H20591   2.693   4.534   9.599 -0.0287  0.2286  0.8186
  874MOL0     H20592   2.957   5.403  10.105  5.0175  3.0272  0.5010
  874MOL0     H20593   2.800   5.534  10.256 -0.3461  0.6900  0.0327
  874MOL0     H20594   2.596   5.482  10.796 -0.1174  0.3502  1.1425
  874MOL0     H20595   2.487   5.663  10.934  0.2810 -1.2955  0.0604
  874MOL0     H20596   1.697   5.139  10.034  1.6517 -0.0712  2.9484
  874MOL0     H20597   1.658   4.889  10.075 -0.2616  0.5313  0.5595
  874MOL0     H20598   1.541   4.709  10.379 -1.2642  0.4131  1.0019
  874MOL0     H20599   1.427   4.534  10.498  1.2272  0.3932 -1.8332
  874MOL0     H20600   1.640   4.160  10.632 -0.5735 -0.4697 -0.3941
  874MOL0     H20601   1.614   4.314  10.731  2.8825 -2.0436 -0.5122
  874MOL0     H20602   1.412   4.098  10.660 -1.3292 -2.5728  3.2361
  874MOL0     H20603   1.381   4.251  10.745 -0.2974  0.7104 -0.1517
  874MOL0     H20604   1.586   4.053  10.857 -2.0280 -2.0169  2.4124
  874MOL0     H20605   1.522   4.192  10.940 -3.6253 -0.1153  0.5705
  874MOL0     H20606   1.298   4.088  10.944 -1.0219 -1.4620 -2.0612
  874MOL0     H20607   1.419   4.001  11.033 -1.2713 -3.0442 -0.9614
  874MOL0     H20608   1.285   3.735  10.737  2.1936 -1.8270  0.2569
  874MOL0     H20609   1.771   4.288  10.464 -4.2711 -2.2469  0.1338
  874MOL0     H20610   1.949   4.333  10.339 -0.4617 -0.1308  0.7904
  874MOL0     H20611   1.960   4.483  10.236  1.2026 -2.4902  0.1597
  874MOL0     H20612   2.004   4.476  10.397  2.2338 -1.3026 -1.0634
  875MOL0     O20613   2.378  10.400  10.050  0.7527  0.1249  0.0068
  875MOL0     C20614   2.313  10.460  10.141  0.0316  0.0998  0.7106
  875MOL0     O20615   2.250  10.398  10.249 -0.0312 -0.0285 -0.2515
  875MOL0     C20616   2.214  10.269  10.249  0.4520 -0.7956  0.4032
  875MOL0     C20617   2.153  10.208  10.134 -0.4694 -0.3741  0.6065
  875MOL0     C20618   2.089  10.080  10.130  0.3189 -0.3796  0.2818
  875MOL0     C20619   2.081  10.019  10.261 -0.6041 -0.3570 -1.2289
  875MOL0     O20620   2.025   9.896  10.265 -0.2507 -0.0664  0.1078
  875MOL0     C20621   1.962   9.869  10.398  0.4531  0.0664  0.7740
  875MOL0     C20622   1.890   9.737  10.390 -0.0117 -0.6162  0.0732
  875MOL0     C20623   1.985   9.632  10.327 -0.6457  0.9641 -0.5211
  875MOL0     C20624   1.956   9.480  10.370  0.0006 -0.2566  0.1978
  875MOL0     C20625   1.876   9.410  10.266  0.0490  0.2584 -0.6286
  875MOL0     C20626   1.727   9.437  10.255 -0.7628 -0.7431  0.2400
  875MOL0     C20627   1.666   9.356  10.135 -1.0367 -0.1537 -0.1509
  875MOL0     C20628   1.689   9.197  10.148  0.3146  0.5748 -0.4387
  875MOL0     N20629   1.610   9.144  10.267  0.0728  0.9815  0.7360
  875MOL0     C20630   1.474   9.170  10.295  0.8463  0.9642 -0.4815
  875MOL0     C20631   1.442   9.101  10.406 -0.8759 -0.0784 -0.2479
  875MOL0     C20632   1.302   9.109  10.471 -0.4537  0.1064  0.2125
  875MOL0     C20633   1.270   8.998  10.572 -0.0846 -0.1953 -1.0916
  875MOL0     C20634   1.142   9.028  10.644  0.3638 -1.2121 -0.9247
  875MOL0     C20635   1.160   9.118  10.778 -0.0739 -0.1977  0.3883
  875MOL0     O20636   1.219   9.030  10.876 -0.0196  0.3203 -0.8628
  875MOL0     C20637   1.271   9.074  10.993  0.8118 -0.0900 -0.0572
  875MOL0     C20638   1.282   9.214  11.021 -0.1771  0.3835  0.3191
  875MOL0     C20639   1.321   9.257  11.141  0.3658 -0.5698 -0.2767
  875MOL0     C20640   1.284   9.400  11.179 -0.0829  0.9201  0.0213
  875MOL0     C20641   1.370   9.168  11.237 -0.9463  0.7324 -0.1662
  875MOL0     C20642   1.401   9.197  11.377  0.5728  0.4430 -0.8649
  875MOL0     O20643   1.481   9.103  11.441  0.0546  0.5000  0.1216
  875MOL0     C20644   1.535   9.144  11.555 -0.9146  0.6270  0.1082
  875MOL0     C20645   1.500   9.095  11.683  1.1914 -0.1259  0.8597
  875MOL0     C20646   1.570   9.129  11.801 -0.2270 -0.2577  0.2760
  875MOL0     C20647   1.689   9.201  11.790 -0.3062 -0.2656 -0.6431
  875MOL0     O20648   1.753   9.239  11.907  0.7304 -0.6005  0.1130
  875MOL0     C20649   1.848   9.343  11.905  0.3465 -0.5501  0.4877
  875MOL0     C20650   1.875   9.390  12.049  0.6332  0.7602 -0.9710
  875MOL0     C20651   1.971   9.286  12.108 -0.5819  0.3222  0.2877
  875MOL0     C20652   2.022   9.320  12.247  0.5130  0.1875  0.2639
  875MOL0     C20653   2.102   9.215  12.324  0.7652  0.3850  0.1904
  875MOL0     C20654   2.128   9.262  12.465 -0.0564 -0.2149 -0.2487
  875MOL0     C20655   1.989   9.276  12.528  0.7954 -0.6962 -1.0706
  875MOL0     C20656   1.988   9.268  12.682 -0.1243 -1.1615 -0.4376
  875MOL0    Cl20657   2.049   9.115  12.750  0.4875  0.3882  0.4670
  875MOL0     C20658   1.728   9.258  11.667  0.2385 -0.0567  0.1363
  875MOL0     C20659   1.645   9.236  11.555  0.4757  0.9582 -0.3221
  875MOL0     O20660   1.356   9.293  11.436 -0.9637  0.2309  0.5226
  875MOL0     C20661   1.363   9.032  11.206 -0.5631  0.6123  0.3334
  875MOL0     C20662   1.300   8.985  11.089 -0.1693 -0.9027 -0.0339
  875MOL0     N20663   1.557   9.024  10.429  0.3432  0.3518  0.1580
  875MOL0     N20664   1.657   9.046  10.355 -0.1670  0.5340 -0.3874
  875MOL0     C20665   2.137  10.081  10.373  0.1166  0.5221 -0.6357
  875MOL0     C20666   2.189  10.206  10.367  0.9234 -0.1764 -0.2014
  875MOL0     C20667   2.262  10.595  10.112 -0.0224  0.9173  1.1940
  875MOL0     C20668   2.304  10.657   9.997 -0.4424 -0.4833  0.1848
  875MOL0     C20669   2.249  10.782   9.957  0.0932 -0.2226  0.0083
  875MOL0     C20670   2.172  10.858  10.033  0.1216  0.2396 -0.8492
  875MOL0     O20671   2.132  10.977   9.976  0.3491 -0.1314 -0.8018
  875MOL0     C20672   1.991  11.002  10.005  0.6766  1.0059  0.3289
  875MOL0     C20673   1.901  10.933   9.900 -0.3170  1.3242  0.3795
  875MOL0     C20674   1.768  10.879   9.945  0.8299 -0.6733 -0.4096
  875MOL0     C20675   1.717  10.769   9.862 -0.1708 -0.4786  0.2210
  875MOL0     C20676   1.695  10.814   9.719 -1.3921  0.3295  0.2784
  875MOL0     C20677   1.656  10.846   9.612 -0.7144  0.1126  0.3332
  875MOL0     C20678   2.142  10.804  10.163  1.8067  0.4792 -0.4655
  875MOL0     C20679   2.186  10.674  10.203  0.0840  0.8332 -0.2176
  875MOL0     C20680   2.126  10.624  10.328 -0.0579 -1.0278  0.0717
  875MOL0     H20681   2.151  10.253  10.035 -0.2121 -1.1349  0.2411
  875MOL0     H20682   2.044  10.022  10.050 -1.8132  1.0351  0.3993
  875MOL0     H20683   1.890   9.944  10.432 -1.0816 -1.7415  1.6856
  875MOL0     H20684   2.037   9.847  10.475  1.5845 -2.2775 -0.8596
  875MOL0     H20685   1.867   9.682  10.481  1.5949 -1.5988 -0.0796
  875MOL0     H20686   1.800   9.737  10.327  1.1606 -1.9249 -1.6975
  875MOL0     H20687   1.997   9.649  10.219 -1.3351  3.3056 -0.2698
  875MOL0     H20688   2.084   9.648  10.370 -0.9236  2.4527 -0.3827
  875MOL0     H20689   2.056   9.444  10.395  0.4046  2.9562  4.4554
  875MOL0     H20690   1.903   9.482  10.466 -1.5774 -2.3131 -0.5537
  875MOL0     H20691   1.886   9.303  10.283  1.8871  0.5751  0.5347
  875MOL0     H20692   1.928   9.426  10.171 -0.5991  1.8629 -0.7535
  875MOL0     H20693   1.670   9.413  10.345  0.0266 -3.2135  0.1666
  875MOL0     H20694   1.709   9.543  10.239  2.1522  0.6445  4.4389
  875MOL0     H20695   1.710   9.386  10.039 -2.7671  0.5869 -0.7550
  875MOL0     H20696   1.557   9.369  10.131 -1.3803 -2.3205 -3.9246
  875MOL0     H20697   1.652   9.145  10.059  2.4737  1.8316 -2.1609
  875MOL0     H20698   1.796   9.177  10.142  0.3080  0.9998 -2.7059
  875MOL0     H20699   1.417   9.248  10.246  0.4345  0.6647 -0.4811
  875MOL0     H20700   1.241   9.070  10.389  0.7061 -3.5213  0.8741
  875MOL0     H20701   1.271   9.206  10.510 -3.7898 -0.7557  0.0005
  875MOL0     H20702   1.268   8.896  10.533 -2.5404 -0.1948 -1.1460
  875MOL0     H20703   1.341   8.995  10.655 -0.7918 -2.5546 -0.4814
  875MOL0     H20704   1.082   9.087  10.573  0.7312  1.7847  1.0787
  875MOL0     H20705   1.087   8.937  10.670  2.2165 -1.4903  2.6091
  875MOL0     H20706   1.228   9.199  10.750 -1.5820  0.5283 -1.3997
  875MOL0     H20707   1.074   9.164  10.827  0.2647 -0.6023  1.3822
  875MOL0     H20708   1.270   9.292  10.945 -1.1951  2.2988  2.3357
  875MOL0     H20709   1.208   9.408  11.257  0.9515 -0.1312  1.1980
  875MOL0     H20710   1.250   9.447  11.087 -0.9122  0.0184 -0.1523
  875MOL0     H20711   1.370   9.448  11.227  0.2098  0.3580  0.0670
  875MOL0     H20712   1.421   9.022  11.697  2.2188 -1.3962  0.1423
  875MOL0     H20713   1.543   9.095  11.900 -0.9568 -1.6877 -0.3862
  875MOL0     H20714   1.940   9.323  11.849 -0.9434 -0.7780 -1.6739
  875MOL0     H20715   1.806   9.426  11.848  0.6746 -2.3647 -2.6298
  875MOL0     H20716   1.914   9.492  12.052 -0.1759  1.0836  1.9989
  875MOL0     H20717   1.780   9.398  12.103  1.0949  1.7422 -0.2786
  875MOL0     H20718   2.046   9.256  12.035  0.1251  0.6448  0.8742
  875MOL0     H20719   1.906   9.199  12.120  1.6209 -1.5387 -0.5641
  875MOL0     H20720   1.928   9.343  12.299  0.4051  1.6138 -0.5161
  875MOL0     H20721   2.092   9.404  12.246  0.8160 -0.0291 -1.8890
  875MOL0     H20722   2.045   9.122  12.325  0.4866  0.5076  2.9226
  875MOL0     H20723   2.188   9.193  12.261 -1.6714  1.6363 -4.0223
  875MOL0     H20724   2.181   9.357  12.457 -0.8141  0.5342  2.5677
  875MOL0     H20725   2.192   9.193  12.522  0.9434 -0.0801 -1.1695
  875MOL0     H20726   1.921   9.200  12.488 -3.4497  1.8739  0.4810
  875MOL0     H20727   1.942   9.370  12.496  0.8155  0.0143  0.8645
  875MOL0     H20728   1.887   9.263  12.723  0.1486 -0.3673  0.3701
  875MOL0     H20729   2.032   9.355  12.732 -3.9161 -0.0009  1.2944
  875MOL0     H20730   1.812   9.325  11.652  0.4350 -0.5796 -1.2840
  875MOL0     H20731   1.667   9.274  11.456 -0.3456  1.3333 -0.3728
  875MOL0     H20732   1.379   8.957  11.282 -3.6460 -0.1702  0.3445
  875MOL0     H20733   1.296   8.879  11.066  1.6028 -1.3177  1.3109
  875MOL0     H20734   2.139  10.033  10.470  1.6604  2.2844  0.2801
  875MOL0     H20735   2.211  10.239  10.468 -0.5650 -0.7439  0.3388
  875MOL0     H20736   2.364  10.611   9.919  0.9188 -0.3085  1.0799
  875MOL0     H20737   2.292  10.825   9.868 -0.6627  2.0231  0.6579
  875MOL0     H20738   1.966  10.971  10.107  2.6314  1.1046  0.8768
  875MOL0     H20739   1.979  11.109  10.025 -1.6030  0.3112  3.3994
  875MOL0     H20740   1.961  10.852   9.857 -2.6143 -0.0172 -0.4698
  875MOL0     H20741   1.883  11.009   9.823 -1.7647  1.0402  0.4144
  875MOL0     H20742   1.781  10.846  10.048 -0.1301  2.4252  0.7933
  875MOL0     H20743   1.699  10.964   9.939 -1.4577 -2.4368 -0.5800
  875MOL0     H20744   1.618  10.747   9.904 -0.7355 -0.1853 -0.9068
  875MOL0     H20745   1.783  10.682   9.865  0.9624  0.2562 -1.6372
  875MOL0     H20746   1.614  10.865   9.515 -2.6706  2.4186  1.5220
  875MOL0     H20747   2.083  10.853  10.240  1.2423 -1.3439  0.3197
  875MOL0     H20748   2.048  10.548  10.318 -1.7205  0.9056 -3.3059
  875MOL0     H20749   2.206  10.578  10.387 -1.5350 -2.8646  0.7492
  875MOL0     H20750   2.096  10.713  10.384  0.4209  0.0366 -1.3065
  876MOL0     O20751  10.861   7.629   5.748  0.0243  0.1693  0.8413
  876MOL0     C20752  10.807   7.629   5.636 -0.3955  0.2103  0.7998
  876MOL0     O20753  10.755   7.729   5.580  0.1872  0.0118  0.0858
  876MOL0     C20754  10.746   7.859   5.632 -0.2461 -0.5983  0.1397
  876MOL0     C20755  10.681   7.950   5.555  0.0192 -0.1489 -0.2640
  876MOL0     C20756  10.671   8.086   5.579  0.7285  0.3243  0.2434
  876MOL0     C20757  10.735   8.137   5.694  0.2675 -0.3443 -0.3522
  876MOL0     O20758  10.752   8.270   5.721  0.0950 -1.2145  0.1934
  876MOL0     C20759  10.666   8.364   5.649 -0.2696 -0.7160 -0.4797
  876MOL0     C20760  10.707   8.498   5.692  0.2196 -0.3442  0.8713
  876MOL0     C20761  10.636   8.529   5.827 -0.1778  0.2793  0.3634
  876MOL0     C20762  10.667   8.664   5.875 -0.4309  0.4486  0.5155
  876MOL0     C20763  10.607   8.682   6.012 -0.5390 -0.8778 -0.2463
  876MOL0     C20764  10.625   8.821   6.076 -0.5201  0.2410  0.9727
  876MOL0     C20765  10.734   8.814   6.191 -0.1060 -0.8048  0.1054
  876MOL0     C20766  10.767   8.951   6.252  0.3543 -1.2005 -0.0709
  876MOL0     N20767  10.907   8.993   6.254 -0.4151  0.0530 -1.0000
  876MOL0     C20768  11.025   8.919   6.240  0.8144  0.1090 -0.6069
  876MOL0     C20769  11.128   8.990   6.276 -1.7596  0.5150  0.6517
  876MOL0     C20770  11.275   8.944   6.266  0.0301 -0.9159 -0.9350
  876MOL0     C20771  11.356   9.037   6.361 -0.4612 -0.6989  0.5642
  876MOL0     C20772  11.496   8.994   6.386 -0.2155  0.2600 -0.3729
  876MOL0     C20773  11.489   8.863   6.472  0.1286 -0.2199 -0.8530
  876MOL0     O20774  11.607   8.851   6.559  0.5383  0.0595  0.2094
  876MOL0     C20775  11.601   8.750   6.652  0.1555 -0.7544 -0.7983
  876MOL0     C20776  11.488   8.685   6.698 -0.1649  0.5588  0.3887
  876MOL0     C20777  11.475   8.593   6.805 -0.5476  1.5513  0.1245
  876MOL0     C20778  11.349   8.525   6.835 -0.6200 -1.0655 -0.0156
  876MOL0     C20779  11.604   8.566   6.866 -0.4491  0.7024 -0.1491
  876MOL0     C20780  11.620   8.472   6.988  0.3834  0.2281 -0.0829
  876MOL0     O20781  11.501   8.439   7.054  0.7654 -0.2867 -0.5608
  876MOL0     C20782  11.516   8.359   7.164  0.1017 -0.0507 -0.0902
  876MOL0     C20783  11.564   8.409   7.289 -0.3192  0.5417 -0.0801
  876MOL0     C20784  11.584   8.318   7.391  0.1622 -0.2083 -0.4608
  876MOL0     C20785  11.539   8.178   7.377 -1.4129 -0.2522 -0.0988
  876MOL0     O20786  11.539   8.084   7.477 -0.2583 -0.3841 -0.7648
  876MOL0     C20787  11.541   8.143   7.603  0.7305  0.3536 -0.3591
  876MOL0     C20788  11.541   8.035   7.713 -0.3044 -0.4988 -0.3820
  876MOL0     C20789  11.422   7.935   7.695 -0.0554  0.5170  0.0601
  876MOL0     C20790  11.402   7.866   7.824 -1.2664  0.0482 -0.4079
  876MOL0     C20791  11.334   7.734   7.795  0.3794  0.1121 -0.4382
  876MOL0     C20792  11.187   7.765   7.761 -1.4756 -0.0087  0.5180
  876MOL0     C20793  11.106   7.638   7.728  0.0293 -0.0927  0.3664
  876MOL0     C20794  11.121   7.588   7.574 -0.1660 -0.4058  0.0118
  876MOL0    Cl20795  11.033   7.695   7.462 -0.1313  0.0924 -0.3884
  876MOL0     C20796  11.495   8.134   7.260  0.5953  0.0023  0.0374
  876MOL0     C20797  11.489   8.225   7.158 -0.2950 -0.4387  0.0564
  876MOL0     O20798  11.729   8.434   7.020 -0.1369  0.3827 -0.1689
  876MOL0     C20799  11.720   8.632   6.824 -1.1802 -0.4754  0.1180
  876MOL0     C20800  11.716   8.720   6.716  0.8038  0.8205  0.4058
  876MOL0     N20801  11.073   9.119   6.282  0.6501  0.0793  0.7332
  876MOL0     N20802  10.944   9.117   6.275 -0.0869  0.0118 -0.5534
  876MOL0     C20803  10.808   8.052   5.773 -0.1549  1.2168  0.3717
  876MOL0     C20804  10.814   7.917   5.740  1.5146  0.5394 -0.0280
  876MOL0     C20805  10.850   7.518   5.546  1.4141 -0.2948 -0.1029
  876MOL0     C20806  10.909   7.545   5.422 -0.1165  0.3407  0.0366
  876MOL0     C20807  10.941   7.452   5.332  0.1766  0.4348  0.6288
  876MOL0     C20808  10.916   7.316   5.356 -0.0919 -0.1556  0.2097
  876MOL0     O20809  10.954   7.219   5.265 -0.0435 -0.6523 -0.4562
  876MOL0     C20810  10.893   7.088   5.292  0.2828 -0.2284  1.1400
  876MOL0     C20811  10.910   7.005   5.163 -0.0297 -0.2980 -0.0589
  876MOL0     C20812  11.057   6.974   5.130 -0.9139 -0.4511  0.0563
  876MOL0     C20813  11.100   6.842   5.197  0.6509 -0.5056 -0.5089
  876MOL0     C20814  11.082   6.736   5.095 -0.1294  0.2671 -0.1862
  876MOL0     C20815  11.061   6.648   5.012 -0.2595  0.7664  0.3203
  876MOL0     C20816  10.848   7.286   5.483 -0.0070 -0.0662  0.1406
  876MOL0     C20817  10.820   7.383   5.577  0.4869 -0.3687  0.0325
  876MOL0     C20818  10.754   7.347   5.709 -0.6174 -0.0772  0.6037
  876MOL0     H20819  10.657   7.912   5.456  2.5672  1.9483 -1.7990
  876MOL0     H20820  10.643   8.148   5.494 -0.7225 -2.8170 -1.7431
  876MOL0     H20821  10.559   8.341   5.656 -0.0236 -2.1624 -1.1440
  876MOL0     H20822  10.698   8.360   5.545 -1.0975 -0.0564 -0.7736
  876MOL0     H20823  10.814   8.521   5.703  0.9007 -1.6490 -2.0566
  876MOL0     H20824  10.677   8.573   5.619  0.4453  2.7376  3.7282
  876MOL0     H20825  10.528   8.517   5.827 -0.0297 -1.7907 -2.1612
  876MOL0     H20826  10.676   8.454   5.896  0.2436 -2.6470 -2.8313
  876MOL0     H20827  10.776   8.675   5.868 -0.5588  0.5128 -2.8623
  876MOL0     H20828  10.623   8.731   5.801 -4.8492  0.4961  2.8805
  876MOL0     H20829  10.647   8.609   6.084  2.7445  0.0134 -0.9705
  876MOL0     H20830  10.502   8.659   5.994 -0.3069 -0.4415 -2.3729
  876MOL0     H20831  10.654   8.885   5.992 -0.8456 -0.7450  0.0825
  876MOL0     H20832  10.526   8.852   6.111 -0.2229  3.4196 -0.6391
  876MOL0     H20833  10.824   8.758   6.165  0.8720  0.4081  0.8030
  876MOL0     H20834  10.684   8.751   6.265 -0.7483 -1.3919 -0.7941
  876MOL0     H20835  10.713   9.035   6.209  0.2070 -0.4380  1.5152
  876MOL0     H20836  10.739   8.948   6.358  0.0105  0.5316 -0.0836
  876MOL0     H20837  11.033   8.813   6.220  0.9526 -0.7511  3.2587
  876MOL0     H20838  11.318   8.959   6.167  1.7505  2.1198  0.1439
  876MOL0     H20839  11.296   8.843   6.304  1.4252 -0.3497 -0.1331
  876MOL0     H20840  11.362   9.127   6.299 -1.7837  0.2445  1.7442
  876MOL0     H20841  11.310   9.054   6.459  2.7360  1.0999  1.8789
  876MOL0     H20842  11.548   8.995   6.290 -1.5131  1.3539 -1.1005
  876MOL0     H20843  11.555   9.068   6.441  0.1320  0.6961 -1.3070
  876MOL0     H20844  11.405   8.864   6.542  0.8630 -0.4901  0.0551
  876MOL0     H20845  11.492   8.784   6.397  3.0954 -0.2144 -0.8751
  876MOL0     H20846  11.397   8.699   6.641 -0.1876 -1.5933 -0.1838
  876MOL0     H20847  11.362   8.433   6.893 -0.7202 -0.1950  1.4442
  876MOL0     H20848  11.294   8.501   6.744 -0.8055  2.7354 -1.0727
  876MOL0     H20849  11.285   8.594   6.891 -2.3258  0.4023 -3.4796
  876MOL0     H20850  11.586   8.515   7.296 -1.4494  0.7360  0.9081
  876MOL0     H20851  11.617   8.342   7.491 -1.5351 -3.7561  1.1200
  876MOL0     H20852  11.639   8.187   7.621  2.2885 -2.6421 -1.0216
  876MOL0     H20853  11.464   8.219   7.621 -0.8347 -1.2366  0.0272
  876MOL0     H20854  11.637   7.982   7.709  0.6095  1.0676  0.0955
  876MOL0     H20855  11.532   8.086   7.809 -0.2242 -1.2378  0.0295
  876MOL0     H20856  11.424   7.880   7.601 -0.4056  1.8198 -0.7394
  876MOL0     H20857  11.328   7.991   7.691 -2.1853 -2.8145 -2.4542
  876MOL0     H20858  11.356   7.931   7.899  0.0951 -1.3438  1.7407
  876MOL0     H20859  11.498   7.830   7.862 -0.9050 -0.0236 -1.3541
  876MOL0     H20860  11.391   7.682   7.718  0.1262 -2.7218  1.1589
  876MOL0     H20861  11.331   7.684   7.892  2.0119  4.4378  2.1315
  876MOL0     H20862  11.185   7.834   7.675 -1.6832 -1.4092 -0.6389
  876MOL0     H20863  11.132   7.804   7.847  1.1309 -0.6944  2.5832
  876MOL0     H20864  10.998   7.651   7.745  0.3531  0.5760  2.0886
  876MOL0     H20865  11.140   7.559   7.795  1.5310 -0.0334 -0.2821
  876MOL0     H20866  11.085   7.486   7.556  1.1318 -0.5870 -1.7866
  876MOL0     H20867  11.228   7.583   7.551  0.1086 -2.0850  1.4367
  876MOL0     H20868  11.458   8.032   7.250  1.1342 -0.2311  0.3578
  876MOL0     H20869  11.469   8.177   7.063 -0.6189 -1.5009  0.6426
  876MOL0     H20870  11.818   8.604   6.861 -0.5775 -0.4032 -1.3419
  876MOL0     H20871  11.809   8.745   6.666  0.2097  2.3931  0.0145
  876MOL0     H20872  10.864   8.092   5.857  1.8330  0.4100 -0.4971
  876MOL0     H20873  10.872   7.870   5.819  3.3496  0.4266 -1.3786
  876MOL0     H20874  10.940   7.646   5.397 -1.3982  0.4162 -1.3335
  876MOL0     H20875  10.997   7.478   5.243 -2.2254  0.7949 -0.8759
  876MOL0     H20876  10.946   7.045   5.378 -2.5484  0.4208  3.3255
  876MOL0     H20877  10.786   7.090   5.311 -0.0068  2.6601 -0.2593
  876MOL0     H20878  10.869   7.052   5.074  2.2041  1.1759 -0.3780
  876MOL0     H20879  10.850   6.913   5.173 -0.7943  0.0542 -1.2105
  876MOL0     H20880  11.062   6.968   5.021 -2.8686 -1.0310 -0.0400
  876MOL0     H20881  11.124   7.055   5.160  2.9309 -3.4862  0.5210
  876MOL0     H20882  11.033   6.818   5.280  3.2786 -0.6846  1.6701
  876MOL0     H20883  11.203   6.840   5.234  0.1876  1.8995  1.1470
  876MOL0     H20884  11.048   6.568   4.942 -1.1016  0.3312  0.9400
  876MOL0     H20885  10.821   7.187   5.516 -1.8556  0.4603  0.3108
  876MOL0     H20886  10.822   7.375   5.790 -1.3338  2.6704  0.3739
  876MOL0     H20887  10.668   7.414   5.720 -0.7898 -0.1676 -0.1456
  876MOL0     H20888  10.724   7.242   5.701 -3.5524  0.7179 -0.1453
  877MOL0     O20889  11.314   8.820   0.976  0.9504  0.1786  0.1953
  877MOL0     C20890  11.357   8.928   1.020 -0.1521  0.9034 -1.1738
  877MOL0     O20891  11.308   8.983   1.136  0.2586  0.4550 -0.0857
  877MOL0     C20892  11.373   9.104   1.177 -0.8859 -0.5051  0.6703
  877MOL0     C20893  11.291   9.219   1.176  0.0363  0.1773 -0.0975
  877MOL0     C20894  11.334   9.341   1.229  0.0870  0.1900 -0.6715
  877MOL0     C20895  11.468   9.351   1.272 -0.1021  0.1218  0.2875
  877MOL0     O20896  11.522   9.457   1.350 -1.0365  0.3395 -0.3057
  877MOL0     C20897  11.468   9.468   1.480 -0.1383 -0.3930 -0.1656
  877MOL0     C20898  11.499   9.610   1.529  0.0234  0.6375 -0.2817
  877MOL0     C20899  11.649   9.630   1.557  0.8022  0.3498 -0.6169
  877MOL0     C20900  11.702   9.549   1.671 -1.2080 -0.9090  0.8015
  877MOL0     C20901  11.849   9.581   1.702 -0.2152  0.5153  0.2271
  877MOL0     C20902  11.906   9.472   1.797 -0.1942  0.4363  0.2467
  877MOL0     C20903  12.048   9.523   1.845  0.3638  0.8819  0.2053
  877MOL0     C20904  12.037   9.587   1.982  0.6174 -0.1308  0.2315
  877MOL0     N20905  11.986   9.723   1.963  0.8218  0.5032  0.8848
  877MOL0     C20906  12.043   9.824   1.894  0.9759  0.8138 -0.6449
  877MOL0     C20907  11.944   9.915   1.878  1.2207  0.7276 -0.3071
  877MOL0     C20908  11.960  10.047   1.808 -0.5386  0.1448 -0.2032
  877MOL0     C20909  11.990  10.055   1.657 -0.0157 -0.5113  0.1209
  877MOL0     C20910  11.871  10.012   1.573 -1.4711  0.3868  0.0495
  877MOL0     C20911  11.892  10.014   1.418  0.4782 -0.1562  0.4721
  877MOL0     O20912  11.986   9.907   1.375 -0.0537 -0.6168  0.3390
  877MOL0     C20913  12.015   9.906   1.242 -0.3472  0.0620  0.3099
  877MOL0     C20914  12.146   9.869   1.208  1.0757 -0.1963 -0.0548
  877MOL0     C20915  12.183   9.858   1.074  0.0865  0.3337  0.4245
  877MOL0     C20916  12.326   9.829   1.047  0.1063 -0.4982 -0.7603
  877MOL0     C20917  12.087   9.866   0.971 -0.2709  0.0286 -0.9849
  877MOL0     C20918  12.122   9.873   0.828  0.0451 -0.3211  0.3521
  877MOL0     O20919  12.177   9.754   0.781  0.8331 -0.0064 -0.5507
  877MOL0     C20920  12.195   9.734   0.650 -0.2237 -0.0691 -0.4921
  877MOL0     C20921  12.146   9.611   0.608  1.0439 -0.5787 -0.0851
  877MOL0     C20922  12.149   9.577   0.469  0.7092  0.2339  0.5075
  877MOL0     C20923  12.210   9.664   0.380 -0.0509 -0.3971  1.2471
  877MOL0     O20924  12.200   9.662   0.245 -0.7123  0.0838 -0.4074
  877MOL0     C20925  12.237   9.532   0.197  0.2802  0.2855  0.1311
  877MOL0     C20926  12.197   9.524   0.041 -0.3063  0.9796 -0.0882
  877MOL0     C20927  12.043   9.550   0.017  0.4158 -0.5381 -0.0384
  877MOL0     C20928  12.001   9.534  -0.132  0.3971 -0.3848 -0.6898
  877MOL0     C20929  12.055   9.646  -0.220  1.4628 -0.9563  0.2338
  877MOL0     C20930  12.003   9.634  -0.363 -0.4996  0.0200 -0.0243
  877MOL0     C20931  12.057   9.745  -0.448 -0.2175 -0.2184 -0.5982
  877MOL0     C20932  12.060   9.717  -0.595 -0.9185 -0.2354 -0.4797
  877MOL0    Cl20933  11.881   9.705  -0.661 -0.0496  0.1863  0.3827
  877MOL0     C20934  12.274   9.776   0.429 -0.0944 -0.6301  0.2896
  877MOL0     C20935  12.265   9.820   0.563 -0.5457 -0.2686  0.0242
  877MOL0     O20936  12.115   9.982   0.771 -0.4572 -0.0852  0.6635
  877MOL0     C20937  11.962   9.907   1.010  0.5314  0.5266  0.8184
  877MOL0     C20938  11.928   9.924   1.142  0.1318  0.0861  0.0865
  877MOL0     N20939  11.833   9.867   1.939 -0.0503 -1.3531 -0.5762
  877MOL0     N20940  11.855   9.752   1.978  0.3143  0.1979  0.5769
  877MOL0     C20941  11.548   9.240   1.256  0.3214  0.4591 -0.2806
  877MOL0     C20942  11.510   9.116   1.218  0.3986 -0.3661 -0.3085
  877MOL0     C20943  11.450   8.990   0.931  0.5808  0.2442  0.1637
  877MOL0     C20944  11.397   9.088   0.841 -0.0192 -0.6315 -0.9642
  877MOL0     C20945  11.482   9.162   0.756 -0.7308 -0.2409  1.0229
  877MOL0     C20946  11.625   9.142   0.774  0.9529  0.4618  0.6693
  877MOL0     O20947  11.712   9.231   0.721  0.1417  0.1060  0.1770
  877MOL0     C20948  11.670   9.354   0.671  0.6210 -0.9470  0.3126
  877MOL0     C20949  11.775   9.464   0.646 -0.4244  0.3940  0.1806
  877MOL0     C20950  11.846   9.516   0.771  0.6937 -0.0595  0.1146
  877MOL0     C20951  11.751   9.578   0.870 -0.2311 -0.0239 -0.5332
  877MOL0     C20952  11.792   9.567   1.012  0.0992  0.1803  0.6880
  877MOL0     C20953  11.822   9.557   1.126  0.0808  0.5354  0.5796
  877MOL0     C20954  11.674   9.028   0.848  0.5224 -0.0810 -0.3046
  877MOL0     C20955  11.579   8.942   0.925  0.1190  0.6251 -0.9402
  877MOL0     C20956  11.636   8.829   1.007 -0.7318 -0.6536 -1.2928
  877MOL0     H20957  11.189   9.209   1.140 -1.0988  1.8167  2.3928
  877MOL0     H20958  11.266   9.426   1.237  1.6828  1.3601  1.7449
  877MOL0     H20959  11.514   9.394   1.545 -0.1152  0.7847  1.2113
  877MOL0     H20960  11.359   9.455   1.487 -0.0091 -1.8005 -0.6083
  877MOL0     H20961  11.468   9.691   1.463  2.6535 -0.1402 -2.6800
  877MOL0     H20962  11.443   9.627   1.622  1.5479 -2.9846  1.4929
  877MOL0     H20963  11.706   9.617   1.465  1.3475  3.1814 -0.7776
  877MOL0     H20964  11.660   9.737   1.579  0.4110  0.6510 -1.8215
  877MOL0     H20965  11.638   9.578   1.755  0.6693  2.2144  1.3260
  877MOL0     H20966  11.699   9.441   1.657 -1.4453 -0.9811  1.3665
  877MOL0     H20967  11.866   9.679   1.749 -0.4932  0.5546  0.2439
  877MOL0     H20968  11.916   9.576   1.615 -0.1417 -0.9231  0.3492
  877MOL0     H20969  11.830   9.437   1.867 -3.8530 -0.5886 -3.7784
  877MOL0     H20970  11.912   9.381   1.736 -0.4226 -1.1368  2.4496
  877MOL0     H20971  12.105   9.585   1.775  1.5382 -1.3881 -0.9651
  877MOL0     H20972  12.109   9.432   1.844 -1.4350 -0.5194  3.4590
  877MOL0     H20973  11.970   9.528   2.045 -1.3069 -1.4583 -2.8151
  877MOL0     H20974  12.138   9.587   2.023  1.2892 -1.8507 -1.2971
  877MOL0     H20975  12.142   9.808   1.853  1.6580  3.1966 -0.0853
  877MOL0     H20976  12.036  10.094   1.870  0.7347 -1.8788 -0.1491
  877MOL0     H20977  11.869  10.103   1.832 -2.3146 -1.8843 -1.7684
  877MOL0     H20978  12.025  10.158   1.644 -0.6943 -0.5217 -2.2029
  877MOL0     H20979  12.060   9.971   1.642  1.6354  0.7750  0.2706
  877MOL0     H20980  11.840   9.912   1.605 -3.2509  0.8439 -0.1447
  877MOL0     H20981  11.784  10.069   1.605 -2.5855 -1.7998  1.1539
  877MOL0     H20982  11.790  10.008   1.379 -0.5533 -0.8030  3.0702
  877MOL0     H20983  11.933  10.110   1.385  1.0610 -0.5833 -0.0684
  877MOL0     H20984  12.219   9.843   1.284  2.8818 -0.0811 -1.6778
  877MOL0     H20985  12.348   9.722   1.039 -0.2156 -0.4537 -2.9741
  877MOL0     H20986  12.381   9.874   1.131 -0.7145  1.9949 -1.4651
  877MOL0     H20987  12.349   9.878   0.952 -0.3519  2.5211  0.5612
  877MOL0     H20988  12.098   9.537   0.671 -3.5713  0.5859 -1.8099
  877MOL0     H20989  12.117   9.478   0.438  0.9965  0.9657 -2.4527
  877MOL0     H20990  12.342   9.505   0.211  0.4029  1.3643  1.4533
  877MOL0     H20991  12.185   9.450   0.247  0.8292 -0.4129 -0.4193
  877MOL0     H20992  12.276   9.585  -0.004  2.6337 -2.9049 -0.6737
  877MOL0     H20993  12.229   9.422   0.019  2.9463  0.8592  3.8759
  877MOL0     H20994  12.027   9.655   0.040  1.5224 -0.2081 -0.7196
  877MOL0     H20995  11.982   9.481   0.077  3.6734 -2.9648  0.7750
  877MOL0     H20996  11.892   9.526  -0.130  0.2320  1.4438 -0.7041
  877MOL0     H20997  12.039   9.441  -0.174 -2.3375 -2.2911  0.7614
  877MOL0     H20998  12.030   9.746  -0.183  0.8407 -0.2754 -1.8932
  877MOL0     H20999  12.164   9.637  -0.224  1.4973 -0.1862 -1.4577
  877MOL0     H21000  11.894   9.642  -0.356 -0.6990 -2.5657  1.1664
  877MOL0     H21001  12.037   9.539  -0.406  0.8263  0.0668  0.8661
  877MOL0     H21002  12.162   9.760  -0.421 -0.0386 -2.7527  0.3345
  877MOL0     H21003  11.991   9.833  -0.446  0.4576  0.2722  0.8779
  877MOL0     H21004  12.112   9.622  -0.608 -3.2446 -1.7886  0.7270
  877MOL0     H21005  12.116   9.803  -0.632 -0.8316  0.3410  0.9245
  877MOL0     H21006  12.331   9.843   0.365 -2.5320 -0.0852 -1.4929
  877MOL0     H21007  12.310   9.909   0.605 -0.9377 -1.5479  3.5290
  877MOL0     H21008  11.884   9.908   0.935  2.9315  0.2524 -1.8362
  877MOL0     H21009  11.824   9.943   1.165  0.8836  3.4062  1.2909
  877MOL0     H21010  11.651   9.246   1.292  0.6061  1.0537 -1.1704
  877MOL0     H21011  11.583   9.036   1.210  1.5381  0.4852  1.1393
  877MOL0     H21012  11.298   9.132   0.851  1.6062  2.9573  1.3325
  877MOL0     H21013  11.434   9.224   0.681  0.1358 -1.7867 -0.8823
  877MOL0     H21014  11.622   9.330   0.575 -1.3421 -1.9929  1.4806
  877MOL0     H21015  11.588   9.408   0.719  2.0044  2.5142 -0.9126
  877MOL0     H21016  11.739   9.545   0.581  0.6954  0.7243 -0.0563
  877MOL0     H21017  11.859   9.427   0.585 -1.2245 -2.2832  0.5898
  877MOL0     H21018  11.910   9.436   0.810  1.1423  0.4243  0.3917
  877MOL0     H21019  11.911   9.600   0.745 -3.1795  3.0389 -0.4472
  877MOL0     H21020  11.646   9.548   0.862  0.9169 -4.2247 -2.6522
  877MOL0     H21021  11.758   9.682   0.838  2.6290 -0.3439 -1.1475
  877MOL0     H21022  11.851   9.583   1.226 -0.0378  2.6451  0.0994
  877MOL0     H21023  11.774   8.989   0.861 -0.1407 -4.4051 -4.9248
  877MOL0     H21024  11.664   8.858   1.108  2.4360 -3.9576 -0.9918
  877MOL0     H21025  11.571   8.741   1.010  0.3156 -1.4206  1.0433
  877MOL0     H21026  11.720   8.792   0.948 -1.6678 -2.6689 -1.4581
  878MOL0     O21027   2.975   5.712  11.124  0.1844 -0.5464 -0.1321
  878MOL0     C21028   2.879   5.722  11.048  0.2654 -0.0580 -0.7425
  878MOL0     O21029   2.746   5.695  11.084 -0.9467  0.3339 -0.2885
  878MOL0     C21030   2.722   5.639  11.210  0.0512  0.1864  0.6405
  878MOL0     C21031   2.759   5.506  11.234 -0.4317  1.1876 -0.8910
  878MOL0     C21032   2.760   5.456  11.365 -0.5012 -0.7488  0.3618
  878MOL0     C21033   2.711   5.533  11.472  0.5269  0.0239 -0.0722
  878MOL0     O21034   2.683   5.476  11.604  0.3525 -0.8275  1.4591
  878MOL0     C21035   2.780   5.395  11.665 -0.4055 -0.0223 -0.0968
  878MOL0     C21036   2.735   5.251  11.664 -0.0618 -0.7720  0.5066
  878MOL0     C21037   2.840   5.140  11.721  0.4378 -0.5570  0.1932
  878MOL0     C21038   2.974   5.155  11.641  1.0914  0.1602 -0.0802
  878MOL0     C21039   3.077   5.044  11.636 -1.0273  0.9722 -0.0709
  878MOL0     C21040   3.026   4.913  11.569  0.8955 -0.0979 -1.0633
  878MOL0     C21041   2.956   4.923  11.436 -0.4471 -0.7552 -0.3586
  878MOL0     C21042   2.882   4.795  11.399  0.5920  0.9195  0.6451
  878MOL0     N21043   2.741   4.822  11.443 -0.2890  0.1722 -0.0838
  878MOL0     C21044   2.633   4.868  11.368 -0.3446  0.2678  0.1972
  878MOL0     C21045   2.539   4.897  11.455 -0.0033  0.1062 -0.5796
  878MOL0     C21046   2.399   4.926  11.401  0.2599 -0.5357  1.1077
  878MOL0     C21047   2.302   4.984  11.506 -0.1442 -0.2869 -0.1714
  878MOL0     C21048   2.199   4.897  11.581 -0.5243 -0.0984  0.5116
  878MOL0     C21049   2.255   4.780  11.650 -0.9422  0.1697  0.0740
  878MOL0     O21050   2.151   4.701  11.704 -0.2989 -0.3280  0.1767
  878MOL0     C21051   2.177   4.588  11.783 -0.6208 -0.2597  0.1686
  878MOL0     C21052   2.312   4.548  11.818 -0.5473  0.2224  0.2378
  878MOL0     C21053   2.332   4.436  11.901  0.7677  0.8587  1.1948
  878MOL0     C21054   2.461   4.408  11.964 -0.1421 -1.0912  1.4497
  878MOL0     C21055   2.220   4.341  11.916  0.4192 -1.1458  0.0060
  878MOL0     C21056   2.233   4.214  11.986  0.0487  1.1938 -0.5628
  878MOL0     O21057   2.129   4.158  12.048  0.5671 -0.6350  1.1177
  878MOL0     C21058   2.142   4.035  12.097 -0.0060 -0.2523 -0.1565
  878MOL0     C21059   2.131   4.016  12.239 -0.0219  0.0380 -1.0725
  878MOL0     C21060   2.139   3.893  12.305 -1.4065 -0.9854 -0.3799
  878MOL0     C21061   2.152   3.787  12.226 -0.3363 -0.4399  0.4759
  878MOL0     O21062   2.128   3.669  12.292 -0.2185  0.1605  0.6579
  878MOL0     C21063   2.084   3.564  12.212 -0.0159  0.4095  0.4190
  878MOL0     C21064   2.030   3.459  12.302 -0.0142  0.7180  0.8287
  878MOL0     C21065   1.917   3.501  12.386  1.1830 -0.7456  0.2529
  878MOL0     C21066   1.830   3.374  12.435 -1.3598 -0.2819  0.0371
  878MOL0     C21067   1.905   3.298  12.541  0.7516 -0.1686 -0.7212
  878MOL0     C21068   1.821   3.168  12.568  0.2956  0.2914  0.4404
  878MOL0     C21069   1.703   3.198  12.656  0.0599 -0.2040  1.3947
  878MOL0     C21070   1.693   3.078  12.755  1.2919  0.1594 -1.0973
  878MOL0    Cl21071   1.558   3.118  12.864 -0.4167 -0.0032  0.7648
  878MOL0     C21072   2.166   3.797  12.087  0.0965 -0.5658 -0.2881
  878MOL0     C21073   2.161   3.924  12.022 -1.2981  0.9195 -0.1937
  878MOL0     O21074   2.342   4.160  11.983  0.0639 -0.6819 -0.1763
  878MOL0     C21075   2.095   4.386  11.872 -0.0889  0.2648 -0.5431
  878MOL0     C21076   2.073   4.508  11.806  0.1153 -0.2437  0.3684
  878MOL0     N21077   2.586   4.866  11.589  1.0289 -0.2496  0.4681
  878MOL0     N21078   2.705   4.827  11.575 -0.3381  0.4470 -0.2351
  878MOL0     C21079   2.654   5.659  11.443 -0.2728 -0.6027 -1.1644
  878MOL0     C21080   2.674   5.719  11.316  0.4679 -1.1699 -0.8195
  878MOL0     C21081   2.875   5.787  10.910  0.3758 -0.3243  0.5334
  878MOL0     C21082   2.803   5.901  10.890  0.4022  0.3906  1.0474
  878MOL0     C21083   2.809   5.971  10.767 -0.9636 -0.8554 -0.4565
  878MOL0     C21084   2.893   5.925  10.668  0.9352  0.1281  0.8699
  878MOL0     O21085   2.911   6.008  10.553 -0.3038 -0.4514  0.2319
  878MOL0     C21086   3.028   5.971  10.472  0.2603  0.0778  0.3110
  878MOL0     C21087   2.997   5.887  10.344 -0.0497  0.2826  0.2704
  878MOL0     C21088   3.116   5.777  10.315  0.4829  0.7229 -0.8705
  878MOL0     C21089   3.134   5.736  10.167  0.0898  0.1446 -0.6197
  878MOL0     C21090   3.209   5.613  10.172  0.2021 -0.4243  0.3887
  878MOL0     C21091   3.284   5.526  10.213  0.2754  0.5772  0.1011
  878MOL0     C21092   2.947   5.795  10.686  1.0338  1.1187  0.6440
  878MOL0     C21093   2.950   5.728  10.808 -0.0978 -0.4554 -0.1721
  878MOL0     C21094   3.014   5.589  10.822 -0.5213  0.0737  0.5423
  878MOL0     H21095   2.815   5.454  11.157  1.3572  1.0399  0.4473
  878MOL0     H21096   2.813   5.366  11.393 -2.0793 -1.2565  1.9432
  878MOL0     H21097   2.789   5.419  11.772  0.9459 -0.5191 -0.0879
  878MOL0     H21098   2.879   5.408  11.621  1.2740  0.8300  3.5022
  878MOL0     H21099   2.640   5.241  11.717 -0.3277 -0.7796  0.0325
  878MOL0     H21100   2.721   5.233  11.557  0.0501 -2.6250  0.7708
  878MOL0     H21101   2.860   5.176  11.823 -1.2774 -0.1211  0.4008
  878MOL0     H21102   2.796   5.041  11.728  0.0375 -0.7333 -3.2989
  878MOL0     H21103   2.951   5.169  11.535 -0.7557 -0.4037  0.2201
  878MOL0     H21104   3.019   5.248  11.676 -0.1348  0.2210  1.4453
  878MOL0     H21105   3.100   5.009  11.737 -1.8689  0.0808 -0.1683
  878MOL0     H21106   3.174   5.069  11.592  0.6920 -3.6244  0.5314
  878MOL0     H21107   3.101   4.835  11.562  2.5663  1.5115 -2.2633
  878MOL0     H21108   2.955   4.871  11.641  1.6531  0.8151  0.2492
  878MOL0     H21109   3.038   4.942  11.366  0.1526 -1.7069  0.0684
  878MOL0     H21110   2.885   5.006  11.438  0.9047  0.4396  1.6546
  878MOL0     H21111   2.882   4.765  11.294 -0.3718 -1.9995  1.3780
  878MOL0     H21112   2.920   4.700  11.437 -1.3059 -0.1387  0.0017
  878MOL0     H21113   2.630   4.900  11.264 -0.6726 -0.2683  0.0389
  878MOL0     H21114   2.355   4.834  11.359 -0.6206  0.8726 -1.2623
  878MOL0     H21115   2.407   5.000  11.321  1.7957 -0.5480  1.2179
  878MOL0     H21116   2.350   5.056  11.573 -1.3671  0.8229 -0.4262
  878MOL0     H21117   2.234   5.043  11.443  1.7079  0.0340 -2.0053
  878MOL0     H21118   2.158   4.965  11.657  1.5792  0.3148  1.3533
  878MOL0     H21119   2.124   4.873  11.505 -1.7845  1.9068  1.0234
  878MOL0     H21120   2.316   4.715  11.587 -2.1214 -2.1221  1.1964
  878MOL0     H21121   2.323   4.815  11.729 -1.0111 -0.8535  0.5961
  878MOL0     H21122   2.397   4.614  11.812  0.7491 -0.6298  5.1822
  878MOL0     H21123   2.506   4.505  11.986 -1.9651  0.2478 -0.3247
  878MOL0     H21124   2.520   4.347  11.895 -4.3795 -1.4512 -2.3600
  878MOL0     H21125   2.440   4.351  12.055 -1.1576 -0.8659  1.3751
  878MOL0     H21126   2.120   4.112  12.288 -0.6398 -1.1004  1.1647
  878MOL0     H21127   2.140   3.887  12.413 -0.3951 -0.0848 -0.3152
  878MOL0     H21128   2.006   3.591  12.141  0.7797 -0.4996 -0.8586
  878MOL0     H21129   2.162   3.512  12.154 -1.0154 -1.3096  0.5463
  878MOL0     H21130   1.984   3.382  12.240  1.4960 -0.3774  1.0288
  878MOL0     H21131   2.113   3.417  12.359 -0.2424  0.6165  1.0862
  878MOL0     H21132   1.846   3.566  12.335  1.4873 -0.4321  0.2209
  878MOL0     H21133   1.938   3.574  12.465  0.7782  0.6276 -0.8655
  878MOL0     H21134   1.799   3.314  12.350 -2.2613  0.6596 -0.3175
  878MOL0     H21135   1.737   3.405  12.483 -1.4952  1.2654 -1.1345
  878MOL0     H21136   1.999   3.273  12.491  1.3002 -1.9615  1.0736
  878MOL0     H21137   1.926   3.352  12.633 -1.1040  0.2556 -0.5000
  878MOL0     H21138   1.891   3.091  12.602  0.5244  0.3014  0.0007
  878MOL0     H21139   1.782   3.126  12.476  0.6147 -0.7259  0.7630
  878MOL0     H21140   1.619   3.221  12.591  1.7301  0.6299 -0.5809
  878MOL0     H21141   1.719   3.288  12.717  1.3695  0.6119 -0.0752
  878MOL0     H21142   1.782   3.068  12.818  0.6499  1.2477  0.0315
  878MOL0     H21143   1.682   2.982  12.704 -2.5867  1.3902 -3.0359
  878MOL0     H21144   2.175   3.708  12.025 -0.0956  1.1918 -3.0166
  878MOL0     H21145   2.171   3.918  11.914  1.6322 -2.4526  0.0948
  878MOL0     H21146   2.007   4.323  11.880  1.0640 -1.5433 -1.5115
  878MOL0     H21147   1.979   4.545  11.768  1.4689  0.1714 -2.9406
  878MOL0     H21148   2.632   5.725  11.527  0.0721 -1.8504 -0.0720
  878MOL0     H21149   2.639   5.821  11.303 -2.2459 -1.1913  4.0937
  878MOL0     H21150   2.740   5.933  10.972 -2.8408 -0.5547 -0.8663
  878MOL0     H21151   2.764   6.068  10.750  1.7552 -0.0450 -4.5022
  878MOL0     H21152   3.071   6.069  10.449 -0.2821  0.6909  1.7304
  878MOL0     H21153   3.110   5.931  10.533  1.7763 -0.7148 -2.1295
  878MOL0     H21154   2.981   5.948  10.254 -0.5529  0.6046  0.5754
  878MOL0     H21155   2.908   5.828  10.367 -1.2934  3.0055  3.0276
  878MOL0     H21156   3.209   5.825  10.346  0.8787  0.2238 -1.2819
  878MOL0     H21157   3.100   5.692  10.381  4.4665  1.5439  1.4917
  878MOL0     H21158   3.189   5.806  10.103 -0.0901 -3.2271 -4.9168
  878MOL0     H21159   3.034   5.720  10.128 -0.8247 -2.0825  2.2744
  878MOL0     H21160   3.358   5.461  10.254  1.8142  2.5047  0.5068
  878MOL0     H21161   2.992   5.756  10.595 -0.2508  1.7839 -0.2976
  878MOL0     H21162   3.071   5.563  10.732  0.1889  3.6285 -0.1910
  878MOL0     H21163   3.080   5.576  10.909 -2.0411 -0.5146  1.6372
  878MOL0     H21164   2.936   5.513  10.833 -0.9259  0.6237  1.5844
  879MOL0     O21165   8.041   4.612   8.636 -0.0470  0.1413  0.0545
  879MOL0     C21166   8.006   4.509   8.591  0.4377  0.2813  1.5656
  879MOL0     O21167   7.968   4.405   8.660 -0.5847  0.2504 -0.6867
  879MOL0     C21168   7.961   4.421   8.787 -0.0771  0.2434 -0.9456
  879MOL0     C21169   7.845   4.469   8.852  1.0082  0.2119  0.5682
  879MOL0     C21170   7.844   4.486   8.991 -0.0219 -0.6299  1.2847
  879MOL0     C21171   7.951   4.461   9.067  1.1435 -0.5115 -0.3577
  879MOL0     O21172   7.937   4.469   9.205 -0.7664 -0.5763 -0.1524
  879MOL0     C21173   8.059   4.469   9.274 -0.6683  0.0792 -0.0882
  879MOL0     C21174   8.039   4.477   9.425 -0.0368 -0.1696 -0.0134
  879MOL0     C21175   7.957   4.369   9.508 -0.0149  0.5369  0.0664
  879MOL0     C21176   7.812   4.397   9.519 -0.4105 -0.1141 -0.4806
  879MOL0     C21177   7.743   4.323   9.627 -0.1708  1.1839 -0.2382
  879MOL0     C21178   7.591   4.314   9.627  0.7458 -0.3056  0.2640
  879MOL0     C21179   7.543   4.195   9.706 -0.6308 -0.7669 -0.0158
  879MOL0     C21180   7.536   4.070   9.620 -0.7141  0.1839  0.6175
  879MOL0     N21181   7.402   4.055   9.558  0.8812 -0.4982 -0.6822
  879MOL0     C21182   7.300   3.969   9.592 -0.1030  0.2876 -0.7245
  879MOL0     C21183   7.183   4.005   9.528 -0.7462 -0.7657 -0.1353
  879MOL0     C21184   7.061   3.913   9.524  0.2811 -0.3950  1.1695
  879MOL0     C21185   6.982   3.930   9.656 -0.7605 -0.3027 -0.5606
  879MOL0     C21186   6.859   3.843   9.671 -0.4945 -0.4493 -0.8746
  879MOL0     C21187   6.773   3.880   9.555 -0.1935  1.0443 -0.1829
  879MOL0     O21188   6.641   3.856   9.607  0.3307 -0.7879  0.0132
  879MOL0     C21189   6.541   3.839   9.508 -1.0132 -0.1479 -0.2810
  879MOL0     C21190   6.428   3.777   9.559  0.0089 -0.0121 -1.4478
  879MOL0     C21191   6.320   3.756   9.477 -0.9729 -1.2002 -0.1678
  879MOL0     C21192   6.186   3.729   9.541 -0.3855 -0.3232  0.3374
  879MOL0     C21193   6.333   3.788   9.337  0.5983 -0.4708  0.1854
  879MOL0     C21194   6.222   3.765   9.238  0.3956  0.9199  0.0356
  879MOL0     O21195   6.116   3.682   9.279 -0.3589  0.5021  0.0496
  879MOL0     C21196   6.021   3.647   9.194 -0.0864  0.1016  0.7992
  879MOL0     C21197   5.908   3.610   9.265 -0.1288 -0.0363 -0.0657
  879MOL0     C21198   5.798   3.550   9.201 -0.3592  0.4320  0.2787
  879MOL0     C21199   5.796   3.551   9.065  0.4603  0.7456 -0.3465
  879MOL0     O21200   5.691   3.499   9.002  0.3036 -0.2682 -0.5870
  879MOL0     C21201   5.582   3.586   9.010  0.4541 -0.4681 -0.0311
  879MOL0     C21202   5.599   3.711   8.923 -0.7025  0.6032 -0.6162
  879MOL0     C21203   5.466   3.797   8.904  0.0109  0.4270 -0.2207
  879MOL0     C21204   5.364   3.730   8.811 -0.7463 -0.3613 -0.0484
  879MOL0     C21205   5.238   3.809   8.804 -0.3818  0.6262 -0.6998
  879MOL0     C21206   5.128   3.726   8.739 -0.8488 -0.0774  0.0935
  879MOL0     C21207   5.006   3.807   8.701  0.4931  0.1234  0.8082
  879MOL0     C21208   4.923   3.712   8.613  0.6646 -0.0501  0.7131
  879MOL0    Cl21209   4.758   3.773   8.576 -0.1128  0.1551 -0.0542
  879MOL0     C21210   5.903   3.594   8.985  0.5588  1.1967  0.4131
  879MOL0     C21211   6.026   3.633   9.050 -0.7727  0.5915  1.1137
  879MOL0     O21212   6.217   3.837   9.136 -0.3892 -0.6343 -0.1510
  879MOL0     C21213   6.454   3.834   9.289  0.1500 -0.1069 -0.7713
  879MOL0     C21214   6.556   3.866   9.376  0.6423  0.2101 -0.6573
  879MOL0     N21215   7.217   4.122   9.459  0.3235 -0.4181 -0.1251
  879MOL0     N21216   7.337   4.148   9.478 -0.3642 -0.4925 -0.5705
  879MOL0     C21217   8.062   4.399   9.004  0.6323  1.2505  0.1962
  879MOL0     C21218   8.064   4.375   8.866 -0.7567  0.4548 -0.7133
  879MOL0     C21219   8.005   4.505   8.450  0.1684  0.3436  0.0066
  879MOL0     C21220   7.910   4.565   8.369  0.1450 -0.8573  0.0489
  879MOL0     C21221   7.923   4.560   8.226  0.1385  0.7971 -0.2609
  879MOL0     C21222   8.048   4.511   8.172 -0.1851 -0.2631 -0.3636
  879MOL0     O21223   8.081   4.499   8.043 -0.3548  0.0053 -0.3532
  879MOL0     C21224   7.984   4.533   7.942  1.6287 -0.2918  0.2040
  879MOL0     C21225   7.973   4.678   7.913  0.5925 -0.3617 -0.8437
  879MOL0     C21226   8.108   4.751   7.924 -0.4214  0.5159 -0.2522
  879MOL0     C21227   8.196   4.730   7.805 -0.3452  0.0872  1.1063
  879MOL0     C21228   8.150   4.820   7.695 -0.1056 -0.1229  0.1174
  879MOL0     C21229   8.100   4.891   7.605 -1.0198  0.0883 -0.5265
  879MOL0     C21230   8.141   4.447   8.258 -0.6167  0.5583  0.9086
  879MOL0     C21231   8.122   4.444   8.396  0.2108  0.6762 -0.3232
  879MOL0     C21232   8.222   4.379   8.485  0.1683  0.3330  0.3680
  879MOL0     H21233   7.760   4.504   8.794  0.5675 -1.2881  0.2648
  879MOL0     H21234   7.761   4.531   9.044  0.3611  1.4416  0.2424
  879MOL0     H21235   8.118   4.557   9.247  1.9745 -0.8935  2.0661
  879MOL0     H21236   8.113   4.376   9.252  2.4133  2.1599 -2.0800
  879MOL0     H21237   8.138   4.464   9.469 -1.0861  1.2890  3.0107
  879MOL0     H21238   8.003   4.572   9.465 -1.4658 -1.5654  2.2171
  879MOL0     H21239   7.963   4.277   9.449  1.1257  1.6617 -1.6519
  879MOL0     H21240   7.989   4.342   9.609 -0.5520 -2.6873 -0.5174
  879MOL0     H21241   7.794   4.504   9.524 -0.1891  0.1241 -3.1474
  879MOL0     H21242   7.773   4.367   9.421 -1.0086 -0.8618 -0.0295
  879MOL0     H21243   7.777   4.361   9.724  2.1292 -0.2591 -0.4123
  879MOL0     H21244   7.788   4.227   9.601 -0.7147  0.9891 -0.4790
  879MOL0     H21245   7.550   4.397   9.685 -2.9003 -2.5328  1.2096
  879MOL0     H21246   7.549   4.327   9.526  1.8406 -1.1047 -0.3213
  879MOL0     H21247   7.442   4.221   9.739 -0.0836  0.1488  0.9941
  879MOL0     H21248   7.599   4.179   9.798 -1.9386  1.5660  1.2582
  879MOL0     H21249   7.616   4.069   9.546 -1.3186 -1.8379 -0.0680
  879MOL0     H21250   7.556   3.988   9.689  1.9444 -0.7282 -1.0882
  879MOL0     H21251   7.316   3.890   9.665  0.8081  1.1136  0.0069
  879MOL0     H21252   7.095   3.810   9.509  0.2735 -0.1897 -0.3146
  879MOL0     H21253   6.999   3.947   9.441  0.3138 -0.4926  1.1049
  879MOL0     H21254   7.051   3.896   9.733 -1.2349  3.7962  1.9823
  879MOL0     H21255   6.948   4.032   9.678 -1.3121  0.0359 -2.7595
  879MOL0     H21256   6.885   3.738   9.683  1.5809  0.2623  1.7360
  879MOL0     H21257   6.811   3.868   9.766  2.2116 -2.9636  1.3416
  879MOL0     H21258   6.787   3.984   9.526 -1.1013  1.5239  1.0285
  879MOL0     H21259   6.794   3.812   9.471 -0.0027  1.2281 -0.2831
  879MOL0     H21260   6.415   3.749   9.664  3.7267 -0.3259 -0.9169
  879MOL0     H21261   6.101   3.793   9.514 -0.3874 -0.7919 -0.8367
  879MOL0     H21262   6.192   3.722   9.650  1.0320  0.0331  0.3028
  879MOL0     H21263   6.158   3.629   9.506 -0.2998  0.1600 -1.2018
  879MOL0     H21264   5.917   3.621   9.372  0.5562  0.1958 -0.1394
  879MOL0     H21265   5.713   3.503   9.250  0.5823  0.7593  2.3289
  879MOL0     H21266   5.503   3.526   8.963  0.5559 -1.6789  1.2714
  879MOL0     H21267   5.555   3.604   9.114  2.5791 -1.5502  0.7708
  879MOL0     H21268   5.678   3.777   8.960 -1.8694  0.7347  1.8630
  879MOL0     H21269   5.637   3.674   8.828  3.2198  0.2683  0.8652
  879MOL0     H21270   5.475   3.896   8.859  1.5100  0.4695  0.1366
  879MOL0     H21271   5.415   3.808   9.001  2.8533  1.8535  1.2373
  879MOL0     H21272   5.342   3.629   8.846  0.7579 -0.0375  2.0481
  879MOL0     H21273   5.421   3.720   8.717  5.3700 -0.9578  3.1968
  879MOL0     H21274   5.199   3.835   8.903 -0.4462 -0.2031 -0.5023
  879MOL0     H21275   5.258   3.890   8.733  0.5454  0.9971 -0.0500
  879MOL0     H21276   5.103   3.640   8.803 -1.0457  0.2056  0.4011
  879MOL0     H21277   5.173   3.687   8.648 -0.5812  2.7509 -1.0835
  879MOL0     H21278   5.014   3.908   8.658  0.8616  0.3252  1.3418
  879MOL0     H21279   4.942   3.811   8.789 -1.1387 -0.5979 -0.2864
  879MOL0     H21280   4.920   3.610   8.653 -0.4588 -0.0732  0.5999
  879MOL0     H21281   4.969   3.699   8.515 -0.0698 -1.2185  0.4944
  879MOL0     H21282   5.875   3.588   8.881  0.7011  2.2664  0.3077
  879MOL0     H21283   6.118   3.640   8.992 -3.0393 -0.3193 -2.9970
  879MOL0     H21284   6.458   3.853   9.183  0.9349 -0.5827 -0.8334
  879MOL0     H21285   6.644   3.913   9.333 -0.6005  2.8596 -0.4754
  879MOL0     H21286   8.151   4.358   9.052  0.7851 -1.4421 -2.1351
  879MOL0     H21287   8.162   4.339   8.835 -0.5881  1.0473 -0.8880
  879MOL0     H21288   7.819   4.615   8.401  2.1854  1.9677  1.8832
  879MOL0     H21289   7.848   4.608   8.165  2.2664  1.7850 -2.2312
  879MOL0     H21290   8.016   4.485   7.849  2.7021 -0.0334  0.4302
  879MOL0     H21291   7.886   4.486   7.953  0.7572  1.4520  0.1495
  879MOL0     H21292   7.917   4.725   7.993  2.5871 -1.8718  1.6013
  879MOL0     H21293   7.911   4.689   7.824 -0.1522  0.2733 -0.2492
  879MOL0     H21294   8.098   4.858   7.945 -3.9753  0.3988 -0.7356
  879MOL0     H21295   8.175   4.705   7.998 -1.7876 -0.0410  0.6720
  879MOL0     H21296   8.220   4.631   7.768  0.7238  0.4188  0.8816
  879MOL0     H21297   8.292   4.778   7.827  2.1381 -2.2561 -3.4456
  879MOL0     H21298   8.067   4.956   7.527 -3.8271 -0.3208  0.2017
  879MOL0     H21299   8.228   4.400   8.214 -0.7820  2.1549 -1.2827
  879MOL0     H21300   8.322   4.358   8.446  1.2413  0.0624  3.0307
  879MOL0     H21301   8.235   4.446   8.571 -0.7179  0.7700  0.1643
  879MOL0     H21302   8.173   4.295   8.535 -1.5042  1.7095  1.1439
  880MOL0     O21303   0.431  10.529   7.368 -0.4749 -0.6422 -0.0018
  880MOL0     C21304   0.406  10.525   7.251 -0.5756 -0.2806  0.1849
  880MOL0     O21305   0.392  10.409   7.180 -0.2988 -0.4629  0.8867
  880MOL0     C21306   0.413  10.287   7.236  0.5463 -1.0662 -0.5867
  880MOL0     C21307   0.523  10.259   7.327  0.4107 -0.5037 -0.5564
  880MOL0     C21308   0.523  10.127   7.383 -0.5338  0.2223 -0.9281
  880MOL0     C21309   0.429  10.036   7.340 -1.4720 -0.2586 -0.1421
  880MOL0     O21310   0.421   9.906   7.402  0.1253  0.3971  0.4551
  880MOL0     C21311   0.308   9.873   7.480 -0.1654 -0.4645  0.4837
  880MOL0     C21312   0.324   9.750   7.551 -0.1452  0.4241  0.3652
  880MOL0     C21313   0.205   9.668   7.539  0.5459  0.2081  0.2125
  880MOL0     C21314   0.220   9.532   7.621 -0.6419  0.3819  0.1875
  880MOL0     C21315   0.079   9.454   7.639 -0.2708  0.2245 -0.1994
  880MOL0     C21316   0.074   9.364   7.514 -0.8591  0.3812 -0.0316
  880MOL0     C21317  -0.041   9.265   7.491 -0.4449  0.5750 -0.3653
  880MOL0     C21318  -0.083   9.164   7.600 -0.7682  0.1463 -0.0565
  880MOL0     N21319  -0.226   9.129   7.583  0.3611 -0.7902 -0.3459
  880MOL0     C21320  -0.265   9.000   7.609  0.1233 -0.5290  0.2566
  880MOL0     C21321  -0.398   8.994   7.575  0.8660 -0.5961  0.7335
  880MOL0     C21322  -0.487   8.873   7.586 -0.9244  0.3407 -0.4280
  880MOL0     C21323  -0.591   8.857   7.475  1.1201 -0.3769 -0.2062
  880MOL0     C21324  -0.633   8.713   7.442  0.6093  0.2548  1.3122
  880MOL0     C21325  -0.712   8.631   7.551 -0.5780  0.4673  0.0728
  880MOL0     O21326  -0.825   8.705   7.603  0.4467 -0.1501  0.3253
  880MOL0     C21327  -0.944   8.734   7.542  0.5882  0.3009  0.2432
  880MOL0     C21328  -0.979   8.679   7.415  0.1593 -0.8921 -0.3840
  880MOL0     C21329  -1.088   8.723   7.347  0.5705  0.2389  0.1459
  880MOL0     C21330  -1.117   8.658   7.210 -0.8330 -0.3690  0.4505
  880MOL0     C21331  -1.175   8.813   7.414 -0.4221 -0.1703  1.0456
  880MOL0     C21332  -1.304   8.860   7.361 -0.9056  0.0678  0.2153
  880MOL0     O21333  -1.335   8.987   7.407  0.1746  0.1405  0.7651
  880MOL0     C21334  -1.436   9.066   7.356 -0.1546  0.7967 -0.2957
  880MOL0     C21335  -1.481   9.070   7.219 -0.6656 -0.4958 -0.5856
  880MOL0     C21336  -1.589   9.155   7.174  0.5000 -0.6789 -0.6431
  880MOL0     C21337  -1.642   9.248   7.270 -0.2712 -0.2326 -0.2002
  880MOL0     O21338  -1.744   9.331   7.219 -0.1195  0.6520 -0.0987
  880MOL0     C21339  -1.802   9.435   7.305  0.3398 -0.4363 -0.5169
  880MOL0     C21340  -1.917   9.367   7.382  0.2025 -0.3921 -0.5689
  880MOL0     C21341  -2.042   9.339   7.297  0.3230  0.6156 -0.5246
  880MOL0     C21342  -2.105   9.465   7.222 -0.6612 -0.6971  0.4891
  880MOL0     C21343  -2.149   9.590   7.291 -0.0556 -0.2829 -0.1108
  880MOL0     C21344  -2.142   9.711   7.191  0.0599  0.1306 -1.2634
  880MOL0     C21345  -2.221   9.840   7.235  0.1032 -0.7917 -0.7036
  880MOL0     C21346  -2.368   9.801   7.243  0.5330 -0.4777  0.1352
  880MOL0    Cl21347  -2.425   9.753   7.079  0.0564  0.4920  0.1081
  880MOL0     C21348  -1.597   9.241   7.405 -1.2482 -0.0572  0.8425
  880MOL0     C21349  -1.496   9.149   7.448  0.3989 -0.3936 -0.1021
  880MOL0     O21350  -1.363   8.795   7.279 -0.5785 -0.0474 -0.1397
  880MOL0     C21351  -1.136   8.870   7.533 -0.0925  0.1379  0.5959
  880MOL0     C21352  -1.022   8.831   7.597 -0.1598  0.1824 -0.2720
  880MOL0     N21353  -0.436   9.124   7.549  0.5520  0.1257 -0.5566
  880MOL0     N21354  -0.331   9.208   7.546  0.4967 -0.2025 -0.4461
  880MOL0     C21355   0.346  10.063   7.233  0.6927  0.9068  0.3474
  880MOL0     C21356   0.330  10.185   7.182 -0.0386  0.7167  0.8728
  880MOL0     C21357   0.381  10.646   7.179  0.6147  0.5677 -0.0167
  880MOL0     C21358   0.251  10.694   7.149 -0.4024 -0.0280 -0.3129
  880MOL0     C21359   0.227  10.802   7.063  0.2952  0.0457  0.1804
  880MOL0     C21360   0.336  10.869   7.021 -0.0186  0.3161  0.3944
  880MOL0     O21361   0.326  10.991   6.956  0.6541  0.0802 -0.0939
  880MOL0     C21362   0.344  10.974   6.809  0.2395  0.8628 -0.6565
  880MOL0     C21363   0.259  10.866   6.741  0.4663  0.4020  0.9246
  880MOL0     C21364   0.212  10.909   6.595 -0.7606  0.1079 -0.0498
  880MOL0     C21365   0.127  10.797   6.529  0.6445  0.0760 -0.5702
  880MOL0     C21366   0.189  10.664   6.522 -0.4143 -0.0601  0.1403
  880MOL0     C21367   0.265  10.571   6.490  0.3069 -0.2025  0.4722
  880MOL0     C21368   0.462  10.827   7.055 -0.2181  0.2456  0.8487
  880MOL0     C21369   0.489  10.724   7.144  0.0282  1.4116 -0.7250
  880MOL0     C21370   0.635  10.687   7.185  0.4212  0.2979 -0.0563
  880MOL0     H21371   0.592  10.338   7.355 -0.7285  0.8550 -1.3940
  880MOL0     H21372   0.581  10.100   7.471  1.9754  0.2411 -2.4925
  880MOL0     H21373   0.218   9.878   7.417  0.3087 -2.7157 -0.4526
  880MOL0     H21374   0.315   9.951   7.557 -0.6751 -1.0803  1.1602
  880MOL0     H21375   0.416   9.702   7.516  0.7982  2.1770  0.3007
  880MOL0     H21376   0.334   9.766   7.659 -0.7909  0.4865  0.4197
  880MOL0     H21377   0.116   9.721   7.576  1.0828 -0.2762  2.2987
  880MOL0     H21378   0.184   9.661   7.432 -0.6603  2.4405  0.2389
  880MOL0     H21379   0.298   9.471   7.576 -2.3654 -1.1560 -0.8830
  880MOL0     H21380   0.269   9.549   7.717  2.0617 -2.3946 -0.5530
  880MOL0     H21381  -0.008   9.520   7.644  1.3149  2.4042  0.0674
  880MOL0     H21382   0.083   9.390   7.728 -1.9353 -0.1111 -0.3296
  880MOL0     H21383   0.073   9.433   7.430  3.8736  0.1633 -0.5316
  880MOL0     H21384   0.170   9.310   7.513 -0.7461  0.4596  1.8712
  880MOL0     H21385  -0.011   9.204   7.405 -1.6039 -2.3984  1.2018
  880MOL0     H21386  -0.132   9.322   7.469 -2.7062 -2.5196  0.3329
  880MOL0     H21387  -0.032   9.070   7.582 -0.2789  0.5270 -0.6847
  880MOL0     H21388  -0.059   9.208   7.698 -0.3084 -0.1367 -0.0406
  880MOL0     H21389  -0.209   8.921   7.658  2.4909 -0.2885 -1.8888
  880MOL0     H21390  -0.529   8.872   7.687  0.2090  0.5907  0.0527
  880MOL0     H21391  -0.431   8.781   7.572 -1.3467  0.1178 -0.6694
  880MOL0     H21392  -0.680   8.910   7.511  1.2609 -0.1801 -0.1446
  880MOL0     H21393  -0.566   8.906   7.380 -0.3424  4.0070  1.3785
  880MOL0     H21394  -0.701   8.715   7.356  0.9153 -0.7960  1.0253
  880MOL0     H21395  -0.547   8.648   7.422 -0.4480 -0.8222 -0.0286
  880MOL0     H21396  -0.737   8.531   7.515 -0.8006  1.2551 -2.1270
  880MOL0     H21397  -0.647   8.620   7.638  0.3229  4.2864  0.0388
  880MOL0     H21398  -0.922   8.602   7.364 -0.2584 -0.7651 -1.0580
  880MOL0     H21399  -1.037   8.589   7.180 -1.0771  0.3878 -2.2326
  880MOL0     H21400  -1.121   8.739   7.137  2.6811 -2.6717 -2.6955
  880MOL0     H21401  -1.211   8.602   7.221 -2.5091  2.3590  0.8827
  880MOL0     H21402  -1.432   9.007   7.145 -1.4868 -0.5353 -1.1175
  880MOL0     H21403  -1.636   9.161   7.077 -2.2552  0.2619  0.6514
  880MOL0     H21404  -1.724   9.470   7.372  1.5523 -0.9818 -1.6061
  880MOL0     H21405  -1.840   9.517   7.243  1.9806  0.2114 -0.7132
  880MOL0     H21406  -1.888   9.277   7.437 -0.7333  0.7139  1.8401
  880MOL0     H21407  -1.938   9.434   7.465 -1.0123 -0.1465 -1.0533
  880MOL0     H21408  -2.117   9.298   7.366  0.9102 -5.0058 -2.6822
  880MOL0     H21409  -2.029   9.252   7.232  1.5016 -0.3148  0.8863
  880MOL0     H21410  -2.196   9.422   7.179 -0.5179 -1.8530  1.2703
  880MOL0     H21411  -2.029   9.496   7.151 -3.1701  3.2885 -0.7608
  880MOL0     H21412  -2.244   9.573   7.343 -0.5262  0.4536 -0.7131
  880MOL0     H21413  -2.077   9.605   7.372 -0.5370 -2.2281  0.7592
  880MOL0     H21414  -2.186   9.672   7.100  0.6227 -0.5866 -1.2311
  880MOL0     H21415  -2.035   9.730   7.176  0.9163  0.4309  3.5838
  880MOL0     H21416  -2.211   9.927   7.169 -0.4286 -1.2615 -1.4136
  880MOL0     H21417  -2.192   9.877   7.334  1.0385  1.3094 -1.6956
  880MOL0     H21418  -2.427   9.887   7.274  0.5116  0.8209 -3.1055
  880MOL0     H21419  -2.384   9.722   7.317 -2.0206 -0.8858 -0.7505
  880MOL0     H21420  -1.609   9.327   7.469  1.8683  1.9284 -0.9730
  880MOL0     H21421  -1.446   9.163   7.543  1.6843 -2.0922 -0.4783
  880MOL0     H21422  -1.200   8.943   7.582 -0.2961 -0.4190  1.1704
  880MOL0     H21423  -0.998   8.892   7.683 -1.0900  1.4894 -0.8971
  880MOL0     H21424   0.282   9.980   7.206  2.5900 -1.3581  2.3721
  880MOL0     H21425   0.258  10.205   7.104  0.8471  0.3008 -0.0673
  880MOL0     H21426   0.162  10.644   7.187  0.5767 -1.5571  0.0618
  880MOL0     H21427   0.127  10.840   7.045  1.6160  3.0024 -1.6767
  880MOL0     H21428   0.324  11.072   6.764 -1.5019  0.9330  0.2004
  880MOL0     H21429   0.450  10.946   6.802  0.1504  0.4783 -0.4605
  880MOL0     H21430   0.166  10.864   6.799 -1.5404 -2.6642 -1.9969
  880MOL0     H21431   0.310  10.769   6.741  1.6579  1.0082  0.8168
  880MOL0     H21432   0.137  10.989   6.597 -0.9927 -0.0057 -2.1667
  880MOL0     H21433   0.294  10.949   6.535  1.0888 -2.8465  0.2952
  880MOL0     H21434   0.104  10.823   6.426 -0.7579  3.1164  0.3875
  880MOL0     H21435   0.032  10.792   6.583  1.4075  2.8519  1.2340
  880MOL0     H21436   0.321  10.482   6.469  0.8679 -0.1623  1.7105
  880MOL0     H21437   0.551  10.881   7.023 -2.1438  2.3043 -1.4091
  880MOL0     H21438   0.646  10.588   7.139  1.7268  0.2226  0.3826
  880MOL0     H21439   0.713  10.741   7.130  1.6605 -0.0649  1.2974
  880MOL0     H21440   0.660  10.671   7.290  1.1509  0.0708 -0.2633
  881MOL0     O21441   8.064   0.945   2.934 -0.3487  0.7854 -0.0181
  881MOL0     C21442   8.103   0.828   2.947 -0.3727 -0.1937 -0.9995
  881MOL0     O21443   8.218   0.783   3.013 -0.0930 -0.0536 -0.7592
  881MOL0     C21444   8.321   0.861   3.054  0.9517  0.3345  0.6424
  881MOL0     C21445   8.298   0.987   3.112  0.2084 -0.4058 -0.2440
  881MOL0     C21446   8.399   1.041   3.179  0.7822 -0.6103 -0.1169
  881MOL0     C21447   8.526   0.982   3.192  0.3012  0.8363  0.9250
  881MOL0     O21448   8.626   1.058   3.254  0.0843 -0.3948  0.7540
  881MOL0     C21449   8.761   1.033   3.210 -0.2746 -0.6660 -0.3366
  881MOL0     C21450   8.862   1.109   3.289 -0.2152  0.9001 -0.3642
  881MOL0     C21451   8.858   1.069   3.447 -1.3340 -0.7525 -0.3253
  881MOL0     C21452   8.952   1.172   3.498  0.0122 -0.1513 -0.9230
  881MOL0     C21453   8.965   1.169   3.653  0.5197  0.1518  0.0847
  881MOL0     C21454   9.062   1.067   3.700  1.0290  0.5563 -1.1281
  881MOL0     C21455   9.003   0.937   3.760  0.7850 -1.1388 -0.0548
  881MOL0     C21456   8.964   0.965   3.909 -0.6994 -0.2111 -0.2520
  881MOL0     N21457   8.823   1.008   3.932  0.9186 -0.3951  0.2256
  881MOL0     C21458   8.709   0.953   3.871 -0.5355 -0.1482  0.2487
  881MOL0     C21459   8.606   1.027   3.921 -0.3412 -0.0492 -0.2657
  881MOL0     C21460   8.462   1.016   3.888  0.2921  0.0148  0.6498
  881MOL0     C21461   8.412   0.902   3.975 -0.2522 -0.1565 -0.0219
  881MOL0     C21462   8.335   0.959   4.091  0.4652  0.1045  0.7176
  881MOL0     C21463   8.358   0.888   4.221  0.2926 -0.3939  0.6075
  881MOL0     O21464   8.297   0.971   4.315  0.3679 -0.2808 -0.5945
  881MOL0     C21465   8.241   0.904   4.421 -0.2307  0.4956  0.3785
  881MOL0     C21466   8.106   0.879   4.422 -0.3920  0.0235 -0.5725
  881MOL0     C21467   8.041   0.808   4.523 -0.9308 -0.9129  0.4881
  881MOL0     C21468   7.888   0.786   4.505 -0.4882 -0.0065 -0.3393
  881MOL0     C21469   8.120   0.768   4.639 -0.1351 -0.0789  0.1863
  881MOL0     C21470   8.056   0.700   4.759  0.5775  1.0211  1.0413
  881MOL0     O21471   8.143   0.698   4.862 -0.3964  0.3328  0.4734
  881MOL0     C21472   8.097   0.649   4.983  0.2196 -1.0186 -0.7145
  881MOL0     C21473   8.132   0.514   5.018 -0.0613 -0.0908  0.0765
  881MOL0     C21474   8.092   0.458   5.140  0.2560  1.3734  0.9585
  881MOL0     C21475   8.012   0.524   5.225  1.0531  0.0652  0.2733
  881MOL0     O21476   7.989   0.462   5.350 -0.4563 -0.3137 -0.4151
  881MOL0     C21477   7.853   0.452   5.399  0.0575  0.5428  0.0226
  881MOL0     C21478   7.796   0.312   5.381  0.3169  0.8305 -0.1801
  881MOL0     C21479   7.864   0.202   5.475  0.7874 -0.0943 -0.7697
  881MOL0     C21480   8.015   0.191   5.463  0.4003 -0.2795  0.1842
  881MOL0     C21481   8.075   0.084   5.556 -0.1569  0.3514  0.0800
  881MOL0     C21482   8.210   0.042   5.520 -0.1451  0.4364 -0.1899
  881MOL0     C21483   8.293   0.008   5.647 -0.0171  0.1586  0.3176
  881MOL0     C21484   8.239  -0.110   5.740  0.1909 -0.5934  0.0184
  881MOL0    Cl21485   8.193  -0.253   5.636 -0.0795 -0.4517  0.3002
  881MOL0     C21486   7.979   0.655   5.205  0.2930 -0.2369  1.3501
  881MOL0     C21487   8.027   0.726   5.085  0.0442 -0.4355 -0.8161
  881MOL0     O21488   7.940   0.657   4.749 -0.2934 -0.3131  0.4918
  881MOL0     C21489   8.256   0.798   4.635  0.0250 -0.2909  0.5814
  881MOL0     C21490   8.310   0.870   4.534 -0.5632 -0.3235  0.0205
  881MOL0     N21491   8.659   1.115   4.015  0.5131  0.9886 -0.2779
  881MOL0     N21492   8.786   1.099   4.026  0.2195  0.5612 -0.1090
  881MOL0     C21493   8.548   0.857   3.135  0.3227  1.3967 -0.3052
  881MOL0     C21494   8.446   0.793   3.061 -0.4524  0.0546 -0.3434
  881MOL0     C21495   8.012   0.718   2.903  0.2901  0.5946 -0.5625
  881MOL0     C21496   8.029   0.589   2.961 -0.4941  0.2100  0.8619
  881MOL0     C21497   7.936   0.484   2.939 -0.4477  1.3184  0.2569
  881MOL0     C21498   7.824   0.499   2.861 -0.3533 -0.3048  1.0924
  881MOL0     O21499   7.742   0.406   2.816  0.6039  0.8963 -0.1706
  881MOL0     C21500   7.740   0.279   2.892  0.3180 -0.3040  0.6853
  881MOL0     C21501   7.610   0.188   2.847  1.1221 -0.2398  0.1086
  881MOL0     C21502   7.636   0.127   2.705  0.6845 -0.8852  0.2977
  881MOL0     C21503   7.720   0.004   2.712 -0.1448 -0.4087  0.3711
  881MOL0     C21504   7.660  -0.110   2.777  0.1442 -0.0503  0.1338
  881MOL0     C21505   7.609  -0.208   2.840  0.1822 -0.7406 -1.0035
  881MOL0     C21506   7.807   0.625   2.802 -0.7007 -0.2290 -0.0420
  881MOL0     C21507   7.894   0.739   2.820 -0.3286 -0.6734  0.2293
  881MOL0     C21508   7.866   0.866   2.722  0.1752  0.3148 -1.0197
  881MOL0     H21509   8.205   1.042   3.115  0.9569  0.8374  0.9105
  881MOL0     H21510   8.383   1.141   3.219  1.2211 -1.5425  2.6288
  881MOL0     H21511   8.761   1.075   3.108 -4.0351 -0.0936 -0.2737
  881MOL0     H21512   8.787   0.927   3.204 -2.2022 -1.1461 -0.9597
  881MOL0     H21513   8.962   1.105   3.244 -0.1151 -0.1046 -0.0770
  881MOL0     H21514   8.823   1.211   3.299  1.3703  1.5681 -0.5635
  881MOL0     H21515   8.758   1.089   3.489 -0.6337 -1.6953  1.9693
  881MOL0     H21516   8.900   0.970   3.465  3.4733  1.0815  0.0729
  881MOL0     H21517   9.042   1.155   3.438 -1.3194 -0.8003 -2.8265
  881MOL0     H21518   8.911   1.271   3.476 -0.0673 -0.3697 -1.7973
  881MOL0     H21519   8.869   1.145   3.700  0.3613 -0.1846 -0.3988
  881MOL0     H21520   8.984   1.271   3.685 -0.7770  1.6711 -3.4460
  881MOL0     H21521   9.126   1.032   3.619  1.4281 -4.3170  0.9145
  881MOL0     H21522   9.128   1.112   3.775  2.8790 -2.9328 -0.4355
  881MOL0     H21523   9.086   0.866   3.758  1.0712 -0.7956 -1.4973
  881MOL0     H21524   8.919   0.899   3.701  0.7291  2.6143 -2.6900
  881MOL0     H21525   8.970   0.873   3.969  0.0450  0.3499  0.5589
  881MOL0     H21526   9.033   1.030   3.964 -2.4280 -0.4546  2.3617
  881MOL0     H21527   8.703   0.881   3.790  0.9156 -0.0232  0.0023
  881MOL0     H21528   8.460   0.981   3.785  1.3267 -0.7214  0.8588
  881MOL0     H21529   8.412   1.112   3.901  0.7980  0.7275 -2.0442
  881MOL0     H21530   8.333   0.856   3.915  2.2568 -0.1727 -3.5690
  881MOL0     H21531   8.491   0.830   3.995  1.6049  1.6065 -0.6813
  881MOL0     H21532   8.381   1.057   4.110  4.3010 -1.2224 -0.9468
  881MOL0     H21533   8.229   0.968   4.066  0.9211 -1.2570 -1.9971
  881MOL0     H21534   8.322   0.785   4.221  0.4817 -0.4644  1.5482
  881MOL0     H21535   8.464   0.872   4.245 -0.0814 -3.7167  0.5026
  881MOL0     H21536   8.053   0.912   4.334 -0.6701  1.7658  0.2025
  881MOL0     H21537   7.866   0.801   4.399 -3.7461 -0.0010  0.2504
  881MOL0     H21538   7.833   0.861   4.563 -0.8738 -2.2646  2.4594
  881MOL0     H21539   7.852   0.684   4.521  1.5389 -0.3643  3.2321
  881MOL0     H21540   8.188   0.460   4.942 -1.4160 -0.6847 -0.5417
  881MOL0     H21541   8.130   0.358   5.162  1.3230  1.7658  0.9895
  881MOL0     H21542   7.844   0.469   5.507 -0.1119  2.2013 -0.2303
  881MOL0     H21543   7.788   0.522   5.346  0.2292 -0.4813 -1.6229
  881MOL0     H21544   7.691   0.319   5.412  0.3435  1.5258 -0.2363
  881MOL0     H21545   7.804   0.290   5.274 -0.1103  1.4638 -0.3445
  881MOL0     H21546   7.829   0.104   5.442  1.0920 -0.4075 -0.1785
  881MOL0     H21547   7.828   0.213   5.578  4.8730  0.1182  0.8273
  881MOL0     H21548   8.048   0.290   5.496 -3.7525  1.3794 -0.0889
  881MOL0     H21549   8.039   0.165   5.359  0.4051  2.5344 -0.5991
  881MOL0     H21550   8.068   0.127   5.656  0.4291 -0.6936  0.5906
  881MOL0     H21551   8.006   0.001   5.538 -0.3432  0.3747  0.6700
  881MOL0     H21552   8.259   0.125   5.469  1.1455  0.2021  0.6393
  881MOL0     H21553   8.207  -0.038   5.445 -4.2037 -0.7492  0.9768
  881MOL0     H21554   8.296   0.106   5.696 -1.6602 -1.4393  4.0129
  881MOL0     H21555   8.396  -0.017   5.620 -0.0128  2.7621 -2.5835
  881MOL0     H21556   8.148  -0.075   5.790  0.4901 -0.2220  0.3066
  881MOL0     H21557   8.313  -0.144   5.813 -1.6959 -0.1253  2.2736
  881MOL0     H21558   7.926   0.708   5.283 -0.0732  1.8517 -0.2236
  881MOL0     H21559   8.002   0.830   5.067  0.2476 -0.9070 -4.6626
  881MOL0     H21560   8.325   0.769   4.714 -0.1111  2.0674  1.6779
  881MOL0     H21561   8.413   0.900   4.517 -1.0716  0.2536 -2.4719
  881MOL0     H21562   8.642   0.804   3.139 -0.1270  0.5715 -0.6101
  881MOL0     H21563   8.460   0.688   3.042  0.4145 -0.5719  3.1036
  881MOL0     H21564   8.110   0.578   3.032  0.1923 -0.6673 -0.0331
  881MOL0     H21565   7.954   0.393   2.996 -3.4365  2.2424  3.0006
  881MOL0     H21566   7.826   0.217   2.863  0.4344 -0.1211  0.6351
  881MOL0     H21567   7.742   0.294   3.000  1.9069  1.6023  0.4430
  881MOL0     H21568   7.514   0.241   2.847  0.8308 -0.7334 -1.2557
  881MOL0     H21569   7.606   0.109   2.922  4.2165 -0.8146 -0.1942
  881MOL0     H21570   7.541   0.106   2.654  1.3799  1.8108 -2.4181
  881MOL0     H21571   7.681   0.196   2.633  0.3512 -2.6241 -1.6568
  881MOL0     H21572   7.814   0.021   2.765 -0.3182 -0.4609  0.6959
  881MOL0     H21573   7.750  -0.021   2.609 -0.6356 -0.2311  0.1842
  881MOL0     H21574   7.583  -0.300   2.888  0.8208 -0.8457 -0.8478
  881MOL0     H21575   7.717   0.642   2.743  0.2792 -1.8899 -2.1367
  881MOL0     H21576   7.792   0.838   2.647  2.0284 -0.8508 -2.5147
  881MOL0     H21577   7.821   0.933   2.795 -0.2937 -0.3714 -0.6679
  881MOL0     H21578   7.947   0.905   2.660  0.2838  1.4488 -0.1896
  882MOL0     O21579   8.840   8.518   3.506  1.0771 -0.3308 -0.4089
  882MOL0     C21580   8.867   8.575   3.405 -0.0243  0.0733  0.5281
  882MOL0     O21581   8.880   8.709   3.399  0.0014  0.7455 -0.5485
  882MOL0     C21582   8.772   8.775   3.450  0.0287 -0.4562 -0.7381
  882MOL0     C21583   8.796   8.904   3.500 -0.4892  0.1391  0.0710
  882MOL0     C21584   8.689   8.988   3.543 -0.9696 -0.3148  0.7195
  882MOL0     C21585   8.559   8.932   3.557  0.3902  1.3039  1.4225
  882MOL0     O21586   8.450   8.995   3.618  0.0332  0.2840  0.1512
  882MOL0     C21587   8.476   9.117   3.668  0.2117 -0.5479 -0.1734
  882MOL0     C21588   8.364   9.155   3.769 -1.1819 -0.1763 -0.5326
  882MOL0     C21589   8.230   9.188   3.710 -0.3886  0.3923  0.2721
  882MOL0     C21590   8.235   9.328   3.638  0.1036  0.8382 -0.3001
  882MOL0     C21591   8.168   9.313   3.507 -0.4426 -0.3728 -0.7743
  882MOL0     C21592   8.256   9.236   3.403 -0.1102 -0.0940  0.1319
  882MOL0     C21593   8.174   9.179   3.287  0.4008  0.3861 -0.5658
  882MOL0     C21594   8.252   9.078   3.205 -0.9980 -0.4491 -0.3575
  882MOL0     N21595   8.380   9.146   3.153 -0.2943  0.7296  0.0296
  882MOL0     C21596   8.376   9.218   3.035  0.8269 -0.3577 -0.4009
  882MOL0     C21597   8.491   9.292   3.041  1.6075 -0.1844  0.8985
  882MOL0     C21598   8.547   9.390   2.934  0.0242 -0.8384 -0.7308
  882MOL0     C21599   8.659   9.330   2.852 -1.0697 -0.1440 -0.1824
  882MOL0     C21600   8.747   9.437   2.769  0.0825  0.8874 -1.1011
  882MOL0     C21601   8.696   9.480   2.629 -0.2178  0.0446 -1.3954
  882MOL0     O21602   8.652   9.370   2.547 -0.4252  0.1156 -0.1884
  882MOL0     C21603   8.737   9.269   2.507 -0.1699  0.2380 -1.1628
  882MOL0     C21604   8.679   9.144   2.470 -0.3171 -0.3550  0.0062
  882MOL0     C21605   8.749   9.041   2.417 -0.0319 -0.3189 -0.9008
  882MOL0     C21606   8.673   8.919   2.366 -0.0198  0.7633  0.9512
  882MOL0     C21607   8.889   9.053   2.403  0.3647  0.8266 -0.8405
  882MOL0     C21608   8.973   8.944   2.341  0.5410 -0.4962  0.3738
  882MOL0     O21609   9.084   8.996   2.280  0.1440  0.0852 -0.4856
  882MOL0     C21610   9.159   8.929   2.198 -0.7317 -1.0801  0.7844
  882MOL0     C21611   9.112   8.882   2.076 -1.0292  0.2296  0.4023
  882MOL0     C21612   9.201   8.798   2.006  0.3961 -0.1359  0.6047
  882MOL0     C21613   9.337   8.787   2.025 -0.2405  0.0579 -0.2992
  882MOL0     O21614   9.417   8.725   1.931 -0.0123  0.2440 -0.2299
  882MOL0     C21615   9.395   8.585   1.894 -0.5349  0.6929  0.3911
  882MOL0     C21616   9.518   8.526   1.828 -0.3869 -0.0791 -0.5504
  882MOL0     C21617   9.490   8.393   1.749 -0.3517  0.5923 -0.4906
  882MOL0     C21618   9.402   8.289   1.816  0.1750  0.1932 -1.3760
  882MOL0     C21619   9.467   8.263   1.945  0.1409 -0.0121  0.4535
  882MOL0     C21620   9.596   8.180   1.928 -0.5501 -0.5533  0.6087
  882MOL0     C21621   9.646   8.126   2.069  0.3582 -0.8347  0.7491
  882MOL0     C21622   9.794   8.101   2.079  0.4378 -0.2146  0.8046
  882MOL0    Cl21623   9.886   8.253   2.074  0.4833  0.0712  0.2618
  882MOL0     C21624   9.390   8.849   2.147  0.4508 -0.7501 -0.3819
  882MOL0     C21625   9.296   8.914   2.235 -1.3428 -0.9220 -0.1595
  882MOL0     O21626   8.949   8.832   2.353 -0.2712  0.1808  0.1513
  882MOL0     C21627   8.949   9.173   2.458 -0.4298  0.1455  0.1407
  882MOL0     C21628   8.875   9.275   2.512  0.4556  0.0362 -0.0742
  882MOL0     N21629   8.556   9.256   3.157 -0.2797 -0.7915  0.3161
  882MOL0     N21630   8.489   9.167   3.219 -0.5821  0.1145 -0.5004
  882MOL0     C21631   8.536   8.800   3.512 -0.5072  0.6746 -1.0354
  882MOL0     C21632   8.640   8.725   3.453 -0.2373 -0.3766 -0.3433
  882MOL0     C21633   8.941   8.489   3.309 -0.3640  0.2309 -0.3211
  882MOL0     C21634   9.039   8.548   3.230 -0.4607  0.6132  0.1677
  882MOL0     C21635   9.118   8.470   3.142  0.0515 -0.4645 -0.3870
  882MOL0     C21636   9.119   8.333   3.129 -0.1478 -0.1726 -0.2831
  882MOL0     O21637   9.182   8.256   3.037 -0.5887 -0.6598  0.6289
  882MOL0     C21638   9.199   8.307   2.895  0.3967  0.0755 -0.4087
  882MOL0     C21639   9.166   8.189   2.799  0.0311 -0.0589  0.2296
  882MOL0     C21640   9.177   8.216   2.649  0.0133  0.7349  1.1078
  882MOL0     C21641   9.159   8.085   2.567 -0.1727  0.1210  0.2047
  882MOL0     C21642   9.217   8.102   2.431  0.4065  0.3858 -0.1668
  882MOL0     C21643   9.251   8.091   2.318 -0.0722  0.1061 -0.1681
  882MOL0     C21644   9.024   8.270   3.219 -0.5868 -0.1962  1.0703
  882MOL0     C21645   8.942   8.343   3.306  0.2687 -0.1508  0.5834
  882MOL0     C21646   8.847   8.261   3.389  0.3071  0.6959  0.1877
  882MOL0     H21647   8.900   8.932   3.517 -0.4154 -0.8366  1.4938
  882MOL0     H21648   8.716   9.090   3.568 -1.7579  0.4699 -1.3920
  882MOL0     H21649   8.483   9.198   3.594 -1.5940  0.2452  0.4685
  882MOL0     H21650   8.570   9.117   3.723 -0.3056  0.6330  0.7580
  882MOL0     H21651   8.359   9.068   3.835  1.7542  1.2817  1.8482
  882MOL0     H21652   8.398   9.248   3.815 -1.5973  0.9223 -2.3610
  882MOL0     H21653   8.193   9.111   3.642  0.9537  1.9675 -2.3790
  882MOL0     H21654   8.158   9.194   3.793 -0.9976 -1.5324 -0.0649
  882MOL0     H21655   8.176   9.392   3.704  1.7707  0.1358  1.9889
  882MOL0     H21656   8.337   9.366   3.627  0.4107 -0.1191 -0.8591
  882MOL0     H21657   8.137   9.403   3.452 -1.6269 -0.8968 -1.0005
  882MOL0     H21658   8.072   9.266   3.530  0.0404 -0.8916  0.2437
  882MOL0     H21659   8.325   9.308   3.361 -1.1984  0.9088  0.0169
  882MOL0     H21660   8.312   9.156   3.453  0.6179 -0.6938 -1.5699
  882MOL0     H21661   8.140   9.266   3.229 -1.3390  0.3612  0.3619
  882MOL0     H21662   8.079   9.133   3.315  0.3090  0.5536 -0.6020
  882MOL0     H21663   8.278   8.995   3.271 -2.5022  0.5575  1.6142
  882MOL0     H21664   8.190   9.037   3.125 -2.8687 -1.7635  1.6316
  882MOL0     H21665   8.306   9.222   2.952  1.3503  1.9817 -0.8070
  882MOL0     H21666   8.580   9.482   2.983  0.0719 -1.2627  0.0642
  882MOL0     H21667   8.461   9.412   2.871 -1.7691 -1.6257  1.3121
  882MOL0     H21668   8.729   9.270   2.911  0.4570  0.8114 -0.9547
  882MOL0     H21669   8.608   9.260   2.786  1.3268 -1.1567 -1.0526
  882MOL0     H21670   8.764   9.518   2.840  0.5563 -0.4582  0.3706
  882MOL0     H21671   8.841   9.386   2.747 -1.7670 -3.9832  0.8145
  882MOL0     H21672   8.621   9.558   2.644 -0.5311 -0.1358 -1.9742
  882MOL0     H21673   8.766   9.541   2.570 -0.2530  0.7301 -0.7492
  882MOL0     H21674   8.573   9.130   2.484 -0.3536 -2.7258 -1.9843
  882MOL0     H21675   8.569   8.936   2.337 -0.0026  0.4868  0.7222
  882MOL0     H21676   8.671   8.838   2.440  1.1139  2.2792  2.7354
  882MOL0     H21677   8.723   8.886   2.274 -0.8124  1.2301  0.3382
  882MOL0     H21678   9.005   8.892   2.060 -1.2867 -3.0764 -0.6847
  882MOL0     H21679   9.165   8.766   1.909  1.7395 -3.8998  1.1778
  882MOL0     H21680   9.368   8.519   1.977 -0.1881 -2.1932 -1.6148
  882MOL0     H21681   9.325   8.576   1.810  0.8662 -0.6653 -0.6869
  882MOL0     H21682   9.559   8.592   1.751 -1.2121 -1.7037 -2.4617
  882MOL0     H21683   9.599   8.507   1.899 -1.0190 -2.4032 -0.3483
  882MOL0     H21684   9.586   8.345   1.723 -1.1185 -1.8664  0.8200
  882MOL0     H21685   9.428   8.426   1.665 -1.5443  1.5085  0.7100
  882MOL0     H21686   9.378   8.197   1.762 -1.1244  1.2405 -2.6773
  882MOL0     H21687   9.310   8.344   1.842 -0.3678 -1.5180  0.6045
  882MOL0     H21688   9.480   8.344   2.016 -0.2769 -0.8918  1.5752
  882MOL0     H21689   9.403   8.201   2.009  0.9677 -1.3942 -0.0047
  882MOL0     H21690   9.671   8.249   1.888  0.0267 -2.3685 -1.7126
  882MOL0     H21691   9.599   8.095   1.858 -1.2065 -3.0667  3.4315
  882MOL0     H21692   9.591   8.035   2.097  0.8386 -0.6135  2.5470
  882MOL0     H21693   9.638   8.204   2.145  1.8851  1.6617 -1.4700
  882MOL0     H21694   9.831   8.041   1.995  1.2768  1.3745 -0.0076
  882MOL0     H21695   9.807   8.054   2.176 -3.6968  0.5989  1.9694
  882MOL0     H21696   9.498   8.855   2.139  0.2643  1.9702 -2.7152
  882MOL0     H21697   9.342   8.969   2.316  0.8610  0.4287 -2.2140
  882MOL0     H21698   9.054   9.183   2.434 -1.1887  2.0855 -2.8850
  882MOL0     H21699   8.911   9.375   2.532 -2.5075  0.5371  4.0428
  882MOL0     H21700   8.438   8.757   3.500 -0.9139  0.9431  0.9841
  882MOL0     H21701   8.613   8.636   3.397  1.6684 -0.9484 -0.4134
  882MOL0     H21702   9.036   8.655   3.209 -1.0831  0.2807 -1.6292
  882MOL0     H21703   9.192   8.520   3.081 -0.6644  2.4907  0.9710
  882MOL0     H21704   9.140   8.396   2.875 -0.6977 -0.8432 -1.3752
  882MOL0     H21705   9.305   8.333   2.882  0.5113  0.4542  1.1575
  882MOL0     H21706   9.061   8.172   2.823  0.3307 -4.2325 -0.5702
  882MOL0     H21707   9.216   8.093   2.816  2.5170  0.9553 -0.9037
  882MOL0     H21708   9.113   8.301   2.620  1.1244  1.7364  1.5274
  882MOL0     H21709   9.274   8.263   2.631 -0.2088  0.6586 -0.3748
  882MOL0     H21710   9.054   8.052   2.561 -0.9768  2.4959  0.3236
  882MOL0     H21711   9.216   8.005   2.615 -1.7468 -0.8716  0.5062
  882MOL0     H21712   9.299   8.069   2.225  0.2698  0.8357 -0.1763
  882MOL0     H21713   9.011   8.163   3.208  0.7219 -0.4866  2.1698
  882MOL0     H21714   8.872   8.269   3.495 -0.2804 -0.8705  0.4786
  882MOL0     H21715   8.747   8.297   3.361  1.2649  1.1962 -2.8860
  882MOL0     H21716   8.855   8.156   3.359 -0.5134 -0.0630  2.3991
  883MOL0     O21717   4.288   7.638   3.853  0.5427 -0.0806 -0.0891
  883MOL0     C21718   4.391   7.564   3.841 -0.1371 -0.7443 -0.3641
  883MOL0     O21719   4.458   7.528   3.722  0.6280 -0.5874  0.1345
  883MOL0     C21720   4.402   7.578   3.602 -0.6305  0.5421 -0.8124
  883MOL0     C21721   4.275   7.560   3.556  0.3680 -0.4328  1.1364
  883MOL0     C21722   4.226   7.639   3.450  0.4981 -0.0512  0.4473
  883MOL0     C21723   4.299   7.742   3.387  0.6252  0.6037  0.3454
  883MOL0     O21724   4.243   7.812   3.284  0.2799 -0.0657  0.0829
  883MOL0     C21725   4.327   7.836   3.169 -0.0608  1.3493  0.0666
  883MOL0     C21726   4.248   7.906   3.059  0.9364  0.4036  0.8415
  883MOL0     C21727   4.212   8.051   3.078 -0.6761 -0.0242  0.8970
  883MOL0     C21728   4.133   8.110   2.964 -1.0393 -0.1051 -0.2092
  883MOL0     C21729   4.142   8.254   2.918  0.1707 -0.5433  0.3659
  883MOL0     C21730   4.115   8.360   3.024 -0.0244 -1.2098  0.4614
  883MOL0     C21731   4.057   8.496   2.971  0.2029 -0.0093 -0.7499
  883MOL0     C21732   4.044   8.601   3.072 -0.2292 -0.6702 -0.6171
  883MOL0     N21733   3.955   8.714   3.028  0.6128 -0.7935  0.3137
  883MOL0     C21734   3.814   8.709   3.038  0.0358  0.1156 -0.3501
  883MOL0     C21735   3.773   8.814   2.962 -0.6934  0.2479 -0.3803
  883MOL0     C21736   3.622   8.849   2.951  0.4166  1.0401  0.3313
  883MOL0     C21737   3.587   8.860   2.804  0.0152 -0.7916  1.0673
  883MOL0     C21738   3.452   8.795   2.768 -0.1597  0.4764 -0.2747
  883MOL0     C21739   3.432   8.754   2.620  0.3505  0.5644  0.1804
  883MOL0     O21740   3.513   8.828   2.524 -0.1948 -0.0160  0.1239
  883MOL0     C21741   3.469   8.955   2.488 -0.1338  0.7151 -0.1064
  883MOL0     C21742   3.340   8.962   2.428  0.2050 -0.4178 -0.3167
  883MOL0     C21743   3.292   9.089   2.382  0.4485  0.0077  0.0024
  883MOL0     C21744   3.153   9.090   2.316 -0.0439 -0.2804 -0.3372
  883MOL0     C21745   3.383   9.204   2.396 -0.6167  0.7570  0.1984
  883MOL0     C21746   3.359   9.336   2.343  0.0163  0.0013  0.5244
  883MOL0     O21747   3.359   9.440   2.433  0.0527 -0.5830 -0.3166
  883MOL0     C21748   3.357   9.573   2.386 -0.8881  0.6316  0.3121
  883MOL0     C21749   3.250   9.659   2.426 -0.7513  0.1087  0.1164
  883MOL0     C21750   3.240   9.791   2.383  0.5762  1.3542 -0.0185
  883MOL0     C21751   3.343   9.842   2.308  0.3591 -0.1769 -0.4387
  883MOL0     O21752   3.337   9.978   2.291  0.4979  0.4043  0.4734
  883MOL0     C21753   3.462  10.046   2.326  0.1486  0.6165 -0.8133
  883MOL0     C21754   3.436  10.141   2.446 -0.1045  0.2869 -1.2185
  883MOL0     C21755   3.419  10.075   2.586 -0.4243 -0.3987  0.9546
  883MOL0     C21756   3.329  10.168   2.675 -0.6975  0.2247 -0.8636
  883MOL0     C21757   3.353  10.131   2.828  0.4096  0.1489  0.1671
  883MOL0     C21758   3.264  10.208   2.925 -0.5118  0.4743  1.7405
  883MOL0     C21759   3.115  10.189   2.909  0.4079 -0.5149 -0.9782
  883MOL0     C21760   3.063  10.047   2.952  0.0932 -0.5234  0.3714
  883MOL0    Cl21761   3.113   9.982   3.103 -0.2137 -0.3883  0.2763
  883MOL0     C21762   3.447   9.753   2.261 -0.0784 -0.2903  0.4024
  883MOL0     C21763   3.461   9.622   2.309 -0.6455 -0.0940 -0.3443
  883MOL0     O21764   3.341   9.349   2.224  0.3773  0.2334  0.2185
  883MOL0     C21765   3.507   9.189   2.459 -0.4166 -0.0021  0.1408
  883MOL0     C21766   3.548   9.064   2.505 -0.4172 -0.3254  0.3644
  883MOL0     N21767   3.885   8.846   2.886  0.3800  0.1754 -0.0996
  883MOL0     N21768   3.994   8.808   2.935 -1.4110 -0.5365  0.6280
  883MOL0     C21769   4.437   7.751   3.427  0.3268  0.0627 -0.9314
  883MOL0     C21770   4.488   7.669   3.533  0.2074 -0.8117  0.3402
  883MOL0     C21771   4.434   7.492   3.965 -0.7266 -0.1981  0.1649
  883MOL0     C21772   4.345   7.414   4.034  0.4125 -0.3166 -0.8407
  883MOL0     C21773   4.394   7.354   4.155 -0.4759 -0.1893  0.6747
  883MOL0     C21774   4.519   7.383   4.203 -0.1804 -0.9238  0.2891
  883MOL0     O21775   4.551   7.316   4.322 -0.3851 -0.3703 -0.0428
  883MOL0     C21776   4.681   7.317   4.381 -0.1108 -0.5741 -0.2680
  883MOL0     C21777   4.714   7.439   4.470 -0.4390 -0.4320 -0.7405
  883MOL0     C21778   4.862   7.431   4.526  0.6117 -0.7418  0.0820
  883MOL0     C21779   4.902   7.529   4.632 -0.0985 -0.4386  1.0394
  883MOL0     C21780   4.897   7.665   4.589  0.0912  0.0778  0.7804
  883MOL0     C21781   4.902   7.782   4.554  0.2531 -0.0678 -0.6724
  883MOL0     C21782   4.605   7.469   4.141 -0.2206  0.4475  0.6412
  883MOL0     C21783   4.567   7.518   4.012  0.1328  0.3865 -0.7399
  883MOL0     C21784   4.672   7.598   3.931  0.3870 -0.1518  0.1392
  883MOL0     H21785   4.212   7.484   3.602  2.9651 -1.0743  4.0063
  883MOL0     H21786   4.124   7.625   3.415  1.2943  0.9251 -2.6723
  883MOL0     H21787   4.359   7.740   3.128  0.1439  0.7344  1.6099
  883MOL0     H21788   4.408   7.905   3.189  2.0314 -1.0151  0.2067
  883MOL0     H21789   4.310   7.902   2.970  3.4327  3.0492  2.3042
  883MOL0     H21790   4.157   7.848   3.036  2.3846 -0.4210 -3.6975
  883MOL0     H21791   4.151   8.068   3.167  0.9173  1.8261  1.7166
  883MOL0     H21792   4.299   8.117   3.085 -0.3415  0.1667 -2.8096
  883MOL0     H21793   4.161   8.055   2.874 -0.8652 -2.7048  1.3356
  883MOL0     H21794   4.027   8.087   2.976 -1.3690  2.1556  2.0204
  883MOL0     H21795   4.071   8.262   2.835 -1.6809 -4.1711  1.3968
  883MOL0     H21796   4.245   8.270   2.884 -0.4665  1.1482 -0.8800
  883MOL0     H21797   4.049   8.318   3.100 -0.1918 -4.1465 -1.1438
  883MOL0     H21798   4.215   8.386   3.060 -0.2514  1.7850 -0.7744
  883MOL0     H21799   3.966   8.472   2.915  0.6610  1.9349 -2.4308
  883MOL0     H21800   4.121   8.534   2.891 -0.9161 -1.2004 -2.2727
  883MOL0     H21801   4.003   8.556   3.163 -0.2667  1.2466  0.3582
  883MOL0     H21802   4.140   8.640   3.106  0.3800 -2.2097 -0.4829
  883MOL0     H21803   3.757   8.636   3.095 -0.8150  1.5627  0.7225
  883MOL0     H21804   3.600   8.938   3.010 -1.4417  0.6831  0.2229
  883MOL0     H21805   3.562   8.770   2.996 -0.9069 -0.0971 -3.0721
  883MOL0     H21806   3.583   8.967   2.782  0.6604 -0.8238  0.7774
  883MOL0     H21807   3.668   8.822   2.741 -0.5174 -0.2800  0.0580
  883MOL0     H21808   3.455   8.710   2.836  5.5256  0.2174 -0.3362
  883MOL0     H21809   3.367   8.857   2.795 -0.9650 -1.5282  2.2183
  883MOL0     H21810   3.445   8.646   2.606 -5.4491 -0.2664 -1.6724
  883MOL0     H21811   3.325   8.771   2.605 -0.7263 -2.1978  3.5574
  883MOL0     H21812   3.280   8.872   2.417 -0.7279 -0.0131  1.1735
  883MOL0     H21813   3.083   9.134   2.387 -0.7634  3.8405 -3.2937
  883MOL0     H21814   3.120   8.997   2.268  1.0218 -0.4711 -0.7362
  883MOL0     H21815   3.154   9.168   2.240  1.2298  1.0577  0.9893
  883MOL0     H21816   3.171   9.622   2.490  0.7691 -1.4385  1.1998
  883MOL0     H21817   3.166   9.859   2.424  3.0690  3.6886  0.9268
  883MOL0     H21818   3.528   9.964   2.352 -0.4123  0.2065 -0.6688
  883MOL0     H21819   3.507  10.102   2.243  0.1112  1.7106 -0.1242
  883MOL0     H21820   3.517  10.214   2.442 -1.1816  1.5311 -0.9853
  883MOL0     H21821   3.337  10.180   2.421 -0.5908 -0.7411 -0.9492
  883MOL0     H21822   3.521  10.075   2.627  1.4315 -0.6423 -3.1965
  883MOL0     H21823   3.376   9.975   2.575 -3.0445  0.9033 -1.6555
  883MOL0     H21824   3.224  10.141   2.667 -1.0597  1.8580 -2.2358
  883MOL0     H21825   3.343  10.276   2.665  2.8951 -0.1531 -1.2881
  883MOL0     H21826   3.323  10.028   2.849 -4.2034  1.3713  0.6575
  883MOL0     H21827   3.453  10.165   2.856  0.7501 -0.6852 -0.0056
  883MOL0     H21828   3.291  10.314   2.920  1.7636 -0.0959 -0.9950
  883MOL0     H21829   3.286  10.173   3.026 -2.1934 -1.6079  1.4519
  883MOL0     H21830   3.074  10.212   2.810  0.9959  4.3855 -0.3341
  883MOL0     H21831   3.067  10.265   2.972 -2.5371 -3.7372  1.0783
  883MOL0     H21832   3.085   9.970   2.878  2.1773 -1.4028  1.8190
  883MOL0     H21833   2.955  10.048   2.967  0.0194  0.0499 -0.1638
  883MOL0     H21834   3.536   9.797   2.219 -0.9580  0.9389 -0.2364
  883MOL0     H21835   3.545   9.555   2.294 -2.0174 -1.4268 -2.6581
  883MOL0     H21836   3.570   9.275   2.480  0.3790 -0.8577  1.3682
  883MOL0     H21837   3.644   9.048   2.551  0.0778  2.3015  0.4194
  883MOL0     H21838   4.506   7.827   3.393  0.6819  0.8374  1.3084
  883MOL0     H21839   4.586   7.685   3.577 -0.3304 -2.1799  2.1214
  883MOL0     H21840   4.248   7.400   3.989  0.8825  0.4917 -2.1892
  883MOL0     H21841   4.332   7.287   4.213  0.6729 -1.6428  0.3008
  883MOL0     H21842   4.689   7.224   4.437  0.8901 -0.2440  0.1532
  883MOL0     H21843   4.756   7.302   4.303  0.7383  1.4214  0.0992
  883MOL0     H21844   4.644   7.445   4.555  1.0807  2.3584  0.4756
  883MOL0     H21845   4.703   7.521   4.398  0.1568 -0.3849 -0.7832
  883MOL0     H21846   4.867   7.333   4.574  1.0831 -0.3439  0.8692
  883MOL0     H21847   4.940   7.430   4.450  2.0804  0.2310  1.5027
  883MOL0     H21848   5.007   7.522   4.663  0.4892  1.2341 -0.3606
  883MOL0     H21849   4.846   7.512   4.724 -0.8183 -1.4956  0.4322
  883MOL0     H21850   4.886   7.886   4.535  0.2415  0.0416 -0.0824
  883MOL0     H21851   4.704   7.495   4.178 -0.8845  2.3317  1.2291
  883MOL0     H21852   4.621   7.683   3.885  2.0967  1.4880  1.1060
  883MOL0     H21853   4.766   7.618   3.984  0.2840 -1.8438  1.0221
  883MOL0     H21854   4.706   7.534   3.850 -0.5709 -2.7183  1.6263
  884MOL0     O21855  11.408   1.644   6.491 -0.3389 -0.0991  0.1686
  884MOL0     C21856  11.437   1.756   6.531 -0.9528 -0.9032  0.0144
  884MOL0     O21857  11.555   1.822   6.509 -0.6397  1.1678  0.6005
  884MOL0     C21858  11.663   1.769   6.441 -0.2174 -0.8563  0.2330
  884MOL0     C21859  11.781   1.841   6.440  0.8920  0.0349 -0.5730
  884MOL0     C21860  11.894   1.796   6.379  0.4412  0.6721 -1.5247
  884MOL0     C21861  11.905   1.677   6.312 -0.4363  0.4547  0.5802
  884MOL0     O21862  12.023   1.658   6.244  0.9076 -0.3580 -0.1362
  884MOL0     C21863  12.060   1.520   6.240 -0.8985  0.7528  0.1503
  884MOL0     C21864  12.207   1.514   6.166  0.6747 -0.3710 -0.4424
  884MOL0     C21865  12.235   1.369   6.117 -0.5775 -0.2403 -0.7296
  884MOL0     C21866  12.358   1.373   6.036 -0.2848 -0.6331  0.6807
  884MOL0     C21867  12.333   1.403   5.885  0.5248  0.3108  0.3757
  884MOL0     C21868  12.462   1.403   5.802  0.0260  0.8056 -0.3038
  884MOL0     C21869  12.448   1.387   5.645 -0.3167  0.8587 -0.6500
  884MOL0     C21870  12.589   1.369   5.575  0.5344 -0.8102  0.6154
  884MOL0     N21871  12.631   1.228   5.602 -0.9301 -0.8511 -0.1661
  884MOL0     C21872  12.553   1.128   5.646  0.4158 -0.1312  0.1935
  884MOL0     C21873  12.637   1.021   5.677 -0.0734  0.4910 -0.8563
  884MOL0     C21874  12.600   0.896   5.754  0.2959  0.1361 -0.2369
  884MOL0     C21875  12.599   0.772   5.668 -0.0896  0.1295  0.0848
  884MOL0     C21876  12.532   0.791   5.528 -0.7636 -1.0068  0.1219
  884MOL0     C21877  12.434   0.686   5.489  0.7112 -0.2256 -0.0058
  884MOL0     O21878  12.358   0.638   5.601 -0.7188 -0.0055 -0.1130
  884MOL0     C21879  12.256   0.552   5.580  0.5002 -0.4699 -0.1944
  884MOL0     C21880  12.143   0.566   5.664  0.2191  0.2988 -0.2105
  884MOL0     C21881  12.030   0.480   5.657  0.1287  0.0257  0.0364
  884MOL0     C21882  11.922   0.490   5.763 -0.4007  0.3053 -0.2768
  884MOL0     C21883  12.029   0.375   5.560 -0.0581 -0.1357 -0.1777
  884MOL0     C21884  11.905   0.292   5.526 -0.0850  0.4742 -0.5135
  884MOL0     O21885  11.917   0.166   5.518  0.1637  0.3186 -0.4573
  884MOL0     C21886  11.812   0.082   5.489 -0.0366 -0.1062  0.5116
  884MOL0     C21887  11.793   0.048   5.353  0.2283 -0.1391  0.6326
  884MOL0     C21888  11.686  -0.034   5.317  0.0051 -0.4375  0.5409
  884MOL0     C21889  11.593  -0.073   5.414  0.2678  0.9532 -0.5880
  884MOL0     O21890  11.473  -0.136   5.384  0.7151 -0.7964  0.5189
  884MOL0     C21891  11.398  -0.095   5.269  0.5212  0.2798  0.3188
  884MOL0     C21892  11.249  -0.109   5.323 -0.9201  0.2733 -0.4565
  884MOL0     C21893  11.148  -0.037   5.222  0.2327 -0.0896 -0.4204
  884MOL0     C21894  11.000  -0.035   5.285  0.4134  1.1578 -0.4562
  884MOL0     C21895  10.878  -0.008   5.181  0.3165 -0.1900 -0.2466
  884MOL0     C21896  10.748  -0.031   5.252  1.9524  0.1872 -0.9109
  884MOL0     C21897  10.623  -0.022   5.158 -0.5716 -0.7378 -0.1978
  884MOL0     C21898  10.618  -0.150   5.073  0.7560 -1.1725  0.4349
  884MOL0    Cl21899  10.548  -0.293   5.166 -0.0418  0.3532  0.1693
  884MOL0     C21900  11.620  -0.046   5.548 -0.1062 -0.2421 -1.1129
  884MOL0     C21901  11.728   0.039   5.591  0.6754  0.1641 -1.1808
  884MOL0     O21902  11.799   0.354   5.499 -0.5905  0.8654 -0.2644
  884MOL0     C21903  12.146   0.355   5.485  0.4530 -0.0768 -0.8368
  884MOL0     C21904  12.260   0.439   5.495 -0.3654 -1.3511  0.2809
  884MOL0     N21905  12.761   1.061   5.627 -0.4923 -0.1394 -0.7549
  884MOL0     N21906  12.756   1.176   5.581  0.7093  0.2936 -0.1198
  884MOL0     C21907  11.790   1.599   6.304  0.3167  0.3860 -0.1541
  884MOL0     C21908  11.673   1.636   6.379  0.4429  0.1458  0.4847
  884MOL0     C21909  11.339   1.842   6.606 -0.5474  0.2074  0.5335
  884MOL0     C21910  11.350   1.987   6.601  0.0320  0.5640 -0.2833
  884MOL0     C21911  11.266   2.067   6.673  0.0323  0.1094  0.4032
  884MOL0     C21912  11.166   2.020   6.751 -0.2907 -0.1493 -0.4226
  884MOL0     O21913  11.083   2.121   6.803 -0.3456 -0.3299 -0.0747
  884MOL0     C21914  11.057   2.128   6.946 -0.1096  0.3981 -0.2843
  884MOL0     C21915  11.111   2.253   7.008 -0.0899  0.9272 -0.4465
  884MOL0     C21916  11.044   2.389   6.972 -0.6706  0.9695 -0.1238
  884MOL0     C21917  11.156   2.495   6.977  0.0681 -0.2550 -0.3314
  884MOL0     C21918  11.189   2.547   7.113  0.6753  0.1855  0.2755
  884MOL0     C21919  11.210   2.591   7.227 -0.2122  0.3242  0.4090
  884MOL0     C21920  11.145   1.884   6.747 -0.6896  0.3114 -0.3009
  884MOL0     C21921  11.233   1.793   6.681 -0.0414  0.7889  0.8583
  884MOL0     C21922  11.205   1.640   6.713 -0.7357  0.6837 -0.4372
  884MOL0     H21923  11.770   1.938   6.488 -0.7814 -0.7347  0.6962
  884MOL0     H21924  11.988   1.849   6.381  0.8869 -0.1160  0.2444
  884MOL0     H21925  11.991   1.463   6.177 -2.3452  1.4845  1.0090
  884MOL0     H21926  12.053   1.470   6.337 -3.1558  1.1750  0.2743
  884MOL0     H21927  12.204   1.595   6.092 -0.2062  0.3803  0.3795
  884MOL0     H21928  12.279   1.546   6.242  1.7599  0.4826 -1.7960
  884MOL0     H21929  12.254   1.310   6.207 -0.6745  0.2468 -0.3832
  884MOL0     H21930  12.148   1.331   6.063 -0.0002 -1.4103 -0.8762
  884MOL0     H21931  12.434   1.445   6.067  0.9059 -1.9740  1.0134
  884MOL0     H21932  12.409   1.277   6.054  1.0966  0.2513  1.7917
  884MOL0     H21933  12.276   1.496   5.883  0.5668  0.4003  1.9734
  884MOL0     H21934  12.266   1.330   5.837 -1.2558  1.8419  0.4264
  884MOL0     H21935  12.524   1.491   5.821 -1.8796  2.6552 -2.1256
  884MOL0     H21936  12.525   1.315   5.822  0.3082  1.2155  0.6468
  884MOL0     H21937  12.390   1.476   5.618  0.0012  0.8459 -1.4164
  884MOL0     H21938  12.373   1.312   5.620 -0.7960  1.1258 -0.0352
  884MOL0     H21939  12.575   1.388   5.468  1.2490  1.9916  0.9376
  884MOL0     H21940  12.665   1.439   5.610 -0.4193  0.6843 -0.1926
  884MOL0     H21941  12.451   1.139   5.682 -0.1761  0.5438 -1.5477
  884MOL0     H21942  12.508   0.897   5.814  0.0945 -0.5730 -0.5210
  884MOL0     H21943  12.689   0.882   5.816  1.2904 -1.8903 -1.9726
  884MOL0     H21944  12.701   0.738   5.650  0.3118  0.7012  1.2274
  884MOL0     H21945  12.560   0.683   5.718  1.4217  0.0983  1.2678
  884MOL0     H21946  12.483   0.889   5.540  2.8863  0.6963  3.1435
  884MOL0     H21947  12.608   0.804   5.450  0.6396  0.6491  1.6719
  884MOL0     H21948  12.362   0.735   5.423  1.1734  2.7286  1.5196
  884MOL0     H21949  12.485   0.607   5.433  2.9598  1.0571  0.1032
  884MOL0     H21950  12.145   0.641   5.743 -1.3502  0.2609 -0.0841
  884MOL0     H21951  11.894   0.393   5.805 -1.0832  0.3348 -0.6517
  884MOL0     H21952  11.836   0.549   5.732 -1.6747 -0.7451  1.1089
  884MOL0     H21953  11.962   0.541   5.851  1.2160 -1.1860 -0.0774
  884MOL0     H21954  11.859   0.066   5.268 -1.0067 -1.6760 -0.7127
  884MOL0     H21955  11.673  -0.068   5.214  0.8913 -2.3447  1.0166
  884MOL0     H21956  11.414   0.005   5.230 -0.1705  0.0754 -0.5121
  884MOL0     H21957  11.422  -0.165   5.188  0.8895 -0.9178  1.4108
  884MOL0     H21958  11.216  -0.211   5.341  0.5246  0.0976  1.5924
  884MOL0     H21959  11.249  -0.052   5.417 -1.3062 -0.7702  0.1933
  884MOL0     H21960  11.137  -0.090   5.128 -2.4260  2.3534 -1.6153
  884MOL0     H21961  11.171   0.068   5.203  1.6971 -0.5830 -1.5702
  884MOL0     H21962  11.020   0.033   5.369 -2.4393 -0.7964  2.0454
  884MOL0     H21963  10.988  -0.137   5.323 -2.1352  1.4180 -0.4101
  884MOL0     H21964  10.873   0.099   5.157 -0.7495  0.4728  2.5686
  884MOL0     H21965  10.889  -0.071   5.092  1.0567  0.0414 -0.3316
  884MOL0     H21966  10.738   0.049   5.325 -0.0204 -1.4106  0.6839
  884MOL0     H21967  10.747  -0.127   5.305  2.0862  1.5453  1.6750
  884MOL0     H21968  10.637   0.065   5.094 -3.3739 -0.3976 -0.4730
  884MOL0     H21969  10.531  -0.003   5.214  0.8783  2.5906  1.3323
  884MOL0     H21970  10.721  -0.167   5.042  3.4203  4.6601  4.2780
  884MOL0     H21971  10.560  -0.131   4.982  3.6372 -1.2017 -1.5361
  884MOL0     H21972  11.548  -0.061   5.628  0.5225  1.3702 -0.1875
  884MOL0     H21973  11.743   0.057   5.696  0.0814 -2.5014 -0.5577
  884MOL0     H21974  12.153   0.273   5.414 -0.4060 -1.7075  0.8673
  884MOL0     H21975  12.346   0.423   5.431  0.7520  2.0931  0.7283
  884MOL0     H21976  11.793   1.504   6.251  2.8798 -0.7222  1.7280
  884MOL0     H21977  11.591   1.567   6.367  0.7622 -0.0651 -0.6039
  884MOL0     H21978  11.425   2.028   6.535  0.3484 -0.0631 -0.3224
  884MOL0     H21979  11.284   2.174   6.668  1.4924 -0.0963  0.8267
  884MOL0     H21980  10.952   2.130   6.976  0.4436  4.1441  1.9857
  884MOL0     H21981  11.101   2.046   7.004  0.4230 -0.1065 -1.3704
  884MOL0     H21982  11.217   2.264   6.985  0.2550  0.8241  0.9641
  884MOL0     H21983  11.103   2.236   7.116 -1.9457  0.8433 -0.5751
  884MOL0     H21984  11.010   2.379   6.869  2.2557 -1.5653 -0.9802
  884MOL0     H21985  10.957   2.415   7.033 -0.1168  1.5472  0.4524
  884MOL0     H21986  11.123   2.580   6.916 -2.8461 -2.9014 -2.7769
  884MOL0     H21987  11.242   2.457   6.921 -0.9056 -4.2495  0.5329
  884MOL0     H21988  11.238   2.628   7.324  0.5519  1.5385 -0.2467
  884MOL0     H21989  11.058   1.839   6.795 -1.0272  0.9624 -0.2936
  884MOL0     H21990  11.193   1.580   6.622 -0.5797 -3.6638  2.1211
  884MOL0     H21991  11.268   1.589   6.786  2.0873 -0.7861 -3.5982
  884MOL0     H21992  11.110   1.636   6.767 -0.1103 -3.9279  0.7552
  885MOL0     O21993  10.111   6.033   1.894 -0.0581  0.6699 -0.2381
  885MOL0     C21994  10.172   6.133   1.901  0.2631  0.0671  0.0050
  885MOL0     O21995  10.224   6.179   2.013  0.0560 -0.1767 -0.4266
  885MOL0     C21996  10.202   6.108   2.131  0.4006 -0.6322 -0.3253
  885MOL0     C21997  10.294   6.019   2.183  0.4746  0.3886  1.4128
  885MOL0     C21998  10.279   5.959   2.313 -0.7532  0.3087 -0.4217
  885MOL0     C21999  10.156   5.974   2.371 -0.9537  0.1950 -0.3920
  885MOL0     O22000  10.137   5.908   2.485 -0.4990  0.4821  0.4567
  885MOL0     C22001  10.095   5.768   2.482  0.6336  0.4504  0.9104
  885MOL0     C22002  10.119   5.721   2.619 -1.1233 -0.3306 -1.3572
  885MOL0     C22003  10.133   5.566   2.622 -0.5034  0.2024  0.3200
  885MOL0     C22004  10.142   5.513   2.763 -0.2127  0.0479  0.8934
  885MOL0     C22005  10.179   5.365   2.778  0.4217 -0.2041 -0.0937
  885MOL0     C22006  10.333   5.326   2.759 -0.5259  0.1603  0.2524
  885MOL0     C22007  10.346   5.179   2.785  0.6799  0.0138  0.3186
  885MOL0     C22008  10.489   5.148   2.742 -1.3832  0.2825 -0.1429
  885MOL0     N22009  10.528   5.018   2.788  0.6339 -0.8700 -0.0969
  885MOL0     C22010  10.565   4.980   2.916  1.3791 -0.0890  0.4593
  885MOL0     C22011  10.529   4.848   2.928 -0.9387 -0.3179  0.4790
  885MOL0     C22012  10.542   4.770   3.054 -0.9540 -0.5719  0.8256
  885MOL0     C22013  10.573   4.627   3.040 -0.1137  0.2268  0.3071
  885MOL0     C22014  10.599   4.582   3.189  0.6438  0.6516  1.1566
  885MOL0     C22015  10.469   4.553   3.272 -0.2127 -0.3241 -0.4631
  885MOL0     O22016  10.375   4.472   3.211 -1.1801 -0.0840  0.7305
  885MOL0     C22017  10.279   4.430   3.286  0.2372 -0.5362 -0.6806
  885MOL0     C22018  10.228   4.497   3.402 -0.3808 -0.9149  0.4893
  885MOL0     C22019  10.140   4.441   3.486  0.0858  0.6246 -0.2931
  885MOL0     C22020  10.113   4.515   3.619  0.2910 -0.4081  0.2113
  885MOL0     C22021  10.075   4.322   3.451  0.8648  0.1963  0.5769
  885MOL0     C22022   9.986   4.243   3.541  0.7285 -0.1224 -0.7806
  885MOL0     O22023   9.972   4.113   3.513  0.1658  0.1145  0.1282
  885MOL0     C22024   9.866   4.042   3.564  0.2312 -0.1469  0.5528
  885MOL0     C22025   9.837   3.930   3.489  0.1348  0.7535 -0.1889
  885MOL0     C22026   9.736   3.842   3.524  0.1070 -0.1882 -0.1396
  885MOL0     C22027   9.649   3.865   3.630  0.0022 -0.3318  0.0242
  885MOL0     O22028   9.548   3.776   3.663 -0.0542  0.2523 -0.1610
  885MOL0     C22029   9.550   3.651   3.600  0.2563 -0.6925  0.7957
  885MOL0     C22030   9.455   3.546   3.675  0.4877  1.2560  0.3313
  885MOL0     C22031   9.302   3.580   3.692  0.0248 -0.4187  0.2605
  885MOL0     C22032   9.221   3.510   3.800 -0.1282 -0.7550  0.7867
  885MOL0     C22033   9.207   3.356   3.795  1.4302 -0.1710 -0.6081
  885MOL0     C22034   9.104   3.313   3.913 -0.6475  0.2347  1.0762
  885MOL0     C22035   9.169   3.309   4.053 -0.0683  0.2135 -0.0466
  885MOL0     C22036   9.093   3.371   4.163 -0.8312 -1.1789 -0.3304
  885MOL0    Cl22037   9.173   3.347   4.316 -0.0448  0.0786 -0.0912
  885MOL0     C22038   9.672   3.981   3.708 -0.0611  0.6783 -0.4368
  885MOL0     C22039   9.772   4.068   3.675 -1.3584 -0.5323  0.9545
  885MOL0     O22040   9.926   4.307   3.626  0.4049  0.2222  0.3563
  885MOL0     C22041  10.105   4.267   3.323  0.2877  0.7779  0.2343
  885MOL0     C22042  10.207   4.319   3.238 -0.1259 -0.6886  0.3702
  885MOL0     N22043  10.474   4.810   2.814 -0.0321  1.2919  0.6778
  885MOL0     N22044  10.471   4.909   2.732 -0.4858 -0.0479  0.1375
  885MOL0     C22045  10.050   6.047   2.311 -0.3853  0.6541 -0.0291
  885MOL0     C22046  10.075   6.115   2.195  0.6677 -0.2067  0.6977
  885MOL0     C22047  10.190   6.191   1.763 -0.1289 -0.1859 -0.4967
  885MOL0     C22048  10.174   6.103   1.655  0.9482 -0.6908  0.4411
  885MOL0     C22049  10.186   6.142   1.518 -0.1091 -0.2191 -0.6357
  885MOL0     C22050  10.231   6.270   1.490  0.1358  0.2261 -0.1818
  885MOL0     O22051  10.231   6.331   1.365 -0.1480 -0.8719  0.4941
  885MOL0     C22052  10.176   6.273   1.243 -0.5560  0.2718  0.4521
  885MOL0     C22053  10.028   6.262   1.253  0.5959  0.1375 -0.2320
  885MOL0     C22054   9.965   6.230   1.115  0.1739  0.0120  0.0520
  885MOL0     C22055   9.820   6.195   1.119  0.1806  0.2761 -0.0417
  885MOL0     C22056   9.738   6.320   1.120 -0.5217 -0.0582 -0.5713
  885MOL0     C22057   9.668   6.421   1.109  0.0701  0.6045  0.5644
  885MOL0     C22058  10.264   6.346   1.602  0.6541 -0.4513  0.1650
  885MOL0     C22059  10.255   6.318   1.737 -0.1197 -0.8765 -0.0603
  885MOL0     C22060  10.288   6.415   1.838 -0.1563  0.1791 -0.0242
  885MOL0     H22061  10.387   6.026   2.126  0.3496  2.4349  1.4172
  885MOL0     H22062  10.359   5.919   2.374 -2.0136 -2.1746 -0.2699
  885MOL0     H22063  10.156   5.718   2.406  1.2524  0.5951  1.3037
  885MOL0     H22064   9.994   5.748   2.448  0.5440  4.0079 -1.5281
  885MOL0     H22065  10.217   5.761   2.649 -1.7236 -0.3835  0.8774
  885MOL0     H22066  10.045   5.755   2.693  1.3050 -0.1846  1.1874
  885MOL0     H22067  10.051   5.523   2.563 -1.2102 -0.8792  2.0113
  885MOL0     H22068  10.227   5.541   2.571 -0.6660 -1.1759  0.6462
  885MOL0     H22069  10.226   5.561   2.813  1.2876  0.5759 -1.9889
  885MOL0     H22070  10.049   5.533   2.818  0.8463  0.6132  2.5702
  885MOL0     H22071  10.123   5.320   2.695  2.0216  0.8920 -1.8411
  885MOL0     H22072  10.140   5.317   2.868  1.6573 -1.7068 -0.3171
  885MOL0     H22073  10.366   5.352   2.657 -2.9939  0.7399 -0.4626
  885MOL0     H22074  10.396   5.382   2.828 -0.0698  1.3318 -1.0503
  885MOL0     H22075  10.275   5.125   2.721  0.3583  1.8391 -0.9170
  885MOL0     H22076  10.330   5.163   2.892 -3.6228  2.3949  0.2352
  885MOL0     H22077  10.491   5.144   2.633  1.3165  0.3913 -0.1424
  885MOL0     H22078  10.548   5.236   2.765 -2.8537  2.4881 -3.9138
  885MOL0     H22079  10.600   5.037   3.001  1.9133 -0.6125  0.5925
  885MOL0     H22080  10.465   4.790   3.129 -1.2961 -1.7867  0.8144
  885MOL0     H22081  10.627   4.817   3.105 -1.8971  1.3673  0.7386
  885MOL0     H22082  10.480   4.591   2.994 -0.7856 -1.4433  2.7681
  885MOL0     H22083  10.663   4.610   2.980  1.1947  4.3174  0.8009
  885MOL0     H22084  10.659   4.491   3.183 -1.8399 -1.0075 -1.9831
  885MOL0     H22085  10.666   4.650   3.242  0.5386  0.7801  1.1251
  885MOL0     H22086  10.498   4.515   3.371 -2.3770  0.4005  0.5001
  885MOL0     H22087  10.423   4.645   3.310 -0.6411 -0.1727 -1.3295
  885MOL0     H22088  10.274   4.584   3.448  0.5590 -0.3649 -1.3661
  885MOL0     H22089  10.175   4.603   3.637  0.9615 -0.4262 -1.8245
  885MOL0     H22090  10.107   4.449   3.706 -0.0654 -2.5305 -1.3511
  885MOL0     H22091  10.010   4.551   3.607 -1.0651 -3.6178  1.1235
  885MOL0     H22092   9.901   3.899   3.407  0.1146 -2.0669  0.7460
  885MOL0     H22093   9.723   3.758   3.456  0.3392  1.6748 -2.6506
  885MOL0     H22094   9.512   3.654   3.498 -0.0360 -2.4277  0.8201
  885MOL0     H22095   9.652   3.612   3.592 -0.3251 -2.2200  0.3389
  885MOL0     H22096   9.469   3.443   3.641 -2.3138  0.1404  2.2294
  885MOL0     H22097   9.501   3.532   3.773 -1.0507 -0.3090  0.8745
  885MOL0     H22098   9.261   3.556   3.594  1.2655  0.8722 -0.6112
  885MOL0     H22099   9.299   3.687   3.714  1.2505  0.0280 -1.5164
  885MOL0     H22100   9.122   3.558   3.804 -1.8470 -3.8538 -0.8481
  885MOL0     H22101   9.288   3.534   3.883 -2.1476  3.3677  1.4731
  885MOL0     H22102   9.154   3.353   3.700 -1.4934  3.6467  0.6363
  885MOL0     H22103   9.307   3.312   3.800  3.7076  4.5387  3.0878
  885MOL0     H22104   9.081   3.213   3.875  2.4730 -0.8384  1.6830
  885MOL0     H22105   9.017   3.379   3.912 -0.1065  0.9706 -0.2423
  885MOL0     H22106   9.258   3.371   4.043 -1.7115  2.4722 -1.7204
  885MOL0     H22107   9.186   3.206   4.085 -0.0931  0.8812  2.2742
  885MOL0     H22108   8.992   3.328   4.162 -1.7166  0.5940  2.2531
  885MOL0     H22109   9.092   3.480   4.148 -2.1927 -1.2837 -1.2586
  885MOL0     H22110   9.611   4.013   3.791 -2.9863  4.0577 -3.5399
  885MOL0     H22111   9.782   4.157   3.736 -1.6596  1.4007 -1.6237
  885MOL0     H22112  10.042   4.184   3.291 -0.6031  1.3948  0.3754
  885MOL0     H22113  10.240   4.244   3.166 -2.1932 -1.2233 -0.0838
  885MOL0     H22114   9.954   6.035   2.359  0.0660 -0.2696  0.6697
  885MOL0     H22115  10.003   6.183   2.150 -0.4808 -1.0323  1.2309
  885MOL0     H22116  10.146   5.998   1.659  0.5770 -0.6617 -0.9310
  885MOL0     H22117  10.169   6.072   1.437  2.4894 -0.4041 -1.1133
  885MOL0     H22118  10.196   6.339   1.159  0.1526  2.7082  2.4157
  885MOL0     H22119  10.224   6.182   1.206 -2.9910 -1.3746  1.0604
  885MOL0     H22120   9.973   6.353   1.278  0.0191 -0.2564 -0.0372
  885MOL0     H22121   9.986   6.204   1.336 -0.4867  3.6169  1.8811
  885MOL0     H22122   9.993   6.309   1.045  3.1522 -0.0795  0.9774
  885MOL0     H22123  10.008   6.136   1.079  0.5439 -1.0451  2.9517
  885MOL0     H22124   9.790   6.130   1.201 -1.1030 -0.8016 -1.3058
  885MOL0     H22125   9.796   6.143   1.026 -0.4960 -0.1435  0.3611
  885MOL0     H22126   9.613   6.513   1.107 -0.6676  0.1725  0.3106
  885MOL0     H22127  10.283   6.453   1.594 -0.6107 -0.2232 -0.1416
  885MOL0     H22128  10.201   6.437   1.901 -1.2744  0.3098 -1.5351
  885MOL0     H22129  10.371   6.374   1.896 -1.4950 -0.6175  1.3862
  885MOL0     H22130  10.318   6.509   1.791  1.7214  0.8315  2.3426
  886MOL0     O22131   5.827  10.567   0.529  0.5733 -0.1092 -1.3008
  886MOL0     C22132   5.720  10.626   0.485 -0.4611 -0.5386 -0.0248
  886MOL0     O22133   5.722  10.726   0.385 -0.2768  0.0553  0.7064
  886MOL0     C22134   5.831  10.730   0.298  0.6836  0.9167  0.0888
  886MOL0     C22135   5.807  10.757   0.167  0.5381 -0.7103  0.5299
  886MOL0     C22136   5.902  10.803   0.083  0.0780 -0.6522  0.7028
  886MOL0     C22137   6.036  10.813   0.125 -1.8970 -0.1227 -0.1765
  886MOL0     O22138   6.130  10.856   0.039  0.3897 -0.3291  0.1862
  886MOL0     C22139   6.251  10.930   0.068  0.1161 -0.8303  0.0764
  886MOL0     C22140   6.351  10.927  -0.056 -0.4270 -0.7410 -0.7618
  886MOL0     C22141   6.382  10.788  -0.111 -0.2765  0.1145 -1.2516
  886MOL0     C22142   6.474  10.806  -0.228 -0.5382  0.3023  1.3955
  886MOL0     C22143   6.494  10.662  -0.291  0.0055  0.2197 -0.1385
  886MOL0     C22144   6.583  10.667  -0.418 -0.3106 -0.2328  0.8099
  886MOL0     C22145   6.591  10.543  -0.503  0.1101 -0.1276  0.3135
  886MOL0     C22146   6.473  10.453  -0.541 -0.9771  0.4539 -0.9159
  886MOL0     N22147   6.496  10.335  -0.628  0.5485 -0.8585  0.4767
  886MOL0     C22148   6.518  10.203  -0.590 -0.0556 -0.4357  0.0729
  886MOL0     C22149   6.520  10.139  -0.706 -0.2469 -0.5429 -1.3923
  886MOL0     C22150   6.561   9.998  -0.717  0.3690  0.3200 -0.6375
  886MOL0     C22151   6.462   9.922  -0.804  0.3462  0.9304  0.2151
  886MOL0     C22152   6.497   9.769  -0.804 -0.3443  0.0946 -0.3858
  886MOL0     C22153   6.439   9.701  -0.919  0.2856  0.1231 -0.0008
  886MOL0     O22154   6.508   9.577  -0.960 -0.0596 -1.0056 -0.0905
  886MOL0     C22155   6.535   9.484  -0.866  0.0161  0.2137 -0.6183
  886MOL0     C22156   6.446   9.444  -0.757 -0.7891 -0.1579  0.6418
  886MOL0     C22157   6.470   9.336  -0.678  0.5881  1.0838 -0.6289
  886MOL0     C22158   6.367   9.287  -0.583  0.1000  0.1296 -1.2670
  886MOL0     C22159   6.583   9.260  -0.698 -0.6046  0.2712  0.9229
  886MOL0     C22160   6.606   9.144  -0.622 -0.2589 -0.1670 -0.2105
  886MOL0     O22161   6.583   9.030  -0.701 -0.3132  0.7189  0.0463
  886MOL0     C22162   6.600   8.911  -0.637  0.2484  0.1659  0.4198
  886MOL0     C22163   6.720   8.848  -0.653  0.1313 -0.4005  0.0925
  886MOL0     C22164   6.740   8.733  -0.580 -1.1298 -0.2811  0.3331
  886MOL0     C22165   6.652   8.682  -0.479  0.7308 -0.1368  0.0478
  886MOL0     O22166   6.668   8.567  -0.407  0.0366 -0.2980  0.7450
  886MOL0     C22167   6.783   8.559  -0.326 -1.1724 -1.0459  0.8771
  886MOL0     C22168   6.740   8.581  -0.174  0.8826 -0.0211  0.3006
  886MOL0     C22169   6.704   8.729  -0.149  0.8334 -0.1986  0.3304
  886MOL0     C22170   6.694   8.786  -0.003 -0.6911  0.3622  0.5424
  886MOL0     C22171   6.658   8.936   0.002  0.1947  0.0483  0.7477
  886MOL0     C22172   6.766   9.031  -0.047  0.3198  0.8292 -0.2171
  886MOL0     C22173   6.746   9.170   0.012 -0.5483 -0.0970  0.1883
  886MOL0     C22174   6.871   9.242  -0.010  0.6648 -0.3065 -0.5621
  886MOL0    Cl22175   6.900   9.266  -0.189  0.2370 -0.0350  0.0986
  886MOL0     C22176   6.534   8.747  -0.462  0.5052  0.1045 -0.3206
  886MOL0     C22177   6.515   8.872  -0.533  1.2730  0.7464 -0.4189
  886MOL0     O22178   6.632   9.144  -0.502 -0.6027  0.5414 -0.2264
  886MOL0     C22179   6.681   9.313  -0.784  0.6668 -0.2871 -0.4152
  886MOL0     C22180   6.656   9.420  -0.875  0.0917  0.1408 -1.0403
  886MOL0     N22181   6.503  10.225  -0.813 -0.7176 -0.7296  0.0168
  886MOL0     N22182   6.486  10.342  -0.764  0.0777  0.2383  0.1899
  886MOL0     C22183   6.063  10.767   0.260 -0.0077 -0.1752 -0.6028
  886MOL0     C22184   5.962  10.726   0.346  0.1888 -0.8094 -0.0000
  886MOL0     C22185   5.590  10.609   0.545  0.6839  0.9399 -0.2262
  886MOL0     C22186   5.492  10.713   0.539 -0.8046 -0.8373  0.6248
  886MOL0     C22187   5.369  10.701   0.598 -0.4654 -0.1638 -0.0959
  886MOL0     C22188   5.330  10.592   0.668  0.3307  0.9053 -0.0639
  886MOL0     O22189   5.205  10.590   0.725  0.6423 -0.4824 -0.0197
  886MOL0     C22190   5.130  10.464   0.728 -0.1994 -0.6175 -0.4809
  886MOL0     C22191   4.993  10.506   0.786 -0.0250 -0.2709  0.6550
  886MOL0     C22192   4.897  10.392   0.776  0.5928  0.4132 -0.1020
  886MOL0     C22193   4.766  10.401   0.851  0.5806  0.4077 -0.3837
  886MOL0     C22194   4.693  10.276   0.890 -0.0480 -0.9205 -0.6767
  886MOL0     C22195   4.599  10.204   0.930 -0.2261 -0.1821  0.6779
  886MOL0     C22196   5.420  10.480   0.668 -0.3187 -0.8341  0.5656
  886MOL0     C22197   5.550  10.491   0.624 -1.0986 -0.2272 -0.3284
  886MOL0     C22198   5.648  10.379   0.653  0.6203  1.0383  0.6515
  886MOL0     H22199   5.710  10.750   0.119  0.5890  1.1731  0.0900
  886MOL0     H22200   5.867  10.818  -0.019  0.3953  2.7087  0.9784
  886MOL0     H22201   6.301  10.891   0.157  1.1028 -1.6476 -0.8134
  886MOL0     H22202   6.237  11.037   0.086 -0.0358 -0.8428  0.0323
  886MOL0     H22203   6.314  10.999  -0.130  1.8579  3.0511  1.4764
  886MOL0     H22204   6.439  10.984  -0.024 -2.2767  2.3341 -0.7058
  886MOL0     H22205   6.423  10.729  -0.029 -1.0221 -2.9441 -2.9354
  886MOL0     H22206   6.294  10.731  -0.142 -0.8846  0.1800  0.3042
  886MOL0     H22207   6.438  10.874  -0.307 -1.4211 -3.6185 -1.9170
  886MOL0     H22208   6.570  10.837  -0.185  0.7233 -3.5011  1.6861
  886MOL0     H22209   6.397  10.616  -0.310  0.6883 -1.2325 -0.2215
  886MOL0     H22210   6.556  10.615  -0.214  1.2423  1.6671 -0.1942
  886MOL0     H22211   6.548  10.748  -0.483  0.2617 -1.4098 -1.0611
  886MOL0     H22212   6.686  10.689  -0.387  1.0827 -1.6365 -2.3797
  886MOL0     H22213   6.664  10.481  -0.450  0.5158  0.5654  0.5747
  886MOL0     H22214   6.638  10.562  -0.600 -1.0752 -0.1486 -0.2720
  886MOL0     H22215   6.419  10.429  -0.449  0.8380  1.3213  0.4330
  886MOL0     H22216   6.406  10.520  -0.596  0.6223  0.6567 -2.6950
  886MOL0     H22217   6.540  10.165  -0.491  0.7263 -4.1585 -1.3342
  886MOL0     H22218   6.542   9.951  -0.620 -0.7340 -0.1159 -1.0565
  886MOL0     H22219   6.665   9.975  -0.742  0.1332  0.6846 -1.9971
  886MOL0     H22220   6.355   9.932  -0.785 -0.1680 -0.7744 -1.4636
  886MOL0     H22221   6.479   9.965  -0.904 -1.2300 -1.8043 -1.3359
  886MOL0     H22222   6.605   9.761  -0.792 -0.6932 -1.0391  3.3480
  886MOL0     H22223   6.453   9.744  -0.706 -1.0830  2.9321  0.0821
  886MOL0     H22224   6.331   9.688  -0.905  0.3541  1.3632  2.0740
  886MOL0     H22225   6.455   9.774  -0.998 -0.6987  1.2239  0.7840
  886MOL0     H22226   6.356   9.494  -0.725  0.0831  1.5196  0.5464
  886MOL0     H22227   6.351   9.181  -0.607 -0.6256  0.6862 -3.4257
  886MOL0     H22228   6.264   9.314  -0.606 -0.6082 -2.1037 -0.9686
  886MOL0     H22229   6.396   9.300  -0.478  0.7479 -1.0342 -1.2803
  886MOL0     H22230   6.791   8.895  -0.721 -1.1891  0.2709 -0.8657
  886MOL0     H22231   6.842   8.698  -0.585 -0.3081  1.8056  1.3051
  886MOL0     H22232   6.810   8.453  -0.338 -2.6058 -1.2051 -1.5970
  886MOL0     H22233   6.860   8.632  -0.352 -0.6305 -1.2767  1.7555
  886MOL0     H22234   6.654   8.518  -0.150  1.2580 -0.9394 -0.6330
  886MOL0     H22235   6.820   8.551  -0.106 -1.2329 -1.6951  2.2110
  886MOL0     H22236   6.614   8.749  -0.208  0.2713  1.8525  1.7491
  886MOL0     H22237   6.772   8.795  -0.203 -0.8113  2.7107  1.5589
  886MOL0     H22238   6.791   8.797   0.047  0.6928  0.7059 -2.0321
  886MOL0     H22239   6.630   8.717   0.052 -2.0640 -0.0303 -1.4431
  886MOL0     H22240   6.567   8.957  -0.054  0.9797 -1.2412 -1.1014
  886MOL0     H22241   6.645   8.962   0.108  0.4309 -0.9910  1.0408
  886MOL0     H22242   6.759   9.036  -0.156 -0.1144  3.9684 -0.1508
  886MOL0     H22243   6.862   8.982  -0.027  1.5965  0.9415 -4.9692
  886MOL0     H22244   6.731   9.167   0.121  5.3048 -3.9880  1.3797
  886MOL0     H22245   6.660   9.202  -0.047  0.6630  2.4815 -0.2887
  886MOL0     H22246   6.954   9.200   0.048 -0.3573 -1.4185  0.1475
  886MOL0     H22247   6.845   9.336   0.040  0.1244  0.0528 -1.4974
  886MOL0     H22248   6.467   8.694  -0.396  1.7483 -0.8728  0.2097
  886MOL0     H22249   6.418   8.922  -0.528 -0.0688 -1.8103  1.2000
  886MOL0     H22250   6.782   9.273  -0.781 -0.5887 -3.7652  2.0290
  886MOL0     H22251   6.737   9.444  -0.943 -0.4171  0.2573 -1.6130
  886MOL0     H22252   6.158  10.767   0.312 -0.7924 -3.6337  1.1089
  886MOL0     H22253   5.997  10.700   0.445 -0.3708  0.2394  0.4912
  886MOL0     H22254   5.518  10.802   0.482 -0.5506 -0.7273  0.9106
  886MOL0     H22255   5.302  10.785   0.590 -2.6603 -1.8808 -0.7856
  886MOL0     H22256   5.115  10.430   0.626  0.2497 -0.6919 -0.5209
  886MOL0     H22257   5.176  10.385   0.788 -3.0630 -2.7280 -0.8160
  886MOL0     H22258   4.950  10.591   0.731  2.5959 -2.4673 -5.7533
  886MOL0     H22259   4.999  10.530   0.893 -1.0265  0.2483  0.6034
  886MOL0     H22260   4.865  10.371   0.673  2.9376  0.3299 -0.8742
  886MOL0     H22261   4.954  10.309   0.816  0.8474  0.4710 -0.3449
  886MOL0     H22262   4.699  10.462   0.791 -0.6772  1.0317  1.5448
  886MOL0     H22263   4.785  10.453   0.946 -1.7334  0.4338  0.1221
  886MOL0     H22264   4.512  10.145   0.952 -0.0966  0.3448  2.8592
  886MOL0     H22265   5.381  10.386   0.705 -2.2184 -0.7415 -1.0212
  886MOL0     H22266   5.699  10.338   0.565 -1.6581  0.9820 -0.7534
  886MOL0     H22267   5.725  10.400   0.727  0.3752  2.0181  0.6411
  886MOL0     H22268   5.600  10.291   0.696  2.2749  0.4345  1.3082
  887MOL0     O22269   6.640   8.980   7.472 -0.7575 -0.0030  0.8672
  887MOL0     C22270   6.564   9.070   7.427  0.6870 -0.7715  0.6119
  887MOL0     O22271   6.441   9.107   7.475 -0.1423 -0.3108  0.4499
  887MOL0     C22272   6.399   9.080   7.604  0.3583 -0.0524  0.4236
  887MOL0     C22273   6.417   8.953   7.663 -0.5782 -0.0818 -1.1254
  887MOL0     C22274   6.381   8.941   7.802 -0.1019  0.3641  0.3604
  887MOL0     C22275   6.288   9.026   7.861 -0.1018 -0.0749  0.4415
  887MOL0     O22276   6.214   8.987   7.975  0.3955 -0.2530  0.5921
  887MOL0     C22277   6.167   9.079   8.070  0.3670 -0.4287 -0.7726
  887MOL0     C22278   6.151   9.014   8.210 -0.7006  0.5315  0.5456
  887MOL0     C22279   6.284   8.954   8.267 -0.3482 -0.0449 -0.9459
  887MOL0     C22280   6.254   8.930   8.415 -0.2518  0.1822 -0.6427
  887MOL0     C22281   6.368   8.893   8.504 -0.4800 -0.6376  0.4458
  887MOL0     C22282   6.479   8.989   8.494 -0.1705  0.1620 -0.0127
  887MOL0     C22283   6.571   8.984   8.622  0.4103 -0.0731 -0.8435
  887MOL0     C22284   6.709   9.049   8.599  0.3858 -0.6657  0.0412
  887MOL0     N22285   6.710   9.192   8.620  0.5541 -0.0578  0.2369
  887MOL0     C22286   6.740   9.285   8.523 -0.7444  0.1820  0.2757
  887MOL0     C22287   6.697   9.403   8.572 -0.0883  0.6443  0.2383
  887MOL0     C22288   6.725   9.545   8.524 -0.2232 -0.1444 -0.0400
  887MOL0     C22289   6.847   9.618   8.583 -0.3681 -0.2625 -0.5959
  887MOL0     C22290   6.842   9.640   8.734 -0.1298  0.4025 -0.0910
  887MOL0     C22291   6.941   9.739   8.796 -0.2168 -0.1010  0.7277
  887MOL0     O22292   7.065   9.714   8.725  1.1747  0.4376 -0.5927
  887MOL0     C22293   7.142   9.614   8.764 -0.0132  0.2152 -0.2002
  887MOL0     C22294   7.247   9.586   8.680 -0.4282 -0.8867 -0.2798
  887MOL0     C22295   7.330   9.479   8.693  0.2624 -0.3394  0.1544
  887MOL0     C22296   7.392   9.417   8.572 -0.4125 -1.2621 -0.0918
  887MOL0     C22297   7.318   9.394   8.814 -0.0218 -0.9495  0.3541
  887MOL0     C22298   7.396   9.274   8.848 -1.0942 -0.0050 -0.3323
  887MOL0     O22299   7.514   9.252   8.789 -0.1198  0.4314  0.1525
  887MOL0     C22300   7.564   9.129   8.777 -0.3198  0.2997  0.3179
  887MOL0     C22301   7.707   9.132   8.778  0.2513 -0.9963  0.8819
  887MOL0     C22302   7.779   9.016   8.796  0.2880  0.6160  0.3469
  887MOL0     C22303   7.726   8.890   8.793  0.5647  0.4767  0.0775
  887MOL0     O22304   7.817   8.788   8.806  0.1117  0.3077 -0.2609
  887MOL0     C22305   7.751   8.660   8.793 -0.3507  1.6516 -0.5696
  887MOL0     C22306   7.856   8.547   8.840  0.3605  0.4015  0.0108
  887MOL0     C22307   7.925   8.581   8.972  0.5069  0.0481  0.8675
  887MOL0     C22308   7.823   8.620   9.090  0.2382  0.2770 -0.4503
  887MOL0     C22309   7.884   8.605   9.229 -0.2276  0.7069 -0.4077
  887MOL0     C22310   7.790   8.591   9.355 -0.4238  0.3718  0.2549
  887MOL0     C22311   7.730   8.452   9.349  1.1044  0.4453  0.9882
  887MOL0     C22312   7.625   8.454   9.455 -0.8696 -0.1087  0.4915
  887MOL0    Cl22313   7.693   8.430   9.620 -0.1418  0.1278 -0.2311
  887MOL0     C22314   7.586   8.889   8.783  0.1018  0.3277  0.2078
  887MOL0     C22315   7.506   9.005   8.769 -0.3764 -0.5303 -0.2194
  887MOL0     O22316   7.361   9.206   8.944  0.1568 -0.7295 -0.1504
  887MOL0     C22317   7.207   9.435   8.903  0.2002  1.0625  0.2753
  887MOL0     C22318   7.117   9.535   8.873 -0.6595 -0.7554  0.3827
  887MOL0     N22319   6.627   9.376   8.689 -1.1240  0.6406  0.4681
  887MOL0     N22320   6.632   9.248   8.716  0.0226  0.2358  0.1847
  887MOL0     C22321   6.255   9.146   7.790 -1.1690 -0.5219 -0.0810
  887MOL0     C22322   6.317   9.180   7.669  0.4890  0.0556 -0.5546
  887MOL0     C22323   6.593   9.140   7.293 -0.9705 -0.5439  0.1244
  887MOL0     C22324   6.479   9.193   7.220 -0.5802 -0.4102 -0.3047
  887MOL0     C22325   6.511   9.264   7.103 -0.7944 -0.1582  0.6515
  887MOL0     C22326   6.635   9.294   7.050 -0.4046 -0.1963 -0.1195
  887MOL0     O22327   6.644   9.367   6.934  0.1557  0.4323  0.2569
  887MOL0     C22328   6.764   9.428   6.894 -0.8257 -0.6913  0.5657
  887MOL0     C22329   6.813   9.383   6.760 -0.3471  0.1892  0.0910
  887MOL0     C22330   6.964   9.410   6.733  0.0420  0.2374  0.9035
  887MOL0     C22331   7.036   9.313   6.629  0.2726 -0.1967 -0.0552
  887MOL0     C22332   7.173   9.343   6.639  0.4493  0.4602 -0.1523
  887MOL0     C22333   7.291   9.374   6.641  1.1220  0.0639  0.5956
  887MOL0     C22334   6.750   9.249   7.126  0.3617  0.0909  0.4214
  887MOL0     C22335   6.731   9.174   7.244 -0.3204  0.0081  0.6112
  887MOL0     C22336   6.855   9.133   7.312  0.1237  0.1766 -0.2276
  887MOL0     H22337   6.476   8.874   7.618  1.7400  0.3963  0.8833
  887MOL0     H22338   6.439   8.871   7.862  0.4827  2.4730  2.4082
  887MOL0     H22339   6.070   9.126   8.047  0.1795  0.5991  1.7593
  887MOL0     H22340   6.227   9.169   8.082 -1.6126  0.5375  3.9936
  887MOL0     H22341   6.116   9.094   8.276  0.6652  2.2888 -0.7591
  887MOL0     H22342   6.068   8.945   8.197 -1.2424  1.2445  0.1244
  887MOL0     H22343   6.320   8.859   8.227 -0.7156 -1.2642  1.4606
  887MOL0     H22344   6.359   9.031   8.248  0.2087 -0.0246  1.1057
  887MOL0     H22345   6.206   9.020   8.455  2.7024  1.7456 -0.3323
  887MOL0     H22346   6.190   8.842   8.424  1.6112 -1.4104 -2.2222
  887MOL0     H22347   6.412   8.795   8.489  1.2379  0.3855 -1.8934
  887MOL0     H22348   6.332   8.892   8.607 -2.5626  1.5740 -0.1607
  887MOL0     H22349   6.529   8.965   8.400  0.5195 -1.6499  0.7601
  887MOL0     H22350   6.437   9.090   8.503 -1.3883 -0.0543 -2.4251
  887MOL0     H22351   6.597   8.881   8.648 -2.1107  0.0110  2.7887
  887MOL0     H22352   6.521   9.021   8.712  0.4985 -3.1492  0.6231
  887MOL0     H22353   6.788   9.004   8.661  0.4315 -0.3675  0.2067
  887MOL0     H22354   6.752   9.032   8.500 -2.2614 -0.1930 -1.2670
  887MOL0     H22355   6.792   9.267   8.429  1.3435  1.5580  1.0850
  887MOL0     H22356   6.634   9.606   8.530 -0.4597 -0.1313 -2.6256
  887MOL0     H22357   6.742   9.554   8.416 -0.7602  1.1845 -0.0335
  887MOL0     H22358   6.942   9.567   8.565  1.9861  2.4318  2.6875
  887MOL0     H22359   6.864   9.718   8.540  3.5752 -1.4126 -2.1824
  887MOL0     H22360   6.742   9.674   8.762 -1.5225 -0.4557 -3.5280
  887MOL0     H22361   6.865   9.537   8.763  0.8185 -0.6443 -3.9294
  887MOL0     H22362   6.908   9.841   8.777 -3.6927 -1.0555  0.7795
  887MOL0     H22363   6.940   9.742   8.906 -0.0269 -1.9887  0.8179
  887MOL0     H22364   7.247   9.651   8.593 -1.8655 -3.0180 -1.9913
  887MOL0     H22365   7.372   9.465   8.476 -0.5260 -1.7694 -0.3259
  887MOL0     H22366   7.361   9.313   8.564  0.5762 -1.5881  0.2022
  887MOL0     H22367   7.500   9.427   8.583 -0.3547 -0.7794 -0.9844
  887MOL0     H22368   7.761   9.225   8.764 -0.3492 -1.1746 -5.3983
  887MOL0     H22369   7.887   9.012   8.809  0.7412 -3.7265 -2.4634
  887MOL0     H22370   7.661   8.666   8.855  0.3031  2.6067  0.3159
  887MOL0     H22371   7.730   8.626   8.691  2.1330 -0.6879 -0.4219
  887MOL0     H22372   7.812   8.448   8.856 -0.3238  1.0934  2.9273
  887MOL0     H22373   7.929   8.522   8.762  1.6367 -1.2784  1.6589
  887MOL0     H22374   8.001   8.658   8.962  0.1497  0.8669  3.7741
  887MOL0     H22375   7.973   8.488   9.004 -3.6592 -2.7555 -0.2492
  887MOL0     H22376   7.738   8.551   9.098  1.0495 -0.5117  4.3701
  887MOL0     H22377   7.777   8.719   9.080 -2.4433 -0.7193  0.9756
  887MOL0     H22378   7.947   8.515   9.228 -0.4807  0.4337 -3.5085
  887MOL0     H22379   7.946   8.694   9.237 -1.2019  1.2609  1.4403
  887MOL0     H22380   7.709   8.664   9.346 -0.2400  0.5553  0.0759
  887MOL0     H22381   7.834   8.609   9.453 -0.6364 -0.0907  0.4365
  887MOL0     H22382   7.804   8.374   9.369 -0.1653 -0.7349  1.2368
  887MOL0     H22383   7.694   8.429   9.248  0.4517  2.4968  0.6927
  887MOL0     H22384   7.554   8.372   9.443  0.3698 -1.7030  3.0869
  887MOL0     H22385   7.566   8.545   9.462  0.5620  0.7422  2.6343
  887MOL0     H22386   7.540   8.792   8.767  2.0286 -0.9786  2.0557
  887MOL0     H22387   7.401   8.998   8.743 -0.8502 -1.8733  1.8080
  887MOL0     H22388   7.188   9.370   8.988 -0.1530 -0.3324 -0.8434
  887MOL0     H22389   7.027   9.555   8.930 -1.3994  0.5628 -1.2029
  887MOL0     H22390   6.190   9.216   7.841  0.7811  1.0475  0.3831
  887MOL0     H22391   6.273   9.269   7.625 -1.6012  0.1037  1.4299
  887MOL0     H22392   6.377   9.196   7.257 -1.9235 -0.6356 -3.6532
  887MOL0     H22393   6.432   9.313   7.046  0.1593 -1.3905 -1.8273
  887MOL0     H22394   6.749   9.536   6.889 -1.5697 -0.8414 -1.4550
  887MOL0     H22395   6.837   9.408   6.974 -1.8406 -2.2126  1.1593
  887MOL0     H22396   6.752   9.441   6.690  1.4278  0.2121 -1.5581
  887MOL0     H22397   6.797   9.275   6.745 -0.5432 -0.2181  2.8375
  887MOL0     H22398   6.976   9.513   6.697  1.7843 -0.2944 -0.2028
  887MOL0     H22399   7.017   9.394   6.827  0.6180  0.8076  0.6836
  887MOL0     H22400   6.995   9.321   6.528  0.6888  1.3110 -0.1387
  887MOL0     H22401   7.030   9.208   6.657 -1.4701 -0.5802 -1.6561
  887MOL0     H22402   7.396   9.388   6.626  0.9302  1.4202  0.3363
  887MOL0     H22403   6.852   9.284   7.115  0.0576  0.1620 -3.9284
  887MOL0     H22404   6.943   9.188   7.280  0.6560 -1.0777 -1.0060
  887MOL0     H22405   6.846   9.149   7.420  1.3179 -3.2081  0.5132
  887MOL0     H22406   6.885   9.028   7.297 -0.0931  0.1604 -0.5480
  888MOL0     O22407   6.911   6.646  11.439 -0.7198  0.6178  0.5232
  888MOL0     C22408   7.015   6.596  11.398 -0.4833  0.3298  0.1619
  888MOL0     O22409   7.135   6.662  11.392  0.1264  0.9033 -0.0440
  888MOL0     C22410   7.154   6.775  11.466 -0.0671  0.5787 -0.0908
  888MOL0     C22411   7.116   6.903  11.427  0.4530 -0.4274  0.2451
  888MOL0     C22412   7.125   7.013  11.520  0.3279  0.0640 -0.0977
  888MOL0     C22413   7.163   6.988  11.656 -0.2084 -0.9362  0.2738
  888MOL0     O22414   7.176   7.094  11.737 -0.0400 -0.7779  0.2765
  888MOL0     C22415   7.190   7.087  11.882 -0.3177 -0.6898 -0.7487
  888MOL0     C22416   7.324   7.108  11.923 -0.7607  0.2768  0.5383
  888MOL0     C22417   7.377   7.231  11.857  0.0354  0.3376  0.0574
  888MOL0     C22418   7.518   7.270  11.890  0.3320 -0.2693  0.5064
  888MOL0     C22419   7.575   7.361  11.780  0.3746  0.0567 -0.0526
  888MOL0     C22420   7.651   7.285  11.676 -0.2289  0.4297 -0.2583
  888MOL0     C22421   7.715   7.369  11.569 -0.2280  0.1008  0.0975
  888MOL0     C22422   7.864   7.426  11.591 -0.4559  0.2550  0.4879
  888MOL0     N22423   7.943   7.340  11.674  1.2198  0.6286  0.3247
  888MOL0     C22424   8.044   7.267  11.621 -0.4971 -0.3576 -0.5035
  888MOL0     C22425   8.133   7.229  11.720  0.1304 -0.4469 -0.4980
  888MOL0     C22426   8.271   7.160  11.703  0.6098  0.0646 -0.4498
  888MOL0     C22427   8.278   7.078  11.574  0.1389 -0.0666  0.4203
  888MOL0     C22428   8.401   7.117  11.488 -0.0352 -0.4688  0.5127
  888MOL0     C22429   8.367   7.256  11.427  0.7162  0.7639  0.5676
  888MOL0     O22430   8.301   7.246  11.293 -0.0090 -0.5568 -0.8982
  888MOL0     C22431   8.309   7.368  11.233 -0.2926 -0.5028  0.2865
  888MOL0     C22432   8.378   7.383  11.108 -0.4161  1.3856 -0.6847
  888MOL0     C22433   8.413   7.510  11.056  0.4023 -0.6701  0.5764
  888MOL0     C22434   8.487   7.525  10.926  0.3054  0.4719  0.0895
  888MOL0     C22435   8.342   7.622  11.114  0.5007  0.6186  0.0052
  888MOL0     C22436   8.343   7.753  11.057  0.6148  1.0950 -1.0048
  888MOL0     O22437   8.221   7.800  11.020 -0.2354  0.7764 -0.8101
  888MOL0     C22438   8.210   7.929  10.984 -0.0175  0.4804 -0.6878
  888MOL0     C22439   8.146   8.015  11.075 -0.0967 -0.6059 -0.3110
  888MOL0     C22440   8.132   8.158  11.046  0.5893  0.7010  0.5471
  888MOL0     C22441   8.210   8.211  10.944  0.0543 -0.5014 -0.2538
  888MOL0     O22442   8.202   8.345  10.917  0.5749  0.2089  0.1510
  888MOL0     C22443   8.183   8.445  11.027 -0.5971  0.3241  1.1277
  888MOL0     C22444   8.245   8.585  11.001 -0.0655 -0.4119  0.6989
  888MOL0     C22445   8.149   8.681  10.920 -0.3522  0.4926 -0.3467
  888MOL0     C22446   8.212   8.821  10.909 -0.0496  0.4051 -0.8299
  888MOL0     C22447   8.133   8.915  10.815 -0.1024 -0.8258 -0.5346
  888MOL0     C22448   8.033   9.003  10.892  0.0010 -0.1522  0.3369
  888MOL0     C22449   7.946   9.079  10.801 -1.0716  0.9602  0.7435
  888MOL0     C22450   7.931   9.220  10.829  1.2136  0.0869  0.0114
  888MOL0    Cl22451   7.868   9.258  10.984  0.3526 -0.2794 -0.2824
  888MOL0     C22452   8.283   8.114  10.865  0.4265  0.5616  0.4154
  888MOL0     C22453   8.272   7.977  10.874  0.8637  0.0969  0.5049
  888MOL0     O22454   8.454   7.811  11.078 -0.8833  0.2554  0.2780
  888MOL0     C22455   8.267   7.606  11.225  0.9388  0.6441  0.5280
  888MOL0     C22456   8.248   7.480  11.280 -0.0951 -0.4852  0.4270
  888MOL0     N22457   8.087   7.286  11.840 -0.1454  0.5822 -0.1288
  888MOL0     N22458   7.976   7.360  11.812  0.0213  0.3564 -0.3089
  888MOL0     C22459   7.196   6.859  11.686 -0.2919  0.0176  0.0292
  888MOL0     C22460   7.196   6.750  11.595 -0.5988  0.4545  0.2004
  888MOL0     C22461   6.998   6.460  11.352 -0.2859 -0.5177 -0.1571
  888MOL0     C22462   6.898   6.428  11.264  0.0370  0.1286  0.6451
  888MOL0     C22463   6.879   6.296  11.217  0.3116  0.2715 -0.3097
  888MOL0     C22464   6.962   6.185  11.260  0.0877 -0.7480  0.4504
  888MOL0     O22465   6.944   6.054  11.223 -0.4235 -0.9096 -0.1563
  888MOL0     C22466   6.826   6.010  11.162  0.3035  0.2302  0.5651
  888MOL0     C22467   6.815   5.851  11.171  0.2923 -1.1182  0.1456
  888MOL0     C22468   6.879   5.784  11.047  1.1769  0.3615 -0.4298
  888MOL0     C22469   6.914   5.633  11.057 -0.3796  0.2799 -0.0749
  888MOL0     C22470   6.791   5.545  11.057 -0.4219 -0.2647 -1.2466
  888MOL0     C22471   6.704   5.467  11.040  0.2034  0.0585  0.3657
  888MOL0     C22472   7.080   6.219  11.336 -0.3078  0.4744  0.2617
  888MOL0     C22473   7.100   6.356  11.373 -0.2916  0.7252  0.8218
  888MOL0     C22474   7.229   6.382  11.447 -0.0318 -0.1181  0.0488
  888MOL0     H22475   7.077   6.911  11.326  1.4892 -1.2110 -0.2403
  888MOL0     H22476   7.093   7.113  11.492 -0.7817 -0.0421  0.7444
  888MOL0     H22477   7.150   6.993  11.922 -2.2813  1.2429  2.3203
  888MOL0     H22478   7.122   7.164  11.920 -0.6605  0.3108 -3.2366
  888MOL0     H22479   7.329   7.121  12.032  1.1499 -1.6952  0.7575
  888MOL0     H22480   7.385   7.022  11.897 -1.1461  0.2474 -0.2974
  888MOL0     H22481   7.372   7.223  11.748 -1.3845 -0.9547  0.1851
  888MOL0     H22482   7.307   7.309  11.889  1.4117  3.1928 -3.2306
  888MOL0     H22483   7.525   7.313  11.990 -0.3448 -1.2630  1.0030
  888MOL0     H22484   7.583   7.182  11.892  2.3419  1.1533  1.0511
  888MOL0     H22485   7.640   7.438  11.821  1.2513 -0.9283  0.4733
  888MOL0     H22486   7.494   7.413  11.729  0.5533 -0.5259 -0.9614
  888MOL0     H22487   7.731   7.229  11.725 -2.5652 -2.4904  0.5486
  888MOL0     H22488   7.601   7.202  11.624  1.5601 -2.0026  1.7027
  888MOL0     H22489   7.648   7.450  11.537 -3.2515 -0.8627  3.3834
  888MOL0     H22490   7.751   7.303  11.490  1.5161  0.5859  0.4414
  888MOL0     H22491   7.904   7.441  11.491  1.4224 -2.4673  0.7477
  888MOL0     H22492   7.863   7.520  11.647  0.4700 -1.8721  4.4139
  888MOL0     H22493   8.067   7.263  11.515  2.1829  0.9416 -0.0583
  888MOL0     H22494   8.290   7.086  11.781  2.2216  0.7084 -0.1993
  888MOL0     H22495   8.347   7.238  11.711  1.2146 -0.7172  2.5071
  888MOL0     H22496   8.286   6.971  11.594 -2.4403 -0.3242  0.4644
  888MOL0     H22497   8.189   7.095  11.512  0.0004 -2.8677 -0.2546
  888MOL0     H22498   8.492   7.130  11.547  0.6034  3.0810 -0.9952
  888MOL0     H22499   8.424   7.037  11.417  2.3288  1.8402 -1.4595
  888MOL0     H22500   8.316   7.330  11.489 -0.0115  2.2328 -1.6734
  888MOL0     H22501   8.467   7.298  11.414  1.8885 -2.4766 -2.6181
  888MOL0     H22502   8.408   7.286  11.071  0.4151  1.2253  0.3488
  888MOL0     H22503   8.417   7.557  10.848  0.1595  1.8533  0.7565
  888MOL0     H22504   8.533   7.432  10.891  0.1491  1.5007 -3.2574
  888MOL0     H22505   8.571   7.593  10.939 -0.3852  1.4249 -0.2520
  888MOL0     H22506   8.102   7.978  11.166  1.5295  3.0304  2.1955
  888MOL0     H22507   8.079   8.226  11.112  0.8064  1.8524 -0.4463
  888MOL0     H22508   8.077   8.464  11.049  0.3966  2.5140  5.0277
  888MOL0     H22509   8.222   8.401  11.119  2.3693  3.3029  1.4568
  888MOL0     H22510   8.260   8.628  11.100 -1.5059  0.9499  0.3519
  888MOL0     H22511   8.346   8.561  10.966  1.3140  1.2058  3.2433
  888MOL0     H22512   8.046   8.689  10.956  0.1359  2.1670  0.7758
  888MOL0     H22513   8.140   8.644  10.818 -0.0656  1.9175 -0.9017
  888MOL0     H22514   8.315   8.820  10.874 -0.1076  0.5265 -1.0010
  888MOL0     H22515   8.206   8.859  11.012 -0.1712 -2.1992  0.2187
  888MOL0     H22516   8.204   8.985  10.770  2.2428 -2.2891  0.6695
  888MOL0     H22517   8.096   8.845  10.739  2.9501 -4.8536  1.2763
  888MOL0     H22518   8.078   9.068  10.967 -3.2133  0.9288  1.5028
  888MOL0     H22519   7.974   8.931  10.950 -1.5912  0.5868 -0.2942
  888MOL0     H22520   7.843   9.044  10.809 -1.1942  0.5720 -1.5946
  888MOL0     H22521   7.988   9.071  10.700  3.3171 -0.7784  2.4621
  888MOL0     H22522   7.861   9.264  10.757  1.7576  0.0118 -0.5699
  888MOL0     H22523   8.023   9.276  10.810  2.3053 -1.5062  0.3844
  888MOL0     H22524   8.343   8.153  10.783  1.5116  1.6438  1.6778
  888MOL0     H22525   8.316   7.901  10.810  1.2765  0.3992  0.4255
  888MOL0     H22526   8.223   7.687  11.283 -1.2051 -0.8189  1.0592
  888MOL0     H22527   8.187   7.481  11.369 -1.0515  1.4761 -0.2052
  888MOL0     H22528   7.236   6.843  11.786  0.6513 -1.5161 -0.5582
  888MOL0     H22529   7.237   6.655  11.627 -0.0260  1.2274  1.8806
  888MOL0     H22530   6.835   6.510  11.231  1.6115  0.0283 -3.0153
  888MOL0     H22531   6.791   6.289  11.155  0.7459  2.1776 -1.2085
  888MOL0     H22532   6.752   6.059  11.226  1.5248  2.9773  0.0016
  888MOL0     H22533   6.828   6.050  11.060  1.7128 -2.1633 -0.4197
  888MOL0     H22534   6.713   5.812  11.177  0.3145 -1.7867 -2.5589
  888MOL0     H22535   6.853   5.827  11.271 -0.5733  2.6340  1.5484
  888MOL0     H22536   6.804   5.783  10.968  1.8455 -1.7908 -1.1029
  888MOL0     H22537   6.976   5.830  11.028  1.3947  0.9273  1.7511
  888MOL0     H22538   6.971   5.630  11.151 -2.0277  2.1988  1.0644
  888MOL0     H22539   6.980   5.599  10.977  1.6911 -0.4505  1.8195
  888MOL0     H22540   6.622   5.397  11.032  0.4676 -0.4043  1.5336
  888MOL0     H22541   7.145   6.139  11.370  0.4053  0.6927 -0.5353
  888MOL0     H22542   7.225   6.473  11.506 -0.6058 -2.6242  4.2502
  888MOL0     H22543   7.234   6.306  11.526  1.9007 -0.7094 -0.5897
  888MOL0     H22544   7.317   6.361  11.385 -1.2099 -0.4675 -1.5876
  889MOL0     O22545   8.183   9.247   8.527  0.1298  0.3069  0.3406
  889MOL0     C22546   8.220   9.133   8.483  0.6314  0.3427 -0.8737
  889MOL0     O22547   8.334   9.064   8.507 -0.2873  0.2795 -0.4833
  889MOL0     C22548   8.389   9.108   8.626  0.6728 -0.7627  0.4498
  889MOL0     C22549   8.459   9.232   8.608  0.0418 -0.0558 -0.2377
  889MOL0     C22550   8.519   9.288   8.722 -0.3127 -0.3818  0.6909
  889MOL0     C22551   8.515   9.216   8.847 -0.9628 -0.3612  0.2410
  889MOL0     O22552   8.581   9.264   8.953  0.2719  0.1055  0.0556
  889MOL0     C22553   8.539   9.396   8.993  0.4738 -0.1994 -0.1084
  889MOL0     C22554   8.612   9.451   9.123 -0.8389 -0.6986 -0.4039
  889MOL0     C22555   8.760   9.422   9.124 -0.2403  0.3621  0.0561
  889MOL0     C22556   8.831   9.508   9.234  1.3609  0.7257 -0.2607
  889MOL0     C22557   8.975   9.476   9.240  0.6981 -0.0981  0.0564
  889MOL0     C22558   9.033   9.550   9.364 -0.2897 -1.2479  0.6728
  889MOL0     C22559   9.190   9.535   9.365  0.4171  0.2520  0.0931
  889MOL0     C22560   9.244   9.596   9.502  0.5938  0.0646 -0.8123
  889MOL0     N22561   9.382   9.647   9.489 -0.5268 -0.0788 -0.2067
  889MOL0     C22562   9.427   9.761   9.429  0.3731  0.1477 -0.2948
  889MOL0     C22563   9.565   9.746   9.427  0.6198 -0.7388 -0.3415
  889MOL0     C22564   9.660   9.857   9.377  0.6935  0.8342 -0.3101
  889MOL0     C22565   9.709   9.811   9.237 -0.2179 -0.1506  0.2153
  889MOL0     C22566   9.807   9.913   9.176 -0.4188 -0.0369  0.0062
  889MOL0     C22567   9.885   9.863   9.058 -0.1035 -0.7523 -0.0920
  889MOL0     O22568   9.980   9.965   9.019 -0.2426 -0.7918 -0.2580
  889MOL0     C22569  10.026   9.959   8.886 -0.4629  0.3116 -0.0508
  889MOL0     C22570  10.015   9.839   8.811  0.3791  0.5561 -0.2308
  889MOL0     C22571  10.047   9.839   8.672  1.1153  0.6639  0.1127
  889MOL0     C22572  10.019   9.710   8.594  0.0423  0.2014 -0.0950
  889MOL0     C22573  10.076   9.964   8.607  0.4813 -0.7107  0.0074
  889MOL0     C22574  10.076   9.982   8.462 -1.0388 -1.0708 -0.9083
  889MOL0     O22575  10.144  10.088   8.406  0.0510  0.0753 -0.5264
  889MOL0     C22576  10.133  10.130   8.281  0.7432  0.4595  0.5838
  889MOL0     C22577  10.015  10.136   8.207  0.0214 -0.7325 -0.7770
  889MOL0     C22578  10.019  10.197   8.077 -0.4014 -0.8227  0.3532
  889MOL0     C22579  10.138  10.249   8.019  0.1194  0.1785 -0.5227
  889MOL0     O22580  10.162  10.290   7.893 -0.2201 -0.8346 -0.0997
  889MOL0     C22581  10.063  10.349   7.810 -0.0416 -0.2826 -0.1461
  889MOL0     C22582  10.120  10.465   7.735  0.3313  0.8353  0.0075
  889MOL0     C22583  10.245  10.435   7.649  0.5936  0.0322  0.3935
  889MOL0     C22584  10.276  10.549   7.557 -0.1614 -0.5386  0.2434
  889MOL0     C22585  10.406  10.526   7.497 -0.6387  0.0514  0.0337
  889MOL0     C22586  10.532  10.541   7.591  0.0859  0.0755  0.4663
  889MOL0     C22587  10.655  10.534   7.503 -0.2007 -0.0066 -0.4906
  889MOL0     C22588  10.779  10.499   7.570 -0.1907  0.4034 -1.0207
  889MOL0    Cl22589  10.830  10.627   7.687 -0.0415 -0.0654 -0.0368
  889MOL0     C22590  10.246  10.248   8.104 -0.0017 -0.2175  0.6292
  889MOL0     C22591  10.245  10.189   8.225  0.6658 -0.1204  0.0405
  889MOL0     O22592  10.009   9.901   8.398  0.2208  1.1009 -0.0559
  889MOL0     C22593  10.096  10.074   8.683 -0.5755 -0.6451  0.2120
  889MOL0     C22594  10.071  10.067   8.822 -0.4722  0.3642 -0.3011
  889MOL0     N22595   9.602   9.636   9.493  0.1141 -1.0602 -0.1544
  889MOL0     N22596   9.493   9.574   9.526 -1.2091 -0.7427  0.8992
  889MOL0     C22597   8.444   9.098   8.864 -0.1255  1.0227 -0.5026
  889MOL0     C22598   8.380   9.044   8.752 -0.3288 -0.1251  1.2794
  889MOL0     C22599   8.123   9.068   8.399  0.4844 -0.2848 -0.4623
  889MOL0     C22600   8.092   9.116   8.264  0.6129 -0.3095  0.7879
  889MOL0     C22601   8.000   9.049   8.183 -0.4591 -0.2760 -0.0273
  889MOL0     C22602   7.934   8.938   8.224  0.0086  1.0241 -0.2893
  889MOL0     O22603   7.876   8.868   8.122  0.2952  0.8603  0.5100
  889MOL0     C22604   7.918   8.730   8.109 -0.0453  0.8575 -0.5804
  889MOL0     C22605   8.064   8.730   8.060  0.6605  0.9469 -0.3605
  889MOL0     C22606   8.077   8.802   7.927  1.0700  1.0738  0.0148
  889MOL0     C22607   8.219   8.798   7.873  0.2217  0.7067 -0.1911
  889MOL0     C22608   8.225   8.674   7.786  0.3600  0.1290  0.4368
  889MOL0     C22609   8.250   8.579   7.711 -0.9001  0.7784  0.4314
  889MOL0     C22610   7.972   8.890   8.351  0.6993 -0.4615  0.0804
  889MOL0     C22611   8.055   8.955   8.440  0.4071 -0.2882 -0.6089
  889MOL0     C22612   8.059   8.893   8.579  0.6794  0.9760 -0.0308
  889MOL0     H22613   8.466   9.273   8.508  4.1263  3.2177  1.0972
  889MOL0     H22614   8.569   9.385   8.718  0.8834 -0.9355  1.7012
  889MOL0     H22615   8.432   9.394   9.017  0.9829  0.4922  2.4959
  889MOL0     H22616   8.550   9.466   8.909 -0.5577  0.0625 -0.0394
  889MOL0     H22617   8.595   9.558   9.134  3.5766  0.1649  0.0360
  889MOL0     H22618   8.568   9.407   9.213 -2.5553  1.1486 -0.2790
  889MOL0     H22619   8.801   9.321   9.133  2.2025  1.1422 -1.3550
  889MOL0     H22620   8.800   9.459   9.029  0.6343  0.3111  0.3985
  889MOL0     H22621   8.817   9.614   9.212  3.0852  1.2026  0.7090
  889MOL0     H22622   8.784   9.486   9.330  1.2835 -1.9736 -0.8476
  889MOL0     H22623   9.013   9.508   9.142 -2.9836 -1.3675 -2.0245
  889MOL0     H22624   8.986   9.368   9.252  0.2444  0.0929  2.6118
  889MOL0     H22625   9.006   9.653   9.387  2.3057 -0.3245 -0.0021
  889MOL0     H22626   8.987   9.496   9.447 -2.0223 -0.4668  0.2466
  889MOL0     H22627   9.228   9.592   9.280 -0.8737  0.2396 -0.5312
  889MOL0     H22628   9.216   9.430   9.348  2.4237  0.8047 -0.4906
  889MOL0     H22629   9.177   9.677   9.531  1.2506  0.6254 -0.8404
  889MOL0     H22630   9.245   9.510   9.570  4.0705  1.5882  1.2730
  889MOL0     H22631   9.369   9.844   9.391 -1.4040 -1.0393 -0.3039
  889MOL0     H22632   9.750   9.864   9.438  2.9716 -0.7941 -3.2026
  889MOL0     H22633   9.616   9.957   9.379  3.3730  2.0667  0.5315
  889MOL0     H22634   9.752   9.710   9.240 -2.7828 -1.5756 -3.4424
  889MOL0     H22635   9.620   9.809   9.173  0.6451 -0.2893 -1.0163
  889MOL0     H22636   9.753   9.999   9.135 -0.9994 -0.4678 -0.1519
  889MOL0     H22637   9.869   9.941   9.262  0.2816 -2.5013  0.3789
  889MOL0     H22638   9.945   9.774   9.078  2.6038  0.4556 -2.1245
  889MOL0     H22639   9.813   9.836   8.980  1.9633 -0.7876 -2.1000
  889MOL0     H22640   9.986   9.748   8.862 -0.9523  0.9791 -0.1892
  889MOL0     H22641  10.016   9.618   8.654  0.9081 -0.4663 -1.0461
  889MOL0     H22642  10.101   9.705   8.522  2.1625 -1.1247  2.2533
  889MOL0     H22643   9.923   9.724   8.544 -0.0790  0.4508  0.2076
  889MOL0     H22644   9.925  10.088   8.245 -0.3829 -2.1360 -3.2728
  889MOL0     H22645   9.931  10.198   8.015  0.6644 -1.8244 -1.2573
  889MOL0     H22646  10.026  10.264   7.753  1.0691 -3.3647  3.3386
  889MOL0     H22647   9.980  10.390   7.868 -0.4856 -3.2013  1.4319
  889MOL0     H22648  10.036  10.477   7.667 -0.7925 -0.8313  1.0346
  889MOL0     H22649  10.137  10.546   7.806  1.0078 -0.3889  1.2984
  889MOL0     H22650  10.223  10.343   7.594 -0.9725 -0.3971  1.6616
  889MOL0     H22651  10.339  10.406   7.698 -0.2099 -0.3797  1.7381
  889MOL0     H22652  10.259  10.645   7.607  3.2850 -0.6174  1.8205
  889MOL0     H22653  10.206  10.527   7.476 -2.5830 -0.1654  2.0895
  889MOL0     H22654  10.407  10.432   7.442  1.8504  0.5690 -0.9224
  889MOL0     H22655  10.410  10.603   7.419  1.1671  1.4517  1.4200
  889MOL0     H22656  10.531  10.448   7.649 -2.0939 -1.2438 -1.4855
  889MOL0     H22657  10.537  10.628   7.657 -1.1300  4.0708 -4.1207
  889MOL0     H22658  10.675  10.627   7.450  0.7938  2.0722  3.2208
  889MOL0     H22659  10.643  10.470   7.415 -0.9770  2.1737 -2.0538
  889MOL0     H22660  10.858  10.476   7.499  0.9297  0.4255  0.1792
  889MOL0     H22661  10.759  10.404   7.620 -3.4704 -1.8408 -5.8547
  889MOL0     H22662  10.336  10.265   8.046 -0.0131  0.1301  0.7157
  889MOL0     H22663  10.339  10.178   8.279  1.4471 -1.2373 -1.4651
  889MOL0     H22664  10.128  10.169   8.642  0.6741 -0.0830  2.3633
  889MOL0     H22665  10.085  10.161   8.875  1.1633  0.5683 -1.0280
  889MOL0     H22666   8.451   9.052   8.962  1.5025  0.8522 -0.6653
  889MOL0     H22667   8.331   8.947   8.764  0.8416 -0.9052  0.0688
  889MOL0     H22668   8.150   9.200   8.227  1.4578 -1.6393 -1.1363
  889MOL0     H22669   7.997   9.071   8.077 -0.6912 -0.3276 -0.0315
  889MOL0     H22670   7.910   8.674   8.203 -0.9053  0.4669 -0.8775
  889MOL0     H22671   7.847   8.690   8.037 -1.7190 -1.5460  2.1673
  889MOL0     H22672   8.089   8.624   8.046  1.5947  0.6471  2.8571
  889MOL0     H22673   8.128   8.759   8.144  0.5069 -0.9516  0.4577
  889MOL0     H22674   8.006   8.760   7.854 -4.2559  2.8240  3.5655
  889MOL0     H22675   8.050   8.908   7.935 -1.0276  0.6573 -0.8654
  889MOL0     H22676   8.295   8.788   7.951  1.4226 -1.4642 -1.5374
  889MOL0     H22677   8.225   8.890   7.815  0.4507  1.5347  1.1060
  889MOL0     H22678   8.251   8.512   7.627 -0.7199 -2.3445  2.7404
  889MOL0     H22679   7.921   8.802   8.389  2.4946 -1.8390 -0.5701
  889MOL0     H22680   8.088   8.963   8.657 -1.3844 -0.5484  2.2555
  889MOL0     H22681   7.954   8.867   8.596 -0.4183  0.0157 -5.8967
  889MOL0     H22682   8.128   8.809   8.586 -0.7468 -0.4200 -1.6864
  890MOL0     O22683   2.381   0.602  10.472  0.8080  0.1905  1.2568
  890MOL0     C22684   2.422   0.496  10.465 -0.1494  0.7651 -0.4786
  890MOL0     O22685   2.447   0.413  10.576  0.2133 -0.0294 -0.4983
  890MOL0     C22686   2.396   0.462  10.693  0.5613  0.3735 -0.3776
  890MOL0     C22687   2.256   0.454  10.729 -1.0430  0.4922  0.1490
  890MOL0     C22688   2.209   0.498  10.848  0.0370 -0.5599 -0.6611
  890MOL0     C22689   2.298   0.553  10.943 -0.9088 -0.0767  0.2619
  890MOL0     O22690   2.230   0.592  11.060 -0.0503  0.4346  0.0571
  890MOL0     C22691   2.310   0.619  11.176 -0.7029 -0.3185  0.9636
  890MOL0     C22692   2.209   0.647  11.286  0.1497 -0.9079  0.0393
  890MOL0     C22693   2.236   0.578  11.419 -0.8325  0.1147 -0.5071
  890MOL0     C22694   2.365   0.648  11.487 -0.2135  0.7245 -0.3249
  890MOL0     C22695   2.401   0.564  11.613  0.9915  1.1211  0.2178
  890MOL0     C22696   2.556   0.558  11.631  1.0770 -1.1740 -0.1114
  890MOL0     C22697   2.608   0.476  11.751 -0.1481  1.0433 -0.7687
  890MOL0     C22698   2.629   0.325  11.705 -0.7637 -0.1251  0.5502
  890MOL0     N22699   2.703   0.234  11.794 -0.4060  0.5349  0.0927
  890MOL0     C22700   2.711   0.235  11.936  0.2228 -0.6931  0.6831
  890MOL0     C22701   2.800   0.140  11.968 -0.0493 -0.6555  0.1916
  890MOL0     C22702   2.843   0.080  12.102  0.5518  0.3696  0.0010
  890MOL0     C22703   2.764  -0.040  12.143  0.7323  0.0348  0.8475
  890MOL0     C22704   2.763  -0.060  12.296 -0.9245  0.8558  1.1611
  890MOL0     C22705   2.696  -0.198  12.311 -0.1724 -0.3054  0.5058
  890MOL0     O22706   2.654  -0.220  12.455  0.0158  0.3014  0.8114
  890MOL0     C22707   2.755  -0.202  12.544 -0.8674 -0.6919  1.0084
  890MOL0     C22708   2.876  -0.263  12.520  0.2687  0.1215 -0.0720
  890MOL0     C22709   2.976  -0.251  12.616 -1.2399 -0.1023 -1.1399
  890MOL0     C22710   3.088  -0.348  12.590  0.0616  0.1451  0.3915
  890MOL0     C22711   2.966  -0.159  12.721 -0.0554  0.2489 -1.2071
  890MOL0     C22712   3.067  -0.130  12.830 -0.1355 -0.4454 -0.2632
  890MOL0     O22713   3.201  -0.150  12.806  0.6372 -0.0964 -0.3034
  890MOL0     C22714   3.298  -0.078  12.870  0.1552  0.3747 -0.5798
  890MOL0     C22715   3.294   0.060  12.882 -0.3593 -1.1669 -0.9385
  890MOL0     C22716   3.400   0.130  12.944  0.5533 -0.2849 -0.1175
  890MOL0     C22717   3.484   0.057  13.024  0.3446 -0.8240  0.4344
  890MOL0     O22718   3.584   0.119  13.102  0.9485  0.0820  0.2903
  890MOL0     C22719   3.642   0.235  13.044 -0.0882 -0.8922 -0.3808
  890MOL0     C22720   3.794   0.242  13.078  0.8032  0.0468  1.0300
  890MOL0     C22721   3.832   0.308  13.203 -1.2228 -0.5100  0.0912
  890MOL0     C22722   3.977   0.353  13.174  0.1248  0.3498  0.8809
  890MOL0     C22723   4.044   0.384  13.305  0.3162 -0.2817  0.3274
  890MOL0     C22724   4.192   0.413  13.294  0.1864  0.1480 -0.3857
  890MOL0     C22725   4.237   0.424  13.429  0.7529  0.1347 -0.4372
  890MOL0     C22726   4.386   0.407  13.437  0.6789  0.2776  1.7345
  890MOL0    Cl22727   4.447   0.418  13.608  0.0467 -0.1872  0.0173
  890MOL0     C22728   3.484  -0.085  13.026  0.4487 -0.2169 -0.1688
  890MOL0     C22729   3.393  -0.149  12.943 -0.1747 -0.1185 -0.3516
  890MOL0     O22730   3.020  -0.079  12.934 -0.3469  0.3052 -0.3244
  890MOL0     C22731   2.848  -0.084  12.729  0.5839  0.0910  0.2183
  890MOL0     C22732   2.735  -0.111  12.647  0.2778 -1.3667 -0.0758
  890MOL0     N22733   2.865   0.103  11.850  0.7598 -0.8915 -0.0454
  890MOL0     N22734   2.805   0.149  11.748  0.8438 -0.0969  0.4254
  890MOL0     C22735   2.436   0.571  10.908  0.2456  0.0492 -0.0835
  890MOL0     C22736   2.482   0.533  10.782 -0.2492 -0.1936  0.2431
  890MOL0     C22737   2.447   0.440  10.335 -0.5609  0.1572  0.4721
  890MOL0     C22738   2.446   0.300  10.325  0.0451 -0.4003  0.0392
  890MOL0     C22739   2.462   0.232  10.207 -0.4364  0.2258  0.3299
  890MOL0     C22740   2.488   0.297  10.083 -0.1212  0.0583  0.4151
  890MOL0     O22741   2.524   0.224   9.973 -0.5561 -0.5962  1.0254
  890MOL0     C22742   2.525   0.073   9.974  0.0743 -0.7027  1.4921
  890MOL0     C22743   2.400   0.028   9.909 -0.5179 -0.0359  0.3820
  890MOL0     C22744   2.272   0.063   9.988  0.4196 -0.4311 -0.1764
  890MOL0     C22745   2.143   0.031   9.911  0.1927  0.9689  0.6922
  890MOL0     C22746   2.139  -0.117   9.880 -0.0181  0.8714 -0.2534
  890MOL0     C22747   2.140  -0.236   9.866 -0.2632  0.7162 -0.4188
  890MOL0     C22748   2.490   0.440  10.088 -0.6195  0.1265  0.1201
  890MOL0     C22749   2.484   0.510  10.215 -0.8944  0.7283  0.0838
  890MOL0     C22750   2.496   0.664  10.211  0.4743  0.9762 -0.6977
  890MOL0     H22751   2.190   0.407  10.657 -3.4485  4.3802 -0.5175
  890MOL0     H22752   2.106   0.481  10.879 -0.0291 -1.4825 -1.3488
  890MOL0     H22753   2.381   0.700  11.160 -1.4327  0.8701  3.3197
  890MOL0     H22754   2.357   0.523  11.201 -3.1553 -2.0596 -0.6152
  890MOL0     H22755   2.204   0.756  11.297 -0.1334 -0.9852  0.7183
  890MOL0     H22756   2.108   0.627  11.248 -1.3442  6.4630 -1.5104
  890MOL0     H22757   2.142   0.577  11.474 -2.6600 -3.3203 -3.3058
  890MOL0     H22758   2.267   0.476  11.395  1.6834  1.2021 -2.4199
  890MOL0     H22759   2.448   0.661  11.417  0.7727  2.6339  1.1086
  890MOL0     H22760   2.338   0.750  11.513 -2.2895  1.3612 -4.1866
  890MOL0     H22761   2.360   0.465  11.590 -0.3861  1.4930  0.9201
  890MOL0     H22762   2.352   0.611  11.699  2.3109  1.9408  0.5467
  890MOL0     H22763   2.612   0.533  11.540  3.3319  2.4845  0.0782
  890MOL0     H22764   2.590   0.659  11.653 -0.1827 -0.5066 -1.1138
  890MOL0     H22765   2.552   0.477  11.845 -3.7801  3.2744 -2.7128
  890MOL0     H22766   2.707   0.513  11.778 -0.8180  1.3276  1.5913
  890MOL0     H22767   2.534   0.278  11.678 -1.1343 -1.0231  3.0629
  890MOL0     H22768   2.689   0.335  11.615 -0.7751  0.1237  0.5708
  890MOL0     H22769   2.644   0.283  12.006  0.0600  0.6156 -0.3388
  890MOL0     H22770   2.833   0.149  12.187 -0.1457 -2.5593  2.4742
  890MOL0     H22771   2.949   0.054  12.094 -0.1129 -1.9708 -2.4258
  890MOL0     H22772   2.660  -0.027  12.114  1.1594 -1.2303 -1.6049
  890MOL0     H22773   2.806  -0.126  12.089 -0.3600 -1.6892  2.6368
  890MOL0     H22774   2.867  -0.063  12.331  0.0826  1.1072 -1.5846
  890MOL0     H22775   2.718   0.027  12.344  1.3995  2.0613  1.2694
  890MOL0     H22776   2.602  -0.190  12.255  0.7275 -1.1490 -1.1857
  890MOL0     H22777   2.760  -0.276  12.268 -0.1033 -0.9088  1.6683
  890MOL0     H22778   2.888  -0.329  12.435  0.3565  0.2320 -0.1450
  890MOL0     H22779   3.143  -0.325  12.498 -2.2710 -0.0690 -1.1525
  890MOL0     H22780   3.038  -0.445  12.579  2.9979 -1.5824  1.2723
  890MOL0     H22781   3.156  -0.371  12.672  0.7879  3.4648  0.8589
  890MOL0     H22782   3.208   0.111  12.839 -0.0441 -0.4623 -0.7461
  890MOL0     H22783   3.406   0.238  12.946  0.4831 -0.2914  0.6370
  890MOL0     H22784   3.630   0.243  12.935 -1.3533 -1.9684 -0.3395
  890MOL0     H22785   3.583   0.314  13.090  1.5510  0.8664 -1.1490
  890MOL0     H22786   3.839   0.142  13.083  0.8562  0.1312  2.7866
  890MOL0     H22787   3.833   0.305  12.998  0.0337  1.6510  1.8871
  890MOL0     H22788   3.839   0.242  13.291 -2.6145 -0.9625 -0.1127
  890MOL0     H22789   3.761   0.390  13.216 -0.6299  0.2797 -1.4915
  890MOL0     H22790   3.961   0.442  13.112 -2.8254 -0.1660  0.7782
  890MOL0     H22791   4.024   0.274  13.114  1.3146  2.7515 -1.5888
  890MOL0     H22792   4.000   0.475  13.346  2.3040  1.2895 -0.8456
  890MOL0     H22793   4.021   0.298  13.369 -2.5338  1.2537  1.5191
  890MOL0     H22794   4.215   0.508  13.244 -3.2883  1.8876  0.9809
  890MOL0     H22795   4.233   0.323  13.246 -2.0755  0.3603 -2.9980
  890MOL0     H22796   4.188   0.345  13.486  2.0230  0.3523  1.0309
  890MOL0     H22797   4.209   0.515  13.482 -0.9475 -0.1976 -0.6933
  890MOL0     H22798   4.441   0.481  13.378 -0.3640  1.6503  2.4032
  890MOL0     H22799   4.411   0.308  13.399  0.6410  0.4458  1.2712
  890MOL0     H22800   3.550  -0.148  13.084 -0.8791 -1.6627 -0.1682
  890MOL0     H22801   3.398  -0.257  12.934  0.1308 -0.0551 -1.0080
  890MOL0     H22802   2.825  -0.032  12.822 -1.7709 -2.3762  1.1441
  890MOL0     H22803   2.636  -0.068  12.662  0.9654 -0.3891  2.1234
  890MOL0     H22804   2.515   0.594  10.979  1.8567  1.5798 -2.2289
  890MOL0     H22805   2.585   0.542  10.749 -0.7981  1.1493 -1.2247
  890MOL0     H22806   2.415   0.235  10.407 -0.8089 -1.0338 -0.7613
  890MOL0     H22807   2.460   0.125  10.224 -0.0908  0.2395  0.4711
  890MOL0     H22808   2.622   0.040   9.934  2.0597  1.1196  4.3809
  890MOL0     H22809   2.536   0.039  10.078  1.5475  1.4755  2.1287
  890MOL0     H22810   2.409  -0.081   9.904 -3.8677 -0.4820  1.6292
  890MOL0     H22811   2.401   0.063   9.806 -0.5043  1.2466  0.8014
  890MOL0     H22812   2.282   0.006  10.081  1.2324  1.0882  0.7032
  890MOL0     H22813   2.273   0.169  10.014 -0.0700 -0.4987  0.1107
  890MOL0     H22814   2.134   0.085   9.816 -1.7409  0.0676  0.3080
  890MOL0     H22815   2.051   0.051   9.965 -0.6865  1.1139 -0.8001
  890MOL0     H22816   2.128  -0.339   9.840  0.2918  0.8512 -1.2568
  890MOL0     H22817   2.509   0.496   9.998  1.0341  0.6358  0.7543
  890MOL0     H22818   2.548   0.711  10.295 -3.1352  0.2425  2.1988
  890MOL0     H22819   2.534   0.700  10.115  1.9430  0.8854 -0.1744
  890MOL0     H22820   2.401   0.716  10.223  0.5519  1.2374 -1.1924
  891MOL0     O22821   0.545   2.210   7.043  0.4970 -0.1559  0.1664
  891MOL0     C22822   0.558   2.298   6.951  0.0471 -0.2996  0.6043
  891MOL0     O22823   0.675   2.320   6.871 -0.1706  0.0974  0.2019
  891MOL0     C22824   0.765   2.221   6.866  0.0408 -0.1775  0.2369
  891MOL0     C22825   0.901   2.245   6.874  0.3237 -0.9180 -0.0439
  891MOL0     C22826   0.993   2.147   6.880 -0.5718 -0.1024 -0.5162
  891MOL0     C22827   0.960   2.012   6.866  0.7913 -0.7271 -0.3370
  891MOL0     O22828   1.059   1.917   6.850 -0.0894  0.3875  0.3825
  891MOL0     C22829   1.182   1.914   6.916  0.5389 -0.5555  0.2437
  891MOL0     C22830   1.278   1.814   6.862 -0.8185 -0.0601 -0.1718
  891MOL0     C22831   1.234   1.669   6.855  0.7351  0.5723  0.2204
  891MOL0     C22832   1.224   1.607   6.985 -0.3414 -0.5491  0.4229
  891MOL0     C22833   1.115   1.505   7.013 -0.9116 -0.1735  0.8601
  891MOL0     C22834   1.179   1.369   6.985  0.2339  0.1348  0.1072
  891MOL0     C22835   1.073   1.277   6.908 -0.3947  0.1603 -0.3634
  891MOL0     C22836   1.146   1.142   6.888 -1.0262  0.5583 -0.3599
  891MOL0     N22837   1.056   1.034   6.847  1.1356  0.4244  1.0186
  891MOL0     C22838   0.940   1.054   6.771  0.3907 -0.4991 -0.0516
  891MOL0     C22839   0.907   0.928   6.728  0.3204  0.1484  0.0350
  891MOL0     C22840   0.791   0.895   6.639  0.2538 -0.2709 -0.1864
  891MOL0     C22841   0.684   0.819   6.715  1.6695  0.7246 -0.0304
  891MOL0     C22842   0.561   0.769   6.631  0.0036  0.8793 -0.0687
  891MOL0     C22843   0.575   0.621   6.593 -0.7182 -0.6566  0.6833
  891MOL0     O22844   0.600   0.537   6.706  0.1093  0.0532  0.0355
  891MOL0     C22845   0.668   0.416   6.678  0.5445 -0.0941  0.9384
  891MOL0     C22846   0.734   0.349   6.784 -0.1298 -0.5727 -1.1686
  891MOL0     C22847   0.803   0.229   6.769  0.0170  0.8708 -0.3860
  891MOL0     C22848   0.872   0.174   6.890 -0.6619  1.0774  0.9763
  891MOL0     C22849   0.804   0.162   6.642 -0.2043  0.2922  0.1391
  891MOL0     C22850   0.878   0.039   6.606 -0.2102 -0.1707 -0.4640
  891MOL0     O22851   0.897   0.012   6.468 -0.3976 -0.3011 -0.5487
  891MOL0     C22852   0.975  -0.093   6.440 -1.4265 -0.4140 -0.0848
  891MOL0     C22853   0.942  -0.206   6.367  0.7438 -0.2292  0.7660
  891MOL0     C22854   1.033  -0.317   6.358 -0.0999 -0.4020 -0.1175
  891MOL0     C22855   1.161  -0.310   6.419 -0.2178 -1.1882 -1.0159
  891MOL0     O22856   1.261  -0.404   6.419 -0.4807  0.0994  0.5667
  891MOL0     C22857   1.228  -0.544   6.386 -0.7874 -0.4524  0.0343
  891MOL0     C22858   1.359  -0.633   6.390 -0.3555  0.5827 -0.0581
  891MOL0     C22859   1.338  -0.784   6.384  0.7665 -1.0726  0.4133
  891MOL0     C22860   1.310  -0.834   6.248  0.1804 -0.6295  0.5637
  891MOL0     C22861   1.219  -0.964   6.245 -0.0000 -0.5100 -0.2880
  891MOL0     C22862   1.275  -1.084   6.320  0.2200 -1.4697 -0.7149
  891MOL0     C22863   1.179  -1.208   6.325  0.1649 -0.9631  0.3783
  891MOL0     C22864   1.046  -1.180   6.397  0.1670  0.3878 -0.0820
  891MOL0    Cl22865   1.073  -1.142   6.572  0.0942 -0.0212  0.1606
  891MOL0     C22866   1.196  -0.187   6.486  0.3906  0.4071 -0.4901
  891MOL0     C22867   1.100  -0.089   6.501  1.2887 -0.4918 -0.3802
  891MOL0     O22868   0.915  -0.034   6.698  0.9025 -0.7503  0.8327
  891MOL0     C22869   0.732   0.226   6.540 -0.1991  0.8784 -0.2410
  891MOL0     C22870   0.674   0.353   6.556  0.2660 -0.3960 -0.9222
  891MOL0     N22871   0.997   0.839   6.786  0.0820  0.1538 -0.2878
  891MOL0     N22872   1.086   0.900   6.860  0.2791  0.6476  0.5655
  891MOL0     C22873   0.822   1.986   6.842 -0.0858  0.4962 -0.0022
  891MOL0     C22874   0.726   2.086   6.841  0.5900  0.1598 -0.4105
  891MOL0     C22875   0.440   2.396   6.937 -0.8037 -0.2452  0.0625
  891MOL0     C22876   0.473   2.522   6.874  0.4062 -0.5622 -0.3663
  891MOL0     C22877   0.371   2.620   6.848  0.7480  0.3245 -0.5275
  891MOL0     C22878   0.241   2.598   6.894  1.0270  0.8898 -0.5947
  891MOL0     O22879   0.127   2.670   6.876 -0.8624 -0.2480 -0.8335
  891MOL0     C22880   0.145   2.821   6.874 -0.2939  0.5844  1.0874
  891MOL0     C22881   0.171   2.860   7.024 -0.5353 -0.7840  0.4735
  891MOL0     C22882   0.203   3.008   7.021 -0.4776 -1.0965 -0.4413
  891MOL0     C22883   0.249   3.058   7.151  0.4386 -0.1193 -0.6712
  891MOL0     C22884   0.308   3.196   7.137 -0.1000  0.3723  1.0716
  891MOL0     C22885   0.368   3.297   7.143  0.1558 -1.1258 -0.0701
  891MOL0     C22886   0.216   2.477   6.952  0.1190 -0.7448 -0.5936
  891MOL0     C22887   0.303   2.372   6.977  0.7711  0.2486 -0.1491
  891MOL0     C22888   0.245   2.237   7.045 -0.1290  0.3216  0.8835
  891MOL0     H22889   0.937   2.345   6.897 -1.2662 -0.4749  0.5779
  891MOL0     H22890   1.095   2.184   6.890  0.1413 -1.8095 -1.0937
  891MOL0     H22891   1.157   1.887   7.019 -1.8002 -0.6792 -0.2993
  891MOL0     H22892   1.233   2.011   6.921 -0.6380  0.0438  1.2463
  891MOL0     H22893   1.311   1.845   6.763 -1.3548  1.3833  0.0785
  891MOL0     H22894   1.367   1.820   6.925 -2.0525  0.4631  1.6029
  891MOL0     H22895   1.140   1.653   6.801 -0.3632  0.4108  2.0733
  891MOL0     H22896   1.314   1.614   6.805  1.5713  1.3348  0.6880
  891MOL0     H22897   1.329   1.582   7.006  0.1576  0.6715 -0.4972
  891MOL0     H22898   1.205   1.684   7.059 -0.2303 -0.3984  0.2957
  891MOL0     H22899   1.043   1.540   6.939 -0.0480  0.5241  0.3182
  891MOL0     H22900   1.060   1.515   7.107 -0.3111  2.3370  1.0259
  891MOL0     H22901   1.277   1.361   6.936 -0.6546 -3.2089 -1.4225
  891MOL0     H22902   1.194   1.319   7.081  0.7003 -1.8976 -0.9607
  891MOL0     H22903   1.039   1.322   6.814 -1.4207 -0.2325 -0.1942
  891MOL0     H22904   0.982   1.268   6.968  0.4479  0.3002  0.9768
  891MOL0     H22905   1.213   1.144   6.802 -0.3250 -1.1444  0.1025
  891MOL0     H22906   1.201   1.104   6.975 -0.8249  0.0431 -0.7022
  891MOL0     H22907   0.916   1.153   6.734 -1.6233 -1.3815 -1.2531
  891MOL0     H22908   0.821   0.833   6.553 -1.8496 -1.4502 -0.1232
  891MOL0     H22909   0.748   0.984   6.592 -1.5589 -1.8512 -1.6795
  891MOL0     H22910   0.725   0.744   6.783  0.2897 -1.9767 -1.9817
  891MOL0     H22911   0.648   0.897   6.783 -0.4295  1.7104 -2.1387
  891MOL0     H22912   0.470   0.773   6.691  0.8786  3.0211  1.2692
  891MOL0     H22913   0.555   0.835   6.544  1.2060  2.5842  1.0658
  891MOL0     H22914   0.481   0.592   6.545  0.0022  0.5473 -1.5960
  891MOL0     H22915   0.655   0.612   6.519 -1.0661  0.8543  0.0873
  891MOL0     H22916   0.744   0.389   6.885  1.5622 -0.3445 -1.3880
  891MOL0     H22917   0.810   0.099   6.939 -1.3474  1.7528  1.1704
  891MOL0     H22918   0.898   0.249   6.965  0.8968  0.1111  1.4430
  891MOL0     H22919   0.969   0.134   6.861  0.1983  2.7004  1.4700
  891MOL0     H22920   0.839  -0.223   6.340 -0.2404  0.3614  3.7574
  891MOL0     H22921   0.983  -0.401   6.313  0.6163 -0.0318 -1.6800
  891MOL0     H22922   1.148  -0.584   6.448  0.3165 -3.4749 -0.3502
  891MOL0     H22923   1.187  -0.545   6.284 -0.4884 -2.2600 -0.0961
  891MOL0     H22924   1.429  -0.597   6.314 -0.7383  2.7381  0.5396
  891MOL0     H22925   1.419  -0.609   6.478 -0.3935  1.3901 -0.2436
  891MOL0     H22926   1.245  -0.794   6.441  0.3835 -0.3330 -0.0713
  891MOL0     H22927   1.420  -0.840   6.429 -1.7649 -3.8642  1.9677
  891MOL0     H22928   1.406  -0.857   6.201  0.2290  2.8502 -1.2865
  891MOL0     H22929   1.259  -0.757   6.191  2.6636 -1.3429 -2.9151
  891MOL0     H22930   1.130  -0.937   6.302 -1.4823  0.7081 -3.0101
  891MOL0     H22931   1.179  -0.990   6.146 -0.2825 -0.0431 -0.3001
  891MOL0     H22932   1.300  -1.050   6.422  0.4469 -2.8083 -0.3039
  891MOL0     H22933   1.367  -1.113   6.268  0.4622 -1.0176 -0.5405
  891MOL0     H22934   1.222  -1.300   6.365  1.4932 -1.2882 -1.6626
  891MOL0     H22935   1.162  -1.239   6.221  2.1841 -3.0199  0.5927
  891MOL0     H22936   0.979  -1.265   6.377  0.8157  0.3120 -2.2416
  891MOL0     H22937   0.985  -1.101   6.351 -1.2058 -0.9842 -0.7477
  891MOL0     H22938   1.282  -0.195   6.551  2.2225 -2.4524 -2.9746
  891MOL0     H22939   1.137   0.004   6.544 -0.2741 -0.2801  0.5762
  891MOL0     H22940   0.730   0.169   6.447 -2.1940 -1.3459  1.0411
  891MOL0     H22941   0.613   0.400   6.480 -0.4602 -0.3869 -0.3460
  891MOL0     H22942   0.793   1.882   6.832 -1.9572  0.8123  1.4958
  891MOL0     H22943   0.620   2.065   6.838  0.7351 -1.1842  1.9427
  891MOL0     H22944   0.573   2.546   6.840  1.0932 -0.9906  1.2721
  891MOL0     H22945   0.417   2.712   6.811  3.4470  0.8510  3.4855
  891MOL0     H22946   0.233   2.845   6.813 -1.1282  0.4230 -0.2319
  891MOL0     H22947   0.055   2.870   6.835 -0.5615 -0.5957  0.1317
  891MOL0     H22948   0.256   2.806   7.067  0.8626  0.8725 -0.0830
  891MOL0     H22949   0.092   2.849   7.099 -0.7354 -0.5846  0.2926
  891MOL0     H22950   0.296   3.011   6.965  0.9342 -1.4113  1.7624
  891MOL0     H22951   0.123   3.069   6.978  0.2454  2.2402  2.4364
  891MOL0     H22952   0.325   2.990   7.190  0.6840  0.6214  0.1829
  891MOL0     H22953   0.169   3.059   7.226  3.0960  1.2645  2.3979
  891MOL0     H22954   0.433   3.382   7.144 -0.6082 -0.4921  2.0916
  891MOL0     H22955   0.111   2.462   6.977  0.0705 -1.0259 -0.9558
  891MOL0     H22956   0.280   2.214   7.146 -3.2679 -1.5921  1.6643
  891MOL0     H22957   0.138   2.240   7.066 -0.5876  0.7130 -1.2258
  891MOL0     H22958   0.269   2.150   6.984  4.3126  2.0935 -0.3432
  892MOL0     O22959   8.436  11.062   4.893  0.2771 -0.0434 -0.7854
  892MOL0     C22960   8.454  11.148   4.811  0.8716  0.9514  0.6075
  892MOL0     O22961   8.416  11.136   4.675  0.2343  0.1524 -0.1879
  892MOL0     C22962   8.382  11.007   4.637 -0.4065  0.0465  0.3969
  892MOL0     C22963   8.477  10.900   4.636  1.0154  0.2130  0.1010
  892MOL0     C22964   8.438  10.774   4.625 -1.1776 -0.2388 -0.4519
  892MOL0     C22965   8.303  10.742   4.598 -0.2101  0.3815 -0.9065
  892MOL0     O22966   8.258  10.609   4.582  0.2073  0.7712 -0.4104
  892MOL0     C22967   8.128  10.592   4.530 -0.0786 -0.2174 -0.7362
  892MOL0     C22968   8.121  10.455   4.473  1.3606  0.5098 -0.4367
  892MOL0     C22969   7.987  10.427   4.410 -0.3483  1.2462 -1.1777
  892MOL0     C22970   7.959  10.282   4.392 -0.0032 -0.0398 -0.2221
  892MOL0     C22971   7.819  10.232   4.435 -1.0101  0.4412  0.0806
  892MOL0     C22972   7.826  10.208   4.587  0.8919  0.3040 -0.0339
  892MOL0     C22973   7.695  10.130   4.647  0.2609  0.1543 -0.3867
  892MOL0     C22974   7.688  10.079   4.797 -0.6648 -0.8007 -0.8013
  892MOL0     N22975   7.811  10.002   4.831 -0.9701 -0.4311  0.1985
  892MOL0     C22976   7.831   9.870   4.789  0.3113 -0.1718 -1.1312
  892MOL0     C22977   7.939   9.824   4.854 -0.4674  0.6959 -0.6669
  892MOL0     C22978   7.991   9.683   4.839 -1.0771  0.1898  0.2778
  892MOL0     C22979   7.915   9.581   4.919 -0.0783  0.2089 -1.0988
  892MOL0     C22980   7.941   9.602   5.068  0.2745  1.0151 -0.7183
  892MOL0     C22981   7.840   9.704   5.132 -0.0377 -0.1765  0.5084
  892MOL0     O22982   7.708   9.663   5.110  0.2165 -0.1790 -0.1853
  892MOL0     C22983   7.622   9.776   5.087  0.1924  1.0146 -0.1151
  892MOL0     C22984   7.510   9.763   5.003  0.6993 -0.1171  0.1388
  892MOL0     C22985   7.429   9.868   4.978  0.2176  0.6374 -0.0726
  892MOL0     C22986   7.324   9.833   4.873  0.0616  0.2030 -0.7530
  892MOL0     C22987   7.438   9.992   5.046  0.0408  0.3720  0.2943
  892MOL0     C22988   7.339  10.105   5.023 -0.4850  0.6353  0.0741
  892MOL0     O22989   7.210  10.075   5.048  0.0394  0.0115  0.3740
  892MOL0     C22990   7.126  10.181   5.016  0.6651  0.6743 -0.2467
  892MOL0     C22991   7.097  10.205   4.880 -0.5687  0.1599 -0.5280
  892MOL0     C22992   6.998  10.295   4.846  0.0489 -0.4423 -0.0770
  892MOL0     C22993   6.911  10.354   4.939  0.4777 -0.3641 -0.5941
  892MOL0     O22994   6.814  10.427   4.882 -0.2734 -0.0220 -0.8677
  892MOL0     C22995   6.791  10.542   4.962  0.7934  0.3650 -1.6643
  892MOL0     C22996   6.715  10.643   4.879  0.6961  0.0426 -0.3531
  892MOL0     C22997   6.716  10.779   4.945 -1.1425 -0.1477  0.4876
  892MOL0     C22998   6.603  10.862   4.898  0.2029  0.2315 -0.7275
  892MOL0     C22999   6.599  11.015   4.947  0.4793 -0.5895  0.1746
  892MOL0     C23000   6.704  11.094   4.865  0.0792  0.3284  0.9383
  892MOL0     C23001   6.698  11.246   4.885  0.3191  0.7188 -0.0740
  892MOL0     C23002   6.798  11.301   4.777 -0.8664 -0.4559  0.2168
  892MOL0    Cl23003   6.787  11.294   4.599 -0.0552  0.6870  0.2610
  892MOL0     C23004   6.937  10.322   5.066 -0.6357  0.4485  0.1544
  892MOL0     C23005   7.049  10.248   5.114 -0.1687  1.5971  0.2513
  892MOL0     O23006   7.379  10.217   5.001  0.3010  0.5398 -0.3514
  892MOL0     C23007   7.548  10.017   5.134 -0.2141  0.5347  0.1057
  892MOL0     C23008   7.639   9.903   5.154  0.3689  1.3285  0.7293
  892MOL0     N23009   7.982   9.938   4.930  0.4638 -0.3465 -0.3155
  892MOL0     N23010   7.906  10.037   4.928 -0.1047 -0.9773 -1.0841
  892MOL0     C23011   8.208  10.848   4.598 -0.2257  0.5674  0.3747
  892MOL0     C23012   8.246  10.981   4.616 -0.1457 -0.4522  0.8437
  892MOL0     C23013   8.511  11.281   4.852 -0.5305 -0.6596 -0.2671
  892MOL0     C23014   8.617  11.269   4.940 -0.1234  0.2656 -0.3997
  892MOL0     C23015   8.687  11.386   4.988  0.3846  0.9172 -1.8206
  892MOL0     C23016   8.662  11.511   4.936 -0.6739  0.3032 -0.4550
  892MOL0     O23017   8.742  11.616   4.960 -0.8141 -1.2288 -0.5203
  892MOL0     C23018   8.885  11.601   4.978 -0.0568 -0.0999 -0.4911
  892MOL0     C23019   8.952  11.738   4.964  0.4307 -0.4093  0.9495
  892MOL0     C23020   8.973  11.775   4.817  0.5924  0.2629 -0.4004
  892MOL0     C23021   8.986  11.928   4.795 -0.0037  0.0615  0.3557
  892MOL0     C23022   9.101  11.988   4.870  0.9128 -0.9337  0.2345
  892MOL0     C23023   9.201  12.019   4.937  0.1972 -0.0138  0.0188
  892MOL0     C23024   8.562  11.518   4.837  0.1603 -0.1694  0.5756
  892MOL0     C23025   8.482  11.412   4.804  0.4457 -0.3843  1.2539
  892MOL0     C23026   8.359  11.429   4.711 -0.8788  0.0608  1.0931
  892MOL0     H23027   8.580  10.920   4.662  1.4264  0.1114 -1.3447
  892MOL0     H23028   8.501  10.687   4.637  0.2992  0.7199 -0.9278
  892MOL0     H23029   8.099  10.663   4.453  1.5190 -0.8248 -1.9564
  892MOL0     H23030   8.056  10.590   4.613  1.1449 -2.9822  0.3798
  892MOL0     H23031   8.197  10.439   4.397  0.1603  1.4745 -1.8850
  892MOL0     H23032   8.127  10.381   4.553 -0.4760 -0.8294 -1.4683
  892MOL0     H23033   7.908  10.468   4.474  0.5411  0.1979  0.6690
  892MOL0     H23034   7.971  10.457   4.306 -1.5181 -4.5342 -3.0100
  892MOL0     H23035   7.979  10.272   4.285 -0.7482 -3.6006 -0.1287
  892MOL0     H23036   8.033  10.217   4.440 -0.3387 -0.0586  0.2762
  892MOL0     H23037   7.788  10.149   4.371 -0.6493  0.6104 -0.3181
  892MOL0     H23038   7.738  10.303   4.416  1.1129  2.4839 -2.0632
  892MOL0     H23039   7.915  10.146   4.602  0.8971 -0.2111 -1.9346
  892MOL0     H23040   7.839  10.301   4.644  1.7525 -0.1658  0.5714
  892MOL0     H23041   7.685  10.052   4.570 -0.2909  1.5874 -1.8282
  892MOL0     H23042   7.609  10.198   4.642 -0.3106 -0.6185 -1.9133
  892MOL0     H23043   7.678  10.161   4.868 -2.2961 -2.0869  0.5376
  892MOL0     H23044   7.594  10.024   4.810 -1.9328  0.7794 -2.6435
  892MOL0     H23045   7.761   9.833   4.716 -2.7945 -1.6541  2.2662
  892MOL0     H23046   8.099   9.691   4.855 -1.0357  1.6268 -0.5449
  892MOL0     H23047   7.984   9.664   4.732 -0.0469  1.1517  0.0200
  892MOL0     H23048   7.806   9.591   4.915 -0.4132 -2.5938 -1.3139
  892MOL0     H23049   7.941   9.478   4.895 -0.8411  0.0967 -1.4915
  892MOL0     H23050   7.922   9.511   5.126 -1.4337  2.2916  0.8543
  892MOL0     H23051   8.043   9.639   5.075  0.4757  0.4632 -0.6794
  892MOL0     H23052   7.862   9.713   5.239  1.7696 -0.6770  0.2232
  892MOL0     H23053   7.852   9.801   5.083 -0.6214 -0.8013 -0.9146
  892MOL0     H23054   7.492   9.665   4.960 -0.0916  1.1467 -2.6226
  892MOL0     H23055   7.228   9.821   4.923  0.6605 -0.0346  0.3768
  892MOL0     H23056   7.346   9.747   4.808 -2.0134  1.5477 -3.4535
  892MOL0     H23057   7.318   9.915   4.800 -2.8127 -0.5460 -1.4841
  892MOL0     H23058   7.153  10.156   4.801  0.8192 -0.5874  0.8552
  892MOL0     H23059   6.994  10.327   4.743  0.9193  1.4467  0.4333
  892MOL0     H23060   6.730  10.501   5.043  2.3372 -0.0049 -0.6572
  892MOL0     H23061   6.881  10.587   5.005  0.7501 -2.2148  1.4855
  892MOL0     H23062   6.767  10.669   4.786  1.8119  0.6999  0.4316
  892MOL0     H23063   6.612  10.611   4.865  0.1382  1.7393 -0.3535
  892MOL0     H23064   6.813  10.829   4.943  0.1535 -2.5308 -1.5215
  892MOL0     H23065   6.705  10.765   5.053 -1.5962 -1.9448  0.2253
  892MOL0     H23066   6.517  10.815   4.947 -0.5730  0.4137 -1.8692
  892MOL0     H23067   6.587  10.857   4.790 -0.1235  1.4637 -0.7450
  892MOL0     H23068   6.500  11.059   4.930  1.8238  2.1689 -1.0850
  892MOL0     H23069   6.622  11.024   5.054  1.2835 -0.3347 -0.0184
  892MOL0     H23070   6.694  11.068   4.759 -0.5979 -2.9462  1.7124
  892MOL0     H23071   6.802  11.049   4.885 -0.3279 -1.1285 -0.1704
  892MOL0     H23072   6.729  11.263   4.988 -1.3368 -0.6671  0.7036
  892MOL0     H23073   6.595  11.275   4.862  0.4788  1.2858 -0.0885
  892MOL0     H23074   6.896  11.264   4.808 -0.5404  0.2331  0.0326
  892MOL0     H23075   6.799  11.409   4.795  0.8566 -0.6292  1.3762
  892MOL0     H23076   6.854  10.345   5.132 -0.0352  4.7908 -0.3167
  892MOL0     H23077   7.067  10.217   5.217  0.7235 -0.9040 -0.5844
  892MOL0     H23078   7.557  10.109   5.191  4.8896  0.9304 -0.7915
  892MOL0     H23079   7.719   9.917   5.226 -2.0381  0.6280  3.7577
  892MOL0     H23080   8.102  10.834   4.579  0.2812 -0.9216 -1.7528
  892MOL0     H23081   8.181  11.068   4.611  1.3737  0.6330 -2.2308
  892MOL0     H23082   8.651  11.169   4.964  0.8062  0.5472 -0.5093
  892MOL0     H23083   8.771  11.382   5.056 -1.5173 -1.2840  0.6125
  892MOL0     H23084   8.891  11.555   5.077 -1.0283  0.5054 -0.1376
  892MOL0     H23085   8.938  11.537   4.906  3.0574  1.6014  0.0925
  892MOL0     H23086   9.050  11.730   5.011  1.3697 -1.2409 -1.0113
  892MOL0     H23087   8.889  11.811   5.015  2.1409  0.2818  2.1699
  892MOL0     H23088   9.057  11.715   4.780  0.8176  0.5285 -0.3176
  892MOL0     H23089   8.877  11.750   4.771 -1.3588 -0.0514  3.4576
  892MOL0     H23090   8.891  11.966   4.832  0.2588  1.0423  0.0547
  892MOL0     H23091   8.993  11.949   4.688 -0.9813 -1.7752 -0.1154
  892MOL0     H23092   9.285  12.053   4.995 -1.5271  1.3793  1.8551
  892MOL0     H23093   8.550  11.621   4.804 -1.5382  0.6016  3.3222
  892MOL0     H23094   8.281  11.478   4.771 -2.4460 -1.4196  0.3467
  892MOL0     H23095   8.368  11.490   4.621  2.3332 -1.8311 -0.0204
  892MOL0     H23096   8.324  11.330   4.682  4.7971 -2.8657  2.8594
  893MOL0     O23097   9.125  10.879   9.564  0.3124 -0.1045  0.9435
  893MOL0     C23098   9.071  10.777   9.520  0.4754  0.5973 -0.1771
  893MOL0     O23099   9.118  10.645   9.528 -0.6972  0.4860  0.0241
  893MOL0     C23100   9.238  10.620   9.580 -0.7897  0.7734 -1.1063
  893MOL0     C23101   9.225  10.583   9.718 -0.5036 -0.4873  0.0681
  893MOL0     C23102   9.341  10.557   9.794  0.3393  0.8869  0.0767
  893MOL0     C23103   9.466  10.564   9.730  0.3477  0.0247 -0.3178
  893MOL0     O23104   9.571  10.514   9.798  0.2300 -0.0758 -0.3706
  893MOL0     C23105   9.692  10.589   9.801  0.2068  0.0813  0.2634
  893MOL0     C23106   9.744  10.538   9.928  0.0467 -0.3029 -0.6056
  893MOL0     C23107   9.684  10.604  10.051  1.1882 -0.3727  0.7134
  893MOL0     C23108   9.762  10.575  10.180 -0.2179  0.4109 -1.0337
  893MOL0     C23109   9.691  10.610  10.314 -0.2943 -0.1509 -0.4025
  893MOL0     C23110   9.782  10.571  10.428  1.0678 -0.2626  0.5103
  893MOL0     C23111   9.906  10.650  10.455 -0.1955 -0.7630  0.1016
  893MOL0     C23112   9.955  10.616  10.594 -0.5696  0.0965  1.2435
  893MOL0     N23113  10.096  10.665  10.629 -0.2515 -0.2725 -0.1178
  893MOL0     C23114  10.129  10.798  10.642 -0.2260 -0.4466  0.5687
  893MOL0     C23115  10.262  10.794  10.653  1.2303  0.3838 -0.1661
  893MOL0     C23116  10.361  10.903  10.686 -0.2448  0.1184 -0.7844
  893MOL0     C23117  10.395  10.896  10.838 -0.6712  0.9565 -0.3169
  893MOL0     C23118  10.451  11.022  10.896  1.0772 -0.5328  0.8779
  893MOL0     C23119  10.575  11.066  10.808  0.6304  0.3764 -0.2754
  893MOL0     O23120  10.632  11.180  10.883 -0.3955  0.4501  0.0114
  893MOL0     C23121  10.741  11.149  10.965 -0.9437 -0.7024  0.7059
  893MOL0     C23122  10.849  11.066  10.931  0.1205 -1.0066 -0.3301
  893MOL0     C23123  10.955  11.038  11.024  0.8824 -0.2678 -0.5569
  893MOL0     C23124  11.058  10.942  10.967 -0.4415 -0.7089  0.4664
  893MOL0     C23125  10.956  11.103  11.149 -0.3676  1.0706 -1.2737
  893MOL0     C23126  11.057  11.078  11.253 -0.0640  0.0164  0.8032
  893MOL0     O23127  11.186  11.088  11.212 -0.2964 -0.3063  0.4257
  893MOL0     C23128  11.288  11.029  11.272 -0.2134 -0.5628  1.0874
  893MOL0     C23129  11.367  10.936  11.202  1.2030  0.0305 -0.7252
  893MOL0     C23130  11.482  10.881  11.270  1.1711 -0.6571  0.3217
  893MOL0     C23131  11.516  10.933  11.401 -0.9666  0.6824  0.4926
  893MOL0     O23132  11.640  10.906  11.453 -0.3487 -0.0514 -0.6025
  893MOL0     C23133  11.707  10.787  11.428 -0.0304 -0.1061  1.6036
  893MOL0     C23134  11.844  10.801  11.498  1.5221 -0.5718  0.5460
  893MOL0     C23135  11.924  10.922  11.442 -1.1820  0.0399  0.2787
  893MOL0     C23136  11.941  11.026  11.547  0.3898 -0.2845  0.4275
  893MOL0     C23137  12.007  11.151  11.484 -0.6806 -0.3500  0.4109
  893MOL0     C23138  11.939  11.202  11.355 -0.6798 -0.5229  0.0524
  893MOL0     C23139  11.989  11.332  11.294 -0.5387 -1.0640 -0.0094
  893MOL0     C23140  11.891  11.370  11.189  0.7487 -0.4311  0.6698
  893MOL0    Cl23141  11.898  11.258  11.053 -0.1587  0.1666 -0.5657
  893MOL0     C23142  11.421  11.003  11.463  0.2461  0.0176 -0.3288
  893MOL0     C23143  11.307  11.054  11.403 -0.1678  0.1602  0.0703
  893MOL0     O23144  11.022  11.040  11.368  0.0771  1.2524 -0.7730
  893MOL0     C23145  10.853  11.193  11.177 -0.5765 -0.2755 -1.6176
  893MOL0     C23146  10.750  11.217  11.088  1.7957 -0.9230  0.9819
  893MOL0     N23147  10.304  10.667  10.621  0.7666 -0.8661  0.2562
  893MOL0     N23148  10.207  10.591  10.625  1.3022  0.5962 -0.2610
  893MOL0     C23149   9.477  10.604   9.596 -0.1390  0.0936 -0.2170
  893MOL0     C23150   9.361  10.623   9.522  0.0649  0.7108  0.3492
  893MOL0     C23151   8.956  10.802   9.431  0.0328  0.7540  0.1176
  893MOL0     C23152   8.924  10.702   9.330 -1.2254 -0.4461  0.7300
  893MOL0     C23153   8.810  10.712   9.244 -0.3900 -0.2817 -0.7618
  893MOL0     C23154   8.731  10.819   9.254 -1.1348 -0.8924  0.1330
  893MOL0     O23155   8.638  10.838   9.156  0.5658 -0.0431 -0.3226
  893MOL0     C23156   8.518  10.914   9.183 -0.2552 -0.0005  0.1567
  893MOL0     C23157   8.421  10.875   9.062  0.4850  1.0551 -1.1739
  893MOL0     C23158   8.451  10.954   8.948  0.1921  0.5373 -0.2708
  893MOL0     C23159   8.342  10.948   8.838 -0.6726 -0.0904  0.3021
  893MOL0     C23160   8.349  11.060   8.754 -0.3362  0.4992  0.1588
  893MOL0     C23161   8.352  11.163   8.689 -0.5920  0.3126  0.6808
  893MOL0     C23162   8.768  10.928   9.345  0.5889  0.0665 -0.2235
  893MOL0     C23163   8.874  10.917   9.432 -0.0360 -0.4530  0.9322
  893MOL0     C23164   8.895  11.032   9.521  0.9637  0.6974  0.7395
  893MOL0     H23165   9.126  10.577   9.763  0.1756  1.6724  2.0937
  893MOL0     H23166   9.333  10.506   9.889  1.6443 -2.6267 -1.5192
  893MOL0     H23167   9.689  10.698   9.802  0.5436  0.1286 -1.4296
  893MOL0     H23168   9.767  10.560   9.727  0.7180 -0.0441  0.8126
  893MOL0     H23169   9.743  10.429   9.929  1.8239 -0.5418 -4.3957
  893MOL0     H23170   9.851  10.560   9.929  0.3479 -0.5327  5.2553
  893MOL0     H23171   9.685  10.714  10.049 -2.5681 -0.1467  2.2037
  893MOL0     H23172   9.579  10.574  10.064  1.5019 -0.6429  2.8999
  893MOL0     H23173   9.776  10.467  10.178  1.4684  0.6057 -0.9643
  893MOL0     H23174   9.864  10.614  10.181  0.3751 -1.0392  0.8127
  893MOL0     H23175   9.601  10.550  10.330  1.2845 -2.9180 -1.2083
  893MOL0     H23176   9.656  10.713  10.319  0.2579  0.0603 -0.7777
  893MOL0     H23177   9.720  10.578  10.518 -2.6392 -1.7586 -1.6788
  893MOL0     H23178   9.801  10.464  10.412 -2.2982 -0.5355 -3.2127
  893MOL0     H23179   9.877  10.756  10.455 -6.7317 -1.9277  4.7716
  893MOL0     H23180   9.985  10.635  10.381 -0.8475 -3.7884 -0.1045
  893MOL0     H23181   9.877  10.652  10.661 -0.4849  1.4690  0.6442
  893MOL0     H23182   9.969  10.508  10.593  3.0020  0.4258 -0.6106
  893MOL0     H23183  10.061  10.883  10.646  0.2458 -0.0685  0.6566
  893MOL0     H23184  10.318  11.001  10.664 -0.3023  0.2770  0.0155
  893MOL0     H23185  10.446  10.887  10.618 -0.6160 -0.0196 -1.2217
  893MOL0     H23186  10.310  10.859  10.895  0.0413 -2.3318 -1.1450
  893MOL0     H23187  10.470  10.816  10.845  0.2806  1.8839  0.3847
  893MOL0     H23188  10.382  11.107  10.888  2.6368  1.1675  3.6963
  893MOL0     H23189  10.489  11.020  10.999  1.1220  2.1285  0.9794
  893MOL0     H23190  10.647  10.987  10.784  1.6934  1.9583 -2.7649
  893MOL0     H23191  10.532  11.097  10.712  0.5606  0.3303 -0.2588
  893MOL0     H23192  10.860  11.037  10.827 -0.0340 -2.8557  0.1384
  893MOL0     H23193  11.147  10.960  11.028 -0.2952  1.2576 -0.2761
  893MOL0     H23194  11.099  10.959  10.868  3.5614 -0.7928  1.9199
  893MOL0     H23195  11.030  10.836  10.970  3.0957 -1.7850 -0.0289
  893MOL0     H23196  11.333  10.918  11.100 -0.4920  1.9016 -0.5455
  893MOL0     H23197  11.550  10.808  11.227 -0.0894 -1.4287 -0.4499
  893MOL0     H23198  11.665  10.700  11.479 -3.1892  2.2034  3.2787
  893MOL0     H23199  11.718  10.766  11.321  2.4834  1.5521  1.4437
  893MOL0     H23200  11.815  10.810  11.603  0.0427 -0.7614  0.1745
  893MOL0     H23201  11.896  10.705  11.489  0.2405 -1.3180  0.9338
  893MOL0     H23202  11.885  10.965  11.349 -0.0405 -0.1860 -0.3169
  893MOL0     H23203  12.020  10.886  11.404 -2.8689  0.4064 -5.2252
  893MOL0     H23204  11.984  10.998  11.643 -0.0734  2.0068  1.3751
  893MOL0     H23205  11.837  11.055  11.564 -0.4306 -2.4978 -0.4389
  893MOL0     H23206  11.993  11.231  11.557 -0.9049  1.6158 -1.6981
  893MOL0     H23207  12.114  11.137  11.467 -0.9978 -0.6167 -1.5149
  893MOL0     H23208  11.832  11.196  11.377 -0.6702  0.6869  0.5113
  893MOL0     H23209  11.955  11.136  11.269  1.3500  0.2555 -0.2152
  893MOL0     H23210  12.090  11.325  11.252 -0.6193 -1.1684 -0.1867
  893MOL0     H23211  11.988  11.404  11.376  2.0142 -3.0441  1.9398
  893MOL0     H23212  11.927  11.466  11.151 -0.6713 -0.1807 -0.1153
  893MOL0     H23213  11.787  11.388  11.217  0.9865  1.9766  0.1872
  893MOL0     H23214  11.449  11.023  11.565  2.5344 -0.8163 -0.7285
  893MOL0     H23215  11.243  11.106  11.473  1.3743  0.6342  1.1989
  893MOL0     H23216  10.857  11.243  11.274 -0.6299 -1.3671 -1.0381
  893MOL0     H23217  10.664  11.280  11.111  1.6030 -1.0184  0.5390
  893MOL0     H23218   9.566  10.605   9.534  1.8245  3.3097  2.3283
  893MOL0     H23219   9.371  10.639   9.415 -2.9266  2.1861  0.1845
  893MOL0     H23220   8.990  10.617   9.311  0.9057  0.8910  1.7430
  893MOL0     H23221   8.809  10.630   9.172  2.4808  0.2640 -1.5807
  893MOL0     H23222   8.473  10.896   9.280 -4.6679  3.3047 -0.9824
  893MOL0     H23223   8.542  11.021   9.179  0.6700 -0.1093  1.9455
  893MOL0     H23224   8.322  10.907   9.094  0.1823 -1.0799  0.2119
  893MOL0     H23225   8.412  10.767   9.049  1.1527  0.4633  2.2061
  893MOL0     H23226   8.446  11.056   8.986  0.6364  0.0391  1.2211
  893MOL0     H23227   8.548  10.929   8.903 -0.4120  0.4813 -1.5898
  893MOL0     H23228   8.240  10.947   8.877 -1.1727 -1.9972 -0.9058
  893MOL0     H23229   8.355  10.851   8.789 -3.1734 -1.0551  1.4045
  893MOL0     H23230   8.365  11.254   8.634  3.9983 -0.4550  0.1164
  893MOL0     H23231   8.711  11.020   9.356  0.2821 -0.0582 -0.7650
  893MOL0     H23232   8.997  11.074   9.525  2.4434 -1.9306 -2.9901
  893MOL0     H23233   8.830  11.113   9.487  0.1178 -1.4171 -3.2581
  893MOL0     H23234   8.858  10.998   9.618 -1.7692 -0.1641 -0.5083
  894MOL0     O23235   5.607   7.621   9.011 -0.0507  0.4833 -0.7509
  894MOL0     C23236   5.686   7.578   9.095  0.1006  0.4878 -0.2542
  894MOL0     O23237   5.780   7.483   9.076 -0.7639 -0.2086 -0.1222
  894MOL0     C23238   5.861   7.475   8.967 -0.7565  0.1775 -0.2848
  894MOL0     C23239   5.969   7.392   8.967 -0.5607  0.5846  0.1057
  894MOL0     C23240   6.059   7.392   8.855  0.8235  0.7919  1.3968
  894MOL0     C23241   6.036   7.463   8.747 -0.2872  0.4869  0.4838
  894MOL0     O23242   6.128   7.445   8.647  0.6949 -0.4822  0.7970
  894MOL0     C23243   6.144   7.556   8.561 -0.0801  0.0709 -0.6341
  894MOL0     C23244   6.247   7.507   8.451 -0.0349  0.3358  0.4322
  894MOL0     C23245   6.264   7.619   8.342 -0.4345 -0.5402  1.0609
  894MOL0     C23246   6.305   7.752   8.405 -0.4322  0.8180  0.2739
  894MOL0     C23247   6.378   7.847   8.312 -0.5983  0.0136  0.3370
  894MOL0     C23248   6.345   7.997   8.301 -0.2079  0.3878  0.5038
  894MOL0     C23249   6.419   8.054   8.184  0.3116 -0.7307 -0.7016
  894MOL0     C23250   6.377   8.201   8.147 -0.2255 -0.7870  0.6088
  894MOL0     N23251   6.439   8.232   8.015  1.1360 -1.1028  0.1343
  894MOL0     C23252   6.564   8.295   7.995 -0.4426 -0.6904 -1.4724
  894MOL0     C23253   6.565   8.310   7.860 -0.5999  0.2289  0.2603
  894MOL0     C23254   6.694   8.352   7.786  0.4464 -0.2872  0.7966
  894MOL0     C23255   6.682   8.357   7.625  0.0361  0.3990 -0.8531
  894MOL0     C23256   6.630   8.491   7.569 -0.0613  0.0324 -0.5919
  894MOL0     C23257   6.492   8.546   7.594  1.3039 -0.4788  0.1625
  894MOL0     O23258   6.469   8.667   7.500 -0.1840 -0.5394 -0.0426
  894MOL0     C23259   6.449   8.644   7.366 -0.2358  0.3849  0.4308
  894MOL0     C23260   6.505   8.731   7.274 -0.8533 -0.9624 -0.1229
  894MOL0     C23261   6.473   8.727   7.132  0.1950  0.7729  0.6844
  894MOL0     C23262   6.561   8.826   7.050  0.6694 -0.2210 -0.1826
  894MOL0     C23263   6.368   8.640   7.090 -0.2855  0.5367 -0.4285
  894MOL0     C23264   6.317   8.640   6.953  0.3537  0.0574  0.3737
  894MOL0     O23265   6.288   8.510   6.915 -0.3891 -0.2205  0.6436
  894MOL0     C23266   6.205   8.485   6.805 -0.2292  1.1090 -0.8337
  894MOL0     C23267   6.091   8.552   6.763  0.2359  1.1754 -0.0325
  894MOL0     C23268   6.024   8.514   6.650 -0.4192  0.5297 -0.1590
  894MOL0     C23269   6.068   8.402   6.581  0.6397  0.0514 -0.0986
  894MOL0     O23270   6.002   8.385   6.465  0.2907  0.7227 -0.0138
  894MOL0     C23271   6.070   8.449   6.353 -0.5445 -0.4157 -0.5439
  894MOL0     C23272   5.971   8.475   6.245  0.8170 -0.5192  0.2582
  894MOL0     C23273   5.868   8.584   6.272  0.4332  0.6112 -0.2458
  894MOL0     C23274   5.744   8.502   6.339 -0.5139 -0.6592 -0.3218
  894MOL0     C23275   5.636   8.585   6.418  0.9453  0.2247 -0.0608
  894MOL0     C23276   5.690   8.662   6.537 -0.7893 -0.0424 -0.1181
  894MOL0     C23277   5.578   8.718   6.631 -0.0322 -0.0201 -0.1647
  894MOL0     C23278   5.646   8.832   6.726  0.4335 -0.6466  0.3535
  894MOL0    Cl23279   5.809   8.770   6.792  0.0869 -0.2722 -0.5882
  894MOL0     C23280   6.185   8.332   6.611 -0.2407 -0.7260 -0.5071
  894MOL0     C23281   6.249   8.375   6.729 -0.3744  0.0575  0.2322
  894MOL0     O23282   6.294   8.741   6.894  1.2287  0.5876  0.2788
  894MOL0     C23283   6.307   8.556   7.189 -0.5962 -0.7642 -0.6351
  894MOL0     C23284   6.350   8.564   7.328  0.6295  0.4103 -0.6241
  894MOL0     N23285   6.442   8.270   7.804 -0.3959  0.2582 -0.4430
  894MOL0     N23286   6.365   8.223   7.903 -0.5660 -0.3602 -0.0146
  894MOL0     C23287   5.921   7.546   8.742  0.4697  0.2298  0.2903
  894MOL0     C23288   5.843   7.551   8.849 -0.2384  0.6993  0.4777
  894MOL0     C23289   5.677   7.627   9.237 -0.1040  0.8830  0.2393
  894MOL0     C23290   5.796   7.624   9.312 -0.6971  0.1699 -0.0780
  894MOL0     C23291   5.811   7.678   9.441  0.6734  0.9056  0.1729
  894MOL0     C23292   5.707   7.748   9.503  1.2379  0.7750  0.7362
  894MOL0     O23293   5.728   7.812   9.624 -0.4281 -0.4623  0.1011
  894MOL0     C23294   5.672   7.942   9.664  0.0807  0.2285 -0.0314
  894MOL0     C23295   5.774   8.054   9.682  0.1355  0.8214  0.2987
  894MOL0     C23296   5.885   8.031   9.778  0.2986 -0.2493 -0.1386
  894MOL0     C23297   5.949   8.170   9.794  0.3140 -0.2637 -0.2712
  894MOL0     C23298   6.021   8.213   9.674  0.2821  0.6180  0.1210
  894MOL0     C23299   6.084   8.242   9.571 -0.0390  0.0525 -0.4091
  894MOL0     C23300   5.585   7.749   9.435 -0.1301  0.3688 -0.5827
  894MOL0     C23301   5.574   7.692   9.306  1.1162 -0.0575 -0.0920
  894MOL0     C23302   5.441   7.713   9.234  0.3569 -1.1884  0.7635
  894MOL0     H23303   6.000   7.329   9.050 -0.8797  0.5582  0.2062
  894MOL0     H23304   6.148   7.330   8.849 -0.2964 -0.9097  1.6353
  894MOL0     H23305   6.197   7.638   8.609 -1.0260 -0.2723  1.0750
  894MOL0     H23306   6.051   7.591   8.515  1.3142  1.8198 -2.2983
  894MOL0     H23307   6.341   7.478   8.498  0.6928 -0.5111 -1.4458
  894MOL0     H23308   6.208   7.416   8.404  0.5439  0.8460 -1.0876
  894MOL0     H23309   6.349   7.586   8.282  0.4330  1.5509  1.0840
  894MOL0     H23310   6.171   7.629   8.286 -0.4782  0.1346  1.2493
  894MOL0     H23311   6.214   7.799   8.443 -0.4618  1.9158 -1.0946
  894MOL0     H23312   6.369   7.724   8.489 -1.3058 -0.0815  0.6655
  894MOL0     H23313   6.366   7.798   8.215 -0.3391  0.8687 -0.1370
  894MOL0     H23314   6.487   7.846   8.321  0.0209 -1.4234 -4.3580
  894MOL0     H23315   6.236   8.012   8.295 -0.3147 -0.6990 -0.6788
  894MOL0     H23316   6.369   8.049   8.394 -0.0283  3.9538 -1.3673
  894MOL0     H23317   6.400   7.988   8.099 -1.5669  2.1805 -2.7542
  894MOL0     H23318   6.526   8.047   8.205  0.7388 -3.7249 -3.0805
  894MOL0     H23319   6.268   8.194   8.139 -0.4275  1.3539  1.0499
  894MOL0     H23320   6.397   8.279   8.220 -4.1905  0.0853  0.9397
  894MOL0     H23321   6.633   8.313   8.076  1.7831 -2.3011 -2.8833
  894MOL0     H23322   6.778   8.286   7.808  0.0918 -0.2704  2.3005
  894MOL0     H23323   6.744   8.443   7.819 -2.3452  1.4737  0.5402
  894MOL0     H23324   6.778   8.324   7.586 -0.3404  0.1245 -1.5669
  894MOL0     H23325   6.617   8.271   7.610  0.9537 -0.5315  0.2755
  894MOL0     H23326   6.690   8.578   7.596 -2.5261  1.6410  0.1055
  894MOL0     H23327   6.638   8.474   7.462 -0.6364  0.2621 -0.6762
  894MOL0     H23328   6.418   8.466   7.585 -0.7470  1.1384  1.4994
  894MOL0     H23329   6.495   8.583   7.698 -1.1230 -1.4550  0.6455
  894MOL0     H23330   6.581   8.803   7.304 -1.6841 -0.6425  1.3148
  894MOL0     H23331   6.506   8.857   6.960  2.9750  0.3271 -1.4982
  894MOL0     H23332   6.656   8.777   7.026  0.4060 -1.2693  0.8382
  894MOL0     H23333   6.579   8.917   7.108 -2.9829 -0.3682  1.4238
  894MOL0     H23334   6.054   8.641   6.814 -4.1030 -1.3033  1.6785
  894MOL0     H23335   5.951   8.578   6.602  1.3088  3.2535  0.5886
  894MOL0     H23336   6.118   8.546   6.365 -1.2705 -0.0015 -0.9459
  894MOL0     H23337   6.135   8.368   6.317  1.0821  0.8505 -0.5453
  894MOL0     H23338   6.025   8.508   6.156 -2.7160 -2.0548 -2.6982
  894MOL0     H23339   5.913   8.392   6.204 -3.2867  2.5755 -0.8343
  894MOL0     H23340   5.835   8.647   6.188 -0.5135  0.9277  0.3502
  894MOL0     H23341   5.916   8.646   6.348  1.4357 -1.3795  0.8256
  894MOL0     H23342   5.795   8.441   6.414 -1.8793  0.5280  1.6739
  894MOL0     H23343   5.684   8.441   6.271  3.2928 -3.6118 -1.4086
  894MOL0     H23344   5.581   8.648   6.349 -2.7815  1.6291  3.7505
  894MOL0     H23345   5.573   8.504   6.455 -1.2086  3.1751  3.3989
  894MOL0     H23346   5.746   8.750   6.506  1.4304 -1.0007  0.9100
  894MOL0     H23347   5.748   8.594   6.600 -0.0619  1.0362  0.3999
  894MOL0     H23348   5.534   8.638   6.691 -3.9830  1.8025 -0.3420
  894MOL0     H23349   5.502   8.772   6.575  1.6541  0.6072 -1.9715
  894MOL0     H23350   5.582   8.860   6.810  1.2608 -1.2840  1.2124
  894MOL0     H23351   5.675   8.925   6.676  1.8130 -0.2378  1.8420
  894MOL0     H23352   6.215   8.248   6.549 -1.5041  0.6632 -3.1897
  894MOL0     H23353   6.341   8.327   6.758  1.4767  2.0070 -1.9639
  894MOL0     H23354   6.217   8.501   7.162 -0.8217 -0.1967 -1.0600
  894MOL0     H23355   6.298   8.510   7.407  2.2638  0.9416  0.8572
  894MOL0     H23356   5.886   7.606   8.659 -1.9963 -1.7065 -0.1811
  894MOL0     H23357   5.753   7.607   8.827 -1.6705 -1.4672  0.5053
  894MOL0     H23358   5.883   7.580   9.265  0.4235 -0.8815  2.8144
  894MOL0     H23359   5.908   7.672   9.489 -0.3661  0.3552  2.3261
  894MOL0     H23360   5.612   7.982   9.581  0.0982  0.7438  0.2026
  894MOL0     H23361   5.604   7.927   9.748 -0.8450 -1.8796 -1.0585
  894MOL0     H23362   5.714   8.139   9.717  2.2718  2.5335  0.0135
  894MOL0     H23363   5.812   8.082   9.583 -1.7360 -0.4135 -0.8337
  894MOL0     H23364   5.856   7.996   9.877 -0.5660 -1.2216 -0.7212
  894MOL0     H23365   5.950   7.963   9.722 -1.9733 -0.1209 -3.1435
  894MOL0     H23366   6.016   8.171   9.881 -0.5859 -0.6861  0.4409
  894MOL0     H23367   5.875   8.245   9.822 -0.3465  0.8067 -4.2668
  894MOL0     H23368   6.148   8.278   9.493 -0.4878  2.2995  0.1790
  894MOL0     H23369   5.497   7.786   9.486 -0.4564 -3.8162  2.3943
  894MOL0     H23370   5.390   7.617   9.219 -3.5644  0.8018  0.0339
  894MOL0     H23371   5.372   7.770   9.296 -1.1561 -1.1266 -0.8896
  894MOL0     H23372   5.459   7.754   9.134 -2.3795 -3.8162 -1.0149
  895MOL0     O23373   5.734   8.186   0.837  0.3242 -0.3352  0.6617
  895MOL0     C23374   5.657   8.268   0.883  0.8382 -0.7599 -0.4196
  895MOL0     O23375   5.575   8.345   0.810  0.7286  0.0027  0.5290
  895MOL0     C23376   5.570   8.320   0.676 -0.3894  0.0182  0.8137
  895MOL0     C23377   5.531   8.202   0.624 -0.3270 -0.2298  0.3350
  895MOL0     C23378   5.523   8.181   0.486  0.4498 -0.6786 -0.2178
  895MOL0     C23379   5.531   8.288   0.400 -0.3035 -0.5426  0.2927
  895MOL0     O23380   5.520   8.290   0.264  0.0460  0.6893  0.1207
  895MOL0     C23381   5.447   8.177   0.210  0.4937  0.6951  0.6474
  895MOL0     C23382   5.400   8.213   0.074 -1.2696  0.1879  0.2574
  895MOL0     C23383   5.285   8.119   0.022 -0.6427 -0.0477  0.1137
  895MOL0     C23384   5.352   8.003  -0.047  0.0874  1.1429 -0.5743
  895MOL0     C23385   5.252   7.966  -0.153  0.3404  0.7637 -0.2437
  895MOL0     C23386   5.293   7.846  -0.242 -1.1386  0.2065 -0.9204
  895MOL0     C23387   5.344   7.716  -0.167  1.2575 -0.0603  0.1923
  895MOL0     C23388   5.368   7.614  -0.281  0.2371  0.0660  0.0463
  895MOL0     N23389   5.342   7.473  -0.236 -0.1086  1.1091  0.1699
  895MOL0     C23390   5.308   7.414  -0.117  0.5606  0.9502  0.0595
  895MOL0     C23391   5.337   7.279  -0.137  0.3746 -1.5560 -0.5113
  895MOL0     C23392   5.334   7.163  -0.038  0.4321 -0.6053  0.8625
  895MOL0     C23393   5.439   7.175   0.074  0.1279 -0.2919  0.3160
  895MOL0     C23394   5.590   7.169   0.030 -0.3638  0.9080 -0.3403
  895MOL0     C23395   5.635   7.293  -0.041 -0.7147 -0.0544  0.3519
  895MOL0     O23396   5.583   7.413   0.020  0.7991 -0.2846  0.6292
  895MOL0     C23397   5.639   7.531  -0.016 -0.3577 -0.3930 -0.8290
  895MOL0     C23398   5.633   7.637   0.074  0.0511  0.6022  0.1725
  895MOL0     C23399   5.691   7.758   0.047  0.8211  0.3100  0.4541
  895MOL0     C23400   5.667   7.873   0.134 -0.2686 -0.8147 -0.3575
  895MOL0     C23401   5.758   7.774  -0.083  0.0121  0.6401 -0.8612
  895MOL0     C23402   5.845   7.893  -0.116  0.4374 -0.1066 -1.1788
  895MOL0     O23403   5.957   7.866  -0.196 -0.0076 -0.0930 -0.4487
  895MOL0     C23404   6.029   7.979  -0.228 -0.9800 -0.2554  0.1375
  895MOL0     C23405   6.011   8.022  -0.356 -0.9123 -0.6313 -0.5055
  895MOL0     C23406   6.092   8.126  -0.404  0.3476 -0.4385 -0.3603
  895MOL0     C23407   6.188   8.186  -0.331 -0.1940 -0.1904 -0.1413
  895MOL0     O23408   6.269   8.278  -0.394  0.1964  0.2845 -0.4892
  895MOL0     C23409   6.404   8.215  -0.413  1.0462  0.2031 -0.3160
  895MOL0     C23410   6.486   8.309  -0.502 -0.1440 -0.6190 -0.0592
  895MOL0     C23411   6.433   8.334  -0.636  0.2509 -0.0018 -0.0885
  895MOL0     C23412   6.357   8.220  -0.709 -1.4192 -0.5452 -0.7317
  895MOL0     C23413   6.303   8.277  -0.845 -0.8771  0.0956  0.6554
  895MOL0     C23414   6.261   8.149  -0.922  0.4356  0.0922 -0.2688
  895MOL0     C23415   6.211   8.156  -1.065 -0.0990  0.3726 -0.3186
  895MOL0     C23416   6.202   8.017  -1.129 -0.0793 -0.6438  0.1293
  895MOL0    Cl23417   6.068   7.942  -1.055  0.0482  0.0236 -0.3696
  895MOL0     C23418   6.205   8.139  -0.204  0.0618  0.3845  0.1208
  895MOL0     C23419   6.126   8.042  -0.143 -1.1413 -0.2517  0.1390
  895MOL0     O23420   5.803   7.998  -0.065 -0.1659  0.2803  0.7197
  895MOL0     C23421   5.755   7.670  -0.172  0.0638 -0.1987  0.6972
  895MOL0     C23422   5.691   7.555  -0.144  0.2787  0.3819  0.3299
  895MOL0     N23423   5.364   7.261  -0.271 -0.7354 -0.2226  0.0869
  895MOL0     N23424   5.375   7.382  -0.326  0.4026  0.0601 -0.1142
  895MOL0     C23425   5.563   8.411   0.453 -0.8607 -0.8227  0.6256
  895MOL0     C23426   5.598   8.426   0.590 -0.3080 -0.1331  0.0096
  895MOL0     C23427   5.651   8.283   1.035 -0.6214 -0.2147  0.0086
  895MOL0     C23428   5.607   8.177   1.115 -0.0252  0.1812 -0.7507
  895MOL0     C23429   5.602   8.179   1.259  0.7816 -0.3876  0.5198
  895MOL0     C23430   5.647   8.286   1.323  0.5091  0.5594 -0.7713
  895MOL0     O23431   5.639   8.292   1.464  0.2175  0.9042 -0.6809
  895MOL0     C23432   5.678   8.416   1.525  0.4821  0.4451 -0.3150
  895MOL0     C23433   5.686   8.393   1.677 -0.3376 -0.5399  0.7301
  895MOL0     C23434   5.538   8.398   1.748 -0.1954 -0.2250 -0.9124
  895MOL0     C23435   5.524   8.437   1.892  0.1869  0.7122  0.0740
  895MOL0     C23436   5.552   8.577   1.918  0.5058 -0.2725  0.4759
  895MOL0     C23437   5.585   8.698   1.922  1.2513  0.2493 -0.3495
  895MOL0     C23438   5.707   8.386   1.246 -0.0496  0.7542  0.1471
  895MOL0     C23439   5.711   8.381   1.109  0.0476  0.2291  0.2720
  895MOL0     C23440   5.796   8.488   1.045  0.1114 -0.1764 -0.1968
  895MOL0     H23441   5.496   8.137   0.704 -0.1424  0.3634  0.8996
  895MOL0     H23442   5.480   8.087   0.453  0.0792 -0.2818 -0.9001
  895MOL0     H23443   5.361   8.148   0.271  0.3666 -1.1223 -0.3265
  895MOL0     H23444   5.515   8.093   0.223 -1.1876 -0.7008  0.7214
  895MOL0     H23445   5.360   8.315   0.081 -1.1557  0.3308 -0.9064
  895MOL0     H23446   5.485   8.218   0.006 -2.2258 -3.8519 -1.5409
  895MOL0     H23447   5.219   8.087   0.103  1.0417 -1.8912  0.8200
  895MOL0     H23448   5.235   8.182  -0.053 -0.0614 -1.6503 -1.6813
  895MOL0     H23449   5.447   8.032  -0.092  1.1371 -0.4382  0.5102
  895MOL0     H23450   5.377   7.922   0.022  3.8169  0.9962 -1.8971
  895MOL0     H23451   5.249   8.055  -0.216  4.0668  0.4376 -1.0635
  895MOL0     H23452   5.159   7.937  -0.103  0.8909 -1.8373 -0.5805
  895MOL0     H23453   5.201   7.816  -0.293 -0.8150 -0.0568 -1.3595
  895MOL0     H23454   5.371   7.880  -0.310  1.0377 -2.1241  0.2111
  895MOL0     H23455   5.264   7.668  -0.110  3.2319 -0.4918  2.7772
  895MOL0     H23456   5.434   7.730  -0.106  2.7872  0.0352 -1.9411
  895MOL0     H23457   5.304   7.634  -0.368  0.0390  0.6852  0.3271
  895MOL0     H23458   5.472   7.617  -0.315 -0.3675 -1.5436 -2.1657
  895MOL0     H23459   5.289   7.462  -0.021 -2.5153 -2.0982  1.1686
  895MOL0     H23460   5.357   7.074  -0.097  2.3727 -0.4280  1.2647
  895MOL0     H23461   5.231   7.165  -0.001 -0.6522  0.0215 -1.9387
  895MOL0     H23462   5.426   7.272   0.122 -0.2032  0.4807 -1.2588
  895MOL0     H23463   5.429   7.101   0.154  1.2734  0.0717  0.8105
  895MOL0     H23464   5.638   7.143   0.125 -1.7317 -4.5002 -0.7723
  895MOL0     H23465   5.608   7.082  -0.035 -0.4704  0.9444 -0.4189
  895MOL0     H23466   5.741   7.287  -0.017 -0.6225  0.2675  0.0274
  895MOL0     H23467   5.631   7.292  -0.150  0.0324 -1.9248  0.3097
  895MOL0     H23468   5.568   7.620   0.160  1.3454  1.2054  1.3008
  895MOL0     H23469   5.584   7.859   0.204 -1.9286  0.8336 -1.8647
  895MOL0     H23470   5.620   7.956   0.080 -2.3198 -1.0803  0.8905
  895MOL0     H23471   5.754   7.915   0.184  0.1736  0.3900 -2.0311
  895MOL0     H23472   5.931   7.978  -0.416 -1.1988  0.6188 -1.0806
  895MOL0     H23473   6.078   8.166  -0.504 -0.9090 -6.3714 -3.0014
  895MOL0     H23474   6.458   8.197  -0.319 -0.5986 -1.0882  0.4269
  895MOL0     H23475   6.403   8.116  -0.460 -0.0516  0.8385 -1.6757
  895MOL0     H23476   6.496   8.394  -0.433 -1.5696  0.2297 -0.8587
  895MOL0     H23477   6.585   8.264  -0.516 -0.7009 -0.9578 -4.0129
  895MOL0     H23478   6.513   8.381  -0.695  0.3866  1.1038  0.9340
  895MOL0     H23479   6.363   8.417  -0.623 -1.2259 -1.4580  1.5614
  895MOL0     H23480   6.270   8.199  -0.647 -1.2094 -2.4855 -1.0575
  895MOL0     H23481   6.423   8.133  -0.718  1.8027  1.7764 -1.7596
  895MOL0     H23482   6.219   8.345  -0.821 -1.1248 -0.8400  2.6945
  895MOL0     H23483   6.388   8.322  -0.896 -0.7273 -0.9572 -0.0498
  895MOL0     H23484   6.176   8.100  -0.874  0.3930 -0.1318 -0.5636
  895MOL0     H23485   6.341   8.075  -0.909 -1.1942 -1.6344  0.5290
  895MOL0     H23486   6.291   8.199  -1.126  0.1631 -1.8285 -1.6269
  895MOL0     H23487   6.113   8.202  -1.077 -1.0058 -1.5764 -0.7642
  895MOL0     H23488   6.292   7.956  -1.118 -1.0078 -2.3530 -1.0638
  895MOL0     H23489   6.176   8.031  -1.235 -1.6259  0.0264  0.5579
  895MOL0     H23490   6.273   8.188  -0.134  0.4523 -0.3932  0.2870
  895MOL0     H23491   6.126   8.013  -0.039 -1.5819  2.5963  1.0070
  895MOL0     H23492   5.801   7.680  -0.270  3.3111  1.3869  2.2288
  895MOL0     H23493   5.678   7.474  -0.214 -0.7572 -0.7031  1.7140
  895MOL0     H23494   5.569   8.499   0.389  4.0508 -0.1317  1.6625
  895MOL0     H23495   5.631   8.525   0.622 -2.5409  1.3734 -1.9635
  895MOL0     H23496   5.562   8.086   1.077 -1.6149  0.5184  0.2437
  895MOL0     H23497   5.559   8.092   1.307 -0.8553 -0.5380 -1.0726
  895MOL0     H23498   5.779   8.433   1.487  1.2088  1.8624  2.0805
  895MOL0     H23499   5.605   8.494   1.500 -1.1085 -1.8161 -3.4318
  895MOL0     H23500   5.744   8.470   1.730  0.9461 -0.1391 -1.1672
  895MOL0     H23501   5.723   8.291   1.690  1.9604  0.0604 -0.5773
  895MOL0     H23502   5.474   8.467   1.691 -0.0247  3.8855  3.2331
  895MOL0     H23503   5.495   8.297   1.749  2.2481 -1.3261  0.1557
  895MOL0     H23504   5.594   8.383   1.956 -0.2234  1.5484  1.2733
  895MOL0     H23505   5.423   8.417   1.929 -0.7525 -0.4957 -2.8668
  895MOL0     H23506   5.606   8.802   1.930 -1.9141  1.2022 -2.5527
  895MOL0     H23507   5.763   8.471   1.286  1.0212 -0.5705  1.5882
  895MOL0     H23508   5.738   8.580   1.034  3.8387  2.4900  0.5653
  895MOL0     H23509   5.876   8.528   1.108  1.1934  1.7766 -2.6512
  895MOL0     H23510   5.844   8.467   0.950  4.0586  1.0518  1.3332
  896MOL0     O23511   7.722   1.372   8.404 -0.7031  0.2940  0.6805
  896MOL0     C23512   7.738   1.261   8.345  0.1974 -0.0334 -0.0029
  896MOL0     O23513   7.641   1.164   8.331 -0.0131  0.9555  0.7452
  896MOL0     C23514   7.526   1.175   8.406 -0.7539  1.3291 -0.5066
  896MOL0     C23515   7.417   1.248   8.357 -0.1381 -0.4254 -0.1155
  896MOL0     C23516   7.299   1.266   8.432 -0.2873  0.3230 -0.6280
  896MOL0     C23517   7.303   1.215   8.568  0.3001  0.2074 -0.0192
  896MOL0     O23518   7.192   1.236   8.639 -0.2813 -0.1029  0.2029
  896MOL0     C23519   7.205   1.314   8.764 -0.1534  0.7056 -0.7534
  896MOL0     C23520   7.230   1.211   8.886  0.5241  0.2137 -0.8477
  896MOL0     C23521   7.141   1.081   8.862 -0.4985 -0.2463 -0.1942
  896MOL0     C23522   7.150   0.983   8.985  0.0806  0.1856  0.2458
  896MOL0     C23523   7.121   0.836   8.948 -0.1336  0.6382 -0.1942
  896MOL0     C23524   7.213   0.777   8.838 -0.2746 -0.1220  0.3622
  896MOL0     C23525   7.361   0.787   8.869 -0.2179  0.3526  0.4015
  896MOL0     C23526   7.465   0.708   8.788  0.1749  0.8232 -0.1333
  896MOL0     N23527   7.487   0.573   8.843  0.3085 -1.1790  0.9066
  896MOL0     C23528   7.410   0.465   8.806  0.4247  0.3416 -0.1243
  896MOL0     C23529   7.438   0.368   8.888 -0.4347 -0.6113 -0.3508
  896MOL0     C23530   7.358   0.240   8.894  0.2226  0.0691  0.5707
  896MOL0     C23531   7.463   0.131   8.897  0.5824  0.9163 -0.9819
  896MOL0     C23532   7.504   0.102   8.750 -0.4246 -0.5105  0.0507
  896MOL0     C23533   7.615  -0.005   8.751 -0.3494 -0.0741  0.6082
  896MOL0     O23534   7.677  -0.026   8.625 -1.0523 -0.4772  0.1248
  896MOL0     C23535   7.619  -0.092   8.518 -0.0835  0.1338  0.5183
  896MOL0     C23536   7.689  -0.074   8.394 -0.6941 -0.4945 -0.5319
  896MOL0     C23537   7.644  -0.132   8.278 -0.0089 -0.3446  0.2989
  896MOL0     C23538   7.737  -0.106   8.162  0.3656  0.1751  0.1795
  896MOL0     C23539   7.527  -0.206   8.274 -0.6256  0.5505 -0.3097
  896MOL0     C23540   7.459  -0.257   8.152  0.1942 -0.0191  0.1934
  896MOL0     O23541   7.488  -0.208   8.028 -1.1126  0.1938  0.2495
  896MOL0     C23542   7.430  -0.259   7.918 -0.0172 -0.4491 -0.2761
  896MOL0     C23543   7.295  -0.310   7.908 -0.6337  0.6634 -0.0932
  896MOL0     C23544   7.253  -0.367   7.789  0.6268  0.5022 -0.8116
  896MOL0     C23545   7.329  -0.376   7.681  0.2262 -0.6488  0.2041
  896MOL0     O23546   7.276  -0.430   7.568  1.0877  0.0511 -0.4994
  896MOL0     C23547   7.363  -0.471   7.465  0.7704 -0.3292 -0.0722
  896MOL0     C23548   7.274  -0.532   7.352 -0.0800  0.4576  0.4786
  896MOL0     C23549   7.355  -0.580   7.224  0.2211 -0.0037 -0.8063
  896MOL0     C23550   7.249  -0.651   7.135  0.1971  0.1753  0.0240
  896MOL0     C23551   7.317  -0.741   7.035 -0.3088  0.3604  0.9914
  896MOL0     C23552   7.248  -0.878   7.026  0.1284 -1.2483  0.2720
  896MOL0     C23553   7.329  -1.001   6.973  0.5638 -0.2467  0.2570
  896MOL0     C23554   7.454  -1.041   7.051 -0.3057  0.5674 -0.6611
  896MOL0    Cl23555   7.598  -0.965   6.980  0.2081 -0.1316  0.0210
  896MOL0     C23556   7.454  -0.315   7.690 -0.2417  0.1670  0.3679
  896MOL0     C23557   7.499  -0.254   7.804 -0.6779 -0.6278  0.8645
  896MOL0     O23558   7.382  -0.347   8.173 -0.3778 -0.2558  0.1822
  896MOL0     C23559   7.468  -0.229   8.399  0.3033 -0.5545  0.4593
  896MOL0     C23560   7.504  -0.176   8.518 -0.2964  0.9251  1.1309
  896MOL0     N23561   7.558   0.400   8.955  0.9725 -0.5273 -0.0205
  896MOL0     N23562   7.573   0.533   8.939  0.6273  0.0498  0.0425
  896MOL0     C23563   7.414   1.145   8.622 -0.9702 -0.5951  0.6843
  896MOL0     C23564   7.525   1.120   8.537  0.1666  0.1587  0.3321
  896MOL0     C23565   7.871   1.233   8.280  0.5877  0.5603  0.5363
  896MOL0     C23566   7.893   1.093   8.251 -0.4724  0.2830 -0.2431
  896MOL0     C23567   8.007   1.053   8.178  0.8751 -0.4948 -0.5898
  896MOL0     C23568   8.095   1.147   8.128  0.5848 -0.7305  0.3740
  896MOL0     O23569   8.201   1.100   8.051 -0.7498  0.5853 -0.0093
  896MOL0     C23570   8.323   1.180   8.019  0.4180  0.0130 -0.2531
  896MOL0     C23571   8.417   1.084   7.954  0.0656 -0.1955  0.4317
  896MOL0     C23572   8.480   1.006   8.053 -0.8034  0.0244  0.0287
  896MOL0     C23573   8.405   0.902   8.138 -0.1037  1.0762 -0.4063
  896MOL0     C23574   8.486   0.815   8.228 -0.8341  0.0145  0.2963
  896MOL0     C23575   8.543   0.728   8.296 -0.1501  0.0930 -0.4643
  896MOL0     C23576   8.069   1.280   8.159 -0.4229 -0.9510 -0.1446
  896MOL0     C23577   7.959   1.331   8.226 -0.1448 -0.9511 -0.0770
  896MOL0     C23578   7.942   1.484   8.247 -0.4214 -0.4488 -0.4585
  896MOL0     H23579   7.412   1.283   8.255  1.0846  2.1599  0.6476
  896MOL0     H23580   7.230   1.335   8.385  1.6385  1.3102 -2.1319
  896MOL0     H23581   7.118   1.377   8.784 -0.2199  0.9602 -1.7966
  896MOL0     H23582   7.293   1.378   8.756  0.9495 -0.7397 -0.5337
  896MOL0     H23583   7.336   1.182   8.886  0.0284 -1.8482  0.8344
  896MOL0     H23584   7.194   1.258   8.978 -2.5019 -1.6066 -0.9679
  896MOL0     H23585   7.036   1.104   8.840 -0.4471  0.4295  0.2541
  896MOL0     H23586   7.189   1.049   8.769 -2.2928  0.1039 -1.2947
  896MOL0     H23587   7.247   0.982   9.033 -1.1062 -1.3823  2.8108
  896MOL0     H23588   7.076   1.019   9.057  1.1016 -0.4956  1.6773
  896MOL0     H23589   7.016   0.832   8.920  0.5925  0.6405 -3.2371
  896MOL0     H23590   7.140   0.772   9.035  0.1739  0.5613 -0.3156
  896MOL0     H23591   7.190   0.673   8.814 -2.6138  0.3557  0.2693
  896MOL0     H23592   7.209   0.828   8.742 -1.7335  0.1669  0.5528
  896MOL0     H23593   7.392   0.779   8.974 -0.6366 -0.1432  0.4903
  896MOL0     H23594   7.377   0.892   8.842  0.9390  0.5470  1.7596
  896MOL0     H23595   7.432   0.691   8.685  1.5067 -4.7388  0.0326
  896MOL0     H23596   7.562   0.758   8.793  1.6856 -2.0056  1.7171
  896MOL0     H23597   7.330   0.471   8.733 -1.4879  1.3446  1.9026
  896MOL0     H23598   7.288   0.238   8.810  0.4557  0.1884  0.3714
  896MOL0     H23599   7.297   0.237   8.985  1.3076 -1.8490  1.2956
  896MOL0     H23600   7.547   0.150   8.964 -0.5987 -4.3361  2.5844
  896MOL0     H23601   7.422   0.036   8.932  2.3728  0.1780 -0.8157
  896MOL0     H23602   7.418   0.061   8.697 -0.1216  0.2219 -1.0212
  896MOL0     H23603   7.540   0.189   8.696 -1.0731  0.9537  1.8688
  896MOL0     H23604   7.688   0.029   8.825 -0.2566  1.7982 -0.2869
  896MOL0     H23605   7.575  -0.103   8.777  0.1116 -0.5786 -0.5467
  896MOL0     H23606   7.779  -0.014   8.403 -0.4696 -1.0892  2.6175
  896MOL0     H23607   7.840  -0.126   8.193  1.3733  0.7449 -2.5018
  896MOL0     H23608   7.751  -0.002   8.130  0.3634 -0.2293 -1.1964
  896MOL0     H23609   7.727  -0.179   8.081 -0.6224  1.6654 -1.1055
  896MOL0     H23610   7.228  -0.295   7.992 -2.8292  0.6069 -1.7303
  896MOL0     H23611   7.150  -0.399   7.803  0.3124  2.3501  1.6977
  896MOL0     H23612   7.418  -0.391   7.415 -0.0258  0.0371 -0.3680
  896MOL0     H23613   7.423  -0.556   7.501  0.8388 -0.0585  0.4686
  896MOL0     H23614   7.214  -0.619   7.379 -0.2505  1.0163  2.0157
  896MOL0     H23615   7.209  -0.452   7.316 -1.5286 -0.1051  1.7261
  896MOL0     H23616   7.424  -0.660   7.253  0.0376  0.9181  2.5366
  896MOL0     H23617   7.412  -0.500   7.176 -1.0484  1.1488 -0.4381
  896MOL0     H23618   7.185  -0.573   7.093  0.7399  1.6977  1.8574
  896MOL0     H23619   7.175  -0.707   7.193  1.6519 -0.7877  1.0255
  896MOL0     H23620   7.323  -0.691   6.938  2.7437  1.7274  1.7477
  896MOL0     H23621   7.421  -0.751   7.069  0.9081  1.3364 -2.0880
  896MOL0     H23622   7.161  -0.862   6.961  1.6273  0.0030 -1.5241
  896MOL0     H23623   7.210  -0.908   7.124 -2.7312  1.6932  0.2449
  896MOL0     H23624   7.368  -0.976   6.874 -0.7614 -0.1788 -0.2715
  896MOL0     H23625   7.258  -1.084   6.972  0.7770 -0.4221 -0.6509
  896MOL0     H23626   7.468  -1.149   7.067 -0.0107  0.9702  2.4534
  896MOL0     H23627   7.452  -1.005   7.154  0.3798 -1.0580 -0.0410
  896MOL0     H23628   7.515  -0.320   7.601 -0.3266  0.5901  0.2812
  896MOL0     H23629   7.596  -0.204   7.804  0.3843 -2.4694  3.3187
  896MOL0     H23630   7.368  -0.270   8.400  0.2555 -0.5807 -1.4006
  896MOL0     H23631   7.446  -0.195   8.608 -1.6241 -1.8690 -0.1861
  896MOL0     H23632   7.403   1.120   8.727 -2.7607  1.5097  1.0838
  896MOL0     H23633   7.605   1.058   8.577 -0.7737 -0.5536  1.1501
  896MOL0     H23634   7.825   1.020   8.294 -0.7186  1.2245  1.0207
  896MOL0     H23635   8.033   0.950   8.156  0.9807 -0.4024 -0.9002
  896MOL0     H23636   8.285   1.261   7.956  0.0922  0.3722  0.3955
  896MOL0     H23637   8.367   1.238   8.101  1.3565  2.3289 -2.2773
  896MOL0     H23638   8.485   1.152   7.901 -0.0356  0.6718  1.3994
  896MOL0     H23639   8.380   1.017   7.875 -0.3432 -0.9518  1.2473
  896MOL0     H23640   8.543   0.954   7.981  1.1134  0.9006  0.9921
  896MOL0     H23641   8.539   1.066   8.123 -0.2749  0.9519 -1.1943
  896MOL0     H23642   8.339   0.842   8.075 -0.6631 -0.7939  1.8253
  896MOL0     H23643   8.347   0.952   8.216  0.7146 -1.5954  2.0892
  896MOL0     H23644   8.597   0.656   8.354  0.3373  0.7309 -0.1059
  896MOL0     H23645   8.136   1.354   8.115  1.3528 -0.8481  2.4707
  896MOL0     H23646   7.843   1.517   8.216 -0.6844 -1.5354 -0.8120
  896MOL0     H23647   7.969   1.515   8.348 -1.3689 -0.7160 -0.1146
  896MOL0     H23648   8.008   1.529   8.172  3.0643 -1.3880  1.7644
  897MOL0     O23649   0.177   4.667   7.180 -0.4272 -0.0285 -0.7191
  897MOL0     C23650   0.297   4.656   7.217  0.0637  0.1374  0.0070
  897MOL0     O23651   0.346   4.710   7.321  0.8019 -0.1133 -0.6660
  897MOL0     C23652   0.255   4.794   7.395 -0.2561 -0.3977 -0.6304
  897MOL0     C23653   0.239   4.923   7.348  0.6803  0.0258  1.3619
  897MOL0     C23654   0.145   5.005   7.405  0.6835 -0.3261  0.2474
  897MOL0     C23655   0.080   4.962   7.522  1.0157  0.1516 -0.2269
  897MOL0     O23656  -0.007   5.048   7.583  0.1880  0.8033  0.4506
  897MOL0     C23657  -0.146   5.011   7.596  1.1458  0.5989 -0.0826
  897MOL0     C23658  -0.185   4.981   7.745 -0.9650  0.5904 -0.0339
  897MOL0     C23659  -0.322   4.909   7.748  0.0464  0.1748  0.1646
  897MOL0     C23660  -0.363   4.877   7.896  0.7478 -0.7895  0.2989
  897MOL0     C23661  -0.506   4.833   7.924  0.0419  0.0779 -0.4225
  897MOL0     C23662  -0.536   4.781   8.067  0.4026 -0.1644  0.6361
  897MOL0     C23663  -0.487   4.874   8.188 -0.4022  0.2172  0.7875
  897MOL0     C23664  -0.488   4.798   8.320  0.7572 -0.6263  0.3466
  897MOL0     N23665  -0.392   4.686   8.324 -0.4408  0.1243  0.1202
  897MOL0     C23666  -0.278   4.684   8.251 -0.6504 -0.6411  0.1852
  897MOL0     C23667  -0.222   4.565   8.277 -0.1665  1.4228 -0.6881
  897MOL0     C23668  -0.077   4.521   8.252  0.3302  0.3128 -0.2180
  897MOL0     C23669  -0.030   4.454   8.119  0.9641  0.3021 -0.0607
  897MOL0     C23670  -0.039   4.556   7.998  0.6919 -0.2358 -0.6201
  897MOL0     C23671   0.074   4.520   7.900  0.3631 -0.5015 -0.8544
  897MOL0     O23672   0.055   4.398   7.826 -0.3519 -0.6480  0.5372
  897MOL0     C23673   0.147   4.359   7.720 -1.0237  0.2700 -1.0454
  897MOL0     C23674   0.281   4.402   7.714  0.8218 -0.3951  0.1964
  897MOL0     C23675   0.374   4.369   7.617 -0.9839  0.0196 -0.4219
  897MOL0     C23676   0.494   4.463   7.607  0.2399 -0.0774 -0.1545
  897MOL0     C23677   0.331   4.274   7.523  0.1380  0.4652  0.4444
  897MOL0     C23678   0.422   4.225   7.412  0.5758  0.3262  0.0834
  897MOL0     O23679   0.551   4.262   7.407 -1.0063 -0.7988 -0.2675
  897MOL0     C23680   0.642   4.201   7.324  1.1936 -1.2005  0.5755
  897MOL0     C23681   0.696   4.297   7.240  0.3937 -1.1946  0.8633
  897MOL0     C23682   0.780   4.261   7.140 -0.3704  0.2064 -0.5822
  897MOL0     C23683   0.809   4.126   7.117 -0.3916  0.5314 -0.3067
  897MOL0     O23684   0.894   4.090   7.021  1.0896 -0.0950  0.6913
  897MOL0     C23685   0.992   4.172   6.959  0.2060  0.1831 -0.1031
  897MOL0     C23686   1.124   4.152   7.040 -1.1963  0.2963 -0.7317
  897MOL0     C23687   1.129   4.210   7.183  0.2671  0.1879 -0.1261
  897MOL0     C23688   1.273   4.222   7.232 -0.0447 -0.1991  0.0531
  897MOL0     C23689   1.285   4.221   7.381 -0.1864  0.5546  0.0897
  897MOL0     C23690   1.418   4.215   7.447 -0.9354  0.7010 -0.6951
  897MOL0     C23691   1.403   4.193   7.598 -0.3792 -0.7192 -0.0274
  897MOL0     C23692   1.346   4.310   7.683 -0.1695  0.4548  0.9820
  897MOL0    Cl23693   1.410   4.458   7.627  0.2922  0.2396 -0.0609
  897MOL0     C23694   0.745   4.030   7.194 -0.0522  0.7414  0.4206
  897MOL0     C23695   0.665   4.064   7.305  0.5138  0.2766  0.0295
  897MOL0     O23696   0.382   4.133   7.348 -0.2169 -0.4520  0.2169
  897MOL0     C23697   0.199   4.226   7.527 -0.1589 -0.4553 -0.5430
  897MOL0     C23698   0.103   4.280   7.619 -0.1642  0.1644 -0.0138
  897MOL0     N23699  -0.312   4.492   8.354 -0.2085  0.3518  0.0933
  897MOL0     N23700  -0.405   4.568   8.389 -1.2772  0.3830  0.0760
  897MOL0     C23701   0.102   4.829   7.568  0.8572  0.8243 -0.2957
  897MOL0     C23702   0.190   4.746   7.510 -0.0020  0.2254  0.3023
  897MOL0     C23703   0.393   4.599   7.132  0.5161  0.1515 -0.1614
  897MOL0     C23704   0.512   4.674   7.119 -0.0668  0.1821  0.4103
  897MOL0     C23705   0.610   4.638   7.030  0.7036  0.3423  0.4620
  897MOL0     C23706   0.588   4.525   6.949  0.4578  0.8343 -0.2538
  897MOL0     O23707   0.674   4.511   6.846 -0.9122 -0.4015  0.4915
  897MOL0     C23708   0.669   4.401   6.757 -0.1022 -0.0925 -0.3838
  897MOL0     C23709   0.745   4.418   6.639 -0.3771  0.0257  1.0698
  897MOL0     C23710   0.666   4.501   6.537 -0.4928  0.3309  0.2256
  897MOL0     C23711   0.733   4.481   6.401 -0.0888 -0.8739 -0.2616
  897MOL0     C23712   0.710   4.605   6.324 -0.5819 -0.3895 -0.9365
  897MOL0     C23713   0.698   4.717   6.273  0.1988 -0.3440  0.2237
  897MOL0     C23714   0.476   4.437   6.966  0.4819 -0.1030  0.6712
  897MOL0     C23715   0.382   4.480   7.057  0.7583  0.5753 -0.3452
  897MOL0     C23716   0.255   4.396   7.082 -0.0128 -0.2740  0.0820
  897MOL0     H23717   0.287   4.950   7.255  0.3240  1.4432  1.5765
  897MOL0     H23718   0.106   5.094   7.355 -3.8359 -2.1181  0.1124
  897MOL0     H23719  -0.180   4.932   7.529  0.2815  1.5008 -0.7350
  897MOL0     H23720  -0.196   5.106   7.580  0.4649  0.0413 -1.4156
  897MOL0     H23721  -0.109   4.923   7.798 -0.0545  2.6881  1.0724
  897MOL0     H23722  -0.189   5.077   7.797 -1.5549  0.9511 -0.7095
  897MOL0     H23723  -0.396   4.970   7.695  1.4824  0.2516 -1.8593
  897MOL0     H23724  -0.312   4.814   7.695 -1.5286 -0.4424  0.9012
  897MOL0     H23725  -0.295   4.795   7.920  1.6976  0.0684  0.6296
  897MOL0     H23726  -0.338   4.958   7.964 -0.7563 -0.8444  0.9518
  897MOL0     H23727  -0.535   4.765   7.843  0.2128 -1.0388  0.4219
  897MOL0     H23728  -0.579   4.914   7.918 -0.8579 -0.7879 -1.4645
  897MOL0     H23729  -0.643   4.756   8.063  1.2997 -4.8034 -2.0213
  897MOL0     H23730  -0.492   4.682   8.083 -2.1455 -1.7250 -1.1342
  897MOL0     H23731  -0.553   4.960   8.197 -1.0954 -0.0742 -0.9920
  897MOL0     H23732  -0.387   4.915   8.168  0.4647 -2.1323 -0.1099
  897MOL0     H23733  -0.436   4.867   8.388 -1.1536  0.9442  0.3073
  897MOL0     H23734  -0.587   4.774   8.360  1.6398 -1.8039  1.9605
  897MOL0     H23735  -0.233   4.762   8.190 -1.2368 -0.6312 -0.2406
  897MOL0     H23736  -0.041   4.450   8.327  4.8427 -1.1481 -3.3221
  897MOL0     H23737  -0.024   4.616   8.263  0.5281  0.2588 -0.6795
  897MOL0     H23738   0.071   4.417   8.135  0.5779  0.2006  2.8319
  897MOL0     H23739  -0.092   4.366   8.102 -2.4884  2.2721  1.2626
  897MOL0     H23740  -0.140   4.559   7.955  0.5364 -0.0874 -0.2574
  897MOL0     H23741  -0.015   4.660   8.025  4.0569 -0.8054 -0.9872
  897MOL0     H23742   0.076   4.608   7.835  0.4642 -0.2398 -0.4979
  897MOL0     H23743   0.173   4.518   7.948  0.2396 -1.8250 -0.6285
  897MOL0     H23744   0.324   4.469   7.787  2.1060 -2.3023  1.2531
  897MOL0     H23745   0.572   4.423   7.673  0.0414 -3.0465 -1.5095
  897MOL0     H23746   0.481   4.567   7.637  3.7222  0.1329  1.1654
  897MOL0     H23747   0.538   4.476   7.507  2.5034  0.3691  0.8396
  897MOL0     H23748   0.692   4.403   7.265 -1.8766 -0.9529 -0.2852
  897MOL0     H23749   0.830   4.328   7.070 -1.1849  0.4595 -0.9321
  897MOL0     H23750   1.010   4.133   6.858  0.7686  0.9617 -0.3120
  897MOL0     H23751   0.972   4.279   6.950  3.3976  1.1222  2.1650
  897MOL0     H23752   1.140   4.044   7.044 -1.3440  0.2867  2.6059
  897MOL0     H23753   1.213   4.197   6.994 -1.7592  2.9810  0.5722
  897MOL0     H23754   1.071   4.146   7.250  0.7289  2.1257  2.2423
  897MOL0     H23755   1.084   4.309   7.189 -1.8985 -0.7690  0.4103
  897MOL0     H23756   1.316   4.314   7.192  0.7609 -1.2210 -1.5595
  897MOL0     H23757   1.323   4.133   7.192 -1.3776 -0.6143 -0.7413
  897MOL0     H23758   1.242   4.319   7.406 -1.7155 -0.1171  0.1929
  897MOL0     H23759   1.219   4.144   7.421  1.0651 -0.8644 -0.4807
  897MOL0     H23760   1.472   4.307   7.420  0.2990 -0.1176 -1.1134
  897MOL0     H23761   1.466   4.122   7.413 -1.0073  0.6152 -0.5607
  897MOL0     H23762   1.507   4.194   7.632 -0.8145 -0.1763  1.3330
  897MOL0     H23763   1.337   4.112   7.629 -0.4018 -0.6420  0.1260
  897MOL0     H23764   1.380   4.312   7.787  3.2737 -0.7833  0.0162
  897MOL0     H23765   1.237   4.311   7.697  0.0976 -0.0624  3.6050
  897MOL0     H23766   0.757   3.922   7.184  1.1469  0.2846  4.8221
  897MOL0     H23767   0.618   3.985   7.361 -0.4609 -0.8476 -2.2340
  897MOL0     H23768   0.166   4.150   7.457 -1.6265 -0.8419  0.5121
  897MOL0     H23769  -0.001   4.252   7.634 -0.6920  2.5558  1.1024
  897MOL0     H23770   0.044   4.803   7.656  1.7593  2.6709  0.9177
  897MOL0     H23771   0.204   4.646   7.549  2.2855  0.8041  1.1556
  897MOL0     H23772   0.526   4.760   7.183 -2.0502 -0.2715  1.5344
  897MOL0     H23773   0.692   4.706   7.011 -2.3905  3.6644 -2.4847
  897MOL0     H23774   0.717   4.321   6.814  1.0147 -1.1491 -2.6639
  897MOL0     H23775   0.575   4.359   6.720 -2.2746  1.4570  2.8985
  897MOL0     H23776   0.773   4.319   6.601 -1.7012 -1.1032  2.8350
  897MOL0     H23777   0.838   4.469   6.663  0.4124 -1.8758  2.2645
  897MOL0     H23778   0.563   4.464   6.527 -0.1233 -0.0680 -2.9758
  897MOL0     H23779   0.667   4.604   6.574 -0.6522  0.5574 -0.3927
  897MOL0     H23780   0.689   4.392   6.355 -1.2656 -2.6322  3.7555
  897MOL0     H23781   0.838   4.458   6.418  0.2085  1.0703  0.8234
  897MOL0     H23782   0.701   4.814   6.227  1.7518 -1.3303 -1.9263
  897MOL0     H23783   0.461   4.349   6.905  0.7293  0.2313  0.1267
  897MOL0     H23784   0.264   4.356   7.184  1.5619  0.7805  0.4065
  897MOL0     H23785   0.164   4.454   7.068 -1.0002 -2.4499 -4.0278
  897MOL0     H23786   0.254   4.311   7.013 -2.6682 -0.7778  0.6494
  898MOL0     O23787   3.203   8.281   2.504  0.1305  0.0354  0.2186
  898MOL0     C23788   3.259   8.294   2.618 -0.2727  0.0502  0.1595
  898MOL0     O23789   3.223   8.387   2.714 -0.3263  0.1736  0.2748
  898MOL0     C23790   3.133   8.488   2.670 -0.1819 -0.2052 -0.1006
  898MOL0     C23791   3.163   8.582   2.571 -0.1508  0.5256  0.3124
  898MOL0     C23792   3.074   8.681   2.534  0.2050 -0.0009 -0.2965
  898MOL0     C23793   2.955   8.692   2.597 -0.1066  0.0988  0.7620
  898MOL0     O23794   2.869   8.791   2.544  0.4375  0.0532 -0.5871
  898MOL0     C23795   2.759   8.824   2.633 -0.4563 -0.7406  0.1020
  898MOL0     C23796   2.699   8.957   2.599  0.2352  0.7364 -0.1379
  898MOL0     C23797   2.799   9.061   2.626 -0.6721  0.3878  0.3913
  898MOL0     C23798   2.775   9.188   2.543  0.1678 -0.6787 -0.0421
  898MOL0     C23799   2.872   9.315   2.546  0.1768 -0.7051 -0.1626
  898MOL0     C23800   2.867   9.377   2.684  0.0887  0.7231 -0.0170
  898MOL0     C23801   2.732   9.442   2.721  0.3215  0.1255  1.0950
  898MOL0     C23802   2.740   9.509   2.866  0.2657 -0.3354  0.1403
  898MOL0     N23803   2.815   9.423   2.961 -0.2412  0.1301  0.3663
  898MOL0     C23804   2.783   9.294   2.987  0.3463  0.7699 -1.0141
  898MOL0     C23805   2.878   9.253   3.071  0.1384 -0.4987 -0.1711
  898MOL0     C23806   2.890   9.120   3.143  0.3035  0.1081 -0.8772
  898MOL0     C23807   2.925   8.998   3.058  0.4712  1.0701 -0.3854
  898MOL0     C23808   3.064   9.000   2.998 -0.1033 -1.1614 -1.0300
  898MOL0     C23809   3.189   8.954   3.085 -0.3011 -0.6037  0.1555
  898MOL0     O23810   3.191   8.817   3.090  0.2507 -0.3183 -0.0131
  898MOL0     C23811   3.294   8.744   3.148 -0.3934 -0.5949 -0.2791
  898MOL0     C23812   3.301   8.602   3.128 -0.0443  0.6335  0.0823
  898MOL0     C23813   3.397   8.524   3.183  0.3704 -0.1610  0.4618
  898MOL0     C23814   3.382   8.380   3.162 -0.0792 -0.1365  0.9273
  898MOL0     C23815   3.501   8.584   3.265  0.4625 -0.1079  0.0212
  898MOL0     C23816   3.601   8.507   3.330 -1.2614 -0.8439 -0.7812
  898MOL0     O23817   3.566   8.397   3.384 -0.3832  0.7980  0.0610
  898MOL0     C23818   3.655   8.304   3.427  0.6637  0.5216  0.0940
  898MOL0     C23819   3.726   8.232   3.329  0.2343 -0.4258  0.6822
  898MOL0     C23820   3.824   8.143   3.367 -0.5028 -0.0870  0.0337
  898MOL0     C23821   3.849   8.128   3.504 -0.8485 -0.0444 -0.5124
  898MOL0     O23822   3.949   8.053   3.560  0.3754 -0.6254  0.3973
  898MOL0     C23823   4.043   7.990   3.472  0.8804  0.0982 -0.0511
  898MOL0     C23824   4.144   8.106   3.444 -0.3097  0.1623  0.8882
  898MOL0     C23825   4.230   8.146   3.570  0.2659  0.3410  0.4503
  898MOL0     C23826   4.330   8.037   3.610  0.3530 -0.2787 -0.5840
  898MOL0     C23827   4.413   8.061   3.735  0.4917  0.0108  0.0294
  898MOL0     C23828   4.533   7.975   3.761  0.1533 -0.8042  0.4013
  898MOL0     C23829   4.659   8.060   3.761  0.1448  0.7868  0.2375
  898MOL0     C23830   4.787   7.987   3.785 -0.5044 -0.0701 -1.2055
  898MOL0    Cl23831   4.809   7.855   3.672 -0.1301  0.1388  0.0295
  898MOL0     C23832   3.776   8.208   3.601  0.0984 -0.1365 -0.2877
  898MOL0     C23833   3.674   8.293   3.561 -0.3802  0.8698 -0.5435
  898MOL0     O23834   3.718   8.555   3.338 -0.1416 -0.4032  0.0244
  898MOL0     C23835   3.495   8.726   3.277 -1.3113  0.5061 -0.2991
  898MOL0     C23836   3.393   8.799   3.222 -0.8534 -0.5689  1.8775
  898MOL0     N23837   2.960   9.358   3.116 -0.0585 -0.9357 -0.3346
  898MOL0     N23838   2.922   9.455   3.039 -0.3542  0.2235  0.2384
  898MOL0     C23839   2.925   8.611   2.709 -0.0947 -0.0276  0.4244
  898MOL0     C23840   3.010   8.504   2.740  0.2243  0.6295 -0.1540
  898MOL0     C23841   3.349   8.195   2.664  0.6056  0.5699  0.5662
  898MOL0     C23842   3.334   8.147   2.791 -0.1278  0.7138 -0.1790
  898MOL0     C23843   3.406   8.041   2.848 -0.1967  0.1835 -0.3206
  898MOL0     C23844   3.503   7.987   2.763  0.2215 -0.2965  0.2113
  898MOL0     O23845   3.587   7.897   2.820  0.1832  0.3277 -0.4091
  898MOL0     C23846   3.679   7.819   2.732 -1.5952 -0.1001  0.2938
  898MOL0     C23847   3.737   7.699   2.806  0.3794 -0.4747 -0.7033
  898MOL0     C23848   3.635   7.608   2.881  0.1946  0.1259 -0.1456
  898MOL0     C23849   3.695   7.485   2.950 -0.1671  0.0222 -0.2765
  898MOL0     C23850   3.802   7.528   3.036  0.9691 -0.3327 -0.2982
  898MOL0     C23851   3.891   7.552   3.114 -0.5545 -0.0098  0.6545
  898MOL0     C23852   3.525   8.045   2.639  0.4494 -0.3625  0.4451
  898MOL0     C23853   3.447   8.142   2.585 -0.2974 -1.0098  0.6510
  898MOL0     C23854   3.488   8.193   2.451  0.9958 -0.0818  0.2296
  898MOL0     H23855   3.257   8.572   2.517  1.5488 -3.0602  3.5042
  898MOL0     H23856   3.096   8.758   2.461 -1.0139  2.5209  1.8518
  898MOL0     H23857   2.793   8.840   2.735  1.5484  2.9701 -0.9347
  898MOL0     H23858   2.686   8.743   2.631  0.7489 -1.8481 -0.4263
  898MOL0     H23859   2.668   8.951   2.494 -0.4954  0.5066  0.0882
  898MOL0     H23860   2.602   8.984   2.642 -1.5288 -1.0316 -2.7392
  898MOL0     H23861   2.830   9.089   2.727  0.7038 -3.0310  1.0562
  898MOL0     H23862   2.889   9.015   2.584 -0.6244  2.2458 -1.7283
  898MOL0     H23863   2.766   9.159   2.438  1.3340 -2.0657  0.2107
  898MOL0     H23864   2.675   9.220   2.574  0.6655  1.8685 -0.8962
  898MOL0     H23865   2.837   9.396   2.482 -0.8753  1.9986  3.5057
  898MOL0     H23866   2.970   9.271   2.526  0.0404 -1.4603  0.7511
  898MOL0     H23867   2.887   9.300   2.759 -3.8761  0.5296  1.0626
  898MOL0     H23868   2.950   9.448   2.691  0.1708  0.5169  1.3661
  898MOL0     H23869   2.664   9.360   2.748 -0.7237  0.9155  0.9468
  898MOL0     H23870   2.691   9.516   2.652  2.6792  0.0987 -0.4245
  898MOL0     H23871   2.792   9.602   2.842 -0.7799  0.4165  0.7250
  898MOL0     H23872   2.638   9.511   2.907  1.0371 -2.5372  2.4780
  898MOL0     H23873   2.701   9.232   2.951  1.1275 -0.5347 -0.6461
  898MOL0     H23874   2.789   9.094   3.174 -0.1436 -1.9310 -3.6662
  898MOL0     H23875   2.953   9.133   3.231 -0.1759  2.5278 -0.8168
  898MOL0     H23876   2.920   8.904   3.114 -1.1365 -0.2866 -2.6689
  898MOL0     H23877   2.850   8.992   2.979 -0.6853 -0.7996  0.7689
  898MOL0     H23878   3.060   8.930   2.913  0.0622 -0.5561 -1.5453
  898MOL0     H23879   3.086   9.094   2.947 -1.1626 -1.1024 -1.3866
  898MOL0     H23880   3.275   8.999   3.035 -1.7717 -0.6752 -2.6349
  898MOL0     H23881   3.192   8.985   3.190 -1.0086  0.2756 -0.0713
  898MOL0     H23882   3.224   8.555   3.067 -3.1461  4.9680  0.2700
  898MOL0     H23883   3.473   8.330   3.128 -0.6580  1.1195 -3.1123
  898MOL0     H23884   3.304   8.352   3.090 -0.3413  1.7342  0.4192
  898MOL0     H23885   3.339   8.343   3.255  0.2863  1.8501  1.9357
  898MOL0     H23886   3.724   8.248   3.222  0.2066  4.5248  1.1999
  898MOL0     H23887   3.884   8.083   3.300 -3.7689 -2.1594 -1.2800
  898MOL0     H23888   4.091   7.907   3.526  2.7728  0.0140 -1.7174
  898MOL0     H23889   4.009   7.948   3.376 -1.0418  2.5994 -0.5517
  898MOL0     H23890   4.207   8.074   3.360 -1.7428 -0.3035 -0.0394
  898MOL0     H23891   4.079   8.191   3.422 -0.0314  0.6584  1.9020
  898MOL0     H23892   4.155   8.167   3.646 -1.0216  1.2718 -1.0230
  898MOL0     H23893   4.279   8.241   3.545 -1.8012  1.5287  0.7649
  898MOL0     H23894   4.395   8.012   3.526  3.0107  0.6225  1.0982
  898MOL0     H23895   4.266   7.953   3.639  0.9862 -0.3570  0.6238
  898MOL0     H23896   4.437   8.167   3.724  0.0441  0.3233  1.7507
  898MOL0     H23897   4.354   8.070   3.826  1.2389  0.1384  0.5111
  898MOL0     H23898   4.546   7.903   3.679  2.4339  1.1751 -1.1088
  898MOL0     H23899   4.518   7.916   3.852 -6.0650  1.8107  1.6100
  898MOL0     H23900   4.652   8.143   3.833  4.2674  1.5722 -0.0198
  898MOL0     H23901   4.671   8.107   3.663 -0.7898 -0.7131 -0.6335
  898MOL0     H23902   4.787   7.952   3.889 -1.2457  1.0615 -0.8100
  898MOL0     H23903   4.881   8.041   3.778 -1.0587  1.4868  1.7301
  898MOL0     H23904   3.799   8.210   3.707 -4.5240  0.9705  0.9526
  898MOL0     H23905   3.624   8.346   3.642  1.8505 -0.9174  2.1906
  898MOL0     H23906   3.567   8.755   3.354  2.3981 -1.7014 -2.6302
  898MOL0     H23907   3.392   8.906   3.239 -2.1548 -0.3364  0.5480
  898MOL0     H23908   2.836   8.616   2.771  0.8083  0.1979  1.7549
  898MOL0     H23909   2.983   8.433   2.817  0.4194  1.2846  0.5279
  898MOL0     H23910   3.261   8.189   2.859  0.4464 -1.4356  1.9138
  898MOL0     H23911   3.372   7.976   2.928 -1.0352 -1.2096 -1.7466
  898MOL0     H23912   3.615   7.787   2.649  1.0270 -3.3188 -0.7281
  898MOL0     H23913   3.758   7.884   2.693 -1.7692  0.7959  1.3861
  898MOL0     H23914   3.803   7.744   2.880 -0.0553 -0.3981 -0.3624
  898MOL0     H23915   3.802   7.645   2.736 -0.0214 -0.0110 -1.4460
  898MOL0     H23916   3.584   7.653   2.967 -1.6065 -0.6311 -0.7534
  898MOL0     H23917   3.555   7.584   2.810  0.3016 -0.4840 -0.0672
  898MOL0     H23918   3.729   7.407   2.881 -4.0269 -1.2648 -1.0066
  898MOL0     H23919   3.613   7.445   3.010  0.2304  1.9848  1.6787
  898MOL0     H23920   3.974   7.573   3.179  0.1109  0.4638 -0.3026
  898MOL0     H23921   3.602   8.007   2.573  1.1880  4.8671 -2.2484
  898MOL0     H23922   3.482   8.301   2.435  0.9482 -0.3231 -1.6591
  898MOL0     H23923   3.591   8.164   2.429  0.4700 -1.4863 -0.4746
  898MOL0     H23924   3.417   8.157   2.376 -2.1854  0.5582  2.7206
  899MOL0     O23925   1.589   0.608   7.168  0.6192  0.3926  0.9436
  899MOL0     C23926   1.628   0.681   7.073  0.1221  0.4176  0.3477
  899MOL0     O23927   1.670   0.642   6.949  0.1045 -0.6057 -0.2405
  899MOL0     C23928   1.657   0.513   6.928  1.3976 -0.3146  0.5448
  899MOL0     C23929   1.571   0.463   6.827  0.0005 -0.1157  0.6410
  899MOL0     C23930   1.558   0.331   6.796  0.0856 -0.4452 -0.0722
  899MOL0     C23931   1.638   0.239   6.870 -0.2487  0.6567  0.1127
  899MOL0     O23932   1.623   0.100   6.840  0.9605 -0.2360  0.0663
  899MOL0     C23933   1.683   0.011   6.934 -0.1214  0.6411  0.4993
  899MOL0     C23934   1.650  -0.136   6.915 -0.2046 -0.3975 -0.2626
  899MOL0     C23935   1.505  -0.153   6.977  0.0707  0.9422  0.0516
  899MOL0     C23936   1.414  -0.236   6.879  0.8110  0.1231  0.5214
  899MOL0     C23937   1.262  -0.199   6.895  0.4331 -0.4241  0.7137
  899MOL0     C23938   1.185  -0.297   6.821  0.1575  0.4408 -0.7002
  899MOL0     C23939   1.131  -0.411   6.917  1.0327  0.3570  0.1838
  899MOL0     C23940   1.107  -0.536   6.846 -0.8262  0.3369  0.8314
  899MOL0     N23941   0.972  -0.538   6.791 -0.2977 -0.0205 -0.3836
  899MOL0     C23942   0.916  -0.450   6.700 -0.5133 -0.1937  0.1855
  899MOL0     C23943   0.789  -0.495   6.670 -0.4321  0.3495  0.8447
  899MOL0     C23944   0.689  -0.446   6.570 -0.0285 -0.6712 -0.9440
  899MOL0     C23945   0.670  -0.538   6.457 -0.0818 -0.4920  0.6146
  899MOL0     C23946   0.632  -0.456   6.331  0.2496  0.4942  0.9134
  899MOL0     C23947   0.630  -0.532   6.204 -0.9035  0.1972 -0.0555
  899MOL0     O23948   0.581  -0.460   6.087  0.1977  0.1028  0.2553
  899MOL0     C23949   0.670  -0.386   6.017 -0.0968  0.8091 -0.3345
  899MOL0     C23950   0.814  -0.391   6.030  0.4720  0.9688 -0.3843
  899MOL0     C23951   0.896  -0.314   5.955 -0.9956  0.5189 -0.3224
  899MOL0     C23952   1.047  -0.327   5.983  0.1001 -0.9541  0.1301
  899MOL0     C23953   0.833  -0.220   5.864  0.0803 -0.2095  0.6284
  899MOL0     C23954   0.914  -0.128   5.777  0.5643 -0.9691  0.0621
  899MOL0     O23955   0.842  -0.057   5.681  0.4752 -0.4648 -0.6249
  899MOL0     C23956   0.908   0.047   5.623 -0.2931  0.2969 -0.4472
  899MOL0     C23957   0.864   0.182   5.651 -0.3936  0.2861 -0.0801
  899MOL0     C23958   0.940   0.297   5.599  0.1756  0.4288 -0.2395
  899MOL0     C23959   1.058   0.266   5.536  0.7562  0.8637 -0.5250
  899MOL0     O23960   1.131   0.368   5.495 -0.2214 -1.1230  0.4203
  899MOL0     C23961   1.208   0.423   5.607 -0.3184 -0.6299  0.5024
  899MOL0     C23962   1.361   0.396   5.597 -0.3624  0.2675 -0.2161
  899MOL0     C23963   1.416   0.388   5.740 -0.8300 -0.0843  0.1611
  899MOL0     C23964   1.573   0.379   5.740  0.1147 -0.3818  0.8990
  899MOL0     C23965   1.644   0.370   5.871  0.2165 -0.4734 -1.0366
  899MOL0     C23966   1.792   0.367   5.871  1.0927  0.9552 -0.8203
  899MOL0     C23967   1.847   0.489   5.811 -0.6337 -0.4264  0.0791
  899MOL0     C23968   1.974   0.549   5.887  0.2369 -0.2162 -0.1783
  899MOL0    Cl23969   1.922   0.607   6.060  0.6273 -0.0206 -0.4701
  899MOL0     C23970   1.092   0.141   5.503 -0.7337  0.0816 -0.6489
  899MOL0     C23971   1.031   0.032   5.563  0.3057  0.4260  0.3101
  899MOL0     O23972   1.030  -0.124   5.797  0.1803  0.1395  1.1260
  899MOL0     C23973   0.689  -0.214   5.852  0.7272  0.5115  0.0230
  899MOL0     C23974   0.615  -0.309   5.918 -0.3471 -0.1456 -0.2368
  899MOL0     N23975   0.760  -0.598   6.760 -0.2180 -0.0470  1.2924
  899MOL0     N23976   0.867  -0.624   6.824  0.1219 -0.0921  0.4133
  899MOL0     C23977   1.723   0.280   6.980 -0.2453 -0.4514  0.1374
  899MOL0     C23978   1.732   0.418   7.005 -0.0347 -0.0829  0.6107
  899MOL0     C23979   1.602   0.825   7.082 -0.2781 -0.3847  0.1340
  899MOL0     C23980   1.574   0.900   6.964 -0.1248  0.5752  1.1664
  899MOL0     C23981   1.564   1.030   6.975 -0.5815 -0.3849  0.4280
  899MOL0     C23982   1.596   1.105   7.098  0.7013  0.1477 -0.6245
  899MOL0     O23983   1.614   1.244   7.100  1.0987 -0.6775 -0.0243
  899MOL0     C23984   1.622   1.306   6.972  0.5542  0.4515 -0.5402
  899MOL0     C23985   1.655   1.460   6.993 -0.5735 -0.1708 -0.5397
  899MOL0     C23986   1.660   1.531   6.859  0.0617  0.8090 -0.1903
  899MOL0     C23987   1.681   1.678   6.879  0.3334 -0.1755  0.2167
  899MOL0     C23988   1.645   1.759   6.753 -0.6581  0.3590  0.3879
  899MOL0     C23989   1.605   1.828   6.658 -0.5763  0.1919 -0.5182
  899MOL0     C23990   1.653   1.038   7.203 -0.3012  0.1883  0.4501
  899MOL0     C23991   1.653   0.901   7.197 -0.2055  0.7700  0.0683
  899MOL0     C23992   1.725   0.831   7.307 -0.9927  0.1664 -0.7178
  899MOL0     H23993   1.504   0.530   6.773 -0.8817 -0.2232  1.5624
  899MOL0     H23994   1.493   0.300   6.714  0.5970  2.3757 -1.6911
  899MOL0     H23995   1.662   0.039   7.038  0.5997  2.3873  0.1952
  899MOL0     H23996   1.791   0.006   6.916 -0.2703 -3.5818 -0.2880
  899MOL0     H23997   1.652  -0.166   6.810  3.4988 -1.1504 -0.1160
  899MOL0     H23998   1.707  -0.215   6.964  0.7096 -0.7222 -1.7899
  899MOL0     H23999   1.496  -0.211   7.070  0.7234 -3.0094 -2.1114
  899MOL0     H24000   1.459  -0.056   6.995 -0.6307  0.8136 -0.9826
  899MOL0     H24001   1.424  -0.211   6.773 -1.5662 -0.0214  0.2103
  899MOL0     H24002   1.422  -0.342   6.904  1.2170 -0.0429 -0.3031
  899MOL0     H24003   1.246  -0.097   6.859 -0.7449 -1.4171 -1.8143
  899MOL0     H24004   1.237  -0.208   7.000  0.2158  0.4699  0.7521
  899MOL0     H24005   1.090  -0.258   6.783 -2.1296 -1.0109  3.0014
  899MOL0     H24006   1.237  -0.343   6.736 -1.9273 -2.1198 -0.7173
  899MOL0     H24007   1.041  -0.379   6.970  0.2761 -0.6650 -0.4652
  899MOL0     H24008   1.192  -0.420   7.007 -0.7636  0.1932  1.4123
  899MOL0     H24009   1.182  -0.545   6.767  0.8318 -1.1776  2.4699
  899MOL0     H24010   1.115  -0.623   6.913 -2.4219 -0.2832  0.2656
  899MOL0     H24011   0.966  -0.363   6.660  1.1324 -1.3199 -0.2945
  899MOL0     H24012   0.716  -0.347   6.532  0.1192  0.0597  0.9386
  899MOL0     H24013   0.595  -0.431   6.623 -0.6679  1.0119 -2.4606
  899MOL0     H24014   0.760  -0.592   6.427 -0.5416 -0.8018 -0.2507
  899MOL0     H24015   0.583  -0.604   6.471 -2.5493  2.4961  0.5676
  899MOL0     H24016   0.531  -0.416   6.343 -0.5583 -0.5076 -1.9027
  899MOL0     H24017   0.698  -0.370   6.321 -1.7979  1.9920 -0.3884
  899MOL0     H24018   0.729  -0.565   6.172 -1.6254 -1.0818 -1.1002
  899MOL0     H24019   0.578  -0.625   6.228  0.5160 -0.0693  2.2948
  899MOL0     H24020   0.862  -0.463   6.095 -1.2982  1.2035  1.2750
  899MOL0     H24021   1.075  -0.231   6.025  2.6338 -0.8093 -1.6286
  899MOL0     H24022   1.111  -0.347   5.896  0.7744  2.7032 -0.3617
  899MOL0     H24023   1.072  -0.395   6.065  1.8351  1.2681  1.5614
  899MOL0     H24024   0.775   0.191   5.712 -0.8340  0.2778 -0.7146
  899MOL0     H24025   0.897   0.395   5.617  0.2909 -0.0853  3.6227
  899MOL0     H24026   1.192   0.531   5.609  1.0360 -0.3960  0.1147
  899MOL0     H24027   1.169   0.381   5.700 -0.8326  0.1453  0.6476
  899MOL0     H24028   1.371   0.295   5.557 -3.9796 -1.1399  1.9430
  899MOL0     H24029   1.415   0.472   5.539 -0.0266  1.0610  1.0996
  899MOL0     H24030   1.372   0.303   5.793  1.1278 -0.4816  1.2619
  899MOL0     H24031   1.387   0.477   5.797 -0.8381 -0.2133  0.3599
  899MOL0     H24032   1.601   0.475   5.696 -0.2856 -0.9431 -0.6528
  899MOL0     H24033   1.603   0.300   5.670  0.0153 -1.5432  2.1105
  899MOL0     H24034   1.616   0.455   5.934 -1.5486 -0.4861 -1.7293
  899MOL0     H24035   1.596   0.290   5.928  1.8630  1.4654  3.4774
  899MOL0     H24036   1.822   0.274   5.822 -0.5775 -0.3260  0.4519
  899MOL0     H24037   1.833   0.355   5.972  0.9149 -0.7937 -0.9293
  899MOL0     H24038   1.769   0.566   5.805 -0.7775 -0.4503  1.4300
  899MOL0     H24039   1.879   0.459   5.711  2.2010 -1.3837  1.1877
  899MOL0     H24040   2.021   0.635   5.837  2.7767 -0.0071  2.3404
  899MOL0     H24041   2.049   0.470   5.889  0.4783 -0.2148 -3.3126
  899MOL0     H24042   1.185   0.138   5.448  0.9019  4.2058  1.4158
  899MOL0     H24043   1.064  -0.071   5.556  0.7334  0.2218  3.6826
  899MOL0     H24044   0.650  -0.143   5.781 -0.7550 -0.5971 -0.3229
  899MOL0     H24045   0.508  -0.302   5.909 -0.2002  0.5005 -1.8479
  899MOL0     H24046   1.797   0.217   7.029  2.7988  3.0488  0.4744
  899MOL0     H24047   1.802   0.444   7.084  2.0592 -2.5639 -0.3297
  899MOL0     H24048   1.558   0.855   6.866  1.3332 -3.4755  2.5613
  899MOL0     H24049   1.535   1.081   6.884 -1.0400 -2.1289 -0.4437
  899MOL0     H24050   1.695   1.269   6.899  1.0997 -0.6050  0.5023
  899MOL0     H24051   1.521   1.295   6.931 -1.2760  1.0298  3.3593
  899MOL0     H24052   1.754   1.475   7.036 -0.0894 -1.0345 -1.3193
  899MOL0     H24053   1.584   1.492   7.069 -0.2888 -0.7722 -0.0138
  899MOL0     H24054   1.744   1.486   6.804 -3.3110 -3.9515 -2.1788
  899MOL0     H24055   1.566   1.507   6.809 -0.0048  2.7001 -1.0539
  899MOL0     H24056   1.782   1.703   6.912 -1.0729  2.3605  3.1037
  899MOL0     H24057   1.620   1.717   6.961  1.8003  3.2869 -0.1694
  899MOL0     H24058   1.583   1.890   6.574  0.0148  1.8852  0.5203
  899MOL0     H24059   1.710   1.093   7.277 -0.8009  0.5290  0.5788
  899MOL0     H24060   1.788   0.891   7.373  1.1570  1.0730 -3.4128
  899MOL0     H24061   1.658   0.767   7.364 -0.3980  0.9758  0.9639
  899MOL0     H24062   1.798   0.760   7.269 -0.4909  0.1610  0.2157
  900MOL0     O24063   7.537   2.463   7.971 -0.6369  0.5004 -0.0108
  900MOL0     C24064   7.439   2.381   7.974  0.1498 -0.9813 -0.6586
  900MOL0     O24065   7.451   2.241   7.970 -0.4944 -0.1593 -0.0524
  900MOL0     C24066   7.569   2.193   8.029  0.2799  0.2065 -0.2390
  900MOL0     C24067   7.573   2.155   8.162 -0.4460  0.4631 -0.6707
  900MOL0     C24068   7.700   2.130   8.223 -0.0059 -1.0274 -0.0432
  900MOL0     C24069   7.824   2.128   8.139  0.2459 -0.5758  1.0250
  900MOL0     O24070   7.947   2.106   8.200  1.3667  0.8679  0.8297
  900MOL0     C24071   8.069   2.151   8.138 -0.7221 -1.1842  0.8873
  900MOL0     C24072   8.184   2.151   8.239  0.4162 -0.4800  0.6403
  900MOL0     C24073   8.157   2.220   8.385  0.3050 -0.3770 -0.3903
  900MOL0     C24074   8.273   2.218   8.479  0.1150  0.2837 -0.1217
  900MOL0     C24075   8.232   2.274   8.609  0.9299 -0.5339 -0.2753
  900MOL0     C24076   8.339   2.258   8.721 -0.6433 -0.0361  0.6514
  900MOL0     C24077   8.325   2.327   8.848 -0.3080  1.0151  0.4575
  900MOL0     C24078   8.301   2.479   8.853 -0.0320  0.1291  0.5107
  900MOL0     N24079   8.279   2.546   8.989 -0.2858  0.2051  0.8476
  900MOL0     C24080   8.378   2.617   9.061 -0.0485 -0.8616  0.4285
  900MOL0     C24081   8.323   2.631   9.191 -0.4765 -0.6416  0.5990
  900MOL0     C24082   8.396   2.679   9.306  0.3485 -0.0146  0.9533
  900MOL0     C24083   8.390   2.822   9.329 -0.2477 -1.3996 -0.3707
  900MOL0     C24084   8.450   2.915   9.214 -0.1866  1.1549 -0.0208
  900MOL0     C24085   8.392   3.056   9.212 -0.4999 -0.5310 -0.9444
  900MOL0     O24086   8.412   3.123   9.342 -0.9140  0.4569 -0.4932
  900MOL0     C24087   8.299   3.156   9.414  0.6064 -0.0747 -0.0140
  900MOL0     C24088   8.306   3.165   9.554  0.0502 -0.3808  0.0662
  900MOL0     C24089   8.189   3.214   9.619  0.1190  0.4954  0.0250
  900MOL0     C24090   8.201   3.206   9.770  0.3433 -0.1628  0.1443
  900MOL0     C24091   8.074   3.269   9.547  0.2924  0.3325 -1.2181
  900MOL0     C24092   7.941   3.309   9.597  0.7629 -1.4468 -0.7600
  900MOL0     O24093   7.840   3.338   9.514  0.1770  0.0797  0.1966
  900MOL0     C24094   7.730   3.407   9.546 -0.4256  0.3873 -0.4122
  900MOL0     C24095   7.706   3.541   9.515 -0.7187  0.5264  0.1286
  900MOL0     C24096   7.596   3.611   9.566 -0.4477  0.3504  0.3949
  900MOL0     C24097   7.488   3.553   9.629  0.6157 -0.6634  0.0321
  900MOL0     O24098   7.385   3.623   9.695 -0.1525 -0.0134 -0.7763
  900MOL0     C24099   7.331   3.580   9.821  0.0320  0.9359  0.2386
  900MOL0     C24100   7.231   3.672   9.884 -0.1511 -0.3628 -0.6226
  900MOL0     C24101   7.278   3.781   9.982 -0.2657  0.2436 -0.1653
  900MOL0     C24102   7.213   3.925   9.966  0.9161  0.3161 -0.8486
  900MOL0     C24103   7.293   4.038  10.039  0.2996  0.0663  0.2395
  900MOL0     C24104   7.317   4.016  10.186  0.0646  0.3715  0.3326
  900MOL0     C24105   7.447   4.095  10.219  0.3476  0.6021 -0.5393
  900MOL0     C24106   7.468   4.101  10.363  0.0678  0.3573 -0.3642
  900MOL0    Cl24107   7.498   3.941  10.451 -0.2494  0.1494 -0.6642
  900MOL0     C24108   7.502   3.411   9.647 -0.0156  0.3972  0.3199
  900MOL0     C24109   7.621   3.344   9.613 -0.1336  0.1869  0.9547
  900MOL0     O24110   7.942   3.334   9.721  0.8076  0.0340 -0.3164
  900MOL0     C24111   8.078   3.269   9.408 -0.3948  0.6672 -0.3249
  900MOL0     C24112   8.187   3.211   9.338 -0.0439  0.3448  0.1046
  900MOL0     N24113   8.200   2.568   9.194 -0.3278 -0.2433 -0.1891
  900MOL0     N24114   8.171   2.520   9.070 -1.1110  0.0350 -0.0238
  900MOL0     C24115   7.807   2.150   8.000 -0.3856  0.0742 -0.0707
  900MOL0     C24116   7.681   2.188   7.951  0.1268  0.7779  0.5277
  900MOL0     C24117   7.312   2.434   7.924 -0.9385 -0.6812  1.2167
  900MOL0     C24118   7.227   2.337   7.867  1.0774 -0.4899  0.6374
  900MOL0     C24119   7.114   2.374   7.808  1.0649  0.2270 -0.1178
  900MOL0     C24120   7.080   2.508   7.790 -0.3611 -0.5137  0.4319
  900MOL0     O24121   6.967   2.548   7.732  0.2763 -0.3823  0.0454
  900MOL0     C24122   6.864   2.454   7.722  0.0012 -0.3122 -0.6902
  900MOL0     C24123   6.755   2.522   7.640 -0.6678  0.6029  0.2263
  900MOL0     C24124   6.627   2.445   7.626 -0.5396 -0.4528  0.2325
  900MOL0     C24125   6.560   2.382   7.749 -0.0208 -0.2276  0.0513
  900MOL0     C24126   6.512   2.485   7.846 -0.5821  0.1522 -0.4753
  900MOL0     C24127   6.471   2.563   7.930  0.6847 -0.6063  0.6703
  900MOL0     C24128   7.170   2.604   7.843  0.0633  0.2988  0.7178
  900MOL0     C24129   7.280   2.567   7.912  0.1493  0.0056  0.0431
  900MOL0     C24130   7.365   2.679   7.969 -1.1994  0.1598 -0.0573
  900MOL0     H24131   7.481   2.178   8.213 -0.2345  2.6716 -1.1862
  900MOL0     H24132   7.711   2.132   8.331  1.9420  1.9046 -0.1958
  900MOL0     H24133   8.066   2.251   8.094  1.3221 -1.5038 -0.1371
  900MOL0     H24134   8.100   2.088   8.053 -0.0152 -0.2966  0.4690
  900MOL0     H24135   8.203   2.047   8.267 -0.2141 -0.2347  2.0240
  900MOL0     H24136   8.274   2.195   8.195  1.0806 -1.8438  0.5909
  900MOL0     H24137   8.125   2.323   8.366 -0.2987 -0.2461  1.1470
  900MOL0     H24138   8.086   2.157   8.440  1.5079 -0.8939  0.6177
  900MOL0     H24139   8.306   2.115   8.497  1.9671  0.8535 -0.1100
  900MOL0     H24140   8.346   2.288   8.440 -0.2862  0.9125  0.2362
  900MOL0     H24141   8.147   2.218   8.650  0.4626 -0.6221 -1.3479
  900MOL0     H24142   8.209   2.380   8.596  0.7932 -0.5592 -0.2410
  900MOL0     H24143   8.336   2.151   8.741 -0.5248 -1.0768 -3.7748
  900MOL0     H24144   8.440   2.278   8.681  0.1202 -3.3510  0.6478
  900MOL0     H24145   8.413   2.312   8.911  0.9746  0.1508 -1.4529
  900MOL0     H24146   8.238   2.276   8.891  0.7483 -2.4714 -1.2135
  900MOL0     H24147   8.381   2.527   8.796 -0.0207  1.3019  1.4777
  900MOL0     H24148   8.215   2.499   8.789 -0.9540  2.2770  2.2917
  900MOL0     H24149   8.479   2.643   9.030 -0.5783  1.2004  0.2964
  900MOL0     H24150   8.501   2.653   9.289  0.1037 -0.4885  0.0976
  900MOL0     H24151   8.373   2.628   9.400  1.2094 -0.4082  0.9610
  900MOL0     H24152   8.282   2.834   9.343 -0.1245 -0.3231 -0.2455
  900MOL0     H24153   8.440   2.845   9.423 -0.5534  1.0793 -0.7436
  900MOL0     H24154   8.558   2.920   9.235 -0.0973  0.3211 -0.2639
  900MOL0     H24155   8.429   2.870   9.117 -2.0216  1.9649 -0.0411
  900MOL0     H24156   8.437   3.103   9.124 -0.1450 -1.7389 -1.4336
  900MOL0     H24157   8.285   3.045   9.189 -0.4281  2.0250 -3.0663
  900MOL0     H24158   8.396   3.132   9.605  0.8079  0.6754 -0.5374
  900MOL0     H24159   8.233   3.307   9.798  0.0379  0.6280 -2.1276
  900MOL0     H24160   8.279   3.132   9.790  2.1284  2.0418  2.0408
  900MOL0     H24161   8.103   3.175   9.806  0.7871 -0.6635  0.9332
  900MOL0     H24162   7.780   3.601   9.462 -0.0206 -0.3492  0.0952
  900MOL0     H24163   7.604   3.719   9.555  0.9372  0.1624 -0.6157
  900MOL0     H24164   7.267   3.494   9.802  2.4535 -1.2785  1.5397
  900MOL0     H24165   7.405   3.545   9.894 -0.1465  2.4514  1.2029
  900MOL0     H24166   7.194   3.730   9.799  3.2353  0.3392 -1.7933
  900MOL0     H24167   7.160   3.602   9.929  2.0908 -1.5741  1.2446
  900MOL0     H24168   7.387   3.783   9.972  0.1772  5.7937  2.1786
  900MOL0     H24169   7.264   3.748  10.085  0.0826 -2.7432 -0.9881
  900MOL0     H24170   7.111   3.923  10.006  1.3879  0.8257  0.4294
  900MOL0     H24171   7.201   3.946   9.860 -3.9598 -0.2896 -0.6415
  900MOL0     H24172   7.385   4.047   9.981 -1.0440  3.3210 -1.6843
  900MOL0     H24173   7.236   4.132  10.035  3.0880  1.8924  0.5192
  900MOL0     H24174   7.338   3.912  10.211  1.1657  0.6865  0.7559
  900MOL0     H24175   7.242   4.047  10.260  1.1699  0.7302  1.3409
  900MOL0     H24176   7.436   4.193  10.171 -1.6802 -1.5075 -5.0492
  900MOL0     H24177   7.526   4.035  10.171 -0.0009  0.3738 -0.8319
  900MOL0     H24178   7.385   4.149  10.416  1.7073  1.2994  1.4575
  900MOL0     H24179   7.553   4.168  10.380 -0.0218 -0.2148  2.8276
  900MOL0     H24180   7.420   3.356   9.692  0.2535  0.1195  0.4820
  900MOL0     H24181   7.629   3.236   9.621  1.6480  0.2728  0.8202
  900MOL0     H24182   7.993   3.303   9.350 -1.8075  0.5683  1.5991
  900MOL0     H24183   8.177   3.218   9.231  0.4292 -0.6465 -0.0218
  900MOL0     H24184   7.895   2.143   7.935  0.6058  0.9337  1.1366
  900MOL0     H24185   7.669   2.210   7.845 -1.2785  1.9368  0.8971
  900MOL0     H24186   7.245   2.230   7.875 -1.3467 -1.0658 -0.6329
  900MOL0     H24187   7.061   2.293   7.759  1.9064  0.5575 -1.6495
  900MOL0     H24188   6.899   2.371   7.661  1.3175 -0.3260  0.0545
  900MOL0     H24189   6.833   2.416   7.819  2.3300 -2.1742 -0.5810
  900MOL0     H24190   6.795   2.555   7.544  2.3698 -0.4059  1.0291
  900MOL0     H24191   6.729   2.617   7.689  0.1250  1.8305 -1.6281
  900MOL0     H24192   6.562   2.508   7.564  0.7633 -1.2814 -2.0805
  900MOL0     H24193   6.668   2.364   7.566  4.5243  2.4920 -0.9078
  900MOL0     H24194   6.636   2.318   7.795  1.5366  0.5854 -1.3176
  900MOL0     H24195   6.473   2.324   7.718  0.8143 -1.1631 -0.5995
  900MOL0     H24196   6.436   2.647   7.987 -0.5407 -0.5017 -0.2079
  900MOL0     H24197   7.153   2.707   7.814  0.5594  1.4553  4.1296
  900MOL0     H24198   7.324   2.777   7.945  1.3841  0.6978 -2.7711
  900MOL0     H24199   7.383   2.672   8.077  0.1533 -0.9662 -0.3246
  900MOL0     H24200   7.454   2.675   7.906 -0.7685 -0.6770  0.5836
  901MOL0     O24201   9.740   7.904   8.206 -0.0096 -0.7103 -1.3177
  901MOL0     C24202   9.689   7.812   8.136 -0.7086  0.2000  0.9189
  901MOL0     O24203   9.762   7.718   8.066  0.3035 -0.5699  0.6517
  901MOL0     C24204   9.904   7.713   8.081 -0.0767  0.2532 -0.5097
  901MOL0     C24205   9.954   7.589   8.128  0.1063  0.7172  1.0124
  901MOL0     C24206  10.091   7.569   8.159 -0.2666 -1.3490  0.4491
  901MOL0     C24207  10.178   7.679   8.149  0.3278  0.3900  0.1185
  901MOL0     O24208  10.301   7.659   8.185 -0.1404  0.2440 -0.3902
  901MOL0     C24209  10.352   7.527   8.228  0.5818 -0.1747 -0.3650
  901MOL0     C24210  10.488   7.545   8.294 -0.3532  0.2864 -0.0728
  901MOL0     C24211  10.528   7.424   8.374 -0.0667 -0.6886 -1.1202
  901MOL0     C24212  10.556   7.458   8.525 -0.3026  0.8078  0.3404
  901MOL0     C24213  10.608   7.331   8.596  0.4546 -0.1654  0.2991
  901MOL0     C24214  10.658   7.378   8.735 -0.7997  1.0288 -0.4014
  901MOL0     C24215  10.703   7.257   8.818 -0.7623 -0.0795  0.1855
  901MOL0     C24216  10.786   7.311   8.939  0.3031  0.5417 -0.5789
  901MOL0     N24217  10.708   7.385   9.043  0.1273  0.2286 -0.5625
  901MOL0     C24218  10.741   7.390   9.177 -0.8246 -0.3984 -0.3082
  901MOL0     C24219  10.623   7.405   9.245 -0.2772  0.7027 -0.3563
  901MOL0     C24220  10.606   7.417   9.392 -0.1055  0.5076  0.1831
  901MOL0     C24221  10.533   7.300   9.466 -0.5308  0.0393  0.4085
  901MOL0     C24222  10.619   7.176   9.481 -0.3614  0.5470  0.4348
  901MOL0     C24223  10.583   7.098   9.602 -0.5361  0.4049  0.3250
  901MOL0     O24224  10.645   7.159   9.721 -0.2665 -0.0511  0.0247
  901MOL0     C24225  10.617   7.101   9.840 -0.5749 -0.5767 -0.0284
  901MOL0     C24226  10.542   6.988   9.854  0.1203 -0.2414 -0.9348
  901MOL0     C24227  10.490   6.946   9.979 -0.6984  0.9334  0.2083
  901MOL0     C24228  10.395   6.829   9.969  0.9423 -0.7458  0.2894
  901MOL0     C24229  10.528   7.011  10.099 -0.8857 -0.0156  0.6041
  901MOL0     C24230  10.485   6.979  10.234 -1.1285  0.1863  0.3102
  901MOL0     O24231  10.578   7.007  10.334 -0.1423 -0.0141  0.5940
  901MOL0     C24232  10.543   6.983  10.467  0.0734 -0.1456 -0.2044
  901MOL0     C24233  10.554   7.090  10.558  0.6504  0.0529 -0.4419
  901MOL0     C24234  10.522   7.083  10.694 -0.8513  0.1652  0.7610
  901MOL0     C24235  10.496   6.959  10.743 -0.1195  0.4467 -0.0143
  901MOL0     O24236  10.472   6.938  10.878 -0.0003  0.4756  0.7026
  901MOL0     C24237  10.523   7.032  10.973  0.1544 -0.9668 -0.1698
  901MOL0     C24238  10.495   6.967  11.099  0.0589  0.1263 -0.2535
  901MOL0     C24239  10.524   7.042  11.232 -0.0389 -0.0567  0.6456
  901MOL0     C24240  10.407   7.145  11.274 -0.3418  0.6047 -0.1846
  901MOL0     C24241  10.401   7.275  11.183  0.3664  0.3902  0.0813
  901MOL0     C24242  10.327   7.390  11.249  0.8657 -0.1576  0.2128
  901MOL0     C24243  10.288   7.507  11.151  0.5520 -1.0844 -0.1720
  901MOL0     C24244  10.403   7.584  11.106 -1.5616 -0.2628  0.1180
  901MOL0    Cl24245  10.489   7.503  10.975 -0.1596  0.3682 -0.2777
  901MOL0     C24246  10.486   6.848  10.664  0.0177 -0.1613  0.7401
  901MOL0     C24247  10.517   6.856  10.525  0.7782 -0.7198  0.4569
  901MOL0     O24248  10.371   6.929  10.251 -0.8376 -0.2031 -0.9154
  901MOL0     C24249  10.615   7.114  10.087  0.0563 -0.5016  0.0540
  901MOL0     C24250  10.655   7.165   9.957 -0.5130  0.2479 -0.7988
  901MOL0     N24251  10.515   7.421   9.159  0.1264  0.2132  0.6479
  901MOL0     N24252  10.567   7.398   9.036  0.0309 -0.1894 -0.5927
  901MOL0     C24253  10.130   7.801   8.093 -0.3704  0.2040 -0.1699
  901MOL0     C24254   9.992   7.807   8.053 -0.9091  0.1298  0.3126
  901MOL0     C24255   9.546   7.807   8.130 -0.8524 -0.5741  0.5928
  901MOL0     C24256   9.489   7.707   8.063  0.9375 -0.3764 -0.8394
  901MOL0     C24257   9.360   7.678   8.065  1.5374  1.2846 -0.2952
  901MOL0     C24258   9.271   7.754   8.135  0.3329 -0.0594  0.3000
  901MOL0     O24259   9.143   7.709   8.137 -0.4482  0.5808 -0.1811
  901MOL0     C24260   9.038   7.758   8.052  0.8715 -0.2178  1.4130
  901MOL0     C24261   8.952   7.864   8.124 -0.1361  0.4307  0.2223
  901MOL0     C24262   8.887   7.812   8.257  0.0495  0.5853 -0.5862
  901MOL0     C24263   8.794   7.923   8.317 -0.5861 -0.7472 -0.5002
  901MOL0     C24264   8.753   7.881   8.454  0.2007  0.2065  0.3784
  901MOL0     C24265   8.706   7.839   8.558  0.5591  0.5185 -0.5525
  901MOL0     C24266   9.314   7.865   8.204  1.2534  1.0768  0.0868
  901MOL0     C24267   9.448   7.892   8.207 -0.0922  0.5169 -0.5306
  901MOL0     C24268   9.499   8.003   8.300 -0.8738  0.3593 -0.6679
  901MOL0     H24269   9.879   7.510   8.131 -1.4591  2.1815  2.7159
  901MOL0     H24270  10.123   7.471   8.194  1.0957 -0.1833  2.7557
  901MOL0     H24271  10.356   7.447   8.153  1.6446 -0.5250  0.0522
  901MOL0     H24272  10.291   7.488   8.310  3.1513 -3.6444  0.0908
  901MOL0     H24273  10.560   7.563   8.213  0.2409  0.7638  0.5481
  901MOL0     H24274  10.471   7.635   8.354 -1.1367 -1.4198  2.4637
  901MOL0     H24275  10.442   7.358   8.365 -0.8997  0.4588 -1.7866
  901MOL0     H24276  10.619   7.379   8.333 -0.1981  0.0594 -2.2678
  901MOL0     H24277  10.641   7.525   8.538  0.0204  1.1604 -2.8559
  901MOL0     H24278  10.465   7.491   8.576  0.9555  0.1975  3.1922
  901MOL0     H24279  10.697   7.287   8.550  0.2469 -0.8229  0.5252
  901MOL0     H24280  10.527   7.258   8.603 -2.3849  2.7888  0.3735
  901MOL0     H24281  10.738   7.452   8.722  0.0246  0.1515 -0.3757
  901MOL0     H24282  10.574   7.422   8.789 -0.2183 -2.1165  3.5041
  901MOL0     H24283  10.771   7.191   8.764 -1.3369 -1.4781  1.1067
  901MOL0     H24284  10.624   7.190   8.856 -2.8273  1.1610 -1.6898
  901MOL0     H24285  10.845   7.234   8.991 -2.6249 -0.3112  1.7976
  901MOL0     H24286  10.854   7.386   8.898  0.0160  0.0305 -2.0746
  901MOL0     H24287  10.845   7.386   9.208 -0.9242 -4.6703  0.0475
  901MOL0     H24288  10.556   7.512   9.415 -0.5050 -0.6002  5.0289
  901MOL0     H24289  10.704   7.429   9.439  1.1438  0.5149 -2.2740
  901MOL0     H24290  10.511   7.350   9.560 -0.5638  1.4789 -0.3503
  901MOL0     H24291  10.443   7.263   9.417 -0.4012 -1.0929  0.9818
  901MOL0     H24292  10.597   7.107   9.399 -0.9826  0.1310  0.9406
  901MOL0     H24293  10.725   7.202   9.481 -0.9242  3.8346 -3.5942
  901MOL0     H24294  10.473   7.100   9.608 -0.6809 -2.7987  0.6078
  901MOL0     H24295  10.625   6.999   9.587 -1.8954  0.1884 -2.5672
  901MOL0     H24296  10.516   6.928   9.767 -0.0353 -1.1509 -0.2762
  901MOL0     H24297  10.402   6.783   9.870 -0.5722  0.3626 -0.3710
  901MOL0     H24298  10.297   6.876   9.978  1.6639  0.6703  0.9715
  901MOL0     H24299  10.413   6.754  10.047  3.0391 -1.9333 -1.2198
  901MOL0     H24300  10.589   7.184  10.515  4.9151 -0.6603  1.0236
  901MOL0     H24301  10.538   7.170  10.757 -3.7774  1.4408 -0.0945
  901MOL0     H24302  10.632   7.036  10.973  0.1299  0.5615 -1.2788
  901MOL0     H24303  10.486   7.135  10.973  2.3930 -0.0655  2.1366
  901MOL0     H24304  10.389   6.939  11.100  0.5596 -2.0558  2.2415
  901MOL0     H24305  10.555   6.876  11.103  1.2548  0.8627 -0.9137
  901MOL0     H24306  10.621   7.091  11.228 -0.5447  0.8613 -1.2320
  901MOL0     H24307  10.535   6.966  11.310 -1.4133  0.2744  1.2102
  901MOL0     H24308  10.430   7.173  11.377 -1.2916 -0.9697  0.4977
  901MOL0     H24309  10.313   7.093  11.294 -0.5769  2.1405  3.4837
  901MOL0     H24310  10.491   7.324  11.145 -0.4532  0.6172 -1.6454
  901MOL0     H24311  10.345   7.247  11.093  2.5185 -0.1464 -1.1643
  901MOL0     H24312  10.369   7.422  11.345 -0.8874 -1.1214  1.3744
  901MOL0     H24313  10.234   7.353  11.294  1.3472 -1.9883 -0.2088
  901MOL0     H24314  10.223   7.579  11.202 -1.7114 -2.8959 -0.3291
  901MOL0     H24315  10.230   7.471  11.066  1.1277  2.6122 -2.2949
  901MOL0     H24316  10.467   7.589  11.195  1.3458 -2.0256 -1.7129
  901MOL0     H24317  10.374   7.683  11.071  0.9924 -0.4447 -2.9200
  901MOL0     H24318  10.446   6.755  10.703 -2.2240  0.0836 -0.7678
  901MOL0     H24319  10.512   6.768  10.461 -1.3269  0.4435 -1.1108
  901MOL0     H24320  10.626   7.174  10.177 -3.1107  1.4851 -0.7335
  901MOL0     H24321  10.712   7.258   9.955  1.1348 -0.5170  2.4919
  901MOL0     H24322  10.202   7.881   8.089  1.7999 -1.7021 -2.8685
  901MOL0     H24323   9.960   7.902   8.013  1.2955  0.3551 -1.1158
  901MOL0     H24324   9.555   7.639   8.009  0.9663 -2.1288  1.2768
  901MOL0     H24325   9.319   7.591   8.014 -1.2767  0.6835  2.7058
  901MOL0     H24326   9.065   7.811   7.961  2.5222  1.9283  3.0262
  901MOL0     H24327   8.982   7.672   8.015  1.4326 -0.2969  0.7298
  901MOL0     H24328   8.865   7.895   8.066 -0.7806  1.4400  1.6694
  901MOL0     H24329   9.014   7.955   8.130  0.0289  0.2405  1.9157
  901MOL0     H24330   8.826   7.723   8.238 -3.3671  2.8195 -0.8608
  901MOL0     H24331   8.973   7.789   8.322 -0.2105 -0.2208 -0.5209
  901MOL0     H24332   8.700   7.920   8.261 -0.4675 -5.1260 -0.8272
  901MOL0     H24333   8.851   8.016   8.314  1.7228 -2.1051 -2.1896
  901MOL0     H24334   8.675   7.797   8.652 -0.9900  0.3754 -1.0958
  901MOL0     H24335   9.244   7.913   8.272  0.3185 -1.1575  0.8046
  901MOL0     H24336   9.412   8.041   8.354  0.6754 -0.3384  2.5408
  901MOL0     H24337   9.567   7.974   8.380 -1.1161 -0.4557 -0.7469
  901MOL0     H24338   9.546   8.085   8.244  2.8543 -1.3242 -0.2947
  902MOL0     O24339  10.760   4.708   0.105  0.2068 -0.7453 -0.4794
  902MOL0     C24340  10.784   4.619   0.184  0.2484  0.0891 -1.2169
  902MOL0     O24341  10.805   4.638   0.320 -0.5162  0.1536 -0.6197
  902MOL0     C24342  10.787   4.767   0.368  0.5138 -0.3955  0.6162
  902MOL0     C24343  10.896   4.852   0.351 -0.0564 -1.0443 -0.1740
  902MOL0     C24344  10.884   4.983   0.405  0.0636 -0.3708  0.1645
  902MOL0     C24345  10.764   5.026   0.472 -0.0148  0.6696  0.6236
  902MOL0     O24346  10.745   5.148   0.518  0.2185 -0.4371  0.8236
  902MOL0     C24347  10.638   5.229   0.467  0.0274 -0.2352 -0.5476
  902MOL0     C24348  10.594   5.360   0.538 -0.8991 -0.0604 -0.5547
  902MOL0     C24349  10.697   5.463   0.538 -0.5530  0.1154 -0.3246
  902MOL0     C24350  10.635   5.582   0.616  0.0347 -0.4592 -0.0093
  902MOL0     C24351  10.720   5.717   0.618 -0.6221  1.3951  1.2834
  902MOL0     C24352  10.856   5.697   0.688  0.2612 -0.4068 -0.3195
  902MOL0     C24353  10.936   5.820   0.685 -0.7545 -0.1400  0.2494
  902MOL0     C24354  10.985   5.868   0.546 -0.2049 -0.7594 -0.1863
  902MOL0     N24355  11.112   5.954   0.537 -0.0630  0.3144  0.6629
  902MOL0     C24356  11.240   5.908   0.509  0.0539  0.0541  0.1670
  902MOL0     C24357  11.314   6.017   0.505 -0.5116 -0.2865 -0.1941
  902MOL0     C24358  11.460   6.015   0.459  0.8599  0.8764  1.3176
  902MOL0     C24359  11.536   6.012   0.592  0.6484  0.3435 -0.1215
  902MOL0     C24360  11.688   5.980   0.583 -0.4166  0.4927  0.6119
  902MOL0     C24361  11.764   6.111   0.547  0.7586  0.0865 -1.0072
  902MOL0     O24362  11.725   6.172   0.416  0.4885  1.0350  0.9287
  902MOL0     C24363  11.773   6.293   0.396 -0.0201  0.5963  0.1714
  902MOL0     C24364  11.846   6.377   0.483 -0.3509  0.2635  1.0131
  902MOL0     C24365  11.877   6.511   0.455  0.3453  0.3933 -0.1914
  902MOL0     C24366  11.962   6.594   0.551  0.5204  0.7169  0.3289
  902MOL0     C24367  11.834   6.565   0.331 -0.6502  0.6858 -0.3540
  902MOL0     C24368  11.858   6.712   0.291 -0.0107 -0.3550 -0.1026
  902MOL0     O24369  11.818   6.742   0.159  0.3452 -0.1104  0.0038
  902MOL0     C24370  11.855   6.870   0.124 -0.1435 -0.2052  0.7256
  902MOL0     C24371  11.968   6.894   0.038  0.8332  0.2762  0.3703
  902MOL0     C24372  12.003   7.014  -0.015 -0.7214  0.1249  0.0285
  902MOL0     C24373  11.919   7.117   0.010  0.2441 -0.0563  0.4853
  902MOL0     O24374  11.930   7.235  -0.053  0.2430 -0.4374  0.0359
  902MOL0     C24375  12.035   7.262  -0.153 -0.4584  0.2359  0.3954
  902MOL0     C24376  12.138   7.363  -0.108 -0.2766 -0.0725 -0.3405
  902MOL0     C24377  12.167   7.363   0.044 -0.2495  0.9669  0.5890
  902MOL0     C24378  12.240   7.240   0.107 -0.4241 -0.1160  0.6107
  902MOL0     C24379  12.273   7.272   0.255  0.3085  0.3046  0.5377
  902MOL0     C24380  12.406   7.331   0.281 -0.2474 -0.1543  0.6334
  902MOL0     C24381  12.450   7.318   0.431 -0.1707 -0.7414 -0.9314
  902MOL0     C24382  12.485   7.180   0.470 -0.2474 -0.6326  0.0968
  902MOL0    Cl24383  12.594   7.107   0.349 -0.1711  0.2779  0.2264
  902MOL0     C24384  11.804   7.104   0.104 -0.1262 -0.7448 -0.7278
  902MOL0     C24385  11.776   6.976   0.151  0.6711  0.8046  0.1925
  902MOL0     O24386  11.896   6.797   0.370  0.0816  0.5312  0.2751
  902MOL0     C24387  11.760   6.483   0.245  0.4091 -0.6106  0.1295
  902MOL0     C24388  11.731   6.349   0.275 -0.2518 -0.6891 -0.1082
  902MOL0     N24389  11.243   6.134   0.541  0.1961 -0.0528  0.5749
  902MOL0     N24390  11.122   6.092   0.575  0.8354  0.7840 -0.3424
  902MOL0     C24391  10.665   4.925   0.487 -0.9788 -1.0195 -0.3860
  902MOL0     C24392  10.675   4.804   0.431  0.0954 -1.2523 -0.5283
  902MOL0     C24393  10.776   4.481   0.143 -0.6005  1.0909 -0.4427
  902MOL0     C24394  10.732   4.379   0.243 -0.6822 -0.7489 -0.4340
  902MOL0     C24395  10.746   4.248   0.205  0.1991 -0.0581 -0.2641
  902MOL0     C24396  10.802   4.206   0.079 -1.5034  1.7279  0.0079
  902MOL0     O24397  10.800   4.070   0.024 -0.3107  0.2393  0.1753
  902MOL0     C24398  10.790   3.980   0.127  0.5842 -0.0442 -0.9620
  902MOL0     C24399  10.898   3.968   0.236  0.0515 -0.8822  0.3349
  902MOL0     C24400  11.035   3.942   0.172 -0.9579  0.5649  0.7891
  902MOL0     C24401  11.139   3.904   0.276 -0.1058  1.0230 -0.4378
  902MOL0     C24402  11.161   3.999   0.379  0.0566 -0.7566 -0.7548
  902MOL0     C24403  11.169   4.086   0.464  0.5056 -0.1661  0.5315
  902MOL0     C24404  10.852   4.306  -0.007  0.9270 -0.3188 -0.5603
  902MOL0     C24405  10.836   4.443   0.018  0.3722  0.7166 -0.1470
  902MOL0     C24406  10.903   4.532  -0.080  0.2768  0.6467 -0.2931
  902MOL0     H24407  10.987   4.812   0.308  0.0589  0.8767 -1.8511
  902MOL0     H24408  10.968   5.052   0.402  0.5981 -1.0454 -1.0281
  902MOL0     H24409  10.550   5.164   0.464 -1.7774  1.8923  1.8637
  902MOL0     H24410  10.664   5.247   0.363 -0.2506  1.0984 -0.3944
  902MOL0     H24411  10.499   5.394   0.495 -0.8048 -0.7971 -1.3809
  902MOL0     H24412  10.570   5.324   0.639  0.9124 -3.8813 -1.2918
  902MOL0     H24413  10.792   5.428   0.581 -0.9959  0.6955  1.1793
  902MOL0     H24414  10.728   5.494   0.438  1.0040  0.2445  0.1616
  902MOL0     H24415  10.536   5.608   0.579  0.1281  1.2349  0.8304
  902MOL0     H24416  10.629   5.570   0.725  0.6746  3.7723  0.6702
  902MOL0     H24417  10.666   5.801   0.663 -0.4215  1.5653  1.2069
  902MOL0     H24418  10.747   5.740   0.514  0.6183 -0.5251  1.1204
  902MOL0     H24419  10.835   5.675   0.793  1.2191 -1.0755 -0.2600
  902MOL0     H24420  10.914   5.612   0.652  2.3356 -0.2341  2.2675
  902MOL0     H24421  11.025   5.789   0.741 -0.5481 -2.2161 -1.1157
  902MOL0     H24422  10.887   5.902   0.738 -1.4230 -0.8513  0.7547
  902MOL0     H24423  11.003   5.790   0.471  0.0793  1.1113 -2.1892
  902MOL0     H24424  10.901   5.931   0.514  0.0327 -0.1058  0.4405
  902MOL0     H24425  11.282   5.808   0.496 -1.7899 -0.7086 -0.1435
  902MOL0     H24426  11.487   6.098   0.393  0.0157  0.8695  0.9417
  902MOL0     H24427  11.483   5.927   0.398  0.2344  2.2130 -1.0155
  902MOL0     H24428  11.510   6.103   0.647 -0.0413 -0.9580  1.8097
  902MOL0     H24429  11.484   5.928   0.640  0.6728  0.3726 -0.0429
  902MOL0     H24430  11.730   5.970   0.683  0.7465 -0.0892  0.0872
  902MOL0     H24431  11.725   5.890   0.534 -1.3662 -0.9413  2.4227
  902MOL0     H24432  11.749   6.179   0.632  1.7613  0.4916 -1.1486
  902MOL0     H24433  11.872   6.093   0.550  1.3650  3.2396  0.2219
  902MOL0     H24434  11.867   6.339   0.582  0.7537  2.4296  1.6736
  902MOL0     H24435  12.061   6.622   0.514 -0.1498  0.6838 -1.5999
  902MOL0     H24436  11.980   6.538   0.643 -0.2028  0.1538  0.1367
  902MOL0     H24437  11.908   6.686   0.575 -1.3234 -0.0711 -0.5955
  902MOL0     H24438  12.032   6.808   0.018 -0.7547 -0.7169 -0.6658
  902MOL0     H24439  12.093   7.015  -0.075 -2.6464  0.1001 -3.0864
  902MOL0     H24440  12.082   7.178  -0.205  1.8229  1.9802 -0.5338
  902MOL0     H24441  11.986   7.311  -0.238 -1.8241  0.0521  1.0566
  902MOL0     H24442  12.233   7.336  -0.155  0.9580  0.3486  1.7659
  902MOL0     H24443  12.113   7.467  -0.131  0.7875  0.4481  0.7305
  902MOL0     H24444  12.075   7.386   0.097  0.1393  0.7263  1.3861
  902MOL0     H24445  12.238   7.446   0.057  1.7687 -0.5942  0.0961
  902MOL0     H24446  12.330   7.230   0.047 -0.5729 -1.2475  0.5681
  902MOL0     H24447  12.195   7.141   0.095 -0.2824 -0.8834  4.7600
  902MOL0     H24448  12.209   7.349   0.299  3.1577  1.8371  2.2975
  902MOL0     H24449  12.269   7.180   0.314 -1.5038  1.0305  1.6642
  902MOL0     H24450  12.396   7.439   0.269 -1.1212 -0.2997 -0.1042
  902MOL0     H24451  12.478   7.299   0.205 -0.0994  0.5716  0.4656
  902MOL0     H24452  12.369   7.361   0.490  0.6028 -1.4552  0.7305
  902MOL0     H24453  12.547   7.363   0.455 -0.1887 -1.9897  1.8176
  902MOL0     H24454  12.394   7.119   0.479 -2.9534  3.0176 -0.2176
  902MOL0     H24455  12.527   7.174   0.571 -1.8465  0.0963  0.8343
  902MOL0     H24456  11.750   7.193   0.135 -0.5065 -0.5212 -1.9718
  902MOL0     H24457  11.691   6.957   0.216  1.7188 -0.8283  1.1604
  902MOL0     H24458  11.711   6.524   0.158 -1.4953  1.3636  1.9899
  902MOL0     H24459  11.675   6.304   0.194 -1.2434  0.0354  0.1486
  902MOL0     H24460  10.584   4.944   0.557  0.4052  0.1360  0.9694
  902MOL0     H24461  10.599   4.726   0.435 -0.0065 -1.1333 -0.1426
  902MOL0     H24462  10.677   4.405   0.332  1.7466 -0.5178  1.0733
  902MOL0     H24463  10.705   4.176   0.276  0.2143 -0.4322 -0.6282
  902MOL0     H24464  10.695   4.007   0.174  0.0729 -0.2087 -1.8551
  902MOL0     H24465  10.760   3.886   0.079 -3.1555  0.2055  0.5539
  902MOL0     H24466  10.879   3.880   0.298 -1.4283  0.0731  1.3063
  902MOL0     H24467  10.897   4.056   0.301 -1.4615 -1.8380  1.6879
  902MOL0     H24468  11.021   3.864   0.097  0.1196  0.2808  0.8664
  902MOL0     H24469  11.081   4.031   0.130 -0.9456  0.4192  0.4934
  902MOL0     H24470  11.239   3.881   0.238  1.0072  1.7178  1.8600
  902MOL0     H24471  11.108   3.807   0.316  1.4571  1.4898  2.1120
  902MOL0     H24472  11.186   4.169   0.530 -2.5000  0.8849  0.1521
  902MOL0     H24473  10.902   4.284  -0.101  3.7365  1.1233  0.4754
  902MOL0     H24474  10.922   4.631  -0.037 -0.7669 -0.2683  2.4989
  902MOL0     H24475  10.997   4.485  -0.108  0.7907  1.8230 -0.5897
  902MOL0     H24476  10.836   4.543  -0.166 -0.6849 -0.8131  0.2312
  903MOL0     O24477   5.944   1.366   2.561  1.0887 -0.4105  0.0221
  903MOL0     C24478   5.979   1.292   2.465 -0.1348 -0.5501 -0.8564
  903MOL0     O24479   5.902   1.255   2.355  0.6325 -0.6330  0.7764
  903MOL0     C24480   5.773   1.298   2.322 -0.2064 -0.6851 -0.1515
  903MOL0     C24481   5.692   1.389   2.397  1.1294 -0.2438  0.0019
  903MOL0     C24482   5.556   1.412   2.368 -0.0815  0.8119 -0.5093
  903MOL0     C24483   5.492   1.326   2.272 -0.3977 -0.0936 -0.4127
  903MOL0     O24484   5.359   1.344   2.243 -0.8301 -0.3134 -0.2725
  903MOL0     C24485   5.325   1.325   2.101 -0.5019 -0.1072 -0.2945
  903MOL0     C24486   5.183   1.342   2.062  0.8127  1.1443  0.2957
  903MOL0     C24487   5.087   1.237   2.105  0.6747  0.6017  0.6762
  903MOL0     C24488   5.021   1.267   2.238  0.6138  0.0467 -0.0756
  903MOL0     C24489   4.938   1.388   2.261  0.5877 -0.6814  0.0482
  903MOL0     C24490   4.943   1.425   2.409 -0.3083  0.5597 -0.2004
  903MOL0     C24491   4.845   1.546   2.454  1.1234  0.4749 -0.1054
  903MOL0     C24492   4.902   1.687   2.432  0.0108 -0.9106  0.6578
  903MOL0     N24493   4.806   1.799   2.457  0.9863 -0.1941 -0.1569
  903MOL0     C24494   4.712   1.850   2.370  0.3427 -0.0448  0.0247
  903MOL0     C24495   4.643   1.937   2.447  0.7059  0.0545  1.0278
  903MOL0     C24496   4.538   2.035   2.401  0.2391 -0.1437 -0.1513
  903MOL0     C24497   4.439   2.085   2.503 -0.0817 -0.5214  0.3765
  903MOL0     C24498   4.345   1.990   2.577 -0.1053  1.0947  0.5732
  903MOL0     C24499   4.216   1.956   2.502 -0.5975  0.3874 -0.9511
  903MOL0     O24500   4.107   2.044   2.548  0.8334  0.9763 -0.0950
  903MOL0     C24501   3.976   1.992   2.547  0.5444  0.5170  0.0986
  903MOL0     C24502   3.873   2.046   2.627 -0.9148 -0.0383  0.6995
  903MOL0     C24503   3.739   2.013   2.602 -0.2964 -1.2412 -0.1757
  903MOL0     C24504   3.651   2.092   2.692  0.0401  0.1823 -0.4829
  903MOL0     C24505   3.708   1.903   2.510 -0.0476 -0.3806  0.3639
  903MOL0     C24506   3.568   1.849   2.499 -0.2947 -0.3245 -0.9179
  903MOL0     O24507   3.530   1.812   2.372  0.3896 -0.3564 -0.3507
  903MOL0     C24508   3.413   1.733   2.361 -0.3341  0.1059  0.2183
  903MOL0     C24509   3.291   1.794   2.317  0.6622 -0.6672 -0.3932
  903MOL0     C24510   3.180   1.710   2.306 -0.3576 -1.3046  0.8392
  903MOL0     C24511   3.182   1.572   2.332 -0.7834 -1.2103  0.5194
  903MOL0     O24512   3.073   1.492   2.297 -0.6888  0.3713 -0.2230
  903MOL0     C24513   2.948   1.514   2.360 -0.9342 -0.4840 -0.0907
  903MOL0     C24514   2.846   1.429   2.295  0.5567  0.1137 -0.4802
  903MOL0     C24515   2.816   1.466   2.152  0.6471  0.3367  0.2244
  903MOL0     C24516   2.787   1.613   2.120 -0.0243  0.4152  0.1240
  903MOL0     C24517   2.743   1.644   1.978  0.5465  0.3208  1.0163
  903MOL0     C24518   2.808   1.554   1.867 -0.0309 -0.1954 -0.2551
  903MOL0     C24519   2.804   1.622   1.723  0.4617  0.9156  0.5017
  903MOL0     C24520   2.911   1.554   1.629  0.2997 -0.5468 -0.0570
  903MOL0    Cl24521   2.888   1.629   1.470 -0.0963 -0.6917 -0.1977
  903MOL0     C24522   3.306   1.512   2.367 -0.5162 -0.3264  0.8865
  903MOL0     C24523   3.422   1.598   2.381  0.0914 -0.3763  0.2258
  903MOL0     O24524   3.499   1.842   2.600  0.5415  0.1910  0.2112
  903MOL0     C24525   3.811   1.848   2.441 -1.0403 -0.2535  0.7957
  903MOL0     C24526   3.943   1.893   2.454  1.1765 -0.2054 -0.0172
  903MOL0     N24527   4.680   1.927   2.577 -0.3919  0.1523  0.1979
  903MOL0     N24528   4.779   1.851   2.583 -0.3618 -0.2901  0.6532
  903MOL0     C24529   5.566   1.224   2.204  0.5625 -0.7383  0.7431
  903MOL0     C24530   5.707   1.219   2.227  0.4403 -0.3137 -0.5218
  903MOL0     C24531   6.110   1.238   2.455 -0.9498  0.5927 -0.1764
  903MOL0     C24532   6.137   1.097   2.434 -0.4138  0.4449  1.0915
  903MOL0     C24533   6.260   1.037   2.423 -0.0720  0.7557  0.1511
  903MOL0     C24534   6.365   1.109   2.471 -0.7211  0.0194  0.1184
  903MOL0     O24535   6.497   1.062   2.477  0.1214  0.1905  0.4093
  903MOL0     C24536   6.547   1.043   2.611  1.0699  0.1278  0.8087
  903MOL0     C24537   6.678   0.969   2.599 -0.2696 -0.0492  0.2021
  903MOL0     C24538   6.638   0.819   2.577 -0.0879 -0.4395  0.4016
  903MOL0     C24539   6.585   0.745   2.705 -0.8682 -0.7540  1.6473
  903MOL0     C24540   6.575   0.601   2.678  0.7235 -0.0451  0.1562
  903MOL0     C24541   6.573   0.476   2.660 -0.8975  0.3672  0.5497
  903MOL0     C24542   6.353   1.244   2.503 -0.2901  0.5952 -0.0450
  903MOL0     C24543   6.225   1.302   2.506 -2.0842 -0.4647  0.2138
  903MOL0     C24544   6.223   1.454   2.536 -0.0447  0.9322  0.5714
  903MOL0     H24545   5.741   1.447   2.475  0.5688  1.8762 -1.1303
  903MOL0     H24546   5.489   1.486   2.410  0.7422  1.2266  0.1096
  903MOL0     H24547   5.344   1.219   2.079 -0.1555 -0.5556  1.9182
  903MOL0     H24548   5.382   1.395   2.040 -3.5380  1.6441 -1.3521
  903MOL0     H24549   5.152   1.439   2.104 -0.7813  0.7520  0.0954
  903MOL0     H24550   5.178   1.346   1.953 -0.1851  3.2642  0.3697
  903MOL0     H24551   5.015   1.230   2.023  0.5333 -0.8128  0.8966
  903MOL0     H24552   5.140   1.142   2.108 -2.0992 -1.2695 -2.4345
  903MOL0     H24553   4.952   1.182   2.248  1.5066 -1.3461 -3.9402
  903MOL0     H24554   5.086   1.255   2.325 -2.3433 -2.1271  2.0412
  903MOL0     H24555   4.838   1.384   2.217  1.3146 -0.3143 -1.7142
  903MOL0     H24556   4.984   1.473   2.210 -0.6727  0.4993  0.8073
  903MOL0     H24557   4.898   1.340   2.463 -1.1403  2.5232  2.4167
  903MOL0     H24558   5.048   1.444   2.433  0.2659  0.7305 -2.6688
  903MOL0     H24559   4.824   1.536   2.561  2.2752 -0.3850  0.0635
  903MOL0     H24560   4.745   1.530   2.412  0.8802  1.0111  0.2647
  903MOL0     H24561   4.982   1.705   2.505  0.4876  0.4476 -0.1515
  903MOL0     H24562   4.947   1.696   2.333 -1.7526  1.7559  0.0062
  903MOL0     H24563   4.698   1.833   2.264  1.7091 -2.3111  0.1355
  903MOL0     H24564   4.481   1.990   2.319  2.1283 -2.4349 -0.3026
  903MOL0     H24565   4.583   2.127   2.364  1.5856  0.4750  2.7744
  903MOL0     H24566   4.502   2.134   2.578 -1.5606 -1.6672  2.5007
  903MOL0     H24567   4.369   2.158   2.462  0.4347  0.5228  1.3031
  903MOL0     H24568   4.388   1.890   2.593 -2.9192 -1.2629 -4.3407
  903MOL0     H24569   4.322   2.034   2.674 -2.7080 -0.0673  0.5671
  903MOL0     H24570   4.231   1.951   2.394  0.3450  3.5908 -1.0887
  903MOL0     H24571   4.206   1.855   2.541 -0.4915  0.2333 -1.3201
  903MOL0     H24572   3.887   2.120   2.705  0.1886 -0.3721  0.8391
  903MOL0     H24573   3.632   2.051   2.792 -1.0162  2.7398  0.4278
  903MOL0     H24574   3.550   2.106   2.652 -0.7364  1.2836  1.6976
  903MOL0     H24575   3.701   2.187   2.709  2.8639 -0.5233 -3.6953
  903MOL0     H24576   3.276   1.900   2.302 -1.9655 -0.0812  4.3154
  903MOL0     H24577   3.084   1.737   2.264 -1.4491 -3.8033  1.5657
  903MOL0     H24578   2.954   1.477   2.463 -2.3768  0.1299  0.2436
  903MOL0     H24579   2.918   1.619   2.356  0.8148  0.0176 -0.7540
  903MOL0     H24580   2.880   1.326   2.284 -1.4440 -0.6729  0.3086
  903MOL0     H24581   2.752   1.432   2.350 -0.7161  2.0026 -2.5735
  903MOL0     H24582   2.733   1.404   2.115  0.8408 -1.5256  2.6891
  903MOL0     H24583   2.898   1.434   2.087 -1.9242 -2.3319 -2.0029
  903MOL0     H24584   2.882   1.665   2.139  0.5406 -1.5809  3.7637
  903MOL0     H24585   2.721   1.648   2.201  1.7125 -0.8384  2.1948
  903MOL0     H24586   2.635   1.630   1.968  0.1682  1.0981  3.4090
  903MOL0     H24587   2.768   1.749   1.956 -0.0785  0.3783  0.5516
  903MOL0     H24588   2.749   1.462   1.863  0.4046 -0.6643  2.3633
  903MOL0     H24589   2.902   1.511   1.901 -0.7766 -0.9337  0.9595
  903MOL0     H24590   2.835   1.724   1.745  2.2719  0.1551  1.7121
  903MOL0     H24591   2.705   1.618   1.676  0.4070  1.1313  0.5962
  903MOL0     H24592   2.887   1.449   1.610  0.1231 -0.3922 -0.7071
  903MOL0     H24593   3.012   1.561   1.671 -0.2307 -1.1813  1.3988
  903MOL0     H24594   3.320   1.406   2.385  3.2973  0.3781  3.0508
  903MOL0     H24595   3.521   1.560   2.407 -0.7456 -0.8404  3.1117
  903MOL0     H24596   3.774   1.777   2.368  1.8014  0.3404 -1.4223
  903MOL0     H24597   4.019   1.842   2.397 -0.5439 -1.0460 -1.6752
  903MOL0     H24598   5.533   1.153   2.128  0.2111 -0.5468  0.7147
  903MOL0     H24599   5.764   1.146   2.170 -0.3211 -0.4054 -1.1819
  903MOL0     H24600   6.042   1.045   2.426 -0.2256  0.4008 -1.8821
  903MOL0     H24601   6.276   0.932   2.399  3.3864 -0.8210  6.8371
  903MOL0     H24602   6.547   1.140   2.662 -1.5275  0.4607  0.3008
  903MOL0     H24603   6.467   0.987   2.659  1.8523 -1.4640  0.3321
  903MOL0     H24604   6.736   0.984   2.691 -0.7544  1.6933  0.2774
  903MOL0     H24605   6.736   1.019   2.521 -2.0202  3.2109  0.7993
  903MOL0     H24606   6.564   0.800   2.499  0.1883  0.6339 -0.1371
  903MOL0     H24607   6.727   0.764   2.545  0.2514  0.1758  0.2754
  903MOL0     H24608   6.482   0.777   2.725 -0.8477 -0.7183  1.6977
  903MOL0     H24609   6.640   0.772   2.796 -2.3315 -0.8267  2.5916
  903MOL0     H24610   6.575   0.371   2.640 -0.8481 -0.1166  2.8543
  903MOL0     H24611   6.439   1.303   2.532  1.9852 -1.8352 -1.3212
  903MOL0     H24612   6.177   1.502   2.449 -0.4848  0.0816  0.3244
  903MOL0     H24613   6.165   1.483   2.623 -0.2444  2.1054  0.0638
  903MOL0     H24614   6.324   1.492   2.553  0.2301 -0.7936  3.5302
  904MOL0     O24615  11.305   8.867   6.881 -0.1059 -0.1709 -0.0410
  904MOL0     C24616  11.345   8.876   6.999 -0.7190 -0.0939  0.0878
  904MOL0     O24617  11.354   8.771   7.088  0.1487 -0.4497 -0.1414
  904MOL0     C24618  11.421   8.781   7.208 -0.2371 -0.4924 -0.2589
  904MOL0     C24619  11.366   8.747   7.330  0.0917  1.0433 -0.9427
  904MOL0     C24620  11.450   8.740   7.448  0.6410 -0.2036  0.1783
  904MOL0     C24621  11.582   8.783   7.440  0.2259 -1.1209 -0.1979
  904MOL0     O24622  11.650   8.797   7.557 -0.2698  0.7870  1.2101
  904MOL0     C24623  11.791   8.826   7.553 -0.5311 -0.6505  0.2373
  904MOL0     C24624  11.888   8.713   7.530 -0.4960  0.7201  0.5059
  904MOL0     C24625  11.873   8.635   7.404 -0.3214 -0.3764 -1.9721
  904MOL0     C24626  11.974   8.505   7.405 -0.1394  0.1357  0.2584
  904MOL0     C24627  11.930   8.408   7.296 -0.0623 -0.3230  0.1874
  904MOL0     C24628  11.998   8.270   7.292  0.9014  0.8001 -0.7270
  904MOL0     C24629  11.985   8.201   7.151  0.4371 -0.4657  0.1105
  904MOL0     C24630  11.848   8.125   7.143  0.6210  0.5575  0.1503
  904MOL0     N24631  11.830   8.023   7.030  0.1245  0.0783  0.1917
  904MOL0     C24632  11.931   7.979   6.944  0.3907 -1.0942 -0.0856
  904MOL0     C24633  11.874   7.887   6.868  0.6658 -0.6676  1.1017
  904MOL0     C24634  11.949   7.809   6.764 -0.7632  0.1785 -0.2144
  904MOL0     C24635  11.957   7.871   6.622 -0.0512  1.0472  0.5359
  904MOL0     C24636  12.040   7.790   6.512  0.1373  0.4432  0.5751
  904MOL0     C24637  12.028   7.879   6.379 -0.4597  0.3224  0.5132
  904MOL0     O24638  12.146   7.853   6.289  0.7489  0.9118 -0.5854
  904MOL0     C24639  12.168   7.951   6.198 -0.5073  0.0420  0.4818
  904MOL0     C24640  12.073   8.044   6.164 -0.0667 -0.9156 -0.1631
  904MOL0     C24641  12.106   8.139   6.065  0.2240  0.6627  0.6152
  904MOL0     C24642  11.989   8.234   6.033 -0.0345 -0.3606  0.0459
  904MOL0     C24643  12.226   8.131   5.979  0.3385  0.2963 -1.0150
  904MOL0     C24644  12.263   8.233   5.879 -0.0189  0.9611  0.0444
  904MOL0     O24645  12.316   8.192   5.759 -0.3722  0.3631  0.7366
  904MOL0     C24646  12.348   8.293   5.679  0.6467 -0.7984  0.7532
  904MOL0     C24647  12.252   8.339   5.588 -0.4655  0.9488  0.7747
  904MOL0     C24648  12.283   8.422   5.481  0.5196  0.1158  0.6775
  904MOL0     C24649  12.421   8.457   5.455  0.1460  0.2901  0.1358
  904MOL0     O24650  12.465   8.525   5.345 -0.1146 -0.8301  0.4073
  904MOL0     C24651  12.368   8.546   5.232 -0.0865 -0.2342  0.2124
  904MOL0     C24652  12.451   8.582   5.110  0.9524 -0.3460  0.6083
  904MOL0     C24653  12.570   8.683   5.134 -0.1766 -0.7148  1.1380
  904MOL0     C24654  12.715   8.639   5.087  0.5430 -0.1919  0.2697
  904MOL0     C24655  12.756   8.510   5.147 -0.3668 -0.1250 -0.4007
  904MOL0     C24656  12.770   8.511   5.299 -1.4890 -1.0625 -0.0185
  904MOL0     C24657  12.910   8.575   5.328  0.5199 -0.2825 -0.2949
  904MOL0     C24658  12.972   8.544   5.468 -0.6429  1.0559 -0.2041
  904MOL0    Cl24659  12.855   8.574   5.607 -0.3719  0.1300 -0.3827
  904MOL0     C24660  12.514   8.412   5.555 -0.1364  1.0656  0.2583
  904MOL0     C24661  12.479   8.327   5.666  0.4990  0.5503 -0.3844
  904MOL0     O24662  12.277   8.347   5.929 -0.1633 -0.6223  0.3944
  904MOL0     C24663  12.318   8.025   6.014 -0.8843 -0.0387  0.1825
  904MOL0     C24664  12.290   7.942   6.123 -0.1494 -0.0151  0.7355
  904MOL0     N24665  11.745   7.889   6.879 -0.1410  0.0752  0.7712
  904MOL0     N24666  11.716   7.971   6.972 -0.3045  0.2220  0.1073
  904MOL0     C24667  11.627   8.839   7.319  0.0441  0.5509  1.1613
  904MOL0     C24668  11.554   8.825   7.201 -0.3595  0.8608 -0.3993
  904MOL0     C24669  11.386   9.012   7.034 -0.1176 -0.5902  1.2357
  904MOL0     C24670  11.311   9.075   7.135 -0.1018  0.1769  0.0739
  904MOL0     C24671  11.346   9.205   7.181  0.3620  0.1558 -0.3667
  904MOL0     C24672  11.447   9.277   7.121  0.1590  0.1945 -0.3507
  904MOL0     O24673  11.490   9.404   7.154  1.0105  0.0806  0.1300
  904MOL0     C24674  11.405   9.482   7.241  0.5328 -0.4844 -0.4707
  904MOL0     C24675  11.284   9.537   7.159  1.9839  0.5350 -0.0261
  904MOL0     C24676  11.168   9.576   7.255  0.0459  0.0465  0.2616
  904MOL0     C24677  11.050   9.635   7.172 -0.2826  0.7093 -0.0016
  904MOL0     C24678  11.068   9.769   7.125 -0.2695 -0.2786  0.2955
  904MOL0     C24679  11.108   9.876   7.083  0.0584 -0.5218 -0.6893
  904MOL0     C24680  11.508   9.221   7.006  0.1069 -0.2408 -0.0279
  904MOL0     C24681  11.478   9.099   6.958  0.6436  0.2450 -0.1337
  904MOL0     C24682  11.544   9.047   6.830  0.3345  0.4575  0.9337
  904MOL0     H24683  11.264   8.710   7.340  1.3158 -2.5520 -0.4577
  904MOL0     H24684  11.401   8.712   7.541 -0.8334  0.0616 -0.4987
  904MOL0     H24685  11.815   8.856   7.656  0.9362 -1.8748  0.3027
  904MOL0     H24686  11.821   8.909   7.489  1.0394 -2.0881 -1.0109
  904MOL0     H24687  11.982   8.770   7.526 -0.8281  1.7153  3.8779
  904MOL0     H24688  11.886   8.647   7.617 -1.1539 -2.6932 -1.8814
  904MOL0     H24689  11.769   8.602   7.392 -1.7283  2.6198  0.5931
  904MOL0     H24690  11.919   8.707   7.336  0.9516 -0.0818 -0.8307
  904MOL0     H24691  12.070   8.547   7.376 -1.1722  1.7097 -1.0413
  904MOL0     H24692  11.978   8.444   7.496 -1.4159  0.2475  0.4171
  904MOL0     H24693  11.951   8.451   7.197  2.1039  0.7809  1.0712
  904MOL0     H24694  11.822   8.399   7.281  0.3295 -2.5358 -1.9691
  904MOL0     H24695  12.106   8.259   7.306  0.7548 -3.9734 -1.7891
  904MOL0     H24696  11.956   8.214   7.376  0.9913  0.0396 -1.1836
  904MOL0     H24697  12.069   8.136   7.126  0.0517 -1.0638  0.3266
  904MOL0     H24698  11.994   8.272   7.069 -1.7964 -1.3378 -0.9886
  904MOL0     H24699  11.828   8.081   7.241  0.1507  1.3752  0.4356
  904MOL0     H24700  11.774   8.205   7.132  1.6553  1.3646 -1.3930
  904MOL0     H24701  12.025   8.030   6.921 -0.4777  1.4658  1.5496
  904MOL0     H24702  11.908   7.708   6.768 -0.0219 -0.1061  0.3837
  904MOL0     H24703  12.053   7.806   6.796 -1.0334 -1.8619  0.6429
  904MOL0     H24704  11.857   7.895   6.585 -0.0723  2.4278  1.3967
  904MOL0     H24705  12.009   7.966   6.637 -0.1917  1.0586  0.9841
  904MOL0     H24706  12.143   7.793   6.547 -0.0504  3.3611  1.1702
  904MOL0     H24707  12.009   7.689   6.483 -1.3935  1.0519 -0.0464
  904MOL0     H24708  11.936   7.850   6.329 -0.2445  0.4742  0.0279
  904MOL0     H24709  12.027   7.982   6.417  1.8991  0.3483  0.6940
  904MOL0     H24710  11.971   8.050   6.202  0.1716 -1.6531  0.6222
  904MOL0     H24711  12.015   8.333   6.071 -0.8099  0.3552 -1.2311
  904MOL0     H24712  11.904   8.190   6.085 -0.7289  1.5397  0.5928
  904MOL0     H24713  11.973   8.249   5.926  2.3525  3.9167  0.0807
  904MOL0     H24714  12.147   8.310   5.594  0.1153 -2.2194 -1.4907
  904MOL0     H24715  12.198   8.458   5.425 -0.8663 -2.1121  1.1877
  904MOL0     H24716  12.308   8.462   5.198  1.0938 -0.1805 -2.1752
  904MOL0     H24717  12.300   8.622   5.271 -1.5174 -2.1150  1.5788
  904MOL0     H24718  12.485   8.487   5.069 -1.1638 -2.3267  3.0331
  904MOL0     H24719  12.385   8.639   5.044  1.0663  1.0606  1.6495
  904MOL0     H24720  12.573   8.725   5.235  1.3581 -1.1155  1.2885
  904MOL0     H24721  12.556   8.768   5.067  0.8742 -0.1444  1.6129
  904MOL0     H24722  12.799   8.705   5.111  0.5243 -0.3775  0.8692
  904MOL0     H24723  12.709   8.631   4.978  0.2545 -1.4867  0.3589
  904MOL0     H24724  12.673   8.443   5.124  0.3147 -0.0395 -3.5530
  904MOL0     H24725  12.854   8.482   5.106  0.2334 -0.7681  1.3581
  904MOL0     H24726  12.769   8.408   5.338 -1.4103 -0.7027  0.9477
  904MOL0     H24727  12.693   8.562   5.357 -0.8896 -0.3428  0.1659
  904MOL0     H24728  12.914   8.682   5.306 -1.3603  0.3776  2.1999
  904MOL0     H24729  12.978   8.516   5.266 -0.2734 -2.2823  0.6729
  904MOL0     H24730  13.065   8.602   5.477 -1.1076  2.1287 -1.9004
  904MOL0     H24731  12.994   8.437   5.469 -0.2970  1.1273  0.1614
  904MOL0     H24732  12.616   8.444   5.533 -0.1474  1.1517  0.3310
  904MOL0     H24733  12.558   8.278   5.721  1.0614  0.1466 -1.5205
  904MOL0     H24734  12.413   8.007   5.964 -2.0682 -0.1321 -2.1852
  904MOL0     H24735  12.353   7.857   6.146  0.8795  0.1882 -1.1225
  904MOL0     H24736  11.727   8.881   7.315 -0.6558  2.1787 -2.1368
  904MOL0     H24737  11.603   8.836   7.105 -1.2073 -0.7030 -1.0418
  904MOL0     H24738  11.236   9.017   7.187  1.1956 -0.7155  1.0265
  904MOL0     H24739  11.290   9.244   7.265 -1.2023 -0.4990 -1.0628
  904MOL0     H24740  11.369   9.436   7.334 -3.9995  3.2248 -0.0328
  904MOL0     H24741  11.469   9.560   7.286 -0.7123 -0.2507  0.9799
  904MOL0     H24742  11.241   9.469   7.086 -1.3400  0.1703  2.0601
  904MOL0     H24743  11.326   9.626   7.110  3.2400 -0.3691 -0.6489
  904MOL0     H24744  11.146   9.492   7.321 -0.8839 -1.1164 -1.4376
  904MOL0     H24745  11.216   9.661   7.304 -2.0934  1.5798 -0.1880
  904MOL0     H24746  10.966   9.614   7.239 -0.6254  1.1656 -0.2831
  904MOL0     H24747  11.023   9.582   7.080 -0.1155 -0.1508  0.4332
  904MOL0     H24748  11.121   9.970   7.035 -4.4006  0.1744 -0.9457
  904MOL0     H24749  11.593   9.270   6.961  1.3350 -2.3127 -0.1030
  904MOL0     H24750  11.579   8.945   6.850  2.6679  0.9664 -0.2368
  904MOL0     H24751  11.470   9.057   6.750  2.5955  1.1945 -1.1846
  904MOL0     H24752  11.631   9.103   6.796  2.5994 -3.4698 -0.4469
  905MOL0     O24753  11.532   9.395   2.803 -0.2015  0.9358  0.1317
  905MOL0     C24754  11.437   9.312   2.795 -0.0571  0.1060 -0.8226
  905MOL0     O24755  11.308   9.331   2.846 -0.0095  0.6634  0.7515
  905MOL0     C24756  11.272   9.431   2.925  0.1145  0.9020  0.2887
  905MOL0     C24757  11.198   9.546   2.881 -0.9106 -0.1966  0.2020
  905MOL0     C24758  11.152   9.644   2.975 -0.7861 -0.2982 -0.0061
  905MOL0     C24759  11.183   9.635   3.110  0.1681  0.1265 -0.2432
  905MOL0     O24760  11.144   9.718   3.217 -0.1544  0.3931  0.1803
  905MOL0     C24761  11.039   9.807   3.187  0.5594  0.1611 -0.0646
  905MOL0     C24762  11.042   9.907   3.301  0.3342 -0.1283 -1.5483
  905MOL0     C24763  11.170   9.989   3.313 -0.4027 -0.9309 -0.5057
  905MOL0     C24764  11.185  10.052   3.458  0.8410 -1.0972  0.2676
  905MOL0     C24765  11.327  10.094   3.481  0.0184 -0.8151 -1.2077
  905MOL0     C24766  11.430   9.981   3.508  0.6704 -0.3216  0.6817
  905MOL0     C24767  11.383   9.857   3.597  0.5907 -1.0578  0.1218
  905MOL0     C24768  11.489   9.755   3.628 -0.7977  0.1914  0.9903
  905MOL0     N24769  11.609   9.796   3.693 -1.1891 -0.2172 -0.0254
  905MOL0     C24770  11.704   9.882   3.631 -0.5464  0.2564  0.4199
  905MOL0     C24771  11.780   9.928   3.729  0.7045  0.3978 -0.1528
  905MOL0     C24772  11.877  10.042   3.715 -0.3289 -0.1457 -0.5482
  905MOL0     C24773  11.991  10.037   3.822  0.4348 -0.0402 -0.4815
  905MOL0     C24774  12.045  10.179   3.835  0.3644 -0.7278  0.4903
  905MOL0     C24775  11.954  10.265   3.922  0.0523  0.0945  0.2526
  905MOL0     O24776  12.008  10.395   3.935 -0.5433  0.0720 -0.1759
  905MOL0     C24777  12.114  10.418   4.022 -0.6702 -0.4281 -0.2624
  905MOL0     C24778  12.154  10.551   4.039  0.0686 -0.5195  0.5436
  905MOL0     C24779  12.260  10.600   4.121  0.2847 -0.0275  0.0288
  905MOL0     C24780  12.295  10.750   4.116 -0.2062  0.0285 -1.4025
  905MOL0     C24781  12.312  10.505   4.219  0.0854 -0.0884 -0.6082
  905MOL0     C24782  12.410  10.546   4.325  0.5991  0.4293 -0.7053
  905MOL0     O24783  12.468  10.666   4.327  0.2335  0.7996 -0.6239
  905MOL0     C24784  12.579  10.687   4.398  0.7935 -0.3138 -0.7523
  905MOL0     C24785  12.683  10.607   4.375  0.7715 -0.3883  0.4247
  905MOL0     C24786  12.802  10.628   4.456 -0.3424  0.4720 -0.4000
  905MOL0     C24787  12.821  10.741   4.549 -0.1228  0.8511  0.4135
  905MOL0     O24788  12.943  10.763   4.614 -0.0210  0.4493  0.7671
  905MOL0     C24789  13.057  10.738   4.525  0.4634  0.4628  0.8681
  905MOL0     C24790  13.172  10.806   4.593 -0.2889  0.3051  1.4145
  905MOL0     C24791  13.172  10.956   4.569  0.3849  1.1574  0.2170
  905MOL0     C24792  13.283  11.029   4.631 -0.3122 -0.0078 -0.1809
  905MOL0     C24793  13.271  11.187   4.617  0.3173 -0.4369 -1.0747
  905MOL0     C24794  13.298  11.233   4.475  0.8926 -0.5867  0.3451
  905MOL0     C24795  13.223  11.365   4.451 -0.0763 -0.5448  0.2258
  905MOL0     C24796  13.237  11.431   4.312  0.0025  0.7045  0.8740
  905MOL0    Cl24797  13.392  11.522   4.296 -0.1707 -0.3636  0.6225
  905MOL0     C24798  12.700  10.813   4.571 -0.8956  0.4936 -0.3182
  905MOL0     C24799  12.583  10.786   4.496  0.5017 -0.2897  0.2190
  905MOL0     O24800  12.435  10.456   4.410 -0.2387 -0.6307 -1.2798
  905MOL0     C24801  12.251  10.383   4.223  0.2840 -0.1257 -0.8477
  905MOL0     C24802  12.160  10.337   4.126  1.1796  0.6712  0.0277
  905MOL0     N24803  11.735   9.856   3.842  0.1329  0.1822 -0.7698
  905MOL0     N24804  11.640   9.781   3.823 -0.9039  0.3475 -0.2483
  905MOL0     C24805  11.262   9.521   3.152  0.6312  0.2434 -0.5476
  905MOL0     C24806  11.312   9.422   3.054  0.2716  0.8234  0.1618
  905MOL0     C24807  11.470   9.187   2.729 -0.4406 -0.2063 -0.0010
  905MOL0     C24808  11.479   9.068   2.794  0.0317  0.6252  0.0241
  905MOL0     C24809  11.508   8.955   2.725 -0.1311 -0.6131  0.7167
  905MOL0     C24810  11.557   8.960   2.603 -0.2596 -0.0841 -0.2222
  905MOL0     O24811  11.617   8.840   2.557  0.1738  0.8518 -0.0568
  905MOL0     C24812  11.739   8.851   2.480 -0.0247 -0.2297  0.7560
  905MOL0     C24813  11.858   8.877   2.570 -0.1121 -0.8000 -0.6655
  905MOL0     C24814  11.995   8.831   2.508 -0.1489  0.0791 -0.8156
  905MOL0     C24815  12.117   8.877   2.588 -0.5887  0.4121  0.0127
  905MOL0     C24816  12.221   8.893   2.486  0.8077  0.1172 -1.0477
  905MOL0     C24817  12.307   8.901   2.399  0.5912  1.1434  0.8613
  905MOL0     C24818  11.553   9.076   2.529 -0.6265 -0.4102  0.7739
  905MOL0     C24819  11.506   9.193   2.590 -0.7811 -0.3715  0.8960
  905MOL0     C24820  11.492   9.315   2.502 -1.0248  1.0045 -0.9978
  905MOL0     H24821  11.155   9.555   2.781 -0.5942  0.4317  0.1203
  905MOL0     H24822  11.081   9.718   2.940 -1.7452 -0.7504  0.9133
  905MOL0     H24823  10.943   9.756   3.174 -0.2053  0.8828  2.2874
  905MOL0     H24824  11.052   9.861   3.092 -0.9335  0.1691 -0.2982
  905MOL0     H24825  10.952   9.968   3.284 -1.9488 -1.7198  3.1364
  905MOL0     H24826  11.013   9.858   3.394 -1.1967  4.3646  0.6256
  905MOL0     H24827  11.252   9.920   3.290  0.2528 -0.0415 -0.8941
  905MOL0     H24828  11.168  10.069   3.239  1.2715  0.4608  0.8675
  905MOL0     H24829  11.123  10.141   3.472  0.0649 -1.9822  3.4214
  905MOL0     H24830  11.147   9.998   3.545  0.1484 -1.0188  0.0194
  905MOL0     H24831  11.335  10.155   3.571  2.1084 -1.6890 -0.7492
  905MOL0     H24832  11.351  10.151   3.390 -4.2028 -2.6557 -3.8051
  905MOL0     H24833  11.454   9.949   3.406 -1.6636  0.3909 -0.1560
  905MOL0     H24834  11.517  10.025   3.556  0.6133  0.4816  0.0692
  905MOL0     H24835  11.310   9.796   3.543  2.0276 -4.2232  1.5097
  905MOL0     H24836  11.342   9.886   3.694 -2.6130 -2.4538 -0.6926
  905MOL0     H24837  11.455   9.673   3.691 -0.2761  0.2437  1.3504
  905MOL0     H24838  11.508   9.711   3.530 -2.0630  2.3686 -0.3151
  905MOL0     H24839  11.700   9.907   3.525  0.9951  0.3464  0.3605
  905MOL0     H24840  11.815  10.132   3.711  0.4154  0.4357  0.6824
  905MOL0     H24841  11.922  10.056   3.616 -1.9647  3.4160 -0.9381
  905MOL0     H24842  11.945  10.003   3.916  3.4664 -0.5604  0.9203
  905MOL0     H24843  12.069   9.966   3.793  0.9410  0.3936 -0.1950
  905MOL0     H24844  12.145  10.172   3.879  1.8619  1.0294 -2.3563
  905MOL0     H24845  12.052  10.229   3.738 -0.8310  0.9593  1.2260
  905MOL0     H24846  11.866  10.283   3.860 -0.0085 -0.6278  0.1237
  905MOL0     H24847  11.923  10.210   4.011 -0.5461  1.6932  1.0744
  905MOL0     H24848  12.116  10.629   3.974 -1.2214  1.0395  2.9986
  905MOL0     H24849  12.397  10.774   4.083  1.1087  0.5275  2.5075
  905MOL0     H24850  12.300  10.790   4.218  0.4527  0.6993 -1.6824
  905MOL0     H24851  12.232  10.826   4.069 -0.9994  0.0337 -0.3791
  905MOL0     H24852  12.663  10.527   4.305 -2.0739 -2.0187  2.8954
  905MOL0     H24853  12.885  10.567   4.423  0.1061  2.3794 -3.1012
  905MOL0     H24854  13.078  10.630   4.524  3.2784  0.9103 -1.7327
  905MOL0     H24855  13.053  10.768   4.420  1.4658 -0.5822  0.5072
  905MOL0     H24856  13.176  10.786   4.701 -0.0868 -0.5083  1.2601
  905MOL0     H24857  13.269  10.773   4.554 -1.9701 -2.1043 -1.0138
  905MOL0     H24858  13.072  10.994   4.591  0.3150  0.5803  0.9460
  905MOL0     H24859  13.179  10.969   4.460 -1.7582  0.8113 -0.0052
  905MOL0     H24860  13.378  10.987   4.597 -1.2600 -1.2446 -1.4114
  905MOL0     H24861  13.286  11.010   4.739  3.7386 -2.7260 -0.5574
  905MOL0     H24862  13.170  11.215   4.649  0.2726  0.6546 -2.0930
  905MOL0     H24863  13.345  11.244   4.673  1.2026 -1.2455 -1.3940
  905MOL0     H24864  13.263  11.157   4.406 -0.2959 -0.7722  1.1366
  905MOL0     H24865  13.406  11.244   4.455  1.1088 -2.5346  0.2770
  905MOL0     H24866  13.243  11.436   4.531 -1.3841 -2.9567  2.9095
  905MOL0     H24867  13.118  11.336   4.458  0.4576 -2.2402  2.2798
  905MOL0     H24868  13.148  11.492   4.296 -0.7694 -0.2507  1.3984
  905MOL0     H24869  13.239  11.347   4.242  1.0896  0.9064  0.6387
  905MOL0     H24870  12.713  10.893   4.643  2.4029 -1.6045  1.7178
  905MOL0     H24871  12.489  10.838   4.512  2.3563  2.8606  1.8932
  905MOL0     H24872  12.281  10.325   4.309  0.8009 -0.3440 -1.1715
  905MOL0     H24873  12.113  10.239   4.126 -1.8840  1.9824  2.0774
  905MOL0     H24874  11.268   9.505   3.259 -0.6198 -0.0856 -0.5101
  905MOL0     H24875  11.360   9.327   3.079  2.6772  1.6274 -1.0581
  905MOL0     H24876  11.433   9.076   2.892  0.5786  3.3988  0.1205
  905MOL0     H24877  11.493   8.857   2.770 -2.5921 -0.1401  1.0931
  905MOL0     H24878  11.742   8.757   2.423 -0.5445  0.3700 -0.2894
  905MOL0     H24879  11.723   8.924   2.400 -2.1755  1.3471  2.4796
  905MOL0     H24880  11.840   8.824   2.664 -1.2946 -0.5449 -0.7415
  905MOL0     H24881  11.860   8.984   2.593 -0.7280 -0.6587 -1.2472
  905MOL0     H24882  11.982   8.723   2.497 -2.4734  0.1420  0.7357
  905MOL0     H24883  11.995   8.875   2.408 -2.0358  0.3745 -0.7280
  905MOL0     H24884  12.142   8.802   2.664 -0.1815 -0.4890 -0.9853
  905MOL0     H24885  12.108   8.977   2.631  2.1350  1.7529 -2.2200
  905MOL0     H24886  12.384   8.904   2.325  2.6629 -1.0260  2.7489
  905MOL0     H24887  11.600   9.086   2.432  0.4176 -1.7260  1.1038
  905MOL0     H24888  11.392   9.347   2.533 -0.5176  1.7140 -0.0290
  905MOL0     H24889  11.569   9.389   2.523  0.9356 -1.2967  0.3933
  905MOL0     H24890  11.478   9.286   2.397 -0.1441  1.9819 -1.4075
  906MOL0     O24891   7.876   5.912   7.640 -0.3690  0.3006 -0.2612
  906MOL0     C24892   7.975   5.984   7.648  0.1084  0.1919  0.3216
  906MOL0     O24893   7.989   6.109   7.596 -0.9596  0.8577  0.3124
  906MOL0     C24894   7.883   6.184   7.540 -0.7187 -0.4787  0.0124
  906MOL0     C24895   7.873   6.232   7.412 -0.2473 -0.5292  0.5721
  906MOL0     C24896   7.765   6.294   7.354  0.3968  0.3564  0.1298
  906MOL0     C24897   7.655   6.311   7.448 -0.4787 -0.1708 -0.0052
  906MOL0     O24898   7.538   6.374   7.419  0.0103  0.1246  1.2722
  906MOL0     C24899   7.529   6.425   7.282  0.1263  0.3236 -0.8806
  906MOL0     C24900   7.378   6.468   7.268 -0.1947 -0.3619  0.7562
  906MOL0     C24901   7.328   6.498   7.130 -0.8672  0.1960 -0.0179
  906MOL0     C24902   7.328   6.371   7.050  0.0666 -0.5047  0.1867
  906MOL0     C24903   7.261   6.399   6.914 -0.8109  0.2764 -0.0565
  906MOL0     C24904   7.264   6.273   6.839  0.1450 -0.3637  0.9544
  906MOL0     C24905   7.204   6.281   6.696  0.7084  0.5304 -0.0253
  906MOL0     C24906   7.307   6.313   6.583 -0.9429  0.6161  0.6068
  906MOL0     N24907   7.378   6.445   6.595 -0.4622  0.5877  0.2060
  906MOL0     C24908   7.318   6.571   6.589 -0.9020  0.3169  0.1289
  906MOL0     C24909   7.415   6.660   6.629  0.7425  0.3733  1.6907
  906MOL0     C24910   7.403   6.809   6.635  0.3487  0.1144  1.0012
  906MOL0     C24911   7.375   6.858   6.772  0.3167  0.8587  0.2357
  906MOL0     C24912   7.444   7.002   6.789 -0.0193  0.2006 -0.2423
  906MOL0     C24913   7.415   7.046   6.941 -1.1291 -1.0337 -0.8317
  906MOL0     O24914   7.510   6.998   7.037 -0.2193 -0.0404  0.3842
  906MOL0     C24915   7.473   6.953   7.164 -0.4478 -0.2161 -0.4206
  906MOL0     C24916   7.574   6.887   7.231  0.4634 -0.4716  0.1036
  906MOL0     C24917   7.551   6.827   7.362 -0.4178  0.5437  0.6388
  906MOL0     C24918   7.674   6.766   7.425 -1.5664  0.3493 -0.1610
  906MOL0     C24919   7.418   6.805   7.414  0.3657 -1.2671 -0.4487
  906MOL0     C24920   7.378   6.722   7.534 -0.1627  0.2153 -0.1419
  906MOL0     O24921   7.247   6.720   7.559  0.2751 -0.1401  0.5204
  906MOL0     C24922   7.200   6.639   7.662  0.5656 -1.2965  0.0126
  906MOL0     C24923   7.091   6.695   7.726 -0.0328 -0.5883 -1.3350
  906MOL0     C24924   7.020   6.621   7.816  0.1316  0.2502 -0.2699
  906MOL0     C24925   7.062   6.487   7.853 -0.1751 -0.6694 -0.5782
  906MOL0     O24926   6.991   6.414   7.952  0.2118  0.2219 -0.1523
  906MOL0     C24927   7.056   6.406   8.077 -0.0585  1.1653  1.2731
  906MOL0     C24928   7.038   6.266   8.123 -0.0703 -0.3378  0.4598
  906MOL0     C24929   7.116   6.239   8.244  0.4951  0.1678 -0.1082
  906MOL0     C24930   7.080   6.344   8.352  0.8716  0.8608 -0.3743
  906MOL0     C24931   7.121   6.299   8.489  0.3173 -0.1518  1.1190
  906MOL0     C24932   7.270   6.310   8.498  1.5803 -0.1646 -1.6338
  906MOL0     C24933   7.304   6.450   8.563  0.1847  0.8590  0.2321
  906MOL0     C24934   7.459   6.471   8.582  0.3893  0.6921  0.0073
  906MOL0    Cl24935   7.530   6.489   8.431  0.2103  0.4027  0.0420
  906MOL0     C24936   7.180   6.440   7.791 -0.4044  0.0976  0.6250
  906MOL0     C24937   7.251   6.515   7.693  1.1660  0.4252 -0.2056
  906MOL0     O24938   7.467   6.687   7.610  0.2800  0.0205  0.2110
  906MOL0     C24939   7.319   6.882   7.345 -0.1445  0.1224  0.6896
  906MOL0     C24940   7.347   6.952   7.223  0.1169 -0.5520  0.2878
  906MOL0     N24941   7.532   6.581   6.652 -0.0311  0.3243 -0.1884
  906MOL0     N24942   7.513   6.451   6.622  0.0526 -0.3107  1.0397
  906MOL0     C24943   7.659   6.269   7.582 -0.1536  0.4131  0.0010
  906MOL0     C24944   7.779   6.204   7.625  0.2931  1.1312  0.2149
  906MOL0     C24945   8.096   5.923   7.709 -0.4897  0.1002 -0.0119
  906MOL0     C24946   8.080   5.795   7.767 -0.6505  1.2235 -0.3897
  906MOL0     C24947   8.187   5.742   7.837 -0.5332 -0.2234 -1.0306
  906MOL0     C24948   8.316   5.806   7.856 -0.0502  1.0295  0.1001
  906MOL0     O24949   8.421   5.774   7.932  1.1613  0.2912 -0.7662
  906MOL0     C24950   8.416   5.641   7.987 -0.0563 -1.7138  0.5349
  906MOL0     C24951   8.368   5.650   8.130  0.6387 -0.6770  0.1879
  906MOL0     C24952   8.463   5.713   8.233  0.4583 -0.0316  0.1273
  906MOL0     C24953   8.556   5.615   8.297  0.0144  0.5405  0.1021
  906MOL0     C24954   8.649   5.545   8.204 -0.4339 -0.5656 -0.1149
  906MOL0     C24955   8.731   5.498   8.134  0.2496  0.0694 -0.4667
  906MOL0     C24956   8.331   5.925   7.779 -0.2354  0.9246 -0.3394
  906MOL0     C24957   8.219   5.988   7.718 -0.4315  0.6329  0.3992
  906MOL0     C24958   8.254   6.121   7.654  0.0872 -1.1405  0.2920
  906MOL0     H24959   7.948   6.197   7.341  1.2082  4.4283 -0.7619
  906MOL0     H24960   7.764   6.326   7.250 -0.7233  1.4058  0.4341
  906MOL0     H24961   7.549   6.341   7.214  3.7418 -1.0272  1.5390
  906MOL0     H24962   7.595   6.510   7.260 -1.7188  1.7115 -1.2916
  906MOL0     H24963   7.316   6.385   7.305 -1.8952 -1.0003 -3.0703
  906MOL0     H24964   7.350   6.555   7.328 -0.2894  0.0955  0.0579
  906MOL0     H24965   7.223   6.531   7.132 -0.8010  0.4023  1.4102
  906MOL0     H24966   7.392   6.570   7.079  0.0944 -0.0766  0.7748
  906MOL0     H24967   7.431   6.338   7.035  0.9733  2.0430  0.3094
  906MOL0     H24968   7.274   6.290   7.101  0.1520 -0.2093  0.7576
  906MOL0     H24969   7.313   6.481   6.862  1.7196  0.5576  2.6280
  906MOL0     H24970   7.158   6.428   6.933 -1.2859  0.5528 -2.6988
  906MOL0     H24971   7.365   6.234   6.821  0.2081  0.5806 -1.0769
  906MOL0     H24972   7.218   6.191   6.895  2.3039 -1.9052  0.6247
  906MOL0     H24973   7.122   6.351   6.679 -0.0926 -0.7999 -2.0093
  906MOL0     H24974   7.163   6.186   6.663  1.7108  0.1936 -0.3205
  906MOL0     H24975   7.379   6.232   6.565 -0.6358  1.2122 -1.1456
  906MOL0     H24976   7.252   6.330   6.490  3.8447  2.3547 -2.3119
  906MOL0     H24977   7.211   6.583   6.572 -1.6044 -3.9412  0.3812
  906MOL0     H24978   7.321   6.836   6.568  0.5213 -2.4356 -0.3819
  906MOL0     H24979   7.492   6.853   6.591 -0.8450  1.4634 -0.1644
  906MOL0     H24980   7.269   6.864   6.802  0.7674 -1.0422  2.4910
  906MOL0     H24981   7.433   6.809   6.850  0.0022  1.9471  1.1760
  906MOL0     H24982   7.549   7.006   6.761  0.0291  0.1187 -0.0725
  906MOL0     H24983   7.400   7.075   6.719 -1.2845 -1.4100 -1.2010
  906MOL0     H24984   7.408   7.155   6.955 -0.0971 -1.3443  3.7138
  906MOL0     H24985   7.323   6.992   6.966  0.2527 -3.5827 -0.9247
  906MOL0     H24986   7.674   6.891   7.189  0.3177 -0.5109 -0.2499
  906MOL0     H24987   7.683   6.658   7.416  1.2092  0.2987  1.7389
  906MOL0     H24988   7.678   6.793   7.531 -2.1002 -2.6174  0.6963
  906MOL0     H24989   7.764   6.808   7.378 -2.0621  1.1356 -0.4352
  906MOL0     H24990   7.059   6.799   7.719 -1.1640 -0.7761  0.5128
  906MOL0     H24991   6.927   6.668   7.845  1.7047  3.5755 -0.2000
  906MOL0     H24992   7.159   6.440   8.061 -0.4128  1.3629 -1.0342
  906MOL0     H24993   6.989   6.478   8.124 -3.8269 -0.9934 -0.3279
  906MOL0     H24994   6.936   6.230   8.142  0.0336 -0.6948  0.3538
  906MOL0     H24995   7.073   6.192   8.050 -1.9181 -0.6562 -0.1616
  906MOL0     H24996   7.222   6.224   8.222  0.1411 -4.1513  0.2367
  906MOL0     H24997   7.081   6.146   8.290  2.0828  0.0325  0.8947
  906MOL0     H24998   6.971   6.350   8.362  0.9340 -0.0533  1.1651
  906MOL0     H24999   7.124   6.438   8.318  0.6567  0.7614 -0.9472
  906MOL0     H25000   7.069   6.371   8.553 -3.3719  2.2828 -3.9136
  906MOL0     H25001   7.088   6.196   8.505 -0.6243 -0.1632 -0.6170
  906MOL0     H25002   7.319   6.286   8.404 -0.5476 -2.4493 -2.2649
  906MOL0     H25003   7.321   6.245   8.570  0.6624  0.6299 -0.2052
  906MOL0     H25004   7.273   6.461   8.667  1.0846  2.9234  0.3418
  906MOL0     H25005   7.262   6.536   8.508 -4.5723  0.1374  2.2601
  906MOL0     H25006   7.515   6.389   8.628  2.5163  2.8159  1.4678
  906MOL0     H25007   7.476   6.563   8.639  0.2868  1.4898 -1.2111
  906MOL0     H25008   7.209   6.336   7.805 -0.5013  0.1772  1.5018
  906MOL0     H25009   7.317   6.450   7.636 -0.6747 -0.4460 -1.4351
  906MOL0     H25010   7.217   6.894   7.382 -1.9856 -0.6846 -3.5008
  906MOL0     H25011   7.257   6.998   7.185 -0.6893 -0.5782  2.0947
  906MOL0     H25012   7.580   6.281   7.655 -0.2368  2.6001 -0.3711
  906MOL0     H25013   7.780   6.150   7.719  1.2501  1.8575  0.6431
  906MOL0     H25014   7.985   5.747   7.785  0.3622 -0.9195 -0.4948
  906MOL0     H25015   8.160   5.652   7.892  1.3976  1.1454  2.4917
  906MOL0     H25016   8.361   5.571   7.924  2.8436 -4.3605  0.7085
  906MOL0     H25017   8.517   5.601   7.997 -0.1884 -1.4463  4.2873
  906MOL0     H25018   8.344   5.552   8.172 -3.2065  1.5300  4.0133
  906MOL0     H25019   8.272   5.703   8.128  1.2105  0.8164  3.6635
  906MOL0     H25020   8.524   5.793   8.188  1.0962 -1.3395 -1.4097
  906MOL0     H25021   8.401   5.757   8.311 -2.6817  1.6301 -3.0097
  906MOL0     H25022   8.487   5.542   8.342  3.2610 -2.9262 -0.0257
  906MOL0     H25023   8.611   5.656   8.382 -1.5165  0.8963  0.9485
  906MOL0     H25024   8.801   5.456   8.064  0.8834 -0.0842  0.2517
  906MOL0     H25025   8.424   5.979   7.798  0.1590 -0.9261  4.7115
  906MOL0     H25026   8.219   6.135   7.552  2.1416 -1.1184 -0.4455
  906MOL0     H25027   8.208   6.199   7.715  0.6778 -1.5047  1.2300
  906MOL0     H25028   8.362   6.127   7.638 -0.1406  0.9698 -0.6926
  907MOL0     O25029   7.472   0.220  10.670 -0.0808  0.2290 -0.1458
  907MOL0     C25030   7.429   0.166  10.772  0.2889 -0.7157  0.4519
  907MOL0     O25031   7.486   0.184  10.900 -0.7273 -0.3312 -0.0574
  907MOL0     C25032   7.621   0.180  10.922  0.3144  1.0764  0.4507
  907MOL0     C25033   7.651   0.206  11.057  0.2875  0.3272  0.7978
  907MOL0     C25034   7.794   0.200  11.093 -0.4177 -0.2863  0.0855
  907MOL0     C25035   7.892   0.179  10.994 -0.4398 -0.0140 -0.1648
  907MOL0     O25036   8.038   0.148  11.011 -0.1865  0.9477  0.4816
  907MOL0     C25037   8.107   0.182  11.131 -0.1832 -1.2566 -0.0211
  907MOL0     C25038   8.134   0.334  11.144 -0.1274  0.3862  0.2868
  907MOL0     C25039   8.206   0.386  11.016 -0.7564 -0.6438  0.2025
  907MOL0     C25040   8.115   0.415  10.889  0.1023  0.7736 -0.6620
  907MOL0     C25041   8.178   0.483  10.767  0.1631  0.1237  0.2815
  907MOL0     C25042   8.314   0.423  10.734  0.4157  0.2205 -0.1863
  907MOL0     C25043   8.386   0.490  10.618  0.4410 -0.1019 -0.7568
  907MOL0     C25044   8.521   0.431  10.597  0.5643  0.2965 -0.6602
  907MOL0     N25045   8.574   0.479  10.471  0.7205 -1.2989 -0.1913
  907MOL0     C25046   8.694   0.543  10.448  0.3163 -1.0173 -0.2372
  907MOL0     C25047   8.710   0.569  10.314 -0.1737 -0.1773 -1.5069
  907MOL0     C25048   8.814   0.658  10.254 -0.2664 -0.0983  0.4922
  907MOL0     C25049   8.861   0.599  10.123 -0.7638 -0.8025 -0.8767
  907MOL0     C25050   8.924   0.713  10.035 -0.1398 -0.3642  0.7144
  907MOL0     C25051   9.064   0.753  10.065  0.2985 -0.6915  0.3000
  907MOL0     O25052   9.142   0.638  10.041  0.0525  0.4813  0.0934
  907MOL0     C25053   9.276   0.636  10.066 -1.0416 -0.2434  0.5056
  907MOL0     C25054   9.344   0.526  10.010 -0.7959 -0.2448  0.0389
  907MOL0     C25055   9.481   0.510  10.024 -1.5627 -0.0457  0.1299
  907MOL0     C25056   9.554   0.407   9.938 -0.5940 -0.0308  0.4215
  907MOL0     C25057   9.552   0.603  10.102  0.2743  0.4130  0.1737
  907MOL0     C25058   9.697   0.615  10.106 -0.1142 -0.7009  0.1555
  907MOL0     O25059   9.762   0.505  10.134  0.5783 -0.4683  0.4276
  907MOL0     C25060   9.900   0.507  10.119  0.1669  0.2691 -0.8050
  907MOL0     C25061   9.980   0.572  10.208  0.5038  0.2940 -1.8439
  907MOL0     C25062  10.120   0.538  10.211 -0.1967 -0.0006  0.4224
  907MOL0     C25063  10.167   0.459  10.110 -0.5963  0.1042  0.0049
  907MOL0     O25064  10.309   0.445  10.137  0.3025 -0.2363  0.7246
  907MOL0     C25065  10.385   0.370  10.040 -0.5707 -0.2685  1.0303
  907MOL0     C25066  10.433   0.463   9.922  0.2885  0.4931  0.3789
  907MOL0     C25067  10.583   0.438   9.899  0.3686  0.1557  0.2874
  907MOL0     C25068  10.602   0.410   9.749 -0.4105  0.0601  0.4510
  907MOL0     C25069  10.746   0.406   9.698 -0.2520  1.7902 -0.2961
  907MOL0     C25070  10.803   0.274   9.740 -0.2018 -0.6147 -0.1290
  907MOL0     C25071  10.938   0.242   9.688  0.4963  0.1407 -0.5183
  907MOL0     C25072  11.044   0.309   9.778  0.1496  0.6750 -0.4703
  907MOL0    Cl25073  11.193   0.260   9.698 -0.5114 -0.0787 -0.5476
  907MOL0     C25074  10.082   0.407  10.023 -0.0433  0.3116  0.3253
  907MOL0     C25075   9.944   0.430  10.022 -0.2455  0.4820  0.3609
  907MOL0     O25076   9.749   0.724  10.094  0.5511  0.2674  0.0399
  907MOL0     C25077   9.475   0.703  10.169 -0.5997 -0.1495  0.4299
  907MOL0     C25078   9.341   0.718  10.144 -0.2920  0.4924 -0.6172
  907MOL0     N25079   8.601   0.520  10.259  1.3396  0.7553  0.0454
  907MOL0     N25080   8.517   0.469  10.346 -0.2412  0.4092 -0.2079
  907MOL0     C25081   7.845   0.141  10.866 -0.3309  0.2816  0.2174
  907MOL0     C25082   7.722   0.154  10.827  0.7595  0.0406  0.3980
  907MOL0     C25083   7.311   0.074  10.772  0.1532 -0.0076  0.2103
  907MOL0     C25084   7.243   0.054  10.893 -0.5341 -1.2370  0.9470
  907MOL0     C25085   7.144  -0.041  10.914  0.2898  0.4208  0.3898
  907MOL0     C25086   7.089  -0.113  10.803  0.0378 -0.4938  0.2039
  907MOL0     O25087   6.984  -0.196  10.808 -1.5195  1.0117  0.5734
  907MOL0     C25088   6.931  -0.221  10.935 -0.1548  0.2964 -0.2729
  907MOL0     C25089   6.830  -0.336  10.922  0.6493  0.1711 -0.1951
  907MOL0     C25090   6.779  -0.369  11.063  0.0074  0.0966 -0.5497
  907MOL0     C25091   6.661  -0.470  11.081 -0.6555 -0.2155  0.4309
  907MOL0     C25092   6.622  -0.491  11.222 -1.2696  0.3818  0.4133
  907MOL0     C25093   6.577  -0.496  11.329  0.6147 -1.0393 -0.1386
  907MOL0     C25094   7.159  -0.087  10.683  0.8150  0.6558 -0.8412
  907MOL0     C25095   7.266  -0.009  10.666 -1.3180  0.6354  0.7487
  907MOL0     C25096   7.336   0.005  10.529 -0.3118  0.4920 -0.3256
  907MOL0     H25097   7.583   0.235  11.136  0.0657 -0.3864  0.8731
  907MOL0     H25098   7.821   0.224  11.196  1.0189 -1.5142  0.0357
  907MOL0     H25099   8.203   0.129  11.127  0.8538  0.5630 -0.3685
  907MOL0     H25100   8.054   0.147  11.220  1.5542  0.8113  1.9504
  907MOL0     H25101   8.042   0.387  11.170 -1.4213 -0.6722 -1.8653
  907MOL0     H25102   8.200   0.360  11.227 -1.7359  0.2121  1.6691
  907MOL0     H25103   8.263   0.476  11.039  0.5568 -1.7245  1.3054
  907MOL0     H25104   8.277   0.307  10.989  1.1907  1.3940 -1.0055
  907MOL0     H25105   8.073   0.317  10.863 -0.5131  0.6845  0.5921
  907MOL0     H25106   8.031   0.470  10.931 -2.2659 -1.6970 -1.8346
  907MOL0     H25107   8.193   0.586  10.801  0.9911 -0.7146  2.5902
  907MOL0     H25108   8.123   0.472  10.673  2.4016  0.9067 -1.2233
  907MOL0     H25109   8.387   0.426  10.816  0.9908  0.7336 -0.7086
  907MOL0     H25110   8.296   0.319  10.704 -0.8696  0.2924  0.2581
  907MOL0     H25111   8.403   0.595  10.641 -0.9843  0.1816 -0.9298
  907MOL0     H25112   8.334   0.495  10.522  2.3063 -1.0155 -1.8752
  907MOL0     H25113   8.600   0.441  10.673  2.7418 -1.8019 -2.4743
  907MOL0     H25114   8.507   0.324  10.580 -0.5299  0.4485 -0.7726
  907MOL0     H25115   8.766   0.568  10.526  1.6535 -1.1968 -1.3672
  907MOL0     H25116   8.893   0.673  10.328  0.5018  0.9949 -0.5179
  907MOL0     H25117   8.774   0.758  10.240 -1.8562 -0.8074 -0.2513
  907MOL0     H25118   8.933   0.518  10.135 -2.0448 -1.9754 -0.9170
  907MOL0     H25119   8.769   0.558  10.079 -0.9118 -1.0777 -0.3191
  907MOL0     H25120   8.930   0.699   9.927 -1.4558  4.5437 -0.2604
  907MOL0     H25121   8.870   0.808  10.036 -0.3880 -0.4066 -1.7477
  907MOL0     H25122   9.097   0.836  10.002  0.7952  0.4148  1.9427
  907MOL0     H25123   9.070   0.790  10.168 -3.2401  0.8742  0.0621
  907MOL0     H25124   9.289   0.447   9.960  2.8665 -0.6327 -3.9435
  907MOL0     H25125   9.489   0.369   9.859 -2.2438 -3.2713  3.0625
  907MOL0     H25126   9.588   0.321   9.997  0.3242  0.4952  0.6800
  907MOL0     H25127   9.635   0.453   9.882 -1.1599 -1.5397 -1.8027
  907MOL0     H25128   9.938   0.620  10.296  2.2991 -2.5583  0.7812
  907MOL0     H25129  10.174   0.571  10.299 -2.3038  2.5456  0.8975
  907MOL0     H25130  10.469   0.343  10.105 -0.8369  0.4577  1.6839
  907MOL0     H25131  10.332   0.283  10.001 -1.4590 -0.0224  1.6638
  907MOL0     H25132  10.370   0.459   9.834  0.0820  1.5825  0.4714
  907MOL0     H25133  10.436   0.564   9.965  1.3214  0.7198 -0.1876
  907MOL0     H25134  10.619   0.343   9.939 -1.0191 -1.3963 -1.8771
  907MOL0     H25135  10.646   0.516   9.941 -1.0344  0.1021  2.6346
  907MOL0     H25136  10.547   0.477   9.683  1.6274 -1.4559 -3.0877
  907MOL0     H25137  10.549   0.315   9.737  1.3735 -0.7150 -2.0285
  907MOL0     H25138  10.739   0.410   9.589  0.3575 -1.3831 -0.5372
  907MOL0     H25139  10.797   0.496   9.735  0.6027  1.2358 -0.1035
  907MOL0     H25140  10.737   0.192   9.708 -0.4777 -1.2783  1.9824
  907MOL0     H25141  10.807   0.263   9.849  2.8735  2.8910  0.3120
  907MOL0     H25142  10.948   0.271   9.583  0.6440 -2.8190 -1.4337
  907MOL0     H25143  10.966   0.136   9.691  3.2972  0.6771 -3.0171
  907MOL0     H25144  11.037   0.282   9.884 -0.8939 -5.3119 -1.6806
  907MOL0     H25145  11.028   0.416   9.764  0.7989  0.7671 -0.5802
  907MOL0     H25146  10.119   0.330   9.956 -1.5455 -0.3528  0.2246
  907MOL0     H25147   9.887   0.384   9.942  0.7797 -1.2856  0.5615
  907MOL0     H25148   9.528   0.773  10.234 -0.0254  0.5598 -0.7811
  907MOL0     H25149   9.290   0.808  10.176  0.0976  0.6793 -0.5042
  907MOL0     H25150   7.911   0.118  10.783  0.9383 -1.1478  1.5559
  907MOL0     H25151   7.698   0.130  10.724  1.7559  0.3147  0.1006
  907MOL0     H25152   7.276   0.111  10.980 -0.7593  2.1796 -1.0070
  907MOL0     H25153   7.105  -0.059  11.014 -4.9458  0.3639 -1.3120
  907MOL0     H25154   7.003  -0.245  11.014  0.3051 -2.3559 -1.3873
  907MOL0     H25155   6.872  -0.134  10.964 -1.1721 -0.8647  1.3232
  907MOL0     H25156   6.875  -0.426  10.879  0.8389  1.0425 -1.8999
  907MOL0     H25157   6.745  -0.300  10.862 -1.0220 -1.3076  1.1769
  907MOL0     H25158   6.872  -0.390  11.115 -0.3508 -0.2933 -0.0566
  907MOL0     H25159   6.750  -0.274  11.110  1.7827  0.1611  0.4843
  907MOL0     H25160   6.677  -0.559  11.018 -1.2792  0.5341 -0.8292
  907MOL0     H25161   6.582  -0.418  11.026 -1.6069  0.0103  1.9581
  907MOL0     H25162   6.541  -0.489  11.429  5.0489  2.6144  1.5258
  907MOL0     H25163   7.119  -0.125  10.589  0.9183  0.1712 -0.6943
  907MOL0     H25164   7.443  -0.015  10.532 -0.4945 -0.4209  1.0997
  907MOL0     H25165   7.289  -0.058  10.453  0.7921  1.5494 -1.9487
  907MOL0     H25166   7.316   0.107  10.493 -0.1717  0.3418 -0.8243
  908MOL0     O25167   8.257   4.365  10.001 -0.9286 -0.1188 -0.6610
  908MOL0     C25168   8.237   4.336  10.122 -0.8872  0.1035 -0.5854
  908MOL0     O25169   8.134   4.255  10.169 -0.3956 -0.1313 -0.9599
  908MOL0     C25170   8.027   4.206  10.097  0.6578  0.1396  0.1159
  908MOL0     C25171   7.931   4.137  10.176  0.2338 -0.1008 -0.5032
  908MOL0     C25172   7.828   4.062  10.122  0.2300 -0.1591 -0.6801
  908MOL0     C25173   7.825   4.046   9.985 -0.3859  0.2753  0.1572
  908MOL0     O25174   7.723   3.983   9.913  0.2016 -0.0762 -0.0468
  908MOL0     C25175   7.714   3.845   9.949  0.3717 -0.1349 -0.5974
  908MOL0     C25176   7.731   3.742   9.832 -0.2699  0.0434  0.6413
  908MOL0     C25177   7.864   3.748   9.756  0.1180  0.3809 -0.1609
  908MOL0     C25178   7.977   3.709   9.858  0.4760 -0.1196  0.0368
  908MOL0     C25179   8.110   3.669   9.804 -0.9320 -0.0775  0.2558
  908MOL0     C25180   8.215   3.630   9.909 -0.2674  0.2020  0.2982
  908MOL0     C25181   8.358   3.637   9.861  0.1043 -0.4296 -0.7087
  908MOL0     C25182   8.466   3.611   9.967  0.3097 -0.3266  0.7457
  908MOL0     N25183   8.605   3.641   9.922  0.0838  0.4350 -0.1554
  908MOL0     C25184   8.646   3.762   9.880  0.3263  0.0051  0.3412
  908MOL0     C25185   8.777   3.769   9.910  1.1640 -0.3472  0.7798
  908MOL0     C25186   8.864   3.885   9.872 -1.2583 -0.2001  0.0391
  908MOL0     C25187   8.968   3.864   9.759  0.4278  0.8254  0.8436
  908MOL0     C25188   8.898   3.837   9.624  0.1033  0.1483 -0.1810
  908MOL0     C25189   8.818   3.944   9.569  0.0287 -0.1142  0.2976
  908MOL0     O25190   8.788   3.903   9.435 -0.5074 -0.7986 -0.1016
  908MOL0     C25191   8.685   3.952   9.363  0.5061 -0.6630  0.2336
  908MOL0     C25192   8.618   4.078   9.376 -0.8580 -0.4863  0.1962
  908MOL0     C25193   8.518   4.112   9.286  0.0793 -0.9764 -0.2360
  908MOL0     C25194   8.450   4.245   9.319  0.5239 -0.3172 -0.9886
  908MOL0     C25195   8.476   4.037   9.177 -0.6677  0.2044  0.5419
  908MOL0     C25196   8.360   4.068   9.081 -0.1849  0.2182  0.5516
  908MOL0     O25197   8.304   3.956   9.014  0.5188  0.0688  0.0393
  908MOL0     C25198   8.226   3.986   8.906 -0.4958  0.2690 -0.2046
  908MOL0     C25199   8.273   3.998   8.778  0.0030  0.6704  0.9177
  908MOL0     C25200   8.179   3.983   8.676 -0.1932  0.3300  0.5264
  908MOL0     C25201   8.037   3.987   8.700 -0.3291 -0.3979 -0.2562
  908MOL0     O25202   7.948   3.986   8.601  0.2858 -1.0656 -0.6208
  908MOL0     C25203   7.893   4.116   8.583  0.3462 -0.2948 -0.0780
  908MOL0     C25204   7.794   4.103   8.464 -0.2033 -0.6265  0.2695
  908MOL0     C25205   7.873   4.099   8.335  0.3844 -0.1294  0.1299
  908MOL0     C25206   7.805   4.161   8.210 -0.7281  0.7144  0.1225
  908MOL0     C25207   7.904   4.132   8.089 -0.5603  0.8801  0.3506
  908MOL0     C25208   7.831   4.166   7.958  1.5267 -0.4075  0.1774
  908MOL0     C25209   7.900   4.112   7.826 -1.1654  0.6262 -0.3461
  908MOL0     C25210   8.050   4.132   7.812  0.1246  1.1778  0.0924
  908MOL0    Cl25211   8.124   4.059   7.658  0.2500 -0.2308  0.6132
  908MOL0     C25212   7.989   4.002   8.838 -0.1809  0.3398  1.6646
  908MOL0     C25213   8.089   4.009   8.938 -1.0397  0.7831  0.7040
  908MOL0     O25214   8.327   4.187   9.062 -0.2354  0.2922  0.2024
  908MOL0     C25215   8.533   3.913   9.168  0.9543 -0.5672 -0.2505
  908MOL0     C25216   8.636   3.873   9.255 -0.2276  0.3038  0.0960
  908MOL0     N25217   8.819   3.659   9.967 -0.0257 -0.1268 -0.3626
  908MOL0     N25218   8.714   3.579   9.975 -0.2984 -0.4809 -0.3140
  908MOL0     C25219   7.907   4.126   9.902 -0.2211 -0.9684 -0.3349
  908MOL0     C25220   8.004   4.204   9.957  0.1829  0.6299 -0.0041
  908MOL0     C25221   8.350   4.372  10.218  0.3402 -0.0514  0.2055
  908MOL0     C25222   8.359   4.306  10.340 -0.1958 -0.0037  0.3950
  908MOL0     C25223   8.452   4.330  10.435  0.0948 -0.1138 -0.7965
  908MOL0     C25224   8.542   4.443  10.412  1.1227 -0.0343  0.6592
  908MOL0     O25225   8.636   4.473  10.508  0.5917  0.2409 -0.0294
  908MOL0     C25226   8.586   4.584  10.585 -0.0634 -0.1300 -0.1962
  908MOL0     C25227   8.640   4.586  10.733 -0.5100  0.3657 -0.6958
  908MOL0     C25228   8.791   4.597  10.745 -0.4579 -0.4160  0.2347
  908MOL0     C25229   8.843   4.605  10.886 -0.3529  0.0841 -0.3592
  908MOL0     C25230   8.990   4.633  10.887  0.4546  0.3074 -0.4345
  908MOL0     C25231   9.113   4.635  10.885 -0.1920 -0.3539 -0.3599
  908MOL0     C25232   8.533   4.509  10.291  0.1833 -0.1259 -0.3915
  908MOL0     C25233   8.435   4.477  10.202 -0.3875 -0.2165 -0.3339
  908MOL0     C25234   8.418   4.579  10.093  0.1236 -0.6788 -1.0474
  908MOL0     H25235   7.930   4.141  10.285  1.4065  0.1324 -0.4845
  908MOL0     H25236   7.755   4.022  10.191  1.8549  0.0213  1.2287
  908MOL0     H25237   7.622   3.822  10.005  0.7546  1.1940  0.6375
  908MOL0     H25238   7.787   3.817  10.026  0.4881  1.0523 -0.2659
  908MOL0     H25239   7.730   3.635   9.853 -0.8649 -0.1366 -0.2624
  908MOL0     H25240   7.646   3.764   9.767  0.5600  1.9987  0.1455
  908MOL0     H25241   7.879   3.679   9.671  2.5071  0.3469  0.2130
  908MOL0     H25242   7.885   3.849   9.721 -1.6370  0.7369 -0.2826
  908MOL0     H25243   7.980   3.801   9.916 -1.3975  0.4630 -0.7185
  908MOL0     H25244   7.943   3.626   9.921 -0.0963 -1.3557 -1.8091
  908MOL0     H25245   8.151   3.758   9.754  3.6781 -0.4348  2.8074
  908MOL0     H25246   8.095   3.592   9.728 -0.1351 -2.1039  2.0532
  908MOL0     H25247   8.209   3.706   9.987 -1.3106  1.5567 -1.0334
  908MOL0     H25248   8.202   3.536   9.963 -4.4236  0.8381  0.7276
  908MOL0     H25249   8.378   3.733   9.812  0.7194  0.3782  1.0352
  908MOL0     H25250   8.367   3.560   9.783  1.2700 -1.9070  0.8187
  908MOL0     H25251   8.457   3.683  10.049  1.6184 -0.5881  1.1316
  908MOL0     H25252   8.461   3.505   9.997  4.3431 -0.4812  1.4364
  908MOL0     H25253   8.593   3.842   9.828  2.5673  2.1848  1.2371
  908MOL0     H25254   8.921   3.914   9.961 -0.4619  0.7901 -0.7581
  908MOL0     H25255   8.808   3.974   9.845  2.1498  1.3515 -2.7674
  908MOL0     H25256   9.031   3.952   9.739 -0.4214  1.1300 -0.6221
  908MOL0     H25257   9.040   3.791   9.798  0.1646  1.1803  2.0467
  908MOL0     H25258   8.963   3.799   9.544 -0.4265 -3.0544  0.7664
  908MOL0     H25259   8.830   3.752   9.638  1.6990 -1.5633 -2.0203
  908MOL0     H25260   8.725   3.951   9.626 -0.6035 -0.3370 -0.6911
  908MOL0     H25261   8.880   4.034   9.559 -0.0048 -0.1135  0.0959
  908MOL0     H25262   8.645   4.137   9.462 -2.0519 -4.0789  3.3216
  908MOL0     H25263   8.464   4.315   9.237  0.2385 -1.5384 -2.1205
  908MOL0     H25264   8.489   4.292   9.410 -1.3551  0.6775 -0.6423
  908MOL0     H25265   8.342   4.228   9.334  0.7584 -5.6064 -2.9453
  908MOL0     H25266   8.379   4.003   8.756 -0.5209  1.0475 -1.8282
  908MOL0     H25267   8.217   3.989   8.575 -0.5699 -0.3886  0.3376
  908MOL0     H25268   7.829   4.139   8.669 -3.3180 -1.5654 -2.2236
  908MOL0     H25269   7.966   4.191   8.551  1.4950 -1.5817 -0.5707
  908MOL0     H25270   7.716   4.027   8.473  0.8601 -1.5425  2.8088
  908MOL0     H25271   7.737   4.197   8.466 -2.6142 -2.0154  0.5542
  908MOL0     H25272   7.913   3.998   8.320 -0.9302 -0.5563 -0.6137
  908MOL0     H25273   7.969   4.150   8.342  1.2168 -1.4823 -0.7864
  908MOL0     H25274   7.801   4.270   8.224 -0.5325  1.0064 -1.8480
  908MOL0     H25275   7.700   4.136   8.196 -1.4221  3.3829 -0.0432
  908MOL0     H25276   7.994   4.193   8.101 -0.4138  0.8546 -0.5737
  908MOL0     H25277   7.946   4.031   8.088 -2.3364  0.1059  0.0898
  908MOL0     H25278   7.820   4.272   7.932  1.8123 -0.8156 -1.7930
  908MOL0     H25279   7.728   4.129   7.962  0.9839  1.0209  0.1133
  908MOL0     H25280   7.865   4.165   7.737  0.2764 -0.6102 -1.6808
  908MOL0     H25281   7.884   4.004   7.819  2.6723 -0.0009 -1.2610
  908MOL0     H25282   8.092   4.074   7.895 -2.2199  2.1467  2.0675
  908MOL0     H25283   8.081   4.235   7.835  0.1872  1.2861 -0.4580
  908MOL0     H25284   7.885   4.016   8.864  0.0823  2.0807  1.8689
  908MOL0     H25285   8.058   4.027   9.040  1.1854 -0.5829  1.7018
  908MOL0     H25286   8.484   3.835   9.112 -1.2783  0.0408  0.7551
  908MOL0     H25287   8.685   3.779   9.234  2.9315  2.1296 -1.5856
  908MOL0     H25288   7.894   4.122   9.794  1.6621 -0.8555 -0.6017
  908MOL0     H25289   8.062   4.261   9.885 -3.3467  0.8206 -2.9760
  908MOL0     H25290   8.286   4.228  10.362  0.1832  0.2472  2.9284
  908MOL0     H25291   8.456   4.284  10.533  1.7143  1.1842 -0.1860
  908MOL0     H25292   8.604   4.681  10.537 -0.7499  0.2294  0.2601
  908MOL0     H25293   8.477   4.580  10.586 -0.1431  1.4070 -0.4497
  908MOL0     H25294   8.606   4.489  10.771 -0.3209 -0.0959 -1.6865
  908MOL0     H25295   8.597   4.667  10.794 -2.4725 -0.0189 -1.4687
  908MOL0     H25296   8.837   4.508  10.700 -0.1488 -0.1017 -0.0708
  908MOL0     H25297   8.820   4.678  10.678 -1.0648 -0.8232 -0.5405
  908MOL0     H25298   8.842   4.506  10.932  3.3465  0.0315 -0.0901
  908MOL0     H25299   8.786   4.679  10.942 -0.5753 -1.2722  1.2814
  908MOL0     H25300   9.219   4.635  10.871 -0.0088  1.5766  0.6472
  908MOL0     H25301   8.594   4.596  10.266  1.3402 -1.1752 -1.3822
  908MOL0     H25302   8.315   4.604  10.068 -0.0453 -1.6279 -1.3229
  908MOL0     H25303   8.466   4.674  10.120  1.4651 -1.3176 -1.1105
  908MOL0     H25304   8.481   4.552  10.007  2.5230  1.7901 -0.2419
  909MOL0     O25305   7.157  11.349   5.499  0.3401 -0.4639  0.0199
  909MOL0     C25306   7.054  11.399   5.449  0.4113 -0.3676 -0.1360
  909MOL0     O25307   6.999  11.370   5.321  0.3725 -0.0643 -0.1931
  909MOL0     C25308   7.075  11.326   5.221  0.7621 -0.0987  0.6208
  909MOL0     C25309   7.204  11.378   5.205 -0.3094 -0.0008  0.5453
  909MOL0     C25310   7.285  11.329   5.094  1.0269 -0.0647 -0.3113
  909MOL0     C25311   7.240  11.240   5.001  0.3560 -0.2349  1.0294
  909MOL0     O25312   7.305  11.197   4.885  0.3024 -0.4362  0.3607
  909MOL0     C25313   7.415  11.264   4.827 -0.3410  0.1292  0.2993
  909MOL0     C25314   7.452  11.175   4.704 -0.0507 -0.6406  0.2400
  909MOL0     C25315   7.563  11.243   4.625 -0.0284 -0.8032  0.2943
  909MOL0     C25316   7.648  11.138   4.551  0.3323 -0.1262  0.4204
  909MOL0     C25317   7.782  11.193   4.493 -0.3651  0.5569 -0.4378
  909MOL0     C25318   7.866  11.278   4.596 -0.1375 -0.8957 -0.2926
  909MOL0     C25319   7.910  11.209   4.720  0.0776  0.6166 -0.6264
  909MOL0     C25320   8.010  11.303   4.796  0.1266  0.0585 -0.0678
  909MOL0     N25321   7.991  11.293   4.949  0.0708 -0.0515  0.0198
  909MOL0     C25322   8.093  11.226   5.018  0.7614  0.2227  0.0952
  909MOL0     C25323   8.057  11.244   5.149 -0.6945 -0.1706 -0.7253
  909MOL0     C25324   8.136  11.205   5.274  0.5149  0.5790 -0.7913
  909MOL0     C25325   8.249  11.103   5.264  0.5531 -0.0804 -0.3361
  909MOL0     C25326   8.379  11.172   5.229  0.0575 -0.4108 -0.2550
  909MOL0     C25327   8.488  11.072   5.227 -0.2079 -0.1026 -0.4862
  909MOL0     O25328   8.616  11.133   5.211 -0.3767  0.4443 -0.6722
  909MOL0     C25329   8.726  11.068   5.265  0.1412 -0.6708  0.3148
  909MOL0     C25330   8.836  11.147   5.285 -0.1558  0.7236  0.4706
  909MOL0     C25331   8.957  11.097   5.342  0.0355 -0.2357 -0.0026
  909MOL0     C25332   9.075  11.181   5.368  0.1107 -0.4901 -0.7416
  909MOL0     C25333   8.968  10.959   5.380  0.2876 -0.0551 -1.2680
  909MOL0     C25334   9.085  10.891   5.446 -0.2556 -0.5268  0.0962
  909MOL0     O25335   9.060  10.752   5.464  0.4690  0.4308 -0.1406
  909MOL0     C25336   9.145  10.673   5.544  0.1844 -0.7415  0.2031
  909MOL0     C25337   9.234  10.572   5.483  0.4502 -0.1749  0.2980
  909MOL0     C25338   9.327  10.503   5.562  0.4977 -0.6600 -0.4430
  909MOL0     C25339   9.323  10.512   5.699 -0.7373 -0.4363 -0.0730
  909MOL0     O25340   9.404  10.421   5.771  0.7802  0.3685 -0.4453
  909MOL0     C25341   9.364  10.404   5.902  0.8188  0.1325 -0.7450
  909MOL0     C25342   9.441  10.286   5.948 -0.3760 -0.1535 -1.4673
  909MOL0     C25343   9.380  10.143   5.905 -0.4665 -0.8251  0.1630
  909MOL0     C25344   9.473  10.020   5.930  0.2843  0.9981 -0.2473
  909MOL0     C25345   9.398   9.887   5.892  0.0434  0.8467 -0.0383
  909MOL0     C25346   9.475   9.760   5.935  0.3621  0.6918  0.6361
  909MOL0     C25347   9.395   9.623   5.898  0.4902  0.0108 -0.8827
  909MOL0     C25348   9.475   9.497   5.867 -1.5032  0.3705  0.3321
  909MOL0    Cl25349   9.605   9.475   5.987  0.5246 -0.2570  0.1085
  909MOL0     C25350   9.235  10.610   5.756  1.4329  0.1682 -0.8944
  909MOL0     C25351   9.146  10.693   5.677 -0.9210 -0.3385 -1.1732
  909MOL0     O25352   9.194  10.939   5.483 -0.7854  0.1730  0.0423
  909MOL0     C25353   8.853  10.883   5.363  0.5271  1.1688  1.7793
  909MOL0     C25354   8.735  10.935   5.303 -0.4673  0.2817  0.7931
  909MOL0     N25355   7.949  11.335   5.151 -0.7462 -0.6254 -0.5006
  909MOL0     N25356   7.912  11.358   5.031 -0.6205  0.3340 -0.3488
  909MOL0     C25357   7.113  11.194   5.022  0.5077  0.6297  0.6066
  909MOL0     C25358   7.028  11.239   5.127 -0.3520  0.5336  0.3929
  909MOL0     C25359   6.968  11.494   5.537  0.7115  0.4155 -0.2149
  909MOL0     C25360   6.930  11.617   5.487 -0.2463  0.1608 -0.6681
  909MOL0     C25361   6.841  11.697   5.550 -0.1836  0.4610 -0.6545
  909MOL0     C25362   6.800  11.672   5.678 -0.6254 -0.6961 -1.2476
  909MOL0     O25363   6.716  11.756   5.741 -0.2532  0.7748  0.6887
  909MOL0     C25364   6.700  11.754   5.880  1.1480 -0.4163 -0.6175
  909MOL0     C25365   6.793  11.867   5.931  0.0401 -0.0334  1.0085
  909MOL0     C25366   6.940  11.821   5.918 -0.0989 -0.6719 -0.1652
  909MOL0     C25367   7.034  11.852   6.047  0.7853  0.1680  0.0016
  909MOL0     C25368   7.006  11.993   6.098  0.1766 -0.1330 -0.0522
  909MOL0     C25369   6.971  12.106   6.129  1.2536  0.1794 -0.3135
  909MOL0     C25370   6.844  11.550   5.729 -0.1399  1.0538 -1.0881
  909MOL0     C25371   6.919  11.457   5.663  0.1848 -0.3570 -0.5875
  909MOL0     C25372   6.955  11.316   5.725 -0.5679  0.2039  0.3169
  909MOL0     H25373   7.241  11.459   5.268 -0.6081  0.3352  0.2928
  909MOL0     H25374   7.383  11.373   5.085  1.0197 -0.1733 -0.9581
  909MOL0     H25375   7.501  11.277   4.893  1.0907 -0.8216 -1.3169
  909MOL0     H25376   7.381  11.361   4.789  2.3921  0.9888 -0.1916
  909MOL0     H25377   7.487  11.079   4.742  1.2608 -0.8298 -1.3817
  909MOL0     H25378   7.361  11.154   4.647  0.5892 -3.5632  0.1535
  909MOL0     H25379   7.512  11.295   4.544 -0.4215 -4.0134 -1.6860
  909MOL0     H25380   7.625  11.313   4.681 -0.3033  2.1837 -2.8150
  909MOL0     H25381   7.671  11.065   4.630  2.2346  0.6128  0.5944
  909MOL0     H25382   7.592  11.095   4.467  2.9074 -2.0399 -0.4266
  909MOL0     H25383   7.752  11.261   4.412 -1.7355  2.6476  1.7103
  909MOL0     H25384   7.847  11.114   4.453 -1.3910 -0.7971  0.4989
  909MOL0     H25385   7.959  11.305   4.545  0.0561  0.6614  0.8168
  909MOL0     H25386   7.825  11.375   4.625  3.3646  0.9681 -1.0484
  909MOL0     H25387   7.975  11.122   4.701 -0.3882  0.1392 -0.0685
  909MOL0     H25388   7.834  11.177   4.791  0.5634  0.8304 -0.0035
  909MOL0     H25389   8.106  11.269   4.757 -0.6811 -0.8964 -1.3186
  909MOL0     H25390   8.003  11.409   4.768 -0.9767 -0.3243 -1.3878
  909MOL0     H25391   8.185  11.177   4.988  1.8929 -0.5036  4.1586
  909MOL0     H25392   8.065  11.164   5.346  2.9704 -1.3553  0.6718
  909MOL0     H25393   8.180  11.287   5.330 -3.6103  0.5505  3.0358
  909MOL0     H25394   8.261  11.062   5.365  1.1825  2.3102  0.6154
  909MOL0     H25395   8.221  11.013   5.208  0.6483 -1.8169  2.2321
  909MOL0     H25396   8.378  11.234   5.139  1.3441 -1.0539 -0.7238
  909MOL0     H25397   8.397  11.241   5.313  0.0988 -0.6867 -0.0368
  909MOL0     H25398   8.480  11.020   5.323  1.9177 -3.0884 -1.7660
  909MOL0     H25399   8.463  11.005   5.145 -0.7751 -0.6726  0.1452
  909MOL0     H25400   8.830  11.251   5.254 -0.3744  0.3380 -0.8560
  909MOL0     H25401   9.052  11.285   5.343 -1.4549 -0.7398 -0.4132
  909MOL0     H25402   9.169  11.152   5.320  1.3941 -1.4725  2.1114
  909MOL0     H25403   9.093  11.168   5.475 -1.0516 -3.1142 -0.7933
  909MOL0     H25404   9.225  10.578   5.375  1.3031 -0.2818  0.2144
  909MOL0     H25405   9.406  10.436   5.531 -1.1949 -3.2479  0.4887
  909MOL0     H25406   9.405  10.488   5.959  0.9217  2.4321 -3.9396
  909MOL0     H25407   9.257  10.390   5.919  0.9045  1.5395  1.2665
  909MOL0     H25408   9.549  10.296   5.935 -0.2299  1.2628  0.3968
  909MOL0     H25409   9.432  10.292   6.057 -0.9672 -4.4887 -1.1215
  909MOL0     H25410   9.365  10.164   5.799 -0.6852  0.8476  0.4932
  909MOL0     H25411   9.281  10.129   5.951  0.7162 -2.0258  2.5490
  909MOL0     H25412   9.522  10.025   6.027 -0.6584  2.0888  0.1951
  909MOL0     H25413   9.557  10.031   5.860 -0.3610  0.5506 -1.1119
  909MOL0     H25414   9.298   9.878   5.936 -1.9670 -2.4285 -4.5448
  909MOL0     H25415   9.370   9.878   5.787 -1.1403 -2.8207  0.4519
  909MOL0     H25416   9.507   9.758   6.040  1.1993 -0.4638  0.3822
  909MOL0     H25417   9.563   9.744   5.872  1.6606  1.4434  2.1901
  909MOL0     H25418   9.328   9.632   5.812  0.2739 -1.2246 -0.8586
  909MOL0     H25419   9.337   9.590   5.984  1.9263 -2.4028 -0.7244
  909MOL0     H25420   9.527   9.518   5.773 -0.4556 -0.1874  0.7707
  909MOL0     H25421   9.411   9.409   5.856 -1.7841  0.6250 -0.0962
  909MOL0     H25422   9.214  10.616   5.862  1.5695 -3.9998 -0.4696
  909MOL0     H25423   9.070  10.762   5.714 -0.7200 -0.0165 -1.3501
  909MOL0     H25424   8.855  10.780   5.398  1.2459  1.0539  1.4223
  909MOL0     H25425   8.652  10.867   5.289 -1.6959  1.6082  1.3211
  909MOL0     H25426   7.073  11.121   4.953 -1.2200  3.9778 -2.2034
  909MOL0     H25427   6.929  11.195   5.124 -1.7116  3.3811  0.1462
  909MOL0     H25428   6.970  11.644   5.390  0.9847  1.5862  0.2041
  909MOL0     H25429   6.804  11.780   5.491 -1.2375  0.7597  0.3910
  909MOL0     H25430   6.599  11.783   5.910  2.3735  0.4341  3.1011
  909MOL0     H25431   6.734  11.667   5.937  1.1571  0.8488  1.3860
  909MOL0     H25432   6.760  11.879   6.034 -3.9818 -4.4774  0.5774
  909MOL0     H25433   6.775  11.961   5.877  2.5447  0.3500  0.6703
  909MOL0     H25434   6.946  11.714   5.896  0.1140 -0.4294 -1.3283
  909MOL0     H25435   6.995  11.856   5.831  4.1342 -5.2506  0.2452
  909MOL0     H25436   7.136  11.844   6.009  1.2058 -2.8687  1.4562
  909MOL0     H25437   7.013  11.793   6.137 -1.6705  1.9043  0.6778
  909MOL0     H25438   6.930  12.199   6.164  0.4714  0.3119 -1.4918
  909MOL0     H25439   6.829  11.522   5.833  1.3972  0.9237 -0.8854
  909MOL0     H25440   7.063  11.314   5.746 -0.6852 -0.3975  0.8943
  909MOL0     H25441   6.893  11.309   5.814 -3.0508  1.8254 -1.1583
  909MOL0     H25442   6.917  11.242   5.654  1.5030 -0.7271  0.0929
  910MOL0     O25443   3.718   1.067   2.076 -0.1879  0.6977  0.5281
  910MOL0     C25444   3.802   1.111   1.996 -0.3205 -0.3090 -1.1536
  910MOL0     O25445   3.938   1.114   2.008 -0.0656  0.7823  0.9704
  910MOL0     C25446   3.976   1.080   2.138 -0.6469  0.0890 -0.1623
  910MOL0     C25447   4.025   1.185   2.225 -0.6069  0.3256  0.3128
  910MOL0     C25448   4.077   1.141   2.348  0.4426  0.2502  0.4112
  910MOL0     C25449   4.086   1.008   2.367 -0.2162 -0.2272 -0.0858
  910MOL0     O25450   4.136   0.954   2.483  0.2762  0.2637 -0.4621
  910MOL0     C25451   4.269   1.010   2.513  0.4638 -0.9146 -0.1672
  910MOL0     C25452   4.293   1.027   2.664  0.4271  0.6299  0.0570
  910MOL0     C25453   4.415   1.115   2.687 -0.4764 -0.7111  0.6282
  910MOL0     C25454   4.545   1.052   2.645  0.2535  0.5222 -0.1203
  910MOL0     C25455   4.680   1.113   2.697 -0.8779 -0.4675  0.1944
  910MOL0     C25456   4.815   1.042   2.673 -0.9240  0.8552 -0.7460
  910MOL0     C25457   4.926   1.122   2.742  0.4200 -1.0502 -0.4568
  910MOL0     C25458   5.065   1.106   2.679 -0.4202 -0.3821  0.2957
  910MOL0     N25459   5.189   1.147   2.748  0.1289  0.1720 -0.9639
  910MOL0     C25460   5.207   1.217   2.869 -0.0945  0.3691 -0.6347
  910MOL0     C25461   5.350   1.236   2.869  0.2310 -0.6236 -0.2382
  910MOL0     C25462   5.422   1.288   2.983 -0.6157  1.0014 -0.4397
  910MOL0     C25463   5.498   1.175   3.058  1.0417  0.6981  0.7358
  910MOL0     C25464   5.606   1.231   3.158 -0.3056  0.0812 -0.4581
  910MOL0     C25465   5.717   1.314   3.096  0.3680  0.2569  0.1471
  910MOL0     O25466   5.768   1.247   2.977 -0.0109 -0.2736 -0.0123
  910MOL0     C25467   5.899   1.204   2.982  0.1235  0.4528  0.4953
  910MOL0     C25468   5.955   1.121   3.081 -0.1404  1.5466  0.3078
  910MOL0     C25469   6.092   1.077   3.087 -0.1677  0.0944  0.0692
  910MOL0     C25470   6.121   0.963   3.184  0.8239  0.0990 -0.3594
  910MOL0     C25471   6.182   1.118   2.988  0.2295  0.2398 -0.1393
  910MOL0     C25472   6.319   1.067   2.977  0.6411  0.2902  0.2087
  910MOL0     O25473   6.376   1.006   3.085  0.3431 -0.4514 -0.5627
  910MOL0     C25474   6.494   0.933   3.083 -0.1135 -0.3713 -0.7443
  910MOL0     C25475   6.605   0.990   3.030 -0.9844  0.3099  0.1193
  910MOL0     C25476   6.727   0.917   3.020 -0.1893 -0.7488  0.3671
  910MOL0     C25477   6.731   0.779   3.061 -0.1507 -0.1066 -0.0440
  910MOL0     O25478   6.842   0.701   3.038 -0.2573  0.0117 -0.1332
  910MOL0     C25479   6.830   0.562   2.992 -0.4772  0.6032  0.0992
  910MOL0     C25480   6.866   0.465   3.106  0.0303 -0.0156  0.0169
  910MOL0     C25481   6.850   0.318   3.068  0.6198  0.3955  0.5035
  910MOL0     C25482   6.883   0.227   3.184 -0.6762 -0.1328 -0.9029
  910MOL0     C25483   6.851   0.084   3.164 -0.2886  0.1079 -0.4658
  910MOL0     C25484   6.858   0.004   3.293  0.2558  0.2200 -0.4536
  910MOL0     C25485   6.752   0.028   3.403  0.0782 -0.5028  0.8157
  910MOL0     C25486   6.742  -0.078   3.504  0.9340  1.1205  0.0092
  910MOL0    Cl25487   6.902  -0.076   3.602  0.0920  0.0902 -0.4660
  910MOL0     C25488   6.622   0.730   3.132  0.5909  0.2228 -0.0045
  910MOL0     C25489   6.507   0.807   3.145  0.4603  0.1722 -0.1781
  910MOL0     O25490   6.368   1.080   2.864  0.0041  0.2187 -0.4185
  910MOL0     C25491   6.138   1.199   2.885  0.0533  0.2231  0.2979
  910MOL0     C25492   6.000   1.237   2.887  0.5907  0.4686  0.0532
  910MOL0     N25493   5.407   1.179   2.758  0.0798 -0.2351 -0.1543
  910MOL0     N25494   5.315   1.127   2.689  0.3404  0.2276 -0.1666
  910MOL0     C25495   4.052   0.902   2.281  0.7416 -0.8535 -0.9409
  910MOL0     C25496   3.991   0.937   2.167 -0.5590 -0.0458 -0.2344
  910MOL0     C25497   3.743   1.178   1.867  0.2953  0.2914 -0.0169
  910MOL0     C25498   3.816   1.280   1.810  0.1787 -0.1746 -0.4413
  910MOL0     C25499   3.766   1.350   1.699 -0.9884 -0.1721  0.4092
  910MOL0     C25500   3.661   1.313   1.625  0.0882 -0.0375  0.6634
  910MOL0     O25501   3.636   1.383   1.510  0.1601  0.4716 -0.4539
  910MOL0     C25502   3.505   1.378   1.463  0.4435  0.5119  1.0645
  910MOL0     C25503   3.490   1.494   1.354  0.2239 -0.0409 -0.5829
  910MOL0     C25504   3.501   1.627   1.427  0.4864  0.1973  0.2324
  910MOL0     C25505   3.423   1.732   1.349  0.4864 -0.8394  0.3935
  910MOL0     C25506   3.423   1.863   1.418  0.3626  0.7905 -0.0492
  910MOL0     C25507   3.412   1.969   1.476  0.6151 -0.4176 -0.4921
  910MOL0     C25508   3.576   1.216   1.680 -0.0718 -0.1659 -0.6750
  910MOL0     C25509   3.623   1.150   1.804 -0.3940 -0.1092  0.4740
  910MOL0     C25510   3.530   1.029   1.849 -0.3287 -0.6426 -0.3090
  910MOL0     H25511   4.003   1.290   2.208 -2.9817  0.3790  2.8607
  910MOL0     H25512   4.122   1.204   2.425  0.9739  1.0046 -0.5003
  910MOL0     H25513   4.285   1.107   2.467 -2.5181  0.8904  2.1933
  910MOL0     H25514   4.345   0.937   2.484  3.3487  1.0739  1.8605
  910MOL0     H25515   4.205   1.085   2.696 -0.1749 -0.1721 -0.1223
  910MOL0     H25516   4.306   0.935   2.722  2.2559 -0.4758 -1.9820
  910MOL0     H25517   4.399   1.211   2.637  0.2446 -0.6193  0.5629
  910MOL0     H25518   4.435   1.129   2.793 -2.1530  2.0180  0.6621
  910MOL0     H25519   4.539   0.947   2.674  3.5180 -0.1848 -1.5743
  910MOL0     H25520   4.549   1.061   2.536 -1.3722  2.0630 -0.1119
  910MOL0     H25521   4.660   1.120   2.805  1.3466 -0.8078  0.6649
  910MOL0     H25522   4.697   1.215   2.661  0.3027 -0.6947  0.0748
  910MOL0     H25523   4.819   0.935   2.695  3.2300  1.0044  0.1146
  910MOL0     H25524   4.854   1.036   2.571  3.7756 -2.6857  0.8516
  910MOL0     H25525   4.924   1.081   2.844  0.9123  3.3788  1.5743
  910MOL0     H25526   4.900   1.228   2.746  3.4155 -0.1356 -2.0301
  910MOL0     H25527   5.074   1.001   2.651  0.7037 -0.3769  0.6123
  910MOL0     H25528   5.064   1.170   2.590 -1.9847  0.1355  0.6477
  910MOL0     H25529   5.142   1.240   2.953  0.6809  2.9166 -0.6585
  910MOL0     H25530   5.347   1.339   3.043 -1.3792 -1.0413  0.4063
  910MOL0     H25531   5.499   1.353   2.940  1.6365 -1.8033 -0.9743
  910MOL0     H25532   5.426   1.118   3.117 -0.1822  1.8712  0.4382
  910MOL0     H25533   5.543   1.108   2.984  1.3782  0.6455  0.9894
  910MOL0     H25534   5.555   1.280   3.241 -1.6884 -3.3108  0.8991
  910MOL0     H25535   5.651   1.143   3.205  1.7233  1.1711 -0.2658
  910MOL0     H25536   5.682   1.417   3.079  2.1076  1.0563  1.2287
  910MOL0     H25537   5.792   1.333   3.173 -0.1456 -0.1761  0.7574
  910MOL0     H25538   5.886   1.105   3.163 -1.2861  0.6154 -0.8018
  910MOL0     H25539   6.171   0.886   3.124  3.2555  0.4260  1.1350
  910MOL0     H25540   6.029   0.921   3.227  1.4638 -0.3776  0.5691
  910MOL0     H25541   6.182   1.002   3.265 -1.2814  2.3468  0.2856
  910MOL0     H25542   6.598   1.081   2.972  0.2617  0.9308  0.8984
  910MOL0     H25543   6.816   0.945   2.965 -0.6084 -0.3657 -0.1198
  910MOL0     H25544   6.730   0.548   2.949 -1.2322  1.6995  1.4356
  910MOL0     H25545   6.892   0.538   2.905 -1.5198 -1.3159 -0.1741
  910MOL0     H25546   6.971   0.473   3.138  0.6784  0.0891 -1.9950
  910MOL0     H25547   6.815   0.502   3.195  3.3265 -2.0076  3.0089
  910MOL0     H25548   6.923   0.294   2.990  0.7078  0.8825  0.4362
  910MOL0     H25549   6.756   0.291   3.018  0.3732  2.9463 -0.5858
  910MOL0     H25550   6.835   0.257   3.278  2.2939  0.8991  0.4149
  910MOL0     H25551   6.989   0.226   3.208 -0.7028  4.3853  0.2596
  910MOL0     H25552   6.750   0.080   3.122 -1.0280  1.2136  1.1328
  910MOL0     H25553   6.921   0.035   3.095 -1.7451 -4.2932  0.8473
  910MOL0     H25554   6.946   0.025   3.355  0.2557  0.8993 -0.6777
  910MOL0     H25555   6.855  -0.103   3.271 -0.3817  0.0168  0.5343
  910MOL0     H25556   6.662   0.043   3.342 -0.0773 -2.9610  0.3227
  910MOL0     H25557   6.764   0.126   3.450  1.6396  0.6935 -1.8237
  910MOL0     H25558   6.729  -0.171   3.448  0.1240  1.5873 -0.5890
  910MOL0     H25559   6.656  -0.058   3.567  0.0027  2.5934 -1.6408
  910MOL0     H25560   6.617   0.633   3.180 -1.5582  0.3701  0.1961
  910MOL0     H25561   6.429   0.768   3.209  1.5268  2.0385  2.4131
  910MOL0     H25562   6.200   1.238   2.804  3.0296 -3.0971  0.7417
  910MOL0     H25563   5.964   1.290   2.799  0.5892  0.8751  0.2959
  910MOL0     H25564   4.065   0.797   2.304  0.0331 -0.8653 -0.5910
  910MOL0     H25565   3.976   0.855   2.098  1.2728  0.0469 -0.7972
  910MOL0     H25566   3.905   1.323   1.855  2.8013 -1.3469 -4.0365
  910MOL0     H25567   3.832   1.430   1.668 -0.4298 -0.6836  0.2635
  910MOL0     H25568   3.486   1.284   1.412  0.2453  1.6035 -0.9623
  910MOL0     H25569   3.431   1.402   1.539  0.3389 -0.6495  1.3477
  910MOL0     H25570   3.391   1.485   1.307 -0.4801  1.2792  0.5691
  910MOL0     H25571   3.569   1.487   1.279  0.4274 -3.0243 -0.1972
  910MOL0     H25572   3.465   1.633   1.530  0.9780 -2.0460  0.5826
  910MOL0     H25573   3.607   1.654   1.421  0.9429 -1.3142  0.9268
  910MOL0     H25574   3.319   1.703   1.332  0.4173 -1.1674  1.3521
  910MOL0     H25575   3.475   1.754   1.255 -1.7123  0.2794 -0.6468
  910MOL0     H25576   3.389   2.059   1.529 -2.2371 -0.3367 -1.6453
  910MOL0     H25577   3.473   1.190   1.655 -0.0476 -2.5287  1.2886
  910MOL0     H25578   3.528   0.966   1.760  0.0261  0.5799 -1.2150
  910MOL0     H25579   3.575   0.963   1.924  2.0688  1.6656  0.4489
  910MOL0     H25580   3.428   1.063   1.869  1.0951  4.2188 -0.0377
  911MOL0     O25581   3.976   1.440  11.251  0.5261 -0.3116  0.1750
  911MOL0     C25582   3.943   1.321  11.259  0.3905 -0.5091  0.8077
  911MOL0     O25583   4.022   1.219  11.232  0.8220 -0.1520 -0.5005
  911MOL0     C25584   4.157   1.254  11.205 -0.4759  0.3952  0.6476
  911MOL0     C25585   4.257   1.231  11.296 -0.0483 -0.5252 -1.1202
  911MOL0     C25586   4.393   1.251  11.255 -0.0215 -0.0278  0.0490
  911MOL0     C25587   4.427   1.287  11.128 -0.6315  0.3219 -1.1420
  911MOL0     O25588   4.562   1.297  11.091 -0.6437  0.4135 -0.3665
  911MOL0     C25589   4.597   1.401  11.002 -1.2047 -0.2775  0.0521
  911MOL0     C25590   4.565   1.541  11.055 -0.4638  0.2015  0.1307
  911MOL0     C25591   4.635   1.653  10.980  0.4360  0.9071  0.6815
  911MOL0     C25592   4.607   1.803  10.996  1.5002 -0.8919 -0.9665
  911MOL0     C25593   4.656   1.851  11.123 -0.4800 -1.0892 -0.8717
  911MOL0     C25594   4.631   1.998  11.144  0.9354  0.2253  0.8652
  911MOL0     C25595   4.700   2.058  11.265  0.0656 -0.3428  0.1244
  911MOL0     C25596   4.843   2.107  11.226  0.3138 -0.6845 -0.7154
  911MOL0     N25597   4.925   2.114  11.351  0.3039 -0.1237  0.0452
  911MOL0     C25598   4.996   1.999  11.406  0.1178 -0.0475 -0.9722
  911MOL0     C25599   5.056   2.053  11.517 -0.6516  0.2261 -0.4444
  911MOL0     C25600   5.160   1.996  11.611 -0.0412 -0.0709 -0.5632
  911MOL0     C25601   5.106   1.989  11.756  0.8640  0.8401 -0.2735
  911MOL0     C25602   4.974   1.899  11.765 -1.2255  0.4107 -0.3194
  911MOL0     C25603   4.925   1.886  11.909  0.1297 -0.1490  0.0891
  911MOL0     O25604   4.811   1.795  11.924 -0.2113 -0.2457  0.3899
  911MOL0     C25605   4.690   1.833  11.875 -0.5609 -0.3645 -0.8865
  911MOL0     C25606   4.593   1.735  11.861 -0.7536  0.8815 -0.5115
  911MOL0     C25607   4.454   1.753  11.821  0.3127 -1.3623 -0.0614
  911MOL0     C25608   4.360   1.634  11.833  0.8668 -0.4743 -0.3441
  911MOL0     C25609   4.413   1.883  11.797 -0.9328 -0.4652  0.2169
  911MOL0     C25610   4.280   1.929  11.777 -0.2413 -0.2682  0.7071
  911MOL0     O25611   4.174   1.841  11.809 -0.5703 -0.5835 -1.1968
  911MOL0     C25612   4.049   1.878  11.760 -0.4578  0.6420  0.3887
  911MOL0     C25613   3.996   2.004  11.799  0.0109 -0.0509 -0.0233
  911MOL0     C25614   3.865   2.042  11.776 -0.4265 -0.7586 -0.0634
  911MOL0     C25615   3.776   1.965  11.697  0.0702  0.4010 -0.7053
  911MOL0     O25616   3.649   1.995  11.667 -0.1750 -0.0045  0.0198
  911MOL0     C25617   3.581   2.083  11.756 -0.9019  0.1492  1.1474
  911MOL0     C25618   3.420   2.061  11.736 -1.4258 -0.3364 -1.2107
  911MOL0     C25619   3.339   2.179  11.789  0.4554 -0.9432 -0.6500
  911MOL0     C25620   3.307   2.297  11.693  0.4331 -0.4386 -0.0221
  911MOL0     C25621   3.240   2.419  11.756  0.9060 -0.8922  0.2967
  911MOL0     C25622   3.207   2.534  11.651  0.3862 -0.9417  0.5141
  911MOL0     C25623   3.135   2.658  11.713  0.3595 -1.2086  0.2638
  911MOL0     C25624   3.082   2.740  11.594 -0.6153 -0.2968  0.5268
  911MOL0    Cl25625   3.009   2.886  11.667 -0.3643  0.2816  0.1400
  911MOL0     C25626   3.833   1.837  11.653  0.1775 -0.2379 -0.3092
  911MOL0     C25627   3.968   1.800  11.678 -0.2056  0.7167  0.0839
  911MOL0     O25628   4.279   2.033  11.712 -0.2887 -0.6260  0.0637
  911MOL0     C25629   4.525   1.984  11.790  0.7880 -0.4187  0.1468
  911MOL0     C25630   4.656   1.959  11.835 -0.0041  0.3815 -0.3347
  911MOL0     N25631   5.017   2.186  11.536  0.4968 -0.6102  0.1118
  911MOL0     N25632   4.951   2.222  11.431 -1.0071  0.2514  0.1965
  911MOL0     C25633   4.322   1.307  11.036 -0.6130 -0.3610 -0.1122
  911MOL0     C25634   4.184   1.302  11.073 -0.1107 -0.7363 -0.3535
  911MOL0     C25635   3.795   1.297  11.264  0.1746  0.4495  0.4511
  911MOL0     C25636   3.736   1.207  11.178 -1.0729  0.2551 -0.3739
  911MOL0     C25637   3.603   1.162  11.197 -0.8565  0.8894 -0.1287
  911MOL0     C25638   3.518   1.233  11.286  0.7589 -0.6570 -0.8320
  911MOL0     O25639   3.383   1.210  11.305 -0.4873  0.3930  0.2418
  911MOL0     C25640   3.314   1.118  11.223  0.4773  1.0287 -0.5685
  911MOL0     C25641   3.236   1.181  11.099  0.1770  0.3945  0.3989
  911MOL0     C25642   3.125   1.279  11.157 -0.6108 -0.6214  0.4514
  911MOL0     C25643   2.998   1.204  11.215  0.4166 -0.2388  0.5729
  911MOL0     C25644   2.923   1.128  11.113 -0.5562 -0.4734 -0.2726
  911MOL0     C25645   2.844   1.068  11.039 -0.6840 -0.7303 -0.6055
  911MOL0     C25646   3.580   1.329  11.375  0.1245  1.0144 -0.3756
  911MOL0     C25647   3.718   1.349  11.365  0.0648  0.1154  0.6925
  911MOL0     C25648   3.763   1.448  11.465  0.0523 -0.4660  1.0995
  911MOL0     H25649   4.233   1.187  11.393  0.4068 -1.6735 -1.5123
  911MOL0     H25650   4.479   1.244  11.321  0.4417  2.5379 -0.1628
  911MOL0     H25651   4.551   1.393  10.903  0.9438  1.8386 -1.2308
  911MOL0     H25652   4.704   1.397  10.977 -0.8876  0.3053  1.2549
  911MOL0     H25653   4.456   1.540  11.056 -0.4848  0.0894 -0.8872
  911MOL0     H25654   4.595   1.562  11.158 -2.6267 -1.6611  1.2241
  911MOL0     H25655   4.743   1.634  10.975  0.0778 -1.3227 -0.2224
  911MOL0     H25656   4.598   1.638  10.878 -2.3416 -0.5395  1.8132
  911MOL0     H25657   4.644   1.864  10.913  1.5388  2.0803  1.0628
  911MOL0     H25658   4.498   1.813  11.002  1.6091  1.3779 -1.6347
  911MOL0     H25659   4.762   1.834  11.144 -0.5422 -0.3163  0.1603
  911MOL0     H25660   4.605   1.813  11.212 -2.2780  2.7187 -0.0745
  911MOL0     H25661   4.664   2.044  11.050  0.8929 -4.5511 -1.7892
  911MOL0     H25662   4.523   2.015  11.135  0.9240 -0.9513 -5.0872
  911MOL0     H25663   4.713   1.970  11.329 -0.9519 -1.8520 -1.6277
  911MOL0     H25664   4.652   2.142  11.315  3.6981  2.6562 -0.9018
  911MOL0     H25665   4.893   2.042  11.153  3.2410 -0.8356  1.2443
  911MOL0     H25666   4.837   2.204  11.177  1.8182  0.0647  0.5061
  911MOL0     H25667   5.006   1.898  11.366  3.3456 -0.2335  0.0152
  911MOL0     H25668   5.247   2.062  11.607  0.2037 -0.3610 -0.1524
  911MOL0     H25669   5.180   1.894  11.578 -1.0912 -0.7115  0.6653
  911MOL0     H25670   5.187   1.951  11.820  2.5924  0.7213 -2.4106
  911MOL0     H25671   5.093   2.093  11.786  0.8033  0.9470 -0.6756
  911MOL0     H25672   4.903   1.921  11.685  0.7705 -0.1599 -2.3568
  911MOL0     H25673   5.016   1.800  11.746 -0.9412  0.0764  1.7839
  911MOL0     H25674   5.008   1.845  11.967  0.7555 -1.5515 -1.7198
  911MOL0     H25675   4.903   1.986  11.947 -1.0585 -0.4811  0.3104
  911MOL0     H25676   4.623   1.632  11.879 -0.7145  0.7410 -1.3085
  911MOL0     H25677   4.320   1.640  11.934  1.2379 -0.8467 -0.1778
  911MOL0     H25678   4.410   1.538  11.822 -0.5317 -1.1148 -1.4655
  911MOL0     H25679   4.274   1.629  11.765 -0.8479 -0.7407  1.7532
  911MOL0     H25680   4.071   2.060  11.854 -2.2023  0.7759  2.3299
  911MOL0     H25681   3.841   2.144  11.808  1.4412  1.2169 -4.2321
  911MOL0     H25682   3.607   2.061  11.859 -0.1420 -1.1923  0.6937
  911MOL0     H25683   3.599   2.187  11.726 -2.1415  0.0581 -0.0448
  911MOL0     H25684   3.386   2.053  11.632 -2.4590 -1.8072 -0.8024
  911MOL0     H25685   3.395   1.974  11.797 -0.2970  1.0471  1.4026
  911MOL0     H25686   3.387   2.217  11.880 -2.7937 -1.2938  1.3801
  911MOL0     H25687   3.244   2.134  11.819  0.5098 -0.2952  0.5535
  911MOL0     H25688   3.242   2.271  11.609  0.1198  2.4334 -0.8063
  911MOL0     H25689   3.398   2.333  11.644  1.0825 -1.9232  0.0704
  911MOL0     H25690   3.137   2.404  11.791  0.1716  3.1590  0.2608
  911MOL0     H25691   3.286   2.457  11.847  1.2748 -2.3735  0.7696
  911MOL0     H25692   3.141   2.501  11.570  1.2502 -0.1850 -0.5280
  911MOL0     H25693   3.302   2.565  11.607  1.0304  0.6340  2.8365
  911MOL0     H25694   3.214   2.711  11.766  1.7446 -0.1370 -2.6347
  911MOL0     H25695   3.046   2.638  11.774 -0.5823 -0.2574 -0.7591
  911MOL0     H25696   3.010   2.672  11.550  1.2365 -0.3990 -2.6345
  911MOL0     H25697   3.165   2.780  11.534  0.9915 -0.5215  2.4752
  911MOL0     H25698   3.773   1.762  11.601 -0.2299 -2.1756  2.7040
  911MOL0     H25699   4.008   1.705  11.644  2.9454  2.9727 -3.1787
  911MOL0     H25700   4.513   2.084  11.749  2.1596 -1.1001 -2.1483
  911MOL0     H25701   4.724   2.043  11.836  0.9266 -0.3494  0.9093
  911MOL0     H25702   4.359   1.331  10.937  2.7355 -0.2575  1.0254
  911MOL0     H25703   4.108   1.346  11.010 -0.6233  0.4924  1.0831
  911MOL0     H25704   3.790   1.149  11.104 -0.3810 -2.4450  2.0543
  911MOL0     H25705   3.567   1.089  11.125  2.4908 -2.1904  1.0526
  911MOL0     H25706   3.374   1.035  11.185 -0.0450  1.1480 -1.6883
  911MOL0     H25707   3.249   1.062  11.291  2.3511 -1.1182 -0.4122
  911MOL0     H25708   3.180   1.101  11.049  0.6639 -1.3291  2.4604
  911MOL0     H25709   3.300   1.227  11.023 -0.9094 -0.2770 -0.9724
  911MOL0     H25710   3.172   1.344  11.232 -1.5322 -1.4766  1.8098
  911MOL0     H25711   3.097   1.344  11.073  2.8330  1.6188  0.7991
  911MOL0     H25712   2.934   1.270  11.273  0.0036 -0.9371  0.9133
  911MOL0     H25713   3.035   1.126  11.282  0.6981 -1.5466 -1.0305
  911MOL0     H25714   2.769   1.030  10.973 -0.7363 -0.3349 -0.7732
  911MOL0     H25715   3.514   1.374  11.448 -3.0692 -1.4878 -1.4466
  911MOL0     H25716   3.839   1.515  11.423 -1.4723  1.1338  0.7617
  911MOL0     H25717   3.679   1.511  11.497 -0.5727 -1.9775  2.5953
  911MOL0     H25718   3.813   1.398  11.549  2.0641  3.7967  2.7749
  912MOL0     O25719   2.443   3.092   4.054  0.2715  0.7509  0.3072
  912MOL0     C25720   2.348   3.050   4.129  0.2381 -1.2240  0.7533
  912MOL0     O25721   2.271   2.948   4.104 -0.6001  0.2789 -0.0363
  912MOL0     C25722   2.322   2.864   4.009 -0.3875  0.3573 -0.5008
  912MOL0     C25723   2.440   2.788   4.023 -0.5861  1.0745 -0.3033
  912MOL0     C25724   2.488   2.693   3.930  0.2265  1.3229  0.4884
  912MOL0     C25725   2.419   2.667   3.813 -1.0069  0.9885  0.4238
  912MOL0     O25726   2.453   2.604   3.694 -0.0980 -0.4955  0.3766
  912MOL0     C25727   2.571   2.520   3.688  0.2116 -0.9445 -0.3058
  912MOL0     C25728   2.524   2.407   3.593 -0.2957 -0.7408 -0.4970
  912MOL0     C25729   2.507   2.430   3.443  0.2164 -0.0787 -0.1904
  912MOL0     C25730   2.635   2.486   3.382  0.1427 -0.4950 -0.2637
  912MOL0     C25731   2.637   2.451   3.227 -0.5920 -0.1376 -0.6021
  912MOL0     C25732   2.772   2.475   3.155  0.2671  0.2410  0.0717
  912MOL0     C25733   2.823   2.619   3.152 -0.5378  0.5454  0.1146
  912MOL0     C25734   2.975   2.635   3.160 -0.4083  0.2688 -0.1275
  912MOL0     N25735   3.033   2.759   3.101 -0.5056 -0.7580 -0.0440
  912MOL0     C25736   3.036   2.892   3.147  0.3217 -0.7634  0.2467
  912MOL0     C25737   3.088   2.968   3.041  0.3321 -0.0646  0.5347
  912MOL0     C25738   3.090   3.122   3.030 -0.2484  0.4427  0.7223
  912MOL0     C25739   2.973   3.165   2.926 -0.3691 -0.5085 -0.8130
  912MOL0     C25740   2.848   3.194   3.009 -0.1961  0.5155  0.8146
  912MOL0     C25741   2.753   3.260   2.903 -0.1957  0.2445 -1.3984
  912MOL0     O25742   2.710   3.177   2.794  0.9478  0.4456 -0.6830
  912MOL0     C25743   2.681   3.040   2.805  0.2210 -0.5033  0.1812
  912MOL0     C25744   2.603   2.970   2.908 -0.0226 -0.6068 -0.1103
  912MOL0     C25745   2.571   2.834   2.904  1.0350  0.0496 -1.7350
  912MOL0     C25746   2.497   2.783   3.033 -0.0678 -0.9780  0.4450
  912MOL0     C25747   2.621   2.756   2.797 -0.3926  0.2381  0.3153
  912MOL0     C25748   2.611   2.610   2.784 -0.0792  0.6380  0.0308
  912MOL0     O25749   2.685   2.543   2.684 -1.1303  0.4542  0.3797
  912MOL0     C25750   2.665   2.415   2.675  0.9609 -0.5019 -0.0785
  912MOL0     C25751   2.560   2.370   2.589 -0.4969  0.5508 -0.5815
  912MOL0     C25752   2.520   2.232   2.577  0.5309  0.5058  0.6270
  912MOL0     C25753   2.591   2.146   2.651  0.1967  0.3840  1.2569
  912MOL0     O25754   2.552   2.013   2.632  0.3358 -0.4231  0.2653
  912MOL0     C25755   2.643   1.908   2.660  0.2615 -0.8034 -0.5655
  912MOL0     C25756   2.642   1.802   2.552  0.4390 -0.0523  0.4667
  912MOL0     C25757   2.527   1.708   2.573 -0.0060  0.0943  0.7095
  912MOL0     C25758   2.491   1.625   2.449  1.4046 -1.3476  0.0484
  912MOL0     C25759   2.345   1.582   2.448 -0.1979 -0.3234 -0.3242
  912MOL0     C25760   2.331   1.443   2.522  0.7102 -0.2128 -0.0858
  912MOL0     C25761   2.350   1.336   2.417  0.1366  0.5946 -0.2802
  912MOL0     C25762   2.452   1.233   2.472 -0.1242  0.8725  0.1480
  912MOL0    Cl25763   2.378   1.122   2.585 -0.0197  0.0594 -0.0633
  912MOL0     C25764   2.693   2.190   2.737  0.4794  0.3268  0.5426
  912MOL0     C25765   2.736   2.319   2.741 -0.4892  1.4435  0.7216
  912MOL0     O25766   2.545   2.555   2.869  0.0908  0.0976  0.6873
  912MOL0     C25767   2.686   2.822   2.685  0.3738 -0.0565  0.7522
  912MOL0     C25768   2.715   2.961   2.691 -0.7322  0.5480  0.3417
  912MOL0     N25769   3.122   2.879   2.937 -0.1658 -0.2738  0.0354
  912MOL0     N25770   3.092   2.758   2.977  0.5491 -0.6237 -0.1904
  912MOL0     C25771   2.298   2.740   3.799 -1.1687 -0.3065  1.1452
  912MOL0     C25772   2.248   2.834   3.892  0.1888 -0.8441  0.4818
  912MOL0     C25773   2.293   3.134   4.237 -0.7031 -1.3118 -0.2629
  912MOL0     C25774   2.277   3.271   4.225 -0.1436  0.2166 -0.4409
  912MOL0     C25775   2.225   3.351   4.331 -0.3843  0.5641  0.4452
  912MOL0     C25776   2.196   3.297   4.462  1.0273  0.0456 -0.8303
  912MOL0     O25777   2.144   3.373   4.568  0.5893 -0.1303 -0.8852
  912MOL0     C25778   2.122   3.312   4.697  0.3548  0.0337 -0.5080
  912MOL0     C25779   2.096   3.429   4.796  0.3539 -0.1000 -0.6224
  912MOL0     C25780   2.072   3.370   4.934  0.2580  0.6712 -0.1762
  912MOL0     C25781   2.035   3.479   5.043  0.5907 -0.3503 -0.4731
  912MOL0     C25782   1.943   3.421   5.144  0.0871  0.6176  0.5727
  912MOL0     C25783   1.863   3.389   5.230 -0.1425 -0.1314  0.6777
  912MOL0     C25784   2.209   3.156   4.467 -0.5469  0.2534  0.3430
  912MOL0     C25785   2.255   3.071   4.357  0.5651 -0.2590  0.5072
  912MOL0     C25786   2.281   2.921   4.399  0.1658  0.4345  0.4999
  912MOL0     H25787   2.501   2.811   4.110  0.5651  2.1814 -1.3687
  912MOL0     H25788   2.589   2.657   3.942  0.8937  2.3128 -1.6123
  912MOL0     H25789   2.600   2.479   3.785  1.8493  2.5485  0.8464
  912MOL0     H25790   2.659   2.582   3.666 -0.9376  0.4789 -1.0569
  912MOL0     H25791   2.591   2.325   3.618  1.5434  1.8771  4.7719
  912MOL0     H25792   2.432   2.365   3.634  0.4789 -1.2846  0.7228
  912MOL0     H25793   2.482   2.338   3.390 -0.6469  0.8981 -1.5349
  912MOL0     H25794   2.431   2.509   3.433  1.0523  1.0486  1.7064
  912MOL0     H25795   2.636   2.594   3.399  0.6553 -0.0193 -2.8902
  912MOL0     H25796   2.716   2.434   3.436  0.5715 -2.2644 -2.4581
  912MOL0     H25797   2.560   2.500   3.166  1.7291  3.4359 -0.9339
  912MOL0     H25798   2.634   2.342   3.219  1.1568 -0.3203  0.6236
  912MOL0     H25799   2.836   2.411   3.216 -3.2765  0.6596  4.8089
  912MOL0     H25800   2.771   2.433   3.054  3.5259  2.4523 -1.0245
  912MOL0     H25801   2.776   2.674   3.235 -0.4691 -3.6858  3.3011
  912MOL0     H25802   2.776   2.649   3.058 -1.4766 -0.9511  0.0603
  912MOL0     H25803   2.979   2.630   3.270 -1.6191  0.7889 -0.0386
  912MOL0     H25804   3.023   2.544   3.122  1.2635  1.9790 -2.3726
  912MOL0     H25805   3.012   2.927   3.247  0.5505 -3.0071  1.1517
  912MOL0     H25806   3.184   3.151   2.983 -0.0637  2.9148  2.4930
  912MOL0     H25807   3.087   3.173   3.126 -1.4364  1.0641  0.3783
  912MOL0     H25808   3.003   3.263   2.888  5.6648 -0.1470  3.3774
  912MOL0     H25809   2.967   3.095   2.843 -1.5743  2.6053 -3.5889
  912MOL0     H25810   2.814   3.100   3.055 -1.4153 -1.1055 -3.0167
  912MOL0     H25811   2.861   3.268   3.089 -2.8120 -0.7368  2.5320
  912MOL0     H25812   2.667   3.310   2.950  0.9116  1.2803 -0.3660
  912MOL0     H25813   2.805   3.352   2.874  0.7571  1.3696  3.0033
  912MOL0     H25814   2.565   3.033   2.988 -0.8671  3.0610 -3.1503
  912MOL0     H25815   2.401   2.734   3.018  1.0648 -2.9737 -0.7695
  912MOL0     H25816   2.469   2.871   3.092 -1.8047 -0.6650 -0.7798
  912MOL0     H25817   2.565   2.716   3.086  1.1174  0.3176  0.6441
  912MOL0     H25818   2.510   2.440   2.523 -1.3018 -1.7799 -2.5963
  912MOL0     H25819   2.434   2.205   2.517 -0.7953 -0.8841  2.9893
  912MOL0     H25820   2.745   1.947   2.669 -0.0100 -0.3777  1.0630
  912MOL0     H25821   2.636   1.855   2.755  1.2803 -1.6006 -0.9234
  912MOL0     H25822   2.634   1.868   2.466 -2.7896 -1.0251 -0.1248
  912MOL0     H25823   2.739   1.755   2.536  0.4770  0.6315 -1.5323
  912MOL0     H25824   2.434   1.762   2.591 -1.3749 -0.7992 -2.8476
  912MOL0     H25825   2.544   1.649   2.664  1.3473  2.0529  1.8163
  912MOL0     H25826   2.560   1.542   2.429  1.7727 -1.1163  0.3597
  912MOL0     H25827   2.491   1.686   2.358 -1.8001 -1.2935 -0.0346
  912MOL0     H25828   2.296   1.665   2.500  2.8729  1.3337  0.1600
  912MOL0     H25829   2.304   1.578   2.347 -0.1519  3.2349 -0.6025
  912MOL0     H25830   2.230   1.437   2.562  0.2903 -1.4474 -1.2750
  912MOL0     H25831   2.395   1.427   2.609  0.1394 -0.1986  0.3419
  912MOL0     H25832   2.385   1.376   2.321 -0.8587  1.4201 -0.3202
  912MOL0     H25833   2.255   1.290   2.387 -0.6823  1.6383  0.6309
  912MOL0     H25834   2.539   1.278   2.521  0.1076 -2.3566  3.0677
  912MOL0     H25835   2.492   1.169   2.392 -3.4526 -0.2984 -0.7447
  912MOL0     H25836   2.764   2.124   2.786 -1.0867  0.4200  3.1299
  912MOL0     H25837   2.812   2.351   2.812 -2.5967  1.7009  2.9924
  912MOL0     H25838   2.725   2.771   2.597 -2.8042 -0.1496 -0.7697
  912MOL0     H25839   2.772   3.017   2.617 -0.7303  0.1596  0.0463
  912MOL0     H25840   2.238   2.750   3.710 -1.0652  1.2359  1.2174
  912MOL0     H25841   2.153   2.887   3.886  0.9338  0.6268  1.3245
  912MOL0     H25842   2.304   3.309   4.127 -0.2764 -1.7160 -1.2650
  912MOL0     H25843   2.214   3.457   4.312  1.0415  0.6056 -0.2524
  912MOL0     H25844   2.034   3.246   4.694  0.2421  0.0654  1.1730
  912MOL0     H25845   2.210   3.253   4.724 -0.0997 -1.5438 -2.2710
  912MOL0     H25846   2.020   3.498   4.759  0.5149  0.2741 -0.2592
  912MOL0     H25847   2.191   3.483   4.800 -0.6875  1.7688  3.1312
  912MOL0     H25848   1.987   3.302   4.944 -0.4776  1.8336  2.4467
  912MOL0     H25849   2.162   3.312   4.956 -0.2670 -0.4236 -0.8124
  912MOL0     H25850   1.987   3.571   5.009  1.4717  1.2230  2.1818
  912MOL0     H25851   2.122   3.510   5.102  0.4826  0.4715 -0.7378
  912MOL0     H25852   1.799   3.374   5.315  1.2418 -0.1280  1.7575
  912MOL0     H25853   2.193   3.100   4.558  0.3734 -0.0777  0.3179
  912MOL0     H25854   2.194   2.871   4.443  0.5890 -2.1610 -1.3727
  912MOL0     H25855   2.312   2.864   4.311  0.9814 -1.7141  2.0808
  912MOL0     H25856   2.359   2.906   4.475 -2.9811 -1.3929  3.6977
  913MOL0     O25857   4.332   8.570   3.255 -0.7937 -0.1933 -0.0888
  913MOL0     C25858   4.405   8.599   3.354 -0.4872 -0.0695  0.1703
  913MOL0     O25859   4.409   8.720   3.412 -0.0759 -0.1026 -1.0380
  913MOL0     C25860   4.304   8.807   3.381  0.1873 -0.6132  1.1615
  913MOL0     C25861   4.306   8.903   3.283 -0.1106  0.5798 -0.1574
  913MOL0     C25862   4.195   8.973   3.256 -0.3347  0.1106 -0.6485
  913MOL0     C25863   4.075   8.953   3.322  0.8116 -0.3297 -0.3178
  913MOL0     O25864   3.952   9.022   3.299  0.1853  0.2807  0.5024
  913MOL0     C25865   3.947   9.148   3.224 -0.2088  0.1467 -0.9463
  913MOL0     C25866   3.883   9.108   3.096  0.5737 -0.5062  0.2600
  913MOL0     C25867   3.849   9.233   3.005 -1.2180  0.3518  0.0825
  913MOL0     C25868   3.780   9.179   2.884 -1.1499 -0.6090  0.0362
  913MOL0     C25869   3.694   9.278   2.799  0.1852  0.0513  0.1641
  913MOL0     C25870   3.784   9.406   2.790 -0.7121  0.7099  0.5106
  913MOL0     C25871   3.733   9.505   2.672  0.0960  0.6910 -0.5217
  913MOL0     C25872   3.827   9.629   2.654  0.3016  0.2992  0.3756
  913MOL0     N25873   3.949   9.595   2.582  0.3245 -0.4350  0.4365
  913MOL0     C25874   3.954   9.568   2.445 -0.3334  0.0384 -0.2260
  913MOL0     C25875   4.084   9.529   2.430 -0.4002  0.0778  0.4180
  913MOL0     C25876   4.156   9.470   2.306  0.3050 -0.0624 -0.0551
  913MOL0     C25877   4.133   9.562   2.182 -0.5817 -0.6778  0.2209
  913MOL0     C25878   4.177   9.706   2.186 -0.3730  0.6756 -0.1364
  913MOL0     C25879   4.319   9.718   2.245 -0.2844  0.2677 -0.3163
  913MOL0     O25880   4.401   9.668   2.139 -0.0536 -0.1608 -0.2595
  913MOL0     C25881   4.520   9.606   2.169 -0.4988 -0.1921 -0.2695
  913MOL0     C25882   4.593   9.543   2.064  0.9955  1.2005 -0.3450
  913MOL0     C25883   4.712   9.474   2.093 -0.3721  0.9619 -0.4875
  913MOL0     C25884   4.779   9.407   1.982  1.0267 -0.6721  0.3439
  913MOL0     C25885   4.769   9.471   2.220  0.7811 -0.1041 -0.2448
  913MOL0     C25886   4.900   9.399   2.254  0.3482  0.5764 -0.0565
  913MOL0     O25887   4.982   9.344   2.156 -0.2837 -0.3476  0.2539
  913MOL0     C25888   5.084   9.255   2.180  0.2736 -0.2222 -0.5228
  913MOL0     C25889   5.167   9.223   2.069  0.9072 -0.4413 -0.1854
  913MOL0     C25890   5.272   9.131   2.079  0.1258 -0.2862 -0.0139
  913MOL0     C25891   5.315   9.083   2.203  0.0837  0.5515  1.3069
  913MOL0     O25892   5.431   9.001   2.202  0.2619  0.5457 -0.4970
  913MOL0     C25893   5.521   8.988   2.317 -1.7757  0.4536 -0.1754
  913MOL0     C25894   5.594   9.122   2.339  1.0070 -0.5298 -0.0232
  913MOL0     C25895   5.732   9.127   2.264  0.4221  0.3772  0.4196
  913MOL0     C25896   5.733   9.086   2.113 -0.3081  0.7419 -0.5160
  913MOL0     C25897   5.866   9.123   2.044  0.2266 -0.1548 -0.7889
  913MOL0     C25898   5.859   9.111   1.891 -0.4470  0.0655  0.5594
  913MOL0     C25899   5.968   9.196   1.828 -0.0820  0.8272  1.3213
  913MOL0     C25900   5.935   9.250   1.689  0.1583  0.6285 -0.3826
  913MOL0    Cl25901   5.944   9.124   1.563  0.1884  0.1019 -0.4899
  913MOL0     C25902   5.232   9.105   2.314  0.7454  0.0088  0.3575
  913MOL0     C25903   5.113   9.187   2.297 -0.3379  0.5293 -0.8610
  913MOL0     O25904   4.930   9.404   2.373 -0.4907  0.0890  0.1626
  913MOL0     C25905   4.697   9.537   2.331 -0.2706  0.3289  0.5274
  913MOL0     C25906   4.578   9.599   2.300 -1.3501  0.4384 -0.4818
  913MOL0     N25907   4.146   9.521   2.557  0.0782 -0.6830  0.0663
  913MOL0     N25908   4.069   9.576   2.647  0.8728 -0.5711  0.0083
  913MOL0     C25909   4.067   8.849   3.414  0.8501 -0.1256 -0.6453
  913MOL0     C25910   4.181   8.777   3.443 -0.5801 -0.4002  0.0781
  913MOL0     C25911   4.517   8.509   3.392  0.1889  0.6608  0.1115
  913MOL0     C25912   4.616   8.563   3.480 -0.5730 -0.0264  0.3645
  913MOL0     C25913   4.724   8.494   3.524 -0.3972  0.4658 -0.5249
  913MOL0     C25914   4.744   8.358   3.486  0.4059 -0.4046 -0.0475
  913MOL0     O25915   4.847   8.288   3.541  0.4487  0.1183  0.2229
  913MOL0     C25916   4.921   8.227   3.432 -0.6353 -0.0017  0.1417
  913MOL0     C25917   4.904   8.074   3.435  0.5337 -0.3084  0.3741
  913MOL0     C25918   5.010   7.998   3.355  0.4807  1.1474  0.0075
  913MOL0     C25919   4.986   7.850   3.360 -1.0383 -0.4501  0.5958
  913MOL0     C25920   4.858   7.794   3.313  0.8301  0.2038  0.0731
  913MOL0     C25921   4.755   7.743   3.275 -0.9037  0.6719  0.3312
  913MOL0     C25922   4.650   8.299   3.398  0.5788 -0.7403  0.6000
  913MOL0     C25923   4.536   8.374   3.359  0.0298 -0.1145  0.2769
  913MOL0     C25924   4.426   8.300   3.288  0.2904  0.6274  0.0884
  913MOL0     H25925   4.398   8.933   3.234  0.3520  1.1158  0.9986
  913MOL0     H25926   4.206   9.044   3.174 -1.0446 -0.0747 -0.9104
  913MOL0     H25927   4.048   9.190   3.218 -0.6936  1.5953  0.4485
  913MOL0     H25928   3.870   9.213   3.265 -2.7852 -2.2365 -1.6623
  913MOL0     H25929   3.953   9.040   3.045 -0.9074 -1.0179 -1.2103
  913MOL0     H25930   3.794   9.049   3.120  0.9154 -0.9488  0.4537
  913MOL0     H25931   3.792   9.305   3.064  0.3203  0.1819  1.8869
  913MOL0     H25932   3.940   9.287   2.980  0.1540 -1.5914  0.6507
  913MOL0     H25933   3.856   9.123   2.827  2.5603 -2.8015  6.1854
  913MOL0     H25934   3.718   9.101   2.928  1.5317 -1.6296  2.3162
  913MOL0     H25935   3.602   9.288   2.857  1.6606  1.0010  2.4751
  913MOL0     H25936   3.674   9.240   2.699 -1.4099  1.1575  0.0112
  913MOL0     H25937   3.790   9.457   2.887  2.2965  0.3504  0.6168
  913MOL0     H25938   3.886   9.365   2.784 -1.2504 -0.9769  1.8629
  913MOL0     H25939   3.633   9.545   2.689 -0.8306 -0.4969 -2.8145
  913MOL0     H25940   3.722   9.452   2.577  4.3769 -0.4338 -0.6120
  913MOL0     H25941   3.770   9.698   2.592  3.1530 -1.5191 -4.9210
  913MOL0     H25942   3.859   9.677   2.747  0.1336  0.5435  0.3069
  913MOL0     H25943   3.881   9.579   2.366 -0.8658 -1.0607  0.0920
  913MOL0     H25944   4.112   9.373   2.283 -0.2761 -0.6572  3.0873
  913MOL0     H25945   4.263   9.456   2.322  0.3744 -0.3285 -0.7183
  913MOL0     H25946   4.171   9.506   2.096 -0.0356 -1.9566  1.2419
  913MOL0     H25947   4.025   9.566   2.167 -0.6915 -0.1819  1.0349
  913MOL0     H25948   4.184   9.743   2.083  4.1442 -0.0703 -0.3283
  913MOL0     H25949   4.110   9.774   2.239  2.7598  2.1496  2.3156
  913MOL0     H25950   4.345   9.823   2.261  0.8060  0.3103 -2.0816
  913MOL0     H25951   4.337   9.665   2.339 -0.8338 -0.9638 -0.8821
  913MOL0     H25952   4.545   9.556   1.968  1.7261  2.8463 -0.5131
  913MOL0     H25953   4.796   9.299   1.996 -1.7751 -1.1605  0.5240
  913MOL0     H25954   4.873   9.461   1.970  0.4099  0.3692  0.1182
  913MOL0     H25955   4.719   9.405   1.891  0.0485  0.7609  0.9139
  913MOL0     H25956   5.127   9.264   1.977 -1.4371 -0.7753  0.6220
  913MOL0     H25957   5.313   9.091   1.987 -1.1239 -3.9081  0.8404
  913MOL0     H25958   5.476   8.961   2.413  3.3871 -1.5829  2.0579
  913MOL0     H25959   5.588   8.903   2.300 -0.8710  1.2854 -0.7882
  913MOL0     H25960   5.529   9.199   2.298  2.9778  0.9059 -0.6263
  913MOL0     H25961   5.601   9.146   2.446 -3.2799 -1.4374  0.6425
  913MOL0     H25962   5.799   9.056   2.313  1.9135  1.7261  0.4199
  913MOL0     H25963   5.781   9.223   2.280 -0.8009  0.5938  3.4340
  913MOL0     H25964   5.650   9.135   2.062 -1.2737  0.1246  0.4317
  913MOL0     H25965   5.722   8.978   2.103 -0.6108  0.8170 -1.0464
  913MOL0     H25966   5.881   9.230   2.062  1.5397 -0.4307 -0.1427
  913MOL0     H25967   5.950   9.064   2.081 -0.5437 -0.1876  1.0087
  913MOL0     H25968   5.763   9.155   1.862 -1.1350 -2.1856 -0.8126
  913MOL0     H25969   5.856   9.004   1.872 -0.8025 -0.1203  1.5900
  913MOL0     H25970   6.064   9.144   1.827  0.5848  1.7412 -2.7183
  913MOL0     H25971   5.972   9.279   1.899 -4.2042 -0.6688  3.6337
  913MOL0     H25972   5.992   9.335   1.650 -1.0053  0.5933 -2.2912
  913MOL0     H25973   5.832   9.287   1.690  0.5783  1.8370  0.8281
  913MOL0     H25974   5.257   9.061   2.411 -2.4701  1.0582  1.8037
  913MOL0     H25975   5.042   9.188   2.379 -2.5506 -1.3963 -2.6190
  913MOL0     H25976   4.737   9.545   2.431  0.3914  5.2597  0.0987
  913MOL0     H25977   4.527   9.642   2.386 -0.8344  3.1108 -1.4208
  913MOL0     H25978   3.972   8.816   3.454  0.4942 -2.1828 -2.9512
  913MOL0     H25979   4.177   8.687   3.503  0.0857 -2.4459 -2.7063
  913MOL0     H25980   4.594   8.654   3.534 -2.2154 -0.6856  0.8497
  913MOL0     H25981   4.790   8.527   3.604  0.4074 -0.8576 -0.6035
  913MOL0     H25982   4.898   8.266   3.333 -0.9315 -1.2693 -0.3173
  913MOL0     H25983   5.023   8.263   3.449 -2.1981  4.2555  1.8078
  913MOL0     H25984   4.810   8.040   3.390 -0.9352  4.2003 -0.4695
  913MOL0     H25985   4.921   8.040   3.537 -1.6837 -1.1989  0.4913
  913MOL0     H25986   5.003   8.033   3.252 -1.6212 -1.5769 -0.8914
  913MOL0     H25987   5.109   8.034   3.386 -0.8512  2.4665  3.1088
  913MOL0     H25988   5.018   7.818   3.460  3.9767  2.0493  0.0841
  913MOL0     H25989   5.063   7.810   3.293 -2.4958  0.3583 -1.6784
  913MOL0     H25990   4.662   7.705   3.238 -1.9832  1.7884  1.8036
  913MOL0     H25991   4.662   8.195   3.370  0.2571 -0.9718  1.3064
  913MOL0     H25992   4.441   8.194   3.307  0.5404  1.0026  2.2393
  913MOL0     H25993   4.325   8.336   3.312  0.4264  1.2112 -0.1728
  913MOL0     H25994   4.434   8.324   3.182 -2.5914  2.1403  0.1171
  914MOL0     O25995   1.222   7.827   7.996 -0.3113  0.2790  0.2851
  914MOL0     C25996   1.165   7.786   8.101 -0.6377 -0.1661  0.9348
  914MOL0     O25997   1.143   7.863   8.211 -0.4301  0.0311 -0.1600
  914MOL0     C25998   1.212   7.975   8.216 -0.5152 -0.7102 -0.5818
  914MOL0     C25999   1.178   8.081   8.129  0.4030  0.9345 -0.0290
  914MOL0     C26000   1.270   8.195   8.135  0.1511  0.0112 -0.0492
  914MOL0     C26001   1.364   8.205   8.236  0.4942  0.4629  0.5484
  914MOL0     O26002   1.441   8.319   8.243 -1.0882  0.3700  0.1452
  914MOL0     C26003   1.372   8.446   8.246 -0.0018  0.0824 -0.1554
  914MOL0     C26004   1.290   8.467   8.374  1.0204  1.5477  0.7283
  914MOL0     C26005   1.278   8.623   8.417 -0.1338  0.1619  0.5043
  914MOL0     C26006   1.410   8.675   8.471 -1.1181  0.4204 -0.3854
  914MOL0     C26007   1.383   8.790   8.574 -0.4624  0.6508  0.3588
  914MOL0     C26008   1.344   8.733   8.714  0.2563  1.1711  0.0099
  914MOL0     C26009   1.311   8.848   8.810 -0.2985  0.5882 -0.0759
  914MOL0     C26010   1.443   8.906   8.868  0.1984 -0.6508 -0.3649
  914MOL0     N26011   1.500   8.993   8.766 -0.3532 -0.1955 -0.2786
  914MOL0     C26012   1.448   9.073   8.671 -0.4668  0.3922  0.6285
  914MOL0     C26013   1.548   9.121   8.595 -0.5984 -0.2275  0.5404
  914MOL0     C26014   1.545   9.220   8.477 -0.0416 -0.2170  0.6531
  914MOL0     C26015   1.543   9.370   8.522  0.0422 -0.4077  0.6363
  914MOL0     C26016   1.626   9.398   8.645 -0.4756  0.8506 -0.7105
  914MOL0     C26017   1.651   9.540   8.690 -0.6314  0.4357  0.4106
  914MOL0     O26018   1.525   9.598   8.727  0.3460  0.5319 -0.8679
  914MOL0     C26019   1.506   9.731   8.736 -0.7781 -0.1355 -0.5039
  914MOL0     C26020   1.392   9.778   8.803  0.3810  0.3940  0.3114
  914MOL0     C26021   1.363   9.911   8.830 -0.5612 -0.9677 -0.2144
  914MOL0     C26022   1.230   9.935   8.907 -0.4085  0.0334  0.7946
  914MOL0     C26023   1.445  10.011   8.775 -0.7527 -0.2261 -0.6455
  914MOL0     C26024   1.398  10.150   8.779  1.3237  0.3415  0.1738
  914MOL0     O26025   1.410  10.222   8.661 -0.2277  0.3770  0.0117
  914MOL0     C26026   1.384  10.356   8.652  0.9402 -0.4178  0.2309
  914MOL0     C26027   1.265  10.414   8.711 -0.3236  0.4659 -0.4786
  914MOL0     C26028   1.257  10.554   8.705  0.9213  0.0193 -0.6991
  914MOL0     C26029   1.348  10.635   8.634  0.7387  0.1744  0.1118
  914MOL0     O26030   1.336  10.772   8.611 -0.1134 -0.4112 -0.1594
  914MOL0     C26031   1.222  10.843   8.659 -0.2468  0.7147 -0.0376
  914MOL0     C26032   1.236  10.869   8.803 -0.3933  0.0851  0.7845
  914MOL0     C26033   1.092  10.875   8.861 -0.1535  1.0733  0.0335
  914MOL0     C26034   1.089  10.889   9.012 -0.0358 -0.1586  0.8804
  914MOL0     C26035   0.947  10.883   9.060 -0.0858 -0.1630 -0.0369
  914MOL0     C26036   0.859  11.004   9.013 -0.4169  0.9223  0.1475
  914MOL0     C26037   0.720  10.994   9.065  0.5183  0.0895  0.7470
  914MOL0     C26038   0.616  11.085   8.993  1.0276 -0.0963 -0.0302
  914MOL0    Cl26039   0.638  11.104   8.820 -0.0483  0.0446 -0.2765
  914MOL0     C26040   1.459  10.581   8.579 -0.1259  0.9320  0.4057
  914MOL0     C26041   1.470  10.441   8.582 -0.0780  1.0508 -0.1575
  914MOL0     O26042   1.354  10.196   8.888  0.6227 -0.0352 -0.1436
  914MOL0     C26043   1.562   9.966   8.711 -1.1831 -0.3734  1.5225
  914MOL0     C26044   1.588   9.831   8.691  0.4694 -0.8860  0.3847
  914MOL0     N26045   1.663   9.077   8.649 -1.3083  1.1948 -0.6269
  914MOL0     N26046   1.636   8.990   8.745 -0.7166 -0.7348  0.0857
  914MOL0     C26047   1.370   8.106   8.334  0.3419  0.4684  0.5673
  914MOL0     C26048   1.301   7.991   8.328  0.7796  0.0016 -0.0922
  914MOL0     C26049   1.120   7.641   8.095 -0.3410  0.0325 -0.2367
  914MOL0     C26050   1.091   7.579   7.973  0.7103 -0.8333 -1.0321
  914MOL0     C26051   1.050   7.448   7.975 -0.0279 -0.8002 -0.1891
  914MOL0     C26052   1.036   7.377   8.084 -1.0711 -0.3126  0.4200
  914MOL0     O26053   0.997   7.245   8.089 -0.3509  0.2023  0.6014
  914MOL0     C26054   1.000   7.180   7.961 -1.5007 -0.1278  0.1065
  914MOL0     C26055   0.954   7.029   7.983  0.1111  0.8602  0.1189
  914MOL0     C26056   0.801   7.016   7.994 -0.4551  0.3388 -0.5884
  914MOL0     C26057   0.768   6.871   7.977 -0.6930  1.5946  0.8371
  914MOL0     C26058   0.622   6.865   8.000 -0.8952  0.1424  0.1900
  914MOL0     C26059   0.503   6.867   8.029  0.7092  0.2809  0.4085
  914MOL0     C26060   1.064   7.438   8.206  1.7152  0.0312  0.3081
  914MOL0     C26061   1.099   7.573   8.223 -0.3882  0.0016 -1.0967
  914MOL0     C26062   1.100   7.633   8.365  0.2956  0.7498 -0.3493
  914MOL0     H26063   1.103   8.063   8.054  0.8228 -0.2969 -0.1782
  914MOL0     H26064   1.267   8.283   8.071 -1.0874 -0.2148 -0.3345
  914MOL0     H26065   1.314   8.449   8.153  0.8506  3.0267 -0.6882
  914MOL0     H26066   1.448   8.524   8.239  0.7512 -0.4646  1.4065
  914MOL0     H26067   1.192   8.419   8.368  3.9373 -5.7731  1.2376
  914MOL0     H26068   1.336   8.414   8.458 -0.1318 -0.9035 -0.1195
  914MOL0     H26069   1.237   8.686   8.338  0.9774 -0.0483 -0.2681
  914MOL0     H26070   1.201   8.627   8.494 -1.4630  4.1352 -0.7933
  914MOL0     H26071   1.447   8.590   8.530 -0.2662  1.1878  0.2090
  914MOL0     H26072   1.471   8.714   8.390  1.5227 -2.4134  0.0399
  914MOL0     H26073   1.322   8.871   8.532  2.6566  3.2883  0.5421
  914MOL0     H26074   1.482   8.833   8.590 -0.9663  0.8367  3.6393
  914MOL0     H26075   1.250   8.677   8.706  1.5045 -1.5507  2.5406
  914MOL0     H26076   1.419   8.668   8.760  0.3815  1.7567  0.6421
  914MOL0     H26077   1.248   8.804   8.888  0.4188  0.8286  0.6517
  914MOL0     H26078   1.248   8.920   8.757 -4.5900 -0.5933  2.8950
  914MOL0     H26079   1.416   8.969   8.953  0.6579 -1.6567  0.5454
  914MOL0     H26080   1.509   8.825   8.901  0.0102 -0.5627  0.2438
  914MOL0     H26081   1.342   9.089   8.651 -0.6004 -0.8301  0.2288
  914MOL0     H26082   1.450   9.185   8.434 -1.1350 -1.9098  4.0603
  914MOL0     H26083   1.633   9.192   8.418  0.1804 -2.3926  1.9105
  914MOL0     H26084   1.591   9.434   8.448  1.1111 -0.6149  1.1357
  914MOL0     H26085   1.438   9.400   8.531  0.0165  0.5147 -1.9776
  914MOL0     H26086   1.572   9.358   8.732  2.0975 -1.3389  0.0000
  914MOL0     H26087   1.723   9.348   8.636 -0.3956  0.9227 -0.2953
  914MOL0     H26088   1.720   9.541   8.775  0.8123  1.1552 -0.7134
  914MOL0     H26089   1.712   9.596   8.618  0.4120  2.6343  2.8597
  914MOL0     H26090   1.330   9.702   8.850  1.4265  0.3036  1.6028
  914MOL0     H26091   1.185   9.841   8.939 -1.0916  0.2716  0.5569
  914MOL0     H26092   1.144   9.983   8.859 -1.7180 -0.8961  2.0991
  914MOL0     H26093   1.245   9.994   8.998 -1.7514 -0.2076  1.2027
  914MOL0     H26094   1.200  10.353   8.771  0.3314  2.1259  2.0578
  914MOL0     H26095   1.159  10.583   8.741  1.0822 -3.1557  2.8822
  914MOL0     H26096   1.203  10.937   8.607  0.2294  0.8318 -0.0072
  914MOL0     H26097   1.138  10.779   8.631  0.2895  0.0600 -0.1936
  914MOL0     H26098   1.288  10.782   8.843  0.5221 -1.2242 -2.9086
  914MOL0     H26099   1.291  10.963   8.820 -2.2742  1.1380  1.3337
  914MOL0     H26100   1.052  10.778   8.828  6.6299 -2.1201 -0.3719
  914MOL0     H26101   1.043  10.960   8.813  0.8207  0.8110 -1.4899
  914MOL0     H26102   1.132  10.984   9.044  2.1536 -1.0445  0.6954
  914MOL0     H26103   1.152  10.808   9.051  3.0629  0.9154 -1.4707
  914MOL0     H26104   0.912  10.788   9.019  0.8285 -0.0444 -1.1455
  914MOL0     H26105   0.942  10.874   9.169 -1.5959  3.3769  0.3063
  914MOL0     H26106   0.861  11.011   8.904  1.1680  1.1425  0.1774
  914MOL0     H26107   0.911  11.090   9.055 -0.5420 -0.1255  2.5969
  914MOL0     H26108   0.709  11.013   9.172 -0.2487  1.3904  0.4540
  914MOL0     H26109   0.692  10.890   9.047 -1.7138  0.5742  1.1295
  914MOL0     H26110   0.616  11.182   9.042  1.3884 -0.0891 -0.0452
  914MOL0     H26111   0.516  11.044   9.013  0.5685  1.9379  2.1624
  914MOL0     H26112   1.544  10.631   8.532  1.8598 -3.3560 -1.1120
  914MOL0     H26113   1.552  10.397   8.527 -1.4223  0.0758 -1.4324
  914MOL0     H26114   1.628  10.044   8.674 -3.3779  1.5288  1.3608
  914MOL0     H26115   1.678   9.798   8.640  1.0670  0.6146  0.4115
  914MOL0     H26116   1.438   8.104   8.419 -0.0790 -1.4262  0.9083
  914MOL0     H26117   1.308   7.912   8.401  2.1572  0.5567  0.4279
  914MOL0     H26118   1.103   7.626   7.876 -0.2518 -0.1445 -0.8341
  914MOL0     H26119   1.016   7.396   7.886 -0.6823 -1.3027  0.3419
  914MOL0     H26120   0.919   7.208   7.893 -2.0443  2.3710  1.6624
  914MOL0     H26121   1.092   7.186   7.904 -1.4317  0.6845  0.2946
  914MOL0     H26122   0.999   6.995   8.077 -2.7795  1.8229  2.0102
  914MOL0     H26123   0.985   6.972   7.895 -2.4561 -0.4417 -0.0478
  914MOL0     H26124   0.767   7.048   8.093 -2.5494  1.6073 -1.6737
  914MOL0     H26125   0.737   7.082   7.936 -1.8130  1.5530  2.1093
  914MOL0     H26126   0.829   6.811   8.045  0.9505  1.8475 -0.3389
  914MOL0     H26127   0.786   6.836   7.875 -0.8863  1.1537  0.9498
  914MOL0     H26128   0.399   6.852   8.051  0.6550 -1.2543 -0.7021
  914MOL0     H26129   1.039   7.388   8.299  2.1833 -1.7493 -0.4835
  914MOL0     H26130   1.116   7.570   8.453 -1.9313  0.9042  0.2259
  914MOL0     H26131   1.181   7.704   8.380 -2.1315  3.1285  3.0275
  914MOL0     H26132   0.999   7.671   8.382 -0.9109 -0.9774 -2.8869
  915MOL0     O26133  11.335   0.291   9.313 -0.3559 -0.2761  0.5565
  915MOL0     C26134  11.410   0.358   9.383  1.6379  0.1458  0.3508
  915MOL0     O26135  11.469   0.315   9.500 -0.8128  0.0666  0.0791
  915MOL0     C26136  11.485   0.184   9.531 -0.1387  0.6180  0.4127
  915MOL0     C26137  11.455   0.073   9.458 -0.2730  0.9888  0.8131
  915MOL0     C26138  11.489  -0.055   9.493 -0.4725  1.1124  0.5138
  915MOL0     C26139  11.531  -0.086   9.627  0.5063 -0.4812  0.7205
  915MOL0     O26140  11.572  -0.207   9.676  0.7155  0.6222 -0.3244
  915MOL0     C26141  11.592  -0.321   9.593 -0.0608  0.1749  0.8372
  915MOL0     C26142  11.666  -0.431   9.681  0.1837  0.2047  0.3316
  915MOL0     C26143  11.580  -0.542   9.719  0.4223 -0.2358  0.4122
  915MOL0     C26144  11.647  -0.656   9.791 -0.6349  0.2225 -0.5401
  915MOL0     C26145  11.528  -0.739   9.857  0.1795 -0.0655  1.3507
  915MOL0     C26146  11.590  -0.852   9.936  0.1441 -0.8860 -0.3579
  915MOL0     C26147  11.623  -0.973   9.853  0.8395 -0.7049 -0.1808
  915MOL0     C26148  11.682  -1.097   9.928  0.0661 -1.1647 -0.5950
  915MOL0     N26149  11.612  -1.212   9.880 -0.0963  0.3586  0.9273
  915MOL0     C26150  11.528  -1.303   9.943 -0.2149  0.1254 -1.3738
  915MOL0     C26151  11.506  -1.404   9.858  0.2115  0.2407 -0.9867
  915MOL0     C26152  11.415  -1.530   9.892  0.5722  0.1805  0.2434
  915MOL0     C26153  11.441  -1.642   9.790 -0.0049 -0.3461 -0.4561
  915MOL0     C26154  11.335  -1.745   9.801  0.1109  0.0928 -0.2387
  915MOL0     C26155  11.308  -1.804   9.941 -0.6480  0.0102  0.3236
  915MOL0     O26156  11.428  -1.872   9.984  0.2745 -0.4032 -0.2593
  915MOL0     C26157  11.425  -1.940  10.104 -0.3779  0.6187 -0.1956
  915MOL0     C26158  11.535  -2.024  10.133 -0.1580  0.0360 -0.5594
  915MOL0     C26159  11.546  -2.116  10.232  0.5708  0.6529 -0.0352
  915MOL0     C26160  11.686  -2.172  10.244  0.6869 -0.3366 -0.1987
  915MOL0     C26161  11.423  -2.150  10.310  0.5133  0.4573  0.8529
  915MOL0     C26162  11.398  -2.262  10.401 -0.9226 -0.6579  0.1397
  915MOL0     O26163  11.267  -2.280  10.443 -0.2371 -0.1680  0.3501
  915MOL0     C26164  11.241  -2.412  10.472  1.0416  0.9921  0.6250
  915MOL0     C26165  11.204  -2.507  10.378 -0.7187  0.3399  1.4955
  915MOL0     C26166  11.197  -2.641  10.406  0.5960  0.5112 -0.4202
  915MOL0     C26167  11.218  -2.689  10.537 -0.2097 -0.3878  0.3221
  915MOL0     O26168  11.187  -2.817  10.583  0.2465  0.0988  0.0351
  915MOL0     C26169  11.077  -2.826  10.664 -0.0038 -0.2767 -0.6893
  915MOL0     C26170  11.011  -2.970  10.647 -0.0013  0.5339 -0.2317
  915MOL0     C26171  10.946  -2.974  10.515 -0.4404 -0.3978  0.4069
  915MOL0     C26172  10.881  -3.105  10.475  0.2787  0.4426 -0.5444
  915MOL0     C26173  10.970  -3.235  10.458 -0.3774  0.5590 -0.1061
  915MOL0     C26174  10.890  -3.352  10.408 -0.8583 -0.4822 -0.0630
  915MOL0     C26175  11.003  -3.459  10.365  0.8015 -0.3250  0.1890
  915MOL0     C26176  10.940  -3.595  10.335 -0.1548 -0.0865  0.4656
  915MOL0    Cl26177  10.778  -3.587  10.250  0.1975 -0.6701  0.5824
  915MOL0     C26178  11.260  -2.598  10.633  0.3092 -0.7342 -0.1754
  915MOL0     C26179  11.280  -2.461  10.604 -0.3961  0.3709  0.3416
  915MOL0     O26180  11.502  -2.339  10.426 -0.1309 -0.3558 -0.4669
  915MOL0     C26181  11.315  -2.060  10.290 -0.9766 -0.3713  0.6350
  915MOL0     C26182  11.307  -1.962  10.186 -0.3562 -0.2328 -0.5535
  915MOL0     N26183  11.569  -1.377   9.743  0.8486 -0.5550 -0.0312
  915MOL0     N26184  11.619  -1.258   9.752 -0.4147 -0.2017  0.9976
  915MOL0     C26185  11.544   0.032   9.714 -0.7197 -0.4733  1.0167
  915MOL0     C26186  11.529   0.163   9.660  0.5066  0.0441 -0.3172
  915MOL0     C26187  11.429   0.490   9.336 -0.7883  0.8693  0.1747
  915MOL0     C26188  11.560   0.510   9.283 -0.6245 -1.1734  0.1888
  915MOL0     C26189  11.591   0.648   9.245 -0.3478 -0.2825 -0.9126
  915MOL0     C26190  11.501   0.755   9.244  0.6144  0.6087  0.0434
  915MOL0     O26191  11.542   0.871   9.184 -0.5540  1.0671  0.7276
  915MOL0     C26192  11.459   0.975   9.137 -0.4684 -0.3237 -0.6733
  915MOL0     C26193  11.479   1.074   9.248  0.9649 -0.7531 -0.6746
  915MOL0     C26194  11.398   1.195   9.215  0.1810 -0.4210  0.6720
  915MOL0     C26195  11.439   1.322   9.286  0.7505 -0.3648 -0.5863
  915MOL0     C26196  11.450   1.295   9.426  0.0498  0.3239  0.2290
  915MOL0     C26197  11.456   1.282   9.546  0.3788  0.0952  0.1712
  915MOL0     C26198  11.371   0.723   9.301 -0.5073 -0.3962  0.0767
  915MOL0     C26199  11.335   0.590   9.346  1.0081 -0.0286 -0.5593
  915MOL0     C26200  11.196   0.554   9.413  0.2720  0.0756 -0.3074
  915MOL0     H26201  11.404   0.063   9.363  0.0618 -1.0143  0.7903
  915MOL0     H26202  11.457  -0.135   9.427  0.6225  3.8096 -3.7186
  915MOL0     H26203  11.671  -0.301   9.520  0.9583 -2.6703  1.0359
  915MOL0     H26204  11.501  -0.357   9.544  0.2666 -0.5519  0.7476
  915MOL0     H26205  11.743  -0.469   9.613 -0.3820 -1.0140  0.3554
  915MOL0     H26206  11.706  -0.400   9.778  0.9119 -2.9843  1.1495
  915MOL0     H26207  11.501  -0.498   9.781  2.2130  0.5445  2.2336
  915MOL0     H26208  11.533  -0.576   9.627 -0.8220  1.4565  0.3682
  915MOL0     H26209  11.699  -0.713   9.713 -0.4008 -1.8451  1.0590
  915MOL0     H26210  11.715  -0.620   9.868 -1.4701  0.0358  0.2931
  915MOL0     H26211  11.452  -0.758   9.781  2.7599 -0.0037 -1.4427
  915MOL0     H26212  11.488  -0.663   9.924 -0.0588  2.0886 -1.0699
  915MOL0     H26213  11.673  -0.812   9.995 -0.9900  1.8364 -0.4674
  915MOL0     H26214  11.516  -0.873  10.013  0.8502  0.4040  0.7145
  915MOL0     H26215  11.692  -0.950   9.771  2.7712  1.7166  1.9274
  915MOL0     H26216  11.523  -0.998   9.817  0.4480 -0.9924  1.0422
  915MOL0     H26217  11.790  -1.101   9.912  0.2055  2.1856 -1.2095
  915MOL0     H26218  11.654  -1.087  10.033  1.5453 -0.0471 -0.2550
  915MOL0     H26219  11.495  -1.286  10.045 -1.4811  2.2161 -2.0920
  915MOL0     H26220  11.308  -1.511   9.895  0.0219 -2.5195  3.4467
  915MOL0     H26221  11.446  -1.557   9.993  0.9513 -0.7156 -0.0937
  915MOL0     H26222  11.443  -1.598   9.689  2.5481  2.6899  0.7554
  915MOL0     H26223  11.545  -1.675   9.803  1.4682  3.0418 -2.2413
  915MOL0     H26224  11.239  -1.700   9.775 -0.4904 -0.3291  1.1388
  915MOL0     H26225  11.356  -1.827   9.732 -1.6244  0.3222 -1.0873
  915MOL0     H26226  11.282  -1.727  10.014  1.7970 -0.0811  1.3714
  915MOL0     H26227  11.217  -1.864   9.930 -2.2959  2.3273  0.4822
  915MOL0     H26228  11.625  -2.000  10.077 -0.9826  1.9936 -1.1523
  915MOL0     H26229  11.702  -2.213  10.345  0.2578  0.2053  0.0925
  915MOL0     H26230  11.767  -2.100  10.230  0.4947 -0.6399 -3.6082
  915MOL0     H26231  11.700  -2.245  10.164 -1.0581  1.0974 -1.9014
  915MOL0     H26232  11.165  -2.468  10.285  1.9579  1.6265  0.8276
  915MOL0     H26233  11.163  -2.715  10.335  1.0879 -0.5156  0.3977
  915MOL0     H26234  11.104  -2.821  10.770 -1.7500  1.6951 -0.2632
  915MOL0     H26235  11.002  -2.748  10.647  1.9418  1.7215 -0.5265
  915MOL0     H26236  11.088  -3.048  10.655 -0.6048 -0.2538 -1.6389
  915MOL0     H26237  10.932  -2.984  10.722 -2.2482  1.4618 -2.3208
  915MOL0     H26238  11.028  -2.951  10.447 -1.2398  0.1911 -0.3884
  915MOL0     H26239  10.879  -2.887  10.514  2.6360  2.1848  1.6489
  915MOL0     H26240  10.824  -3.082  10.385 -1.3224  2.7805  0.9680
  915MOL0     H26241  10.805  -3.123  10.551 -0.7478 -3.3101 -2.2233
  915MOL0     H26242  11.041  -3.202  10.383 -0.5660  2.3684  0.4609
  915MOL0     H26243  11.024  -3.260  10.550 -0.3033 -0.4585 -0.4161
  915MOL0     H26244  10.845  -3.318  10.315 -0.9916 -0.4833  0.0012
  915MOL0     H26245  10.818  -3.387  10.483 -2.6620 -0.8394 -1.9016
  915MOL0     H26246  11.085  -3.464  10.438  1.7990  1.7373 -0.6964
  915MOL0     H26247  11.053  -3.418  10.277  0.3358 -2.2733 -1.0534
  915MOL0     H26248  10.920  -3.646  10.430  1.7217 -1.1317  0.3534
  915MOL0     H26249  11.003  -3.661  10.275 -0.3575  1.0337 -1.0570
  915MOL0     H26250  11.278  -2.636  10.733  0.3168  1.6366  0.7927
  915MOL0     H26251  11.329  -2.388  10.668 -0.3190 -0.1141  0.8445
  915MOL0     H26252  11.227  -2.063  10.354 -1.4501 -1.8727 -0.0615
  915MOL0     H26253  11.212  -1.911  10.168 -2.4366 -3.1520  1.3309
  915MOL0     H26254  11.565   0.007   9.818 -2.8816 -1.0237  1.3772
  915MOL0     H26255  11.545   0.253   9.719  0.2232  0.8496 -1.4291
  915MOL0     H26256  11.629   0.428   9.265  0.5703 -0.0804 -0.3542
  915MOL0     H26257  11.689   0.673   9.206 -1.0135  0.6303 -2.0437
  915MOL0     H26258  11.487   1.019   9.041 -1.0491  3.1777  0.6373
  915MOL0     H26259  11.356   0.937   9.132 -0.0181 -1.4309 -2.0212
  915MOL0     H26260  11.585   1.098   9.264  0.6851 -1.6646  4.1396
  915MOL0     H26261  11.446   1.021   9.338 -0.8637 -0.0995 -0.9170
  915MOL0     H26262  11.405   1.206   9.107  0.2479  0.3263  0.7442
  915MOL0     H26263  11.296   1.170   9.245  0.2173 -1.0880  0.2507
  915MOL0     H26264  11.367   1.402   9.266  2.9366  1.3408 -1.9633
  915MOL0     H26265  11.536   1.348   9.244  0.4719 -1.1382 -1.7401
  915MOL0     H26266  11.466   1.265   9.651 -0.2768 -1.2076  0.0447
  915MOL0     H26267  11.286   0.790   9.294 -0.8722 -0.9051 -0.5565
  915MOL0     H26268  11.197   0.465   9.477 -0.0052  1.0860  1.1625
  915MOL0     H26269  11.170   0.637   9.479  3.9603 -0.7224  2.4817
  915MOL0     H26270  11.115   0.553   9.339  0.2659  1.3019 -0.3307
  916MOL0     O26271   7.542   5.351  11.424  0.1519 -0.6265 -0.5743
  916MOL0     C26272   7.449   5.404  11.364  0.7508 -0.4756  0.1865
  916MOL0     O26273   7.329   5.345  11.333 -0.6432  0.2731  0.5419
  916MOL0     C26274   7.309   5.208  11.363 -0.0272  0.2188  0.3106
  916MOL0     C26275   7.397   5.101  11.379  0.7851 -0.0225 -0.1783
  916MOL0     C26276   7.365   4.972  11.416  0.0567  0.8220  1.1895
  916MOL0     C26277   7.226   4.944  11.441 -0.6692  0.1849 -0.1228
  916MOL0     O26278   7.184   4.822  11.486 -0.7065 -0.5778  0.4540
  916MOL0     C26279   7.106   4.827  11.615 -1.0565  0.7131 -0.3669
  916MOL0     C26280   7.056   4.687  11.657  0.0695  0.1805  0.5685
  916MOL0     C26281   6.942   4.631  11.574 -0.9203 -0.2479  0.7160
  916MOL0     C26282   6.914   4.487  11.619 -0.1855 -0.0226  0.5324
  916MOL0     C26283   6.799   4.429  11.544  1.1978  0.6574 -0.0201
  916MOL0     C26284   6.739   4.307  11.625 -0.0437  0.3587  0.0245
  916MOL0     C26285   6.638   4.222  11.539 -0.6436 -0.7839  0.2739
  916MOL0     C26286   6.573   4.103  11.614 -0.1101 -1.2965  0.6914
  916MOL0     N26287   6.640   3.979  11.580 -0.2711  0.2616  0.2722
  916MOL0     C26288   6.659   3.934  11.453  0.1450  0.2059  0.3556
  916MOL0     C26289   6.763   3.844  11.468  0.5442  0.2886 -0.2479
  916MOL0     C26290   6.817   3.770  11.351  0.4363 -0.3261 -0.2554
  916MOL0     C26291   6.918   3.836  11.264  0.6202  0.3057  0.1132
  916MOL0     C26292   6.945   3.743  11.144  0.3197  0.2672 -1.3592
  916MOL0     C26293   6.977   3.803  11.004  0.2811  0.4088 -0.5522
  916MOL0     O26294   6.902   3.924  10.980  0.5695  0.5126 -0.1790
  916MOL0     C26295   6.934   4.026  10.894  0.2873 -0.4872 -1.4131
  916MOL0     C26296   7.042   4.012  10.807 -0.2554 -0.0113  1.1423
  916MOL0     C26297   7.070   4.099  10.706 -0.1475 -0.1340 -0.2898
  916MOL0     C26298   7.187   4.069  10.620 -0.9469 -0.6157 -0.7319
  916MOL0     C26299   6.988   4.211  10.682  0.7242 -0.5468  0.6474
  916MOL0     C26300   7.015   4.317  10.583 -0.9892  0.1676  2.1887
  916MOL0     O26301   6.963   4.443  10.607  0.8238 -0.1266 -0.3494
  916MOL0     C26302   7.045   4.543  10.554 -0.8146 -1.1606 -0.1890
  916MOL0     C26303   7.175   4.566  10.608 -1.2576 -0.2586 -0.4433
  916MOL0     C26304   7.243   4.662  10.544 -0.3441 -0.3805  0.9240
  916MOL0     C26305   7.185   4.733  10.437  0.4799 -0.1891 -0.7413
  916MOL0     O26306   7.242   4.834  10.368 -0.4440  0.1781  1.0241
  916MOL0     C26307   7.385   4.870  10.379 -0.7107 -0.0951 -0.4598
  916MOL0     C26308   7.416   4.981  10.279  0.4852 -0.4277  0.7198
  916MOL0     C26309   7.346   5.112  10.330  0.7794 -0.3488 -0.6839
  916MOL0     C26310   7.411   5.186  10.445  0.9974  0.4434 -0.3156
  916MOL0     C26311   7.342   5.329  10.463  0.1958  0.8198  0.0354
  916MOL0     C26312   7.191   5.317  10.493 -0.0913  0.1805 -0.4198
  916MOL0     C26313   7.118   5.433  10.551 -0.3923 -0.0332 -0.4519
  916MOL0     C26314   6.978   5.391  10.618 -0.0894  0.2873 -0.2394
  916MOL0    Cl26315   6.881   5.522  10.666  0.1117  0.0627  0.2132
  916MOL0     C26316   7.054   4.711  10.387  0.4245 -0.1859 -1.0925
  916MOL0     C26317   6.990   4.599  10.443  0.2334 -0.2172  0.4274
  916MOL0     O26318   7.062   4.287  10.473 -0.2490  0.0769 -0.4975
  916MOL0     C26319   6.874   4.230  10.769 -0.1090  0.1103  0.9544
  916MOL0     C26320   6.845   4.134  10.871 -1.2878 -0.6025  0.6262
  916MOL0     N26321   6.789   3.828  11.601  0.0531  0.2996  0.5878
  916MOL0     N26322   6.726   3.915  11.671  0.3416 -0.5407 -0.4835
  916MOL0     C26323   7.138   5.047  11.410 -0.1928 -0.9916  0.3148
  916MOL0     C26324   7.170   5.174  11.367  0.0245  1.0446  0.0089
  916MOL0     C26325   7.466   5.551  11.340 -0.2342 -0.2293  0.0782
  916MOL0     C26326   7.597   5.612  11.326  0.6166 -0.2592  0.8218
  916MOL0     C26327   7.613   5.747  11.313  0.2383 -0.1553  0.1951
  916MOL0     C26328   7.503   5.835  11.305 -0.8350  0.3207 -0.2571
  916MOL0     O26329   7.524   5.971  11.294  0.1060 -0.0301 -0.4972
  916MOL0     C26330   7.506   6.035  11.419  0.3727  0.3248  0.2792
  916MOL0     C26331   7.639   6.049  11.488  0.8234 -0.7131  0.5454
  916MOL0     C26332   7.627   6.154  11.603 -0.2274  0.2858  0.0026
  916MOL0     C26333   7.759   6.137  11.677 -1.0291  0.0573 -0.5818
  916MOL0     C26334   7.757   6.035  11.773  1.2209  0.2563 -0.1666
  916MOL0     C26335   7.762   5.939  11.839  0.0868 -0.0502  1.2023
  916MOL0     C26336   7.375   5.780  11.319 -0.6061 -0.2029  0.8293
  916MOL0     C26337   7.349   5.640  11.329 -0.7802 -0.0879 -0.0704
  916MOL0     C26338   7.205   5.602  11.351  1.1957  0.8654  0.5513
  916MOL0     H26339   7.497   5.130  11.350 -0.4939  3.3504 -1.7637
  916MOL0     H26340   7.446   4.906  11.445 -0.4319  0.2453  1.2716
  916MOL0     H26341   7.012   4.881  11.601 -0.6041  1.1297 -1.9677
  916MOL0     H26342   7.160   4.868  11.701 -1.9202  1.7307 -0.2828
  916MOL0     H26343   7.146   4.627  11.642  1.9876  2.2800  2.8917
  916MOL0     H26344   7.020   4.686  11.760 -1.4092  1.1274  0.0998
  916MOL0     H26345   6.855   4.697  11.582 -1.7329 -1.1385 -0.3681
  916MOL0     H26346   6.971   4.636  11.468 -1.7578 -2.8789  0.2650
  916MOL0     H26347   7.002   4.423  11.607 -1.6265 -2.2420  1.1683
  916MOL0     H26348   6.895   4.496  11.726  0.5491 -1.0144  0.7692
  916MOL0     H26349   6.833   4.393  11.446 -1.3504 -1.2216 -0.2889
  916MOL0     H26350   6.727   4.509  11.528  1.8001  1.0348 -0.9739
  916MOL0     H26351   6.828   4.253  11.660  0.5033  1.3633  0.2191
  916MOL0     H26352   6.677   4.353  11.702 -1.1132  0.8300 -1.0758
  916MOL0     H26353   6.681   4.188  11.444 -0.0262  0.5768  0.0448
  916MOL0     H26354   6.553   4.285  11.513  0.0551  0.0179 -0.1455
  916MOL0     H26355   6.580   4.099  11.723  1.9610 -0.8314  0.6342
  916MOL0     H26356   6.473   4.099  11.571  1.0267 -1.6275 -2.1253
  916MOL0     H26357   6.608   3.970  11.364 -1.1993  4.4971  2.5775
  916MOL0     H26358   6.729   3.752  11.289  0.8851  1.9751 -1.6986
  916MOL0     H26359   6.846   3.669  11.380 -1.0105 -0.4729  0.7691
  916MOL0     H26360   6.876   3.936  11.248  0.2541  0.9400  3.9700
  916MOL0     H26361   7.014   3.855  11.312  0.0617  0.4731  1.2248
  916MOL0     H26362   7.033   3.685  11.176 -0.9905 -0.6569  0.8303
  916MOL0     H26363   6.861   3.673  11.143 -1.0214  1.6431  1.8151
  916MOL0     H26364   7.084   3.827  11.012  1.4327 -3.6046 -1.8318
  916MOL0     H26365   6.958   3.724  10.931 -0.0155 -1.7004  1.6813
  916MOL0     H26366   7.104   3.927  10.831 -0.2062 -0.6095 -0.9252
  916MOL0     H26367   7.247   4.157  10.597 -2.7762  0.4916 -1.4854
  916MOL0     H26368   7.142   4.025  10.531 -3.0157  3.8692 -2.2053
  916MOL0     H26369   7.248   3.999  10.679 -0.6642  2.1392  2.5835
  916MOL0     H26370   7.220   4.504  10.685  0.6269 -0.8960 -1.9550
  916MOL0     H26371   7.343   4.684  10.579 -0.4586  1.1168  0.3627
  916MOL0     H26372   7.404   4.909  10.479  2.3253  0.0707 -1.0031
  916MOL0     H26373   7.449   4.781  10.371 -2.7096 -1.6973  0.3351
  916MOL0     H26374   7.524   4.987  10.266  0.4591 -1.8483 -0.3895
  916MOL0     H26375   7.364   4.958  10.185  0.4311 -0.2452  0.7045
  916MOL0     H26376   7.242   5.096  10.359 -0.0738  4.3999 -0.2469
  916MOL0     H26377   7.332   5.179  10.244  1.3287 -2.1777 -2.2649
  916MOL0     H26378   7.517   5.209  10.431  1.2068 -0.4514 -0.2870
  916MOL0     H26379   7.395   5.116  10.528 -0.2564 -1.1012 -1.7846
  916MOL0     H26380   7.390   5.377  10.549  1.0522  0.3960 -0.1984
  916MOL0     H26381   7.364   5.381  10.369 -1.0932  0.1360 -0.6773
  916MOL0     H26382   7.184   5.231  10.559 -0.1023  1.8138  1.8191
  916MOL0     H26383   7.150   5.289  10.395  2.4350  0.5073 -1.6631
  916MOL0     H26384   7.097   5.509  10.475 -3.0280  1.9472  2.0386
  916MOL0     H26385   7.181   5.482  10.626  1.9496 -2.6736 -0.5173
  916MOL0     H26386   7.002   5.330  10.705  2.7502 -0.6523 -1.5548
  916MOL0     H26387   6.908   5.332  10.557 -1.8518  0.6164  1.3640
  916MOL0     H26388   7.010   4.759  10.300  1.2579 -0.9537 -1.9450
  916MOL0     H26389   6.903   4.549  10.402  0.6695 -2.2654  1.8658
  916MOL0     H26390   6.819   4.324  10.768  2.0414  1.6137  4.4993
  916MOL0     H26391   6.762   4.138  10.940  0.7386 -0.1704  3.1842
  916MOL0     H26392   7.035   5.016  11.403 -0.2898 -0.7388  0.6155
  916MOL0     H26393   7.096   5.250  11.346  0.0466  1.2342  0.5961
  916MOL0     H26394   7.676   5.538  11.325  1.2531  0.4051 -0.6508
  916MOL0     H26395   7.707   5.802  11.307  0.4229 -0.3641  1.1435
  916MOL0     H26396   7.461   6.132  11.395  0.3637 -0.2348 -2.3154
  916MOL0     H26397   7.437   5.968  11.472  2.1858 -4.4699 -2.8032
  916MOL0     H26398   7.701   6.104  11.417  1.2596  0.7668  1.9958
  916MOL0     H26399   7.693   5.957  11.512  3.3272  0.3834 -0.5671
  916MOL0     H26400   7.599   6.253  11.566  4.7995  0.8514 -3.2985
  916MOL0     H26401   7.549   6.130  11.675  0.2803 -3.9111 -0.6149
  916MOL0     H26402   7.785   6.242  11.695 -0.7613  0.3322 -2.3568
  916MOL0     H26403   7.833   6.113  11.600 -2.3346 -0.9454 -1.5843
  916MOL0     H26404   7.760   5.857  11.907 -1.1895  2.2324  4.1356
  916MOL0     H26405   7.292   5.850  11.315 -0.0181  0.4916  0.7488
  916MOL0     H26406   7.147   5.695  11.348 -2.8984 -1.4686 -0.8281
  916MOL0     H26407   7.164   5.544  11.268 -2.9899  2.2369  1.3899
  916MOL0     H26408   7.189   5.548  11.445 -1.6521  1.3223  0.4181
  917MOL0     O26409   1.271   6.706   7.995 -0.0946  0.4128 -0.1580
  917MOL0     C26410   1.190   6.691   7.904  0.5443 -0.3560  0.5316
  917MOL0     O26411   1.090   6.590   7.909 -0.0324 -0.9149  0.6435
  917MOL0     C26412   1.086   6.502   8.016 -0.0909  1.0155 -0.1110
  917MOL0     C26413   1.107   6.371   7.986 -0.8598  1.0229 -0.4482
  917MOL0     C26414   1.134   6.265   8.084 -0.1966 -0.1703 -0.3632
  917MOL0     C26415   1.147   6.300   8.224 -0.0733  0.3519  0.5874
  917MOL0     O26416   1.174   6.214   8.333 -0.1109 -0.7828 -0.9652
  917MOL0     C26417   1.093   6.237   8.450 -0.1639  0.1406  1.0240
  917MOL0     C26418   1.091   6.116   8.531  0.3123 -0.5946  0.3007
  917MOL0     C26419   1.008   6.125   8.663  0.1947  0.7001 -0.8861
  917MOL0     C26420   1.023   6.001   8.752 -0.0400  0.0579  1.0047
  917MOL0     C26421   0.948   6.017   8.882  0.5024 -0.3711  0.3019
  917MOL0     C26422   1.017   6.087   9.005  0.4971  0.0780 -0.4489
  917MOL0     C26423   0.928   6.102   9.126  0.4586 -0.0632  1.0126
  917MOL0     C26424   0.967   6.241   9.189 -0.6592  0.2505  0.5362
  917MOL0     N26425   1.105   6.247   9.238 -0.4774 -0.0134 -0.3106
  917MOL0     C26426   1.222   6.310   9.200  0.1763  0.3830  0.1017
  917MOL0     C26427   1.313   6.291   9.304 -0.9193  0.6648  0.1539
  917MOL0     C26428   1.449   6.346   9.297  0.2374 -0.0907 -0.4786
  917MOL0     C26429   1.504   6.368   9.444  1.2833 -0.9784  0.4206
  917MOL0     C26430   1.620   6.470   9.447  0.5214 -0.2710  0.0412
  917MOL0     C26431   1.688   6.506   9.577  0.1895 -0.9231  0.6210
  917MOL0     O26432   1.719   6.387   9.645 -0.2344  0.9147  0.6089
  917MOL0     C26433   1.780   6.374   9.763  0.4265 -0.1347 -0.0538
  917MOL0     C26434   1.804   6.239   9.803 -0.3945  0.1936  0.3082
  917MOL0     C26435   1.867   6.218   9.927 -1.3956 -0.2858  0.3253
  917MOL0     C26436   1.891   6.070   9.938  0.4105  0.8341 -0.1935
  917MOL0     C26437   1.863   6.328  10.025  1.4167  0.3445 -0.1101
  917MOL0     C26438   1.888   6.307  10.172  0.6043  0.2584  0.5827
  917MOL0     O26439   1.900   6.420  10.251 -0.3466 -0.0002 -0.4589
  917MOL0     C26440   1.875   6.426  10.388  0.2364 -0.5408 -0.1272
  917MOL0     C26441   1.819   6.324  10.464  0.2121  0.0245  0.6773
  917MOL0     C26442   1.759   6.346  10.589 -0.0441  0.2257  0.4541
  917MOL0     C26443   1.769   6.471  10.651  0.3902  0.1637  0.7320
  917MOL0     O26444   1.712   6.499  10.770  0.0218  0.4967 -0.0042
  917MOL0     C26445   1.693   6.397  10.870 -0.1394  0.0259  0.0581
  917MOL0     C26446   1.629   6.478  10.990 -0.3568  0.1998 -0.2571
  917MOL0     C26447   1.604   6.385  11.118 -0.2271 -0.5299  0.0256
  917MOL0     C26448   1.505   6.456  11.220 -0.9989 -0.2243 -0.6051
  917MOL0     C26449   1.510   6.399  11.362 -0.5899 -0.1820 -0.7725
  917MOL0     C26450   1.550   6.502  11.468  0.3262 -0.4539  1.1575
  917MOL0     C26451   1.683   6.580  11.454 -0.4505  0.2276 -0.0684
  917MOL0     C26452   1.739   6.654  11.571 -0.1140  0.4384 -1.1654
  917MOL0    Cl26453   1.636   6.792  11.633  0.2535  0.1019  0.0371
  917MOL0     C26454   1.848   6.569  10.591 -0.3008  0.3340 -0.8602
  917MOL0     C26455   1.894   6.551  10.460 -0.4602 -0.5817 -0.1723
  917MOL0     O26456   1.904   6.193  10.213  0.1828  0.3169 -0.2115
  917MOL0     C26457   1.866   6.460   9.971 -0.4850  0.5362 -0.1990
  917MOL0     C26458   1.841   6.476   9.833  0.2992  0.3877 -0.7927
  917MOL0     N26459   1.262   6.207   9.396  1.2668 -0.6038  0.1793
  917MOL0     N26460   1.141   6.186   9.362 -0.8034  0.4174  0.3911
  917MOL0     C26461   1.129   6.435   8.254 -0.3341  0.4155  0.0299
  917MOL0     C26462   1.094   6.529   8.149 -1.3578 -1.1897 -0.5610
  917MOL0     C26463   1.175   6.789   7.799 -0.9719 -0.8157  0.2022
  917MOL0     C26464   1.077   6.760   7.698  0.2130  0.9407 -0.1938
  917MOL0     C26465   1.051   6.848   7.594 -0.0085  0.2756  0.3506
  917MOL0     C26466   1.136   6.956   7.579  1.0476  0.3669 -0.1648
  917MOL0     O26467   1.155   7.018   7.457  0.9157 -0.7732 -0.1162
  917MOL0     C26468   1.121   6.972   7.327 -0.2622  0.1380  0.7630
  917MOL0     C26469   1.204   6.858   7.271  1.3474  0.5663 -0.5679
  917MOL0     C26470   1.347   6.891   7.273 -0.1587  0.2251 -0.2859
  917MOL0     C26471   1.428   6.783   7.192  0.3554  0.4556  0.6036
  917MOL0     C26472   1.511   6.849   7.092  0.2639  0.7272  1.4225
  917MOL0     C26473   1.594   6.902   7.018 -0.3639 -0.3297 -0.9418
  917MOL0     C26474   1.235   6.978   7.669  0.7951 -0.5880 -0.4589
  917MOL0     C26475   1.264   6.893   7.778 -0.1918 -0.0249 -0.4586
  917MOL0     C26476   1.387   6.936   7.862 -0.5603  0.8552  0.7506
  917MOL0     H26477   1.118   6.333   7.885 -2.0956 -2.1667  0.4809
  917MOL0     H26478   1.128   6.162   8.051 -2.6505  1.0153 -4.3724
  917MOL0     H26479   1.001   6.279   8.409  0.2738 -0.1581 -0.3253
  917MOL0     H26480   1.130   6.316   8.516 -1.2676 -0.2260  2.1226
  917MOL0     H26481   1.062   6.034   8.464 -0.6480  0.8036 -1.0603
  917MOL0     H26482   1.195   6.089   8.553  0.4889  0.0044  0.2132
  917MOL0     H26483   1.038   6.210   8.725 -2.8353 -0.1982  2.0989
  917MOL0     H26484   0.901   6.138   8.645 -0.2055  0.9954  1.3821
  917MOL0     H26485   0.969   5.928   8.690  0.1843  0.6016  0.1511
  917MOL0     H26486   1.123   5.960   8.764 -0.0990  0.2085  2.1185
  917MOL0     H26487   0.930   5.913   8.909  1.3573 -0.9235 -1.1388
  917MOL0     H26488   0.850   6.063   8.869 -0.3971 -2.5945 -1.4997
  917MOL0     H26489   1.091   6.018   9.045 -0.8552 -1.5198 -0.6174
  917MOL0     H26490   1.056   6.182   8.967 -2.5344  0.4353 -3.1496
  917MOL0     H26491   0.967   6.023   9.191  2.2798 -1.5190 -1.6545
  917MOL0     H26492   0.820   6.106   9.113  0.5543  0.0614  0.2051
  917MOL0     H26493   0.938   6.330   9.132  0.1021 -1.0536 -2.0338
  917MOL0     H26494   0.896   6.249   9.272 -2.3651  2.6017 -1.0121
  917MOL0     H26495   1.263   6.367   9.118 -3.3700  2.2546 -0.5861
  917MOL0     H26496   1.437   6.445   9.252  1.7152  0.6991  0.7888
  917MOL0     H26497   1.507   6.283   9.229  0.1569 -1.0796  0.3509
  917MOL0     H26498   1.428   6.410   9.511  1.5846  0.4472 -0.1033
  917MOL0     H26499   1.545   6.273   9.481 -1.0977 -2.5001 -0.6639
  917MOL0     H26500   1.692   6.419   9.382 -0.2714  0.6961 -1.6540
  917MOL0     H26501   1.591   6.571   9.418  2.3252  0.6752  1.3207
  917MOL0     H26502   1.783   6.556   9.554 -0.5745  0.3948  0.1684
  917MOL0     H26503   1.613   6.566   9.630 -1.1739 -0.9127 -1.2225
  917MOL0     H26504   1.763   6.150   9.759  1.4629 -2.0691  2.8016
  917MOL0     H26505   1.939   6.026  10.026  1.2989  3.0857  0.5020
  917MOL0     H26506   1.944   6.033   9.849 -0.2280 -2.9226  0.8282
  917MOL0     H26507   1.796   6.016   9.937  0.6551  0.3669  0.7920
  917MOL0     H26508   1.814   6.226  10.417 -0.0195  0.7777 -0.9261
  917MOL0     H26509   1.701   6.264  10.631 -1.4954  0.8643 -0.2063
  917MOL0     H26510   1.622   6.318  10.845 -0.2832 -0.3931  1.6485
  917MOL0     H26511   1.788   6.348  10.894 -1.0432 -1.5655  0.5575
  917MOL0     H26512   1.681   6.569  11.022  1.1762  0.2145 -2.6117
  917MOL0     H26513   1.535   6.514  10.947 -0.1256 -0.6164 -1.4985
  917MOL0     H26514   1.703   6.360  11.158 -0.2495 -0.5162  0.0896
  917MOL0     H26515   1.559   6.289  11.091 -2.5443  0.2849  0.7760
  917MOL0     H26516   1.402   6.462  11.185 -1.2653 -1.6385 -0.0969
  917MOL0     H26517   1.548   6.556  11.236 -0.3527 -0.8159  1.6785
  917MOL0     H26518   1.411   6.363  11.391  0.3903  0.2594  3.8913
  917MOL0     H26519   1.580   6.317  11.372  0.5292  0.6756 -1.2997
  917MOL0     H26520   1.564   6.439  11.556  0.0321 -2.8622 -0.4206
  917MOL0     H26521   1.462   6.567  11.476 -1.9691 -2.9635 -1.5359
  917MOL0     H26522   1.669   6.655  11.375  0.9746 -0.6079 -1.1774
  917MOL0     H26523   1.762   6.506  11.435  3.4002  3.4650  1.8623
  917MOL0     H26524   1.839   6.696  11.552  2.3491 -3.5150  1.5125
  917MOL0     H26525   1.747   6.584  11.655  1.1226  0.3379 -1.3503
  917MOL0     H26526   1.861   6.662  10.645 -2.4377  0.8061 -1.0620
  917MOL0     H26527   1.960   6.625  10.416  0.8760 -1.1790  0.7427
  917MOL0     H26528   1.873   6.554  10.025  0.7832  0.7531 -0.7022
  917MOL0     H26529   1.849   6.574   9.786  0.8211  0.4389 -0.6037
  917MOL0     H26530   1.129   6.472   8.356  0.7873 -0.3964  0.3405
  917MOL0     H26531   1.064   6.631   8.168 -3.5282 -1.8992  0.1733
  917MOL0     H26532   1.007   6.677   7.704  1.0081  0.3198  0.8772
  917MOL0     H26533   0.989   6.828   7.507  0.6488 -0.5657  0.0572
  917MOL0     H26534   1.019   6.934   7.333  0.7367 -2.5749  2.1773
  917MOL0     H26535   1.138   7.050   7.252  2.3037 -1.6833 -0.7322
  917MOL0     H26536   1.163   6.841   7.171 -1.9852  2.0367  0.3909
  917MOL0     H26537   1.191   6.770   7.335 -0.3758  0.3698 -1.1345
  917MOL0     H26538   1.361   6.990   7.229 -2.3768  0.2886 -0.9574
  917MOL0     H26539   1.383   6.904   7.375 -1.7913  2.7664  0.0555
  917MOL0     H26540   1.381   6.703   7.134 -0.4014 -0.1029  1.9534
  917MOL0     H26541   1.505   6.736   7.253  0.8853 -2.2486 -1.9233
  917MOL0     H26542   1.675   6.933   6.956 -0.2523  2.4873  0.4298
  917MOL0     H26543   1.296   7.068   7.665  0.1498 -0.0303  1.2968
  917MOL0     H26544   1.361   6.991   7.953  0.7109  0.4263  1.3966
  917MOL0     H26545   1.442   6.848   7.896 -2.6753 -0.6337  0.4962
  917MOL0     H26546   1.448   6.999   7.796  0.5262  1.2749  2.0892
  918MOL0     O26547   3.133   9.025   0.237 -0.0085  0.3912  0.2154
  918MOL0     C26548   3.042   8.942   0.249 -1.0455 -0.5360 -0.1106
  918MOL0     O26549   3.064   8.821   0.319 -0.0671 -0.4928  0.1973
  918MOL0     C26550   3.170   8.802   0.403 -0.0653  0.3706  1.1113
  918MOL0     C26551   3.241   8.904   0.473 -0.6497 -0.3388 -0.2203
  918MOL0     C26552   3.338   8.861   0.564 -0.1560 -0.1331 -0.0438
  918MOL0     C26553   3.369   8.723   0.578 -0.2796  0.1963  0.5698
  918MOL0     O26554   3.480   8.670   0.644  0.8349 -0.3509 -1.1448
  918MOL0     C26555   3.500   8.709   0.777 -0.7359 -0.5428 -0.4771
  918MOL0     C26556   3.619   8.629   0.821 -0.5631  0.9692 -0.3882
  918MOL0     C26557   3.620   8.481   0.788 -0.1277  0.3948 -0.4722
  918MOL0     C26558   3.760   8.420   0.801 -0.6259  0.1856 -0.2969
  918MOL0     C26559   3.814   8.432   0.937 -0.2172  0.5180  0.0468
  918MOL0     C26560   3.916   8.322   0.946  0.2535 -1.1079  0.5043
  918MOL0     C26561   3.998   8.347   1.074 -0.7223 -0.1973 -0.8592
  918MOL0     C26562   4.095   8.229   1.089  0.0021 -0.9354 -0.4539
  918MOL0     N26563   4.218   8.251   1.167  0.0758  0.0168 -0.2863
  918MOL0     C26564   4.319   8.332   1.127  0.4930 -0.4048  0.4760
  918MOL0     C26565   4.402   8.334   1.237  0.7425 -0.3820  0.2077
  918MOL0     C26566   4.525   8.423   1.248 -0.7283 -0.5488  0.0389
  918MOL0     C26567   4.649   8.358   1.322 -0.0714  0.0159  0.3088
  918MOL0     C26568   4.762   8.466   1.324  0.7672  0.4389 -0.1659
  918MOL0     C26569   4.736   8.569   1.433 -0.1034  0.0460  0.6093
  918MOL0     O26570   4.859   8.639   1.432  0.0131  0.1629  0.2035
  918MOL0     C26571   4.844   8.770   1.416 -1.1601  0.0991  0.0794
  918MOL0     C26572   4.735   8.857   1.416  0.3762  0.5661  0.5728
  918MOL0     C26573   4.758   8.994   1.383 -0.2432 -0.1116 -0.0541
  918MOL0     C26574   4.638   9.081   1.397 -0.4145  0.0494  0.5015
  918MOL0     C26575   4.885   9.042   1.357  0.1993 -0.2712 -0.8367
  918MOL0     C26576   4.910   9.178   1.308 -0.5177  0.3950 -0.3236
  918MOL0     O26577   5.045   9.211   1.292  0.1246 -0.0411  0.1955
  918MOL0     C26578   5.073   9.320   1.214  0.0830 -1.3041  1.1075
  918MOL0     C26579   5.023   9.352   1.079  1.1458  1.2069  0.0410
  918MOL0     C26580   5.039   9.472   1.024  0.1266  0.7032  0.7482
  918MOL0     C26581   5.123   9.563   1.075  0.0703  0.1060  0.6327
  918MOL0     O26582   5.151   9.681   1.006 -0.2976  0.6923 -0.2148
  918MOL0     C26583   5.064   9.786   1.059  0.4943 -0.8396  0.0825
  918MOL0     C26584   4.910   9.782   1.018 -0.3196 -0.0492 -0.2354
  918MOL0     C26585   4.884   9.812   0.869 -0.5431 -0.0395  0.3788
  918MOL0     C26586   4.910   9.950   0.820 -0.4200  0.5370  0.1288
  918MOL0     C26587   4.876   9.977   0.666 -0.2223  0.0901 -0.1726
  918MOL0     C26588   4.746   9.913   0.615  0.8587 -0.1471  1.0324
  918MOL0     C26589   4.717   9.971   0.471  1.5203  0.1436  0.6976
  918MOL0     C26590   4.579   9.946   0.415  0.8958 -0.3927  0.2033
  918MOL0    Cl26591   4.451   9.973   0.530  0.0815 -0.0037  0.1493
  918MOL0     C26592   5.190   9.532   1.191  0.5138 -0.1317 -1.0068
  918MOL0     C26593   5.159   9.414   1.266 -0.4790  0.0333  0.7243
  918MOL0     O26594   4.815   9.244   1.274 -0.0589  0.6470  0.1841
  918MOL0     C26595   4.992   8.953   1.360 -0.3974 -0.0321  0.0660
  918MOL0     C26596   4.972   8.822   1.389 -0.4058  0.4148 -0.0876
  918MOL0     N26597   4.345   8.261   1.344  0.6204  0.2269  0.2455
  918MOL0     N26598   4.242   8.203   1.290 -0.1352  0.0679  0.0633
  918MOL0     C26599   3.286   8.628   0.514  0.4202  0.3336 -0.1597
  918MOL0     C26600   3.185   8.668   0.428 -0.3712 -0.5718 -0.4480
  918MOL0     C26601   2.913   8.977   0.203 -0.4963 -0.4633 -0.8802
  918MOL0     C26602   2.821   8.863   0.190 -0.0018  0.2417 -0.4677
  918MOL0     C26603   2.691   8.879   0.151 -0.9542  0.1988 -0.0638
  918MOL0     C26604   2.646   9.009   0.113 -0.2034 -0.2618 -0.6054
  918MOL0     O26605   2.519   9.044   0.082 -0.3207 -0.0722 -0.5073
  918MOL0     C26606   2.396   8.969   0.104 -0.4325 -0.0119 -0.9380
  918MOL0     C26607   2.329   8.931  -0.021  0.1353  0.3015 -0.6362
  918MOL0     C26608   2.273   9.047  -0.090 -0.3313 -0.5813 -0.1810
  918MOL0     C26609   2.165   9.126  -0.011  0.3986  1.0685 -0.2631
  918MOL0     C26610   2.106   9.222  -0.107 -1.2596  0.2500  0.8678
  918MOL0     C26611   2.043   9.290  -0.186  0.7724  1.0156 -0.3297
  918MOL0     C26612   2.739   9.121   0.125  0.3935  0.7116 -0.7256
  918MOL0     C26613   2.867   9.105   0.168 -0.1924 -0.9745  0.4304
  918MOL0     C26614   2.948   9.228   0.182 -0.1400 -0.0083  0.3473
  918MOL0     H26615   3.223   9.010   0.464  1.5877  0.0918  0.0421
  918MOL0     H26616   3.378   8.940   0.627  1.8781  0.4021 -1.8868
  918MOL0     H26617   3.413   8.685   0.838 -0.7864 -0.2881 -0.4497
  918MOL0     H26618   3.531   8.814   0.784 -0.1326 -0.7642  5.2695
  918MOL0     H26619   3.703   8.674   0.767  1.5534 -3.0410 -0.8464
  918MOL0     H26620   3.642   8.641   0.928 -1.8668  2.6080 -0.2488
  918MOL0     H26621   3.558   8.439   0.868  1.6942 -2.8269 -0.5650
  918MOL0     H26622   3.571   8.457   0.693  5.0287  2.0283 -4.0078
  918MOL0     H26623   3.740   8.314   0.787 -1.4418  0.1145  1.1838
  918MOL0     H26624   3.832   8.463   0.731  0.8955  3.7355  3.0221
  918MOL0     H26625   3.732   8.413   1.007  0.9804  3.0334  2.3255
  918MOL0     H26626   3.858   8.532   0.949  0.9046 -0.0286  0.6623
  918MOL0     H26627   3.868   8.224   0.956 -1.2855 -0.2736  1.6969
  918MOL0     H26628   3.976   8.326   0.854 -0.2009  0.3793  0.2444
  918MOL0     H26629   3.940   8.347   1.166 -0.7186 -1.7376 -0.8446
  918MOL0     H26630   4.058   8.438   1.061  0.9160 -1.0194  0.6231
  918MOL0     H26631   4.042   8.164   1.160  2.1368 -1.9412  0.2939
  918MOL0     H26632   4.110   8.186   0.989 -1.4175 -1.5263 -0.4412
  918MOL0     H26633   4.325   8.384   1.032  0.1498  0.4958  0.9424
  918MOL0     H26634   4.500   8.520   1.291  2.9947  0.9574 -0.7576
  918MOL0     H26635   4.561   8.456   1.150  1.2659 -2.7406 -0.0835
  918MOL0     H26636   4.631   8.328   1.425  2.7472  3.3604  1.9828
  918MOL0     H26637   4.680   8.263   1.277 -3.0840 -0.7580 -0.3510
  918MOL0     H26638   4.858   8.421   1.353 -0.8942 -1.6271  2.8278
  918MOL0     H26639   4.759   8.505   1.223 -2.6034  0.3395 -0.2132
  918MOL0     H26640   4.641   8.620   1.414 -1.2148 -2.8999 -2.8445
  918MOL0     H26641   4.731   8.518   1.530  1.5970 -1.8864 -0.2551
  918MOL0     H26642   4.635   8.817   1.425  0.6933 -1.7341 -3.5616
  918MOL0     H26643   4.552   9.025   1.435 -0.7807  0.9554  1.0361
  918MOL0     H26644   4.623   9.125   1.298  3.5932  3.3996  1.0865
  918MOL0     H26645   4.657   9.157   1.474  0.8754 -0.9123  1.1761
  918MOL0     H26646   4.962   9.272   1.040  2.3596  0.6396 -0.7579
  918MOL0     H26647   4.997   9.492   0.926 -0.9719 -0.1035  1.0265
  918MOL0     H26648   5.074   9.797   1.167  3.7780 -1.7615 -0.0338
  918MOL0     H26649   5.105   9.883   1.030  0.4587 -0.4758  1.2058
  918MOL0     H26650   4.854   9.692   1.044  1.0410 -1.1763 -1.0221
  918MOL0     H26651   4.856   9.862   1.071  1.1814 -0.7029  2.5083
  918MOL0     H26652   4.793   9.765   0.832  0.1262 -0.7650 -0.3690
  918MOL0     H26653   4.968   9.761   0.821  0.6494 -0.9510  3.2144
  918MOL0     H26654   5.018   9.963   0.827 -0.4455  1.0246 -0.3146
  918MOL0     H26655   4.872  10.032   0.881  1.5133  2.2096 -0.8141
  918MOL0     H26656   4.855  10.085   0.660  1.0072  0.3339 -0.3095
  918MOL0     H26657   4.959   9.954   0.600 -0.5754 -0.1138 -0.5426
  918MOL0     H26658   4.665   9.946   0.681 -0.5193 -3.1233  1.0078
  918MOL0     H26659   4.747   9.804   0.601  2.0656  0.0561 -0.8525
  918MOL0     H26660   4.790   9.942   0.395  0.4723 -2.5352  0.5743
  918MOL0     H26661   4.719  10.079   0.484  0.4089  0.1438  0.9570
  918MOL0     H26662   4.575   9.842   0.379  0.7613 -0.0368 -0.8451
  918MOL0     H26663   4.573  10.017   0.332  1.6132  3.0204  2.8646
  918MOL0     H26664   5.269   9.600   1.221 -0.6597  0.8001  0.1040
  918MOL0     H26665   5.220   9.394   1.353  1.3801  4.1290  0.6063
  918MOL0     H26666   5.090   8.981   1.324  0.3659 -1.7316  0.6759
  918MOL0     H26667   5.053   8.751   1.385 -1.8282 -1.4433  1.7614
  918MOL0     H26668   3.315   8.524   0.511  0.0749  0.2503 -0.8362
  918MOL0     H26669   3.116   8.609   0.369 -3.5713  0.4309  1.9767
  918MOL0     H26670   2.846   8.760   0.214 -0.8714 -0.2041 -1.3920
  918MOL0     H26671   2.622   8.796   0.141  0.8866 -1.5713  1.1340
  918MOL0     H26672   2.416   8.882   0.167  0.8815  0.5927 -0.4940
  918MOL0     H26673   2.342   9.027   0.180 -1.4392 -0.5491 -1.2165
  918MOL0     H26674   2.249   8.863   0.010  2.1694 -1.1915  1.6749
  918MOL0     H26675   2.403   8.878  -0.082  2.5824  2.9463 -0.1563
  918MOL0     H26676   2.357   9.110  -0.120  0.8559 -1.8820  0.2512
  918MOL0     H26677   2.232   9.017  -0.187  1.0278 -1.3316 -0.5486
  918MOL0     H26678   2.204   9.172   0.080 -0.8696 -0.8055  1.3000
  918MOL0     H26679   2.081   9.059   0.012  1.8231 -1.6372 -2.3015
  918MOL0     H26680   1.979   9.357  -0.240  0.0455  1.2446  0.7804
  918MOL0     H26681   2.709   9.223   0.106 -1.7415 -0.1547 -2.4850
  918MOL0     H26682   2.903   9.310   0.125  4.1206  1.4111 -1.4634
  918MOL0     H26683   2.962   9.265   0.284  1.2287  1.0777 -0.2022
  918MOL0     H26684   3.048   9.232   0.138  1.5587 -1.3565  3.7181
  919MOL0     O26685   7.342   0.696   6.082  0.6550 -0.1850 -0.1766
  919MOL0     C26686   7.338   0.651   5.976  0.3444  0.0026 -0.5178
  919MOL0     O26687   7.261   0.704   5.877  0.3361  0.0199 -0.4949
  919MOL0     C26688   7.225   0.647   5.750 -0.6678 -0.2511  0.0383
  919MOL0     C26689   7.155   0.530   5.749  0.9834  0.2137 -0.5540
  919MOL0     C26690   7.127   0.461   5.625 -0.1122  0.2407 -0.5300
  919MOL0     C26691   7.174   0.515   5.506 -1.2024 -0.1852 -0.1809
  919MOL0     O26692   7.168   0.447   5.389 -0.1813  0.6402  0.4235
  919MOL0     C26693   7.039   0.399   5.343  1.5329 -0.7954  0.1333
  919MOL0     C26694   6.947   0.529   5.339 -0.4478  0.0864  0.4968
  919MOL0     C26695   6.801   0.496   5.300  0.3851  0.8483  1.1646
  919MOL0     C26696   6.719   0.435   5.420  0.3029  0.3550  1.2062
  919MOL0     C26697   6.657   0.538   5.513 -0.1343  0.2789 -0.3030
  919MOL0     C26698   6.706   0.537   5.660 -0.0460  0.3303  0.5785
  919MOL0     C26699   6.749   0.668   5.712 -1.3741 -0.6537 -0.0522
  919MOL0     C26700   6.779   0.673   5.864  0.2711  0.8894  0.1794
  919MOL0     N26701   6.790   0.810   5.920 -0.7280 -0.5726  0.3912
  919MOL0     C26702   6.914   0.863   5.951  0.9479  0.4645 -0.0817
  919MOL0     C26703   6.894   0.993   5.982  0.5148  0.7070  0.5610
  919MOL0     C26704   6.997   1.084   6.031 -0.5626 -0.4691 -0.4553
  919MOL0     C26705   7.121   1.101   5.937  0.1383 -0.8207  0.4134
  919MOL0     C26706   7.214   0.986   5.915  0.2413  0.7944  0.2975
  919MOL0     C26707   7.347   1.036   5.869 -0.5773 -0.0451  0.2547
  919MOL0     O26708   7.337   1.075   5.733 -0.0193 -0.7819  0.1590
  919MOL0     C26709   7.439   1.160   5.698  0.4094  0.8303 -0.6990
  919MOL0     C26710   7.572   1.149   5.721  0.1860  0.9395  0.4292
  919MOL0     C26711   7.662   1.242   5.679  0.2037  0.9275  0.0860
  919MOL0     C26712   7.809   1.225   5.704 -0.7214 -1.3151  0.4480
  919MOL0     C26713   7.610   1.363   5.627  0.4126  0.0914  0.3769
  919MOL0     C26714   7.693   1.470   5.572  1.0795 -0.6509 -0.6422
  919MOL0     O26715   7.653   1.523   5.450  0.4344  0.4682 -0.4273
  919MOL0     C26716   7.707   1.643   5.411 -0.3128  0.7042  0.1017
  919MOL0     C26717   7.652   1.765   5.471  0.3533 -0.6701 -0.1761
  919MOL0     C26718   7.701   1.893   5.432  0.1655 -1.0728 -0.0699
  919MOL0     C26719   7.796   1.898   5.327 -0.1098 -1.1119  0.9694
  919MOL0     O26720   7.833   2.029   5.287 -0.1381  0.8654  0.5764
  919MOL0     C26721   7.940   2.063   5.199  0.0957 -0.5922  0.4782
  919MOL0     C26722   8.075   2.017   5.261  0.6141 -0.0741 -0.7199
  919MOL0     C26723   8.187   2.044   5.163 -0.2036 -0.7974 -0.1743
  919MOL0     C26724   8.268   1.922   5.119  0.2321  0.6839  0.9678
  919MOL0     C26725   8.329   1.956   4.977 -0.4008  0.8668  0.2794
  919MOL0     C26726   8.372   1.822   4.897  0.2813  0.2299 -0.3372
  919MOL0     C26727   8.472   1.858   4.781  0.1408 -0.0320 -0.3226
  919MOL0     C26728   8.482   1.735   4.691  0.9949 -0.2399  0.5018
  919MOL0    Cl26729   8.334   1.676   4.624 -0.2669  0.1721 -0.1203
  919MOL0     C26730   7.841   1.774   5.263  0.2555 -0.4692 -0.4893
  919MOL0     C26731   7.792   1.646   5.307 -1.1808 -0.4131  1.4097
  919MOL0     O26732   7.788   1.510   5.638  0.6106  0.5042 -0.4143
  919MOL0     C26733   7.471   1.369   5.600  0.2205  0.4046  0.0059
  919MOL0     C26734   7.384   1.276   5.646 -0.3846 -0.2076  0.2117
  919MOL0     N26735   6.765   1.026   5.948  0.1666 -0.4185  0.7169
  919MOL0     N26736   6.703   0.914   5.918 -0.1529  1.0565 -0.5779
  919MOL0     C26737   7.243   0.637   5.510 -0.0475  0.0377 -0.0596
  919MOL0     C26738   7.269   0.703   5.636  0.0404 -0.2441  1.1972
  919MOL0     C26739   7.411   0.526   5.943  0.1537 -0.0651 -0.3948
  919MOL0     C26740   7.387   0.407   6.005 -0.5752  0.1560  0.1369
  919MOL0     C26741   7.455   0.286   5.974  0.5665  0.1991  1.6363
  919MOL0     C26742   7.549   0.289   5.877 -0.7656  0.5120  0.5826
  919MOL0     O26743   7.625   0.181   5.828 -0.2140 -0.7063 -0.2178
  919MOL0     C26744   7.575   0.045   5.847  0.1349 -0.2320 -0.3073
  919MOL0     C26745   7.645  -0.051   5.756 -0.2844 -0.2150  1.1432
  919MOL0     C26746   7.791  -0.064   5.783 -0.5460 -0.3863 -0.2800
  919MOL0     C26747   7.864  -0.192   5.717  0.4782 -0.1910 -0.5202
  919MOL0     C26748   7.835  -0.204   5.571 -0.6497 -0.4323 -0.1829
  919MOL0     C26749   7.802  -0.217   5.457  0.2070  0.3317  0.2000
  919MOL0     C26750   7.576   0.410   5.813 -0.3830 -0.4766 -0.0765
  919MOL0     C26751   7.520   0.529   5.852  0.5015  0.1578  0.7871
  919MOL0     C26752   7.585   0.644   5.789 -0.5719  0.2983  0.2173
  919MOL0     H26753   7.121   0.481   5.840  1.7831 -1.9815 -1.3742
  919MOL0     H26754   7.063   0.375   5.608 -1.9421  1.4895 -0.1981
  919MOL0     H26755   7.004   0.330   5.420  0.3560 -0.5531 -0.1658
  919MOL0     H26756   7.035   0.358   5.242 -0.7503  0.6293 -0.4419
  919MOL0     H26757   6.941   0.597   5.424  2.3265  2.7767 -1.2565
  919MOL0     H26758   6.996   0.598   5.271  0.4557  0.0867  1.1384
  919MOL0     H26759   6.760   0.589   5.259 -1.4960  0.2707  1.5977
  919MOL0     H26760   6.819   0.424   5.219 -2.2278  0.1774  1.0767
  919MOL0     H26761   6.642   0.370   5.378 -0.4088  2.1620 -0.4468
  919MOL0     H26762   6.780   0.364   5.476  0.1654 -0.8907 -0.1704
  919MOL0     H26763   6.551   0.512   5.509  0.0749 -0.9030  1.0477
  919MOL0     H26764   6.654   0.635   5.463 -2.3371  0.4154  0.0196
  919MOL0     H26765   6.625   0.496   5.721  0.7712 -2.6156 -0.1955
  919MOL0     H26766   6.787   0.465   5.673 -0.4213 -0.1669  0.1717
  919MOL0     H26767   6.670   0.739   5.685 -1.7874 -0.4576  1.5328
  919MOL0     H26768   6.844   0.695   5.665  0.7306 -0.3333  3.9553
  919MOL0     H26769   6.704   0.624   5.926  0.4666  1.7931  1.1763
  919MOL0     H26770   6.881   0.635   5.864 -0.0745 -0.0509  0.3824
  919MOL0     H26771   7.002   0.801   5.965 -0.1670 -0.9533  0.8612
  919MOL0     H26772   7.019   1.058   6.135 -0.1592 -0.0798 -0.4413
  919MOL0     H26773   6.968   1.189   6.034 -0.0738 -0.2902 -1.3912
  919MOL0     H26774   7.068   1.109   5.842 -2.2223 -0.4965  1.6888
  919MOL0     H26775   7.174   1.196   5.948 -3.1741  1.4242 -1.1992
  919MOL0     H26776   7.206   0.924   6.004 -1.8113  1.4973  0.6767
  919MOL0     H26777   7.178   0.937   5.824  2.2389  1.2223 -0.7775
  919MOL0     H26778   7.379   1.113   5.940 -0.1364  1.5533 -1.6015
  919MOL0     H26779   7.419   0.954   5.861  0.5525  1.0846 -2.4092
  919MOL0     H26780   7.605   1.053   5.761  0.6087  0.5911 -0.6929
  919MOL0     H26781   7.840   1.298   5.780 -0.2780 -1.2859  0.2444
  919MOL0     H26782   7.868   1.247   5.615 -0.5462  2.8273  1.3978
  919MOL0     H26783   7.833   1.127   5.748 -1.1199 -1.2846  0.7411
  919MOL0     H26784   7.577   1.750   5.548 -1.1538  1.2005 -1.1849
  919MOL0     H26785   7.654   1.983   5.471  0.4212 -0.5661 -0.8960
  919MOL0     H26786   7.929   2.027   5.097  1.0514  1.1968 -0.3151
  919MOL0     H26787   7.956   2.171   5.186  2.3457 -0.6822  1.8595
  919MOL0     H26788   8.086   2.089   5.343  0.7719 -0.3674 -0.4835
  919MOL0     H26789   8.068   1.909   5.275 -4.1254 -0.1329 -1.9362
  919MOL0     H26790   8.254   2.120   5.206  1.4608 -2.1344 -0.2952
  919MOL0     H26791   8.152   2.105   5.080 -1.9200 -1.0426  0.3220
  919MOL0     H26792   8.195   1.841   5.110 -0.6006  1.4158  1.0089
  919MOL0     H26793   8.358   1.899   5.177  0.7053 -2.8633 -0.9096
  919MOL0     H26794   8.270   2.024   4.915 -3.5746 -1.4644  0.4580
  919MOL0     H26795   8.422   2.005   5.004 -0.1979 -1.0232  3.5274
  919MOL0     H26796   8.280   1.781   4.854  1.2254 -1.5277 -0.7890
  919MOL0     H26797   8.420   1.745   4.958  0.9797 -0.0104 -1.1624
  919MOL0     H26798   8.569   1.883   4.825  0.3740  1.0626 -1.3968
  919MOL0     H26799   8.438   1.943   4.721 -0.9565 -0.9305 -1.0147
  919MOL0     H26800   8.534   1.656   4.747 -1.9161 -2.8725 -0.2118
  919MOL0     H26801   8.542   1.762   4.604 -1.5108 -1.4808 -1.7653
  919MOL0     H26802   7.917   1.758   5.188  1.8877 -5.6999  1.8323
  919MOL0     H26803   7.844   1.560   5.265  4.4541  3.6023 -1.0541
  919MOL0     H26804   7.431   1.459   5.556 -0.0618  0.2184 -0.1237
  919MOL0     H26805   7.279   1.295   5.631 -0.3108  0.4975  0.5211
  919MOL0     H26806   7.266   0.678   5.412  1.0109 -0.9064 -0.2139
  919MOL0     H26807   7.331   0.792   5.633  0.1116 -0.3094  0.2855
  919MOL0     H26808   7.290   0.409   6.056 -1.8967  4.8668 -2.0795
  919MOL0     H26809   7.425   0.201   6.033  2.0389 -0.4412  1.5066
  919MOL0     H26810   7.587   0.021   5.953  0.7949  1.9252  0.1773
  919MOL0     H26811   7.468   0.047   5.828  0.2342 -2.8630 -1.4665
  919MOL0     H26812   7.624  -0.016   5.655 -1.6040  1.4219  1.9362
  919MOL0     H26813   7.598  -0.149   5.768  0.1015 -0.5675 -0.1575
  919MOL0     H26814   7.838   0.032   5.760 -0.5820  0.1064  1.5447
  919MOL0     H26815   7.797  -0.079   5.891  3.4765  4.0812  0.4392
  919MOL0     H26816   7.810  -0.273   5.768 -2.1864  1.8199  0.0631
  919MOL0     H26817   7.966  -0.171   5.752 -0.2269  1.8284  0.4481
  919MOL0     H26818   7.770  -0.237   5.357 -1.0219  2.4423  0.1135
  919MOL0     H26819   7.651   0.398   5.736  0.4187 -1.2397  0.7865
  919MOL0     H26820   7.690   0.651   5.820 -0.5609  0.6453  0.1067
  919MOL0     H26821   7.562   0.643   5.682 -2.6858 -1.2419  0.6281
  919MOL0     H26822   7.543   0.731   5.840 -0.5722 -0.4170  1.4893
  920MOL0     O26823   9.993   7.710   6.244 -0.0972 -1.0191  0.6416
  920MOL0     C26824   9.877   7.730   6.283  1.2533 -0.7606  0.4845
  920MOL0     O26825   9.770   7.746   6.201 -0.0339  0.2560  0.2160
  920MOL0     C26826   9.788   7.783   6.075  0.1676 -0.2870  0.4843
  920MOL0     C26827   9.789   7.676   5.983  0.9438  0.5158 -0.9010
  920MOL0     C26828   9.812   7.707   5.855 -0.1201 -0.8624  1.4685
  920MOL0     C26829   9.832   7.846   5.809  1.0484 -0.7552  0.0854
  920MOL0     O26830   9.853   7.884   5.679 -0.4618 -0.1645 -0.7102
  920MOL0     C26831   9.916   7.796   5.598 -0.1016  0.7004 -0.3894
  920MOL0     C26832  10.067   7.758   5.632 -0.8522 -0.1465  0.7699
  920MOL0     C26833  10.160   7.884   5.614 -0.3853 -0.1169 -0.4788
  920MOL0     C26834  10.306   7.861   5.663 -0.1126 -0.2540  0.7865
  920MOL0     C26835  10.300   7.829   5.816  0.6213 -0.4824 -0.1898
  920MOL0     C26836  10.447   7.829   5.876  0.1242  0.5583  0.1146
  920MOL0     C26837  10.433   7.822   6.026  0.3250 -0.0817 -0.1426
  920MOL0     C26838  10.351   7.694   6.078  0.1513  0.1421 -0.5017
  920MOL0     N26839  10.362   7.687   6.221  0.3690  0.1297  0.4433
  920MOL0     C26840  10.296   7.747   6.316  0.4194 -0.7880  0.1707
  920MOL0     C26841  10.363   7.724   6.428  0.7263 -1.4997 -0.4922
  920MOL0     C26842  10.308   7.766   6.561 -0.8572 -0.0848 -0.1729
  920MOL0     C26843  10.267   7.912   6.571 -0.6650  0.0707 -0.7526
  920MOL0     C26844  10.372   8.005   6.498  0.8312 -0.2618  0.2309
  920MOL0     C26845  10.504   7.983   6.563 -0.5815  0.3423 -0.1187
  920MOL0     O26846  10.597   8.081   6.526 -0.5026 -0.0712  0.5002
  920MOL0     C26847  10.630   8.178   6.619 -0.7471  0.6310  0.5695
  920MOL0     C26848  10.644   8.304   6.573 -0.4048 -0.8105 -0.0327
  920MOL0     C26849  10.654   8.407   6.662 -0.3719 -0.1567 -0.3983
  920MOL0     C26850  10.652   8.549   6.601  0.5941 -0.9668  0.9942
  920MOL0     C26851  10.670   8.379   6.796 -0.0041 -0.2619 -2.0000
  920MOL0     C26852  10.718   8.477   6.897 -0.0887  1.1221 -0.0410
  920MOL0     O26853  10.707   8.607   6.859  0.2751  0.0480 -1.3027
  920MOL0     C26854  10.774   8.704   6.929 -0.2504  0.0350 -0.1616
  920MOL0     C26855  10.727   8.826   6.954  1.1243 -0.3875 -0.1086
  920MOL0     C26856  10.800   8.921   7.015 -0.5982 -0.0773 -0.4584
  920MOL0     C26857  10.928   8.893   7.062 -0.5438  0.1271 -1.0397
  920MOL0     O26858  11.008   8.994   7.116 -0.1506  0.0281 -0.3141
  920MOL0     C26859  10.968   9.133   7.118 -0.4219  0.0997  0.1731
  920MOL0     C26860  10.885   9.148   7.243  1.0601  0.0221 -0.8826
  920MOL0     C26861  10.873   9.291   7.271 -0.3069  0.0120 -0.0746
  920MOL0     C26862  10.834   9.294   7.427  0.3436  0.0218  0.5379
  920MOL0     C26863  10.811   9.435   7.485 -0.5166 -0.1794  0.0883
  920MOL0     C26864  10.716   9.529   7.404  0.2697  0.8675 -0.2563
  920MOL0     C26865  10.679   9.645   7.496 -0.9962 -0.0429  0.3609
  920MOL0     C26866  10.559   9.721   7.433  0.4637  0.2257 -0.0464
  920MOL0    Cl26867  10.572   9.818   7.289 -0.0806  0.5166  0.6125
  920MOL0     C26868  10.982   8.762   7.046 -0.3160  0.5069 -0.0456
  920MOL0     C26869  10.906   8.668   6.978 -0.1443  0.1872 -0.6245
  920MOL0     O26870  10.762   8.440   7.002  0.4627 -0.7876 -0.1030
  920MOL0     C26871  10.665   8.251   6.845  0.8796 -0.0460  0.3580
  920MOL0     C26872  10.641   8.154   6.749 -0.5671 -0.2203 -0.4012
  920MOL0     N26873  10.474   7.652   6.404  0.6260  0.0248  0.3845
  920MOL0     N26874  10.464   7.628   6.277 -0.3500 -0.7031  0.0769
  920MOL0     C26875   9.830   7.949   5.904 -0.5092 -0.0174 -1.0184
  920MOL0     C26876   9.812   7.911   6.036  0.3226  0.6548 -0.1600
  920MOL0     C26877   9.854   7.724   6.430 -0.6293 -0.3373 -0.2624
  920MOL0     C26878   9.945   7.643   6.500  0.4034 -0.3874  0.1223
  920MOL0     C26879   9.931   7.612   6.634  0.3787  0.4540  0.2621
  920MOL0     C26880   9.832   7.679   6.711 -0.2866 -0.3906 -0.0934
  920MOL0     O26881   9.798   7.663   6.843 -0.0370  0.6450 -0.3635
  920MOL0     C26882   9.867   7.562   6.910 -0.2353  0.2740 -1.2226
  920MOL0     C26883   9.858   7.592   7.054  0.3315 -0.2242  0.6332
  920MOL0     C26884   9.861   7.466   7.143 -0.4577 -1.0644 -0.7752
  920MOL0     C26885   9.719   7.401   7.183 -0.6643  0.5960  0.5481
  920MOL0     C26886   9.662   7.326   7.063 -0.3409  0.6380  0.7624
  920MOL0     C26887   9.616   7.256   6.975 -0.7207  0.1227 -0.0616
  920MOL0     C26888   9.744   7.761   6.643  0.5002  0.0116 -0.0091
  920MOL0     C26889   9.753   7.787   6.505  0.4753 -0.2289  1.5278
  920MOL0     C26890   9.656   7.889   6.439  0.7056  0.2337  0.4794
  920MOL0     H26891   9.767   7.578   6.023  0.6912  0.6320 -0.7524
  920MOL0     H26892   9.818   7.625   5.783  2.2903  1.3116 -1.0611
  920MOL0     H26893   9.916   7.828   5.494  0.2197 -2.6178 -1.5313
  920MOL0     H26894   9.852   7.707   5.592  2.3896 -1.3986  1.4728
  920MOL0     H26895  10.072   7.712   5.731 -0.8654 -0.8857  0.4336
  920MOL0     H26896  10.101   7.674   5.570 -0.9002 -0.0418  0.6028
  920MOL0     H26897  10.154   7.913   5.509  0.6637 -1.9665 -1.0997
  920MOL0     H26898  10.126   7.966   5.678 -2.5023 -1.8829  0.7968
  920MOL0     H26899  10.366   7.784   5.613  0.6979  1.1235 -0.4444
  920MOL0     H26900  10.364   7.952   5.645  0.4438 -0.7284  0.0943
  920MOL0     H26901  10.256   7.729   5.824 -0.1520 -0.6043 -4.1325
  920MOL0     H26902  10.238   7.899   5.872  0.8181 -0.3868 -0.0896
  920MOL0     H26903  10.499   7.738   5.846  2.6283  0.4508  3.9931
  920MOL0     H26904  10.503   7.916   5.839 -0.9869  0.4140 -2.0755
  920MOL0     H26905  10.388   7.919   6.049 -0.3823 -0.8923  2.1534
  920MOL0     H26906  10.533   7.814   6.069 -0.7193 -1.3604  2.2608
  920MOL0     H26907  10.244   7.702   6.057 -0.4988  0.0297  2.3019
  920MOL0     H26908  10.399   7.603   6.042  1.4053  0.3343  0.5997
  920MOL0     H26909  10.205   7.804   6.295  0.0236 -1.4870 -0.0560
  920MOL0     H26910  10.389   7.743   6.630 -1.2048 -1.0459 -0.0768
  920MOL0     H26911  10.218   7.706   6.581 -1.0243  0.0851 -0.4085
  920MOL0     H26912  10.170   7.919   6.521 -1.2061  1.7544  0.4489
  920MOL0     H26913  10.248   7.933   6.676  1.0404 -0.5444 -0.2808
  920MOL0     H26914  10.387   7.991   6.391 -1.2715  1.5612 -0.3732
  920MOL0     H26915  10.351   8.112   6.511  1.2384 -0.2832  1.2033
  920MOL0     H26916  10.491   7.981   6.672  2.2248 -5.0328  0.4783
  920MOL0     H26917  10.536   7.882   6.535  0.9034  0.3456  1.4220
  920MOL0     H26918  10.647   8.309   6.465 -2.3040 -3.1845 -0.2792
  920MOL0     H26919  10.747   8.602   6.593  0.9098 -1.8130 -3.6555
  920MOL0     H26920  10.574   8.605   6.653  1.5090 -0.1263  1.4969
  920MOL0     H26921  10.626   8.551   6.494  1.1594 -1.0697  0.8479
  920MOL0     H26922  10.621   8.839   6.935  0.3278  0.2988  3.9789
  920MOL0     H26923  10.763   9.023   7.022 -3.3996 -1.1015  3.5228
  920MOL0     H26924  11.064   9.186   7.125  0.2924 -1.1119 -0.1527
  920MOL0     H26925  10.911   9.163   7.029 -0.3277  3.5254  1.1383
  920MOL0     H26926  10.782   9.110   7.240  0.0035  2.5552  0.4832
  920MOL0     H26927  10.928   9.096   7.330 -3.1033 -4.2506 -0.9495
  920MOL0     H26928  10.805   9.349   7.208 -2.6525  1.1154  3.2201
  920MOL0     H26929  10.969   9.344   7.268 -0.2292  0.4369  4.4233
  920MOL0     H26930  10.910   9.242   7.486  1.3699 -1.9260 -2.2414
  920MOL0     H26931  10.741   9.239   7.444  0.9682 -1.8626 -1.5702
  920MOL0     H26932  10.775   9.416   7.586  2.2189 -0.1897  1.1427
  920MOL0     H26933  10.903   9.494   7.485  0.2436 -1.2308  2.8307
  920MOL0     H26934  10.630   9.469   7.373  0.5568  1.1560 -1.6861
  920MOL0     H26935  10.758   9.567   7.311 -2.5243 -1.4150 -2.6580
  920MOL0     H26936  10.774   9.698   7.505  0.4486 -1.3487 -4.1822
  920MOL0     H26937  10.649   9.610   7.595  0.8512  1.7263  1.6225
  920MOL0     H26938  10.506   9.777   7.510 -2.0884  0.1493 -1.6541
  920MOL0     H26939  10.473   9.655   7.421 -0.4532  1.2852  0.4484
  920MOL0     H26940  11.082   8.752   7.088  0.2285  3.7970 -0.2648
  920MOL0     H26941  10.966   8.577   6.979 -0.1876  0.0853  2.6476
  920MOL0     H26942  10.688   8.235   6.950  4.0622  1.8619  0.0543
  920MOL0     H26943  10.637   8.053   6.788  1.2218 -0.5517 -0.9757
  920MOL0     H26944   9.841   8.054   5.880  2.8553  0.5191  2.0604
  920MOL0     H26945   9.803   7.984   6.117 -2.2064  2.2536 -1.7339
  920MOL0     H26946  10.028   7.600   6.443  2.0347  0.5085  1.7346
  920MOL0     H26947   9.996   7.537   6.677 -2.7412 -2.5066  0.2132
  920MOL0     H26948   9.817   7.467   6.891 -3.7140  2.1302 -2.2455
  920MOL0     H26949   9.972   7.554   6.880  0.2912  2.0049  0.0252
  920MOL0     H26950   9.777   7.662   7.081  2.1380  2.1501  0.2577
  920MOL0     H26951   9.943   7.661   7.062  1.4086 -0.7071 -3.9947
  920MOL0     H26952   9.932   7.394   7.102  1.6625 -0.8416  2.1767
  920MOL0     H26953   9.910   7.502   7.234 -0.2698 -3.0504 -0.0503
  920MOL0     H26954   9.644   7.476   7.210 -3.1630 -2.0435  1.4510
  920MOL0     H26955   9.743   7.327   7.259 -1.6824 -0.3206  0.0028
  920MOL0     H26956   9.585   7.202   6.888 -1.3336  0.4354 -0.0426
  920MOL0     H26957   9.661   7.796   6.704 -0.8788 -0.2080 -1.6854
  920MOL0     H26958   9.604   7.856   6.349 -0.6835 -1.4981  1.8652
  920MOL0     H26959   9.578   7.913   6.512 -0.2709  0.4269 -0.5966
  920MOL0     H26960   9.718   7.973   6.406 -2.8512  2.1875 -1.9324
  921MOL0     O26961   3.683   0.468   1.126  0.0145  0.6481  0.2340
  921MOL0     C26962   3.703   0.554   1.209  0.0356  0.3265 -0.7312
  921MOL0     O26963   3.827   0.612   1.230  0.5653  0.4599  0.8739
  921MOL0     C26964   3.952   0.550   1.229  0.7691 -0.2733 -0.0262
  921MOL0     C26965   4.054   0.613   1.303  0.4342 -0.4195  0.9726
  921MOL0     C26966   4.171   0.542   1.326  0.0922 -0.5395  0.6295
  921MOL0     C26967   4.196   0.422   1.266 -0.2896  0.4828 -0.0511
  921MOL0     O26968   4.321   0.360   1.261  0.1429  0.2742  0.0715
  921MOL0     C26969   4.427   0.403   1.342  0.2238  0.6263 -0.4578
  921MOL0     C26970   4.543   0.310   1.346 -0.1100  0.6315 -0.2501
  921MOL0     C26971   4.503   0.169   1.407  0.2639  0.8754 -0.2978
  921MOL0     C26972   4.598   0.130   1.517  1.0035  0.6528 -0.2987
  921MOL0     C26973   4.560   0.001   1.602 -0.7251  1.1082 -0.9774
  921MOL0     C26974   4.572  -0.127   1.517 -0.5760 -0.3751  0.3813
  921MOL0     C26975   4.541  -0.253   1.602 -1.0309 -0.1959 -0.3505
  921MOL0     C26976   4.401  -0.244   1.674  0.3110  0.5815  0.1951
  921MOL0     N26977   4.333  -0.377   1.677  0.5867 -0.5552  0.1140
  921MOL0     C26978   4.276  -0.444   1.571  0.5950  0.6992  1.0015
  921MOL0     C26979   4.196  -0.547   1.614 -0.2734  0.2450 -0.6975
  921MOL0     C26980   4.122  -0.653   1.541 -0.0358  0.2474  0.0755
  921MOL0     C26981   4.116  -0.795   1.602  0.3595  0.3820 -1.2886
  921MOL0     C26982   4.074  -0.910   1.501 -0.0819 -0.5171 -0.1512
  921MOL0     C26983   3.935  -0.875   1.436 -0.2434 -0.6777 -0.1790
  921MOL0     O26984   3.829  -0.898   1.527  0.9590 -0.4578 -0.3073
  921MOL0     C26985   3.715  -0.818   1.511 -0.8329 -0.5936  0.2862
  921MOL0     C26986   3.719  -0.676   1.534  0.1606  0.6277  0.0315
  921MOL0     C26987   3.603  -0.599   1.520  0.8323 -0.3177 -0.2161
  921MOL0     C26988   3.626  -0.449   1.525 -0.2271  0.1545  0.2317
  921MOL0     C26989   3.478  -0.654   1.473 -0.4078 -0.6223  0.9572
  921MOL0     C26990   3.358  -0.574   1.428 -0.1400 -0.3968  0.1669
  921MOL0     O26991   3.311  -0.605   1.306 -0.2899  0.2541  0.7099
  921MOL0     C26992   3.185  -0.589   1.269 -0.9276 -0.0383 -0.4423
  921MOL0     C26993   3.122  -0.702   1.213 -0.3209  0.6887  0.9883
  921MOL0     C26994   2.989  -0.697   1.179 -0.4252 -0.5990  1.2515
  921MOL0     C26995   2.905  -0.579   1.191  0.0044 -0.1725  0.7801
  921MOL0     O26996   2.771  -0.597   1.162  0.7410 -0.2425 -0.1486
  921MOL0     C26997   2.684  -0.603   1.274 -0.4227 -0.1902 -0.4097
  921MOL0     C26998   2.574  -0.500   1.262 -0.7070 -0.2197 -0.3457
  921MOL0     C26999   2.474  -0.541   1.158 -0.7159 -0.4197  0.1749
  921MOL0     C27000   2.383  -0.431   1.096 -0.8227  0.6547 -0.4731
  921MOL0     C27001   2.262  -0.490   1.032 -0.6636 -0.5515  0.1629
  921MOL0     C27002   2.315  -0.580   0.912 -0.0260 -0.5126 -0.3211
  921MOL0     C27003   2.380  -0.503   0.805 -0.6926  0.0045  1.5476
  921MOL0     C27004   2.295  -0.397   0.744 -1.1145 -0.5070 -0.1144
  921MOL0    Cl27005   2.127  -0.420   0.722  0.3447 -0.3157  0.3835
  921MOL0     C27006   2.973  -0.473   1.259 -0.8451 -0.3353  0.6231
  921MOL0     C27007   3.112  -0.474   1.286 -0.1710 -0.7135 -0.0298
  921MOL0     O27008   3.310  -0.495   1.508  0.0136 -1.2681 -0.1855
  921MOL0     C27009   3.473  -0.796   1.444  0.2397 -0.5380 -0.4868
  921MOL0     C27010   3.587  -0.869   1.473 -0.4173  0.0344  0.0033
  921MOL0     N27011   4.222  -0.552   1.749 -0.7380 -0.2161 -0.1832
  921MOL0     N27012   4.299  -0.453   1.791  0.2593 -0.1309 -0.3658
  921MOL0     C27013   4.095   0.358   1.194 -0.7890 -1.1441  0.7287
  921MOL0     C27014   3.975   0.416   1.176  0.2975 -0.2076  0.7286
  921MOL0     C27015   3.589   0.613   1.294 -0.4071 -0.1848 -0.3853
  921MOL0     C27016   3.633   0.690   1.410  0.5601 -1.0292  0.0680
  921MOL0     C27017   3.525   0.768   1.477 -0.0768  1.4063  0.9157
  921MOL0     C27018   3.393   0.754   1.443  0.0607  0.9620 -0.1138
  921MOL0     O27019   3.295   0.833   1.511 -0.1744  0.5604 -0.3717
  921MOL0     C27020   3.329   0.909   1.620 -0.2323  0.2907  0.6206
  921MOL0     C27021   3.200   0.969   1.694 -0.0134 -0.8114  0.7807
  921MOL0     C27022   3.150   1.100   1.628 -0.3042 -0.1721  0.9056
  921MOL0     C27023   3.053   1.178   1.702 -0.2811  0.8747  0.1215
  921MOL0     C27024   3.122   1.230   1.822  0.2018 -0.5469 -0.0760
  921MOL0     C27025   3.164   1.280   1.926 -0.6681 -0.1309  0.5098
  921MOL0     C27026   3.354   0.673   1.334  0.1227 -0.8051  0.3163
  921MOL0     C27027   3.450   0.605   1.263  0.4735  0.2298  0.5360
  921MOL0     C27028   3.391   0.523   1.140 -0.2551 -0.1416  0.7099
  921MOL0     H27029   4.028   0.708   1.348  0.1837  0.5663 -1.1351
  921MOL0     H27030   4.245   0.596   1.384 -1.2656 -0.7318  2.6240
  921MOL0     H27031   4.401   0.436   1.443  3.3002  1.6680  0.0848
  921MOL0     H27032   4.469   0.487   1.286 -1.3436  1.1740 -0.8736
  921MOL0     H27033   4.565   0.290   1.241 -1.1339  0.1371 -0.3832
  921MOL0     H27034   4.632   0.354   1.392  1.5958 -2.4852 -0.3128
  921MOL0     H27035   4.400   0.175   1.442  1.0564  0.0775  2.4578
  921MOL0     H27036   4.503   0.094   1.328  0.5125 -0.1440  0.6360
  921MOL0     H27037   4.702   0.128   1.482  0.7586  0.1355 -1.0418
  921MOL0     H27038   4.579   0.207   1.593  3.6440 -1.3036  2.5799
  921MOL0     H27039   4.457   0.022   1.633 -0.9571  0.4480 -1.2815
  921MOL0     H27040   4.620  -0.002   1.693 -0.5370  0.8593 -1.1093
  921MOL0     H27041   4.499  -0.127   1.436  1.9578 -0.8653 -2.0430
  921MOL0     H27042   4.672  -0.132   1.473 -0.3520  1.9122  0.5208
  921MOL0     H27043   4.613  -0.276   1.681  0.1526 -2.9748 -2.0781
  921MOL0     H27044   4.553  -0.346   1.546  1.9729 -0.3182  0.3099
  921MOL0     H27045   4.407  -0.206   1.777  4.0891 -1.6234  0.9805
  921MOL0     H27046   4.335  -0.182   1.613  0.0092  0.1820  0.1194
  921MOL0     H27047   4.285  -0.411   1.468  0.8443 -0.8656  0.4966
  921MOL0     H27048   4.170  -0.670   1.444  1.4233  1.9691  0.4502
  921MOL0     H27049   4.022  -0.623   1.508  0.4605 -1.0771 -3.0644
  921MOL0     H27050   4.217  -0.806   1.644 -0.6058  0.4380  1.1519
  921MOL0     H27051   4.042  -0.793   1.682  3.6874  0.9657  2.0509
  921MOL0     H27052   4.157  -0.909   1.430  2.0713 -1.1729  2.2007
  921MOL0     H27053   4.063  -1.009   1.545  4.6286 -0.2465  2.3060
  921MOL0     H27054   3.948  -0.777   1.388  0.7563  0.7645  2.7189
  921MOL0     H27055   3.916  -0.945   1.355  1.5430 -0.9554 -0.4031
  921MOL0     H27056   3.814  -0.645   1.577  0.5230 -0.9996  0.4722
  921MOL0     H27057   3.591  -0.407   1.431 -0.7068 -0.8885 -0.0725
  921MOL0     H27058   3.731  -0.420   1.533 -0.1585  0.0448 -0.2622
  921MOL0     H27059   3.572  -0.399   1.606 -1.8111  1.6630 -1.6564
  921MOL0     H27060   3.166  -0.802   1.207 -2.0744 -0.0554 -0.6552
  921MOL0     H27061   2.928  -0.772   1.129 -2.9505  1.8227  0.3775
  921MOL0     H27062   2.638  -0.701   1.291  1.7159 -1.2133 -0.1030
  921MOL0     H27063   2.738  -0.590   1.368 -0.2728 -0.8679 -0.3966
  921MOL0     H27064   2.529  -0.496   1.362  3.8899  0.8070  1.9214
  921MOL0     H27065   2.609  -0.400   1.235 -0.3594  0.2478  1.6624
  921MOL0     H27066   2.420  -0.626   1.202 -3.9207  1.7200  0.7159
  921MOL0     H27067   2.540  -0.573   1.077  0.8893  0.8685  0.9164
  921MOL0     H27068   2.436  -0.367   1.025 -1.5181 -0.5062 -2.0712
  921MOL0     H27069   2.347  -0.366   1.177 -2.0219 -0.3089 -0.2144
  921MOL0     H27070   2.209  -0.551   1.105 -2.1523  0.0500 -0.3798
  921MOL0     H27071   2.188  -0.415   1.006 -0.2939 -0.7923 -1.6933
  921MOL0     H27072   2.228  -0.627   0.864 -0.3611 -2.1804  1.7442
  921MOL0     H27073   2.379  -0.660   0.952  1.7153 -0.8778 -3.4705
  921MOL0     H27074   2.412  -0.565   0.720  2.3448  1.7073  1.2768
  921MOL0     H27075   2.479  -0.466   0.836 -0.8305  0.5303  1.3750
  921MOL0     H27076   2.338  -0.373   0.646 -0.3799 -1.0005  0.0825
  921MOL0     H27077   2.317  -0.308   0.803  0.5265 -1.2444  0.4139
  921MOL0     H27078   2.904  -0.390   1.276 -0.9116 -0.2663  0.0298
  921MOL0     H27079   3.159  -0.380   1.312 -1.4689 -0.0768  0.0941
  921MOL0     H27080   3.385  -0.847   1.407 -0.8771 -0.0737  1.4081
  921MOL0     H27081   3.590  -0.977   1.458 -0.1358 -0.0911  0.9093
  921MOL0     H27082   4.114   0.264   1.144  0.5941  0.3257 -1.7961
  921MOL0     H27083   3.912   0.364   1.105 -0.3551 -0.1586  1.2610
  921MOL0     H27084   3.734   0.699   1.449  1.7970 -1.5799 -2.7283
  921MOL0     H27085   3.560   0.820   1.566  1.0103 -0.2975  1.5325
  921MOL0     H27086   3.376   0.838   1.689 -0.3450 -1.1894 -0.7704
  921MOL0     H27087   3.403   0.983   1.589 -0.3853 -0.3163 -1.3110
  921MOL0     H27088   3.235   0.984   1.796 -0.7736 -0.8163  1.0472
  921MOL0     H27089   3.116   0.899   1.691 -2.6232  2.0520  2.4242
  921MOL0     H27090   3.227   1.168   1.590  0.8579 -1.1661  1.4305
  921MOL0     H27091   3.097   1.070   1.537  0.6465  0.8422 -0.0125
  921MOL0     H27092   2.966   1.123   1.739  1.0359 -1.5665 -0.1769
  921MOL0     H27093   3.017   1.255   1.633  0.4663 -0.3526 -1.7270
  921MOL0     H27094   3.212   1.324   2.012  0.5338  0.6969 -0.5483
  921MOL0     H27095   3.248   0.675   1.310  0.4021  0.1792 -0.9757
  921MOL0     H27096   3.410   0.415   1.143 -5.2801 -1.2281  3.2150
  921MOL0     H27097   3.283   0.530   1.129 -0.1604 -1.9264 -4.6182
  921MOL0     H27098   3.425   0.584   1.056 -1.4654  0.8005  0.8955
  922MOL0     O27099   0.747   7.020   0.817 -0.3771  0.0982 -0.1066
  922MOL0     C27100   0.678   6.940   0.888  0.1343 -0.2298  0.2860
  922MOL0     O27101   0.554   6.904   0.851  0.5702 -0.2879 -0.3034
  922MOL0     C27102   0.476   6.993   0.782 -0.0611  0.7281  0.7316
  922MOL0     C27103   0.456   7.129   0.806 -0.1875  0.4215 -0.2097
  922MOL0     C27104   0.369   7.214   0.729 -0.1548  0.9289 -0.9323
  922MOL0     C27105   0.302   7.161   0.621 -0.1237 -0.2868  0.2553
  922MOL0     O27106   0.217   7.254   0.562 -0.3781  0.0795  0.6328
  922MOL0     C27107   0.170   7.222   0.436  0.1979 -0.6876  1.3735
  922MOL0     C27108   0.105   7.336   0.368  0.9426 -0.3211 -0.4140
  922MOL0     C27109  -0.048   7.323   0.362  0.5607 -0.1479  0.2593
  922MOL0     C27110  -0.118   7.408   0.257 -0.8729 -0.7250  0.8712
  922MOL0     C27111  -0.134   7.558   0.294  0.1309 -0.4217 -0.4263
  922MOL0     C27112  -0.192   7.648   0.177  0.6676 -1.1298  0.1233
  922MOL0     C27113  -0.083   7.683   0.077 -0.9705 -0.0085  0.2224
  922MOL0     C27114  -0.117   7.641  -0.067  0.3896  0.1956  0.3249
  922MOL0     N27115  -0.136   7.494  -0.090 -0.6472 -0.7521  0.4008
  922MOL0     C27116  -0.248   7.418  -0.062 -0.1653 -0.2685 -0.9334
  922MOL0     C27117  -0.243   7.304  -0.134 -0.3757  0.4611  0.0643
  922MOL0     C27118  -0.330   7.184  -0.119  0.0249 -0.9044  0.3510
  922MOL0     C27119  -0.255   7.108  -0.010  0.4594  0.5736 -0.2429
  922MOL0     C27120  -0.367   7.027   0.072 -0.4165  0.6338 -0.2368
  922MOL0     C27121  -0.313   6.987   0.213 -0.3052  0.3593  1.2749
  922MOL0     O27122  -0.222   6.875   0.195 -0.2842  0.6601 -0.2642
  922MOL0     C27123  -0.192   6.815   0.318 -0.1459  0.5243 -0.0918
  922MOL0     C27124  -0.203   6.670   0.319 -1.0794 -0.5655 -0.7254
  922MOL0     C27125  -0.174   6.583   0.427  0.1958 -0.9231  1.2158
  922MOL0     C27126  -0.210   6.439   0.416  0.0695  0.0254 -0.0029
  922MOL0     C27127  -0.119   6.652   0.538  0.2406 -1.4184 -0.6890
  922MOL0     C27128  -0.085   6.595   0.667 -0.9324 -0.0021 -0.6544
  922MOL0     O27129  -0.079   6.457   0.682 -0.0945 -0.4028 -0.5066
  922MOL0     C27130   0.009   6.403   0.780  0.7365  1.2219 -0.1878
  922MOL0     C27131  -0.039   6.289   0.846 -0.3057  0.1236  0.5571
  922MOL0     C27132   0.050   6.224   0.924  0.4888 -0.2011 -0.4204
  922MOL0     C27133   0.164   6.282   0.978 -1.6926  0.0522  0.6477
  922MOL0     O27134   0.224   6.209   1.074 -0.2100  1.1897  0.4795
  922MOL0     C27135   0.365   6.227   1.108 -0.4052  0.8687  0.3897
  922MOL0     C27136   0.457   6.126   1.044 -0.5887 -0.3205 -0.7106
  922MOL0     C27137   0.441   6.120   0.899 -0.8878 -0.0351  1.1138
  922MOL0     C27138   0.501   6.239   0.822 -0.4570  1.4018 -0.6704
  922MOL0     C27139   0.540   6.177   0.687 -0.0388 -0.3915 -0.2851
  922MOL0     C27140   0.604   6.292   0.612  0.8054 -0.2109 -0.1557
  922MOL0     C27141   0.584   6.263   0.460 -0.3499 -0.5249 -0.3949
  922MOL0     C27142   0.671   6.146   0.412 -1.0106 -0.1281  0.0633
  922MOL0    Cl27143   0.630   6.106   0.245 -0.3539  0.0480 -0.4075
  922MOL0     C27144   0.215   6.395   0.907 -0.2170 -0.2649 -0.2819
  922MOL0     C27145   0.135   6.455   0.810  0.3163 -1.0163 -0.2564
  922MOL0     O27146  -0.065   6.673   0.759 -0.2550 -0.2582 -0.4138
  922MOL0     C27147  -0.101   6.799   0.533  0.3315  0.7782 -0.2729
  922MOL0     C27148  -0.137   6.874   0.423  0.0500 -0.2951 -0.0358
  922MOL0     N27149  -0.119   7.304  -0.203  0.3322 -0.4334 -1.3137
  922MOL0     N27150  -0.059   7.419  -0.180  0.6269  0.4934  0.5031
  922MOL0     C27151   0.324   7.023   0.586  0.1281  0.0877 -0.5543
  922MOL0     C27152   0.402   6.939   0.675 -0.6420  0.9124 -0.5616
  922MOL0     C27153   0.728   6.883   1.015  0.8747 -0.0923 -0.5593
  922MOL0     C27154   0.663   6.768   1.073 -0.0067 -0.3553 -0.2340
  922MOL0     C27155   0.692   6.717   1.202 -0.2177 -0.4029 -0.5711
  922MOL0     C27156   0.793   6.773   1.275  0.1033 -0.7687 -0.0492
  922MOL0     O27157   0.815   6.717   1.398  0.1334  0.3031  0.5775
  922MOL0     C27158   0.861   6.812   1.499  0.3095  0.4576  0.2273
  922MOL0     C27159   0.846   6.736   1.630  0.2676  0.3436  0.4025
  922MOL0     C27160   0.928   6.613   1.627 -0.7916 -0.0353 -0.7540
  922MOL0     C27161   0.916   6.532   1.758  0.4734 -0.2787 -0.3863
  922MOL0     C27162   0.794   6.454   1.789  0.2554 -0.3231  0.3344
  922MOL0     C27163   0.704   6.383   1.819 -0.6776 -0.1201 -0.1840
  922MOL0     C27164   0.859   6.880   1.226 -0.9274 -1.0174  0.4257
  922MOL0     C27165   0.828   6.937   1.100  0.3018 -0.1153 -0.2084
  922MOL0     C27166   0.903   7.068   1.072 -0.5873 -0.4055  0.1839
  922MOL0     H27167   0.517   7.177   0.882  3.2606 -0.5076 -2.1512
  922MOL0     H27168   0.339   7.316   0.753 -1.8088  1.4347 -4.5633
  922MOL0     H27169   0.108   7.132   0.449  1.3783 -1.4373  1.9573
  922MOL0     H27170   0.251   7.202   0.366 -1.8405  2.8524 -2.3970
  922MOL0     H27171   0.121   7.426   0.428  1.4763 -1.8065  1.8177
  922MOL0     H27172   0.136   7.355   0.265 -1.4251  1.1027 -0.9306
  922MOL0     H27173  -0.069   7.222   0.324  1.8171 -1.0093  1.7613
  922MOL0     H27174  -0.087   7.344   0.462  0.2499 -1.3764  0.4161
  922MOL0     H27175  -0.072   7.414   0.158 -0.0456 -1.1255  1.2166
  922MOL0     H27176  -0.219   7.375   0.230 -0.1952 -1.5658 -0.7967
  922MOL0     H27177  -0.039   7.599   0.329  1.4478 -1.2380 -2.7970
  922MOL0     H27178  -0.206   7.561   0.376  1.8231  0.3131  1.0807
  922MOL0     H27179  -0.283   7.623   0.122  0.0452  1.0334  0.0513
  922MOL0     H27180  -0.219   7.749   0.209 -1.2806  0.7084 -5.9281
  922MOL0     H27181   0.012   7.635   0.099 -0.0364  0.7312 -1.9460
  922MOL0     H27182  -0.057   7.789   0.070  3.6130 -0.8964  1.0338
  922MOL0     H27183  -0.210   7.689  -0.097  0.2616 -0.5477 -0.5115
  922MOL0     H27184  -0.038   7.673  -0.135  1.0500 -3.3789 -0.8146
  922MOL0     H27185  -0.319   7.434   0.018  1.9934 -0.5472  1.1629
  922MOL0     H27186  -0.332   7.132  -0.215 -1.7264  1.6836 -1.1146
  922MOL0     H27187  -0.424   7.218  -0.076  1.4923  2.9941  0.8167
  922MOL0     H27188  -0.181   7.036  -0.046  2.3090  2.1146  0.2883
  922MOL0     H27189  -0.208   7.184   0.053  2.5047 -1.5716  0.9917
  922MOL0     H27190  -0.451   7.093   0.096  0.2093  0.1402  4.1414
  922MOL0     H27191  -0.406   6.949   0.006 -0.4743  2.1181 -2.0549
  922MOL0     H27192  -0.272   7.072   0.268  0.8232  0.4543  0.3305
  922MOL0     H27193  -0.395   6.937   0.266  1.1082 -2.6450  0.8060
  922MOL0     H27194  -0.238   6.622   0.228 -2.7575 -2.2929  0.7541
  922MOL0     H27195  -0.296   6.416   0.480  1.2772 -5.2685  0.1521
  922MOL0     H27196  -0.126   6.372   0.437 -0.2261 -0.1125  0.7618
  922MOL0     H27197  -0.245   6.412   0.316 -0.3416  0.6138 -0.0266
  922MOL0     H27198  -0.137   6.250   0.820  0.1222 -2.0339  1.9948
  922MOL0     H27199   0.031   6.128   0.971  1.2383 -0.3464 -0.3992
  922MOL0     H27200   0.400   6.325   1.074  0.5946 -0.5666 -3.1401
  922MOL0     H27201   0.371   6.221   1.217 -0.7281  0.5624  0.3911
  922MOL0     H27202   0.557   6.169   1.056 -0.2217 -1.2293 -0.4567
  922MOL0     H27203   0.454   6.030   1.096  0.3065 -1.1598 -2.1471
  922MOL0     H27204   0.334   6.112   0.878 -1.7291  3.2009  3.3870
  922MOL0     H27205   0.484   6.025   0.867 -0.9341  0.0002  0.9465
  922MOL0     H27206   0.595   6.265   0.872 -1.1730  0.6333  1.1777
  922MOL0     H27207   0.441   6.330   0.814 -1.0879  1.0548 -0.0390
  922MOL0     H27208   0.603   6.088   0.694 -1.7049 -1.5389  1.1119
  922MOL0     H27209   0.456   6.144   0.625 -1.5127 -2.4303  2.5436
  922MOL0     H27210   0.712   6.293   0.632  0.7730 -0.8994  0.0843
  922MOL0     H27211   0.561   6.386   0.650  1.0095 -1.5827  4.0428
  922MOL0     H27212   0.623   6.346   0.400  0.2911 -0.7635 -0.3178
  922MOL0     H27213   0.479   6.240   0.441 -0.5494  0.3548 -0.3964
  922MOL0     H27214   0.645   6.052   0.462  1.3526 -1.6173 -1.3115
  922MOL0     H27215   0.779   6.163   0.414 -0.8055 -1.1574 -0.8190
  922MOL0     H27216   0.305   6.447   0.938  1.2361 -2.3043 -0.8435
  922MOL0     H27217   0.161   6.553   0.773 -1.0659 -0.3463  0.4884
  922MOL0     H27218  -0.074   6.855   0.622 -1.1961  3.2037 -1.2354
  922MOL0     H27219  -0.124   6.982   0.424 -3.6606  0.2762 -0.7374
  922MOL0     H27220   0.265   6.970   0.512  0.8353 -1.3748 -0.1029
  922MOL0     H27221   0.404   6.833   0.653 -2.4361  0.8824 -0.7159
  922MOL0     H27222   0.581   6.736   1.010 -0.6745  3.8280 -1.7715
  922MOL0     H27223   0.639   6.635   1.249 -0.9861 -0.2058 -1.0802
  922MOL0     H27224   0.966   6.828   1.475  0.1214  0.3173 -0.7357
  922MOL0     H27225   0.788   6.894   1.495 -0.3879 -0.2043 -2.1930
  922MOL0     H27226   0.741   6.706   1.644  0.5552 -1.1636 -0.4775
  922MOL0     H27227   0.872   6.816   1.699 -1.7349  0.9030  0.5814
  922MOL0     H27228   0.907   6.543   1.546  0.5349  1.3060 -2.3369
  922MOL0     H27229   1.031   6.643   1.608 -1.6733  1.6549 -3.3631
  922MOL0     H27230   0.925   6.604   1.840  0.6412 -1.7687  0.9642
  922MOL0     H27231   1.005   6.470   1.774  2.8759  3.0984  0.6157
  922MOL0     H27232   0.643   6.297   1.838 -1.9999  1.2824  2.4694
  922MOL0     H27233   0.920   6.945   1.287 -0.7135 -0.8303  0.0193
  922MOL0     H27234   0.834   7.147   1.040  0.4912  1.3710  1.9627
  922MOL0     H27235   0.956   7.106   1.161  2.5281 -2.8334 -0.4561
  922MOL0     H27236   0.977   7.054   0.993  0.7711 -1.3478  1.5608
  923MOL0     O27237  10.933   1.771  10.377 -1.3028 -0.3025 -0.6254
  923MOL0     C27238  10.884   1.766  10.260  0.5598 -0.1762 -0.4596
  923MOL0     O27239  10.787   1.680  10.222 -0.6283 -0.1268  0.8365
  923MOL0     C27240  10.738   1.577  10.295 -0.6913  0.3475  0.4473
  923MOL0     C27241  10.794   1.516  10.416 -0.0343 -0.8579  0.6973
  923MOL0     C27242  10.731   1.404  10.467 -0.4767  0.7335  0.1667
  923MOL0     C27243  10.618   1.353  10.405 -1.1015  0.2852 -0.0727
  923MOL0     O27244  10.556   1.243  10.452  0.1420 -0.2898 -0.5437
  923MOL0     C27245  10.418   1.242  10.462 -0.0406 -0.2748  1.1154
  923MOL0     C27246  10.349   1.134  10.367 -0.6098  0.3200 -0.3018
  923MOL0     C27247  10.363   0.994  10.423 -0.3649 -0.8956  0.1158
  923MOL0     C27248  10.271   0.895  10.343 -0.7861  0.4105 -0.7237
  923MOL0     C27249  10.118   0.922  10.359 -0.0710  0.0823  0.4628
  923MOL0     C27250  10.063   0.870  10.487  0.1787 -0.8293  0.0058
  923MOL0     C27251   9.923   0.924  10.517  0.3354  0.9295 -0.5138
  923MOL0     C27252   9.814   0.928  10.405 -0.6229 -0.0134 -0.2875
  923MOL0     N27253   9.689   0.971  10.456 -0.4127 -0.5267 -0.7266
  923MOL0     C27254   9.676   1.088  10.531  0.5646  0.1891  0.0941
  923MOL0     C27255   9.546   1.092  10.578  0.6892  0.4538  0.7343
  923MOL0     C27256   9.494   1.207  10.661  0.2804 -0.0980  0.2486
  923MOL0     C27257   9.469   1.166  10.814 -0.2413 -0.2571 -0.2704
  923MOL0     C27258   9.599   1.116  10.870  0.1337  0.3308 -0.4349
  923MOL0     C27259   9.572   1.034  10.997  0.4220  1.2115  0.4499
  923MOL0     O27260   9.551   1.111  11.115 -0.0589 -0.8951  0.2459
  923MOL0     C27261   9.655   1.158  11.194  1.3686 -0.0439  0.2015
  923MOL0     C27262   9.792   1.158  11.159  0.1793  0.5842 -0.2908
  923MOL0     C27263   9.889   1.197  11.251 -0.4719  0.1961 -1.3665
  923MOL0     C27264  10.038   1.183  11.205 -0.1387 -0.4631 -0.1234
  923MOL0     C27265   9.849   1.243  11.381 -0.0928  1.0311 -0.6152
  923MOL0     C27266   9.944   1.302  11.488  1.0877  0.2447 -0.9109
  923MOL0     O27267   9.868   1.368  11.589 -0.6954  0.6160  0.4414
  923MOL0     C27268   9.942   1.383  11.699  0.5887  0.3287 -0.0543
  923MOL0     C27269  10.049   1.479  11.710  0.1150  0.8225 -0.2632
  923MOL0     C27270  10.097   1.510  11.833  1.3462  0.8973  0.2132
  923MOL0     C27271  10.056   1.443  11.952  0.0419  0.5683  0.6604
  923MOL0     O27272  10.120   1.462  12.073 -0.4620  0.1530 -0.4072
  923MOL0     C27273  10.085   1.367  12.179 -0.0647 -0.0618 -0.1087
  923MOL0     C27274  10.182   1.374  12.299 -0.4943 -0.4910 -0.3058
  923MOL0     C27275  10.291   1.483  12.309 -0.1873 -0.0525  0.9190
  923MOL0     C27276  10.392   1.465  12.429  0.0299  0.2486 -0.3062
  923MOL0     C27277  10.438   1.604  12.490 -1.3036  0.1075  0.2810
  923MOL0     C27278  10.566   1.575  12.563 -0.1864 -0.1730 -0.4265
  923MOL0     C27279  10.631   1.705  12.623  0.3164  0.4237 -0.5452
  923MOL0     C27280  10.760   1.679  12.702  0.6944 -0.2670 -0.5007
  923MOL0    Cl27281  10.872   1.567  12.623 -0.2703 -0.3612  0.3370
  923MOL0     C27282   9.954   1.348  11.934  0.5288 -0.0889 -0.2083
  923MOL0     C27283   9.893   1.324  11.814 -0.3275 -0.4950 -0.5155
  923MOL0     O27284  10.066   1.283  11.488  0.1656  0.5718 -0.1272
  923MOL0     C27285   9.708   1.245  11.413  0.4151  0.2463  0.8592
  923MOL0     C27286   9.617   1.210  11.315  0.8621 -0.6044 -0.9571
  923MOL0     N27287   9.485   0.982  10.516  0.4312 -0.9661  0.7284
  923MOL0     N27288   9.574   0.906  10.451  0.1123  0.0795 -0.4712
  923MOL0     C27289  10.566   1.419  10.296 -0.4789  0.0827  0.1361
  923MOL0     C27290  10.618   1.528  10.238 -0.1558 -0.2455  0.2883
  923MOL0     C27291  10.921   1.871  10.160  0.8134  0.5839 -0.4408
  923MOL0     C27292  10.876   1.845  10.028  0.1343  0.0650 -1.2099
  923MOL0     C27293  10.915   1.928   9.921  0.1033 -0.2650 -0.4578
  923MOL0     C27294  10.996   2.039   9.936  0.0556  0.0976 -0.3906
  923MOL0     O27295  11.034   2.118   9.824 -0.0672 -0.1367 -0.0089
  923MOL0     C27296  11.110   2.239   9.825 -0.1497  0.8115  0.8485
  923MOL0     C27297  11.014   2.358   9.848  0.2557  0.3911  0.0520
  923MOL0     C27298  11.095   2.467   9.920 -0.3120  0.3070  1.3416
  923MOL0     C27299  11.213   2.541   9.846  0.1871  0.6165  0.1506
  923MOL0     C27300  11.345   2.469   9.871 -0.5942  0.6440  0.4121
  923MOL0     C27301  11.454   2.410   9.874 -0.4027 -0.0074 -0.0814
  923MOL0     C27302  11.054   2.058  10.065 -0.0601 -0.1100 -0.2876
  923MOL0     C27303  11.013   1.984  10.176 -0.2702  0.0613  0.6638
  923MOL0     C27304  11.055   2.030  10.317  0.2566  0.0213  0.3584
  923MOL0     H27305  10.893   1.544  10.451  0.0936  0.4840 -0.6301
  923MOL0     H27306  10.781   1.358  10.552  1.3756 -2.1989 -2.3170
  923MOL0     H27307  10.381   1.341  10.435  0.2522  0.2094  2.4050
  923MOL0     H27308  10.387   1.243  10.567 -0.2656  0.5519  1.0433
  923MOL0     H27309  10.244   1.156  10.386 -0.4959 -0.8487  2.2135
  923MOL0     H27310  10.389   1.148  10.266  0.0769  0.3557 -0.0324
  923MOL0     H27311  10.468   0.966  10.407 -0.3921 -1.2457  0.5438
  923MOL0     H27312  10.335   0.975  10.527 -0.6587 -0.3253  0.1439
  923MOL0     H27313  10.309   0.911  10.241 -1.2598 -2.4381 -1.4401
  923MOL0     H27314  10.298   0.792  10.367  1.7877  1.1743 -0.0015
  923MOL0     H27315  10.081   0.878  10.266  4.2780 -0.8980 -1.0081
  923MOL0     H27316  10.089   1.026  10.340 -1.2870 -0.2326  0.5279
  923MOL0     H27317  10.062   0.761  10.491  0.6625 -0.8992 -1.3612
  923MOL0     H27318  10.123   0.914  10.567 -0.5405 -0.7246  0.4990
  923MOL0     H27319   9.927   1.023  10.564  1.2861  0.4752  0.4021
  923MOL0     H27320   9.887   0.860  10.598  1.6491  1.1753  0.2874
  923MOL0     H27321   9.825   0.988  10.314 -0.8881  2.2209  1.0901
  923MOL0     H27322   9.792   0.831  10.358 -1.3302  0.4781 -1.0047
  923MOL0     H27323   9.743   1.167  10.564 -0.0164  0.4323  0.7035
  923MOL0     H27324   9.401   1.250  10.622 -2.4784 -2.6166  3.4738
  923MOL0     H27325   9.566   1.289  10.657 -1.6563  1.8217  2.1990
  923MOL0     H27326   9.418   1.250  10.862  0.5704  2.6678 -4.0387
  923MOL0     H27327   9.391   1.089  10.810 -1.5924  1.0989 -1.0582
  923MOL0     H27328   9.645   1.036  10.811 -0.7648 -4.0201  4.0723
  923MOL0     H27329   9.673   1.193  10.892  0.3451 -0.5316  2.1787
  923MOL0     H27330   9.481   0.977  10.979  0.8741  0.7269 -0.3555
  923MOL0     H27331   9.644   0.953  11.008 -2.6024 -1.5378  1.6048
  923MOL0     H27332   9.825   1.119  11.064  1.6012  1.0260  0.0074
  923MOL0     H27333  10.036   1.198  11.097 -1.8043  0.0288 -0.0407
  923MOL0     H27334  10.089   1.090  11.231 -1.0770 -1.1486 -0.6869
  923MOL0     H27335  10.095   1.271  11.236 -0.8502  0.0736 -0.3345
  923MOL0     H27336  10.076   1.546  11.629 -1.0507  0.0972 -1.2972
  923MOL0     H27337  10.176   1.583  11.845  1.2515  0.9701  0.3921
  923MOL0     H27338   9.984   1.385  12.217  0.4143  1.7579  0.4016
  923MOL0     H27339  10.065   1.265  12.144 -0.9321 -0.2208  0.8293
  923MOL0     H27340  10.121   1.390  12.389  0.9027  1.6504  0.3450
  923MOL0     H27341  10.237   1.283  12.322  2.2000  1.7291  3.1118
  923MOL0     H27342  10.254   1.586  12.316 -0.1052  0.3149 -2.5459
  923MOL0     H27343  10.346   1.487  12.215 -0.9557  1.7931  0.5134
  923MOL0     H27344  10.479   1.409  12.395 -1.2060 -1.2400 -1.1476
  923MOL0     H27345  10.346   1.412  12.513 -1.1387  0.9149 -0.4966
  923MOL0     H27346  10.468   1.683  12.421 -0.4910  1.8708  2.5373
  923MOL0     H27347  10.374   1.648  12.567  0.1176 -0.8115  2.0670
  923MOL0     H27348  10.632   1.533  12.487 -2.0970  0.5073 -2.5852
  923MOL0     H27349  10.556   1.502  12.643  0.0048 -2.1137 -2.0972
  923MOL0     H27350  10.549   1.764  12.665 -1.7585  0.9963 -4.8452
  923MOL0     H27351  10.662   1.776  12.546 -1.6096  1.7776 -0.1441
  923MOL0     H27352  10.733   1.637  12.799 -2.0893  0.4252 -0.8779
  923MOL0     H27353  10.813   1.774  12.713  0.4984  0.2403 -3.1852
  923MOL0     H27354   9.912   1.308  12.026  4.0065 -1.2883  1.0283
  923MOL0     H27355   9.812   1.252  11.812  0.7160 -1.8177  1.2822
  923MOL0     H27356   9.663   1.262  11.510 -0.8277 -1.4650  0.6225
  923MOL0     H27357   9.510   1.221  11.328  1.0042 -0.5300  0.2676
  923MOL0     H27358  10.480   1.374  10.247  0.8613  0.2660 -2.5732
  923MOL0     H27359  10.587   1.572  10.144 -0.2655 -0.5936  0.1575
  923MOL0     H27360  10.812   1.760  10.007  0.0386 -0.6972  1.7940
  923MOL0     H27361  10.880   1.904   9.821 -0.9549 -2.4086  0.3758
  923MOL0     H27362  11.190   2.233   9.899  3.7451  1.3252 -2.9708
  923MOL0     H27363  11.163   2.253   9.730  3.5433 -2.6565  2.1064
  923MOL0     H27364  10.939   2.320   9.917  2.5096 -2.5860  1.1199
  923MOL0     H27365  10.958   2.385   9.758  2.4624 -1.5791 -2.1013
  923MOL0     H27366  11.033   2.551   9.951  2.2991  2.7709  0.2621
  923MOL0     H27367  11.133   2.421  10.012 -0.1981 -1.8210  0.2959
  923MOL0     H27368  11.214   2.637   9.899 -0.2430 -0.1057  1.5300
  923MOL0     H27369  11.188   2.569   9.744 -0.5882  1.8610  0.6594
  923MOL0     H27370  11.550   2.362   9.878 -0.5187 -0.8618 -3.8116
  923MOL0     H27371  11.119   2.140  10.093  2.2799 -1.8754 -0.2862
  923MOL0     H27372  10.971   2.059  10.381 -0.5814 -0.8096 -0.3330
  923MOL0     H27373  11.119   1.949  10.354 -1.4214 -3.9916 -4.3906
  923MOL0     H27374  11.117   2.118  10.299  2.8547 -2.1772 -2.5619
  924MOL0     O27375   1.038   2.615   9.103 -0.7019  0.3423  0.2924
  924MOL0     C27376   1.131   2.666   9.170  0.0505  0.4026  0.6231
  924MOL0     O27377   1.206   2.773   9.131 -0.1204 -0.2910  0.4260
  924MOL0     C27378   1.181   2.843   9.021  1.3126 -1.1210  0.5443
  924MOL0     C27379   1.141   2.790   8.898 -0.9336 -0.9332 -0.4442
  924MOL0     C27380   1.130   2.881   8.789  0.3254  0.3342  0.1925
  924MOL0     C27381   1.143   3.026   8.798  0.0785  0.0586  1.2271
  924MOL0     O27382   1.142   3.119   8.694 -0.0354 -0.0963  0.2151
  924MOL0     C27383   1.176   3.088   8.559  0.2605  0.5971  0.0129
  924MOL0     C27384   1.193   3.218   8.477 -0.1885 -0.1137 -0.0635
  924MOL0     C27385   1.314   3.297   8.523 -0.2281 -0.3377 -0.3023
  924MOL0     C27386   1.353   3.395   8.416 -0.1140  0.1492  0.0019
  924MOL0     C27387   1.459   3.496   8.454 -0.2572 -0.0161 -0.1765
  924MOL0     C27388   1.387   3.603   8.551 -0.2704 -0.6921 -0.2025
  924MOL0     C27389   1.485   3.693   8.624  0.4060 -1.2007  0.1113
  924MOL0     C27390   1.603   3.616   8.687  0.6699 -0.3801  0.1108
  924MOL0     N27391   1.557   3.523   8.781 -0.3481 -0.3062 -0.6515
  924MOL0     C27392   1.592   3.392   8.801 -0.1799 -0.1142  0.0926
  924MOL0     C27393   1.502   3.354   8.892 -0.4691  0.3401  0.1469
  924MOL0     C27394   1.492   3.217   8.951  0.7557  0.1523  0.4868
  924MOL0     C27395   1.607   3.186   9.040 -0.3542  0.5877 -1.6121
  924MOL0     C27396   1.581   3.066   9.136  0.4882  0.6833 -0.0753
  924MOL0     C27397   1.720   3.045   9.206  0.3867  0.4057  0.7442
  924MOL0     O27398   1.841   3.045   9.119  0.6726  0.1461 -1.1724
  924MOL0     C27399   1.884   2.927   9.063 -0.0404 -0.0998  0.4251
  924MOL0     C27400   1.837   2.805   9.094 -0.0612  0.0182  0.8058
  924MOL0     C27401   1.893   2.693   9.029 -0.7748  0.6029  1.1475
  924MOL0     C27402   1.863   2.549   9.082  0.1343 -0.5956  0.0733
  924MOL0     C27403   1.990   2.712   8.921  0.3826  0.0203 -0.3029
  924MOL0     C27404   2.024   2.593   8.842  1.2620 -0.4938 -0.3128
  924MOL0     O27405   2.153   2.561   8.834 -0.0232  0.2375  0.1031
  924MOL0     C27406   2.190   2.446   8.764 -0.1676 -0.0767  0.2528
  924MOL0     C27407   2.177   2.331   8.842 -0.2964  0.5130  0.9377
  924MOL0     C27408   2.225   2.209   8.788 -0.7754 -0.2283 -0.0883
  924MOL0     C27409   2.266   2.194   8.655  0.6589 -1.2667  0.0435
  924MOL0     O27410   2.292   2.070   8.591 -0.2261 -0.3552  0.1264
  924MOL0     C27411   2.181   1.984   8.558 -0.3460  0.7455 -1.0543
  924MOL0     C27412   2.221   1.889   8.445  0.9923  0.3192 -0.4071
  924MOL0     C27413   2.229   1.961   8.300 -0.5300  0.6203 -0.5569
  924MOL0     C27414   2.281   1.880   8.191 -0.0579  0.5559  0.3182
  924MOL0     C27415   2.318   1.954   8.059  0.1337 -0.3974 -0.4388
  924MOL0     C27416   2.214   2.054   8.005 -0.4218  0.9985 -0.1509
  924MOL0     C27417   2.077   1.998   7.992 -0.4849  0.0844  0.5474
  924MOL0     C27418   2.063   1.913   7.868 -1.5947  0.5012 -0.5459
  924MOL0    Cl27419   1.897   1.863   7.845  0.2715  0.7839 -0.4815
  924MOL0     C27420   2.283   2.320   8.591  1.2783  0.6977  0.1219
  924MOL0     C27421   2.251   2.448   8.642 -0.1358 -0.0173  1.0181
  924MOL0     O27422   1.932   2.546   8.777 -0.0167 -0.1768 -0.2775
  924MOL0     C27423   2.027   2.841   8.890  0.4595 -0.4098 -0.2659
  924MOL0     C27424   1.972   2.942   8.957  0.5698 -0.3938 -0.2365
  924MOL0     N27425   1.431   3.466   8.943  0.8218 -0.0922  0.4001
  924MOL0     N27426   1.459   3.564   8.868 -0.0037 -0.0681 -0.5794
  924MOL0     C27427   1.168   3.068   8.924  0.5622 -0.1398  0.3357
  924MOL0     C27428   1.192   2.982   9.037 -0.2413 -0.5082  0.0712
  924MOL0     C27429   1.177   2.603   9.294  0.7923 -0.2709  0.9789
  924MOL0     C27430   1.310   2.571   9.314 -0.6866 -0.0362 -0.2616
  924MOL0     C27431   1.367   2.505   9.419 -0.1397  0.8778 -0.4628
  924MOL0     C27432   1.275   2.443   9.500  0.4739  0.0248  0.0757
  924MOL0     O27433   1.334   2.370   9.598 -0.1672  0.0411  0.6866
  924MOL0     C27434   1.294   2.372   9.734 -1.1450  0.3526 -0.2504
  924MOL0     C27435   1.385   2.466   9.824  0.4378  0.1536 -0.5291
  924MOL0     C27436   1.532   2.452   9.806  0.2648  0.0360  0.3766
  924MOL0     C27437   1.630   2.545   9.881 -0.1152  0.0054  0.8111
  924MOL0     C27438   1.756   2.533   9.815  0.2122 -0.3422  0.3091
  924MOL0     C27439   1.853   2.524   9.752  1.0320  0.0185 -0.6286
  924MOL0     C27440   1.142   2.468   9.488 -0.3975  0.5434 -0.0710
  924MOL0     C27441   1.083   2.553   9.384 -0.0972 -0.0495 -0.1886
  924MOL0     C27442   0.930   2.566   9.375  0.7578  0.6480  0.0564
  924MOL0     H27443   1.122   2.684   8.905  0.0457 -1.0724  0.3751
  924MOL0     H27444   1.085   2.847   8.695 -1.1753 -0.3924  1.1297
  924MOL0     H27445   1.090   3.032   8.520  1.1796 -0.1138 -1.0405
  924MOL0     H27446   1.264   3.024   8.563  2.2050  2.7937 -3.3713
  924MOL0     H27447   1.195   3.193   8.371  0.0722  1.0744 -0.3466
  924MOL0     H27448   1.104   3.281   8.480  0.1192  0.4746 -2.0059
  924MOL0     H27449   1.293   3.346   8.618  0.2669  0.4577 -0.5959
  924MOL0     H27450   1.393   3.226   8.547 -1.7372 -2.8601 -2.1625
  924MOL0     H27451   1.396   3.335   8.335 -2.0763 -2.7887  0.9861
  924MOL0     H27452   1.261   3.438   8.376  1.5373 -0.4302 -5.2519
  924MOL0     H27453   1.498   3.556   8.372 -0.1293  0.6979  0.3937
  924MOL0     H27454   1.547   3.444   8.492  0.3673 -0.2039 -1.8476
  924MOL0     H27455   1.324   3.662   8.484  0.1717  2.1929  1.7345
  924MOL0     H27456   1.315   3.564   8.623 -0.9498  0.6042 -0.1424
  924MOL0     H27457   1.420   3.749   8.693 -1.3837 -4.3396  1.1814
  924MOL0     H27458   1.522   3.762   8.548 -1.1648  0.2098  0.5650
  924MOL0     H27459   1.648   3.545   8.617 -0.4476 -0.2913 -0.7253
  924MOL0     H27460   1.682   3.684   8.721  0.9551  0.5387 -2.1684
  924MOL0     H27461   1.671   3.333   8.757 -0.3724  0.4938 -1.1019
  924MOL0     H27462   1.482   3.144   8.870 -1.1853  1.6625 -0.7625
  924MOL0     H27463   1.394   3.215   9.000  1.4506  1.0488  1.9784
  924MOL0     H27464   1.699   3.166   8.984  2.4623  4.1366  1.1591
  924MOL0     H27465   1.636   3.276   9.096 -0.7244 -0.3014  0.0516
  924MOL0     H27466   1.503   3.079   9.212 -1.4774 -0.2168 -1.8455
  924MOL0     H27467   1.551   2.974   9.086  2.8838 -0.9273  1.2030
  924MOL0     H27468   1.735   3.130   9.274 -1.9827  0.7848  0.8861
  924MOL0     H27469   1.717   2.968   9.284 -1.4603  1.5632  1.9150
  924MOL0     H27470   1.766   2.790   9.174 -2.7089 -1.2590 -1.5969
  924MOL0     H27471   1.792   2.558   9.165 -0.0485 -0.2897 -0.1121
  924MOL0     H27472   1.950   2.494   9.118 -0.2789  0.1457  2.3185
  924MOL0     H27473   1.799   2.489   9.017 -2.4108  2.1902 -0.2376
  924MOL0     H27474   2.124   2.338   8.936 -0.9286  1.7431  0.5162
  924MOL0     H27475   2.196   2.129   8.856  1.3995 -0.0338  1.1879
  924MOL0     H27476   2.135   1.927   8.639 -0.4017  0.3015 -1.3917
  924MOL0     H27477   2.102   2.045   8.512  0.2824  0.2960 -2.8200
  924MOL0     H27478   2.299   1.821   8.481 -1.5278 -3.3401 -1.2855
  924MOL0     H27479   2.137   1.820   8.453  1.3931  0.0047  1.5988
  924MOL0     H27480   2.302   2.042   8.308 -0.4147  0.4677  0.0041
  924MOL0     H27481   2.129   2.000   8.282 -0.3266  0.4343 -2.1976
  924MOL0     H27482   2.205   1.806   8.161  0.0866  0.8837 -0.8776
  924MOL0     H27483   2.376   1.836   8.223  2.8348  5.6524 -0.2327
  924MOL0     H27484   2.410   2.011   8.076 -0.0225  0.7280 -2.9229
  924MOL0     H27485   2.342   1.897   7.969  0.3593  3.3073 -2.9573
  924MOL0     H27486   2.230   2.091   7.903  1.3652  0.5183 -0.0901
  924MOL0     H27487   2.216   2.145   8.067  0.2150  0.2948  0.8957
  924MOL0     H27488   2.010   2.082   7.973 -2.8264 -0.8617  3.6926
  924MOL0     H27489   2.040   1.940   8.077 -0.1296  1.4483  1.6600
  924MOL0     H27490   2.132   1.832   7.892  0.5452  2.6433  1.0302
  924MOL0     H27491   2.095   1.954   7.771 -0.5895  0.6377 -0.1656
  924MOL0     H27492   2.314   2.319   8.487  2.5275  1.6732  0.4552
  924MOL0     H27493   2.265   2.541   8.587 -3.4062 -1.2911 -2.4035
  924MOL0     H27494   2.094   2.863   8.808  1.5796  0.4073  0.8330
  924MOL0     H27495   1.999   3.041   8.922  6.2602 -1.6377 -0.3713
  924MOL0     H27496   1.167   3.175   8.943 -0.5876  0.6872 -3.5557
  924MOL0     H27497   1.209   3.013   9.140 -0.3128  2.8049 -0.8025
  924MOL0     H27498   1.379   2.594   9.233  1.3240 -2.1653  0.7178
  924MOL0     H27499   1.474   2.492   9.436 -0.4936  0.0996  1.4268
  924MOL0     H27500   1.192   2.413   9.732 -2.1516 -2.0337 -0.4476
  924MOL0     H27501   1.302   2.269   9.769 -0.0305  0.9643  1.4141
  924MOL0     H27502   1.361   2.470   9.931  1.7145  1.4437 -0.2681
  924MOL0     H27503   1.365   2.569   9.796  2.4489  0.6638 -0.2778
  924MOL0     H27504   1.538   2.347   9.836  0.4707 -0.3976 -1.0977
  924MOL0     H27505   1.562   2.450   9.701 -0.3360  0.1494  0.1986
  924MOL0     H27506   1.635   2.516   9.987  1.2876 -0.2621  0.6866
  924MOL0     H27507   1.593   2.648   9.872  0.9678  0.2442 -1.6116
  924MOL0     H27508   1.944   2.534   9.696  0.7610  0.7544 -0.9477
  924MOL0     H27509   1.073   2.427   9.560  1.0442  0.2384  1.1799
  924MOL0     H27510   0.884   2.543   9.472  0.6833  0.1363 -0.0926
  924MOL0     H27511   0.903   2.669   9.352 -1.0470 -0.0211 -1.0604
  924MOL0     H27512   0.880   2.497   9.306 -1.9079  2.3337  0.1503
  925MOL0     O27513   6.841   5.396   8.234  0.4488 -0.3047 -0.3698
  925MOL0     C27514   6.753   5.445   8.311  0.0384 -1.0612 -1.0608
  925MOL0     O27515   6.682   5.555   8.290  0.3162 -0.0711  0.1127
  925MOL0     C27516   6.717   5.631   8.175  0.5504 -0.8167 -0.3007
  925MOL0     C27517   6.674   5.592   8.050  0.4347  0.2985 -0.8016
  925MOL0     C27518   6.698   5.680   7.942  0.0182  0.6677 -0.0446
  925MOL0     C27519   6.770   5.797   7.955 -0.2268  0.6351 -0.5909
  925MOL0     O27520   6.805   5.858   7.841 -0.6623 -0.2814 -0.4030
  925MOL0     C27521   6.798   6.006   7.851 -0.3714  1.0137 -0.1287
  925MOL0     C27522   6.666   6.060   7.798 -0.5923  1.6201  0.9241
  925MOL0     C27523   6.676   6.208   7.760 -1.2474 -0.2096 -0.0041
  925MOL0     C27524   6.623   6.296   7.879  0.2886  0.0702  0.9335
  925MOL0     C27525   6.661   6.444   7.858 -0.8240  1.6993  0.1884
  925MOL0     C27526   6.598   6.510   7.743 -0.6210 -0.2600  0.0462
  925MOL0     C27527   6.446   6.500   7.738  0.1124 -0.4884 -0.3170
  925MOL0     C27528   6.381   6.560   7.860 -0.1955 -0.5567  0.3442
  925MOL0     N27529   6.420   6.705   7.865  0.1924 -0.9768  0.0781
  925MOL0     C27530   6.478   6.774   7.967  1.6110  0.5009  0.3181
  925MOL0     C27531   6.458   6.911   7.949  0.4264 -0.4826 -0.4711
  925MOL0     C27532   6.475   7.037   8.034 -0.9572  0.0341  0.6192
  925MOL0     C27533   6.388   7.027   8.165 -0.3225 -0.1012  0.0968
  925MOL0     C27534   6.412   7.141   8.270 -0.0562  1.1603 -1.2133
  925MOL0     C27535   6.329   7.123   8.400  0.5493  0.1685  0.7782
  925MOL0     O27536   6.191   7.133   8.366  0.0954  0.5321  0.5340
  925MOL0     C27537   6.093   7.115   8.458  0.0439  0.3303  0.4554
  925MOL0     C27538   6.120   7.101   8.590 -0.3561  0.2218 -0.0046
  925MOL0     C27539   6.027   7.074   8.686  1.1050  0.8814 -1.2328
  925MOL0     C27540   6.064   7.043   8.828  0.2123  0.3898 -0.4008
  925MOL0     C27541   5.886   7.069   8.652 -0.6907 -0.7797 -0.1163
  925MOL0     C27542   5.769   7.038   8.747 -0.1203 -0.8320 -0.2330
  925MOL0     O27543   5.674   6.957   8.688 -0.5747  0.5690 -0.1795
  925MOL0     C27544   5.561   6.924   8.762  0.7640  0.2167  0.2116
  925MOL0     C27545   5.481   7.014   8.833  0.6184  0.8498  0.4593
  925MOL0     C27546   5.378   6.964   8.913  0.0554 -0.5755  0.7316
  925MOL0     C27547   5.341   6.827   8.909 -0.6746  0.5953 -0.5215
  925MOL0     O27548   5.243   6.766   8.985 -0.3161  0.4136  0.0736
  925MOL0     C27549   5.205   6.820   9.114  0.1753  0.8382  0.4762
  925MOL0     C27550   5.086   6.912   9.089  0.5380 -0.0046 -0.1520
  925MOL0     C27551   5.104   7.049   9.162  0.0227  0.2290  0.1112
  925MOL0     C27552   4.966   7.107   9.170 -0.8274  0.6630 -0.3128
  925MOL0     C27553   4.968   7.262   9.191 -0.2039 -0.0762 -0.1232
  925MOL0     C27554   4.849   7.313   9.270  1.0046  0.6243 -0.2162
  925MOL0     C27555   4.830   7.465   9.291  0.7449 -1.1867 -0.0051
  925MOL0     C27556   4.686   7.513   9.327 -0.7003 -0.0776 -0.1220
  925MOL0    Cl27557   4.633   7.474   9.485  0.0792  0.2958  0.0074
  925MOL0     C27558   5.411   6.746   8.824 -0.2013 -0.4432 -1.2951
  925MOL0     C27559   5.521   6.796   8.753  0.2435 -0.2480 -0.4981
  925MOL0     O27560   5.765   7.090   8.860 -0.0722 -0.3298 -0.4029
  925MOL0     C27561   5.865   7.088   8.512 -0.3855  0.0997  1.1504
  925MOL0     C27562   5.967   7.106   8.414  0.3983 -0.2546  1.1350
  925MOL0     N27563   6.394   6.920   7.826  0.6434  0.3542 -0.4271
  925MOL0     N27564   6.368   6.807   7.779 -0.6598  0.9826 -0.5092
  925MOL0     C27565   6.821   5.824   8.084  0.5925 -0.3057 -0.3847
  925MOL0     C27566   6.793   5.745   8.195  0.2105 -0.2507  0.0522
  925MOL0     C27567   6.707   5.365   8.425  0.2720 -0.1758 -0.4945
  925MOL0     C27568   6.584   5.400   8.486  0.1190  0.1349 -0.0930
  925MOL0     C27569   6.532   5.323   8.598  0.0911 -0.7775 -0.0244
  925MOL0     C27570   6.598   5.213   8.639  0.6261 -0.0519 -0.9642
  925MOL0     O27571   6.545   5.132   8.743 -0.0783  0.4073 -0.2313
  925MOL0     C27572   6.412   5.152   8.799  0.2945 -0.6178 -0.9252
  925MOL0     C27573   6.305   5.121   8.693  1.0148  0.3765 -0.4032
  925MOL0     C27574   6.171   5.190   8.709 -0.8236 -0.0540  0.3066
  925MOL0     C27575   6.115   5.171   8.849 -0.8436 -0.7977  1.0348
  925MOL0     C27576   6.006   5.080   8.845 -0.1831 -0.6435  0.0139
  925MOL0     C27577   5.912   4.999   8.847 -0.0220  0.3815 -0.3808
  925MOL0     C27578   6.719   5.182   8.588 -0.2449  0.3057 -0.2862
  925MOL0     C27579   6.781   5.255   8.485 -0.7250 -0.3217 -0.2808
  925MOL0     C27580   6.920   5.216   8.437 -0.5001  0.7005 -0.4040
  925MOL0     H27581   6.626   5.498   8.026  1.1356 -0.3569  0.2988
  925MOL0     H27582   6.667   5.656   7.841  0.4549  0.9796 -0.2579
  925MOL0     H27583   6.883   6.036   7.789  1.5476 -1.4179  1.1311
  925MOL0     H27584   6.818   6.045   7.951 -0.6737  0.1391  0.2839
  925MOL0     H27585   6.654   6.021   7.697  3.3157 -0.4292  1.0738
  925MOL0     H27586   6.574   6.028   7.849 -0.6268  1.1165  0.5566
  925MOL0     H27587   6.781   6.240   7.756 -1.8497  1.7689 -1.8578
  925MOL0     H27588   6.635   6.222   7.660  0.9343  2.2478 -0.6677
  925MOL0     H27589   6.514   6.284   7.880  0.0708  0.2722 -3.1651
  925MOL0     H27590   6.662   6.260   7.975  1.2370 -1.1062  0.1376
  925MOL0     H27591   6.769   6.453   7.841 -0.0316 -4.3910 -0.2839
  925MOL0     H27592   6.640   6.487   7.956 -0.2483  1.1637  0.5557
  925MOL0     H27593   6.637   6.611   7.755  1.0958 -1.1200  2.5160
  925MOL0     H27594   6.638   6.469   7.650 -0.6973  0.6125 -0.3780
  925MOL0     H27595   6.406   6.399   7.720 -2.2685  0.1386  0.9598
  925MOL0     H27596   6.413   6.563   7.655 -2.3255 -1.2342  0.0084
  925MOL0     H27597   6.272   6.557   7.859 -0.2412  0.5065 -0.8042
  925MOL0     H27598   6.417   6.504   7.947 -1.8301  0.1844  1.5558
  925MOL0     H27599   6.526   6.720   8.049  2.4575 -0.4556 -0.7726
  925MOL0     H27600   6.441   7.127   7.982 -0.8603 -0.9502 -1.2225
  925MOL0     H27601   6.577   7.040   8.072 -1.4292  0.0971  1.9240
  925MOL0     H27602   6.289   7.023   8.119 -0.8565  4.3077  0.4653
  925MOL0     H27603   6.401   6.927   8.207 -1.1991  0.0086  0.6407
  925MOL0     H27604   6.508   7.110   8.314 -0.3690 -0.7770 -1.7798
  925MOL0     H27605   6.420   7.241   8.227  0.6109  1.2392 -0.9147
  925MOL0     H27606   6.354   7.027   8.447  0.7953 -0.1576  0.0004
  925MOL0     H27607   6.366   7.202   8.464  4.0941 -1.3730  0.8281
  925MOL0     H27608   6.221   7.128   8.621  0.4439 -0.6617 -1.7322
  925MOL0     H27609   5.996   6.960   8.849 -0.8977 -0.0077 -4.6903
  925MOL0     H27610   6.043   7.128   8.894 -0.1745  0.4400 -0.5880
  925MOL0     H27611   6.163   7.003   8.853 -0.0811  0.9832  1.9969
  925MOL0     H27612   5.493   7.122   8.838  1.0374  0.7678  1.3174
  925MOL0     H27613   5.327   7.042   8.969  0.7318  3.5534 -3.6959
  925MOL0     H27614   5.174   6.740   9.182  1.4587 -1.3152 -1.2996
  925MOL0     H27615   5.288   6.870   9.165  1.3453  1.5343 -1.9059
  925MOL0     H27616   5.067   6.916   8.982 -0.8361 -1.3472  0.0088
  925MOL0     H27617   5.000   6.857   9.127 -0.6219  0.1547 -2.3745
  925MOL0     H27618   5.166   7.116   9.101  3.3789 -1.4377  1.4291
  925MOL0     H27619   5.149   7.037   9.261 -0.5645  1.7181  0.5930
  925MOL0     H27620   4.908   7.068   9.254 -0.6397 -0.9561 -0.9025
  925MOL0     H27621   4.914   7.098   9.075  1.1175  1.1077 -1.4804
  925MOL0     H27622   5.056   7.305   9.240  1.1953 -0.6481 -2.0201
  925MOL0     H27623   4.961   7.301   9.089 -1.2518 -1.3757 -0.5656
  925MOL0     H27624   4.856   7.279   9.373 -3.2816  1.3346  0.4868
  925MOL0     H27625   4.765   7.264   9.220  2.8854 -2.8088 -0.2781
  925MOL0     H27626   4.863   7.516   9.200  3.9522 -0.7562  1.2676
  925MOL0     H27627   4.901   7.486   9.371  2.4990 -1.0264 -1.5273
  925MOL0     H27628   4.620   7.471   9.251 -1.5744  1.7954 -0.4511
  925MOL0     H27629   4.673   7.620   9.312 -2.6312 -0.3114 -0.2881
  925MOL0     H27630   5.377   6.645   8.806 -1.7541 -0.1141 -0.3581
  925MOL0     H27631   5.573   6.739   8.676  2.7005  3.7570 -2.0771
  925MOL0     H27632   5.764   7.089   8.471  0.4396  0.5863 -1.0295
  925MOL0     H27633   5.947   7.124   8.309  0.9321 -0.5338  0.9802
  925MOL0     H27634   6.888   5.909   8.089  0.4869 -0.1699 -1.1679
  925MOL0     H27635   6.806   5.776   8.298  4.5577  0.1430 -0.4036
  925MOL0     H27636   6.512   5.472   8.448  1.2312  1.3163 -0.0262
  925MOL0     H27637   6.436   5.357   8.633  1.4367  1.7631  1.5142
  925MOL0     H27638   6.408   5.085   8.886 -2.7034  1.3064  0.5429
  925MOL0     H27639   6.411   5.258   8.826  1.4929 -1.0037  0.8285
  925MOL0     H27640   6.282   5.014   8.704 -1.3797  0.8135 -0.5486
  925MOL0     H27641   6.341   5.126   8.590  0.5102  2.1730 -0.5184
  925MOL0     H27642   6.185   5.297   8.691  2.7068 -0.4567 -0.0500
  925MOL0     H27643   6.106   5.151   8.630  1.1175  0.1513 -1.4735
  925MOL0     H27644   6.077   5.265   8.890 -1.3903  0.9795 -3.0442
  925MOL0     H27645   6.192   5.135   8.918  0.9662  1.0091  0.0848
  925MOL0     H27646   5.825   4.936   8.845  0.5311 -0.3855 -1.8013
  925MOL0     H27647   6.751   5.087   8.629 -0.8771  1.1181  2.2919
  925MOL0     H27648   6.983   5.303   8.416  2.1296 -0.1155  3.1274
  925MOL0     H27649   6.964   5.157   8.517 -3.2609 -0.7306  0.1929
  925MOL0     H27650   6.913   5.141   8.358 -2.5170  0.3931  0.0147
  926MOL0     O27651   7.435   2.863   0.448 -0.2008 -0.0131 -0.6419
  926MOL0     C27652   7.492   2.969   0.470  1.0942 -0.0635 -0.2391
  926MOL0     O27653   7.430   3.087   0.435  0.7881 -0.1669 -0.0452
  926MOL0     C27654   7.290   3.093   0.408  0.0002  0.4783  0.9222
  926MOL0     C27655   7.245   3.117   0.281  0.5511  0.0521  0.1722
  926MOL0     C27656   7.108   3.156   0.264 -0.6151  0.3702  0.2324
  926MOL0     C27657   7.016   3.126   0.369  0.2696  1.2334 -0.7518
  926MOL0     O27658   6.888   3.148   0.337  0.1136  0.2505  1.0935
  926MOL0     C27659   6.791   3.061   0.400  0.2090  0.6029  0.5350
  926MOL0     C27660   6.643   3.112   0.367 -0.4493  1.1537 -0.5792
  926MOL0     C27661   6.635   3.264   0.347  0.0427 -0.8436 -0.1374
  926MOL0     C27662   6.702   3.345   0.462 -0.1574  0.1716  0.2825
  926MOL0     C27663   6.689   3.500   0.449 -0.1450  0.9507  0.1071
  926MOL0     C27664   6.727   3.554   0.313  0.7597  0.6184  1.0948
  926MOL0     C27665   6.865   3.534   0.279 -0.2103 -0.1337  0.8680
  926MOL0     C27666   6.966   3.655   0.291 -0.5377 -0.2583  0.0652
  926MOL0     N27667   7.108   3.621   0.289 -0.2709 -0.3897 -0.0070
  926MOL0     C27668   7.172   3.495   0.300 -0.5343  1.0703  0.0093
  926MOL0     C27669   7.308   3.525   0.297  1.2578  0.0283  0.1867
  926MOL0     C27670   7.436   3.444   0.329  0.4143  0.2085  0.4343
  926MOL0     C27671   7.496   3.413   0.194  0.4355  0.0425  1.1803
  926MOL0     C27672   7.556   3.529   0.114  0.5606  0.4272  0.3274
  926MOL0     C27673   7.664   3.470   0.010 -0.0789 -0.5525  0.2710
  926MOL0     O27674   7.792   3.486   0.066  0.0652  0.4852 -0.2307
  926MOL0     C27675   7.898   3.423   0.008 -0.4544 -1.1492  0.2932
  926MOL0     C27676   8.026   3.467   0.036  0.1052 -0.1213 -0.1012
  926MOL0     C27677   8.147   3.423  -0.022  0.0219  0.4793  0.6591
  926MOL0     C27678   8.279   3.475   0.028 -0.1502  0.0282  0.5233
  926MOL0     C27679   8.138   3.315  -0.119  0.5887 -1.0360 -0.8366
  926MOL0     C27680   8.257   3.258  -0.194  0.8039 -0.5389  0.3711
  926MOL0     O27681   8.234   3.135  -0.256  0.6759 -1.1807 -0.5768
  926MOL0     C27682   8.332   3.099  -0.351 -0.1214 -0.8125 -0.7006
  926MOL0     C27683   8.406   2.985  -0.325 -0.0692  0.0069  0.3822
  926MOL0     C27684   8.507   2.947  -0.418 -0.0399  0.8393  0.0727
  926MOL0     C27685   8.523   3.025  -0.538 -0.7936  0.3042 -0.5094
  926MOL0     O27686   8.617   3.005  -0.640  0.4370 -0.5089 -0.0575
  926MOL0     C27687   8.731   2.931  -0.617 -0.3786  0.0625 -0.7719
  926MOL0     C27688   8.722   2.800  -0.699 -0.8469 -0.5254  0.9679
  926MOL0     C27689   8.729   2.830  -0.847 -0.1043 -0.3864  0.0789
  926MOL0     C27690   8.718   2.711  -0.934 -0.0168  0.5770 -0.1181
  926MOL0     C27691   8.767   2.741  -1.073  0.6037 -0.3038  1.1097
  926MOL0     C27692   8.751   2.624  -1.170  0.1394  0.4324  0.8481
  926MOL0     C27693   8.805   2.492  -1.114  0.0321  0.0265 -0.3807
  926MOL0     C27694   8.798   2.370  -1.215 -0.0990  0.3717  0.3433
  926MOL0    Cl27695   8.626   2.353  -1.279  0.5759  0.1627 -0.1047
  926MOL0     C27696   8.440   3.132  -0.564 -0.1455  0.8569  0.4489
  926MOL0     C27697   8.348   3.176  -0.470  0.1963  0.2791  0.0650
  926MOL0     O27698   8.352   3.333  -0.216 -0.1391  0.4530 -0.1803
  926MOL0     C27699   8.006   3.267  -0.155 -0.3279 -0.3468  0.3686
  926MOL0     C27700   7.900   3.321  -0.089  0.3598 -0.0172 -0.6020
  926MOL0     N27701   7.316   3.661   0.299  0.6584  0.4942  1.4306
  926MOL0     N27702   7.204   3.720   0.294  0.6904  0.9992  0.7084
  926MOL0     C27703   7.067   3.080   0.493 -0.8701  0.5672 -0.6052
  926MOL0     C27704   7.203   3.088   0.519 -0.0951 -0.0821  0.1960
  926MOL0     C27705   7.633   2.965   0.527  1.2132  0.7061  0.1314
  926MOL0     C27706   7.695   2.850   0.512 -0.7897  1.2367  0.5207
  926MOL0     C27707   7.826   2.841   0.561  0.5105  0.4239 -0.1607
  926MOL0     C27708   7.893   2.957   0.612 -0.0858  2.0027 -0.6372
  926MOL0     O27709   8.031   2.960   0.639 -1.1672  0.3249  0.5853
  926MOL0     C27710   8.092   2.830   0.673  0.3055 -0.2547 -0.6189
  926MOL0     C27711   8.219   2.834   0.737 -0.2019 -0.4912 -0.2671
  926MOL0     C27712   8.330   2.907   0.671 -0.3233  0.8111  0.7749
  926MOL0     C27713   8.297   3.058   0.644  0.2630 -0.2519 -0.2180
  926MOL0     C27714   8.411   3.151   0.634  0.9711 -0.0620 -0.9805
  926MOL0     C27715   8.490   3.238   0.626 -0.5533 -0.5572 -1.2491
  926MOL0     C27716   7.824   3.080   0.622  0.7541  0.3088  0.1688
  926MOL0     C27717   7.688   3.084   0.587 -0.4483 -0.5668  0.0817
  926MOL0     C27718   7.617   3.214   0.620 -0.2459 -0.8347  0.0644
  926MOL0     H27719   7.310   3.124   0.194  0.6344  2.1937  0.3477
  926MOL0     H27720   7.081   3.208   0.173  1.9103  0.0853 -0.7511
  926MOL0     H27721   6.799   3.061   0.509 -0.6737 -1.0209  0.6348
  926MOL0     H27722   6.779   2.956   0.369 -4.1422  0.8030  0.8484
  926MOL0     H27723   6.604   3.064   0.276  1.4652 -0.4215 -0.6171
  926MOL0     H27724   6.572   3.078   0.444  1.9932 -1.6224  0.6622
  926MOL0     H27725   6.683   3.293   0.254 -0.7770  0.1525 -0.2649
  926MOL0     H27726   6.532   3.297   0.334  0.8970  1.8969 -0.6147
  926MOL0     H27727   6.663   3.313   0.559  2.5707  0.5855  1.6130
  926MOL0     H27728   6.806   3.316   0.475 -0.0501  0.7818  0.9041
  926MOL0     H27729   6.758   3.533   0.527  0.2009  1.2271 -0.3175
  926MOL0     H27730   6.585   3.524   0.473  0.0775  1.3425  0.7015
  926MOL0     H27731   6.656   3.506   0.245  0.7518  0.6316  1.0937
  926MOL0     H27732   6.711   3.661   0.299  3.1911  1.0587  1.2481
  926MOL0     H27733   6.870   3.497   0.176 -1.5756  0.8077  0.4293
  926MOL0     H27734   6.906   3.450   0.337  0.8673 -0.5653 -0.4596
  926MOL0     H27735   6.946   3.707   0.196  0.2683 -1.3827 -0.7468
  926MOL0     H27736   6.934   3.721   0.372  1.6118 -1.1398  1.7522
  926MOL0     H27737   7.125   3.398   0.304  0.1366  0.7801  1.3545
  926MOL0     H27738   7.414   3.351   0.382  0.3424  1.0880  2.0141
  926MOL0     H27739   7.500   3.506   0.393  0.4613 -0.4983  1.0850
  926MOL0     H27740   7.580   3.345   0.207  0.2487 -0.2184  1.0166
  926MOL0     H27741   7.430   3.364   0.121  0.9960  0.9614  0.0275
  926MOL0     H27742   7.468   3.571   0.064 -0.0322 -1.3659 -0.2289
  926MOL0     H27743   7.594   3.605   0.183  0.0895  0.0769  0.9816
  926MOL0     H27744   7.643   3.363  -0.002  1.1585 -0.8138  0.2185
  926MOL0     H27745   7.661   3.529  -0.081  0.9833  0.0738  0.6188
  926MOL0     H27746   8.021   3.546   0.111 -0.7123  1.8980 -2.1642
  926MOL0     H27747   8.329   3.547  -0.036  1.1730 -0.4982  0.9303
  926MOL0     H27748   8.354   3.396   0.032  1.5755  1.5437 -0.4023
  926MOL0     H27749   8.274   3.522   0.127  3.0624  2.2592 -0.2157
  926MOL0     H27750   8.381   2.926  -0.238 -0.7344 -0.4909 -0.1414
  926MOL0     H27751   8.576   2.868  -0.390  1.3874  0.0607 -4.7668
  926MOL0     H27752   8.812   2.989  -0.662 -0.8564  0.2195 -1.4549
  926MOL0     H27753   8.750   2.921  -0.510 -0.7944  1.5050 -0.5375
  926MOL0     H27754   8.801   2.727  -0.680 -0.2352 -0.5091 -1.2325
  926MOL0     H27755   8.626   2.750  -0.685 -1.0459 -0.8007 -1.0455
  926MOL0     H27756   8.821   2.885  -0.867  1.3498 -1.8125  2.3249
  926MOL0     H27757   8.653   2.908  -0.858  1.8805  1.5145 -0.9388
  926MOL0     H27758   8.618   2.668  -0.938  1.9060 -4.6206 -0.9222
  926MOL0     H27759   8.778   2.634  -0.884  1.3329  0.9825 -1.0354
  926MOL0     H27760   8.712   2.828  -1.109  0.6560  0.1153  2.0239
  926MOL0     H27761   8.867   2.785  -1.068  0.0470  1.1359  0.1920
  926MOL0     H27762   8.790   2.643  -1.271 -0.5748 -0.1060  0.4598
  926MOL0     H27763   8.646   2.600  -1.185  0.2099 -0.7642  2.1053
  926MOL0     H27764   8.743   2.471  -1.026 -0.6125 -0.4036 -0.9282
  926MOL0     H27765   8.909   2.505  -1.083  0.2233  0.1495 -1.0666
  926MOL0     H27766   8.837   2.278  -1.169 -1.3960 -1.1567 -1.4528
  926MOL0     H27767   8.866   2.398  -1.296  0.1911  0.4948  0.6279
  926MOL0     H27768   8.455   3.188  -0.656  1.4536 -0.5391 -0.1889
  926MOL0     H27769   8.284   3.262  -0.487 -2.0488 -1.1363  0.9581
  926MOL0     H27770   7.998   3.176  -0.214 -0.1395 -1.6010  2.2024
  926MOL0     H27771   7.803   3.279  -0.113  1.0416 -1.4929 -0.8763
  926MOL0     H27772   6.998   3.063   0.575 -0.3555  2.4599  0.2736
  926MOL0     H27773   7.248   3.056   0.613  0.0945 -1.9521 -0.4986
  926MOL0     H27774   7.653   2.765   0.460  2.2116  0.5677 -0.9853
  926MOL0     H27775   7.864   2.742   0.537 -0.4653  0.5143 -2.3065
  926MOL0     H27776   8.032   2.788   0.754  2.4927  0.0387  1.2373
  926MOL0     H27777   8.116   2.765   0.588  1.0763  0.0711 -0.6505
  926MOL0     H27778   8.248   2.729   0.735 -0.1688 -0.4856 -1.7673
  926MOL0     H27779   8.214   2.870   0.840 -1.6446 -1.2138 -0.0586
  926MOL0     H27780   8.408   2.893   0.748 -0.2040  0.3449  0.5761
  926MOL0     H27781   8.352   2.851   0.580 -2.4616  1.7063 -0.3428
  926MOL0     H27782   8.230   3.093   0.723  1.0575 -0.2218  0.4602
  926MOL0     H27783   8.249   3.059   0.546 -1.7174 -2.0500  0.6709
  926MOL0     H27784   8.557   3.321   0.618  0.6211 -1.6753 -4.3706
  926MOL0     H27785   7.876   3.167   0.660 -1.6871  1.3964  1.2790
  926MOL0     H27786   7.644   3.267   0.712 -0.2974 -1.4468  0.4394
  926MOL0     H27787   7.615   3.291   0.543 -0.2750 -0.0704  0.8198
  926MOL0     H27788   7.511   3.185   0.625 -1.8492  4.0244 -0.6468
  927MOL0     O27789   7.707   5.114   2.952 -0.5218 -0.2144 -0.4165
  927MOL0     C27790   7.698   5.169   3.058 -0.3922  0.2549  0.0853
  927MOL0     O27791   7.584   5.220   3.112  0.0773  0.2139  0.6669
  927MOL0     C27792   7.445   5.183   3.072  0.3579  0.2066 -0.1904
  927MOL0     C27793   7.337   5.276   3.088 -0.3285 -0.0299 -0.2860
  927MOL0     C27794   7.209   5.241   3.053  1.2578  0.8768  0.5754
  927MOL0     C27795   7.177   5.109   3.005  0.7699 -0.2221 -0.3002
  927MOL0     O27796   7.047   5.057   2.993 -0.6137 -0.1006  0.0347
  927MOL0     C27797   7.010   4.979   2.876 -0.0402  0.2449  0.0271
  927MOL0     C27798   6.857   4.939   2.885 -0.5573 -0.2823  0.1376
  927MOL0     C27799   6.814   4.879   2.759 -0.6210  0.8058  0.7055
  927MOL0     C27800   6.878   4.741   2.728 -0.1837  0.2196 -0.3190
  927MOL0     C27801   6.832   4.710   2.586 -0.7921  1.3206  0.1324
  927MOL0     C27802   6.901   4.584   2.528 -0.3610 -1.4363  0.2654
  927MOL0     C27803   6.873   4.583   2.376  0.4261 -0.1965 -0.1875
  927MOL0     C27804   6.957   4.484   2.303 -0.6098 -0.7289  0.1988
  927MOL0     N27805   6.940   4.501   2.163 -0.5070  0.2531  0.0706
  927MOL0     C27806   6.857   4.425   2.090 -1.1495  0.6428 -0.3228
  927MOL0     C27807   6.852   4.480   1.968 -1.4845  1.5239  0.3184
  927MOL0     C27808   6.780   4.430   1.840  0.7276  0.4713 -0.9311
  927MOL0     C27809   6.795   4.278   1.809  0.6532 -0.4624 -0.5975
  927MOL0     C27810   6.746   4.238   1.671 -0.3076 -0.0067 -0.0787
  927MOL0     C27811   6.602   4.280   1.626 -0.7583 -0.3721 -0.4228
  927MOL0     O27812   6.509   4.235   1.722 -0.2542 -0.2259 -0.5615
  927MOL0     C27813   6.508   4.097   1.755 -0.2724  0.4015 -1.0324
  927MOL0     C27814   6.472   4.064   1.888 -0.9175 -0.0166 -0.7282
  927MOL0     C27815   6.460   3.934   1.937 -0.5298  0.7615  0.7093
  927MOL0     C27816   6.410   3.916   2.080 -0.7892 -0.4821  0.3758
  927MOL0     C27817   6.498   3.831   1.853 -0.3899 -0.1595  0.3524
  927MOL0     C27818   6.478   3.691   1.894  0.4769  0.1449  0.2226
  927MOL0     O27819   6.594   3.610   1.888  0.5247  0.0043 -0.0077
  927MOL0     C27820   6.575   3.489   1.954  0.1713  0.0252 -0.8535
  927MOL0     C27821   6.605   3.481   2.100 -0.2152  0.6314  0.5476
  927MOL0     C27822   6.599   3.353   2.157  0.5553 -0.6336 -0.5290
  927MOL0     C27823   6.542   3.242   2.086 -0.0554 -1.0786 -0.3485
  927MOL0     O27824   6.524   3.114   2.134 -0.7123 -0.5233 -0.5395
  927MOL0     C27825   6.544   3.083   2.273 -0.6342  0.5733  0.0628
  927MOL0     C27826   6.406   3.117   2.337 -0.8176  0.4776 -0.9492
  927MOL0     C27827   6.422   3.152   2.488  0.0762 -1.5303  0.5276
  927MOL0     C27828   6.289   3.168   2.569 -0.4093  0.8626 -0.4779
  927MOL0     C27829   6.181   3.267   2.542  0.0779  0.7059  1.0060
  927MOL0     C27830   6.210   3.415   2.563 -1.0427 -0.6051  1.2539
  927MOL0     C27831   6.107   3.506   2.489  0.6218  0.2775  0.7659
  927MOL0     C27832   6.153   3.647   2.483  1.3479 -1.0601 -0.2262
  927MOL0    Cl27833   5.999   3.762   2.465  0.0410  0.2275 -0.6018
  927MOL0     C27834   6.499   3.262   1.957 -0.1128  0.0191  0.2571
  927MOL0     C27835   6.520   3.386   1.890 -1.2571  0.1821  0.0246
  927MOL0     O27836   6.366   3.652   1.935 -0.1668 -0.5972  0.0972
  927MOL0     C27837   6.536   3.855   1.718 -0.1634  0.4791 -0.0849
  927MOL0     C27838   6.540   3.986   1.666 -0.3114 -0.1878 -0.4880
  927MOL0     N27839   6.926   4.598   1.965  0.1943  0.3676  0.6831
  927MOL0     N27840   6.978   4.610   2.083 -0.6350 -0.1802 -0.3571
  927MOL0     C27841   7.283   5.028   2.982  0.0802  0.6446 -0.3017
  927MOL0     C27842   7.414   5.062   3.007 -0.8882  0.2442  1.3999
  927MOL0     C27843   7.815   5.200   3.145  0.6977 -0.1084  0.1260
  927MOL0     C27844   7.799   5.329   3.214  0.1295  0.1050 -0.4685
  927MOL0     C27845   7.912   5.385   3.280 -1.1267  0.9237 -0.1785
  927MOL0     C27846   8.033   5.320   3.282  0.1644 -1.1380  0.5773
  927MOL0     O27847   8.146   5.374   3.347 -0.1996  0.0708  0.2939
  927MOL0     C27848   8.275   5.313   3.342 -0.0934  0.0394  0.1679
  927MOL0     C27849   8.370   5.367   3.448 -0.3568  0.7004 -0.3969
  927MOL0     C27850   8.403   5.517   3.450 -0.6797 -0.1481 -0.3625
  927MOL0     C27851   8.380   5.602   3.322  0.0251 -0.1215 -0.5125
  927MOL0     C27852   8.449   5.543   3.200  0.3684 -0.4536 -0.5023
  927MOL0     C27853   8.484   5.492   3.094  1.2066  0.0189 -0.2529
  927MOL0     C27854   8.049   5.206   3.209  0.6131 -0.0866  0.5327
  927MOL0     C27855   7.944   5.138   3.144  0.7032 -1.0674  0.8694
  927MOL0     C27856   7.970   5.014   3.048 -0.8470  1.0091  0.9760
  927MOL0     H27857   7.358   5.380   3.109  1.0148 -0.6975  2.1545
  927MOL0     H27858   7.129   5.313   3.069 -0.6802 -0.5878 -1.8078
  927MOL0     H27859   7.066   4.886   2.868  3.4048  2.1405  0.4087
  927MOL0     H27860   7.038   5.040   2.789  1.2897  0.4088  0.5467
  927MOL0     H27861   6.845   4.864   2.964  1.6980 -1.2095 -0.3035
  927MOL0     H27862   6.809   5.032   2.915  3.5781  1.8807  0.7304
  927MOL0     H27863   6.706   4.875   2.742 -0.1387 -0.9888 -3.0412
  927MOL0     H27864   6.838   4.949   2.678  0.5161 -0.4671 -0.1113
  927MOL0     H27865   6.987   4.734   2.736 -0.0841 -1.7399 -2.3082
  927MOL0     H27866   6.838   4.678   2.807 -1.1081  2.4745  1.1026
  927MOL0     H27867   6.847   4.800   2.527 -1.7663  0.2576 -1.8501
  927MOL0     H27868   6.724   4.692   2.582 -0.3940 -1.8678  0.9402
  927MOL0     H27869   7.007   4.610   2.530 -1.2919  3.7711 -1.3868
  927MOL0     H27870   6.882   4.496   2.589  0.9271 -0.4366  2.1894
  927MOL0     H27871   6.901   4.683   2.340  1.6294  0.0027  1.2011
  927MOL0     H27872   6.766   4.577   2.356  0.3439 -2.5167  0.6854
  927MOL0     H27873   7.065   4.492   2.316 -0.7736 -1.8807  3.1417
  927MOL0     H27874   6.932   4.380   2.328  0.7761 -2.1392 -3.6799
  927MOL0     H27875   6.817   4.328   2.119  3.1578 -1.0758  0.6637
  927MOL0     H27876   6.814   4.498   1.762  1.5865  1.4197  0.2372
  927MOL0     H27877   6.672   4.440   1.853  0.6113 -1.9930  0.5902
  927MOL0     H27878   6.894   4.244   1.840 -0.7990 -3.3876  1.3132
  927MOL0     H27879   6.740   4.216   1.881 -1.0269 -1.2232 -2.4302
  927MOL0     H27880   6.809   4.285   1.594 -2.1249 -0.9018 -2.2509
  927MOL0     H27881   6.765   4.131   1.655 -0.3108 -0.3826  2.1442
  927MOL0     H27882   6.603   4.389   1.618  1.4763 -0.1871  1.1966
  927MOL0     H27883   6.581   4.234   1.529  0.2393 -1.6312 -0.0738
  927MOL0     H27884   6.449   4.141   1.961 -1.1585  0.1422 -0.9710
  927MOL0     H27885   6.486   3.880   2.150 -0.4784 -1.3950 -0.4078
  927MOL0     H27886   6.326   3.847   2.088 -0.0243 -1.2387  2.5961
  927MOL0     H27887   6.372   4.013   2.114 -1.8107 -1.3780  1.8930
  927MOL0     H27888   6.642   3.561   2.164 -2.6553  0.7804  1.8917
  927MOL0     H27889   6.623   3.346   2.262 -0.6565  3.2667  0.1709
  927MOL0     H27890   6.571   2.980   2.298  0.6933  1.0951  0.8933
  927MOL0     H27891   6.621   3.155   2.303 -1.4443  0.7915  1.7730
  927MOL0     H27892   6.371   3.209   2.290  0.5459  0.1809 -2.6385
  927MOL0     H27893   6.343   3.032   2.309  1.3760 -1.0914 -1.4408
  927MOL0     H27894   6.481   3.243   2.496  1.4462 -1.7742 -4.2764
  927MOL0     H27895   6.475   3.064   2.528  1.7231 -0.6052  0.4358
  927MOL0     H27896   6.313   3.181   2.675 -5.9944 -0.4503  1.2954
  927MOL0     H27897   6.239   3.072   2.587 -0.6028  1.5958  4.2880
  927MOL0     H27898   6.161   3.244   2.437  1.6653  1.1593  0.5740
  927MOL0     H27899   6.096   3.251   2.609 -0.5540  0.7458  0.2352
  927MOL0     H27900   6.301   3.431   2.504 -0.6781 -0.7812  1.7656
  927MOL0     H27901   6.234   3.436   2.667 -2.2453 -0.4325  1.5117
  927MOL0     H27902   6.005   3.509   2.531  1.2822  1.1108  2.4212
  927MOL0     H27903   6.102   3.474   2.385  2.0374 -1.9201  1.3004
  927MOL0     H27904   6.216   3.667   2.396 -1.6859  0.7947 -2.1977
  927MOL0     H27905   6.210   3.658   2.576 -3.1225  1.3515  2.6147
  927MOL0     H27906   6.466   3.174   1.902  0.7148 -0.0894 -0.0689
  927MOL0     H27907   6.498   3.404   1.785  0.2567 -0.3881 -0.4172
  927MOL0     H27908   6.567   3.772   1.656  2.8703  1.1831  0.3220
  927MOL0     H27909   6.576   4.008   1.566  2.0614 -0.4144  0.2617
  927MOL0     H27910   7.267   4.928   2.942  2.8148  0.9516 -2.4507
  927MOL0     H27911   7.490   4.991   2.976 -1.2108 -0.9793  3.2204
  927MOL0     H27912   7.715   5.396   3.204 -0.4394 -0.6780 -1.1068
  927MOL0     H27913   7.905   5.487   3.316 -0.2122  1.4263 -1.3525
  927MOL0     H27914   8.265   5.204   3.349 -2.6230  0.1144 -1.1860
  927MOL0     H27915   8.328   5.336   3.250  1.1967  0.7022  1.0462
  927MOL0     H27916   8.465   5.316   3.430 -0.3393 -0.1283  1.8260
  927MOL0     H27917   8.331   5.342   3.547  3.1428  0.9762  1.1756
  927MOL0     H27918   8.366   5.559   3.544  0.6073 -0.7912  0.4580
  927MOL0     H27919   8.509   5.528   3.476 -0.8069  0.7336 -0.1701
  927MOL0     H27920   8.422   5.703   3.333  3.4868 -1.2429 -2.0719
  927MOL0     H27921   8.272   5.600   3.306  0.0372 -0.5605 -0.5554
  927MOL0     H27922   8.493   5.434   3.004  0.2340  0.9745 -0.9914
  927MOL0     H27923   8.141   5.150   3.203  0.4290 -0.2311 -1.2767
  927MOL0     H27924   8.007   5.033   2.947  2.2023 -0.3548  1.7200
  927MOL0     H27925   8.056   4.971   3.101 -0.2436  3.5879  2.2920
  927MOL0     H27926   7.889   4.940   3.044 -0.9807  1.2104 -0.3280
  928MOL0     O27927   7.852   4.495   7.640  0.0958 -0.3070  0.4057
  928MOL0     C27928   7.805   4.510   7.526 -0.6901  0.6264 -0.3561
  928MOL0     O27929   7.860   4.482   7.402  0.4127  0.1662 -0.2142
  928MOL0     C27930   7.995   4.448   7.396 -0.4590  0.6818  0.4787
  928MOL0     C27931   8.020   4.329   7.309 -0.2965 -0.1213  0.4279
  928MOL0     C27932   8.150   4.278   7.318 -0.3126 -0.8122  0.1381
  928MOL0     C27933   8.264   4.349   7.376  0.8676  0.8223  0.2939
  928MOL0     O27934   8.389   4.289   7.393  0.0220 -0.2731  1.0781
  928MOL0     C27935   8.431   4.236   7.272 -1.6107 -0.2879 -0.1496
  928MOL0     C27936   8.589   4.248   7.260 -0.0460  0.5621  0.7705
  928MOL0     C27937   8.646   4.181   7.145  0.1134  0.3934  0.0561
  928MOL0     C27938   8.792   4.203   7.166 -0.6893  0.3305 -0.3369
  928MOL0     C27939   8.878   4.137   7.053  0.1029  0.3496  0.0934
  928MOL0     C27940   8.879   3.983   7.071 -0.1749 -0.1688 -0.8337
  928MOL0     C27941   9.016   3.922   7.055  0.5271 -0.9000  0.4324
  928MOL0     C27942   9.014   3.779   7.089  0.3265 -0.0156  0.1572
  928MOL0     N27943   9.115   3.706   7.004  0.1039 -1.0255  0.2158
  928MOL0     C27944   9.251   3.737   7.009  0.4820 -0.0551  0.5944
  928MOL0     C27945   9.294   3.669   6.903 -0.0131  0.0633  0.5986
  928MOL0     C27946   9.434   3.676   6.834  0.2937  0.5063 -1.1999
  928MOL0     C27947   9.429   3.640   6.681 -0.3379  0.8796  0.6667
  928MOL0     C27948   9.571   3.634   6.620 -1.0338 -1.3742 -1.3236
  928MOL0     C27949   9.586   3.623   6.469 -0.0460 -0.0203 -0.7164
  928MOL0     O27950   9.708   3.574   6.431 -0.4806 -0.5168  0.1646
  928MOL0     C27951   9.737   3.435   6.413 -0.8783 -0.1358  0.3612
  928MOL0     C27952   9.647   3.329   6.438  0.3001 -1.0637 -0.2662
  928MOL0     C27953   9.686   3.196   6.431 -0.0530 -0.0206  1.0423
  928MOL0     C27954   9.585   3.087   6.458 -0.1992  0.0433 -0.1283
  928MOL0     C27955   9.824   3.179   6.394  0.6316  0.9400  1.1662
  928MOL0     C27956   9.873   3.043   6.386 -1.5833  0.2810 -1.1199
  928MOL0     O27957   9.999   3.025   6.438 -0.0108 -0.7926  0.3959
  928MOL0     C27958  10.066   2.916   6.468 -0.8114 -0.9586  0.8528
  928MOL0     C27959  10.150   2.914   6.577 -0.1257 -0.6261  0.2230
  928MOL0     C27960  10.226   2.793   6.612  0.5006 -0.3576 -0.1766
  928MOL0     C27961  10.232   2.683   6.527 -0.0695  0.3057 -0.6006
  928MOL0     O27962  10.315   2.579   6.557  0.5318 -0.3256 -0.0007
  928MOL0     C27963  10.454   2.598   6.522 -0.2764 -0.5223  1.3918
  928MOL0     C27964  10.554   2.525   6.622 -0.1536 -0.9344  1.2951
  928MOL0     C27965  10.536   2.376   6.611 -0.2414 -0.0274 -0.0073
  928MOL0     C27966  10.429   2.311   6.699  0.9349  0.7266  0.1993
  928MOL0     C27967  10.460   2.307   6.850 -0.2695 -0.3101 -0.2743
  928MOL0     C27968  10.335   2.242   6.924 -0.4599 -0.1939 -0.1204
  928MOL0     C27969  10.383   2.229   7.073  0.3497 -0.3638  0.0405
  928MOL0     C27970  10.294   2.140   7.162 -0.0448  0.0650 -0.3378
  928MOL0    Cl27971  10.299   1.966   7.129 -0.1278 -0.3217 -0.6985
  928MOL0     C27972  10.130   2.679   6.436  0.4145 -0.2215  1.2741
  928MOL0     C27973  10.052   2.789   6.403  0.9086  0.1627 -0.4881
  928MOL0     O27974   9.804   2.947   6.343 -0.8429  0.2090  0.1131
  928MOL0     C27975   9.907   3.281   6.363 -0.2474  0.9042 -0.1083
  928MOL0     C27976   9.871   3.412   6.381  0.1401  0.6741  0.1730
  928MOL0     N27977   9.196   3.606   6.830 -1.0890 -0.5691 -0.5361
  928MOL0     N27978   9.088   3.623   6.902 -0.2800 -0.8922  0.2854
  928MOL0     C27979   8.242   4.466   7.437 -0.0684 -0.6614  0.6397
  928MOL0     C27980   8.107   4.517   7.448  0.2875 -0.0553  0.3290
  928MOL0     C27981   7.667   4.563   7.518 -0.3935 -0.3582 -0.5026
  928MOL0     C27982   7.549   4.487   7.524 -0.1343  0.3067  0.9311
  928MOL0     C27983   7.421   4.535   7.490 -0.3070 -0.8973 -0.4396
  928MOL0     C27984   7.401   4.669   7.443 -0.5418  0.5944 -0.0350
  928MOL0     O27985   7.285   4.732   7.426  0.1530 -0.6197 -0.1296
  928MOL0     C27986   7.165   4.652   7.434  0.7144  0.1791  0.2431
  928MOL0     C27987   7.045   4.746   7.408 -0.5860 -0.6421 -1.0947
  928MOL0     C27988   6.979   4.688   7.284  0.2018  0.6866 -0.1636
  928MOL0     C27989   6.927   4.552   7.282  0.5627 -0.4505 -1.2320
  928MOL0     C27990   6.800   4.543   7.352  0.3522  0.4744  0.0911
  928MOL0     C27991   6.687   4.535   7.399 -0.3316  0.4239 -0.6376
  928MOL0     C27992   7.520   4.739   7.438  0.5121 -0.0795 -0.1207
  928MOL0     C27993   7.646   4.693   7.477  0.7823 -0.1116 -0.4793
  928MOL0     C27994   7.768   4.779   7.454  1.0539  0.3019 -0.1164
  928MOL0     H27995   7.950   4.266   7.255  0.6103 -0.0065 -0.9361
  928MOL0     H27996   8.176   4.188   7.263  2.2118  1.5867 -3.0470
  928MOL0     H27997   8.390   4.291   7.186 -1.4153 -0.9392 -0.6695
  928MOL0     H27998   8.394   4.135   7.254  0.4085 -0.9602 -0.7568
  928MOL0     H27999   8.605   4.355   7.241 -1.4873  0.4216 -1.5002
  928MOL0     H28000   8.642   4.214   7.350  0.9834 -2.4986 -0.8787
  928MOL0     H28001   8.616   4.076   7.142 -0.9533  0.6294  1.4081
  928MOL0     H28002   8.621   4.242   7.058 -0.3819  0.3280  0.1509
  928MOL0     H28003   8.814   4.311   7.163  1.4185 -0.0723 -1.9996
  928MOL0     H28004   8.836   4.162   7.257  0.2387  2.2560  0.1413
  928MOL0     H28005   8.976   4.184   7.039  0.3039  0.3544  1.4683
  928MOL0     H28006   8.825   4.162   6.960 -0.9314  0.3777  0.6782
  928MOL0     H28007   8.856   3.965   7.176  1.4694  1.7423 -0.0730
  928MOL0     H28008   8.808   3.934   7.003  0.3020 -1.3615 -0.4917
  928MOL0     H28009   9.078   3.971   7.130  0.0900  0.1148  0.1583
  928MOL0     H28010   9.057   3.955   6.959  0.2922  1.4128  1.0612
  928MOL0     H28011   9.024   3.759   7.196 -1.3884 -3.0665 -0.1447
  928MOL0     H28012   8.917   3.737   7.060 -0.0941  1.6853 -1.0715
  928MOL0     H28013   9.309   3.799   7.077  0.3953  1.7841 -0.9304
  928MOL0     H28014   9.503   3.607   6.883 -0.5007  1.1924  0.9829
  928MOL0     H28015   9.491   3.766   6.858  2.8608 -1.9515  3.1805
  928MOL0     H28016   9.382   3.542   6.685  1.8910 -0.2552  4.8821
  928MOL0     H28017   9.374   3.719   6.628 -0.4488 -0.9347 -2.1416
  928MOL0     H28018   9.633   3.716   6.656  0.6571 -2.5886 -1.3343
  928MOL0     H28019   9.599   3.533   6.651  0.2162 -1.0823 -1.4533
  928MOL0     H28020   9.513   3.560   6.417 -1.4375  1.7430 -0.9768
  928MOL0     H28021   9.578   3.726   6.435  1.2945 -0.5227 -2.7119
  928MOL0     H28022   9.547   3.355   6.469  0.2048  0.8856 -1.9467
  928MOL0     H28023   9.544   3.049   6.364  1.9220 -0.8810 -0.7477
  928MOL0     H28024   9.503   3.124   6.519 -0.1524 -1.2104  0.7279
  928MOL0     H28025   9.621   2.997   6.510 -1.6753  0.0317  0.9337
  928MOL0     H28026  10.176   3.011   6.618  1.6737 -0.2928 -1.5374
  928MOL0     H28027  10.304   2.805   6.685 -1.9108  1.2373  2.3490
  928MOL0     H28028  10.469   2.565   6.419  4.5773 -2.4623  2.4903
  928MOL0     H28029  10.464   2.707   6.525 -1.8780 -0.3416  4.5665
  928MOL0     H28030  10.654   2.563   6.597 -2.1224  2.9391 -1.8731
  928MOL0     H28031  10.532   2.556   6.724  0.7281  2.7613  0.5267
  928MOL0     H28032  10.631   2.329   6.635 -1.1947 -1.1554  1.7705
  928MOL0     H28033  10.525   2.348   6.506  1.7305 -4.0963  0.6682
  928MOL0     H28034  10.413   2.210   6.660 -1.1612  2.0324 -2.6850
  928MOL0     H28035  10.329   2.354   6.690 -0.1076 -1.0905  2.3217
  928MOL0     H28036  10.552   2.251   6.868 -1.2780 -2.0985 -0.3475
  928MOL0     H28037  10.475   2.411   6.879  2.0712 -0.9367  0.9982
  928MOL0     H28038  10.315   2.149   6.871  2.0878 -1.1645  0.4868
  928MOL0     H28039  10.242   2.299   6.917 -0.2115  0.0602 -1.7642
  928MOL0     H28040  10.389   2.332   7.107  0.0463 -0.2484 -0.2521
  928MOL0     H28041  10.483   2.183   7.073  0.6994  0.3022 -2.0622
  928MOL0     H28042  10.194   2.185   7.156  0.5266  1.6493  1.1745
  928MOL0     H28043  10.335   2.179   7.256  0.1282  0.0518 -0.4077
  928MOL0     H28044  10.116   2.583   6.388  1.8570  1.1104 -2.0450
  928MOL0     H28045   9.981   2.771   6.323 -1.8539  0.4319  1.7356
  928MOL0     H28046  10.003   3.258   6.320  0.6738  2.0390  1.2203
  928MOL0     H28047   9.936   3.492   6.347  0.0671  0.3236 -0.8108
  928MOL0     H28048   8.320   4.523   7.488  3.1422 -4.8261  0.8867
  928MOL0     H28049   8.097   4.602   7.515  2.0120 -0.8927  1.7325
  928MOL0     H28050   7.565   4.383   7.551  0.0596 -0.1549 -0.8186
  928MOL0     H28051   7.343   4.459   7.497  0.2698 -1.6896 -1.9375
  928MOL0     H28052   7.187   4.559   7.379  0.8423 -0.3169  1.1163
  928MOL0     H28053   7.148   4.616   7.536  0.7030  0.7525  0.4435
  928MOL0     H28054   7.075   4.846   7.375 -0.0166 -0.6462 -0.6101
  928MOL0     H28055   6.977   4.753   7.492 -0.1062 -0.9883 -0.6705
  928MOL0     H28056   6.902   4.758   7.251  3.2322  3.0738 -2.7816
  928MOL0     H28057   7.049   4.695   7.200  0.2228 -1.9170 -0.4480
  928MOL0     H28058   6.983   4.485   7.348 -3.0066 -0.3731  2.2476
  928MOL0     H28059   6.915   4.512   7.181 -2.9859  1.3339 -1.6664
  928MOL0     H28060   6.589   4.530   7.442  0.3710 -0.1647  0.9757
  928MOL0     H28061   7.516   4.845   7.416  1.6888 -0.2690 -1.3785
  928MOL0     H28062   7.811   4.740   7.362  1.4011 -0.3999  0.3310
  928MOL0     H28063   7.759   4.888   7.456  2.0282  0.4084 -0.6825
  928MOL0     H28064   7.833   4.759   7.540 -1.4670 -1.9472  1.4260
  929MOL0     O28065   2.043   2.679  11.072 -0.5536 -0.3882  0.5179
  929MOL0     C28066   2.021   2.705  11.194  0.0366  0.2079  0.7194
  929MOL0     O28067   2.106   2.773  11.278 -0.0325  0.2828 -0.2014
  929MOL0     C28068   2.223   2.805  11.214  0.2461 -0.3878 -1.1687
  929MOL0     C28069   2.332   2.729  11.230  0.2505  0.5522  0.0814
  929MOL0     C28070   2.454   2.753  11.168 -0.7634  0.0984  0.8296
  929MOL0     C28071   2.465   2.867  11.091  0.8525 -0.4409  0.8046
  929MOL0     O28072   2.579   2.885  11.015  0.0500  0.2965  0.0776
  929MOL0     C28073   2.600   3.016  10.957 -0.2548  0.0960  0.0795
  929MOL0     C28074   2.667   3.120  11.052 -0.6658 -0.1152 -0.3565
  929MOL0     C28075   2.738   3.060  11.180 -0.3266 -0.3001  0.5738
  929MOL0     C28076   2.834   3.167  11.242  0.4871  0.4258  0.0487
  929MOL0     C28077   2.779   3.260  11.354  0.2142 -0.6757 -0.3775
  929MOL0     C28078   2.705   3.383  11.291 -0.6369  0.0656 -0.7333
  929MOL0     C28079   2.704   3.507  11.378 -0.3889 -0.5543  0.3622
  929MOL0     C28080   2.597   3.604  11.327  0.1674  0.4244  0.4106
  929MOL0     N28081   2.595   3.742  11.394 -0.5237 -0.1762  0.4603
  929MOL0     C28082   2.490   3.797  11.458  0.8263 -0.2003 -0.4311
  929MOL0     C28083   2.514   3.929  11.469 -0.4348 -0.9228 -0.1669
  929MOL0     C28084   2.435   4.041  11.539  0.1829 -0.2475 -0.2281
  929MOL0     C28085   2.308   4.074  11.461  0.6534 -0.5995  0.5669
  929MOL0     C28086   2.222   4.195  11.500  0.1518 -0.3726  1.0384
  929MOL0     C28087   2.124   4.190  11.378  0.0449  0.4050 -0.0707
  929MOL0     O28088   2.014   4.263  11.432 -0.0772  0.7066  0.1987
  929MOL0     C28089   1.908   4.294  11.351 -0.3817 -0.6782 -0.6808
  929MOL0     C28090   1.906   4.293  11.216 -0.2123 -1.3118  0.4700
  929MOL0     C28091   1.790   4.326  11.137 -0.1373  0.5926  0.8207
  929MOL0     C28092   1.815   4.316  10.987 -0.0956 -0.3819 -1.3775
  929MOL0     C28093   1.675   4.374  11.199 -0.4840  0.0788 -0.0029
  929MOL0     C28094   1.556   4.447  11.137 -0.5485 -0.7886 -1.1285
  929MOL0     O28095   1.526   4.430  10.999 -0.3252 -0.2019 -0.1196
  929MOL0     C28096   1.427   4.525  10.961 -0.2169  0.9173 -0.0216
  929MOL0     C28097   1.462   4.663  10.947  0.1678 -0.2392  0.6887
  929MOL0     C28098   1.357   4.757  10.932  0.0534  1.2479  0.4115
  929MOL0     C28099   1.225   4.718  10.917  0.9626  0.9791  0.0061
  929MOL0     O28100   1.116   4.798  10.891  0.3781  0.0221 -0.5795
  929MOL0     C28101   1.125   4.933  10.920  0.4346  0.5861 -1.0738
  929MOL0     C28102   1.003   5.011  10.872  0.0811  0.0162 -1.1029
  929MOL0     C28103   0.997   5.018  10.720  0.3477 -0.1570 -0.4509
  929MOL0     C28104   1.095   5.121  10.682  0.3664 -0.6230 -1.0722
  929MOL0     C28105   1.111   5.145  10.524  0.2029 -0.1628  0.7730
  929MOL0     C28106   1.198   5.040  10.475 -0.0706  0.4647 -0.2353
  929MOL0     C28107   1.240   5.048  10.331  0.1216  0.4492  0.2171
  929MOL0     C28108   1.312   4.913  10.302 -1.0732 -0.7570 -0.3109
  929MOL0    Cl28109   1.220   4.769  10.265  0.1392  0.3331  0.1457
  929MOL0     C28110   1.197   4.582  10.932 -0.8548 -0.1522 -0.3566
  929MOL0     C28111   1.301   4.488  10.952  1.5816  0.4988 -0.1312
  929MOL0     O28112   1.484   4.513  11.216  0.2114  0.1103  0.2481
  929MOL0     C28113   1.673   4.345  11.339 -0.4431 -0.3323 -0.0919
  929MOL0     C28114   1.786   4.306  11.411 -0.1242 -0.8978 -0.3460
  929MOL0     N28115   2.638   3.951  11.404 -0.1760  0.2991  0.0836
  929MOL0     N28116   2.684   3.837  11.360 -0.5815  0.5301 -0.3406
  929MOL0     C28117   2.353   2.956  11.078 -1.1788  0.8376  0.6120
  929MOL0     C28118   2.238   2.923  11.145  0.6588 -0.3898  0.7888
  929MOL0     C28119   1.903   2.645  11.253  0.4431 -0.7496 -0.1296
  929MOL0     C28120   1.857   2.719  11.373  0.5889  0.3050 -0.0096
  929MOL0     C28121   1.740   2.671  11.433 -1.1449  0.3182 -1.0347
  929MOL0     C28122   1.675   2.555  11.389  0.2334 -0.3084  0.3965
  929MOL0     O28123   1.583   2.486  11.466 -0.1299 -0.0201  0.0295
  929MOL0     C28124   1.493   2.564  11.548  0.9272 -0.7151  0.1040
  929MOL0     C28125   1.385   2.622  11.463  0.5600  0.5518 -1.8146
  929MOL0     C28126   1.314   2.726  11.532  0.9502 -0.9662 -0.3401
  929MOL0     C28127   1.195   2.777  11.450  0.1202 -0.3659  0.1161
  929MOL0     C28128   1.124   2.880  11.535  1.1828 -0.1339 -0.1903
  929MOL0     C28129   1.059   2.959  11.594  0.5022  0.1119  1.1567
  929MOL0     C28130   1.720   2.493  11.272  0.3373  0.9071 -0.8495
  929MOL0     C28131   1.839   2.530  11.212  0.6203  0.2138 -0.9154
  929MOL0     C28132   1.893   2.438  11.107  0.3181 -0.7020  0.0209
  929MOL0     H28133   2.313   2.637  11.284  0.1872  1.0589  0.9274
  929MOL0     H28134   2.520   2.668  11.178 -1.8574 -0.6890  1.7497
  929MOL0     H28135   2.509   3.064  10.918  0.0920  2.0460  1.5049
  929MOL0     H28136   2.660   3.010  10.866 -1.2399  1.6554 -0.7316
  929MOL0     H28137   2.740   3.183  11.000  0.9722 -1.1425  0.6041
  929MOL0     H28138   2.589   3.195  11.065 -1.1916 -0.2306 -2.3637
  929MOL0     H28139   2.663   3.019  11.248 -2.2963 -0.8437 -1.8077
  929MOL0     H28140   2.796   2.969  11.164  0.1044 -0.2240  1.5849
  929MOL0     H28141   2.923   3.123  11.287  1.0370  0.5415 -0.8939
  929MOL0     H28142   2.879   3.219  11.157  1.0627 -2.5228 -1.6121
  929MOL0     H28143   2.861   3.297  11.415 -2.2549  1.0843  2.1100
  929MOL0     H28144   2.702   3.213  11.416 -1.1737 -0.7339 -2.0628
  929MOL0     H28145   2.766   3.424  11.210 -1.1244  1.7346 -0.2991
  929MOL0     H28146   2.606   3.361  11.251 -1.7377  0.9196  1.3487
  929MOL0     H28147   2.804   3.551  11.387 -0.3777  0.7133 -3.6519
  929MOL0     H28148   2.677   3.487  11.482  1.7708 -0.0482  1.0736
  929MOL0     H28149   2.615   3.608  11.219  0.4398 -0.4319  0.4145
  929MOL0     H28150   2.498   3.561  11.341 -0.3890  0.5789 -2.4241
  929MOL0     H28151   2.400   3.754  11.502 -1.3572  2.3181 -2.1035
  929MOL0     H28152   2.501   4.128  11.537  2.9739 -2.1795  1.4124
  929MOL0     H28153   2.425   3.996  11.638  2.3653  1.2651  0.7580
  929MOL0     H28154   2.341   4.080  11.357 -0.6613 -0.2166  0.1607
  929MOL0     H28155   2.249   3.982  11.461  1.6393 -1.2729 -0.9550
  929MOL0     H28156   2.172   4.187  11.597 -0.8495 -0.2022  0.5429
  929MOL0     H28157   2.273   4.291  11.505 -0.6522  0.3802 -2.5040
  929MOL0     H28158   2.173   4.231  11.289 -1.3789  2.3245 -0.0373
  929MOL0     H28159   2.089   4.091  11.345  2.4317 -0.5269  0.0181
  929MOL0     H28160   1.994   4.269  11.158 -1.4726  2.0606 -3.2907
  929MOL0     H28161   1.920   4.301  10.959 -0.1118  1.6477 -2.6983
  929MOL0     H28162   1.787   4.411  10.941  0.4612  3.7637  5.4147
  929MOL0     H28163   1.747   4.238  10.953 -1.1371 -0.6372  1.0780
  929MOL0     H28164   1.561   4.707  10.953 -0.5542  1.5302  0.2465
  929MOL0     H28165   1.388   4.861  10.928  0.6730  1.0478 -2.9463
  929MOL0     H28166   1.129   4.941  11.029 -0.1137 -0.0365 -1.0034
  929MOL0     H28167   1.225   4.971  10.896  1.8663 -2.1608  0.1420
  929MOL0     H28168   0.916   4.957  10.910  0.7971 -0.2388  0.2363
  929MOL0     H28169   1.012   5.108  10.922 -0.0521 -0.6035  0.1616
  929MOL0     H28170   0.895   5.043  10.691  0.1143  0.1716  0.6162
  929MOL0     H28171   1.024   4.919  10.682  2.1001  0.3612 -0.6348
  929MOL0     H28172   1.183   5.111  10.746 -1.3805 -0.4030  1.5581
  929MOL0     H28173   1.055   5.217  10.718 -0.8812 -1.9248  1.2623
  929MOL0     H28174   1.009   5.150  10.483  0.6667  1.4312 -0.2945
  929MOL0     H28175   1.166   5.238  10.505  0.9685 -0.3097  2.0967
  929MOL0     H28176   1.169   4.937  10.496  0.0125 -0.2291 -3.0667
  929MOL0     H28177   1.293   5.056  10.526  1.1198  2.6314 -2.8786
  929MOL0     H28178   1.296   5.140  10.313 -1.0598  0.6387 -3.1330
  929MOL0     H28179   1.153   5.067  10.268 -0.5909 -1.5690  0.5210
  929MOL0     H28180   1.379   4.888  10.385 -3.6600 -0.0299  2.1441
  929MOL0     H28181   1.368   4.929  10.209  0.8793 -1.2507  0.7336
  929MOL0     H28182   1.096   4.541  10.932 -0.8968 -0.2710  2.6664
  929MOL0     H28183   1.272   4.385  10.971  0.2488  0.5723 -1.5066
  929MOL0     H28184   1.583   4.373  11.391  0.3162 -0.2964  1.2490
  929MOL0     H28185   1.775   4.275  11.515  1.2082 -1.9805 -0.5008
  929MOL0     H28186   2.356   3.045  11.016  2.1053  1.1351  1.0303
  929MOL0     H28187   2.150   2.984  11.129  0.8215  0.1014  1.7128
  929MOL0     H28188   1.912   2.808  11.402 -1.9126  1.7208  0.6898
  929MOL0     H28189   1.717   2.732  11.520 -0.2766  3.1860 -2.6687
  929MOL0     H28190   1.453   2.499  11.626 -1.8107 -1.9694 -2.1673
  929MOL0     H28191   1.543   2.649  11.595 -3.8115  3.3656 -1.3715
  929MOL0     H28192   1.320   2.540  11.429 -0.4122 -1.0041  3.0155
  929MOL0     H28193   1.439   2.666  11.379  2.0569  1.8325 -0.2400
  929MOL0     H28194   1.286   2.708  11.636  0.3993 -1.9561 -0.6437
  929MOL0     H28195   1.380   2.811  11.514  2.6616 -1.5573  2.5370
  929MOL0     H28196   1.133   2.689  11.431  2.0411 -2.0763  1.2906
  929MOL0     H28197   1.216   2.816  11.350 -0.2343 -1.7835 -0.5379
  929MOL0     H28198   1.025   3.046  11.647 -1.4543 -2.3922  4.3432
  929MOL0     H28199   1.675   2.395  11.259 -2.4541  2.1211 -1.0354
  929MOL0     H28200   2.002   2.431  11.114  0.2380 -0.7355  1.7593
  929MOL0     H28201   1.836   2.346  11.116  1.0221 -1.2320 -0.8000
  929MOL0     H28202   1.881   2.467  11.002  1.1365 -6.9160 -2.1972
  930MOL0     O28203  11.548  10.820   5.212 -0.1283  0.0561  0.2906
  930MOL0     C28204  11.452  10.882   5.180  0.1632 -0.6962  0.7222
  930MOL0     O28205  11.448  10.986   5.091 -0.5449  0.5713  0.2403
  930MOL0     C28206  11.572  11.051   5.065 -0.2238  0.0127  0.9780
  930MOL0     C28207  11.644  11.031   4.947 -0.0470  0.1916 -0.8371
  930MOL0     C28208  11.746  11.120   4.927 -0.4437 -0.1295  0.1499
  930MOL0     C28209  11.797  11.206   5.029  0.2406  0.2231 -0.1367
  930MOL0     O28210  11.918  11.284   5.025  0.2777  0.4584  0.7691
  930MOL0     C28211  11.983  11.279   4.900  0.6749  0.8828 -0.6483
  930MOL0     C28212  12.122  11.351   4.914 -0.8326  0.2216 -0.2779
  930MOL0     C28213  12.120  11.499   4.880 -0.2711  0.3702 -0.0845
  930MOL0     C28214  12.260  11.562   4.906  0.0449  0.6778  0.1716
  930MOL0     C28215  12.262  11.705   4.841  0.0348 -0.4540 -0.1190
  930MOL0     C28216  12.409  11.748   4.822  0.1014 -1.1626  0.3033
  930MOL0     C28217  12.406  11.885   4.749  0.3596 -0.1039 -0.1042
  930MOL0     C28218  12.543  11.957   4.742 -0.5520  0.6252 -0.0372
  930MOL0     N28219  12.529  12.064   4.644  0.3194  0.3682  0.3700
  930MOL0     C28220  12.490  12.188   4.689  0.3840 -0.3253  1.2034
  930MOL0     C28221  12.473  12.262   4.573  0.2117 -0.1382 -0.5129
  930MOL0     C28222  12.417  12.406   4.560  0.1719 -0.1793 -0.5397
  930MOL0     C28223  12.278  12.414   4.620 -0.3860 -0.9372 -0.6013
  930MOL0     C28224  12.189  12.316   4.546 -0.0350 -0.1098 -0.3754
  930MOL0     C28225  12.050  12.369   4.550  0.0921  0.2442 -0.0255
  930MOL0     O28226  11.969  12.265   4.503 -0.4797  0.0528  0.5665
  930MOL0     C28227  11.849  12.303   4.460  0.0771 -0.4770 -1.0775
  930MOL0     C28228  11.788  12.222   4.367  0.3792  0.5496  1.1104
  930MOL0     C28229  11.665  12.248   4.301  0.2119  0.1734  0.0648
  930MOL0     C28230  11.609  12.133   4.231 -0.2057 -0.8658 -0.3417
  930MOL0     C28231  11.601  12.371   4.322 -0.0963 -0.2934  0.0311
  930MOL0     C28232  11.472  12.412   4.259  0.5473 -0.0889 -0.7802
  930MOL0     O28233  11.448  12.361   4.128  0.4255  0.2542 -0.8880
  930MOL0     C28234  11.318  12.349   4.082 -0.5008 -0.4350  1.0338
  930MOL0     C28235  11.312  12.311   3.951  0.6345 -0.2380  0.8550
  930MOL0     C28236  11.189  12.298   3.892  0.5578  0.5387 -1.5114
  930MOL0     C28237  11.060  12.332   3.951 -0.9819 -0.6528  0.2525
  930MOL0     O28238  10.936  12.326   3.896 -0.4530 -0.3307 -0.0688
  930MOL0     C28239  10.935  12.329   3.753 -0.9689  0.2980 -0.7185
  930MOL0     C28240  10.975  12.461   3.689 -0.0272 -0.0628 -0.5474
  930MOL0     C28241  10.853  12.562   3.710  0.4390 -0.5696  0.6476
  930MOL0     C28242  10.868  12.689   3.620 -0.5145 -0.4824  0.6101
  930MOL0     C28243  10.761  12.795   3.644  0.4341 -0.4411 -0.1074
  930MOL0     C28244  10.614  12.762   3.630  0.2552  0.9406 -0.3317
  930MOL0     C28245  10.525  12.885   3.599 -0.4566 -0.3419 -0.3747
  930MOL0     C28246  10.383  12.860   3.558  0.3325 -0.0270  0.0364
  930MOL0    Cl28247  10.370  12.798   3.396  0.5896 -0.4484 -0.0503
  930MOL0     C28248  11.072  12.356   4.080 -1.0793 -0.3540  0.3128
  930MOL0     C28249  11.195  12.365   4.154 -0.6795  0.2687 -0.4192
  930MOL0     O28250  11.399  12.473   4.336 -0.5021  0.6229 -0.0324
  930MOL0     C28251  11.669  12.461   4.413  0.2448  0.7609 -0.6124
  930MOL0     C28252  11.780  12.429   4.480  0.7164  0.3536  0.3560
  930MOL0     N28253  12.491  12.174   4.465  0.4970  0.7092  0.7501
  930MOL0     N28254  12.526  12.056   4.504 -0.0359  0.2254 -0.2502
  930MOL0     C28255  11.713  11.232   5.139 -0.8751 -0.4914 -0.3931
  930MOL0     C28256  11.602  11.150   5.160 -0.3585  0.6241 -0.1967
  930MOL0     C28257  11.318  10.835   5.223  0.0142  0.1909 -0.4171
  930MOL0     C28258  11.314  10.693   5.246  0.6313  0.4801 -0.9133
  930MOL0     C28259  11.196  10.625   5.301 -0.3389  0.7766  0.1079
  930MOL0     C28260  11.084  10.710   5.318 -0.6029 -0.2820 -0.0754
  930MOL0     O28261  10.960  10.669   5.359 -0.3230 -0.2084 -0.2636
  930MOL0     C28262  10.978  10.611   5.488 -0.2792  0.0230 -0.4601
  930MOL0     C28263  10.838  10.583   5.555  0.6630 -0.8421  0.6346
  930MOL0     C28264  10.862  10.532   5.699  0.1594 -1.1726 -0.2561
  930MOL0     C28265  10.936  10.398   5.716 -0.5643  0.7325  0.3067
  930MOL0     C28266  10.845  10.293   5.675 -0.0990 -0.0228  0.1907
  930MOL0     C28267  10.790  10.190   5.642 -0.5509  0.4296  0.0972
  930MOL0     C28268  11.089  10.848   5.287 -0.5026 -0.1419 -0.3515
  930MOL0     C28269  11.204  10.911   5.254  0.3941  0.5272  0.1949
  930MOL0     C28270  11.196  11.064   5.245 -0.0577 -0.2916  0.8633
  930MOL0     H28271  11.616  10.947   4.884 -1.0641  1.1336 -1.7033
  930MOL0     H28272  11.800  11.105   4.834  0.6726  1.4284  0.5106
  930MOL0     H28273  11.937  11.348   4.829  1.5420  2.6064  0.3856
  930MOL0     H28274  12.001  11.177   4.866 -2.8728 -1.5395  3.6102
  930MOL0     H28275  12.157  11.325   5.015 -0.5496 -1.1091 -0.6971
  930MOL0     H28276  12.206  11.309   4.857  0.1441  2.2903 -0.4288
  930MOL0     H28277  12.089  11.521   4.777  2.5320  0.3772 -1.0225
  930MOL0     H28278  12.044  11.539   4.947 -2.8206 -2.4245 -1.1346
  930MOL0     H28279  12.291  11.564   5.011  0.0808  1.8033  0.1552
  930MOL0     H28280  12.326  11.492   4.855 -1.0936 -1.1388  1.0871
  930MOL0     H28281  12.203  11.776   4.899 -0.9857  0.8008 -2.5420
  930MOL0     H28282  12.207  11.720   4.747  1.1699  2.4610 -0.4297
  930MOL0     H28283  12.465  11.749   4.916  1.4551 -0.6396 -0.4865
  930MOL0     H28284  12.455  11.677   4.753  3.1410  2.3511 -1.6528
  930MOL0     H28285  12.337  11.948   4.806  0.8026 -2.0304  2.7524
  930MOL0     H28286  12.359  11.863   4.652 -0.7693  0.3557  0.3166
  930MOL0     H28287  12.569  11.998   4.840 -0.7199 -0.9440  0.6904
  930MOL0     H28288  12.626  11.894   4.708  0.7929  1.8302  0.9141
  930MOL0     H28289  12.483  12.214   4.794  1.8718 -3.9796  2.4117
  930MOL0     H28290  12.412  12.449   4.460 -1.3420  2.9614  0.7238
  930MOL0     H28291  12.480  12.477   4.615 -0.7229  0.6050 -0.4883
  930MOL0     H28292  12.297  12.381   4.723  0.0461 -1.4051 -0.8293
  930MOL0     H28293  12.259  12.521   4.609  3.9242 -0.0260 -0.8170
  930MOL0     H28294  12.223  12.313   4.443 -1.3338  0.0950 -0.8279
  930MOL0     H28295  12.193  12.214   4.584  0.0230  0.0097 -0.0567
  930MOL0     H28296  12.010  12.400   4.646  0.5748  2.0919 -0.3789
  930MOL0     H28297  12.051  12.462   4.492 -1.1360 -0.0613 -0.5747
  930MOL0     H28298  11.843  12.132   4.343 -1.8556 -0.4076 -0.7644
  930MOL0     H28299  11.501  12.145   4.241  0.1003  0.3262  2.8809
  930MOL0     H28300  11.630  12.037   4.279 -2.3073 -1.4700 -0.5428
  930MOL0     H28301  11.654  12.134   4.131  1.6633 -2.1472  0.4228
  930MOL0     H28302  11.401  12.291   3.894 -0.9970 -0.4829 -1.7707
  930MOL0     H28303  11.193  12.253   3.793  2.9864 -1.6877 -0.5189
  930MOL0     H28304  10.991  12.241   3.720  0.0434 -0.3167  2.3037
  930MOL0     H28305  10.834  12.301   3.723 -1.3814 -0.8817  1.5009
  930MOL0     H28306  11.065  12.498   3.741  2.5298 -1.7970 -3.4477
  930MOL0     H28307  10.993  12.453   3.582 -1.0099 -1.1562 -0.6536
  930MOL0     H28308  10.843  12.585   3.816  0.6718  2.8713  0.0305
  930MOL0     H28309  10.760  12.519   3.671 -0.4016  3.1155 -1.9475
  930MOL0     H28310  10.857  12.668   3.514  1.8307 -2.3418  0.6266
  930MOL0     H28311  10.959  12.749   3.634 -1.4071  0.9426  0.4687
  930MOL0     H28312  10.771  12.851   3.738 -2.2465  0.4645 -0.2740
  930MOL0     H28313  10.777  12.873   3.569 -1.9628  0.8857  0.6715
  930MOL0     H28314  10.589  12.724   3.730  0.0149  4.4624  1.0819
  930MOL0     H28315  10.589  12.688   3.554  0.2567  2.1733 -1.5685
  930MOL0     H28316  10.565  12.947   3.518 -0.4251  0.6179  0.3576
  930MOL0     H28317  10.527  12.941   3.692  0.3610  0.1609 -0.6857
  930MOL0     H28318  10.326  12.953   3.565  2.7679  1.4240  3.6471
  930MOL0     H28319  10.327  12.788   3.618 -1.4672 -1.2342 -2.8887
  930MOL0     H28320  10.985  12.369   4.143 -1.0757 -0.3728  0.3217
  930MOL0     H28321  11.200  12.382   4.261  2.8379  2.1247 -0.7272
  930MOL0     H28322  11.614  12.552   4.434  0.6018  0.1289  4.1398
  930MOL0     H28323  11.824  12.497   4.553  0.9457  0.2028  0.3624
  930MOL0     H28324  11.733  11.310   5.212 -0.2403 -0.7718 -0.2620
  930MOL0     H28325  11.524  11.160   5.234  1.0255 -0.0657  1.4086
  930MOL0     H28326  11.403  10.632   5.244 -0.4185 -1.6529  3.4021
  930MOL0     H28327  11.213  10.524   5.337 -3.3621  0.7957  1.9204
  930MOL0     H28328  11.048  10.527   5.491  1.1093  1.1075 -1.2580
  930MOL0     H28329  11.031  10.668   5.564  3.2467 -1.9762 -1.2080
  930MOL0     H28330  10.768  10.526   5.494  1.8923 -0.5919 -1.0679
  930MOL0     H28331  10.798  10.685   5.560  3.0248  0.4711 -3.0947
  930MOL0     H28332  10.937  10.597   5.745  2.9164 -2.2696 -2.8409
  930MOL0     H28333  10.767  10.530   5.752 -0.4141  1.7328 -1.0108
  930MOL0     H28334  10.953  10.386   5.823  2.1250  1.3613  0.0244
  930MOL0     H28335  11.017  10.381   5.644 -2.0241 -0.8509 -1.0474
  930MOL0     H28336  10.724  10.112   5.611  1.3473 -0.7380 -1.2436
  930MOL0     H28337  10.997  10.904   5.301  0.7191  1.4087  2.0880
  930MOL0     H28338  11.253  11.118   5.321  2.3955  1.9149 -2.3221
  930MOL0     H28339  11.230  11.101   5.148  2.9002 -2.6799  0.8477
  930MOL0     H28340  11.094  11.103   5.252  0.1114  0.1197  1.1060
  931MOL0     O28341   3.720  10.640   1.119  0.8994 -0.0865  0.0311
  931MOL0     C28342   3.667  10.753   1.106  0.2699 -0.1875 -0.4937
  931MOL0     O28343   3.736  10.873   1.119  0.5177  0.2571  0.7820
  931MOL0     C28344   3.868  10.894   1.152  0.0080 -0.0347  0.4061
  931MOL0     C28345   3.893  11.031   1.178  0.2805  0.4862  1.0215
  931MOL0     C28346   4.024  11.079   1.212  0.1726 -0.7265  0.3088
  931MOL0     C28347   4.128  10.990   1.185 -0.8174 -0.1856  0.1451
  931MOL0     O28348   4.253  11.041   1.216 -0.1051 -0.2294  0.2184
  931MOL0     C28349   4.362  10.946   1.208  0.8192 -0.8364 -0.8013
  931MOL0     C28350   4.487  11.027   1.230 -0.7219  0.1671 -0.1432
  931MOL0     C28351   4.614  10.947   1.279 -0.4825  0.2485 -0.2572
  931MOL0     C28352   4.598  10.874   1.411 -0.1571  0.7667  0.1552
  931MOL0     C28353   4.565  10.971   1.525 -0.0025 -0.5088 -0.2282
  931MOL0     C28354   4.536  10.903   1.655  0.1323 -1.0274  0.2152
  931MOL0     C28355   4.658  10.834   1.727 -0.0275 -0.0138 -0.5112
  931MOL0     C28356   4.783  10.911   1.766  0.9333  0.2269 -0.2648
  931MOL0     N28357   4.876  10.811   1.839  0.2995 -0.3879  0.1680
  931MOL0     C28358   4.989  10.765   1.786  0.2775  0.2454 -0.2123
  931MOL0     C28359   5.019  10.660   1.863 -0.3375  0.0521 -1.2094
  931MOL0     C28360   5.148  10.574   1.837 -0.1771 -0.9200  0.2761
  931MOL0     C28361   5.260  10.667   1.773  0.4836  0.0300 -0.5497
  931MOL0     C28362   5.381  10.590   1.711  0.7092 -0.6914 -0.3290
  931MOL0     C28363   5.469  10.667   1.614 -0.1554  0.8233 -0.0287
  931MOL0     O28364   5.418  10.683   1.479 -0.0008  0.5208  0.1210
  931MOL0     C28365   5.428  10.575   1.386  0.3921  0.9138  0.4838
  931MOL0     C28366   5.414  10.606   1.246 -0.0418  0.6751 -0.6576
  931MOL0     C28367   5.409  10.506   1.148  0.2639 -0.0694  0.4829
  931MOL0     C28368   5.343  10.541   1.014 -0.1578  0.5328  0.8181
  931MOL0     C28369   5.449  10.373   1.180  0.0070  0.6110 -0.1158
  931MOL0     C28370   5.435  10.258   1.095  0.3687 -0.0692  0.0357
  931MOL0     O28371   5.499  10.145   1.134  1.0468 -1.1769  0.4210
  931MOL0     C28372   5.493  10.046   1.041  0.8465  0.4243  0.2643
  931MOL0     C28373   5.587  10.044   0.938  0.1481  0.3688 -0.5706
  931MOL0     C28374   5.601   9.930   0.858  0.1944  0.4965 -0.1803
  931MOL0     C28375   5.518   9.813   0.869 -0.9320 -0.7596 -0.8662
  931MOL0     O28376   5.552   9.710   0.791  0.3320 -0.7299 -0.8951
  931MOL0     C28377   5.447   9.620   0.756 -0.1661 -0.0416 -0.7342
  931MOL0     C28378   5.368   9.681   0.636  0.4313 -0.0719  0.0848
  931MOL0     C28379   5.252   9.584   0.597  0.2816 -0.6938  0.0102
  931MOL0     C28380   5.285   9.469   0.498  1.2913  0.3150 -0.2222
  931MOL0     C28381   5.178   9.355   0.492 -0.6280  0.7703 -0.8727
  931MOL0     C28382   5.175   9.275   0.626 -0.8000 -0.1816 -0.4131
  931MOL0     C28383   5.097   9.143   0.636 -0.2518 -0.1554 -0.8288
  931MOL0     C28384   4.987   9.132   0.544  0.1044  1.1637 -0.2650
  931MOL0    Cl28385   4.856   9.269   0.551 -0.2735 -0.0294  0.1576
  931MOL0     C28386   5.416   9.827   0.962  0.1546 -0.5926  0.9840
  931MOL0     C28387   5.401   9.941   1.045  0.6156  0.7442  0.7839
  931MOL0     O28388   5.346  10.258   1.001 -1.5017  0.9975 -0.1284
  931MOL0     C28389   5.476  10.351   1.317 -0.1831  0.9637  0.5731
  931MOL0     C28390   5.464  10.442   1.419 -0.0963 -0.5546  0.4574
  931MOL0     N28391   4.947  10.665   1.980  0.5027 -0.4890  0.3084
  931MOL0     N28392   4.844  10.741   1.956 -0.5090 -0.2577 -0.2673
  931MOL0     C28393   4.109  10.853   1.149  0.1181 -0.7220  0.5443
  931MOL0     C28394   3.976  10.803   1.141 -0.1209  0.4352 -0.8894
  931MOL0     C28395   3.526  10.762   1.043  1.1085 -0.3944  0.2812
  931MOL0     C28396   3.475  10.889   1.005  0.5426  0.1019  0.4481
  931MOL0     C28397   3.349  10.905   0.940 -0.0966  0.8125 -0.1075
  931MOL0     C28398   3.258  10.801   0.928  0.6914  0.2523 -0.2070
  931MOL0     O28399   3.126  10.810   0.893  0.5152  0.7753  0.7595
  931MOL0     C28400   3.081  10.904   0.795  1.1591 -0.0949 -0.0413
  931MOL0     C28401   2.934  10.862   0.769  0.6869 -0.2665 -0.4871
  931MOL0     C28402   2.849  10.958   0.684 -0.0086 -0.8227 -0.7478
  931MOL0     C28403   2.890  10.983   0.541  0.1005  1.1396 -1.0077
  931MOL0     C28404   2.813  10.883   0.450 -0.5686  0.5764 -0.6635
  931MOL0     C28405   2.771  10.782   0.391  0.0745 -0.5106 -0.8468
  931MOL0     C28406   3.304  10.677   0.981  0.4261  0.0354 -1.0693
  931MOL0     C28407   3.431  10.658   1.036 -0.2719  0.8897 -0.3246
  931MOL0     C28408   3.457  10.512   1.095 -0.1359 -0.3763  0.6522
  931MOL0     H28409   3.804  11.093   1.181 -1.3951 -1.8005  0.5259
  931MOL0     H28410   4.040  11.185   1.230  0.2062 -0.3096 -1.8455
  931MOL0     H28411   4.372  10.905   1.108 -0.6273 -2.7253 -0.2363
  931MOL0     H28412   4.348  10.872   1.288 -0.6751 -0.1810 -0.4240
  931MOL0     H28413   4.521  11.067   1.134 -0.1511  0.6557  0.2508
  931MOL0     H28414   4.462  11.115   1.290  0.6235  0.5131 -0.0654
  931MOL0     H28415   4.642  10.874   1.203  0.6665  0.6041 -0.2008
  931MOL0     H28416   4.697  11.013   1.304  2.6818 -3.9705  1.6610
  931MOL0     H28417   4.517  10.800   1.414 -0.2815  0.8802 -0.4343
  931MOL0     H28418   4.696  10.829   1.428  0.8813  0.9308 -4.2495
  931MOL0     H28419   4.470  11.015   1.494 -0.2530 -0.8460  0.0592
  931MOL0     H28420   4.646  11.043   1.536 -1.1584  0.4397  3.0132
  931MOL0     H28421   4.507  10.979   1.728 -1.3419 -1.8139  0.4915
  931MOL0     H28422   4.458  10.829   1.637  0.4201 -1.7085  1.6437
  931MOL0     H28423   4.678  10.751   1.659 -1.9347  0.8299 -2.2100
  931MOL0     H28424   4.612  10.795   1.819 -0.2885 -2.9164 -1.7775
  931MOL0     H28425   4.829  10.942   1.672 -0.8981 -0.1117 -1.3254
  931MOL0     H28426   4.752  10.987   1.838 -3.5739 -3.7156  2.5604
  931MOL0     H28427   5.029  10.793   1.689 -3.2353 -0.2768 -1.9492
  931MOL0     H28428   5.123  10.492   1.769  0.8954 -0.5723 -0.5692
  931MOL0     H28429   5.186  10.538   1.933  3.1906  1.3706 -0.0283
  931MOL0     H28430   5.226  10.724   1.686  1.5876 -0.5208 -1.3780
  931MOL0     H28431   5.287  10.727   1.861 -0.3288 -1.0702  0.4718
  931MOL0     H28432   5.452  10.558   1.789  0.8515 -0.5819 -0.4123
  931MOL0     H28433   5.337  10.497   1.676 -2.9998  1.3801 -1.7080
  931MOL0     H28434   5.508  10.766   1.641 -2.8985  1.4795  1.9884
  931MOL0     H28435   5.556  10.602   1.597  0.9328  2.8901 -3.4944
  931MOL0     H28436   5.388  10.706   1.211 -1.6549  1.6610  2.9429
  931MOL0     H28437   5.384  10.473   0.940 -0.0304 -1.8870  2.9668
  931MOL0     H28438   5.371  10.641   0.978  0.3712  0.1239  0.0604
  931MOL0     H28439   5.235  10.527   1.009 -0.2997  1.2007  1.6118
  931MOL0     H28440   5.647  10.134   0.925 -0.3235  1.1250  1.8608
  931MOL0     H28441   5.684   9.920   0.788  0.8105 -0.2493  0.6290
  931MOL0     H28442   5.497   9.530   0.720 -0.1191 -0.8010  1.1406
  931MOL0     H28443   5.371   9.594   0.830 -1.5090  0.3866 -1.8976
  931MOL0     H28444   5.329   9.781   0.660 -0.3144 -1.0749  3.7969
  931MOL0     H28445   5.433   9.697   0.550 -1.8648  1.5191 -1.4540
  931MOL0     H28446   5.177   9.639   0.539  1.1104  2.3675  1.6447
  931MOL0     H28447   5.199   9.547   0.685  1.1635  3.0517  2.3196
  931MOL0     H28448   5.388   9.443   0.523  1.8147  2.0967 -0.3700
  931MOL0     H28449   5.301   9.500   0.394  1.5131 -3.0675 -1.3351
  931MOL0     H28450   5.086   9.397   0.450  0.4551  1.9289 -2.1764
  931MOL0     H28451   5.208   9.276   0.423  0.4133  1.1073 -0.8253
  931MOL0     H28452   5.131   9.342   0.701 -0.2726 -2.6918  2.3681
  931MOL0     H28453   5.279   9.262   0.658 -0.8059  1.4512  0.3785
  931MOL0     H28454   5.075   9.115   0.739 -2.5406  0.2806 -1.1481
  931MOL0     H28455   5.163   9.062   0.605 -0.9473 -0.7038 -0.9118
  931MOL0     H28456   4.940   9.035   0.565  3.4230 -0.7176 -0.8124
  931MOL0     H28457   5.038   9.124   0.447  1.9975  1.0941  0.6945
  931MOL0     H28458   5.351   9.742   0.980  0.3319 -0.5219  2.0323
  931MOL0     H28459   5.322   9.950   1.119  0.1244  2.7909  0.1002
  931MOL0     H28460   5.483  10.249   1.354 -0.5524  0.9383  0.5742
  931MOL0     H28461   5.467  10.397   1.518  1.8427 -2.5141 -0.4114
  931MOL0     H28462   4.187  10.779   1.132  4.0822  2.9453  1.2130
  931MOL0     H28463   3.948  10.698   1.138 -0.5800  0.5890 -3.2411
  931MOL0     H28464   3.540  10.976   0.995  0.8085  0.3308  3.3781
  931MOL0     H28465   3.320  11.002   0.903 -0.4585  1.0309  0.7318
  931MOL0     H28466   3.091  11.005   0.837 -0.2893  0.1408 -0.2121
  931MOL0     H28467   3.139  10.907   0.702 -1.4139  2.8980 -1.7598
  931MOL0     H28468   2.878  10.836   0.859  1.6715 -0.2442  0.1408
  931MOL0     H28469   2.930  10.767   0.716  1.5529 -0.8591  0.4752
  931MOL0     H28470   2.747  10.920   0.686 -0.0260 -0.8356  2.1855
  931MOL0     H28471   2.833  11.057   0.725  1.7209 -0.6771 -0.3507
  931MOL0     H28472   2.999  10.979   0.539  0.0855 -0.5006 -3.2974
  931MOL0     H28473   2.874  11.087   0.509  3.5255  2.5456  1.3067
  931MOL0     H28474   2.729  10.698   0.340 -0.2218 -0.9742  0.1346
  931MOL0     H28475   3.223  10.604   0.975 -1.5700  2.0752 -0.5527
  931MOL0     H28476   3.361  10.472   1.129 -0.6101  1.0457  1.0403
  931MOL0     H28477   3.503  10.444   1.022 -1.1849 -0.2864 -0.1180
  931MOL0     H28478   3.530  10.512   1.176  0.5526  1.1902  0.0742
  932MOL0     O28479   7.674   6.845   0.342  0.1971 -0.3433  0.5105
  932MOL0     C28480   7.641   6.858   0.458  0.5258  0.1314  0.2940
  932MOL0     O28481   7.723   6.890   0.561  0.3607  0.5421 -0.7672
  932MOL0     C28482   7.860   6.874   0.531 -0.0153 -0.5928 -0.2439
  932MOL0     C28483   7.926   6.754   0.562  0.3008 -0.3026  0.2118
  932MOL0     C28484   8.064   6.737   0.532 -0.6749 -0.9240  0.0026
  932MOL0     C28485   8.140   6.851   0.480  1.0243  0.0520 -0.2433
  932MOL0     O28486   8.272   6.828   0.485  0.4052 -0.4234 -0.0505
  932MOL0     C28487   8.350   6.908   0.391 -0.1139  0.6809  0.3861
  932MOL0     C28488   8.500   6.871   0.400  0.4250 -0.3278 -0.1544
  932MOL0     C28489   8.595   6.937   0.295 -0.7668 -0.2000 -0.5034
  932MOL0     C28490   8.723   6.841   0.278  0.0469 -0.3228  0.0458
  932MOL0     C28491   8.821   6.880   0.161 -0.2238 -0.0468  0.1014
  932MOL0     C28492   8.876   7.026   0.189  0.6320  0.6392 -0.1544
  932MOL0     C28493   8.976   7.043   0.081 -0.4678  0.2087 -0.1894
  932MOL0     C28494   9.043   7.187   0.112 -0.1305  0.0058  0.0907
  932MOL0     N28495   9.125   7.229   0.004  0.2263 -0.6333  0.5197
  932MOL0     C28496   9.253   7.200  -0.011  0.0588 -0.2647  0.7495
  932MOL0     C28497   9.298   7.266  -0.123  0.8805  0.5565 -0.0695
  932MOL0     C28498   9.421   7.243  -0.193  0.4680  0.0832 -0.4310
  932MOL0     C28499   9.508   7.373  -0.205 -0.5472 -0.3974 -1.7328
  932MOL0     C28500   9.566   7.423  -0.066 -0.2155 -0.2426  0.4919
  932MOL0     C28501   9.722   7.408  -0.057  0.4891  0.9168 -0.5226
  932MOL0     O28502   9.792   7.514  -0.114 -0.3581  0.3739 -0.1458
  932MOL0     C28503   9.928   7.528  -0.093  0.0676  0.3934  0.1690
  932MOL0     C28504  10.016   7.417  -0.068 -0.1659 -0.3345  1.2208
  932MOL0     C28505  10.153   7.444  -0.043  1.7650  0.3771  0.7197
  932MOL0     C28506  10.231   7.323   0.021  0.4200 -0.2849  0.2583
  932MOL0     C28507  10.209   7.575  -0.061  0.1740 -0.0052 -0.1190
  932MOL0     C28508  10.350   7.612  -0.029  1.5055 -0.6155  0.7252
  932MOL0     O28509  10.372   7.738   0.004  0.7099 -0.5378 -0.0744
  932MOL0     C28510  10.507   7.783   0.022 -0.3942 -0.1730 -0.3137
  932MOL0     C28511  10.538   7.871   0.118  1.3480 -0.5009 -0.0018
  932MOL0     C28512  10.667   7.909   0.136  0.2814 -1.1414 -0.1237
  932MOL0     C28513  10.771   7.886   0.050  0.0936  0.1864 -0.4737
  932MOL0     O28514  10.894   7.925   0.054 -0.3475 -0.0848  0.0743
  932MOL0     C28515  10.922   8.057   0.095  0.2750 -0.5389 -0.5118
  932MOL0     C28516  11.057   8.097   0.046 -0.0909 -0.1886  0.1787
  932MOL0     C28517  11.089   8.240   0.098  0.1772  0.2621  0.0027
  932MOL0     C28518  11.200   8.303   0.007 -1.5170 -0.6477 -0.3510
  932MOL0     C28519  11.277   8.412   0.076 -0.3229  0.4294 -0.1276
  932MOL0     C28520  11.396   8.452  -0.005 -0.4410  0.0773  0.8893
  932MOL0     C28521  11.361   8.549  -0.115 -0.8516 -0.0549  0.2892
  932MOL0     C28522  11.475   8.645  -0.153  0.4049  0.5350 -0.1158
  932MOL0    Cl28523  11.405   8.774  -0.250  0.0108  0.4708 -0.0741
  932MOL0     C28524  10.734   7.815  -0.063 -1.9397  0.2530 -0.6838
  932MOL0     C28525  10.606   7.761  -0.079 -0.0931  1.0644 -0.2275
  932MOL0     O28526  10.435   7.527  -0.043 -0.8718 -0.1781  1.0318
  932MOL0     C28527  10.121   7.681  -0.097 -0.2707  1.0143  0.8427
  932MOL0     C28528   9.980   7.656  -0.127 -1.6989 -0.9270 -0.4684
  932MOL0     N28529   9.185   7.333  -0.165  1.1677 -0.1483  0.0371
  932MOL0     N28530   9.081   7.317  -0.086  0.0732 -0.4073 -0.0941
  932MOL0     C28531   8.066   6.966   0.447  0.1571 -0.8415  0.0543
  932MOL0     C28532   7.934   6.976   0.478 -0.5563 -0.8982  0.3329
  932MOL0     C28533   7.514   6.814   0.509  0.1573 -0.0473 -0.6170
  932MOL0     C28534   7.462   6.861   0.629  0.5452 -0.1900 -0.6096
  932MOL0     C28535   7.332   6.839   0.668  0.8930 -0.3805  0.7643
  932MOL0     C28536   7.253   6.759   0.589  0.8044  1.2842 -0.0450
  932MOL0     O28537   7.121   6.718   0.597  0.1952 -0.2052  0.1172
  932MOL0     C28538   7.026   6.812   0.632 -0.7353  0.4862 -0.9380
  932MOL0     C28539   6.893   6.744   0.658 -0.1175 -0.2560  0.2205
  932MOL0     C28540   6.882   6.653   0.777  1.0066 -0.1813  0.5053
  932MOL0     C28541   6.746   6.590   0.811  0.0506  0.8760  0.7691
  932MOL0     C28542   6.705   6.529   0.680 -0.3874 -0.7974  0.3509
  932MOL0     C28543   6.690   6.485   0.573 -0.4049  0.2074 -0.2679
  932MOL0     C28544   7.307   6.700   0.476  0.0498 -1.2926 -0.2534
  932MOL0     C28545   7.433   6.731   0.429 -0.3683  0.8931 -0.5422
  932MOL0     C28546   7.469   6.673   0.289 -0.5467 -0.2146  0.0130
  932MOL0     H28547   7.864   6.676   0.603 -2.5973  2.8244  2.2999
  932MOL0     H28548   8.117   6.646   0.559 -1.1903 -1.2274  0.0049
  932MOL0     H28549   8.351   7.015   0.416  2.3393  0.2337  2.6165
  932MOL0     H28550   8.327   6.903   0.284  3.7133 -1.4717 -0.5300
  932MOL0     H28551   8.532   6.919   0.493 -1.2074  0.1047  0.2020
  932MOL0     H28552   8.515   6.764   0.419  0.0868 -0.1608  1.0965
  932MOL0     H28553   8.560   6.941   0.192 -0.1436  1.9723 -0.6946
  932MOL0     H28554   8.601   7.043   0.322 -1.7452  0.3419 -2.2662
  932MOL0     H28555   8.778   6.832   0.372 -0.8814 -1.0508  0.5325
  932MOL0     H28556   8.679   6.743   0.260 -0.7416  0.2610 -1.4425
  932MOL0     H28557   8.772   6.879   0.063  1.2095 -0.9914 -0.6283
  932MOL0     H28558   8.904   6.810   0.159 -1.3570 -1.4068 -0.9678
  932MOL0     H28559   8.798   7.103   0.182 -0.2304  0.1302  2.6497
  932MOL0     H28560   8.915   7.036   0.291 -0.7958 -0.5553  0.5351
  932MOL0     H28561   8.914   7.048  -0.009 -1.4910 -0.0975  0.4801
  932MOL0     H28562   9.048   6.961   0.081 -0.0729  0.5509 -0.4689
  932MOL0     H28563   8.966   7.265   0.118  1.4911  1.5351  2.2323
  932MOL0     H28564   9.086   7.191   0.212  0.6517 -1.7394 -0.1421
  932MOL0     H28565   9.318   7.128   0.037  2.9080  1.4860 -0.1801
  932MOL0     H28566   9.391   7.213  -0.294 -1.8314 -0.4631  0.3702
  932MOL0     H28567   9.487   7.168  -0.148  0.4867  0.1293 -0.3818
  932MOL0     H28568   9.582   7.360  -0.285  0.8823  0.9004 -0.6687
  932MOL0     H28569   9.440   7.451  -0.239 -0.1282  1.6344  1.7013
  932MOL0     H28570   9.541   7.527  -0.047 -3.1675 -0.8282  0.1829
  932MOL0     H28571   9.523   7.363   0.015  0.9343  0.9057  2.0149
  932MOL0     H28572   9.740   7.412   0.051 -2.1267 -0.0990  0.0340
  932MOL0     H28573   9.745   7.309  -0.098 -1.6201 -0.9075  2.2738
  932MOL0     H28574   9.981   7.315  -0.062 -3.5318  0.6998  1.0518
  932MOL0     H28575  10.334   7.342   0.050  0.7894 -2.9404  0.9419
  932MOL0     H28576  10.221   7.245  -0.056 -2.0554  0.1268  0.0664
  932MOL0     H28577  10.188   7.299   0.119  0.1964  0.6272  0.3882
  932MOL0     H28578  10.455   7.904   0.180  0.8521 -1.2485 -0.2538
  932MOL0     H28579  10.697   7.970   0.220 -0.7003 -0.7320 -0.0564
  932MOL0     H28580  10.845   8.131   0.072  1.0774 -0.4060 -2.9918
  932MOL0     H28581  10.937   8.043   0.203  0.1256 -1.3352 -0.5873
  932MOL0     H28582  11.143   8.034   0.071  1.7101  1.5123 -1.4543
  932MOL0     H28583  11.053   8.092  -0.063  1.9233  0.9565  0.0019
  932MOL0     H28584  11.132   8.238   0.199  3.8917 -0.6622 -1.4419
  932MOL0     H28585  10.996   8.297   0.090  0.3011  0.5276  0.4625
  932MOL0     H28586  11.165   8.333  -0.092 -1.4326  1.0970  0.1227
  932MOL0     H28587  11.269   8.219  -0.003 -3.0481 -3.1233  5.6075
  932MOL0     H28588  11.203   8.480   0.120 -1.2728 -1.9787  2.2613
  932MOL0     H28589  11.311   8.367   0.170 -1.3349 -0.7010 -0.2871
  932MOL0     H28590  11.444   8.364  -0.047  2.7380  1.5017  1.2228
  932MOL0     H28591  11.463   8.505   0.064  2.1472 -1.9785  0.0906
  932MOL0     H28592  11.272   8.606  -0.089 -1.5811 -0.8018 -0.5115
  932MOL0     H28593  11.346   8.492  -0.207  1.4762  0.8302 -0.7309
  932MOL0     H28594  11.560   8.595  -0.201 -0.0777 -2.1539  1.5913
  932MOL0     H28595  11.520   8.684  -0.060  5.8828  2.2849 -3.0127
  932MOL0     H28596  10.807   7.791  -0.140  0.1910  0.7420  1.0770
  932MOL0     H28597  10.596   7.695  -0.165  6.0692 -0.5430 -0.1624
  932MOL0     H28598  10.166   7.779  -0.102  0.8554  0.7015  3.2833
  932MOL0     H28599   9.914   7.740  -0.146  0.0251  0.9351  1.3047
  932MOL0     H28600   8.116   7.056   0.411 -1.0386 -0.1145  0.1794
  932MOL0     H28601   7.882   7.070   0.465  0.4664 -0.2407  0.7918
  932MOL0     H28602   7.519   6.920   0.700 -2.0439  1.4278  0.2332
  932MOL0     H28603   7.293   6.892   0.754 -0.3128  0.9930 -0.5562
  932MOL0     H28604   7.056   6.873   0.717  0.4803 -2.7879  1.2112
  932MOL0     H28605   7.019   6.889   0.555 -0.8514  0.3087 -1.1051
  932MOL0     H28606   6.878   6.689   0.564  0.3429  1.3358 -0.8233
  932MOL0     H28607   6.810   6.814   0.657 -0.5107 -0.7188  0.0036
  932MOL0     H28608   6.956   6.573   0.767  0.4438 -0.4186 -3.3058
  932MOL0     H28609   6.902   6.712   0.867  1.0115 -0.4949  0.7152
  932MOL0     H28610   6.683   6.668   0.854 -1.3120  1.7517 -2.5366
  932MOL0     H28611   6.759   6.504   0.878  2.8555  2.2488  2.1708
  932MOL0     H28612   6.675   6.448   0.473 -0.2780  0.8268 -0.5221
  932MOL0     H28613   7.247   6.630   0.417  1.4291 -1.0508 -2.0304
  932MOL0     H28614   7.405   6.591   0.255  1.3538 -1.7043 -0.1458
  932MOL0     H28615   7.473   6.755   0.218 -1.4540 -2.5702 -2.9573
  932MOL0     H28616   7.568   6.627   0.284 -0.4072  0.1893 -1.1270
  933MOL0     O28617   6.252   9.250   9.886 -0.2020  0.0593  0.2885
  933MOL0     C28618   6.266   9.326   9.792 -1.3116 -1.1276  0.6565
  933MOL0     O28619   6.168   9.405   9.744 -0.4419 -0.1138  0.6229
  933MOL0     C28620   6.033   9.384   9.759  0.1395 -1.0298 -0.3807
  933MOL0     C28621   5.943   9.484   9.717 -0.3624  0.3536 -0.4649
  933MOL0     C28622   5.805   9.478   9.740 -0.2725  0.3029 -0.6921
  933MOL0     C28623   5.749   9.368   9.798  0.5019  0.2128 -0.1145
  933MOL0     O28624   5.615   9.340   9.834 -0.1539 -0.4055 -0.6074
  933MOL0     C28625   5.536   9.441   9.886  0.5009  0.2150  0.4078
  933MOL0     C28626   5.392   9.400   9.879  0.6670 -1.0296 -0.2745
  933MOL0     C28627   5.368   9.277   9.961  0.2137  0.9767  0.2582
  933MOL0     C28628   5.363   9.131   9.902 -0.0438 -0.9069  0.7816
  933MOL0     C28629   5.325   9.036  10.009 -0.5940 -0.1841 -0.8035
  933MOL0     C28630   5.330   8.895   9.965 -0.3496 -0.0978  0.5400
  933MOL0     C28631   5.286   8.784  10.057  0.9607  0.0158 -0.8919
  933MOL0     C28632   5.364   8.796  10.186 -0.3005 -0.7785  0.6859
  933MOL0     N28633   5.330   8.684  10.274  1.2230 -0.6653  0.9027
  933MOL0     C28634   5.398   8.574  10.289 -0.3800  0.8078 -0.5295
  933MOL0     C28635   5.348   8.509  10.392  1.0011  0.4825  0.1971
  933MOL0     C28636   5.377   8.383  10.471  0.5517 -0.1172 -0.4410
  933MOL0     C28637   5.447   8.416  10.605 -0.1210 -1.5006  0.4485
  933MOL0     C28638   5.518   8.305  10.679 -0.0250 -0.3109 -0.9544
  933MOL0     C28639   5.431   8.215  10.774  0.2997 -0.1840  0.5608
  933MOL0     O28640   5.386   8.301  10.883 -0.9595 -0.1024 -0.3219
  933MOL0     C28641   5.284   8.251  10.949 -0.3740  0.4818 -0.7050
  933MOL0     C28642   5.251   8.114  10.952 -1.0836  0.6708  0.3199
  933MOL0     C28643   5.149   8.067  11.039  0.4805  0.4943 -1.3915
  933MOL0     C28644   5.118   7.916  11.047 -0.2555 -1.2702 -0.3428
  933MOL0     C28645   5.095   8.159  11.138  0.2874  0.9598  0.3859
  933MOL0     C28646   4.982   8.111  11.228  0.2242 -0.0894  0.0720
  933MOL0     O28647   4.883   8.041  11.169 -0.0152  0.1654 -1.1185
  933MOL0     C28648   4.794   7.980  11.258 -0.0047  0.6215 -0.2195
  933MOL0     C28649   4.843   7.893  11.355  0.4591 -0.3445 -0.4391
  933MOL0     C28650   4.750   7.838  11.445 -0.6957 -0.5559  0.0533
  933MOL0     C28651   4.625   7.874  11.440  0.5841 -0.1131 -0.3862
  933MOL0     O28652   4.546   7.804  11.523  0.9217 -0.5185  0.8170
  933MOL0     C28653   4.412   7.781  11.484  0.2033 -0.1113 -0.1531
  933MOL0     C28654   4.359   7.712  11.612  0.0655 -0.2604 -0.4984
  933MOL0     C28655   4.261   7.793  11.697 -0.0251  0.1049 -0.7020
  933MOL0     C28656   4.120   7.810  11.638  0.1769  0.3921 -0.1370
  933MOL0     C28657   4.041   7.909  11.731  0.2805 -0.1048  0.8647
  933MOL0     C28658   3.894   7.944  11.690 -0.0139  0.3870  0.9878
  933MOL0     C28659   3.832   8.046  11.772 -1.3964 -0.2515  0.2283
  933MOL0     C28660   3.701   8.107  11.727  0.9507  0.4957  1.3936
  933MOL0    Cl28661   3.589   7.975  11.700 -0.8170  0.4205 -0.1478
  933MOL0     C28662   4.580   7.966  11.344 -0.4520  0.2779  0.2880
  933MOL0     C28663   4.661   8.021  11.257 -0.0589  0.2873  0.6240
  933MOL0     O28664   4.985   8.166  11.338 -0.4787  0.2907 -0.8821
  933MOL0     C28665   5.122   8.293  11.123 -0.6009 -0.3552 -0.6061
  933MOL0     C28666   5.221   8.341  11.034  0.7800 -0.0634  0.5975
  933MOL0     N28667   5.237   8.582  10.426  0.6065  0.4160 -0.2260
  933MOL0     N28668   5.230   8.691  10.362  0.6703 -0.2256  0.5268
  933MOL0     C28669   5.839   9.264   9.834  0.7758 -0.4074  0.2405
  933MOL0     C28670   5.973   9.275   9.813 -0.0174  1.3064  0.2918
  933MOL0     C28671   6.405   9.356   9.735 -0.3324 -0.0046  0.3852
  933MOL0     C28672   6.420   9.360   9.591  0.4366  0.6895  0.1976
  933MOL0     C28673   6.542   9.407   9.547  0.2915 -0.3648 -0.1791
  933MOL0     C28674   6.651   9.441   9.627  0.2947  0.0664  0.4615
  933MOL0     O28675   6.770   9.478   9.566  0.3354  0.2992  0.2895
  933MOL0     C28676   6.895   9.492   9.644  0.3899 -0.4434  0.2613
  933MOL0     C28677   6.991   9.568   9.552 -0.1432 -0.3569 -0.4724
  933MOL0     C28678   6.994   9.510   9.418  0.3517  0.7496  0.0937
  933MOL0     C28679   7.098   9.562   9.315 -0.3161 -0.9618  0.2040
  933MOL0     C28680   7.080   9.702   9.267 -0.1930 -0.3957 -0.3367
  933MOL0     C28681   7.053   9.809   9.224  0.5271 -1.0690 -0.2604
  933MOL0     C28682   6.633   9.434   9.769  0.5336 -0.8454 -0.4966
  933MOL0     C28683   6.515   9.389   9.823  0.8197 -0.8544 -0.3978
  933MOL0     C28684   6.513   9.397   9.971 -0.1300  1.2553  0.4234
  933MOL0     H28685   5.986   9.574   9.674 -1.4151  2.3120  2.2569
  933MOL0     H28686   5.743   9.560   9.704  1.1798  1.0724 -1.5440
  933MOL0     H28687   5.545   9.538   9.837  5.0531  0.0592  0.5108
  933MOL0     H28688   5.560   9.466   9.990  0.1962  0.3813  0.4415
  933MOL0     H28689   5.335   9.486   9.916 -0.2777 -0.5644 -2.6198
  933MOL0     H28690   5.365   9.385   9.774  2.8526 -1.1333 -0.8621
  933MOL0     H28691   5.435   9.281  10.048  0.6200 -0.3402  0.0182
  933MOL0     H28692   5.272   9.305  10.007  0.1837  1.5944 -0.1646
  933MOL0     H28693   5.288   9.129   9.822  2.1522 -0.9483 -1.3819
  933MOL0     H28694   5.458   9.111   9.852  1.0731  0.8478  2.1070
  933MOL0     H28695   5.223   9.056  10.042  0.0701 -2.0427  2.9546
  933MOL0     H28696   5.385   9.057  10.098 -3.0268 -0.4034  0.9868
  933MOL0     H28697   5.276   8.888   9.870  2.4200  0.7801 -1.2107
  933MOL0     H28698   5.436   8.874   9.953  0.0405  1.3226  1.2711
  933MOL0     H28699   5.311   8.689  10.009 -1.6078 -1.9001  1.2727
  933MOL0     H28700   5.177   8.785  10.067  0.6245 -2.3042 -3.3038
  933MOL0     H28701   5.471   8.805  10.166 -0.7696  0.3414 -1.6693
  933MOL0     H28702   5.336   8.890  10.234 -0.7149  0.3840 -1.6892
  933MOL0     H28703   5.488   8.562  10.228 -1.0221  2.6153 -1.9295
  933MOL0     H28704   5.436   8.312  10.413  1.8185  0.1919  0.4254
  933MOL0     H28705   5.279   8.340  10.491  0.3687  1.4073  2.5806
  933MOL0     H28706   5.522   8.489  10.574 -0.0485 -2.8569 -2.9127
  933MOL0     H28707   5.378   8.464  10.675  2.6019  0.0924  2.2705
  933MOL0     H28708   5.582   8.252  10.607  0.4390 -1.7166  0.4391
  933MOL0     H28709   5.595   8.352  10.741  0.2843 -3.0312  0.8930
  933MOL0     H28710   5.359   8.172  10.704  3.3004 -1.0238 -2.2275
  933MOL0     H28711   5.489   8.127  10.805 -1.4287 -1.7587 -0.4589
  933MOL0     H28712   5.295   8.037  10.890  1.8841  0.3782  2.5865
  933MOL0     H28713   5.190   7.860  10.987  0.7892 -1.4136  0.9964
  933MOL0     H28714   5.017   7.907  11.006 -1.0076  4.9883 -0.7760
  933MOL0     H28715   5.134   7.882  11.150  1.8589  1.8341  0.4873
  933MOL0     H28716   4.948   7.868  11.371 -0.0862 -3.9113 -1.6138
  933MOL0     H28717   4.787   7.771  11.523  2.1421  0.2935 -0.4332
  933MOL0     H28718   4.358   7.876  11.479 -0.8730 -0.5528  2.1792
  933MOL0     H28719   4.386   7.724  11.394 -2.1903 -3.0366  2.2026
  933MOL0     H28720   4.309   7.620  11.580 -0.6737  0.0561 -0.2599
  933MOL0     H28721   4.436   7.684  11.685 -2.2280 -0.3635  2.0203
  933MOL0     H28722   4.310   7.888  11.719 -1.2332  0.0015  3.1880
  933MOL0     H28723   4.238   7.732  11.785 -3.5105 -1.9742 -2.7714
  933MOL0     H28724   4.066   7.715  11.636 -1.4405  1.1712  2.2721
  933MOL0     H28725   4.125   7.855  11.539 -1.0067  1.8835  0.4550
  933MOL0     H28726   4.047   7.873  11.834 -2.2021 -1.8365  0.4968
  933MOL0     H28727   4.109   7.995  11.729 -0.3754  0.4081 -0.3048
  933MOL0     H28728   3.833   7.855  11.675  1.7206 -0.8440  0.8342
  933MOL0     H28729   3.917   7.991  11.594  0.4047 -1.3236  0.2096
  933MOL0     H28730   3.893   8.135  11.792 -0.4363 -0.4290 -1.6436
  933MOL0     H28731   3.818   8.005  11.872 -0.9995 -0.3571  0.2429
  933MOL0     H28732   3.728   8.159  11.634 -0.8188 -0.8046  0.0958
  933MOL0     H28733   3.669   8.174  11.807  0.7170  0.5370  1.2645
  933MOL0     H28734   4.477   8.000  11.339 -0.0493  1.6842  1.1281
  933MOL0     H28735   4.619   8.082  11.178  1.8616 -1.2465 -1.7164
  933MOL0     H28736   5.070   8.374  11.174  2.7637  3.1293 -2.2520
  933MOL0     H28737   5.243   8.447  11.043 -1.3855  0.2598  4.6083
  933MOL0     H28738   5.790   9.178   9.878 -2.4153  1.7459  1.2796
  933MOL0     H28739   6.033   9.186   9.829 -1.1970  0.0964 -1.6054
  933MOL0     H28740   6.346   9.342   9.513  0.7196 -1.2317  0.3380
  933MOL0     H28741   6.546   9.414   9.439 -3.4352 -2.6454 -0.6319
  933MOL0     H28742   6.875   9.540   9.740 -0.5132 -1.8770  0.8283
  933MOL0     H28743   6.946   9.399   9.669 -0.9973 -1.4947 -0.6473
  933MOL0     H28744   7.094   9.574   9.587 -0.2449  2.8608 -0.4675
  933MOL0     H28745   6.956   9.671   9.542 -1.1853 -0.7580 -1.1399
  933MOL0     H28746   7.005   9.402   9.432 -2.0153  0.6985  2.3963
  933MOL0     H28747   6.896   9.530   9.373 -1.0534 -0.2995  2.4994
  933MOL0     H28748   7.108   9.499   9.225  0.0329  0.0026 -0.4476
  933MOL0     H28749   7.198   9.554   9.358  0.3462  1.6729 -0.6611
  933MOL0     H28750   7.027   9.897   9.169 -0.9084 -0.3724  1.4412
  933MOL0     H28751   6.715   9.449   9.838 -0.8814  2.4501  0.6554
  933MOL0     H28752   6.599   9.447  10.017 -0.5772  2.3121  0.1480
  933MOL0     H28753   6.434   9.466  10.001 -1.8852 -2.0011  4.1588
  933MOL0     H28754   6.495   9.293   9.998 -1.4664  0.1481 -3.9784
  934MOL0     O28755   5.265   2.628   5.091 -0.1549 -0.3758 -0.2704
  934MOL0     C28756   5.368   2.664   5.031  0.0461 -0.9739  0.7992
  934MOL0     O28757   5.372   2.697   4.889 -0.3799 -0.3801 -0.6376
  934MOL0     C28758   5.265   2.651   4.825  0.8099 -0.1035 -0.1686
  934MOL0     C28759   5.279   2.533   4.755  0.5394  0.4517 -0.0332
  934MOL0     C28760   5.185   2.493   4.661 -0.5269  0.7030 -0.4086
  934MOL0     C28761   5.062   2.568   4.648 -0.2470  0.3436  0.8369
  934MOL0     O28762   4.956   2.534   4.561  0.4350 -0.2180 -0.1991
  934MOL0     C28763   4.874   2.626   4.501  0.4927  0.0324 -0.2536
  934MOL0     C28764   4.815   2.571   4.372 -0.3402 -0.2263 -0.2324
  934MOL0     C28765   4.733   2.434   4.403 -0.3199  0.6506  0.2042
  934MOL0     C28766   4.646   2.388   4.291 -1.1735  0.2917  0.7514
  934MOL0     C28767   4.572   2.262   4.319  0.6567  0.3904  0.3714
  934MOL0     C28768   4.523   2.198   4.185 -0.0294  0.2359 -0.4699
  934MOL0     C28769   4.413   2.295   4.117 -0.4141  0.5131 -0.1944
  934MOL0     C28770   4.456   2.321   3.967  0.8245 -0.4488  0.0823
  934MOL0     N28771   4.570   2.424   3.965  0.7269 -0.0986 -0.4008
  934MOL0     C28772   4.704   2.408   3.922  1.0483  0.5681  0.9617
  934MOL0     C28773   4.754   2.530   3.945  0.3875 -1.5863  1.0356
  934MOL0     C28774   4.897   2.553   3.951 -0.4025 -0.3843  0.0671
  934MOL0     C28775   4.955   2.643   3.843  0.3812 -0.2626  0.8023
  934MOL0     C28776   4.958   2.575   3.710 -0.5380 -0.1176  0.0712
  934MOL0     C28777   5.004   2.659   3.592  0.5965 -0.4209 -0.6687
  934MOL0     O28778   4.910   2.762   3.570 -0.4677  0.3346  0.3342
  934MOL0     C28779   4.962   2.883   3.536 -0.2883  0.3712  0.6460
  934MOL0     C28780   4.896   2.992   3.579  0.0107  0.5874 -0.1204
  934MOL0     C28781   4.955   3.125   3.564 -0.4045 -0.3943 -1.1211
  934MOL0     C28782   4.873   3.236   3.631 -0.2474  0.9464  0.4571
  934MOL0     C28783   5.068   3.146   3.490  0.3053 -0.4182 -0.3304
  934MOL0     C28784   5.114   3.279   3.478 -0.6874 -1.1425 -0.1502
  934MOL0     O28785   5.220   3.307   3.559  0.6760  0.4736 -0.0514
  934MOL0     C28786   5.282   3.430   3.556 -0.2596  0.5249 -0.2363
  934MOL0     C28787   5.419   3.436   3.563 -0.4611  0.4752 -0.7925
  934MOL0     C28788   5.485   3.550   3.592 -0.4857  0.6880 -0.4987
  934MOL0     C28789   5.411   3.666   3.605  0.7894 -0.2734 -0.2958
  934MOL0     O28790   5.482   3.788   3.601 -0.6673 -0.1722  0.2608
  934MOL0     C28791   5.590   3.806   3.698  0.3922 -1.0851  0.6555
  934MOL0     C28792   5.547   3.844   3.841 -0.3518 -0.8717  0.1530
  934MOL0     C28793   5.663   3.895   3.923  0.0849 -0.5400  0.5558
  934MOL0     C28794   5.617   3.917   4.065  1.1029  0.8005 -0.6453
  934MOL0     C28795   5.720   3.972   4.171 -0.4058 -0.4713  0.7566
  934MOL0     C28796   5.863   3.905   4.175 -0.5963  0.6880  0.4196
  934MOL0     C28797   5.852   3.759   4.191 -0.6637  0.3000  0.5533
  934MOL0     C28798   5.982   3.686   4.258 -0.1615 -0.6362  0.7630
  934MOL0    Cl28799   5.951   3.515   4.266  0.0056  0.2593 -0.1341
  934MOL0     C28800   5.272   3.664   3.591  0.4416 -0.8235  0.1204
  934MOL0     C28801   5.204   3.541   3.585  0.2686 -0.5271  0.6947
  934MOL0     O28802   5.060   3.364   3.397  0.2722 -0.1269 -0.4829
  934MOL0     C28803   5.139   3.035   3.442  0.0457 -0.4793 -0.2008
  934MOL0     C28804   5.090   2.904   3.470 -0.3806 -1.0485  0.4474
  934MOL0     N28805   4.654   2.623   3.987 -0.3527 -0.1344 -0.2836
  934MOL0     N28806   4.552   2.550   4.010  0.9681  0.2498 -0.0160
  934MOL0     C28807   5.044   2.683   4.731  0.3275 -0.8305 -0.3207
  934MOL0     C28808   5.152   2.724   4.811  0.5223  0.6662  0.0027
  934MOL0     C28809   5.487   2.697   5.115 -0.1402  0.7854  0.4972
  934MOL0     C28810   5.577   2.585   5.137 -0.1166 -0.2336 -0.3179
  934MOL0     C28811   5.695   2.603   5.205  0.1864  0.3927 -0.2560
  934MOL0     C28812   5.735   2.726   5.251  0.0990  0.1875  1.0919
  934MOL0     O28813   5.853   2.734   5.316 -0.7635  0.6959 -0.2198
  934MOL0     C28814   5.905   2.866   5.331  1.0565 -0.3629 -0.3130
  934MOL0     C28815   6.058   2.886   5.341  0.1993  0.4145  0.1434
  934MOL0     C28816   6.120   2.809   5.460  0.5343 -0.0430 -0.9593
  934MOL0     C28817   6.273   2.831   5.481 -0.9293  0.1986 -0.4036
  934MOL0     C28818   6.322   2.717   5.563 -0.2183  0.3151  0.5683
  934MOL0     C28819   6.338   2.623   5.630  0.8329  0.4487 -0.0110
  934MOL0     C28820   5.639   2.831   5.226 -0.5425  0.5918 -1.6322
  934MOL0     C28821   5.520   2.819   5.155  0.0696 -0.2091  0.4657
  934MOL0     C28822   5.435   2.938   5.145 -0.3935 -0.5518  0.7279
  934MOL0     H28823   5.366   2.469   4.765 -1.0475 -1.4278  3.2238
  934MOL0     H28824   5.212   2.405   4.603  1.7309  1.4242 -0.5568
  934MOL0     H28825   4.925   2.721   4.485 -1.3145  1.3707  1.4391
  934MOL0     H28826   4.785   2.648   4.561  0.5685 -1.9052  0.6258
  934MOL0     H28827   4.752   2.651   4.331 -1.3706  2.0558  5.0039
  934MOL0     H28828   4.898   2.555   4.302 -0.1138  0.9366 -0.2609
  934MOL0     H28829   4.813   2.361   4.422  1.3223  1.8137 -1.7298
  934MOL0     H28830   4.666   2.446   4.488 -3.1307  4.5882 -2.2348
  934MOL0     H28831   4.576   2.466   4.263 -2.7909 -1.2950  0.1849
  934MOL0     H28832   4.723   2.378   4.213 -1.2948  0.5383  0.6008
  934MOL0     H28833   4.487   2.281   4.385  0.1254 -3.1798  0.9228
  934MOL0     H28834   4.633   2.186   4.368  5.0255  2.0477 -1.9844
  934MOL0     H28835   4.606   2.176   4.118  2.3405  1.1136  2.0101
  934MOL0     H28836   4.474   2.106   4.217  0.1902 -0.3560 -1.7656
  934MOL0     H28837   4.402   2.393   4.165  2.0542 -0.4702  2.6510
  934MOL0     H28838   4.315   2.247   4.109  0.0435 -0.9003  1.9544
  934MOL0     H28839   4.508   2.233   3.928  3.9198  0.9990  0.6810
  934MOL0     H28840   4.375   2.347   3.899  1.7104  1.5165 -0.2858
  934MOL0     H28841   4.755   2.313   3.912 -3.2518 -2.2570  3.0744
  934MOL0     H28842   4.944   2.455   3.959 -3.6830 -2.0067  1.2124
  934MOL0     H28843   4.916   2.602   4.047  0.2643  0.0378 -0.2738
  934MOL0     H28844   4.894   2.730   3.819 -1.3424 -1.6062  0.1092
  934MOL0     H28845   5.057   2.665   3.877 -0.2136  2.0905  1.2833
  934MOL0     H28846   5.021   2.486   3.715  3.8381  2.6668 -0.2244
  934MOL0     H28847   4.855   2.545   3.690  0.0194 -0.7917 -2.0778
  934MOL0     H28848   5.102   2.697   3.622 -0.4796  1.4551  0.6434
  934MOL0     H28849   5.017   2.593   3.505 -0.1827 -2.0291  0.3876
  934MOL0     H28850   4.810   2.980   3.644  1.2132 -0.2766  1.3614
  934MOL0     H28851   4.807   3.289   3.562  0.5530  3.0726  1.2633
  934MOL0     H28852   4.947   3.308   3.667  3.9715 -1.8483 -1.6205
  934MOL0     H28853   4.801   3.197   3.704  0.1826  0.6213  0.7143
  934MOL0     H28854   5.467   3.339   3.554 -2.0961 -0.4210 -0.3005
  934MOL0     H28855   5.594   3.549   3.592 -0.4190 -1.6810  1.5361
  934MOL0     H28856   5.662   3.724   3.708 -0.5399 -2.4644 -2.7532
  934MOL0     H28857   5.650   3.880   3.645 -3.3686 -0.0300 -2.5807
  934MOL0     H28858   5.472   3.922   3.830 -0.6600 -0.8901  1.8382
  934MOL0     H28859   5.492   3.759   3.883  0.5966 -0.9470  1.2897
  934MOL0     H28860   5.705   3.987   3.880  0.3422 -1.0455 -0.3142
  934MOL0     H28861   5.736   3.813   3.922 -0.7211 -1.3265  2.4695
  934MOL0     H28862   5.583   3.821   4.105 -1.6713  1.7024 -0.6711
  934MOL0     H28863   5.525   3.976   4.069  1.3560  1.2217 -0.8880
  934MOL0     H28864   5.740   4.074   4.137  1.9164 -1.4851 -1.2139
  934MOL0     H28865   5.676   3.972   4.271 -0.7979  2.9354  0.6916
  934MOL0     H28866   5.907   3.942   4.268 -3.1993 -0.2583  2.1533
  934MOL0     H28867   5.929   3.921   4.089 -2.6031 -1.0372 -1.5853
  934MOL0     H28868   5.851   3.722   4.088 -4.9356  1.0259  0.1308
  934MOL0     H28869   5.760   3.722   4.236 -0.9030  0.9658  0.6268
  934MOL0     H28870   5.992   3.726   4.359 -0.5477 -2.8177  1.7309
  934MOL0     H28871   6.061   3.716   4.189 -2.9807  4.7089 -0.6939
  934MOL0     H28872   5.231   3.763   3.606  3.5197  0.0417  5.3937
  934MOL0     H28873   5.095   3.538   3.587  0.1995  1.1245  0.4501
  934MOL0     H28874   5.236   3.040   3.394  0.1116 -0.9392 -0.1176
  934MOL0     H28875   5.133   2.817   3.423 -1.8778 -0.0817 -3.0777
  934MOL0     H28876   4.952   2.741   4.732  0.3703 -0.7440 -1.0891
  934MOL0     H28877   5.153   2.824   4.854  1.4944  0.5418  0.3004
  934MOL0     H28878   5.545   2.492   5.092 -2.4315  1.3295 -2.1144
  934MOL0     H28879   5.748   2.509   5.207 -3.4005 -1.8327 -1.0713
  934MOL0     H28880   5.887   2.923   5.239 -0.0646 -0.4992 -0.1937
  934MOL0     H28881   5.848   2.908   5.415 -1.9872 -0.3768 -2.2235
  934MOL0     H28882   6.065   2.993   5.361 -0.8073  0.0975  2.5970
  934MOL0     H28883   6.100   2.859   5.243 -0.9708  0.8511 -0.5040
  934MOL0     H28884   6.054   2.832   5.544  1.3225  2.1796 -0.8900
  934MOL0     H28885   6.106   2.702   5.440  0.9593 -0.3837  0.3997
  934MOL0     H28886   6.280   2.925   5.536  2.3754 -1.4799  2.4761
  934MOL0     H28887   6.326   2.823   5.385 -2.4807 -2.1695 -1.1603
  934MOL0     H28888   6.382   2.562   5.706  1.3153  0.0784 -0.5720
  934MOL0     H28889   5.671   2.919   5.280  4.6135 -1.9067  0.0174
  934MOL0     H28890   5.336   2.907   5.179 -1.7821  3.4177  0.8281
  934MOL0     H28891   5.451   3.031   5.200 -1.7021  0.1537 -0.0270
  934MOL0     H28892   5.428   2.968   5.040 -0.7022 -0.7230  0.6978
  935MOL0     O28893   3.752   1.739   5.333 -0.3266 -0.2542 -0.0616
  935MOL0     C28894   3.748   1.830   5.257 -0.2014 -0.2207 -0.1375
  935MOL0     O28895   3.852   1.927   5.253  0.6180 -0.0446  0.7736
  935MOL0     C28896   3.955   1.896   5.330 -0.1123  0.2214 -0.2056
  935MOL0     C28897   3.983   1.953   5.454 -0.8373  0.3534  0.4200
  935MOL0     C28898   4.110   1.942   5.505 -0.2575 -0.2312  0.2754
  935MOL0     C28899   4.215   1.880   5.440 -0.8315  0.1824 -1.0345
  935MOL0     O28900   4.337   1.867   5.515  0.2342 -0.4018  0.5163
  935MOL0     C28901   4.427   1.760   5.470  0.1709 -0.3762  0.3278
  935MOL0     C28902   4.557   1.777   5.535  0.2003 -0.5185 -0.7227
  935MOL0     C28903   4.637   1.889   5.470 -0.4751 -0.3875 -0.8947
  935MOL0     C28904   4.791   1.865   5.488 -0.1854 -0.1327 -0.2750
  935MOL0     C28905   4.850   1.908   5.624  0.9804  0.7142 -0.0976
  935MOL0     C28906   4.993   1.972   5.620  0.2482  0.1217  0.3409
  935MOL0     C28907   5.063   1.987   5.759 -0.2920  0.7107  0.0426
  935MOL0     C28908   5.194   2.074   5.773 -0.3299  0.1262  1.1085
  935MOL0     N28909   5.233   2.162   5.656 -0.9325 -0.1549  0.3058
  935MOL0     C28910   5.197   2.292   5.630  0.0726 -0.3528  0.5283
  935MOL0     C28911   5.254   2.321   5.517 -0.1795 -0.5298  0.8961
  935MOL0     C28912   5.244   2.456   5.442  0.2810 -0.0288  0.4875
  935MOL0     C28913   5.303   2.573   5.516  1.5726  0.6355 -0.2324
  935MOL0     C28914   5.280   2.706   5.443  0.5585  0.5651 -0.0331
  935MOL0     C28915   5.355   2.807   5.519  0.0574 -0.1891 -0.6107
  935MOL0     O28916   5.358   2.935   5.453  0.6175 -0.1869 -0.1249
  935MOL0     C28917   5.440   3.035   5.494  0.1884 -0.7524  0.4429
  935MOL0     C28918   5.424   3.161   5.437  0.0145 -0.5247 -0.1241
  935MOL0     C28919   5.520   3.265   5.444 -0.2355 -0.4093  0.3291
  935MOL0     C28920   5.485   3.398   5.372  0.4401  0.2780 -0.3990
  935MOL0     C28921   5.638   3.239   5.520  0.4352  0.0388 -1.1630
  935MOL0     C28922   5.747   3.349   5.540 -0.8666  0.4080 -0.2578
  935MOL0     O28923   5.844   3.304   5.620  0.2425  0.2666 -0.3702
  935MOL0     C28924   5.962   3.369   5.631  0.6597 -0.6635  0.6483
  935MOL0     C28925   5.993   3.505   5.628  0.2073  0.8509  0.1789
  935MOL0     C28926   6.126   3.546   5.643  1.0883 -0.6614 -0.2191
  935MOL0     C28927   6.225   3.452   5.672 -0.2015  0.8417 -0.8021
  935MOL0     O28928   6.343   3.493   5.716 -0.6639  0.1995 -0.7706
  935MOL0     C28929   6.443   3.524   5.607  0.2222  0.1390  0.0571
  935MOL0     C28930   6.583   3.561   5.663  0.2628  0.5756 -0.6016
  935MOL0     C28931   6.661   3.462   5.735  0.8525 -0.8737 -1.5034
  935MOL0     C28932   6.803   3.504   5.763 -0.6187  0.4503  0.5840
  935MOL0     C28933   6.876   3.439   5.875  0.2223  0.1805  0.2625
  935MOL0     C28934   7.020   3.485   5.878 -0.1604 -0.0082  0.7433
  935MOL0     C28935   7.107   3.439   5.764 -1.2075  0.0989  0.3030
  935MOL0     C28936   7.266   3.466   5.783  0.1172 -0.0795 -0.6621
  935MOL0    Cl28937   7.299   3.631   5.849 -0.1598 -0.3193  0.3086
  935MOL0     C28938   6.187   3.312   5.688 -0.1209 -0.2648 -0.0466
  935MOL0     C28939   6.060   3.272   5.665  0.5493  0.6028  0.4054
  935MOL0     O28940   5.756   3.447   5.461  1.0330  0.0447 -0.6261
  935MOL0     C28941   5.652   3.116   5.584  0.8415  0.4499 -0.1095
  935MOL0     C28942   5.554   3.021   5.569  0.1158 -0.3239 -0.2546
  935MOL0     N28943   5.340   2.215   5.477 -0.1178 -0.0774  0.4171
  935MOL0     N28944   5.337   2.118   5.560  0.0316 -0.6225  0.5348
  935MOL0     C28945   4.187   1.819   5.315 -0.6342  0.4026 -0.1730
  935MOL0     C28946   4.054   1.830   5.263  0.4416 -0.5003 -0.3849
  935MOL0     C28947   3.648   1.838   5.151  0.6793 -0.4128 -0.6507
  935MOL0     C28948   3.610   1.961   5.094 -0.6578  0.7269 -0.4602
  935MOL0     C28949   3.502   1.964   5.000 -0.6682 -1.6321  0.1932
  935MOL0     C28950   3.426   1.851   4.960 -0.8970 -0.7494  0.4326
  935MOL0     O28951   3.322   1.846   4.870  0.1039 -0.1909  0.1000
  935MOL0     C28952   3.318   1.952   4.778 -0.6115  0.1409  0.5858
  935MOL0     C28953   3.233   1.908   4.658 -0.0817 -0.2033  0.9239
  935MOL0     C28954   3.209   2.020   4.554  0.8208  0.9471  0.2057
  935MOL0     C28955   3.336   2.052   4.467  0.5891  0.6026  0.2913
  935MOL0     C28956   3.352   2.199   4.460  1.1487  0.2420  0.0579
  935MOL0     C28957   3.348   2.320   4.455 -0.5359  0.0130  0.7627
  935MOL0     C28958   3.476   1.733   5.018  0.4128  0.8606  0.5312
  935MOL0     C28959   3.583   1.723   5.106  0.7856  0.3728  0.2783
  935MOL0     C28960   3.627   1.577   5.147  0.6833  1.1433  0.7664
  935MOL0     H28961   3.912   2.018   5.503  0.4942  1.2547  1.2339
  935MOL0     H28962   4.110   1.990   5.602 -2.4748  0.8244 -0.1839
  935MOL0     H28963   4.446   1.767   5.363  3.2972 -0.3478  0.7868
  935MOL0     H28964   4.387   1.659   5.488  0.4007 -1.3092 -3.4729
  935MOL0     H28965   4.566   1.792   5.643 -0.9664 -0.0660 -0.6646
  935MOL0     H28966   4.610   1.683   5.520  1.4415 -0.0734  0.7109
  935MOL0     H28967   4.607   1.897   5.365  1.4777  0.9078 -1.4112
  935MOL0     H28968   4.609   1.979   5.525 -2.2147 -1.0868 -0.5912
  935MOL0     H28969   4.820   1.760   5.476 -2.3520 -0.8818  0.5128
  935MOL0     H28970   4.852   1.924   5.418 -4.1785  3.1314 -1.4384
  935MOL0     H28971   4.859   1.816   5.683 -0.6932 -0.7486 -1.9771
  935MOL0     H28972   4.784   1.978   5.675  0.0438 -0.9407  1.0799
  935MOL0     H28973   5.063   1.919   5.554  0.6827  1.3172 -0.1941
  935MOL0     H28974   4.985   2.074   5.581  0.1895 -0.2149 -0.5477
  935MOL0     H28975   5.084   1.889   5.802 -0.5522 -1.1473 -3.6224
  935MOL0     H28976   4.990   2.030   5.828 -1.8042  1.7352 -2.0745
  935MOL0     H28977   5.175   2.129   5.866  0.5246 -1.3580  2.2089
  935MOL0     H28978   5.275   2.005   5.796 -0.4629 -0.3672  0.1561
  935MOL0     H28979   5.135   2.356   5.692  2.5235  2.3254  0.3827
  935MOL0     H28980   5.141   2.463   5.405  0.8326 -0.3338 -1.1942
  935MOL0     H28981   5.305   2.447   5.352  0.3914 -0.5043  0.6080
  935MOL0     H28982   5.261   2.581   5.617  5.0527 -1.5226  1.5676
  935MOL0     H28983   5.409   2.566   5.541  0.8928  1.2775  3.5416
  935MOL0     H28984   5.300   2.709   5.335  4.8178  0.2041  0.5922
  935MOL0     H28985   5.172   2.725   5.444  0.9553  3.4749 -0.9796
  935MOL0     H28986   5.301   2.828   5.612 -0.5719 -0.7812 -0.8348
  935MOL0     H28987   5.458   2.773   5.539 -0.3885  0.1745  3.0570
  935MOL0     H28988   5.339   3.165   5.369  0.8574  1.4279 -1.1614
  935MOL0     H28989   5.505   3.408   5.265 -0.0614 -0.2630 -0.5497
  935MOL0     H28990   5.535   3.480   5.425  1.7906 -1.3468  0.9731
  935MOL0     H28991   5.381   3.430   5.383  0.6113  0.6806  0.0997
  935MOL0     H28992   5.915   3.578   5.609  1.1148  1.9598  0.5709
  935MOL0     H28993   6.137   3.652   5.621 -0.3799 -0.6146 -0.8043
  935MOL0     H28994   6.458   3.437   5.544 -1.1695  0.8717 -1.3334
  935MOL0     H28995   6.417   3.609   5.544 -3.8828 -0.4270  0.7298
  935MOL0     H28996   6.653   3.589   5.584  1.0272 -0.8405 -0.4705
  935MOL0     H28997   6.558   3.654   5.714 -1.6413  0.3899 -1.1168
  935MOL0     H28998   6.652   3.368   5.679  0.4892 -1.5279 -0.3777
  935MOL0     H28999   6.604   3.436   5.825  1.0067 -1.4730 -1.5752
  935MOL0     H29000   6.809   3.612   5.778  0.7530  0.1936  2.1478
  935MOL0     H29001   6.849   3.491   5.664 -0.0648  0.5321  0.8284
  935MOL0     H29002   6.835   3.455   5.975  0.2593  0.7643  0.1887
  935MOL0     H29003   6.883   3.332   5.853  3.8633  0.5831 -1.3094
  935MOL0     H29004   7.066   3.451   5.971 -0.3481  1.2201  1.2937
  935MOL0     H29005   7.029   3.593   5.884  0.4707 -0.0327  0.4089
  935MOL0     H29006   7.076   3.498   5.677 -3.0887  2.8788  2.6770
  935MOL0     H29007   7.104   3.332   5.740  0.6492 -0.3459  1.9019
  935MOL0     H29008   7.304   3.470   5.681 -0.4015 -0.3780 -0.8719
  935MOL0     H29009   7.315   3.385   5.837 -0.2406 -0.1913 -0.4989
  935MOL0     H29010   6.261   3.235   5.709 -1.2624 -1.1506  0.8255
  935MOL0     H29011   6.037   3.166   5.667 -0.9223  0.9084  1.4760
  935MOL0     H29012   5.734   3.092   5.650  0.6068  0.3980  0.1670
  935MOL0     H29013   5.567   2.923   5.613  2.2067  1.0654  2.5493
  935MOL0     H29014   4.267   1.755   5.280  1.7180  1.9616  1.9153
  935MOL0     H29015   4.029   1.785   5.168 -0.2975 -1.0231  0.0480
  935MOL0     H29016   3.657   2.056   5.118 -0.8893  1.2623 -2.0082
  935MOL0     H29017   3.476   2.059   4.955 -2.9106 -2.5581 -0.6247
  935MOL0     H29018   3.262   2.038   4.816  1.5032  2.1957 -0.6467
  935MOL0     H29019   3.415   1.995   4.750 -1.2163  2.5047  1.8480
  935MOL0     H29020   3.138   1.878   4.703 -0.1504 -1.8923 -0.2271
  935MOL0     H29021   3.276   1.819   4.610  2.6387  1.0472  0.8671
  935MOL0     H29022   3.123   1.991   4.492  1.4185 -2.2705  0.6852
  935MOL0     H29023   3.190   2.113   4.608  0.7457  1.1698 -0.1969
  935MOL0     H29024   3.326   2.002   4.371  2.1687 -1.4256  1.0967
  935MOL0     H29025   3.426   2.004   4.506 -0.8121 -2.4208  0.1319
  935MOL0     H29026   3.325   2.424   4.452 -5.0604 -0.7564  1.3038
  935MOL0     H29027   3.425   1.639   5.002  1.2790 -0.0574  2.7569
  935MOL0     H29028   3.601   1.506   5.068 -1.6673 -0.3966  2.7522
  935MOL0     H29029   3.734   1.569   5.169  1.0930  1.3006 -1.0368
  935MOL0     H29030   3.567   1.547   5.234  2.2821 -1.3953  1.0945
  936MOL0     O29031   0.419   4.081   9.699 -0.2575  0.0312 -0.1999
  936MOL0     C29032   0.316   4.112   9.642 -1.4004  0.6201 -0.4250
  936MOL0     O29033   0.308   4.187   9.535  0.6101  0.0146  0.2474
  936MOL0     C29034   0.411   4.230   9.457 -1.0795 -0.6122 -0.2417
  936MOL0     C29035   0.401   4.365   9.411  0.1760  0.2578 -0.7206
  936MOL0     C29036   0.477   4.412   9.305  0.3521  0.1746  0.2257
  936MOL0     C29037   0.583   4.335   9.253 -0.4472  0.2945 -1.6925
  936MOL0     O29038   0.673   4.380   9.170 -0.9779  0.3340  0.5123
  936MOL0     C29039   0.608   4.437   9.054 -0.3551  1.0093  0.3832
  936MOL0     C29040   0.694   4.436   8.928  0.9973 -0.1470 -0.3396
  936MOL0     C29041   0.824   4.516   8.931 -1.1806  0.7199 -0.2948
  936MOL0     C29042   0.904   4.529   8.802  0.3951  0.1245 -0.6907
  936MOL0     C29043   1.036   4.609   8.799  0.4239 -0.5280 -0.4711
  936MOL0     C29044   1.097   4.595   8.665 -0.2315 -0.2615  0.3257
  936MOL0     C29045   1.178   4.464   8.654  0.1616 -0.8413 -0.4658
  936MOL0     C29046   1.221   4.419   8.513 -0.4318 -0.0539  1.3020
  936MOL0     N29047   1.113   4.389   8.424 -0.7131  0.2746  0.2116
  936MOL0     C29048   1.044   4.269   8.442 -0.5225  0.1168 -0.2369
  936MOL0     C29049   0.944   4.285   8.352 -0.5895 -0.2220 -0.8731
  936MOL0     C29050   0.819   4.205   8.347  0.5328 -1.1237 -0.4257
  936MOL0     C29051   0.788   4.111   8.469 -1.0670 -0.2350  0.6627
  936MOL0     C29052   0.737   4.181   8.586  0.7040 -0.1283 -1.0464
  936MOL0     C29053   0.671   4.076   8.689 -0.8318 -1.1942  0.6645
  936MOL0     O29054   0.777   3.989   8.727  0.1532 -0.0208 -0.2678
  936MOL0     C29055   0.883   4.032   8.790  0.5046  0.5565 -0.0528
  936MOL0     C29056   0.865   4.085   8.918 -0.7502  0.2320 -0.7256
  936MOL0     C29057   0.976   4.159   8.980  0.2421 -0.9595  0.9682
  936MOL0     C29058   0.952   4.211   9.114 -0.2451  0.4740 -0.5910
  936MOL0     C29059   1.096   4.169   8.916 -0.1930 -0.3245 -1.9211
  936MOL0     C29060   1.210   4.252   8.969 -0.6611 -0.8054  0.1362
  936MOL0     O29061   1.333   4.217   8.927 -0.5036  0.4365  0.5887
  936MOL0     C29062   1.432   4.298   8.975  0.1391  0.3299 -0.2416
  936MOL0     C29063   1.510   4.382   8.893 -0.0410 -0.0614 -1.1557
  936MOL0     C29064   1.625   4.440   8.949 -0.0441  0.1849 -0.5262
  936MOL0     C29065   1.670   4.415   9.081  0.1748  0.2915  0.0850
  936MOL0     O29066   1.767   4.491   9.127  0.2972  0.7035 -0.9894
  936MOL0     C29067   1.861   4.564   9.042 -0.2904 -0.8648  0.2639
  936MOL0     C29068   1.954   4.642   9.141 -0.3115 -0.5631  1.0787
  936MOL0     C29069   2.025   4.553   9.244 -0.2759 -0.5070 -0.4675
  936MOL0     C29070   2.113   4.633   9.338 -0.0002  0.4007  0.0734
  936MOL0     C29071   2.230   4.710   9.261 -0.0985  0.4951 -0.9165
  936MOL0     C29072   2.336   4.752   9.371  0.2111  0.6569  0.5800
  936MOL0     C29073   2.274   4.851   9.471  0.6828 -0.2291 -0.1574
  936MOL0     C29074   2.340   4.846   9.609 -0.2157 -0.2143 -0.6244
  936MOL0    Cl29075   2.243   4.934   9.726 -0.4708  0.4422 -0.4626
  936MOL0     C29076   1.592   4.335   9.163 -0.4560  0.0739  0.2662
  936MOL0     C29077   1.476   4.276   9.110  0.3735 -0.0108  0.4065
  936MOL0     O29078   1.180   4.350   9.028  0.7666 -0.4753 -0.2888
  936MOL0     C29079   1.118   4.089   8.805  0.5538 -0.8631 -0.2230
  936MOL0     C29080   1.015   4.014   8.743 -0.5552  0.1250 -0.5330
  936MOL0     N29081   0.951   4.408   8.289  0.4822 -0.6661  0.4842
  936MOL0     N29082   1.059   4.472   8.324  0.0741  0.0591 -0.5150
  936MOL0     C29083   0.595   4.207   9.306 -1.3868  0.6449 -0.2267
  936MOL0     C29084   0.517   4.149   9.407 -0.7236  0.2791 -0.8297
  936MOL0     C29085   0.186   4.069   9.698 -0.0872  0.3933  0.6610
  936MOL0     C29086   0.093   4.037   9.601 -0.8278 -0.3208  0.7386
  936MOL0     C29087  -0.031   3.999   9.633  0.0779 -0.3628 -0.2486
  936MOL0     C29088  -0.067   3.990   9.765 -0.4398 -0.4360  0.1980
  936MOL0     O29089  -0.181   3.943   9.812  0.0574 -0.3715 -0.6405
  936MOL0     C29090  -0.290   3.929   9.722  0.4040  0.2007  1.3986
  936MOL0     C29091  -0.418   3.983   9.797 -0.1370 -0.7153 -0.5835
  936MOL0     C29092  -0.409   4.137   9.791 -0.2516  0.1706 -0.7192
  936MOL0     C29093  -0.548   4.205   9.832 -0.4169  0.8437 -0.2589
  936MOL0     C29094  -0.552   4.249   9.970  0.1154 -0.0717 -0.3498
  936MOL0     C29095  -0.578   4.295  10.080 -0.7438  0.3738  0.2725
  936MOL0     C29096   0.024   4.024   9.864 -0.1356 -0.6330 -0.2334
  936MOL0     C29097   0.152   4.069   9.835 -0.1246 -0.0876 -0.4799
  936MOL0     C29098   0.238   4.109   9.946 -0.6571  0.0094 -0.0720
  936MOL0     H29099   0.321   4.423   9.455  2.0187  0.2885  2.9771
  936MOL0     H29100   0.473   4.513   9.265  2.9801  0.2810  0.0388
  936MOL0     H29101   0.586   4.540   9.084  1.7872  1.3678  0.8294
  936MOL0     H29102   0.518   4.379   9.033  0.1674 -0.2379  1.4473
  936MOL0     H29103   0.706   4.329   8.910  1.5797 -0.3629  1.1695
  936MOL0     H29104   0.642   4.484   8.845 -0.4233 -1.2093 -0.1072
  936MOL0     H29105   0.805   4.609   8.984  0.3383  0.4123  0.8841
  936MOL0     H29106   0.899   4.484   9.005 -1.7754  4.3787  2.1723
  936MOL0     H29107   0.921   4.425   8.775 -0.5847 -0.8559  2.0912
  936MOL0     H29108   0.828   4.576   8.740 -1.2172  1.6879  2.2521
  936MOL0     H29109   1.106   4.579   8.878  1.2071  1.8330 -0.1672
  936MOL0     H29110   1.003   4.713   8.803 -0.8199 -0.6477 -4.0807
  936MOL0     H29111   1.030   4.605   8.579  1.3298  0.3025 -0.8641
  936MOL0     H29112   1.160   4.681   8.641 -0.9309  0.2166  0.1890
  936MOL0     H29113   1.120   4.383   8.699  0.7007 -1.1482 -0.3127
  936MOL0     H29114   1.261   4.472   8.725 -1.6877 -0.1316  1.7499
  936MOL0     H29115   1.286   4.497   8.474  0.4274  0.9147  4.4128
  936MOL0     H29116   1.285   4.330   8.522 -0.3815 -0.1292  0.2834
  936MOL0     H29117   1.068   4.190   8.513  0.0720 -2.4902 -3.1055
  936MOL0     H29118   0.813   4.143   8.257 -1.1759 -0.2649 -0.9599
  936MOL0     H29119   0.738   4.279   8.341 -0.2455 -1.9807 -0.8073
  936MOL0     H29120   0.703   4.052   8.435 -2.1940  1.7443 -0.1247
  936MOL0     H29121   0.870   4.044   8.495  0.0110  0.7644 -0.0946
  936MOL0     H29122   0.813   4.246   8.630  3.1634 -3.1833 -0.4568
  936MOL0     H29123   0.657   4.252   8.562  1.5517  0.8064 -1.1448
  936MOL0     H29124   0.654   4.148   8.770 -0.1772  0.4509 -0.6056
  936MOL0     H29125   0.595   4.023   8.630 -0.0820 -0.3954 -1.0614
  936MOL0     H29126   0.766   4.089   8.960 -0.9555 -0.9879 -1.0393
  936MOL0     H29127   1.043   4.216   9.175  0.0532 -1.1493 -0.8857
  936MOL0     H29128   0.882   4.148   9.168 -1.8064  3.2617  0.9013
  936MOL0     H29129   0.911   4.313   9.116  2.4531  1.7422  2.8730
  936MOL0     H29130   1.487   4.393   8.788  0.5717  1.5312 -1.1395
  936MOL0     H29131   1.691   4.496   8.884  1.2601  1.8791  2.0809
  936MOL0     H29132   1.924   4.500   8.980  1.4808  0.7108  0.3348
  936MOL0     H29133   1.811   4.632   8.972 -1.9203  0.4992  2.5935
  936MOL0     H29134   2.030   4.704   9.091 -0.9923 -0.1722  0.5134
  936MOL0     H29135   1.881   4.713   9.181 -2.5914 -2.0991 -0.1444
  936MOL0     H29136   2.081   4.470   9.201 -0.1069 -1.1149  0.8865
  936MOL0     H29137   1.939   4.511   9.296  0.7412 -2.0292  0.0641
  936MOL0     H29138   2.159   4.565   9.410  1.0888  2.0332  0.9773
  936MOL0     H29139   2.053   4.706   9.394  0.5294  0.0628  1.0978
  936MOL0     H29140   2.261   4.636   9.186 -4.9216 -2.7436 -0.1350
  936MOL0     H29141   2.196   4.797   9.203  1.4765 -0.4166 -3.3556
  936MOL0     H29142   2.411   4.804   9.311 -2.2043  2.5868 -1.0141
  936MOL0     H29143   2.375   4.665   9.425  2.6694  2.0070  1.0953
  936MOL0     H29144   2.166   4.845   9.481  0.2697 -0.5777 -3.7516
  936MOL0     H29145   2.304   4.949   9.434  4.6065 -1.3961 -0.5105
  936MOL0     H29146   2.443   4.883   9.604  0.2240 -1.4480 -1.1479
  936MOL0     H29147   2.359   4.745   9.647  3.2259  0.2269 -0.8330
  936MOL0     H29148   1.609   4.322   9.269  1.8597 -0.2581 -0.0867
  936MOL0     H29149   1.410   4.217   9.174 -3.8195  3.1413 -0.5866
  936MOL0     H29150   1.218   4.091   8.762 -0.3683  1.2721 -2.4901
  936MOL0     H29151   1.046   3.948   8.663  1.3787  2.5932 -1.9402
  936MOL0     H29152   0.679   4.146   9.275 -2.8815 -2.7181  1.7626
  936MOL0     H29153   0.535   4.048   9.442 -1.9642  0.0187 -0.8970
  936MOL0     H29154   0.116   4.046   9.495  0.8172  2.9353  1.2367
  936MOL0     H29155  -0.089   3.974   9.545 -1.3390  1.6251  0.0775
  936MOL0     H29156  -0.275   3.997   9.637  1.1175 -0.8536  0.6462
  936MOL0     H29157  -0.291   3.823   9.695 -3.6920 -0.0787  2.0568
  936MOL0     H29158  -0.417   3.940   9.897 -1.5896  2.3932  0.9306
  936MOL0     H29159  -0.510   3.960   9.742 -1.6448  0.5000  1.2922
  936MOL0     H29160  -0.328   4.176   9.853 -0.8282 -0.4799  0.4750
  936MOL0     H29161  -0.389   4.169   9.688 -0.6018 -0.1532 -0.8926
  936MOL0     H29162  -0.617   4.124   9.809  2.4914 -3.2142  3.6573
  936MOL0     H29163  -0.568   4.284   9.759 -0.4977 -0.2289 -1.4262
  936MOL0     H29164  -0.617   4.337  10.170 -1.1517 -1.8367  1.1750
  936MOL0     H29165   0.005   3.992   9.966  1.4085  0.4780  0.4407
  936MOL0     H29166   0.330   4.051   9.937 -1.8950 -1.7875 -2.3416
  936MOL0     H29167   0.259   4.215   9.961  0.1625  0.1510 -1.9108
  936MOL0     H29168   0.185   4.073  10.034 -0.9880 -2.9183 -1.3350
  937MOL0     O29169   9.543   4.380  11.433  0.2051 -0.0228  0.1443
  937MOL0     C29170   9.486   4.312  11.350 -0.0073  0.0145  1.0786
  937MOL0     O29171   9.385   4.364  11.268 -0.6942 -0.8536  0.2658
  937MOL0     C29172   9.351   4.502  11.254 -0.6488  0.1405 -0.3397
  937MOL0     C29173   9.212   4.524  11.244 -0.2384  0.6543  0.6708
  937MOL0     C29174   9.157   4.654  11.230  0.2162  0.6153  0.1255
  937MOL0     C29175   9.242   4.760  11.226  0.2881 -0.4242 -1.1041
  937MOL0     O29176   9.198   4.885  11.198  1.1738 -0.1510  0.1648
  937MOL0     C29177   9.218   4.926  11.062 -0.5993 -1.2540  0.3356
  937MOL0     C29178   9.248   5.084  11.057 -0.8291 -0.6148 -0.2671
  937MOL0     C29179   9.123   5.157  11.109  0.1582  0.7692  0.9508
  937MOL0     C29180   9.141   5.307  11.120  0.1627 -0.2896  0.4236
  937MOL0     C29181   9.011   5.383  11.162 -0.5550  1.1373 -1.0273
  937MOL0     C29182   9.015   5.531  11.190  1.5865 -1.1096 -0.0923
  937MOL0     C29183   8.993   5.571  11.335  0.0713 -0.4578  2.2435
  937MOL0     C29184   9.042   5.711  11.368 -0.6471  0.3351 -0.2655
  937MOL0     N29185   9.014   5.819  11.274  0.3811  1.2030  0.8459
  937MOL0     C29186   8.897   5.895  11.278 -0.4854  0.0679  0.6978
  937MOL0     C29187   8.898   5.952  11.157  0.2019 -0.3555 -0.4068
  937MOL0     C29188   8.773   6.028  11.103  0.0697  0.0371  0.2249
  937MOL0     C29189   8.654   5.925  11.125 -0.1257 -0.4113 -0.0143
  937MOL0     C29190   8.667   5.799  11.043  0.5182  0.2469 -0.8073
  937MOL0     C29191   8.645   5.820  10.893  0.9205 -0.8686 -0.7069
  937MOL0     O29192   8.619   5.696  10.838 -0.6550 -0.3730  0.5599
  937MOL0     C29193   8.723   5.607  10.826  0.3236  0.7133  0.8565
  937MOL0     C29194   8.689   5.489  10.766 -0.0421  0.4233 -0.1147
  937MOL0     C29195   8.792   5.388  10.728  0.2666 -0.3360  0.4337
  937MOL0     C29196   8.744   5.269  10.642 -0.0142  0.1853  0.0827
  937MOL0     C29197   8.929   5.416  10.758 -0.8952  0.8787  0.1192
  937MOL0     C29198   9.046   5.334  10.734  0.2296  1.2545 -0.1497
  937MOL0     O29199   9.161   5.384  10.784 -0.4110 -0.6791 -0.1477
  937MOL0     C29200   9.289   5.341  10.741 -0.8039 -0.3571 -0.1398
  937MOL0     C29201   9.311   5.269  10.622 -0.4027  0.6147  0.1462
  937MOL0     C29202   9.438   5.250  10.569  0.7011  0.8318 -0.7239
  937MOL0     C29203   9.550   5.284  10.650  0.1271 -0.4361 -0.1122
  937MOL0     O29204   9.683   5.257  10.624 -0.5003 -0.4969  0.1095
  937MOL0     C29205   9.708   5.190  10.500 -0.3796  0.3019  1.0166
  937MOL0     C29206   9.853   5.149  10.477  0.4353  0.0973  0.2273
  937MOL0     C29207   9.943   5.265  10.466 -0.4382 -0.8794 -0.7300
  937MOL0     C29208  10.089   5.210  10.462  1.1308  0.5315 -0.0077
  937MOL0     C29209  10.180   5.327  10.432 -0.0574 -0.3155  0.2339
  937MOL0     C29210  10.331   5.294  10.458  1.4702 -0.6878  0.6692
  937MOL0     C29211  10.417   5.398  10.395  1.0668  0.3703 -0.8355
  937MOL0     C29212  10.553   5.344  10.379 -0.2303 -0.1361  0.8372
  937MOL0    Cl29213  10.689   5.470  10.334  0.4358  0.3995  0.5158
  937MOL0     C29214   9.528   5.337  10.779  0.3070  0.0477  0.0629
  937MOL0     C29215   9.396   5.367  10.818 -0.1238 -0.4120 -0.6234
  937MOL0     O29216   9.035   5.222  10.683  0.5562  0.0967 -0.2404
  937MOL0     C29217   8.962   5.540  10.828 -0.2373  0.5622  0.2091
  937MOL0     C29218   8.853   5.627  10.863 -0.5744  0.8026 -0.1218
  937MOL0     N29219   9.010   5.926  11.085 -0.2828  0.8679  0.3796
  937MOL0     N29220   9.080   5.837  11.148  0.5534 -0.3474  0.2728
  937MOL0     C29221   9.379   4.743  11.251  0.2087  0.0474  0.2806
  937MOL0     C29222   9.430   4.614  11.267 -1.0223  0.1930 -1.3195
  937MOL0     C29223   9.523   4.174  11.334  0.0318 -0.1626 -0.3293
  937MOL0     C29224   9.658   4.137  11.369  0.0162  0.2562 -0.4438
  937MOL0     C29225   9.714   4.009  11.358  0.0488 -1.2043  1.0219
  937MOL0     C29226   9.641   3.904  11.303  0.1073  0.3839  1.3388
  937MOL0     O29227   9.677   3.773  11.286 -0.4634  0.1893  0.0116
  937MOL0     C29228   9.687   3.716  11.164 -0.3471 -0.1234  0.1009
  937MOL0     C29229   9.809   3.786  11.093 -0.6054  1.6889 -0.4519
  937MOL0     C29230   9.855   3.719  10.969  0.9929  0.2495  0.3315
  937MOL0     C29231   9.881   3.568  10.969  0.4178  1.1384  0.4451
  937MOL0     C29232   9.765   3.480  10.935 -0.3424  0.0363  0.1889
  937MOL0     C29233   9.678   3.406  10.907  0.8447  0.4152 -0.6553
  937MOL0     C29234   9.512   3.939  11.257  0.6626 -0.7348  0.1009
  937MOL0     C29235   9.442   4.061  11.278  0.4233  0.3843  0.3135
  937MOL0     C29236   9.302   4.080  11.235 -0.0279  0.1233 -0.9670
  937MOL0     H29237   9.151   4.434  11.243  1.0759 -0.2634  0.7529
  937MOL0     H29238   9.049   4.664  11.233  0.1690 -0.0315  1.6842
  937MOL0     H29239   9.127   4.901  11.008 -0.6434  0.5379 -0.4944
  937MOL0     H29240   9.302   4.877  11.013  0.1703  2.3455 -2.3400
  937MOL0     H29241   9.328   5.116  11.124 -1.8183 -2.9008  2.2143
  937MOL0     H29242   9.255   5.120  10.954  1.1397  4.2146  1.2811
  937MOL0     H29243   9.035   5.145  11.045 -0.0408  4.0855  0.4198
  937MOL0     H29244   9.089   5.109  11.201 -1.6577 -1.3484 -0.7031
  937MOL0     H29245   9.222   5.322  11.192  0.1137  0.0035  0.4180
  937MOL0     H29246   9.181   5.341  11.024  0.3846 -0.3417  0.4981
  937MOL0     H29247   8.974   5.327  11.248 -0.7487 -0.1625 -1.9319
  937MOL0     H29248   8.925   5.369  11.097 -2.7945  2.7386  1.3990
  937MOL0     H29249   9.109   5.576  11.156  0.6298  0.0046 -1.3552
  937MOL0     H29250   8.933   5.568  11.129  1.7085  0.3639  0.5695
  937MOL0     H29251   9.051   5.499  11.394 -0.1005 -4.9446 -2.3335
  937MOL0     H29252   8.886   5.570  11.357 -0.6449  1.2367 -0.6208
  937MOL0     H29253   9.000   5.740  11.465  0.1039  0.8865 -0.0903
  937MOL0     H29254   9.148   5.695  11.390 -1.5862 -2.2456  3.3616
  937MOL0     H29255   8.823   5.909  11.356 -0.4078  2.7563  0.3925
  937MOL0     H29256   8.796   6.048  10.998  1.4115  0.6642  0.6175
  937MOL0     H29257   8.762   6.118  11.163 -0.0615 -0.2894  0.6962
  937MOL0     H29258   8.636   5.903  11.230  1.8459  0.3902  0.5485
  937MOL0     H29259   8.565   5.982  11.098 -0.4290 -0.6856  0.4032
  937MOL0     H29260   8.765   5.756  11.066 -0.0936 -2.3437 -2.6056
  937MOL0     H29261   8.587   5.734  11.081  1.5487 -1.0384 -0.7295
  937MOL0     H29262   8.558   5.886  10.888  1.1712 -0.3493  1.0563
  937MOL0     H29263   8.723   5.881  10.844 -2.6453  3.8021 -1.3289
  937MOL0     H29264   8.583   5.477  10.751  0.1126 -0.2186 -0.7874
  937MOL0     H29265   8.813   5.267  10.557 -0.7692 -0.8874 -0.5261
  937MOL0     H29266   8.648   5.297  10.598  1.2593  2.2256 -1.6145
  937MOL0     H29267   8.746   5.178  10.703  1.1659  1.2626  1.7201
  937MOL0     H29268   9.237   5.244  10.546  0.8926  1.0257 -1.3037
  937MOL0     H29269   9.456   5.218  10.467 -0.0485  0.9782 -0.9094
  937MOL0     H29270   9.656   5.094  10.489  0.9251 -0.4221  0.9544
  937MOL0     H29271   9.675   5.262  10.426  1.9873  2.2635  1.7398
  937MOL0     H29272   9.877   5.079  10.558 -2.7941  0.0214  1.2477
  937MOL0     H29273   9.862   5.092  10.384  4.4327  2.4227 -1.0813
  937MOL0     H29274   9.928   5.338  10.546 -0.9003 -1.9979  0.2332
  937MOL0     H29275   9.915   5.312  10.371  0.5382  0.5897 -0.3151
  937MOL0     H29276  10.102   5.128  10.392 -2.8136  0.3933 -0.8228
  937MOL0     H29277  10.103   5.168  10.562  1.6472  1.6668  0.4089
  937MOL0     H29278  10.166   5.334  10.324 -2.2890 -3.6885  0.1389
  937MOL0     H29279  10.142   5.414  10.487 -2.8298 -1.1435 -0.1948
  937MOL0     H29280  10.354   5.191  10.431 -2.3541 -1.4347 -0.2229
  937MOL0     H29281  10.341   5.296  10.567 -0.6922  1.4064  0.9138
  937MOL0     H29282  10.417   5.489  10.456  0.7503  0.7887 -1.4520
  937MOL0     H29283  10.376   5.418  10.296  0.2386  2.0406 -0.1809
  937MOL0     H29284  10.543   5.265  10.305 -0.6079  0.9915 -0.3560
  937MOL0     H29285  10.590   5.305  10.474  3.3616  3.9671  1.4475
  937MOL0     H29286   9.609   5.357  10.848 -1.4484  1.3837  1.8810
  937MOL0     H29287   9.371   5.417  10.911  3.3218 -1.2823  0.9098
  937MOL0     H29288   9.060   5.564  10.867 -1.7727  3.0415  2.9840
  937MOL0     H29289   8.889   5.713  10.918 -0.1397  1.4467 -1.3796
  937MOL0     H29290   9.442   4.831  11.254  0.3915 -0.0357 -0.6501
  937MOL0     H29291   9.535   4.607  11.295 -1.7269  0.1041  1.6978
  937MOL0     H29292   9.720   4.219  11.404 -1.1417  0.2600  1.7392
  937MOL0     H29293   9.812   3.992  11.401 -0.2333 -1.2998  1.6374
  937MOL0     H29294   9.700   3.608  11.169 -0.0433 -0.0700  0.5788
  937MOL0     H29295   9.597   3.738  11.107  1.6607 -2.5977 -4.5585
  937MOL0     H29296   9.896   3.789  11.159 -0.5859  0.8317 -0.4243
  937MOL0     H29297   9.784   3.890  11.070 -1.2781  1.1236 -2.5372
  937MOL0     H29298   9.786   3.737  10.886 -0.0094  2.6281  1.5973
  937MOL0     H29299   9.951   3.762  10.937  1.8422 -1.3589  0.5735
  937MOL0     H29300   9.935   3.544  11.061  1.1002 -0.9695 -0.4545
  937MOL0     H29301   9.949   3.556  10.884 -0.3847  1.0437 -0.2050
  937MOL0     H29302   9.605   3.340  10.865 -0.7502  3.2389 -2.6684
  937MOL0     H29303   9.448   3.864  11.212 -2.9351  0.8649  2.1563
  937MOL0     H29304   9.308   4.131  11.138  2.6067 -2.3578 -2.2725
  937MOL0     H29305   9.231   3.997  11.235 -0.4815  0.5049 -0.2821
  937MOL0     H29306   9.260   4.155  11.302  1.3136  1.5882 -1.7108
  938MOL0     O29307   6.833  10.737   5.333  0.4133  0.0626 -0.8760
  938MOL0     C29308   6.730  10.774   5.391  0.5254  0.3364 -0.0943
  938MOL0     O29309   6.625  10.693   5.438  0.1314 -0.0209 -0.0269
  938MOL0     C29310   6.633  10.560   5.411 -0.4459 -0.1661  0.1068
  938MOL0     C29311   6.716  10.482   5.485 -0.7162 -0.2926 -0.1927
  938MOL0     C29312   6.741  10.344   5.456 -0.2589 -0.2684  0.1167
  938MOL0     C29313   6.685  10.304   5.338  0.5712  0.9162 -0.0705
  938MOL0     O29314   6.709  10.177   5.296 -0.0662 -0.3756 -0.9352
  938MOL0     C29315   6.689  10.076   5.404 -0.0577 -0.6244 -0.3683
  938MOL0     C29316   6.708   9.926   5.356 -0.1720  0.1751  0.1097
  938MOL0     C29317   6.863   9.901   5.330 -0.5767  1.7306  0.3496
  938MOL0     C29318   6.883   9.755   5.292  0.2757 -1.1030  1.3468
  938MOL0     C29319   7.020   9.716   5.249 -0.4371  0.9337 -0.4692
  938MOL0     C29320   7.122   9.724   5.357  0.3166  0.1082 -0.6374
  938MOL0     C29321   7.268   9.704   5.298  0.2705 -0.6190 -1.2691
  938MOL0     C29322   7.317   9.565   5.319 -0.4223  0.8644 -1.0201
  938MOL0     N29323   7.341   9.485   5.191 -0.0338  0.1788  0.0685
  938MOL0     C29324   7.473   9.440   5.156 -0.5791  0.3669  0.1005
  938MOL0     C29325   7.452   9.377   5.040  0.1280 -0.0119 -0.0484
  938MOL0     C29326   7.549   9.297   4.951  0.4108  0.2055 -1.1861
  938MOL0     C29327   7.594   9.385   4.834  1.3370 -0.6302 -0.7826
  938MOL0     C29328   7.709   9.323   4.752  0.5910  0.4780  0.0584
  938MOL0     C29329   7.677   9.186   4.685 -0.3395  0.4481 -0.4044
  938MOL0     O29330   7.729   9.085   4.785 -0.1874 -0.0286  0.1536
  938MOL0     C29331   7.855   9.060   4.817 -1.1713  0.3578 -0.3216
  938MOL0     C29332   7.963   9.080   4.728  0.4203  0.6431 -0.5935
  938MOL0     C29333   8.087   9.028   4.756 -0.0769  1.0775  0.1800
  938MOL0     C29334   8.193   9.046   4.649  0.0701  0.1493  0.0672
  938MOL0     C29335   8.102   8.948   4.867 -0.6543  1.1359 -0.5314
  938MOL0     C29336   8.230   8.873   4.888  0.7074  0.3597 -0.6939
  938MOL0     O29337   8.294   8.880   5.010  0.1367  0.9998 -0.2866
  938MOL0     C29338   8.414   8.823   5.041 -0.3188  0.2390  0.8189
  938MOL0     C29339   8.464   8.864   5.164 -0.7021 -0.1259 -0.0417
  938MOL0     C29340   8.591   8.816   5.202 -0.1850 -0.0071 -0.6176
  938MOL0     C29341   8.661   8.716   5.131  0.7886 -0.3802 -0.3448
  938MOL0     O29342   8.775   8.651   5.170 -0.1258 -0.4475  0.0899
  938MOL0     C29343   8.854   8.701   5.285 -0.5162 -0.5692  0.1560
  938MOL0     C29344   8.810   8.650   5.416  0.1305 -0.7079 -0.4079
  938MOL0     C29345   8.899   8.701   5.522 -0.0576 -0.3485 -0.4253
  938MOL0     C29346   8.932   8.847   5.523  0.3930 -1.1380 -0.4705
  938MOL0     C29347   9.008   8.880   5.659 -0.1607 -0.4692  0.2616
  938MOL0     C29348   8.930   8.851   5.791 -0.8691 -0.4692 -0.5969
  938MOL0     C29349   8.796   8.912   5.802  0.2985  2.2243 -0.4502
  938MOL0     C29350   8.746   8.893   5.944  0.1864 -0.3916 -1.4193
  938MOL0    Cl29351   8.732   8.725   5.997 -0.1017  0.4654 -0.5445
  938MOL0     C29352   8.606   8.667   5.014 -0.1503  0.6903  0.5383
  938MOL0     C29353   8.483   8.718   4.971 -0.3155 -0.9895  0.4615
  938MOL0     O29354   8.267   8.808   4.792 -0.0278 -0.3192 -0.3246
  938MOL0     C29355   7.997   8.931   4.964 -0.8513 -0.9307  0.3333
  938MOL0     C29356   7.881   8.997   4.941  0.1434  0.3400  0.0315
  938MOL0     N29357   7.323   9.404   4.996  0.2270  0.1988 -0.1664
  938MOL0     N29358   7.252   9.469   5.089 -0.5070  1.0874 -0.0418
  938MOL0     C29359   6.598  10.386   5.269  0.8749 -1.2716  0.2024
  938MOL0     C29360   6.559  10.514   5.310 -0.3341  0.2995  0.0842
  938MOL0     C29361   6.695  10.917   5.384  0.6724 -1.8929 -0.0384
  938MOL0     C29362   6.556  10.951   5.348 -0.1992  0.5971  0.0526
  938MOL0     C29363   6.514  11.074   5.362  0.4460  0.4027  0.0661
  938MOL0     C29364   6.597  11.181   5.399  0.3323 -0.2795  0.6696
  938MOL0     O29365   6.544  11.314   5.419 -0.3476  0.5856  0.5877
  938MOL0     C29366   6.613  11.407   5.512  0.9125  0.2454  0.3422
  938MOL0     C29367   6.506  11.506   5.556  1.1826 -0.8262  0.8917
  938MOL0     C29368   6.387  11.450   5.627 -0.2798 -0.2437  0.0353
  938MOL0     C29369   6.405  11.448   5.774 -0.6982  0.5903 -0.7225
  938MOL0     C29370   6.269  11.422   5.830 -0.4797 -0.7345 -0.5054
  938MOL0     C29371   6.156  11.398   5.868  0.3796 -0.0378 -0.0511
  938MOL0     C29372   6.734  11.153   5.410 -0.5084  0.4145  0.3280
  938MOL0     C29373   6.780  11.023   5.413 -0.4665  0.4055 -0.0639
  938MOL0     C29374   6.925  11.001   5.446 -0.4710  0.2477 -0.4799
  938MOL0     H29375   6.766  10.524   5.572  0.4170 -0.0620 -0.9259
  938MOL0     H29376   6.817  10.287   5.508  0.1892 -0.5645 -0.8475
  938MOL0     H29377   6.587  10.091   5.440 -0.9769 -2.2435 -2.1271
  938MOL0     H29378   6.764  10.070   5.483 -0.0544 -0.7154 -0.3790
  938MOL0     H29379   6.653   9.862   5.426  1.2224 -0.5414  0.5979
  938MOL0     H29380   6.655   9.906   5.262 -1.6751  2.7519  0.3202
  938MOL0     H29381   6.888   9.957   5.240 -1.1195  0.3918 -0.6791
  938MOL0     H29382   6.922   9.927   5.419  2.3306 -0.0363 -0.9171
  938MOL0     H29383   6.851   9.691   5.375  1.7166 -1.7099  1.4734
  938MOL0     H29384   6.810   9.738   5.212  0.7695 -2.8415  1.2183
  938MOL0     H29385   7.042   9.790   5.173 -2.4992  1.7516 -0.3541
  938MOL0     H29386   7.011   9.612   5.216 -0.1911 -0.1418  2.5518
  938MOL0     H29387   7.121   9.826   5.394  1.4355 -0.3101  0.6179
  938MOL0     H29388   7.104   9.657   5.441  2.4506 -0.5578 -0.6458
  938MOL0     H29389   7.331   9.774   5.354  1.6916 -2.3380 -0.6273
  938MOL0     H29390   7.271   9.733   5.192  2.3584  1.3952 -0.7496
  938MOL0     H29391   7.409   9.561   5.377  1.3721 -2.6173 -3.7449
  938MOL0     H29392   7.242   9.512   5.379  0.1077  1.5296  0.2688
  938MOL0     H29393   7.565   9.446   5.213 -0.7509 -2.0031  0.7111
  938MOL0     H29394   7.510   9.201   4.915 -0.8776  0.0261  0.5788
  938MOL0     H29395   7.631   9.289   5.022  1.1102  1.9031 -1.7514
  938MOL0     H29396   7.510   9.398   4.764  1.2983 -1.5668 -0.9297
  938MOL0     H29397   7.619   9.486   4.864  0.1292 -0.8552  1.1350
  938MOL0     H29398   7.739   9.392   4.672 -3.2946 -1.2487 -3.2461
  938MOL0     H29399   7.791   9.314   4.824 -0.0731 -2.0761  0.6071
  938MOL0     H29400   7.572   9.158   4.692 -0.2006  0.1899  0.9735
  938MOL0     H29401   7.698   9.172   4.579 -0.8952  1.0702 -0.6059
  938MOL0     H29402   7.952   9.122   4.628 -1.4541 -1.1546 -1.2050
  938MOL0     H29403   8.198   8.974   4.567 -1.0744  1.8066 -1.5264
  938MOL0     H29404   8.293   9.053   4.693  0.4274  0.1056 -0.7234
  938MOL0     H29405   8.191   9.144   4.601  2.1966 -0.4837 -1.4278
  938MOL0     H29406   8.416   8.947   5.215 -0.9175 -0.5005  0.3707
  938MOL0     H29407   8.631   8.849   5.298 -1.8615  0.6198 -0.1021
  938MOL0     H29408   8.958   8.674   5.261 -1.0796 -2.6687 -0.0961
  938MOL0     H29409   8.854   8.810   5.280  4.1694 -0.3527 -0.0248
  938MOL0     H29410   8.713   8.693   5.442  0.5697  0.3277 -0.4453
  938MOL0     H29411   8.820   8.542   5.400  1.6699 -0.7314  0.5617
  938MOL0     H29412   8.990   8.643   5.507 -0.6639 -0.9921 -1.8224
  938MOL0     H29413   8.856   8.677   5.620 -1.4460  1.1439 -0.6213
  938MOL0     H29414   8.842   8.909   5.534  2.2098  1.5366  0.2658
  938MOL0     H29415   8.994   8.874   5.437  1.6531 -1.6439  0.2611
  938MOL0     H29416   9.100   8.821   5.655  0.3424  0.3566 -2.9271
  938MOL0     H29417   9.046   8.982   5.656  0.1042 -0.5959 -1.3253
  938MOL0     H29418   8.988   8.894   5.874 -1.7927 -0.1919 -0.0866
  938MOL0     H29419   8.910   8.744   5.794  0.7427 -0.7952 -0.6851
  938MOL0     H29420   8.735   8.863   5.726 -0.6636  1.5123  0.7441
  938MOL0     H29421   8.790   9.018   5.775  0.7265  3.0207  2.2544
  938MOL0     H29422   8.650   8.945   5.947  0.5973  0.3252 -0.2116
  938MOL0     H29423   8.813   8.951   6.009  2.7023  0.2751 -4.3465
  938MOL0     H29424   8.649   8.577   4.973  1.0122  1.8938 -1.0220
  938MOL0     H29425   8.427   8.665   4.894  1.0356 -2.2610  0.2891
  938MOL0     H29426   8.013   8.862   5.047  3.6132 -0.1885  0.3306
  938MOL0     H29427   7.798   8.987   5.010 -0.1774  0.2490 -0.3636
  938MOL0     H29428   6.541  10.345   5.187  2.6045 -1.7264 -0.8107
  938MOL0     H29429   6.494  10.590   5.268  0.8627  1.6632  0.6335
  938MOL0     H29430   6.486  10.879   5.306  0.7025 -0.2580 -0.0175
  938MOL0     H29431   6.408  11.098   5.354  0.6374  0.7452 -2.0690
  938MOL0     H29432   6.659  11.362   5.600 -1.2028 -0.6078  1.0726
  938MOL0     H29433   6.689  11.468   5.462  1.0605  0.8625  1.3003
  938MOL0     H29434   6.459  11.544   5.464 -2.5044 -4.0916  1.1626
  938MOL0     H29435   6.555  11.588   5.609  1.5693 -0.2320 -0.3472
  938MOL0     H29436   6.309  11.526   5.614  0.8056  0.9107  0.1314
  938MOL0     H29437   6.352  11.354   5.589 -0.4163  0.9327 -3.1367
  938MOL0     H29438   6.446  11.546   5.801 -0.4948  0.5735 -0.9657
  938MOL0     H29439   6.480  11.372   5.797  1.4595  1.4748 -4.1147
  938MOL0     H29440   6.056  11.365   5.886  1.2811 -2.1088  1.6392
  938MOL0     H29441   6.796  11.241   5.423 -3.9016  2.9875  0.4001
  938MOL0     H29442   6.983  10.974   5.358 -3.9125  2.0703 -3.5534
  938MOL0     H29443   6.973  11.092   5.483  3.5828 -0.8822 -2.3392
  938MOL0     H29444   6.936  10.914   5.512 -3.4838 -0.0174 -0.1706
  939MOL0     O29445  10.174   9.627  11.174  0.1505  0.3759 -0.1725
  939MOL0     C29446  10.080   9.671  11.117  1.2823 -0.7590 -0.2240
  939MOL0     O29447  10.072   9.703  10.981  1.0322  0.2853  0.0430
  939MOL0     C29448  10.125   9.622  10.882 -0.3360  0.5612 -0.3986
  939MOL0     C29449  10.136   9.695  10.762  0.1986  0.8050  1.0754
  939MOL0     C29450  10.178   9.622  10.648  0.7029  0.2720  0.4291
  939MOL0     C29451  10.187   9.483  10.638 -0.4349  0.8460  0.0321
  939MOL0     O29452  10.211   9.425  10.509 -0.5571 -0.0779  0.3566
  939MOL0     C29453  10.165   9.283  10.504 -0.7263  0.2042 -0.4262
  939MOL0     C29454  10.168   9.230  10.367 -0.5602  0.5388  0.4166
  939MOL0     C29455  10.318   9.217  10.308  0.6247 -0.9017  0.1128
  939MOL0     C29456  10.327   9.229  10.156 -0.7218  0.0284 -0.3599
  939MOL0     C29457  10.474   9.189  10.124 -0.3725 -0.5485  0.1860
  939MOL0     C29458  10.482   9.134   9.973 -0.2083  0.9617  0.9098
  939MOL0     C29459  10.491   9.246   9.882 -0.2842 -0.4098  0.1737
  939MOL0     C29460  10.497   9.208   9.733 -0.3262 -1.0714 -0.3404
  939MOL0     N29461  10.636   9.178   9.699 -0.1666  0.6394  0.1032
  939MOL0     C29462  10.690   9.052   9.676 -0.4167  0.5574  0.3955
  939MOL0     C29463  10.824   9.079   9.632 -0.4217 -0.8061 -0.6669
  939MOL0     C29464  10.943   8.992   9.594 -0.7390  0.4977  0.6511
  939MOL0     C29465  11.048   8.974   9.706 -0.1810  0.7861  0.4975
  939MOL0     C29466  11.163   8.880   9.647  0.1321  0.1563  0.0554
  939MOL0     C29467  11.253   8.813   9.745 -0.1800 -0.2022  1.1855
  939MOL0     O29468  11.345   8.711   9.674  0.4084 -0.3764 -0.7644
  939MOL0     C29469  11.481   8.739   9.649 -0.0921  0.2238 -0.6123
  939MOL0     C29470  11.521   8.713   9.522 -0.2872 -0.2410  0.2797
  939MOL0     C29471  11.655   8.741   9.486  0.0590 -0.0327 -0.4705
  939MOL0     C29472  11.694   8.710   9.338  0.8364  0.5452  0.5132
  939MOL0     C29473  11.762   8.763   9.578 -0.6345  0.0235 -0.0158
  939MOL0     C29474  11.905   8.777   9.521  0.4302  0.2253 -0.2647
  939MOL0     O29475  11.990   8.746   9.631 -0.9950  0.1545  0.4103
  939MOL0     C29476  12.129   8.749   9.597  0.4558  0.1437 -0.4327
  939MOL0     C29477  12.217   8.808   9.693 -0.3562  0.7167  0.0954
  939MOL0     C29478  12.355   8.810   9.673  0.1349  0.1724  0.4001
  939MOL0     C29479  12.412   8.761   9.557 -0.2152  0.0709 -0.3343
  939MOL0     O29480  12.550   8.778   9.537  0.0236  0.3460 -0.3254
  939MOL0     C29481  12.639   8.736   9.643  0.2829 -0.5425  0.6523
  939MOL0     C29482  12.666   8.594   9.632 -0.4718 -0.0200 -0.1609
  939MOL0     C29483  12.732   8.550   9.504 -0.2967 -0.0542  0.4698
  939MOL0     C29484  12.820   8.665   9.447 -0.1796 -0.0187  0.5206
  939MOL0     C29485  12.902   8.629   9.323  0.2036 -0.9878  0.2362
  939MOL0     C29486  12.816   8.619   9.188 -0.8330  0.1558  0.3783
  939MOL0     C29487  12.907   8.621   9.067 -1.4283  0.5487 -0.2495
  939MOL0     C29488  13.017   8.513   9.076 -0.2264 -0.0710  0.1668
  939MOL0    Cl29489  12.947   8.353   9.113  0.5640  0.2363 -0.1998
  939MOL0     C29490  12.328   8.720   9.451  0.4910 -1.0642  0.0338
  939MOL0     C29491  12.191   8.701   9.473  0.2775 -0.8511 -0.9718
  939MOL0     O29492  11.937   8.833   9.414  0.9330  0.1218  0.6105
  939MOL0     C29493  11.718   8.782   9.709  0.1073  0.5302  0.5187
  939MOL0     C29494  11.579   8.778   9.746 -0.3082  0.6035 -0.0685
  939MOL0     N29495  10.836   9.213   9.617 -1.2249 -0.6544  0.2786
  939MOL0     N29496  10.726   9.268   9.658 -0.6060  0.6027  0.1369
  939MOL0     C29497  10.171   9.413  10.759  0.6047 -0.3333 -0.6101
  939MOL0     C29498  10.139   9.479  10.882 -0.9152  0.7199 -0.1619
  939MOL0     C29499   9.961   9.713  11.202  0.3173  0.1751  0.9408
  939MOL0     C29500   9.927   9.641  11.313  0.2168  0.1070  0.1333
  939MOL0     C29501   9.831   9.691  11.409 -0.3310 -0.1716  0.0985
  939MOL0     C29502   9.749   9.802  11.389  0.0173 -0.3278 -0.4453
  939MOL0     O29503   9.660   9.843  11.484  0.7096  0.6619 -0.0997
  939MOL0     C29504   9.584   9.965  11.467  0.2815 -0.0871  1.1141
  939MOL0     C29505   9.511   9.982  11.598 -0.3640 -0.5239  0.5131
  939MOL0     C29506   9.402  10.084  11.575  0.1337 -0.1056 -0.2072
  939MOL0     C29507   9.328  10.121  11.705 -0.1734  0.0921 -0.5974
  939MOL0     C29508   9.268  10.250  11.689  1.2145 -0.2385 -0.2665
  939MOL0     C29509   9.215  10.349  11.656  1.1139 -0.3409 -0.4452
  939MOL0     C29510   9.786   9.879  11.278 -0.8169  0.9853  0.0960
  939MOL0     C29511   9.888   9.842  11.186 -0.1454 -0.0719 -0.0703
  939MOL0     C29512   9.897   9.919  11.052 -0.0312  0.1536 -0.0357
  939MOL0     H29513  10.098   9.797  10.756 -0.8486  0.4501  1.4643
  939MOL0     H29514  10.201   9.674  10.556  2.0086 -1.2770 -0.1565
  939MOL0     H29515  10.060   9.274  10.535  0.2436 -2.4898  2.6038
  939MOL0     H29516  10.223   9.218  10.570 -2.6098  1.6092  2.8520
  939MOL0     H29517  10.128   9.128  10.369  1.2751 -0.2134  0.9247
  939MOL0     H29518  10.111   9.293  10.298  1.0118 -0.0587 -1.5280
  939MOL0     H29519  10.377   9.301  10.346 -0.4814 -0.7298  1.5603
  939MOL0     H29520  10.356   9.124  10.351 -1.9634 -1.3887  1.5859
  939MOL0     H29521  10.255   9.154  10.120  0.5344 -2.0533  1.2548
  939MOL0     H29522  10.308   9.329  10.115  0.6550  0.5457  0.2045
  939MOL0     H29523  10.512   9.125  10.204  0.4684  1.8740  1.8261
  939MOL0     H29524  10.531   9.282  10.118 -0.2954 -0.6932 -3.1942
  939MOL0     H29525  10.572   9.072   9.965 -0.0509  1.4559 -2.2003
  939MOL0     H29526  10.395   9.077   9.940  1.2654 -0.5380 -0.5732
  939MOL0     H29527  10.572   9.315   9.905  0.6490 -0.4154 -2.7180
  939MOL0     H29528  10.406   9.314   9.897 -0.1283 -0.4755  1.4696
  939MOL0     H29529  10.425   9.133   9.698 -0.1141 -0.3803 -2.3744
  939MOL0     H29530  10.458   9.292   9.676  0.3156 -0.4927  0.0640
  939MOL0     H29531  10.634   8.963   9.703  0.4520 -1.0666 -2.6640
  939MOL0     H29532  10.989   9.036   9.506 -0.7601 -0.4210  0.1693
  939MOL0     H29533  10.908   8.890   9.577  0.3682 -0.2351  2.4238
  939MOL0     H29534  11.078   9.075   9.735  1.1001  0.2569  1.0427
  939MOL0     H29535  11.001   8.930   9.794 -1.5317  0.0197 -0.5637
  939MOL0     H29536  11.119   8.794   9.595  0.4668 -0.9495  1.5136
  939MOL0     H29537  11.221   8.935   9.573  0.2742  1.0441  0.8055
  939MOL0     H29538  11.310   8.881   9.809  4.0202 -1.3934 -0.8760
  939MOL0     H29539  11.178   8.759   9.802 -2.7470  0.2894 -1.4543
  939MOL0     H29540  11.445   8.681   9.452 -1.0735  1.7623  0.1379
  939MOL0     H29541  11.713   8.803   9.284  0.0016 -0.4309 -1.5923
  939MOL0     H29542  11.609   8.663   9.287 -1.6274  1.2706  3.6159
  939MOL0     H29543  11.780   8.644   9.331  0.2650 -0.3133  1.2593
  939MOL0     H29544  12.169   8.841   9.784 -1.0691 -0.1065  0.0325
  939MOL0     H29545  12.415   8.866   9.745  1.3629  0.5886 -0.9071
  939MOL0     H29546  12.720   8.809   9.648 -0.6189  1.0980 -3.8152
  939MOL0     H29547  12.589   8.761   9.737 -1.2642  1.3630 -0.6073
  939MOL0     H29548  12.733   8.558   9.711 -2.5005 -0.5249  1.4116
  939MOL0     H29549  12.581   8.532   9.660 -0.3328  0.1169  0.5882
  939MOL0     H29550  12.663   8.524   9.424  0.5580  0.4074 -0.4355
  939MOL0     H29551  12.803   8.470   9.529  1.1126  1.2312  0.7060
  939MOL0     H29552  12.881   8.708   9.528 -1.5781 -2.2239  2.9093
  939MOL0     H29553  12.751   8.743   9.415 -1.6991 -0.8181  1.6970
  939MOL0     H29554  12.966   8.717   9.314 -1.7413  0.3991 -0.5190
  939MOL0     H29555  12.957   8.537   9.343  0.9788 -0.4666  0.5476
  939MOL0     H29556  12.759   8.711   9.172  1.5636  1.6011 -0.2781
  939MOL0     H29557  12.748   8.533   9.190 -0.5275 -0.1119 -0.2166
  939MOL0     H29558  12.957   8.719   9.069 -1.5089  0.5963 -0.4526
  939MOL0     H29559  12.852   8.604   8.974 -0.6804 -2.3673 -0.2549
  939MOL0     H29560  13.077   8.539   9.164 -0.8295  1.3386  0.2076
  939MOL0     H29561  13.076   8.513   8.985  0.6544 -0.1480  0.7262
  939MOL0     H29562  12.371   8.705   9.352  0.9237  1.4817 -0.2261
  939MOL0     H29563  12.132   8.650   9.396 -1.4447  0.5487 -0.6479
  939MOL0     H29564  11.786   8.788   9.794  3.2175  0.0432 -1.7594
  939MOL0     H29565  11.557   8.792   9.852  0.7516  2.0567 -0.0134
  939MOL0     H29566  10.183   9.305  10.772 -5.1027 -1.2020 -0.0380
  939MOL0     H29567  10.131   9.426  10.976  2.4929 -0.5016 -0.4313
  939MOL0     H29568   9.972   9.544  11.328 -0.4183 -0.4086 -1.1370
  939MOL0     H29569   9.813   9.626  11.494  2.5273 -4.6496 -2.3447
  939MOL0     H29570   9.649  10.046  11.434  0.2804 -1.2806 -2.2157
  939MOL0     H29571   9.507   9.943  11.392  1.6065 -2.1181  0.2726
  939MOL0     H29572   9.593  10.010  11.664  0.7313 -3.9802  0.8055
  939MOL0     H29573   9.467   9.887  11.631 -2.1588 -0.2029 -0.7654
  939MOL0     H29574   9.436  10.172  11.520 -1.7752  0.3834 -0.6970
  939MOL0     H29575   9.311  10.045  11.527 -0.0329  2.6855 -2.4998
  939MOL0     H29576   9.395  10.124  11.792  1.2420 -1.1582 -1.6042
  939MOL0     H29577   9.253  10.047  11.735 -0.0151  1.0713  2.7033
  939MOL0     H29578   9.178  10.446  11.631 -1.1742 -1.4365 -1.5962
  939MOL0     H29579   9.743   9.978  11.274 -1.6789  0.8050  2.8809
  939MOL0     H29580   9.996   9.964  11.039 -0.5985  0.9012 -2.2266
  939MOL0     H29581   9.891   9.849  10.968  0.6310 -0.7763  0.6637
  939MOL0     H29582   9.824   9.999  11.042 -0.3519 -0.0720  0.4841
  940MOL0     O29583   6.454   7.697   0.213  0.5754 -0.1647 -0.0887
  940MOL0     C29584   6.343   7.687   0.258 -0.0019  0.3764 -0.1806
  940MOL0     O29585   6.289   7.759   0.357  0.3412 -0.9403 -0.2444
  940MOL0     C29586   6.370   7.841   0.428 -0.2138 -0.1558 -0.5879
  940MOL0     C29587   6.342   7.969   0.418  0.0952 -0.0685 -0.1714
  940MOL0     C29588   6.409   8.067   0.493  1.0368  0.0106  0.8174
  940MOL0     C29589   6.509   8.035   0.580  0.0770  0.3014  0.6559
  940MOL0     O29590   6.583   8.119   0.657  0.8751 -0.4108  0.0765
  940MOL0     C29591   6.530   8.249   0.703  0.5350  0.4587  0.6686
  940MOL0     C29592   6.627   8.308   0.799  0.4977 -0.0986 -0.9499
  940MOL0     C29593   6.642   8.213   0.930  0.6974 -0.1937  0.7178
  940MOL0     C29594   6.603   8.281   1.060  0.6544  0.7595  0.1761
  940MOL0     C29595   6.621   8.183   1.182  0.0756  0.7038  0.1684
  940MOL0     C29596   6.515   8.214   1.291 -0.5884  0.2489 -0.3391
  940MOL0     C29597   6.518   8.120   1.410  0.2830  0.6400 -0.3464
  940MOL0     C29598   6.392   8.115   1.502 -0.4086 -0.9158  0.9118
  940MOL0     N29599   6.394   8.014   1.606  0.2304  0.2991  0.3253
  940MOL0     C29600   6.321   7.891   1.601  0.4119 -1.0825  1.3857
  940MOL0     C29601   6.351   7.823   1.713  0.1496 -0.4521  1.6285
  940MOL0     C29602   6.310   7.685   1.732 -0.7057  0.2183  0.1747
  940MOL0     C29603   6.209   7.686   1.840  0.4223  0.3661  0.4668
  940MOL0     C29604   6.063   7.712   1.793  0.3950 -0.2295 -0.4722
  940MOL0     C29605   6.015   7.608   1.689  0.5812 -1.9907 -0.6470
  940MOL0     O29606   6.036   7.649   1.554 -0.0323  0.0603 -0.5613
  940MOL0     C29607   5.998   7.565   1.452 -0.2972 -0.4045 -0.5117
  940MOL0     C29608   6.025   7.587   1.319 -0.9368 -0.6852  0.7034
  940MOL0     C29609   5.972   7.518   1.201 -0.4765  0.1962  0.2745
  940MOL0     C29610   6.017   7.567   1.061 -0.0726 -0.3454 -0.4464
  940MOL0     C29611   5.896   7.407   1.229 -0.5085  1.0907  0.3816
  940MOL0     C29612   5.835   7.321   1.134 -0.1767  0.8626  0.5985
  940MOL0     O29613   5.843   7.182   1.176 -0.4350  0.6745 -0.9498
  940MOL0     C29614   5.838   7.069   1.099 -0.3775  0.4595  0.0513
  940MOL0     C29615   5.895   7.063   0.968 -0.7082 -0.9508 -1.0810
  940MOL0     C29616   5.883   6.960   0.885 -0.2856 -0.1969 -0.5678
  940MOL0     C29617   5.808   6.850   0.921  0.6217 -0.3854  0.0343
  940MOL0     O29618   5.796   6.749   0.832  0.5107 -0.4397  0.0236
  940MOL0     C29619   5.878   6.645   0.868 -0.1983  0.2560 -1.2116
  940MOL0     C29620   5.808   6.512   0.813 -0.9165 -0.2307  0.3912
  940MOL0     C29621   5.901   6.392   0.834 -0.4355 -0.1551  1.1666
  940MOL0     C29622   5.851   6.256   0.758  0.2788 -0.6711  0.2205
  940MOL0     C29623   5.954   6.143   0.779 -0.0811  0.5321  1.3648
  940MOL0     C29624   5.996   6.105   0.925 -0.1609  0.8915  0.8396
  940MOL0     C29625   6.097   5.997   0.924 -0.0419 -0.0701  1.2714
  940MOL0     C29626   6.169   5.997   1.064 -0.1021  0.6702  0.4075
  940MOL0    Cl29627   6.054   5.994   1.201  0.0199 -0.3622  0.2280
  940MOL0     C29628   5.740   6.856   1.050 -0.4813  0.0136  0.0975
  940MOL0     C29629   5.758   6.962   1.138  0.5237 -0.4669  0.5435
  940MOL0     O29630   5.787   7.354   1.029  0.1241 -0.4465  0.1191
  940MOL0     C29631   5.867   7.378   1.367 -0.3571  0.2325 -0.8030
  940MOL0     C29632   5.939   7.443   1.473  0.1749 -0.3602  0.7710
  940MOL0     N29633   6.438   7.902   1.787 -0.0973  0.1815  0.4080
  940MOL0     N29634   6.462   8.009   1.726  0.0133 -0.2526 -0.4080
  940MOL0     C29635   6.543   7.900   0.587 -0.0155 -0.1385  0.6798
  940MOL0     C29636   6.478   7.802   0.515  0.7655  0.4112 -0.7008
  940MOL0     C29637   6.242   7.590   0.192  0.1934 -0.3463 -1.1007
  940MOL0     C29638   6.287   7.460   0.174 -0.1189  0.4662 -0.4420
  940MOL0     C29639   6.207   7.357   0.121 -0.5874 -0.0583 -1.4585
  940MOL0     C29640   6.078   7.390   0.070 -0.1431  0.6924 -0.2625
  940MOL0     O29641   5.984   7.304   0.001 -0.1248 -0.3281  0.1153
  940MOL0     C29642   6.018   7.171  -0.041 -0.4265  0.1465 -0.9103
  940MOL0     C29643   6.066   7.149  -0.177  0.6213  0.4999  1.0777
  940MOL0     C29644   5.968   7.131  -0.282  0.1781 -0.3883 -0.2915
  940MOL0     C29645   5.900   7.259  -0.318  0.0690  0.7404 -0.2808
  940MOL0     C29646   5.960   7.317  -0.437 -0.0935 -0.4144 -0.0780
  940MOL0     C29647   6.004   7.371  -0.539  0.2120  0.8326  0.0173
  940MOL0     C29648   6.037   7.517   0.102 -0.0557 -0.2769  0.0115
  940MOL0     C29649   6.110   7.624   0.152 -0.2432 -0.4439 -0.3726
  940MOL0     C29650   6.060   7.766   0.163  0.4347 -0.5234 -0.4689
  940MOL0     H29651   6.265   7.997   0.347  0.4000 -1.6014 -1.1488
  940MOL0     H29652   6.375   8.170   0.493 -1.2410 -0.6810  1.4684
  940MOL0     H29653   6.433   8.224   0.747 -0.5734  0.7741 -1.5104
  940MOL0     H29654   6.500   8.311   0.618  0.6552  0.2195  0.4497
  940MOL0     H29655   6.727   8.313   0.755  0.3970  0.0623 -1.1653
  940MOL0     H29656   6.610   8.411   0.831  1.7198 -0.5595  1.3363
  940MOL0     H29657   6.589   8.117   0.922  0.3195 -0.0933  1.8232
  940MOL0     H29658   6.748   8.191   0.944 -0.1921 -2.9219  4.9895
  940MOL0     H29659   6.668   8.369   1.059  0.5478  0.8385  0.1392
  940MOL0     H29660   6.501   8.322   1.054  1.3189  2.9081  2.0388
  940MOL0     H29661   6.726   8.194   1.213 -0.6415  2.8554  2.0736
  940MOL0     H29662   6.598   8.081   1.152 -0.4342  0.8849 -0.0620
  940MOL0     H29663   6.536   8.315   1.328 -3.0286  0.7261 -0.1142
  940MOL0     H29664   6.417   8.223   1.244 -0.0299  1.5920 -1.2888
  940MOL0     H29665   6.602   8.135   1.479 -0.7606 -2.1967  1.7506
  940MOL0     H29666   6.537   8.021   1.366  0.4304  0.2356  0.5816
  940MOL0     H29667   6.390   8.218   1.538 -1.6116  0.3735 -2.4447
  940MOL0     H29668   6.306   8.112   1.435 -0.5347  2.0471  0.7880
  940MOL0     H29669   6.246   7.867   1.526  1.9206 -0.1525 -0.5185
  940MOL0     H29670   6.400   7.626   1.750 -0.8413 -0.3431 -0.8885
  940MOL0     H29671   6.282   7.646   1.634  1.8927  0.6360 -0.8151
  940MOL0     H29672   6.202   7.586   1.883 -3.0598  2.0597  4.5345
  940MOL0     H29673   6.224   7.764   1.916  1.2843  1.5403 -0.8594
  940MOL0     H29674   5.997   7.721   1.880  1.0145 -0.7872  0.0686
  940MOL0     H29675   6.072   7.811   1.748 -0.7079 -0.4765 -1.2811
  940MOL0     H29676   6.061   7.510   1.708  0.7531 -1.7618  0.1799
  940MOL0     H29677   5.906   7.595   1.695 -0.0506  1.8134 -1.4902
  940MOL0     H29678   6.097   7.666   1.306  0.5084 -2.2725 -1.6435
  940MOL0     H29679   6.012   7.676   1.058  2.3018 -0.0990  1.5841
  940MOL0     H29680   5.946   7.533   0.986  0.2688 -1.3135 -0.3489
  940MOL0     H29681   6.116   7.527   1.038  0.2176  1.1289 -1.9407
  940MOL0     H29682   5.958   7.149   0.944 -1.5389  0.8142  2.2843
  940MOL0     H29683   5.918   6.975   0.783 -2.7255  1.3127 -1.2778
  940MOL0     H29684   5.981   6.654   0.834  0.7141 -1.3118  0.9111
  940MOL0     H29685   5.871   6.616   0.973 -1.9163 -0.7150 -1.5456
  940MOL0     H29686   5.712   6.486   0.859 -1.3514  1.2289  0.3771
  940MOL0     H29687   5.796   6.527   0.705 -1.2262 -2.9455 -0.0176
  940MOL0     H29688   5.915   6.370   0.941  0.8700  1.9707  1.4969
  940MOL0     H29689   6.002   6.413   0.796 -0.5632 -1.1062  0.2481
  940MOL0     H29690   5.844   6.278   0.651 -0.3551  0.6594  0.5102
  940MOL0     H29691   5.756   6.230   0.803  1.3359 -2.2901  1.6154
  940MOL0     H29692   5.923   6.062   0.713  3.7371  4.0163 -5.9450
  940MOL0     H29693   6.043   6.165   0.720  0.4658  1.5904  2.5509
  940MOL0     H29694   5.905   6.070   0.974 -0.7842 -0.4754 -1.1731
  940MOL0     H29695   6.043   6.191   0.973 -0.7004  2.4541 -1.2789
  940MOL0     H29696   6.172   6.003   0.845 -1.3629 -1.3619 -0.1523
  940MOL0     H29697   6.059   5.899   0.895 -2.6225  1.7162 -2.1622
  940MOL0     H29698   6.242   6.078   1.073 -0.3938  1.1752 -1.3637
  940MOL0     H29699   6.224   5.902   1.064  2.2092  1.9034 -1.7891
  940MOL0     H29700   5.671   6.775   1.073 -2.7143  2.2616  2.0006
  940MOL0     H29701   5.721   6.964   1.240  2.8145 -3.6884  1.5794
  940MOL0     H29702   5.802   7.294   1.391 -0.2119 -0.8024 -3.6258
  940MOL0     H29703   5.916   7.420   1.576  3.4654 -0.5981  1.5664
  940MOL0     H29704   6.618   7.869   0.659  2.8774  3.2086 -0.6116
  940MOL0     H29705   6.499   7.696   0.523 -1.2485 -0.0476 -0.9803
  940MOL0     H29706   6.386   7.444   0.216 -1.2264  2.0416  3.1258
  940MOL0     H29707   6.254   7.260   0.105 -1.2446 -0.3185 -1.8814
  940MOL0     H29708   6.094   7.133   0.027 -1.3058  0.0776  0.0556
  940MOL0     H29709   5.932   7.104  -0.030 -1.6079  1.7135 -0.1464
  940MOL0     H29710   6.115   7.051  -0.181  0.1319  0.1730  2.4220
  940MOL0     H29711   6.142   7.225  -0.195 -0.1342  1.0255 -0.0077
  940MOL0     H29712   6.018   7.091  -0.371  1.8151 -3.3216  1.8272
  940MOL0     H29713   5.897   7.052  -0.257 -0.3935  0.2027 -0.0178
  940MOL0     H29714   5.879   7.333  -0.240  0.6897  2.1670 -1.4160
  940MOL0     H29715   5.798   7.224  -0.337  0.3125 -0.3466  0.3429
  940MOL0     H29716   6.034   7.416  -0.631 -1.0142 -1.6260 -1.7065
  940MOL0     H29717   5.936   7.524   0.063 -0.4846  0.3184  1.1873
  940MOL0     H29718   5.953   7.756   0.145  0.5196 -2.1940 -0.2055
  940MOL0     H29719   6.067   7.812   0.262  0.2907 -0.4407 -0.4968
  940MOL0     H29720   6.109   7.835   0.093  4.8483 -1.2379  1.5698
  941MOL0     O29721   4.363   9.195   8.012 -0.4098  0.2377 -0.2653
  941MOL0     C29722   4.357   9.305   8.069 -0.3797 -0.5901  0.8648
  941MOL0     O29723   4.397   9.424   8.015  1.0172 -0.0163  0.2818
  941MOL0     C29724   4.422   9.433   7.877  0.9202 -0.1925  0.0380
  941MOL0     C29725   4.325   9.467   7.783  0.2512  0.4692  0.3739
  941MOL0     C29726   4.365   9.467   7.644 -0.0492  0.0536 -0.1483
  941MOL0     C29727   4.496   9.438   7.600  0.3956 -0.1525 -0.3666
  941MOL0     O29728   4.515   9.441   7.470 -0.7170 -0.3698 -0.2766
  941MOL0     C29729   4.546   9.308   7.419 -0.1562  0.2438 -0.4505
  941MOL0     C29730   4.585   9.309   7.273 -0.3226  0.4552  0.4678
  941MOL0     C29731   4.616   9.169   7.216  0.6170 -0.0836 -0.1987
  941MOL0     C29732   4.721   9.163   7.108 -0.4088 -0.0907 -0.7945
  941MOL0     C29733   4.762   9.019   7.069 -0.3858 -0.0027 -0.1299
  941MOL0     C29734   4.880   9.004   6.967 -0.3127 -0.9261  0.1774
  941MOL0     C29735   4.849   9.031   6.820  0.4909 -0.0955  0.5287
  941MOL0     C29736   4.965   9.012   6.718  0.6388 -0.4319  0.0323
  941MOL0     N29737   5.057   8.891   6.743 -0.5134 -0.2958  0.2250
  941MOL0     C29738   5.043   8.756   6.723  0.1029 -0.2107 -1.1711
  941MOL0     C29739   5.162   8.700   6.755  0.7078  0.5747  0.4641
  941MOL0     C29740   5.204   8.547   6.741  0.0759 -0.4716  1.2692
  941MOL0     C29741   5.295   8.517   6.862  0.0301 -0.6135 -0.3351
  941MOL0     C29742   5.341   8.374   6.874  0.1460 -0.2400  1.1696
  941MOL0     C29743   5.422   8.335   6.991 -0.3013  0.5913 -0.8514
  941MOL0     O29744   5.443   8.190   6.982  0.3763  0.0435  0.0505
  941MOL0     C29745   5.471   8.138   7.100 -0.3204  0.1036  0.3006
  941MOL0     C29746   5.395   8.046   7.165  0.1521  0.5947  0.8453
  941MOL0     C29747   5.437   7.988   7.290 -0.1567  0.5183  0.3858
  941MOL0     C29748   5.343   7.895   7.357 -0.0323  0.0957 -0.5036
  941MOL0     C29749   5.566   8.029   7.349  0.7277 -0.8479 -0.2114
  941MOL0     C29750   5.610   7.976   7.465  0.2754 -0.0823  0.6413
  941MOL0     O29751   5.687   8.057   7.554  0.0927 -1.2010  0.1867
  941MOL0     C29752   5.755   8.001   7.662 -0.0388 -0.7102 -0.0223
  941MOL0     C29753   5.886   8.040   7.679 -0.8325  0.6847 -0.3800
  941MOL0     C29754   5.955   7.974   7.787  0.3262 -0.5035  0.4526
  941MOL0     C29755   5.899   7.885   7.877 -0.0147 -0.2950 -0.1857
  941MOL0     O29756   5.981   7.860   7.990 -0.3676  0.5317  0.6444
  941MOL0     C29757   5.944   7.898   8.124 -0.3162 -0.1994  0.1603
  941MOL0     C29758   5.940   8.048   8.157  0.1315 -0.7511 -0.0023
  941MOL0     C29759   5.803   8.092   8.198 -0.6344 -0.4627  0.3663
  941MOL0     C29760   5.783   8.238   8.243  0.0626 -0.4112  0.2903
  941MOL0     C29761   5.865   8.272   8.368 -0.6429  0.3802 -0.4034
  941MOL0     C29762   5.836   8.423   8.392  0.2912  0.5232  0.6513
  941MOL0     C29763   5.855   8.475   8.534  0.1287  0.4412  0.1109
  941MOL0     C29764   5.787   8.613   8.549  0.2829  0.4142  0.3901
  941MOL0    Cl29765   5.812   8.684   8.703  0.2539 -0.0645  0.1583
  941MOL0     C29766   5.764   7.865   7.864 -0.2093 -0.2764  0.5181
  941MOL0     C29767   5.693   7.926   7.759  0.0934 -0.3379 -0.9748
  941MOL0     O29768   5.598   7.851   7.484 -0.2557 -0.4147 -0.4742
  941MOL0     C29769   5.631   8.123   7.285 -0.7891  0.2644  0.1557
  941MOL0     C29770   5.597   8.173   7.156 -0.6084 -0.7955  0.0269
  941MOL0     N29771   5.239   8.796   6.816  0.9489 -0.3246  1.0293
  941MOL0     N29772   5.178   8.906   6.798  0.6758  0.3978  0.6278
  941MOL0     C29773   4.592   9.415   7.699  0.0397 -0.1544  0.1609
  941MOL0     C29774   4.550   9.416   7.834 -0.0821 -0.3545 -0.1524
  941MOL0     C29775   4.328   9.310   8.217 -0.3779 -0.1099  0.2740
  941MOL0     C29776   4.408   9.399   8.301  0.1774  0.1618  0.5291
  941MOL0     C29777   4.415   9.380   8.438 -0.4064  1.1448 -0.9802
  941MOL0     C29778   4.337   9.276   8.504  0.4617 -0.5055  1.1104
  941MOL0     O29779   4.351   9.250   8.635  0.9617 -0.5507 -0.6040
  941MOL0     C29780   4.258   9.181   8.719  0.1421 -0.3730  0.5612
  941MOL0     C29781   4.288   9.038   8.758  0.8663  0.1822 -0.6861
  941MOL0     C29782   4.337   8.950   8.638 -0.3172 -0.4594 -0.8512
  941MOL0     C29783   4.371   8.817   8.709 -0.1539 -1.4851 -0.1523
  941MOL0     C29784   4.495   8.817   8.794  0.8994 -0.5570  0.4174
  941MOL0     C29785   4.604   8.819   8.842  0.4476 -0.1050  0.3819
  941MOL0     C29786   4.254   9.202   8.425  0.2409 -0.3718 -0.3007
  941MOL0     C29787   4.235   9.226   8.292  0.0194 -0.3790  0.0213
  941MOL0     C29788   4.140   9.136   8.218 -0.2408  0.4277  0.5948
  941MOL0     H29789   4.224   9.498   7.807  0.8517  2.1056  0.8852
  941MOL0     H29790   4.286   9.509   7.582 -0.5538 -0.7018 -0.0397
  941MOL0     H29791   4.463   9.241   7.442 -0.4000  0.2039 -1.4206
  941MOL0     H29792   4.637   9.268   7.464  0.9125  1.0998 -1.7631
  941MOL0     H29793   4.488   9.339   7.232  0.0442  1.8910  0.5989
  941MOL0     H29794   4.645   9.394   7.241 -2.5215  3.4632  3.5846
  941MOL0     H29795   4.655   9.118   7.305 -1.7200 -0.5976  0.5852
  941MOL0     H29796   4.530   9.108   7.186  1.4418 -1.0964 -0.5819
  941MOL0     H29797   4.687   9.219   7.021  1.7364  0.6848 -1.1909
  941MOL0     H29798   4.817   9.207   7.136 -1.2632  1.6134 -0.3970
  941MOL0     H29799   4.675   8.964   7.031  0.9180 -1.6607 -0.8482
  941MOL0     H29800   4.784   8.965   7.162 -1.4163 -3.1250 -1.5393
  941MOL0     H29801   4.962   9.073   6.991 -1.3559  2.0443 -3.7554
  941MOL0     H29802   4.905   8.898   6.974  2.0397 -0.3906  1.2016
  941MOL0     H29803   4.826   9.137   6.809  1.6813  0.4320  2.6478
  941MOL0     H29804   4.757   8.976   6.797  0.9546  0.1012 -2.1807
  941MOL0     H29805   4.937   9.023   6.613  0.2985 -0.5106  0.1112
  941MOL0     H29806   5.020   9.107   6.724  0.6315 -0.4929  1.3937
  941MOL0     H29807   4.957   8.695   6.698 -1.8272  1.6535  0.4774
  941MOL0     H29808   5.248   8.522   6.644 -0.9278 -0.2537  0.7470
  941MOL0     H29809   5.125   8.471   6.734 -1.8397  1.5827 -0.7560
  941MOL0     H29810   5.388   8.575   6.859 -0.4742  0.2340  0.1625
  941MOL0     H29811   5.257   8.547   6.960  4.1905  0.8948  1.0312
  941MOL0     H29812   5.248   8.315   6.871 -1.8251  2.4803  3.3384
  941MOL0     H29813   5.402   8.350   6.787 -1.8096  1.6462 -0.8629
  941MOL0     H29814   5.516   8.391   6.995  0.9171 -1.1945 -2.3608
  941MOL0     H29815   5.359   8.356   7.077 -1.9581 -0.3184 -1.7941
  941MOL0     H29816   5.294   8.024   7.132  0.1661 -0.3652  1.3932
  941MOL0     H29817   5.247   7.892   7.306 -1.4314  0.3134  1.9499
  941MOL0     H29818   5.320   7.915   7.462 -0.8933 -4.0759  0.2949
  941MOL0     H29819   5.387   7.795   7.346  3.4093  1.3854  0.3338
  941MOL0     H29820   5.922   8.118   7.613 -0.7772  3.0282  2.2698
  941MOL0     H29821   6.057   8.006   7.803  0.4959 -0.8314  0.0236
  941MOL0     H29822   5.858   7.839   8.156  1.2032 -1.6720  1.7338
  941MOL0     H29823   6.032   7.869   8.183  0.5387  0.4963 -0.7441
  941MOL0     H29824   6.001   8.071   8.245  0.0109  0.0927 -0.1253
  941MOL0     H29825   5.965   8.105   8.066 -1.1337 -0.5174 -0.2118
  941MOL0     H29826   5.769   8.026   8.278  1.8130 -0.1499  1.7767
  941MOL0     H29827   5.735   8.080   8.113 -0.3549  0.5234 -0.0161
  941MOL0     H29828   5.677   8.248   8.267  0.5017  3.3755  1.2821
  941MOL0     H29829   5.802   8.311   8.163  0.7360 -0.8577  0.0370
  941MOL0     H29830   5.838   8.215   8.458  2.6544  2.0907  1.8961
  941MOL0     H29831   5.968   8.246   8.341 -1.5965 -1.8036 -2.2619
  941MOL0     H29832   5.728   8.432   8.374  0.3197  0.9401  0.6660
  941MOL0     H29833   5.889   8.489   8.322 -0.0738  2.1559  1.8447
  941MOL0     H29834   5.964   8.488   8.543  0.9824 -1.8651 -4.2406
  941MOL0     H29835   5.808   8.412   8.609 -0.0103  2.0068  1.3835
  941MOL0     H29836   5.680   8.597   8.536  0.0201  2.1838  0.0818
  941MOL0     H29837   5.830   8.679   8.472  0.9360 -0.0595  0.3355
  941MOL0     H29838   5.713   7.796   7.930 -1.3169 -0.8689 -0.9209
  941MOL0     H29839   5.586   7.914   7.746  0.2393 -3.7165 -0.0805
  941MOL0     H29840   5.726   8.154   7.329 -0.9111 -0.3363  0.8509
  941MOL0     H29841   5.653   8.248   7.101 -2.0895  1.0236  0.8696
  941MOL0     H29842   4.694   9.383   7.677 -0.0567  0.4973 -1.3577
  941MOL0     H29843   4.616   9.409   7.920 -1.8063 -0.9714  1.1829
  941MOL0     H29844   4.477   9.471   8.258  3.2983 -1.3018  2.6727
  941MOL0     H29845   4.472   9.453   8.494  0.9291 -0.9175  0.5015
  941MOL0     H29846   4.231   9.242   8.806  0.4642  1.9532 -0.8659
  941MOL0     H29847   4.166   9.173   8.660 -0.1686  5.5746 -0.4613
  941MOL0     H29848   4.190   9.004   8.792 -1.2745  3.9061 -2.4745
  941MOL0     H29849   4.362   9.026   8.838 -0.9911 -2.5304  0.8081
  941MOL0     H29850   4.254   8.939   8.569 -1.3054 -1.5898  0.4597
  941MOL0     H29851   4.430   8.991   8.597  0.4179 -0.8225  0.3602
  941MOL0     H29852   4.375   8.741   8.630 -3.7198 -3.2960  1.1738
  941MOL0     H29853   4.280   8.804   8.768 -0.5402  2.8840  0.5737
  941MOL0     H29854   4.705   8.804   8.873  1.0711  0.1043 -1.4457
  941MOL0     H29855   4.214   9.108   8.461  2.3210 -0.1789  2.8151
  941MOL0     H29856   4.197   9.056   8.168 -0.6921 -1.2718  2.6533
  941MOL0     H29857   4.048   9.096   8.262 -0.3015 -0.7415 -0.5261
  941MOL0     H29858   4.108   9.209   8.143  1.5614  0.1510 -0.5248
  942MOL0     O29859   9.017   4.556   6.245 -1.2025 -0.1798 -0.4505
  942MOL0     C29860   9.030   4.582   6.366 -0.1356 -0.1419 -0.0094
  942MOL0     O29861   9.021   4.713   6.409 -0.1447 -0.4796 -0.5750
  942MOL0     C29862   8.967   4.808   6.327  0.4951  0.5400  0.1214
  942MOL0     C29863   9.037   4.874   6.232 -0.4091  0.3498  0.4505
  942MOL0     C29864   8.990   4.984   6.163  0.5128  0.6969  0.2608
  942MOL0     C29865   8.856   5.021   6.190 -0.4468 -0.0706  0.0142
  942MOL0     O29866   8.807   5.121   6.117  0.4255 -0.2966  0.2758
  942MOL0     C29867   8.770   5.237   6.194 -0.1831  0.6563  0.5062
  942MOL0     C29868   8.746   5.347   6.092  0.6114 -0.7546  0.4913
  942MOL0     C29869   8.642   5.312   5.981  0.9929  0.7104  0.2101
  942MOL0     C29870   8.549   5.431   5.948 -0.1270  0.5941  0.2522
  942MOL0     C29871   8.425   5.383   5.877  0.3737  0.0346 -0.2980
  942MOL0     C29872   8.444   5.311   5.749 -0.4013 -0.3371 -0.1028
  942MOL0     C29873   8.527   5.388   5.640  0.7965 -0.3733  0.1658
  942MOL0     C29874   8.509   5.324   5.502  0.0252  0.6478  0.5470
  942MOL0     N29875   8.617   5.222   5.485 -0.1115  0.0096 -0.1365
  942MOL0     C29876   8.600   5.102   5.423 -0.9683  0.2540 -0.9139
  942MOL0     C29877   8.722   5.062   5.386  0.5490 -0.7668 -0.4047
  942MOL0     C29878   8.751   4.947   5.297 -0.3143  0.0811  0.7345
  942MOL0     C29879   8.661   4.816   5.311  0.2415  0.8881  0.4589
  942MOL0     C29880   8.658   4.740   5.173 -0.1997 -0.7262 -1.0949
  942MOL0     C29881   8.782   4.733   5.083  0.0803 -1.5228 -1.3147
  942MOL0     O29882   8.759   4.672   4.950  0.0477 -0.5767  0.2198
  942MOL0     C29883   8.705   4.544   4.968 -0.6602  0.0117  0.5050
  942MOL0     C29884   8.576   4.539   4.919 -0.0458  1.2014  0.5159
  942MOL0     C29885   8.511   4.415   4.915  0.9067  0.1083  0.6559
  942MOL0     C29886   8.364   4.419   4.876  0.1959  0.0849  0.0540
  942MOL0     C29887   8.572   4.300   4.954 -0.0323  0.5468 -0.3090
  942MOL0     C29888   8.520   4.157   4.956  0.2361 -0.3475  0.5685
  942MOL0     O29889   8.395   4.139   4.945  0.0108  0.6838  0.2043
  942MOL0     C29890   8.342   4.014   4.975 -0.5863 -0.2924  0.2886
  942MOL0     C29891   8.365   3.912   4.894  0.6945 -0.0114 -0.3646
  942MOL0     C29892   8.287   3.801   4.929  0.5881 -0.4544  0.0883
  942MOL0     C29893   8.200   3.785   5.040  0.1149  0.8706  0.1003
  942MOL0     O29894   8.143   3.664   5.063 -0.2952 -0.2766  0.2884
  942MOL0     C29895   8.096   3.639   5.197  0.0988  0.0408 -0.3877
  942MOL0     C29896   7.978   3.549   5.170  1.4043  0.0928 -0.2095
  942MOL0     C29897   7.918   3.485   5.288 -0.1082 -0.0437  0.4721
  942MOL0     C29898   7.964   3.343   5.312 -0.3534  0.8248  0.9656
  942MOL0     C29899   7.939   3.293   5.454  0.1531 -0.1591 -0.2700
  942MOL0     C29900   8.018   3.359   5.560  0.1809  1.1415  0.1086
  942MOL0     C29901   8.102   3.258   5.637 -0.7394  0.1714  0.1335
  942MOL0     C29902   8.193   3.179   5.553  0.1428  0.1388  0.3626
  942MOL0    Cl29903   8.340   3.153   5.641  0.7078  0.2476  0.1535
  942MOL0     C29904   8.192   3.895   5.126 -0.8917  0.1908 -0.5743
  942MOL0     C29905   8.263   4.005   5.090 -1.2425  0.3376  0.5360
  942MOL0     O29906   8.606   4.067   4.949  0.6236 -0.3056 -0.7042
  942MOL0     C29907   8.700   4.307   4.992  0.4915  0.0180  0.4045
  942MOL0     C29908   8.768   4.427   5.007  0.4578 -0.4950  0.2419
  942MOL0     N29909   8.814   5.148   5.440 -0.7308  0.0793  0.4789
  942MOL0     N29910   8.748   5.249   5.480 -0.3127  0.7455 -0.2978
  942MOL0     C29911   8.781   4.961   6.288 -0.5472  0.2631 -0.4159
  942MOL0     C29912   8.836   4.854   6.355  0.7109 -0.2682 -0.7489
  942MOL0     C29913   9.057   4.473   6.456  0.6014 -0.1728 -0.4054
  942MOL0     C29914   9.146   4.370   6.416 -1.2496 -0.1324  0.1512
  942MOL0     C29915   9.175   4.268   6.495  0.4212 -0.0021 -0.7456
  942MOL0     C29916   9.119   4.257   6.626 -1.3830  0.5000  0.6843
  942MOL0     O29917   9.149   4.157   6.717 -0.4769 -0.4047  0.0928
  942MOL0     C29918   9.226   4.044   6.679 -0.9872 -0.5311  0.2033
  942MOL0     C29919   9.145   3.942   6.593 -0.3750 -0.7642  0.8638
  942MOL0     C29920   9.002   3.918   6.640  0.1726  0.0296  0.1998
  942MOL0     C29921   8.950   3.776   6.605  0.1046 -0.3918 -0.4124
  942MOL0     C29922   8.925   3.754   6.459  0.8082 -0.5994 -0.3181
  942MOL0     C29923   8.877   3.710   6.354  0.2245 -0.6433 -0.1345
  942MOL0     C29924   9.038   4.361   6.662  0.9043  0.1127 -1.0482
  942MOL0     C29925   9.000   4.472   6.581 -0.0733 -0.7737 -0.3019
  942MOL0     C29926   8.897   4.571   6.641 -0.3283 -0.6188 -0.0347
  942MOL0     H29927   9.132   4.827   6.209 -1.3241 -1.3828  0.0575
  942MOL0     H29928   9.048   5.034   6.087 -0.6095  1.5312 -0.0807
  942MOL0     H29929   8.849   5.274   6.260  1.5358 -2.7887  0.5935
  942MOL0     H29930   8.682   5.213   6.253 -0.5061  1.1960  0.2478
  942MOL0     H29931   8.703   5.435   6.139  2.1017  1.3736 -1.8993
  942MOL0     H29932   8.838   5.380   6.043 -0.7012 -1.1481 -2.4346
  942MOL0     H29933   8.685   5.267   5.891  1.0320  0.6089  0.2804
  942MOL0     H29934   8.574   5.236   6.023  2.5597 -2.5109 -2.5787
  942MOL0     H29935   8.517   5.480   6.041 -1.9025  0.3597 -0.1927
  942MOL0     H29936   8.611   5.498   5.888  1.1615  1.2418  2.2035
  942MOL0     H29937   8.373   5.477   5.858 -4.7321 -1.8141  2.5770
  942MOL0     H29938   8.365   5.323   5.947  3.8969 -2.8874  0.5244
  942MOL0     H29939   8.494   5.214   5.763 -2.6642 -1.3729  1.2432
  942MOL0     H29940   8.350   5.295   5.697  0.1623 -1.9989 -0.6867
  942MOL0     H29941   8.634   5.403   5.662  2.0954 -0.8220 -4.7404
  942MOL0     H29942   8.486   5.489   5.631 -2.2504 -1.6793 -2.2659
  942MOL0     H29943   8.410   5.276   5.502 -1.3740  3.2956  1.5656
  942MOL0     H29944   8.521   5.401   5.425  0.3489 -1.5066 -1.6597
  942MOL0     H29945   8.506   5.052   5.399 -0.4954 -1.8889  1.3193
  942MOL0     H29946   8.853   4.909   5.311 -0.3063 -0.2650 -0.2067
  942MOL0     H29947   8.755   4.985   5.194  0.4497 -2.1959 -0.1565
  942MOL0     H29948   8.707   4.752   5.387 -0.2611 -0.4492 -0.3282
  942MOL0     H29949   8.560   4.844   5.342  0.0988  0.8355  0.0345
  942MOL0     H29950   8.632   4.635   5.190  2.6969 -1.7084 -2.1584
  942MOL0     H29951   8.580   4.795   5.120 -3.5764 -1.4446  2.6784
  942MOL0     H29952   8.819   4.836   5.083 -1.1856 -0.8928  2.2414
  942MOL0     H29953   8.859   4.674   5.133 -0.3459 -0.8616  0.2113
  942MOL0     H29954   8.529   4.633   4.891  1.9427  2.3953  0.9903
  942MOL0     H29955   8.334   4.524   4.865 -0.6590 -0.1881 -0.3068
  942MOL0     H29956   8.295   4.371   4.947 -1.3439 -1.0114 -2.0666
  942MOL0     H29957   8.333   4.378   4.780  0.1957  1.2556 -0.4597
  942MOL0     H29958   8.428   3.924   4.806 -0.4282 -2.6072 -1.6195
  942MOL0     H29959   8.300   3.716   4.862  0.6566  0.3401 -0.9151
  942MOL0     H29960   8.167   3.576   5.253 -0.1000 -0.7211 -0.9725
  942MOL0     H29961   8.054   3.719   5.259 -1.0488 -2.3773  2.2265
  942MOL0     H29962   7.904   3.613   5.123  0.0487 -1.0244  0.3369
  942MOL0     H29963   8.007   3.467   5.103  0.6144 -1.4651  1.2698
  942MOL0     H29964   7.809   3.490   5.280 -0.0248  1.2880 -0.0379
  942MOL0     H29965   7.942   3.553   5.370 -0.4488 -0.9067  1.3083
  942MOL0     H29966   8.074   3.341   5.305 -0.3118  0.3959  1.6181
  942MOL0     H29967   7.916   3.275   5.241 -0.8823  1.1627  0.9964
  942MOL0     H29968   7.834   3.298   5.486  1.0139  5.1375  2.9295
  942MOL0     H29969   7.963   3.186   5.452  1.3297  0.0726 -2.8912
  942MOL0     H29970   7.950   3.408   5.630 -2.3530  1.6454 -2.5166
  942MOL0     H29971   8.083   3.442   5.531  0.1479  1.3899  0.7239
  942MOL0     H29972   8.027   3.194   5.684  0.6521 -2.0335 -0.4491
  942MOL0     H29973   8.168   3.319   5.699  2.6135 -1.6516 -1.3395
  942MOL0     H29974   8.208   3.232   5.458  1.0485 -0.0204  0.4058
  942MOL0     H29975   8.151   3.078   5.545  1.4615 -1.2276  6.0788
  942MOL0     H29976   8.124   3.908   5.209 -0.6964 -0.6121 -0.2821
  942MOL0     H29977   8.254   4.097   5.147 -0.2011  0.8341 -0.0618
  942MOL0     H29978   8.757   4.222   5.029  1.6769 -0.4325 -2.2405
  942MOL0     H29979   8.869   4.442   5.041  1.0471 -1.8518 -0.8116
  942MOL0     H29980   8.676   4.987   6.301 -0.3900  1.9406 -2.1184
  942MOL0     H29981   8.774   4.791   6.418  0.0538  1.9827  0.9640
  942MOL0     H29982   9.168   4.365   6.309 -1.0144 -1.0005  0.2358
  942MOL0     H29983   9.238   4.192   6.448  0.7168  1.2337 -2.4605
  942MOL0     H29984   9.309   4.079   6.616 -1.6340 -0.2154 -0.4780
  942MOL0     H29985   9.270   3.982   6.757 -4.1913 -0.2678  2.3966
  942MOL0     H29986   9.205   3.851   6.583  1.9503  0.6607  1.1945
  942MOL0     H29987   9.127   3.988   6.495  1.5081 -4.1246 -1.2425
  942MOL0     H29988   8.986   3.935   6.746  1.1605  1.1669  0.1876
  942MOL0     H29989   8.928   3.985   6.595 -2.5311 -1.0271  2.8307
  942MOL0     H29990   8.856   3.757   6.658  0.3801  0.8436  0.5592
  942MOL0     H29991   9.017   3.700   6.645 -1.0091 -1.3419 -0.3005
  942MOL0     H29992   8.825   3.664   6.272 -0.2555 -1.0776  0.4097
  942MOL0     H29993   8.989   4.347   6.758 -0.0751 -0.1206 -1.5664
  942MOL0     H29994   8.941   4.645   6.710  0.9624 -0.1876 -1.2702
  942MOL0     H29995   8.839   4.629   6.569 -3.2274 -2.0266  1.0361
  942MOL0     H29996   8.820   4.510   6.688 -3.1556  0.4594 -2.8990
  943MOL0     O29997   9.385   2.838   5.409 -0.5382 -0.1593  0.4532
  943MOL0     C29998   9.403   2.792   5.518 -0.3156 -0.2742  0.0657
  943MOL0     O29999   9.498   2.703   5.548 -0.6850 -0.2099  0.1896
  943MOL0     C30000   9.604   2.683   5.457  0.6680  0.9100 -0.2654
  943MOL0     C30001   9.616   2.547   5.413 -0.1071 -0.9465  0.3277
  943MOL0     C30002   9.727   2.506   5.336  0.0900  0.1715  0.6427
  943MOL0     C30003   9.825   2.604   5.297  0.3098  0.4533  0.2843
  943MOL0     O30004   9.923   2.561   5.213 -0.1298 -0.1867  0.0847
  943MOL0     C30005  10.052   2.622   5.223 -0.1185  0.2173 -0.1293
  943MOL0     C30006  10.162   2.542   5.293 -0.7269  1.8402 -0.3759
  943MOL0     C30007  10.150   2.388   5.273  0.1360  0.2739 -0.3380
  943MOL0     C30008  10.061   2.329   5.379  0.7910  0.0030  0.0943
  943MOL0     C30009  10.038   2.184   5.352  0.0060 -0.0849  0.1727
  943MOL0     C30010   9.896   2.130   5.376  1.1304 -0.0634  0.0975
  943MOL0     C30011   9.875   1.971   5.369  0.6118 -0.8085  0.0807
  943MOL0     C30012   9.726   1.927   5.401 -0.5334 -0.3235  0.0205
  943MOL0     N30013   9.689   1.791   5.363 -1.1561  0.9070  0.0954
  943MOL0     C30014   9.764   1.684   5.372 -0.3076  0.4312  0.1923
  943MOL0     C30015   9.691   1.584   5.335  0.7146 -0.4718 -0.1017
  943MOL0     C30016   9.752   1.442   5.318 -0.3949  0.7512 -0.5855
  943MOL0     C30017   9.798   1.374   5.446  0.0079  0.2710 -0.3786
  943MOL0     C30018   9.929   1.443   5.497  0.2764  1.0285 -0.2970
  943MOL0     C30019  10.008   1.354   5.597  1.2305  0.7637  0.5131
  943MOL0     O30020   9.920   1.323   5.717 -0.2613  0.2850 -0.0918
  943MOL0     C30021   9.965   1.220   5.800  0.1381 -0.8041  0.4430
  943MOL0     C30022   9.881   1.211   5.906  0.1137 -0.0155 -0.4669
  943MOL0     C30023   9.906   1.122   6.015 -0.2565  1.2729  0.2188
  943MOL0     C30024   9.812   1.121   6.129  0.5832  1.0963 -0.9693
  943MOL0     C30025  10.018   1.037   6.010  0.6985 -1.3345 -0.2564
  943MOL0     C30026  10.040   0.942   6.111 -0.2149  0.2538 -0.4935
  943MOL0     O30027  10.159   0.958   6.180 -0.0390  0.3497  0.0116
  943MOL0     C30028  10.216   0.848   6.248 -0.2943 -1.4413 -0.1615
  943MOL0     C30029  10.148   0.731   6.306  0.0418 -0.8441  0.0547
  943MOL0     C30030  10.218   0.627   6.361 -0.6261  0.8985 -0.0762
  943MOL0     C30031  10.360   0.628   6.368 -0.2088  0.3024  0.0547
  943MOL0     O30032  10.443   0.541   6.436  0.1350 -0.0369 -0.3066
  943MOL0     C30033  10.374   0.422   6.491 -0.3324 -0.1532  0.8505
  943MOL0     C30034  10.473   0.328   6.543  0.1994  0.6746  0.2746
  943MOL0     C30035  10.559   0.386   6.651 -0.3385 -0.3195 -0.5257
  943MOL0     C30036  10.664   0.291   6.719 -0.0616 -0.0330  1.4870
  943MOL0     C30037  10.741   0.378   6.815 -1.1960  0.9402 -0.2223
  943MOL0     C30038  10.840   0.300   6.899  0.7501 -0.4801  0.0494
  943MOL0     C30039  10.912   0.395   6.987 -0.7990 -0.3629 -0.4893
  943MOL0     C30040  10.981   0.330   7.106  0.4853 -0.1605  0.4663
  943MOL0    Cl30041  11.095   0.445   7.167 -0.4783 -0.0877  0.0197
  943MOL0     C30042  10.426   0.735   6.310 -0.4030 -0.3244  1.3355
  943MOL0     C30043  10.360   0.848   6.256 -0.2318  0.0820  0.5441
  943MOL0     O30044   9.967   0.845   6.127 -0.7135 -0.5012 -0.1955
  943MOL0     C30045  10.097   1.036   5.897  1.2467  0.1626 -0.0210
  943MOL0     C30046  10.071   1.131   5.794 -0.2548  0.6694 -0.6623
  943MOL0     N30047   9.567   1.629   5.318  0.7895 -0.7913 -0.0034
  943MOL0     N30048   9.561   1.755   5.342 -0.4525 -0.0155 -0.0996
  943MOL0     C30049   9.806   2.740   5.348  0.1087  0.9757 -0.5025
  943MOL0     C30050   9.694   2.774   5.431  1.6637 -0.0862  0.0585
  943MOL0     C30051   9.309   2.830   5.628 -0.3481 -0.4738  1.2228
  943MOL0     C30052   9.365   2.873   5.744  0.1931 -0.8532  0.3985
  943MOL0     C30053   9.288   2.887   5.853 -0.3788  1.0622 -0.3935
  943MOL0     C30054   9.148   2.855   5.854  0.3969 -0.2408  0.3872
  943MOL0     O30055   9.072   2.864   5.968  0.7623 -0.0464 -0.5108
  943MOL0     C30056   9.007   2.994   5.977  0.3271  0.7262 -0.4096
  943MOL0     C30057   8.940   3.020   6.113 -0.3937 -0.4655 -0.0179
  943MOL0     C30058   8.846   2.913   6.175  1.5182  0.8950  0.4597
  943MOL0     C30059   8.744   2.965   6.274 -0.1495  0.2296  0.4803
  943MOL0     C30060   8.639   3.036   6.195 -0.5527  0.3137 -0.4425
  943MOL0     C30061   8.550   3.067   6.119  1.3040 -0.7689  0.0110
  943MOL0     C30062   9.091   2.822   5.735  0.2826 -0.4869  0.4171
  943MOL0     C30063   9.168   2.810   5.619  0.3999 -1.0187 -0.6296
  943MOL0     C30064   9.106   2.747   5.497  0.8406  0.4829  0.3577
  943MOL0     H30065   9.542   2.478   5.452 -0.3347 -1.2401 -0.5897
  943MOL0     H30066   9.748   2.409   5.293  1.7490  1.4338 -1.6410
  943MOL0     H30067  10.053   2.719   5.274  4.7749 -0.5253  1.7063
  943MOL0     H30068  10.079   2.637   5.118  2.3083  3.2429  0.7666
  943MOL0     H30069  10.259   2.572   5.252  0.1175  0.2574  0.4000
  943MOL0     H30070  10.173   2.567   5.399  3.2833  2.3673 -0.7466
  943MOL0     H30071  10.105   2.372   5.174  0.0376 -0.0452 -0.2429
  943MOL0     H30072  10.254   2.356   5.279  1.3142  3.4318 -1.8103
  943MOL0     H30073  10.122   2.339   5.469  3.6266 -0.9425 -1.5930
  943MOL0     H30074   9.965   2.378   5.399  0.1244 -1.6856  1.2593
  943MOL0     H30075  10.093   2.121   5.423 -1.6595  0.2901  1.8785
  943MOL0     H30076  10.060   2.160   5.248  1.3250  0.8910  0.1978
  943MOL0     H30077   9.870   2.156   5.479 -0.2728 -1.8215  0.2354
  943MOL0     H30078   9.824   2.188   5.318  0.2861  3.0750  3.8161
  943MOL0     H30079   9.933   1.924   5.449  0.5005  1.9218  1.9086
  943MOL0     H30080   9.906   1.940   5.268 -0.0779  1.9060 -1.0598
  943MOL0     H30081   9.726   1.930   5.510 -0.2720 -1.1022  0.0492
  943MOL0     H30082   9.663   2.007   5.360 -1.3833 -1.9891 -2.0843
  943MOL0     H30083   9.871   1.686   5.393  0.1183  1.0643 -1.8134
  943MOL0     H30084   9.831   1.450   5.242 -0.3320  3.1043 -0.3613
  943MOL0     H30085   9.670   1.391   5.267 -2.0874  2.7337  0.0168
  943MOL0     H30086   9.714   1.386   5.515 -0.6850 -0.5000 -1.0570
  943MOL0     H30087   9.828   1.270   5.429 -3.2276 -0.7025 -0.8000
  943MOL0     H30088   9.992   1.461   5.409 -0.5244 -0.0285 -1.1239
  943MOL0     H30089   9.911   1.540   5.545 -1.6614  0.7789 -0.4207
  943MOL0     H30090  10.033   1.262   5.543  0.4502  1.1705 -0.5747
  943MOL0     H30091  10.091   1.415   5.634  0.5552  0.1103  3.3598
  943MOL0     H30092   9.792   1.272   5.895  1.1680  1.7917  0.5738
  943MOL0     H30093   9.733   1.197   6.129 -1.2104 -0.6749 -1.3399
  943MOL0     H30094   9.875   1.149   6.214  2.4300  0.5058 -2.0881
  943MOL0     H30095   9.767   1.023   6.142  1.7405  0.2458 -2.9277
  943MOL0     H30096  10.040   0.718   6.302  0.0361 -0.8778  0.3444
  943MOL0     H30097  10.155   0.543   6.389  0.1693 -0.0876 -1.2015
  943MOL0     H30098  10.298   0.444   6.566 -0.8808  0.2123  0.2099
  943MOL0     H30099  10.328   0.365   6.409 -0.5909  3.0978 -1.4657
  943MOL0     H30100  10.415   0.242   6.577 -0.2726  1.6198  1.9824
  943MOL0     H30101  10.540   0.298   6.463 -1.8097 -1.1011 -0.8582
  943MOL0     H30102  10.501   0.434   6.730  0.9565 -1.6430  1.3111
  943MOL0     H30103  10.620   0.466   6.607 -1.3609  1.4846  1.1944
  943MOL0     H30104  10.728   0.251   6.639  1.3378  2.7939  1.0770
  943MOL0     H30105  10.617   0.205   6.767  1.2268 -0.3545  2.2319
  943MOL0     H30106  10.792   0.456   6.757 -3.0226  0.1812 -3.0660
  943MOL0     H30107  10.659   0.425   6.870 -1.7206  0.2613 -0.4246
  943MOL0     H30108  10.910   0.252   6.831  0.8300  1.4723 -1.3231
  943MOL0     H30109  10.781   0.233   6.963  2.7906 -2.5315 -0.0886
  943MOL0     H30110  10.846   0.468   7.034 -0.9668 -2.4861  3.0071
  943MOL0     H30111  10.983   0.451   6.926 -0.7401  1.6781  1.3404
  943MOL0     H30112  11.029   0.239   7.070  0.4851 -0.2683  0.7397
  943MOL0     H30113  10.899   0.311   7.176 -0.9880 -1.1857 -1.4121
  943MOL0     H30114  10.535   0.729   6.312  0.0510  3.6745 -0.6721
  943MOL0     H30115  10.422   0.919   6.200  3.8946 -2.1433  1.8582
  943MOL0     H30116  10.159   0.947   5.892 -2.5032 -2.7418  0.7357
  943MOL0     H30117  10.120   1.125   5.697 -0.8874  0.9168 -1.0038
  943MOL0     H30118   9.884   2.805   5.309  1.3480 -0.2020 -0.0639
  943MOL0     H30119   9.688   2.881   5.447  0.5415 -0.2887  1.1096
  943MOL0     H30120   9.471   2.896   5.748  0.3444 -1.1871 -1.1750
  943MOL0     H30121   9.326   2.927   5.946 -0.2894  4.0875 -1.6242
  943MOL0     H30122   9.065   3.086   5.983 -1.8700  2.1649 -0.0780
  943MOL0     H30123   8.934   3.009   5.897  1.7186  0.6089 -1.7492
  943MOL0     H30124   8.884   3.115   6.111  2.1044  1.0988  0.3463
  943MOL0     H30125   9.019   3.040   6.186 -0.2737  0.6860 -0.4426
  943MOL0     H30126   8.797   2.853   6.097 -0.0110  0.9655  1.3253
  943MOL0     H30127   8.908   2.845   6.235  0.7546 -0.7997 -0.5970
  943MOL0     H30128   8.792   3.037   6.340 -0.4899  2.1327 -1.2555
  943MOL0     H30129   8.703   2.878   6.328  0.0218 -0.7433 -0.9169
  943MOL0     H30130   8.471   3.107   6.058  1.0909  1.0194  1.3964
  943MOL0     H30131   8.987   2.790   5.735  0.3526 -0.7641  1.4463
  943MOL0     H30132   8.999   2.730   5.504 -0.5022  3.8214 -5.4556
  943MOL0     H30133   9.109   2.811   5.408 -1.4959 -0.6082 -0.5634
  943MOL0     H30134   9.159   2.655   5.473 -1.9171 -1.2530  0.5158
  944MOL0     O30135   3.340   4.208  10.457 -0.0527 -0.5404 -0.1403
  944MOL0     C30136   3.317   4.090  10.466  0.3348  0.0165 -1.1767
  944MOL0     O30137   3.349   3.999  10.361 -0.2646 -0.1036 -0.7772
  944MOL0     C30138   3.358   4.061  10.238  1.0053 -0.1175 -0.0963
  944MOL0     C30139   3.481   4.063  10.171  0.1986 -0.2867 -0.3729
  944MOL0     C30140   3.495   4.135  10.054  0.6091  0.5344  0.1449
  944MOL0     C30141   3.386   4.201   9.992  0.6593  0.1232  0.0010
  944MOL0     O30142   3.413   4.279   9.880  0.0788  0.4020  0.9673
  944MOL0     C30143   3.310   4.369   9.846  0.2189 -0.3948 -0.6303
  944MOL0     C30144   3.335   4.454   9.728  0.0677 -0.0565  0.0762
  944MOL0     C30145   3.481   4.509   9.710  0.8128  0.3656 -1.3289
  944MOL0     C30146   3.490   4.579   9.578  0.4223  0.5499  0.6912
  944MOL0     C30147   3.626   4.622   9.535  0.0397  0.4045  0.5613
  944MOL0     C30148   3.701   4.501   9.471 -0.3982  0.5082  0.2606
  944MOL0     C30149   3.855   4.527   9.460 -0.1859 -0.0495 -0.2946
  944MOL0     C30150   3.935   4.415   9.401 -0.5343  0.5875 -0.4274
  944MOL0     N30151   3.905   4.377   9.263 -0.6067  0.1081  0.4468
  944MOL0     C30152   3.871   4.465   9.164 -0.8126  0.4055  0.8471
  944MOL0     C30153   3.799   4.397   9.065 -0.8303  0.1870  0.0867
  944MOL0     C30154   3.746   4.447   8.938 -1.1235  0.1541  0.3234
  944MOL0     C30155   3.600   4.395   8.931 -0.0994 -0.7789 -0.0606
  944MOL0     C30156   3.597   4.259   8.848  0.2138 -0.0334 -0.2485
  944MOL0     C30157   3.450   4.203   8.846 -0.0166 -0.4075  0.4708
  944MOL0     O30158   3.353   4.307   8.808 -0.6918  0.0621 -0.8051
  944MOL0     C30159   3.226   4.296   8.868  0.1197 -0.8152  0.0818
  944MOL0     C30160   3.147   4.407   8.871 -0.2055  0.6302  0.0501
  944MOL0     C30161   3.017   4.414   8.929  0.6499  0.5469  0.2179
  944MOL0     C30162   2.937   4.541   8.921  0.3555 -0.6311  0.0543
  944MOL0     C30163   2.971   4.284   8.975 -0.3030  0.3753 -0.2617
  944MOL0     C30164   2.833   4.262   9.031  0.2150  0.3404 -0.9541
  944MOL0     O30165   2.812   4.153   9.099 -0.1923  1.0576  0.1731
  944MOL0     C30166   2.708   4.155   9.188  0.1754 -0.2575 -0.2126
  944MOL0     C30167   2.699   4.247   9.291 -1.1657 -0.3360  0.4894
  944MOL0     C30168   2.598   4.237   9.384  1.0909 -0.1153 -0.9912
  944MOL0     C30169   2.497   4.141   9.374 -0.8047 -0.3301  0.3808
  944MOL0     O30170   2.399   4.117   9.464 -0.4531  0.3803 -0.1215
  944MOL0     C30171   2.298   4.223   9.484 -0.4120  0.4177  0.9554
  944MOL0     C30172   2.169   4.166   9.549 -0.4655 -0.6047  0.5245
  944MOL0     C30173   2.064   4.284   9.572  0.8817  0.1417 -0.4233
  944MOL0     C30174   2.007   4.274   9.715 -0.8622 -0.5657 -0.6242
  944MOL0     C30175   1.875   4.348   9.731  0.6512  0.3712  0.3662
  944MOL0     C30176   1.877   4.492   9.727  0.5143 -0.3004  0.6050
  944MOL0     C30177   1.742   4.549   9.766 -0.4132  0.4444  0.4793
  944MOL0     C30178   1.755   4.705   9.751 -0.0154  0.2625  0.2123
  944MOL0    Cl30179   1.731   4.748   9.582  0.3944  0.2816 -0.0896
  944MOL0     C30180   2.521   4.039   9.282 -0.0773 -0.2391  0.1708
  944MOL0     C30181   2.636   4.035   9.200 -0.7807  0.2933 -0.5347
  944MOL0     O30182   2.752   4.358   9.027 -0.9354  0.8639 -1.0355
  944MOL0     C30183   3.047   4.172   8.974 -0.8080  0.1354 -0.3816
  944MOL0     C30184   3.171   4.179   8.917 -0.5300 -0.7576  0.0678
  944MOL0     N30185   3.778   4.271   9.109 -0.0534 -0.3512 -0.1673
  944MOL0     N30186   3.841   4.263   9.221 -1.0647  0.4596 -0.0145
  944MOL0     C30187   3.268   4.185  10.056  0.3728  0.5717  0.4299
  944MOL0     C30188   3.251   4.117  10.176 -0.5374  0.3669 -0.2807
  944MOL0     C30189   3.268   4.048  10.601 -0.2086 -0.2172 -0.7712
  944MOL0     C30190   3.168   4.132  10.661 -1.3498  0.1359  0.9134
  944MOL0     C30191   3.091   4.087  10.763 -0.1226  0.2342 -1.5677
  944MOL0     C30192   3.129   3.968  10.827 -0.6216  0.7841 -0.4316
  944MOL0     O30193   3.041   3.903  10.912 -0.0792 -0.0887  0.3029
  944MOL0     C30194   2.925   3.974  10.973  0.2349  0.0821 -0.7789
  944MOL0     C30195   2.801   3.968  10.878 -0.3610 -0.4416 -0.9276
  944MOL0     C30196   2.669   3.974  10.956  0.0955 -0.7010  0.0327
  944MOL0     C30197   2.615   4.120  10.983  0.4110  0.1777  0.0013
  944MOL0     C30198   2.690   4.165  11.101 -0.1727  0.2590  0.8259
  944MOL0     C30199   2.762   4.180  11.189  0.4713 -0.4270  0.1505
  944MOL0     C30200   3.239   3.898  10.784  0.0679  0.5923 -0.1937
  944MOL0     C30201   3.305   3.933  10.664 -0.4111  0.7210 -0.6879
  944MOL0     C30202   3.411   3.835  10.606  0.4428 -0.5787 -0.6888
  944MOL0     H30203   3.562   4.010  10.220  0.1779 -0.3493 -0.4063
  944MOL0     H30204   3.589   4.125  10.001  0.6321 -2.7954  0.5599
  944MOL0     H30205   3.297   4.439   9.929  0.3507  2.0304 -2.5412
  944MOL0     H30206   3.212   4.323   9.827 -2.1245  4.2833 -1.3229
  944MOL0     H30207   3.301   4.390   9.646 -0.8680 -1.8048  1.7587
  944MOL0     H30208   3.260   4.533   9.730  2.2213  2.1927  4.5299
  944MOL0     H30209   3.497   4.581   9.791  2.3733  0.1418 -1.3940
  944MOL0     H30210   3.562   4.442   9.744 -0.2181 -0.8591 -1.2098
  944MOL0     H30211   3.440   4.518   9.501  2.2654 -2.4557  1.6845
  944MOL0     H30212   3.434   4.673   9.578 -0.0916  0.2505  0.8856
  944MOL0     H30213   3.687   4.650   9.621  2.7601  3.6937 -2.1673
  944MOL0     H30214   3.624   4.707   9.466 -0.8580 -2.4377 -3.2546
  944MOL0     H30215   3.680   4.412   9.532  0.5154  0.1183  0.0096
  944MOL0     H30216   3.660   4.483   9.371 -2.8746 -2.4512  1.6378
  944MOL0     H30217   3.884   4.547   9.563  0.2693  0.4665 -0.5212
  944MOL0     H30218   3.882   4.619   9.408  4.7698 -2.0069 -1.8360
  944MOL0     H30219   4.040   4.445   9.408  0.1087 -1.5535 -0.1907
  944MOL0     H30220   3.922   4.321   9.457 -0.2864 -1.1905 -3.1748
  944MOL0     H30221   3.905   4.568   9.162 -0.7754  0.4061  1.4036
  944MOL0     H30222   3.811   4.422   8.854 -1.0477 -0.5167  0.5755
  944MOL0     H30223   3.733   4.556   8.943 -2.5079  0.1451 -1.7626
  944MOL0     H30224   3.556   4.370   9.027  0.5254 -0.7573  0.2353
  944MOL0     H30225   3.523   4.460   8.887 -2.5423 -1.6376  2.6622
  944MOL0     H30226   3.617   4.290   8.745  0.2492  0.9273  0.0343
  944MOL0     H30227   3.659   4.176   8.882  0.9908  0.2623 -0.9012
  944MOL0     H30228   3.433   4.113   8.786  2.2930 -1.8443  1.8463
  944MOL0     H30229   3.426   4.187   8.951 -2.9001  1.5708  0.2487
  944MOL0     H30230   3.176   4.499   8.821  3.9302  0.3410  1.5610
  944MOL0     H30231   2.914   4.584   9.019 -0.5508 -0.8823 -0.0414
  944MOL0     H30232   2.841   4.530   8.871 -0.8974  0.4258  2.0924
  944MOL0     H30233   3.000   4.607   8.861 -0.7400 -0.1099 -0.5566
  944MOL0     H30234   2.772   4.325   9.312 -0.9062 -0.8898  1.7169
  944MOL0     H30235   2.586   4.311   9.463 -1.1706 -2.4032  0.9762
  944MOL0     H30236   2.337   4.303   9.548 -1.1739 -0.9599  3.2543
  944MOL0     H30237   2.258   4.262   9.390 -1.1152 -2.0730  0.1427
  944MOL0     H30238   2.128   4.081   9.494  0.1057 -0.0378 -0.8273
  944MOL0     H30239   2.207   4.132   9.646  1.7417  0.0267 -0.0516
  944MOL0     H30240   1.978   4.260   9.509  0.9614  1.3199 -1.0065
  944MOL0     H30241   2.112   4.382   9.562  2.4068 -0.2667  2.0784
  944MOL0     H30242   2.087   4.307   9.783  0.2370 -2.8465 -0.7228
  944MOL0     H30243   1.992   4.171   9.748 -2.3069 -0.0762  0.3382
  944MOL0     H30244   1.801   4.314   9.657  1.7403  3.7107 -2.5419
  944MOL0     H30245   1.832   4.313   9.825  0.5534 -1.4129 -0.2920
  944MOL0     H30246   1.905   4.519   9.625  0.4329  0.8172  0.8680
  944MOL0     H30247   1.953   4.529   9.797  1.1936 -1.2428  0.3995
  944MOL0     H30248   1.722   4.528   9.872  1.3353  3.2075  1.4957
  944MOL0     H30249   1.662   4.518   9.699  1.6453 -2.4607 -0.8140
  944MOL0     H30250   1.851   4.752   9.774  0.1964  0.2120 -0.5320
  944MOL0     H30251   1.682   4.758   9.813 -0.9501 -0.4334 -0.2752
  944MOL0     H30252   2.449   3.957   9.290  0.7294 -0.7937  3.0332
  944MOL0     H30253   2.656   3.952   9.133  0.6029 -0.1557  0.3881
  944MOL0     H30254   3.008   4.078   9.013 -0.0452 -0.4023 -0.8858
  944MOL0     H30255   3.236   4.092   8.903  2.7575  1.6740 -1.2321
  944MOL0     H30256   3.177   4.222  10.011  1.3525  0.5769 -1.6877
  944MOL0     H30257   3.154   4.119  10.224 -0.1176  0.6878  0.5598
  944MOL0     H30258   3.123   4.219  10.614 -1.1239 -0.2702 -0.0833
  944MOL0     H30259   3.008   4.148  10.800 -1.2008 -1.3776 -1.2293
  944MOL0     H30260   2.906   3.935  11.074 -0.5329  0.4443 -0.7762
  944MOL0     H30261   2.948   4.079  10.993 -1.2895  0.4306 -0.6981
  944MOL0     H30262   2.815   3.871  10.830 -0.1459 -1.5346  1.1924
  944MOL0     H30263   2.816   4.057  10.816  0.3744  1.4089  1.6875
  944MOL0     H30264   2.584   3.927  10.905 -0.6857 -2.3698  2.6686
  944MOL0     H30265   2.671   3.921  11.052 -0.2469  1.2703  1.1991
  944MOL0     H30266   2.511   4.099  11.012  1.5538 -2.6447  2.6404
  944MOL0     H30267   2.637   4.181  10.895  1.9924  0.2296  0.4057
  944MOL0     H30268   2.824   4.201  11.275  1.0091  1.2308 -0.5905
  944MOL0     H30269   3.260   3.804  10.833 -3.1637 -0.6268 -0.9240
  944MOL0     H30270   3.491   3.899  10.566  0.5794 -0.2416  0.0918
  944MOL0     H30271   3.459   3.766  10.676  3.4755  1.8804 -0.0927
  944MOL0     H30272   3.369   3.787  10.518 -1.4703 -1.3228  0.5569
  945MOL0     O30273   0.562   0.045  11.282  0.0506 -0.8929 -0.6268
  945MOL0     C30274   0.684   0.081  11.311  0.2819 -0.5024 -0.0689
  945MOL0     O30275   0.748   0.060  11.422  0.1558  0.0354 -0.6747
  945MOL0     C30276   0.688   0.009  11.529  0.5407  0.3232 -0.1196
  945MOL0     C30277   0.644   0.096  11.624 -0.9291 -0.7170 -0.9630
  945MOL0     C30278   0.585   0.060  11.742  0.1702 -0.6297 -0.2264
  945MOL0     C30279   0.562  -0.072  11.767 -0.7693  1.2761 -0.2131
  945MOL0     O30280   0.503  -0.106  11.887  0.5358  0.2778  0.0059
  945MOL0     C30281   0.533  -0.231  11.949 -0.0520  0.2464 -0.6693
  945MOL0     C30282   0.410  -0.311  11.938 -0.0318  0.4116 -0.6029
  945MOL0     C30283   0.420  -0.449  12.017  0.2556 -0.7616 -0.0951
  945MOL0     C30284   0.376  -0.454  12.163  0.5879  0.7750  0.6087
  945MOL0     C30285   0.413  -0.604  12.214  0.2437 -0.2004 -0.1573
  945MOL0     C30286   0.332  -0.637  12.342  0.7325 -0.7195 -0.2392
  945MOL0     C30287   0.358  -0.767  12.421 -0.8341  0.2072  0.1012
  945MOL0     C30288   0.286  -0.883  12.353 -0.1096 -0.6136  0.5557
  945MOL0     N30289   0.348  -1.007  12.412  0.4433 -0.0380  0.9270
  945MOL0     C30290   0.471  -1.070  12.381 -0.7562 -1.2765  0.4443
  945MOL0     C30291   0.483  -1.177  12.464  0.4548 -0.4033  0.9448
  945MOL0     C30292   0.588  -1.276  12.451  0.1454 -0.3869  0.8437
  945MOL0     C30293   0.704  -1.235  12.529  0.3315 -0.9690  0.5935
  945MOL0     C30294   0.799  -1.359  12.564  0.0910 -0.7162 -0.2388
  945MOL0     C30295   0.823  -1.443  12.440 -0.2532 -0.3332 -0.1078
  945MOL0     O30296   0.928  -1.544  12.469  0.4148 -0.3824  0.6363
  945MOL0     C30297   1.061  -1.516  12.460 -0.4444 -0.2406 -0.5608
  945MOL0     C30298   1.118  -1.390  12.446  0.5929  0.0943 -0.1231
  945MOL0     C30299   1.255  -1.367  12.440 -0.0907  0.5362 -0.4741
  945MOL0     C30300   1.310  -1.239  12.398 -0.0028 -0.2937  0.2711
  945MOL0     C30301   1.342  -1.478  12.489 -1.6128  0.4574  0.1916
  945MOL0     C30302   1.492  -1.466  12.508  0.2165 -0.4312  0.6057
  945MOL0     O30303   1.552  -1.346  12.470 -0.2207  0.9243 -0.5053
  945MOL0     C30304   1.691  -1.350  12.440  0.4169 -1.1363 -0.1745
  945MOL0     C30305   1.722  -1.394  12.318  0.7022 -0.0144  0.2848
  945MOL0     C30306   1.859  -1.424  12.299 -0.3177 -0.5561 -0.2055
  945MOL0     C30307   1.960  -1.378  12.391  0.1377 -0.0380 -0.2692
  945MOL0     O30308   2.096  -1.404  12.359  0.7913 -1.1620  0.5296
  945MOL0     C30309   2.207  -1.387  12.459  0.2339  0.1765  1.1877
  945MOL0     C30310   2.319  -1.462  12.384  0.2882 -0.2661 -1.0986
  945MOL0     C30311   2.445  -1.470  12.481 -0.5624  0.3929 -0.5072
  945MOL0     C30312   2.514  -1.332  12.503  0.2060 -0.1354 -0.3931
  945MOL0     C30313   2.660  -1.351  12.569 -0.2836  0.8465 -0.3291
  945MOL0     C30314   2.747  -1.230  12.515 -0.9117  0.3879 -1.0695
  945MOL0     C30315   2.871  -1.200  12.610 -0.2535  0.6250  0.3607
  945MOL0     C30316   2.915  -1.056  12.615  0.1598 -0.6440 -0.3914
  945MOL0    Cl30317   2.794  -0.967  12.704  0.4421 -0.3473 -0.2112
  945MOL0     C30318   1.922  -1.314  12.513 -0.2361 -0.8289  0.7789
  945MOL0     C30319   1.779  -1.302  12.529 -0.6908 -1.0239  0.2142
  945MOL0     O30320   1.554  -1.553  12.563  0.0140 -0.7415 -0.3961
  945MOL0     C30321   1.286  -1.602  12.514 -0.4601  0.6746 -0.0816
  945MOL0     C30322   1.153  -1.622  12.487  0.4776  0.3525 -0.0961
  945MOL0     N30323   0.375  -1.172  12.545  0.1779 -0.2137  0.3756
  945MOL0     N30324   0.294  -1.070  12.520  0.1201  0.0687  0.6064
  945MOL0     C30325   0.580  -0.167  11.659  0.3195  0.3229 -0.2240
  945MOL0     C30326   0.644  -0.124  11.539 -0.2993 -0.1816 -0.2435
  945MOL0     C30327   0.756   0.148  11.203  0.4555  0.0726  0.9933
  945MOL0     C30328   0.701   0.157  11.074  0.0416  0.4046 -0.3313
  945MOL0     C30329   0.744   0.252  10.980  0.8090 -0.0308  0.6777
  945MOL0     C30330   0.867   0.312  10.998 -0.6581  0.3647  0.9472
  945MOL0     O30331   0.935   0.386  10.905  0.3211  0.2778  0.0808
  945MOL0     C30332   0.861   0.450  10.794  0.3274 -0.0608  0.5031
  945MOL0     C30333   0.767   0.560  10.854 -0.2908 -0.8614  0.0098
  945MOL0     C30334   0.697   0.638  10.749  1.1050 -0.4950  0.1022
  945MOL0     C30335   0.608   0.747  10.800  0.8130  0.5225 -0.6123
  945MOL0     C30336   0.667   0.870  10.855  0.1994 -0.1163 -0.2013
  945MOL0     C30337   0.720   0.969  10.887 -0.8749  0.2703  0.1747
  945MOL0     C30338   0.937   0.295  11.115 -0.0171  0.9520  1.2285
  945MOL0     C30339   0.883   0.209  11.219  0.2792 -0.1461  0.2410
  945MOL0     C30340   0.967   0.204  11.335 -0.2315  0.4148  0.2518
  945MOL0     H30341   0.660   0.203  11.615  2.5799 -0.8079  1.9006
  945MOL0     H30342   0.547   0.138  11.807 -1.3056  1.4333 -3.3013
  945MOL0     H30343   0.561  -0.221  12.054 -2.8132  0.2375  0.1345
  945MOL0     H30344   0.614  -0.290  11.905 -0.2210 -1.2457  0.9002
  945MOL0     H30345   0.325  -0.251  11.971  0.0064  0.5664 -0.7825
  945MOL0     H30346   0.377  -0.329  11.835  0.0659  0.1193 -0.5821
  945MOL0     H30347   0.348  -0.520  11.976 -1.1779  1.2869 -1.2913
  945MOL0     H30348   0.526  -0.475  12.005  1.1445  2.9473 -1.5112
  945MOL0     H30349   0.425  -0.382  12.230 -2.4836  1.8973  1.8414
  945MOL0     H30350   0.271  -0.421  12.160  0.7018  1.1173  0.3489
  945MOL0     H30351   0.519  -0.590  12.236  0.6911 -2.3406 -0.7497
  945MOL0     H30352   0.393  -0.671  12.130 -0.1879 -2.3994  1.6268
  945MOL0     H30353   0.338  -0.542  12.395 -2.7539 -0.4674 -0.0796
  945MOL0     H30354   0.226  -0.641  12.316  0.7768 -1.5844 -0.2996
  945MOL0     H30355   0.326  -0.760  12.526 -0.2323  1.3027  0.2153
  945MOL0     H30356   0.465  -0.784  12.432 -0.7792  1.4314  1.7661
  945MOL0     H30357   0.182  -0.858  12.372 -0.3486  0.0285 -1.3497
  945MOL0     H30358   0.298  -0.877  12.244 -0.3477 -1.1893  0.4951
  945MOL0     H30359   0.537  -1.035  12.302 -3.7098  0.8318 -1.3280
  945MOL0     H30360   0.603  -1.300  12.346  0.7382 -0.8158  1.0222
  945MOL0     H30361   0.544  -1.366  12.493  1.4225 -1.0410  0.8247
  945MOL0     H30362   0.748  -1.159  12.464 -4.2951  0.2003 -1.6104
  945MOL0     H30363   0.676  -1.187  12.624  0.8098 -1.8824  1.2092
  945MOL0     H30364   0.896  -1.318  12.592  0.6555 -1.0905 -1.5487
  945MOL0     H30365   0.762  -1.410  12.653  0.5346 -1.5269 -0.5067
  945MOL0     H30366   0.732  -1.496  12.412 -2.0294  2.0883  0.8190
  945MOL0     H30367   0.852  -1.382  12.354  0.8232 -0.5731  0.0688
  945MOL0     H30368   1.050  -1.307  12.437  2.0667  1.4159  0.5030
  945MOL0     H30369   1.236  -1.172  12.353 -1.9677 -1.5386  1.4897
  945MOL0     H30370   1.380  -1.249  12.316 -0.1758  3.2121 -0.4875
  945MOL0     H30371   1.364  -1.177  12.471  2.1585  0.6486 -1.9981
  945MOL0     H30372   1.645  -1.429  12.250  2.4319  0.3134 -1.9837
  945MOL0     H30373   1.890  -1.462  12.202 -2.0108 -0.8376 -0.6531
  945MOL0     H30374   2.223  -1.280  12.479 -1.2693  0.1795  2.4932
  945MOL0     H30375   2.189  -1.455  12.542  0.0917 -0.9488  0.2511
  945MOL0     H30376   2.284  -1.562  12.357  1.1442 -0.0773 -3.0622
  945MOL0     H30377   2.351  -1.418  12.289  3.5175 -4.1482 -2.0742
  945MOL0     H30378   2.513  -1.547  12.443 -0.3559 -0.1405  0.9081
  945MOL0     H30379   2.422  -1.512  12.579  0.4971  2.3873  0.6439
  945MOL0     H30380   2.461  -1.273  12.578  1.1770 -0.8943  0.9293
  945MOL0     H30381   2.520  -1.289  12.403 -1.7155 -0.6568 -0.7669
  945MOL0     H30382   2.655  -1.347  12.678 -1.4672  1.4828 -0.3893
  945MOL0     H30383   2.689  -1.456  12.558 -1.4710  0.3637  0.8356
  945MOL0     H30384   2.685  -1.140  12.512 -0.5935  0.5926 -2.6426
  945MOL0     H30385   2.787  -1.258  12.417  2.5979 -2.7828  0.9892
  945MOL0     H30386   2.950  -1.258  12.560 -2.3767 -2.0443 -0.1279
  945MOL0     H30387   2.850  -1.225  12.714 -0.1121  0.8537  0.4445
  945MOL0     H30388   2.938  -1.024  12.513 -0.0615 -4.8475 -1.9344
  945MOL0     H30389   3.007  -1.038  12.670 -2.1364  0.0387  3.6728
  945MOL0     H30390   1.986  -1.267  12.587  0.5289 -1.7345  0.7167
  945MOL0     H30391   1.729  -1.255  12.614  1.0276 -1.5151  1.5629
  945MOL0     H30392   1.347  -1.680  12.559  1.2168  0.8122 -1.9493
  945MOL0     H30393   1.114  -1.720  12.511 -5.4180  2.3241  0.1573
  945MOL0     H30394   0.545  -0.269  11.670  0.9857 -0.2605 -2.7251
  945MOL0     H30395   0.664  -0.186  11.453  0.0401 -0.7205  0.2197
  945MOL0     H30396   0.621   0.088  11.047  0.2380  0.1106 -0.1660
  945MOL0     H30397   0.702   0.258  10.880 -0.2468  0.3220  1.1231
  945MOL0     H30398   0.945   0.498  10.743 -1.9653  1.8770 -1.6899
  945MOL0     H30399   0.814   0.389  10.716  2.4171  1.3202 -1.9920
  945MOL0     H30400   0.842   0.626  10.899 -0.7972  1.7633 -2.6317
  945MOL0     H30401   0.697   0.530  10.932 -0.3465 -0.8278 -0.0268
  945MOL0     H30402   0.745   0.675  10.658 -4.2895  0.2139 -2.9132
  945MOL0     H30403   0.627   0.561  10.715 -0.2258  0.1739  1.2085
  945MOL0     H30404   0.549   0.695  10.876  0.1116  1.4754 -0.4814
  945MOL0     H30405   0.540   0.775  10.719  1.0606 -2.2975 -1.9156
  945MOL0     H30406   0.763   1.066  10.902 -0.0122 -0.4670  3.1349
  945MOL0     H30407   1.031   0.346  11.129  1.5687 -0.3550 -3.0533
  945MOL0     H30408   1.032   0.116  11.328 -0.3363  0.4804 -2.6125
  945MOL0     H30409   1.025   0.297  11.341  0.0347  0.1667  3.7074
  945MOL0     H30410   0.919   0.213  11.433 -0.6825  0.9169 -0.0116
  946MOL0     O30411   9.350   4.983   5.194  0.0830  0.3910 -0.2114
  946MOL0     C30412   9.418   4.902   5.259  0.0123 -0.7800  0.3616
  946MOL0     O30413   9.528   4.934   5.340  0.5566  0.0747  0.5170
  946MOL0     C30414   9.563   5.067   5.354 -1.0937 -0.3935 -0.2050
  946MOL0     C30415   9.568   5.123   5.478  0.1988  0.1429  0.1966
  946MOL0     C30416   9.603   5.256   5.499  1.0114  0.1340  1.4991
  946MOL0     C30417   9.621   5.337   5.377 -0.1342 -0.4524  0.6287
  946MOL0     O30418   9.658   5.467   5.383 -0.0689  1.2889 -0.7656
  946MOL0     C30419   9.611   5.537   5.509  0.0253  0.7057 -1.7367
  946MOL0     C30420   9.636   5.686   5.492  0.0198 -0.4452 -0.8506
  946MOL0     C30421   9.681   5.773   5.612  0.2454 -0.2698  0.1980
  946MOL0     C30422   9.556   5.854   5.673  0.8226 -0.5868  0.1901
  946MOL0     C30423   9.452   5.764   5.740  0.0505  1.1040  0.4869
  946MOL0     C30424   9.499   5.709   5.880 -0.0258  0.6193  0.4540
  946MOL0     C30425   9.402   5.617   5.952 -0.2836  0.6042  0.1848
  946MOL0     C30426   9.284   5.689   6.015  0.1308 -0.2701 -0.5547
  946MOL0     N30427   9.329   5.723   6.151 -0.1523  0.1186 -0.1827
  946MOL0     C30428   9.339   5.640   6.265  0.2297  0.2116 -0.0923
  946MOL0     C30429   9.383   5.727   6.363  0.2437 -0.1682 -0.5518
  946MOL0     C30430   9.432   5.701   6.500  0.3425 -0.1640  0.7264
  946MOL0     C30431   9.384   5.566   6.566  0.5061  0.5325 -0.3895
  946MOL0     C30432   9.477   5.540   6.684 -0.3304  0.5348 -2.1705
  946MOL0     C30433   9.473   5.645   6.795  0.1417 -0.4072  0.3573
  946MOL0     O30434   9.508   5.577   6.926  0.1434  0.0006 -0.3874
  946MOL0     C30435   9.543   5.658   7.030  0.1147 -0.6040 -0.5790
  946MOL0     C30436   9.649   5.600   7.104 -0.0609 -0.8356 -0.3687
  946MOL0     C30437   9.716   5.679   7.209 -0.0903  0.3618  0.0064
  946MOL0     C30438   9.826   5.618   7.292 -1.0220 -0.0856 -0.1428
  946MOL0     C30439   9.660   5.802   7.240 -0.2540  0.4513 -0.6267
  946MOL0     C30440   9.712   5.885   7.350  0.8940 -0.6827  0.8642
  946MOL0     O30441   9.626   5.898   7.455 -0.3434 -0.6738  0.2608
  946MOL0     C30442   9.639   6.007   7.540 -0.6206 -0.6290  0.3245
  946MOL0     C30443   9.720   6.130   7.524 -0.2887 -0.2407  0.3823
  946MOL0     C30444   9.712   6.226   7.625  0.2821  0.0896 -0.9492
  946MOL0     C30445   9.619   6.206   7.733  0.0903  0.4206 -0.8463
  946MOL0     O30446   9.612   6.324   7.811 -0.3579 -0.5314  0.1343
  946MOL0     C30447   9.525   6.324   7.934 -0.7005  0.1512  0.4578
  946MOL0     C30448   9.532   6.458   7.993  0.2444 -0.5694 -0.3382
  946MOL0     C30449   9.656   6.488   8.081  0.2370  0.8125 -0.5693
  946MOL0     C30450   9.781   6.501   8.007  0.3633 -0.2637  0.0544
  946MOL0     C30451   9.783   6.622   7.916 -0.5625 -0.2949 -0.0533
  946MOL0     C30452   9.922   6.686   7.885 -0.0725  0.5301  0.5287
  946MOL0     C30453   9.985   6.755   8.004 -0.1489  0.7041 -0.7006
  946MOL0     C30454  10.114   6.835   7.955  0.8217 -0.0766 -0.3498
  946MOL0    Cl30455  10.200   6.699   7.864  0.1009 -0.3534  0.4604
  946MOL0     C30456   9.554   6.081   7.749 -0.4402  0.9742 -0.4731
  946MOL0     C30457   9.562   5.990   7.657 -0.2196  1.3772  0.3615
  946MOL0     O30458   9.820   5.933   7.353 -0.6209  0.8620 -0.7125
  946MOL0     C30459   9.545   5.856   7.177 -0.5793  0.2547 -0.3795
  946MOL0     C30460   9.479   5.776   7.086 -0.8875  0.4954 -0.5099
  946MOL0     N30461   9.413   5.847   6.313  0.6172 -0.0645 -0.2127
  946MOL0     N30462   9.376   5.842   6.190  0.3524 -0.4442 -0.2809
  946MOL0     C30463   9.606   5.282   5.249  0.6480 -0.2718  0.1482
  946MOL0     C30464   9.574   5.150   5.240 -1.3112  0.8340  0.9436
  946MOL0     C30465   9.411   4.761   5.223  0.5362  0.5009 -0.0755
  946MOL0     C30466   9.517   4.667   5.247 -0.0553 -0.8935 -0.5468
  946MOL0     C30467   9.501   4.533   5.216 -0.3850 -0.2103  0.3587
  946MOL0     C30468   9.400   4.484   5.132 -0.0868 -0.6222 -0.9106
  946MOL0     O30469   9.412   4.354   5.086  0.2251 -0.5966 -1.2817
  946MOL0     C30470   9.439   4.336   4.946 -0.2662 -0.3650  0.2609
  946MOL0     C30471   9.576   4.373   4.874  1.1780 -0.6244 -0.3606
  946MOL0     C30472   9.621   4.522   4.859  0.6344 -0.0569  0.3563
  946MOL0     C30473   9.748   4.534   4.786 -0.4043  0.3959 -0.6450
  946MOL0     C30474   9.765   4.437   4.677  0.6644 -0.0189 -0.4489
  946MOL0     C30475   9.803   4.368   4.582 -0.2044 -0.3855 -0.9423
  946MOL0     C30476   9.297   4.567   5.109  0.1532  0.7037  0.7669
  946MOL0     C30477   9.286   4.704   5.159  0.7066  0.3596 -1.2578
  946MOL0     C30478   9.155   4.780   5.124  0.1738  0.4057 -1.2725
  946MOL0     H30479   9.538   5.058   5.560 -1.2587  0.1581 -0.3068
  946MOL0     H30480   9.609   5.314   5.590 -1.4538  2.3318  0.3947
  946MOL0     H30481   9.667   5.502   5.596  0.0005  0.4640 -1.8148
  946MOL0     H30482   9.508   5.506   5.527 -0.4868  1.3521 -3.4160
  946MOL0     H30483   9.716   5.698   5.418 -0.9071 -1.8780 -2.1697
  946MOL0     H30484   9.543   5.720   5.446  0.7430  2.0275 -0.5854
  946MOL0     H30485   9.725   5.712   5.691 -2.2705  0.6533  2.4655
  946MOL0     H30486   9.748   5.854   5.581 -0.1733 -0.4030 -1.1333
  946MOL0     H30487   9.585   5.935   5.741 -2.3646  0.4865  0.3994
  946MOL0     H30488   9.507   5.912   5.594 -2.4875 -0.0228  2.4473
  946MOL0     H30489   9.423   5.679   5.678  0.0076  2.1324 -0.9484
  946MOL0     H30490   9.361   5.824   5.743  0.3598  1.7783 -1.8917
  946MOL0     H30491   9.587   5.652   5.852  0.3108  2.0534 -1.6464
  946MOL0     H30492   9.537   5.791   5.942 -1.2119  0.2173  1.7647
  946MOL0     H30493   9.461   5.554   6.020 -2.2750 -2.1289 -0.4219
  946MOL0     H30494   9.355   5.543   5.887 -1.9152 -1.1921  3.1579
  946MOL0     H30495   9.264   5.779   5.957 -1.7702  0.3100  0.8782
  946MOL0     H30496   9.197   5.623   6.011 -1.2312  1.5126 -1.7493
  946MOL0     H30497   9.313   5.540   6.298  1.7973 -1.0384 -2.3646
  946MOL0     H30498   9.386   5.778   6.561 -4.2240 -2.9509  1.2337
  946MOL0     H30499   9.541   5.711   6.502  0.2040  2.6381 -0.8016
  946MOL0     H30500   9.281   5.572   6.603  0.2656 -1.6712 -0.5651
  946MOL0     H30501   9.393   5.488   6.490 -0.2179  0.7226 -0.6824
  946MOL0     H30502   9.446   5.444   6.727  3.3976  0.6500  1.4534
  946MOL0     H30503   9.580   5.521   6.651  0.3255 -0.2616  0.1697
  946MOL0     H30504   9.549   5.722   6.784 -0.5682  0.0993 -1.2829
  946MOL0     H30505   9.372   5.687   6.792  0.2646 -0.0053  1.3439
  946MOL0     H30506   9.686   5.505   7.069 -3.0058 -1.4029 -2.2971
  946MOL0     H30507   9.886   5.540   7.243  1.5239 -0.1388  2.7606
  946MOL0     H30508   9.775   5.580   7.381 -0.1287  0.9990  0.8716
  946MOL0     H30509   9.894   5.695   7.330  0.5583 -1.5057  0.0472
  946MOL0     H30510   9.783   6.150   7.439  1.7714  1.5669  2.2116
  946MOL0     H30511   9.751   6.327   7.614 -2.0472  1.3243  1.1296
  946MOL0     H30512   9.421   6.308   7.902  0.1101 -1.0156 -1.7944
  946MOL0     H30513   9.547   6.244   8.005  1.6014 -0.3624 -0.7371
  946MOL0     H30514   9.526   6.533   7.914 -0.1659 -0.1335  0.1026
  946MOL0     H30515   9.437   6.462   8.048 -0.3590  0.2922 -1.4052
  946MOL0     H30516   9.666   6.410   8.157 -1.4489  2.7709  1.7948
  946MOL0     H30517   9.622   6.580   8.130 -1.7142 -0.6489  1.0110
  946MOL0     H30518   9.801   6.416   7.941  0.6280  0.2020 -0.4790
  946MOL0     H30519   9.849   6.507   8.093 -1.0861 -0.5881  1.2485
  946MOL0     H30520   9.746   6.587   7.818 -0.3309 -0.6611 -0.0131
  946MOL0     H30521   9.714   6.695   7.957  1.8383  2.0498  0.0469
  946MOL0     H30522   9.909   6.742   7.792 -1.5048  2.5278  1.8650
  946MOL0     H30523   9.984   6.598   7.865 -1.1839 -0.2703  0.4898
  946MOL0     H30524  10.008   6.686   8.085  1.2812  1.7543 -0.1797
  946MOL0     H30525   9.921   6.839   8.033  1.3796  1.8430 -0.5565
  946MOL0     H30526  10.165   6.866   8.047 -3.1356  0.2477  1.9802
  946MOL0     H30527  10.094   6.929   7.904 -1.9550  0.0508  0.8037
  946MOL0     H30528   9.492   6.072   7.838 -1.3855  0.5425 -1.1580
  946MOL0     H30529   9.518   5.891   7.659  3.4443 -0.4156  0.2197
  946MOL0     H30530   9.494   5.947   7.207 -0.9263  0.1959 -0.7822
  946MOL0     H30531   9.388   5.816   7.044 -1.1892 -0.1364 -0.4714
  946MOL0     H30532   9.632   5.345   5.164  1.3366  2.0576  1.9934
  946MOL0     H30533   9.553   5.107   5.143  1.9392  3.8356 -1.3239
  946MOL0     H30534   9.597   4.710   5.305 -0.8081  0.1111 -0.2209
  946MOL0     H30535   9.587   4.472   5.243 -1.2386 -0.5600  2.4725
  946MOL0     H30536   9.407   4.235   4.919 -1.7093 -0.3465  1.7555
  946MOL0     H30537   9.364   4.391   4.888 -1.5299 -0.9020  1.3241
  946MOL0     H30538   9.568   4.327   4.775  1.9826 -1.4450 -0.0461
  946MOL0     H30539   9.651   4.331   4.940  0.7827  1.9763  1.9543
  946MOL0     H30540   9.541   4.570   4.801 -0.4107 -0.2632  1.5902
  946MOL0     H30541   9.631   4.568   4.957  0.1604  0.0655  0.3500
  946MOL0     H30542   9.832   4.522   4.855 -0.3146  2.6511 -0.2902
  946MOL0     H30543   9.761   4.632   4.738 -1.0751  0.0388 -1.5908
  946MOL0     H30544   9.827   4.316   4.492 -1.0689 -1.9474 -0.3164
  946MOL0     H30545   9.215   4.527   5.050  1.8391  0.5875 -1.6184
  946MOL0     H30546   9.095   4.700   5.079  0.0047  0.1185 -0.5505
  946MOL0     H30547   9.106   4.827   5.209  2.1005  2.0683 -0.9867
  946MOL0     H30548   9.175   4.862   5.054 -0.0778 -0.8588 -2.9035
  947MOL0     O30549   2.244   5.220  10.291  0.4521 -0.5685 -0.2414
  947MOL0     C30550   2.243   5.337  10.331 -0.4445  0.1841 -0.5497
  947MOL0     O30551   2.314   5.450  10.282 -0.1068  0.6064  0.2857
  947MOL0     C30552   2.408   5.429  10.179 -0.0247 -0.5690  0.4265
  947MOL0     C30553   2.427   5.540  10.089  1.4014  0.1781  0.2599
  947MOL0     C30554   2.516   5.540   9.987  0.0323  0.5643  1.4296
  947MOL0     C30555   2.600   5.426   9.975  0.2464 -0.5631 -0.4255
  947MOL0     O30556   2.696   5.406   9.869 -0.0591  0.2487 -0.7935
  947MOL0     C30557   2.737   5.514   9.779  0.6303  0.4258  0.4154
  947MOL0     C30558   2.861   5.495   9.692  0.4260 -0.1547 -0.4901
  947MOL0     C30559   2.992   5.460   9.765  0.0506  0.2596 -0.6061
  947MOL0     C30560   3.109   5.428   9.670  0.4506 -0.2680  0.2570
  947MOL0     C30561   3.111   5.294   9.608  0.9016  0.6691  0.1488
  947MOL0     C30562   3.242   5.264   9.526  0.7110  0.2846  0.2913
  947MOL0     C30563   3.238   5.348   9.385  0.4731  0.1436 -0.0250
  947MOL0     C30564   3.328   5.284   9.276  0.6009  1.1628 -0.0135
  947MOL0     N30565   3.290   5.303   9.131  0.4026  0.1698 -0.8275
  947MOL0     C30566   3.256   5.217   9.026 -0.6816 -0.5963  0.0568
  947MOL0     C30567   3.223   5.294   8.926  0.4118  0.2455  0.8764
  947MOL0     C30568   3.147   5.230   8.812 -0.1203  0.0067 -1.0805
  947MOL0     C30569   3.204   5.231   8.674 -0.9869  1.2716 -1.1856
  947MOL0     C30570   3.205   5.361   8.617  0.1137 -0.0726  0.1985
  947MOL0     C30571   3.281   5.354   8.487  0.7467  0.8189  0.3375
  947MOL0     O30572   3.283   5.482   8.409 -0.1309 -1.2205 -1.0280
  947MOL0     C30573   3.174   5.512   8.338 -1.2142  0.1387  0.4138
  947MOL0     C30574   3.152   5.647   8.332  0.0729 -1.3994  0.2798
  947MOL0     C30575   3.040   5.698   8.274  1.5108 -0.2119 -0.0840
  947MOL0     C30576   3.037   5.849   8.257 -0.2428 -0.1820  0.3627
  947MOL0     C30577   2.937   5.608   8.233  0.3698 -1.3402  0.6496
  947MOL0     C30578   2.807   5.660   8.215  0.4896 -0.2523  0.9282
  947MOL0     O30579   2.761   5.791   8.256 -0.1298  0.0664  0.6063
  947MOL0     C30580   2.628   5.831   8.258 -0.9948 -0.0269  0.4879
  947MOL0     C30581   2.588   5.967   8.281 -0.0070  0.3839 -0.7616
  947MOL0     C30582   2.451   6.003   8.292 -0.0652 -0.2370 -1.0527
  947MOL0     C30583   2.351   5.911   8.293 -0.1881  0.3633 -0.0480
  947MOL0     O30584   2.218   5.935   8.312 -0.2217 -0.1323 -0.0657
  947MOL0     C30585   2.168   6.065   8.355  1.0081  0.7698 -0.1587
  947MOL0     C30586   2.027   6.042   8.415 -0.8247 -0.3355  0.2475
  947MOL0     C30587   1.998   6.154   8.512  0.5929  0.8823 -1.0682
  947MOL0     C30588   1.849   6.179   8.509 -0.1660  0.3992  0.5530
  947MOL0     C30589   1.810   6.270   8.616 -0.3966 -0.0200 -0.1232
  947MOL0     C30590   1.876   6.408   8.632 -0.7729 -0.5909 -1.3104
  947MOL0     C30591   1.781   6.517   8.685  0.0517  1.0354  0.0871
  947MOL0     C30592   1.834   6.606   8.786 -0.7569  0.2781 -0.4062
  947MOL0    Cl30593   1.983   6.682   8.721  0.2402 -0.1053  0.1373
  947MOL0     C30594   2.391   5.776   8.277  0.7345 -1.3796  0.4767
  947MOL0     C30595   2.521   5.738   8.257 -0.6371  0.2011 -0.7178
  947MOL0     O30596   2.746   5.588   8.133 -0.3679 -0.4774  0.2463
  947MOL0     C30597   2.954   5.472   8.240  0.0340 -0.6881 -0.0780
  947MOL0     C30598   3.075   5.424   8.293 -0.4593  0.0224 -0.0837
  947MOL0     N30599   3.243   5.428   8.948  0.0104  0.3721 -0.0692
  947MOL0     N30600   3.300   5.430   9.072  0.4045 -0.3911  0.0554
  947MOL0     C30601   2.605   5.334  10.082 -0.4959  0.0019  0.0443
  947MOL0     C30602   2.504   5.324  10.181  0.6454 -0.1795  0.1325
  947MOL0     C30603   2.159   5.354  10.457 -0.9970 -0.6690  1.4075
  947MOL0     C30604   2.211   5.449  10.553  0.6152 -0.6475 -0.2688
  947MOL0     C30605   2.141   5.475  10.673 -0.2341  0.0228 -0.7577
  947MOL0     C30606   2.027   5.412  10.707  0.9331 -0.0496  0.3623
  947MOL0     O30607   1.956   5.446  10.824  0.2159  0.5311  0.7825
  947MOL0     C30608   1.868   5.347  10.872 -0.6422 -0.3050 -0.8701
  947MOL0     C30609   1.715   5.368  10.865  0.2779 -0.6248 -0.3646
  947MOL0     C30610   1.622   5.252  10.909  0.6632  0.5283 -0.6180
  947MOL0     C30611   1.539   5.206  10.793 -1.3618  0.1168  0.0712
  947MOL0     C30612   1.624   5.140  10.680 -0.1607 -0.2848  0.4757
  947MOL0     C30613   1.671   5.078  10.579 -0.3854 -0.3457 -1.9796
  947MOL0     C30614   1.984   5.320  10.610 -0.5596 -1.6863 -0.3214
  947MOL0     C30615   2.036   5.285  10.487 -0.0588  1.0882 -0.4079
  947MOL0     C30616   1.962   5.184  10.401  0.5280 -0.0763 -0.0606
  947MOL0     H30617   2.364   5.626  10.074 -1.2378 -2.0038 -2.5789
  947MOL0     H30618   2.505   5.607   9.903  0.7829  0.4774  1.2579
  947MOL0     H30619   2.742   5.609   9.833 -1.8930  1.2890 -0.7356
  947MOL0     H30620   2.666   5.522   9.696  1.9931 -2.2934 -1.1550
  947MOL0     H30621   2.830   5.419   9.619 -4.5477 -1.3441  2.3875
  947MOL0     H30622   2.865   5.590   9.637 -5.5565 -0.7252 -2.7053
  947MOL0     H30623   3.023   5.533   9.840  0.5797 -0.7345  0.1815
  947MOL0     H30624   2.964   5.379   9.833  1.0678  1.4478  1.3368
  947MOL0     H30625   3.110   5.505   9.592 -0.9465  0.7974  1.2482
  947MOL0     H30626   3.202   5.427   9.728 -0.1794  1.0350  1.3465
  947MOL0     H30627   3.017   5.279   9.554  0.0670 -0.4664  1.8398
  947MOL0     H30628   3.119   5.219   9.687 -0.7008 -1.5803 -1.6932
  947MOL0     H30629   3.331   5.282   9.588 -0.7830  0.1329  2.6092
  947MOL0     H30630   3.246   5.159   9.496 -0.0542 -0.5364  2.7942
  947MOL0     H30631   3.274   5.447   9.413 -2.5653  1.1412  0.7981
  947MOL0     H30632   3.137   5.355   9.344  0.3038 -1.0449  0.1421
  947MOL0     H30633   3.434   5.305   9.286  0.8486 -0.2029  0.5087
  947MOL0     H30634   3.307   5.177   9.286  1.9856  0.9037  0.2718
  947MOL0     H30635   3.235   5.111   9.030  0.1708 -0.9047 -2.1128
  947MOL0     H30636   3.051   5.283   8.817 -1.4285 -2.2562 -0.5922
  947MOL0     H30637   3.119   5.128   8.840  0.5637  0.1815  0.3052
  947MOL0     H30638   3.304   5.189   8.681 -1.2168  0.9657  0.6513
  947MOL0     H30639   3.144   5.164   8.612  0.0471 -1.5387  0.6734
  947MOL0     H30640   3.101   5.388   8.599  0.7373  1.2850 -1.7166
  947MOL0     H30641   3.253   5.432   8.685 -1.7034  0.8697  0.5612
  947MOL0     H30642   3.382   5.313   8.483  1.4303  2.4262 -2.5177
  947MOL0     H30643   3.228   5.280   8.427  0.9320 -0.9884  2.3022
  947MOL0     H30644   3.223   5.717   8.376 -0.7376 -0.4193  0.0767
  947MOL0     H30645   3.043   5.886   8.155  3.9031  1.1453  0.9170
  947MOL0     H30646   3.131   5.882   8.301  0.0112  2.2303 -1.7586
  947MOL0     H30647   2.969   5.898   8.328 -0.8515 -0.0588 -0.2948
  947MOL0     H30648   2.670   6.038   8.280  1.0414 -0.7697 -2.7737
  947MOL0     H30649   2.429   6.109   8.308  1.1885  0.4356 -3.2888
  947MOL0     H30650   2.241   6.089   8.433  0.4971  2.6686 -0.2183
  947MOL0     H30651   2.164   6.140   8.276  1.1014 -1.5292 -2.4917
  947MOL0     H30652   1.951   6.037   8.337 -0.1127 -0.5859 -0.4400
  947MOL0     H30653   2.015   5.944   8.463  2.6120 -0.0321  2.0036
  947MOL0     H30654   2.047   6.248   8.487  2.1138 -0.1970 -2.3472
  947MOL0     H30655   2.038   6.124   8.609 -1.5884  3.3077  0.7395
  947MOL0     H30656   1.789   6.089   8.526  2.2065 -0.7317  3.9054
  947MOL0     H30657   1.830   6.228   8.413 -0.4898  1.1232  0.9798
  947MOL0     H30658   1.703   6.293   8.605 -0.5812  0.3676  2.0207
  947MOL0     H30659   1.813   6.221   8.713  0.6748  2.3713  1.1292
  947MOL0     H30660   1.896   6.438   8.528  0.4749  1.2378 -0.5936
  947MOL0     H30661   1.972   6.411   8.683 -1.6637  0.0523  0.4037
  947MOL0     H30662   1.697   6.459   8.727  0.0255  0.6310 -0.5122
  947MOL0     H30663   1.731   6.576   8.608  1.5534  1.6117 -0.4767
  947MOL0     H30664   1.853   6.540   8.871  0.9188 -0.8277 -1.5692
  947MOL0     H30665   1.767   6.687   8.816 -0.8939 -0.2011  0.6055
  947MOL0     H30666   2.318   5.697   8.293  0.1516 -0.5879  2.0100
  947MOL0     H30667   2.539   5.632   8.246  0.7510  0.0887  1.8456
  947MOL0     H30668   2.893   5.399   8.187  3.9928 -3.3578 -1.3869
  947MOL0     H30669   3.099   5.318   8.298  2.6780  0.6560  0.5131
  947MOL0     H30670   2.689   5.265  10.085  1.7185  2.6100  2.2183
  947MOL0     H30671   2.504   5.254  10.264 -3.9210 -2.3366 -1.3212
  947MOL0     H30672   2.304   5.502  10.536  0.0296  0.3909 -0.3266
  947MOL0     H30673   2.179   5.544  10.748 -2.1550 -1.9735  2.2667
  947MOL0     H30674   1.896   5.249  10.832  1.3505  0.2904 -1.0321
  947MOL0     H30675   1.900   5.333  10.976 -0.2006  3.3431 -0.3727
  947MOL0     H30676   1.701   5.393  10.759  1.0074 -0.4759 -0.4314
  947MOL0     H30677   1.688   5.456  10.924  3.0506 -0.7790  1.2833
  947MOL0     H30678   1.679   5.170  10.954  1.9334  1.7878  0.1550
  947MOL0     H30679   1.553   5.281  10.989  2.9550 -0.7813  2.0131
  947MOL0     H30680   1.487   5.292  10.748 -1.5677 -0.2493 -0.3972
  947MOL0     H30681   1.467   5.138  10.840 -0.0755  0.3117  2.4568
  947MOL0     H30682   1.698   5.036  10.484  1.3783  0.0104 -1.6572
  947MOL0     H30683   1.878   5.295  10.617 -1.6339  2.4780  1.2456
  947MOL0     H30684   2.002   5.199  10.300  1.3058  0.5404  0.3197
  947MOL0     H30685   1.987   5.083  10.434  0.9770 -0.1569 -0.6278
  947MOL0     H30686   1.854   5.199  10.407  0.1623 -2.7149  1.1014
  948MOL0     O30687   5.846   5.693   7.274 -0.3205  0.3291 -0.2894
  948MOL0     C30688   5.763   5.598   7.285  0.2731 -0.1015 -0.6868
  948MOL0     O30689   5.660   5.571   7.190  1.0100 -0.6647 -0.8291
  948MOL0     C30690   5.668   5.630   7.064  0.4452  0.0499 -0.8473
  948MOL0     C30691   5.730   5.560   6.960  0.8332  0.5030  0.6488
  948MOL0     C30692   5.730   5.609   6.823 -1.5546  0.2984 -0.6697
  948MOL0     C30693   5.660   5.729   6.800 -0.8496  0.1680  0.6660
  948MOL0     O30694   5.651   5.780   6.676 -0.4804  0.2890 -0.0988
  948MOL0     C30695   5.577   5.701   6.576 -1.3577  0.1335  0.0297
  948MOL0     C30696   5.590   5.770   6.447  0.1733  0.4112 -0.5096
  948MOL0     C30697   5.548   5.684   6.329  0.7007  1.0246 -0.8236
  948MOL0     C30698   5.542   5.762   6.204 -0.4992  0.4054  0.4608
  948MOL0     C30699   5.492   5.668   6.090 -0.4561 -0.2416 -0.4097
  948MOL0     C30700   5.448   5.753   5.968  0.4355  0.5911 -0.2207
  948MOL0     C30701   5.578   5.787   5.895 -0.4663 -0.6287  0.2275
  948MOL0     C30702   5.562   5.920   5.830  1.1365 -0.3821  0.4782
  948MOL0     N30703   5.571   6.045   5.918 -0.0140 -0.3647 -0.0978
  948MOL0     C30704   5.506   6.161   5.887  0.5746  0.8377  0.2683
  948MOL0     C30705   5.523   6.240   5.990 -0.3786  0.5423 -0.8148
  948MOL0     C30706   5.482   6.388   5.997 -0.7315  0.0561  0.4499
  948MOL0     C30707   5.338   6.429   5.989  0.9228 -1.3449  0.2811
  948MOL0     C30708   5.298   6.566   6.048 -0.6668 -0.7387 -0.3261
  948MOL0     C30709   5.401   6.685   6.025  0.1287 -0.7047 -0.2554
  948MOL0     O30710   5.431   6.697   5.887  0.0384 -0.0811 -0.2468
  948MOL0     C30711   5.540   6.759   5.840 -0.1747 -0.4462  0.1772
  948MOL0     C30712   5.603   6.858   5.912  0.2019 -0.5789 -0.6632
  948MOL0     C30713   5.715   6.920   5.869 -0.0498  0.0810  0.0825
  948MOL0     C30714   5.775   7.013   5.970 -0.1619 -0.5389 -1.2443
  948MOL0     C30715   5.779   6.892   5.740  0.8933  1.4617 -0.2655
  948MOL0     C30716   5.892   6.965   5.683  0.9964 -0.8844 -0.3292
  948MOL0     O30717   5.977   7.025   5.769  0.4005 -0.5565 -0.5986
  948MOL0     C30718   6.081   7.105   5.739  0.7571 -0.0666 -1.0588
  948MOL0     C30719   6.194   7.107   5.821 -0.1153  0.1341  0.1957
  948MOL0     C30720   6.304   7.170   5.778  0.3433  1.0417  0.2005
  948MOL0     C30721   6.312   7.240   5.657 -0.0364 -0.5957  0.2972
  948MOL0     O30722   6.434   7.281   5.597 -0.0657 -0.2706 -0.1879
  948MOL0     C30723   6.552   7.279   5.681 -0.2279 -0.4436 -1.4580
  948MOL0     C30724   6.631   7.149   5.696 -0.4562  1.0574  0.4669
  948MOL0     C30725   6.696   7.105   5.566 -0.2033  0.2430  1.1473
  948MOL0     C30726   6.774   6.974   5.597  0.1512  0.2554  0.4309
  948MOL0     C30727   6.827   6.903   5.472  0.2949 -0.6222  0.3889
  948MOL0     C30728   6.942   6.812   5.506  1.1102  0.2139 -0.4923
  948MOL0     C30729   7.031   6.774   5.388 -0.9720  0.2807  0.1727
  948MOL0     C30730   7.131   6.667   5.431  0.0491 -0.0174  0.7159
  948MOL0    Cl30731   7.251   6.643   5.297 -0.1323  0.4422 -0.1829
  948MOL0     C30732   6.201   7.251   5.580  0.2164  0.8560 -0.2555
  948MOL0     C30733   6.085   7.172   5.617 -0.3920  0.5703 -0.6870
  948MOL0     O30734   5.917   6.942   5.566  0.3329  0.0661 -0.7839
  948MOL0     C30735   5.724   6.780   5.672  0.8294  1.1213 -0.0363
  948MOL0     C30736   5.609   6.717   5.725 -0.5207  0.2381 -0.1353
  948MOL0     N30737   5.587   6.169   6.094 -0.6967 -0.5150 -0.1635
  948MOL0     N30738   5.615   6.052   6.045  0.5037  0.2519 -0.9374
  948MOL0     C30739   5.605   5.801   6.902  0.3103 -0.7363 -0.8733
  948MOL0     C30740   5.610   5.756   7.030  0.5739  0.0790  0.3587
  948MOL0     C30741   5.769   5.524   7.414  0.4038  0.5679 -0.8229
  948MOL0     C30742   5.641   5.487   7.478 -0.1544  0.7615  0.2377
  948MOL0     C30743   5.644   5.397   7.580 -0.0816 -0.0548  0.6840
  948MOL0     C30744   5.766   5.351   7.633  0.1293 -0.0640  0.5809
  948MOL0     O30745   5.753   5.267   7.738 -0.5135  0.7553 -0.2957
  948MOL0     C30746   5.746   5.338   7.859  0.4940  1.3575  0.0271
  948MOL0     C30747   5.744   5.247   7.972 -0.0645  0.6743  0.8212
  948MOL0     C30748   5.877   5.173   7.997 -0.2848 -0.1511  0.0422
  948MOL0     C30749   5.862   5.075   8.112  0.0832  0.0865  0.2875
  948MOL0     C30750   6.000   5.026   8.127  0.2619 -0.0193 -0.2159
  948MOL0     C30751   6.093   4.965   8.180  0.1000  0.6569  1.6933
  948MOL0     C30752   5.886   5.393   7.573 -0.4961  0.6912  0.0016
  948MOL0     C30753   5.893   5.487   7.474 -0.6511  0.4871 -0.0964
  948MOL0     C30754   6.025   5.518   7.419 -0.3607 -0.0808  0.2261
  948MOL0     H30755   5.778   5.468   6.990  3.4225  1.7410  0.6072
  948MOL0     H30756   5.785   5.551   6.750 -1.5119 -2.7801  1.5684
  948MOL0     H30757   5.472   5.698   6.608 -0.9123 -1.4243  1.5203
  948MOL0     H30758   5.612   5.599   6.561 -3.0671 -0.0116 -4.1351
  948MOL0     H30759   5.529   5.860   6.439 -1.1559 -0.3680  0.5076
  948MOL0     H30760   5.691   5.813   6.442  0.3234 -0.0429 -1.8074
  948MOL0     H30761   5.611   5.596   6.314  0.0178  0.8077 -2.6799
  948MOL0     H30762   5.445   5.649   6.343  0.6224  0.3277 -2.8883
  948MOL0     H30763   5.469   5.843   6.208 -2.4349 -1.3008  2.0030
  948MOL0     H30764   5.635   5.807   6.168 -0.5089 -1.6253 -2.4800
  948MOL0     H30765   5.409   5.607   6.127  0.2266 -1.8424 -1.3887
  948MOL0     H30766   5.557   5.586   6.057  0.0287  0.5213 -1.4066
  948MOL0     H30767   5.377   5.696   5.907 -0.7730  0.9220  0.8179
  948MOL0     H30768   5.410   5.851   5.998  0.3315  0.3472  0.4698
  948MOL0     H30769   5.594   5.708   5.821  1.4201 -2.4368  2.3956
  948MOL0     H30770   5.659   5.800   5.968 -2.6903  2.3438  2.4041
  948MOL0     H30771   5.644   5.928   5.758  0.7430 -1.0826 -0.0651
  948MOL0     H30772   5.472   5.920   5.769  1.1383 -1.0314  0.4688
  948MOL0     H30773   5.453   6.183   5.795 -2.2104  1.3656  1.8780
  948MOL0     H30774   5.541   6.439   5.920  1.4686  0.3045  2.1768
  948MOL0     H30775   5.513   6.429   6.094 -1.1881  2.5059 -0.3500
  948MOL0     H30776   5.312   6.432   5.882  0.5617 -0.8458  0.3790
  948MOL0     H30777   5.265   6.357   6.027  0.5889  0.0387  2.4044
  948MOL0     H30778   5.205   6.603   6.004 -0.1771  0.5434 -0.3276
  948MOL0     H30779   5.276   6.547   6.154  2.2827 -3.7884 -0.0807
  948MOL0     H30780   5.359   6.783   6.051  3.7398  1.1431 -0.6405
  948MOL0     H30781   5.496   6.686   6.079  0.8683 -0.6469 -1.5138
  948MOL0     H30782   5.581   6.886   6.015 -0.1994  2.4598 -1.4837
  948MOL0     H30783   5.711   7.044   6.053 -0.2044 -2.6574 -0.4317
  948MOL0     H30784   5.798   7.108   5.920 -1.2405  0.2036 -0.3726
  948MOL0     H30785   5.867   6.973   6.015 -0.5372 -2.4483 -2.0892
  948MOL0     H30786   6.205   7.044   5.909  1.8410  1.5793  1.0762
  948MOL0     H30787   6.380   7.175   5.855  1.9284 -0.0138 -1.2202
  948MOL0     H30788   6.615   7.354   5.633 -0.6071 -0.1397 -1.4832
  948MOL0     H30789   6.535   7.319   5.781  0.7856 -1.6965 -0.7535
  948MOL0     H30790   6.715   7.156   5.766 -1.3134 -1.2750  1.8505
  948MOL0     H30791   6.558   7.075   5.731  2.2272 -2.1047 -0.1209
  948MOL0     H30792   6.756   7.190   5.532 -3.2070  1.8164 -0.6440
  948MOL0     H30793   6.616   7.094   5.492  2.3595 -2.1532 -1.5360
  948MOL0     H30794   6.705   6.897   5.633 -1.8034  1.9409  0.4223
  948MOL0     H30795   6.860   7.005   5.657 -0.0953  0.8876  0.4568
  948MOL0     H30796   6.746   6.861   5.413 -0.4257  3.2744 -1.7154
  948MOL0     H30797   6.868   6.979   5.404 -2.5132 -1.0217 -1.9137
  948MOL0     H30798   6.900   6.720   5.549  0.0103  1.7702  1.9374
  948MOL0     H30799   7.011   6.857   5.579 -0.2334  0.8821  0.3965
  948MOL0     H30800   7.097   6.858   5.365 -4.0893  2.7054 -0.7802
  948MOL0     H30801   6.977   6.738   5.300  2.0942 -0.8488 -1.3741
  948MOL0     H30802   7.081   6.574   5.458 -1.1808  0.5913  0.6282
  948MOL0     H30803   7.185   6.698   5.521  0.0208  0.3197  0.6209
  948MOL0     H30804   6.215   7.290   5.480  1.4213 -0.0224 -0.4561
  948MOL0     H30805   6.002   7.161   5.548  0.1516  0.9490 -1.4306
  948MOL0     H30806   5.759   6.746   5.575 -3.0794  1.0935 -1.6333
  948MOL0     H30807   5.593   6.624   5.670 -0.2376  0.6277 -0.8854
  948MOL0     H30808   5.555   5.895   6.881 -1.0013 -1.0513  0.6303
  948MOL0     H30809   5.553   5.821   7.095 -2.3753 -0.8163 -1.1513
  948MOL0     H30810   5.547   5.512   7.431 -0.0252  1.2156  0.2210
  948MOL0     H30811   5.545   5.363   7.609 -2.3680  3.5980 -1.9870
  948MOL0     H30812   5.836   5.399   7.861  0.4952  1.4250 -1.1207
  948MOL0     H30813   5.659   5.404   7.862 -0.0661  0.6070  0.6320
  948MOL0     H30814   5.662   5.184   7.937 -0.4138  2.7661 -2.5111
  948MOL0     H30815   5.720   5.298   8.066  1.0793  1.8647  0.5006
  948MOL0     H30816   5.890   5.100   7.917 -0.1867  0.5554 -0.6075
  948MOL0     H30817   5.961   5.242   8.008 -0.7961  0.1157  3.1172
  948MOL0     H30818   5.792   4.997   8.083  0.0744 -0.0448  0.6550
  948MOL0     H30819   5.824   5.123   8.203 -0.1750 -2.0497  1.3764
  948MOL0     H30820   6.183   4.916   8.211 -1.3439 -2.0043  1.9678
  948MOL0     H30821   5.975   5.363   7.629 -0.9519  0.7551  0.7762
  948MOL0     H30822   6.044   5.625   7.433 -0.1220  0.0193 -0.7943
  948MOL0     H30823   6.115   5.466   7.453  3.1211  2.9116 -3.3593
  948MOL0     H30824   6.037   5.502   7.311  1.1959  1.6538  0.0807
  949MOL0     O30825   5.859   2.074   7.203  0.1873 -0.6508 -0.0316
  949MOL0     C30826   5.795   2.176   7.185  0.4537  1.0543 -0.8540
  949MOL0     O30827   5.847   2.281   7.112  0.2574 -0.4151  0.8437
  949MOL0     C30828   5.960   2.261   7.041  0.9313  0.3000 -0.1380
  949MOL0     C30829   5.955   2.215   6.909  0.4951  0.1795 -0.2955
  949MOL0     C30830   6.072   2.197   6.838 -0.1356  0.3528 -0.0999
  949MOL0     C30831   6.197   2.226   6.897 -0.0349  0.3434 -0.5932
  949MOL0     O30832   6.307   2.226   6.812 -0.5381  0.3492  0.0934
  949MOL0     C30833   6.437   2.226   6.865 -0.7392 -0.0718  0.2460
  949MOL0     C30834   6.547   2.223   6.754  0.1747 -1.1352 -0.1299
  949MOL0     C30835   6.677   2.284   6.810 -0.4381  0.0951  0.4073
  949MOL0     C30836   6.771   2.167   6.854 -0.3246 -0.1906  0.2335
  949MOL0     C30837   6.902   2.242   6.910  0.2332  0.9793  0.1275
  949MOL0     C30838   6.998   2.276   6.792  0.1579 -0.4365  0.2604
  949MOL0     C30839   7.138   2.317   6.839 -0.1638  0.0740 -0.2606
  949MOL0     C30840   7.248   2.211   6.826  0.5886  0.2358 -0.1072
  949MOL0     N30841   7.370   2.261   6.881 -0.0746 -0.4703  0.6159
  949MOL0     C30842   7.498   2.241   6.821 -0.5683 -0.2684 -0.8730
  949MOL0     C30843   7.588   2.262   6.930 -0.1384 -0.7967  0.4392
  949MOL0     C30844   7.742   2.253   6.915 -0.1007 -1.1907 -0.2093
  949MOL0     C30845   7.809   2.340   7.028 -0.3321  0.2541  0.4978
  949MOL0     C30846   7.828   2.283   7.163  0.3348  0.1033 -0.4423
  949MOL0     C30847   7.843   2.377   7.280 -0.6296 -0.3863  0.1479
  949MOL0     O30848   7.941   2.472   7.255 -1.0438  0.2076 -0.0334
  949MOL0     C30849   8.058   2.462   7.340 -0.0753 -0.5783 -0.0003
  949MOL0     C30850   8.180   2.475   7.268  0.8353  0.4470 -0.2230
  949MOL0     C30851   8.303   2.450   7.322  0.8150 -0.1540 -0.4668
  949MOL0     C30852   8.422   2.436   7.230  0.4520 -0.3603  0.4400
  949MOL0     C30853   8.313   2.426   7.463 -0.0423  1.1971 -0.3343
  949MOL0     C30854   8.432   2.397   7.537  1.3010  0.4633 -0.7625
  949MOL0     O30855   8.515   2.325   7.468  0.2886  0.4468  0.4293
  949MOL0     C30856   8.641   2.294   7.522 -0.0427  0.4970 -0.8217
  949MOL0     C30857   8.735   2.398   7.536  0.0955  0.4163 -0.4106
  949MOL0     C30858   8.861   2.377   7.582 -0.6512  0.2516  0.5965
  949MOL0     C30859   8.909   2.255   7.621  0.9574 -0.0575  0.8228
  949MOL0     O30860   9.038   2.245   7.661 -0.2649  0.8183  0.5393
  949MOL0     C30861   9.060   2.148   7.759  0.3668 -0.1354 -0.2770
  949MOL0     C30862   9.133   2.212   7.882  0.3880 -0.1274  0.3713
  949MOL0     C30863   9.035   2.296   7.958 -0.4172  1.1845 -0.1694
  949MOL0     C30864   9.089   2.377   8.079 -1.6777  0.7426  0.1354
  949MOL0     C30865   8.974   2.456   8.148 -0.4540  0.0006 -0.2692
  949MOL0     C30866   9.009   2.566   8.242  0.2919  1.2410 -0.4620
  949MOL0     C30867   9.130   2.652   8.207  0.1660 -0.7620  0.9997
  949MOL0     C30868   9.263   2.625   8.261  1.1527  0.6280 -0.1112
  949MOL0    Cl30869   9.341   2.785   8.261  0.0504  0.1001  0.3581
  949MOL0     C30870   8.821   2.143   7.601  0.6005  0.4533  1.0203
  949MOL0     C30871   8.689   2.166   7.569  0.2474 -0.7499 -0.4029
  949MOL0     O30872   8.439   2.422   7.658 -0.4952 -0.0762 -0.1437
  949MOL0     C30873   8.191   2.430   7.540 -0.3048 -0.0107  0.0329
  949MOL0     C30874   8.068   2.443   7.477 -0.1311 -0.7577  0.1561
  949MOL0     N30875   7.515   2.288   7.039 -0.0777  0.2545 -0.0295
  949MOL0     N30876   7.387   2.289   7.016 -0.4075  0.5324  0.5971
  949MOL0     C30877   6.199   2.274   7.037 -0.1409 -0.0861  0.1259
  949MOL0     C30878   6.081   2.287   7.102 -0.2373 -0.0902 -0.3762
  949MOL0     C30879   5.667   2.214   7.263 -0.1165  0.7141  0.5873
  949MOL0     C30880   5.620   2.340   7.233 -0.0135 -1.3033 -0.4059
  949MOL0     C30881   5.495   2.376   7.278 -0.3070  0.3512 -0.4511
  949MOL0     C30882   5.412   2.290   7.351  0.4662 -0.0622 -0.2956
  949MOL0     O30883   5.287   2.327   7.398  0.4052  0.0163 -0.2123
  949MOL0     C30884   5.273   2.321   7.541  0.5003 -0.0359 -0.3013
  949MOL0     C30885   5.179   2.416   7.605  0.5120 -1.3057  0.3006
  949MOL0     C30886   5.034   2.413   7.544 -0.2791  0.3276  0.5585
  949MOL0     C30887   4.940   2.481   7.638  0.7575  0.2045  0.2601
  949MOL0     C30888   4.975   2.607   7.698  0.7504  0.3194 -0.9301
  949MOL0     C30889   4.995   2.712   7.753  0.1124  0.6117 -0.9047
  949MOL0     C30890   5.458   2.163   7.375  0.6365  0.6040  0.4958
  949MOL0     C30891   5.586   2.131   7.335 -0.6072  0.9301 -0.4618
  949MOL0     C30892   5.614   1.989   7.373 -1.4559  0.4153  0.1803
  949MOL0     H30893   5.861   2.195   6.859 -0.0623 -2.9930  1.7171
  949MOL0     H30894   6.068   2.182   6.730 -1.5808 -0.9431  0.0912
  949MOL0     H30895   6.452   2.143   6.934 -1.1930  0.6225  1.2086
  949MOL0     H30896   6.446   2.321   6.920  1.1865  0.1223 -0.3107
  949MOL0     H30897   6.560   2.122   6.712 -1.1949 -1.6028  0.5159
  949MOL0     H30898   6.516   2.275   6.663  1.6165 -0.4746 -0.2733
  949MOL0     H30899   6.718   2.331   6.720 -1.6684  2.3735  0.9773
  949MOL0     H30900   6.672   2.366   6.882  0.4713  0.1864  0.3704
  949MOL0     H30901   6.723   2.111   6.935 -1.5421  1.1772  0.5150
  949MOL0     H30902   6.799   2.096   6.776  0.6685 -1.7583  1.9490
  949MOL0     H30903   6.971   2.183   6.970  2.3810  1.8892 -1.3220
  949MOL0     H30904   6.875   2.333   6.965  2.5978  1.9340 -0.1839
  949MOL0     H30905   7.000   2.200   6.713 -0.0973 -1.7645  1.4895
  949MOL0     H30906   6.954   2.363   6.743  2.0669 -0.3783 -1.5004
  949MOL0     H30907   7.141   2.358   6.940 -0.3403  1.4632 -0.7966
  949MOL0     H30908   7.177   2.394   6.773  0.7019 -1.3413 -1.4725
  949MOL0     H30909   7.212   2.121   6.877 -1.2493  1.2626  0.4931
  949MOL0     H30910   7.273   2.181   6.724  0.8671  1.9365 -0.5575
  949MOL0     H30911   7.525   2.211   6.720  2.4586 -0.7749 -0.0090
  949MOL0     H30912   7.776   2.291   6.818  1.4885 -2.9390 -0.3879
  949MOL0     H30913   7.756   2.147   6.937  0.7066 -0.4829  3.2847
  949MOL0     H30914   7.912   2.362   6.999 -0.0121 -1.7598 -0.0649
  949MOL0     H30915   7.755   2.434   7.038 -2.7558 -1.0449  0.4197
  949MOL0     H30916   7.736   2.225   7.178 -1.8556  2.8709 -2.1071
  949MOL0     H30917   7.907   2.208   7.162 -0.2423 -0.5036 -1.2716
  949MOL0     H30918   7.746   2.426   7.283 -2.1405 -2.8247 -3.2762
  949MOL0     H30919   7.856   2.336   7.380 -2.0330  0.3260  0.6413
  949MOL0     H30920   8.188   2.487   7.161  1.3386  1.2294 -0.1038
  949MOL0     H30921   8.387   2.456   7.128 -0.2990  0.3708  0.8272
  949MOL0     H30922   8.457   2.333   7.238 -1.2320 -0.7973  3.5221
  949MOL0     H30923   8.511   2.497   7.248 -0.4932  1.7387 -1.5425
  949MOL0     H30924   8.698   2.495   7.502 -0.5848 -0.6932 -3.0366
  949MOL0     H30925   8.931   2.460   7.580 -1.4970  0.9705  0.1164
  949MOL0     H30926   8.975   2.090   7.795  0.4878 -1.5691 -2.1285
  949MOL0     H30927   9.118   2.071   7.707  0.2240 -0.8853  0.6422
  949MOL0     H30928   9.164   2.125   7.942 -1.2849 -1.1957 -0.2155
  949MOL0     H30929   9.216   2.278   7.859  0.7025  0.1940  2.2555
  949MOL0     H30930   8.965   2.225   8.003  2.7036 -1.8375  0.3844
  949MOL0     H30931   8.988   2.360   7.883 -1.6919 -0.4440 -0.8253
  949MOL0     H30932   9.161   2.450   8.041  1.1756 -1.2502  1.3417
  949MOL0     H30933   9.145   2.314   8.149 -1.2069 -0.1679 -1.0290
  949MOL0     H30934   8.918   2.503   8.066 -0.3492 -0.7288 -0.7720
  949MOL0     H30935   8.904   2.389   8.200 -2.2455  1.2036 -1.0178
  949MOL0     H30936   8.994   2.533   8.346 -1.3606 -0.3031 -1.1261
  949MOL0     H30937   8.927   2.639   8.235  0.1864  1.1317 -0.3777
  949MOL0     H30938   9.092   2.741   8.260 -2.8078 -1.4420  0.2102
  949MOL0     H30939   9.133   2.676   8.101 -0.8681  0.2235  1.1724
  949MOL0     H30940   9.327   2.552   8.211  1.8644 -0.1148  1.7970
  949MOL0     H30941   9.248   2.590   8.363 -3.8973  1.8058 -0.1639
  949MOL0     H30942   8.845   2.039   7.621 -0.7858  0.2859  1.9773
  949MOL0     H30943   8.631   2.075   7.571  0.3743 -0.8441  1.7434
  949MOL0     H30944   8.198   2.406   7.645 -2.5663  0.2732  0.3059
  949MOL0     H30945   7.974   2.423   7.527 -2.4121  4.9222 -1.1352
  949MOL0     H30946   6.296   2.280   7.087 -1.2611  0.2973  2.3886
  949MOL0     H30947   6.090   2.318   7.205 -2.5837 -2.5776  0.6945
  949MOL0     H30948   5.669   2.419   7.177 -2.4229 -1.3007 -2.6854
  949MOL0     H30949   5.459   2.476   7.255  2.7039  1.7040  0.2028
  949MOL0     H30950   5.252   2.224   7.587  0.2153 -0.8890 -2.1420
  949MOL0     H30951   5.373   2.353   7.572  0.5334  1.7688 -2.0683
  949MOL0     H30952   5.220   2.517   7.593 -2.1544 -0.1622  0.2964
  949MOL0     H30953   5.177   2.396   7.713 -1.7514 -0.7434  0.4010
  949MOL0     H30954   5.023   2.469   7.451  1.3694  0.2378  0.2709
  949MOL0     H30955   5.020   2.305   7.537  3.7140 -0.3957  1.3038
  949MOL0     H30956   4.915   2.420   7.725  0.5173  1.9579  1.4757
  949MOL0     H30957   4.841   2.476   7.591  0.0967 -1.4832  1.7126
  949MOL0     H30958   5.013   2.801   7.809  3.1127  1.0455 -2.3618
  949MOL0     H30959   5.394   2.087   7.420  2.4204 -0.6534  1.0243
  949MOL0     H30960   5.554   1.917   7.316  0.5117  0.6323 -2.3639
  949MOL0     H30961   5.714   1.952   7.349 -1.2597  2.3624 -2.4141
  949MOL0     H30962   5.602   1.975   7.481 -2.8858  1.7282  0.2218
  950MOL0     O30963   2.734   4.988  10.744  0.8137  0.5891 -0.4850
  950MOL0     C30964   2.641   5.044  10.797  0.3637 -0.4319  0.6170
  950MOL0     O30965   2.655   5.151  10.881  0.7769 -0.2183 -0.5645
  950MOL0     C30966   2.756   5.152  10.971 -0.4002  0.4420 -0.8163
  950MOL0     C30967   2.887   5.173  10.939 -0.6283 -0.4573 -0.8806
  950MOL0     C30968   2.985   5.180  11.037  0.7420 -0.4478  0.6614
  950MOL0     C30969   2.950   5.176  11.179  0.7145 -0.3910  0.4427
  950MOL0     O30970   3.040   5.184  11.286  0.2108  0.6653  0.2106
  950MOL0     C30971   3.153   5.268  11.271  0.2800 -0.5326 -0.3726
  950MOL0     C30972   3.283   5.172  11.258  0.4641  0.3731  0.4954
  950MOL0     C30973   3.408   5.247  11.216  0.4467  1.1436 -0.2569
  950MOL0     C30974   3.522   5.156  11.164 -0.1520 -0.0439  1.1057
  950MOL0     C30975   3.638   5.250  11.118 -0.0288 -0.0815  0.2198
  950MOL0     C30976   3.743   5.164  11.040 -0.5376  0.4805  0.0006
  950MOL0     C30977   3.868   5.248  11.035  0.3047  0.9565 -1.2199
  950MOL0     C30978   3.973   5.195  11.125 -0.4966  0.0802  0.5176
  950MOL0     N30979   3.957   5.215  11.270  0.3008 -0.0920 -0.3781
  950MOL0     C30980   3.884   5.138  11.357  0.7290  0.6832  0.3303
  950MOL0     C30981   3.857   5.223  11.458 -0.4107 -0.0723  0.5508
  950MOL0     C30982   3.814   5.191  11.604  0.1224 -0.4513  0.6268
  950MOL0     C30983   3.689   5.093  11.594  0.2790  0.3980  0.6237
  950MOL0     C30984   3.549   5.162  11.625 -0.1905  0.1316  0.2334
  950MOL0     C30985   3.541   5.183  11.772 -0.1701 -0.5865  0.1825
  950MOL0     O30986   3.409   5.230  11.807  0.3220  0.1717  0.4294
  950MOL0     C30987   3.375   5.248  11.943 -0.5430  0.7390  1.0239
  950MOL0     C30988   3.254   5.223  11.991  0.1448  0.4367  0.9198
  950MOL0     C30989   3.212   5.231  12.119 -0.3709  0.2465 -0.2585
  950MOL0     C30990   3.067   5.181  12.146 -0.1095  0.0719 -0.3540
  950MOL0     C30991   3.316   5.254  12.219 -0.3980  0.4426 -0.7293
  950MOL0     C30992   3.291   5.257  12.366 -0.7213  0.4736  0.7865
  950MOL0     O30993   3.404   5.288  12.445 -0.4020  0.1867  1.2218
  950MOL0     C30994   3.376   5.321  12.582  0.0261  0.5413  0.7803
  950MOL0     C30995   3.454   5.255  12.684  0.4672 -0.2171  0.8395
  950MOL0     C30996   3.424   5.273  12.824  0.0312  0.6534  0.0785
  950MOL0     C30997   3.306   5.330  12.862  0.3942 -0.0534  0.1654
  950MOL0     O30998   3.249   5.325  12.993 -0.2153 -0.1616  1.0225
  950MOL0     C30999   3.338   5.292  13.106 -1.0015  0.3280 -0.4796
  950MOL0     C31000   3.278   5.357  13.235  0.4444 -0.5726  0.6545
  950MOL0     C31001   3.219   5.500  13.222  0.3167 -0.2428 -0.0796
  950MOL0     C31002   3.153   5.564  13.354  0.3583  0.1917  0.0337
  950MOL0     C31003   3.158   5.708  13.328 -0.5821 -0.7300 -0.2926
  950MOL0     C31004   3.086   5.807  13.423  0.0868 -0.0337 -0.3704
  950MOL0     C31005   3.156   5.950  13.422 -0.9070 -0.3429  0.8947
  950MOL0     C31006   3.281   5.955  13.523  0.2743 -0.4259 -0.3169
  950MOL0    Cl31007   3.228   5.913  13.688 -0.5277 -0.0345 -0.0938
  950MOL0     C31008   3.226   5.398  12.761 -0.1938  0.8239 -0.3157
  950MOL0     C31009   3.267   5.394  12.631 -0.5195  0.4678  0.4674
  950MOL0     O31010   3.189   5.221  12.412 -0.2732  1.0595  0.2256
  950MOL0     C31011   3.439   5.302  12.171 -0.4191  0.7485  0.3454
  950MOL0     C31012   3.462   5.306  12.036 -0.6932  0.4178 -0.5813
  950MOL0     N31013   3.889   5.343  11.425  0.1524  0.2360 -0.8328
  950MOL0     N31014   3.964   5.341  11.323  0.2688 -0.1393 -0.2152
  950MOL0     C31015   2.810   5.140  11.211 -0.7820 -0.4459  0.5060
  950MOL0     C31016   2.717   5.137  11.108  0.4108 -0.0793 -0.7735
  950MOL0     C31017   2.503   5.008  10.759 -0.3814 -0.0732  0.6077
  950MOL0     C31018   2.450   5.067  10.640  0.4790 -0.5942  0.8596
  950MOL0     C31019   2.335   5.017  10.591 -0.0741 -0.4184 -0.0161
  950MOL0     C31020   2.263   4.917  10.664  0.3690 -0.5589 -0.2190
  950MOL0     O31021   2.133   4.899  10.636  0.0551 -0.6182  0.1172
  950MOL0     C31022   2.122   4.834  10.503 -0.6054 -0.9400 -0.7852
  950MOL0     C31023   2.172   4.693  10.515 -0.3258 -0.8389  1.8919
  950MOL0     C31024   2.092   4.600  10.612  0.4628  0.6552 -0.2727
  950MOL0     C31025   2.147   4.452  10.630 -0.3424 -0.5758  0.0748
  950MOL0     C31026   2.258   4.454  10.723  0.8122 -0.0894 -1.3637
  950MOL0     C31027   2.361   4.474  10.792 -1.1521  0.0728  0.0561
  950MOL0     C31028   2.310   4.862  10.780  0.3337 -0.4762  0.0542
  950MOL0     C31029   2.438   4.900  10.826  0.3904 -0.3809  0.1208
  950MOL0     C31030   2.487   4.832  10.949 -0.2542 -0.3851 -0.2185
  950MOL0     H31031   2.919   5.199  10.839 -0.7738  4.8521  0.1157
  950MOL0     H31032   3.089   5.186  11.007  0.3766  2.3447 -0.3440
  950MOL0     H31033   3.169   5.327  11.362  1.1835 -2.1503  0.5679
  950MOL0     H31034   3.143   5.333  11.185 -1.1759 -1.8029 -1.2240
  950MOL0     H31035   3.296   5.122  11.354 -1.5805 -0.5650  0.3489
  950MOL0     H31036   3.262   5.103  11.176  1.6715  0.8130 -0.2051
  950MOL0     H31037   3.368   5.306  11.134 -0.9424 -0.7981 -1.0615
  950MOL0     H31038   3.451   5.314  11.291  1.3582  2.0446 -1.5390
  950MOL0     H31039   3.564   5.085  11.236 -1.1484 -0.6683  1.0921
  950MOL0     H31040   3.493   5.089  11.083  1.5974 -0.6925  0.9715
  950MOL0     H31041   3.673   5.285  11.216  0.5680 -1.1947  0.4192
  950MOL0     H31042   3.597   5.330  11.056 -3.1881 -1.5245  0.2253
  950MOL0     H31043   3.772   5.072  11.091 -0.1592 -0.1946 -1.4075
  950MOL0     H31044   3.697   5.133  10.946 -3.7332 -2.3588  2.2420
  950MOL0     H31045   3.856   5.356  11.046 -0.8735  0.5420  4.2126
  950MOL0     H31046   3.881   5.231  10.928 -1.9282  1.0879 -1.5519
  950MOL0     H31047   3.983   5.088  11.104  2.2368  0.2405  0.7145
  950MOL0     H31048   4.066   5.231  11.080 -0.0699  2.5739  3.0570
  950MOL0     H31049   3.857   5.033  11.353  2.6906  0.0579  2.0089
  950MOL0     H31050   3.782   5.291  11.636 -1.7022 -0.3143 -1.3919
  950MOL0     H31051   3.894   5.154  11.668  0.7215  1.8325  1.3095
  950MOL0     H31052   3.686   5.054  11.491  2.4402 -0.4340  0.8229
  950MOL0     H31053   3.715   5.006  11.656 -0.0515 -0.8950 -0.9683
  950MOL0     H31054   3.526   5.249  11.563 -0.5181 -2.8219 -4.2685
  950MOL0     H31055   3.466   5.094  11.600 -2.3900  3.7835 -3.7541
  950MOL0     H31056   3.552   5.091  11.830  0.1544  0.4466  1.8282
  950MOL0     H31057   3.606   5.260  11.815 -1.7599 -0.5648  2.6876
  950MOL0     H31058   3.180   5.199  11.915  2.1219  0.8330 -1.2725
  950MOL0     H31059   3.061   5.095  12.214 -0.9368 -0.9998 -1.7260
  950MOL0     H31060   3.023   5.149  12.051 -0.4063  0.1254 -0.2333
  950MOL0     H31061   3.006   5.261  12.188  1.8554  1.7144 -0.4717
  950MOL0     H31062   3.537   5.191  12.656 -2.0391 -3.2324 -0.1867
  950MOL0     H31063   3.484   5.221  12.899  0.6919 -3.6516 -3.0770
  950MOL0     H31064   3.362   5.186  13.120 -0.0651  0.4533 -1.0970
  950MOL0     H31065   3.435   5.340  13.091  0.5695 -2.2645  0.6343
  950MOL0     H31066   3.209   5.288  13.286 -0.9713  2.0611  2.5366
  950MOL0     H31067   3.362   5.374  13.304 -0.0814 -1.1220  1.4562
  950MOL0     H31068   3.136   5.498  13.151 -1.5202  1.0384  1.8968
  950MOL0     H31069   3.301   5.560  13.181  0.7998 -1.5411 -1.0678
  950MOL0     H31070   3.214   5.537  13.441 -2.2836  1.8601  2.5480
  950MOL0     H31071   3.054   5.519  13.359  0.3987 -0.0662 -1.1532
  950MOL0     H31072   3.265   5.730  13.333 -0.9693  1.2616 -0.1715
  950MOL0     H31073   3.127   5.736  13.227  1.1546  2.0640 -0.1684
  950MOL0     H31074   3.097   5.771  13.526  1.2784 -0.5055 -0.6450
  950MOL0     H31075   2.980   5.802  13.397  0.2368 -1.4105 -0.7709
  950MOL0     H31076   3.088   6.029  13.454 -2.1008 -1.3870  1.0147
  950MOL0     H31077   3.198   5.978  13.325  0.4878 -1.0789  1.2496
  950MOL0     H31078   3.319   6.057  13.514 -0.3301 -0.1225  0.4099
  950MOL0     H31079   3.352   5.884  13.480  0.2591  1.8364 -4.6523
  950MOL0     H31080   3.128   5.439  12.785 -1.4250 -2.2923  0.5296
  950MOL0     H31081   3.197   5.440  12.562  0.1506  2.1253  0.8404
  950MOL0     H31082   3.516   5.350  12.232  1.9328 -2.9329  0.6053
  950MOL0     H31083   3.550   5.353  11.992 -0.5127  0.2994 -0.3433
  950MOL0     H31084   2.769   5.114  11.308 -0.5159  0.0933  0.7671
  950MOL0     H31085   2.617   5.113  11.143  2.1150 -1.3213  3.9948
  950MOL0     H31086   2.494   5.145  10.578 -0.8932 -1.7437 -1.7172
  950MOL0     H31087   2.292   5.057  10.500  0.9423 -2.8677 -1.6877
  950MOL0     H31088   2.015   4.826  10.479 -0.3458  0.0703 -2.3476
  950MOL0     H31089   2.178   4.893  10.431  1.3228  0.8045  1.9519
  950MOL0     H31090   2.277   4.691  10.543 -0.1841 -0.5406  1.3907
  950MOL0     H31091   2.168   4.643  10.418  0.3646 -2.4272  2.6532
  950MOL0     H31092   2.090   4.641  10.714 -0.4145  0.8347 -0.3541
  950MOL0     H31093   1.989   4.583  10.578  0.1421  0.4439  0.7600
  950MOL0     H31094   2.186   4.416  10.534  0.4633  1.5440 -0.4370
  950MOL0     H31095   2.068   4.390  10.673  1.5139 -0.6621  3.7350
  950MOL0     H31096   2.450   4.497  10.846 -0.0270 -1.8763 -0.8851
  950MOL0     H31097   2.244   4.797  10.836  1.1297 -1.4591 -0.1153
  950MOL0     H31098   2.574   4.881  10.994  1.5158 -2.5510 -1.0583
  950MOL0     H31099   2.403   4.804  11.012 -0.4216 -0.6271 -0.5426
  950MOL0     H31100   2.522   4.732  10.921 -0.7717 -0.7781  0.5051
  951MOL0     O31101   9.060  11.485  10.590 -0.3688 -0.2348  0.5779
  951MOL0     C31102   9.096  11.387  10.525  0.2627  1.4586 -0.5132
  951MOL0     O31103   9.009  11.289  10.508 -0.5008 -0.2944  0.2493
  951MOL0     C31104   8.884  11.303  10.445  0.4124 -0.3468  0.3928
  951MOL0     C31105   8.773  11.385  10.477  0.1387  0.2544 -0.3072
  951MOL0     C31106   8.655  11.374  10.408  0.5852  1.0652  0.9935
  951MOL0     C31107   8.645  11.292  10.294 -0.5480  0.2633  0.2932
  951MOL0     O31108   8.528  11.293  10.213 -0.8331  0.2992 -0.5345
  951MOL0     C31109   8.482  11.155  10.206  0.6427 -0.7445  0.2667
  951MOL0     C31110   8.355  11.159  10.127 -0.5917  0.4625 -1.2133
  951MOL0     C31111   8.295  11.015  10.114 -0.8684 -0.8533 -0.5824
  951MOL0     C31112   8.244  10.939  10.235  0.3139  0.4540 -0.5981
  951MOL0     C31113   8.185  10.804  10.209 -0.0715  0.7700 -0.1102
  951MOL0     C31114   8.159  10.737  10.335  0.1451 -0.7542 -0.5609
  951MOL0     C31115   8.114  10.591  10.324 -0.2242 -0.9778 -0.0013
  951MOL0     C31116   8.078  10.526  10.456  0.1591 -0.8468 -0.4987
  951MOL0     N31117   7.940  10.560  10.499 -0.4180  0.6290 -0.9490
  951MOL0     C31118   7.816  10.495  10.467  0.2883 -0.2853 -0.8935
  951MOL0     C31119   7.716  10.555  10.543  0.5366  0.6706 -0.0136
  951MOL0     C31120   7.572  10.516  10.550 -0.2723  0.6569 -0.2792
  951MOL0     C31121   7.480  10.625  10.491 -1.0077 -0.3151 -0.0456
  951MOL0     C31122   7.486  10.610  10.338 -0.5892  0.7379 -0.5867
  951MOL0     C31123   7.426  10.728  10.268  0.2470  0.4106  0.9910
  951MOL0     O31124   7.433  10.718  10.123  0.2450  0.4616 -0.2631
  951MOL0     C31125   7.414  10.594  10.062 -0.0134 -0.6341 -0.6575
  951MOL0     C31126   7.293  10.527  10.070  0.6761  0.1234 -0.5791
  951MOL0     C31127   7.269  10.407  10.010  0.6579 -0.4453  0.4219
  951MOL0     C31128   7.129  10.352  10.022 -0.2502  0.0655  0.4433
  951MOL0     C31129   7.370  10.342   9.938 -0.3685 -0.0266 -0.0856
  951MOL0     C31130   7.359  10.211   9.861 -0.3903 -0.0876 -0.0315
  951MOL0     O31131   7.443  10.204   9.755  0.3324  0.9993 -0.2424
  951MOL0     C31132   7.432  10.106   9.653  0.2849  0.1838 -0.2439
  951MOL0     C31133   7.382   9.977   9.678 -0.3623 -0.6473  0.4860
  951MOL0     C31134   7.379   9.875   9.572  0.1642  0.3151 -0.0224
  951MOL0     C31135   7.412   9.908   9.439  0.4586 -0.0381 -0.5784
  951MOL0     O31136   7.394   9.805   9.344 -0.1885 -0.9386  0.0449
  951MOL0     C31137   7.423   9.844   9.208 -0.4665 -0.1676 -0.4970
  951MOL0     C31138   7.438   9.710   9.143  0.3328 -1.0006 -0.5531
  951MOL0     C31139   7.579   9.649   9.175 -0.8795  0.1122 -0.6441
  951MOL0     C31140   7.576   9.507   9.123 -0.7419 -0.6373 -0.3662
  951MOL0     C31141   7.668   9.412   9.194 -0.3113 -0.5536  0.1117
  951MOL0     C31142   7.677   9.280   9.121  0.1976  1.1367 -0.1083
  951MOL0     C31143   7.766   9.187   9.205 -0.9433 -0.2155 -0.2581
  951MOL0     C31144   7.771   9.044   9.147 -0.7294  1.0971 -0.1506
  951MOL0    Cl31145   7.854   8.950   9.283  0.3355  0.4385 -0.0532
  951MOL0     C31146   7.443  10.030   9.413  0.1441 -1.0936  0.1166
  951MOL0     C31147   7.450  10.136   9.514 -0.6432  0.3209 -0.6610
  951MOL0     O31148   7.277  10.130   9.905  0.7203 -0.3106  0.2614
  951MOL0     C31149   7.493  10.413   9.926  0.9409 -0.4200  0.5410
  951MOL0     C31150   7.516  10.538   9.995  0.5555  0.7824  0.3914
  951MOL0     N31151   7.773  10.661  10.608 -0.5817 -1.0810  0.0600
  951MOL0     N31152   7.907  10.652  10.593  0.4255  0.5656  0.2147
  951MOL0     C31153   8.758  11.217  10.261 -0.9815 -0.1979  0.6127
  951MOL0     C31154   8.875  11.221  10.334 -0.4167 -0.3170 -0.3084
  951MOL0     C31155   9.236  11.360  10.501  0.9053  0.0411  1.0379
  951MOL0     C31156   9.276  11.237  10.447  0.3290  1.3702 -0.2520
  951MOL0     C31157   9.408  11.197  10.441 -0.4423 -0.4314  0.3347
  951MOL0     C31158   9.502  11.269  10.511 -0.3987  0.6924  0.0020
  951MOL0     O31159   9.624  11.227  10.522 -0.7948 -0.0107  0.4841
  951MOL0     C31160   9.701  11.242  10.644  0.4266  0.3157 -0.1822
  951MOL0     C31161   9.850  11.217  10.625  0.8415  0.0207  0.6369
  951MOL0     C31162   9.941  11.211  10.754 -0.2322  0.1069 -0.0147
  951MOL0     C31163  10.089  11.175  10.709  0.8462 -0.3354  0.4252
  951MOL0     C31164  10.174  11.296  10.710  1.1855 -0.5119 -0.7407
  951MOL0     C31165  10.243  11.387  10.742  0.4141 -0.2879 -0.4289
  951MOL0     C31166   9.465  11.388  10.571 -1.0688  0.5095  1.4512
  951MOL0     C31167   9.338  11.438  10.545  0.0670 -0.1744 -0.1880
  951MOL0     C31168   9.317  11.580  10.597  0.5311  0.6127 -0.0529
  951MOL0     H31169   8.788  11.449  10.565 -1.6980 -0.3233  0.4668
  951MOL0     H31170   8.571  11.439  10.431 -0.7147  1.1211 -3.0875
  951MOL0     H31171   8.463  11.111  10.305 -0.4085 -0.7038  0.0933
  951MOL0     H31172   8.555  11.090  10.156  0.5376 -0.6855  0.0363
  951MOL0     H31173   8.279  11.224  10.172  0.3840  1.6921 -1.2832
  951MOL0     H31174   8.367  11.208  10.030 -1.3523  4.8946  0.6471
  951MOL0     H31175   8.214  11.025  10.041 -2.5628  1.9623  1.4964
  951MOL0     H31176   8.379  10.955  10.077  1.5787 -0.1052  3.2079
  951MOL0     H31177   8.325  10.921  10.307 -0.1876 -0.3576 -0.2198
  951MOL0     H31178   8.163  10.994  10.283  1.0922  0.1972  1.1004
  951MOL0     H31179   8.262  10.749  10.155 -0.6778 -1.1140  0.8500
  951MOL0     H31180   8.088  10.814  10.159 -1.2182  0.7983  1.9950
  951MOL0     H31181   8.251  10.728  10.393 -1.5929 -0.8438  2.3316
  951MOL0     H31182   8.083  10.792  10.391 -1.5247 -1.0022 -2.4499
  951MOL0     H31183   8.192  10.532  10.275  1.7959  1.6510 -0.1944
  951MOL0     H31184   8.018  10.589  10.271  0.2503 -0.9574 -0.8702
  951MOL0     H31185   8.086  10.417  10.455  1.8888 -0.8006  0.9288
  951MOL0     H31186   8.146  10.577  10.526  0.6416 -1.0303 -0.8270
  951MOL0     H31187   7.811  10.404  10.408 -1.0372 -0.5336 -0.4111
  951MOL0     H31188   7.545  10.486  10.652  0.3358  2.4797  0.4502
  951MOL0     H31189   7.571  10.421  10.494  1.2229  0.1529  0.4983
  951MOL0     H31190   7.378  10.610  10.527 -0.4253 -2.1117  1.0546
  951MOL0     H31191   7.518  10.720  10.530 -0.0168  1.8432 -5.4949
  951MOL0     H31192   7.584  10.588  10.294 -1.6472  2.0579 -3.9087
  951MOL0     H31193   7.426  10.522  10.312  1.5065 -1.0370  0.2595
  951MOL0     H31194   7.320  10.744  10.291 -0.3809  1.0541 -1.9360
  951MOL0     H31195   7.474  10.818  10.308  0.7222  0.5230  0.1900
  951MOL0     H31196   7.210  10.564  10.130 -0.4261 -3.1316  0.1129
  951MOL0     H31197   7.070  10.442  10.040 -2.0025 -1.0614  0.5596
  951MOL0     H31198   7.114  10.293  10.113 -0.4612  0.1999  0.4948
  951MOL0     H31199   7.078  10.302   9.939  3.1736  1.3501 -2.7272
  951MOL0     H31200   7.361   9.951   9.781  1.9552  0.9712  1.4684
  951MOL0     H31201   7.341   9.776   9.595  1.7093 -1.2950 -3.6968
  951MOL0     H31202   7.356   9.915   9.159  0.3475  1.3281  0.4824
  951MOL0     H31203   7.515   9.901   9.201 -1.1500  0.8830 -1.1259
  951MOL0     H31204   7.368   9.639   9.186  0.0729 -1.2494 -1.3676
  951MOL0     H31205   7.409   9.718   9.038  4.6359 -0.9116 -1.9466
  951MOL0     H31206   7.598   9.656   9.283  0.0640  1.7377 -0.8806
  951MOL0     H31207   7.657   9.705   9.122  2.0458 -1.3202  1.8334
  951MOL0     H31208   7.612   9.501   9.019  1.6878  0.5227  0.3451
  951MOL0     H31209   7.477   9.462   9.134 -0.0930 -1.5737  2.1849
  951MOL0     H31210   7.764   9.463   9.194 -0.4039 -0.3222  1.7061
  951MOL0     H31211   7.637   9.401   9.298 -0.0391  0.0283  0.2559
  951MOL0     H31212   7.707   9.294   9.017 -1.9888  1.6077 -0.7175
  951MOL0     H31213   7.578   9.234   9.127  0.5758  0.3594  0.3230
  951MOL0     H31214   7.732   9.169   9.308 -3.9230  0.1873 -1.0611
  951MOL0     H31215   7.863   9.237   9.216 -0.0424 -1.7195 -1.1083
  951MOL0     H31216   7.836   9.035   9.059 -0.9244 -2.5862 -0.0703
  951MOL0     H31217   7.667   9.013   9.135 -0.8329  0.8122  1.3766
  951MOL0     H31218   7.476  10.074   9.319 -2.6376  0.4896 -0.2411
  951MOL0     H31219   7.493  10.234   9.500 -0.2907  0.5983  1.8077
  951MOL0     H31220   7.570  10.376   9.858  0.7508 -1.7449  1.0140
  951MOL0     H31221   7.613  10.585   9.986  0.6611  0.1526 -4.3473
  951MOL0     H31222   8.756  11.165  10.165  4.0170  1.3304 -0.6754
  951MOL0     H31223   8.956  11.152  10.316 -0.3398 -0.5038  0.7235
  951MOL0     H31224   9.208  11.158  10.417  2.9963 -1.3336  0.3220
  951MOL0     H31225   9.417  11.099  10.396 -3.6598 -1.1399  0.9927
  951MOL0     H31226   9.680  11.341  10.685 -1.9630 -0.3402  0.3825
  951MOL0     H31227   9.667  11.167  10.716 -0.3012  2.2670  1.6266
  951MOL0     H31228   9.877  11.294  10.552 -2.6358  0.5384 -0.2479
  951MOL0     H31229   9.868  11.121  10.575  0.0169 -0.8173  1.8876
  951MOL0     H31230   9.936  11.308  10.806 -2.9640  0.8678 -1.4764
  951MOL0     H31231   9.899  11.143  10.828 -1.2455  3.0255  2.3203
  951MOL0     H31232  10.090  11.145  10.604  4.7585  1.2205 -0.1579
  951MOL0     H31233  10.125  11.094  10.773 -1.0841  0.2984  2.4491
  951MOL0     H31234  10.305  11.467  10.776 -1.1324  1.0393 -0.5816
  951MOL0     H31235   9.536  11.457  10.615  1.4271 -0.4075 -0.8793
  951MOL0     H31236   9.258  11.576  10.689 -0.8414  1.0134 -0.8873
  951MOL0     H31237   9.409  11.639  10.605  0.2457  1.2129 -1.0604
  951MOL0     H31238   9.255  11.629  10.522 -0.9089 -1.2951 -0.1885
  952MOL0     O31239   9.800  11.135  11.047 -0.3728  1.1483 -0.7983
  952MOL0     C31240   9.882  11.216  11.093  1.2052 -0.6536  0.0812
  952MOL0     O31241   9.864  11.354  11.083 -0.1401  0.4181 -0.2121
  952MOL0     C31242   9.765  11.428  11.019 -0.5096  0.9083  0.1569
  952MOL0     C31243   9.639  11.375  10.969  0.3567  0.2799 -0.3984
  952MOL0     C31244   9.548  11.465  10.918  0.2048 -0.4395  0.1603
  952MOL0     C31245   9.568  11.601  10.908 -0.4827 -0.4206  0.2463
  952MOL0     O31246   9.470  11.672  10.847  0.0232 -0.2704  0.6237
  952MOL0     C31247   9.465  11.822  10.860  0.8973 -0.1185  0.2691
  952MOL0     C31248   9.382  11.863  10.989 -0.6379 -0.7713  0.3179
  952MOL0     C31249   9.232  11.813  10.987  0.0139  0.4174 -0.5985
  952MOL0     C31250   9.142  11.879  10.885 -0.0430  0.2729 -0.4762
  952MOL0     C31251   9.002  11.807  10.892  0.2163 -0.1515  0.6448
  952MOL0     C31252   8.902  11.867  10.797  0.3024 -0.8273 -0.7578
  952MOL0     C31253   8.756  11.833  10.835  0.6770  0.1880 -0.2590
  952MOL0     C31254   8.719  11.693  10.815 -0.1974  1.0882 -0.9504
  952MOL0     N31255   8.581  11.663  10.848 -0.5275 -0.6114  0.1928
  952MOL0     C31256   8.523  11.546  10.813  0.0492 -0.6859  0.0627
  952MOL0     C31257   8.395  11.551  10.861 -0.3776 -0.2316 -0.2005
  952MOL0     C31258   8.291  11.447  10.844 -0.2055  0.0299  0.1451
  952MOL0     C31259   8.159  11.486  10.757 -1.1955  0.2357 -0.9258
  952MOL0     C31260   8.207  11.510  10.601  0.2632 -1.0147  0.8460
  952MOL0     C31261   8.228  11.399  10.498 -0.7751 -0.3046 -0.0919
  952MOL0     O31262   8.110  11.322  10.473 -0.3860 -0.2682  0.4040
  952MOL0     C31263   8.004  11.374  10.419  0.7107  0.6067 -0.0014
  952MOL0     C31264   7.989  11.404  10.283 -0.7113 -0.4745 -1.1026
  952MOL0     C31265   7.876  11.465  10.241  0.7045  0.4207  1.1382
  952MOL0     C31266   7.856  11.483  10.090  0.5494  0.2783 -0.3532
  952MOL0     C31267   7.773  11.496  10.329  0.3656 -0.0867  0.3052
  952MOL0     C31268   7.638  11.542  10.287 -0.6003 -0.7395  0.1991
  952MOL0     O31269   7.641  11.646  10.187 -0.6802  0.4842 -0.7732
  952MOL0     C31270   7.530  11.689  10.130  1.0034  0.1888  0.3132
  952MOL0     C31271   7.566  11.780  10.028 -0.0046  0.4742  0.2776
  952MOL0     C31272   7.475  11.817   9.934 -0.4312 -0.7599  0.9245
  952MOL0     C31273   7.342  11.775   9.934 -0.3348 -0.0397 -0.1126
  952MOL0     O31274   7.254  11.812   9.842  0.2304 -0.4091 -0.3200
  952MOL0     C31275   7.290  11.883   9.731  0.5515 -0.2525 -1.0412
  952MOL0     C31276   7.348  11.785   9.612 -0.6149  0.9655 -0.7769
  952MOL0     C31277   7.345  11.864   9.493  1.0204 -0.0014  0.6560
  952MOL0     C31278   7.476  11.936   9.464 -0.5982  0.8973 -0.9014
  952MOL0     C31279   7.462  12.095   9.469  0.1466  0.0961 -0.0042
  952MOL0     C31280   7.601  12.162   9.451  0.1708  0.7891 -0.5595
  952MOL0     C31281   7.651  12.162   9.315  0.2124 -0.4319 -0.1120
  952MOL0     C31282   7.631  12.297   9.241 -0.6653 -0.4477 -0.9064
  952MOL0    Cl31283   7.459  12.347   9.241 -0.2051  0.0190  0.0316
  952MOL0     C31284   7.298  11.699  10.040 -0.0218  0.0305  0.4013
  952MOL0     C31285   7.397  11.647  10.131  0.4712  0.2124 -0.0943
  952MOL0     O31286   7.546  11.483  10.326 -0.2113  0.1668 -0.4062
  952MOL0     C31287   7.787  11.473  10.464 -0.3741  0.2691  0.0419
  952MOL0     C31288   7.897  11.404  10.505  0.0725  0.2513 -0.0395
  952MOL0     N31289   8.389  11.670  10.934 -0.8110  0.3741 -0.4787
  952MOL0     N31290   8.499  11.742  10.924 -0.6544 -0.5395 -0.1836
  952MOL0     C31291   9.691  11.660  10.966 -0.6454 -0.7353  0.2739
  952MOL0     C31292   9.786  11.570  11.021  0.2329  0.2486 -0.9364
  952MOL0     C31293   9.998  11.154  11.152  0.5516 -0.2231 -0.3714
  952MOL0     C31294   9.993  11.027  11.208  0.1625  0.3880  0.7922
  952MOL0     C31295  10.097  10.952  11.256 -0.1824  0.1272  0.1266
  952MOL0     C31296  10.218  11.023  11.269  0.1632  0.2185  1.0694
  952MOL0     O31297  10.314  10.939  11.328  0.0031  0.2868  0.4794
  952MOL0     C31298  10.457  10.982  11.325  0.0363  1.0767 -1.0137
  952MOL0     C31299  10.520  11.044  11.450  0.0223 -0.0481 -0.1022
  952MOL0     C31300  10.673  11.023  11.456 -0.0787 -0.1974  0.2307
  952MOL0     C31301  10.727  11.084  11.582 -0.0594 -0.7962 -0.4450
  952MOL0     C31302  10.763  11.227  11.569  0.1235 -0.7468  0.0096
  952MOL0     C31303  10.796  11.342  11.540  0.0305 -0.0176  0.5285
  952MOL0     C31304  10.231  11.162  11.229  0.9355 -0.4752 -0.3354
  952MOL0     C31305  10.123  11.223  11.163 -0.7933 -0.1569 -0.6219
  952MOL0     C31306  10.163  11.352  11.089  0.5355 -0.0248  0.6929
  952MOL0     H31307   9.609  11.273  10.987  0.0931  0.8752  3.5309
  952MOL0     H31308   9.450  11.431  10.887 -0.5300  0.5286  1.3518
  952MOL0     H31309   9.411  11.857  10.771  0.4336  5.3038  2.2894
  952MOL0     H31310   9.565  11.866  10.852  0.3526  0.9650 -0.9928
  952MOL0     H31311   9.421  11.823  11.084  0.0559  0.5013  0.5961
  952MOL0     H31312   9.391  11.971  11.008  4.5425 -1.2599  2.3970
  952MOL0     H31313   9.238  11.708  10.960 -2.1374  0.7159 -2.5257
  952MOL0     H31314   9.189  11.812  11.088  0.3215 -1.4815 -0.4512
  952MOL0     H31315   9.132  11.987  10.905  1.9927 -0.1873  4.9206
  952MOL0     H31316   9.198  11.859  10.793  1.6068  0.1756  0.4903
  952MOL0     H31317   8.961  11.791  10.992 -1.6149 -1.2635 -0.2310
  952MOL0     H31318   9.020  11.712  10.840  3.1761  0.7224 -0.1388
  952MOL0     H31319   8.898  11.977  10.798 -0.7008 -0.8422 -1.8893
  952MOL0     H31320   8.907  11.833  10.693 -4.7280 -2.5828 -0.7205
  952MOL0     H31321   8.680  11.895  10.786 -2.8503 -0.4217  3.9434
  952MOL0     H31322   8.740  11.859  10.940 -1.5676 -0.0858 -0.4852
  952MOL0     H31323   8.733  11.672  10.708  2.4942  3.2356 -1.1239
  952MOL0     H31324   8.789  11.635  10.876  0.0949 -0.9560 -3.0947
  952MOL0     H31325   8.563  11.472  10.744  3.9967  2.2710 -1.1909
  952MOL0     H31326   8.252  11.420  10.943 -2.0024 -1.3665 -0.8801
  952MOL0     H31327   8.341  11.355  10.810  1.7508  0.8991  0.5418
  952MOL0     H31328   8.086  11.405  10.765 -1.5215  0.1270 -3.8618
  952MOL0     H31329   8.116  11.579  10.795 -2.4688 -0.2211 -1.1633
  952MOL0     H31330   8.145  11.585  10.550  1.5662 -1.7112 -1.9366
  952MOL0     H31331   8.305  11.555  10.617 -0.2805 -0.9167  4.8949
  952MOL0     H31332   8.283  11.432  10.410 -1.1165 -2.2591 -1.0962
  952MOL0     H31333   8.294  11.330  10.551  3.6654  2.7750 -1.0686
  952MOL0     H31334   8.071  11.394  10.213 -0.3744  3.0371 -1.4087
  952MOL0     H31335   7.863  11.591  10.075 -0.6190  0.9805  3.1646
  952MOL0     H31336   7.761  11.438  10.059  0.7248 -0.5165  0.2439
  952MOL0     H31337   7.934  11.435  10.030 -2.1045 -2.7598 -1.6350
  952MOL0     H31338   7.672  11.805  10.024 -0.1825  1.1911 -0.2459
  952MOL0     H31339   7.526  11.874   9.858 -0.2242  1.1056  2.3871
  952MOL0     H31340   7.201  11.942   9.709  0.2596 -1.0944 -2.2013
  952MOL0     H31341   7.368  11.955   9.754 -0.9688  0.3614  2.9815
  952MOL0     H31342   7.447  11.754   9.647 -0.3966 -0.8321 -2.8001
  952MOL0     H31343   7.298  11.688   9.602  0.1500  0.8079 -4.1580
  952MOL0     H31344   7.265  11.938   9.490  1.9084  0.9555  0.1478
  952MOL0     H31345   7.343  11.802   9.403  1.9767  1.2448 -0.2522
  952MOL0     H31346   7.511  11.902   9.366  0.0185 -0.7358 -0.1655
  952MOL0     H31347   7.554  11.901   9.533  0.4861  0.7194 -2.1702
  952MOL0     H31348   7.397  12.117   9.384 -0.4687  2.1925  0.9480
  952MOL0     H31349   7.418  12.147   9.555 -2.0266 -1.7640  0.0865
  952MOL0     H31350   7.668  12.099   9.510 -2.5592 -1.9867 -0.1608
  952MOL0     H31351   7.582  12.255   9.505 -1.5856 -1.4808  3.0450
  952MOL0     H31352   7.586  12.099   9.254 -2.8626 -0.1253  2.6166
  952MOL0     H31353   7.755  12.131   9.330 -0.2010 -0.7286  2.6653
  952MOL0     H31354   7.656  12.278   9.136 -1.0563  1.2852 -1.3457
  952MOL0     H31355   7.699  12.375   9.277 -2.3183  0.1459  1.1113
  952MOL0     H31356   7.200  11.652  10.035 -1.0979  2.1549  0.3493
  952MOL0     H31357   7.365  11.579  10.209  0.8342  1.8522  1.5540
  952MOL0     H31358   7.700  11.496  10.523 -0.8301 -0.9451 -0.1297
  952MOL0     H31359   7.908  11.362  10.605 -2.6825  1.1265  0.7204
  952MOL0     H31360   9.722  11.764  10.964  1.3735 -1.3010 -0.1207
  952MOL0     H31361   9.883  11.613  11.045  1.9527 -1.5860 -3.9582
  952MOL0     H31362   9.907  10.960  11.202  2.2394 -2.4034 -0.2321
  952MOL0     H31363  10.080  10.852  11.295  2.4125 -0.7903 -0.8945
  952MOL0     H31364  10.518  10.894  11.300 -3.0073 -1.5238  0.0299
  952MOL0     H31365  10.472  11.051  11.242 -0.9909 -0.1449 -2.2705
  952MOL0     H31366  10.484  10.999  11.543  1.1811 -0.9584 -0.0697
  952MOL0     H31367  10.493  11.149  11.452  0.1337 -0.0050 -0.6704
  952MOL0     H31368  10.696  10.917  11.448  2.2863  0.3972 -3.4330
  952MOL0     H31369  10.723  11.082  11.378 -1.8584  0.7266 -0.2562
  952MOL0     H31370  10.817  11.028  11.608  0.5890  1.1244  1.8107
  952MOL0     H31371  10.653  11.064  11.660  1.5360 -0.9537  1.0761
  952MOL0     H31372  10.800  11.440  11.497 -2.5384 -1.0322 -2.4311
  952MOL0     H31373  10.322  11.214  11.256  1.5117 -2.8353  3.0142
  952MOL0     H31374  10.272  11.353  11.100  0.6351  0.1118 -0.2297
  952MOL0     H31375  10.128  11.355  10.986 -1.9093  0.5072  1.4798
  952MOL0     H31376  10.119  11.441  11.134  1.8218  1.4166 -0.7690
  953MOL0     O31377   0.801   5.131   9.828 -0.4448  0.2939 -0.1830
  953MOL0     C31378   0.908   5.149   9.775  0.0365  0.2100  0.3851
  953MOL0     O31379   1.013   5.223   9.831 -0.2342  0.3128 -0.0112
  953MOL0     C31380   0.982   5.314   9.928 -0.0423 -1.3203  0.9686
  953MOL0     C31381   1.003   5.454   9.898  0.3127  0.7453  0.2323
  953MOL0     C31382   0.996   5.545  10.004 -1.0631  0.2936 -0.2271
  953MOL0     C31383   0.979   5.503  10.140 -0.1507 -0.1569 -0.2225
  953MOL0     O31384   0.966   5.589  10.247  0.0170  0.0561  0.6175
  953MOL0     C31385   1.014   5.728  10.235  0.3226  0.3051 -0.1262
  953MOL0     C31386   0.959   5.804  10.357  0.0485  1.1589  1.1135
  953MOL0     C31387   1.051   5.918  10.379  0.6484 -0.6509  0.9440
  953MOL0     C31388   0.999   6.008  10.495  0.4754  0.0370  0.2089
  953MOL0     C31389   1.032   5.948  10.634  0.4867  0.1123  0.5732
  953MOL0     C31390   1.022   6.039  10.753  0.0019  0.6132 -0.8232
  953MOL0     C31391   0.877   6.106  10.736 -0.1033  0.1859 -1.6429
  953MOL0     C31392   0.850   6.189  10.856  0.1864 -0.0160 -0.2484
  953MOL0     N31393   0.802   6.100  10.959 -0.4967 -1.3481 -0.0143
  953MOL0     C31394   0.877   6.035  11.051 -0.1165 -1.8537 -0.0282
  953MOL0     C31395   0.792   5.958  11.125  0.4972 -0.6054  0.6196
  953MOL0     C31396   0.811   5.879  11.253  0.7132  0.6546  0.2221
  953MOL0     C31397   0.930   5.906  11.340  0.0944 -0.5449 -1.0236
  953MOL0     C31398   0.925   5.831  11.479  0.0228 -0.0464 -0.1068
  953MOL0     C31399   0.803   5.889  11.561 -0.3852  0.2008 -0.2124
  953MOL0     O31400   0.691   5.798  11.561 -0.3128 -0.5931 -0.2132
  953MOL0     C31401   0.652   5.764  11.690 -1.2773 -0.3293 -0.1695
  953MOL0     C31402   0.732   5.667  11.751  0.0898  0.9438 -0.0530
  953MOL0     C31403   0.703   5.621  11.878 -0.4783 -0.3293  0.0553
  953MOL0     C31404   0.799   5.523  11.945  0.5840 -0.5592  0.1790
  953MOL0     C31405   0.595   5.671  11.951  0.2211  0.1510 -0.5016
  953MOL0     C31406   0.559   5.615  12.080  0.0824 -0.3131  0.0696
  953MOL0     O31407   0.562   5.477  12.096  0.8870 -0.4108 -0.2977
  953MOL0     C31408   0.520   5.435  12.218 -0.4968  0.7365  0.2472
  953MOL0     C31409   0.609   5.443  12.320  0.8416 -0.6702 -0.3873
  953MOL0     C31410   0.566   5.391  12.447 -0.3667  0.6360 -0.2690
  953MOL0     C31411   0.449   5.319  12.473  0.0823 -1.2437  0.6947
  953MOL0     O31412   0.420   5.286  12.605 -0.0398  0.3969  0.6641
  953MOL0     C31413   0.283   5.248  12.640  0.1719 -0.3536 -0.0421
  953MOL0     C31414   0.301   5.221  12.790 -1.1312 -0.2804 -0.3295
  953MOL0     C31415   0.175   5.166  12.867  0.2968 -0.9063  0.0034
  953MOL0     C31416   0.107   5.278  12.950 -0.4437  0.2885  0.7960
  953MOL0     C31417  -0.028   5.250  13.010 -0.2378 -0.0295 -0.5491
  953MOL0     C31418  -0.034   5.135  13.113  0.3096 -0.2934 -0.3194
  953MOL0     C31419  -0.185   5.102  13.150  0.5963  0.5062 -0.2082
  953MOL0     C31420  -0.184   5.013  13.276  0.5267  0.0657 -0.2273
  953MOL0    Cl31421  -0.318   4.899  13.283 -0.2647  0.0031 -0.8365
  953MOL0     C31422   0.372   5.307  12.367  0.8253 -0.1788  0.4603
  953MOL0     C31423   0.405   5.351  12.236 -0.7198 -0.2182 -0.1560
  953MOL0     O31424   0.515   5.692  12.161 -0.6685 -0.1151  0.3083
  953MOL0     C31425   0.503   5.762  11.885 -0.0034  0.1457 -0.0738
  953MOL0     C31426   0.535   5.803  11.748 -0.1572  0.6544 -0.5936
  953MOL0     N31427   0.665   5.980  11.083  0.1822  0.0995 -0.1831
  953MOL0     N31428   0.673   6.053  10.978  0.7765 -0.4462  0.5237
  953MOL0     C31429   0.958   5.365  10.165 -0.4733  0.4276  0.2117
  953MOL0     C31430   0.962   5.273  10.059  0.6207 -0.1756 -0.6465
  953MOL0     C31431   0.934   5.080   9.639  0.2996  0.8570 -0.2687
  953MOL0     C31432   1.068   5.076   9.599 -0.0340  0.9574 -0.1171
  953MOL0     C31433   1.109   5.028   9.472  0.2986 -0.7064  1.4081
  953MOL0     C31434   1.009   4.959   9.393  0.0654  0.9547  1.0383
  953MOL0     O31435   1.027   4.910   9.268 -0.2775 -0.1342  0.0495
  953MOL0     C31436   1.159   4.845   9.256  0.7639  0.2740  0.7543
  953MOL0     C31437   1.151   4.714   9.174  0.2852 -0.1034 -0.2709
  953MOL0     C31438   1.285   4.657   9.144 -0.8793 -0.5711  0.4931
  953MOL0     C31439   1.402   4.750   9.117  0.5132  0.1425  0.1159
  953MOL0     C31440   1.381   4.827   8.995  0.2074 -0.4678  0.5988
  953MOL0     C31441   1.398   4.889   8.894 -0.6734  0.2009  0.9011
  953MOL0     C31442   0.877   4.947   9.444 -0.5076 -0.3356 -0.2126
  953MOL0     C31443   0.842   5.017   9.556  0.8239  0.3173 -0.7579
  953MOL0     C31444   0.693   5.025   9.582 -0.4092 -0.5566  0.3983
  953MOL0     H31445   1.020   5.486   9.795 -0.7055 -1.3790 -0.6580
  953MOL0     H31446   1.016   5.648   9.976  0.9793 -0.3041 -1.1051
  953MOL0     H31447   0.970   5.766  10.142  1.8061 -1.2017 -1.4890
  953MOL0     H31448   1.123   5.734  10.234  0.4766 -0.5782  2.6564
  953MOL0     H31449   0.859   5.840  10.334 -0.9955 -1.5966  0.9462
  953MOL0     H31450   0.956   5.733  10.440 -0.8026  0.7735  0.7548
  953MOL0     H31451   1.149   5.881  10.411  1.7386  1.5582  0.3762
  953MOL0     H31452   1.066   5.977  10.288 -1.1976 -0.9245  0.4291
  953MOL0     H31453   1.056   6.101  10.502  0.1278  0.1436  2.3743
  953MOL0     H31454   0.891   6.027  10.497  0.8442  2.4981  0.3900
  953MOL0     H31455   1.137   5.917  10.640  0.8239  1.2952  1.0075
  953MOL0     H31456   0.972   5.858  10.648  1.5067 -0.3041  2.6396
  953MOL0     H31457   1.039   5.982  10.844  0.7714 -2.4310 -2.7171
  953MOL0     H31458   1.089   6.125  10.743  0.2318  0.7404  1.4125
  953MOL0     H31459   0.798   6.032  10.717 -1.6555  1.7826 -1.7115
  953MOL0     H31460   0.877   6.180  10.655  0.2429  1.7927 -0.2225
  953MOL0     H31461   0.940   6.245  10.883 -0.2623  0.7270 -0.2932
  953MOL0     H31462   0.774   6.260  10.824  0.4137  0.2208 -0.2595
  953MOL0     H31463   0.981   6.049  11.077 -0.6962  0.2858  1.4129
  953MOL0     H31464   0.812   5.773  11.228  1.4861  0.8807 -0.7542
  953MOL0     H31465   0.722   5.912  11.309  2.1175  1.7829  1.8996
  953MOL0     H31466   1.030   5.873  11.309  1.2342  0.1545  1.5417
  953MOL0     H31467   0.929   6.014  11.360 -1.8513 -0.4459 -1.5154
  953MOL0     H31468   0.922   5.723  11.461 -0.6852  0.1360 -1.2137
  953MOL0     H31469   1.016   5.842  11.538 -0.0248 -0.5552  0.0698
  953MOL0     H31470   0.845   5.912  11.659 -1.6455  1.2573  0.1093
  953MOL0     H31471   0.767   5.979  11.511 -0.5424  0.0300 -0.4107
  953MOL0     H31472   0.819   5.640  11.692  0.3826  0.1899  0.6883
  953MOL0     H31473   0.867   5.478  11.872 -0.1909 -0.3330 -0.7095
  953MOL0     H31474   0.736   5.437  11.971 -2.8801  1.3302 -1.3610
  953MOL0     H31475   0.847   5.564  12.034 -2.2360 -1.1227  2.1189
  953MOL0     H31476   0.715   5.463  12.311  1.2840 -2.4302  0.4631
  953MOL0     H31477   0.635   5.391  12.530 -0.3365  2.1049 -0.2680
  953MOL0     H31478   0.216   5.333  12.625  1.4945  0.2832 -3.0708
  953MOL0     H31479   0.231   5.164  12.593 -2.4905 -0.1127  2.1807
  953MOL0     H31480   0.381   5.147  12.805 -0.2212  0.4833 -1.2887
  953MOL0     H31481   0.340   5.317  12.826 -0.5828  0.4264 -2.6660
  953MOL0     H31482   0.194   5.084  12.938  0.4656  0.5808  1.7502
  953MOL0     H31483   0.095   5.132  12.800 -1.7811 -0.4415  2.1261
  953MOL0     H31484   0.094   5.366  12.887  0.1078 -0.6773 -0.7280
  953MOL0     H31485   0.166   5.312  13.036  1.1496  1.7501 -0.7958
  953MOL0     H31486  -0.080   5.335  13.056 -0.3906 -0.3542 -0.1106
  953MOL0     H31487  -0.090   5.203  12.933  1.8509  0.4239 -2.5856
  953MOL0     H31488   0.013   5.175  13.204  3.0017  1.0233 -2.1668
  953MOL0     H31489   0.030   5.051  13.085 -0.5944 -2.5660  3.6669
  953MOL0     H31490  -0.240   5.051  13.070 -0.9591  0.3947  0.8939
  953MOL0     H31491  -0.234   5.199  13.159 -1.2215 -0.0526 -2.7978
  953MOL0     H31492  -0.183   5.066  13.371 -2.4606  2.1701 -1.2267
  953MOL0     H31493  -0.098   4.945  13.278 -1.6575 -3.4719 -5.0622
  953MOL0     H31494   0.276   5.258  12.376 -0.2036  1.8404  1.2211
  953MOL0     H31495   0.328   5.346  12.159 -2.2062  0.8328  1.1846
  953MOL0     H31496   0.413   5.803  11.930 -1.3223 -0.9843 -1.5588
  953MOL0     H31497   0.472   5.879  11.702 -1.8322  0.3955  1.1470
  953MOL0     H31498   0.946   5.342  10.270  3.6675  0.1383  0.7873
  953MOL0     H31499   0.967   5.166  10.078  0.7149  0.0358  0.5764
  953MOL0     H31500   1.144   5.122   9.661  0.1800  1.3908 -0.6846
  953MOL0     H31501   1.199   5.054   9.419 -0.1402 -0.4564  0.7811
  953MOL0     H31502   1.231   4.914   9.210  1.7466 -1.8246 -1.0232
  953MOL0     H31503   1.200   4.806   9.351  1.0452 -3.0394 -0.5864
  953MOL0     H31504   1.087   4.727   9.085 -0.9991  1.9685  0.8598
  953MOL0     H31505   1.095   4.645   9.236  0.5215 -1.0514 -1.0851
  953MOL0     H31506   1.305   4.594   9.232 -2.0039 -0.2019  1.0426
  953MOL0     H31507   1.281   4.579   9.067  1.0876 -2.2736  2.0080
  953MOL0     H31508   1.485   4.684   9.091 -0.8945 -1.1633 -1.2528
  953MOL0     H31509   1.430   4.810   9.205  1.6784 -0.6460  0.2978
  953MOL0     H31510   1.426   4.940   8.804  0.9897 -0.3316  1.0929
  953MOL0     H31511   0.809   4.899   9.375  0.7531 -2.3745 -0.1105
  953MOL0     H31512   0.656   4.957   9.659 -0.4236 -0.2151  0.6940
  953MOL0     H31513   0.668   5.128   9.613  0.8572 -0.0540 -0.2057
  953MOL0     H31514   0.635   5.004   9.491 -1.0183  2.4703 -0.0554
  954MOL0     O31515   8.950   9.988   4.692 -0.5521  0.1502  0.2048
  954MOL0     C31516   8.875   9.997   4.596  0.9825 -1.3141  0.3959
  954MOL0     O31517   8.734   9.982   4.598  0.0733  0.3026 -0.0093
  954MOL0     C31518   8.665   9.916   4.701  0.2870 -0.2936 -0.1705
  954MOL0     C31519   8.718   9.888   4.822  0.1910  0.2392 -0.6611
  954MOL0     C31520   8.632   9.821   4.914  1.2669 -0.1227 -0.6227
  954MOL0     C31521   8.513   9.761   4.874  0.3958 -0.9440  0.5670
  954MOL0     O31522   8.437   9.684   4.959 -0.6812  0.5366 -0.3445
  954MOL0     C31523   8.433   9.701   5.095 -0.2896 -0.3225  0.5214
  954MOL0     C31524   8.401   9.842   5.140  0.7695 -0.6275 -0.7125
  954MOL0     C31525   8.268   9.887   5.102  0.9879 -0.5813 -0.8197
  954MOL0     C31526   8.219   9.996   5.205 -0.2886  0.2086 -0.8834
  954MOL0     C31527   8.295  10.129   5.225 -0.8163  0.5971  0.2334
  954MOL0     C31528   8.340  10.197   5.094  0.2530  0.2276 -0.1997
  954MOL0     C31529   8.233  10.220   4.981  0.3358 -0.7407 -0.5124
  954MOL0     C31530   8.290  10.242   4.846 -0.0400 -0.7958  1.1268
  954MOL0     N31531   8.402  10.338   4.833  0.4977  0.4227  0.8660
  954MOL0     C31532   8.535  10.286   4.821  0.8458 -0.2794  0.7236
  954MOL0     C31533   8.607  10.396   4.835 -1.2592 -1.0945 -0.0312
  954MOL0     C31534   8.761  10.392   4.846  0.1410 -0.5202 -0.0430
  954MOL0     C31535   8.819  10.462   4.964  0.9960 -0.8262  0.2165
  954MOL0     C31536   8.972  10.477   4.956 -0.2548  0.9726  0.4193
  954MOL0     C31537   9.043  10.538   5.090 -0.2773  0.1136  0.3478
  954MOL0     O31538   9.160  10.616   5.061 -0.1582 -0.4509  0.1302
  954MOL0     C31539   9.145  10.748   5.008 -0.4646  0.2587  0.0384
  954MOL0     C31540   9.034  10.798   4.955  0.8081 -0.1565 -0.6881
  954MOL0     C31541   9.017  10.929   4.915  0.5375  0.1177 -0.1051
  954MOL0     C31542   8.900  10.961   4.832  0.2449  0.2076 -0.1299
  954MOL0     C31543   9.129  11.015   4.929  0.4313  0.0212 -0.0243
  954MOL0     C31544   9.142  11.167   4.897  0.1898 -1.2863 -0.5213
  954MOL0     O31545   9.264  11.217   4.869 -0.2726 -0.3289  0.7129
  954MOL0     C31546   9.284  11.356   4.855 -0.4778  0.8842  0.7621
  954MOL0     C31547   9.284  11.452   4.962  0.0717 -0.1872  0.4192
  954MOL0     C31548   9.301  11.585   4.934 -0.3040 -0.0879 -0.3979
  954MOL0     C31549   9.330  11.643   4.815 -0.2703  0.1305  0.1576
  954MOL0     O31550   9.349  11.781   4.817 -1.1153  0.0582 -0.2130
  954MOL0     C31551   9.383  11.841   4.687  0.4943 -0.2471  0.1636
  954MOL0     C31552   9.471  11.978   4.706 -0.9005  0.4667 -0.0765
  954MOL0     C31553   9.476  12.050   4.571  0.2176  0.0032 -0.1599
  954MOL0     C31554   9.519  11.961   4.455 -0.0536 -0.6250 -0.2075
  954MOL0     C31555   9.609  12.043   4.362  0.2408  0.0405  0.4579
  954MOL0     C31556   9.669  11.943   4.257 -0.1559 -0.7246 -0.1524
  954MOL0     C31557   9.750  12.011   4.139 -0.4056 -0.2910 -0.5285
  954MOL0     C31558   9.883  12.080   4.192 -0.3372  0.1551  0.6212
  954MOL0    Cl31559   9.963  12.171   4.076 -0.0797 -0.0700  0.7858
  954MOL0     C31560   9.326  11.551   4.698  0.3781 -0.3142  0.7091
  954MOL0     C31561   9.302  11.406   4.724 -0.6853 -0.0986  0.1538
  954MOL0     O31562   9.038  11.232   4.898 -0.3081  0.6168  0.1288
  954MOL0     C31563   9.252  10.963   4.976 -0.2582  0.2727  0.0358
  954MOL0     C31564   9.258  10.825   5.021  0.4280  0.6714  0.4169
  954MOL0     N31565   8.527  10.506   4.849  0.8624  0.1027 -0.0066
  954MOL0     N31566   8.401  10.473   4.854  0.4689 -0.7566 -0.7035
  954MOL0     C31567   8.468   9.783   4.749 -0.0222 -0.0879  0.4970
  954MOL0     C31568   8.543   9.859   4.654  0.5386  0.8078 -1.1588
  954MOL0     C31569   8.931  10.059   4.477 -0.3798  0.2844 -0.1423
  954MOL0     C31570   8.834  10.131   4.392 -0.5146 -0.4713 -1.1726
  954MOL0     C31571   8.883  10.195   4.282  0.4972  0.1999  0.3444
  954MOL0     C31572   9.011  10.178   4.243 -0.2868  0.1732 -0.7123
  954MOL0     O31573   9.045  10.215   4.120  0.8443 -0.2012  0.5826
  954MOL0     C31574   9.179  10.259   4.092 -0.0895 -0.8140 -1.0115
  954MOL0     C31575   9.180  10.371   3.988 -0.2977 -0.1443 -0.6333
  954MOL0     C31576   9.098  10.487   4.045 -0.4804 -0.8032  0.5190
  954MOL0     C31577   9.136  10.623   3.973 -0.3543  0.6626  0.7878
  954MOL0     C31578   9.114  10.740   4.061 -0.1521 -0.1253  0.5961
  954MOL0     C31579   9.105  10.844   4.130 -1.0194  0.4255 -0.9142
  954MOL0     C31580   9.103  10.108   4.317 -1.0170  0.0749 -0.2060
  954MOL0     C31581   9.070  10.059   4.438 -0.4039 -0.0045 -0.8703
  954MOL0     C31582   9.177  10.007   4.539 -0.4534  0.3734  0.5053
  954MOL0     H31583   8.808   9.931   4.866  0.2517 -0.0548 -0.5031
  954MOL0     H31584   8.667   9.807   5.015 -0.0168 -0.7946 -0.2571
  954MOL0     H31585   8.535   9.687   5.133  0.8615  0.6787 -1.9930
  954MOL0     H31586   8.365   9.634   5.149 -0.2865  0.8207  2.0132
  954MOL0     H31587   8.398   9.844   5.249 -0.0234 -1.3411 -0.7148
  954MOL0     H31588   8.475   9.915   5.107  4.0995 -3.2174  0.3248
  954MOL0     H31589   8.275   9.913   4.996  3.0069 -0.9642 -0.8202
  954MOL0     H31590   8.190   9.811   5.095 -1.7025  1.8547  0.7076
  954MOL0     H31591   8.116  10.025   5.179 -1.0781 -0.6766  1.0648
  954MOL0     H31592   8.215   9.945   5.302 -3.0455  0.6544 -0.6727
  954MOL0     H31593   8.379  10.103   5.290  0.4872 -5.5155 -3.1963
  954MOL0     H31594   8.227  10.199   5.275 -4.3510 -2.0465 -0.4678
  954MOL0     H31595   8.390  10.287   5.131 -2.0802  1.4055  0.2966
  954MOL0     H31596   8.407  10.119   5.056 -1.1868  0.7222 -4.2154
  954MOL0     H31597   8.165  10.300   5.013  2.2905  1.2766 -1.1597
  954MOL0     H31598   8.176  10.127   4.972 -0.3280 -0.5383  1.1685
  954MOL0     H31599   8.322  10.144   4.809 -1.1459 -0.2875 -1.3772
  954MOL0     H31600   8.210  10.280   4.782  1.3756  0.3853 -0.0153
  954MOL0     H31601   8.568  10.183   4.829  0.1031 -0.6739 -0.9004
  954MOL0     H31602   8.805  10.434   4.755  1.8800  1.3469  1.5622
  954MOL0     H31603   8.793  10.288   4.857  4.3985  0.8067  2.5862
  954MOL0     H31604   8.772  10.560   4.974  1.3274 -0.6088 -0.2875
  954MOL0     H31605   8.798  10.398   5.050  1.2970  0.7249  1.5131
  954MOL0     H31606   9.010  10.375   4.944 -0.3715  1.0504 -0.7064
  954MOL0     H31607   9.001  10.518   4.859 -1.8759 -0.1580 -0.6224
  954MOL0     H31608   8.964  10.593   5.142  1.1406  0.8950  1.7714
  954MOL0     H31609   9.073  10.464   5.165  0.1118  1.7269  1.8427
  954MOL0     H31610   8.943  10.741   4.941 -0.3465  1.6736 -0.9838
  954MOL0     H31611   8.817  10.900   4.867  2.4541  0.0801  6.3199
  954MOL0     H31612   8.916  10.958   4.724 -0.5299  0.3998 -0.2538
  954MOL0     H31613   8.875  11.062   4.866 -2.3127 -0.2064 -0.5898
  954MOL0     H31614   9.280  11.415   5.064 -1.2652 -4.1064 -0.8762
  954MOL0     H31615   9.293  11.648   5.022  1.8346 -0.1479 -0.1089
  954MOL0     H31616   9.454  11.771   4.644  0.6090 -3.5181  4.8582
  954MOL0     H31617   9.294  11.868   4.629 -1.3300 -0.6642  2.5864
  954MOL0     H31618   9.413  12.036   4.778 -1.0426  1.1100 -0.6955
  954MOL0     H31619   9.571  11.949   4.741 -0.8919  1.5473  0.8326
  954MOL0     H31620   9.549  12.131   4.583  1.0752 -0.4912 -1.7617
  954MOL0     H31621   9.388  12.105   4.538  0.8510  1.3345  0.2509
  954MOL0     H31622   9.445  11.907   4.396 -1.7249 -0.6033  1.7584
  954MOL0     H31623   9.600  11.896   4.489  3.1042  1.5314 -2.9446
  954MOL0     H31624   9.542  12.116   4.315 -1.1898 -1.0601  0.7035
  954MOL0     H31625   9.691  12.080   4.424  1.0746 -2.4605  0.9793
  954MOL0     H31626   9.588  11.884   4.213  2.0948 -4.4794  0.2952
  954MOL0     H31627   9.727  11.868   4.311  1.7817  1.4398  0.9284
  954MOL0     H31628   9.699  12.083   4.075  1.1221 -0.3741 -1.8950
  954MOL0     H31629   9.773  11.924   4.077 -3.2244 -0.1063 -1.9887
  954MOL0     H31630   9.934  11.992   4.232 -2.8208 -1.6699  0.0227
  954MOL0     H31631   9.845  12.154   4.263  0.6754  1.9193 -0.6129
  954MOL0     H31632   9.344  11.588   4.598 -2.2645  1.1054  0.6839
  954MOL0     H31633   9.309  11.331   4.646  0.8422 -0.2075  0.3655
  954MOL0     H31634   9.340  11.023   4.995 -0.8339  1.2218 -0.2132
  954MOL0     H31635   9.342  10.775   5.068  0.3769 -3.6872 -3.3657
  954MOL0     H31636   8.388   9.721   4.710  0.1799  0.6201 -1.1498
  954MOL0     H31637   8.518   9.858   4.548  1.2438 -4.9770 -1.5991
  954MOL0     H31638   8.736  10.130   4.439  1.3044 -2.1367  3.1015
  954MOL0     H31639   8.818  10.255   4.220 -2.3501 -2.3727  0.5738
  954MOL0     H31640   9.227  10.297   4.183 -0.9570  1.0148 -1.2787
  954MOL0     H31641   9.248  10.183   4.053  2.5651 -1.1801  3.6407
  954MOL0     H31642   9.127  10.336   3.899 -0.5246 -0.3480 -0.4227
  954MOL0     H31643   9.286  10.396   3.986  0.4311 -2.9291 -1.6318
  954MOL0     H31644   8.991  10.471   4.029 -0.3243 -1.8100  0.3908
  954MOL0     H31645   9.125  10.491   4.151  1.2727 -2.4556  0.2006
  954MOL0     H31646   9.062  10.632   3.893  1.9782 -1.0199 -1.7375
  954MOL0     H31647   9.235  10.612   3.928 -0.6969  1.4851 -0.2243
  954MOL0     H31648   9.105  10.932   4.191 -1.0158  1.1279 -1.9031
  954MOL0     H31649   9.206  10.095   4.284 -1.2786  0.1918 -1.0938
  954MOL0     H31650   9.148   9.913   4.587 -1.5507  1.7293  2.6853
  954MOL0     H31651   9.283  10.004   4.513  0.2456  2.3182  2.7069
  954MOL0     H31652   9.183  10.077   4.623  3.1895  0.1464  0.5632
  955MOL0     O31653   8.197   3.407   8.947 -0.0728 -0.1095  0.0404
  955MOL0     C31654   8.230   3.482   8.851 -0.6320 -0.0801  0.9166
  955MOL0     O31655   8.161   3.491   8.737  1.2006  0.1127 -0.5614
  955MOL0     C31656   8.036   3.432   8.743 -0.3551  0.3347 -0.3859
  955MOL0     C31657   8.038   3.288   8.720  0.7628 -0.5782  0.6793
  955MOL0     C31658   7.917   3.226   8.700  0.1818  0.5416  0.3315
  955MOL0     C31659   7.793   3.296   8.703  0.0956  0.6322 -0.1469
  955MOL0     O31660   7.684   3.220   8.682 -0.0265 -0.2375 -0.3001
  955MOL0     C31661   7.565   3.298   8.676  1.0978  0.3912 -0.0717
  955MOL0     C31662   7.464   3.200   8.623 -0.7906 -0.4456 -0.5008
  955MOL0     C31663   7.317   3.265   8.637  0.1556 -0.3386  0.5825
  955MOL0     C31664   7.198   3.171   8.617  0.9081 -0.3513 -0.0568
  955MOL0     C31665   7.150   3.145   8.466 -0.1112 -0.2496 -1.3372
  955MOL0     C31666   7.088   3.266   8.391 -0.5698  0.7371 -0.2461
  955MOL0     C31667   7.024   3.212   8.272 -0.0738 -0.4545  0.7439
  955MOL0     C31668   6.890   3.126   8.285  0.0954  0.5915 -0.3696
  955MOL0     N31669   6.857   3.063   8.158 -0.0262  1.2807 -0.8770
  955MOL0     C31670   6.765   3.097   8.069 -0.4460  0.9810  0.1638
  955MOL0     C31671   6.783   3.015   7.966 -0.2544 -0.2214  0.2578
  955MOL0     C31672   6.715   3.008   7.833 -0.2847 -0.0099  0.5853
  955MOL0     C31673   6.644   2.876   7.795  0.0283  0.8679  0.2650
  955MOL0     C31674   6.559   2.884   7.666 -0.4995  0.2529 -0.5771
  955MOL0     C31675   6.452   2.771   7.654  0.5192 -0.4076  0.7844
  955MOL0     O31676   6.350   2.798   7.749 -0.8582 -0.5869 -0.1448
  955MOL0     C31677   6.240   2.884   7.733  0.3455 -0.2774 -0.4672
  955MOL0     C31678   6.153   2.898   7.833  0.3386  0.0354 -0.0008
  955MOL0     C31679   6.032   2.956   7.824 -0.3424  0.0442  0.2032
  955MOL0     C31680   5.935   2.957   7.936  0.5396 -0.4659 -0.0768
  955MOL0     C31681   5.995   3.021   7.699  0.2007  0.0258 -0.4435
  955MOL0     C31682   5.868   3.091   7.678 -0.3446  0.4010 -0.7892
  955MOL0     O31683   5.830   3.078   7.553  0.3414  0.6390  0.2183
  955MOL0     C31684   5.704   3.109   7.510  0.9004 -0.0186  0.6667
  955MOL0     C31685   5.691   3.149   7.384  1.6247 -0.8531  0.1160
  955MOL0     C31686   5.561   3.181   7.327  0.0358 -0.0946 -0.2740
  955MOL0     C31687   5.443   3.151   7.402  0.3623  0.2179 -0.3220
  955MOL0     O31688   5.321   3.157   7.334 -0.1230  0.0965 -0.3209
  955MOL0     C31689   5.199   3.118   7.399 -0.1201  0.4501 -0.3951
  955MOL0     C31690   5.174   2.965   7.400  0.2369  0.1981 -1.3954
  955MOL0     C31691   5.059   2.920   7.482  0.2041  0.4785 -1.0987
  955MOL0     C31692   4.938   2.857   7.404 -0.6780  0.0903 -0.2966
  955MOL0     C31693   4.880   2.952   7.296  0.1091 -0.4819  0.0200
  955MOL0     C31694   4.823   3.078   7.365 -0.0642 -0.1068  0.0772
  955MOL0     C31695   4.690   3.054   7.445 -0.4505 -0.3477 -0.2703
  955MOL0     C31696   4.654   3.172   7.528  0.2443 -0.6868  0.6628
  955MOL0    Cl31697   4.490   3.150   7.585 -0.1814 -0.3753  0.0457
  955MOL0     C31698   5.461   3.113   7.540 -0.3504 -0.2987 -0.1869
  955MOL0     C31699   5.595   3.093   7.594  0.9201 -0.8566 -0.9330
  955MOL0     O31700   5.812   3.151   7.771  0.6738  0.7891  0.5871
  955MOL0     C31701   6.094   3.029   7.598  0.8154 -0.5571  0.0936
  955MOL0     C31702   6.210   2.955   7.619 -0.2916 -1.2393  1.0763
  955MOL0     N31703   6.894   2.930   8.001  0.1140 -0.3695  0.9668
  955MOL0     N31704   6.928   2.962   8.110  0.0120  0.0470  0.4805
  955MOL0     C31705   7.802   3.429   8.741  0.0698 -0.7597 -0.2574
  955MOL0     C31706   7.920   3.496   8.751  0.6119 -0.3301  0.1567
  955MOL0     C31707   8.366   3.558   8.858  1.0175  0.9748  0.1436
  955MOL0     C31708   8.404   3.654   8.758  0.6217 -0.8280 -0.2826
  955MOL0     C31709   8.518   3.729   8.771  0.3844  0.3155  0.1470
  955MOL0     C31710   8.609   3.707   8.880  0.1530  0.7717  0.8831
  955MOL0     O31711   8.720   3.794   8.903 -0.2412  0.2568 -0.5596
  955MOL0     C31712   8.698   3.939   8.889 -1.0554  0.7134  0.0468
  955MOL0     C31713   8.799   3.986   8.789 -0.3235  0.0445 -0.1539
  955MOL0     C31714   8.946   3.961   8.820  1.1799 -0.0348  0.2824
  955MOL0     C31715   9.013   4.056   8.923 -0.0479 -0.6094  0.2563
  955MOL0     C31716   8.997   4.036   9.067 -0.6631 -0.2965  0.0380
  955MOL0     C31717   8.998   3.998   9.183  0.1484 -0.5668  0.0094
  955MOL0     C31718   8.572   3.618   8.970  0.0106  0.3878 -0.2884
  955MOL0     C31719   8.453   3.541   8.966  0.2699 -0.3578 -0.4708
  955MOL0     C31720   8.437   3.442   9.075  0.1843  0.9032  0.0870
  955MOL0     H31721   8.135   3.240   8.712  0.6409 -0.7571  0.2197
  955MOL0     H31722   7.932   3.122   8.671 -3.4177  0.1791 -0.7640
  955MOL0     H31723   7.562   3.378   8.602 -1.7135  0.9463  0.5491
  955MOL0     H31724   7.535   3.340   8.773 -2.0842 -1.9633  0.1415
  955MOL0     H31725   7.491   3.181   8.518 -3.5162  1.0429 -1.5754
  955MOL0     H31726   7.460   3.112   8.688  2.0303 -1.6288 -1.7717
  955MOL0     H31727   7.298   3.290   8.742 -3.6552 -1.0286  0.2195
  955MOL0     H31728   7.308   3.348   8.566 -0.5777 -0.3085  0.7065
  955MOL0     H31729   7.218   3.075   8.665  0.1738  0.9228  3.0058
  955MOL0     H31730   7.111   3.221   8.660  0.7931 -0.6731  0.0869
  955MOL0     H31731   7.079   3.061   8.472  0.2362 -0.4320  1.0792
  955MOL0     H31732   7.247   3.122   8.421  1.7546  1.6378  1.3916
  955MOL0     H31733   7.022   3.326   8.455  0.6122 -0.2209  2.0122
  955MOL0     H31734   7.170   3.329   8.357  1.4240 -1.6761 -0.2257
  955MOL0     H31735   7.096   3.144   8.225 -0.1517 -1.9511  2.6562
  955MOL0     H31736   7.004   3.300   8.210 -3.1617 -1.1672  0.5255
  955MOL0     H31737   6.920   3.048   8.355  2.2652  2.5972  1.0800
  955MOL0     H31738   6.819   3.195   8.330 -0.9057 -0.5913 -0.0814
  955MOL0     H31739   6.700   3.183   8.079 -1.6662  0.2363 -1.1224
  955MOL0     H31740   6.787   3.033   7.755 -0.5537  2.7281  1.1312
  955MOL0     H31741   6.631   3.078   7.829  1.2902  1.9457  0.4750
  955MOL0     H31742   6.715   2.794   7.780 -0.0069  1.1737 -1.9766
  955MOL0     H31743   6.593   2.835   7.882  0.2098  0.7447  0.3145
  955MOL0     H31744   6.533   2.987   7.641  0.1198 -0.0706 -2.7388
  955MOL0     H31745   6.628   2.861   7.584 -1.8877 -2.2034 -1.1538
  955MOL0     H31746   6.415   2.784   7.553  0.8656  2.0527  0.9136
  955MOL0     H31747   6.495   2.673   7.680 -2.0803 -2.2342 -1.3025
  955MOL0     H31748   6.177   2.845   7.925 -0.4764 -0.1133  0.1327
  955MOL0     H31749   5.975   2.889   8.012  4.3720 -0.3029 -1.7348
  955MOL0     H31750   5.841   2.912   7.902 -0.3499  1.0907  0.2620
  955MOL0     H31751   5.926   3.058   7.977  0.2190  0.3097 -1.9703
  955MOL0     H31752   5.781   3.164   7.325  0.6590 -1.5245 -1.6019
  955MOL0     H31753   5.540   3.209   7.225 -2.7419  1.2845  0.5632
  955MOL0     H31754   5.202   3.161   7.499 -0.9853  0.7338 -0.4829
  955MOL0     H31755   5.109   3.155   7.348 -1.0747  0.7381  1.4372
  955MOL0     H31756   5.161   2.925   7.299 -2.2600 -0.5223 -0.8619
  955MOL0     H31757   5.265   2.925   7.446 -0.0876 -0.8581 -1.6476
  955MOL0     H31758   5.024   2.999   7.549  0.7744  1.2041 -1.6423
  955MOL0     H31759   5.095   2.839   7.546 -0.2679 -0.0167 -1.4432
  955MOL0     H31760   4.857   2.816   7.465 -0.8029  0.1206 -0.4415
  955MOL0     H31761   4.980   2.773   7.348 -2.9838 -0.8986 -0.6220
  955MOL0     H31762   4.952   2.986   7.221 -0.2473  2.2077  0.7895
  955MOL0     H31763   4.802   2.898   7.240  0.9790 -0.5636 -1.1349
  955MOL0     H31764   4.803   3.154   7.288 -0.8350  0.7033  1.0467
  955MOL0     H31765   4.896   3.118   7.436 -1.5834  1.7688  0.7059
  955MOL0     H31766   4.710   2.978   7.522  0.7853 -0.8767 -1.0816
  955MOL0     H31767   4.610   3.026   7.377 -0.8122  1.4728 -0.6445
  955MOL0     H31768   4.661   3.267   7.475 -1.3720  1.8938  4.6237
  955MOL0     H31769   4.718   3.187   7.615  0.7680 -2.0952  0.5463
  955MOL0     H31770   5.371   3.096   7.599 -0.2259  1.6178  0.6492
  955MOL0     H31771   5.593   3.054   7.696  0.9376 -2.1110 -1.3912
  955MOL0     H31772   6.067   3.085   7.509 -1.7214 -0.3501  0.9219
  955MOL0     H31773   6.278   2.955   7.535  1.5930  3.1560  2.3187
  955MOL0     H31774   7.712   3.487   8.760  1.2563  0.3413  2.4516
  955MOL0     H31775   7.937   3.602   8.763  2.5865 -0.2096 -2.6891
  955MOL0     H31776   8.340   3.667   8.671  0.5205  0.1101 -0.0703
  955MOL0     H31777   8.536   3.805   8.696 -0.6828  1.1248  0.6875
  955MOL0     H31778   8.598   3.962   8.851 -0.3734 -1.0962 -3.1709
  955MOL0     H31779   8.717   3.971   8.992  0.9743 -3.5351  1.2364
  955MOL0     H31780   8.796   4.093   8.767 -3.1622 -0.1425 -1.0984
  955MOL0     H31781   8.765   3.944   8.694  0.0244  0.9619 -0.7055
  955MOL0     H31782   8.956   3.861   8.862  0.1330  0.7397  2.5170
  955MOL0     H31783   9.001   3.974   8.726  0.1101 -0.2865 -0.3973
  955MOL0     H31784   8.975   4.156   8.898 -0.8224 -1.4869 -2.4427
  955MOL0     H31785   9.120   4.056   8.904 -0.2142  0.8969 -0.9438
  955MOL0     H31786   9.005   3.959   9.283 -0.8280  1.8732  1.1044
  955MOL0     H31787   8.639   3.609   9.055  1.6536 -0.1205 -1.5742
  955MOL0     H31788   8.527   3.427   9.135 -0.8120 -1.8910  1.0000
  955MOL0     H31789   8.353   3.463   9.141 -1.3703 -2.2923 -0.6833
  955MOL0     H31790   8.419   3.346   9.025 -0.8125  2.0113 -1.8222
  956MOL0     O31791   4.373   8.209   8.965  0.1865 -0.0013  0.1614
  956MOL0     C31792   4.379   8.308   9.033  0.6516 -0.4264 -0.5046
  956MOL0     O31793   4.390   8.435   8.979 -0.3016  0.2384  0.0881
  956MOL0     C31794   4.448   8.438   8.858 -0.4366 -0.0231  0.2449
  956MOL0     C31795   4.580   8.406   8.857 -0.3083  0.8704 -0.5833
  956MOL0     C31796   4.654   8.407   8.744  0.0830  0.0436  0.2134
  956MOL0     C31797   4.597   8.440   8.622  0.0887 -0.2962  0.3812
  956MOL0     O31798   4.654   8.453   8.496 -0.2997  1.0945 -0.8611
  956MOL0     C31799   4.801   8.486   8.494 -0.4172 -0.1458 -0.2325
  956MOL0     C31800   4.814   8.635   8.535  1.0180  1.1863 -0.2471
  956MOL0     C31801   4.739   8.721   8.444 -0.1643 -0.4295  0.4048
  956MOL0     C31802   4.759   8.866   8.465 -0.1774  0.1652 -0.0718
  956MOL0     C31803   4.663   8.957   8.401 -0.4826  0.2781  0.2820
  956MOL0     C31804   4.686   9.111   8.423  0.3270  0.0615  0.7264
  956MOL0     C31805   4.835   9.153   8.448  0.3783  0.4791  0.5332
  956MOL0     C31806   4.853   9.298   8.471  0.5991  0.0082 -0.3469
  956MOL0     N31807   4.987   9.321   8.515  0.6915 -0.3080 -0.3031
  956MOL0     C31808   5.025   9.371   8.636 -0.1742  0.6452 -0.8423
  956MOL0     C31809   5.157   9.388   8.617  0.8329 -0.2633  0.7082
  956MOL0     C31810   5.268   9.449   8.701  0.5218 -0.8611  0.0182
  956MOL0     C31811   5.250   9.603   8.711 -0.4772  0.3487 -0.4127
  956MOL0     C31812   5.357   9.659   8.800 -0.0952 -0.4181 -0.0363
  956MOL0     C31813   5.354   9.809   8.804 -0.7012  0.0247 -0.3296
  956MOL0     O31814   5.248   9.889   8.759  0.0950  0.4889 -0.5176
  956MOL0     C31815   5.137   9.910   8.845 -0.7585 -0.1660 -0.3813
  956MOL0     C31816   5.058  10.012   8.816 -0.4892 -0.4632  0.0273
  956MOL0     C31817   4.957  10.056   8.906 -1.1192  0.1289  0.2241
  956MOL0     C31818   4.865  10.162   8.858  1.1466 -0.0443 -0.0164
  956MOL0     C31819   4.934   9.996   9.024  0.2816  0.5633 -1.2198
  956MOL0     C31820   4.834  10.032   9.128  0.4796  0.1612  0.8293
  956MOL0     O31821   4.703  10.063   9.089  0.0091  0.1674  0.3827
  956MOL0     C31822   4.635  10.148   9.174 -0.6230  0.6151 -0.4545
  956MOL0     C31823   4.619  10.133   9.304  0.0279 -1.1911  0.5204
  956MOL0     C31824   4.539  10.217   9.383 -0.2580  0.9309 -0.3135
  956MOL0     C31825   4.486  10.335   9.330 -1.2617 -0.3716  0.6169
  956MOL0     O31826   4.425  10.448   9.385  0.6185  0.7214 -0.8404
  956MOL0     C31827   4.337  10.428   9.501 -0.5705 -0.2736 -0.0886
  956MOL0     C31828   4.201  10.366   9.447  0.0156 -0.1926  0.7180
  956MOL0     C31829   4.117  10.476   9.371  0.0507 -0.1949 -0.5977
  956MOL0     C31830   4.072  10.594   9.463  0.2421  0.7236 -0.6875
  956MOL0     C31831   4.037  10.718   9.386  1.4318 -0.5792  0.0545
  956MOL0     C31832   4.047  10.827   9.497  0.1199 -0.4576 -0.7862
  956MOL0     C31833   3.966  10.960   9.454  0.1542  0.4347  0.2371
  956MOL0     C31834   3.919  11.035   9.579 -1.0656  0.5730 -0.5008
  956MOL0    Cl31835   4.050  11.071   9.695 -0.1637 -0.7399 -0.3254
  956MOL0     C31836   4.507  10.357   9.191  0.0184  0.2749 -0.1791
  956MOL0     C31837   4.583  10.266   9.110  0.6121  1.1198  0.0017
  956MOL0     O31838   4.874  10.025   9.242 -1.0161  0.1274 -0.2933
  956MOL0     C31839   5.004   9.872   9.047 -1.2831  0.3670  0.5665
  956MOL0     C31840   5.114   9.846   8.964  0.8999  0.2458  0.0621
  956MOL0     N31841   5.190   9.342   8.493  0.4780  0.8267 -0.1936
  956MOL0     N31842   5.086   9.318   8.431 -0.3363 -0.2625 -0.6930
  956MOL0     C31843   4.453   8.474   8.619 -0.9931  0.6448  0.1069
  956MOL0     C31844   4.382   8.470   8.741 -0.0874 -0.2850 -0.7267
  956MOL0     C31845   4.364   8.302   9.181  0.2014  0.1768  0.2846
  956MOL0     C31846   4.423   8.406   9.250  0.0381  0.7066  0.1896
  956MOL0     C31847   4.421   8.410   9.392  0.4306 -0.9970 -0.3155
  956MOL0     C31848   4.349   8.319   9.454  0.5502 -0.7108 -0.3894
  956MOL0     O31849   4.333   8.332   9.595 -0.0435 -0.2317  0.1362
  956MOL0     C31850   4.399   8.212   9.667  0.3484  0.0420  0.0097
  956MOL0     C31851   4.414   8.243   9.820  0.6183  0.0735 -0.6207
  956MOL0     C31852   4.485   8.375   9.834  0.3075  0.1413 -0.5370
  956MOL0     C31853   4.621   8.388   9.767  0.2667 -0.2834 -0.9089
  956MOL0     C31854   4.677   8.515   9.816 -0.2035 -0.8089 -0.8490
  956MOL0     C31855   4.726   8.617   9.859 -0.2289  0.6968  0.1225
  956MOL0     C31856   4.294   8.212   9.389  0.9059  0.3135  0.5192
  956MOL0     C31857   4.301   8.201   9.249 -0.4119 -0.7667 -0.0205
  956MOL0     C31858   4.228   8.081   9.188 -0.4412 -0.3739  1.0497
  956MOL0     H31859   4.625   8.390   8.955 -0.5605 -2.8798 -0.9334
  956MOL0     H31860   4.762   8.411   8.755 -0.2344  1.0756  5.2760
  956MOL0     H31861   4.857   8.474   8.401  2.6179  0.9890  1.2888
  956MOL0     H31862   4.864   8.424   8.559 -0.6491  0.3121  0.4349
  956MOL0     H31863   4.784   8.648   8.639 -0.3439 -0.2802 -0.4113
  956MOL0     H31864   4.921   8.656   8.538  1.6096 -1.3586  3.5264
  956MOL0     H31865   4.781   8.709   8.343 -1.6291  1.0152 -0.4204
  956MOL0     H31866   4.635   8.689   8.434 -0.7303  1.4590 -0.1010
  956MOL0     H31867   4.765   8.890   8.572 -0.0105 -0.6490  0.1092
  956MOL0     H31868   4.851   8.901   8.419 -0.0777 -0.1378 -0.1089
  956MOL0     H31869   4.559   8.939   8.428 -0.8135  4.1864  2.2610
  956MOL0     H31870   4.674   8.931   8.295  1.5900 -1.3616  0.8267
  956MOL0     H31871   4.658   9.157   8.327  0.0214 -0.6180  0.4856
  956MOL0     H31872   4.629   9.132   8.513  1.7529  1.6857  1.3186
  956MOL0     H31873   4.885   9.127   8.355 -2.6534 -2.3619 -0.4946
  956MOL0     H31874   4.881   9.096   8.529 -1.5451  2.8108  3.4798
  956MOL0     H31875   4.827   9.359   8.384  3.8151  0.3341 -1.1727
  956MOL0     H31876   4.773   9.325   8.542 -2.0478 -3.7556 -1.5310
  956MOL0     H31877   4.963   9.414   8.714  0.6117  3.2211 -1.5544
  956MOL0     H31878   5.365   9.414   8.664  2.1032  2.2495  0.8552
  956MOL0     H31879   5.264   9.404   8.801 -1.1046 -0.3982  0.1968
  956MOL0     H31880   5.261   9.652   8.614 -0.7830 -1.2089 -1.2539
  956MOL0     H31881   5.149   9.629   8.746 -0.7893  0.9790 -1.6927
  956MOL0     H31882   5.332   9.622   8.900 -1.0316 -0.2413 -0.1974
  956MOL0     H31883   5.462   9.642   8.776  0.2450 -0.9766  1.7136
  956MOL0     H31884   5.402   9.840   8.897  1.2377 -1.3012 -0.8193
  956MOL0     H31885   5.430   9.836   8.731 -1.0882  0.3271 -0.6266
  956MOL0     H31886   5.057  10.078   8.730  1.1277 -1.1527 -0.5606
  956MOL0     H31887   4.920  10.227   8.789  2.6658  0.1064  1.2750
  956MOL0     H31888   4.840  10.235   8.936  0.4945  2.2864 -2.2652
  956MOL0     H31889   4.771  10.122   8.818 -0.2422 -0.3186  3.2541
  956MOL0     H31890   4.662  10.043   9.345  1.3345 -1.4593 -1.3233
  956MOL0     H31891   4.533  10.180   9.485 -0.6744 -1.0374 -1.0061
  956MOL0     H31892   4.385  10.364   9.576  1.2267  0.2459 -0.7474
  956MOL0     H31893   4.319  10.524   9.552 -0.9388 -1.0211  1.2311
  956MOL0     H31894   4.224  10.283   9.379 -0.2117 -1.4714  2.1429
  956MOL0     H31895   4.147  10.317   9.529 -0.4611 -0.8556  0.0248
  956MOL0     H31896   4.018  10.435   9.348  1.0275 -2.5704 -0.7774
  956MOL0     H31897   4.157  10.499   9.272 -0.0335  1.5958 -0.2516
  956MOL0     H31898   4.166  10.632   9.506 -0.5797  1.1081  0.8697
  956MOL0     H31899   3.996  10.565   9.537  0.3602 -4.1546 -2.1476
  956MOL0     H31900   4.095  10.738   9.295 -0.0481  4.2566 -0.1096
  956MOL0     H31901   3.933  10.701   9.359  0.8117 -0.4016  2.1421
  956MOL0     H31902   4.149  10.850   9.529 -0.3174  2.8570 -1.4582
  956MOL0     H31903   3.999  10.788   9.587  0.2694  0.6366 -0.2172
  956MOL0     H31904   3.887  10.931   9.385  1.0564 -1.7344  0.0265
  956MOL0     H31905   4.030  11.020   9.389  0.5309 -1.0753 -0.8494
  956MOL0     H31906   3.852  10.974   9.640  1.6442 -0.2441  1.9306
  956MOL0     H31907   3.861  11.124   9.552 -0.8087  1.5057  1.7471
  956MOL0     H31908   4.476  10.457   9.161 -0.8370 -0.1721 -0.8523
  956MOL0     H31909   4.603  10.277   9.004  1.0314 -1.4665 -0.2444
  956MOL0     H31910   4.977   9.804   9.127  0.0085 -2.7634 -1.4552
  956MOL0     H31911   5.184   9.770   8.997 -0.4275 -2.1288 -2.2411
  956MOL0     H31912   4.406   8.511   8.529 -0.3524  4.4664  1.1978
  956MOL0     H31913   4.274   8.480   8.742 -0.1745  0.1336  3.5220
  956MOL0     H31914   4.481   8.480   9.194  1.7259  1.0234  2.2335
  956MOL0     H31915   4.469   8.494   9.440  0.3141 -0.5184 -1.0227
  956MOL0     H31916   4.327   8.130   9.656 -0.8533  1.1237 -0.4641
  956MOL0     H31917   4.494   8.184   9.621 -0.6448 -5.2077  0.5048
  956MOL0     H31918   4.467   8.155   9.856 -0.4045 -0.9149 -1.4378
  956MOL0     H31919   4.325   8.265   9.881  1.8753  1.1226  0.9087
  956MOL0     H31920   4.425   8.464   9.816  1.3593  1.0960  0.5331
  956MOL0     H31921   4.511   8.388   9.940  0.5273  1.0942 -0.7051
  956MOL0     H31922   4.616   8.395   9.658  1.0093 -2.4062 -1.1344
  956MOL0     H31923   4.684   8.299   9.768  1.4987  0.5632 -1.1953
  956MOL0     H31924   4.779   8.696   9.907 -1.6218 -0.1108  3.2623
  956MOL0     H31925   4.231   8.137   9.436 -4.6022  2.7404 -2.0686
  956MOL0     H31926   4.286   8.031   9.110 -0.4547  0.8339  0.2387
  956MOL0     H31927   4.204   8.015   9.271 -4.8989  0.4084  0.6463
  956MOL0     H31928   4.135   8.110   9.139  0.6368 -0.5656 -1.2570
  957MOL0     O31929   0.421  11.451   7.889  0.4242  0.6533 -0.2104
  957MOL0     C31930   0.513  11.506   7.936 -0.0320  0.4583 -0.2465
  957MOL0     O31931   0.548  11.637   7.905  0.4219  1.1021 -0.4770
  957MOL0     C31932   0.484  11.695   7.800  0.3761  0.8942 -0.9942
  957MOL0     C31933   0.548  11.698   7.682 -0.6633 -0.3948  0.3931
  957MOL0     C31934   0.491  11.750   7.563 -0.0333  0.3698 -0.4085
  957MOL0     C31935   0.359  11.800   7.576 -0.3316 -0.3613 -0.4606
  957MOL0     O31936   0.300  11.855   7.468 -0.4199  0.3563 -0.4225
  957MOL0     C31937   0.160  11.847   7.452 -0.0338 -0.7653  0.7120
  957MOL0     C31938   0.106  11.968   7.361  0.4753  0.0941 -0.2213
  957MOL0     C31939  -0.045  11.978   7.344  0.1207 -0.0324 -0.2505
  957MOL0     C31940  -0.095  12.062   7.233 -0.8025 -0.2796 -1.0572
  957MOL0     C31941  -0.032  12.042   7.094 -0.8773 -0.2941 -0.3709
  957MOL0     C31942  -0.120  12.102   6.982  0.2133 -1.2779  0.8365
  957MOL0     C31943  -0.077  12.086   6.838  0.3262  0.0257 -1.1326
  957MOL0     C31944  -0.112  11.952   6.776  0.0726  1.2636 -0.4698
  957MOL0     N31945  -0.243  11.939   6.720  0.6429  0.7880  0.1191
  957MOL0     C31946  -0.296  12.011   6.616  0.1654  0.1605  0.3351
  957MOL0     C31947  -0.431  11.978   6.622 -0.3914 -0.0490  0.1154
  957MOL0     C31948  -0.539  12.057   6.545 -0.5212 -0.4390 -0.5606
  957MOL0     C31949  -0.648  11.961   6.508  0.5358  0.4549  0.1544
  957MOL0     C31950  -0.759  12.038   6.438  0.3758  0.6538 -0.2725
  957MOL0     C31951  -0.742  12.064   6.285 -0.3984 -0.4126  0.5199
  957MOL0     O31952  -0.872  12.088   6.224 -0.1614  0.2249  0.2922
  957MOL0     C31953  -0.950  11.986   6.184 -1.0316 -0.3845  0.5983
  957MOL0     C31954  -0.914  11.852   6.173 -0.0047  0.2808  0.2735
  957MOL0     C31955  -1.010  11.755   6.136 -0.5098 -0.7250 -0.5763
  957MOL0     C31956  -0.959  11.608   6.127  0.3443 -1.3092 -0.0423
  957MOL0     C31957  -1.141  11.794   6.092 -0.7554  0.3454  0.4677
  957MOL0     C31958  -1.242  11.698   6.049 -0.0987 -0.1828 -0.0134
  957MOL0     O31959  -1.270  11.613   6.143  0.2959  0.4036 -0.8225
  957MOL0     C31960  -1.339  11.500   6.104  0.1816 -0.1248  0.1040
  957MOL0     C31961  -1.255  11.391   6.056 -0.6654  0.0859 -0.5187
  957MOL0     C31962  -1.308  11.270   6.003  0.2279 -0.8033 -0.2421
  957MOL0     C31963  -1.450  11.261   5.987 -0.6382 -0.5661 -0.2604
  957MOL0     O31964  -1.503  11.145   5.931  0.7006  0.0611 -0.5315
  957MOL0     C31965  -1.640  11.142   5.881  0.6930  0.0089 -0.9022
  957MOL0     C31966  -1.681  10.999   5.841  0.5667 -0.1989 -0.3106
  957MOL0     C31967  -1.612  10.945   5.707 -0.3957 -0.5261 -0.7147
  957MOL0     C31968  -1.696  10.981   5.585 -0.2162  1.2598  0.0519
  957MOL0     C31969  -1.621  10.966   5.449 -0.4516 -0.1952 -0.0198
  957MOL0     C31970  -1.605  10.822   5.397 -0.4433 -1.1871  0.6909
  957MOL0     C31971  -1.554  10.800   5.255 -1.1430 -0.4476 -0.1533
  957MOL0     C31972  -1.628  10.880   5.141 -0.2397  0.5160 -0.6930
  957MOL0    Cl31973  -1.556  10.824   4.996  0.1867  0.4371  0.1821
  957MOL0     C31974  -1.525  11.369   6.034  0.9576 -0.2550 -0.0091
  957MOL0     C31975  -1.480  11.493   6.089 -0.5307  0.9641 -0.2905
  957MOL0     O31976  -1.297  11.712   5.945  1.3668 -0.5463  0.4911
  957MOL0     C31977  -1.163  11.928   6.074 -0.2733 -0.7285 -0.4173
  957MOL0     C31978  -1.070  12.026   6.128  0.1463  0.7027  0.3616
  957MOL0     N31979  -0.453  11.902   6.738 -0.1239  0.0312  0.3394
  957MOL0     N31980  -0.340  11.882   6.795  0.4577 -0.4444 -0.9291
  957MOL0     C31981   0.298  11.795   7.703  0.7571  0.3934 -0.1593
  957MOL0     C31982   0.354  11.741   7.811 -0.3935 -0.0851 -0.7016
  957MOL0     C31983   0.581  11.446   8.049 -0.5296  0.1449  0.1315
  957MOL0     C31984   0.509  11.446   8.168 -0.8358  0.0327 -0.5822
  957MOL0     C31985   0.565  11.402   8.292 -1.3128 -0.2096 -0.7628
  957MOL0     C31986   0.690  11.341   8.283  0.0550  0.2194  0.9671
  957MOL0     O31987   0.747  11.285   8.392 -0.1547  0.0332  0.6351
  957MOL0     C31988   0.827  11.376   8.467  0.9923  0.6063 -0.1300
  957MOL0     C31989   0.766  11.370   8.603  0.1398  0.1038  0.8143
  957MOL0     C31990   0.821  11.494   8.671  0.7595  0.4164  0.2902
  957MOL0     C31991   0.960  11.500   8.709 -0.3488  0.7592 -0.3455
  957MOL0     C31992   0.974  11.610   8.805  0.3111  0.3512 -0.2246
  957MOL0     C31993   0.991  11.699   8.879 -0.3109 -0.0376 -1.1448
  957MOL0     C31994   0.748  11.318   8.158  0.1199  0.6510 -0.1075
  957MOL0     C31995   0.702  11.379   8.041 -0.6345 -0.0979 -0.5511
  957MOL0     C31996   0.769  11.367   7.920  0.1737 -0.5958 -0.3491
  957MOL0     H31997   0.647  11.655   7.685 -0.9391 -1.0120  2.2705
  957MOL0     H31998   0.543  11.753   7.468  1.2567 -2.9694  0.0450
  957MOL0     H31999   0.126  11.853   7.556  2.7065  0.9101  1.6079
  957MOL0     H32000   0.130  11.752   7.407  2.0724  0.3887 -3.6051
  957MOL0     H32001   0.137  12.063   7.405 -1.1660 -0.7134  2.9575
  957MOL0     H32002   0.148  11.958   7.260 -0.4504  1.1042 -0.7275
  957MOL0     H32003  -0.090  11.880   7.324 -0.7788  0.6665 -1.8817
  957MOL0     H32004  -0.086  12.014   7.438 -1.0145  2.4314 -1.6026
  957MOL0     H32005  -0.204  12.050   7.229 -1.0159  0.7532  0.5193
  957MOL0     H32006  -0.081  12.164   7.269 -2.4549 -0.0439 -0.9921
  957MOL0     H32007  -0.017  11.935   7.079 -0.4262 -0.2698 -0.1056
  957MOL0     H32008   0.065  12.092   7.095 -1.3058  0.5614 -0.2596
  957MOL0     H32009  -0.225  12.074   6.993  0.0123 -0.8396  0.1243
  957MOL0     H32010  -0.116  12.211   6.988  1.2909 -1.1431 -1.3403
  957MOL0     H32011   0.032  12.092   6.830  0.3912 -0.7468 -0.9180
  957MOL0     H32012  -0.117  12.174   6.786 -1.1794  0.0131 -0.0619
  957MOL0     H32013  -0.046  11.926   6.692  1.6242  0.2174  1.0161
  957MOL0     H32014  -0.089  11.876   6.851  1.7337 -0.6377 -2.7251
  957MOL0     H32015  -0.249  12.094   6.565  3.0703 -1.9083 -0.6704
  957MOL0     H32016  -0.501  12.104   6.453  5.5955 -2.0044  0.6935
  957MOL0     H32017  -0.578  12.130   6.615  0.8540 -0.7067  0.5368
  957MOL0     H32018  -0.611  11.880   6.444 -2.1607 -1.1557  0.4494
  957MOL0     H32019  -0.695  11.913   6.594 -2.1976 -0.3007 -1.6309
  957MOL0     H32020  -0.842  11.967   6.441 -0.7649  1.9655  0.3581
  957MOL0     H32021  -0.779  12.122   6.504  1.9000  0.0984  0.9541
  957MOL0     H32022  -0.676  12.151   6.286  0.8874 -1.3403 -0.5575
  957MOL0     H32023  -0.684  11.985   6.238  0.6113  0.1271  0.8119
  957MOL0     H32024  -0.815  11.817   6.200 -0.2362 -1.3171 -0.8573
  957MOL0     H32025  -1.028  11.535   6.169  2.3754 -1.1881  3.9909
  957MOL0     H32026  -0.854  11.599   6.158  1.2983 -3.2334 -3.3298
  957MOL0     H32027  -0.953  11.592   6.019 -2.7520 -1.8683 -0.2107
  957MOL0     H32028  -1.151  11.412   6.078 -1.4138  2.4833  1.1149
  957MOL0     H32029  -1.252  11.187   5.961 -0.4045 -2.1266  1.4254
  957MOL0     H32030  -1.709  11.162   5.964 -0.8476 -1.5605 -1.7409
  957MOL0     H32031  -1.647  11.205   5.792  2.8525  0.4731 -0.8016
  957MOL0     H32032  -1.651  10.948   5.933 -1.5259  2.5109  2.0798
  957MOL0     H32033  -1.789  10.988   5.831  0.0665  1.7960  1.8996
  957MOL0     H32034  -1.599  10.837   5.718 -1.8641 -0.6280  0.3118
  957MOL0     H32035  -1.518  10.995   5.680 -0.0257 -0.6970  0.2220
  957MOL0     H32036  -1.743  11.080   5.583 -1.1473  0.8381  0.5162
  957MOL0     H32037  -1.771  10.902   5.577  3.3732 -2.6270  0.8968
  957MOL0     H32038  -1.684  10.998   5.366 -0.5924 -2.9573 -1.0622
  957MOL0     H32039  -1.529  11.025   5.448  0.5165 -1.5536 -3.2227
  957MOL0     H32040  -1.699  10.766   5.405 -0.1597 -2.2258 -2.2149
  957MOL0     H32041  -1.536  10.763   5.459  3.0165  1.1284 -0.6304
  957MOL0     H32042  -1.565  10.692   5.240 -1.8643 -0.5071  0.7027
  957MOL0     H32043  -1.448  10.822   5.263 -1.6084  2.1758 -0.2495
  957MOL0     H32044  -1.609  10.987   5.135  0.0977  0.4181 -1.5187
  957MOL0     H32045  -1.736  10.866   5.149 -0.4640  0.3463 -3.2676
  957MOL0     H32046  -1.633  11.366   6.023  0.8886  1.0867  0.1462
  957MOL0     H32047  -1.535  11.582   6.120  2.3701  2.5582  0.6038
  957MOL0     H32048  -1.260  11.969   6.049 -0.6962 -1.6009 -0.2460
  957MOL0     H32049  -1.099  12.130   6.120  0.4384  0.7653  0.1310
  957MOL0     H32050   0.213  11.854   7.735 -2.4325 -3.5335 -0.5214
  957MOL0     H32051   0.297  11.734   7.903  1.1412  1.1100  0.4025
  957MOL0     H32052   0.408  11.487   8.167 -0.7715  0.3354  1.2604
  957MOL0     H32053   0.496  11.413   8.375 -2.4228  0.9292 -1.7836
  957MOL0     H32054   0.929  11.334   8.467  0.5486 -0.8048 -3.8913
  957MOL0     H32055   0.842  11.474   8.422  0.8644 -0.0503 -1.6777
  957MOL0     H32056   0.806  11.282   8.654 -0.7685 -0.1138  1.1709
  957MOL0     H32057   0.657  11.383   8.601  0.2532  1.5922  2.3359
  957MOL0     H32058   0.794  11.577   8.604  0.7458 -1.8071 -2.6360
  957MOL0     H32059   0.768  11.509   8.766  0.0675  1.1635 -0.1930
  957MOL0     H32060   1.024  11.527   8.624  0.8805  0.8958  0.6018
  957MOL0     H32061   0.993  11.403   8.746  3.6156  2.3637  0.8612
  957MOL0     H32062   1.011  11.772   8.954 -0.8407  0.9004 -1.9036
  957MOL0     H32063   0.844  11.268   8.156 -1.1585 -1.9622 -0.1262
  957MOL0     H32064   0.878  11.353   7.924  0.7040  2.1458 -2.2927
  957MOL0     H32065   0.725  11.279   7.871 -1.2843 -0.6021  0.9102
  957MOL0     H32066   0.754  11.451   7.851  2.0996  1.4480  1.5505
  958MOL0     O32067  10.200   2.713   2.574 -0.3620  0.3922  0.4247
  958MOL0     C32068  10.231   2.692   2.453 -0.1401 -0.6460  0.1201
  958MOL0     O32069  10.345   2.742   2.394 -0.2323 -0.3693  0.4945
  958MOL0     C32070  10.444   2.798   2.481  0.9103 -0.1727  0.2712
  958MOL0     C32071  10.547   2.721   2.539  0.6345  0.0727 -0.0922
  958MOL0     C32072  10.652   2.777   2.602 -1.1859 -0.9353  0.0578
  958MOL0     C32073  10.657   2.914   2.637  0.0617  0.8740 -0.1982
  958MOL0     O32074  10.755   2.982   2.690  0.0271  0.1502 -0.0371
  958MOL0     C32075  10.776   3.126   2.675 -0.7867  0.1803  0.2390
  958MOL0     C32076  10.918   3.158   2.750  0.0313  0.7527 -0.5580
  958MOL0     C32077  10.911   3.105   2.890  0.5662  0.2968  0.5529
  958MOL0     C32078  11.035   3.144   2.971  0.2787  0.1540 -0.5077
  958MOL0     C32079  11.019   3.081   3.113  0.0864 -0.4825  0.0651
  958MOL0     C32080  11.152   3.074   3.178  0.5242 -0.3808 -0.0216
  958MOL0     C32081  11.220   2.934   3.155  0.7899 -0.3750  0.9089
  958MOL0     C32082  11.345   2.943   3.242  0.9683 -0.0559  0.1832
  958MOL0     N32083  11.348   2.814   3.319  0.6007  0.3969 -0.5749
  958MOL0     C32084  11.422   2.699   3.290  0.2505 -0.0035 -0.3019
  958MOL0     C32085  11.393   2.610   3.383 -0.5449 -0.7563 -1.0299
  958MOL0     C32086  11.456   2.470   3.391 -0.3508  0.7928 -0.2818
  958MOL0     C32087  11.393   2.369   3.310  0.4843  0.5369  0.3862
  958MOL0     C32088  11.401   2.229   3.352  0.6162 -0.0479 -0.1058
  958MOL0     C32089  11.300   2.132   3.281  0.5345  0.4211 -0.4144
  958MOL0     O32090  11.290   2.154   3.138 -0.7265  0.0727 -0.4181
  958MOL0     C32091  11.367   2.082   3.052 -0.3001  0.8698 -0.7659
  958MOL0     C32092  11.469   1.989   3.092 -0.2721 -0.4315  0.6228
  958MOL0     C32093  11.532   1.910   2.987  0.3888 -0.2387  0.0045
  958MOL0     C32094  11.643   1.813   3.022  0.1573 -0.4018  0.8572
  958MOL0     C32095  11.497   1.935   2.850 -0.0596  0.2917  0.0560
  958MOL0     C32096  11.566   1.856   2.742 -1.1579 -0.0099  0.4106
  958MOL0     O32097  11.625   1.935   2.653 -1.0101  0.4221  0.0322
  958MOL0     C32098  11.716   1.874   2.571 -0.0535 -0.1170  0.4221
  958MOL0     C32099  11.837   1.824   2.624  0.6214  0.0056  0.2133
  958MOL0     C32100  11.940   1.780   2.541  0.8199  0.3392  0.3216
  958MOL0     C32101  11.923   1.770   2.397  0.0318  0.1050  0.6146
  958MOL0     O32102  12.035   1.736   2.334 -0.4026  0.1025 -0.1417
  958MOL0     C32103  12.088   1.831   2.253  0.1817  0.4188  0.1882
  958MOL0     C32104  12.225   1.803   2.199 -0.5612  0.2401 -0.1348
  958MOL0     C32105  12.237   1.655   2.160 -0.8864  0.5316 -0.7174
  958MOL0     C32106  12.351   1.619   2.068 -0.1667  0.8576  0.8902
  958MOL0     C32107  12.492   1.644   2.122  0.1406 -0.2651  0.6896
  958MOL0     C32108  12.592   1.659   2.009 -0.1181  0.3486 -1.2911
  958MOL0     C32109  12.722   1.705   2.068  0.3454 -0.0572 -0.5713
  958MOL0     C32110  12.737   1.859   2.049 -0.1113 -0.1346  1.0195
  958MOL0    Cl32111  12.744   1.891   1.871 -0.5366 -0.3229 -0.5011
  958MOL0     C32112  11.813   1.829   2.347  0.0471  0.0834  0.6588
  958MOL0     C32113  11.714   1.879   2.431  0.0270  0.3087  0.4372
  958MOL0     O32114  11.562   1.734   2.740  0.8675 -0.2093  0.8806
  958MOL0     C32115  11.400   2.027   2.820  1.0397 -0.4231 -0.2412
  958MOL0     C32116  11.331   2.100   2.918  0.4317 -0.7724 -0.3581
  958MOL0     N32117  11.304   2.672   3.472 -0.2326 -0.0990  0.1350
  958MOL0     N32118  11.282   2.793   3.437 -0.9211  0.6140 -0.3462
  958MOL0     C32119  10.543   2.976   2.602 -1.1624 -0.6903 -0.0922
  958MOL0     C32120  10.442   2.932   2.518  0.4061 -0.5431 -0.4291
  958MOL0     C32121  10.143   2.591   2.388 -0.2288 -0.3180  0.1370
  958MOL0     C32122  10.203   2.519   2.281  0.9441 -0.3500 -0.8866
  958MOL0     C32123  10.135   2.410   2.213 -0.2728  0.4168 -1.2844
  958MOL0     C32124  10.003   2.387   2.247  0.2393  0.4214 -0.3214
  958MOL0     O32125   9.953   2.278   2.176 -0.0830 -0.8432  0.1622
  958MOL0     C32126   9.813   2.287   2.147 -0.1695  0.0084 -0.9043
  958MOL0     C32127   9.791   2.187   2.048  0.0424  0.4637  0.5805
  958MOL0     C32128   9.798   2.049   2.109 -0.7049  0.3334  0.2190
  958MOL0     C32129   9.777   1.937   2.002  0.5974  0.3733  0.6148
  958MOL0     C32130   9.898   1.919   1.928 -1.0788 -0.0167  0.4709
  958MOL0     C32131   9.996   1.914   1.857  0.0033 -0.7580  0.7499
  958MOL0     C32132   9.943   2.470   2.338 -0.6879  0.3929  0.3825
  958MOL0     C32133  10.007   2.565   2.419  0.1257  0.4086  0.9769
  958MOL0     C32134   9.928   2.642   2.510  0.4565 -0.2603  0.3625
  958MOL0     H32135  10.551   2.614   2.519 -2.8540 -1.1383  4.1383
  958MOL0     H32136  10.731   2.706   2.627 -1.3739 -1.3812 -0.6228
  958MOL0     H32137  10.691   3.181   2.715 -0.4336  0.9975 -0.1153
  958MOL0     H32138  10.796   3.160   2.573  1.6208  0.6003  0.7860
  958MOL0     H32139  10.997   3.109   2.693 -0.7541 -0.8374 -0.3189
  958MOL0     H32140  10.926   3.267   2.748 -0.7453  0.8051 -2.2858
  958MOL0     H32141  10.823   3.143   2.944 -1.2583 -1.2328 -1.1956
  958MOL0     H32142  10.907   2.996   2.881  1.3726  0.3208 -0.1600
  958MOL0     H32143  11.127   3.115   2.919  0.7887  4.9083 -2.8595
  958MOL0     H32144  11.027   3.253   2.984 -1.5519 -0.2318  2.8333
  958MOL0     H32145  10.980   2.979   3.113 -0.5379 -0.2984  2.3073
  958MOL0     H32146  10.958   3.150   3.172 -1.4448  0.3242 -2.3593
  958MOL0     H32147  11.220   3.152   3.141 -2.1889  1.6398 -1.1098
  958MOL0     H32148  11.132   3.081   3.286 -0.0560 -0.1825 -0.1345
  958MOL0     H32149  11.260   2.924   3.054 -0.4792  0.2272  0.3241
  958MOL0     H32150  11.150   2.852   3.172 -3.7894  2.0700 -3.3569
  958MOL0     H32151  11.432   2.954   3.177  0.1797  3.3042 -0.4435
  958MOL0     H32152  11.331   3.026   3.312  1.4154 -2.9322  4.0911
  958MOL0     H32153  11.497   2.690   3.212 -1.1224 -2.6881 -1.4755
  958MOL0     H32154  11.432   2.456   3.497  2.2671 -2.1241  0.0708
  958MOL0     H32155  11.565   2.472   3.382 -0.4314  0.3506 -1.5095
  958MOL0     H32156  11.287   2.394   3.309 -0.1841 -2.0145 -0.8184
  958MOL0     H32157  11.423   2.381   3.206 -2.7870  0.8605 -0.6286
  958MOL0     H32158  11.501   2.202   3.317  0.3539  1.1574 -1.8972
  958MOL0     H32159  11.405   2.214   3.461  1.6101 -1.3827 -0.2976
  958MOL0     H32160  11.326   2.029   3.308 -4.5368 -1.0911 -0.1174
  958MOL0     H32161  11.196   2.142   3.316  1.2155  0.5820  1.7018
  958MOL0     H32162  11.505   1.992   3.195  0.1087  1.3876  0.4543
  958MOL0     H32163  11.745   1.851   3.031 -0.3689  1.6862 -0.9469
  958MOL0     H32164  11.632   1.725   2.957 -0.0439  0.2058  0.0460
  958MOL0     H32165  11.612   1.776   3.120 -2.7091 -2.8766 -0.7633
  958MOL0     H32166  11.846   1.828   2.733 -1.1436  3.4625  0.3686
  958MOL0     H32167  12.021   1.753   2.608  0.6677  0.8090  0.7038
  958MOL0     H32168  12.023   1.828   2.165  0.9495 -1.6949 -0.3914
  958MOL0     H32169  12.093   1.927   2.304  2.9877 -0.2579  1.3680
  958MOL0     H32170  12.239   1.868   2.113  0.7928 -0.3221 -0.3691
  958MOL0     H32171  12.305   1.830   2.270 -0.6637 -0.5173  0.2837
  958MOL0     H32172  12.148   1.618   2.107 -1.7840  0.6053  0.6961
  958MOL0     H32173  12.248   1.609   2.258 -1.6982  1.2319 -0.2895
  958MOL0     H32174  12.341   1.682   1.980 -2.3746  1.9141  1.8281
  958MOL0     H32175  12.356   1.520   2.022 -1.5952  2.1032 -2.2020
  958MOL0     H32176  12.493   1.738   2.178  0.2529  2.1001 -2.9352
  958MOL0     H32177  12.523   1.565   2.190 -5.0370 -3.3029  0.0365
  958MOL0     H32178  12.571   1.723   1.924  2.0449 -0.6308 -2.6517
  958MOL0     H32179  12.607   1.558   1.969  0.4091 -1.7926  3.5456
  958MOL0     H32180  12.807   1.666   2.011 -0.3418 -1.5371 -0.6288
  958MOL0     H32181  12.732   1.663   2.169  4.7176 -1.5794 -1.3957
  958MOL0     H32182  12.829   1.896   2.097  0.8951 -1.3635  0.0878
  958MOL0     H32183  12.656   1.915   2.096 -0.9128 -1.5768  1.3836
  958MOL0     H32184  11.809   1.842   2.239 -1.9692  2.7491  0.9303
  958MOL0     H32185  11.612   1.906   2.403  0.0017  1.2011  1.3255
  958MOL0     H32186  11.377   2.039   2.715  0.0290  3.3106  0.2642
  958MOL0     H32187  11.256   2.177   2.904  0.2515 -1.2380 -2.0959
  958MOL0     H32188  10.524   3.080   2.627 -2.3332 -0.2939 -2.3218
  958MOL0     H32189  10.383   3.006   2.465 -0.1566 -1.9655 -1.9069
  958MOL0     H32190  10.308   2.532   2.256  2.4080 -1.8646  3.4588
  958MOL0     H32191  10.193   2.351   2.143 -0.1092  0.8318 -1.5029
  958MOL0     H32192   9.763   2.266   2.242  0.8945  2.0801  0.1676
  958MOL0     H32193   9.779   2.385   2.113 -0.6783  0.4079  0.6785
  958MOL0     H32194   9.852   2.185   1.958  1.4060  2.6453  1.3556
  958MOL0     H32195   9.684   2.185   2.026 -0.5117  1.9212  2.7353
  958MOL0     H32196   9.894   2.046   2.162 -1.3593 -1.9847  1.4349
  958MOL0     H32197   9.719   2.049   2.185 -0.6963  4.5228  0.4635
  958MOL0     H32198   9.686   1.967   1.949 -0.1732  0.2000  1.7883
  958MOL0     H32199   9.763   1.850   2.067  4.9760  0.3702  1.8928
  958MOL0     H32200  10.087   1.908   1.800  0.7684  0.0393  1.8374
  958MOL0     H32201   9.838   2.449   2.356 -1.2034  1.0825 -1.6332
  958MOL0     H32202   9.960   2.599   2.605  0.2982  0.2485  0.6480
  958MOL0     H32203   9.950   2.749   2.504  4.1075 -0.7372  2.5970
  958MOL0     H32204   9.819   2.635   2.496  0.4604 -0.4239  0.4142
  959MOL0     O32205   3.805   9.774   4.905  0.1403 -0.0905 -0.2475
  959MOL0     C32206   3.822   9.874   4.851 -0.4993  0.0681 -1.1276
  959MOL0     O32207   3.837   9.989   4.919  0.2625 -0.2112  0.2948
  959MOL0     C32208   3.869   9.984   5.052 -0.2971 -0.3709  0.5628
  959MOL0     C32209   4.007  10.006   5.076  0.0407 -0.7168 -0.8450
  959MOL0     C32210   4.061  10.004   5.210  0.0537  0.2491  0.1480
  959MOL0     C32211   3.979   9.971   5.314  0.1133 -0.2484 -0.7653
  959MOL0     O32212   4.033   9.965   5.439  0.1628  0.2078  0.5082
  959MOL0     C32213   4.123   9.854   5.461  0.9054  0.8427  0.0307
  959MOL0     C32214   4.053   9.757   5.557  0.8134 -0.2071  0.0179
  959MOL0     C32215   3.951   9.644   5.513  0.9632  0.0319 -0.3681
  959MOL0     C32216   3.893   9.564   5.633 -0.3301  1.2686 -0.4040
  959MOL0     C32217   3.781   9.469   5.597  0.6744 -0.0336  0.0403
  959MOL0     C32218   3.833   9.336   5.546 -0.2218  0.5361  0.2623
  959MOL0     C32219   3.734   9.217   5.574 -0.1684 -0.8842 -0.4715
  959MOL0     C32220   3.588   9.239   5.541 -0.2296 -0.1899  0.6641
  959MOL0     N32221   3.491   9.130   5.571 -0.7020  0.1443  0.3397
  959MOL0     C32222   3.509   9.045   5.679 -0.3546  0.3386 -0.8355
  959MOL0     C32223   3.419   8.951   5.666 -0.5902  0.3256 -0.0993
  959MOL0     C32224   3.382   8.860   5.785 -0.4451  0.1434  0.7712
  959MOL0     C32225   3.491   8.777   5.852 -0.2228  0.5481 -0.3565
  959MOL0     C32226   3.456   8.617   5.852 -1.9401 -0.1542  0.1460
  959MOL0     C32227   3.345   8.571   5.956 -0.5670  0.4888  0.2784
  959MOL0     O32228   3.369   8.591   6.099  0.6984 -0.3556 -0.7628
  959MOL0     C32229   3.273   8.550   6.183  0.0324 -0.4614 -1.1359
  959MOL0     C32230   3.283   8.600   6.310  0.9191  0.4520 -0.5734
  959MOL0     C32231   3.215   8.553   6.421  0.0316  0.1670  1.1748
  959MOL0     C32232   3.243   8.613   6.555 -0.0545 -0.6443 -0.0877
  959MOL0     C32233   3.120   8.447   6.404  0.6044  0.2092  0.1693
  959MOL0     C32234   3.053   8.378   6.515  0.0213  0.3819 -0.0123
  959MOL0     O32235   3.017   8.456   6.621 -0.7795 -0.2898  0.6438
  959MOL0     C32236   2.941   8.405   6.729 -1.1990  0.7733  0.1505
  959MOL0     C32237   2.812   8.451   6.764  0.8313  0.2885 -0.5893
  959MOL0     C32238   2.741   8.388   6.868  0.6533 -0.2969 -0.2935
  959MOL0     C32239   2.798   8.279   6.934  0.5228  0.0167 -0.0692
  959MOL0     O32240   2.716   8.226   7.032 -0.0154 -0.4511  0.1719
  959MOL0     C32241   2.787   8.174   7.148  0.3067  0.6476  0.6300
  959MOL0     C32242   2.699   8.178   7.268  0.1426  0.2474 -0.1850
  959MOL0     C32243   2.572   8.084   7.278 -0.5065  0.6199  0.2719
  959MOL0     C32244   2.528   8.045   7.417  0.6502 -0.3057  0.4196
  959MOL0     C32245   2.460   8.154   7.491 -0.4208 -0.1733 -0.2517
  959MOL0     C32246   2.407   8.091   7.619 -0.3185  0.0658  0.0943
  959MOL0     C32247   2.392   8.211   7.716 -0.1681  0.2497  0.7461
  959MOL0     C32248   2.294   8.191   7.827  0.5609  0.6198 -0.3375
  959MOL0    Cl32249   2.287   8.336   7.934 -0.3020 -0.1372  0.0601
  959MOL0     C32250   2.936   8.227   6.909 -0.0131 -0.5850 -0.6828
  959MOL0     C32251   2.997   8.290   6.803 -0.3102  0.1564 -0.4524
  959MOL0     O32252   3.032   8.262   6.503  0.3253  0.2671  0.5969
  959MOL0     C32253   3.115   8.388   6.270 -0.1777 -0.2534  0.7797
  959MOL0     C32254   3.182   8.446   6.159  1.1134  0.1577  0.3692
  959MOL0     N32255   3.342   8.979   5.553 -0.9583 -1.1278  0.1300
  959MOL0     N32256   3.381   9.083   5.501 -0.1643 -0.2395  0.6441
  959MOL0     C32257   3.847   9.950   5.286 -0.7401 -0.0012  0.0172
  959MOL0     C32258   3.785   9.960   5.161 -0.3303 -0.0403 -0.2432
  959MOL0     C32259   3.825   9.874   4.701  0.1634 -0.0925  0.1541
  959MOL0     C32260   3.722   9.956   4.655  1.0770  0.4489  0.2743
  959MOL0     C32261   3.699   9.969   4.517 -0.3508 -0.6622  0.0485
  959MOL0     C32262   3.768   9.886   4.427  0.7298  0.4048 -0.7018
  959MOL0     O32263   3.728   9.890   4.300  0.0912  0.0430 -0.0380
  959MOL0     C32264   3.823   9.921   4.201  0.4101 -0.5495  0.6752
  959MOL0     C32265   3.872   9.787   4.120  0.2417 -0.6910  0.2473
  959MOL0     C32266   3.975   9.810   4.012  0.0753  0.3489  0.0261
  959MOL0     C32267   4.111   9.867   4.046 -0.3625 -0.3843 -1.2194
  959MOL0     C32268   4.192   9.867   3.926 -0.7066 -0.9254 -0.6653
  959MOL0     C32269   4.259   9.856   3.825  0.4699  0.0749 -0.1551
  959MOL0     C32270   3.857   9.787   4.475  0.6857 -1.4371  0.1628
  959MOL0     C32271   3.889   9.779   4.616  1.3035  0.8765 -0.1854
  959MOL0     C32272   3.976   9.668   4.666  0.6165  0.1422  0.8503
  959MOL0     H32273   4.072  10.032   4.994 -0.9483  1.5170 -0.9784
  959MOL0     H32274   4.162  10.030   5.240 -1.2257  0.9389  4.6467
  959MOL0     H32275   4.206   9.899   5.515 -0.0080  1.9650  0.5488
  959MOL0     H32276   4.145   9.796   5.371 -0.8525 -0.2500  0.2469
  959MOL0     H32277   4.127   9.704   5.618  0.2175  3.8274  4.9490
  959MOL0     H32278   4.012   9.822   5.635  2.1572  0.8104 -0.0762
  959MOL0     H32279   3.870   9.696   5.460  2.0079  2.0736 -0.0659
  959MOL0     H32280   4.005   9.588   5.437  2.8020 -0.0386  0.9219
  959MOL0     H32281   3.976   9.515   5.684  0.0480 -0.7190 -2.7291
  959MOL0     H32282   3.863   9.634   5.711 -4.9712 -0.9904  0.1763
  959MOL0     H32283   3.704   9.520   5.538 -4.5689  0.1052  5.8861
  959MOL0     H32284   3.720   9.449   5.686  1.6683  2.2973  1.3348
  959MOL0     H32285   3.830   9.339   5.436 -3.0142  0.4158  0.2746
  959MOL0     H32286   3.933   9.307   5.581  0.1608  0.9213 -0.4906
  959MOL0     H32287   3.742   9.192   5.681 -5.3348 -0.5655  0.2681
  959MOL0     H32288   3.767   9.127   5.522 -2.9118 -3.2314  1.5072
  959MOL0     H32289   3.556   9.328   5.596  1.8824 -1.2281  3.8787
  959MOL0     H32290   3.562   9.258   5.436 -0.2025 -0.7804  0.5474
  959MOL0     H32291   3.570   9.057   5.768 -3.4509  3.5352  1.1229
  959MOL0     H32292   3.301   8.792   5.759 -2.1941  1.8101  1.5905
  959MOL0     H32293   3.342   8.934   5.856  1.3966  1.1461  0.8307
  959MOL0     H32294   3.584   8.785   5.795  1.6570 -0.4110  2.3908
  959MOL0     H32295   3.493   8.799   5.959 -0.0108  2.5507 -0.7383
  959MOL0     H32296   3.428   8.593   5.749 -2.6771  1.2829 -0.0255
  959MOL0     H32297   3.550   8.569   5.879  0.2226  2.1504 -2.5534
  959MOL0     H32298   3.245   8.611   5.940 -1.0832  0.1569  2.3811
  959MOL0     H32299   3.332   8.463   5.947 -0.6263  0.5203 -0.0061
  959MOL0     H32300   3.344   8.689   6.318 -0.2597  1.2212  0.0748
  959MOL0     H32301   3.316   8.693   6.544  1.2446 -1.6891  0.6356
  959MOL0     H32302   3.287   8.530   6.611  0.4861 -1.7051 -1.9597
  959MOL0     H32303   3.156   8.651   6.608  2.0222  2.5983  1.2659
  959MOL0     H32304   2.756   8.529   6.715  2.6445 -1.9825 -7.2394
  959MOL0     H32305   2.637   8.418   6.871  0.2754 -0.5546 -4.5434
  959MOL0     H32306   2.800   8.067   7.129 -1.9604  0.8410 -3.3196
  959MOL0     H32307   2.881   8.222   7.177  0.9960 -0.9432  1.1606
  959MOL0     H32308   2.758   8.150   7.356 -1.8898  1.1038  1.5308
  959MOL0     H32309   2.670   8.282   7.285 -0.7362 -0.2368  1.6180
  959MOL0     H32310   2.594   7.994   7.220  1.5948  0.4031  1.3087
  959MOL0     H32311   2.502   8.152   7.229  0.8799  3.5064  2.0628
  959MOL0     H32312   2.612   8.010   7.478  1.8189 -0.5752 -1.2789
  959MOL0     H32313   2.450   7.970   7.399  0.4311  0.3688 -1.7656
  959MOL0     H32314   2.540   8.226   7.510 -0.6645  0.6853 -2.1983
  959MOL0     H32315   2.374   8.196   7.438 -3.2273 -2.2937  2.3227
  959MOL0     H32316   2.475   8.020   7.668 -2.3719 -0.4453  2.4210
  959MOL0     H32317   2.307   8.049   7.614 -1.1329  1.7631  1.2162
  959MOL0     H32318   2.366   8.306   7.668 -0.2293  0.9422  2.1037
  959MOL0     H32319   2.485   8.222   7.772  0.0674 -2.4378  1.0122
  959MOL0     H32320   2.328   8.110   7.892  0.5740  0.7678 -0.1583
  959MOL0     H32321   2.197   8.162   7.787  1.0415  0.2103 -1.2430
  959MOL0     H32322   2.977   8.139   6.958  0.6096 -0.6019 -1.2200
  959MOL0     H32323   3.095   8.258   6.770  0.5417  1.9429  0.2142
  959MOL0     H32324   3.058   8.295   6.263 -2.4409  0.8525  2.7888
  959MOL0     H32325   3.147   8.410   6.063  1.9992  1.6727 -0.5641
  959MOL0     H32326   3.785   9.924   5.371  2.6089 -0.3982  2.5904
  959MOL0     H32327   3.680   9.939   5.142  0.4169 -2.0252 -2.6605
  959MOL0     H32328   3.654  10.014   4.716  0.1295  0.5575 -0.8637
  959MOL0     H32329   3.628  10.044   4.484  0.0272 -0.2905  0.0806
  959MOL0     H32330   3.769   9.993   4.139  0.0342 -1.5439 -0.1732
  959MOL0     H32331   3.906   9.973   4.249 -2.1829  1.8731  2.9439
  959MOL0     H32332   3.783   9.752   4.067 -0.8610 -0.0548  1.6334
  959MOL0     H32333   3.909   9.707   4.184  2.5426  0.7297  0.8158
  959MOL0     H32334   4.002   9.708   3.983  3.2600  0.5868  1.7900
  959MOL0     H32335   3.919   9.864   3.935 -1.6856 -0.5064  0.6548
  959MOL0     H32336   4.156   9.801   4.120  0.3657  0.0600 -1.2550
  959MOL0     H32337   4.108   9.963   4.098  0.7690 -0.2722 -1.3403
  959MOL0     H32338   4.330   9.857   3.745  1.6994  0.6672  0.9037
  959MOL0     H32339   3.903   9.722   4.401 -0.8605 -0.4270 -1.7957
  959MOL0     H32340   3.917   9.579   4.690  0.0582  0.6425  1.3972
  959MOL0     H32341   4.049   9.643   4.589  2.7707  4.5848  1.1357
  959MOL0     H32342   4.026   9.697   4.759  0.0929 -0.3624  1.2919
  960MOL0     O32343   1.533   5.367   5.897 -0.0506  0.3493  0.6437
  960MOL0     C32344   1.643   5.371   5.945  0.3456 -0.5580 -0.2260
  960MOL0     O32345   1.665   5.327   6.068  0.2557 -0.1434  0.4809
  960MOL0     C32346   1.584   5.305   6.179  0.1668 -0.1654  0.4203
  960MOL0     C32347   1.470   5.381   6.209 -0.2718  0.8088  0.4900
  960MOL0     C32348   1.389   5.341   6.313 -0.1047 -0.0957 -1.5632
  960MOL0     C32349   1.424   5.238   6.413  0.1766 -0.3867 -0.0305
  960MOL0     O32350   1.338   5.204   6.514  0.0431 -0.2679  0.2570
  960MOL0     C32351   1.224   5.287   6.541 -0.1245 -0.9397  0.4869
  960MOL0     C32352   1.140   5.224   6.652 -0.4526 -0.1486  0.3324
  960MOL0     C32353   1.034   5.323   6.703 -0.1702 -0.7276  0.3223
  960MOL0     C32354   1.030   5.315   6.860  0.6288  0.2464 -0.1410
  960MOL0     C32355   0.940   5.427   6.918 -0.5021 -0.5026 -0.1415
  960MOL0     C32356   1.025   5.550   6.930 -0.1058 -0.3297 -1.4150
  960MOL0     C32357   0.956   5.680   6.960 -0.0233  0.3275  1.1599
  960MOL0     C32358   0.883   5.733   6.844 -0.3221  0.3138 -0.2322
  960MOL0     N32359   0.854   5.878   6.867 -0.3498  0.3406  0.7861
  960MOL0     C32360   0.821   5.937   6.986 -0.1020 -1.0391  0.4542
  960MOL0     C32361   0.821   6.075   6.968 -0.7149  0.3055  0.5434
  960MOL0     C32362   0.803   6.179   7.077 -1.2118  1.0627 -0.2110
  960MOL0     C32363   0.681   6.148   7.155 -0.1841  0.0187 -1.0230
  960MOL0     C32364   0.639   6.259   7.262 -0.6078  1.5856 -0.2874
  960MOL0     C32365   0.591   6.387   7.199 -1.0199 -0.2721  0.1119
  960MOL0     O32366   0.514   6.351   7.087 -0.0754 -0.3210 -0.3744
  960MOL0     C32367   0.378   6.325   7.097 -0.9636 -0.1289 -0.0725
  960MOL0     C32368   0.324   6.306   6.973  0.4779 -1.0394 -0.6990
  960MOL0     C32369   0.190   6.254   6.962  0.4952  0.3302 -1.3063
  960MOL0     C32370   0.133   6.233   6.825 -0.0702 -1.3663 -0.0230
  960MOL0     C32371   0.116   6.226   7.088  0.7019  0.8880  0.2445
  960MOL0     C32372  -0.014   6.143   7.110  0.0240  0.9928  0.6715
  960MOL0     O32373  -0.070   6.131   7.237  0.0071  0.4128  0.0739
  960MOL0     C32374  -0.203   6.068   7.241  0.1251 -0.0283  0.5321
  960MOL0     C32375  -0.307   6.116   7.157  0.2245  0.1762 -0.3530
  960MOL0     C32376  -0.428   6.053   7.172 -0.1138 -0.4380 -0.0679
  960MOL0     C32377  -0.455   5.949   7.268 -0.4541 -0.1963 -0.8213
  960MOL0     O32378  -0.579   5.885   7.290 -0.0445 -0.1201 -1.2307
  960MOL0     C32379  -0.671   5.969   7.364  0.4932  0.3294  0.5321
  960MOL0     C32380  -0.803   5.904   7.408  0.9280  0.3549 -0.0042
  960MOL0     C32381  -0.789   5.767   7.479  0.4624  0.5987 -0.6320
  960MOL0     C32382  -0.935   5.719   7.526  0.2218 -0.1167  0.2312
  960MOL0     C32383  -0.980   5.595   7.435 -0.1478  1.0027  0.2813
  960MOL0     C32384  -0.929   5.457   7.478 -0.3126  0.2690 -0.1141
  960MOL0     C32385  -0.998   5.416   7.610 -0.2314  0.5184 -0.9849
  960MOL0     C32386  -0.997   5.259   7.618  0.8496 -0.0616 -0.1448
  960MOL0    Cl32387  -1.085   5.208   7.766  0.3015  0.2328  0.3895
  960MOL0     C32388  -0.347   5.925   7.354 -0.2623 -0.0766 -0.2424
  960MOL0     C32389  -0.221   5.978   7.341  0.5607 -0.4170 -0.0014
  960MOL0     O32390  -0.055   6.084   7.006  0.3650 -0.5075  0.6490
  960MOL0     C32391   0.185   6.261   7.211 -0.4057 -0.4040 -0.3139
  960MOL0     C32392   0.312   6.311   7.210 -0.5331 -0.1456 -0.6067
  960MOL0     N32393   0.858   6.091   6.830  0.5893  0.5395 -0.5946
  960MOL0     N32394   0.860   5.976   6.770 -1.0739  1.1850 -0.4510
  960MOL0     C32395   1.547   5.175   6.387 -0.6375  0.5165 -0.6571
  960MOL0     C32396   1.628   5.214   6.276  0.1435 -0.0087 -0.4292
  960MOL0     C32397   1.754   5.425   5.869  0.2024 -0.1178  0.0673
  960MOL0     C32398   1.727   5.490   5.743 -0.2336 -0.0534 -1.3199
  960MOL0     C32399   1.832   5.558   5.687 -0.3610 -0.5722  0.2231
  960MOL0     C32400   1.961   5.542   5.712 -0.2217  0.0943 -0.3447
  960MOL0     O32401   2.065   5.603   5.643  0.4506  0.1603 -0.0022
  960MOL0     C32402   2.041   5.712   5.554 -0.1956 -0.7372 -0.2777
  960MOL0     C32403   2.000   5.830   5.648  0.7490 -0.1314 -0.4538
  960MOL0     C32404   2.029   5.967   5.582  0.4044 -1.3440  0.0104
  960MOL0     C32405   1.909   6.062   5.626 -0.1943  0.2634 -0.5396
  960MOL0     C32406   1.775   6.036   5.564 -0.5660 -0.8236  0.2511
  960MOL0     C32407   1.669   6.033   5.503 -0.4550 -0.6885  0.2858
  960MOL0     C32408   1.994   5.458   5.819  0.9416 -0.5806 -0.5536
  960MOL0     C32409   1.893   5.413   5.910  0.6218 -0.1206  0.1489
  960MOL0     C32410   1.955   5.339   6.034 -0.3661  0.0499 -0.1366
  960MOL0     H32411   1.434   5.459   6.143 -3.8495 -0.9158  0.1654
  960MOL0     H32412   1.296   5.396   6.320 -0.1864 -0.3688 -0.4606
  960MOL0     H32413   1.166   5.292   6.449 -0.5383 -0.1238  0.7785
  960MOL0     H32414   1.258   5.388   6.565  0.7952 -0.8138 -1.2250
  960MOL0     H32415   1.103   5.125   6.626  3.0628 -1.8844  1.3132
  960MOL0     H32416   1.201   5.209   6.742 -2.5756  0.6563  2.0036
  960MOL0     H32417   1.058   5.425   6.671  1.7183 -0.9391  0.9609
  960MOL0     H32418   0.937   5.296   6.659  0.3083 -1.8284 -0.0819
  960MOL0     H32419   0.981   5.219   6.878  1.1731  0.1494  0.8553
  960MOL0     H32420   1.129   5.314   6.906 -0.4510 -0.8995  2.2942
  960MOL0     H32421   0.919   5.406   7.023  0.9535  3.2688  1.0776
  960MOL0     H32422   0.845   5.443   6.866 -1.5490 -2.2119  1.1368
  960MOL0     H32423   1.102   5.544   7.007  1.6870  0.1273 -3.0995
  960MOL0     H32424   1.075   5.568   6.834 -2.1932  0.7356 -2.3720
  960MOL0     H32425   1.030   5.755   6.990 -3.3047  2.9943  3.4324
  960MOL0     H32426   0.885   5.651   7.038  0.5661 -4.7521  0.1352
  960MOL0     H32427   0.946   5.710   6.758  0.2528  0.1659  0.2151
  960MOL0     H32428   0.792   5.672   6.839  1.1718 -2.4228  2.1846
  960MOL0     H32429   0.797   5.883   7.077  0.9114  0.5188  1.6977
  960MOL0     H32430   0.801   6.279   7.035 -0.5047  0.3939 -1.9611
  960MOL0     H32431   0.888   6.172   7.146  0.6736 -2.5445 -2.5002
  960MOL0     H32432   0.607   6.122   7.079  1.2331 -2.9109 -1.5311
  960MOL0     H32433   0.697   6.057   7.213  0.1085  2.6564  3.5458
  960MOL0     H32434   0.555   6.222   7.322  0.4654 -2.5332 -1.0279
  960MOL0     H32435   0.723   6.283   7.328  0.9320  4.4635 -3.0297
  960MOL0     H32436   0.530   6.444   7.269 -1.7914 -1.1864  0.2189
  960MOL0     H32437   0.676   6.446   7.165  1.4910 -3.3233  0.6267
  960MOL0     H32438   0.382   6.349   6.892  1.3333  1.8610  1.3157
  960MOL0     H32439   0.198   6.277   6.749 -0.0471 -1.0705  0.1631
  960MOL0     H32440   0.041   6.291   6.821  0.7534  0.4840  3.3029
  960MOL0     H32441   0.115   6.127   6.807 -3.6741 -0.7154 -0.8802
  960MOL0     H32442  -0.283   6.186   7.077  2.7103 -0.5026 -0.2708
  960MOL0     H32443  -0.512   6.076   7.107  0.3168 -3.0684 -1.6717
  960MOL0     H32444  -0.614   6.003   7.451  5.4822 -1.0362 -1.8054
  960MOL0     H32445  -0.696   6.049   7.293  2.5611  0.7550  0.2035
  960MOL0     H32446  -0.857   5.983   7.460 -0.8996 -0.5890 -0.3774
  960MOL0     H32447  -0.868   5.879   7.324 -3.3528 -2.2661  3.6534
  960MOL0     H32448  -0.736   5.779   7.574 -3.3630  0.8934  1.6723
  960MOL0     H32449  -0.745   5.689   7.417 -0.4886 -2.6964  2.5085
  960MOL0     H32450  -1.015   5.792   7.518 -0.1076 -0.4116  0.8576
  960MOL0     H32451  -0.938   5.683   7.629 -0.8331  0.1649  0.3049
  960MOL0     H32452  -1.088   5.598   7.449  0.1480  1.0837  3.2522
  960MOL0     H32453  -0.945   5.608   7.332  1.0084  1.7639  0.7462
  960MOL0     H32454  -0.823   5.473   7.500 -1.1220  2.3206  3.0696
  960MOL0     H32455  -0.958   5.384   7.402 -0.5702  2.6505 -2.4601
  960MOL0     H32456  -1.096   5.464   7.612 -0.3339  0.2845  0.0290
  960MOL0     H32457  -0.939   5.456   7.692  0.2865 -1.8585 -0.1100
  960MOL0     H32458  -0.896   5.217   7.608  2.3321  2.4533  2.5555
  960MOL0     H32459  -1.052   5.219   7.532 -0.1365 -0.9747  0.8894
  960MOL0     H32460  -0.375   5.870   7.443 -0.1139  3.6248  2.3430
  960MOL0     H32461  -0.142   5.957   7.412 -0.0865  1.4966  1.3532
  960MOL0     H32462   0.128   6.248   7.302  0.2933 -0.2263  0.1473
  960MOL0     H32463   0.359   6.312   7.308  3.4278  1.5633 -2.3163
  960MOL0     H32464   1.566   5.099   6.462 -3.5593  1.3286  1.0608
  960MOL0     H32465   1.722   5.163   6.257  1.1882  2.2721 -1.7908
  960MOL0     H32466   1.627   5.504   5.704  0.4623  4.7558 -1.9716
  960MOL0     H32467   1.795   5.625   5.609  1.2396  0.9433  0.7018
  960MOL0     H32468   2.127   5.741   5.493  0.7165  2.4894  2.2200
  960MOL0     H32469   1.962   5.691   5.482 -0.2685 -0.9766 -0.1302
  960MOL0     H32470   2.054   5.819   5.743 -1.6690  1.0294  1.1414
  960MOL0     H32471   1.894   5.821   5.673  0.8285  0.5886  0.2053
  960MOL0     H32472   2.128   5.997   5.619  0.1848 -2.6057  1.7368
  960MOL0     H32473   2.042   5.973   5.473  2.3316 -0.5373  0.2289
  960MOL0     H32474   1.928   6.166   5.599 -1.4543  0.4010 -0.9638
  960MOL0     H32475   1.894   6.051   5.734 -1.4635 -5.5325 -0.9383
  960MOL0     H32476   1.575   6.031   5.451 -0.2182 -4.6607 -0.3487
  960MOL0     H32477   2.098   5.433   5.834  1.2937  2.2362  2.9289
  960MOL0     H32478   1.931   5.405   6.118  3.1241 -2.6488  3.3731
  960MOL0     H32479   1.892   5.253   6.055 -3.5146  2.5695  1.7609
  960MOL0     H32480   2.058   5.302   6.039 -0.2795  0.2693 -0.2280
  961MOL0     O32481   9.918   6.973   3.401 -0.2556  0.0653 -0.7417
  961MOL0     C32482   9.988   6.887   3.463  0.7072 -0.3128  1.1309
  961MOL0     O32483  10.110   6.840   3.429  0.5150  1.0170 -0.2300
  961MOL0     C32484  10.169   6.737   3.496 -0.4060 -0.1549 -0.1398
  961MOL0     C32485  10.252   6.777   3.603 -0.3665  0.0749 -1.0337
  961MOL0     C32486  10.314   6.667   3.673  0.7290  0.1323  0.2016
  961MOL0     C32487  10.302   6.534   3.635 -0.0826  1.2756  0.0820
  961MOL0     O32488  10.352   6.422   3.706  0.5550  0.1504 -0.3189
  961MOL0     C32489  10.481   6.423   3.751  0.8531  0.4783 -0.3582
  961MOL0     C32490  10.524   6.287   3.795 -0.1020  0.0507 -0.2377
  961MOL0     C32491  10.494   6.259   3.938 -0.7470 -0.4345  0.3378
  961MOL0     C32492  10.346   6.229   3.938  0.2677 -1.0748 -0.1022
  961MOL0     C32493  10.289   6.185   4.067  0.2577 -0.0910 -0.4547
  961MOL0     C32494  10.312   6.282   4.185  0.6821 -0.3362  0.3955
  961MOL0     C32495  10.203   6.279   4.295 -0.6775  0.3558 -0.2716
  961MOL0     C32496  10.182   6.147   4.362 -0.0036 -0.3936 -0.0481
  961MOL0     N32497  10.070   6.177   4.450  0.1231  0.0844  0.6107
  961MOL0     C32498  10.064   6.222   4.575 -0.0644  0.2250  0.3018
  961MOL0     C32499   9.932   6.237   4.622 -1.0860  0.3010 -0.6378
  961MOL0     C32500   9.889   6.320   4.735  0.2138 -0.1976 -0.9084
  961MOL0     C32501   9.843   6.461   4.701  0.1875 -0.1819 -0.5093
  961MOL0     C32502   9.948   6.550   4.640  0.9054  0.1007 -0.5768
  961MOL0     C32503  10.069   6.557   4.735 -0.6196  0.3404 -0.1586
  961MOL0     O32504  10.153   6.666   4.694 -0.0406  0.2395  0.7213
  961MOL0     C32505  10.225   6.658   4.578  0.8170  0.0305  1.0491
  961MOL0     C32506  10.364   6.624   4.579  0.4704  0.5779  0.0650
  961MOL0     C32507  10.443   6.615   4.470 -1.3093  0.0333 -0.0216
  961MOL0     C32508  10.588   6.559   4.488 -0.3350 -0.6317  0.0040
  961MOL0     C32509  10.386   6.635   4.340 -0.4606  0.2589  1.0888
  961MOL0     C32510  10.458   6.626   4.206 -0.7325  0.0926 -0.8137
  961MOL0     O32511  10.589   6.618   4.203  0.0206  0.8542 -0.1823
  961MOL0     C32512  10.653   6.620   4.085  0.2167 -1.4663 -0.4886
  961MOL0     C32513  10.654   6.737   4.003  0.2697  0.2215 -0.0189
  961MOL0     C32514  10.724   6.745   3.889 -0.1718  0.5517  0.2204
  961MOL0     C32515  10.807   6.643   3.856 -0.2580  0.7977  0.1522
  961MOL0     O32516  10.878   6.637   3.739 -0.8384 -0.1158 -0.3621
  961MOL0     C32517  11.011   6.699   3.752 -0.0457  0.2767 -0.0333
  961MOL0     C32518  11.087   6.695   3.617 -0.1277  0.7052 -1.1427
  961MOL0     C32519  11.227   6.759   3.631 -0.2045 -0.1497  0.5374
  961MOL0     C32520  11.322   6.677   3.712  1.1167  0.0904  0.1733
  961MOL0     C32521  11.462   6.725   3.686  0.3799 -0.5217 -0.1642
  961MOL0     C32522  11.557   6.628   3.748  0.2274 -0.2596 -0.1415
  961MOL0     C32523  11.701   6.674   3.724 -0.3774 -0.4682  0.9508
  961MOL0     C32524  11.807   6.591   3.791  0.1998  0.8273 -0.1526
  961MOL0    Cl32525  11.793   6.581   3.973 -0.0282 -0.2248 -0.3951
  961MOL0     C32526  10.804   6.521   3.930 -0.7113 -0.5558  0.1691
  961MOL0     C32527  10.724   6.508   4.051 -0.0004 -0.1677 -0.4756
  961MOL0     O32528  10.385   6.616   4.110 -0.0216 -0.5042 -0.5851
  961MOL0     C32529  10.246   6.666   4.329  1.2459  0.2116  0.5086
  961MOL0     C32530  10.167   6.682   4.449 -0.0834 -0.0732  0.4875
  961MOL0     N32531   9.856   6.196   4.514 -0.1408 -0.0667  0.2448
  961MOL0     N32532   9.935   6.161   4.416 -0.3681 -0.5629  0.2616
  961MOL0     C32533  10.221   6.505   3.522  0.0161  0.7236  0.7124
  961MOL0     C32534  10.158   6.603   3.459  0.6577 -0.5756 -0.4971
  961MOL0     C32535   9.918   6.825   3.594  0.2294 -0.0492  0.3096
  961MOL0     C32536   9.853   6.698   3.575 -0.1494 -0.2227 -0.1065
  961MOL0     C32537   9.813   6.622   3.686  1.4184  0.4533 -0.0973
  961MOL0     C32538   9.815   6.673   3.822 -1.1015  0.2866 -0.1398
  961MOL0     O32539   9.744   6.612   3.921 -0.3492  0.7715  0.0539
  961MOL0     C32540   9.774   6.645   4.058 -0.2338 -0.7211  1.0326
  961MOL0     C32541   9.715   6.547   4.153 -0.4973 -0.2635 -0.3155
  961MOL0     C32542   9.720   6.403   4.112  0.7297  0.0476  0.0468
  961MOL0     C32543   9.865   6.359   4.130  0.3801  0.0015  1.2888
  961MOL0     C32544   9.946   6.390   4.013 -0.4861  0.2513  0.5839
  961MOL0     C32545  10.009   6.389   3.903 -0.3447  0.0454  0.6953
  961MOL0     C32546   9.867   6.804   3.832 -1.5450 -0.3499 -0.7063
  961MOL0     C32547   9.923   6.877   3.725  0.5056  0.1481  0.2566
  961MOL0     C32548   9.997   7.005   3.750 -0.0101 -1.0718  0.4223
  961MOL0     H32549  10.269   6.883   3.624  1.2883 -0.0251 -1.6900
  961MOL0     H32550  10.380   6.676   3.759  1.1189 -1.3549  0.0802
  961MOL0     H32551  10.488   6.492   3.837  1.7054  0.6195 -0.5322
  961MOL0     H32552  10.552   6.462   3.678 -0.7950  1.5087 -1.4718
  961MOL0     H32553  10.490   6.210   3.725  2.8864 -0.4615 -1.2649
  961MOL0     H32554  10.633   6.277   3.784 -0.3908 -0.0278 -4.4433
  961MOL0     H32555  10.546   6.176   3.985 -1.6655 -2.4931 -2.0433
  961MOL0     H32556  10.534   6.343   3.995  0.2352 -0.1217 -0.7566
  961MOL0     H32557  10.294   6.322   3.913  3.0463  1.1416  1.7543
  961MOL0     H32558  10.322   6.147   3.869  1.2660 -2.0133  0.6335
  961MOL0     H32559  10.337   6.092   4.101  0.5096  0.5804  1.1094
  961MOL0     H32560  10.182   6.169   4.049  0.5848 -1.2320 -1.5479
  961MOL0     H32561  10.409   6.254   4.225  1.4692 -3.1658 -3.0595
  961MOL0     H32562  10.317   6.381   4.138  2.5631 -1.3858 -1.7773
  961MOL0     H32563  10.111   6.324   4.256  0.4237  1.7525 -1.3890
  961MOL0     H32564  10.234   6.351   4.372  1.1271 -1.6329  0.9705
  961MOL0     H32565  10.149   6.073   4.289  1.8428  0.6685 -2.0951
  961MOL0     H32566  10.277   6.106   4.397 -1.5645 -3.7220  0.6898
  961MOL0     H32567  10.156   6.259   4.620  1.7900 -1.5889 -1.7631
  961MOL0     H32568   9.960   6.325   4.819  1.5609  1.0730 -2.0766
  961MOL0     H32569   9.801   6.271   4.778  0.8910 -0.0209  0.7592
  961MOL0     H32570   9.757   6.458   4.634  0.1599 -3.2410 -0.4642
  961MOL0     H32571   9.808   6.508   4.794 -0.5749  1.9210 -1.7788
  961MOL0     H32572   9.980   6.510   4.543 -3.4969  0.7776 -2.5767
  961MOL0     H32573   9.904   6.650   4.632  0.1143 -0.1307  0.6654
  961MOL0     H32574  10.041   6.580   4.838  1.5194  0.7734  0.3701
  961MOL0     H32575  10.133   6.470   4.746  2.2144  2.4413  1.1792
  961MOL0     H32576  10.408   6.600   4.676  2.4212 -1.0492 -1.1459
  961MOL0     H32577  10.662   6.610   4.426 -1.2180  2.4076  1.2649
  961MOL0     H32578  10.593   6.452   4.467  2.2822 -0.8046  1.1380
  961MOL0     H32579  10.618   6.569   4.593  0.2214  2.6182 -0.3595
  961MOL0     H32580  10.604   6.829   4.034  0.6132  1.0374 -1.7742
  961MOL0     H32581  10.728   6.843   3.841  1.0184  1.3576  1.8829
  961MOL0     H32582  10.990   6.806   3.763 -3.0943  0.3307 -4.0981
  961MOL0     H32583  11.073   6.658   3.832 -2.7256  0.6595  2.3714
  961MOL0     H32584  11.099   6.591   3.583  4.0615 -0.9085  4.0263
  961MOL0     H32585  11.030   6.754   3.544 -2.7449  0.1463  0.3486
  961MOL0     H32586  11.228   6.853   3.685  0.1483 -0.5242  1.1935
  961MOL0     H32587  11.272   6.770   3.532 -1.6824  0.1516 -0.1339
  961MOL0     H32588  11.317   6.569   3.697 -1.3078  0.3013 -1.1377
  961MOL0     H32589  11.314   6.688   3.820 -0.3325  3.3399 -0.1365
  961MOL0     H32590  11.479   6.725   3.578 -0.7751  3.7732 -0.5260
  961MOL0     H32591  11.466   6.827   3.725 -2.2313 -0.0681 -0.8457
  961MOL0     H32592  11.559   6.523   3.718  2.2605 -1.0707  2.4824
  961MOL0     H32593  11.540   6.643   3.855 -2.9103 -1.7995 -0.3240
  961MOL0     H32594  11.720   6.777   3.757 -0.6025  0.0714 -0.5096
  961MOL0     H32595  11.711   6.664   3.616  1.1633 -3.3232  1.2704
  961MOL0     H32596  11.904   6.637   3.769  0.1764  0.2281 -1.6644
  961MOL0     H32597  11.808   6.489   3.750  0.6658 -0.2351  2.3239
  961MOL0     H32598  10.846   6.432   3.884  2.6987  0.6381  0.7309
  961MOL0     H32599  10.720   6.417   4.110  1.9240  0.7076  1.1426
  961MOL0     H32600  10.191   6.657   4.236  1.8901 -0.1967  0.1607
  961MOL0     H32601  10.065   6.720   4.450 -0.8654 -2.0204  1.6037
  961MOL0     H32602  10.213   6.400   3.495 -1.3429  1.6217 -2.8943
  961MOL0     H32603  10.106   6.579   3.367  1.8536  3.3196 -2.4124
  961MOL0     H32604   9.849   6.657   3.475  1.9695 -1.7165  0.3452
  961MOL0     H32605   9.778   6.520   3.678 -0.9666  1.3647 -2.1876
  961MOL0     H32606   9.881   6.653   4.081  0.4519 -3.0185 -0.9258
  961MOL0     H32607   9.725   6.741   4.072 -1.0685 -0.6888 -1.6526
  961MOL0     H32608   9.609   6.574   4.152 -0.7030 -1.0003 -1.9741
  961MOL0     H32609   9.744   6.558   4.257  2.9796 -4.9400 -0.4302
  961MOL0     H32610   9.662   6.352   4.190  4.1019 -0.2227  2.6003
  961MOL0     H32611   9.685   6.387   4.009 -1.0649  2.4468  0.1999
  961MOL0     H32612   9.867   6.252   4.155 -1.2773 -0.1805  0.7454
  961MOL0     H32613   9.915   6.401   4.218  0.0145 -0.3606  1.6773
  961MOL0     H32614  10.057   6.416   3.811 -0.2104  1.6692  1.2019
  961MOL0     H32615   9.868   6.851   3.929 -2.5489  0.1958 -0.9463
  961MOL0     H32616   9.948   7.093   3.706 -4.8118 -2.6048  2.0625
  961MOL0     H32617   9.995   7.020   3.858 -1.8169 -0.5160  0.3396
  961MOL0     H32618  10.101   6.997   3.716 -0.4708  0.0147 -1.3733
  962MOL0     O32619  10.136   2.968   5.302 -0.4188  0.3690 -0.4294
  962MOL0     C32620  10.228   3.057   5.302  1.3762  0.0029  0.1603
  962MOL0     O32621  10.344   3.040   5.374 -0.0919  0.2324 -0.5394
  962MOL0     C32622  10.355   2.918   5.445 -1.1274  0.2858  0.3410
  962MOL0     C32623  10.459   2.832   5.421 -0.6269 -0.5798 -0.5836
  962MOL0     C32624  10.487   2.718   5.497 -0.4542 -0.7770 -0.4456
  962MOL0     C32625  10.403   2.697   5.603 -0.4881  1.0512 -0.7927
  962MOL0     O32626  10.439   2.588   5.677 -0.1383  0.2353  0.9476
  962MOL0     C32627  10.344   2.485   5.663  0.4764  0.8932  0.0402
  962MOL0     C32628  10.359   2.386   5.779 -0.0046 -0.0585 -0.6638
  962MOL0     C32629  10.360   2.446   5.925  0.8813 -0.1113  0.9261
  962MOL0     C32630  10.240   2.537   5.965 -0.2857  0.6426  0.6032
  962MOL0     C32631  10.238   2.580   6.117  0.7254  0.3531 -0.0751
  962MOL0     C32632  10.357   2.667   6.157 -0.3247  0.2183  0.4773
  962MOL0     C32633  10.377   2.794   6.059  0.3130  0.2179 -0.0961
  962MOL0     C32634  10.247   2.881   6.048 -0.8152 -0.5929  0.1133
  962MOL0     N32635  10.275   3.018   5.990  0.3780 -0.2029 -0.3131
  962MOL0     C32636  10.278   3.138   6.055 -1.1597 -0.5130  0.5253
  962MOL0     C32637  10.264   3.235   5.954 -0.7809 -0.0674 -0.4720
  962MOL0     C32638  10.263   3.384   5.976 -0.3221  0.3333 -0.1957
  962MOL0     C32639  10.142   3.439   5.906 -0.3797 -0.1098 -0.3812
  962MOL0     C32640  10.130   3.592   5.940 -0.6060 -0.1306 -0.4054
  962MOL0     C32641  10.005   3.662   5.899 -0.4994 -0.0050  0.4652
  962MOL0     O32642  10.009   3.796   5.944 -0.3658  0.3480 -0.6718
  962MOL0     C32643  10.093   3.889   5.891  0.9690 -0.3593  0.0501
  962MOL0     C32644  10.172   3.876   5.783 -0.0687 -0.4240 -0.6143
  962MOL0     C32645  10.256   3.976   5.735 -0.5419 -1.2225 -1.5154
  962MOL0     C32646  10.320   3.950   5.599  0.4622 -0.6177  0.4230
  962MOL0     C32647  10.261   4.100   5.805 -0.2984 -1.0342 -0.3798
  962MOL0     C32648  10.344   4.215   5.745  0.1287 -0.3798 -0.2240
  962MOL0     O32649  10.292   4.334   5.769 -0.2555  0.2651  0.3976
  962MOL0     C32650  10.351   4.464   5.740  0.6967  0.6199  0.8903
  962MOL0     C32651  10.343   4.566   5.830  0.1111  0.1609  0.1079
  962MOL0     C32652  10.403   4.690   5.803  0.3035 -0.4263  0.0332
  962MOL0     C32653  10.476   4.710   5.685 -0.4255 -0.7752  0.1060
  962MOL0     O32654  10.536   4.839   5.658  0.0237  0.3110 -0.4770
  962MOL0     C32655  10.630   4.854   5.550 -0.7473 -0.4402 -0.7886
  962MOL0     C32656  10.689   4.993   5.573  0.2659 -0.9247 -0.1933
  962MOL0     C32657  10.813   5.010   5.476 -0.2413  0.3945 -0.0087
  962MOL0     C32658  10.905   5.131   5.514 -0.3519  0.4163 -0.3560
  962MOL0     C32659  11.027   5.114   5.434  0.9129  0.1280  0.1257
  962MOL0     C32660  11.003   5.104   5.286  0.5958 -1.0204  0.5074
  962MOL0     C32661  11.115   5.187   5.212  0.4213 -0.0669  0.5153
  962MOL0     C32662  11.069   5.329   5.190  0.0738  0.3525 -0.5235
  962MOL0    Cl32663  11.137   5.448   5.306 -0.1859  0.1140 -0.1018
  962MOL0     C32664  10.478   4.607   5.588  0.3173  0.3837 -0.3393
  962MOL0     C32665  10.414   4.486   5.615 -0.5400  0.7532 -0.1677
  962MOL0     O32666  10.448   4.200   5.689  0.0485  0.6458  0.9505
  962MOL0     C32667  10.178   4.121   5.910  0.4145  0.4894 -0.3845
  962MOL0     C32668  10.096   4.018   5.954 -0.5302  0.1380 -0.1348
  962MOL0     N32669  10.254   3.167   5.835 -0.1784 -0.6328 -0.6242
  962MOL0     N32670  10.265   3.041   5.855  0.1429  0.5576  0.1513
  962MOL0     C32671  10.298   2.779   5.644 -0.7545 -0.1754 -0.1795
  962MOL0     C32672  10.267   2.891   5.560  0.1603  0.1431 -0.3026
  962MOL0     C32673  10.225   3.184   5.225  0.2215 -0.3575  0.2826
  962MOL0     C32674  10.327   3.277   5.246 -0.1540  0.2426  0.2109
  962MOL0     C32675  10.325   3.398   5.181  0.2904 -0.9179 -0.6970
  962MOL0     C32676  10.231   3.419   5.077 -0.1645 -0.6991 -0.1740
  962MOL0     O32677  10.219   3.537   5.001 -0.0591 -0.1238 -0.1201
  962MOL0     C32678  10.241   3.654   5.077 -0.5676  0.4780  0.5172
  962MOL0     C32679  10.145   3.762   5.029 -0.2011 -0.1346 -0.3955
  962MOL0     C32680  10.107   3.857   5.152 -0.6163  0.0873  0.8489
  962MOL0     C32681  10.236   3.941   5.184 -1.2849  0.0345 -0.4935
  962MOL0     C32682  10.193   4.069   5.241  0.7001 -0.1005 -0.7446
  962MOL0     C32683  10.135   4.177   5.268  1.2037  0.4324 -0.1832
  962MOL0     C32684  10.135   3.328   5.038  0.1798  0.0761 -0.3849
  962MOL0     C32685  10.127   3.208   5.121  0.0327 -0.0995 -0.8652
  962MOL0     C32686  10.052   3.100   5.069  0.4810  0.5891 -0.6556
  962MOL0     H32687  10.519   2.860   5.335 -0.5277  0.5565 -0.1611
  962MOL0     H32688  10.576   2.663   5.469  0.2750  0.2532 -0.1978
  962MOL0     H32689  10.350   2.449   5.561  2.0220  4.3568 -1.2776
  962MOL0     H32690  10.240   2.517   5.675 -0.6453 -2.3758 -0.0643
  962MOL0     H32691  10.286   2.305   5.770 -0.6703  0.5477 -0.7976
  962MOL0     H32692  10.447   2.326   5.754  0.8247  0.4516  0.9188
  962MOL0     H32693  10.343   2.364   5.995  0.4538  0.0716  1.0426
  962MOL0     H32694  10.458   2.488   5.949  0.6895 -0.2032  1.9197
  962MOL0     H32695  10.247   2.624   5.899  5.5223  1.3590  1.6735
  962MOL0     H32696  10.151   2.474   5.953 -0.0281  0.1852  1.0706
  962MOL0     H32697  10.241   2.494   6.185 -3.0059  0.4805  0.4337
  962MOL0     H32698  10.144   2.632   6.139 -0.3033 -2.0297  1.5720
  962MOL0     H32699  10.347   2.715   6.255  1.8486  0.2185  0.7319
  962MOL0     H32700  10.444   2.601   6.157 -0.9756 -0.6762  0.4427
  962MOL0     H32701  10.400   2.763   5.957  2.8865  2.9676 -0.4801
  962MOL0     H32702  10.463   2.853   6.089 -0.3721  0.8381  0.7173
  962MOL0     H32703  10.162   2.830   6.001  1.8786 -1.1362 -4.9096
  962MOL0     H32704  10.222   2.893   6.154 -0.8554 -0.1935  0.0607
  962MOL0     H32705  10.287   3.159   6.162 -1.0534  3.3057 -0.1003
  962MOL0     H32706  10.358   3.420   5.935  2.3242 -1.5209  3.7341
  962MOL0     H32707  10.269   3.406   6.083 -0.1938 -1.5784  0.2243
  962MOL0     H32708  10.127   3.423   5.799  0.6477 -1.6364 -0.3240
  962MOL0     H32709  10.066   3.379   5.958  0.5220 -1.5150 -0.6096
  962MOL0     H32710  10.149   3.611   6.046 -0.8326 -1.1843 -0.1613
  962MOL0     H32711  10.211   3.639   5.883 -0.3320 -2.4985 -2.0940
  962MOL0     H32712   9.993   3.643   5.792 -1.2373 -1.5752  0.8012
  962MOL0     H32713   9.911   3.622   5.940 -1.6805  1.7787 -0.3481
  962MOL0     H32714  10.149   3.788   5.723 -0.2554 -1.5350  1.0350
  962MOL0     H32715  10.423   3.915   5.597  0.1974 -1.5229  1.7774
  962MOL0     H32716  10.320   4.049   5.552 -0.6951 -0.3303  0.9842
  962MOL0     H32717  10.265   3.874   5.542  0.5878  0.5635 -1.3645
  962MOL0     H32718  10.276   4.547   5.914 -2.0249  1.1874 -1.2711
  962MOL0     H32719  10.387   4.770   5.875  0.4675  2.8463 -3.3256
  962MOL0     H32720  10.708   4.777   5.552 -0.0697  0.2371  0.8647
  962MOL0     H32721  10.568   4.844   5.461  0.8064  1.5661 -2.1704
  962MOL0     H32722  10.611   5.063   5.542  0.1189 -1.2791 -0.6303
  962MOL0     H32723  10.716   5.026   5.674 -0.3204 -1.2209  0.0644
  962MOL0     H32724  10.787   5.018   5.370 -0.2028  2.3974  0.0894
  962MOL0     H32725  10.869   4.916   5.482 -0.2294  0.4523  0.9047
  962MOL0     H32726  10.919   5.136   5.622 -3.0094  1.5402  0.0364
  962MOL0     H32727  10.868   5.231   5.487  3.1680  2.8362  2.7396
  962MOL0     H32728  11.101   5.190   5.457  0.2019  1.3930 -1.5525
  962MOL0     H32729  11.073   5.021   5.471  0.0280 -1.0943 -1.6941
  962MOL0     H32730  10.907   5.147   5.255 -0.0640 -2.2212  0.8450
  962MOL0     H32731  11.017   5.003   5.246  4.0506 -0.7139  0.5848
  962MOL0     H32732  11.136   5.143   5.113 -2.4783 -1.7266  0.5141
  962MOL0     H32733  11.208   5.184   5.270  1.3402  2.4712 -0.6967
  962MOL0     H32734  10.959   5.333   5.186 -0.2017  0.1963  3.2363
  962MOL0     H32735  11.095   5.359   5.089  0.4299 -1.9388 -1.1566
  962MOL0     H32736  10.530   4.615   5.493 -0.3487  0.6445 -0.6895
  962MOL0     H32737  10.405   4.396   5.555 -0.4551  0.5495  0.1221
  962MOL0     H32738  10.158   4.217   5.956 -4.9772 -0.6695  0.3865
  962MOL0     H32739  10.017   4.033   6.026 -0.4967  1.8699 -0.4110
  962MOL0     H32740  10.242   2.763   5.736  1.0822  0.9265  1.1935
  962MOL0     H32741  10.187   2.952   5.600  2.0521  0.2667  3.7578
  962MOL0     H32742  10.400   3.264   5.326  1.9994  1.1885 -1.4931
  962MOL0     H32743  10.409   3.463   5.202 -1.4286  0.4946  2.6733
  962MOL0     H32744  10.219   3.628   5.181  4.2284 -0.3567  1.5327
  962MOL0     H32745  10.339   3.701   5.067  0.0227 -0.9095 -0.5390
  962MOL0     H32746  10.048   3.718   5.003 -0.8382  1.2777 -0.5075
  962MOL0     H32747  10.180   3.823   4.945  2.5371 -0.5591  0.3524
  962MOL0     H32748  10.025   3.920   5.116 -1.4390 -0.6048  1.4507
  962MOL0     H32749  10.070   3.796   5.236 -1.9193  1.0350  0.9998
  962MOL0     H32750  10.292   3.951   5.092  0.9178 -0.8405  0.6739
  962MOL0     H32751  10.307   3.890   5.250 -0.7830  0.1723 -0.9230
  962MOL0     H32752  10.081   4.269   5.278 -0.6869 -0.5585 -0.7755
  962MOL0     H32753  10.080   3.339   4.945  2.4782  2.1288 -1.5858
  962MOL0     H32754   9.972   3.080   5.141  0.4245  0.2540 -0.8060
  962MOL0     H32755  10.008   3.121   4.971  1.5683  2.4697 -0.7928
  962MOL0     H32756  10.119   3.015   5.054 -0.3116 -0.1850  0.1034
  963MOL0     O32757   7.897  10.837   0.259  0.8548 -0.6431  0.9270
  963MOL0     C32758   7.971  10.745   0.265 -0.4137  0.5448  0.0280
  963MOL0     O32759   8.075  10.734   0.362  0.4060 -0.5516 -0.2358
  963MOL0     C32760   8.092  10.844   0.452  0.5004 -0.1333  0.2963
  963MOL0     C32761   8.085  10.817   0.592  0.3511  0.4730  0.3749
  963MOL0     C32762   8.093  10.920   0.688 -0.6045  0.3206  0.2702
  963MOL0     C32763   8.114  11.054   0.655  0.5398  0.5269 -0.4340
  963MOL0     O32764   8.122  11.146   0.762  0.4127 -0.5341  0.9535
  963MOL0     C32765   8.119  11.287   0.720  0.4811 -0.1924 -0.9728
  963MOL0     C32766   8.148  11.365   0.850  0.0826  0.6413  0.3684
  963MOL0     C32767   8.296  11.373   0.902 -0.2324 -0.6178 -0.3635
  963MOL0     C32768   8.392  11.441   0.795  0.9794  0.8046 -0.2955
  963MOL0     C32769   8.526  11.472   0.848  1.0852  0.4854  0.2902
  963MOL0     C32770   8.618  11.528   0.744  0.2307  0.2412 -0.0686
  963MOL0     C32771   8.661  11.676   0.776 -0.2205  0.2875 -0.9301
  963MOL0     C32772   8.528  11.765   0.757 -0.5734 -0.0035  0.1469
  963MOL0     N32773   8.559  11.906   0.731 -0.3642 -0.4334  0.1022
  963MOL0     C32774   8.578  11.959   0.606  0.1757 -0.4824 -0.3601
  963MOL0     C32775   8.596  12.096   0.619  0.1070 -0.1406 -0.9571
  963MOL0     C32776   8.644  12.193   0.517 -0.1583 -0.3360  0.3803
  963MOL0     C32777   8.793  12.201   0.516  0.9301 -0.1765  0.0740
  963MOL0     C32778   8.840  12.248   0.384  0.2888 -0.8610  0.3837
  963MOL0     C32779   8.973  12.305   0.404  0.5404 -0.0524 -0.0813
  963MOL0     O32780   9.008  12.355   0.273 -0.3562 -0.2657  0.6269
  963MOL0     C32781   9.088  12.469   0.271  0.0429  0.6786 -0.1336
  963MOL0     C32782   9.143  12.548   0.375 -0.1556 -0.3085 -0.3570
  963MOL0     C32783   9.205  12.676   0.348  0.3301 -1.1432 -0.5709
  963MOL0     C32784   9.266  12.743   0.476  1.0621  1.4184  0.3744
  963MOL0     C32785   9.230  12.715   0.219 -1.4861 -0.1715  0.0840
  963MOL0     C32786   9.308  12.840   0.178  0.1652  0.2881 -0.0959
  963MOL0     O32787   9.321  12.880   0.037  0.0185  0.7650 -0.4107
  963MOL0     C32788   9.394  12.998   0.011  0.0126  0.9943  0.6720
  963MOL0     C32789   9.516  13.026   0.084 -0.6103 -0.1106 -0.6867
  963MOL0     C32790   9.581  13.147   0.047  0.4159  0.1199  0.6489
  963MOL0     C32791   9.538  13.227  -0.061 -0.7495 -0.1142 -0.0589
  963MOL0     O32792   9.617  13.333  -0.099 -0.3572 -0.9408  0.2658
  963MOL0     C32793   9.604  13.394  -0.223  0.9384 -0.3065  0.0404
  963MOL0     C32794   9.732  13.484  -0.259  0.9494 -0.1401 -1.2377
  963MOL0     C32795   9.868  13.403  -0.250  0.4892  0.2533  0.7754
  963MOL0     C32796   9.886  13.346  -0.395  0.5440 -0.1866 -0.1916
  963MOL0     C32797   9.972  13.222  -0.385  0.0947 -0.5688 -0.1646
  963MOL0     C32798  10.118  13.253  -0.339  1.0254 -0.4962 -0.0062
  963MOL0     C32799  10.190  13.329  -0.444 -0.9090  0.6977 -0.0711
  963MOL0     C32800  10.259  13.463  -0.399 -0.4058  0.8765 -0.3902
  963MOL0    Cl32801  10.136  13.586  -0.380  0.5665 -0.1353 -0.3314
  963MOL0     C32802   9.430  13.193  -0.127  0.0427  0.1517  0.3741
  963MOL0     C32803   9.352  13.083  -0.096 -0.4821  0.2207 -0.0752
  963MOL0     O32804   9.336  12.913   0.276  0.0425  0.2625  0.2657
  963MOL0     C32805   9.178  12.637   0.116 -0.0017  0.6814 -0.1058
  963MOL0     C32806   9.107  12.513   0.145 -0.6926  0.0796 -0.9679
  963MOL0     N32807   8.590  12.121   0.756 -0.2372  0.5013 -0.0385
  963MOL0     N32808   8.569  12.013   0.825 -0.1602 -0.0303  0.3850
  963MOL0     C32809   8.129  11.080   0.518  0.3183 -0.0064 -0.3836
  963MOL0     C32810   8.123  10.983   0.419 -0.1286  0.9181  0.0441
  963MOL0     C32811   7.938  10.630   0.179  0.3815 -0.1696  0.7901
  963MOL0     C32812   8.007  10.506   0.201  0.8991  0.2042  0.7832
  963MOL0     C32813   7.990  10.399   0.104  0.2878  0.4164  0.3832
  963MOL0     C32814   7.905  10.411  -0.004  0.5301  0.6602 -0.1934
  963MOL0     O32815   7.886  10.319  -0.108 -0.0118 -0.1658 -1.1539
  963MOL0     C32816   7.986  10.216  -0.118  0.3242  0.4832  0.7385
  963MOL0     C32817   7.967  10.144  -0.254 -0.2629 -0.6597 -0.8665
  963MOL0     C32818   7.954  10.240  -0.372  0.2840 -0.2964 -0.3880
  963MOL0     C32819   7.811  10.299  -0.414 -0.6440 -0.2019  0.1881
  963MOL0     C32820   7.785  10.326  -0.558 -0.5845 -0.0714 -0.5090
  963MOL0     C32821   7.761  10.353  -0.678 -0.0031  0.6782  0.2303
  963MOL0     C32822   7.834  10.528  -0.028 -0.0928 -0.1092 -0.7259
  963MOL0     C32823   7.842  10.631   0.064  0.7969  0.0923  0.7328
  963MOL0     C32824   7.762  10.762   0.044 -0.7427 -0.8099  0.0959
  963MOL0     H32825   8.073  10.712   0.619 -0.3101 -0.7991 -4.0507
  963MOL0     H32826   8.072  10.899   0.792 -2.9135  0.3817 -0.1221
  963MOL0     H32827   8.022  11.306   0.675  0.0927 -1.5075 -0.7161
  963MOL0     H32828   8.196  11.317   0.648 -1.4240  0.1257 -2.9540
  963MOL0     H32829   8.112  11.468   0.841  1.7777  1.1227 -1.6405
  963MOL0     H32830   8.085  11.315   0.924  1.4417 -0.2267  0.9598
  963MOL0     H32831   8.314  11.437   0.989 -2.0631  0.1302 -0.5107
  963MOL0     H32832   8.337  11.276   0.930 -0.3045  0.0721  2.4147
  963MOL0     H32833   8.408  11.376   0.709  0.1740 -0.2346  0.3271
  963MOL0     H32834   8.348  11.541   0.786 -1.0637  0.8559  5.5919
  963MOL0     H32835   8.562  11.382   0.899  1.2617  0.1378 -0.4364
  963MOL0     H32836   8.523  11.532   0.940  1.7194 -0.1217  0.7159
  963MOL0     H32837   8.713  11.474   0.745  1.1393  1.7893 -0.0604
  963MOL0     H32838   8.585  11.504   0.642 -0.7070 -2.2451  0.7469
  963MOL0     H32839   8.738  11.710   0.706 -1.3358  0.8465 -1.9187
  963MOL0     H32840   8.697  11.683   0.879 -0.6379 -0.5348 -0.7157
  963MOL0     H32841   8.464  11.740   0.672 -1.5518  0.4058  0.7423
  963MOL0     H32842   8.459  11.754   0.841  0.7301  3.1497  1.7911
  963MOL0     H32843   8.586  11.908   0.510  0.2335  0.0508 -0.6430
  963MOL0     H32844   8.605  12.294   0.534  0.3708 -0.0408 -0.1120
  963MOL0     H32845   8.609  12.167   0.416 -1.5068  6.0860 -1.2417
  963MOL0     H32846   8.809  12.270   0.600 -5.2099  0.5625  1.0506
  963MOL0     H32847   8.837  12.103   0.535 -0.8715 -2.2055 -4.7317
  963MOL0     H32848   8.858  12.162   0.319 -0.6103 -1.0110  0.3318
  963MOL0     H32849   8.771  12.319   0.339 -2.1318 -2.9443  0.5914
  963MOL0     H32850   8.980  12.387   0.476  3.4196 -0.9650  0.8306
  963MOL0     H32851   9.050  12.239   0.446  0.1570  0.8509  2.1722
  963MOL0     H32852   9.151  12.514   0.477  1.0890  2.2648  0.5020
  963MOL0     H32853   9.208  12.831   0.507  0.9082 -0.2110  5.5748
  963MOL0     H32854   9.371  12.759   0.450  1.8213 -0.0484  2.3363
  963MOL0     H32855   9.279  12.681   0.565  0.6144  2.6299  1.3091
  963MOL0     H32856   9.561  12.964   0.160  0.8669 -0.2598 -1.6361
  963MOL0     H32857   9.668  13.160   0.111  1.4640 -2.1646 -0.1920
  963MOL0     H32858   9.599  13.321  -0.305 -1.1073 -2.7249  2.1410
  963MOL0     H32859   9.519  13.463  -0.217  2.0435  1.1566  5.9391
  963MOL0     H32860   9.717  13.536  -0.354 -1.3552  1.5161 -0.0831
  963MOL0     H32861   9.738  13.565  -0.185 -1.1575 -1.3417  0.3484
  963MOL0     H32862   9.843  13.333  -0.170 -2.2555  0.5585  0.2995
  963MOL0     H32863   9.937  13.481  -0.216 -1.2752  2.2659  0.0497
  963MOL0     H32864   9.940  13.424  -0.448  1.7178 -1.6932 -1.3129
  963MOL0     H32865   9.787  13.325  -0.436  0.0349  1.0922  0.3295
  963MOL0     H32866   9.918  13.154  -0.318 -3.7213 -0.4281 -2.7857
  963MOL0     H32867   9.967  13.172  -0.483 -1.2033 -0.4251 -0.1876
  963MOL0     H32868  10.168  13.163  -0.302  0.8416 -1.2804 -1.5984
  963MOL0     H32869  10.119  13.311  -0.246  1.9764 -1.7278  0.7868
  963MOL0     H32870  10.131  13.363  -0.529 -1.3943 -0.9750 -0.4314
  963MOL0     H32871  10.272  13.268  -0.482  1.4140  4.4078 -1.5488
  963MOL0     H32872  10.326  13.499  -0.477  2.0555 -1.5494  0.4488
  963MOL0     H32873  10.313  13.451  -0.304 -0.4480  0.4959 -0.4116
  963MOL0     H32874   9.399  13.250  -0.214 -1.5304  3.4654  2.8608
  963MOL0     H32875   9.264  13.050  -0.149 -0.8133 -0.0981  0.6551
  963MOL0     H32876   9.193  12.659   0.011  1.7537 -0.2601 -0.0898
  963MOL0     H32877   9.063  12.468   0.056 -0.9065 -1.5610 -0.0847
  963MOL0     H32878   8.155  11.182   0.489  0.0179  0.6452  1.4920
  963MOL0     H32879   8.145  11.020   0.319 -2.2868  1.5604 -0.2504
  963MOL0     H32880   8.075  10.504   0.285  1.3438 -2.8957  0.4521
  963MOL0     H32881   8.053  10.314   0.129 -0.0684  0.2100  0.5909
  963MOL0     H32882   8.081  10.270  -0.112  1.4362 -1.2847 -0.1147
  963MOL0     H32883   7.975  10.135  -0.045  1.6005  1.0453  1.6017
  963MOL0     H32884   7.875  10.086  -0.249  0.9912 -2.7646 -0.7889
  963MOL0     H32885   8.048  10.072  -0.270  0.8333  0.5741 -1.0436
  963MOL0     H32886   8.005  10.335  -0.355 -0.9341  0.0079  2.0121
  963MOL0     H32887   8.001  10.186  -0.454  0.8134  0.1316 -0.3700
  963MOL0     H32888   7.786  10.391  -0.361  1.1117  1.4523 -1.6622
  963MOL0     H32889   7.737  10.221  -0.392 -1.6862  0.3919 -1.0673
  963MOL0     H32890   7.753  10.345  -0.784  1.4322 -0.5289  0.1759
  963MOL0     H32891   7.782  10.539  -0.122 -2.1394 -0.3544  0.3126
  963MOL0     H32892   7.828  10.839   0.007 -1.9343  2.1153  3.4693
  963MOL0     H32893   7.678  10.755  -0.025 -1.9710  0.3837  1.4028
  963MOL0     H32894   7.715  10.804   0.134  0.6475 -1.2202  1.0600
  964MOL0     O32895   7.183   9.272   8.251  0.0888  0.1695  0.5560
  964MOL0     C32896   7.107   9.287   8.348  0.1967 -0.9263 -0.4566
  964MOL0     O32897   7.048   9.399   8.377 -0.6996 -0.1372  0.4310
  964MOL0     C32898   7.038   9.487   8.274  0.7442 -0.1289 -0.0108
  964MOL0     C32899   6.950   9.446   8.174 -0.0089  0.8982 -0.1909
  964MOL0     C32900   6.912   9.537   8.069 -0.5480 -0.8147 -0.7028
  964MOL0     C32901   6.985   9.664   8.071  0.0129 -0.0455 -1.3739
  964MOL0     O32902   6.945   9.744   7.970 -0.4384 -0.1140  0.6493
  964MOL0     C32903   6.956   9.888   7.983 -0.3611  0.5113 -0.7437
  964MOL0     C32904   6.869   9.947   7.873 -0.5347  0.3925 -0.1007
  964MOL0     C32905   6.931   9.934   7.723  0.7280  0.3555 -0.0911
  964MOL0     C32906   7.046  10.030   7.689  0.3125 -0.6015 -0.1269
  964MOL0     C32907   7.086  10.022   7.541  0.1039  0.6998 -0.3879
  964MOL0     C32908   7.208  10.097   7.494  0.3026 -0.2210  0.5715
  964MOL0     C32909   7.194  10.242   7.532  0.7261  0.4482 -0.2098
  964MOL0     C32910   7.279  10.341   7.447 -0.0762  0.6238  0.0010
  964MOL0     N32911   7.241  10.480   7.481 -0.8743  0.3491 -0.8450
  964MOL0     C32912   7.248  10.531   7.611  0.0420  0.7393  0.6980
  964MOL0     C32913   7.192  10.655   7.616 -0.2577 -0.2034  0.5007
  964MOL0     C32914   7.158  10.743   7.737  0.3699  0.4372 -0.1565
  964MOL0     C32915   7.239  10.877   7.727  0.4024 -0.7614 -0.2525
  964MOL0     C32916   7.387  10.855   7.724 -0.2646  0.3036 -0.5323
  964MOL0     C32917   7.456  10.929   7.834 -0.4730  0.7301 -0.6520
  964MOL0     O32918   7.596  10.900   7.830  0.6019  0.6413 -0.8278
  964MOL0     C32919   7.684  10.948   7.923  0.0597 -0.0837  0.3913
  964MOL0     C32920   7.727  10.859   8.019  0.1941  0.2957 -0.4795
  964MOL0     C32921   7.821  10.894   8.120 -0.1910 -0.2520  1.0051
  964MOL0     C32922   7.867  10.779   8.211 -0.1088 -0.8930  0.3120
  964MOL0     C32923   7.861  11.031   8.122 -1.0956  0.2159 -0.4786
  964MOL0     C32924   7.955  11.086   8.226 -0.2745  0.1712 -0.2364
  964MOL0     O32925   7.952  11.223   8.247  0.1972  0.1282 -0.3809
  964MOL0     C32926   8.045  11.290   8.332  1.0664 -0.7038 -0.0218
  964MOL0     C32927   8.181  11.278   8.296 -0.0511  0.0688  0.6747
  964MOL0     C32928   8.283  11.338   8.371 -0.5732 -0.4535  0.2481
  964MOL0     C32929   8.245  11.432   8.466 -0.5347  0.0894 -0.8990
  964MOL0     O32930   8.359  11.488   8.531  0.3115  0.8133  0.2072
  964MOL0     C32931   8.320  11.594   8.628 -0.3448  0.1629  0.3169
  964MOL0     C32932   8.439  11.656   8.692  0.1668 -0.2094  0.2401
  964MOL0     C32933   8.494  11.769   8.607  0.3911 -0.7572 -0.5812
  964MOL0     C32934   8.464  11.906   8.648  0.5378 -0.8677  0.4616
  964MOL0     C32935   8.312  11.924   8.652 -0.1488  0.4219 -0.6898
  964MOL0     C32936   8.279  12.065   8.695 -0.2846 -0.6043 -0.1397
  964MOL0     C32937   8.323  12.176   8.594 -0.2464  0.4425  0.0455
  964MOL0     C32938   8.266  12.312   8.617  0.1165  0.0862 -0.1586
  964MOL0    Cl32939   8.118  12.357   8.520 -0.1460 -0.0322  0.0114
  964MOL0     C32940   8.116  11.466   8.498  0.7711  0.4222  0.2442
  964MOL0     C32941   8.014  11.390   8.424 -0.3373  0.0571 -0.4060
  964MOL0     O32942   8.031  11.008   8.280 -0.1065 -0.1443 -1.4991
  964MOL0     C32943   7.800  11.124   8.042  0.2188  0.6318  0.8559
  964MOL0     C32944   7.713  11.081   7.937 -0.3625 -0.4267 -0.5270
  964MOL0     N32945   7.165  10.679   7.479  0.7872 -0.2931  0.5786
  964MOL0     N32946   7.201  10.579   7.398  0.6172 -0.2823  0.8022
  964MOL0     C32947   7.057   9.701   8.186 -0.1140 -0.0232  0.1120
  964MOL0     C32948   7.088   9.617   8.284  0.3208  0.4589 -0.7313
  964MOL0     C32949   7.092   9.175   8.441  0.1607 -0.7955  0.2475
  964MOL0     C32950   7.069   9.210   8.575 -0.7227  0.6787 -0.1538
  964MOL0     C32951   7.065   9.101   8.668 -0.1542  0.3245  0.1787
  964MOL0     C32952   7.068   8.973   8.630  1.0502  0.7617 -0.7900
  964MOL0     O32953   7.066   8.880   8.734 -0.6694  0.9126  0.5295
  964MOL0     C32954   7.066   8.738   8.689  0.1130  0.6281  0.4300
  964MOL0     C32955   7.200   8.703   8.630 -1.1526 -0.6276  0.3860
  964MOL0     C32956   7.218   8.557   8.601  0.7698 -0.0038 -0.1677
  964MOL0     C32957   7.200   8.460   8.714  0.3881  0.8561 -0.0169
  964MOL0     C32958   7.217   8.326   8.648 -0.7628  0.7107 -0.2672
  964MOL0     C32959   7.234   8.222   8.588 -0.1285  0.2676  0.4610
  964MOL0     C32960   7.056   8.943   8.492  0.0469 -0.1789 -0.3558
  964MOL0     C32961   7.073   9.042   8.391 -0.6837 -0.4387  0.1218
  964MOL0     C32962   7.075   9.012   8.243 -0.3379  0.3833 -0.0999
  964MOL0     H32963   6.909   9.346   8.177 -1.7336  1.5039 -1.5130
  964MOL0     H32964   6.859   9.497   7.984 -1.8238  1.5518 -1.1050
  964MOL0     H32965   7.056   9.932   7.983 -0.6975  1.3156  0.1227
  964MOL0     H32966   6.908   9.926   8.074  2.6221  0.2165  1.1008
  964MOL0     H32967   6.768   9.908   7.860 -0.1039  0.1515 -3.6039
  964MOL0     H32968   6.861  10.054   7.895 -1.3405 -0.0510  1.9553
  964MOL0     H32969   6.968   9.831   7.724  3.9438  1.4084  1.3431
  964MOL0     H32970   6.849   9.933   7.650  0.2507  2.7582  0.3457
  964MOL0     H32971   7.036  10.135   7.716  0.5308 -0.3410 -1.0163
  964MOL0     H32972   7.133   9.992   7.741  0.5358 -1.5414 -1.1354
  964MOL0     H32973   6.999  10.038   7.477  0.8500 -0.1187 -1.6545
  964MOL0     H32974   7.110   9.915   7.538 -1.3309  0.3447 -3.3017
  964MOL0     H32975   7.294  10.047   7.540  0.2377 -0.7960  0.0854
  964MOL0     H32976   7.217  10.089   7.385 -0.7589  1.0162  0.3697
  964MOL0     H32977   7.233  10.250   7.634  0.0340  2.7306 -0.0646
  964MOL0     H32978   7.093  10.284   7.535  1.0916  1.5702 -2.1874
  964MOL0     H32979   7.384  10.325   7.474 -0.1796 -1.3471 -0.5817
  964MOL0     H32980   7.259  10.321   7.341 -1.1952 -1.2742  0.5335
  964MOL0     H32981   7.283  10.475   7.697 -0.9333  0.2004  0.7610
  964MOL0     H32982   7.186  10.694   7.831  0.6272  0.8929  0.0082
  964MOL0     H32983   7.051  10.763   7.744  0.3189  0.2907 -0.5231
  964MOL0     H32984   7.195  10.932   7.644 -1.1310 -2.0087 -0.3339
  964MOL0     H32985   7.203  10.938   7.811  1.9072 -1.1196  0.7004
  964MOL0     H32986   7.403  10.748   7.743 -0.3709  0.5393  0.9577
  964MOL0     H32987   7.434  10.879   7.628  3.3805 -0.5063  0.8916
  964MOL0     H32988   7.428  11.035   7.838 -4.0308 -0.0718 -0.5408
  964MOL0     H32989   7.421  10.901   7.934  3.0087 -0.6058  0.3280
  964MOL0     H32990   7.677  10.763   8.013 -2.5402  1.5549  0.3330
  964MOL0     H32991   7.814  10.684   8.196  0.7726 -1.3336 -0.0953
  964MOL0     H32992   7.860  10.809   8.316 -0.7774 -3.9210  1.2377
  964MOL0     H32993   7.976  10.771   8.201 -0.3449 -2.5625 -1.7178
  964MOL0     H32994   8.197  11.218   8.208 -1.4871  1.5147 -0.6478
  964MOL0     H32995   8.386  11.331   8.339 -1.6884 -3.3497 -3.4765
  964MOL0     H32996   8.263  11.676   8.584 -0.7481  0.0364  0.5866
  964MOL0     H32997   8.263  11.544   8.708  2.2209 -1.6564  1.1229
  964MOL0     H32998   8.407  11.705   8.785  1.0248  0.2821  0.2921
  964MOL0     H32999   8.513  11.584   8.729 -0.5280 -0.1883  1.7305
  964MOL0     H33000   8.462  11.752   8.504 -1.9512  1.5327 -0.3261
  964MOL0     H33001   8.604  11.770   8.600  0.4646  0.1531  0.4250
  964MOL0     H33002   8.521  11.979   8.589 -2.1721  1.8708  0.9749
  964MOL0     H33003   8.499  11.921   8.751  0.5037  1.7707  0.1714
  964MOL0     H33004   8.262  11.915   8.556  0.6296  1.1648 -1.1834
  964MOL0     H33005   8.265  11.860   8.728 -1.7943 -1.5209 -3.1858
  964MOL0     H33006   8.336  12.080   8.787  0.1017  2.4671 -0.7778
  964MOL0     H33007   8.171  12.080   8.702 -0.3458 -0.0103 -1.8088
  964MOL0     H33008   8.303  12.145   8.491  1.3104 -0.3483 -0.0439
  964MOL0     H33009   8.431  12.195   8.597 -0.2542  0.5866  3.5368
  964MOL0     H33010   8.339  12.386   8.583 -0.9392  1.5115  0.5636
  964MOL0     H33011   8.271  12.332   8.724  3.9436 -2.4639  0.3208
  964MOL0     H33012   8.094  11.538   8.576 -0.1028  0.9222 -0.4608
  964MOL0     H33013   7.912  11.413   8.452 -0.0439  0.1519  0.6191
  964MOL0     H33014   7.824  11.229   8.059  4.5517 -0.0227 -0.1734
  964MOL0     H33015   7.668  11.158   7.875 -2.7540 -0.3258  1.1837
  964MOL0     H33016   7.105   9.796   8.207  0.9696 -0.5933  0.2781
  964MOL0     H33017   7.159   9.649   8.360 -0.9213  1.6380 -0.0395
  964MOL0     H33018   7.086   9.314   8.597 -0.0859  0.8781 -1.4597
  964MOL0     H33019   7.069   9.127   8.773 -0.6526  4.5269 -0.6588
  964MOL0     H33020   7.037   8.677   8.775 -0.0145  1.1014  0.7276
  964MOL0     H33021   6.989   8.708   8.616  0.3576 -0.7506  0.7149
  964MOL0     H33022   7.280   8.734   8.697 -0.2534  2.1422 -1.7740
  964MOL0     H33023   7.216   8.762   8.539 -2.0713  1.0606  1.2883
  964MOL0     H33024   7.150   8.539   8.516 -1.6285  1.5020  1.3138
  964MOL0     H33025   7.324   8.563   8.578  1.1502  0.7678  1.6634
  964MOL0     H33026   7.100   8.459   8.758  0.9488 -4.6221  1.8974
  964MOL0     H33027   7.276   8.472   8.791 -0.6746  1.6134  0.9310
  964MOL0     H33028   7.242   8.133   8.529 -0.1373  1.2687 -1.1138
  964MOL0     H33029   7.037   8.841   8.460  2.3336 -0.8921  0.3760
  964MOL0     H33030   7.033   8.912   8.239 -0.8861  0.4787  2.1905
  964MOL0     H33031   6.991   9.071   8.205 -0.9757  0.8837  1.9706
  964MOL0     H33032   7.173   9.035   8.199  0.3292  1.3583  1.7714
  965MOL0     O33033  11.238   3.414   8.000 -0.9124 -0.1223  0.7495
  965MOL0     C33034  11.267   3.494   8.087 -0.0741 -0.7387  0.7014
  965MOL0     O33035  11.381   3.491   8.164  0.0108 -0.3108 -0.2852
  965MOL0     C33036  11.467   3.382   8.151  0.2889  0.7833 -0.6777
  965MOL0     C33037  11.599   3.397   8.186 -0.3026 -0.5908  0.9368
  965MOL0     C33038  11.687   3.283   8.198  0.5354 -0.6316 -0.1476
  965MOL0     C33039  11.636   3.158   8.202  0.3978  0.2869 -0.3151
  965MOL0     O33040  11.705   3.047   8.229  0.0751 -0.8531 -0.3250
  965MOL0     C33041  11.847   3.043   8.222 -0.4202 -0.0291 -0.4976
  965MOL0     C33042  11.886   2.901   8.257  0.1163  0.5585 -0.5511
  965MOL0     C33043  11.831   2.782   8.165  0.1600 -0.1594 -0.4351
  965MOL0     C33044  11.833   2.812   8.012  0.0267 -0.6503  0.9741
  965MOL0     C33045  11.802   2.702   7.915  0.9331 -0.5136 -0.0926
  965MOL0     C33046  11.677   2.623   7.939  0.5422  0.5446 -0.1786
  965MOL0     C33047  11.652   2.523   7.822 -0.4047 -0.8182 -0.3256
  965MOL0     C33048  11.537   2.429   7.854 -0.1924  0.6354 -0.6714
  965MOL0     N33049  11.603   2.325   7.937  0.6400 -1.1901 -0.8173
  965MOL0     C33050  11.591   2.321   8.071  0.2955 -0.4670  0.3963
  965MOL0     C33051  11.663   2.211   8.103  0.4119 -0.0243  0.9868
  965MOL0     C33052  11.674   2.159   8.235 -0.2088  0.0480 -0.9580
  965MOL0     C33053  11.605   2.016   8.252  0.0607 -0.7868 -0.4818
  965MOL0     C33054  11.646   1.939   8.381 -0.1671  1.1145 -0.3112
  965MOL0     C33055  11.622   1.784   8.368 -0.8343  0.4614  0.4830
  965MOL0     O33056  11.484   1.746   8.362 -0.5692  0.4717 -0.7357
  965MOL0     C33057  11.449   1.628   8.300  0.7044  0.0159  0.2801
  965MOL0     C33058  11.332   1.626   8.218 -0.1147 -0.0203  0.3919
  965MOL0     C33059  11.286   1.511   8.154  0.6660  0.2121  0.4545
  965MOL0     C33060  11.151   1.516   8.078  0.1840 -0.4119  0.3891
  965MOL0     C33061  11.362   1.393   8.171 -0.4305  0.0190  0.1875
  965MOL0     C33062  11.332   1.282   8.089  1.0889 -0.3871  0.3323
  965MOL0     O33063  11.359   1.167   8.158 -0.7364 -0.6381 -0.5104
  965MOL0     C33064  11.362   1.044   8.102  0.4981 -0.3655  0.0175
  965MOL0     C33065  11.270   1.005   8.006  0.0287 -0.7262  0.0518
  965MOL0     C33066  11.294   0.874   7.956  0.5431  0.1106 -1.4983
  965MOL0     C33067  11.372   0.775   8.028  0.8035  0.3300 -0.0893
  965MOL0     O33068  11.349   0.650   7.980  0.5190  0.2324 -0.0185
  965MOL0     C33069  11.454   0.559   7.981  0.7986 -0.3604 -0.0206
  965MOL0     C33070  11.575   0.620   7.903  0.4614 -0.2577 -0.1374
  965MOL0     C33071  11.680   0.516   7.894  0.3895  1.1569 -0.2815
  965MOL0     C33072  11.812   0.590   7.858 -0.9787  0.1925 -0.6309
  965MOL0     C33073  11.936   0.509   7.881  0.0010  1.3530  0.0314
  965MOL0     C33074  11.977   0.514   8.031  0.7251  0.8345  0.0939
  965MOL0     C33075  12.114   0.435   8.054  0.1198  0.1253  0.0206
  965MOL0     C33076  12.240   0.528   8.034 -0.2323 -0.4888  0.6849
  965MOL0    Cl33077  12.240   0.660   8.157  0.3649  0.0265  0.6989
  965MOL0     C33078  11.449   0.816   8.134  0.0886 -1.2309 -0.4951
  965MOL0     C33079  11.444   0.950   8.169 -0.3765 -0.9520 -0.7477
  965MOL0     O33080  11.298   1.285   7.975 -0.1221  0.3651  0.4055
  965MOL0     C33081  11.479   1.396   8.258 -0.1585  0.0901  0.3744
  965MOL0     C33082  11.518   1.509   8.329 -0.0527 -0.8785  0.0192
  965MOL0     N33083  11.733   2.165   7.990  0.1687 -0.1170  0.5915
  965MOL0     N33084  11.681   2.232   7.891 -1.3035  0.1754 -0.2881
  965MOL0     C33085  11.497   3.141   8.176  0.3212 -0.2035 -0.0997
  965MOL0     C33086  11.413   3.249   8.153  0.1012  0.4382  0.4208
  965MOL0     C33087  11.191   3.622   8.104  0.4575 -0.3491  0.1220
  965MOL0     C33088  11.265   3.736   8.128 -0.4648 -0.2419  0.3283
  965MOL0     C33089  11.211   3.866   8.114 -0.0120 -0.3507 -0.1249
  965MOL0     C33090  11.071   3.883   8.102  0.4214  0.9798  0.3397
  965MOL0     O33091  11.002   4.002   8.082 -0.1396  0.5357 -0.4315
  965MOL0     C33092  11.060   4.130   8.117  0.4118 -0.7617  0.3866
  965MOL0     C33093  10.942   4.232   8.120 -0.0355  1.0314  0.0999
  965MOL0     C33094  10.990   4.368   8.142 -0.6272  0.0315 -0.5373
  965MOL0     C33095  10.881   4.466   8.150  0.3097  0.3302 -0.3144
  965MOL0     C33096  10.803   4.491   8.025 -0.0523  0.1138 -0.6869
  965MOL0     C33097  10.773   4.522   7.913  0.3018  0.2056  1.2047
  965MOL0     C33098  10.995   3.763   8.092  0.3402 -0.2604  0.6779
  965MOL0     C33099  11.051   3.633   8.093  0.4118 -0.3436 -0.1482
  965MOL0     C33100  10.955   3.521   8.079 -1.2819  0.4986  0.7342
  965MOL0     H33101  11.643   3.495   8.199 -2.1949  0.7817 -2.0613
  965MOL0     H33102  11.791   3.308   8.214  1.0529 -1.4480 -2.0256
  965MOL0     H33103  11.886   3.116   8.294  0.4527 -1.5360  0.6219
  965MOL0     H33104  11.883   3.071   8.123  0.3414 -1.2262 -0.5912
  965MOL0     H33105  11.994   2.891   8.250  0.1018  0.4230 -0.5940
  965MOL0     H33106  11.857   2.887   8.362  3.9191  1.1863  0.7276
  965MOL0     H33107  11.884   2.688   8.185  0.6884  0.3044  0.4465
  965MOL0     H33108  11.731   2.757   8.203  1.4945 -1.3917  2.6301
  965MOL0     H33109  11.752   2.883   7.997 -1.4406 -2.8091 -2.7302
  965MOL0     H33110  11.932   2.851   7.988 -0.7805  0.3960 -0.7760
  965MOL0     H33111  11.884   2.631   7.913  0.7421 -0.7712  0.8030
  965MOL0     H33112  11.792   2.760   7.823  0.6224 -0.1115  0.1885
  965MOL0     H33113  11.701   2.557   8.023 -4.2722 -1.1014  0.2070
  965MOL0     H33114  11.583   2.670   7.969 -1.3402 -1.9019 -1.8063
  965MOL0     H33115  11.747   2.481   7.789  1.9853  1.2414  3.1800
  965MOL0     H33116  11.602   2.577   7.741 -2.3377  1.8106  2.3731
  965MOL0     H33117  11.450   2.469   7.908  0.3629  0.2589  0.5512
  965MOL0     H33118  11.501   2.387   7.760  3.6747 -2.4299 -1.0504
  965MOL0     H33119  11.531   2.386   8.133  2.1597  0.3677  1.3879
  965MOL0     H33120  11.625   2.235   8.297 -0.2353 -0.2213 -0.6438
  965MOL0     H33121  11.780   2.168   8.263 -0.3156  2.1552 -1.0480
  965MOL0     H33122  11.497   2.030   8.250 -0.3676  0.0076  6.0853
  965MOL0     H33123  11.640   1.948   8.174 -0.7265  0.3984 -1.9053
  965MOL0     H33124  11.753   1.957   8.387  0.1784 -0.5211 -0.8696
  965MOL0     H33125  11.610   1.979   8.476  2.3664 -2.6146  2.5021
  965MOL0     H33126  11.678   1.754   8.280 -0.9568  3.5164 -0.7472
  965MOL0     H33127  11.670   1.731   8.451 -0.3493 -3.0081 -1.8508
  965MOL0     H33128  11.260   1.707   8.221 -0.4370 -0.2194 -1.0704
  965MOL0     H33129  11.096   1.604   8.111  1.3498 -0.8726  3.9517
  965MOL0     H33130  11.090   1.426   8.095  3.1120 -2.0289  3.5688
  965MOL0     H33131  11.163   1.533   7.970 -1.8527 -0.8778  0.0517
  965MOL0     H33132  11.201   1.082   7.973  0.7565  0.8691  2.0781
  965MOL0     H33133  11.240   0.850   7.865  1.0967  1.3000 -2.1608
  965MOL0     H33134  11.475   0.530   8.085 -0.6477  0.2456  0.4687
  965MOL0     H33135  11.441   0.464   7.928  0.0089  0.6498 -1.7162
  965MOL0     H33136  11.557   0.660   7.803 -0.1715 -1.2642 -0.4318
  965MOL0     H33137  11.618   0.706   7.956  0.7174  0.1011 -0.9071
  965MOL0     H33138  11.654   0.427   7.837  2.8821 -0.6657  1.2085
  965MOL0     H33139  11.692   0.478   7.996 -4.9992  2.4965  1.1398
  965MOL0     H33140  11.817   0.689   7.902 -2.1350 -1.0219  2.5024
  965MOL0     H33141  11.812   0.603   7.749 -1.8698  1.4502 -0.5052
  965MOL0     H33142  11.931   0.409   7.837  2.6246  1.2644 -0.2233
  965MOL0     H33143  12.017   0.563   7.831 -1.9532  2.5789 -1.9949
  965MOL0     H33144  11.902   0.453   8.081  4.3467 -3.4269  1.0262
  965MOL0     H33145  11.984   0.614   8.075 -0.1364  0.6471  0.6750
  965MOL0     H33146  12.113   0.343   7.994  1.2908 -0.0597  0.2717
  965MOL0     H33147  12.112   0.401   8.158  1.2455 -2.1338 -0.6350
  965MOL0     H33148  12.257   0.565   7.932  2.3887  1.1139  1.5990
  965MOL0     H33149  12.325   0.461   8.047  0.1899  0.3794  2.8358
  965MOL0     H33150  11.508   0.734   8.172 -2.7801 -2.7763  0.9534
  965MOL0     H33151  11.508   0.993   8.245  0.9439 -0.2352 -2.2142
  965MOL0     H33152  11.537   1.305   8.263  0.9512  0.8271  1.2489
  965MOL0     H33153  11.602   1.501   8.396  0.5464  1.2409 -0.3980
  965MOL0     H33154  11.446   3.045   8.181 -0.6407  0.3735  1.8509
  965MOL0     H33155  11.307   3.230   8.145  0.4337 -3.1858  2.4485
  965MOL0     H33156  11.373   3.734   8.134 -0.5082 -3.2935  1.5986
  965MOL0     H33157  11.272   3.956   8.117 -0.0178 -0.3229 -0.7447
  965MOL0     H33158  11.110   4.109   8.211  2.1198  2.0100  0.2170
  965MOL0     H33159  11.145   4.160   8.054 -1.2890  2.5856 -0.5686
  965MOL0     H33160  10.860   4.206   8.188 -0.5681  1.5725 -0.3219
  965MOL0     H33161  10.892   4.227   8.023 -1.4551  0.6085  0.8294
  965MOL0     H33162  11.045   4.374   8.236 -3.4557  1.0275  1.1984
  965MOL0     H33163  11.069   4.398   8.073  0.8165 -0.4276  0.8591
  965MOL0     H33164  10.916   4.563   8.189 -3.0991  2.0343 -1.0610
  965MOL0     H33165  10.804   4.437   8.223 -0.3939  3.7071  0.5097
  965MOL0     H33166  10.762   4.560   7.813 -1.8558 -0.5763  1.0902
  965MOL0     H33167  10.888   3.782   8.086  0.5257  1.3559  1.8462
  965MOL0     H33168  10.925   3.510   7.975  0.3161 -2.8711  0.5084
  965MOL0     H33169  10.990   3.421   8.105 -1.6230  0.0521 -0.4622
  965MOL0     H33170  10.869   3.540   8.144 -1.7903 -2.1705  0.9428
  966MOL0     O33171   2.285   2.003   1.769  0.0466 -0.3785  0.5023
  966MOL0     C33172   2.351   1.950   1.678 -0.0849 -0.3045  0.6592
  966MOL0     O33173   2.343   1.823   1.634 -0.3090  0.5655 -0.9717
  966MOL0     C33174   2.279   1.742   1.726 -0.0559 -0.2080  0.9136
  966MOL0     C33175   2.139   1.744   1.728  0.1385 -0.1042  0.7758
  966MOL0     C33176   2.063   1.670   1.812 -0.1026 -0.1900  0.7727
  966MOL0     C33177   2.129   1.595   1.908  0.0072  0.0700 -0.2739
  966MOL0     O33178   2.054   1.512   1.984 -0.1244  0.1717 -0.1758
  966MOL0     C33179   2.094   1.501   2.121  1.2086  0.3470 -0.4107
  966MOL0     C33180   1.994   1.421   2.206 -0.2548  0.3039  0.3132
  966MOL0     C33181   2.001   1.459   2.356 -0.2802 -0.1869 -0.3027
  966MOL0     C33182   1.898   1.571   2.394 -1.0432  0.9394  0.0374
  966MOL0     C33183   1.911   1.626   2.536 -0.1992  0.1152 -0.1200
  966MOL0     C33184   1.793   1.716   2.571  0.6275  0.8664 -0.5931
  966MOL0     C33185   1.807   1.783   2.712  0.0853  0.4616  0.7037
  966MOL0     C33186   1.670   1.852   2.751  0.5582 -0.0646 -0.2662
  966MOL0     N33187   1.677   1.950   2.867  0.0485  0.2588 -0.6651
  966MOL0     C33188   1.721   2.082   2.853  0.6392 -0.2097 -0.0200
  966MOL0     C33189   1.716   2.139   2.978 -0.3837  0.8654 -0.2661
  966MOL0     C33190   1.729   2.281   3.015 -0.2853  0.0639  0.2224
  966MOL0     C33191   1.861   2.343   2.960  0.8459  0.0979 -0.5581
  966MOL0     C33192   1.995   2.291   3.008  0.7209 -0.0365 -0.6640
  966MOL0     C33193   2.035   2.337   3.150  0.5103 -0.7132  0.3776
  966MOL0     O33194   2.175   2.317   3.182  0.1079 -0.1041 -0.2107
  966MOL0     C33195   2.213   2.183   3.203  1.5120 -0.6571 -0.1891
  966MOL0     C33196   2.342   2.148   3.212  0.0353 -0.5142 -0.6998
  966MOL0     C33197   2.391   2.030   3.254 -0.2580 -0.4487 -0.8979
  966MOL0     C33198   2.544   2.024   3.254 -0.0501 -0.7706  0.6306
  966MOL0     C33199   2.293   1.924   3.293 -0.2938 -0.2363  0.0695
  966MOL0     C33200   2.328   1.790   3.348  0.3053  1.1785 -0.2038
  966MOL0     O33201   2.232   1.701   3.367  0.1786 -0.1576 -0.2194
  966MOL0     C33202   2.260   1.569   3.357 -0.6144 -0.9270 -0.5398
  966MOL0     C33203   2.346   1.510   3.449  1.1328  0.3824 -0.0031
  966MOL0     C33204   2.379   1.377   3.458  0.4593  0.3762 -0.0596
  966MOL0     C33205   2.301   1.289   3.378 -0.2361  0.1977  0.7040
  966MOL0     O33206   2.338   1.157   3.383  0.8023 -0.2507 -0.1102
  966MOL0     C33207   2.345   1.089   3.262  0.1472 -0.3089 -0.0042
  966MOL0     C33208   2.409   0.955   3.291  0.2791 -0.8158 -0.0534
  966MOL0     C33209   2.532   0.962   3.373 -0.8988 -0.2262 -0.1447
  966MOL0     C33210   2.498   0.918   3.524  0.5121 -0.5847  1.6267
  966MOL0     C33211   2.481   0.767   3.531 -0.0633 -0.0134  0.0544
  966MOL0     C33212   2.617   0.698   3.535 -0.5380  0.1889 -0.5698
  966MOL0     C33213   2.614   0.532   3.543 -0.5329 -0.2360  0.1821
  966MOL0     C33214   2.760   0.484   3.512 -0.1067  0.2658 -0.8588
  966MOL0    Cl33215   2.740   0.309   3.485  0.1616  0.0239  0.3782
  966MOL0     C33216   2.199   1.340   3.306  0.6451 -1.0368 -0.1375
  966MOL0     C33217   2.172   1.481   3.298  0.0083 -0.5223 -0.7071
  966MOL0     O33218   2.442   1.786   3.390  0.2064  0.1434  0.4786
  966MOL0     C33219   2.157   1.958   3.281  0.5337 -0.0365 -0.2186
  966MOL0     C33220   2.121   2.078   3.246  0.2058 -0.8079 -0.0253
  966MOL0     N33221   1.682   2.041   3.063  0.2850  0.2727 -0.4426
  966MOL0     N33222   1.660   1.928   3.000 -0.2445  0.8201 -0.6851
  966MOL0     C33223   2.268   1.578   1.890 -0.8749 -0.1773 -1.1490
  966MOL0     C33224   2.350   1.660   1.813  0.6964  0.2172  1.0915
  966MOL0     C33225   2.444   2.036   1.596 -0.2582  0.4275 -0.5691
  966MOL0     C33226   2.467   2.000   1.459 -0.0218 -0.7315  1.4146
  966MOL0     C33227   2.540   2.093   1.374  0.6532 -0.2686 -0.0699
  966MOL0     C33228   2.626   2.184   1.432  0.1981  0.9558  0.7602
  966MOL0     O33229   2.699   2.263   1.352  0.2978 -0.1994 -0.4334
  966MOL0     C33230   2.790   2.358   1.410  0.7008 -0.2420  0.2701
  966MOL0     C33231   2.845   2.453   1.312 -0.7715 -0.9299 -0.1020
  966MOL0     C33232   2.918   2.570   1.371  0.1576 -0.2076 -0.0970
  966MOL0     C33233   3.044   2.529   1.463 -1.0913 -0.0845 -0.4100
  966MOL0     C33234   3.138   2.436   1.382  0.0921  0.5577 -0.7036
  966MOL0     C33235   3.225   2.357   1.332  0.7767 -0.1238  0.1867
  966MOL0     C33236   2.630   2.189   1.572 -0.4142 -1.0352  0.5106
  966MOL0     C33237   2.541   2.123   1.656  0.8309  0.1708 -0.0503
  966MOL0     C33238   2.548   2.154   1.806 -0.1604 -0.0739 -0.4757
  966MOL0     H33239   2.092   1.817   1.662  0.1672 -0.8249 -0.0612
  966MOL0     H33240   1.955   1.686   1.819 -0.0503  2.6250 -2.4898
  966MOL0     H33241   2.117   1.605   2.147 -0.9201  0.7784 -0.1368
  966MOL0     H33242   2.195   1.459   2.129  0.2532 -2.0770 -0.1160
  966MOL0     H33243   1.892   1.435   2.169 -0.5237  1.4929  1.4201
  966MOL0     H33244   2.012   1.313   2.201 -3.1735 -0.2575  0.2413
  966MOL0     H33245   1.981   1.370   2.416 -0.0204  0.9903  1.6078
  966MOL0     H33246   2.101   1.491   2.386 -0.5655 -0.5528  1.1064
  966MOL0     H33247   1.891   1.651   2.319 -0.3648  0.0514 -1.0153
  966MOL0     H33248   1.803   1.517   2.395 -0.4466 -0.1198  0.4909
  966MOL0     H33249   1.999   1.690   2.527  1.0081 -1.6708 -2.0689
  966MOL0     H33250   1.931   1.544   2.606  1.4674 -0.6176 -1.3805
  966MOL0     H33251   1.778   1.798   2.501  1.5859  1.4293 -0.1515
  966MOL0     H33252   1.703   1.654   2.574  0.8789  0.4809 -0.9275
  966MOL0     H33253   1.885   1.860   2.718  0.5787 -0.1235  2.1800
  966MOL0     H33254   1.833   1.704   2.782  0.0972  3.1573  4.0178
  966MOL0     H33255   1.631   1.901   2.661 -2.5560 -0.7685  0.5746
  966MOL0     H33256   1.607   1.771   2.789  2.6172 -0.6580  2.1127
  966MOL0     H33257   1.716   2.135   2.758 -1.7361  0.0340  0.1714
  966MOL0     H33258   1.725   2.291   3.124  0.7084  1.1575  0.1836
  966MOL0     H33259   1.640   2.321   2.967 -2.6136 -2.5652  2.0573
  966MOL0     H33260   1.878   2.332   2.853  3.7867  0.1293 -0.1788
  966MOL0     H33261   1.863   2.450   2.981 -1.4238 -0.2988  2.3761
  966MOL0     H33262   1.990   2.182   3.007  1.3617 -0.0773 -0.4130
  966MOL0     H33263   2.080   2.320   2.946  2.6807  3.6696  3.1878
  966MOL0     H33264   2.027   2.446   3.162 -3.0145 -0.7275 -0.7884
  966MOL0     H33265   1.968   2.285   3.219  0.8501  0.1519  1.4047
  966MOL0     H33266   2.411   2.228   3.187  1.6340 -1.6144 -0.0357
  966MOL0     H33267   2.588   2.119   3.225 -1.4851 -0.3702 -0.3410
  966MOL0     H33268   2.586   1.952   3.182 -0.7276  0.2964 -0.8707
  966MOL0     H33269   2.572   1.995   3.356 -0.5707  0.0168  0.9992
  966MOL0     H33270   2.420   1.572   3.498 -0.7417  2.1623  0.7088
  966MOL0     H33271   2.452   1.340   3.530  0.9271  1.9017  0.2925
  966MOL0     H33272   2.241   1.075   3.229  0.1382  1.7121 -0.9513
  966MOL0     H33273   2.400   1.137   3.181  0.6168 -2.8364 -1.2840
  966MOL0     H33274   2.337   0.881   3.327  1.0346 -1.1533  0.8050
  966MOL0     H33275   2.428   0.898   3.200 -1.5400 -2.0009  0.2560
  966MOL0     H33276   2.569   1.065   3.379 -0.2006 -0.5219  1.0128
  966MOL0     H33277   2.614   0.906   3.327  0.3864 -1.3287  3.1888
  966MOL0     H33278   2.419   0.984   3.562  1.6421  0.5013  2.1537
  966MOL0     H33279   2.582   0.936   3.591  2.3866 -1.9793 -0.1968
  966MOL0     H33280   2.421   0.738   3.617  1.1102 -2.1384  0.2335
  966MOL0     H33281   2.433   0.721   3.444 -0.7579 -2.2439  1.5229
  966MOL0     H33282   2.665   0.739   3.624 -0.3868 -0.2189 -0.4615
  966MOL0     H33283   2.677   0.728   3.448 -1.2759  1.1648 -0.7599
  966MOL0     H33284   2.544   0.489   3.471 -0.5214  0.2866 -0.1454
  966MOL0     H33285   2.576   0.497   3.640 -0.2193 -0.9154  0.0669
  966MOL0     H33286   2.826   0.506   3.597  0.9276  0.7863 -1.7637
  966MOL0     H33287   2.782   0.536   3.418 -0.9109 -0.0514 -1.2295
  966MOL0     H33288   2.135   1.263   3.264  0.9113 -0.1309 -2.3166
  966MOL0     H33289   2.089   1.505   3.231  0.3486 -0.5082 -1.1241
  966MOL0     H33290   2.087   1.883   3.316  2.9888 -2.3585  0.0766
  966MOL0     H33291   2.014   2.097   3.252  0.3040  1.7936 -3.7438
  966MOL0     H33292   2.316   1.495   1.942  0.0698  0.9643 -0.1297
  966MOL0     H33293   2.457   1.648   1.809  0.6071 -0.4712  0.7465
  966MOL0     H33294   2.410   1.931   1.398 -1.9832  1.0857  1.0521
  966MOL0     H33295   2.553   2.072   1.268  3.6176 -0.8767  0.3225
  966MOL0     H33296   2.734   2.418   1.482  1.3703 -1.8415  2.2110
  966MOL0     H33297   2.876   2.312   1.459  2.1829  3.3103  1.3591
  966MOL0     H33298   2.779   2.501   1.239  1.3168 -3.4487 -4.0726
  966MOL0     H33299   2.922   2.397   1.257  0.1664  2.0989 -2.1037
  966MOL0     H33300   2.962   2.636   1.296 -2.2862 -0.0425 -1.4732
  966MOL0     H33301   2.839   2.625   1.423 -1.2634 -0.5897 -1.7706
  966MOL0     H33302   3.010   2.472   1.550  0.6896  2.0882  1.8745
  966MOL0     H33303   3.086   2.623   1.500 -0.4786  0.0749 -1.4844
  966MOL0     H33304   3.291   2.282   1.294  0.3899 -1.3988  1.9193
  966MOL0     H33305   2.704   2.260   1.609 -0.6786 -1.9488  3.0073
  966MOL0     H33306   2.451   2.161   1.856  0.2137 -0.8431  0.4142
  966MOL0     H33307   2.622   2.092   1.859  0.2282  0.0028 -0.9236
  966MOL0     H33308   2.591   2.254   1.809 -0.4156  0.0717 -1.4200
  967MOL0     O33309   1.752   0.287   1.284 -0.4784  0.0300  0.1752
  967MOL0     C33310   1.839   0.292   1.366  0.3271  0.0994 -0.2239
  967MOL0     O33311   1.861   0.405   1.441  0.1166  0.3412  0.2496
  967MOL0     C33312   1.786   0.520   1.403 -0.4451 -0.6006  1.2708
  967MOL0     C33313   1.670   0.554   1.481 -0.1122  0.2717  1.2404
  967MOL0     C33314   1.577   0.651   1.430 -0.1132  0.7070 -0.5444
  967MOL0     C33315   1.608   0.717   1.311  0.0339 -0.1512 -0.1144
  967MOL0     O33316   1.513   0.800   1.254 -0.1778  0.6699  0.3524
  967MOL0     C33317   1.431   0.715   1.170  0.4947  0.9688 -0.5333
  967MOL0     C33318   1.331   0.800   1.087 -0.1452 -0.0223  0.6475
  967MOL0     C33319   1.388   0.868   0.967  0.6781  0.6117 -0.2414
  967MOL0     C33320   1.430   0.776   0.849 -0.2012  0.3546  0.3918
  967MOL0     C33321   1.309   0.728   0.775  0.4577 -0.1208 -0.1982
  967MOL0     C33322   1.356   0.653   0.651  0.1400  0.8203 -0.0439
  967MOL0     C33323   1.379   0.505   0.676  0.3735  0.2723 -0.7502
  967MOL0     C33324   1.400   0.435   0.538 -0.2555  0.0921 -0.2454
  967MOL0     N33325   1.546   0.428   0.502 -0.3556  0.0446 -0.0688
  967MOL0     C33326   1.640   0.529   0.486 -1.9207 -0.4123  0.4663
  967MOL0     C33327   1.759   0.462   0.520 -0.5412  0.8080  0.5950
  967MOL0     C33328   1.889   0.545   0.530  0.0988  0.8753  0.2168
  967MOL0     C33329   1.902   0.646   0.647 -0.4893 -1.0264  0.2946
  967MOL0     C33330   1.847   0.601   0.785  0.0171 -0.3231  0.2303
  967MOL0     C33331   1.902   0.460   0.844  0.1049 -0.8536  0.4255
  967MOL0     O33332   2.045   0.479   0.885  0.0760  0.1647  0.7504
  967MOL0     C33333   2.098   0.373   0.933  0.0720  1.0459  0.5545
  967MOL0     C33334   2.158   0.386   1.062  0.1121  0.3480 -0.1719
  967MOL0     C33335   2.191   0.263   1.133 -0.6562  0.3825  0.3549
  967MOL0     C33336   2.231   0.277   1.276  0.1808  0.7519 -0.8966
  967MOL0     C33337   2.178   0.137   1.062 -0.6680  0.6507 -0.9382
  967MOL0     C33338   2.265   0.024   1.101 -0.0522 -0.3898 -0.6837
  967MOL0     O33339   2.374   0.052   1.184  0.6211 -0.5125 -0.8520
  967MOL0     C33340   2.433  -0.040   1.267  0.8189  0.1398  0.7567
  967MOL0     C33341   2.376  -0.156   1.318  0.1736  0.0568  0.5494
  967MOL0     C33342   2.448  -0.230   1.406  0.3052  0.6615  0.4373
  967MOL0     C33343   2.574  -0.201   1.447 -0.1237 -0.6022 -0.8740
  967MOL0     O33344   2.631  -0.295   1.531  0.4847 -0.1325  0.6065
  967MOL0     C33345   2.773  -0.282   1.558 -0.1546  0.5973 -0.2714
  967MOL0     C33346   2.792  -0.346   1.694  0.2337  0.0498  0.4362
  967MOL0     C33347   2.927  -0.321   1.754 -0.0495  0.6909  0.2351
  967MOL0     C33348   3.031  -0.437   1.719  0.3346  0.0245 -0.0068
  967MOL0     C33349   3.160  -0.405   1.795  0.0153 -0.5215  0.2499
  967MOL0     C33350   3.196  -0.462   1.934 -0.2796 -0.5516  0.1513
  967MOL0     C33351   3.326  -0.395   1.982  0.2257 -0.7288 -0.1177
  967MOL0     C33352   3.397  -0.462   2.091 -0.6021  0.0750 -0.6692
  967MOL0    Cl33353   3.279  -0.463   2.231 -0.0862  0.1202  0.2962
  967MOL0     C33354   2.637  -0.081   1.395 -0.3051  0.1605  0.2589
  967MOL0     C33355   2.569  -0.009   1.303 -0.4694  0.3808 -0.3115
  967MOL0     O33356   2.236  -0.087   1.068  0.5134  0.2381 -0.0047
  967MOL0     C33357   2.111   0.123   0.939  0.5066  0.1986 -0.1487
  967MOL0     C33358   2.083   0.240   0.881 -0.7277 -0.7304  0.6079
  967MOL0     N33359   1.733   0.322   0.544 -0.4638 -0.2582 -0.1549
  967MOL0     N33360   1.609   0.311   0.526 -0.8625  0.4064  0.5943
  967MOL0     C33361   1.728   0.697   1.249 -0.0748 -1.0465  1.2578
  967MOL0     C33362   1.813   0.595   1.286 -0.4143  0.8498 -0.0660
  967MOL0     C33363   1.916   0.163   1.399 -0.0645 -0.7587 -0.4014
  967MOL0     C33364   1.990   0.169   1.520  0.9249  0.2387 -0.2108
  967MOL0     C33365   2.043   0.049   1.561  0.1183 -0.4094 -0.0723
  967MOL0     C33366   2.045  -0.073   1.486 -0.4088 -0.3956  0.8375
  967MOL0     O33367   2.087  -0.195   1.518 -0.9932 -0.1946 -0.9941
  967MOL0     C33368   2.157  -0.219   1.639 -0.0375 -0.0947  0.2461
  967MOL0     C33369   2.184  -0.365   1.648 -0.6020  0.0471 -1.0673
  967MOL0     C33370   2.292  -0.383   1.753  0.2958  0.1154 -0.1478
  967MOL0     C33371   2.324  -0.520   1.785 -0.5499 -0.2981 -0.2580
  967MOL0     C33372   2.419  -0.507   1.900 -0.4359 -0.4795 -0.1719
  967MOL0     C33373   2.518  -0.510   1.970 -0.9645 -0.3724  0.1906
  967MOL0     C33374   1.979  -0.064   1.375 -0.0212 -0.5080 -0.0749
  967MOL0     C33375   1.915   0.044   1.320 -0.6033 -0.2321 -0.6464
  967MOL0     C33376   1.833   0.036   1.194  0.3220  0.4750  0.4437
  967MOL0     H33377   1.641   0.499   1.570  0.4695 -1.0673  0.6314
  967MOL0     H33378   1.483   0.663   1.484  0.0246  2.6508 -0.6823
  967MOL0     H33379   1.388   0.645   1.242  4.0133 -0.2849  0.5539
  967MOL0     H33380   1.488   0.648   1.105 -0.8163  0.5784 -1.3166
  967MOL0     H33381   1.248   0.734   1.059 -1.6764  2.0387  0.0023
  967MOL0     H33382   1.297   0.872   1.162  1.0559 -0.0014  1.1923
  967MOL0     H33383   1.314   0.944   0.941 -0.3606 -0.3057 -0.0131
  967MOL0     H33384   1.479   0.920   1.000  0.3904  0.6658  0.4821
  967MOL0     H33385   1.511   0.827   0.795 -0.9456  0.5790 -0.5308
  967MOL0     H33386   1.476   0.683   0.885 -1.4059 -1.0599 -1.5245
  967MOL0     H33387   1.256   0.814   0.734 -0.2544 -2.4855 -4.9365
  967MOL0     H33388   1.243   0.660   0.828  0.5872 -1.3956 -1.5992
  967MOL0     H33389   1.285   0.670   0.570  4.4872  0.6618 -4.3537
  967MOL0     H33390   1.442   0.706   0.608  0.0633 -1.0884 -2.8436
  967MOL0     H33391   1.293   0.465   0.731  1.4356 -1.9322 -0.6133
  967MOL0     H33392   1.456   0.479   0.748 -0.6144 -0.5939  0.0217
  967MOL0     H33393   1.366   0.332   0.543  1.4484 -0.7098 -3.0573
  967MOL0     H33394   1.335   0.483   0.465 -1.5219 -0.6192  0.3980
  967MOL0     H33395   1.637   0.638   0.489 -1.9253 -0.2207 -3.1236
  967MOL0     H33396   1.918   0.594   0.436  1.1052 -0.6570 -0.3155
  967MOL0     H33397   1.970   0.472   0.539 -1.2694 -1.2680 -2.9694
  967MOL0     H33398   2.008   0.672   0.640 -0.8188  1.1093  2.1570
  967MOL0     H33399   1.849   0.735   0.612  2.0159  0.1990 -0.6447
  967MOL0     H33400   1.851   0.688   0.851 -2.6476  0.8317 -1.0185
  967MOL0     H33401   1.739   0.588   0.774  0.2510 -2.2595 -0.1113
  967MOL0     H33402   1.834   0.428   0.923  0.6022 -1.9698  0.4240
  967MOL0     H33403   1.896   0.397   0.754 -0.4740 -1.0305  0.5885
  967MOL0     H33404   2.171   0.481   1.112  0.4975  1.0004 -1.4656
  967MOL0     H33405   2.339   0.286   1.265  0.5387 -3.0671 -1.6504
  967MOL0     H33406   2.208   0.188   1.335  0.8420 -0.5074 -2.4727
  967MOL0     H33407   2.183   0.366   1.318 -1.7416 -1.0617  0.9716
  967MOL0     H33408   2.273  -0.178   1.289 -0.2914  1.3441  1.1461
  967MOL0     H33409   2.411  -0.327   1.437  1.6224 -0.7420 -2.0562
  967MOL0     H33410   2.833  -0.331   1.480  1.5921 -3.1877  3.0949
  967MOL0     H33411   2.808  -0.178   1.553  0.5818  0.3266 -0.9830
  967MOL0     H33412   2.717  -0.308   1.764  0.7211  2.8529 -0.4425
  967MOL0     H33413   2.759  -0.449   1.681 -1.4705  0.9454 -4.1930
  967MOL0     H33414   2.924  -0.334   1.863  1.8890  0.1207  0.2503
  967MOL0     H33415   2.977  -0.229   1.723  3.9777 -2.1399 -2.7610
  967MOL0     H33416   3.047  -0.435   1.611 -2.5955 -2.8035 -0.6272
  967MOL0     H33417   2.978  -0.530   1.744 -2.3916  1.1817 -1.1507
  967MOL0     H33418   3.234  -0.427   1.717 -0.3515  1.9520 -0.9129
  967MOL0     H33419   3.156  -0.296   1.806 -0.2285  0.0739 -3.9708
  967MOL0     H33420   3.191  -0.570   1.951 -1.2118 -0.2998  1.6404
  967MOL0     H33421   3.130  -0.419   2.010  0.9029  2.7101 -0.4951
  967MOL0     H33422   3.310  -0.294   2.023 -1.2138 -0.0867 -2.0951
  967MOL0     H33423   3.398  -0.387   1.900  1.1107 -0.2307  0.6834
  967MOL0     H33424   3.484  -0.397   2.105 -1.0590  1.5883 -3.8477
  967MOL0     H33425   3.425  -0.564   2.062 -4.6207 -1.0785 -1.1625
  967MOL0     H33426   2.735  -0.045   1.426 -1.1055  0.8160  2.1966
  967MOL0     H33427   2.626   0.069   1.254 -1.2041 -1.4289 -4.5142
  967MOL0     H33428   2.100   0.029   0.887  0.0501  0.3589 -0.3469
  967MOL0     H33429   2.042   0.229   0.781  4.5336  0.7102 -2.0378
  967MOL0     H33430   1.751   0.763   1.166 -0.7429 -0.5141  1.4877
  967MOL0     H33431   1.906   0.576   1.233 -0.4816 -0.8380  0.3464
  967MOL0     H33432   2.019   0.252   1.583  0.9833 -0.8325  1.2081
  967MOL0     H33433   2.094   0.035   1.656 -1.8384 -0.3205  1.0458
  967MOL0     H33434   2.254  -0.169   1.631  0.2637 -0.9531 -2.5745
  967MOL0     H33435   2.091  -0.188   1.721  0.2458  3.6259 -0.7723
  967MOL0     H33436   2.208  -0.402   1.548 -1.0954 -0.1961 -1.0984
  967MOL0     H33437   2.090  -0.412   1.679  0.4590 -1.0072  0.7386
  967MOL0     H33438   2.377  -0.318   1.733 -0.7926  1.5841 -0.2082
  967MOL0     H33439   2.249  -0.332   1.840  0.6374  1.2027 -0.6011
  967MOL0     H33440   2.375  -0.571   1.703  0.3985 -1.0711  0.7862
  967MOL0     H33441   2.232  -0.577   1.804 -1.4820  0.5388 -1.9909
  967MOL0     H33442   2.608  -0.508   2.027 -1.1598  1.1744  0.4766
  967MOL0     H33443   1.972  -0.154   1.316 -2.9633  0.0662 -0.7640
  967MOL0     H33444   1.849   0.114   1.119  0.0562 -0.0391 -0.1665
  967MOL0     H33445   1.866  -0.054   1.141 -0.1811  2.2078 -3.0875
  967MOL0     H33446   1.729   0.046   1.226 -0.7917  1.8681 -3.0732
  968MOL0     O33447   2.267   8.755   0.358 -0.2064  0.1930  0.0235
  968MOL0     C33448   2.213   8.712   0.456  0.4218  0.2408 -0.5096
  968MOL0     O33449   2.275   8.635   0.546 -0.2479  0.2914 -0.9388
  968MOL0     C33450   2.414   8.621   0.557  0.1270 -0.1733 -0.0254
  968MOL0     C33451   2.512   8.718   0.506  1.1854  1.1722 -0.1476
  968MOL0     C33452   2.644   8.672   0.512 -0.6618 -1.3090  0.6507
  968MOL0     C33453   2.685   8.547   0.554 -0.1769 -0.5968  1.1251
  968MOL0     O33454   2.821   8.512   0.528 -0.7538 -0.1962  0.8253
  968MOL0     C33455   2.854   8.386   0.472  0.2060  0.8569 -0.1088
  968MOL0     C33456   2.884   8.386   0.325 -0.3302 -0.6423 -0.3444
  968MOL0     C33457   2.988   8.272   0.293 -0.2440  0.5433 -0.2916
  968MOL0     C33458   3.128   8.304   0.337  0.0883 -0.1948  0.1691
  968MOL0     C33459   3.247   8.208   0.282  0.3754  0.1103 -0.4265
  968MOL0     C33460   3.216   8.050   0.291  0.4475 -0.7436 -0.2539
  968MOL0     C33461   3.212   8.008   0.440  0.1210  0.0996  0.1489
  968MOL0     C33462   3.354   7.980   0.491 -0.1601 -0.0930  0.1263
  968MOL0     N33463   3.408   7.855   0.443  0.7115  0.2458 -0.7017
  968MOL0     C33464   3.528   7.853   0.375 -0.5840  0.4156  0.1510
  968MOL0     C33465   3.549   7.715   0.355 -0.1516 -0.0689 -0.0704
  968MOL0     C33466   3.678   7.652   0.301  0.1684  0.4003  0.5226
  968MOL0     C33467   3.774   7.642   0.410 -0.3112  0.4635 -0.5641
  968MOL0     C33468   3.912   7.603   0.362  0.4010  1.4487  0.2104
  968MOL0     C33469   3.905   7.479   0.270 -0.0364 -0.1262 -0.2867
  968MOL0     O33470   3.827   7.375   0.336  0.2965 -0.3927 -0.3244
  968MOL0     C33471   3.837   7.258   0.273  0.2330  0.2571  0.2375
  968MOL0     C33472   3.754   7.240   0.159 -0.6116 -0.5916 -1.0515
  968MOL0     C33473   3.755   7.111   0.092  0.2846 -0.3008  0.1761
  968MOL0     C33474   3.667   7.106  -0.036 -0.0576  0.0474  0.6886
  968MOL0     C33475   3.843   7.005   0.137 -0.4267  0.6476  0.4383
  968MOL0     C33476   3.865   6.876   0.064  0.3475 -0.5537 -0.7966
  968MOL0     O33477   3.780   6.836  -0.033  0.6384 -0.0162  0.0082
  968MOL0     C33478   3.806   6.725  -0.106  0.3068 -0.6968  0.6283
  968MOL0     C33479   3.813   6.751  -0.242 -0.2638 -0.6948 -0.2339
  968MOL0     C33480   3.846   6.645  -0.333 -0.6506 -0.1548  0.0197
  968MOL0     C33481   3.879   6.526  -0.279  0.4986 -0.4377  0.3212
  968MOL0     O33482   3.920   6.423  -0.364  0.7020 -0.2316 -0.6113
  968MOL0     C33483   3.865   6.298  -0.339  0.0613 -0.0190 -0.3004
  968MOL0     C33484   3.876   6.203  -0.459  0.1492  0.4710  0.3173
  968MOL0     C33485   3.797   6.072  -0.439 -0.3323  0.9351  0.2289
  968MOL0     C33486   3.859   5.984  -0.325  0.3590 -1.0215  0.0440
  968MOL0     C33487   3.808   5.845  -0.341  1.0405  0.0868  0.3689
  968MOL0     C33488   3.815   5.757  -0.221 -1.0952 -0.2948 -0.9391
  968MOL0     C33489   3.965   5.727  -0.194  0.2025 -0.6462 -0.8145
  968MOL0     C33490   4.037   5.671  -0.315 -0.6117 -0.1496 -0.8678
  968MOL0    Cl33491   4.218   5.628  -0.256 -0.1545 -0.3518 -0.2147
  968MOL0     C33492   3.868   6.505  -0.137 -1.4464 -0.2053 -0.8775
  968MOL0     C33493   3.834   6.608  -0.054  0.4054 -0.3922 -1.2969
  968MOL0     O33494   3.969   6.811   0.104  0.2488 -0.4958  0.2223
  968MOL0     C33495   3.920   7.034   0.248  0.8155  0.4617 -0.7505
  968MOL0     C33496   3.912   7.158   0.314  0.4140 -0.5148  0.0604
  968MOL0     N33497   3.435   7.654   0.411 -0.0638  0.0428  0.4223
  968MOL0     N33498   3.359   7.735   0.472  1.2293  0.2827  0.1825
  968MOL0     C33499   2.587   8.460   0.605  1.0958  0.2333 -1.3193
  968MOL0     C33500   2.460   8.502   0.617 -0.2432  0.3140  0.6242
  968MOL0     C33501   2.056   8.730   0.474 -0.4592 -0.5277 -0.6959
  968MOL0     C33502   1.991   8.627   0.543 -0.5942 -0.2154 -0.7476
  968MOL0     C33503   1.856   8.630   0.531  0.1550  0.3346  0.1011
  968MOL0     C33504   1.785   8.737   0.468 -0.4430 -0.0898  0.6306
  968MOL0     O33505   1.654   8.731   0.471  0.0988 -0.1018 -0.0104
  968MOL0     C33506   1.570   8.797   0.374 -0.8575  0.6964  0.1146
  968MOL0     C33507   1.417   8.765   0.380 -0.6465 -0.0067 -0.3711
  968MOL0     C33508   1.338   8.851   0.282 -0.3181 -0.2711 -0.4601
  968MOL0     C33509   1.186   8.834   0.315  0.6252  0.8226  0.3520
  968MOL0     C33510   1.112   8.886   0.201 -0.4745  0.2991 -0.1447
  968MOL0     C33511   1.051   8.920   0.104 -0.0938  0.3679  0.2815
  968MOL0     C33512   1.853   8.840   0.404  1.1059 -0.4086  0.7746
  968MOL0     C33513   1.987   8.847   0.415 -0.6971 -0.7028 -0.4622
  968MOL0     C33514   2.066   8.968   0.354  0.5593 -0.5306  0.3535
  968MOL0     H33515   2.493   8.817   0.465 -0.9666  1.0003  0.3240
  968MOL0     H33516   2.724   8.725   0.462  0.3283 -2.2139  1.2304
  968MOL0     H33517   2.782   8.307   0.496  4.0985 -3.4266 -1.0818
  968MOL0     H33518   2.947   8.364   0.526  0.5343  2.0915 -0.1443
  968MOL0     H33519   2.795   8.377   0.262 -1.3265 -0.4287  0.9825
  968MOL0     H33520   2.922   8.486   0.302 -1.1706 -0.1583  0.3333
  968MOL0     H33521   2.948   8.176   0.326  0.4594 -0.0506 -1.1112
  968MOL0     H33522   2.986   8.271   0.183  0.7602  3.1509 -0.3958
  968MOL0     H33523   3.158   8.406   0.315  3.7928 -1.3175 -0.7432
  968MOL0     H33524   3.132   8.293   0.446 -1.6659  2.7094  0.6256
  968MOL0     H33525   3.334   8.235   0.343 -0.7269  1.9838  0.4068
  968MOL0     H33526   3.269   8.238   0.179 -0.6713  0.7195 -0.4855
  968MOL0     H33527   3.121   8.027   0.243 -0.5510  0.1859  1.1884
  968MOL0     H33528   3.301   7.998   0.245 -0.6875 -2.2975 -0.6608
  968MOL0     H33529   3.142   7.926   0.452  0.5392 -0.3660 -0.5258
  968MOL0     H33530   3.163   8.086   0.499 -0.6161 -0.6406  0.5313
  968MOL0     H33531   3.420   8.065   0.473 -0.5747  0.4643  1.1108
  968MOL0     H33532   3.355   7.966   0.600  2.0568  0.9418  0.2909
  968MOL0     H33533   3.608   7.926   0.366  2.0439 -2.4345 -1.0317
  968MOL0     H33534   3.733   7.718   0.232  0.1022 -0.2461 -0.1598
  968MOL0     H33535   3.654   7.556   0.256  0.5192 -0.4506  2.0931
  968MOL0     H33536   3.775   7.731   0.473  0.5194 -1.0610  1.6963
  968MOL0     H33537   3.744   7.572   0.489 -0.1206  1.6837  0.6159
  968MOL0     H33538   3.956   7.689   0.310  0.9833  0.3941 -1.0983
  968MOL0     H33539   3.973   7.581   0.449 -0.3867  2.2632  0.9916
  968MOL0     H33540   3.859   7.503   0.174 -0.8551 -0.8555 -0.0856
  968MOL0     H33541   4.007   7.450   0.242 -0.7447 -2.3288 -0.7798
  968MOL0     H33542   3.693   7.324   0.126  1.9994  2.8164  2.0365
  968MOL0     H33543   3.610   7.199  -0.026  0.7798  0.5428  0.9257
  968MOL0     H33544   3.612   7.012  -0.040  0.0221  0.0210 -2.7918
  968MOL0     H33545   3.722   7.112  -0.131 -3.6363 -1.3781 -1.6729
  968MOL0     H33546   3.779   6.845  -0.284 -2.9944 -0.7466  1.6106
  968MOL0     H33547   3.844   6.662  -0.440  5.0543 -2.6022 -0.8273
  968MOL0     H33548   3.910   6.247  -0.254  2.6792 -0.6796 -1.9719
  968MOL0     H33549   3.764   6.330  -0.312  0.7475  1.9739  0.1018
  968MOL0     H33550   3.838   6.252  -0.549 -1.2917 -0.0175  0.6282
  968MOL0     H33551   3.984   6.194  -0.472  0.1176  1.0796 -0.4266
  968MOL0     H33552   3.790   6.007  -0.527 -2.1228  0.9403  0.3407
  968MOL0     H33553   3.690   6.091  -0.425 -0.4418  1.6081 -1.2689
  968MOL0     H33554   3.823   6.024  -0.230 -0.7823 -2.8399  0.4233
  968MOL0     H33555   3.968   5.976  -0.329  0.2742 -1.9028 -1.0952
  968MOL0     H33556   3.703   5.843  -0.370  1.3000 -1.2780 -0.5844
  968MOL0     H33557   3.852   5.795  -0.428  2.2525  2.3165 -0.3905
  968MOL0     H33558   3.757   5.665  -0.220 -1.5158 -0.0296 -0.5792
  968MOL0     H33559   3.782   5.820  -0.137  0.6102  0.1887 -0.5888
  968MOL0     H33560   3.957   5.645  -0.122 -0.5690 -1.1444 -1.4458
  968MOL0     H33561   4.020   5.808  -0.145  0.0544 -0.7426 -0.4803
  968MOL0     H33562   4.048   5.744  -0.395 -1.0164  0.2157 -0.5928
  968MOL0     H33563   3.990   5.580  -0.355 -1.0499 -0.5786  0.5552
  968MOL0     H33564   3.900   6.410  -0.096  4.0620  1.6765  0.0252
  968MOL0     H33565   3.821   6.608   0.053  1.6606  1.4767 -1.1004
  968MOL0     H33566   3.990   6.963   0.291  0.9452  1.7268  1.2933
  968MOL0     H33567   3.979   7.189   0.394  0.2186  0.5949 -0.1851
  968MOL0     H33568   2.618   8.364   0.645  1.3139  1.1581  0.8704
  968MOL0     H33569   2.383   8.440   0.661 -0.9734 -0.8374 -2.0361
  968MOL0     H33570   2.043   8.554   0.605 -2.4209 -0.4399  0.6012
  968MOL0     H33571   1.785   8.564   0.581 -0.3361 -1.6181 -2.9392
  968MOL0     H33572   1.584   8.905   0.390  0.8075  0.5045  0.1605
  968MOL0     H33573   1.595   8.776   0.269  2.0119  2.6029  0.2982
  968MOL0     H33574   1.384   8.781   0.483 -1.0647 -2.6739 -0.0271
  968MOL0     H33575   1.402   8.661   0.351 -0.1599  0.1653 -1.2903
  968MOL0     H33576   1.358   8.958   0.294  3.0243 -0.6959 -1.3084
  968MOL0     H33577   1.364   8.817   0.182 -0.3088 -1.4948 -0.0581
  968MOL0     H33578   1.155   8.900   0.397 -2.3513  1.6195 -1.2516
  968MOL0     H33579   1.175   8.729   0.342 -0.3230  0.3568 -1.6720
  968MOL0     H33580   1.007   8.964   0.017 -2.5808 -2.0311  0.2084
  968MOL0     H33581   1.800   8.923   0.360 -1.9716 -3.5633 -2.1253
  968MOL0     H33582   1.994   9.051   0.346  3.1388  2.0399  1.6955
  968MOL0     H33583   2.141   8.999   0.427 -1.5968  2.8941  1.3925
  968MOL0     H33584   2.101   8.936   0.256 -3.3817 -1.0107 -1.0846
  969MOL0     O33585   7.884   5.495   0.467  0.3297 -0.4051  0.5897
  969MOL0     C33586   7.768   5.478   0.506  0.3864  0.2022  0.0028
  969MOL0     O33587   7.702   5.557   0.595 -0.5987  0.1188  0.6381
  969MOL0     C33588   7.776   5.643   0.671 -0.3130  0.2987  1.0797
  969MOL0     C33589   7.874   5.597   0.763 -0.6070 -0.0314 -0.0118
  969MOL0     C33590   7.946   5.685   0.842 -0.4166  0.1585  0.7315
  969MOL0     C33591   7.913   5.822   0.850 -0.3826 -0.0412  0.9449
  969MOL0     O33592   7.984   5.888   0.940 -0.3701 -0.4900 -0.9938
  969MOL0     C33593   7.991   6.031   0.931  0.2225  0.1492  0.8469
  969MOL0     C33594   8.094   6.083   0.832 -0.2218  0.2603  0.4523
  969MOL0     C33595   8.237   6.056   0.881  0.8235  0.2830 -0.4983
  969MOL0     C33596   8.346   6.161   0.843  0.9131  0.2101  0.5920
  969MOL0     C33597   8.465   6.162   0.944 -0.5366 -0.2793  0.4981
  969MOL0     C33598   8.537   6.028   0.944 -0.1891  0.0464  0.7125
  969MOL0     C33599   8.650   6.022   1.043  0.4111  0.0414  0.0755
  969MOL0     C33600   8.606   6.047   1.187 -1.0012  0.7863 -0.3747
  969MOL0     N33601   8.714   6.010   1.282  0.0168 -0.1387  0.7067
  969MOL0     C33602   8.744   5.885   1.327 -0.3921  0.2963  0.4632
  969MOL0     C33603   8.859   5.897   1.394  0.1699 -0.2392  0.0400
  969MOL0     C33604   8.931   5.786   1.465  1.1165  0.1437  0.1524
  969MOL0     C33605   9.039   5.720   1.394 -1.3446  0.4540  1.5830
  969MOL0     C33606   9.003   5.633   1.275 -0.5857 -0.4377 -0.9780
  969MOL0     C33607   9.130   5.566   1.205 -1.3157 -0.0101  0.5323
  969MOL0     O33608   9.218   5.668   1.159  0.6582  0.7363 -0.0971
  969MOL0     C33609   9.339   5.636   1.116 -1.0328 -0.1455  0.0300
  969MOL0     C33610   9.363   5.548   1.010 -0.1036 -0.2315  0.6106
  969MOL0     C33611   9.498   5.520   0.964  1.1486  0.3219 -0.4421
  969MOL0     C33612   9.515   5.426   0.845  0.5927  0.1824  0.0170
  969MOL0     C33613   9.600   5.593   1.033 -0.9433 -0.5295  0.4857
  969MOL0     C33614   9.734   5.593   0.985 -1.0069 -0.1059 -0.3210
  969MOL0     O33615   9.753   5.643   0.857 -0.2992 -0.0925 -0.1472
  969MOL0     C33616   9.679   5.754   0.816 -0.1419 -0.5974 -0.2067
  969MOL0     C33617   9.672   5.871   0.892 -0.5089  0.0156  0.4211
  969MOL0     C33618   9.584   5.979   0.869  0.6454  0.5236 -0.3820
  969MOL0     C33619   9.516   5.970   0.743 -0.4917  0.9072  0.5244
  969MOL0     O33620   9.446   6.086   0.714 -0.0374  0.1742  0.0657
  969MOL0     C33621   9.382   6.106   0.588  0.7568  0.7097  0.1470
  969MOL0     C33622   9.281   6.211   0.603  0.4353 -0.0641  1.0368
  969MOL0     C33623   9.201   6.247   0.478 -0.4585 -0.1571 -0.8855
  969MOL0     C33624   9.141   6.116   0.413 -0.5695  0.1014 -0.9454
  969MOL0     C33625   9.059   6.146   0.297  0.3638 -0.9616 -0.2653
  969MOL0     C33626   8.964   6.043   0.254 -0.0446 -0.2052 -0.2294
  969MOL0     C33627   8.890   6.098   0.121 -0.3648 -0.2983 -0.3379
  969MOL0     C33628   8.812   5.983   0.068  0.8801 -0.6024  0.2957
  969MOL0    Cl33629   8.679   6.019  -0.046  0.2011 -0.1758  0.0265
  969MOL0     C33630   9.543   5.870   0.652 -0.2603 -0.4741 -0.3454
  969MOL0     C33631   9.624   5.763   0.686 -0.3952  0.1048  0.8352
  969MOL0     O33632   9.824   5.545   1.052  0.2590 -0.4046  0.0526
  969MOL0     C33633   9.579   5.675   1.140  0.4478  0.4159 -0.2235
  969MOL0     C33634   9.448   5.696   1.185  0.3903  0.1033  1.0060
  969MOL0     N33635   8.897   6.024   1.386 -0.4872  0.8800 -0.5142
  969MOL0     N33636   8.816   6.092   1.314  0.2656  0.2566  0.9700
  969MOL0     C33637   7.816   5.867   0.759  0.2673 -0.2514 -0.0742
  969MOL0     C33638   7.747   5.780   0.674 -0.3200  0.3513 -0.4329
  969MOL0     C33639   7.691   5.360   0.459  0.7737  0.1885  0.2464
  969MOL0     C33640   7.549   5.363   0.468 -0.5222 -0.1547  0.6157
  969MOL0     C33641   7.473   5.249   0.438 -0.2592  0.4129 -0.0434
  969MOL0     C33642   7.547   5.138   0.396 -0.0993 -0.4021 -0.0115
  969MOL0     O33643   7.481   5.024   0.351 -0.3564  0.7443  0.1139
  969MOL0     C33644   7.487   5.002   0.210  1.7177 -0.6165  0.3770
  969MOL0     C33645   7.360   5.070   0.149 -0.4504  1.4616 -0.4583
  969MOL0     C33646   7.383   5.222   0.122  1.0378 -1.1153  0.8250
  969MOL0     C33647   7.250   5.290   0.086  0.4198 -0.1853 -0.6811
  969MOL0     C33648   7.199   5.379   0.188 -0.1012 -0.9152 -0.2828
  969MOL0     C33649   7.171   5.463   0.272  0.0391 -0.0443  0.0845
  969MOL0     C33650   7.681   5.127   0.391 -0.4227  1.2177  1.0640
  969MOL0     C33651   7.761   5.234   0.433  0.1700  0.0763  0.1170
  969MOL0     C33652   7.909   5.208   0.475 -0.4753 -0.6721  0.1246
  969MOL0     H33653   7.894   5.490   0.762 -1.8986 -0.2924 -1.9385
  969MOL0     H33654   8.027   5.640   0.899  0.4431 -0.8177 -1.1876
  969MOL0     H33655   8.025   6.062   1.030 -0.0361 -0.7984  1.2370
  969MOL0     H33656   7.891   6.074   0.923 -0.8814 -2.5749 -3.1025
  969MOL0     H33657   8.081   6.031   0.737 -0.1552 -1.9815  1.6034
  969MOL0     H33658   8.073   6.190   0.819 -0.6338 -0.0138 -1.4303
  969MOL0     H33659   8.233   6.063   0.990 -2.4467  0.5548 -0.5491
  969MOL0     H33660   8.275   5.955   0.862  0.3404 -1.1062  4.4557
  969MOL0     H33661   8.383   6.142   0.742 -0.9249 -3.5178  0.4565
  969MOL0     H33662   8.297   6.258   0.830  0.9812  0.1951  0.2148
  969MOL0     H33663   8.426   6.196   1.040 -2.1707 -0.5232 -0.0475
  969MOL0     H33664   8.531   6.248   0.927 -0.9600 -0.0873 -0.2609
  969MOL0     H33665   8.463   5.954   0.976  0.2050 -1.3632 -1.4428
  969MOL0     H33666   8.587   6.005   0.849  1.1709  0.5381  1.2824
  969MOL0     H33667   8.716   6.105   1.017 -0.4057  1.3984  2.0692
  969MOL0     H33668   8.709   5.930   1.038  0.8568  0.3598 -0.7336
  969MOL0     H33669   8.585   6.152   1.210  2.4790  0.8691  3.8410
  969MOL0     H33670   8.523   5.981   1.215  0.1013 -1.5600 -2.2046
  969MOL0     H33671   8.690   5.797   1.294  0.2962 -0.5028  1.3987
  969MOL0     H33672   8.873   5.695   1.484  1.8335 -0.9109 -2.2103
  969MOL0     H33673   8.976   5.829   1.555  1.3324  2.7195 -1.1106
  969MOL0     H33674   9.114   5.795   1.364 -2.2797  0.5748 -0.6301
  969MOL0     H33675   9.088   5.663   1.473  0.5280 -1.3762 -0.7283
  969MOL0     H33676   8.935   5.550   1.294  0.1209 -0.5257  1.4298
  969MOL0     H33677   8.948   5.695   1.204 -0.6764  1.3568  0.5775
  969MOL0     H33678   9.183   5.491   1.264 -0.2154  0.5880  0.3354
  969MOL0     H33679   9.094   5.510   1.118  2.1688 -1.0227 -0.4333
  969MOL0     H33680   9.279   5.498   0.963  3.1643 -4.3417 -1.4929
  969MOL0     H33681   9.537   5.498   0.766  0.7266  1.9929  1.6326
  969MOL0     H33682   9.429   5.364   0.818  1.3330 -0.6751 -0.4191
  969MOL0     H33683   9.608   5.369   0.854 -0.6836 -2.5895 -2.5915
  969MOL0     H33684   9.741   5.872   0.976  1.5110  3.4665 -1.0703
  969MOL0     H33685   9.571   6.062   0.938  0.9234  0.4916 -0.2896
  969MOL0     H33686   9.449   6.111   0.501  3.3050 -1.2824  1.8322
  969MOL0     H33687   9.318   6.021   0.562 -0.2285  2.0169 -1.9334
  969MOL0     H33688   9.209   6.177   0.679  0.8696 -0.7136  1.1748
  969MOL0     H33689   9.335   6.300   0.634  1.6337 -0.7464  0.9517
  969MOL0     H33690   9.288   6.279   0.421  2.0171 -2.2760  1.4170
  969MOL0     H33691   9.128   6.327   0.498 -1.8132 -1.1623 -1.6164
  969MOL0     H33692   9.075   6.070   0.487 -1.2509 -1.2269 -2.3482
  969MOL0     H33693   9.223   6.050   0.383 -0.4943  0.8655 -2.5412
  969MOL0     H33694   8.991   6.228   0.320  1.5527  0.9761 -3.1023
  969MOL0     H33695   9.119   6.179   0.212 -0.6467 -0.6030 -0.8520
  969MOL0     H33696   8.880   6.024   0.322  0.8234 -2.0636  0.4100
  969MOL0     H33697   9.029   5.956   0.241  0.4731  0.3904 -1.7421
  969MOL0     H33698   8.968   6.134   0.053 -1.7119  0.4615 -1.5392
  969MOL0     H33699   8.833   6.187   0.147 -2.3207 -1.4071 -0.6565
  969MOL0     H33700   8.771   5.927   0.152  0.6694  2.4322  2.3627
  969MOL0     H33701   8.880   5.912   0.020 -1.4032 -2.8004  0.0917
  969MOL0     H33702   9.519   5.889   0.548  0.8944  1.9705 -0.2466
  969MOL0     H33703   9.654   5.693   0.609 -1.1707 -2.7297  2.9482
  969MOL0     H33704   9.654   5.722   1.204 -1.9833 -0.5159  3.6071
  969MOL0     H33705   9.418   5.774   1.255 -1.8455  0.1906  0.0487
  969MOL0     H33706   7.793   5.973   0.754  1.1164  0.1123  2.3379
  969MOL0     H33707   7.677   5.818   0.600 -0.6042 -1.0751 -0.9400
  969MOL0     H33708   7.510   5.461   0.493  0.6191 -0.1739  2.7242
  969MOL0     H33709   7.367   5.223   0.435  0.2028 -1.7152  0.5910
  969MOL0     H33710   7.573   5.042   0.158  0.5245 -0.1540 -1.3223
  969MOL0     H33711   7.468   4.895   0.199  0.9540 -0.3387 -1.2270
  969MOL0     H33712   7.282   5.060   0.225  1.9275 -2.1525  1.8113
  969MOL0     H33713   7.324   5.011   0.064  0.6390 -2.9392  1.8329
  969MOL0     H33714   7.430   5.280   0.201 -0.6585  0.4373  0.7678
  969MOL0     H33715   7.444   5.232   0.031 -3.4486  0.5896 -2.3700
  969MOL0     H33716   7.171   5.221   0.055  0.8828 -0.2673 -1.7153
  969MOL0     H33717   7.264   5.351  -0.003 -1.1631  1.3999  0.0879
  969MOL0     H33718   7.157   5.532   0.353  2.4741 -0.7607  1.2159
  969MOL0     H33719   7.734   5.038   0.358 -0.7395  0.8120  1.6286
  969MOL0     H33720   7.932   5.237   0.577 -1.0018 -0.7577  0.2724
  969MOL0     H33721   7.936   5.102   0.467  0.9277 -0.2670 -0.8881
  969MOL0     H33722   7.993   5.245   0.415  2.8202 -3.8022  2.3806
  970MOL0     O33723   6.975   1.419   1.852  0.4638  0.9641 -0.7477
  970MOL0     C33724   6.950   1.341   1.758 -0.4281  0.1809  1.0160
  970MOL0     O33725   6.820   1.315   1.713 -0.8496  0.7438 -0.8004
  970MOL0     C33726   6.714   1.339   1.810  0.1845  0.3937  1.0519
  970MOL0     C33727   6.711   1.270   1.932 -0.2462 -0.5254 -0.1833
  970MOL0     C33728   6.601   1.284   2.019 -0.9330  0.1199 -0.0960
  970MOL0     C33729   6.496   1.370   1.987 -0.4214  0.9459 -0.4235
  970MOL0     O33730   6.392   1.375   2.073 -0.2029  0.1964 -0.4279
  970MOL0     C33731   6.353   1.248   2.123  0.3945  0.5867 -0.5499
  970MOL0     C33732   6.204   1.270   2.119 -0.6967 -0.3420  0.3761
  970MOL0     C33733   6.130   1.281   1.978 -0.8899 -1.0087 -0.9227
  970MOL0     C33734   5.999   1.345   1.982  0.5572  0.5204  0.7147
  970MOL0     C33735   5.915   1.323   1.856  0.0066 -0.2096  0.8804
  970MOL0     C33736   5.847   1.194   1.848 -0.0741  0.2277 -1.6267
  970MOL0     C33737   5.738   1.208   1.742  0.2860 -0.3038  0.3761
  970MOL0     C33738   5.664   1.073   1.716 -0.6642  0.2344 -1.0244
  970MOL0     N33739   5.567   1.046   1.825  0.3577 -0.0361 -0.1926
  970MOL0     C33740   5.573   0.934   1.899  0.8937  0.7538 -0.7541
  970MOL0     C33741   5.445   0.909   1.938 -0.1087 -1.2729 -0.3367
  970MOL0     C33742   5.397   0.791   2.020 -0.8362 -0.3105 -0.0672
  970MOL0     C33743   5.381   0.831   2.173  0.8409  0.1152  0.0856
  970MOL0     C33744   5.276   0.931   2.196 -0.0540 -0.6041 -0.6991
  970MOL0     C33745   5.248   0.955   2.348 -0.6087  0.3696  0.0293
  970MOL0     O33746   5.173   0.845   2.408  0.6409 -0.3611  0.0428
  970MOL0     C33747   5.036   0.830   2.404 -0.2834 -0.6894  0.6072
  970MOL0     C33748   4.956   0.917   2.314 -0.7740  0.1788  0.0311
  970MOL0     C33749   4.816   0.914   2.309  0.0185  0.7807 -0.0439
  970MOL0     C33750   4.750   1.015   2.216 -0.8164  0.2791  0.4808
  970MOL0     C33751   4.750   0.810   2.382 -0.6529 -0.3748  0.3186
  970MOL0     C33752   4.606   0.790   2.385  0.0624  0.4850 -0.6948
  970MOL0     O33753   4.570   0.671   2.431 -0.0660  0.3606  0.5325
  970MOL0     C33754   4.436   0.636   2.425  0.0375 -0.6567 -0.2233
  970MOL0     C33755   4.388   0.589   2.301 -0.3880 -0.4829 -0.1722
  970MOL0     C33756   4.253   0.559   2.296 -0.0773 -1.0255  0.2190
  970MOL0     C33757   4.163   0.576   2.394 -0.6194 -0.5854  0.0148
  970MOL0     O33758   4.037   0.540   2.386  0.1624  0.9615  0.1772
  970MOL0     C33759   4.001   0.433   2.488  0.0287 -0.0874 -0.4030
  970MOL0     C33760   3.858   0.387   2.473  0.4274  0.0275 -0.3076
  970MOL0     C33761   3.800   0.301   2.589 -0.2017 -0.1803  0.6302
  970MOL0     C33762   3.654   0.250   2.563  0.5213  0.1787 -0.0022
  970MOL0     C33763   3.598   0.172   2.686  0.4294  0.1648  0.3531
  970MOL0     C33764   3.464   0.100   2.640 -0.0766  0.0615  0.5207
  970MOL0     C33765   3.355   0.199   2.603 -0.4356 -0.8090 -0.2499
  970MOL0     C33766   3.221   0.130   2.620 -0.5886  0.0646  0.1713
  970MOL0    Cl33767   3.178   0.074   2.780 -0.0671 -0.0496  0.3334
  970MOL0     C33768   4.211   0.628   2.510  0.6797 -0.5861 -0.5042
  970MOL0     C33769   4.340   0.664   2.529 -1.1440  0.5326 -0.4828
  970MOL0     O33770   4.534   0.881   2.372 -0.5856 -0.5033 -0.1972
  970MOL0     C33771   4.836   0.727   2.465  0.6367  0.5462  0.5303
  970MOL0     C33772   4.970   0.742   2.474  0.8104  0.0045 -0.5796
  970MOL0     N33773   5.361   1.008   1.893 -0.7760  0.3242  0.7819
  970MOL0     N33774   5.440   1.098   1.830 -0.5479  0.2574  0.1014
  970MOL0     C33775   6.503   1.443   1.874  0.0213 -0.0297 -0.5874
  970MOL0     C33776   6.611   1.418   1.779  0.1186 -0.0106 -0.2970
  970MOL0     C33777   7.055   1.263   1.688 -0.3233 -0.6585 -0.1600
  970MOL0     C33778   7.014   1.171   1.590 -0.0037  0.1687  0.8792
  970MOL0     C33779   7.107   1.091   1.521 -0.7299  0.4572 -0.3362
  970MOL0     C33780   7.235   1.104   1.531 -1.5841 -0.1481  0.0642
  970MOL0     O33781   7.322   1.010   1.463 -0.0533 -0.2910  0.5608
  970MOL0     C33782   7.362   1.074   1.339 -0.1289 -0.8686  0.2537
  970MOL0     C33783   7.367   0.974   1.230 -1.2245 -0.0821 -1.2820
  970MOL0     C33784   7.265   0.859   1.220  0.4647 -0.1238  0.0559
  970MOL0     C33785   7.277   0.768   1.088  0.1204  0.5877  0.5935
  970MOL0     C33786   7.420   0.751   1.045  0.5369  0.1828  0.2041
  970MOL0     C33787   7.531   0.728   1.000 -0.2978  1.0612 -0.1888
  970MOL0     C33788   7.281   1.197   1.619 -0.8370 -0.2189  0.5993
  970MOL0     C33789   7.200   1.273   1.706  0.1461 -0.3562 -0.1580
  970MOL0     C33790   7.276   1.349   1.810  0.5132  0.2534 -0.4256
  970MOL0     H33791   6.792   1.213   1.976 -1.2730 -1.8916  0.0054
  970MOL0     H33792   6.595   1.223   2.108  1.0073 -0.8855 -0.5997
  970MOL0     H33793   6.395   1.235   2.223 -1.6750 -0.2870  0.2632
  970MOL0     H33794   6.387   1.158   2.070 -0.1276 -1.5648  2.4667
  970MOL0     H33795   6.158   1.189   2.176 -0.2720 -0.2854  0.8023
  970MOL0     H33796   6.186   1.362   2.176 -1.9115 -0.6031  0.4525
  970MOL0     H33797   6.195   1.343   1.916 -2.1356  0.7609 -0.5282
  970MOL0     H33798   6.131   1.178   1.940 -0.3422 -0.6084 -2.0377
  970MOL0     H33799   5.954   1.289   2.065 -0.1817 -1.6305 -1.0493
  970MOL0     H33800   6.009   1.450   2.011 -0.4029  1.5948 -2.3827
  970MOL0     H33801   5.980   1.339   1.769  2.4601  2.5186  3.0040
  970MOL0     H33802   5.835   1.398   1.862  0.9985  0.9067  0.6517
  970MOL0     H33803   5.922   1.120   1.819  2.5032  1.4244  1.4422
  970MOL0     H33804   5.814   1.173   1.950  2.5535  2.1304 -0.2629
  970MOL0     H33805   5.786   1.226   1.645 -1.4518  1.8930 -0.1531
  970MOL0     H33806   5.683   1.298   1.767  1.7250  1.1713 -1.4064
  970MOL0     H33807   5.619   1.070   1.616  0.1765  1.9665 -1.4980
  970MOL0     H33808   5.735   0.990   1.706 -0.7334 -0.4350  2.5879
  970MOL0     H33809   5.657   0.866   1.913  2.1697  2.1720 -1.2613
  970MOL0     H33810   5.469   0.709   2.011 -0.2868 -0.5379  4.2449
  970MOL0     H33811   5.305   0.754   1.975  0.2280 -0.5237 -2.1764
  970MOL0     H33812   5.362   0.739   2.230 -1.7905  0.2368 -0.4949
  970MOL0     H33813   5.477   0.870   2.209  1.3369  1.4419 -2.4654
  970MOL0     H33814   5.304   1.025   2.148 -0.9136 -0.7803 -1.5742
  970MOL0     H33815   5.180   0.917   2.146  0.4673  0.4965 -2.0632
  970MOL0     H33816   5.352   0.951   2.383  0.3917 -0.8898 -2.7909
  970MOL0     H33817   5.196   1.050   2.362 -0.3187  0.2921  1.8429
  970MOL0     H33818   5.003   0.991   2.250 -0.9747  1.6885  1.5245
  970MOL0     H33819   4.815   1.049   2.135  0.5039  1.2666  1.9009
  970MOL0     H33820   4.712   1.106   2.264  2.9305  2.4938 -0.3427
  970MOL0     H33821   4.665   0.966   2.166 -0.9386  0.7087  0.2673
  970MOL0     H33822   4.458   0.551   2.228 -0.5703 -1.3241  0.0794
  970MOL0     H33823   4.212   0.522   2.203  1.2758  1.4469 -1.4646
  970MOL0     H33824   4.082   0.360   2.497 -0.7731 -1.0384 -0.8686
  970MOL0     H33825   3.990   0.474   2.589  0.8334 -0.2770 -0.2291
  970MOL0     H33826   3.794   0.472   2.448 -2.1708 -1.2471  1.5666
  970MOL0     H33827   3.857   0.318   2.388 -0.7392 -0.2526 -0.0803
  970MOL0     H33828   3.812   0.360   2.681 -0.9171  0.7559  0.1416
  970MOL0     H33829   3.858   0.211   2.606  0.0138  0.4881  4.2812
  970MOL0     H33830   3.647   0.189   2.472 -1.5944 -3.5510  2.4284
  970MOL0     H33831   3.586   0.335   2.554  2.3004  1.5098 -2.0752
  970MOL0     H33832   3.669   0.100   2.727  0.9713  0.7233  0.4064
  970MOL0     H33833   3.579   0.234   2.775 -0.0919 -0.2524  0.5368
  970MOL0     H33834   3.418   0.035   2.715  1.6677 -1.2973  0.4832
  970MOL0     H33835   3.482   0.035   2.553 -4.1015  1.4327 -1.5896
  970MOL0     H33836   3.368   0.233   2.499 -0.0042  3.2940  0.9949
  970MOL0     H33837   3.365   0.294   2.656 -1.3319 -1.4990  1.2218
  970MOL0     H33838   3.219   0.051   2.544 -1.3219 -1.7954  2.0178
  970MOL0     H33839   3.135   0.194   2.599 -1.3029  0.3925  3.5375
  970MOL0     H33840   4.143   0.650   2.592  0.1848  2.1226 -1.5404
  970MOL0     H33841   4.381   0.699   2.623  4.1375 -3.5049 -0.7697
  970MOL0     H33842   4.787   0.660   2.535 -0.2222  0.6837  0.0615
  970MOL0     H33843   5.021   0.678   2.545  1.3020  2.9612  1.9670
  970MOL0     H33844   6.424   1.514   1.857  1.5457  2.1478  0.9030
  970MOL0     H33845   6.593   1.470   1.686 -1.5238  1.0566  0.5594
  970MOL0     H33846   6.911   1.150   1.562  0.0488 -1.0936  1.5778
  970MOL0     H33847   7.071   1.015   1.452 -0.6462 -0.1896  0.3191
  970MOL0     H33848   7.301   1.155   1.299 -0.0938 -2.0534 -2.5009
  970MOL0     H33849   7.463   1.110   1.358  0.5637  0.0824 -4.0148
  970MOL0     H33850   7.467   0.936   1.252 -1.1502  1.1985  0.8046
  970MOL0     H33851   7.369   1.039   1.142 -0.6497  1.9424  0.1774
  970MOL0     H33852   7.275   0.801   1.312 -2.7356  0.5606  0.9807
  970MOL0     H33853   7.158   0.884   1.223 -0.4440 -3.5533  1.6175
  970MOL0     H33854   7.223   0.818   1.007  0.1785  0.2905  0.3698
  970MOL0     H33855   7.231   0.671   1.111  1.6868 -0.2362  0.3973
  970MOL0     H33856   7.626   0.695   0.963 -1.4539 -1.3536 -1.2056
  970MOL0     H33857   7.386   1.171   1.629 -0.2263 -0.1721 -3.6913
  970MOL0     H33858   7.383   1.324   1.818  0.0681 -1.4315  0.8773
  970MOL0     H33859   7.273   1.458   1.820  1.4391  0.1075  2.5153
  970MOL0     H33860   7.227   1.323   1.904  0.1016 -2.5177 -1.3248
  971MOL0     O33861   8.964  10.235   2.056 -0.3905  0.5039  0.4791
  971MOL0     C33862   9.015  10.129   2.076 -0.6188  0.9997  0.3001
  971MOL0     O33863   8.994  10.054   2.184 -0.4486 -0.5820 -0.6847
  971MOL0     C33864   8.904  10.115   2.277 -0.1180  0.2319 -0.2749
  971MOL0     C33865   8.956  10.212   2.367 -0.6675  0.6881  0.0899
  971MOL0     C33866   8.865  10.281   2.456 -0.7554  0.5138  0.0062
  971MOL0     C33867   8.727  10.241   2.461  0.1630  0.7179  0.1448
  971MOL0     O33868   8.653  10.319   2.547  0.7563  0.7653  0.3367
  971MOL0     C33869   8.515  10.295   2.555  0.2159  1.1785 -1.0523
  971MOL0     C33870   8.453  10.346   2.680 -0.0074 -0.1772 -0.5009
  971MOL0     C33871   8.323  10.284   2.710 -0.6596  0.7058  1.1405
  971MOL0     C33872   8.262  10.363   2.820 -0.3622 -0.6283  0.5253
  971MOL0     C33873   8.121  10.310   2.854  0.2330  0.0371 -0.3894
  971MOL0     C33874   8.128  10.169   2.918  0.3082 -0.1883 -0.2357
  971MOL0     C33875   8.195  10.152   3.053  0.5384 -0.0947  0.1035
  971MOL0     C33876   8.113  10.216   3.172 -0.2782 -0.4087 -0.1942
  971MOL0     N33877   7.973  10.162   3.193  0.9336  0.1968 -0.0199
  971MOL0     C33878   7.865  10.182   3.112 -0.1737  0.6852 -0.7463
  971MOL0     C33879   7.789  10.076   3.137  0.4972  0.0848 -0.8970
  971MOL0     C33880   7.652  10.062   3.071  0.6225  1.1812 -0.6687
  971MOL0     C33881   7.530  10.079   3.175  0.0475  0.8721  0.2948
  971MOL0     C33882   7.391  10.076   3.103  0.2903  0.4233  0.3169
  971MOL0     C33883   7.261  10.066   3.187 -0.9594  0.3491  0.4848
  971MOL0     O33884   7.155  10.065   3.096 -0.2894 -0.1056  0.1308
  971MOL0     C33885   7.111  10.176   3.031 -0.5986  0.5103 -0.6746
  971MOL0     C33886   7.097  10.294   3.103  0.1836 -0.4519 -0.7699
  971MOL0     C33887   7.052  10.410   3.038 -0.1332 -0.5121 -0.4783
  971MOL0     C33888   7.084  10.553   3.087  0.5628 -1.4590  0.0835
  971MOL0     C33889   6.999  10.395   2.900  0.2260  0.1903  0.1799
  971MOL0     C33890   6.969  10.510   2.801  0.0925  0.4345 -1.5653
  971MOL0     O33891   6.884  10.485   2.705 -0.0879  0.7401 -0.2381
  971MOL0     C33892   6.877  10.570   2.600  1.6560 -0.3188 -0.6739
  971MOL0     C33893   6.747  10.616   2.576 -0.2336 -0.5714  0.1738
  971MOL0     C33894   6.720  10.709   2.470 -0.6079  0.1025  0.1185
  971MOL0     C33895   6.807  10.722   2.364 -0.6286 -0.1337 -0.6411
  971MOL0     O33896   6.793  10.788   2.248 -0.0069 -0.4026  0.2025
  971MOL0     C33897   6.658  10.818   2.224  0.2828  0.9358  0.4502
  971MOL0     C33898   6.628  10.821   2.073  0.9010 -0.1351  0.3708
  971MOL0     C33899   6.471  10.845   2.068 -0.3846 -0.8063  1.0317
  971MOL0     C33900   6.424  10.990   2.083  0.4850 -0.7527 -0.6482
  971MOL0     C33901   6.272  10.989   2.054  0.6283 -0.0847 -1.2038
  971MOL0     C33902   6.175  10.955   2.171  0.1017  0.3910 -0.3107
  971MOL0     C33903   6.029  10.956   2.128 -0.2870  0.2704 -0.3544
  971MOL0     C33904   5.961  11.081   2.100 -0.2501 -0.0088  0.5387
  971MOL0    Cl33905   5.976  11.191   2.242  0.0417 -0.2247 -0.1683
  971MOL0     C33906   6.941  10.671   2.379  0.4031 -0.3587  0.5112
  971MOL0     C33907   6.977  10.603   2.503  0.6534 -0.2353  0.3517
  971MOL0     O33908   7.053  10.598   2.798  0.0353  0.1607 -0.8809
  971MOL0     C33909   6.993  10.272   2.847 -0.2715  0.5489  1.2316
  971MOL0     C33910   7.039  10.156   2.905 -0.4246  0.6312 -1.2175
  971MOL0     N33911   7.840  10.003   3.236  1.0828  0.1539  0.1683
  971MOL0     N33912   7.942  10.065   3.279 -0.7432 -0.8173 -0.0169
  971MOL0     C33913   8.684  10.142   2.367  0.0215  0.7371 -0.8256
  971MOL0     C33914   8.778  10.070   2.282 -0.0910 -1.0912  0.9237
  971MOL0     C33915   9.109  10.084   1.965 -0.9111 -0.0144  0.1021
  971MOL0     C33916   9.118  10.161   1.849  0.8865 -0.2034  0.1473
  971MOL0     C33917   9.178  10.114   1.735  1.0435  0.4889 -0.7845
  971MOL0     C33918   9.251   9.996   1.725 -0.0846 -0.0930 -0.0001
  971MOL0     O33919   9.315   9.977   1.606  0.2199  0.1391  0.0974
  971MOL0     C33920   9.374   9.848   1.587 -0.0874 -0.2273 -0.0178
  971MOL0     C33921   9.353   9.794   1.438 -0.3021 -0.2955 -1.3847
  971MOL0     C33922   9.206   9.827   1.394  0.5245 -0.2795 -0.3679
  971MOL0     C33923   9.149   9.750   1.275  0.9953 -0.0932 -0.4917
  971MOL0     C33924   9.146   9.606   1.287 -0.8038  0.8870  0.6643
  971MOL0     C33925   9.134   9.484   1.308  0.7444 -0.3935  0.3830
  971MOL0     C33926   9.260   9.924   1.847  0.1083  0.5482  0.5178
  971MOL0     C33927   9.186   9.961   1.962  0.0154  0.1801  0.5408
  971MOL0     C33928   9.184   9.861   2.078 -0.0993  0.4715  0.6705
  971MOL0     H33929   9.055  10.251   2.344 -0.9954 -1.0345 -5.6099
  971MOL0     H33930   8.899  10.366   2.514 -0.0631  0.6084 -0.5220
  971MOL0     H33931   8.501  10.187   2.560  1.9110  0.9311 -1.0222
  971MOL0     H33932   8.461  10.344   2.473  1.3423  0.1859 -2.4415
  971MOL0     H33933   8.525  10.332   2.760 -0.6310  0.8721  0.2713
  971MOL0     H33934   8.443  10.453   2.658 -3.0066 -0.0396  0.9993
  971MOL0     H33935   8.269  10.284   2.615  1.8870  0.6913 -0.4015
  971MOL0     H33936   8.328  10.179   2.739 -0.1783 -0.4153 -2.5538
  971MOL0     H33937   8.316  10.359   2.916  1.7592  0.3904 -0.5489
  971MOL0     H33938   8.251  10.466   2.783  1.5831 -0.6830 -0.3563
  971MOL0     H33939   8.053  10.316   2.769  0.9148 -3.1738 -1.3177
  971MOL0     H33940   8.080  10.371   2.935 -0.2805 -4.1835  2.8728
  971MOL0     H33941   8.025  10.133   2.928  0.2192 -0.2561 -1.3463
  971MOL0     H33942   8.177  10.088   2.864  0.8682 -1.0829  1.5234
  971MOL0     H33943   8.299  10.186   3.047  1.3592 -2.2888  0.7326
  971MOL0     H33944   8.215  10.045   3.067 -0.1452  0.0631  2.8770
  971MOL0     H33945   8.158  10.212   3.271 -0.0482  1.5413 -0.1822
  971MOL0     H33946   8.103  10.325   3.163  3.2747  0.0235 -0.1657
  971MOL0     H33947   7.857  10.268   3.047 -0.9145  1.6684  0.5975
  971MOL0     H33948   7.636   9.970   3.015  0.2309  1.4804 -1.0541
  971MOL0     H33949   7.651  10.147   3.002  0.9313  3.5715  2.0660
  971MOL0     H33950   7.531   9.996   3.246 -2.9238  1.9775  1.8062
  971MOL0     H33951   7.543  10.169   3.234 -1.5942  2.4550 -1.5837
  971MOL0     H33952   7.394  10.168   3.044 -0.1970  1.7911  2.3467
  971MOL0     H33953   7.398   9.990   3.035  0.7657 -1.5992  2.8007
  971MOL0     H33954   7.264   9.975   3.248  1.0892 -0.1695 -0.2966
  971MOL0     H33955   7.263  10.151   3.255 -3.3304  0.8196  0.0520
  971MOL0     H33956   7.131  10.300   3.206 -1.4133 -2.6511 -0.0252
  971MOL0     H33957   7.086  10.564   3.196  0.4598  3.2922 -0.1557
  971MOL0     H33958   7.027  10.636   3.045  1.0447 -1.8298 -1.3773
  971MOL0     H33959   7.190  10.572   3.063  1.0523 -2.0642  1.6538
  971MOL0     H33960   6.665  10.590   2.642 -0.1974  2.0713  1.3728
  971MOL0     H33961   6.623  10.758   2.476  0.3085  1.8810  1.3526
  971MOL0     H33962   6.592  10.745   2.272  0.0647  1.8280  1.5177
  971MOL0     H33963   6.626  10.918   2.251 -1.6559  0.7288 -0.9035
  971MOL0     H33964   6.673  10.909   2.027 -0.4577 -1.0405 -2.9741
  971MOL0     H33965   6.667  10.729   2.028 -1.0506 -1.6286  1.5798
  971MOL0     H33966   6.418  10.785   2.143 -1.3948 -0.4936  0.5905
  971MOL0     H33967   6.443  10.792   1.976  1.6893  1.2565 -0.9284
  971MOL0     H33968   6.472  11.057   2.012  0.9673 -0.4423 -0.0344
  971MOL0     H33969   6.452  11.028   2.181 -0.3753 -0.4604 -0.5115
  971MOL0     H33970   6.245  11.088   2.017 -1.4310 -0.7191 -1.5357
  971MOL0     H33971   6.259  10.913   1.977  3.0955 -3.2183  1.1940
  971MOL0     H33972   6.189  11.025   2.254  2.9668  1.3319 -1.4884
  971MOL0     H33973   6.195  10.852   2.202 -0.6991 -0.0301 -1.1401
  971MOL0     H33974   5.973  10.912   2.210 -1.6145  0.7049 -0.9818
  971MOL0     H33975   6.015  10.895   2.038 -0.2995  0.7846 -0.7093
  971MOL0     H33976   5.857  11.057   2.076  0.0050 -1.3467  0.6652
  971MOL0     H33977   6.005  11.122   2.009  0.5230  0.6375  1.1889
  971MOL0     H33978   7.014  10.702   2.305  0.2757  1.8060  1.1972
  971MOL0     H33979   7.080  10.588   2.531  2.1245  1.2737 -3.5305
  971MOL0     H33980   6.938  10.247   2.756  0.6187 -1.5227  1.2054
  971MOL0     H33981   7.035  10.065   2.845 -0.3142  1.9554 -3.3484
  971MOL0     H33982   8.578  10.121   2.359  0.6622 -2.0595 -3.7628
  971MOL0     H33983   8.756   9.991   2.211 -1.9962 -0.0659  0.2936
  971MOL0     H33984   9.048  10.244   1.838 -1.2253 -1.5720  2.2784
  971MOL0     H33985   9.164  10.186   1.655  0.6664 -0.5560 -1.6839
  971MOL0     H33986   9.477   9.863   1.620 -0.1378  1.1828 -0.4368
  971MOL0     H33987   9.323   9.770   1.645 -0.0237  1.0076  1.8004
  971MOL0     H33988   9.368   9.686   1.435 -0.9324 -0.4084 -0.6096
  971MOL0     H33989   9.428   9.837   1.371  0.9597 -0.1986  0.0360
  971MOL0     H33990   9.129   9.798   1.465 -1.2960 -1.5358 -2.7042
  971MOL0     H33991   9.208   9.933   1.365  0.3697 -0.4900 -1.1749
  971MOL0     H33992   9.196   9.782   1.182  0.5961  0.2648 -0.5720
  971MOL0     H33993   9.042   9.775   1.270  1.3422  1.2327 -1.9239
  971MOL0     H33994   9.109   9.381   1.320 -1.9822  0.3043  1.3819
  971MOL0     H33995   9.329   9.841   1.856 -2.2488 -1.5586  0.2093
  971MOL0     H33996   9.237   9.912   2.159 -1.4845  0.7719  1.4227
  971MOL0     H33997   9.078   9.837   2.086 -0.6162  1.4611 -2.0331
  971MOL0     H33998   9.239   9.768   2.063 -1.1731 -0.0852  0.1643
  972MOL0     O33999  10.780   4.019  10.208  0.3067 -0.2813  0.1667
  972MOL0     C34000  10.669   4.005  10.251  0.6968  0.6404 -0.5387
  972MOL0     O34001  10.557   3.993  10.175  0.1099 -0.3827 -0.2813
  972MOL0     C34002  10.576   3.998  10.033  0.4601 -0.2082 -0.3741
  972MOL0     C34003  10.513   3.895   9.957 -0.2139 -0.3879 -0.6581
  972MOL0     C34004  10.507   3.886   9.819 -0.0107  0.2343 -0.1444
  972MOL0     C34005  10.563   3.991   9.752 -0.3394 -0.3557 -0.4870
  972MOL0     O34006  10.590   3.965   9.623  0.2346 -0.0292  0.7572
  972MOL0     C34007  10.567   4.068   9.523  0.3896 -0.2579  0.1877
  972MOL0     C34008  10.695   4.109   9.448 -1.0085  0.5087 -0.2773
  972MOL0     C34009  10.787   3.991   9.419  0.9023 -0.0044  0.2289
  972MOL0     C34010  10.721   3.902   9.314 -0.4843 -0.1013 -1.0541
  972MOL0     C34011  10.812   3.786   9.276  0.4464 -0.2608 -0.1779
  972MOL0     C34012  10.812   3.656   9.374  0.0739  0.1831  0.3284
  972MOL0     C34013  10.717   3.550   9.319  0.5984 -0.6905 -0.1276
  972MOL0     C34014  10.580   3.560   9.376  0.5247 -0.0230  0.0065
  972MOL0     N34015  10.500   3.436   9.410  0.0189 -0.7287  0.2401
  972MOL0     C34016  10.540   3.319   9.480 -0.4287  0.6946  0.4395
  972MOL0     C34017  10.434   3.233   9.462 -0.2722  0.9141 -0.0926
  972MOL0     C34018  10.420   3.094   9.519  0.8026  0.8589 -0.1822
  972MOL0     C34019  10.480   2.983   9.442 -0.2724 -0.4332 -0.7561
  972MOL0     C34020  10.631   2.963   9.479 -0.0485 -0.5522 -0.6884
  972MOL0     C34021  10.713   2.879   9.390 -0.5965  0.7966  0.0215
  972MOL0     O34022  10.650   2.743   9.385 -0.5526 -0.8112 -0.3008
  972MOL0     C34023  10.584   2.710   9.274  0.6242  0.1953  0.4859
  972MOL0     C34024  10.646   2.726   9.147  0.0174 -0.7171  0.2112
  972MOL0     C34025  10.585   2.690   9.026  0.7605 -0.4251  0.5074
  972MOL0     C34026  10.666   2.712   8.903 -0.4171 -0.2762 -0.1812
  972MOL0     C34027  10.453   2.619   9.033 -1.2425 -0.3904  0.4859
  972MOL0     C34028  10.368   2.586   8.917  0.1286  0.3917 -0.2778
  972MOL0     O34029  10.242   2.532   8.931 -0.7939  0.5733 -0.2251
  972MOL0     C34030  10.178   2.489   8.819  0.3619  0.0412 -0.0145
  972MOL0     C34031  10.128   2.360   8.806  0.5955  0.4688 -0.4425
  972MOL0     C34032  10.039   2.317   8.709  1.1025  0.3357  1.0953
  972MOL0     C34033  10.012   2.409   8.607 -0.6407 -0.8102  0.1575
  972MOL0     O34034   9.931   2.361   8.512  0.8860  0.4497  0.4902
  972MOL0     C34035   9.995   2.356   8.381 -0.2406 -0.5562  0.4952
  972MOL0     C34036   9.906   2.276   8.274  0.8173  0.2684 -0.1234
  972MOL0     C34037   9.841   2.149   8.333 -0.2082 -0.9232  0.0910
  972MOL0     C34038   9.769   2.073   8.232 -0.9793  0.3608 -0.1934
  972MOL0     C34039   9.626   2.113   8.189  0.6277 -0.0886  0.0048
  972MOL0     C34040   9.610   2.089   8.038  0.2660 -0.1325  0.0330
  972MOL0     C34041   9.461   2.065   8.004  0.1679  0.1856 -0.6357
  972MOL0     C34042   9.404   1.933   8.061 -0.0211 -0.0582  0.2325
  972MOL0    Cl34043   9.276   1.878   7.955 -0.0627  0.1931 -0.1964
  972MOL0     C34044  10.068   2.533   8.604 -0.4750 -0.5433  0.1745
  972MOL0     C34045  10.155   2.574   8.705 -0.2673 -0.7499 -0.4711
  972MOL0     O34046  10.427   2.601   8.811 -1.1523 -0.2156  0.1416
  972MOL0     C34047  10.405   2.582   9.160 -0.2111 -0.5073  0.3648
  972MOL0     C34048  10.466   2.628   9.281  0.2759 -0.1313 -0.2842
  972MOL0     N34049  10.337   3.297   9.382 -0.6084  0.2265  0.1357
  972MOL0     N34050  10.379   3.412   9.355  0.0411 -0.0053 -0.1057
  972MOL0     C34051  10.632   4.091   9.825 -0.8465 -0.2930  0.4980
  972MOL0     C34052  10.637   4.096   9.962 -0.3432 -0.3731 -0.0134
  972MOL0     C34053  10.655   3.971  10.392 -0.4206  1.4697  0.4934
  972MOL0     C34054  10.584   4.049  10.476 -0.2501  0.5640 -0.5654
  972MOL0     C34055  10.572   4.008  10.609  0.4206  0.0537 -0.8252
  972MOL0     C34056  10.614   3.880  10.649 -0.1481 -0.3308  0.4811
  972MOL0     O34057  10.588   3.851  10.777  0.2073  0.6663  0.7143
  972MOL0     C34058  10.638   3.728  10.836 -1.3321 -0.0049 -0.2971
  972MOL0     C34059  10.591   3.723  10.983  0.3180  0.7326 -0.0539
  972MOL0     C34060  10.434   3.705  10.996  0.0876  0.1821  0.2147
  972MOL0     C34061  10.385   3.604  11.108 -0.2553 -0.0742  0.5384
  972MOL0     C34062  10.273   3.529  11.059  0.2257 -0.7783 -0.4153
  972MOL0     C34063  10.211   3.441  11.018  0.0557 -0.5524  0.2134
  972MOL0     C34064  10.684   3.796  10.567  0.0439 -0.0738 -0.4168
  972MOL0     C34065  10.699   3.835  10.436 -0.2062 -0.3666 -0.2416
  972MOL0     C34066  10.755   3.733  10.331  0.4345  0.2956 -0.6375
  972MOL0     H34067  10.475   3.812  10.015 -1.6250 -0.4439 -1.6166
  972MOL0     H34068  10.478   3.804   9.754  1.3686 -0.4130  0.0358
  972MOL0     H34069  10.518   4.150   9.576  0.1939 -1.4001  1.8557
  972MOL0     H34070  10.500   4.036   9.443  2.2147  1.7766 -2.3292
  972MOL0     H34071  10.665   4.161   9.356  0.9630  0.9647 -0.7051
  972MOL0     H34072  10.749   4.173   9.518  0.1014  0.3219 -0.9404
  972MOL0     H34073  10.884   4.022   9.378  2.5478 -0.6453  3.2831
  972MOL0     H34074  10.824   3.940   9.509  0.1010  1.3226  1.3308
  972MOL0     H34075  10.617   3.878   9.338 -0.5288 -0.5376 -1.6528
  972MOL0     H34076  10.703   3.955   9.219  1.0364  0.1898 -1.2035
  972MOL0     H34077  10.911   3.829   9.257 -0.2232  2.3858  1.6795
  972MOL0     H34078  10.783   3.752   9.176  1.9354  1.7329 -1.3439
  972MOL0     H34079  10.917   3.623   9.377  1.6595  4.6414  0.5800
  972MOL0     H34080  10.791   3.681   9.478 -2.1703  2.2763 -0.5225
  972MOL0     H34081  10.761   3.451   9.335 -2.0347 -1.8260  0.6102
  972MOL0     H34082  10.704   3.558   9.210 -0.4311  1.3455  0.0863
  972MOL0     H34083  10.581   3.617   9.469 -0.1606  2.1462 -1.2530
  972MOL0     H34084  10.529   3.629   9.308  2.2941  2.2890  0.8961
  972MOL0     H34085  10.629   3.296   9.538 -1.8364 -1.7252  1.7867
  972MOL0     H34086  10.313   3.078   9.527  1.0741 -1.6528 -0.8982
  972MOL0     H34087  10.460   3.083   9.620 -0.3655 -1.7855  0.0705
  972MOL0     H34088  10.429   2.889   9.466  2.9403 -1.9619  0.6078
  972MOL0     H34089  10.485   3.008   9.335  0.8015 -2.3230 -1.1993
  972MOL0     H34090  10.673   3.064   9.480 -1.4814  0.0607 -0.4173
  972MOL0     H34091  10.627   2.929   9.583 -2.2112  1.6716  0.0743
  972MOL0     H34092  10.732   2.921   9.291  0.8668  0.9032  0.3273
  972MOL0     H34093  10.813   2.880   9.435 -0.1432  1.0521 -0.9731
  972MOL0     H34094  10.743   2.775   9.152 -0.1099 -0.3268 -0.8623
  972MOL0     H34095  10.764   2.752   8.931 -1.0938  0.8497  0.6953
  972MOL0     H34096  10.610   2.789   8.850  0.2232 -0.9205 -1.8608
  972MOL0     H34097  10.683   2.623   8.841 -2.1196 -2.1708  1.8903
  972MOL0     H34098  10.136   2.298   8.894  0.1631 -0.8576 -1.3013
  972MOL0     H34099  10.009   2.213   8.712  3.3956 -0.3596  1.4586
  972MOL0     H34100  10.007   2.454   8.335  3.2850 -1.0061  0.1760
  972MOL0     H34101  10.093   2.309   8.388 -1.3822 -3.4688 -1.2717
  972MOL0     H34102   9.826   2.340   8.236 -1.2225 -1.0046  1.7873
  972MOL0     H34103   9.963   2.255   8.183 -1.7616 -0.1860 -1.7316
  972MOL0     H34104   9.777   2.199   8.406  0.8989  1.6856 -0.6202
  972MOL0     H34105   9.921   2.097   8.386  1.6200  2.2659  0.7533
  972MOL0     H34106   9.767   1.970   8.269  1.2284 -0.2429 -1.5435
  972MOL0     H34107   9.836   2.068   8.145 -0.2472  1.9591  0.2247
  972MOL0     H34108   9.563   2.042   8.244  0.4525  1.2100  1.5339
  972MOL0     H34109   9.589   2.214   8.205  1.5050  0.1292  0.7124
  972MOL0     H34110   9.664   2.001   8.002 -2.3220 -1.6757 -0.3446
  972MOL0     H34111   9.636   2.176   7.976 -2.0246  2.0341  1.8718
  972MOL0     H34112   9.454   2.062   7.895  0.3225  0.6010 -0.6579
  972MOL0     H34113   9.398   2.144   8.046 -2.6101 -1.8149 -0.7952
  972MOL0     H34114   9.372   1.935   8.165  2.1217 -0.2020  0.9548
  972MOL0     H34115   9.485   1.859   8.061  0.2385  0.1986  1.5580
  972MOL0     H34116  10.039   2.599   8.523 -3.0164 -0.6741  0.8884
  972MOL0     H34117  10.183   2.679   8.710 -1.2426 -0.5375  1.6830
  972MOL0     H34118  10.311   2.528   9.160 -0.7376  0.3820 -0.3867
  972MOL0     H34119  10.433   2.586   9.376  1.3060 -4.3387 -1.5647
  972MOL0     H34120  10.680   4.168   9.765 -1.5663 -0.0035  0.2838
  972MOL0     H34121  10.682   4.180  10.015 -0.4999 -1.5114  2.0056
  972MOL0     H34122  10.540   4.138  10.431  0.7134  1.1931 -0.2994
  972MOL0     H34123  10.515   4.063  10.683  0.5582  0.8590 -1.3105
  972MOL0     H34124  10.591   3.642  10.790 -0.7450  0.0817 -1.0741
  972MOL0     H34125  10.747   3.724  10.830 -1.3772 -0.5646 -0.8253
  972MOL0     H34126  10.626   3.805  11.047  1.0757  0.2459  0.1650
  972MOL0     H34127  10.639   3.634  11.025 -1.6960 -0.7170 -0.6373
  972MOL0     H34128  10.385   3.802  11.010  2.7954  1.3495  2.8866
  972MOL0     H34129  10.399   3.663  10.901  0.0621 -2.5115  1.3329
  972MOL0     H34130  10.346   3.658  11.194  3.0774  0.5414  1.8398
  972MOL0     H34131  10.467   3.536  11.135 -0.6494 -1.4238 -1.4152
  972MOL0     H34132  10.157   3.353  10.988 -0.7342 -0.2885  0.8265
  972MOL0     H34133  10.712   3.695  10.596  0.7261  0.2993  0.2532
  972MOL0     H34134  10.808   3.659  10.392 -0.5544  0.0676 -0.0304
  972MOL0     H34135  10.666   3.693  10.283  0.6369 -0.5553 -0.3205
  972MOL0     H34136  10.819   3.769  10.250 -1.7942  2.2942 -1.6106
  973MOL0     O34137   6.801   0.403   7.693 -0.9988 -0.4664 -0.2353
  973MOL0     C34138   6.714   0.463   7.749 -0.7383 -0.1948  0.2343
  973MOL0     O34139   6.667   0.429   7.870 -0.1069  0.5669  0.0185
  973MOL0     C34140   6.701   0.309   7.942  0.0800 -0.6441  0.6565
  973MOL0     C34141   6.748   0.178   7.885 -0.4193 -1.2296 -0.4052
  973MOL0     C34142   6.793   0.081   7.966  0.4099 -0.5379  0.0513
  973MOL0     C34143   6.787   0.093   8.108 -0.1119  0.0364 -0.0931
  973MOL0     O34144   6.834  -0.010   8.174 -0.5731  0.0216 -0.6670
  973MOL0     C34145   6.758  -0.134   8.157 -0.2343 -0.5541 -0.4058
  973MOL0     C34146   6.766  -0.213   8.285  0.5887 -0.4832 -0.3376
  973MOL0     C34147   6.903  -0.260   8.314 -1.3366  0.2673  1.0874
  973MOL0     C34148   6.913  -0.355   8.433  0.1722  0.9006 -0.0655
  973MOL0     C34149   7.052  -0.358   8.494  0.2896 -0.3978  0.5518
  973MOL0     C34150   7.074  -0.469   8.589 -0.6964 -0.2268  0.6761
  973MOL0     C34151   7.207  -0.461   8.663 -0.1243 -0.6221  0.3489
  973MOL0     C34152   7.209  -0.355   8.772 -0.3647 -0.2256 -0.8280
  973MOL0     N34153   7.328  -0.374   8.860 -0.1457  0.8301  0.4003
  973MOL0     C34154   7.377  -0.485   8.920 -0.5232  0.3582  1.0288
  973MOL0     C34155   7.488  -0.445   8.992 -0.2751  0.3232 -0.4376
  973MOL0     C34156   7.573  -0.536   9.074 -0.1895 -0.1047  0.1689
  973MOL0     C34157   7.492  -0.575   9.206  0.3823 -0.6172  0.2664
  973MOL0     C34158   7.571  -0.644   9.324  0.2575 -0.3263  0.2128
  973MOL0     C34159   7.477  -0.657   9.443 -0.2916 -0.3613 -0.8784
  973MOL0     O34160   7.447  -0.534   9.516 -0.0780 -0.5236 -0.8192
  973MOL0     C34161   7.552  -0.459   9.566  0.3853 -0.7294 -0.3080
  973MOL0     C34162   7.510  -0.331   9.612  0.3491 -0.3092 -0.6698
  973MOL0     C34163   7.599  -0.245   9.688 -0.1865 -0.4232  1.0758
  973MOL0     C34164   7.544  -0.117   9.730 -0.3893 -0.1630  0.7675
  973MOL0     C34165   7.743  -0.285   9.691 -0.4464  0.5775 -0.5582
  973MOL0     C34166   7.851  -0.192   9.730 -0.1075 -0.5029 -0.2033
  973MOL0     O34167   7.975  -0.247   9.742  0.3457  0.4731  0.2385
  973MOL0     C34168   8.080  -0.162   9.743 -0.2570 -0.2348  0.1766
  973MOL0     C34169   8.108  -0.082   9.636 -0.1744 -0.1540  0.2545
  973MOL0     C34170   8.224  -0.006   9.625 -0.4257 -0.1108  0.5674
  973MOL0     C34171   8.312   0.006   9.738  0.6692  0.5308 -0.1239
  973MOL0     O34172   8.419   0.090   9.740 -0.1123 -0.2520  0.0280
  973MOL0     C34173   8.414   0.215   9.811  0.7148  0.6013  0.5444
  973MOL0     C34174   8.559   0.244   9.855  0.1965  0.4603 -0.2369
  973MOL0     C34175   8.649   0.288   9.742  0.3712 -0.5274 -0.9643
  973MOL0     C34176   8.797   0.305   9.794  0.5780  0.0444  0.0282
  973MOL0     C34177   8.887   0.410   9.715  0.0437 -0.9005  0.3186
  973MOL0     C34178   9.039   0.409   9.749 -0.0131 -0.0814 -0.2556
  973MOL0     C34179   9.129   0.505   9.678 -0.1564 -0.1129 -0.5794
  973MOL0     C34180   9.271   0.458   9.645 -0.6339  0.6978  0.0292
  973MOL0    Cl34181   9.254   0.323   9.530  0.2340  0.2907 -0.1732
  973MOL0     C34182   8.290  -0.073   9.851 -0.1691  1.0142 -0.2893
  973MOL0     C34183   8.181  -0.165   9.846  0.2956 -1.1430  0.1916
  973MOL0     O34184   7.825  -0.069   9.753 -0.4676 -0.8462  0.2580
  973MOL0     C34185   7.776  -0.410   9.634  0.1531  0.1109  0.3654
  973MOL0     C34186   7.686  -0.499   9.581  0.7562 -1.1331  0.7109
  973MOL0     N34187   7.507  -0.309   8.963 -0.1164 -0.2013  0.0369
  973MOL0     N34188   7.405  -0.269   8.894 -0.2124  0.9472 -0.5777
  973MOL0     C34189   6.727   0.207   8.165 -0.1630  0.8956 -0.6192
  973MOL0     C34190   6.681   0.312   8.082 -0.4973  0.8717 -0.5971
  973MOL0     C34191   6.649   0.575   7.676  0.4143  0.8766  0.4767
  973MOL0     C34192   6.578   0.669   7.748  1.0127 -1.8925  0.4323
  973MOL0     C34193   6.544   0.790   7.700 -0.8145  0.4646 -0.8948
  973MOL0     C34194   6.567   0.823   7.561 -0.1035  0.5025  0.0464
  973MOL0     O34195   6.519   0.924   7.498  0.1479  0.2663  0.7660
  973MOL0     C34196   6.376   0.918   7.471  0.5033 -0.1221  0.2369
  973MOL0     C34197   6.358   0.979   7.328 -0.1162 -0.0811 -0.2747
  973MOL0     C34198   6.209   1.017   7.302 -0.7698 -0.3123  0.1574
  973MOL0     C34199   6.151   0.959   7.182  0.1079  0.0593  0.7727
  973MOL0     C34200   6.011   0.994   7.170 -0.2213  0.7530  1.1309
  973MOL0     C34201   5.896   1.023   7.154  0.7282 -0.0506 -0.6440
  973MOL0     C34202   6.641   0.726   7.483  0.2875 -1.5665  0.0185
  973MOL0     C34203   6.668   0.599   7.532  0.7070 -1.0300 -0.5384
  973MOL0     C34204   6.749   0.515   7.431 -0.3514 -0.1913  0.1251
  973MOL0     H34205   6.761   0.167   7.778  1.1907  1.7833 -0.6401
  973MOL0     H34206   6.829  -0.004   7.910  2.7837  0.5777 -0.2159
  973MOL0     H34207   6.803  -0.180   8.069  1.8880  3.4368 -1.6924
  973MOL0     H34208   6.653  -0.110   8.133  0.2261  2.1985 -0.0704
  973MOL0     H34209   6.730  -0.146   8.363  0.7331 -1.7045  0.8203
  973MOL0     H34210   6.706  -0.304   8.273  3.3726 -2.8625  2.1491
  973MOL0     H34211   6.943  -0.312   8.226 -0.1887  0.5645  1.4142
  973MOL0     H34212   6.963  -0.171   8.336 -2.8909  2.0751 -1.4615
  973MOL0     H34213   6.842  -0.310   8.502  2.6015 -0.4767  3.6720
  973MOL0     H34214   6.898  -0.461   8.407 -1.7066  1.7045 -2.6363
  973MOL0     H34215   7.100  -0.268   8.533  0.8160 -0.5254  0.2012
  973MOL0     H34216   7.120  -0.381   8.412 -0.8003 -2.2633  0.1232
  973MOL0     H34217   6.991  -0.462   8.660 -1.5190  4.2799 -0.3900
  973MOL0     H34218   7.078  -0.565   8.538  3.2234  0.0419  0.1912
  973MOL0     H34219   7.289  -0.451   8.592 -1.2432  2.4803 -0.6463
  973MOL0     H34220   7.218  -0.563   8.702 -2.0816 -0.4862  1.3737
  973MOL0     H34221   7.208  -0.251   8.736 -1.9702  0.2303  0.4261
  973MOL0     H34222   7.119  -0.376   8.831  0.8589  0.0859  1.2665
  973MOL0     H34223   7.341  -0.587   8.910 -0.3798  0.2841  1.2711
  973MOL0     H34224   7.665  -0.482   9.098 -1.9514  2.0858  2.5536
  973MOL0     H34225   7.612  -0.619   9.014 -2.9545  0.8863 -3.2984
  973MOL0     H34226   7.453  -0.483   9.249  2.2059  0.2806  0.1302
  973MOL0     H34227   7.407  -0.634   9.173 -0.3675  0.9952 -0.8189
  973MOL0     H34228   7.603  -0.743   9.290  2.2869  0.3689 -0.0736
  973MOL0     H34229   7.660  -0.582   9.342 -0.0857  1.1001 -2.5060
  973MOL0     H34230   7.385  -0.702   9.404  0.1088 -0.1463 -2.1421
  973MOL0     H34231   7.533  -0.714   9.517  0.2037  0.4918 -0.5848
  973MOL0     H34232   7.403  -0.321   9.596 -0.2879 -3.4600  0.7601
  973MOL0     H34233   7.435  -0.124   9.737 -0.1726 -2.2469  3.0894
  973MOL0     H34234   7.578  -0.041   9.658 -0.9703 -0.4786  0.1429
  973MOL0     H34235   7.573  -0.088   9.831 -1.1769 -0.1104  0.9834
  973MOL0     H34236   8.024  -0.075   9.568 -0.2187  0.1245  0.3372
  973MOL0     H34237   8.253   0.055   9.540  0.1158 -1.5893 -0.3291
  973MOL0     H34238   8.386   0.293   9.740  3.3222  0.8725 -0.2821
  973MOL0     H34239   8.344   0.205   9.894  2.5322  1.7012  2.2953
  973MOL0     H34240   8.557   0.321   9.933  0.8818  0.1462  0.1010
  973MOL0     H34241   8.598   0.151   9.898  1.7741  2.2208  2.4552
  973MOL0     H34242   8.619   0.387   9.706  1.3876  0.4438  0.7163
  973MOL0     H34243   8.650   0.220   9.656  1.2671  0.6892 -1.9545
  973MOL0     H34244   8.855   0.214   9.774  0.2260  0.1825 -1.8038
  973MOL0     H34245   8.792   0.335   9.899 -0.0864  2.1632 -0.5602
  973MOL0     H34246   8.886   0.386   9.608  2.5548 -0.7146  0.1962
  973MOL0     H34247   8.833   0.506   9.716 -1.2571 -1.4903 -2.4627
  973MOL0     H34248   9.072   0.310   9.715  0.3340  0.6198 -2.1069
  973MOL0     H34249   9.062   0.420   9.855 -0.1385 -1.0060 -0.1266
  973MOL0     H34250   9.143   0.593   9.742  1.4320 -0.5945 -0.2362
  973MOL0     H34251   9.074   0.537   9.589 -1.8513 -0.6131  0.2384
  973MOL0     H34252   9.317   0.422   9.737 -0.6276 -0.3718 -0.3703
  973MOL0     H34253   9.328   0.545   9.610 -2.0774  1.3844 -0.6877
  973MOL0     H34254   8.356  -0.074   9.937 -1.2546 -0.1725  0.5801
  973MOL0     H34255   8.168  -0.241   9.922  0.1140 -3.3213 -1.8796
  973MOL0     H34256   7.881  -0.436   9.636 -0.2156 -1.7163 -1.0394
  973MOL0     H34257   7.735  -0.591   9.552  0.8618 -0.6276 -0.8592
  973MOL0     H34258   6.733   0.197   8.273 -1.9382 -1.8295 -0.6767
  973MOL0     H34259   6.632   0.394   8.133 -0.5217 -0.1914  1.1496
  973MOL0     H34260   6.567   0.663   7.856 -2.3873 -3.2697  0.1482
  973MOL0     H34261   6.496   0.852   7.776  2.0190  0.2157  1.2953
  973MOL0     H34262   6.330   0.820   7.486  0.5299 -0.5348 -2.0412
  973MOL0     H34263   6.328   0.987   7.542 -0.4497 -1.2465  0.7122
  973MOL0     H34264   6.390   0.906   7.253  1.8209  0.7248 -0.2876
  973MOL0     H34265   6.422   1.068   7.323  3.5777 -2.5577 -1.9819
  973MOL0     H34266   6.159   0.983   7.393  0.5284 -1.7855  0.3668
  973MOL0     H34267   6.197   1.125   7.298  2.7090  0.4020  3.4085
  973MOL0     H34268   6.161   0.851   7.191  3.7875  0.0377 -1.4817
  973MOL0     H34269   6.201   0.991   7.090  0.8242 -0.8688  0.8350
  973MOL0     H34270   5.793   1.049   7.136  1.1858  0.6292 -2.5114
  973MOL0     H34271   6.652   0.755   7.379 -1.4810  0.6117  0.3679
  973MOL0     H34272   6.692   0.443   7.370 -2.0343 -0.3177  1.7522
  973MOL0     H34273   6.808   0.581   7.367 -2.0023 -0.5674 -1.9432
  973MOL0     H34274   6.829   0.461   7.481 -0.5406  1.4343  2.3273
  974MOL0     O34275   7.743   6.043   5.277  0.5754  0.4717 -0.4731
  974MOL0     C34276   7.691   6.037   5.394  0.2453 -0.2814 -0.4102
  974MOL0     O34277   7.752   5.994   5.510  0.0463  0.0053 -0.0380
  974MOL0     C34278   7.875   6.048   5.542 -0.5304  0.7112 -0.4285
  974MOL0     C34279   7.934   6.002   5.662  0.0105 -0.1207 -0.6673
  974MOL0     C34280   8.063   6.036   5.692 -0.5322 -0.3101 -0.4738
  974MOL0     C34281   8.148   6.116   5.609  0.3273 -0.6195 -1.0802
  974MOL0     O34282   8.269   6.150   5.646 -0.6226 -0.3766 -0.3816
  974MOL0     C34283   8.364   6.214   5.556 -0.9939 -0.0526 -0.4986
  974MOL0     C34284   8.497   6.229   5.625 -0.4349  0.0330  0.1636
  974MOL0     C34285   8.606   6.261   5.526  0.1756 -0.0774  0.1754
  974MOL0     C34286   8.739   6.263   5.596 -0.4800 -0.1564 -0.0986
  974MOL0     C34287   8.863   6.302   5.512 -0.1686  0.3095  0.0794
  974MOL0     C34288   8.992   6.267   5.591 -0.2193 -0.2560  0.1245
  974MOL0     C34289   9.020   6.121   5.630 -0.6411 -0.3746  0.0843
  974MOL0     C34290   9.148   6.090   5.722  0.3080 -0.2492  0.9316
  974MOL0     N34291   9.173   6.179   5.827 -0.3008 -0.5040  0.1429
  974MOL0     C34292   9.156   6.156   5.960  0.2649  0.0098  0.2458
  974MOL0     C34293   9.223   6.265   6.020 -0.5075  0.2402 -0.5576
  974MOL0     C34294   9.237   6.300   6.161 -0.3918  0.4707  0.7162
  974MOL0     C34295   9.380   6.321   6.198 -0.1148 -0.3304 -0.3347
  974MOL0     C34296   9.442   6.184   6.247 -0.6801 -0.9276 -0.2907
  974MOL0     C34297   9.569   6.220   6.330  0.4567  0.5053 -0.5536
  974MOL0     O34298   9.527   6.303   6.441 -0.4435 -0.4690  0.4699
  974MOL0     C34299   9.452   6.254   6.546  0.5982  0.6367  0.4654
  974MOL0     C34300   9.376   6.346   6.621 -0.4378 -0.2412 -0.0282
  974MOL0     C34301   9.299   6.304   6.735  0.3725 -0.1976  0.7418
  974MOL0     C34302   9.238   6.406   6.824 -0.3286 -0.4385 -0.2367
  974MOL0     C34303   9.287   6.164   6.761 -0.0000  0.2783 -1.3371
  974MOL0     C34304   9.206   6.101   6.878 -0.4268 -0.5382 -0.0044
  974MOL0     O34305   9.104   6.174   6.931  0.0483  1.0868 -0.1287
  974MOL0     C34306   9.037   6.144   7.049 -0.3331  0.6925  0.7811
  974MOL0     C34307   9.110   6.156   7.161 -0.8526  0.3502  0.0750
  974MOL0     C34308   9.041   6.118   7.277 -0.3315  0.2944 -0.3753
  974MOL0     C34309   8.908   6.085   7.289 -0.5491  0.5151 -0.5426
  974MOL0     O34310   8.857   6.046   7.409 -0.7504 -0.6303  0.4801
  974MOL0     C34311   8.881   6.099   7.540 -0.8136 -0.9551 -1.0777
  974MOL0     C34312   8.747   6.087   7.628  0.2980 -0.4371  0.5490
  974MOL0     C34313   8.771   6.045   7.769  0.3498  0.2994  0.4266
  974MOL0     C34314   8.742   5.893   7.779  0.1900  0.2620  0.6270
  974MOL0     C34315   8.770   5.831   7.923  0.0160  0.6196  0.3412
  974MOL0     C34316   8.929   5.823   7.965  0.3822 -0.2252 -0.2182
  974MOL0     C34317   9.015   5.768   7.854 -0.3608  0.4630  0.3292
  974MOL0     C34318   9.150   5.735   7.920  0.9402 -0.5756  0.6808
  974MOL0    Cl34319   9.239   5.891   7.947  0.2775 -0.0162  0.1583
  974MOL0     C34320   8.831   6.089   7.177 -0.1142 -0.7158 -0.0314
  974MOL0     C34321   8.896   6.117   7.060 -0.4641  0.4871  0.3288
  974MOL0     O34322   9.233   5.991   6.909  0.4926  0.3570 -0.3906
  974MOL0     C34323   9.358   6.080   6.677  0.2243  0.2902 -0.1549
  974MOL0     C34324   9.442   6.125   6.582  0.0876 -0.1446  0.1197
  974MOL0     N34325   9.284   6.337   5.921 -0.0871  0.9467 -0.3297
  974MOL0     N34326   9.248   6.290   5.809 -0.2514 -0.7005 -0.7143
  974MOL0     C34327   8.081   6.171   5.494 -0.6553  0.6046 -0.5552
  974MOL0     C34328   7.948   6.138   5.464  0.3276 -0.6755  0.1981
  974MOL0     C34329   7.543   6.046   5.395  0.0487 -0.7574 -0.6884
  974MOL0     C34330   7.469   5.975   5.495 -0.3408 -0.6138 -0.1972
  974MOL0     C34331   7.332   6.007   5.506 -0.3094  0.7600  0.5674
  974MOL0     C34332   7.263   6.094   5.417  0.8612 -0.1871 -0.4538
  974MOL0     O34333   7.132   6.129   5.430  0.4187 -0.2530  0.0216
  974MOL0     C34334   7.092   6.260   5.405 -1.0582  0.0154  0.6031
  974MOL0     C34335   7.018   6.256   5.264 -0.4658  0.9523  0.2638
  974MOL0     C34336   6.967   6.396   5.200  0.4484  0.7422 -0.9758
  974MOL0     C34337   6.829   6.446   5.251 -0.1269  0.0271 -0.0471
  974MOL0     C34338   6.828   6.453   5.405 -0.7201 -0.4291  0.3673
  974MOL0     C34339   6.818   6.446   5.525 -0.5252 -0.4471 -0.3343
  974MOL0     C34340   7.338   6.143   5.309  0.3996  0.0402 -0.3761
  974MOL0     C34341   7.476   6.132   5.310  0.0940 -0.4662  1.1362
  974MOL0     C34342   7.543   6.219   5.197  0.8087 -0.1605  0.5520
  974MOL0     H34343   7.874   5.935   5.724 -1.6018  0.6235 -1.3610
  974MOL0     H34344   8.104   5.991   5.782 -0.2372  1.8328  0.5249
  974MOL0     H34345   8.333   6.309   5.511  1.2244  1.3259  0.7241
  974MOL0     H34346   8.392   6.143   5.478 -0.4361  2.2720 -2.5505
  974MOL0     H34347   8.475   6.302   5.703  1.0361  1.4435 -0.6665
  974MOL0     H34348   8.522   6.141   5.685 -0.0458 -1.8044 -2.4823
  974MOL0     H34349   8.615   6.180   5.453  0.8551 -1.9770  2.2234
  974MOL0     H34350   8.588   6.356   5.476 -2.4644 -0.6532 -0.1161
  974MOL0     H34351   8.725   6.339   5.674  0.2756  3.1107 -2.8730
  974MOL0     H34352   8.755   6.169   5.649 -0.7183 -0.4224 -0.4988
  974MOL0     H34353   8.866   6.410   5.497  0.4743  0.3673  0.5644
  974MOL0     H34354   8.868   6.258   5.412 -3.5468 -0.0701 -0.0408
  974MOL0     H34355   9.071   6.299   5.522 -1.1683  0.9062 -0.4623
  974MOL0     H34356   8.990   6.320   5.686 -0.6479  0.5570 -0.3244
  974MOL0     H34357   9.017   6.060   5.539 -0.9297 -2.6484  1.5437
  974MOL0     H34358   8.942   6.084   5.697  1.1454 -2.4044  1.1617
  974MOL0     H34359   9.156   5.984   5.750  0.1731 -1.4181 -2.8889
  974MOL0     H34360   9.238   6.106   5.661  0.8524 -3.0061  0.8425
  974MOL0     H34361   9.097   6.080   6.010 -0.7932  0.2373 -0.6002
  974MOL0     H34362   9.198   6.227   6.232 -0.2981  0.6437  0.9499
  974MOL0     H34363   9.184   6.395   6.177  1.0684  1.5356 -0.5074
  974MOL0     H34364   9.427   6.375   6.116 -2.0965 -0.7033 -1.7985
  974MOL0     H34365   9.366   6.382   6.288 -1.2892  1.1211 -1.4553
  974MOL0     H34366   9.370   6.131   6.311  0.0616  1.4510  2.7591
  974MOL0     H34367   9.464   6.123   6.159 -2.7109 -0.5081 -1.1489
  974MOL0     H34368   9.626   6.130   6.354 -0.0957  0.4755  0.6910
  974MOL0     H34369   9.618   6.288   6.260 -1.7704  1.0421 -1.7066
  974MOL0     H34370   9.388   6.453   6.604  2.3822 -0.8023 -2.3418
  974MOL0     H34371   9.281   6.417   6.924 -5.9266 -1.1388  2.6768
  974MOL0     H34372   9.131   6.388   6.838  0.4035 -3.0868  3.6608
  974MOL0     H34373   9.254   6.506   6.784  1.4548 -0.3035  0.7096
  974MOL0     H34374   9.213   6.187   7.154 -1.3290  2.1106  0.5157
  974MOL0     H34375   9.099   6.158   7.360  1.0714  2.4304 -2.2446
  974MOL0     H34376   8.964   6.045   7.587  0.6595  1.6772 -0.4461
  974MOL0     H34377   8.912   6.204   7.548  0.1436 -1.3381  0.7713
  974MOL0     H34378   8.704   6.187   7.639  1.5085  0.3439 -1.2204
  974MOL0     H34379   8.679   6.020   7.575  0.1818  1.3092 -1.6717
  974MOL0     H34380   8.714   6.100   7.846  1.0906  1.1023  0.4146
  974MOL0     H34381   8.877   6.052   7.792  0.5481  0.5866 -0.5593
  974MOL0     H34382   8.800   5.836   7.705 -1.4849  1.6495 -1.9108
  974MOL0     H34383   8.639   5.871   7.746  1.0725 -3.1987 -0.2708
  974MOL0     H34384   8.718   5.903   7.987  1.6917  1.8601  0.4009
  974MOL0     H34385   8.716   5.736   7.931 -0.8735  0.9731 -1.1936
  974MOL0     H34386   8.935   5.755   8.050 -1.2614  1.6285  1.4884
  974MOL0     H34387   8.965   5.920   7.999  0.9015  0.7347 -3.2310
  974MOL0     H34388   9.022   5.839   7.771  0.0230  1.7697  1.4444
  974MOL0     H34389   8.975   5.678   7.806 -0.5013  2.3106 -3.4186
  974MOL0     H34390   9.218   5.678   7.856  0.4271  0.6711 -1.0424
  974MOL0     H34391   9.136   5.688   8.018 -1.2755 -1.4838 -0.0312
  974MOL0     H34392   8.724   6.077   7.193 -0.7140  1.7268 -1.6281
  974MOL0     H34393   8.835   6.095   6.972 -3.5844  0.0263  2.4309
  974MOL0     H34394   9.375   5.973   6.684 -2.9147 -0.4325 -1.5156
  974MOL0     H34395   9.491   6.045   6.528 -0.6056 -0.8031  0.4359
  974MOL0     H34396   8.124   6.254   5.438  0.3245  2.3382  2.5190
  974MOL0     H34397   7.902   6.171   5.372 -1.6281 -3.6443 -0.0516
  974MOL0     H34398   7.519   5.914   5.570  0.2735  1.4818  1.1898
  974MOL0     H34399   7.283   5.964   5.592  4.8990  0.1426  3.6117
  974MOL0     H34400   7.019   6.287   5.482 -0.6764 -2.9335  2.1416
  974MOL0     H34401   7.181   6.323   5.408 -1.2438  0.2389  2.0302
  974MOL0     H34402   6.939   6.182   5.274  1.4887 -1.9407 -3.3156
  974MOL0     H34403   7.093   6.224   5.192 -0.1649 -0.4681  1.1744
  974MOL0     H34404   7.041   6.474   5.221 -0.3617  0.6472  2.9737
  974MOL0     H34405   6.952   6.383   5.093 -3.7482  0.8106 -0.5481
  974MOL0     H34406   6.746   6.383   5.218  1.6100 -1.5982 -1.5673
  974MOL0     H34407   6.826   6.552   5.224  3.1588  1.1603  3.1845
  974MOL0     H34408   6.808   6.444   5.632  1.1433 -2.0874 -0.1541
  974MOL0     H34409   7.283   6.208   5.241 -2.1813 -0.8553  0.7383
  974MOL0     H34410   7.544   6.142   5.119  0.8759  0.2914  0.1003
  974MOL0     H34411   7.485   6.298   5.149 -1.1970 -0.4141  2.4036
  974MOL0     H34412   7.642   6.250   5.229  0.5906  0.5919  0.5072
  975MOL0     O34413   6.178   2.189   0.669 -0.7151  0.1998 -0.5377
  975MOL0     C34414   6.191   2.069   0.703 -0.1773 -0.3995  0.6793
  975MOL0     O34415   6.306   2.004   0.712 -0.2431  0.1525 -0.3673
  975MOL0     C34416   6.424   2.049   0.649 -0.2819 -0.8429  0.1873
  975MOL0     C34417   6.498   1.978   0.545  0.2334  0.5954  0.1841
  975MOL0     C34418   6.622   2.018   0.497  0.7298  0.3594 -0.8418
  975MOL0     C34419   6.690   2.120   0.557 -0.5184  0.0440 -0.9679
  975MOL0     O34420   6.819   2.155   0.502  0.5469 -0.2865 -0.1555
  975MOL0     C34421   6.858   2.299   0.527  0.4156 -0.2726  0.3230
  975MOL0     C34422   6.952   2.325   0.640  0.8069  0.3615  0.7113
  975MOL0     C34423   7.101   2.282   0.620  0.1443 -0.4312 -0.0926
  975MOL0     C34424   7.186   2.262   0.755  0.8277 -1.0045 -0.2465
  975MOL0     C34425   7.183   2.386   0.844 -0.1483 -0.3628 -0.2386
  975MOL0     C34426   7.247   2.351   0.980  0.3517  0.1362  0.2524
  975MOL0     C34427   7.289   2.468   1.067  0.2452 -0.3277  0.5277
  975MOL0     C34428   7.195   2.497   1.183  0.6197 -0.1174 -0.0159
  975MOL0     N34429   7.174   2.382   1.273 -0.3518  0.3596 -0.2767
  975MOL0     C34430   7.261   2.281   1.311  0.5554  0.8503  0.7065
  975MOL0     C34431   7.196   2.217   1.412 -0.4815 -0.4665  0.5823
  975MOL0     C34432   7.256   2.098   1.490 -0.5990 -0.0063 -0.2360
  975MOL0     C34433   7.343   2.159   1.597 -0.5582  0.5042 -0.2332
  975MOL0     C34434   7.273   2.250   1.694  0.8674  0.1236 -0.7811
  975MOL0     C34435   7.352   2.291   1.816 -1.0642 -0.2632  0.4702
  975MOL0     O34436   7.381   2.179   1.904  0.3508 -0.2868  1.2998
  975MOL0     C34437   7.289   2.116   1.985  0.1877 -0.0282  0.0881
  975MOL0     C34438   7.351   2.024   2.068 -0.0714  0.2240  0.4034
  975MOL0     C34439   7.279   1.968   2.174 -0.2570 -0.9723  0.7882
  975MOL0     C34440   7.365   1.899   2.273  0.1253  0.1424  0.6556
  975MOL0     C34441   7.137   1.986   2.183  0.7778 -0.6071 -0.2451
  975MOL0     C34442   7.042   1.916   2.282 -0.6531  0.1438  0.3668
  975MOL0     O34443   7.102   1.842   2.377 -0.1407 -0.5765  0.2531
  975MOL0     C34444   7.047   1.826   2.498  1.3428  1.0623  0.2985
  975MOL0     C34445   7.101   1.737   2.582 -0.8256 -0.4832 -0.6199
  975MOL0     C34446   7.057   1.714   2.709 -0.4572  0.2683  0.0548
  975MOL0     C34447   6.939   1.774   2.754  0.8572  0.1643 -0.4090
  975MOL0     O34448   6.879   1.750   2.876  0.1499 -0.6577  0.8246
  975MOL0     C34449   6.855   1.870   2.951 -0.1302  0.0656  0.8015
  975MOL0     C34450   6.938   1.879   3.080  0.3000  0.8166 -0.0084
  975MOL0     C34451   7.100   1.875   3.068 -0.0729  0.5581 -0.1028
  975MOL0     C34452   7.152   2.027   3.081 -0.1516  1.7938  0.1603
  975MOL0     C34453   7.168   2.093   2.952 -0.8465  0.1294  0.7011
  975MOL0     C34454   7.292   2.042   2.867 -0.3651 -0.2342  1.2128
  975MOL0     C34455   7.320   2.132   2.741 -0.5001 -0.0739  0.3634
  975MOL0     C34456   7.455   2.088   2.687  0.2185 -0.0579 -0.4285
  975MOL0    Cl34457   7.504   2.191   2.552  0.0457 -0.5732 -0.1738
  975MOL0     C34458   6.879   1.859   2.670  0.8978 -0.4817 -0.5954
  975MOL0     C34459   6.931   1.898   2.551 -0.5738 -0.5240 -0.9496
  975MOL0     O34460   6.926   1.939   2.265  0.4075  0.5548  0.0656
  975MOL0     C34461   7.076   2.082   2.093  0.4560 -0.8404 -0.9737
  975MOL0     C34462   7.154   2.147   1.996  0.3122 -0.3865  0.4398
  975MOL0     N34463   7.071   2.278   1.430 -0.7360 -0.1938  0.3470
  975MOL0     N34464   7.066   2.382   1.350  0.0886 -0.8844 -0.7075
  975MOL0     C34465   6.625   2.193   0.653 -0.3780 -0.3410 -0.4641
  975MOL0     C34466   6.488   2.169   0.695 -0.5207  0.1640 -1.0212
  975MOL0     C34467   6.061   1.997   0.727 -0.4473  0.5048 -0.8455
  975MOL0     C34468   5.939   2.072   0.725 -0.8369  0.1752 -0.7621
  975MOL0     C34469   5.820   2.012   0.759 -0.5576 -0.8661  1.2602
  975MOL0     C34470   5.810   1.879   0.783 -0.9371  0.6469  0.1560
  975MOL0     O34471   5.686   1.817   0.789 -0.2595  0.2054 -0.4449
  975MOL0     C34472   5.672   1.719   0.903  0.5281 -0.1338  1.0055
  975MOL0     C34473   5.632   1.779   1.029 -0.6468  0.8485 -1.0321
  975MOL0     C34474   5.640   1.671   1.143 -0.0863  0.4755 -0.2491
  975MOL0     C34475   5.576   1.713   1.265  0.1174  0.4820 -0.2707
  975MOL0     C34476   5.540   1.596   1.348  0.4175  0.4511  0.6233
  975MOL0     C34477   5.503   1.499   1.413  0.7688  0.2273  0.4842
  975MOL0     C34478   5.923   1.804   0.770  0.7434  0.1341  0.2815
  975MOL0     C34479   6.047   1.852   0.753 -0.1600 -0.1488 -0.2262
  975MOL0     C34480   6.158   1.753   0.735  0.3998  0.5923  0.3509
  975MOL0     H34481   6.431   1.912   0.490  4.4028 -3.3854 -0.7277
  975MOL0     H34482   6.647   1.961   0.408 -1.5629 -0.6007 -0.9388
  975MOL0     H34483   6.766   2.351   0.555  0.6670 -0.0778  0.7832
  975MOL0     H34484   6.909   2.330   0.435  2.7318 -3.4579  0.3590
  975MOL0     H34485   6.939   2.430   0.665  0.8051  0.0985  1.8740
  975MOL0     H34486   6.905   2.270   0.722 -2.1743  3.1762  1.0509
  975MOL0     H34487   7.103   2.196   0.553  1.3426 -1.3850  1.1145
  975MOL0     H34488   7.150   2.358   0.558 -0.5370 -0.8538 -1.1841
  975MOL0     H34489   7.134   2.178   0.801 -0.5186  0.5339  1.1906
  975MOL0     H34490   7.290   2.242   0.725  0.9721  2.6396 -2.8480
  975MOL0     H34491   7.082   2.424   0.861 -1.5865 -2.8822 -2.4266
  975MOL0     H34492   7.239   2.465   0.794 -0.7027 -0.4038 -0.9500
  975MOL0     H34493   7.181   2.275   1.023 -0.4480  1.6564  1.8684
  975MOL0     H34494   7.330   2.282   0.968 -1.6232 -3.0277  3.0753
  975MOL0     H34495   7.305   2.553   1.001 -0.0625 -0.5898  0.1092
  975MOL0     H34496   7.393   2.460   1.099 -0.0362 -3.7472  0.9896
  975MOL0     H34497   7.237   2.587   1.230 -1.7081  2.0456 -1.8167
  975MOL0     H34498   7.094   2.519   1.147  0.1497 -0.8032  0.8512
  975MOL0     H34499   7.356   2.240   1.279  0.0131 -0.1384  0.3112
  975MOL0     H34500   7.311   2.030   1.425 -1.9793 -3.5992  1.9993
  975MOL0     H34501   7.169   2.036   1.517  0.4588 -0.1068  3.5394
  975MOL0     H34502   7.372   2.068   1.651 -0.3891  1.1869  0.8464
  975MOL0     H34503   7.430   2.208   1.552 -1.4436  0.8275 -1.6726
  975MOL0     H34504   7.252   2.348   1.649  1.1450  0.4431 -0.2317
  975MOL0     H34505   7.177   2.203   1.720  0.7741 -0.7153 -2.5081
  975MOL0     H34506   7.443   2.343   1.784 -0.1796  0.1230  3.3183
  975MOL0     H34507   7.299   2.372   1.867  1.1638  2.0318 -0.6248
  975MOL0     H34508   7.455   2.008   2.041 -0.2723  0.6249 -0.6710
  975MOL0     H34509   7.460   1.873   2.225 -0.2604  0.8016 -0.4905
  975MOL0     H34510   7.316   1.813   2.319 -1.3404  0.1235 -0.8686
  975MOL0     H34511   7.385   1.968   2.356  2.1117 -0.2825  0.5945
  975MOL0     H34512   7.191   1.688   2.546  1.0431  1.7906  0.6954
  975MOL0     H34513   7.109   1.647   2.776  1.8470 -2.6033 -4.1280
  975MOL0     H34514   6.883   1.960   2.896 -2.8061  1.0241  0.8510
  975MOL0     H34515   6.748   1.889   2.959 -0.0754  1.4378 -1.0275
  975MOL0     H34516   6.898   1.969   3.127 -1.8778 -0.8824  1.6708
  975MOL0     H34517   6.905   1.798   3.147 -1.6154 -0.9393 -2.8458
  975MOL0     H34518   7.137   1.831   2.974  2.1124 -1.6069  1.6552
  975MOL0     H34519   7.150   1.815   3.144  1.7446 -0.6594 -2.1533
  975MOL0     H34520   7.248   2.030   3.135 -1.1613 -2.0847  2.5550
  975MOL0     H34521   7.081   2.089   3.136 -0.8592  1.3915 -0.3018
  975MOL0     H34522   7.068   2.098   2.907 -1.2888  0.5691  1.6892
  975MOL0     H34523   7.205   2.194   2.971  2.2944 -0.3817 -1.9220
  975MOL0     H34524   7.290   1.943   2.822  3.0424  1.2300 -2.8331
  975MOL0     H34525   7.366   2.031   2.946  0.8715  0.2664  0.1491
  975MOL0     H34526   7.315   2.237   2.771  3.9837 -0.1781  2.4189
  975MOL0     H34527   7.247   2.129   2.660  1.3347 -4.2641 -1.4149
  975MOL0     H34528   7.463   1.988   2.643 -2.3470 -1.5594  2.1079
  975MOL0     H34529   7.521   2.098   2.774 -1.0932  0.8312  0.5087
  975MOL0     H34530   6.781   1.901   2.690 -0.1574 -2.2632 -1.6998
  975MOL0     H34531   6.874   1.966   2.488 -0.7547  0.4245  0.2060
  975MOL0     H34532   6.970   2.107   2.103  1.3010  2.2437  2.9641
  975MOL0     H34533   7.104   2.225   1.939  0.6828  0.2106  0.9222
  975MOL0     H34534   6.667   2.273   0.712 -2.4977  2.2284 -2.2371
  975MOL0     H34535   6.457   2.227   0.782  2.9007 -1.3915  1.4738
  975MOL0     H34536   5.947   2.170   0.680  0.1166  0.1698 -0.6341
  975MOL0     H34537   5.734   2.078   0.751 -1.8445 -2.3568  2.1223
  975MOL0     H34538   5.606   1.635   0.879 -1.0164  1.2470  0.2138
  975MOL0     H34539   5.769   1.671   0.916  0.7847 -1.0085 -2.7980
  975MOL0     H34540   5.530   1.819   1.018 -0.6229  1.1339 -0.2713
  975MOL0     H34541   5.703   1.857   1.057  1.7796 -1.3903 -0.6102
  975MOL0     H34542   5.612   1.569   1.118  2.7087 -0.7090  0.9872
  975MOL0     H34543   5.745   1.654   1.171 -0.6393 -1.6758  0.6879
  975MOL0     H34544   5.486   1.769   1.236 -0.7702 -0.8862 -0.2863
  975MOL0     H34545   5.632   1.780   1.331  1.7579 -1.2617  0.1943
  975MOL0     H34546   5.480   1.409   1.467  1.2305 -0.9669 -1.2075
  975MOL0     H34547   5.914   1.696   0.773 -1.4089  0.1656 -1.5179
  975MOL0     H34548   6.118   1.664   0.784 -2.9012  1.2390 -0.8923
  975MOL0     H34549   6.173   1.739   0.627 -2.2068  2.2959 -0.3303
  975MOL0     H34550   6.252   1.768   0.788  1.0801 -2.0880  0.0829
  976MOL0     O34551   4.741   2.042   0.516 -0.7524  0.0034  0.6815
  976MOL0     C34552   4.713   2.121   0.603 -0.1770 -0.0474  0.0497
  976MOL0     O34553   4.643   2.239   0.588 -0.0075 -0.2676 -0.7198
  976MOL0     C34554   4.623   2.309   0.468  0.2811  0.0581  0.0689
  976MOL0     C34555   4.701   2.282   0.357 -0.5821 -0.8191  1.3020
  976MOL0     C34556   4.651   2.323   0.232 -0.3597  0.7186 -0.5633
  976MOL0     C34557   4.524   2.374   0.214  0.3303 -0.3654 -0.6851
  976MOL0     O34558   4.487   2.393   0.079 -0.0397  0.0531 -0.3549
  976MOL0     C34559   4.354   2.421   0.045  1.0557  0.1874  0.9162
  976MOL0     C34560   4.342   2.407  -0.109 -0.3859 -0.6585 -0.2154
  976MOL0     C34561   4.384   2.263  -0.157  0.1987 -0.1414 -0.1785
  976MOL0     C34562   4.328   2.226  -0.299 -0.6815 -0.9294  0.2014
  976MOL0     C34563   4.427   2.295  -0.400 -0.6333  0.3146  0.4632
  976MOL0     C34564   4.378   2.278  -0.550 -0.3479 -0.0562 -1.2075
  976MOL0     C34565   4.397   2.411  -0.614 -0.0949  0.8588 -0.2861
  976MOL0     C34566   4.544   2.459  -0.636 -0.0326  0.2243 -0.4017
  976MOL0     N34567   4.633   2.368  -0.708 -0.0332  0.8080  0.2430
  976MOL0     C34568   4.623   2.317  -0.838 -0.9010 -0.5809  0.2588
  976MOL0     C34569   4.732   2.228  -0.846 -0.2429 -0.1340  1.0243
  976MOL0     C34570   4.772   2.143  -0.968 -0.6064 -0.2517  0.5328
  976MOL0     C34571   4.655   2.051  -1.012  1.6415  0.3243 -0.5501
  976MOL0     C34572   4.669   1.990  -1.148 -0.2603 -0.7182 -0.5294
  976MOL0     C34573   4.731   1.842  -1.150 -0.5479  0.2156  0.3400
  976MOL0     O34574   4.874   1.847  -1.151  0.2893 -0.8249 -0.1131
  976MOL0     C34575   4.946   1.734  -1.189 -0.7339  0.1693  0.2035
  976MOL0     C34576   5.081   1.749  -1.195  0.1752 -0.3274 -0.4733
  976MOL0     C34577   5.163   1.652  -1.235  0.4404  0.2905 -0.5726
  976MOL0     C34578   5.309   1.686  -1.219 -1.2080  0.3614  1.0950
  976MOL0     C34579   5.113   1.517  -1.264  0.6585 -0.7020 -0.2996
  976MOL0     C34580   5.194   1.383  -1.279 -0.0917  0.0622  0.6996
  976MOL0     O34581   5.112   1.270  -1.276 -0.0786  0.0181 -0.7526
  976MOL0     C34582   5.173   1.153  -1.227 -0.2487 -0.5063  0.5423
  976MOL0     C34583   5.113   1.073  -1.126  0.2795 -0.9419  0.0148
  976MOL0     C34584   5.169   0.959  -1.070 -1.0543  1.3331 -0.5991
  976MOL0     C34585   5.303   0.920  -1.121  1.2090 -0.2706 -0.8673
  976MOL0     O34586   5.370   0.811  -1.078 -0.1475 -0.2119 -0.1976
  976MOL0     C34587   5.285   0.720  -1.014  0.5350  0.9543  0.7476
  976MOL0     C34588   5.325   0.574  -1.037 -0.3308  0.4075 -0.4703
  976MOL0     C34589   5.330   0.547  -1.195  0.6522  0.3178 -0.0220
  976MOL0     C34590   5.400   0.422  -1.235 -0.1568 -0.5675 -1.0043
  976MOL0     C34591   5.531   0.454  -1.318 -0.8228  0.0541 -1.5440
  976MOL0     C34592   5.602   0.322  -1.358 -0.1548  0.7763  0.4050
  976MOL0     C34593   5.648   0.244  -1.230 -0.2674 -0.0713 -0.1216
  976MOL0     C34594   5.751   0.146  -1.258  0.4455 -0.8462  0.5470
  976MOL0    Cl34595   5.851   0.094  -1.124  0.0001  0.0383  0.4327
  976MOL0     C34596   5.359   0.994  -1.219 -0.3100  0.6903  1.3718
  976MOL0     C34597   5.296   1.102  -1.275 -0.8420 -0.7808  1.0852
  976MOL0     O34598   5.314   1.390  -1.285 -0.2276  0.1855  0.0015
  976MOL0     C34599   4.976   1.514  -1.283 -0.6439 -1.0514 -0.3820
  976MOL0     C34600   4.897   1.611  -1.235 -0.2565 -0.3401  0.2889
  976MOL0     N34601   4.803   2.240  -0.730 -0.4168 -0.0650 -0.1101
  976MOL0     N34602   4.738   2.313  -0.644 -0.6506  0.2043  0.5837
  976MOL0     C34603   4.448   2.405   0.333 -0.0518 -1.2574 -0.4553
  976MOL0     C34604   4.506   2.385   0.460 -0.5389 -0.7081  0.5524
  976MOL0     C34605   4.727   2.076   0.749  0.0768 -0.4243  0.0396
  976MOL0     C34606   4.652   2.147   0.857 -0.6244 -0.3726 -0.5302
  976MOL0     C34607   4.672   2.106   0.992 -0.3224  0.0492  0.1070
  976MOL0     C34608   4.758   1.997   1.029 -0.0673 -0.1330  0.7137
  976MOL0     O34609   4.751   1.944   1.153  0.3522  0.0841  0.1833
  976MOL0     C34610   4.649   1.987   1.244  0.2199 -0.0193  0.2840
  976MOL0     C34611   4.674   1.901   1.375  0.0354 -0.3861 -0.2520
  976MOL0     C34612   4.594   1.952   1.494 -0.7058  0.5451 -0.4751
  976MOL0     C34613   4.445   1.960   1.468  0.3336  0.3875 -0.2958
  976MOL0     C34614   4.367   1.941   1.589 -0.0438  0.4456  0.0370
  976MOL0     C34615   4.304   1.917   1.683 -0.1883 -0.7572 -0.1587
  976MOL0     C34616   4.828   1.945   0.931 -0.5116  0.4628  0.2236
  976MOL0     C34617   4.811   1.969   0.793  0.3043 -0.2945 -0.0822
  976MOL0     C34618   4.906   1.895   0.702  0.2675  0.2812  0.6167
  976MOL0     H34619   4.797   2.231   0.361 -0.0388 -0.2178 -1.8945
  976MOL0     H34620   4.700   2.297   0.139 -0.0755 -0.7685 -0.0228
  976MOL0     H34621   4.333   2.524   0.074 -2.4918  0.0921 -0.7541
  976MOL0     H34622   4.286   2.354   0.099  2.2986 -1.8647  0.0663
  976MOL0     H34623   4.238   2.432  -0.131 -0.9766 -3.1652 -0.5786
  976MOL0     H34624   4.414   2.480  -0.149  0.0590  1.1457  3.4901
  976MOL0     H34625   4.493   2.256  -0.161  0.3034  1.4313 -1.4128
  976MOL0     H34626   4.322   2.193  -0.101  0.6571  0.9015  1.7243
  976MOL0     H34627   4.355   2.120  -0.300 -0.0214 -0.7690  0.6696
  976MOL0     H34628   4.219   2.228  -0.313 -0.4632 -2.3414 -2.2726
  976MOL0     H34629   4.528   2.252  -0.393 -0.9379 -0.3816  0.7255
  976MOL0     H34630   4.436   2.400  -0.372  0.1237 -0.6476  4.4162
  976MOL0     H34631   4.430   2.195  -0.599 -0.0621 -1.3258  1.0747
  976MOL0     H34632   4.272   2.251  -0.541  0.2285 -1.6573  2.4221
  976MOL0     H34633   4.346   2.489  -0.557  1.5287  0.4524  1.8616
  976MOL0     H34634   4.344   2.399  -0.709 -2.2066  0.3597  0.8949
  976MOL0     H34635   4.544   2.544  -0.705  2.4080  3.8649  3.5903
  976MOL0     H34636   4.594   2.496  -0.546 -2.4846  0.0761  1.0935
  976MOL0     H34637   4.553   2.354  -0.912 -1.4537  3.3188  2.4429
  976MOL0     H34638   4.867   2.092  -0.953 -0.4205 -0.7417 -1.9417
  976MOL0     H34639   4.800   2.208  -1.052  0.1360  2.1706  2.5219
  976MOL0     H34640   4.652   1.978  -0.930 -1.1376  0.7576 -0.1912
  976MOL0     H34641   4.562   2.107  -1.013  0.4278 -1.5969 -0.5318
  976MOL0     H34642   4.572   2.004  -1.197  0.6768  0.5371 -2.1498
  976MOL0     H34643   4.735   2.058  -1.203 -0.3077  0.5716  0.9658
  976MOL0     H34644   4.687   1.771  -1.080  0.3266 -0.3148  0.3588
  976MOL0     H34645   4.712   1.801  -1.250  1.4916 -0.4533  0.1852
  976MOL0     H34646   5.120   1.849  -1.176 -2.2568  0.5154  0.4190
  976MOL0     H34647   5.359   1.630  -1.298  0.2157 -1.2370  3.0275
  976MOL0     H34648   5.361   1.647  -1.131  2.2758  0.0816 -0.8790
  976MOL0     H34649   5.331   1.793  -1.229 -0.4701  0.0303 -1.4322
  976MOL0     H34650   5.022   1.111  -1.080  1.7214 -0.1916  2.4151
  976MOL0     H34651   5.120   0.906  -0.989  1.1148 -0.0723 -0.0964
  976MOL0     H34652   5.283   0.742  -0.907 -2.9501  1.9088  0.6205
  976MOL0     H34653   5.183   0.713  -1.054  1.9916  1.5864 -3.6070
  976MOL0     H34654   5.422   0.559  -0.987 -0.5036  0.8699  0.0033
  976MOL0     H34655   5.261   0.515  -0.971  2.1929  1.6510  3.4370
  976MOL0     H34656   5.370   0.635  -1.246 -0.7504 -0.7496 -3.2261
  976MOL0     H34657   5.222   0.541  -1.212  0.2614 -1.4029  2.5003
  976MOL0     H34658   5.328   0.363  -1.293 -3.5151 -0.6608  2.8593
  976MOL0     H34659   5.427   0.367  -1.145  2.4228  2.6410  0.3609
  976MOL0     H34660   5.503   0.507  -1.409 -0.7601  0.6426 -1.2227
  976MOL0     H34661   5.595   0.510  -1.249 -2.4182  0.6147 -0.4518
  976MOL0     H34662   5.684   0.348  -1.426 -0.5698  1.5062  0.1746
  976MOL0     H34663   5.537   0.255  -1.415  0.7422 -1.5616  1.9539
  976MOL0     H34664   5.565   0.192  -1.180  1.5848 -4.1030 -0.8162
  976MOL0     H34665   5.698   0.319  -1.168 -0.4488 -0.6949  0.8013
  976MOL0     H34666   5.820   0.202  -1.322  3.2886  0.4838  4.3583
  976MOL0     H34667   5.699   0.069  -1.316 -4.4332  2.3296  0.1150
  976MOL0     H34668   5.457   0.965  -1.256  0.2535  2.8406  1.0797
  976MOL0     H34669   5.339   1.141  -1.367  1.0881 -0.5629  2.0308
  976MOL0     H34670   4.930   1.428  -1.330  0.1063 -0.8170 -1.5729
  976MOL0     H34671   4.795   1.577  -1.247  0.0415 -0.3824 -2.9112
  976MOL0     H34672   4.347   2.443   0.333 -0.4008 -2.1170 -1.6193
  976MOL0     H34673   4.445   2.404   0.548  1.0431 -2.2230  2.0514
  976MOL0     H34674   4.578   2.219   0.825 -0.8522 -0.5186 -0.3337
  976MOL0     H34675   4.622   2.161   1.071 -0.3330 -1.8361  1.4865
  976MOL0     H34676   4.674   2.091   1.266 -4.1922  1.5989 -1.2921
  976MOL0     H34677   4.545   1.970   1.213  0.1908  1.1614 -0.3167
  976MOL0     H34678   4.781   1.900   1.398 -0.0494  1.1802  0.3552
  976MOL0     H34679   4.650   1.795   1.364  2.8702 -1.1990  0.5011
  976MOL0     H34680   4.611   1.882   1.576  1.1624  4.4616  2.8789
  976MOL0     H34681   4.635   2.050   1.523 -4.8266  2.4979 -0.5720
  976MOL0     H34682   4.413   1.880   1.400 -1.9943  1.8064 -0.9779
  976MOL0     H34683   4.416   2.057   1.426 -1.8872  0.4627  1.2391
  976MOL0     H34684   4.245   1.912   1.772 -1.4654 -1.7669 -1.0310
  976MOL0     H34685   4.906   1.875   0.957  1.6867  2.5650 -0.3707
  976MOL0     H34686   4.847   1.826   0.641  1.2810  0.2261 -0.3242
  976MOL0     H34687   4.947   1.982   0.649  1.9190  0.2910  1.8404
  976MOL0     H34688   4.989   1.857   0.762  0.5646  1.8733  1.2774
  977MOL0     O34689   7.975   0.412   0.622 -0.0147  0.0696 -0.1247
  977MOL0     C34690   8.047   0.360   0.708 -0.1694 -0.3995 -1.3236
  977MOL0     O34691   8.115   0.245   0.706 -0.4095  0.0331  0.2938
  977MOL0     C34692   8.085   0.142   0.618 -0.3167 -0.0792 -0.8761
  977MOL0     C34693   8.195   0.088   0.543 -0.1263  0.6905 -0.0312
  977MOL0     C34694   8.175  -0.014   0.450 -0.0353 -0.4679 -0.8995
  977MOL0     C34695   8.046  -0.075   0.434  0.4965  0.1653  0.0867
  977MOL0     O34696   8.046  -0.177   0.334 -0.1377 -0.7868 -0.2670
  977MOL0     C34697   7.937  -0.168   0.253  0.4563 -0.3939  0.0021
  977MOL0     C34698   7.967  -0.222   0.122 -0.5367  0.7096  0.1719
  977MOL0     C34699   8.029  -0.365   0.117 -0.2060  0.4772  0.2911
  977MOL0     C34700   7.958  -0.442   0.005 -0.8273  0.9322  0.0100
  977MOL0     C34701   8.043  -0.572  -0.031  1.0759  0.1680 -0.4408
  977MOL0     C34702   8.002  -0.642  -0.158 -0.9837  0.1968  0.7830
  977MOL0     C34703   8.100  -0.757  -0.187  0.2973  0.4983 -0.6782
  977MOL0     C34704   8.047  -0.876  -0.265 -0.6363  0.3790 -0.6751
  977MOL0     N34705   8.158  -0.935  -0.347  0.0933  0.3881 -0.4827
  977MOL0     C34706   8.164  -0.923  -0.484 -0.2880  0.8381 -0.8179
  977MOL0     C34707   8.268  -0.989  -0.525 -0.0525  0.1165  0.2992
  977MOL0     C34708   8.325  -1.008  -0.657  0.6487  0.7010 -0.1176
  977MOL0     C34709   8.227  -1.047  -0.779  0.5930 -0.1095 -0.3129
  977MOL0     C34710   8.099  -1.134  -0.753  0.1597 -0.6236  0.0556
  977MOL0     C34711   8.143  -1.262  -0.682  0.7501  0.2019  1.0261
  977MOL0     O34712   8.222  -1.348  -0.774 -0.1201 -0.3435  0.7476
  977MOL0     C34713   8.344  -1.406  -0.735  0.1160 -0.2576 -0.9949
  977MOL0     C34714   8.412  -1.408  -0.609 -0.1617  0.4430 -0.9679
  977MOL0     C34715   8.533  -1.476  -0.596 -0.3353 -0.3710 -0.3428
  977MOL0     C34716   8.614  -1.449  -0.479 -0.5607  0.5335  0.1522
  977MOL0     C34717   8.593  -1.542  -0.712  1.0346 -0.0300 -0.5352
  977MOL0     C34718   8.714  -1.625  -0.698  0.4057 -0.1331 -0.7707
  977MOL0     O34719   8.733  -1.672  -0.580 -0.0771 -0.9583  0.0637
  977MOL0     C34720   8.846  -1.747  -0.556 -0.7632  1.3904  0.4410
  977MOL0     C34721   8.853  -1.887  -0.578 -0.8273  0.0888  0.2471
  977MOL0     C34722   8.954  -1.963  -0.522  0.4725  0.4510  0.2645
  977MOL0     C34723   9.060  -1.916  -0.447 -0.2575 -0.1727 -0.9245
  977MOL0     O34724   9.158  -1.990  -0.389 -0.4661  0.0766 -0.1374
  977MOL0     C34725   9.204  -2.105  -0.453 -0.0163  0.4852 -0.2932
  977MOL0     C34726   9.316  -2.156  -0.363 -0.4159 -0.4793  0.0518
  977MOL0     C34727   9.370  -2.290  -0.403 -0.6326 -0.7426  0.4699
  977MOL0     C34728   9.426  -2.295  -0.548 -0.3399  0.3969  0.2726
  977MOL0     C34729   9.533  -2.184  -0.578  0.3443 -0.7823  0.2414
  977MOL0     C34730   9.598  -2.181  -0.722  0.2030  0.7957 -0.2236
  977MOL0     C34731   9.717  -2.091  -0.717 -0.2636  0.7585 -0.3460
  977MOL0     C34732   9.782  -2.059  -0.846 -0.3047 -0.7806  0.3522
  977MOL0    Cl34733   9.837  -2.214  -0.929  0.1771  0.2239  0.1980
  977MOL0     C34734   9.053  -1.774  -0.421  0.1618  1.0872  0.0430
  977MOL0     C34735   8.945  -1.694  -0.469  0.7903  0.4177  0.6476
  977MOL0     O34736   8.778  -1.662  -0.796  0.5937  0.5502 -0.0268
  977MOL0     C34737   8.527  -1.527  -0.838  1.3334 -0.3375 -0.3893
  977MOL0     C34738   8.409  -1.458  -0.848  0.2067  0.3987 -0.1357
  977MOL0     N34739   8.328  -1.044  -0.411  0.1393  0.4925  0.1490
  977MOL0     N34740   8.262  -1.007  -0.308 -0.9083 -0.0395 -0.0292
  977MOL0     C34741   7.939  -0.015   0.517 -1.0839  0.3732 -0.0389
  977MOL0     C34742   7.961   0.085   0.611 -0.4810 -0.1961  0.3555
  977MOL0     C34743   8.090   0.463   0.811 -0.0738  1.2510 -0.3530
  977MOL0     C34744   8.224   0.472   0.829  0.1405 -0.9527  0.3884
  977MOL0     C34745   8.270   0.578   0.922 -0.4995  0.6420  0.8009
  977MOL0     C34746   8.172   0.664   0.987  0.4019 -0.5476 -0.2249
  977MOL0     O34747   8.212   0.758   1.083 -0.2492 -0.4863 -0.5194
  977MOL0     C34748   8.307   0.721   1.183 -1.0532 -0.5957 -0.3837
  977MOL0     C34749   8.330   0.835   1.274 -0.3963 -0.5501 -0.7597
  977MOL0     C34750   8.448   0.807   1.369 -0.8764  0.9549  0.0851
  977MOL0     C34751   8.439   0.887   1.504 -0.1082  0.8093  0.6401
  977MOL0     C34752   8.488   0.802   1.619 -0.2558  0.4328  0.7137
  977MOL0     C34753   8.520   0.744   1.713  0.1177  0.2427 -0.1027
  977MOL0     C34754   8.035   0.650   0.960 -0.7768  0.4032  0.1679
  977MOL0     C34755   7.992   0.559   0.862  0.2133 -0.0787  0.3503
  977MOL0     C34756   7.838   0.555   0.849  0.2467 -0.0423 -0.9401
  977MOL0     H34757   8.294   0.130   0.556 -0.3018  1.2699 -0.5519
  977MOL0     H34758   8.263  -0.039   0.391  0.0561 -2.1434 -0.1117
  977MOL0     H34759   7.907  -0.065   0.234 -2.3622 -1.6327 -3.4300
  977MOL0     H34760   7.855  -0.224   0.300 -1.7915  2.5789 -0.0753
  977MOL0     H34761   7.871  -0.222   0.070 -0.4968 -0.7691  0.0546
  977MOL0     H34762   8.031  -0.156   0.063 -0.9596  0.3106 -0.7422
  977MOL0     H34763   8.134  -0.347   0.091 -0.4265 -0.1331 -1.1213
  977MOL0     H34764   8.011  -0.423   0.207  0.0082 -0.7918 -0.4622
  977MOL0     H34765   7.849  -0.452   0.010 -0.8587 -0.0274 -1.7595
  977MOL0     H34766   7.971  -0.389  -0.090  3.4482 -0.7769 -0.5698
  977MOL0     H34767   8.024  -0.641   0.052 -0.8862 -1.1833 -1.9312
  977MOL0     H34768   8.149  -0.547  -0.041  0.4466  2.6132 -1.9199
  977MOL0     H34769   7.897  -0.670  -0.166 -1.3508  1.8239 -0.8968
  977MOL0     H34770   8.031  -0.571  -0.236 -1.3950  0.8756  1.2271
  977MOL0     H34771   8.120  -0.806  -0.092 -3.5980  0.9521  0.5416
  977MOL0     H34772   8.191  -0.715  -0.230 -0.0788  3.5189  1.1614
  977MOL0     H34773   7.990  -0.947  -0.204 -2.5975  1.4930 -1.1430
  977MOL0     H34774   7.968  -0.842  -0.333 -0.7884 -0.8524 -1.1632
  977MOL0     H34775   8.095  -0.870  -0.549  3.3034  4.1357 -2.3250
  977MOL0     H34776   8.388  -1.098  -0.654 -0.4087 -0.3057 -3.3903
  977MOL0     H34777   8.400  -0.931  -0.676 -0.3388  1.8536  0.5067
  977MOL0     H34778   8.184  -0.955  -0.820  0.7390  0.7988  1.4938
  977MOL0     H34779   8.286  -1.092  -0.860 -0.4362 -3.0988  0.4634
  977MOL0     H34780   8.041  -1.084  -0.675  0.4762 -0.4497  0.1787
  977MOL0     H34781   8.048  -1.150  -0.849 -1.3958 -2.2087  1.0783
  977MOL0     H34782   8.182  -1.226  -0.586 -2.3956  2.7594  1.5252
  977MOL0     H34783   8.049  -1.311  -0.658  0.6981 -1.8114 -2.6319
  977MOL0     H34784   8.378  -1.341  -0.530  2.3278  2.4795 -1.5078
  977MOL0     H34785   8.594  -1.525  -0.403  1.1056 -2.3532 -2.1019
  977MOL0     H34786   8.594  -1.350  -0.437  0.2612 -0.6541  3.7119
  977MOL0     H34787   8.722  -1.457  -0.494 -0.7519 -0.7186 -0.7820
  977MOL0     H34788   8.791  -1.933  -0.654 -0.5266 -2.5379  1.4758
  977MOL0     H34789   8.951  -2.068  -0.548 -0.3500  0.1738  1.4252
  977MOL0     H34790   9.131  -2.186  -0.464  1.8163 -1.4117  0.5675
  977MOL0     H34791   9.256  -2.085  -0.547  1.7563  0.8409  0.7104
  977MOL0     H34792   9.392  -2.081  -0.341  0.8085 -1.6662  0.0042
  977MOL0     H34793   9.263  -2.180  -0.270 -0.5892  2.5899  0.8521
  977MOL0     H34794   9.309  -2.378  -0.379 -0.0643 -1.1759  0.3515
  977MOL0     H34795   9.460  -2.312  -0.344  0.6720  0.6944 -0.8903
  977MOL0     H34796   9.338  -2.297  -0.614  0.6454 -1.8748 -1.0897
  977MOL0     H34797   9.481  -2.387  -0.568 -2.3889 -1.2201  1.6339
  977MOL0     H34798   9.485  -2.085  -0.577  1.5134 -0.1832 -0.4872
  977MOL0     H34799   9.617  -2.189  -0.509  0.9417  1.7763 -0.1742
  977MOL0     H34800   9.531  -2.140  -0.798 -1.3801  2.0105  1.7194
  977MOL0     H34801   9.641  -2.281  -0.735  0.2351  0.6273  1.0881
  977MOL0     H34802   9.797  -2.127  -0.651 -1.0392  2.6880  1.7909
  977MOL0     H34803   9.680  -1.997  -0.675  0.8808  0.2387  2.0044
  977MOL0     H34804   9.858  -1.982  -0.827 -2.1995  0.8259  1.8525
  977MOL0     H34805   9.709  -2.012  -0.912 -0.6150 -1.2911  0.3275
  977MOL0     H34806   9.141  -1.723  -0.383 -1.7425  3.7983  1.0840
  977MOL0     H34807   8.952  -1.590  -0.442  1.0473  0.7036 -0.4749
  977MOL0     H34808   8.570  -1.576  -0.925  0.5646 -1.1539 -0.3288
  977MOL0     H34809   8.354  -1.462  -0.941 -1.8049  3.4449  0.7709
  977MOL0     H34810   7.842  -0.063   0.515 -0.8930 -0.0642  0.8822
  977MOL0     H34811   7.877   0.122   0.669  0.2666 -1.1686  2.1321
  977MOL0     H34812   8.299   0.415   0.774  4.5492  3.4626  1.1585
  977MOL0     H34813   8.377   0.593   0.925 -0.4152 -0.1491  1.8541
  977MOL0     H34814   8.268   0.642   1.248  2.0195 -1.0809  1.0214
  977MOL0     H34815   8.399   0.682   1.139  0.2070  2.2461 -0.4987
  977MOL0     H34816   8.242   0.854   1.337  0.7246  1.9496  0.1672
  977MOL0     H34817   8.356   0.924   1.217  0.9678 -0.1501  0.4257
  977MOL0     H34818   8.448   0.704   1.405 -0.5192  0.9263  0.0064
  977MOL0     H34819   8.544   0.834   1.325  0.0407 -2.2597 -0.0810
  977MOL0     H34820   8.340   0.931   1.520 -2.4102 -2.6360 -2.5456
  977MOL0     H34821   8.512   0.968   1.493  2.4900 -1.4743 -0.1161
  977MOL0     H34822   8.538   0.673   1.792  1.7291 -1.6568 -2.0534
  977MOL0     H34823   7.956   0.709   1.005 -2.5790  0.6824 -3.0352
  977MOL0     H34824   7.800   0.458   0.814  0.1504 -0.6276  0.6865
  977MOL0     H34825   7.800   0.561   0.952 -2.2119 -0.5449 -1.7513
  977MOL0     H34826   7.797   0.628   0.780 -0.6205 -0.0415 -0.4401
  978MOL0     O34827   1.311   8.693   1.178 -0.1473 -0.1430 -0.2316
  978MOL0     C34828   1.403   8.723   1.254  0.1419 -0.0427  0.2234
  978MOL0     O34829   1.529   8.666   1.259  0.3888 -0.1034 -0.6611
  978MOL0     C34830   1.580   8.593   1.153 -0.2748 -0.0401 -0.6308
  978MOL0     C34831   1.701   8.542   1.180  0.2021 -0.7527 -1.5147
  978MOL0     C34832   1.771   8.473   1.080 -0.4459  0.0552 -1.0151
  978MOL0     C34833   1.716   8.441   0.959  0.5721 -0.4304 -0.1489
  978MOL0     O34834   1.784   8.363   0.873  0.2521  0.1447 -0.0286
  978MOL0     C34835   1.726   8.327   0.746 -0.3196 -0.1135 -0.2067
  978MOL0     C34836   1.807   8.225   0.659  0.4483 -0.7955 -0.2022
  978MOL0     C34837   1.959   8.255   0.665  0.5614  0.1673  0.4863
  978MOL0     C34838   2.036   8.130   0.631  0.4504 -0.1503 -0.4235
  978MOL0     C34839   2.187   8.140   0.631  0.9807 -0.0158 -0.2975
  978MOL0     C34840   2.246   8.016   0.556  0.4259  0.4199  0.4751
  978MOL0     C34841   2.386   7.985   0.605  0.1984  0.1253  0.2307
  978MOL0     C34842   2.485   8.102   0.586  0.4366  0.7376  0.6720
  978MOL0     N34843   2.625   8.044   0.592 -0.0469  0.3597 -0.1213
  978MOL0     C34844   2.684   7.981   0.702 -0.0788 -0.3777 -0.0457
  978MOL0     C34845   2.801   7.939   0.659 -0.3461  0.7735  0.1234
  978MOL0     C34846   2.893   7.851   0.731 -0.6405 -0.3011 -0.3627
  978MOL0     C34847   2.922   7.713   0.657  0.2688 -0.2495  0.4227
  978MOL0     C34848   2.816   7.617   0.716 -0.4065  0.9674  0.9313
  978MOL0     C34849   2.801   7.467   0.664 -0.4501 -0.3319 -0.4878
  978MOL0     O34850   2.791   7.472   0.523  0.2523  0.5871  0.2102
  978MOL0     C34851   2.827   7.364   0.444  0.1549 -0.0981  0.6686
  978MOL0     C34852   2.773   7.376   0.317  0.5594  0.2810  0.1095
  978MOL0     C34853   2.807   7.271   0.228  0.4028 -0.2205  0.1481
  978MOL0     C34854   2.736   7.284   0.098  0.5513  0.1752  0.6379
  978MOL0     C34855   2.891   7.159   0.266 -0.7215  0.9167  0.5052
  978MOL0     C34856   2.917   7.032   0.184  1.0408 -0.1722  0.5761
  978MOL0     O34857   3.003   6.938   0.245 -0.0633 -0.1010  0.3843
  978MOL0     C34858   3.036   6.817   0.185 -0.3616  0.4626 -0.0965
  978MOL0     C34859   3.106   6.836   0.066 -0.5825  0.3912  0.4097
  978MOL0     C34860   3.158   6.732  -0.003 -0.5107  0.8347 -0.3041
  978MOL0     C34861   3.139   6.602   0.039 -0.4302 -1.0581  0.1259
  978MOL0     O34862   3.180   6.501  -0.048 -0.3307  0.6187 -0.6377
  978MOL0     C34863   3.310   6.496  -0.094  0.2861 -0.4735  0.0464
  978MOL0     C34864   3.322   6.457  -0.242 -0.6914 -1.1710  0.3483
  978MOL0     C34865   3.270   6.319  -0.276 -0.0375 -0.3565  0.4876
  978MOL0     C34866   3.358   6.204  -0.217 -0.2392  0.6380  0.3030
  978MOL0     C34867   3.290   6.068  -0.234 -0.1011 -0.5180 -0.3685
  978MOL0     C34868   3.360   5.954  -0.314 -0.2504 -0.4228 -0.0527
  978MOL0     C34869   3.282   5.830  -0.299  0.3374  0.1673  0.7244
  978MOL0     C34870   3.342   5.717  -0.382 -0.0690 -1.0624  0.6578
  978MOL0    Cl34871   3.479   5.643  -0.312  0.2317  0.1455 -0.1369
  978MOL0     C34872   3.054   6.579   0.149 -0.0269  0.3364  0.9516
  978MOL0     C34873   3.013   6.687   0.228 -0.2276 -0.6691 -0.6417
  978MOL0     O34874   2.855   7.009   0.084  0.3030 -0.8030 -0.0989
  978MOL0     C34875   2.945   7.162   0.393 -0.4408  0.3311  0.3110
  978MOL0     C34876   2.903   7.257   0.483 -0.0586 -0.6398 -0.9127
  978MOL0     N34877   2.821   7.976   0.524 -0.0385  0.5251  0.5022
  978MOL0     N34878   2.712   8.039   0.483  0.5438 -0.3759 -0.1631
  978MOL0     C34879   1.594   8.496   0.931  0.0622  0.8680  0.0776
  978MOL0     C34880   1.532   8.577   1.028 -0.1138  0.2705 -0.4738
  978MOL0     C34881   1.381   8.841   1.343  0.5399 -0.1099 -0.9961
  978MOL0     C34882   1.296   8.943   1.298 -0.0600  0.3525  0.3254
  978MOL0     C34883   1.270   9.056   1.368  0.4259  0.8053 -0.4819
  978MOL0     C34884   1.325   9.069   1.500 -0.5696  0.8043 -0.2747
  978MOL0     O34885   1.303   9.161   1.592  0.6805 -0.2054 -0.5113
  978MOL0     C34886   1.192   9.255   1.581 -1.0404  0.1811  0.2545
  978MOL0     C34887   1.231   9.376   1.493  1.1514  0.3013 -0.5171
  978MOL0     C34888   1.335   9.472   1.561 -0.1873  0.6159 -0.9681
  978MOL0     C34889   1.485   9.419   1.562 -0.1228 -0.4214  0.5069
  978MOL0     C34890   1.523   9.367   1.425  0.5955  0.3680 -0.6699
  978MOL0     C34891   1.553   9.314   1.317  0.5279 -0.2849  0.1665
  978MOL0     C34892   1.401   8.966   1.549  0.9463 -0.5826  0.6652
  978MOL0     C34893   1.434   8.851   1.473  0.2508 -0.1874 -1.2365
  978MOL0     C34894   1.518   8.748   1.547  0.4410  0.3725 -0.1068
  978MOL0     H34895   1.736   8.544   1.283  3.4647  2.7445 -2.4826
  978MOL0     H34896   1.868   8.434   1.108 -2.5605 -2.6804  3.6240
  978MOL0     H34897   1.699   8.424   0.704  0.3476  1.3204  2.4668
  978MOL0     H34898   1.639   8.266   0.769 -0.2540 -1.5436 -3.2244
  978MOL0     H34899   1.783   8.123   0.689  1.9902 -0.6729  1.6439
  978MOL0     H34900   1.767   8.228   0.557 -1.3709 -0.1514  0.4853
  978MOL0     H34901   1.964   8.337   0.593  0.8026  1.1841  1.6191
  978MOL0     H34902   2.000   8.298   0.757 -0.4459  0.0324  1.0134
  978MOL0     H34903   1.990   8.059   0.700  0.9839  0.2120  0.3349
  978MOL0     H34904   1.998   8.097   0.535  0.3407 -4.8887  1.0286
  978MOL0     H34905   2.220   8.133   0.735 -1.3065  0.2558  0.5014
  978MOL0     H34906   2.218   8.227   0.572  2.0174  1.0987  1.7906
  978MOL0     H34907   2.191   7.925   0.581 -1.6564  1.1659 -1.0562
  978MOL0     H34908   2.239   8.035   0.448  3.1369  0.6747  0.2663
  978MOL0     H34909   2.421   7.904   0.540 -1.9196 -2.7644  2.4373
  978MOL0     H34910   2.392   7.958   0.711 -1.3680  3.7306  1.4034
  978MOL0     H34911   2.458   8.138   0.486 -2.6534 -4.6889 -0.8743
  978MOL0     H34912   2.472   8.185   0.656 -0.1828  1.3374 -0.1404
  978MOL0     H34913   2.642   7.971   0.802 -0.9114 -2.9177 -0.5830
  978MOL0     H34914   2.863   7.852   0.836 -0.5263  1.4995 -0.3265
  978MOL0     H34915   2.987   7.907   0.731  2.5613 -4.9828  1.3317
  978MOL0     H34916   2.903   7.725   0.550  1.2151  0.5188  0.3262
  978MOL0     H34917   3.026   7.683   0.676 -0.0229 -1.9397 -0.4756
  978MOL0     H34918   2.827   7.608   0.824  1.9486  1.3364  0.7708
  978MOL0     H34919   2.716   7.653   0.692 -0.0593  0.3511 -1.8634
  978MOL0     H34920   2.892   7.412   0.693  1.3816  2.0669 -1.3627
  978MOL0     H34921   2.722   7.425   0.727  0.9180 -1.1174  0.7773
  978MOL0     H34922   2.700   7.453   0.294 -1.4013 -1.4208  0.3540
  978MOL0     H34923   2.814   7.281   0.021 -0.1149 -0.2817 -0.0274
  978MOL0     H34924   2.683   7.379   0.094  0.0686  0.0060 -4.9492
  978MOL0     H34925   2.659   7.209   0.079  0.7261 -0.0698  0.8899
  978MOL0     H34926   3.134   6.936   0.035  2.8357 -0.3369  0.8061
  978MOL0     H34927   3.213   6.760  -0.092  4.6660 -1.9119  1.6074
  978MOL0     H34928   3.363   6.592  -0.089  3.1156 -1.6905 -2.9395
  978MOL0     H34929   3.373   6.436  -0.027  0.2821  0.4312  0.8932
  978MOL0     H34930   3.263   6.531  -0.295 -1.5702 -3.6094 -2.3639
  978MOL0     H34931   3.423   6.457  -0.283 -0.7972 -1.1128  0.0912
  978MOL0     H34932   3.271   6.305  -0.385 -1.9154  1.2332  0.1992
  978MOL0     H34933   3.165   6.314  -0.245  0.7300 -0.9851  3.2843
  978MOL0     H34934   3.362   6.229  -0.111  1.4019  1.8072  0.0061
  978MOL0     H34935   3.453   6.203  -0.272 -1.4911  0.3043 -2.0076
  978MOL0     H34936   3.293   6.022  -0.135  1.4466 -0.3858 -0.3385
  978MOL0     H34937   3.184   6.078  -0.261 -1.2211  0.4673  3.7235
  978MOL0     H34938   3.464   5.956  -0.282  0.0351  3.3432 -0.7431
  978MOL0     H34939   3.348   5.982  -0.420 -1.2545  0.8158  0.3637
  978MOL0     H34940   3.177   5.845  -0.326  0.7964  0.7168 -0.9154
  978MOL0     H34941   3.283   5.803  -0.193 -1.6901 -4.6097 -0.2325
  978MOL0     H34942   3.381   5.747  -0.480  0.7915 -0.7110  1.0978
  978MOL0     H34943   3.263   5.648  -0.414  0.3581 -1.2701  0.0229
  978MOL0     H34944   3.032   6.477   0.181 -2.3369  0.7055  0.7277
  978MOL0     H34945   2.945   6.667   0.311 -2.6479 -0.9962 -2.5729
  978MOL0     H34946   3.010   7.082   0.426 -1.5045  0.1978  2.2583
  978MOL0     H34947   2.935   7.258   0.586 -2.0818  1.9948 -0.2006
  978MOL0     H34948   1.546   8.454   0.844 -3.6724  0.5076  2.1285
  978MOL0     H34949   1.435   8.608   0.990 -0.8100 -3.0871 -1.7718
  978MOL0     H34950   1.251   8.931   1.200 -2.8431  0.0520  1.5536
  978MOL0     H34951   1.209   9.131   1.319  4.0011  2.2389 -3.1800
  978MOL0     H34952   1.098   9.207   1.549 -0.8596 -0.9228  1.2798
  978MOL0     H34953   1.185   9.299   1.680  0.5663  4.2056 -1.2435
  978MOL0     H34954   1.142   9.438   1.478  0.3469 -0.2336  1.6154
  978MOL0     H34955   1.263   9.335   1.397 -3.7645  0.4340 -2.5519
  978MOL0     H34956   1.320   9.568   1.509 -0.6127  0.2542 -1.5209
  978MOL0     H34957   1.301   9.489   1.664 -2.8710  0.6577 -1.7986
  978MOL0     H34958   1.501   9.334   1.629  0.5438 -2.0477 -1.6384
  978MOL0     H34959   1.550   9.501   1.596  1.4288 -1.8522  1.1308
  978MOL0     H34960   1.602   9.260   1.239  0.1692 -0.5988  0.1627
  978MOL0     H34961   1.441   8.979   1.649  0.6910  0.7216  0.6050
  978MOL0     H34962   1.620   8.770   1.517  0.1596  3.7664  1.0115
  978MOL0     H34963   1.509   8.764   1.655  0.9541  0.0787 -0.0188
  978MOL0     H34964   1.473   8.650   1.526 -2.6598  1.7532 -0.4217
  979MOL0     O34965   8.506   5.862   9.065 -0.7404 -0.0132  0.1003
  979MOL0     C34966   8.456   5.970   9.042  1.0490  0.5283 -0.2159
  979MOL0     O34967   8.376   6.037   9.128  0.2064  0.4319  0.9760
  979MOL0     C34968   8.329   5.975   9.238  0.3766  0.3061 -0.1140
  979MOL0     C34969   8.388   5.996   9.366  0.0634 -0.2037  0.1866
  979MOL0     C34970   8.338   5.941   9.484  0.0250  0.2910 -0.4607
  979MOL0     C34971   8.228   5.851   9.477 -0.7845  0.1391  1.1727
  979MOL0     O34972   8.175   5.814   9.589 -0.5442 -0.0414 -0.4687
  979MOL0     C34973   8.060   5.887   9.627  0.5089 -0.5883 -0.0137
  979MOL0     C34974   7.938   5.798   9.596  0.8662 -0.9702 -0.1800
  979MOL0     C34975   7.943   5.648   9.626  0.7862 -0.3350  0.3810
  979MOL0     C34976   7.926   5.551   9.500  0.1691  0.1716 -0.9624
  979MOL0     C34977   7.948   5.401   9.523 -0.3677 -0.1693 -0.6484
  979MOL0     C34978   8.083   5.369   9.582  1.2369  0.3850  0.7914
  979MOL0     C34979   8.105   5.219   9.561 -0.3863 -0.0980  0.1366
  979MOL0     C34980   8.232   5.175   9.635  0.5631  0.2923  1.0049
  979MOL0     N34981   8.338   5.160   9.535 -1.2235 -0.4259  0.1203
  979MOL0     C34982   8.362   5.060   9.445  0.2257  0.2182  0.7399
  979MOL0     C34983   8.473   5.098   9.369  0.0886  0.1100 -0.7333
  979MOL0     C34984   8.547   5.025   9.264  1.0342  0.3957 -0.0821
  979MOL0     C34985   8.534   5.097   9.128 -0.3110 -0.4022 -0.0416
  979MOL0     C34986   8.593   5.012   9.015  0.0554 -0.6839 -0.5285
  979MOL0     C34987   8.534   5.034   8.873  0.8817 -0.1775  0.0752
  979MOL0     O34988   8.545   5.172   8.846 -0.6454 -0.4015 -0.1322
  979MOL0     C34989   8.429   5.241   8.872  1.2047 -0.4512 -0.0988
  979MOL0     C34990   8.419   5.354   8.961 -0.7947  0.3511  1.1152
  979MOL0     C34991   8.308   5.438   8.974 -0.9774 -0.1260  0.8950
  979MOL0     C34992   8.304   5.540   9.086 -0.1635 -0.1537 -0.0419
  979MOL0     C34993   8.196   5.396   8.896  0.3018 -0.3379 -0.0761
  979MOL0     C34994   8.064   5.461   8.907  0.2699 -0.3229 -1.0428
  979MOL0     O34995   8.025   5.538   9.028 -0.3996  0.5677 -0.0759
  979MOL0     C34996   7.896   5.547   9.061 -0.2430 -0.7219  0.0385
  979MOL0     C34997   7.837   5.478   9.164  1.1710 -0.4262  0.1920
  979MOL0     C34998   7.692   5.487   9.186 -1.0399  0.6682  0.6041
  979MOL0     C34999   7.605   5.558   9.099 -0.1015  0.1314 -0.0804
  979MOL0     O35000   7.470   5.549   9.125 -0.1245 -0.5704  0.0346
  979MOL0     C35001   7.378   5.588   9.025  0.6063  0.2384 -1.1083
  979MOL0     C35002   7.239   5.517   9.036  1.2808 -0.3081 -0.0276
  979MOL0     C35003   7.160   5.511   9.169  0.1167 -0.7837 -0.1022
  979MOL0     C35004   7.104   5.648   9.202  0.5187  0.0631 -0.3763
  979MOL0     C35005   6.987   5.679   9.123  0.1133  0.3715  0.0968
  979MOL0     C35006   6.941   5.827   9.138  0.3598 -0.4141 -0.0240
  979MOL0     C35007   6.922   5.897   9.276  0.0720  0.2160 -0.9521
  979MOL0     C35008   6.867   6.047   9.250  0.4086  0.3784 -0.7558
  979MOL0    Cl35009   6.872   6.146   9.401 -0.1496 -0.5139  0.1445
  979MOL0     C35010   7.663   5.628   8.995 -0.0801  0.0374  0.4235
  979MOL0     C35011   7.812   5.639   8.984  1.4168  0.1827  0.2640
  979MOL0     O35012   7.989   5.451   8.813 -0.6246 -0.3317 -0.3015
  979MOL0     C35013   8.198   5.282   8.811 -0.0617  0.8108  0.5356
  979MOL0     C35014   8.313   5.213   8.797 -0.2873 -0.8220  0.6086
  979MOL0     N35015   8.509   5.219   9.424 -1.0130 -0.4099  0.4525
  979MOL0     N35016   8.440   5.247   9.527  0.5638 -0.2177  0.4194
  979MOL0     C35017   8.166   5.815   9.345 -0.0133  0.0442 -0.1264
  979MOL0     C35018   8.225   5.878   9.229  0.1975 -0.8519  0.6700
  979MOL0     C35019   8.494   6.059   8.932 -0.4922  0.5150  0.1963
  979MOL0     C35020   8.522   6.196   8.954  0.3753  0.4196  0.6346
  979MOL0     C35021   8.536   6.289   8.845  0.2110 -0.3832 -0.6745
  979MOL0     C35022   8.540   6.240   8.718 -0.8036  0.5318  1.4507
  979MOL0     O35023   8.578   6.316   8.610  0.3251  0.2792 -0.0423
  979MOL0     C35024   8.647   6.278   8.493 -0.4539 -0.2638 -0.1549
  979MOL0     C35025   8.797   6.311   8.519  0.3614 -0.2988  1.1583
  979MOL0     C35026   8.871   6.300   8.388  0.5030  0.2546 -1.1686
  979MOL0     C35027   9.021   6.315   8.417  0.2991  0.2476 -0.3182
  979MOL0     C35028   9.111   6.277   8.313 -0.0227  0.8953  0.6237
  979MOL0     C35029   9.187   6.241   8.222 -0.7209  0.2168  0.1869
  979MOL0     C35030   8.521   6.098   8.700 -0.0130  0.7406  0.4784
  979MOL0     C35031   8.497   6.008   8.800  0.8802  0.4048 -0.8018
  979MOL0     C35032   8.454   5.868   8.766  0.3047 -0.7095 -0.6819
  979MOL0     H35033   8.476   6.058   9.363  5.2451 -6.5052 -3.5793
  979MOL0     H35034   8.362   5.969   9.587 -2.3932 -1.4741  0.6645
  979MOL0     H35035   8.063   5.992   9.597  1.1227  0.0404  2.0823
  979MOL0     H35036   8.077   5.881   9.735  1.0084 -1.3369 -0.1235
  979MOL0     H35037   7.854   5.836   9.656  1.3711  0.0645 -0.1019
  979MOL0     H35038   7.897   5.806   9.495 -1.4343 -4.8994  0.2369
  979MOL0     H35039   8.044   5.630   9.665  1.1772  0.3852 -0.2594
  979MOL0     H35040   7.872   5.615   9.702 -0.0948 -1.2424 -0.8023
  979MOL0     H35041   7.824   5.579   9.468 -1.1073  1.1084  3.3306
  979MOL0     H35042   7.995   5.575   9.418 -0.6894  2.8970 -1.0127
  979MOL0     H35043   7.924   5.340   9.435  1.1253 -0.7675 -0.6599
  979MOL0     H35044   7.873   5.384   9.601 -0.3414  3.9722  0.5031
  979MOL0     H35045   8.158   5.427   9.529 -1.5842  2.0381 -1.6911
  979MOL0     H35046   8.076   5.389   9.690 -0.3295 -1.7913  1.1562
  979MOL0     H35047   8.113   5.195   9.455 -0.7167  1.4242 -0.2614
  979MOL0     H35048   8.020   5.159   9.596  0.2759 -1.1872 -0.0878
  979MOL0     H35049   8.259   5.243   9.717 -2.5387  0.0959  2.3461
  979MOL0     H35050   8.203   5.086   9.692  1.7989  1.4640  3.6482
  979MOL0     H35051   8.313   4.963   9.440 -0.0678  0.3114  1.6053
  979MOL0     H35052   8.503   4.926   9.252 -1.5998  1.3835  0.4970
  979MOL0     H35053   8.649   5.020   9.304  1.2068 -2.8494 -0.6903
  979MOL0     H35054   8.426   5.101   9.115  0.0175 -0.0117 -4.0032
  979MOL0     H35055   8.568   5.201   9.127  2.1975 -1.1410 -0.8552
  979MOL0     H35056   8.700   5.033   9.009 -0.2458  0.5805 -2.3627
  979MOL0     H35057   8.579   4.907   9.042  3.3093 -0.9559  0.5906
  979MOL0     H35058   8.595   4.981   8.798 -1.2007 -0.0787 -1.7914
  979MOL0     H35059   8.431   4.997   8.877  1.2117 -1.1309  4.5317
  979MOL0     H35060   8.511   5.377   9.015 -0.3526 -0.0172  0.5434
  979MOL0     H35061   8.390   5.541   9.153 -2.4381 -0.9639  3.1354
  979MOL0     H35062   8.220   5.518   9.153  0.1165 -0.3278  0.2502
  979MOL0     H35063   8.282   5.640   9.047 -1.1248 -1.0070 -1.7832
  979MOL0     H35064   7.900   5.423   9.232  1.3362 -0.0005  0.3866
  979MOL0     H35065   7.639   5.437   9.266 -0.4402  1.0675  1.2603
  979MOL0     H35066   7.365   5.697   9.018  0.8789  0.2971 -0.7628
  979MOL0     H35067   7.410   5.562   8.923 -2.0343 -1.4323 -1.5957
  979MOL0     H35068   7.174   5.570   8.966  0.4418 -1.1685  0.0753
  979MOL0     H35069   7.245   5.417   8.992 -1.6813  0.9501 -3.7727
  979MOL0     H35070   7.225   5.476   9.250 -1.7903  0.1491  1.9511
  979MOL0     H35071   7.077   5.441   9.157 -2.0653  1.5001  0.6734
  979MOL0     H35072   7.180   5.727   9.200 -0.4833  1.0506 -2.4824
  979MOL0     H35073   7.077   5.650   9.308 -0.0552  5.0233 -0.3885
  979MOL0     H35074   7.010   5.671   9.017  1.0755  3.0692  0.0295
  979MOL0     H35075   6.909   5.610   9.156  0.9885  0.1116  1.7842
  979MOL0     H35076   6.837   5.836   9.106  0.4159  2.8676  0.2772
  979MOL0     H35077   6.995   5.895   9.072 -0.8968  0.5855 -0.0689
  979MOL0     H35078   7.012   5.894   9.338 -0.4227 -0.9179 -0.2579
  979MOL0     H35079   6.839   5.845   9.325  0.9552 -2.5958 -2.1832
  979MOL0     H35080   6.763   6.046   9.219  0.4432  3.4186 -1.3389
  979MOL0     H35081   6.916   6.101   9.169  1.2302  3.7963  1.7370
  979MOL0     H35082   7.595   5.679   8.928 -1.0637  2.1196  2.8807
  979MOL0     H35083   7.852   5.705   8.907 -0.5222  2.8628  1.4098
  979MOL0     H35084   8.112   5.257   8.750  1.4271  1.3113 -1.8996
  979MOL0     H35085   8.328   5.151   8.709  0.4208 -2.5649  1.8933
  979MOL0     H35086   8.083   5.746   9.335  1.2597 -1.6855  0.6978
  979MOL0     H35087   8.188   5.869   9.127  0.9707  0.5988  0.2366
  979MOL0     H35088   8.522   6.228   9.058  1.3240 -1.6199  1.3101
  979MOL0     H35089   8.554   6.393   8.872  0.4599 -0.5750 -0.0990
  979MOL0     H35090   8.631   6.173   8.466 -0.7015  0.3316 -2.4868
  979MOL0     H35091   8.611   6.330   8.404 -1.4701 -1.1226 -0.2594
  979MOL0     H35092   8.828   6.234   8.591 -3.0352 -3.7162 -0.6674
  979MOL0     H35093   8.817   6.408   8.565  3.3220  0.2219 -0.9154
  979MOL0     H35094   8.860   6.216   8.319 -0.6066 -0.5831 -0.0230
  979MOL0     H35095   8.841   6.384   8.324  0.7176  2.0479  0.9520
  979MOL0     H35096   9.050   6.275   8.515 -2.2920 -0.3152  0.3033
  979MOL0     H35097   9.027   6.423   8.435  0.5258  0.0234  1.0334
  979MOL0     H35098   9.249   6.207   8.141  0.0570 -0.4557  1.0411
  979MOL0     H35099   8.534   6.051   8.603 -2.0808 -0.6566  0.8191
  979MOL0     H35100   8.523   5.792   8.805 -1.4694 -0.8561  2.5593
  979MOL0     H35101   8.368   5.845   8.829  1.5886 -2.1269  0.6219
  979MOL0     H35102   8.417   5.858   8.663 -3.1635 -2.0074  0.5423
  980MOL0     O35103   3.134   5.713   5.901 -0.9195 -0.2449  0.4884
  980MOL0     C35104   3.256   5.749   5.901  0.0925 -0.1443  0.1036
  980MOL0     O35105   3.347   5.691   5.825  0.5548  0.0768  0.2962
  980MOL0     C35106   3.308   5.592   5.736  0.1962  0.2373 -0.4910
  980MOL0     C35107   3.408   5.492   5.711  0.3238 -0.2404 -0.1562
  980MOL0     C35108   3.386   5.389   5.608 -0.2519 -1.2113 -1.8759
  980MOL0     C35109   3.262   5.390   5.542 -0.4830  0.0635 -0.2989
  980MOL0     O35110   3.236   5.296   5.438  0.3109  0.8250 -0.0437
  980MOL0     C35111   3.342   5.249   5.347  0.0481 -0.3362 -0.0116
  980MOL0     C35112   3.305   5.281   5.202  0.4371  0.3805  0.4323
  980MOL0     C35113   3.246   5.418   5.182  0.3532  0.4697  0.2666
  980MOL0     C35114   3.194   5.437   5.034 -0.3060 -0.0085  0.0981
  980MOL0     C35115   3.129   5.574   5.011  0.9986 -1.1523  0.2804
  980MOL0     C35116   3.218   5.703   5.025 -0.4510 -0.6800 -0.2904
  980MOL0     C35117   3.158   5.810   4.941 -0.5264 -0.2806  0.8777
  980MOL0     C35118   3.234   5.938   4.959  0.3931 -1.0179 -0.3782
  980MOL0     N35119   3.138   6.035   4.894  0.5778  0.4497  0.2434
  980MOL0     C35120   3.107   6.041   4.762  0.9305  1.1025  0.1044
  980MOL0     C35121   3.015   6.135   4.751 -0.8654 -0.7646  0.6001
  980MOL0     C35122   2.957   6.170   4.608 -0.5441  0.1836 -0.5562
  980MOL0     C35123   3.040   6.141   4.484 -0.2040 -0.4861  0.4582
  980MOL0     C35124   3.152   6.239   4.454 -0.3127 -0.3016 -0.2726
  980MOL0     C35125   3.101   6.380   4.429  0.5314  0.1196  0.1813
  980MOL0     O35126   3.213   6.465   4.387  0.0387  0.3014 -0.0123
  980MOL0     C35127   3.184   6.597   4.384 -1.4879  0.0938  0.5472
  980MOL0     C35128   3.296   6.671   4.427  0.5628 -0.4887 -0.2034
  980MOL0     C35129   3.285   6.818   4.419  0.8954 -0.9644  1.1756
  980MOL0     C35130   3.395   6.892   4.487 -0.1750  0.9057 -0.1797
  980MOL0     C35131   3.177   6.882   4.359 -0.3880 -0.0475  0.4975
  980MOL0     C35132   3.168   7.031   4.354 -0.7715 -0.4119  0.5932
  980MOL0     O35133   3.268   7.110   4.332  0.0090  0.0952  0.3012
  980MOL0     C35134   3.271   7.236   4.278 -0.6888 -0.5658  0.4386
  980MOL0     C35135   3.166   7.312   4.234 -0.5849 -0.2701  0.4688
  980MOL0     C35136   3.185   7.456   4.200 -0.6400  0.2483  0.0451
  980MOL0     C35137   3.317   7.510   4.218  0.3460  0.0725 -0.2216
  980MOL0     O35138   3.356   7.632   4.166  0.7015  0.2628  0.2760
  980MOL0     C35139   3.238   7.719   4.140 -0.5633 -0.4535  0.7157
  980MOL0     C35140   3.293   7.848   4.074 -0.2937 -0.3881 -0.4851
  980MOL0     C35141   3.331   7.827   3.926 -0.7771  0.4071  0.7322
  980MOL0     C35142   3.364   7.965   3.867  0.6675  0.8486  1.0158
  980MOL0     C35143   3.396   7.977   3.717  0.3166  0.3330  0.4440
  980MOL0     C35144   3.287   7.928   3.618  1.4907 -0.0684  0.7261
  980MOL0     C35145   3.340   7.938   3.472  0.1027  0.2326  0.0348
  980MOL0     C35146   3.319   8.082   3.421 -1.2991  0.4309 -0.3096
  980MOL0    Cl35147   3.210   8.074   3.290 -0.6860  0.4377  0.5405
  980MOL0     C35148   3.421   7.427   4.266  0.0956  0.2999  0.6907
  980MOL0     C35149   3.397   7.294   4.289 -1.0444 -0.2346 -0.5477
  980MOL0     O35150   3.049   7.064   4.361  0.1330 -0.7274 -0.3423
  980MOL0     C35151   3.065   6.804   4.326 -0.4202 -0.4947 -0.2422
  980MOL0     C35152   3.074   6.662   4.333  0.6370 -0.4683 -0.0618
  980MOL0     N35153   2.994   6.195   4.877  0.8564  0.6659  0.6155
  980MOL0     N35154   3.059   6.123   4.961  0.1824 -0.1570  0.6769
  980MOL0     C35155   3.168   5.494   5.562  0.6053  0.2143 -0.3824
  980MOL0     C35156   3.185   5.587   5.654 -0.4654  0.4581  0.0863
  980MOL0     C35157   3.307   5.853   5.986 -0.0461 -1.4165  0.0623
  980MOL0     C35158   3.446   5.869   6.012 -0.1189  0.2284  0.0800
  980MOL0     C35159   3.503   5.978   6.094  0.3037  0.0970  0.2146
  980MOL0     C35160   3.417   6.059   6.176  0.0365 -0.7762  1.0255
  980MOL0     O35161   3.453   6.138   6.277  0.3011 -0.5198  0.2445
  980MOL0     C35162   3.591   6.147   6.310  0.5110 -0.1213  0.2349
  980MOL0     C35163   3.647   6.265   6.226  0.7284  0.5803 -0.2134
  980MOL0     C35164   3.790   6.305   6.236 -0.2693 -0.4587 -0.1473
  980MOL0     C35165   3.842   6.425   6.152 -0.9723 -0.0539 -0.4975
  980MOL0     C35166   3.759   6.541   6.170 -0.7991  0.5742  0.0958
  980MOL0     C35167   3.694   6.642   6.193 -0.0956  0.4999  0.6521
  980MOL0     C35168   3.283   6.041   6.146 -0.6388  0.0118  0.4108
  980MOL0     C35169   3.225   5.951   6.058 -0.0527  0.5484 -0.3157
  980MOL0     C35170   3.077   5.962   6.040  0.4178  0.6210 -0.5562
  980MOL0     H35171   3.500   5.495   5.769 -0.0325  1.0643  0.3769
  980MOL0     H35172   3.465   5.315   5.601  0.4959 -0.5914 -0.4876
  980MOL0     H35173   3.376   5.146   5.359  0.4034 -0.1055  1.1098
  980MOL0     H35174   3.431   5.304   5.379 -0.1444  0.3730 -0.6515
  980MOL0     H35175   3.392   5.267   5.136 -0.2127 -3.9549  0.1872
  980MOL0     H35176   3.237   5.202   5.169  3.6945 -2.4574 -0.1207
  980MOL0     H35177   3.160   5.426   5.250 -0.5810 -1.4280 -0.6376
  980MOL0     H35178   3.315   5.498   5.209  1.2250  0.8238 -2.6495
  980MOL0     H35179   3.278   5.424   4.964 -1.4748 -2.2570 -0.9973
  980MOL0     H35180   3.127   5.356   5.003  1.1329 -1.4333  0.5611
  980MOL0     H35181   3.046   5.578   5.082  3.5045 -0.1121  3.3864
  980MOL0     H35182   3.076   5.560   4.917  0.4163 -4.3945  0.9507
  980MOL0     H35183   3.208   5.736   5.129  0.2947 -4.8497  1.3237
  980MOL0     H35184   3.324   5.695   5.000 -0.3129 -0.8549  0.3312
  980MOL0     H35185   3.052   5.808   4.968 -1.6913 -3.5199 -3.0082
  980MOL0     H35186   3.160   5.786   4.834  0.3846  3.8400 -0.2012
  980MOL0     H35187   3.257   5.962   5.063 -0.8780  2.0743 -0.7019
  980MOL0     H35188   3.328   5.943   4.902 -0.7558  1.3474 -2.2553
  980MOL0     H35189   3.155   5.973   4.692  2.4992  1.0544  1.1735
  980MOL0     H35190   2.933   6.276   4.611 -0.0697  0.2771  1.6503
  980MOL0     H35191   2.863   6.115   4.599  0.0696 -1.7401  2.7777
  980MOL0     H35192   3.093   6.045   4.478  1.9084  0.7042 -1.7959
  980MOL0     H35193   2.975   6.135   4.396 -4.3042 -2.3857  3.2705
  980MOL0     H35194   3.206   6.236   4.549 -0.5328 -3.8430 -0.1413
  980MOL0     H35195   3.224   6.218   4.374  3.2130  3.0043  1.6538
  980MOL0     H35196   3.023   6.373   4.352  1.2600 -2.8602 -0.4065
  980MOL0     H35197   3.067   6.411   4.528  2.0252  2.0017  0.1611
  980MOL0     H35198   3.390   6.633   4.466  1.1421  0.9777 -0.1099
  980MOL0     H35199   3.347   6.960   4.558 -2.1436 -0.1876 -0.4033
  980MOL0     H35200   3.450   6.955   4.417 -0.7087  2.1812  0.5180
  980MOL0     H35201   3.463   6.820   4.534 -1.4852  0.7261  1.5261
  980MOL0     H35202   3.071   7.261   4.233 -2.9309  3.1975  4.8974
  980MOL0     H35203   3.090   7.495   4.165 -0.1402  1.5101  0.0737
  980MOL0     H35204   3.176   7.669   4.065  0.4230 -0.9906  0.2401
  980MOL0     H35205   3.190   7.751   4.233  2.3630  0.3514  2.0908
  980MOL0     H35206   3.216   7.925   4.086  1.4825  1.9256 -2.8634
  980MOL0     H35207   3.379   7.887   4.128 -1.4092  4.3573 -1.6893
  980MOL0     H35208   3.238   7.801   3.874 -1.1677  1.1176  1.0676
  980MOL0     H35209   3.404   7.746   3.918 -1.6501 -0.3271 -0.0874
  980MOL0     H35210   3.455   8.003   3.915  4.2081 -2.1206 -2.6627
  980MOL0     H35211   3.283   8.032   3.898 -2.0245 -2.2823  1.2392
  980MOL0     H35212   3.405   8.084   3.699  1.1443  0.2189  0.1297
  980MOL0     H35213   3.489   7.922   3.702  0.5737  0.5845  1.0671
  980MOL0     H35214   3.190   7.978   3.629  0.4659 -0.8604 -3.1099
  980MOL0     H35215   3.264   7.827   3.653  1.6069 -0.4142 -0.1790
  980MOL0     H35216   3.295   7.867   3.402 -1.3109  1.8984 -0.7884
  980MOL0     H35217   3.449   7.923   3.472  0.3850  2.0730 -0.4106
  980MOL0     H35218   3.411   8.118   3.374 -0.8820  1.6079  1.3305
  980MOL0     H35219   3.295   8.139   3.511 -0.1834 -1.9157  1.5812
  980MOL0     H35220   3.521   7.469   4.258  0.9892 -1.9754 -1.1996
  980MOL0     H35221   3.482   7.235   4.324  0.6295  1.8735 -0.8519
  980MOL0     H35222   2.977   6.853   4.287 -0.8453 -2.7078 -2.3152
  980MOL0     H35223   2.993   6.600   4.295 -0.3321  2.0086 -2.2873
  980MOL0     H35224   3.075   5.491   5.506 -0.1965  0.4684  0.9007
  980MOL0     H35225   3.113   5.667   5.670 -2.6432 -1.0657 -1.5169
  980MOL0     H35226   3.506   5.791   5.967  1.3450 -0.2650  2.6929
  980MOL0     H35227   3.611   5.982   6.102  0.3271 -0.4323  0.1714
  980MOL0     H35228   3.603   6.174   6.415  4.5278 -0.6048  0.0525
  980MOL0     H35229   3.643   6.052   6.293 -0.1392 -0.2364 -1.3105
  980MOL0     H35230   3.576   6.348   6.237 -2.7943 -1.8275 -2.6334
  980MOL0     H35231   3.635   6.234   6.121 -0.0337  0.7355 -0.1810
  980MOL0     H35232   3.830   6.322   6.336 -1.0491  0.2068  0.0589
  980MOL0     H35233   3.843   6.220   6.192 -0.4773 -0.8927  0.4253
  980MOL0     H35234   3.850   6.402   6.045 -0.8727  0.6536 -0.6541
  980MOL0     H35235   3.939   6.458   6.190 -2.0743 -0.2713  2.7741
  980MOL0     H35236   3.638   6.732   6.211  4.7348  4.0321 -0.1180
  980MOL0     H35237   3.209   6.104   6.194 -0.9082 -0.5089  0.6966
  980MOL0     H35238   3.029   5.868   6.066  0.3954  1.4706  3.0331
  980MOL0     H35239   3.035   6.033   6.112 -0.0113  0.7011 -0.8833
  980MOL0     H35240   3.056   5.998   5.939 -1.3259  0.7336 -0.1894
  981MOL0     O35241   8.801   9.659   0.530 -0.3475  0.0187 -0.2961
  981MOL0     C35242   8.788   9.715   0.423  0.0233  0.3300 -0.3943
  981MOL0     O35243   8.880   9.798   0.379  0.5815 -0.0977 -0.1850
  981MOL0     C35244   8.865   9.874   0.266 -0.6856 -0.1954  0.2002
  981MOL0     C35245   8.882   9.817   0.142 -0.2221 -1.3033  0.2152
  981MOL0     C35246   8.890   9.896   0.030  0.5878 -0.1620 -0.2605
  981MOL0     C35247   8.862  10.036   0.038 -0.3476  0.0171  0.0769
  981MOL0     O35248   8.876  10.101  -0.089 -0.3035  0.0376 -0.8747
  981MOL0     C35249   8.870  10.243  -0.102  0.6331 -0.2494  0.2308
  981MOL0     C35250   8.928  10.271  -0.247  0.1426  0.3953  0.0209
  981MOL0     C35251   8.927  10.412  -0.303  0.0536  0.2080 -0.3166
  981MOL0     C35252   8.781  10.466  -0.321  0.8231 -0.2382 -0.3101
  981MOL0     C35253   8.773  10.622  -0.358 -0.0158  0.0057 -1.0878
  981MOL0     C35254   8.624  10.671  -0.351  0.1736  0.7993  0.4638
  981MOL0     C35255   8.616  10.828  -0.358  1.5812 -0.6100  0.2293
  981MOL0     C35256   8.652  10.871  -0.501 -0.1130  0.4695  0.1023
  981MOL0     N35257   8.660  11.007  -0.533 -0.5866 -0.4361 -0.6518
  981MOL0     C35258   8.780  11.072  -0.558  0.1575 -0.4168  0.5641
  981MOL0     C35259   8.740  11.189  -0.619 -0.4491  0.1833 -0.7306
  981MOL0     C35260   8.828  11.301  -0.679  0.4631  0.2842 -0.4441
  981MOL0     C35261   8.967  11.275  -0.718  0.1877  0.1220 -0.4900
  981MOL0     C35262   8.991  11.135  -0.791  0.9611 -0.7902 -0.3712
  981MOL0     C35263   9.132  11.102  -0.843  0.2218  0.5733 -0.1760
  981MOL0     O35264   9.225  11.114  -0.733 -0.6107  0.9969  0.0514
  981MOL0     C35265   9.344  11.056  -0.743 -1.0984  1.0706 -0.0214
  981MOL0     C35266   9.409  11.014  -0.867 -0.0812  0.7513 -0.0715
  981MOL0     C35267   9.531  10.959  -0.868  0.2352  0.3298  0.8902
  981MOL0     C35268   9.579  10.919  -1.012  0.5879 -0.2937  0.4628
  981MOL0     C35269   9.603  10.936  -0.753 -0.1569 -0.2747 -0.8060
  981MOL0     C35270   9.730  10.873  -0.748 -1.3112  0.5231 -0.5431
  981MOL0     O35271   9.751  10.794  -0.642  1.1209  0.3159 -0.3478
  981MOL0     C35272   9.852  10.709  -0.620  0.0148 -0.2743 -0.2385
  981MOL0     C35273   9.988  10.730  -0.652 -0.0582 -0.5455 -0.0800
  981MOL0     C35274  10.086  10.639  -0.605  0.2175  0.1667  0.3134
  981MOL0     C35275  10.057  10.525  -0.527  0.9616 -0.0167 -0.2968
  981MOL0     O35276  10.149  10.446  -0.497  0.5202  0.2773 -0.0327
  981MOL0     C35277  10.132  10.315  -0.450 -0.1234 -0.4955 -0.4328
  981MOL0     C35278  10.127  10.298  -0.300  0.3019  0.0769  0.0168
  981MOL0     C35279  10.110  10.145  -0.259 -0.4939 -0.3336 -1.5682
  981MOL0     C35280  10.141  10.119  -0.113  0.1191  0.3433  0.7219
  981MOL0     C35281  10.044  10.008  -0.058 -0.2152 -0.8180 -0.0753
  981MOL0     C35282  10.099   9.868  -0.096 -0.2049 -0.0606 -0.2302
  981MOL0     C35283  10.233   9.825  -0.035  0.6058 -0.7563 -0.8756
  981MOL0     C35284  10.284   9.699  -0.100  0.2660  0.4361 -0.7751
  981MOL0    Cl35285  10.158   9.560  -0.059  0.2035  0.0178 -0.5135
  981MOL0     C35286   9.923  10.515  -0.483  0.4172 -0.7788  0.4874
  981MOL0     C35287   9.817  10.603  -0.531 -0.5930 -0.7238 -0.0370
  981MOL0     O35288   9.812  10.878  -0.842 -0.0634 -1.3131 -0.2993
  981MOL0     C35289   9.541  10.974  -0.630 -0.0775  1.0707  0.2732
  981MOL0     C35290   9.421  11.031  -0.625 -0.4688 -0.5495  1.1284
  981MOL0     N35291   8.598  11.185  -0.628  0.7015  0.5053 -0.1491
  981MOL0     N35292   8.558  11.079  -0.581 -1.0685  0.1157 -0.6721
  981MOL0     C35293   8.835  10.094   0.164 -1.1485  0.4250 -0.0128
  981MOL0     C35294   8.833  10.012   0.274 -0.4307 -0.6370  0.3355
  981MOL0     C35295   8.659   9.697   0.356  0.2723 -0.7599 -0.4033
  981MOL0     C35296   8.560   9.800   0.366 -0.9721  1.0924 -0.0137
  981MOL0     C35297   8.435   9.770   0.326  0.2253  0.7777 -0.2791
  981MOL0     C35298   8.400   9.659   0.247 -0.4357  0.5584  0.0696
  981MOL0     O35299   8.270   9.659   0.206  0.3723 -0.4118  0.6741
  981MOL0     C35300   8.215   9.536   0.156 -0.4666 -0.7891  0.3278
  981MOL0     C35301   8.068   9.569   0.117  0.2750  0.0287 -0.3394
  981MOL0     C35302   7.998   9.450   0.054  0.6137  0.5758  0.6696
  981MOL0     C35303   8.066   9.402  -0.078 -0.4512 -0.3238  0.8965
  981MOL0     C35304   8.062   9.500  -0.188  1.1895 -0.1468 -1.3375
  981MOL0     C35305   8.066   9.593  -0.264  0.2518 -0.0942  0.3883
  981MOL0     C35306   8.509   9.563   0.224 -0.2737 -0.1391  0.3380
  981MOL0     C35307   8.639   9.585   0.279  0.6055  0.1307  0.3527
  981MOL0     C35308   8.740   9.469   0.259  0.0915 -0.2547 -0.0392
  981MOL0     H35309   8.886   9.710   0.127  0.7050 -1.2490  0.0364
  981MOL0     H35310   8.895   9.843  -0.065 -2.1621  0.3991 -0.7988
  981MOL0     H35311   8.926  10.291  -0.021 -1.1227 -1.4738  2.2428
  981MOL0     H35312   8.766  10.276  -0.093  0.2217 -1.3697 -0.2658
  981MOL0     H35313   9.032  10.244  -0.229 -1.0007 -2.4697  3.6588
  981MOL0     H35314   8.888  10.203  -0.322 -0.4353 -0.3261  0.9532
  981MOL0     H35315   8.977  10.476  -0.229 -1.4986  3.8478 -2.1239
  981MOL0     H35316   8.974  10.407  -0.401  0.7010  4.0918 -0.3657
  981MOL0     H35317   8.747  10.412  -0.410  2.0784  0.4117 -1.2356
  981MOL0     H35318   8.722  10.437  -0.234 -1.8826 -3.6199 -3.0011
  981MOL0     H35319   8.805  10.634  -0.462 -0.0098 -1.8426 -1.3337
  981MOL0     H35320   8.844  10.680  -0.298  0.1662  0.2515 -1.5363
  981MOL0     H35321   8.572  10.618  -0.431 -0.2783  1.1202  0.5410
  981MOL0     H35322   8.577  10.627  -0.263 -2.5889 -1.2396 -1.8455
  981MOL0     H35323   8.695  10.856  -0.287  3.9956  0.6928 -2.7337
  981MOL0     H35324   8.518  10.871  -0.334  0.9330 -0.7740 -1.8978
  981MOL0     H35325   8.749  10.829  -0.530 -1.0405 -0.2345 -2.2216
  981MOL0     H35326   8.581  10.830  -0.573  1.0711 -2.3300  0.3950
  981MOL0     H35327   8.875  11.020  -0.545  0.1237 -0.5315  0.3556
  981MOL0     H35328   8.817  11.397  -0.628  1.7079 -0.3673  1.0901
  981MOL0     H35329   8.772  11.326  -0.771 -0.7143  3.2760  0.9424
  981MOL0     H35330   9.007  11.352  -0.784  1.3588  0.2467  0.3497
  981MOL0     H35331   9.031  11.280  -0.630 -1.4285  3.1473  0.6441
  981MOL0     H35332   8.958  11.051  -0.730  0.4790 -1.2396 -1.2271
  981MOL0     H35333   8.931  11.134  -0.882  0.7578  5.3628 -0.7319
  981MOL0     H35334   9.130  11.000  -0.884  0.5053  0.5382 -0.1057
  981MOL0     H35335   9.167  11.161  -0.928 -1.6505  1.3056 -0.4984
  981MOL0     H35336   9.358  11.023  -0.963  0.7295  1.7156 -0.4285
  981MOL0     H35337   9.644  10.999  -1.048  3.0988 -0.9269  3.2077
  981MOL0     H35338   9.488  10.906  -1.073 -0.8947  3.5636  1.5224
  981MOL0     H35339   9.643  10.830  -1.006 -0.6751 -1.1648  1.5253
  981MOL0     H35340  10.028  10.818  -0.699 -2.3748 -0.9530 -3.0954
  981MOL0     H35341  10.189  10.663  -0.630 -0.4254  0.2253 -2.6759
  981MOL0     H35342  10.050  10.266  -0.505  0.4308  0.6435 -2.3829
  981MOL0     H35343  10.223  10.259  -0.474  3.2144  3.8715  0.6846
  981MOL0     H35344  10.224  10.333  -0.262 -0.3221  0.8423  0.9516
  981MOL0     H35345  10.049  10.358  -0.254  3.6341  3.6365  1.5674
  981MOL0     H35346  10.185  10.090  -0.316  0.1343 -0.8075 -0.2999
  981MOL0     H35347  10.014  10.108  -0.296 -0.7099 -1.3921 -0.0406
  981MOL0     H35348  10.112  10.204  -0.050 -2.2744  0.1401 -0.0027
  981MOL0     H35349  10.242  10.077  -0.106 -0.7255 -2.5327 -2.2573
  981MOL0     H35350  10.033  10.015   0.051  0.6378 -1.8038  0.0906
  981MOL0     H35351   9.949   9.998  -0.111  0.4464 -2.3240 -1.0484
  981MOL0     H35352  10.107   9.851  -0.204  2.1633 -1.2831  0.0701
  981MOL0     H35353  10.032   9.791  -0.057 -0.3758  0.3479  0.2853
  981MOL0     H35354  10.228   9.816   0.074  1.6929  1.5508 -0.5741
  981MOL0     H35355  10.308   9.902  -0.058  0.9241 -1.3109 -1.7772
  981MOL0     H35356  10.378   9.670  -0.053  0.0754 -0.9548 -1.2068
  981MOL0     H35357  10.280   9.707  -0.209  1.1493 -3.6332 -1.2590
  981MOL0     H35358   9.888  10.446  -0.407 -0.6635  0.7887  1.4675
  981MOL0     H35359   9.715  10.586  -0.499 -1.0320 -2.3928 -2.0774
  981MOL0     H35360   9.586  10.946  -0.536 -0.3203  4.7144  1.6069
  981MOL0     H35361   9.382  11.068  -0.531  1.5089 -0.9331  2.1480
  981MOL0     H35362   8.821  10.202   0.168  1.2727  0.7852 -0.0471
  981MOL0     H35363   8.805  10.043   0.374 -0.6366  3.1564 -0.7146
  981MOL0     H35364   8.594   9.889   0.419 -2.5604  1.9772 -0.4434
  981MOL0     H35365   8.360   9.847   0.344 -0.0012  0.6079 -0.4968
  981MOL0     H35366   8.270   9.501   0.068 -2.8296 -3.5653 -0.1888
  981MOL0     H35367   8.208   9.465   0.240  1.8403  0.9254  2.1159
  981MOL0     H35368   8.059   9.651   0.046 -0.9121 -1.0174 -1.4515
  981MOL0     H35369   8.025   9.598   0.214 -0.2682  1.8905 -1.0991
  981MOL0     H35370   7.996   9.366   0.124  0.4585  1.4630  1.7658
  981MOL0     H35371   7.896   9.485   0.041  0.1881 -1.2036 -1.3117
  981MOL0     H35372   8.003   9.322  -0.119 -1.1578  1.1836 -1.1399
  981MOL0     H35373   8.164   9.357  -0.059  0.0685 -0.1759 -1.1275
  981MOL0     H35374   8.062   9.684  -0.320  1.4934  1.1730  2.2595
  981MOL0     H35375   8.470   9.489   0.155 -3.4017  0.3224  1.4223
  981MOL0     H35376   8.709   9.371   0.297  2.5910 -2.4623 -3.1510
  981MOL0     H35377   8.734   9.459   0.150 -0.8064  2.6285 -0.3446
  981MOL0     H35378   8.840   9.497   0.293  0.0798  0.9079 -0.9012
  982MOL0     O35379   8.469   9.956   6.315 -0.0212  0.0924 -0.7608
  982MOL0     C35380   8.399   9.897   6.396  0.6611 -0.5074  0.7616
  982MOL0     O35381   8.287   9.948   6.454 -1.2130 -1.0207 -0.4246
  982MOL0     C35382   8.261  10.082   6.433  0.8643 -0.7340 -0.6690
  982MOL0     C35383   8.126  10.124   6.403 -0.9400  0.2572 -0.3595
  982MOL0     C35384   8.091  10.261   6.405 -0.4829 -0.6311  0.0602
  982MOL0     C35385   8.188  10.361   6.436  0.3403  0.2512 -0.4889
  982MOL0     O35386   8.160  10.497   6.450  0.2111  0.4719 -0.5810
  982MOL0     C35387   8.024  10.528   6.502  0.5893  0.1054 -0.5487
  982MOL0     C35388   8.029  10.553   6.648  0.0703  1.2628 -0.5643
  982MOL0     C35389   8.030  10.416   6.724 -0.2175  0.1367  0.5173
  982MOL0     C35390   7.981  10.418   6.875 -0.4079 -0.4252 -0.0463
  982MOL0     C35391   7.990  10.276   6.943 -0.4394  1.3174  0.8235
  982MOL0     C35392   8.121  10.228   6.999 -0.3834 -0.2009  0.1469
  982MOL0     C35393   8.219  10.176   6.894 -0.1265  0.2988 -0.8896
  982MOL0     C35394   8.354  10.130   6.956  0.2795 -0.1860  0.2156
  982MOL0     N35395   8.332  10.012   7.039 -0.9282 -0.0238 -0.6690
  982MOL0     C35396   8.296   9.894   6.983  0.0574  0.0420  0.9315
  982MOL0     C35397   8.245   9.820   7.087 -0.3089  0.6030  0.9634
  982MOL0     C35398   8.159   9.701   7.095 -0.4412 -0.3232  0.1584
  982MOL0     C35399   8.078   9.676   7.228  0.0093 -0.0045 -0.3225
  982MOL0     C35400   7.992   9.552   7.224  0.3742 -0.8666  0.3085
  982MOL0     C35401   7.885   9.569   7.337  0.7403  0.3268  0.7740
  982MOL0     O35402   7.930   9.516   7.458 -0.0043  0.4061  0.5413
  982MOL0     C35403   7.919   9.377   7.480  0.3320 -1.2182  0.8277
  982MOL0     C35404   7.801   9.295   7.447 -0.7121 -0.4015  1.1328
  982MOL0     C35405   7.777   9.162   7.492 -0.4167 -0.4287 -1.4717
  982MOL0     C35406   7.647   9.096   7.484 -0.5695  0.0214  0.6599
  982MOL0     C35407   7.889   9.100   7.552 -0.7510  1.3803  0.8100
  982MOL0     C35408   7.902   8.955   7.574  0.0558 -0.3804  0.4016
  982MOL0     O35409   7.855   8.870   7.484 -0.4248 -0.0505  0.4179
  982MOL0     C35410   7.851   8.736   7.512  0.7838 -0.1035  0.7434
  982MOL0     C35411   7.959   8.671   7.459 -0.7609  0.0159 -0.8321
  982MOL0     C35412   7.972   8.537   7.490  0.7729  0.2429 -1.0962
  982MOL0     C35413   7.883   8.469   7.578  1.4765  0.4502  0.0545
  982MOL0     O35414   7.914   8.335   7.611 -0.6380  0.1635 -0.1252
  982MOL0     C35415   7.823   8.227   7.615  0.0853 -0.0428 -0.1475
  982MOL0     C35416   7.901   8.091   7.594  0.1407 -0.7037 -0.4318
  982MOL0     C35417   7.942   8.080   7.449 -0.3581  0.6912  0.5520
  982MOL0     C35418   8.051   7.972   7.439 -0.2749  0.1554  0.1941
  982MOL0     C35419   8.122   7.969   7.308  0.8652 -0.2893 -0.9384
  982MOL0     C35420   8.250   7.885   7.325  0.4448 -0.4362  0.7370
  982MOL0     C35421   8.338   7.901   7.194  0.0675  0.3071 -1.3791
  982MOL0     C35422   8.478   7.952   7.229  0.3857 -0.7103 -0.4087
  982MOL0    Cl35423   8.554   7.827   7.340 -0.5757 -0.3955 -0.3067
  982MOL0     C35424   7.765   8.536   7.615  0.2291 -0.6627  0.3457
  982MOL0     C35425   7.753   8.666   7.583  0.9495 -0.1025  0.8090
  982MOL0     O35426   7.950   8.916   7.682 -1.1675 -0.3218 -0.0934
  982MOL0     C35427   8.002   9.182   7.568 -1.1394 -0.0243  0.0890
  982MOL0     C35428   8.027   9.310   7.537  0.3401 -0.5922 -0.4573
  982MOL0     N35429   8.278   9.882   7.202 -0.6398 -0.3777  0.2092
  982MOL0     N35430   8.324  10.004   7.178  0.4386  0.5955  0.1327
  982MOL0     C35431   8.316  10.317   6.468 -0.8128 -0.1497 -0.5766
  982MOL0     C35432   8.360  10.185   6.455  0.1723 -0.6670  0.8802
  982MOL0     C35433   8.447   9.759   6.429 -0.1264 -0.4526 -0.0244
  982MOL0     C35434   8.529   9.701   6.326  0.4945  0.2540 -0.0219
  982MOL0     C35435   8.565   9.572   6.338  0.0769 -0.7568  0.2401
  982MOL0     C35436   8.529   9.501   6.449 -0.4623 -0.6162 -0.9791
  982MOL0     O35437   8.570   9.367   6.466 -0.3055 -0.2767  0.5003
  982MOL0     C35438   8.569   9.290   6.345 -0.3034 -0.4903  0.0386
  982MOL0     C35439   8.544   9.151   6.387 -0.2847  0.0094 -0.8516
  982MOL0     C35440   8.390   9.137   6.413 -0.0794 -0.0483 -0.6243
  982MOL0     C35441   8.377   8.997   6.454  0.6430  0.1320  0.0340
  982MOL0     C35442   8.258   8.988   6.541  1.3538  0.1213 -0.2817
  982MOL0     C35443   8.162   8.973   6.615 -0.0289 -0.6823 -0.7187
  982MOL0     C35444   8.446   9.564   6.543  0.7287  0.1857  0.3287
  982MOL0     C35445   8.412   9.691   6.547  0.7397 -0.0458 -0.7049
  982MOL0     C35446   8.353   9.748   6.665  0.1933 -0.3020  0.9415
  982MOL0     H35447   8.049  10.049   6.392  0.6383 -1.6379  0.9065
  982MOL0     H35448   7.989  10.278   6.375 -1.9693 -3.3278  2.9518
  982MOL0     H35449   7.947  10.453   6.481 -1.4549  2.4180 -1.8740
  982MOL0     H35450   7.991  10.622   6.457  0.3137  1.9691  3.1928
  982MOL0     H35451   8.109  10.620   6.682 -0.4560  0.8470  1.6281
  982MOL0     H35452   7.933  10.599   6.671 -0.2982 -0.7771  2.6180
  982MOL0     H35453   7.965  10.341   6.678 -1.2599  0.1156  1.9274
  982MOL0     H35454   8.135  10.388   6.731 -0.7521 -1.9698  0.9885
  982MOL0     H35455   8.023  10.503   6.930  0.3392  1.3522 -3.1127
  982MOL0     H35456   7.872  10.429   6.869 -0.3527  1.4642  1.5390
  982MOL0     H35457   7.953  10.206   6.867  0.0120  2.0168 -0.0653
  982MOL0     H35458   7.915  10.254   7.019  1.6034 -2.8345  1.9041
  982MOL0     H35459   8.161  10.315   7.051 -2.2554  1.6683 -1.3837
  982MOL0     H35460   8.103  10.146   7.069 -1.2641  1.3196  1.7935
  982MOL0     H35461   8.250  10.261   6.833  3.0111 -0.6121 -0.7665
  982MOL0     H35462   8.182  10.105   6.819 -0.9803 -1.2121  0.8912
  982MOL0     H35463   8.433  10.119   6.880  2.3979  4.1966  1.4759
  982MOL0     H35464   8.403  10.207   7.015  1.2138  0.2024 -1.0179
  982MOL0     H35465   8.279   9.889   6.876  2.4063  4.1675  0.1739
  982MOL0     H35466   8.217   9.611   7.072 -2.8194 -1.9483  0.1283
  982MOL0     H35467   8.079   9.713   7.020  0.7059  1.3259 -0.8650
  982MOL0     H35468   8.143   9.658   7.315 -2.6894  0.4003  1.9174
  982MOL0     H35469   8.027   9.770   7.252  0.8942  0.6057 -0.7574
  982MOL0     H35470   7.940   9.551   7.128 -3.1471 -1.8144  2.0759
  982MOL0     H35471   8.051   9.460   7.232  2.2921  0.2905  0.2191
  982MOL0     H35472   7.863   9.675   7.348 -1.1848 -0.1878  2.4012
  982MOL0     H35473   7.787   9.525   7.316 -0.0073  1.8723  0.9399
  982MOL0     H35474   7.710   9.347   7.417 -1.0914 -0.8279  1.5387
  982MOL0     H35475   7.642   9.005   7.423  1.2476  0.0605  0.3868
  982MOL0     H35476   7.584   9.171   7.436  2.7411  1.6988 -1.3876
  982MOL0     H35477   7.603   9.084   7.584 -1.2876  1.1381  0.4814
  982MOL0     H35478   8.033   8.736   7.414 -1.2891  1.8826  0.8226
  982MOL0     H35479   8.054   8.468   7.472 -0.6072 -1.3879 -1.4145
  982MOL0     H35480   7.776   8.232   7.714  1.7574 -2.0086  0.8287
  982MOL0     H35481   7.742   8.232   7.542 -0.4279  0.5737  0.4475
  982MOL0     H35482   7.992   8.101   7.653 -1.2202  1.4920  1.5021
  982MOL0     H35483   7.835   8.013   7.631 -0.1773  0.8477  2.5756
  982MOL0     H35484   7.970   8.170   7.392 -3.0755  0.7423 -0.8948
  982MOL0     H35485   7.854   8.049   7.392  1.4181 -2.0458 -0.9096
  982MOL0     H35486   8.000   7.875   7.445 -3.8153  1.6981 -2.1488
  982MOL0     H35487   8.131   7.976   7.514  2.2056 -3.3930 -1.9081
  982MOL0     H35488   8.046   7.936   7.237 -0.6518 -1.5033  1.1214
  982MOL0     H35489   8.148   8.072   7.281  4.2490  0.2107  3.1190
  982MOL0     H35490   8.230   7.777   7.328  2.9804 -0.9719  2.6039
  982MOL0     H35491   8.310   7.913   7.412  0.4982 -1.1500  0.9407
  982MOL0     H35492   8.297   7.981   7.131 -0.8965  0.3488 -0.7229
  982MOL0     H35493   8.355   7.804   7.146  1.6186  0.1357 -0.5495
  982MOL0     H35494   8.461   8.044   7.286 -0.3156  0.8328 -2.9116
  982MOL0     H35495   8.556   7.969   7.154  0.5193 -0.9107 -0.3148
  982MOL0     H35496   7.709   8.466   7.677 -0.7351 -2.9471 -2.8260
  982MOL0     H35497   7.660   8.711   7.619 -0.5904 -2.8804  0.5847
  982MOL0     H35498   8.086   9.126   7.608 -2.9714 -1.9295  1.4540
  982MOL0     H35499   8.122   9.343   7.576 -1.3543  0.7380  3.0783
  982MOL0     H35500   8.398  10.380   6.501 -0.6551 -2.4351  4.0975
  982MOL0     H35501   8.460  10.149   6.479 -0.6623 -4.9757 -1.0312
  982MOL0     H35502   8.566   9.752   6.237  2.0716 -3.5015 -1.7426
  982MOL0     H35503   8.628   9.533   6.259 -0.3460 -0.0355 -0.4671
  982MOL0     H35504   8.485   9.313   6.279  0.1873  0.4989 -0.2627
  982MOL0     H35505   8.671   9.300   6.307 -0.8237 -0.3396 -1.3499
  982MOL0     H35506   8.607   9.140   6.476  3.3622 -0.2505 -3.2323
  982MOL0     H35507   8.585   9.073   6.322 -0.6795 -1.7114  0.8964
  982MOL0     H35508   8.355   9.212   6.484 -0.4897 -2.0786  1.4269
  982MOL0     H35509   8.327   9.158   6.326  1.4481  4.0324 -0.9987
  982MOL0     H35510   8.461   8.965   6.517  2.1096  2.9093 -0.3818
  982MOL0     H35511   8.364   8.935   6.365 -3.8135  0.1881  0.4131
  982MOL0     H35512   8.069   8.967   6.668 -1.4128  2.6268 -2.4417
  982MOL0     H35513   8.429   9.506   6.633 -2.8788  1.6370  0.7680
  982MOL0     H35514   8.405   9.840   6.694  1.8007 -0.2727 -1.7298
  982MOL0     H35515   8.245   9.758   6.649  0.1262 -3.4446 -1.4419
  982MOL0     H35516   8.354   9.670   6.742 -0.5248 -1.1288  0.1388
  983MOL0     O35517  11.070   1.641   5.613  0.4769 -0.1648 -0.3327
  983MOL0     C35518  11.075   1.571   5.715 -0.4800 -0.3802 -0.2911
  983MOL0     O35519  11.199   1.524   5.763  0.0446  0.1791  0.1637
  983MOL0     C35520  11.312   1.569   5.707  0.5939 -0.9271  0.0640
  983MOL0     C35521  11.365   1.516   5.583  0.2965 -0.9452 -0.2648
  983MOL0     C35522  11.487   1.565   5.527  0.3937  0.3565  0.9793
  983MOL0     C35523  11.549   1.681   5.581  0.5015 -0.2931  0.5112
  983MOL0     O35524  11.675   1.716   5.524  0.0173 -0.2050  0.3920
  983MOL0     C35525  11.754   1.805   5.606 -0.0773  0.0684 -0.6208
  983MOL0     C35526  11.881   1.871   5.566  0.7339  0.3885 -0.3170
  983MOL0     C35527  11.846   1.940   5.426  0.0181  0.2836 -0.9468
  983MOL0     C35528  11.938   2.057   5.375 -0.0007  0.2086  0.8271
  983MOL0     C35529  11.882   2.106   5.243 -0.2656 -0.5781  0.2645
  983MOL0     C35530  11.737   2.165   5.250  0.4022  0.4009 -0.4460
  983MOL0     C35531  11.710   2.228   5.117  0.6099 -0.7128  0.7898
  983MOL0     C35532  11.575   2.305   5.105 -0.6749 -0.2059 -0.4597
  983MOL0     N35533  11.599   2.430   5.191 -0.3545  0.1017  0.7783
  983MOL0     C35534  11.516   2.484   5.281  0.6133 -0.4687 -0.6737
  983MOL0     C35535  11.580   2.599   5.315  0.4700  0.5830 -0.0037
  983MOL0     C35536  11.530   2.711   5.402 -0.0963  0.2520 -0.7836
  983MOL0     C35537  11.518   2.665   5.547  0.3693  0.0817  0.2740
  983MOL0     C35538  11.444   2.761   5.645 -0.4702  0.0661  0.1332
  983MOL0     C35539  11.460   2.904   5.604 -0.0033 -0.5669 -0.2676
  983MOL0     O35540  11.600   2.932   5.606 -0.0255 -0.9735 -0.2885
  983MOL0     C35541  11.646   3.034   5.531 -0.5898 -0.8326  0.5912
  983MOL0     C35542  11.779   3.060   5.543  0.2236  1.3222  0.1715
  983MOL0     C35543  11.843   3.164   5.469  0.3436  0.2737  0.5586
  983MOL0     C35544  11.999   3.180   5.481 -0.0092 -0.5814 -0.1110
  983MOL0     C35545  11.758   3.252   5.389 -0.5253 -0.0043  1.1286
  983MOL0     C35546  11.828   3.351   5.313  0.3814  0.8703  1.0524
  983MOL0     O35547  11.811   3.481   5.341 -0.0353  0.2165  0.0863
  983MOL0     C35548  11.711   3.527   5.420 -0.2405 -1.0776  0.4234
  983MOL0     C35549  11.640   3.643   5.371  0.3899 -0.7387  1.1711
  983MOL0     C35550  11.540   3.706   5.457  0.7029  0.4227  0.7575
  983MOL0     C35551  11.496   3.639   5.571  0.6502  0.1518 -0.4963
  983MOL0     O35552  11.394   3.674   5.655 -0.2603  0.5261  0.6951
  983MOL0     C35553  11.299   3.776   5.605 -1.0049 -1.4195  0.0518
  983MOL0     C35554  11.171   3.706   5.571  0.3290  0.1912 -0.2142
  983MOL0     C35555  11.067   3.795   5.508  0.0943  1.1020 -0.3807
  983MOL0     C35556  10.976   3.861   5.613  0.0090  0.9495  0.0244
  983MOL0     C35557  10.858   3.915   5.534  0.5568 -0.1104  0.2157
  983MOL0     C35558  10.763   4.007   5.622 -0.6289 -0.3809 -0.3047
  983MOL0     C35559  10.823   4.121   5.705 -0.3055  0.3761  0.0232
  983MOL0     C35560  10.874   4.239   5.609  0.8435  1.0237 -0.3064
  983MOL0    Cl35561  10.733   4.316   5.527  0.3422 -0.2341 -0.1273
  983MOL0     C35562  11.558   3.527   5.612  0.2590  0.2793  0.3177
  983MOL0     C35563  11.668   3.477   5.545  0.1004  0.6604  0.2462
  983MOL0     O35564  11.905   3.308   5.226  0.5224  0.2612 -0.0780
  983MOL0     C35565  11.629   3.225   5.370  0.6281 -0.0990  0.6649
  983MOL0     C35566  11.575   3.110   5.441 -0.4091  0.0313 -0.7067
  983MOL0     N35567  11.710   2.602   5.257 -0.4291  0.3243 -0.4058
  983MOL0     N35568  11.714   2.503   5.177  0.7630  0.0996 -0.5138
  983MOL0     C35569  11.483   1.744   5.696  0.0314 -0.0292  0.8127
  983MOL0     C35570  11.372   1.683   5.756  0.5109 -0.8540 -0.2362
  983MOL0     C35571  10.955   1.520   5.775 -0.4164  0.8296  0.3220
  983MOL0     C35572  10.822   1.552   5.724 -1.0640 -0.4198 -0.1970
  983MOL0     C35573  10.705   1.499   5.769  0.4542  0.7586 -0.2380
  983MOL0     C35574  10.707   1.426   5.895 -0.8819  0.7865  0.4398
  983MOL0     O35575  10.596   1.372   5.957  0.3882  0.2832  0.5014
  983MOL0     C35576  10.466   1.409   5.900  0.0753 -0.6285  0.4766
  983MOL0     C35577  10.363   1.416   6.020 -0.9461  0.2989  0.4882
  983MOL0     C35578  10.334   1.284   6.092  0.1461  0.9614  0.1628
  983MOL0     C35579  10.383   1.290   6.245  0.6744 -0.1139 -0.1538
  983MOL0     C35580  10.530   1.278   6.272  0.5599  0.4808  0.5897
  983MOL0     C35581  10.648   1.282   6.290  0.6130 -0.4286  0.0474
  983MOL0     C35582  10.838   1.392   5.944  0.9223 -0.0167 -0.0978
  983MOL0     C35583  10.953   1.433   5.887 -0.3286  0.3812 -0.0345
  983MOL0     C35584  11.079   1.390   5.962 -0.2306 -0.1586  0.0523
  983MOL0     H35585  11.312   1.432   5.540  1.3796 -2.3914  1.0935
  983MOL0     H35586  11.523   1.508   5.443 -0.0775 -0.5389  1.3745
  983MOL0     H35587  11.774   1.752   5.699 -1.2618 -1.3739 -1.1476
  983MOL0     H35588  11.692   1.891   5.632  0.3154  0.2977 -0.4488
  983MOL0     H35589  11.914   1.938   5.646  1.1553 -2.1095  1.7355
  983MOL0     H35590  11.966   1.804   5.556  0.2759 -0.3473  0.5296
  983MOL0     H35591  11.836   1.863   5.349 -1.4071 -2.1532  1.4670
  983MOL0     H35592  11.740   1.969   5.430 -0.4348 -1.3935  0.8123
  983MOL0     H35593  11.922   2.142   5.443 -3.6868  1.2704 -1.0630
  983MOL0     H35594  12.041   2.021   5.377  0.4910  1.5340  2.7161
  983MOL0     H35595  11.898   2.037   5.160  0.9883  0.6928 -0.5876
  983MOL0     H35596  11.942   2.193   5.215 -2.3980  0.9435  0.1945
  983MOL0     H35597  11.662   2.087   5.266 -0.4854  1.4058  0.4229
  983MOL0     H35598  11.736   2.235   5.334 -0.3064  0.3830 -0.4375
  983MOL0     H35599  11.715   2.157   5.033  1.2785  1.2016 -0.8702
  983MOL0     H35600  11.798   2.288   5.091  0.2936 -1.0301 -1.2375
  983MOL0     H35601  11.562   2.339   5.002  0.1780  0.0929 -0.4798
  983MOL0     H35602  11.484   2.253   5.137 -0.8102 -0.6816 -1.5930
  983MOL0     H35603  11.416   2.446   5.297 -0.8101  1.8684 -3.2746
  983MOL0     H35604  11.447   2.768   5.360  0.6277 -1.0072 -4.2198
  983MOL0     H35605  11.606   2.790   5.405 -0.8462  0.9550  0.1665
  983MOL0     H35606  11.480   2.563   5.560 -4.6229  1.8353  1.9010
  983MOL0     H35607  11.618   2.657   5.591  1.3660 -0.8401 -2.0128
  983MOL0     H35608  11.336   2.745   5.640 -0.3641 -0.3736 -1.1556
  983MOL0     H35609  11.483   2.752   5.746  1.4485  2.3788 -0.3193
  983MOL0     H35610  11.426   2.918   5.500  1.5448  0.1104 -0.7169
  983MOL0     H35611  11.399   2.972   5.664  0.6501  0.3745 -0.6441
  983MOL0     H35612  11.845   3.006   5.610 -0.7298  0.4409  0.4227
  983MOL0     H35613  12.029   3.282   5.507 -1.9059  0.6243 -2.2768
  983MOL0     H35614  12.041   3.161   5.382 -0.0856  1.0247 -0.4832
  983MOL0     H35615  12.038   3.102   5.547 -1.6829  0.8401  2.7878
  983MOL0     H35616  11.678   3.690   5.280 -0.2770  1.2232  1.8563
  983MOL0     H35617  11.502   3.801   5.421  0.6655  0.1191 -0.0265
  983MOL0     H35618  11.274   3.826   5.699 -1.9978 -1.3906 -0.2146
  983MOL0     H35619  11.329   3.846   5.526  0.4176  0.0649  1.8190
  983MOL0     H35620  11.208   3.627   5.504  2.5232 -0.0063  1.1614
  983MOL0     H35621  11.136   3.661   5.664  0.5206  2.1470  0.8323
  983MOL0     H35622  11.012   3.727   5.441 -0.6268  1.5607 -0.2606
  983MOL0     H35623  11.108   3.875   5.446  3.8970 -0.0669  0.3542
  983MOL0     H35624  11.024   3.936   5.678 -1.5471  2.6708 -0.7149
  983MOL0     H35625  10.940   3.783   5.681 -0.6642  1.6269  0.4684
  983MOL0     H35626  10.887   3.964   5.441 -1.4757 -0.9961 -0.9536
  983MOL0     H35627  10.806   3.823   5.508  3.0015 -1.2447 -1.0374
  983MOL0     H35628  10.717   3.942   5.697 -0.5780  1.3468  1.3219
  983MOL0     H35629  10.694   4.043   5.546 -2.7958 -0.9163  1.3122
  983MOL0     H35630  10.896   4.071   5.769  0.3576  0.9438 -0.2775
  983MOL0     H35631  10.736   4.156   5.762 -0.8073  3.0171 -2.1469
  983MOL0     H35632  10.941   4.203   5.531  0.5173 -2.2348  0.7696
  983MOL0     H35633  10.916   4.320   5.670  0.3359 -0.5669  2.3390
  983MOL0     H35634  11.534   3.465   5.699  1.3914  0.1099  0.5215
  983MOL0     H35635  11.714   3.386   5.581 -0.5907 -0.5791 -1.7892
  983MOL0     H35636  11.565   3.291   5.312 -1.7475 -0.6648  2.5077
  983MOL0     H35637  11.469   3.097   5.417 -0.2756  1.7081 -2.5229
  983MOL0     H35638  11.514   1.834   5.749 -1.3412  1.5984 -1.0115
  983MOL0     H35639  11.342   1.728   5.850  2.1218  3.4484 -1.5357
  983MOL0     H35640  10.814   1.599   5.627  0.2134  1.3188  0.4857
  983MOL0     H35641  10.615   1.537   5.721  0.2146  0.1603 -0.2674
  983MOL0     H35642  10.462   1.507   5.852  1.9380  0.5886  2.5908
  983MOL0     H35643  10.438   1.332   5.828 -0.7654  1.1579 -1.2069
  983MOL0     H35644  10.267   1.449   5.981  0.6263  1.8407 -2.4301
  983MOL0     H35645  10.395   1.503   6.078 -0.5197  0.1968  0.4169
  983MOL0     H35646  10.230   1.256   6.075  0.4842  0.7316 -1.8184
  983MOL0     H35647  10.396   1.210   6.040 -0.5806  1.2117 -1.1181
  983MOL0     H35648  10.329   1.220   6.310 -1.1859  2.1621  0.9097
  983MOL0     H35649  10.345   1.383   6.288 -1.8525 -1.4500  0.7331
  983MOL0     H35650  10.754   1.274   6.295  1.0095  1.5500 -2.5773
  983MOL0     H35651  10.834   1.335   6.037 -0.6818 -0.9147 -0.6789
  983MOL0     H35652  11.059   1.347   6.060  4.8116 -0.7885  1.0652
  983MOL0     H35653  11.132   1.313   5.905 -1.1231 -0.6139 -0.1887
  983MOL0     H35654  11.148   1.471   5.986 -1.9789  2.0386 -1.7982
  984MOL0     O35655   2.674   7.219   5.347  0.6681 -0.0004  0.2534
  984MOL0     C35656   2.787   7.176   5.372 -0.8670  0.2013 -0.6341
  984MOL0     O35657   2.871   7.137   5.281  0.4639 -0.8084  0.3097
  984MOL0     C35658   2.837   7.128   5.147  0.0108  0.3097  0.4372
  984MOL0     C35659   2.726   7.055   5.090 -1.4965  0.7934  0.2222
  984MOL0     C35660   2.710   7.043   4.951 -0.6293  0.4579 -0.7015
  984MOL0     C35661   2.803   7.093   4.862 -0.8289  0.5920 -0.7340
  984MOL0     O35662   2.805   7.067   4.732 -0.4642  0.0494 -0.8928
  984MOL0     C35663   2.684   7.041   4.655 -0.3487 -0.1009  0.4898
  984MOL0     C35664   2.715   7.013   4.508 -0.0656  0.2636  1.2604
  984MOL0     C35665   2.737   7.140   4.420 -1.4625  0.0923 -1.0868
  984MOL0     C35666   2.610   7.202   4.366  0.9294  0.6539  0.0453
  984MOL0     C35667   2.633   7.314   4.282  0.1555 -0.5764  0.8254
  984MOL0     C35668   2.707   7.443   4.329  0.7048  0.9227  0.2019
  984MOL0     C35669   2.729   7.541   4.212 -0.9424 -0.4393  0.1124
  984MOL0     C35670   2.776   7.671   4.273 -0.0065 -1.1541  0.4150
  984MOL0     N35671   2.792   7.776   4.181  0.3703  0.0903  0.3544
  984MOL0     C35672   2.730   7.793   4.058  0.1139 -0.2677 -0.5446
  984MOL0     C35673   2.806   7.884   3.993  0.3119  1.8075 -0.3899
  984MOL0     C35674   2.788   7.941   3.862  0.8552  0.2739  0.5095
  984MOL0     C35675   2.892   7.875   3.777  0.0703  0.4562 -0.2778
  984MOL0     C35676   2.904   7.917   3.637 -0.4638 -0.3441 -0.3729
  984MOL0     C35677   2.915   8.078   3.635 -0.5838  0.1245  0.0615
  984MOL0     O35678   2.956   8.114   3.501 -0.0451 -0.2075 -0.0054
  984MOL0     C35679   2.874   8.208   3.433  0.1973 -0.1058 -0.5814
  984MOL0     C35680   2.923   8.269   3.316 -0.1926  0.7528  1.0094
  984MOL0     C35681   2.850   8.360   3.239  1.0682 -0.3921  0.0553
  984MOL0     C35682   2.920   8.412   3.119 -0.2587 -0.5880 -0.3183
  984MOL0     C35683   2.716   8.384   3.268  1.4781  0.2188  0.3678
  984MOL0     C35684   2.630   8.464   3.183 -0.0509  0.5423  0.0448
  984MOL0     O35685   2.667   8.586   3.145 -0.8581  0.5572  0.4877
  984MOL0     C35686   2.592   8.658   3.057 -0.7567  0.3076 -0.0250
  984MOL0     C35687   2.553   8.788   3.094 -0.2401  0.5497  0.0028
  984MOL0     C35688   2.505   8.870   2.996  0.9988 -0.8435 -0.0921
  984MOL0     C35689   2.462   8.824   2.870  0.6419 -0.5370  0.4755
  984MOL0     O35690   2.375   8.885   2.779  0.1710 -0.1846  0.1952
  984MOL0     C35691   2.326   9.015   2.801 -0.0274  1.2511 -0.2375
  984MOL0     C35692   2.218   9.033   2.685 -0.6834  0.1226 -0.2333
  984MOL0     C35693   2.290   9.044   2.545  0.5940  0.2103 -0.4368
  984MOL0     C35694   2.195   9.018   2.419  0.1079  0.5473 -0.5068
  984MOL0     C35695   2.108   9.138   2.383  0.3907  0.5216  0.4386
  984MOL0     C35696   2.047   9.134   2.247  0.4651  0.1074 -0.5637
  984MOL0     C35697   1.935   9.029   2.234  0.8007  0.2889 -0.5219
  984MOL0     C35698   1.887   9.012   2.094  0.3079 -0.5306  0.0523
  984MOL0    Cl35699   1.960   8.866   2.034  0.1947  0.1037  0.0693
  984MOL0     C35700   2.481   8.689   2.842  0.3506  0.0455  0.0663
  984MOL0     C35701   2.560   8.609   2.924  0.9393 -0.3317 -1.1151
  984MOL0     O35702   2.526   8.405   3.152  0.0310  0.1275  0.1050
  984MOL0     C35703   2.659   8.322   3.375  0.0542 -0.2712  0.7751
  984MOL0     C35704   2.742   8.241   3.461 -0.5701 -0.2302  0.7911
  984MOL0     N35705   2.908   7.925   4.080  0.4566 -0.1489  0.3247
  984MOL0     N35706   2.899   7.865   4.192  0.5479 -0.6851  1.2189
  984MOL0     C35707   2.895   7.185   4.922 -1.2420  0.7479  0.1132
  984MOL0     C35708   2.922   7.197   5.059  0.3544  0.7415  1.5887
  984MOL0     C35709   2.831   7.169   5.507 -0.3989 -0.7824 -0.7629
  984MOL0     C35710   2.734   7.138   5.606 -0.2847 -0.1857  0.2437
  984MOL0     C35711   2.766   7.120   5.742  0.2341 -0.1646  0.4494
  984MOL0     C35712   2.897   7.126   5.784  0.7014  0.8098  0.1959
  984MOL0     O35713   2.910   7.105   5.927  0.0456  0.4765 -0.0553
  984MOL0     C35714   3.043   7.089   5.973  0.3754  0.3590 -0.4127
  984MOL0     C35715   3.097   7.240   5.987 -0.3039 -0.8464 -0.8859
  984MOL0     C35716   3.238   7.256   6.047 -0.2444 -0.3321  0.5650
  984MOL0     C35717   3.265   7.246   6.203 -0.2202  0.6894  0.5555
  984MOL0     C35718   3.269   7.108   6.249  0.1086  1.0336  0.6668
  984MOL0     C35719   3.279   6.996   6.290 -0.7094  1.0017  1.1555
  984MOL0     C35720   3.001   7.150   5.678  0.4938 -0.0447 -0.6325
  984MOL0     C35721   2.966   7.176   5.543  0.2821 -0.5176 -0.7313
  984MOL0     C35722   3.082   7.225   5.451 -0.4921  1.0433 -0.1638
  984MOL0     H35723   2.658   6.985   5.138 -0.0577 -2.3874 -2.0137
  984MOL0     H35724   2.610   7.012   4.923 -1.2113  0.8031  0.8687
  984MOL0     H35725   2.614   7.126   4.651  0.8932  1.0341  1.9211
  984MOL0     H35726   2.618   6.964   4.694 -0.9401  0.9976  1.7451
  984MOL0     H35727   2.806   6.953   4.505 -2.3118 -3.4724 -0.6412
  984MOL0     H35728   2.633   6.955   4.465  1.0661 -1.2482  1.0631
  984MOL0     H35729   2.796   7.215   4.473  0.8926  1.0696 -4.7410
  984MOL0     H35730   2.801   7.109   4.337 -0.5883 -2.5321  0.4481
  984MOL0     H35731   2.549   7.135   4.305 -0.3932  1.5818  0.3075
  984MOL0     H35732   2.547   7.230   4.452  2.2703 -0.3576  1.3993
  984MOL0     H35733   2.536   7.346   4.243  0.3853  0.0133  0.7364
  984MOL0     H35734   2.685   7.269   4.197 -3.8828 -2.5453 -0.8533
  984MOL0     H35735   2.635   7.476   4.404  1.6427 -1.8464  2.5239
  984MOL0     H35736   2.800   7.416   4.380  0.5991 -1.0078 -0.5413
  984MOL0     H35737   2.635   7.551   4.157 -1.6007 -2.4169  0.8262
  984MOL0     H35738   2.813   7.509   4.150 -1.9503  0.6853 -1.9530
  984MOL0     H35739   2.698   7.704   4.343 -1.3327  2.7003 -2.5720
  984MOL0     H35740   2.875   7.654   4.316  0.4908 -0.7439 -0.5429
  984MOL0     H35741   2.639   7.747   4.021  0.8828 -0.4394 -2.3308
  984MOL0     H35742   2.804   8.048   3.881 -1.9540  1.1552 -1.4261
  984MOL0     H35743   2.688   7.912   3.827  1.8986 -1.2195 -1.4501
  984MOL0     H35744   2.987   7.893   3.828 -0.5783  1.7359  0.5465
  984MOL0     H35745   2.875   7.767   3.767  1.8278  0.2515 -1.4623
  984MOL0     H35746   2.986   7.876   3.577 -1.0321  2.0618 -3.0078
  984MOL0     H35747   2.812   7.887   3.587 -2.3280  1.0995  1.9844
  984MOL0     H35748   2.820   8.119   3.672 -1.1718  0.6219 -1.8848
  984MOL0     H35749   3.001   8.110   3.694 -0.6819 -2.0760  1.5276
  984MOL0     H35750   3.024   8.243   3.283  1.1608  1.1949  4.4071
  984MOL0     H35751   2.901   8.519   3.105 -0.6498 -0.1004  3.0906
  984MOL0     H35752   2.886   8.371   3.024 -0.1252 -1.8382  0.1608
  984MOL0     H35753   3.025   8.392   3.140 -0.4501 -0.2615  1.0448
  984MOL0     H35754   2.579   8.843   3.184 -3.6149  1.0137  0.8330
  984MOL0     H35755   2.481   8.970   3.032  0.9015 -0.9754  0.2156
  984MOL0     H35756   2.278   9.003   2.898  2.4304  0.7787  1.0000
  984MOL0     H35757   2.398   9.097   2.794  2.1948 -0.7110 -2.0796
  984MOL0     H35758   2.147   8.950   2.683 -0.5547  0.0238 -1.2423
  984MOL0     H35759   2.163   9.127   2.694 -1.7590 -0.5618  0.6218
  984MOL0     H35760   2.351   8.953   2.547 -1.8968 -1.5448  1.3759
  984MOL0     H35761   2.342   9.140   2.531 -0.9278  1.1389  0.0485
  984MOL0     H35762   2.129   8.934   2.441 -1.8033  2.3773  1.2205
  984MOL0     H35763   2.269   8.997   2.341  1.0832  1.2205  0.2089
  984MOL0     H35764   2.021   9.158   2.446 -0.2184 -1.1506  0.1663
  984MOL0     H35765   2.165   9.231   2.397 -3.8429  3.9801 -2.5964
  984MOL0     H35766   2.123   9.107   2.174  0.1435 -1.5851 -0.3169
  984MOL0     H35767   2.001   9.233   2.237  0.6576  0.5772  2.2467
  984MOL0     H35768   1.851   9.057   2.299  1.9507  1.5864  0.4813
  984MOL0     H35769   1.963   8.928   2.265  0.6044  0.4773  0.3085
  984MOL0     H35770   1.917   9.094   2.027  2.2272 -0.5359  0.8465
  984MOL0     H35771   1.778   9.004   2.104 -0.2528  1.8052 -2.6045
  984MOL0     H35772   2.438   8.644   2.754  0.1591  1.0912 -0.3858
  984MOL0     H35773   2.587   8.511   2.887  0.4762 -1.2962  0.9251
  984MOL0     H35774   2.552   8.322   3.392 -0.0075 -0.8425  0.4069
  984MOL0     H35775   2.685   8.196   3.542 -0.2173 -0.8441  0.7028
  984MOL0     H35776   2.964   7.244   4.862  0.0309  2.4458  3.0113
  984MOL0     H35777   3.001   7.254   5.106  2.2526 -0.9070  0.5491
  984MOL0     H35778   2.626   7.134   5.591 -0.0721  2.3425 -3.0222
  984MOL0     H35779   2.700   7.087   5.822 -2.6935  2.7628 -0.5529
  984MOL0     H35780   3.035   7.037   6.068  0.3089  0.0263 -0.5974
  984MOL0     H35781   3.108   7.037   5.902  2.0729  0.3410  1.1027
  984MOL0     H35782   3.032   7.302   6.049 -0.3966 -1.4514 -0.3574
  984MOL0     H35783   3.119   7.285   5.890  4.5230 -2.9782 -1.0875
  984MOL0     H35784   3.302   7.182   5.999  2.0691 -0.6963  3.8878
  984MOL0     H35785   3.282   7.347   6.007  0.5186 -1.8825 -2.4258
  984MOL0     H35786   3.194   7.310   6.255 -0.7270 -0.2848  1.0752
  984MOL0     H35787   3.365   7.288   6.222  0.8125  0.2853 -3.0778
  984MOL0     H35788   3.325   6.904   6.318 -1.8537 -0.3418 -1.0804
  984MOL0     H35789   3.105   7.160   5.709  0.1543 -2.1114  1.4083
  984MOL0     H35790   3.122   7.145   5.387 -1.6472  1.2389 -1.1683
  984MOL0     H35791   3.069   7.314   5.389 -1.9625 -1.9965 -4.7348
  984MOL0     H35792   3.159   7.256   5.522 -0.7694 -0.8724  1.0495
  985MOL0     O35793   0.961  10.503   1.195 -0.0877 -0.3774 -0.1608
  985MOL0     C35794   0.948  10.389   1.248  0.2048 -0.2930  0.0825
  985MOL0     O35795   0.844  10.347   1.313 -0.3793 -0.0520  0.3081
  985MOL0     C35796   0.738  10.430   1.334 -0.9328  0.1124  0.6772
  985MOL0     C35797   0.728  10.530   1.437 -0.1092  0.0572 -0.8292
  985MOL0     C35798   0.609  10.600   1.454 -0.2410 -0.0302  0.0834
  985MOL0     C35799   0.495  10.562   1.379  0.6346 -0.8053 -0.5626
  985MOL0     O35800   0.369  10.614   1.400  0.2631  0.3569  0.2190
  985MOL0     C35801   0.304  10.645   1.278  0.3104 -0.5260 -0.6856
  985MOL0     C35802   0.243  10.777   1.295  0.0923  0.0157 -0.1726
  985MOL0     C35803   0.103  10.786   1.364 -0.9476 -0.0892 -1.7073
  985MOL0     C35804  -0.015  10.715   1.301 -0.6893  0.4805 -0.1071
  985MOL0     C35805  -0.147  10.747   1.373 -0.9280  0.0984 -0.1638
  985MOL0     C35806  -0.266  10.687   1.322 -0.4552  0.8747  0.5652
  985MOL0     C35807  -0.385  10.724   1.394  0.1473  0.3056 -0.3879
  985MOL0     C35808  -0.512  10.677   1.325  0.2904  0.3167 -0.3982
  985MOL0     N35809  -0.633  10.749   1.367  0.4722  0.8039 -0.7092
  985MOL0     C35810  -0.640  10.860   1.447 -0.5106 -0.7849 -0.2834
  985MOL0     C35811  -0.770  10.863   1.490 -0.2284 -0.1679 -0.5975
  985MOL0     C35812  -0.824  10.959   1.598 -0.5070 -0.0463  0.8642
  985MOL0     C35813  -0.804  11.109   1.562  0.3851 -0.9676  0.0804
  985MOL0     C35814  -0.883  11.198   1.652  0.0986 -0.4388 -0.1019
  985MOL0     C35815  -1.020  11.246   1.598 -0.6971 -0.0264 -0.8258
  985MOL0     O35816  -1.100  11.305   1.702  0.2769 -0.9202  0.4939
  985MOL0     C35817  -1.225  11.349   1.666  0.5340  0.3365  0.0698
  985MOL0     C35818  -1.290  11.412   1.765  0.6903  0.2309 -0.5688
  985MOL0     C35819  -1.425  11.453   1.744 -0.4773 -0.0479  0.6321
  985MOL0     C35820  -1.502  11.504   1.872 -0.3381 -0.2315 -0.0072
  985MOL0     C35821  -1.482  11.462   1.612 -0.2739 -0.4624 -0.3098
  985MOL0     C35822  -1.602  11.535   1.587  1.3884 -0.6020  0.4243
  985MOL0     O35823  -1.682  11.493   1.476 -0.4619 -0.1171 -0.3374
  985MOL0     C35824  -1.792  11.569   1.443 -0.4236  0.4631 -0.8210
  985MOL0     C35825  -1.904  11.585   1.527  0.0281 -0.4482  0.2172
  985MOL0     C35826  -2.008  11.670   1.486 -0.3088  0.1520  0.9693
  985MOL0     C35827  -2.011  11.730   1.369  0.0626  0.2030  0.4624
  985MOL0     O35828  -2.124  11.804   1.333 -0.8978 -0.0235  0.3590
  985MOL0     C35829  -2.116  11.933   1.291  0.2330 -0.0382 -0.2118
  985MOL0     C35830  -2.193  11.951   1.152  1.2095  0.3882 -0.7808
  985MOL0     C35831  -2.344  11.967   1.175 -0.5047  0.5559 -0.0801
  985MOL0     C35832  -2.422  12.009   1.045 -0.8266  0.4491 -0.3205
  985MOL0     C35833  -2.562  12.024   1.102  0.7376  0.5759  0.9936
  985MOL0     C35834  -2.663  12.059   0.989  0.0260 -0.4789 -0.1446
  985MOL0     C35835  -2.742  12.183   1.022 -0.7431  1.2026  1.1292
  985MOL0     C35836  -2.870  12.153   1.097  0.2999  0.2608 -0.5602
  985MOL0    Cl35837  -2.957  12.307   1.146  0.0879  0.2713  0.2414
  985MOL0     C35838  -1.902  11.715   1.277  0.5486  0.0760 -1.0630
  985MOL0     C35839  -1.795  11.634   1.323  0.0954  0.9160 -0.1151
  985MOL0     O35840  -1.630  11.632   1.651 -0.0711 -0.4815 -0.4161
  985MOL0     C35841  -1.411  11.388   1.516  0.8512 -0.1562  0.2283
  985MOL0     C35842  -1.296  11.319   1.546  0.3694  0.4204 -1.0751
  985MOL0     N35843  -0.844  10.756   1.435 -0.3635  0.0425 -0.9959
  985MOL0     N35844  -0.760  10.689   1.363  0.1173 -0.0882  0.7638
  985MOL0     C35845   0.500  10.458   1.293  0.4670 -0.2427  0.4350
  985MOL0     C35846   0.615  10.388   1.275  0.9035  1.1499 -0.7667
  985MOL0     C35847   1.053  10.300   1.244 -1.0212  0.9489 -0.1271
  985MOL0     C35848   1.176  10.352   1.193 -0.1056  0.3839 -0.6570
  985MOL0     C35849   1.291  10.272   1.186 -0.7399  0.6622 -0.0085
  985MOL0     C35850   1.294  10.144   1.230  0.2714 -0.5110  0.6939
  985MOL0     O35851   1.418  10.081   1.241 -0.5139  0.4558 -0.0596
  985MOL0     C35852   1.424   9.945   1.278  0.3384  1.2313  0.1669
  985MOL0     C35853   1.561   9.877   1.261  0.1248  0.5101 -0.1256
  985MOL0     C35854   1.573   9.738   1.314 -1.2639 -0.3512  0.7337
  985MOL0     C35855   1.721   9.695   1.306  0.8604  0.7846  0.2888
  985MOL0     C35856   1.788   9.771   1.398 -0.4858 -0.2410 -0.8399
  985MOL0     C35857   1.852   9.818   1.495  0.0770 -0.5150  0.0510
  985MOL0     C35858   1.175  10.083   1.269 -0.3089  0.6690  0.8211
  985MOL0     C35859   1.056  10.161   1.283  0.2291 -0.6036  0.9780
  985MOL0     C35860   0.949  10.081   1.337  0.0193  0.0012 -0.9756
  985MOL0     H35861   0.810  10.566   1.499 -1.4762  0.6044  0.7273
  985MOL0     H35862   0.596  10.676   1.531 -0.1625 -0.0782  0.1445
  985MOL0     H35863   0.232  10.568   1.249 -1.2907  1.8441 -3.6195
  985MOL0     H35864   0.380  10.651   1.200  0.3915  0.6619 -0.5374
  985MOL0     H35865   0.305  10.839   1.360 -0.8899 -0.8487  1.6951
  985MOL0     H35866   0.236  10.818   1.194 -0.4917 -0.2911 -0.2633
  985MOL0     H35867   0.117  10.750   1.466 -0.9437  2.7008 -0.6198
  985MOL0     H35868   0.080  10.892   1.376 -0.3354 -0.0518 -0.8128
  985MOL0     H35869  -0.028  10.740   1.195 -5.1205  0.6844  0.2914
  985MOL0     H35870   0.015  10.612   1.284  1.8855  1.5815 -3.2425
  985MOL0     H35871  -0.149  10.856   1.364  0.3794  0.0242 -1.9028
  985MOL0     H35872  -0.135  10.721   1.479 -2.9330  2.3873  0.7132
  985MOL0     H35873  -0.271  10.719   1.218  2.6453 -3.5435 -1.2333
  985MOL0     H35874  -0.255  10.578   1.312  1.5272  1.2346 -2.1394
  985MOL0     H35875  -0.388  10.833   1.388 -0.1496  0.2737 -0.9349
  985MOL0     H35876  -0.385  10.683   1.495 -2.5158  2.0711  0.4276
  985MOL0     H35877  -0.512  10.682   1.215 -1.1120  2.0410 -0.3713
  985MOL0     H35878  -0.531  10.574   1.356 -0.0264  1.3771  3.3754
  985MOL0     H35879  -0.563  10.923   1.491 -2.1306  1.0176  0.0550
  985MOL0     H35880  -0.759  10.940   1.684  5.0017  1.4674 -2.4736
  985MOL0     H35881  -0.930  10.938   1.618 -0.3562 -2.8216 -0.7901
  985MOL0     H35882  -0.703  11.143   1.585  0.8028 -2.9921  1.5090
  985MOL0     H35883  -0.835  11.120   1.458 -3.1439  2.3973  1.2314
  985MOL0     H35884  -0.907  11.147   1.746  2.5402 -2.8711 -0.6747
  985MOL0     H35885  -0.818  11.283   1.673  3.1584 -2.4898 -0.6193
  985MOL0     H35886  -1.020  11.316   1.514 -2.3530 -1.2431 -1.9134
  985MOL0     H35887  -1.064  11.162   1.543  0.2172  0.3442 -2.1707
  985MOL0     H35888  -1.242  11.422   1.861  2.4235  1.1688 -1.4949
  985MOL0     H35889  -1.468  11.446   1.957  0.0024 -2.3262 -1.4957
  985MOL0     H35890  -1.608  11.480   1.858 -0.3115 -0.8899  0.8853
  985MOL0     H35891  -1.498  11.613   1.887  1.8264 -0.4396  1.2731
  985MOL0     H35892  -1.898  11.550   1.630 -1.8180  2.4310  1.4239
  985MOL0     H35893  -2.106  11.685   1.530 -0.1735  0.9309  1.0078
  985MOL0     H35894  -2.171  11.997   1.361 -1.1495  0.9284 -2.1237
  985MOL0     H35895  -2.012  11.968   1.282 -0.0665  0.4232 -2.4235
  985MOL0     H35896  -2.159  12.035   1.091 -3.9174  3.3637 -0.0811
  985MOL0     H35897  -2.182  11.859   1.095  1.6745 -0.6980  0.9650
  985MOL0     H35898  -2.356  12.041   1.254  0.2157 -0.2016  0.7653
  985MOL0     H35899  -2.384  11.873   1.213 -2.2797  0.4058 -2.1174
  985MOL0     H35900  -2.437  11.929   0.972 -2.7644  3.4264 -3.4410
  985MOL0     H35901  -2.382  12.096   0.994 -0.7874  0.0981 -0.8937
  985MOL0     H35902  -2.594  11.933   1.153 -2.5033  1.5414  0.8749
  985MOL0     H35903  -2.568  12.112   1.166  0.1077 -0.3659  2.2521
  985MOL0     H35904  -2.726  11.972   0.968 -0.6558 -0.0988  0.2860
  985MOL0     H35905  -2.603  12.077   0.899  1.7725  2.4765  1.4632
  985MOL0     H35906  -2.760  12.216   0.920 -1.9160 -2.2425  0.0863
  985MOL0     H35907  -2.687  12.265   1.069 -0.2904  2.6113 -1.6536
  985MOL0     H35908  -2.842  12.097   1.187 -0.1079 -0.7835 -1.0615
  985MOL0     H35909  -2.932  12.091   1.032  3.7357 -3.9501 -0.3297
  985MOL0     H35910  -1.898  11.763   1.180  1.4945  1.1609 -0.4952
  985MOL0     H35911  -1.709  11.622   1.258  0.1635 -0.2652  0.1640
  985MOL0     H35912  -1.466  11.375   1.423  2.9131  0.9265 -1.2116
  985MOL0     H35913  -1.264  11.249   1.469 -2.1206  0.7399 -2.4973
  985MOL0     H35914   0.409  10.422   1.246 -0.0101  0.0216  1.1405
  985MOL0     H35915   0.603  10.299   1.215  1.5982 -0.3719  1.2308
  985MOL0     H35916   1.203  10.454   1.167  0.6844  1.1514  2.7733
  985MOL0     H35917   1.394  10.295   1.160 -0.9585  0.1891 -1.4116
  985MOL0     H35918   1.402   9.937   1.385 -1.4616 -2.1226 -0.3046
  985MOL0     H35919   1.343   9.895   1.223 -2.5402  2.6850  2.7134
  985MOL0     H35920   1.632   9.950   1.302  0.6934 -0.9829  1.6747
  985MOL0     H35921   1.583   9.871   1.154  1.2812 -2.9418  0.1966
  985MOL0     H35922   1.541   9.741   1.419 -2.6362 -1.6532  0.3757
  985MOL0     H35923   1.515   9.666   1.257  0.1887  0.0248 -1.3028
  985MOL0     H35924   1.766   9.710   1.208 -0.7383  2.8894 -0.2124
  985MOL0     H35925   1.725   9.590   1.335 -2.8341  0.3449 -0.2249
  985MOL0     H35926   1.889   9.880   1.574  0.0748 -1.7007  1.0092
  985MOL0     H35927   1.164   9.979   1.298 -0.2485  0.0935 -1.1065
  985MOL0     H35928   0.863  10.105   1.273 -0.8413  3.6615  1.2312
  985MOL0     H35929   0.965   9.974   1.346 -1.0695 -0.1154 -0.1821
  985MOL0     H35930   0.935  10.103   1.443 -2.2304  1.0133 -1.4124
  986MOL0     O35931  11.503   9.915   0.910  0.0822 -0.0959 -0.3263
  986MOL0     C35932  11.577  10.008   0.906 -0.5330 -0.7824  0.5444
  986MOL0     O35933  11.638  10.054   0.793  0.6486 -0.2237  0.5451
  986MOL0     C35934  11.631   9.972   0.681 -0.3703  0.5246  0.7243
  986MOL0     C35935  11.514   9.971   0.607  0.2698 -1.5883 -0.3276
  986MOL0     C35936  11.517   9.910   0.479  0.1140 -0.6492  0.3399
  986MOL0     C35937  11.635   9.865   0.418  0.5230  0.4032 -0.9950
  986MOL0     O35938  11.622   9.836   0.287  1.4026 -0.1511  0.6777
  986MOL0     C35939  11.731   9.769   0.226  0.0879 -0.5503 -0.4838
  986MOL0     C35940  11.696   9.705   0.093  0.2970 -0.6713  0.1890
  986MOL0     C35941  11.660   9.812  -0.009  0.0161  0.0747  0.2237
  986MOL0     C35942  11.616   9.748  -0.146  0.3788 -0.0118 -0.4430
  986MOL0     C35943  11.529   9.842  -0.227  0.0580  0.8120  0.0804
  986MOL0     C35944  11.466   9.769  -0.347 -0.1018 -0.0806  0.3886
  986MOL0     C35945  11.429   9.848  -0.467  0.1167  0.2976  0.6166
  986MOL0     C35946  11.290   9.929  -0.451 -0.3259  0.7860  0.4157
  986MOL0     N35947  11.186   9.864  -0.530 -0.0186 -0.2002 -0.5986
  986MOL0     C35948  11.154   9.870  -0.663 -1.0373 -0.6525  0.7256
  986MOL0     C35949  11.050   9.788  -0.689  0.7025 -0.0141  0.0349
  986MOL0     C35950  10.972   9.752  -0.816 -0.1081  0.0802  0.1102
  986MOL0     C35951  11.080   9.702  -0.915  0.6355  0.2750 -0.5216
  986MOL0     C35952  11.039   9.666  -1.055 -0.9808 -0.6738  0.4769
  986MOL0     C35953  10.886   9.633  -1.078 -0.7126  0.3920 -0.0295
  986MOL0     O35954  10.831   9.765  -1.106  0.3441 -0.6420 -0.5869
  986MOL0     C35955  10.704   9.766  -1.163  0.3824  0.2681  1.0132
  986MOL0     C35956  10.662   9.892  -1.208 -0.3302  0.1429  0.1578
  986MOL0     C35957  10.542   9.921  -1.271  0.5284 -0.1778  0.3138
  986MOL0     C35958  10.507  10.058  -1.304 -0.2619 -0.2409  0.9513
  986MOL0     C35959  10.449   9.815  -1.288  1.2787  1.3191 -0.7566
  986MOL0     C35960  10.306   9.833  -1.319  0.2529  0.9128 -0.6124
  986MOL0     O35961  10.255   9.959  -1.358  0.7274 -0.1903 -0.3297
  986MOL0     C35962  10.129   9.991  -1.411 -0.0487 -0.0907  0.1044
  986MOL0     C35963  10.023   9.902  -1.416 -0.3083  0.6917  1.0922
  986MOL0     C35964   9.898   9.951  -1.468 -1.0934 -0.3557  1.1489
  986MOL0     C35965   9.879  10.086  -1.513  0.4213  0.0365 -0.2687
  986MOL0     O35966   9.763  10.138  -1.564 -0.1294  0.1388  0.5312
  986MOL0     C35967   9.637  10.056  -1.579  0.3383  0.0680  0.0325
  986MOL0     C35968   9.561  10.028  -1.450 -0.0996 -0.5191  0.8710
  986MOL0     C35969   9.521  10.162  -1.383  0.4385 -0.3565 -0.2279
  986MOL0     C35970   9.412  10.139  -1.275 -0.6593 -0.6112 -0.1788
  986MOL0     C35971   9.337  10.269  -1.252 -0.7847 -0.2280 -0.3585
  986MOL0     C35972   9.261  10.342  -1.366 -0.1097 -0.2184 -0.1676
  986MOL0     C35973   9.187  10.460  -1.310  0.7505  1.6053  1.2456
  986MOL0     C35974   9.124  10.541  -1.426  0.8313 -0.5559  0.2997
  986MOL0    Cl35975   9.233  10.669  -1.480  0.2107 -0.3404 -0.0414
  986MOL0     C35976   9.992  10.175  -1.509 -0.1281  0.8383  0.5081
  986MOL0     C35977  10.109  10.127  -1.448  0.1338  0.3166 -0.0738
  986MOL0     O35978  10.243   9.729  -1.312 -0.0772 -0.0437  0.1986
  986MOL0     C35979  10.498   9.677  -1.255 -0.5295 -0.2235 -0.0235
  986MOL0     C35980  10.625   9.654  -1.194  0.5840  0.3621  0.3333
  986MOL0     N35981  11.013   9.733  -0.566  0.2486 -0.1744 -0.2614
  986MOL0     N35982  11.090   9.784  -0.476 -0.4032  0.1485  0.4004
  986MOL0     C35983  11.751   9.870   0.495  1.1044  0.4849  0.6859
  986MOL0     C35984  11.746   9.916   0.620  0.1706 -0.1198 -0.4353
  986MOL0     C35985  11.593  10.097   1.021  0.1975  0.9140  0.1509
  986MOL0     C35986  11.708  10.174   1.020 -0.8862 -1.3078 -0.1134
  986MOL0     C35987  11.755  10.230   1.143 -0.7497  0.5087 -0.2155
  986MOL0     C35988  11.684  10.223   1.256  0.0542 -0.7735 -1.0191
  986MOL0     O35989  11.740  10.289   1.368 -0.2906 -0.0299  0.3156
  986MOL0     C35990  11.660  10.360   1.461  0.4869 -0.2838 -0.3779
  986MOL0     C35991  11.738  10.460   1.554  0.1080 -0.5735  0.6694
  986MOL0     C35992  11.648  10.498   1.672  0.9766 -0.6479  0.6949
  986MOL0     C35993  11.737  10.554   1.780  0.2813 -0.0627 -0.3533
  986MOL0     C35994  11.660  10.572   1.904 -0.5727  0.2134  0.0940
  986MOL0     C35995  11.605  10.561   2.008 -0.2932  0.0472 -0.8520
  986MOL0     C35996  11.558  10.165   1.260  0.2098  0.5703  0.7799
  986MOL0     C35997  11.517  10.094   1.138  0.1587  0.0672 -0.2606
  986MOL0     C35998  11.364  10.057   1.144  0.4937 -0.0748  0.1565
  986MOL0     H35999  11.433  10.036   0.639  1.2253 -0.1752 -0.6679
  986MOL0     H36000  11.427   9.914   0.419  1.1750  2.4623 -1.2809
  986MOL0     H36001  11.759   9.695   0.300 -1.5528  0.2623  1.0311
  986MOL0     H36002  11.806   9.847   0.209 -1.1964  0.1654 -3.6663
  986MOL0     H36003  11.789   9.654   0.068  1.6236  2.5865 -2.3099
  986MOL0     H36004  11.611   9.636   0.095 -0.4284  0.2059  0.3751
  986MOL0     H36005  11.593   9.883   0.040  1.5474  0.2132  2.2253
  986MOL0     H36006  11.752   9.863  -0.036  0.0337 -0.4947 -0.8429
  986MOL0     H36007  11.701   9.723  -0.211 -0.3597 -0.4111 -1.2812
  986MOL0     H36008  11.570   9.651  -0.130  1.5432 -0.1951  2.2354
  986MOL0     H36009  11.596   9.915  -0.273  0.4247 -1.0085 -2.4556
  986MOL0     H36010  11.445   9.894  -0.180 -2.5469  0.7002 -3.8877
  986MOL0     H36011  11.541   9.699  -0.385  1.7270 -0.0053  3.5480
  986MOL0     H36012  11.386   9.701  -0.315  0.3073 -0.9574 -0.3855
  986MOL0     H36013  11.410   9.781  -0.552  0.6345  0.1673  0.6030
  986MOL0     H36014  11.508   9.919  -0.491 -0.2734 -0.0691 -2.0389
  986MOL0     H36015  11.268   9.936  -0.344  1.0976  1.2264  0.7141
  986MOL0     H36016  11.309  10.025  -0.500 -0.8127 -0.0611 -1.5296
  986MOL0     H36017  11.211   9.920  -0.741  1.0682 -1.4911  1.6654
  986MOL0     H36018  10.898   9.822  -0.857 -0.6630  0.0192  0.9984
  986MOL0     H36019  10.905   9.669  -0.790 -0.6297  0.4108 -0.1511
  986MOL0     H36020  11.158   9.778  -0.929 -1.2659  2.3048 -0.4806
  986MOL0     H36021  11.119   9.612  -0.867  0.2762  1.2286  1.6599
  986MOL0     H36022  11.061   9.756  -1.114  0.7973 -0.9697  0.6368
  986MOL0     H36023  11.094   9.587  -1.107 -2.1830  0.1092 -2.1421
  986MOL0     H36024  10.873   9.565  -1.163  1.6283  1.9178 -1.7360
  986MOL0     H36025  10.844   9.582  -0.991 -0.4914 -0.2564 -0.2973
  986MOL0     H36026  10.717   9.973  -1.162 -0.5922 -0.0310  0.7941
  986MOL0     H36027  10.602  10.110  -1.319  1.3153 -2.7475  1.6938
  986MOL0     H36028  10.449  10.109  -1.227  0.8186 -0.6648  2.0855
  986MOL0     H36029  10.458  10.062  -1.402  2.8563  0.2494 -0.7220
  986MOL0     H36030  10.023   9.794  -1.410 -1.7303  0.3751 -2.1934
  986MOL0     H36031   9.825   9.874  -1.490 -1.2418  0.1683 -0.3155
  986MOL0     H36032   9.559  10.098  -1.643  0.4302  2.7989  1.5580
  986MOL0     H36033   9.662   9.960  -1.624 -1.6702  0.2921 -1.7261
  986MOL0     H36034   9.477   9.961  -1.473  3.4313 -4.3013 -2.4087
  986MOL0     H36035   9.637   9.978  -1.390  0.8244  0.2975  0.4029
  986MOL0     H36036   9.490  10.243  -1.450  0.9220 -0.1883 -0.2497
  986MOL0     H36037   9.613  10.197  -1.336 -0.2245  0.4149  0.5326
  986MOL0     H36038   9.459  10.107  -1.182 -0.4455 -1.9367 -0.7193
  986MOL0     H36039   9.348  10.058  -1.310  0.1165 -1.4344  0.2656
  986MOL0     H36040   9.272  10.264  -1.164 -0.4325  3.0241  0.2126
  986MOL0     H36041   9.421  10.335  -1.230 -0.4365  0.6132 -3.6509
  986MOL0     H36042   9.184  10.275  -1.405 -0.3612 -0.6738  1.0859
  986MOL0     H36043   9.333  10.362  -1.446  0.8366  0.3580  0.7980
  986MOL0     H36044   9.235  10.525  -1.237  1.7426  0.5728  1.5447
  986MOL0     H36045   9.099  10.427  -1.254  3.8943 -1.4983  4.8544
  986MOL0     H36046   9.030  10.591  -1.400 -1.0071 -1.1509 -4.3829
  986MOL0     H36047   9.083  10.493  -1.515 -3.9112  3.4967 -0.1913
  986MOL0     H36048   9.981  10.275  -1.550 -0.5920  0.4278 -0.3913
  986MOL0     H36049  10.193  10.194  -1.436  0.1063 -0.1544  3.8300
  986MOL0     H36050  10.435   9.590  -1.261 -2.0856  0.5532  3.1402
  986MOL0     H36051  10.626   9.553  -1.154 -3.3926 -0.2248 -0.6160
  986MOL0     H36052  11.846   9.838   0.454  0.8257  0.0315  0.3867
  986MOL0     H36053  11.835   9.929   0.679  0.1318 -0.0041 -0.4018
  986MOL0     H36054  11.784  10.188   0.944  2.1599  3.4048  3.2845
  986MOL0     H36055  11.844  10.292   1.146 -1.4395  1.4601  1.2369
  986MOL0     H36056  11.573  10.413   1.424  0.1045  1.3190  2.5187
  986MOL0     H36057  11.609  10.289   1.528  3.3133  1.5003  4.1807
  986MOL0     H36058  11.761  10.546   1.491  0.5408 -0.3781  1.0952
  986MOL0     H36059  11.827  10.416   1.599  0.2291  0.1964  1.1837
  986MOL0     H36060  11.572  10.569   1.638  0.3557 -1.6034  0.0361
  986MOL0     H36061  11.596  10.418   1.724 -1.1415 -0.8944 -1.6029
  986MOL0     H36062  11.770  10.654   1.750 -1.4711  0.2965 -1.2618
  986MOL0     H36063  11.824  10.490   1.797 -0.0285  0.2800  3.4086
  986MOL0     H36064  11.549  10.556   2.099  3.1056 -0.7443  1.3942
  986MOL0     H36065  11.490  10.172   1.344 -0.7046 -3.5402  0.5667
  986MOL0     H36066  11.311  10.122   1.214  1.5071  2.7917 -1.5573
  986MOL0     H36067  11.315  10.050   1.046  1.6094  5.3336 -1.1430
  986MOL0     H36068  11.371   9.957   1.186 -0.2579 -0.0981  0.2399
  987MOL0     O36069   5.813   7.009   6.412  0.3102  0.2855 -0.5115
  987MOL0     C36070   5.693   7.037   6.388  0.1151 -0.5922  0.4168
  987MOL0     O36071   5.585   6.957   6.404  0.2070 -0.2540 -0.2556
  987MOL0     C36072   5.603   6.826   6.446 -0.3724  0.5468  0.2327
  987MOL0     C36073   5.517   6.729   6.378 -0.5150  1.4396 -0.4167
  987MOL0     C36074   5.503   6.598   6.425  0.5374  0.6390  0.6992
  987MOL0     C36075   5.580   6.554   6.533 -0.0685  0.5961  1.0285
  987MOL0     O36076   5.563   6.426   6.577  0.0029 -0.8801 -0.8292
  987MOL0     C36077   5.546   6.412   6.721  0.6905  0.2384  0.0454
  987MOL0     C36078   5.488   6.267   6.747 -0.9045  1.2150  0.1552
  987MOL0     C36079   5.357   6.247   6.660 -0.4713 -0.0275 -0.5082
  987MOL0     C36080   5.314   6.095   6.663  1.3440 -0.0924 -0.8103
  987MOL0     C36081   5.194   6.053   6.578 -0.3956 -0.6765 -0.2012
  987MOL0     C36082   5.241   6.046   6.425  0.5670  0.0961  0.0388
  987MOL0     C36083   5.133   5.993   6.328  0.3099 -0.5031  0.3765
  987MOL0     C36084   5.134   5.844   6.315  1.0196  0.6972 -0.4176
  987MOL0     N36085   5.081   5.806   6.187  0.0514  1.2081  0.0709
  987MOL0     C36086   4.958   5.841   6.133  0.4688 -0.4997 -0.2810
  987MOL0     C36087   4.947   5.781   6.013 -0.1699 -0.6521  0.2468
  987MOL0     C36088   4.826   5.800   5.923 -0.6235  1.5538 -0.2663
  987MOL0     C36089   4.785   5.950   5.891  0.6202 -0.7944 -0.0969
  987MOL0     C36090   4.901   6.040   5.859 -0.2824  0.3848  0.5071
  987MOL0     C36091   4.953   6.109   5.980  0.0918  0.7331 -0.7238
  987MOL0     O36092   5.012   6.236   5.945 -0.3154 -0.1799  0.1912
  987MOL0     C36093   4.978   6.340   6.029  0.1165 -0.1907 -0.5010
  987MOL0     C36094   5.004   6.333   6.162 -0.6269  0.4988 -0.3659
  987MOL0     C36095   4.980   6.437   6.250 -0.1252 -0.3317 -0.2808
  987MOL0     C36096   5.008   6.415   6.407  0.0561  0.2573 -0.3755
  987MOL0     C36097   4.944   6.565   6.199  0.3936  0.4997 -0.0967
  987MOL0     C36098   4.923   6.691   6.267  0.7532 -0.3684 -0.0442
  987MOL0     O36099   4.896   6.805   6.197  0.3830  0.5963  0.0833
  987MOL0     C36100   4.903   6.931   6.254 -0.1595  0.4140 -0.3292
  987MOL0     C36101   4.788   6.996   6.295  0.1537 -0.3317  0.4488
  987MOL0     C36102   4.804   7.129   6.336  0.5446 -0.1256  0.9909
  987MOL0     C36103   4.925   7.192   6.361 -0.1149 -0.4583  1.2434
  987MOL0     O36104   4.949   7.329   6.383  0.3145  1.2382 -0.6411
  987MOL0     C36105   4.837   7.412   6.381 -0.2528  0.6434 -0.5342
  987MOL0     C36106   4.889   7.547   6.429  0.8223  0.0161 -0.2466
  987MOL0     C36107   4.765   7.644   6.457  0.0035  0.6888  0.2372
  987MOL0     C36108   4.810   7.773   6.527 -0.8611 -0.3554  0.7293
  987MOL0     C36109   4.697   7.843   6.610  0.0414  0.7331 -0.0424
  987MOL0     C36110   4.710   7.796   6.762 -0.8654  0.4223 -0.1210
  987MOL0     C36111   4.604   7.857   6.860 -1.0768  0.2157  0.5292
  987MOL0     C36112   4.455   7.833   6.812  0.7628  0.6439 -0.0964
  987MOL0    Cl36113   4.334   7.891   6.920 -0.4866 -0.0097  0.1849
  987MOL0     C36114   5.036   7.112   6.343 -0.1300 -0.4740 -1.3960
  987MOL0     C36115   5.030   6.984   6.287  0.0262  0.3878  0.6044
  987MOL0     O36116   4.930   6.694   6.392 -0.5133  0.6884  0.7528
  987MOL0     C36117   4.915   6.560   6.069 -0.0094 -0.5499  0.9857
  987MOL0     C36118   4.930   6.456   5.983 -0.8026 -0.4985  0.0316
  987MOL0     N36119   5.065   5.711   5.998  0.1311 -0.3817 -0.5748
  987MOL0     N36120   5.145   5.730   6.100  0.0099 -0.4751 -0.4389
  987MOL0     C36121   5.678   6.639   6.586 -0.5730 -0.6322  0.1151
  987MOL0     C36122   5.684   6.775   6.544 -0.0059  0.9261 -0.8057
  987MOL0     C36123   5.667   7.174   6.320 -1.0313  0.8938 -0.2947
  987MOL0     C36124   5.762   7.272   6.330 -0.5971 -0.6680 -0.7481
  987MOL0     C36125   5.735   7.404   6.285 -1.0758  0.1236  0.3585
  987MOL0     C36126   5.614   7.431   6.217  0.4591 -0.2561  0.6091
  987MOL0     O36127   5.592   7.563   6.176 -0.7651 -0.0256  0.2043
  987MOL0     C36128   5.481   7.608   6.095  0.5462 -0.2207  0.8821
  987MOL0     C36129   5.367   7.642   6.190  0.9802  0.1977 -0.4501
  987MOL0     C36130   5.221   7.611   6.151 -1.0260 -0.4736 -0.4587
  987MOL0     C36131   5.164   7.709   6.042 -0.1152 -0.0768 -0.4531
  987MOL0     C36132   5.022   7.733   6.044 -0.3163 -0.3511 -0.3724
  987MOL0     C36133   4.909   7.774   6.046  0.9012  0.3597  0.5482
  987MOL0     C36134   5.520   7.334   6.208  0.8162 -0.0865  0.0717
  987MOL0     C36135   5.548   7.204   6.254 -0.0964 -0.1518  0.1840
  987MOL0     C36136   5.428   7.111   6.247 -0.7215 -0.4968 -0.2097
  987MOL0     H36137   5.445   6.767   6.306  0.8579 -0.9017 -3.2084
  987MOL0     H36138   5.417   6.545   6.387 -0.4585  2.0953  0.8475
  987MOL0     H36139   5.479   6.481   6.772 -2.7105 -2.7283 -0.0153
  987MOL0     H36140   5.640   6.415   6.776  0.5593 -3.0545  0.6658
  987MOL0     H36141   5.556   6.185   6.722 -3.2557 -0.2161 -2.0031
  987MOL0     H36142   5.452   6.265   6.850  0.1291  1.0061  0.5274
  987MOL0     H36143   5.282   6.315   6.702  0.5885 -0.6135  2.5694
  987MOL0     H36144   5.372   6.276   6.555  0.1310  2.9643  0.3346
  987MOL0     H36145   5.402   6.031   6.649  1.0278 -0.3030 -1.9336
  987MOL0     H36146   5.288   6.084   6.769  6.2317  2.9551  1.1136
  987MOL0     H36147   5.115   6.128   6.587  1.5920  1.5795 -0.5860
  987MOL0     H36148   5.143   5.962   6.611  2.0502 -1.4716  1.7242
  987MOL0     H36149   5.283   6.143   6.399  1.5969 -0.4700 -0.4896
  987MOL0     H36150   5.320   5.971   6.419  0.2371 -0.5041  2.2118
  987MOL0     H36151   5.147   6.050   6.236 -1.1109 -0.2646  0.2759
  987MOL0     H36152   5.041   6.038   6.367 -2.3456 -2.7390 -2.7372
  987MOL0     H36153   5.231   5.795   6.332 -0.8660 -2.6987  1.9697
  987MOL0     H36154   5.084   5.801   6.403 -2.4230  5.8555  0.5611
  987MOL0     H36155   4.888   5.909   6.180 -1.5879  0.5553 -4.4255
  987MOL0     H36156   4.747   5.744   5.973  0.5793  1.6530  1.8725
  987MOL0     H36157   4.857   5.760   5.827  2.0454 -0.0037  1.1311
  987MOL0     H36158   4.716   5.956   5.806 -2.0272 -0.5571  1.9666
  987MOL0     H36159   4.725   6.001   5.966  1.4783  1.0727 -0.6105
  987MOL0     H36160   4.984   5.989   5.810 -1.0269  0.0202 -0.3914
  987MOL0     H36161   4.863   6.125   5.801  1.0178  1.2857  0.9177
  987MOL0     H36162   4.876   6.119   6.057 -1.4394  0.8921 -2.2257
  987MOL0     H36163   5.027   6.053   6.038 -3.7514 -2.3227  1.7351
  987MOL0     H36164   5.046   6.242   6.204 -1.5803  0.3773  0.3563
  987MOL0     H36165   5.016   6.308   6.426  1.4216  0.4779  0.4106
  987MOL0     H36166   4.922   6.458   6.460  0.2051  0.9752 -0.7008
  987MOL0     H36167   5.102   6.462   6.434  0.2559  0.9454 -2.1310
  987MOL0     H36168   4.697   6.940   6.279  0.3373 -0.7652  0.9024
  987MOL0     H36169   4.710   7.184   6.342 -0.6831 -1.3387 -3.3495
  987MOL0     H36170   4.797   7.407   6.279 -1.6985  0.3412  0.0260
  987MOL0     H36171   4.765   7.370   6.452  3.0373 -0.1527  2.6471
  987MOL0     H36172   4.950   7.531   6.519 -0.1576 -0.8586  0.2940
  987MOL0     H36173   4.955   7.597   6.357 -1.4412  1.8731 -1.1449
  987MOL0     H36174   4.693   7.603   6.528 -0.1369  1.6471  0.6585
  987MOL0     H36175   4.716   7.673   6.363  0.8706  0.0002 -0.4449
  987MOL0     H36176   4.831   7.853   6.456 -1.6919  0.7734  1.7003
  987MOL0     H36177   4.902   7.751   6.582 -0.1365 -1.7009 -0.9519
  987MOL0     H36178   4.710   7.951   6.606 -0.5883  0.8056 -0.2836
  987MOL0     H36179   4.601   7.820   6.564 -0.8189  1.0780  1.5072
  987MOL0     H36180   4.807   7.827   6.802 -0.8912  1.2010 -0.6343
  987MOL0     H36181   4.702   7.687   6.758 -1.4944  0.5074 -2.4436
  987MOL0     H36182   4.624   7.963   6.881  0.3555  0.3372 -1.1424
  987MOL0     H36183   4.612   7.803   6.954 -0.9381  3.2391  2.3786
  987MOL0     H36184   4.422   7.729   6.809 -3.1072  1.6506  1.7786
  987MOL0     H36185   4.440   7.871   6.710  0.1567 -0.1647 -0.3137
  987MOL0     H36186   5.138   7.145   6.363 -0.6094  0.4171 -0.3140
  987MOL0     H36187   5.118   6.921   6.280 -0.6282 -0.4572 -0.2218
  987MOL0     H36188   4.886   6.650   6.016 -0.5961 -2.2554 -1.8080
  987MOL0     H36189   4.916   6.466   5.876 -1.0807  0.6540  0.1594
  987MOL0     H36190   5.737   6.613   6.674  0.7646  2.6670  0.3393
  987MOL0     H36191   5.758   6.836   6.596  2.9617 -3.0968  0.2149
  987MOL0     H36192   5.857   7.248   6.377  1.1615  1.9483 -2.6525
  987MOL0     H36193   5.816   7.476   6.292 -1.4288  0.3187  3.2915
  987MOL0     H36194   5.497   7.687   6.020 -3.0908 -3.3378 -3.7148
  987MOL0     H36195   5.449   7.529   6.026  0.5704  0.2450  0.3213
  987MOL0     H36196   5.376   7.746   6.224  2.4398 -0.6726  2.0899
  987MOL0     H36197   5.378   7.598   6.290 -0.4219  2.3182  0.7211
  987MOL0     H36198   5.214   7.508   6.113  3.9247 -0.9915 -0.5497
  987MOL0     H36199   5.172   7.630   6.247  1.0108  1.3693  0.2858
  987MOL0     H36200   5.200   7.677   5.944  2.7675  2.2938 -0.3251
  987MOL0     H36201   5.207   7.807   6.063  1.5409 -0.7673 -0.4444
  987MOL0     H36202   4.807   7.802   6.035  1.2173  1.3460  0.0623
  987MOL0     H36203   5.424   7.366   6.169 -0.4690  1.4983  4.0066
  987MOL0     H36204   5.343   7.161   6.200 -0.8573 -1.3322 -0.8725
  987MOL0     H36205   5.452   7.026   6.183 -1.4713 -1.3043  0.5548
  987MOL0     H36206   5.373   7.093   6.341 -1.2510  0.5575 -0.3031
  988MOL0     O36207   5.163  10.634   7.883  0.4170 -0.2791 -0.4379
  988MOL0     C36208   5.259  10.678   7.949  0.8609 -0.6960  1.1359
  988MOL0     O36209   5.276  10.677   8.084  0.5284 -0.3326 -0.0018
  988MOL0     C36210   5.203  10.585   8.155 -1.0275  0.2181  0.5188
  988MOL0     C36211   5.099  10.614   8.242 -0.0891 -0.8733  1.0391
  988MOL0     C36212   5.034  10.514   8.318 -0.0190 -0.5051  0.7427
  988MOL0     C36213   5.093  10.394   8.313  0.0919  0.9432  0.0073
  988MOL0     O36214   5.031  10.297   8.383  0.6100  0.7172 -0.0543
  988MOL0     C36215   5.004  10.165   8.328 -0.6685 -0.1596  0.1041
  988MOL0     C36216   4.915  10.174   8.202  0.9632 -0.3290  0.7130
  988MOL0     C36217   4.771  10.215   8.260 -0.0911  0.8776 -0.2447
  988MOL0     C36218   4.668  10.211   8.135 -0.9878  0.6509  0.1234
  988MOL0     C36219   4.527  10.243   8.170 -0.0962  0.3864 -0.0244
  988MOL0     C36220   4.431  10.219   8.047  1.0758 -0.2585  0.3217
  988MOL0     C36221   4.283  10.209   8.087  0.2569  0.0947  0.8802
  988MOL0     C36222   4.229  10.329   8.137  0.3978  0.4625  0.1311
  988MOL0     N36223   4.152  10.310   8.264 -0.1823 -0.3780 -0.6510
  988MOL0     C36224   4.054  10.220   8.302  0.2130 -0.4120  0.3225
  988MOL0     C36225   4.010  10.252   8.424  1.0525 -0.1523 -0.1970
  988MOL0     C36226   3.890  10.197   8.483  0.1828  0.1531 -0.6379
  988MOL0     C36227   3.917  10.098   8.609 -0.4203  0.0701  0.2319
  988MOL0     C36228   3.779  10.053   8.659  0.1585 -0.3943 -0.7187
  988MOL0     C36229   3.807   9.947   8.764 -0.0722 -0.4581 -0.5085
  988MOL0     O36230   3.698   9.903   8.846  0.1221 -0.7109 -0.4677
  988MOL0     C36231   3.709   9.799   8.929 -1.4200 -0.3436 -0.3433
  988MOL0     C36232   3.826   9.738   8.974  0.0420  0.4454  0.2732
  988MOL0     C36233   3.839   9.622   9.060  1.0523 -0.0597  0.1924
  988MOL0     C36234   3.976   9.576   9.102 -0.0264 -0.1254  0.6257
  988MOL0     C36235   3.716   9.568   9.101  1.0638  0.1775  0.1829
  988MOL0     C36236   3.701   9.451   9.187  0.0490  0.2164  0.1337
  988MOL0     O36237   3.571   9.428   9.230  0.5872 -0.1944 -0.0622
  988MOL0     C36238   3.537   9.302   9.273  0.9108  0.5050 -0.4045
  988MOL0     C36239   3.543   9.179   9.203  0.0660 -0.2761  0.4244
  988MOL0     C36240   3.508   9.059   9.275  0.4663  0.4741  0.3294
  988MOL0     C36241   3.451   9.071   9.399  0.0253  0.0302 -0.6257
  988MOL0     O36242   3.383   8.949   9.436  0.0992  0.5213 -0.3839
  988MOL0     C36243   3.330   8.935   9.566  1.0339 -0.1769  0.9479
  988MOL0     C36244   3.269   8.786   9.569 -0.1070 -0.0253  0.7572
  988MOL0     C36245   3.380   8.688   9.606  0.4049  0.3585 -1.3740
  988MOL0     C36246   3.412   8.687   9.760  0.3629  0.1470  0.5533
  988MOL0     C36247   3.501   8.561   9.795 -1.2794 -0.3458  0.7416
  988MOL0     C36248   3.522   8.559   9.950  0.4237  0.3042  0.1106
  988MOL0     C36249   3.580   8.432   9.996 -0.5946  0.2941 -0.0908
  988MOL0     C36250   3.594   8.454  10.151 -0.4951  0.1482  1.1362
  988MOL0    Cl36251   3.433   8.466  10.223  0.1374  0.3688 -0.3221
  988MOL0     C36252   3.442   9.197   9.467  0.5635 -0.3448  0.9360
  988MOL0     C36253   3.481   9.310   9.400 -0.1467  0.5821  0.5718
  988MOL0     O36254   3.794   9.379   9.207  0.2069  0.6125  0.1032
  988MOL0     C36255   3.595   9.641   9.072 -0.7171  0.2289 -0.0048
  988MOL0     C36256   3.594   9.752   8.985  0.0066 -0.4190  0.5733
  988MOL0     N36257   4.104  10.335   8.482 -1.0891 -0.1827 -0.8543
  988MOL0     N36258   4.184  10.365   8.384 -0.1964 -1.1763  0.1389
  988MOL0     C36259   5.210  10.357   8.248  0.0093 -0.2434  0.5010
  988MOL0     C36260   5.270  10.454   8.165 -0.1755 -0.0909  0.9930
  988MOL0     C36261   5.351  10.764   7.878  0.5115  0.1753 -0.4933
  988MOL0     C36262   5.372  10.735   7.742 -0.2721 -0.5271 -0.8413
  988MOL0     C36263   5.457  10.808   7.656  0.2241 -0.2796 -1.0980
  988MOL0     C36264   5.524  10.907   7.720  0.2506 -0.5243 -0.3320
  988MOL0     O36265   5.604  10.989   7.640 -0.5870  0.4050  0.0104
  988MOL0     C36266   5.680  11.075   7.716 -0.5064  0.1595  0.6809
  988MOL0     C36267   5.780  11.150   7.616  0.1816  0.0002 -0.7485
  988MOL0     C36268   5.898  11.057   7.567 -0.3577  0.5075 -0.4714
  988MOL0     C36269   5.991  11.121   7.471 -0.3106  0.8117  0.6338
  988MOL0     C36270   5.932  11.140   7.336  0.3866  0.4437 -0.0671
  988MOL0     C36271   5.880  11.156   7.232  0.2549 -0.1608  0.6735
  988MOL0     C36272   5.508  10.936   7.861 -0.3292 -0.1602 -0.5878
  988MOL0     C36273   5.425  10.866   7.941  1.1343 -0.8280  0.4811
  988MOL0     C36274   5.406  10.920   8.083  0.7017  1.1838 -0.1729
  988MOL0     H36275   5.070  10.718   8.235  0.4356 -0.8546 -2.2261
  988MOL0     H36276   4.953  10.538   8.387 -0.8106  0.7057 -0.5377
  988MOL0     H36277   4.959  10.109   8.409  1.7841  0.6795  2.1673
  988MOL0     H36278   5.096  10.111   8.302  0.0389  0.4215  1.3027
  988MOL0     H36279   4.943  10.257   8.136 -1.6334 -0.5076 -0.7567
  988MOL0     H36280   4.899  10.075   8.160 -1.9582  0.1252  0.5066
  988MOL0     H36281   4.739  10.146   8.339  0.0183  0.0161 -0.9401
  988MOL0     H36282   4.774  10.314   8.307  0.8818  1.0477 -0.6501
  988MOL0     H36283   4.703  10.284   8.062 -1.2927  0.5561 -0.1210
  988MOL0     H36284   4.679  10.108   8.099  0.7110  1.2975 -1.3753
  988MOL0     H36285   4.516  10.346   8.206  1.1164  0.7662 -0.6687
  988MOL0     H36286   4.504  10.184   8.259  4.3227  1.7585  2.3345
  988MOL0     H36287   4.447  10.295   7.970  2.4270  1.1594  1.9092
  988MOL0     H36288   4.456  10.126   7.996 -0.8542 -0.4909 -0.2979
  988MOL0     H36289   4.283  10.130   8.163  2.0307 -0.3006  0.5336
  988MOL0     H36290   4.213  10.166   8.015  1.7622 -2.0207  0.5948
  988MOL0     H36291   4.296  10.411   8.164  0.2806  1.0996 -1.3810
  988MOL0     H36292   4.166  10.372   8.057  0.3398 -0.8512 -0.5520
  988MOL0     H36293   3.991  10.166   8.232  2.6641 -0.9264 -1.6298
  988MOL0     H36294   3.832  10.137   8.413 -1.6715  1.9467 -0.7288
  988MOL0     H36295   3.845  10.294   8.509  1.1629  0.8945 -1.5811
  988MOL0     H36296   3.970  10.012   8.566 -0.3190  1.4467 -2.6563
  988MOL0     H36297   3.972  10.143   8.692  0.2527 -2.8701  1.5395
  988MOL0     H36298   3.730  10.144   8.696  1.5107  1.4649 -3.1368
  988MOL0     H36299   3.722  10.013   8.574 -0.3904 -0.2260 -0.4356
  988MOL0     H36300   3.852   9.856   8.723  1.6830 -1.1852  2.7362
  988MOL0     H36301   3.876   9.989   8.837 -3.1381  1.8035  1.3352
  988MOL0     H36302   3.924   9.778   8.947 -0.0290  0.4167 -0.0300
  988MOL0     H36303   3.984   9.558   9.210 -0.7884  0.8137  0.8532
  988MOL0     H36304   4.061   9.639   9.074  1.2672 -2.0270  0.0529
  988MOL0     H36305   3.987   9.481   9.049 -3.5138 -0.6794  0.6757
  988MOL0     H36306   3.572   9.160   9.101 -0.5802  0.3901  0.1043
  988MOL0     H36307   3.502   8.972   9.210  0.9434  1.3734 -0.9339
  988MOL0     H36308   3.398   8.956   9.649  0.9436  0.5545  0.8421
  988MOL0     H36309   3.252   9.009   9.583 -1.3850 -2.6726  1.3733
  988MOL0     H36310   3.195   8.781   9.650  0.8073 -1.6192  1.5253
  988MOL0     H36311   3.215   8.757   9.479  1.3460 -1.0008  0.1645
  988MOL0     H36312   3.470   8.718   9.551 -0.5043  1.9828 -2.0380
  988MOL0     H36313   3.338   8.593   9.574  2.2003 -0.6138 -0.9944
  988MOL0     H36314   3.324   8.687   9.824  1.4578  6.2559  2.7164
  988MOL0     H36315   3.459   8.778   9.798 -3.2367  1.6521  1.7997
  988MOL0     H36316   3.462   8.462   9.766  1.9485 -1.0276 -1.9919
  988MOL0     H36317   3.598   8.579   9.747 -2.0146  0.2312 -0.6070
  988MOL0     H36318   3.423   8.572   9.995  0.1059 -1.1944 -0.1158
  988MOL0     H36319   3.587   8.642   9.980 -1.7157  2.1220  0.0243
  988MOL0     H36320   3.676   8.413   9.948 -0.8535  2.8254 -1.7741
  988MOL0     H36321   3.515   8.344   9.990 -1.6503  1.0328  0.1925
  988MOL0     H36322   3.645   8.551  10.162 -2.3773  1.5089 -1.2227
  988MOL0     H36323   3.638   8.362  10.192  2.3078 -0.2413 -2.2477
  988MOL0     H36324   3.392   9.194   9.564 -2.8351 -1.3728 -0.7022
  988MOL0     H36325   3.461   9.399   9.459  0.3601  1.0686  0.0337
  988MOL0     H36326   3.505   9.613   9.126  0.9907 -2.1106  1.8889
  988MOL0     H36327   3.501   9.802   8.958 -1.5861 -3.3210  0.3080
  988MOL0     H36328   5.242  10.254   8.239 -2.1805 -0.7615 -4.2843
  988MOL0     H36329   5.353  10.443   8.097  2.5671  2.7888  3.5657
  988MOL0     H36330   5.302  10.665   7.698 -1.5023 -1.6006  2.5293
  988MOL0     H36331   5.456  10.804   7.548  0.9459  1.3828 -1.2022
  988MOL0     H36332   5.622  11.158   7.758 -1.6675  0.9833 -2.2230
  988MOL0     H36333   5.734  11.016   7.790 -2.8660 -0.1873  2.2467
  988MOL0     H36334   5.835  11.222   7.678  0.9726  0.5991 -2.1116
  988MOL0     H36335   5.737  11.210   7.536 -1.3514 -1.6373 -1.2175
  988MOL0     H36336   5.933  11.004   7.656 -3.9997 -3.3305 -0.9852
  988MOL0     H36337   5.839  10.980   7.516  0.4493  0.2791 -1.0706
  988MOL0     H36338   6.080  11.058   7.459 -0.1612  0.7999  1.6593
  988MOL0     H36339   6.029  11.218   7.506  3.8757  0.4795 -2.2655
  988MOL0     H36340   5.807  11.175   7.156  0.4478 -1.4862  0.1371
  988MOL0     H36341   5.572  11.008   7.912  0.2500 -0.5824 -0.7016
  988MOL0     H36342   5.305  10.959   8.098  0.1935  0.3807 -1.3064
  988MOL0     H36343   5.420  10.847   8.163 -2.6030  2.4724  1.7729
  988MOL0     H36344   5.467  11.008   8.105 -1.6712  2.2223  3.0078
  989MOL0     O36345   7.835   9.214  10.484 -0.4220  0.3143 -0.3613
  989MOL0     C36346   7.802   9.304  10.413  0.0048 -0.1770 -0.0636
  989MOL0     O36347   7.696   9.391  10.430 -0.5032 -0.6477 -0.4176
  989MOL0     C36348   7.595   9.355  10.502  0.8050  0.9029 -0.7384
  989MOL0     C36349   7.474   9.323  10.438 -0.3901  0.5780 -0.1591
  989MOL0     C36350   7.357   9.294  10.511 -0.3142  0.0790  0.5116
  989MOL0     C36351   7.365   9.287  10.656 -0.3760  0.2459  0.5550
  989MOL0     O36352   7.255   9.264  10.725 -0.0094 -0.3801 -0.0281
  989MOL0     C36353   7.186   9.372  10.789 -0.0183  0.1315  0.1369
  989MOL0     C36354   7.077   9.308  10.877  0.5158  0.1799  0.6087
  989MOL0     C36355   7.132   9.210  10.984 -0.2993 -0.7295  0.0958
  989MOL0     C36356   7.023   9.129  11.055 -0.3542  0.5649 -0.2569
  989MOL0     C36357   7.061   9.066  11.181  0.2861  0.0370 -0.9063
  989MOL0     C36358   7.190   8.986  11.182  0.8525  1.0997  0.5499
  989MOL0     C36359   7.209   8.904  11.299 -0.0328 -0.0240 -0.3455
  989MOL0     C36360   7.255   8.986  11.412 -0.4212 -0.0103 -1.0526
  989MOL0     N36361   7.302   8.919  11.533  0.5896 -0.2921 -0.3755
  989MOL0     C36362   7.310   8.785  11.562  0.5789 -0.6899 -0.6610
  989MOL0     C36363   7.354   8.784  11.683  0.2814  1.0716  0.0394
  989MOL0     C36364   7.392   8.661  11.754 -0.6170  0.1388  0.4973
  989MOL0     C36365   7.312   8.666  11.884  0.4756  0.7009  0.9637
  989MOL0     C36366   7.331   8.545  11.985 -0.4587  0.8868  1.0019
  989MOL0     C36367   7.468   8.503  12.023 -0.2146  0.0254 -0.0341
  989MOL0     O36368   7.555   8.607  12.063  0.2834  0.3605  0.2407
  989MOL0     C36369   7.550   8.669  12.186 -0.0693 -0.9181  0.0403
  989MOL0     C36370   7.476   8.624  12.294  0.4474 -0.0154 -0.7163
  989MOL0     C36371   7.481   8.674  12.422 -0.4666 -0.4667  0.3676
  989MOL0     C36372   7.395   8.621  12.538  0.1738 -0.0800 -0.3444
  989MOL0     C36373   7.570   8.783  12.442 -0.0555 -0.1166 -0.4741
  989MOL0     C36374   7.585   8.847  12.578 -0.0199  0.1164 -0.3362
  989MOL0     O36375   7.605   8.984  12.584 -0.0518 -0.2952  0.5668
  989MOL0     C36376   7.607   9.041  12.704  1.1488 -0.0529  0.0002
  989MOL0     C36377   7.494   9.105  12.749 -0.3538  0.5011 -0.2748
  989MOL0     C36378   7.480   9.163  12.881  0.6176 -0.2869  0.1676
  989MOL0     C36379   7.595   9.153  12.963  0.8870  0.1098 -1.2331
  989MOL0     O36380   7.591   9.221  13.078  1.3239  0.2960 -0.6161
  989MOL0     C36381   7.697   9.219  13.178  0.4929 -0.8060  0.1794
  989MOL0     C36382   7.661   9.288  13.321  0.0384 -0.1205 -0.6319
  989MOL0     C36383   7.557   9.206  13.405 -0.4338 -0.4127  0.7588
  989MOL0     C36384   7.424   9.283  13.438 -0.9469 -0.2460 -0.0226
  989MOL0     C36385   7.335   9.185  13.509 -0.7772  1.6941  0.2707
  989MOL0     C36386   7.224   9.254  13.594 -0.4421  1.0528 -0.0038
  989MOL0     C36387   7.133   9.147  13.639 -0.1780 -0.0411 -0.0849
  989MOL0     C36388   7.185   9.087  13.773 -1.3720  0.4745  0.2745
  989MOL0    Cl36389   7.173   9.208  13.906 -0.4164  0.4570  0.0859
  989MOL0     C36390   7.707   9.093  12.920  0.4279  0.6977  0.9432
  989MOL0     C36391   7.723   9.042  12.787 -0.0500 -0.3180  0.4985
  989MOL0     O36392   7.589   8.776  12.680 -0.0392 -0.0055  0.4355
  989MOL0     C36393   7.654   8.838  12.339  0.5280  0.9381  0.1701
  989MOL0     C36394   7.641   8.781  12.209 -0.4247  0.2387  0.2219
  989MOL0     N36395   7.377   8.917  11.728 -0.0461  0.4153  0.7074
  989MOL0     N36396   7.345   8.991  11.634 -0.4782 -0.5084  0.7406
  989MOL0     C36397   7.483   9.324  10.714  0.3445 -0.4767 -0.1554
  989MOL0     C36398   7.598   9.361  10.638  0.4283  0.3638 -0.4185
  989MOL0     C36399   7.892   9.351  10.307 -0.1390 -0.0245  0.0053
  989MOL0     C36400   7.890   9.478  10.263 -0.4872 -1.2624 -0.2833
  989MOL0     C36401   7.988   9.533  10.180  0.4100 -0.8234 -1.1171
  989MOL0     C36402   8.087   9.456  10.136 -0.9890  0.5954  0.3718
  989MOL0     O36403   8.183   9.516  10.058  0.2150  0.0813  0.7051
  989MOL0     C36404   8.317   9.462  10.066 -0.5639 -0.0967 -0.3532
  989MOL0     C36405   8.362   9.366   9.948  0.1919  0.7632  0.6791
  989MOL0     C36406   8.502   9.325   9.982  0.3443 -0.3414 -0.0552
  989MOL0     C36407   8.556   9.232   9.871  0.5604 -0.4138  0.8306
  989MOL0     C36408   8.687   9.174   9.898 -0.3870 -0.6238 -1.4834
  989MOL0     C36409   8.799   9.125   9.912  0.3030 -0.5530 -0.4515
  989MOL0     C36410   8.062   9.315  10.154 -0.6500  0.2059  0.1501
  989MOL0     C36411   7.971   9.256  10.243 -0.7974 -0.8550  0.4608
  989MOL0     C36412   7.957   9.111  10.234  0.2097  1.2029 -0.0894
  989MOL0     H36413   7.464   9.308  10.331 -0.3263  3.1507 -0.5884
  989MOL0     H36414   7.270   9.275  10.450 -0.4898  1.3517  0.3348
  989MOL0     H36415   7.143   9.440  10.715 -2.0924  1.0284  2.0257
  989MOL0     H36416   7.244   9.443  10.849 -2.1591  5.1802 -3.0890
  989MOL0     H36417   7.018   9.383  10.930 -2.7983 -1.5819 -0.2914
  989MOL0     H36418   7.016   9.254  10.803  0.1196 -0.2328  1.2287
  989MOL0     H36419   7.202   9.144  10.932  0.9575  3.1911 -3.7915
  989MOL0     H36420   7.177   9.283  11.051  1.0450  0.4166 -1.9409
  989MOL0     H36421   6.929   9.183  11.072  0.6360  1.7255  1.9786
  989MOL0     H36422   6.980   9.043  11.002 -2.0613  0.1331  1.7155
  989MOL0     H36423   6.970   9.018  11.217  0.8663  0.4434  1.2182
  989MOL0     H36424   7.076   9.152  11.247  1.0393  1.7211 -3.1234
  989MOL0     H36425   7.187   8.919  11.096 -0.0443  2.1870 -0.2924
  989MOL0     H36426   7.272   9.055  11.166  0.1939  1.2466 -2.7618
  989MOL0     H36427   7.277   8.824  11.270 -0.8527  0.7047 -5.0946
  989MOL0     H36428   7.110   8.865  11.324 -2.4141  3.0519 -3.8988
  989MOL0     H36429   7.346   9.040  11.386 -0.0976 -0.8587 -1.6837
  989MOL0     H36430   7.184   9.064  11.444  0.5696 -0.0173  1.4011
  989MOL0     H36431   7.291   8.697  11.501  2.1024 -2.5883  1.4457
  989MOL0     H36432   7.500   8.666  11.767 -0.2218 -4.5596  0.5796
  989MOL0     H36433   7.371   8.580  11.683  1.0267  1.4356 -1.5703
  989MOL0     H36434   7.320   8.758  11.942 -1.5166 -0.9359  4.1497
  989MOL0     H36435   7.207   8.656  11.856  0.7916 -3.1182  0.6123
  989MOL0     H36436   7.280   8.577  12.077 -2.5453  1.2577 -0.2204
  989MOL0     H36437   7.280   8.459  11.941 -0.4566  1.2036  0.3629
  989MOL0     H36438   7.472   8.428  12.102 -2.4215 -1.6930 -1.4298
  989MOL0     H36439   7.514   8.469  11.929  0.6979  0.3831  0.2673
  989MOL0     H36440   7.403   8.547  12.273  1.6073 -1.2776 -0.2164
  989MOL0     H36441   7.354   8.709  12.589 -1.3689  0.0815 -1.7987
  989MOL0     H36442   7.465   8.568  12.604  0.3857  2.8945  2.0166
  989MOL0     H36443   7.308   8.563  12.507 -2.8591  3.7059  0.3585
  989MOL0     H36444   7.411   9.122  12.681  0.5028  1.6569 -1.0837
  989MOL0     H36445   7.393   9.223  12.906  1.7047  1.4637 -0.1127
  989MOL0     H36446   7.715   9.114  13.200  0.1584 -0.1689  4.5295
  989MOL0     H36447   7.787   9.263  13.133 -0.8490  4.3894  1.8307
  989MOL0     H36448   7.759   9.299  13.368 -1.0212  2.4151  1.2110
  989MOL0     H36449   7.634   9.393  13.302 -0.8503 -0.3822 -0.8465
  989MOL0     H36450   7.610   9.197  13.500 -2.7003  1.6490  2.3389
  989MOL0     H36451   7.541   9.108  13.360  2.1499 -0.4760 -0.2345
  989MOL0     H36452   7.375   9.319  13.347 -0.8562 -1.0015 -0.3822
  989MOL0     H36453   7.438   9.367  13.506 -0.7165  0.4583 -0.9219
  989MOL0     H36454   7.299   9.114  13.433  1.6152  0.3054  0.3690
  989MOL0     H36455   7.396   9.137  13.586 -0.5653  4.4818  1.9505
  989MOL0     H36456   7.166   9.321  13.530  2.1942 -0.9158 -5.0192
  989MOL0     H36457   7.277   9.311  13.671  0.0355 -3.6478  3.5550
  989MOL0     H36458   7.117   9.070  13.562  0.4184  0.8127 -1.0850
  989MOL0     H36459   7.043   9.205  13.659 -1.5155 -2.4146  1.2396
  989MOL0     H36460   7.292   9.066  13.774 -0.6280  3.7112  1.5242
  989MOL0     H36461   7.124   8.998  13.794  0.1917 -0.6031  0.4490
  989MOL0     H36462   7.791   9.083  12.988  0.3505 -1.3798  0.7931
  989MOL0     H36463   7.812   8.990  12.752  0.1905 -0.4776  1.3265
  989MOL0     H36464   7.726   8.916  12.359  1.0597  0.4236  0.2882
  989MOL0     H36465   7.690   8.806  12.115  1.8533 -3.4222  0.2581
  989MOL0     H36466   7.490   9.334  10.822  2.8387 -1.3176 -0.1906
  989MOL0     H36467   7.681   9.393  10.700 -0.4919  0.4592  0.8180
  989MOL0     H36468   7.822   9.552  10.306 -1.6641 -2.0049 -0.8216
  989MOL0     H36469   7.988   9.637  10.150 -0.6676 -0.3064  0.5286
  989MOL0     H36470   8.378   9.552  10.054 -1.5972  0.5340 -1.1082
  989MOL0     H36471   8.338   9.410  10.159 -0.5906 -2.4339 -1.5727
  989MOL0     H36472   8.362   9.416   9.851  0.7642 -0.9276 -0.2325
  989MOL0     H36473   8.314   9.268   9.939  1.9240  0.0036 -0.8315
  989MOL0     H36474   8.563   9.415   9.992 -1.5096  0.8322  1.3521
  989MOL0     H36475   8.514   9.272  10.076  3.1767  2.2836  1.2518
  989MOL0     H36476   8.557   9.298   9.784 -0.9175  2.4268  2.8191
  989MOL0     H36477   8.482   9.155   9.848 -0.5344  1.3479 -2.2514
  989MOL0     H36478   8.889   9.070   9.931 -0.3003 -1.4286 -0.0775
  989MOL0     H36479   8.134   9.252  10.100 -1.1062 -0.0732 -0.1430
  989MOL0     H36480   8.032   9.058  10.292 -0.0846 -0.3193 -1.0413
  989MOL0     H36481   7.869   9.063  10.278  2.0605 -0.3887  2.1145
  989MOL0     H36482   7.976   9.091  10.128 -1.8034  1.9397 -0.6525
  990MOL0     O36483   8.030   2.459   5.322  0.1481 -0.3310 -0.3045
  990MOL0     C36484   7.946   2.482   5.237  0.3739  0.3390  0.2710
  990MOL0     O36485   7.814   2.497   5.259  1.1669 -0.2533 -0.2434
  990MOL0     C36486   7.750   2.450   5.366  0.4988  0.8425 -0.7739
  990MOL0     C36487   7.724   2.530   5.474 -0.1482 -0.8688 -0.0065
  990MOL0     C36488   7.640   2.481   5.576 -0.0904  0.7082  0.3049
  990MOL0     C36489   7.578   2.359   5.571 -0.1822 -0.7410 -0.0247
  990MOL0     O36490   7.497   2.315   5.676 -0.1177  0.4296 -0.5457
  990MOL0     C36491   7.433   2.414   5.760 -0.1349 -0.2914  0.0901
  990MOL0     C36492   7.506   2.442   5.896  0.1238 -0.2253  0.3068
  990MOL0     C36493   7.438   2.557   5.963  0.4411 -0.0803 -0.6004
  990MOL0     C36494   7.454   2.696   5.907  0.8233 -0.4235  1.0151
  990MOL0     C36495   7.410   2.804   6.002 -0.6521  0.8172  0.3643
  990MOL0     C36496   7.379   2.947   5.943 -0.7980  0.6007 -0.6044
  990MOL0     C36497   7.309   3.031   6.066 -0.1553 -0.3182 -0.2973
  990MOL0     C36498   7.278   3.175   6.029  0.3175 -0.2735  0.2961
  990MOL0     N36499   7.224   3.250   6.145  0.4325  0.4757 -0.0671
  990MOL0     C36500   7.107   3.210   6.205  0.0715 -0.8476  0.3372
  990MOL0     C36501   7.086   3.303   6.298  0.0160  0.5931 -0.2720
  990MOL0     C36502   6.978   3.333   6.388 -0.0771  0.4124  0.4320
  990MOL0     C36503   6.855   3.233   6.387  0.6116  0.2871 -0.2126
  990MOL0     C36504   6.743   3.300   6.293  0.8911 -0.6472  0.0353
  990MOL0     C36505   6.602   3.266   6.339 -0.5915  0.1441 -0.1918
  990MOL0     O36506   6.504   3.342   6.263  0.1137  0.1404  0.4267
  990MOL0     C36507   6.369   3.305   6.263 -0.0776 -0.4068  0.3679
  990MOL0     C36508   6.300   3.375   6.168  0.5702 -0.3144 -0.5522
  990MOL0     C36509   6.161   3.355   6.139 -0.6499 -0.3015  0.0694
  990MOL0     C36510   6.108   3.424   6.006 -0.7260  0.2018 -0.3063
  990MOL0     C36511   6.095   3.246   6.209 -0.3318 -0.1121 -0.7062
  990MOL0     C36512   5.943   3.213   6.184 -0.4734 -1.4997  0.2287
  990MOL0     O36513   5.872   3.304   6.105  0.0434  0.1249 -0.7793
  990MOL0     C36514   5.742   3.258   6.078 -0.6133 -1.4672  0.5469
  990MOL0     C36515   5.729   3.147   5.996 -0.6156 -0.3062  0.2193
  990MOL0     C36516   5.607   3.086   5.960  0.0955 -0.9132  0.6088
  990MOL0     C36517   5.488   3.155   6.006  0.1833  0.6612 -1.1297
  990MOL0     O36518   5.358   3.113   5.993  0.2497  0.1567  0.7474
  990MOL0     C36519   5.347   2.978   5.940  0.1268  0.6305 -0.4134
  990MOL0     C36520   5.204   2.927   5.934  0.2792  1.3439  0.2392
  990MOL0     C36521   5.125   2.949   6.069  0.5619 -0.3291  0.6295
  990MOL0     C36522   4.985   2.881   6.061  0.4214 -0.0639 -0.2111
  990MOL0     C36523   4.891   2.928   6.173  0.6617  0.4877 -0.8740
  990MOL0     C36524   4.809   3.052   6.128 -0.1979  0.6160  0.5801
  990MOL0     C36525   4.712   3.088   6.244  0.3408  0.1328  0.2133
  990MOL0     C36526   4.616   3.216   6.220  0.5590  0.1500 -0.5768
  990MOL0    Cl36527   4.537   3.208   6.062 -0.0260 -0.0122 -0.2068
  990MOL0     C36528   5.504   3.264   6.093  0.2524 -0.3812  0.2649
  990MOL0     C36529   5.628   3.321   6.128 -0.0540 -0.1473 -0.0148
  990MOL0     O36530   5.903   3.106   6.226 -0.0694  0.6250  0.0413
  990MOL0     C36531   6.176   3.172   6.304 -0.3825  0.0233 -0.9310
  990MOL0     C36532   6.308   3.197   6.329 -0.5760  0.7081 -0.4520
  990MOL0     N36533   7.192   3.388   6.304 -0.8277 -0.5494  1.1640
  990MOL0     N36534   7.270   3.364   6.198  0.2039 -0.6056 -0.2077
  990MOL0     C36535   7.603   2.280   5.457 -0.4795 -0.4393 -0.3505
  990MOL0     C36536   7.689   2.325   5.355  0.5424 -0.1690 -0.1727
  990MOL0     C36537   7.980   2.496   5.083  0.0363  0.5951 -0.5337
  990MOL0     C36538   7.879   2.524   4.986  0.4149 -0.1999  0.0906
  990MOL0     C36539   7.915   2.525   4.854 -0.2319  1.5794  0.5072
  990MOL0     C36540   8.048   2.515   4.811 -0.1998 -0.4114  0.1723
  990MOL0     O36541   8.102   2.533   4.693 -0.3025  0.4540  0.3076
  990MOL0     C36542   8.015   2.531   4.583 -0.7530  0.1264  1.2879
  990MOL0     C36543   8.087   2.562   4.449 -0.1639 -0.4342  0.0467
  990MOL0     C36544   7.998   2.578   4.325 -0.0354  0.4519  0.6399
  990MOL0     C36545   7.903   2.468   4.300 -0.4188 -0.1981 -0.2260
  990MOL0     C36546   7.966   2.333   4.263  0.2424 -0.4811 -0.9800
  990MOL0     C36547   8.028   2.237   4.226  0.1151  0.4724  0.3234
  990MOL0     C36548   8.137   2.477   4.905  0.0597 -0.0725 -0.1230
  990MOL0     C36549   8.112   2.466   5.035  0.0157  0.4256 -0.0276
  990MOL0     C36550   8.229   2.413   5.115  0.4926  0.8391 -0.5484
  990MOL0     H36551   7.763   2.630   5.491  0.9950 -1.5162  1.4394
  990MOL0     H36552   7.628   2.541   5.665  0.1637 -0.9726  1.5319
  990MOL0     H36553   7.341   2.361   5.784  0.3775 -0.4492  1.8824
  990MOL0     H36554   7.414   2.513   5.716  0.9600 -0.5803 -1.0822
  990MOL0     H36555   7.494   2.357   5.963 -0.0177 -3.5302 -3.5179
  990MOL0     H36556   7.611   2.463   5.871 -0.9319  3.9007 -1.6714
  990MOL0     H36557   7.334   2.535   5.990  0.7949  0.3964  1.3259
  990MOL0     H36558   7.488   2.562   6.060  0.6837  1.9490 -0.7787
  990MOL0     H36559   7.556   2.703   5.867 -0.2371 -0.5437 -1.9470
  990MOL0     H36560   7.391   2.712   5.819 -0.4211  1.3233  2.1632
  990MOL0     H36561   7.493   2.817   6.071  1.2624 -3.6969 -0.7192
  990MOL0     H36562   7.323   2.763   6.054 -0.4133 -1.1107 -0.6774
  990MOL0     H36563   7.471   2.991   5.902  0.5189 -0.1107  1.4149
  990MOL0     H36564   7.303   2.945   5.865 -4.1019 -1.8073  2.3406
  990MOL0     H36565   7.350   3.038   6.167 -4.6351  3.7784  1.6801
  990MOL0     H36566   7.213   2.981   6.082 -0.0017 -1.3881 -2.3615
  990MOL0     H36567   7.366   3.229   5.992 -0.6556 -0.0972 -1.9293
  990MOL0     H36568   7.205   3.165   5.949  3.1961 -0.6389 -2.4943
  990MOL0     H36569   7.039   3.131   6.174 -0.5987 -0.2135  0.1473
  990MOL0     H36570   6.949   3.439   6.382 -0.8641  0.1192 -1.7731
  990MOL0     H36571   7.035   3.322   6.481 -0.4447  0.5372  0.6740
  990MOL0     H36572   6.875   3.132   6.350  0.3621  0.2448 -0.2355
  990MOL0     H36573   6.809   3.228   6.486 -0.9740  3.0947 -0.6821
  990MOL0     H36574   6.747   3.410   6.290  0.5636 -0.6068  0.7610
  990MOL0     H36575   6.741   3.256   6.193 -3.3027 -0.0383 -0.3523
  990MOL0     H36576   6.583   3.159   6.322  0.7384 -0.4140  1.5924
  990MOL0     H36577   6.592   3.282   6.446  1.1050  1.4277 -0.1888
  990MOL0     H36578   6.351   3.448   6.105  1.5552 -0.3282  0.2098
  990MOL0     H36579   6.199   3.453   5.953  0.0589 -0.8019  0.4389
  990MOL0     H36580   6.055   3.517   6.026 -1.9236 -0.4519 -0.3404
  990MOL0     H36581   6.044   3.357   5.948  0.8161  0.1981 -2.0861
  990MOL0     H36582   5.822   3.098   5.968  1.1576  0.8598  3.5098
  990MOL0     H36583   5.601   3.010   5.883  0.4398 -3.9271  3.3500
  990MOL0     H36584   5.398   2.987   5.844 -1.3582  0.6069 -1.2391
  990MOL0     H36585   5.402   2.920   6.015 -0.7554 -0.5118 -0.6164
  990MOL0     H36586   5.163   2.998   5.862 -2.9026 -0.7383 -0.2021
  990MOL0     H36587   5.193   2.823   5.904  0.4071  1.4113 -0.0485
  990MOL0     H36588   5.115   3.058   6.072  0.7714 -0.1142 -2.6118
  990MOL0     H36589   5.181   2.902   6.150  0.5677  1.2033  1.5577
  990MOL0     H36590   5.002   2.774   6.073  0.7262 -0.0583 -0.5671
  990MOL0     H36591   4.947   2.897   5.960  1.4438  0.8604 -0.4744
  990MOL0     H36592   4.829   2.842   6.200  3.9054 -1.4321  1.1232
  990MOL0     H36593   4.941   2.956   6.266 -0.5863  0.6802 -0.2402
  990MOL0     H36594   4.747   3.024   6.042  1.3815  0.9400 -0.6942
  990MOL0     H36595   4.880   3.132   6.108 -0.6480  0.9382  0.2417
  990MOL0     H36596   4.774   3.121   6.328  1.7234  1.9233 -1.4240
  990MOL0     H36597   4.659   2.996   6.268  2.3911 -1.1027  0.2162
  990MOL0     H36598   4.673   3.309   6.229  1.1897 -0.0835 -1.9200
  990MOL0     H36599   4.545   3.218   6.304 -1.7055  0.6115 -2.3988
  990MOL0     H36600   5.424   3.331   6.124  2.7022  3.1653 -0.4094
  990MOL0     H36601   5.625   3.418   6.178 -1.3690  1.1644 -2.4625
  990MOL0     H36602   6.125   3.092   6.356  0.2925 -0.3508 -0.8325
  990MOL0     H36603   6.350   3.139   6.411 -0.1971  3.2376  1.3031
  990MOL0     H36604   7.553   2.186   5.436  0.4431 -0.6335 -1.7551
  990MOL0     H36605   7.700   2.261   5.268 -2.1643 -1.8853  0.5950
  990MOL0     H36606   7.779   2.557   5.008 -1.1768 -0.2842 -5.5357
  990MOL0     H36607   7.834   2.553   4.786 -1.1171 -0.4508  0.6422
  990MOL0     H36608   7.954   2.441   4.574 -2.5155  1.3029  0.9064
  990MOL0     H36609   7.949   2.616   4.601 -1.0366 -0.1073  1.3606
  990MOL0     H36610   8.172   2.494   4.438 -1.7355 -2.3677 -0.7798
  990MOL0     H36611   8.133   2.659   4.470  0.8646 -0.7248 -0.7554
  990MOL0     H36612   7.935   2.665   4.345  1.6171  1.9733 -0.4620
  990MOL0     H36613   8.044   2.605   4.229 -1.8530  0.6211 -0.2185
  990MOL0     H36614   7.845   2.502   4.213 -0.4873 -0.2005 -0.1804
  990MOL0     H36615   7.839   2.460   4.388  0.0336  2.7146  0.4612
  990MOL0     H36616   8.091   2.159   4.188  0.8650 -0.4147  3.1313
  990MOL0     H36617   8.238   2.454   4.872  0.8617  2.9825 -0.1294
  990MOL0     H36618   8.278   2.477   5.189  0.2615 -1.4731  1.7608
  990MOL0     H36619   8.183   2.330   5.169  0.2095  0.5439 -1.2293
  990MOL0     H36620   8.294   2.356   5.047 -2.3116 -0.7090 -2.1362
  991MOL0     O36621  10.919  10.545   0.531 -0.4977 -0.7467  0.1885
  991MOL0     C36622  10.953  10.455   0.608  0.4503  0.2713  0.4464
  991MOL0     O36623  11.053  10.358   0.586  0.5627 -0.3112 -0.3939
  991MOL0     C36624  11.109  10.334   0.465 -0.2709  1.0017  1.1431
  991MOL0     C36625  11.038  10.349   0.337  0.7016 -0.3899  0.2204
  991MOL0     C36626  11.099  10.313   0.214  0.5550  0.1363  0.1592
  991MOL0     C36627  11.232  10.261   0.213 -0.1059  0.6501  0.2581
  991MOL0     O36628  11.273  10.222   0.094  0.2096 -0.1974 -0.0848
  991MOL0     C36629  11.405  10.176   0.067 -0.2047 -0.5773  0.0390
  991MOL0     C36630  11.427  10.170  -0.087 -0.4138  0.0609 -0.7993
  991MOL0     C36631  11.411  10.316  -0.149 -0.3553  1.4321  0.0588
  991MOL0     C36632  11.519  10.423  -0.108  0.0046  0.0014 -0.3222
  991MOL0     C36633  11.661  10.371  -0.137  0.6430 -0.3921 -1.0119
  991MOL0     C36634  11.695  10.403  -0.288 -0.1341  0.6625  0.1216
  991MOL0     C36635  11.824  10.335  -0.334 -0.1720  0.0089 -0.7690
  991MOL0     C36636  11.858  10.354  -0.484  0.2781  0.0227 -0.9635
  991MOL0     N36637  11.970  10.261  -0.505 -0.1571  0.6461  0.6828
  991MOL0     C36638  12.083  10.282  -0.575 -0.3070  0.2922  0.3107
  991MOL0     C36639  12.121  10.168  -0.631  0.8860  0.0204 -0.6536
  991MOL0     C36640  12.224  10.142  -0.729 -0.0600 -0.3405 -0.7639
  991MOL0     C36641  12.371  10.161  -0.675 -0.4257 -0.8695 -0.3603
  991MOL0     C36642  12.404  10.105  -0.535 -0.1486 -0.7169  0.6985
  991MOL0     C36643  12.529  10.179  -0.479  0.1786  0.0830  0.7120
  991MOL0     O36644  12.516  10.327  -0.465 -0.8741  0.4290  0.0211
  991MOL0     C36645  12.451  10.378  -0.348 -0.5141 -0.0487  0.4581
  991MOL0     C36646  12.465  10.515  -0.316 -0.1442  0.5238  0.2257
  991MOL0     C36647  12.400  10.569  -0.208 -0.9667 -0.4526 -1.1179
  991MOL0     C36648  12.443  10.706  -0.169  0.6035 -0.2458  0.2076
  991MOL0     C36649  12.311  10.492  -0.131  0.1433  0.1938 -0.0488
  991MOL0     C36650  12.256  10.534  -0.004 -0.0350 -0.6264  0.0548
  991MOL0     O36651  12.127  10.493   0.025  0.0506  0.4390  0.5296
  991MOL0     C36652  12.037  10.560   0.109 -1.2115  0.4161  0.1179
  991MOL0     C36653  12.062  10.681   0.167  0.9361 -0.8411  0.2910
  991MOL0     C36654  11.980  10.733   0.271  0.3881  0.4030  0.8946
  991MOL0     C36655  11.866  10.657   0.313  0.9798 -0.2346 -0.8593
  991MOL0     O36656  11.776  10.708   0.415 -0.2610  0.1716  0.6790
  991MOL0     C36657  11.643  10.695   0.386 -0.4875 -0.1853 -0.1557
  991MOL0     C36658  11.581  10.816   0.308 -0.1394  1.1665 -0.9180
  991MOL0     C36659  11.621  10.949   0.367 -0.6531  1.1900 -0.1953
  991MOL0     C36660  11.669  11.046   0.253  0.2420  0.6042  0.0131
  991MOL0     C36661  11.660  11.187   0.296 -0.4701 -0.3959 -0.6190
  991MOL0     C36662  11.697  11.281   0.177 -0.1117  0.8818  0.0327
  991MOL0     C36663  11.572  11.316   0.097 -0.0611  0.8213 -1.4994
  991MOL0     C36664  11.582  11.451   0.025  0.2041  0.2477  0.3182
  991MOL0    Cl36665  11.670  11.441  -0.133  0.1873  0.7499  0.1855
  991MOL0     C36666  11.837  10.534   0.252  0.7868 -0.3301  0.2286
  991MOL0     C36667  11.929  10.489   0.151  0.3958  0.0865  1.2892
  991MOL0     O36668  12.330  10.586   0.074 -0.1766 -0.6054  0.4668
  991MOL0     C36669  12.285  10.362  -0.166 -0.2339  0.2844  0.6069
  991MOL0     C36670  12.364  10.304  -0.271  0.5518 -1.1094 -0.1673
  991MOL0     N36671  12.040  10.072  -0.578  0.0075 -0.6839 -0.1845
  991MOL0     N36672  11.948  10.129  -0.515  0.5450 -0.6022 -0.4662
  991MOL0     C36673  11.307  10.257   0.339  0.1334 -0.4587  0.3307
  991MOL0     C36674  11.247  10.298   0.461  0.1315  0.4638  0.4313
  991MOL0     C36675  10.883  10.457   0.739 -0.3460 -0.0244 -0.7272
  991MOL0     C36676  10.850  10.336   0.793 -0.2686  0.9975 -0.3585
  991MOL0     C36677  10.787  10.320   0.913 -0.1218 -0.4996 -1.3228
  991MOL0     C36678  10.763  10.434   0.993 -0.3038  0.9247  0.3340
  991MOL0     O36679  10.715  10.416   1.117  0.4890  0.2694 -0.6357
  991MOL0     C36680  10.742  10.293   1.200 -0.3086  0.3102  0.6816
  991MOL0     C36681  10.875  10.308   1.281 -0.2742 -0.8121  0.8209
  991MOL0     C36682  11.002  10.259   1.208  0.7086 -0.9289 -0.0725
  991MOL0     C36683  11.069  10.365   1.119  0.2307 -0.3960 -0.7556
  991MOL0     C36684  11.148  10.305   1.006  0.7579 -0.1642  0.1806
  991MOL0     C36685  11.198  10.250   0.905 -0.1537 -0.1079  0.1793
  991MOL0     C36686  10.787  10.560   0.944  0.2814  1.2207  0.7868
  991MOL0     C36687  10.849  10.575   0.811 -0.9660 -0.5308  0.2258
  991MOL0     C36688  10.878  10.715   0.756 -0.3746 -0.5541 -1.0720
  991MOL0     H36689  10.934  10.379   0.338  0.8227  0.0719 -0.2108
  991MOL0     H36690  11.028  10.304   0.132 -0.5636 -2.4029  1.2874
  991MOL0     H36691  11.424  10.082   0.121  2.1908  1.4728  3.0908
  991MOL0     H36692  11.481  10.246   0.102 -1.6014  0.3289  1.3912
  991MOL0     H36693  11.525  10.127  -0.107 -0.2004 -0.4239  1.0708
  991MOL0     H36694  11.348  10.102  -0.121  1.9012 -1.5982 -3.2201
  991MOL0     H36695  11.421  10.304  -0.258 -2.8731  2.0183 -0.3040
  991MOL0     H36696  11.319  10.370  -0.126 -0.5605  2.2339 -2.3374
  991MOL0     H36697  11.508  10.515  -0.166  0.7455 -1.5621 -3.1295
  991MOL0     H36698  11.505  10.462  -0.007  3.3320  1.3348 -0.2566
  991MOL0     H36699  11.673  10.267  -0.107 -1.5817 -0.4980 -0.3226
  991MOL0     H36700  11.734  10.423  -0.073 -0.3485 -1.8515  1.4183
  991MOL0     H36701  11.617  10.366  -0.356 -0.1917 -0.8692  0.9859
  991MOL0     H36702  11.702  10.510  -0.309 -0.9690  0.5356 -0.8708
  991MOL0     H36703  11.813  10.227  -0.329  1.0497 -0.4648 -4.6642
  991MOL0     H36704  11.902  10.354  -0.260 -2.5409 -4.1896  3.3494
  991MOL0     H36705  11.771  10.334  -0.546  1.0680  0.0792 -2.1293
  991MOL0     H36706  11.896  10.455  -0.501  1.2036 -0.2372 -0.5253
  991MOL0     H36707  12.120  10.377  -0.610 -0.7992 -0.2327 -1.7336
  991MOL0     H36708  12.213  10.214  -0.811 -2.4332 -1.3196 -1.3889
  991MOL0     H36709  12.198  10.044  -0.770  1.0295 -0.3061 -1.5617
  991MOL0     H36710  12.429  10.100  -0.743 -2.5373 -0.3591 -2.7661
  991MOL0     H36711  12.399  10.263  -0.702 -0.5796 -1.4012 -2.7559
  991MOL0     H36712  12.320  10.098  -0.465 -0.2217  0.8148  0.8165
  991MOL0     H36713  12.428   9.999  -0.529 -3.7667 -1.7406 -0.7181
  991MOL0     H36714  12.566  10.143  -0.383 -1.2995 -0.6066  1.0335
  991MOL0     H36715  12.615  10.158  -0.544 -1.0426 -0.4573 -0.7861
  991MOL0     H36716  12.531  10.580  -0.373  0.9831 -0.5533  0.2536
  991MOL0     H36717  12.360  10.772  -0.141  2.1242  1.9059 -0.1260
  991MOL0     H36718  12.495  10.768  -0.243 -2.4533  0.2909 -1.6544
  991MOL0     H36719  12.498  10.690  -0.075  1.7264 -0.3668 -0.4520
  991MOL0     H36720  12.153  10.729   0.131  1.6774 -1.3319  1.4496
  991MOL0     H36721  12.005  10.836   0.296  1.6147  1.7656 -4.4910
  991MOL0     H36722  11.604  10.601   0.346  2.4237 -0.7239 -2.0268
  991MOL0     H36723  11.589  10.705   0.481 -0.6975 -1.5974 -0.1028
  991MOL0     H36724  11.603  10.800   0.202 -1.2306 -2.7871 -0.7063
  991MOL0     H36725  11.472  10.808   0.308 -0.0089 -2.0979 -1.6943
  991MOL0     H36726  11.697  10.954   0.445  0.2231 -1.4367 -0.7880
  991MOL0     H36727  11.532  10.997   0.410 -1.1016  0.0631  0.1706
  991MOL0     H36728  11.605  11.029   0.167  0.4405 -0.7202  0.0947
  991MOL0     H36729  11.775  11.029   0.231 -0.0739  2.2554 -3.4040
  991MOL0     H36730  11.561  11.199   0.341 -0.1509 -2.4081  0.8060
  991MOL0     H36731  11.735  11.219   0.369 -0.6368  4.5981 -2.2404
  991MOL0     H36732  11.764  11.240   0.101 -2.2036 -1.2426 -0.7691
  991MOL0     H36733  11.748  11.370   0.216 -0.8488  0.9551  0.8600
  991MOL0     H36734  11.485  11.326   0.163 -2.1098 -0.9519 -3.7302
  991MOL0     H36735  11.541  11.240   0.025  2.3208 -1.1638 -0.5675
  991MOL0     H36736  11.621  11.525   0.096 -0.0448  1.7265 -1.0319
  991MOL0     H36737  11.480  11.484   0.001 -0.1033 -0.5792  0.4513
  991MOL0     H36738  11.751  10.477   0.288 -0.7241  1.6615 -0.0186
  991MOL0     H36739  11.899  10.390   0.119  3.1208 -0.8748  1.4403
  991MOL0     H36740  12.227  10.280  -0.125 -0.9343  0.9010  0.8768
  991MOL0     H36741  12.356  10.196  -0.273 -1.8339 -0.9838 -1.0543
  991MOL0     H36742  11.413  10.234   0.336  0.3298  0.3222 -2.6897
  991MOL0     H36743  11.309  10.304   0.550  0.6182 -1.5283  0.2886
  991MOL0     H36744  10.869  10.248   0.731  1.1990  1.9893 -1.3699
  991MOL0     H36745  10.764  10.223   0.955 -2.9617  1.3669  1.9933
  991MOL0     H36746  10.662  10.291   1.275  0.5034 -1.1425  1.5600
  991MOL0     H36747  10.723  10.200   1.144 -0.3270 -1.0158  2.7853
  991MOL0     H36748  10.867  10.259   1.379 -2.5146  0.6485  1.4407
  991MOL0     H36749  10.889  10.414   1.304 -0.3281 -0.4771 -0.6155
  991MOL0     H36750  11.071  10.230   1.288  1.4117  5.3849  2.1567
  991MOL0     H36751  10.974  10.176   1.142  1.2252  0.5244 -2.2087
  991MOL0     H36752  11.117  10.427   1.195  2.9237 -1.1045 -1.7349
  991MOL0     H36753  10.993  10.428   1.073 -0.5285 -0.8848 -0.1794
  991MOL0     H36754  11.254  10.232   0.815  1.4450 -0.5814  1.2181
  991MOL0     H36755  10.772  10.648   1.005  0.6000 -0.9689  4.2747
  991MOL0     H36756  10.961  10.715   0.684  2.1946 -1.8811  1.6288
  991MOL0     H36757  10.787  10.752   0.710  0.1227  0.5337 -1.2094
  991MOL0     H36758  10.903  10.791   0.831  0.0074 -1.5378 -0.1632
  992MOL0     O36759  10.588   1.567   3.676 -0.6178  0.2379 -0.0143
  992MOL0     C36760  10.513   1.627   3.754  0.5908 -0.4394 -0.1950
  992MOL0     O36761  10.427   1.570   3.846 -0.6866 -0.3399  0.2254
  992MOL0     C36762  10.458   1.454   3.905  0.1382  1.3589 -0.5398
  992MOL0     C36763  10.587   1.421   3.943 -0.4417 -0.5858 -0.3348
  992MOL0     C36764  10.613   1.306   4.020  0.6596  0.2317 -0.1381
  992MOL0     C36765  10.512   1.240   4.084 -0.4657 -0.6342 -0.2738
  992MOL0     O36766  10.533   1.125   4.158 -0.3221  0.4828  0.0213
  992MOL0     C36767  10.657   1.056   4.130 -0.3108 -0.3857 -0.6656
  992MOL0     C36768  10.665   0.938   4.230  0.3871  0.2650  0.5106
  992MOL0     C36769  10.779   0.948   4.335  1.2123  0.3322 -0.3113
  992MOL0     C36770  10.774   0.825   4.422 -0.0759 -0.0009  0.5916
  992MOL0     C36771  10.850   0.842   4.558  0.0329 -0.0770  0.5891
  992MOL0     C36772  10.888   0.705   4.634  0.6784  0.6805 -0.7476
  992MOL0     C36773  10.914   0.734   4.781  0.2211  0.2280 -0.6093
  992MOL0     C36774  11.028   0.646   4.840  0.3992 -0.0667  0.3035
  992MOL0     N36775  11.162   0.706   4.833 -0.5515 -0.1472 -0.4859
  992MOL0     C36776  11.238   0.739   4.724  0.1667  0.4828 -0.4016
  992MOL0     C36777  11.337   0.817   4.768  0.0668  1.0067  0.1119
  992MOL0     C36778  11.441   0.881   4.690  0.1651 -0.6165  0.4212
  992MOL0     C36779  11.410   1.033   4.703  0.2384 -0.2826  0.1040
  992MOL0     C36780  11.523   1.121   4.644  0.2129  0.3282  0.4837
  992MOL0     C36781  11.494   1.274   4.654  0.3980 -0.1493  0.0321
  992MOL0     O36782  11.505   1.319   4.784  0.2938  0.4083 -0.0979
  992MOL0     C36783  11.469   1.449   4.819 -0.6236 -0.1090  0.0335
  992MOL0     C36784  11.481   1.479   4.951  0.3386 -0.7616  0.6163
  992MOL0     C36785  11.466   1.612   5.004 -0.0821 -0.7732 -0.7562
  992MOL0     C36786  11.482   1.630   5.154  0.6007  0.4830  1.2424
  992MOL0     C36787  11.438   1.711   4.905  0.1129  0.2731 -0.5604
  992MOL0     C36788  11.421   1.860   4.940 -0.3107  0.2631 -0.8999
  992MOL0     O36789  11.380   1.942   4.851  0.2205  0.8866 -0.0791
  992MOL0     C36790  11.313   2.063   4.854  0.3259  0.1158  0.5154
  992MOL0     C36791  11.310   2.115   4.724  0.3531 -0.9350 -0.3282
  992MOL0     C36792  11.224   2.231   4.703 -0.1020 -0.5574  0.3027
  992MOL0     C36793  11.158   2.286   4.816 -0.6545 -0.5597  0.3915
  992MOL0     O36794  11.077   2.391   4.780  0.7477 -0.6286 -0.7024
  992MOL0     C36795  11.039   2.482   4.883  0.1080 -0.3017 -0.3410
  992MOL0     C36796  11.008   2.622   4.822  0.9051  0.3016  0.1092
  992MOL0     C36797  10.910   2.624   4.699  0.2140 -0.9892  0.1905
  992MOL0     C36798  10.807   2.731   4.705  0.4273 -0.1994 -0.0653
  992MOL0     C36799  10.703   2.714   4.826 -0.7275  0.4982 -0.0399
  992MOL0     C36800  10.626   2.843   4.850  0.6447 -0.8235 -0.1531
  992MOL0     C36801  10.564   2.841   4.990  0.7364 -0.2632 -0.6203
  992MOL0     C36802  10.532   2.983   5.046 -0.1402 -0.8859 -0.5542
  992MOL0    Cl36803  10.405   3.066   4.947 -0.3682  0.1492 -0.1471
  992MOL0     C36804  11.177   2.238   4.945 -0.6810  0.3079 -0.3590
  992MOL0     C36805  11.250   2.123   4.966 -0.3035 -0.8708  0.3004
  992MOL0     O36806  11.457   1.901   5.056  0.6403  0.3622 -0.4404
  992MOL0     C36807  11.424   1.669   4.771  0.0986  0.8254 -0.0325
  992MOL0     C36808  11.434   1.543   4.729  0.4387 -1.2035  0.0758
  992MOL0     N36809  11.313   0.834   4.898 -0.6385 -1.1554 -0.6199
  992MOL0     N36810  11.218   0.764   4.943 -0.2247  0.3593  0.1479
  992MOL0     C36811  10.388   1.275   4.054  0.8620 -1.1969  0.2457
  992MOL0     C36812  10.360   1.392   3.977  1.0331  0.4326  0.5255
  992MOL0     C36813  10.503   1.776   3.759 -0.3720 -0.3601  0.1517
  992MOL0     C36814  10.417   1.841   3.852 -0.2873 -0.7392 -0.4750
  992MOL0     C36815  10.409   1.981   3.867 -0.3021  0.7464 -0.3106
  992MOL0     C36816  10.475   2.068   3.781  0.0662  0.2128  0.8085
  992MOL0     O36817  10.458   2.206   3.774 -0.0227  0.0950 -1.2990
  992MOL0     C36818  10.386   2.266   3.666 -0.7076 -0.1813 -0.0284
  992MOL0     C36819  10.339   2.404   3.711  1.1808 -0.8603  0.3491
  992MOL0     C36820  10.452   2.508   3.711 -0.2367  0.5002 -0.6969
  992MOL0     C36821  10.385   2.647   3.729 -0.2872 -0.7920  0.6280
  992MOL0     C36822  10.366   2.705   3.592 -0.2871  0.2061  0.6378
  992MOL0     C36823  10.329   2.729   3.476  0.0352 -1.0009 -0.1257
  992MOL0     C36824  10.558   2.009   3.687 -0.1531  0.0824  0.0053
  992MOL0     C36825  10.575   1.868   3.672  0.1533 -0.3352  0.3377
  992MOL0     C36826  10.684   1.828   3.585  0.3380 -0.2691  0.3979
  992MOL0     H36827  10.673   1.470   3.899  0.7171 -2.7214 -0.6326
  992MOL0     H36828  10.717   1.274   4.028  1.2016  1.4398 -1.7814
  992MOL0     H36829  10.748   1.115   4.144  2.8598 -4.7045 -0.6577
  992MOL0     H36830  10.653   1.019   4.027 -0.6676 -1.8742 -0.1524
  992MOL0     H36831  10.569   0.941   4.283 -0.8555  0.7396 -1.6558
  992MOL0     H36832  10.669   0.843   4.177  0.5840 -0.0345  1.0594
  992MOL0     H36833  10.876   0.946   4.284  0.8738 -0.8364 -0.9406
  992MOL0     H36834  10.770   1.039   4.395  2.9582  2.2455 -2.7517
  992MOL0     H36835  10.673   0.793   4.450  0.1992 -2.9362 -1.2904
  992MOL0     H36836  10.820   0.740   4.370  0.7654  0.2169  0.9660
  992MOL0     H36837  10.792   0.908   4.623 -1.8933  0.6070 -1.6724
  992MOL0     H36838  10.942   0.898   4.539 -0.6429  0.5840 -0.8766
  992MOL0     H36839  10.808   0.632   4.618  1.5877 -0.1248 -1.7194
  992MOL0     H36840  10.965   0.654   4.575 -1.8370 -1.7701 -2.1189
  992MOL0     H36841  10.825   0.725   4.845  1.8036  0.8337  1.8150
  992MOL0     H36842  10.927   0.842   4.792 -0.6743  0.2869  0.0083
  992MOL0     H36843  10.999   0.629   4.944 -0.6020 -3.6010 -0.4165
  992MOL0     H36844  11.033   0.553   4.782 -0.5194 -1.2799  2.0770
  992MOL0     H36845  11.239   0.708   4.620  0.8814  2.3342 -0.9842
  992MOL0     H36846  11.438   0.866   4.581  2.8467 -4.1277  0.6604
  992MOL0     H36847  11.540   0.856   4.730  0.7208 -0.8322 -1.0186
  992MOL0     H36848  11.325   1.053   4.637  0.8136 -1.1622 -0.9370
  992MOL0     H36849  11.390   1.068   4.805  0.9331 -0.9612  0.4891
  992MOL0     H36850  11.622   1.085   4.673  3.5242  3.1820 -5.4357
  992MOL0     H36851  11.531   1.097   4.538  3.4236 -6.8942  1.7392
  992MOL0     H36852  11.569   1.319   4.588  0.2372 -0.9565 -0.7127
  992MOL0     H36853  11.392   1.295   4.620 -0.9848 -2.4861  2.3797
  992MOL0     H36854  11.518   1.406   5.022 -1.0793 -1.7746  0.3609
  992MOL0     H36855  11.493   1.535   5.207 -4.8609 -1.3843 -0.3160
  992MOL0     H36856  11.383   1.669   5.182 -1.1687 -1.5773 -1.5560
  992MOL0     H36857  11.556   1.705   5.183 -0.0043  0.6670  2.3576
  992MOL0     H36858  11.353   2.054   4.645 -1.8977 -0.2388 -2.1919
  992MOL0     H36859  11.202   2.265   4.602 -2.4157 -0.0987  0.9041
  992MOL0     H36860  10.956   2.435   4.937  0.3028 -2.9264 -2.1177
  992MOL0     H36861  11.121   2.485   4.956  0.0151  2.0278 -0.2733
  992MOL0     H36862  10.970   2.685   4.903  5.5818  1.2802  1.8620
  992MOL0     H36863  11.107   2.657   4.791  0.1669  0.7520 -1.9330
  992MOL0     H36864  10.853   2.531   4.685  1.0687 -1.5940  0.6679
  992MOL0     H36865  10.967   2.636   4.606  0.0215  3.8463  0.4552
  992MOL0     H36866  10.765   2.739   4.605  3.5706  1.6344 -1.3905
  992MOL0     H36867  10.870   2.820   4.719  2.1265 -1.5985  1.9565
  992MOL0     H36868  10.633   2.631   4.814 -1.0649  0.8867 -0.8277
  992MOL0     H36869  10.757   2.685   4.916  0.2586  0.2070 -0.7117
  992MOL0     H36870  10.542   2.852   4.780  0.5097  1.4636  0.2298
  992MOL0     H36871  10.687   2.934   4.842 -0.9998  0.5462  1.8279
  992MOL0     H36872  10.638   2.791   5.053  0.8126 -2.5074 -2.3664
  992MOL0     H36873  10.467   2.791   4.979  1.2150 -1.0967 -1.0922
  992MOL0     H36874  10.625   3.041   5.042 -0.2411 -0.6640  0.1298
  992MOL0     H36875  10.505   2.970   5.152  1.0287  1.3048  0.0694
  992MOL0     H36876  11.122   2.273   5.032  0.7207 -1.0928  1.1471
  992MOL0     H36877  11.255   2.067   5.058 -2.0086 -0.9199  0.4006
  992MOL0     H36878  11.406   1.740   4.691 -1.7886  0.1053 -0.2948
  992MOL0     H36879  11.436   1.517   4.624 -2.1492 -1.6656  0.0747
  992MOL0     H36880  10.307   1.223   4.104 -0.9064  2.5960  1.7491
  992MOL0     H36881  10.261   1.436   3.977  1.1878  0.9253 -1.7789
  992MOL0     H36882  10.346   1.790   3.917 -0.7790 -0.2202 -0.5933
  992MOL0     H36883  10.341   2.031   3.935 -2.1957 -0.0243 -1.5526
  992MOL0     H36884  10.452   2.271   3.578  0.4571  1.4145  0.8949
  992MOL0     H36885  10.298   2.205   3.644 -1.5278  0.6422  0.9123
  992MOL0     H36886  10.295   2.397   3.811 -1.2083  0.7231 -0.5014
  992MOL0     H36887  10.257   2.446   3.651  0.9513 -0.3259  1.0360
  992MOL0     H36888  10.518   2.496   3.797  0.0423  0.3992 -0.9203
  992MOL0     H36889  10.507   2.499   3.616 -0.3827  0.2713 -0.7614
  992MOL0     H36890  10.447   2.718   3.785  1.8432 -1.6830 -0.4457
  992MOL0     H36891  10.291   2.631   3.782 -2.2122 -0.7297 -2.5106
  992MOL0     H36892  10.289   2.755   3.380  3.8895 -2.0296 -2.2148
  992MOL0     H36893  10.636   2.071   3.644 -0.2792  0.5982  0.5013
  992MOL0     H36894  10.762   1.783   3.648  2.0644  0.6388 -1.0153
  992MOL0     H36895  10.671   1.745   3.515  6.8532 -2.6157  1.2929
  992MOL0     H36896  10.728   1.911   3.529 -0.6190  0.1919  0.2964
  993MOL0     O36897   4.489   4.806   6.807  0.3254 -0.1989 -0.1908
  993MOL0     C36898   4.589   4.839   6.871 -0.1444  0.2672 -0.2975
  993MOL0     O36899   4.588   4.858   7.004 -0.2325 -0.0827 -0.3500
  993MOL0     C36900   4.471   4.852   7.080 -0.8472  1.0980  0.6544
  993MOL0     C36901   4.481   4.766   7.188  0.5172  0.8509 -0.1207
  993MOL0     C36902   4.381   4.747   7.278 -0.8760 -1.0256  0.2657
  993MOL0     C36903   4.261   4.820   7.271 -0.6341  0.0893 -0.4902
  993MOL0     O36904   4.156   4.819   7.359 -0.3425 -0.4079 -0.0318
  993MOL0     C36905   4.154   4.771   7.503 -0.2006  0.8567  0.4777
  993MOL0     C36906   4.008   4.783   7.558 -0.6977 -0.4429 -0.7156
  993MOL0     C36907   3.915   4.656   7.540 -1.0727 -0.5713 -0.3155
  993MOL0     C36908   3.764   4.705   7.537 -0.7107  0.3752 -1.3808
  993MOL0     C36909   3.665   4.599   7.488  0.0838 -0.3664  0.1430
  993MOL0     C36910   3.704   4.543   7.346 -0.6920 -0.0487 -1.0043
  993MOL0     C36911   3.584   4.461   7.296 -0.3758 -0.3922 -0.2779
  993MOL0     C36912   3.604   4.408   7.154 -0.8149  0.2155 -0.0150
  993MOL0     N36913   3.652   4.268   7.159  0.6107 -0.0036 -0.3341
  993MOL0     C36914   3.569   4.158   7.141 -0.1606 -0.0557 -0.0176
  993MOL0     C36915   3.661   4.054   7.166 -0.7100  0.1468  0.3314
  993MOL0     C36916   3.653   3.901   7.154 -0.2336 -0.2299 -0.1276
  993MOL0     C36917   3.740   3.854   7.031  0.1535 -0.1379 -0.4324
  993MOL0     C36918   3.697   3.715   6.980  0.9391  0.2964 -0.0116
  993MOL0     C36919   3.791   3.682   6.860  0.5322 -0.1358 -0.4229
  993MOL0     O36920   3.720   3.606   6.749  0.2255 -0.5777 -0.5572
  993MOL0     C36921   3.755   3.475   6.739 -0.2157  0.6768  0.4926
  993MOL0     C36922   3.770   3.393   6.850 -0.8873  0.9876 -0.3463
  993MOL0     C36923   3.800   3.257   6.837 -0.7696  0.1047 -0.7052
  993MOL0     C36924   3.816   3.184   6.978  0.3642  0.1588 -0.0821
  993MOL0     C36925   3.820   3.199   6.708  0.2976 -0.9223 -1.2294
  993MOL0     C36926   3.856   3.055   6.695  0.1898  0.2233  0.7647
  993MOL0     O36927   3.981   3.028   6.723 -0.4223  0.1436  0.1924
  993MOL0     C36928   4.033   2.901   6.724 -0.4919  0.2879  0.9832
  993MOL0     C36929   4.099   2.857   6.844  0.1653 -0.6032 -0.2157
  993MOL0     C36930   4.173   2.743   6.851 -0.5125  0.9083  0.2457
  993MOL0     C36931   4.163   2.654   6.745 -0.2133 -0.1539  0.3537
  993MOL0     O36932   4.207   2.525   6.777 -0.6017 -0.9138 -0.6287
  993MOL0     C36933   4.230   2.434   6.666  0.5398 -0.3006 -0.1541
  993MOL0     C36934   4.282   2.302   6.717 -0.6109  0.9242  0.3571
  993MOL0     C36935   4.174   2.229   6.804 -0.3850 -0.3061  0.0090
  993MOL0     C36936   4.226   2.089   6.832  0.5390 -0.0033  0.7121
  993MOL0     C36937   4.126   1.994   6.902  0.5084  0.1217  0.4061
  993MOL0     C36938   4.182   1.851   6.907  1.0182 -0.7567  0.0313
  993MOL0     C36939   4.114   1.750   6.995 -0.3380  0.0210 -0.5040
  993MOL0     C36940   4.224   1.645   7.027 -0.3428 -0.1264 -0.2417
  993MOL0    Cl36941   4.310   1.586   6.885 -0.5015  0.1830  0.3090
  993MOL0     C36942   4.116   2.701   6.617  1.1343 -0.8029  0.9044
  993MOL0     C36943   4.047   2.820   6.604 -0.9148 -1.2694 -0.0890
  993MOL0     O36944   3.776   2.977   6.645 -0.0354 -0.5836 -0.2331
  993MOL0     C36945   3.808   3.280   6.597  0.3930 -0.0451 -0.0235
  993MOL0     C36946   3.770   3.416   6.618  0.0115  0.0727  0.4009
  993MOL0     N36947   3.787   4.098   7.175  0.0666  0.0777 -0.5080
  993MOL0     N36948   3.779   4.227   7.178 -0.8323  0.3360  0.1770
  993MOL0     C36949   4.265   4.925   7.174  0.6793  0.4850 -0.0704
  993MOL0     C36950   4.360   4.930   7.071  0.3078  0.1771  0.3927
  993MOL0     C36951   4.701   4.870   6.779 -0.2082  0.3653 -0.2285
  993MOL0     C36952   4.800   4.953   6.835 -0.4966 -0.8466 -0.2298
  993MOL0     C36953   4.919   4.984   6.771 -0.0443 -0.1360  0.5256
  993MOL0     C36954   4.938   4.941   6.641  0.1448  0.6628 -0.0506
  993MOL0     O36955   5.043   4.965   6.561 -0.7110  0.0659 -0.2427
  993MOL0     C36956   5.151   5.052   6.602 -0.3109 -0.6647 -0.6230
  993MOL0     C36957   5.251   4.983   6.705  1.2077 -0.3979 -0.3530
  993MOL0     C36958   5.324   4.871   6.627 -1.0455 -0.0195  0.2759
  993MOL0     C36959   5.441   4.821   6.715  0.0136  0.0042  1.2014
  993MOL0     C36960   5.523   4.710   6.653  0.0608  0.6891  0.4556
  993MOL0     C36961   5.584   4.633   6.588  0.1988  0.4706  0.3691
  993MOL0     C36962   4.834   4.868   6.577  0.6137 -0.3170 -0.0875
  993MOL0     C36963   4.716   4.829   6.645  0.1912 -1.2945 -1.1381
  993MOL0     C36964   4.622   4.744   6.567  0.7567 -0.3617  0.1019
  993MOL0     H36965   4.565   4.699   7.198 -0.3832 -1.1179 -3.8689
  993MOL0     H36966   4.392   4.667   7.351  4.3151  0.5589  1.6901
  993MOL0     H36967   4.204   4.843   7.568 -1.0264  2.4103 -0.5416
  993MOL0     H36968   4.196   4.671   7.519 -0.8408  0.1282 -1.9290
  993MOL0     H36969   4.024   4.803   7.665  4.8358  1.4834 -1.5445
  993MOL0     H36970   3.968   4.876   7.517  0.3770  0.1773 -0.4209
  993MOL0     H36971   3.947   4.597   7.454 -1.1137 -0.5619 -0.3373
  993MOL0     H36972   3.932   4.603   7.635  0.4386  2.6867  1.3983
  993MOL0     H36973   3.740   4.741   7.637  2.5455  0.0863 -0.3849
  993MOL0     H36974   3.756   4.787   7.464 -2.0783 -1.1607 -3.0404
  993MOL0     H36975   3.565   4.642   7.498 -0.2193 -1.3907  1.8388
  993MOL0     H36976   3.682   4.514   7.555  4.2825  2.2250  2.8909
  993MOL0     H36977   3.728   4.618   7.269  0.3071  0.0404 -0.6252
  993MOL0     H36978   3.793   4.480   7.356  0.5142  1.2691 -2.7220
  993MOL0     H36979   3.496   4.526   7.302  1.7069  2.5372  2.0244
  993MOL0     H36980   3.566   4.378   7.365 -0.0426 -1.7612 -1.7758
  993MOL0     H36981   3.510   4.399   7.100 -0.3220 -1.8600 -0.6279
  993MOL0     H36982   3.673   4.470   7.095  4.7651 -2.5702  2.7456
  993MOL0     H36983   3.465   4.151   7.112  0.3981  2.0437 -2.9605
  993MOL0     H36984   3.550   3.880   7.125 -0.3029 -0.2544  0.1342
  993MOL0     H36985   3.689   3.855   7.247 -1.7002  0.6078  0.8814
  993MOL0     H36986   3.731   3.923   6.946 -1.3294  1.1414  0.7189
  993MOL0     H36987   3.843   3.850   7.067  1.4458  1.3591 -3.5210
  993MOL0     H36988   3.705   3.645   7.064 -0.0552  1.3650  1.0212
  993MOL0     H36989   3.592   3.712   6.948  1.5360 -3.3866 -2.2477
  993MOL0     H36990   3.832   3.775   6.821  2.8352 -1.2725 -0.8880
  993MOL0     H36991   3.880   3.630   6.896  0.6790  0.7351  0.5233
  993MOL0     H36992   3.765   3.437   6.949 -0.1240  2.5161 -0.9520
  993MOL0     H36993   3.848   3.079   6.977  1.2570  0.4079  0.8783
  993MOL0     H36994   3.722   3.188   7.035  0.1426 -1.8549 -0.2114
  993MOL0     H36995   3.880   3.239   7.047  0.9400 -2.1312  1.3138
  993MOL0     H36996   4.094   2.921   6.932  1.4078 -1.1263  0.2585
  993MOL0     H36997   4.233   2.707   6.934 -1.2176 -0.1605  0.3054
  993MOL0     H36998   4.130   2.418   6.625  0.1317  1.1747  0.2028
  993MOL0     H36999   4.291   2.477   6.585 -2.5935  1.1478 -1.9295
  993MOL0     H37000   4.299   2.236   6.631  0.7114 -0.4362  1.5932
  993MOL0     H37001   4.380   2.312   6.766 -0.3083 -2.6312  0.7478
  993MOL0     H37002   4.077   2.208   6.758 -1.4728 -1.7290  2.6829
  993MOL0     H37003   4.141   2.272   6.899 -0.7404 -0.4144 -0.0632
  993MOL0     H37004   4.308   2.101   6.903  1.9921 -1.1928 -0.6862
  993MOL0     H37005   4.266   2.052   6.737  1.5796 -0.3851  1.2818
  993MOL0     H37006   4.110   2.037   7.001  1.0090  0.6647  0.2571
  993MOL0     H37007   4.037   1.989   6.839  2.8865 -1.5482 -3.1472
  993MOL0     H37008   4.286   1.858   6.938  0.9435 -2.0755  0.6266
  993MOL0     H37009   4.177   1.822   6.801  2.8682 -0.7441 -0.0953
  993MOL0     H37010   4.029   1.699   6.950  0.4474 -1.6620 -0.1926
  993MOL0     H37011   4.084   1.797   7.089 -0.9048 -2.8572  0.8662
  993MOL0     H37012   4.176   1.558   7.073 -0.9754  2.0315  3.6579
  993MOL0     H37013   4.302   1.693   7.087 -1.3728 -1.8069  2.6688
  993MOL0     H37014   4.127   2.620   6.545 -2.4059 -3.5730  3.0966
  993MOL0     H37015   4.004   2.856   6.511  4.0066 -2.4368 -3.1704
  993MOL0     H37016   3.809   3.232   6.499  1.7854 -1.7875  0.7947
  993MOL0     H37017   3.752   3.481   6.533  0.6019  1.2496  1.1601
  993MOL0     H37018   4.181   4.993   7.181 -1.0970 -1.5847 -0.2632
  993MOL0     H37019   4.363   5.016   7.006 -0.3324  0.2220  0.4180
  993MOL0     H37020   4.780   4.992   6.935 -3.0243  0.7166 -1.2459
  993MOL0     H37021   4.995   5.040   6.824 -1.5491  0.7421  1.8100
  993MOL0     H37022   5.203   5.088   6.513  0.3237  0.5024  0.1884
  993MOL0     H37023   5.119   5.152   6.632  1.4777  0.2996 -1.7764
  993MOL0     H37024   5.179   4.941   6.776 -2.6889  3.4066 -1.5744
  993MOL0     H37025   5.314   5.060   6.750 -0.1605 -0.5396  1.9332
  993MOL0     H37026   5.261   4.782   6.618 -0.4371 -0.7441  2.6129
  993MOL0     H37027   5.352   4.908   6.527 -0.5599  0.4612  0.5848
  993MOL0     H37028   5.404   4.782   6.810 -2.1704 -0.5105  0.1863
  993MOL0     H37029   5.502   4.911   6.729  0.4280 -0.3295  1.5635
  993MOL0     H37030   5.641   4.565   6.528  0.1817  0.9898 -0.2458
  993MOL0     H37031   4.851   4.835   6.476 -0.2486 -2.5440  0.4244
  993MOL0     H37032   4.566   4.675   6.630  0.1655  0.2830  0.2943
  993MOL0     H37033   4.537   4.805   6.535  0.2796 -0.4395  1.1615
  993MOL0     H37034   4.663   4.703   6.475 -0.2405 -1.3073  0.0621
  994MOL0     O37035   6.990   0.836   1.801  0.2065 -0.6655 -0.1397
  994MOL0     C37036   7.112   0.831   1.831  0.1105  0.3798 -0.4158
  994MOL0     O37037   7.204   0.760   1.758 -0.1368  0.6363 -0.1875
  994MOL0     C37038   7.165   0.678   1.658  0.7913  0.2262  0.3267
  994MOL0     C37039   7.053   0.588   1.679  0.1615  0.0854 -0.5110
  994MOL0     C37040   7.017   0.489   1.582 -0.1226 -0.1130  0.8063
  994MOL0     C37041   7.093   0.472   1.463 -0.0636  0.6351 -0.3223
  994MOL0     O37042   7.066   0.391   1.347  0.0869  0.2912  0.1958
  994MOL0     C37043   6.977   0.272   1.376 -0.4667  0.3736 -0.1179
  994MOL0     C37044   6.943   0.208   1.246  0.1278 -0.5732 -0.4865
  994MOL0     C37045   6.935   0.059   1.242 -0.6449  0.6497  0.2173
  994MOL0     C37046   6.863   0.012   1.120  0.5239  0.9249  0.0380
  994MOL0     C37047   6.854  -0.142   1.124  0.0114  0.5668  0.1159
  994MOL0     C37048   6.779  -0.211   1.005  0.5726  0.7753 -0.9766
  994MOL0     C37049   6.832  -0.358   0.986 -0.0198  0.1112  0.2454
  994MOL0     C37050   6.738  -0.426   0.887  0.6498 -0.0665 -0.3075
  994MOL0     N37051   6.815  -0.528   0.819  0.1662  0.5624 -0.6064
  994MOL0     C37052   6.877  -0.650   0.863  0.0345 -0.4230  0.1120
  994MOL0     C37053   6.907  -0.703   0.750 -1.1067  0.4544 -0.8874
  994MOL0     C37054   6.992  -0.827   0.754  0.6380  0.6284  0.5285
  994MOL0     C37055   6.921  -0.956   0.796 -0.3749  0.5849  0.8082
  994MOL0     C37056   6.837  -1.013   0.679 -0.4661 -0.1420  0.0821
  994MOL0     C37057   6.721  -1.092   0.737  0.6698  0.3200 -0.2833
  994MOL0     O37058   6.768  -1.224   0.793  0.5324  0.0951  0.5681
  994MOL0     C37059   6.676  -1.282   0.879  0.6381  0.5279  0.4135
  994MOL0     C37060   6.534  -1.255   0.875  0.3686 -0.2628  0.6778
  994MOL0     C37061   6.444  -1.322   0.956 -0.8209  0.6577  0.6661
  994MOL0     C37062   6.303  -1.293   0.936 -0.4915 -0.3010 -0.1344
  994MOL0     C37063   6.485  -1.418   1.051 -0.6528 -0.2134  0.1274
  994MOL0     C37064   6.402  -1.485   1.159 -0.0535 -0.5812 -0.2299
  994MOL0     O37065   6.466  -1.575   1.232  0.2670 -0.1252  0.4770
  994MOL0     C37066   6.406  -1.633   1.341  0.1234 -0.0060  0.6066
  994MOL0     C37067   6.303  -1.728   1.327  0.3691  0.3020 -0.3921
  994MOL0     C37068   6.241  -1.780   1.449 -0.3374  0.1963  0.9334
  994MOL0     C37069   6.278  -1.736   1.576 -0.8621  0.7184 -0.9677
  994MOL0     O37070   6.224  -1.775   1.692  0.6123  0.7602  0.6996
  994MOL0     C37071   6.104  -1.855   1.693  0.4439  0.2701  0.2723
  994MOL0     C37072   6.047  -1.839   1.830 -0.0840  0.2699 -0.0115
  994MOL0     C37073   5.928  -1.928   1.853 -0.0010 -0.2459 -0.1310
  994MOL0     C37074   5.852  -1.879   1.988  0.2351  1.1148  0.4224
  994MOL0     C37075   5.701  -1.924   1.988 -0.4063  0.3079  0.1288
  994MOL0     C37076   5.678  -2.075   2.023  0.3888  0.0783  0.3904
  994MOL0     C37077   5.542  -2.124   1.977  0.1658  0.0592 -0.2866
  994MOL0     C37078   5.421  -2.089   2.058  0.6972  0.1374  0.5798
  994MOL0    Cl37079   5.389  -1.915   2.040  0.1822 -0.1794 -0.2121
  994MOL0     C37080   6.374  -1.645   1.579 -0.7865  0.3219 -0.1566
  994MOL0     C37081   6.448  -1.597   1.472  0.2785 -0.1568 -0.0525
  994MOL0     O37082   6.292  -1.439   1.179  0.1538 -0.3466 -0.3756
  994MOL0     C37083   6.625  -1.445   1.060 -0.2250 -0.3459 -0.7650
  994MOL0     C37084   6.710  -1.395   0.960  0.4039 -0.8048  0.3932
  994MOL0     N37085   6.859  -0.636   0.636 -0.6220  1.3485  0.2448
  994MOL0     N37086   6.814  -0.526   0.682 -0.0869  1.0957  0.1461
  994MOL0     C37087   7.202   0.561   1.454 -0.4003  0.7845  0.0254
  994MOL0     C37088   7.239   0.660   1.542 -0.8710  0.0598 -0.0852
  994MOL0     C37089   7.157   0.922   1.936 -0.9835 -0.6311  0.3630
  994MOL0     C37090   7.085   1.038   1.971 -0.1727 -0.1166  0.5098
  994MOL0     C37091   7.119   1.116   2.077  0.0270 -0.5481  0.0891
  994MOL0     C37092   7.228   1.091   2.156 -0.0257  0.0232 -0.4747
  994MOL0     O37093   7.249   1.143   2.282  0.3314  0.7447 -0.5625
  994MOL0     C37094   7.154   1.109   2.387  0.3023 -0.5609  0.3036
  994MOL0     C37095   7.169   0.956   2.424 -0.7081 -0.5234  1.1095
  994MOL0     C37096   7.083   0.906   2.542 -0.3144  0.9899 -0.1914
  994MOL0     C37097   7.069   0.752   2.548 -0.3874  0.4393 -0.6310
  994MOL0     C37098   7.011   0.676   2.432  0.5829 -0.0899 -0.8381
  994MOL0     C37099   6.973   0.638   2.321 -0.3741  0.0769  0.3931
  994MOL0     C37100   7.311   0.984   2.117 -1.1760  0.1894 -0.3524
  994MOL0     C37101   7.273   0.893   2.014  0.9985 -0.7178  0.3859
  994MOL0     C37102   7.366   0.773   1.995 -0.6619 -0.5357 -0.8051
  994MOL0     H37103   6.982   0.612   1.758 -0.4241  0.4339 -1.1237
  994MOL0     H37104   6.924   0.437   1.602 -0.1991  0.2840  1.5213
  994MOL0     H37105   6.885   0.307   1.423 -0.2442  2.4240 -1.0640
  994MOL0     H37106   7.027   0.196   1.437  2.0072 -0.2693 -2.7343
  994MOL0     H37107   6.845   0.251   1.223  1.0706  0.4087 -2.9957
  994MOL0     H37108   7.011   0.250   1.171 -2.6063  1.1402 -2.1969
  994MOL0     H37109   7.035   0.018   1.250 -1.5668 -1.7957 -0.0007
  994MOL0     H37110   6.877   0.015   1.324  1.2905 -0.6156  0.9671
  994MOL0     H37111   6.764   0.058   1.131 -1.3021 -2.2774 -1.6320
  994MOL0     H37112   6.901   0.045   1.023  0.6548  0.3694 -0.1040
  994MOL0     H37113   6.814  -0.187   1.216 -1.6930 -0.1440 -0.9319
  994MOL0     H37114   6.954  -0.184   1.109  0.7594  0.9784  3.2722
  994MOL0     H37115   6.672  -0.212   1.028  0.9511 -2.4452  1.3631
  994MOL0     H37116   6.786  -0.149   0.915 -3.1520  3.3809  0.2861
  994MOL0     H37117   6.810  -0.414   1.078 -1.6465 -2.6396 -1.6716
  994MOL0     H37118   6.939  -0.373   0.965  0.8413  1.5741  3.0393
  994MOL0     H37119   6.650  -0.466   0.938  0.5134 -0.2776 -0.7059
  994MOL0     H37120   6.697  -0.356   0.813 -2.6355 -1.6354 -0.1630
  994MOL0     H37121   6.889  -0.692   0.962  1.3230  1.1741  0.6795
  994MOL0     H37122   7.082  -0.810   0.813  2.1750  2.6649 -2.2033
  994MOL0     H37123   7.020  -0.844   0.649 -1.7161  0.6251 -0.1640
  994MOL0     H37124   6.995  -1.032   0.822 -0.5271  1.1669  3.1133
  994MOL0     H37125   6.847  -0.952   0.877 -1.0968  0.2384  0.1868
  994MOL0     H37126   6.779  -0.938   0.624 -3.1550 -0.9100  1.6596
  994MOL0     H37127   6.897  -1.069   0.607  1.3381  2.2419 -0.4039
  994MOL0     H37128   6.678  -1.037   0.822  1.2389 -0.6806  0.6707
  994MOL0     H37129   6.641  -1.116   0.666  0.2748 -0.2558  0.3378
  994MOL0     H37130   6.494  -1.203   0.788  0.0041 -1.5747  0.0443
  994MOL0     H37131   6.257  -1.228   1.011  0.7509 -0.1131  0.4926
  994MOL0     H37132   6.261  -1.394   0.930  1.9939 -1.4132  0.1125
  994MOL0     H37133   6.287  -1.244   0.839 -4.2840 -0.8208  0.0591
  994MOL0     H37134   6.267  -1.770   1.234 -1.0509 -1.0044  0.6831
  994MOL0     H37135   6.171  -1.861   1.440  0.2370 -0.4417  2.0087
  994MOL0     H37136   6.032  -1.836   1.613 -1.6520 -2.2517  1.4161
  994MOL0     H37137   6.125  -1.960   1.673  2.1246  0.8967 -1.4831
  994MOL0     H37138   6.121  -1.871   1.905 -2.4863 -2.8183  1.2840
  994MOL0     H37139   6.025  -1.734   1.851  0.6315  0.6119 -0.9019
  994MOL0     H37140   5.965  -2.027   1.881  0.0688 -0.6057 -1.4273
  994MOL0     H37141   5.863  -1.931   1.766  1.3449 -0.8756 -1.1557
  994MOL0     H37142   5.847  -1.770   1.980 -2.2178  0.9328 -2.7993
  994MOL0     H37143   5.902  -1.915   2.078 -3.4639 -2.5687  1.3193
  994MOL0     H37144   5.653  -1.856   2.059  2.3859  0.1024  2.3781
  994MOL0     H37145   5.657  -1.915   1.888 -0.9074 -2.9548 -0.0603
  994MOL0     H37146   5.686  -2.099   2.129 -0.3356 -1.1543  0.1845
  994MOL0     H37147   5.751  -2.135   1.967  0.7203  0.8728 -0.0426
  994MOL0     H37148   5.528  -2.233   1.975 -3.9144  0.3626  1.5501
  994MOL0     H37149   5.521  -2.089   1.876  1.7697 -0.2253 -0.7430
  994MOL0     H37150   5.436  -2.120   2.162 -0.2036 -0.3182  0.5861
  994MOL0     H37151   5.337  -2.150   2.022  1.4643 -0.8912  0.4770
  994MOL0     H37152   6.410  -1.618   1.678 -2.5383  2.9005 -0.1145
  994MOL0     H37153   6.537  -1.535   1.478  1.0649 -1.3587  1.9783
  994MOL0     H37154   6.667  -1.514   1.133 -0.4035 -0.5629 -0.8656
  994MOL0     H37155   6.816  -1.418   0.951  0.9376  1.7004 -0.8278
  994MOL0     H37156   7.247   0.564   1.355 -0.6865  0.7145 -0.1114
  994MOL0     H37157   7.333   0.710   1.520 -0.0171 -0.7516  1.5331
  994MOL0     H37158   7.007   1.072   1.904 -0.2169 -3.0970 -1.0848
  994MOL0     H37159   7.050   1.198   2.097 -1.4930 -1.6617 -0.4186
  994MOL0     H37160   7.193   1.163   2.474 -3.1528 -0.1508  1.7463
  994MOL0     H37161   7.049   1.126   2.361  0.6614  0.1100 -0.7920
  994MOL0     H37162   7.272   0.929   2.450 -0.0202 -1.7119 -2.3871
  994MOL0     H37163   7.146   0.893   2.337  5.2506 -2.2769  0.3496
  994MOL0     H37164   7.131   0.945   2.632 -0.6983  1.9858 -0.4023
  994MOL0     H37165   6.977   0.927   2.528 -1.4043 -3.7652 -0.5303
  994MOL0     H37166   7.005   0.724   2.632  3.8295 -0.7683  2.5782
  994MOL0     H37167   7.166   0.703   2.565 -0.8759 -0.7353 -1.1283
  994MOL0     H37168   6.935   0.608   2.225 -0.4322  2.3465 -0.3448
  994MOL0     H37169   7.397   0.962   2.179  0.8420 -0.7771 -3.2974
  994MOL0     H37170   7.316   0.680   1.965  0.1487 -1.0910 -0.4626
  994MOL0     H37171   7.431   0.792   1.909 -2.0834 -4.3358 -2.9661
  994MOL0     H37172   7.429   0.778   2.085  1.0203  4.1997 -1.9291
  995MOL0     O37173   6.819   8.878   5.496  0.2239  0.1196  0.0151
  995MOL0     C37174   6.892   8.975   5.453  0.2573  0.7560 -1.0199
  995MOL0     O37175   6.858   9.058   5.351  0.3011  0.1409  0.1573
  995MOL0     C37176   6.764   9.013   5.266 -0.1867  0.1742 -0.3411
  995MOL0     C37177   6.648   9.102   5.251 -0.3555 -0.9118 -0.7054
  995MOL0     C37178   6.548   9.064   5.156  0.1211  0.3887 -0.4240
  995MOL0     C37179   6.556   8.945   5.083 -0.3435  0.1824 -0.3701
  995MOL0     O37180   6.444   8.902   5.028 -0.4238  0.3123 -0.4686
  995MOL0     C37181   6.433   8.762   5.006  0.9389  0.2096 -0.4030
  995MOL0     C37182   6.309   8.719   4.934  0.2115 -0.8330 -1.0044
  995MOL0     C37183   6.286   8.797   4.806  0.1032 -0.2197  0.0223
  995MOL0     C37184   6.163   8.734   4.731  0.5585 -0.2716  0.5301
  995MOL0     C37185   6.133   8.815   4.608  0.6158 -0.9182  0.1090
  995MOL0     C37186   5.976   8.841   4.577 -0.0124 -0.6476 -0.3470
  995MOL0     C37187   5.896   8.936   4.673 -1.2210  0.2759  0.6682
  995MOL0     C37188   5.932   9.080   4.628 -1.2109  0.3443  0.6517
  995MOL0     N37189   5.857   9.184   4.703 -0.5653  0.5856  1.0374
  995MOL0     C37190   5.732   9.216   4.663 -0.8296 -0.4991 -0.3707
  995MOL0     C37191   5.709   9.319   4.746  0.3970 -0.0782 -0.7018
  995MOL0     C37192   5.589   9.414   4.718 -0.0925  0.1496 -0.0337
  995MOL0     C37193   5.567   9.534   4.807  0.7592 -0.4633 -0.4472
  995MOL0     C37194   5.520   9.659   4.721  0.2963  0.9968 -0.2307
  995MOL0     C37195   5.512   9.782   4.799  0.5988 -0.0721  0.1807
  995MOL0     O37196   5.415   9.783   4.900  0.1538 -0.4327 -0.4031
  995MOL0     C37197   5.406   9.904   4.964 -0.3768 -1.1384  0.4089
  995MOL0     C37198   5.505   9.997   4.999  0.1755  0.1011  0.1618
  995MOL0     C37199   5.480  10.116   5.073 -0.0148 -0.0128  0.5862
  995MOL0     C37200   5.592  10.202   5.122 -0.6269  1.0324  0.1803
  995MOL0     C37201   5.345  10.145   5.102  0.3233  0.1554  0.2930
  995MOL0     C37202   5.305  10.277   5.159 -0.1011 -0.5714  0.6786
  995MOL0     O37203   5.224  10.273   5.268  0.4731 -0.3393  0.0125
  995MOL0     C37204   5.198  10.394   5.328 -0.1165 -0.5048 -0.0696
  995MOL0     C37205   5.295  10.469   5.386 -0.4130  0.1570 -0.5040
  995MOL0     C37206   5.273  10.589   5.440  0.0545  0.2972  0.0903
  995MOL0     C37207   5.148  10.643   5.451 -0.1568 -0.3855 -0.2947
  995MOL0     O37208   5.129  10.769   5.505 -0.4404  0.8728 -0.1789
  995MOL0     C37209   5.041  10.760   5.622  0.2706 -0.1279 -0.6241
  995MOL0     C37210   5.009  10.905   5.642 -1.1222  0.9984 -0.1479
  995MOL0     C37211   4.947  10.940   5.773 -0.2610 -1.1647 -0.6544
  995MOL0     C37212   4.938  11.094   5.781 -0.9789  0.0485 -1.1245
  995MOL0     C37213   4.907  11.158   5.922  0.1928 -0.5352 -0.0407
  995MOL0     C37214   4.916  11.305   5.923  0.9498  0.6761  0.3958
  995MOL0     C37215   4.892  11.349   6.060  0.6210 -1.5747  0.6396
  995MOL0     C37216   4.883  11.503   6.064  0.6523  0.2192 -1.2278
  995MOL0    Cl37217   4.705  11.551   6.029 -0.1492 -0.0542  0.2128
  995MOL0     C37218   5.044  10.567   5.399  1.3982 -0.1014 -0.0800
  995MOL0     C37219   5.061  10.445   5.343 -0.3531  0.3914 -0.1316
  995MOL0     O37220   5.347  10.380   5.108  0.0686 -0.2039 -0.3635
  995MOL0     C37221   5.243  10.054   5.061 -0.8176  0.9549  0.1309
  995MOL0     C37222   5.275   9.938   4.999  0.4267 -0.6961  0.5876
  995MOL0     N37223   5.815   9.352   4.828  0.0252  0.7362  0.4611
  995MOL0     N37224   5.904   9.263   4.793 -0.3196 -0.5517 -0.3578
  995MOL0     C37225   6.683   8.887   5.086 -0.5603  0.7107  0.9936
  995MOL0     C37226   6.786   8.919   5.167  0.7110  0.4972 -0.9097
  995MOL0     C37227   7.007   8.999   5.543  0.5751 -0.7293 -0.1335
  995MOL0     C37228   6.997   8.965   5.681 -1.0208 -0.3796 -0.2997
  995MOL0     C37229   7.108   8.983   5.772  0.9727 -0.2968 -0.2556
  995MOL0     C37230   7.229   9.024   5.721 -0.0155 -0.1414 -0.3234
  995MOL0     O37231   7.330   9.034   5.815  0.4352 -0.9444 -0.1367
  995MOL0     C37232   7.461   9.080   5.780  0.0849  0.9072 -0.6838
  995MOL0     C37233   7.534   8.991   5.692 -1.3214  0.2631  1.1051
  995MOL0     C37234   7.695   9.003   5.704  0.2381 -0.1251  0.5163
  995MOL0     C37235   7.741   8.901   5.806 -0.6289  0.3423 -0.3904
  995MOL0     C37236   7.877   8.923   5.848 -0.0220 -0.7588 -0.7596
  995MOL0     C37237   7.997   8.950   5.857 -0.2389 -0.3091 -0.0869
  995MOL0     C37238   7.234   9.062   5.581 -0.3934  0.0752  0.2857
  995MOL0     C37239   7.125   9.059   5.502  0.2981  0.8668  1.3378
  995MOL0     C37240   7.132   9.110   5.360 -0.9874  0.0914 -0.5554
  995MOL0     H37241   6.658   9.194   5.308  4.9672 -2.7065  1.9673
  995MOL0     H37242   6.465   9.129   5.129 -0.3856  0.9163  2.1754
  995MOL0     H37243   6.423   8.717   5.105 -2.7016  2.3493  0.4138
  995MOL0     H37244   6.522   8.722   4.958  0.7230  3.3227 -3.8527
  995MOL0     H37245   6.325   8.613   4.911  2.6033 -1.1718  1.6032
  995MOL0     H37246   6.231   8.728   5.010  1.0799 -0.5035 -0.1210
  995MOL0     H37247   6.263   8.902   4.829  0.1266 -0.4096  0.9813
  995MOL0     H37248   6.372   8.782   4.741  0.2932  2.2925 -0.4047
  995MOL0     H37249   6.181   8.631   4.696 -0.1549 -0.1265 -0.2752
  995MOL0     H37250   6.068   8.735   4.786 -0.4166 -2.6735 -0.9401
  995MOL0     H37251   6.169   8.761   4.520 -0.6632  0.4460 -1.3123
  995MOL0     H37252   6.194   8.906   4.606  2.0630 -1.7752  2.1181
  995MOL0     H37253   5.976   8.880   4.475  5.0458 -0.6556 -0.6033
  995MOL0     H37254   5.928   8.743   4.569  0.1681 -0.8272  0.6102
  995MOL0     H37255   5.919   8.921   4.779 -0.1254  1.3287  0.5909
  995MOL0     H37256   5.789   8.921   4.656 -1.6811  1.0847  2.5745
  995MOL0     H37257   6.040   9.100   4.627 -1.0400 -0.1824 -2.3886
  995MOL0     H37258   5.903   9.083   4.522 -1.5376 -3.1052  0.5300
  995MOL0     H37259   5.679   9.170   4.579  1.5953 -1.3591 -1.5358
  995MOL0     H37260   5.501   9.353   4.738  0.4822 -0.6899  0.0219
  995MOL0     H37261   5.597   9.441   4.612  1.5973 -1.5138 -0.3848
  995MOL0     H37262   5.489   9.506   4.878  0.4670 -1.8258 -1.2561
  995MOL0     H37263   5.660   9.558   4.859  1.3474 -3.1361 -0.1105
  995MOL0     H37264   5.594   9.675   4.642 -0.9899 -0.5775 -1.8584
  995MOL0     H37265   5.424   9.657   4.668  1.9295 -2.5258 -3.5963
  995MOL0     H37266   5.616   9.800   4.830  0.6954 -0.3415  0.0142
  995MOL0     H37267   5.493   9.870   4.737  0.4201  0.1045  0.4824
  995MOL0     H37268   5.610   9.978   4.980 -0.4895 -1.6473 -2.2127
  995MOL0     H37269   5.560  10.253   5.213 -1.7061 -0.8621  0.9075
  995MOL0     H37270   5.615  10.273   5.042 -1.7265 -0.2232 -1.3178
  995MOL0     H37271   5.678  10.142   5.154 -0.4510  1.7220  1.0253
  995MOL0     H37272   5.398  10.434   5.380  1.2054  3.0476  4.3970
  995MOL0     H37273   5.353  10.651   5.480  1.1919 -1.5447  0.8546
  995MOL0     H37274   4.949  10.704   5.601 -0.0110  0.1680 -0.2045
  995MOL0     H37275   5.085  10.726   5.716  2.0356  0.5325 -1.1787
  995MOL0     H37276   5.109  10.950   5.651 -0.4926 -0.7038  2.2782
  995MOL0     H37277   4.953  10.947   5.557 -0.3672  3.0740  0.3179
  995MOL0     H37278   4.998  10.903   5.862 -2.7453 -1.0873  0.8895
  995MOL0     H37279   4.848  10.894   5.782 -0.3887 -0.8166 -0.2246
  995MOL0     H37280   4.873  11.126   5.699 -0.6418 -0.0620 -1.4346
  995MOL0     H37281   5.042  11.125   5.765 -0.3403 -1.6755 -0.4633
  995MOL0     H37282   4.805  11.130   5.948 -0.3971  0.8593 -0.7393
  995MOL0     H37283   4.963  11.116   6.006 -0.0222 -0.0226  0.3607
  995MOL0     H37284   4.844  11.351   5.854 -1.5173 -1.6808  1.2060
  995MOL0     H37285   5.019  11.337   5.905  1.3872  0.1225  1.8202
  995MOL0     H37286   4.975  11.317   6.124  1.5771  2.1859  1.4749
  995MOL0     H37287   4.804  11.304   6.106  1.1157 -2.9074  0.3618
  995MOL0     H37288   4.955  11.551   5.999  1.5364  3.1656  1.6504
  995MOL0     H37289   4.900  11.529   6.169  0.8245 -1.9262 -0.6793
  995MOL0     H37290   4.942  10.598   5.417  1.8077 -0.6955  4.5284
  995MOL0     H37291   4.982  10.379   5.308 -0.4323 -1.0263  2.4556
  995MOL0     H37292   5.139  10.078   5.078 -0.6935  0.0056  2.7016
  995MOL0     H37293   5.197   9.865   4.979  2.0345 -2.6324  1.0849
  995MOL0     H37294   6.689   8.798   5.025 -1.3099  1.6407 -0.5256
  995MOL0     H37295   6.876   8.858   5.169 -1.9415 -3.8356  1.2093
  995MOL0     H37296   6.916   8.916   5.733 -0.1057 -0.2747  1.2728
  995MOL0     H37297   7.102   8.978   5.880 -0.1398  2.5884 -0.0869
  995MOL0     H37298   7.481   9.181   5.742  3.3948  0.8531  0.5879
  995MOL0     H37299   7.516   9.086   5.874 -1.9201 -1.7913  0.7921
  995MOL0     H37300   7.503   9.004   5.587 -0.6259 -2.7251  0.4333
  995MOL0     H37301   7.508   8.885   5.700 -4.1827  0.7022 -0.7456
  995MOL0     H37302   7.752   8.985   5.613  2.3448 -2.9112  2.2085
  995MOL0     H37303   7.712   9.107   5.732 -0.8436  0.6401 -1.5163
  995MOL0     H37304   7.741   8.799   5.765  0.8839  0.0737  0.2105
  995MOL0     H37305   7.683   8.904   5.900  1.0671 -3.0877  0.9691
  995MOL0     H37306   8.100   8.972   5.876 -0.1896  0.2604 -0.9641
  995MOL0     H37307   7.331   9.091   5.541  1.3233  0.5704  4.2890
  995MOL0     H37308   7.132   9.018   5.301  2.1087 -2.1388  2.5155
  995MOL0     H37309   7.059   9.185   5.327 -0.2889 -0.7040 -4.3705
  995MOL0     H37310   7.225   9.163   5.335 -0.9275  0.1457 -0.2183
  996MOL0     O37311   3.706   9.716   8.079  0.3109 -0.4688 -1.1056
  996MOL0     C37312   3.683   9.593   8.093 -0.5680 -0.1073 -0.5434
  996MOL0     O37313   3.658   9.513   7.985 -0.7715  0.0584 -0.6230
  996MOL0     C37314   3.658   9.565   7.860 -0.6666 -0.4615 -0.3505
  996MOL0     C37315   3.765   9.556   7.782 -0.5727  0.1863  0.0180
  996MOL0     C37316   3.763   9.620   7.654  0.2484  0.3361 -0.0709
  996MOL0     C37317   3.653   9.680   7.597  0.2087 -0.9766  0.0396
  996MOL0     O37318   3.635   9.706   7.466 -0.3979  0.4683  0.1348
  996MOL0     C37319   3.694   9.614   7.368  0.0656 -0.0406 -0.1151
  996MOL0     C37320   3.599   9.598   7.252 -0.7282 -0.0184 -0.0600
  996MOL0     C37321   3.641   9.489   7.162  1.1010  1.5762  0.6279
  996MOL0     C37322   3.549   9.467   7.047  0.1240  0.0784 -0.1360
  996MOL0     C37323   3.433   9.368   7.067 -0.1849 -0.6951 -0.0831
  996MOL0     C37324   3.314   9.394   6.957  0.7268 -0.4156  0.2532
  996MOL0     C37325   3.222   9.264   6.946  0.9173 -0.3101 -0.2823
  996MOL0     C37326   3.127   9.269   7.062  0.6073 -0.0766 -0.1917
  996MOL0     N37327   2.993   9.310   7.006  0.2092  0.7676 -0.5566
  996MOL0     C37328   2.912   9.386   7.088 -0.4201  0.5973 -0.2281
  996MOL0     C37329   2.797   9.407   7.019 -0.2965 -0.9069  0.4639
  996MOL0     C37330   2.677   9.504   7.056 -0.5353  0.8932 -0.4000
  996MOL0     C37331   2.569   9.517   6.942  0.6813 -0.5818 -0.1316
  996MOL0     C37332   2.454   9.601   6.977 -0.4665 -0.3364  0.8261
  996MOL0     C37333   2.363   9.618   6.850 -0.5958  1.6425 -0.8672
  996MOL0     O37334   2.273   9.718   6.894  0.8466  0.2626 -0.1761
  996MOL0     C37335   2.159   9.725   6.820  0.3557 -0.4301  0.7881
  996MOL0     C37336   2.045   9.655   6.866 -0.7435 -0.7959  0.0528
  996MOL0     C37337   1.926   9.656   6.793  0.3394 -0.2429 -0.7657
  996MOL0     C37338   1.814   9.573   6.859 -0.1296 -0.5349  0.5863
  996MOL0     C37339   1.908   9.746   6.677 -0.3397  0.2127 -0.2607
  996MOL0     C37340   1.784   9.760   6.604 -0.6894 -0.1711 -0.7564
  996MOL0     O37341   1.753   9.894   6.575  1.0576 -1.1941  0.3734
  996MOL0     C37342   1.637   9.922   6.506  0.1364  0.5044 -0.2301
  996MOL0     C37343   1.642  10.028   6.419 -0.0001  0.0074 -0.2275
  996MOL0     C37344   1.527  10.083   6.354 -0.5160 -0.3406  0.2320
  996MOL0     C37345   1.408  10.019   6.377 -0.2395  0.6034  0.2410
  996MOL0     O37346   1.304  10.052   6.302  0.6415 -1.0492 -0.3651
  996MOL0     C37347   1.211   9.959   6.234 -0.1182  0.7789 -0.6922
  996MOL0     C37348   1.179  10.004   6.099  0.5940 -0.5684 -0.1195
  996MOL0     C37349   1.154  10.158   6.093 -0.5203  0.6169 -0.1411
  996MOL0     C37350   1.084  10.199   5.965  0.0870 -0.6289  0.2590
  996MOL0     C37351   1.036  10.342   5.941 -0.0514 -0.3636  0.0660
  996MOL0     C37352   1.007  10.356   5.800  0.0694  0.5903 -0.6049
  996MOL0     C37353   0.956  10.503   5.777 -0.7346 -0.5784 -0.4427
  996MOL0     C37354   0.870  10.529   5.655  0.2002 -0.5550 -0.2342
  996MOL0    Cl37355   0.725  10.429   5.684  0.1002 -0.0055 -0.3805
  996MOL0     C37356   1.397   9.892   6.448  0.0671 -0.4387  0.2925
  996MOL0     C37357   1.509   9.848   6.515 -0.2156  0.3476 -0.0383
  996MOL0     O37358   1.725   9.659   6.587  0.1971 -0.5925  1.2909
  996MOL0     C37359   2.019   9.829   6.644  0.1774 -0.5705 -0.4499
  996MOL0     C37360   2.143   9.815   6.703 -0.4671 -0.1692  0.1225
  996MOL0     N37361   2.807   9.333   6.892 -0.3944  0.1270 -0.5492
  996MOL0     N37362   2.925   9.273   6.897  0.8313 -0.7460  0.1824
  996MOL0     C37363   3.544   9.692   7.684 -0.0161  0.8192 -0.7667
  996MOL0     C37364   3.541   9.633   7.818  0.2637 -0.2206 -0.5647
  996MOL0     C37365   3.705   9.535   8.223  0.3653  0.3266  0.2558
  996MOL0     C37366   3.675   9.614   8.336 -0.3341  0.8234  0.4267
  996MOL0     C37367   3.697   9.566   8.467 -0.6831  0.4866 -0.4633
  996MOL0     C37368   3.742   9.433   8.475  0.1461 -0.4560  1.0169
  996MOL0     O37369   3.750   9.362   8.591 -0.1554 -0.1968  0.1022
  996MOL0     C37370   3.744   9.425   8.723  0.1162 -0.6307  0.2875
  996MOL0     C37371   3.774   9.321   8.839 -0.7022  0.3204  0.0384
  996MOL0     C37372   3.889   9.224   8.802 -0.0845  0.0084 -0.8688
  996MOL0     C37373   3.933   9.122   8.904  0.1487 -0.0886 -0.2471
  996MOL0     C37374   4.038   9.176   8.991  0.8751 -1.0117 -0.2149
  996MOL0     C37375   4.094   9.235   9.081 -0.0937 -0.5545 -0.0183
  996MOL0     C37376   3.755   9.355   8.361 -0.2212  0.8503  0.1552
  996MOL0     C37377   3.753   9.406   8.229 -1.1898  0.7197  0.2513
  996MOL0     C37378   3.798   9.310   8.119  0.2896  0.3551 -1.6106
  996MOL0     H37379   3.852   9.498   7.813 -0.1722  1.7535  2.0785
  996MOL0     H37380   3.857   9.616   7.599  0.9132 -0.7836  1.0977
  996MOL0     H37381   3.713   9.523   7.425 -2.0053 -0.2769  0.2765
  996MOL0     H37382   3.794   9.649   7.338  0.8403 -0.4363  1.8915
  996MOL0     H37383   3.503   9.573   7.297 -2.1598  2.7285 -1.3705
  996MOL0     H37384   3.584   9.694   7.202  0.4737 -0.5502 -1.5057
  996MOL0     H37385   3.737   9.520   7.118  1.7882 -0.7090  0.3854
  996MOL0     H37386   3.657   9.390   7.205  4.4428  1.0648 -1.4185
  996MOL0     H37387   3.508   9.565   7.021 -0.3048 -0.5419 -1.9396
  996MOL0     H37388   3.604   9.437   6.958 -2.0480  1.4905 -2.0928
  996MOL0     H37389   3.392   9.368   7.169 -1.2632  0.9673 -0.4803
  996MOL0     H37390   3.475   9.269   7.046  1.1420 -0.3155  0.7028
  996MOL0     H37391   3.259   9.487   6.972  3.2232  0.7006  4.1271
  996MOL0     H37392   3.353   9.398   6.855 -1.1738  0.2028 -0.4808
  996MOL0     H37393   3.289   9.177   6.943 -2.3753 -3.0562 -2.3825
  996MOL0     H37394   3.168   9.267   6.851 -0.6796  0.9985  0.6228
  996MOL0     H37395   3.121   9.166   7.100  2.6468 -1.1213 -2.4194
  996MOL0     H37396   3.148   9.341   7.141 -1.2639  3.6090 -2.7552
  996MOL0     H37397   2.936   9.429   7.185 -2.8055  0.6576  0.4018
  996MOL0     H37398   2.714   9.603   7.084  0.7052 -0.4807  3.5675
  996MOL0     H37399   2.649   9.454   7.150  2.7219  1.8344  1.2115
  996MOL0     H37400   2.617   9.568   6.858 -0.8878  1.4929  0.1301
  996MOL0     H37401   2.532   9.417   6.919 -1.4244  0.0504  0.2350
  996MOL0     H37402   2.401   9.565   7.066  0.7037  0.6144  1.9444
  996MOL0     H37403   2.488   9.700   7.010  1.4833 -0.4228 -0.7429
  996MOL0     H37404   2.423   9.661   6.770  0.0784  2.0176 -0.1744
  996MOL0     H37405   2.315   9.522   6.827 -0.0824  1.9980 -3.7938
  996MOL0     H37406   2.069   9.595   6.953 -0.4410 -2.1338 -0.9310
  996MOL0     H37407   1.798   9.490   6.789  2.1110  0.7883 -1.6533
  996MOL0     H37408   1.727   9.639   6.863  1.5242  1.7986 -0.0233
  996MOL0     H37409   1.834   9.537   6.960  0.7174 -0.9134  0.2962
  996MOL0     H37410   1.739  10.077   6.418  1.1507 -2.1617 -0.2164
  996MOL0     H37411   1.535  10.179   6.304 -1.4000 -1.1693 -1.6149
  996MOL0     H37412   1.263   9.863   6.224  4.6904  2.9329  0.8113
  996MOL0     H37413   1.123   9.950   6.300  0.5542  1.6000  0.3479
  996MOL0     H37414   1.267   9.987   6.036  0.4696 -0.4466 -0.3293
  996MOL0     H37415   1.080   9.962   6.073  0.0484  1.5387 -1.6941
  996MOL0     H37416   1.248  10.208   6.114  0.9206 -2.7471  2.2635
  996MOL0     H37417   1.090  10.189   6.177  1.3113 -0.3137  1.6683
  996MOL0     H37418   1.002  10.130   5.943  0.4900 -0.5807 -1.4933
  996MOL0     H37419   1.164  10.177   5.894 -1.9121  0.8845 -2.6150
  996MOL0     H37420   0.943  10.359   5.996 -1.4868 -3.3336 -1.1694
  996MOL0     H37421   1.117  10.409   5.969  1.3966 -0.7923 -2.7714
  996MOL0     H37422   0.929  10.281   5.779  2.3573 -2.3787  0.6793
  996MOL0     H37423   1.090  10.323   5.736 -0.2341 -0.9233 -0.2740
  996MOL0     H37424   1.042  10.569   5.789 -1.5450  0.9017 -2.3123
  996MOL0     H37425   0.884  10.536   5.853 -1.2543 -2.3843 -0.0786
  996MOL0     H37426   0.917  10.506   5.559 -0.2467 -2.7949  0.0045
  996MOL0     H37427   0.837  10.633   5.655  1.3067 -0.1360  1.9776
  996MOL0     H37428   1.301   9.840   6.445  0.9051 -2.0720 -1.8794
  996MOL0     H37429   1.499   9.762   6.580 -0.0184  0.5804  0.3053
  996MOL0     H37430   2.018   9.903   6.565 -3.0189 -2.7281 -2.7076
  996MOL0     H37431   2.220   9.886   6.674 -0.0834 -0.5574  0.1779
  996MOL0     H37432   3.452   9.733   7.645  1.1836  3.1137 -1.3688
  996MOL0     H37433   3.446   9.634   7.872  1.4123  1.7850  1.6160
  996MOL0     H37434   3.633   9.713   8.322  0.8022  1.6036  2.1613
  996MOL0     H37435   3.672   9.632   8.549  0.4227  4.3259 -2.9485
  996MOL0     H37436   3.826   9.497   8.727 -2.7477  2.9206  0.1221
  996MOL0     H37437   3.648   9.475   8.734  0.5240  0.0851  0.6570
  996MOL0     H37438   3.685   9.257   8.848  0.5046 -2.2803 -3.9828
  996MOL0     H37439   3.802   9.377   8.929  3.1568 -0.8438 -0.2626
  996MOL0     H37440   3.861   9.168   8.712 -1.0830  2.7749 -2.4151
  996MOL0     H37441   3.975   9.285   8.773  1.3160 -1.9247 -1.0483
  996MOL0     H37442   3.980   9.031   8.863  0.7420 -0.2719  0.8094
  996MOL0     H37443   3.840   9.094   8.953  0.4603  0.5493  0.7276
  996MOL0     H37444   4.125   9.291   9.167  0.0513 -2.1563  1.0305
  996MOL0     H37445   3.779   9.253   8.386 -0.7750  0.2547 -1.5729
  996MOL0     H37446   3.849   9.230   8.173 -1.7819  1.2979  2.1088
  996MOL0     H37447   3.711   9.261   8.074 -1.3137  0.7520  0.8294
  996MOL0     H37448   3.868   9.357   8.050 -0.0369 -0.1048 -2.2616
  997MOL0     O37449   4.488   0.080   5.539 -0.2011 -0.2490 -0.3208
  997MOL0     C37450   4.562   0.175   5.525 -0.8416 -0.0483 -0.6932
  997MOL0     O37451   4.525   0.300   5.493  0.0409 -0.5161 -0.5361
  997MOL0     C37452   4.394   0.338   5.479 -0.8396 -0.1706 -0.1745
  997MOL0     C37453   4.281   0.255   5.508  0.1576 -0.5331 -0.2979
  997MOL0     C37454   4.156   0.302   5.484  0.0632 -0.4135  0.1991
  997MOL0     C37455   4.138   0.432   5.438 -0.3775 -0.0369 -0.3856
  997MOL0     O37456   4.016   0.494   5.424 -0.3651  0.4991  0.0094
  997MOL0     C37457   3.984   0.530   5.290  0.2742  0.0889  0.0482
  997MOL0     C37458   3.843   0.573   5.295 -1.2515 -0.4212 -0.1520
  997MOL0     C37459   3.780   0.636   5.174  0.7453  0.4183 -0.3762
  997MOL0     C37460   3.631   0.675   5.208  0.4652 -0.3998 -0.1259
  997MOL0     C37461   3.561   0.725   5.082 -0.3973  1.0524  0.6874
  997MOL0     C37462   3.413   0.750   5.107 -0.0077  0.3019 -0.4400
  997MOL0     C37463   3.350   0.797   4.980  1.0053 -0.1066 -0.5070
  997MOL0     C37464   3.211   0.861   5.000 -1.3278  0.0376 -0.1126
  997MOL0     N37465   3.160   0.896   4.870  0.2855  0.2212 -0.3140
  997MOL0     C37466   3.034   0.878   4.817 -0.2428  0.2639 -0.1950
  997MOL0     C37467   3.043   0.923   4.684  0.4077  0.4832  0.4112
  997MOL0     C37468   2.910   0.938   4.617 -0.3318 -0.8635 -1.0251
  997MOL0     C37469   2.920   0.881   4.481  0.9083 -0.2701 -0.3069
  997MOL0     C37470   2.966   0.737   4.478 -0.3500  0.8920 -0.1001
  997MOL0     C37471   2.922   0.668   4.347  1.0841 -0.3862  0.2845
  997MOL0     O37472   2.965   0.539   4.317  0.2698 -0.3735 -0.3079
  997MOL0     C37473   2.923   0.472   4.203  0.0632  0.1216  0.6236
  997MOL0     C37474   2.831   0.523   4.111 -0.4323 -0.4344 -0.5369
  997MOL0     C37475   2.769   0.464   4.005 -0.1496 -0.1732  0.5209
  997MOL0     C37476   2.699   0.562   3.917  0.0354 -0.3182 -0.4876
  997MOL0     C37477   2.800   0.330   3.980  0.0025  0.6345  0.1681
  997MOL0     C37478   2.725   0.248   3.876  0.5127  0.2660 -0.5579
  997MOL0     O37479   2.792   0.137   3.818 -0.1374  0.4380 -0.7720
  997MOL0     C37480   2.705   0.050   3.756 -0.2825 -0.4822 -0.1824
  997MOL0     C37481   2.736  -0.004   3.637  0.3455 -0.9313  0.1313
  997MOL0     C37482   2.665  -0.105   3.573  1.1883  0.7086  0.4248
  997MOL0     C37483   2.564  -0.177   3.630 -0.2758  0.6854  0.9461
  997MOL0     O37484   2.523  -0.279   3.550 -0.3037  0.4916  0.3435
  997MOL0     C37485   2.455  -0.391   3.615  0.8382  0.5092  0.0873
  997MOL0     C37486   2.433  -0.496   3.501 -0.1635 -0.2342  0.5195
  997MOL0     C37487   2.344  -0.456   3.381 -0.1344  0.1180 -1.0188
  997MOL0     C37488   2.194  -0.448   3.409  0.9763 -0.5717  0.3218
  997MOL0     C37489   2.105  -0.474   3.286  0.7536  0.8582 -0.4604
  997MOL0     C37490   2.084  -0.609   3.240 -0.2133 -0.2743 -0.5960
  997MOL0     C37491   1.984  -0.686   3.334  0.2116  0.6377 -0.2150
  997MOL0     C37492   1.837  -0.630   3.310  0.2799  0.3048  0.5409
  997MOL0    Cl37493   1.731  -0.722   3.418 -0.2177  0.5703 -0.3676
  997MOL0     C37494   2.523  -0.135   3.755  0.0804 -1.0285  0.0144
  997MOL0     C37495   2.595  -0.021   3.821 -0.4205  0.3463 -0.6678
  997MOL0     O37496   2.606   0.271   3.865 -0.1329  0.2767 -0.4666
  997MOL0     C37497   2.896   0.269   4.071 -0.8446  0.1982  1.1501
  997MOL0     C37498   2.959   0.338   4.176  0.0941  0.4123 -0.1508
  997MOL0     N37499   3.170   0.955   4.660 -0.0742 -0.8567  0.7232
  997MOL0     N37500   3.237   0.939   4.766 -0.4794 -0.3187  0.0059
  997MOL0     C37501   4.249   0.510   5.425  0.3347 -0.2392  0.7920
  997MOL0     C37502   4.377   0.463   5.441 -0.6223  0.1386  0.6453
  997MOL0     C37503   4.711   0.137   5.547  0.2443  0.2384 -0.1683
  997MOL0     C37504   4.761   0.070   5.667 -0.0644  0.2163 -0.7278
  997MOL0     C37505   4.900   0.057   5.680  1.0043  0.2256  0.0840
  997MOL0     C37506   4.983   0.092   5.580 -1.1239  0.5319 -0.3420
  997MOL0     O37507   5.117   0.095   5.598 -0.3924  0.1675 -0.8459
  997MOL0     C37508   5.176  -0.030   5.563 -0.5791  0.7469  0.0840
  997MOL0     C37509   5.217  -0.107   5.688 -0.2850 -0.4603  0.8445
  997MOL0     C37510   5.275  -0.241   5.657 -0.0428  0.3212 -0.3478
  997MOL0     C37511   5.385  -0.285   5.751  0.8851 -0.2361  0.7769
  997MOL0     C37512   5.324  -0.307   5.889 -0.2197 -0.2278  0.0284
  997MOL0     C37513   5.279  -0.336   5.998  0.0076  0.6878  0.0095
  997MOL0     C37514   4.936   0.158   5.465  0.5616 -0.5184  0.4596
  997MOL0     C37515   4.796   0.182   5.443  0.5548  0.5212 -1.6118
  997MOL0     C37516   4.764   0.262   5.323  0.2793  0.1544 -0.9979
  997MOL0     H37517   4.269   0.151   5.535  0.3403 -0.8410 -1.3728
  997MOL0     H37518   4.068   0.239   5.494 -0.4960  0.4669  1.0449
  997MOL0     H37519   4.001   0.447   5.221  1.6589  0.9053 -0.6525
  997MOL0     H37520   4.039   0.617   5.253 -0.3640  0.5137  0.0946
  997MOL0     H37521   3.795   0.484   5.338  3.3309 -2.8054  0.6429
  997MOL0     H37522   3.849   0.654   5.368  0.1238  0.6321 -1.3705
  997MOL0     H37523   3.844   0.715   5.135  1.1835 -0.4839 -1.5304
  997MOL0     H37524   3.767   0.570   5.088 -5.0093  2.7599 -1.8120
  997MOL0     H37525   3.578   0.590   5.249  3.3739 -0.5327  3.9743
  997MOL0     H37526   3.631   0.753   5.285  1.9151 -1.0167  0.5298
  997MOL0     H37527   3.573   0.659   4.996 -0.5832 -1.4742  2.5009
  997MOL0     H37528   3.616   0.814   5.050  3.1978 -2.1359 -3.1148
  997MOL0     H37529   3.367   0.656   5.139 -1.4822  0.5657 -1.6855
  997MOL0     H37530   3.411   0.833   5.178  0.5956  0.1077 -0.1837
  997MOL0     H37531   3.334   0.710   4.917  0.5727 -0.5736  0.2366
  997MOL0     H37532   3.424   0.860   4.930  0.8961  0.4899  0.0637
  997MOL0     H37533   3.142   0.791   5.049 -3.5395  2.8968  1.1341
  997MOL0     H37534   3.234   0.950   5.059  1.0723 -0.3131 -0.4122
  997MOL0     H37535   2.936   0.862   4.861 -0.1878  1.7243  0.5120
  997MOL0     H37536   2.892   1.046   4.612 -1.9375 -1.0407  0.2486
  997MOL0     H37537   2.832   0.885   4.672  1.5175 -2.2960  0.3475
  997MOL0     H37538   2.827   0.895   4.425  0.2396  0.4092  0.9417
  997MOL0     H37539   2.985   0.943   4.418  0.0304 -1.0453 -2.0484
  997MOL0     H37540   3.074   0.741   4.489 -0.3341  2.1775 -0.5988
  997MOL0     H37541   2.923   0.681   4.561 -2.6993  3.3968  0.5207
  997MOL0     H37542   2.814   0.667   4.359  1.2220 -1.4336  1.7213
  997MOL0     H37543   2.932   0.739   4.264  0.6721 -0.7686 -0.0988
  997MOL0     H37544   2.807   0.627   4.135 -2.5625 -1.8251  4.9359
  997MOL0     H37545   2.592   0.550   3.904 -0.0883  0.3419 -0.1434
  997MOL0     H37546   2.728   0.559   3.811 -3.3271  2.6392 -1.6688
  997MOL0     H37547   2.720   0.665   3.949  2.4552 -1.0991  0.7219
  997MOL0     H37548   2.826   0.031   3.588  0.0622 -2.4602 -1.6250
  997MOL0     H37549   2.702  -0.133   3.475  0.6571  3.4980 -0.6740
  997MOL0     H37550   2.513  -0.430   3.699  0.5911 -1.3826 -0.5618
  997MOL0     H37551   2.354  -0.364   3.649  0.3437 -1.7755  0.6077
  997MOL0     H37552   2.533  -0.526   3.469 -1.5825 -3.6159 -1.1867
  997MOL0     H37553   2.380  -0.580   3.546  1.4752 -0.5109  2.0117
  997MOL0     H37554   2.358  -0.535   3.307 -0.0612 -2.9406  2.0383
  997MOL0     H37555   2.383  -0.365   3.334 -1.5548  0.2888 -1.9169
  997MOL0     H37556   2.162  -0.347   3.437  0.0418 -0.9124  0.5278
  997MOL0     H37557   2.167  -0.522   3.484 -1.4663  0.3225  0.4118
  997MOL0     H37558   2.011  -0.441   3.332  0.0277 -0.2479 -1.1217
  997MOL0     H37559   2.123  -0.397   3.210 -2.7925  1.6304 -0.6983
  997MOL0     H37560   2.176  -0.664   3.219 -0.8053 -2.0522  1.1907
  997MOL0     H37561   2.033  -0.589   3.145  0.0440 -1.4785 -1.0081
  997MOL0     H37562   2.006  -0.677   3.441 -0.9577 -0.9149  0.1977
  997MOL0     H37563   1.981  -0.794   3.317 -2.3364 -0.0251  3.2189
  997MOL0     H37564   1.799  -0.654   3.210  2.3012 -0.5587 -0.0758
  997MOL0     H37565   1.823  -0.522   3.320  1.0338  1.1041 -4.2833
  997MOL0     H37566   2.460  -0.202   3.812 -0.3133 -1.6033 -1.0530
  997MOL0     H37567   2.566  -0.006   3.924 -2.7091  1.1868 -1.3652
  997MOL0     H37568   2.915   0.165   4.046 -2.5753  0.6682 -2.9089
  997MOL0     H37569   3.018   0.275   4.242 -3.2602 -0.1298  2.5925
  997MOL0     H37570   4.228   0.608   5.385 -2.6531 -0.9259  0.4118
  997MOL0     H37571   4.455   0.537   5.426  0.3085 -0.7095  1.1881
  997MOL0     H37572   4.700   0.048   5.753 -0.2998 -1.0737 -1.2036
  997MOL0     H37573   4.931   0.036   5.782 -2.8097  2.8186  2.0194
  997MOL0     H37574   5.115  -0.101   5.506  0.0951 -1.9321  2.4252
  997MOL0     H37575   5.270  -0.000   5.515 -1.0392  4.4120  1.1616
  997MOL0     H37576   5.133  -0.117   5.757 -0.6484 -0.4909  0.4063
  997MOL0     H37577   5.297  -0.043   5.726 -0.8681  3.3704 -3.4448
  997MOL0     H37578   5.207  -0.324   5.636  2.7920 -2.6665  1.5396
  997MOL0     H37579   5.327  -0.235   5.561  1.9594  0.2162  0.6871
  997MOL0     H37580   5.463  -0.212   5.777 -0.9712  2.1849 -0.0688
  997MOL0     H37581   5.436  -0.373   5.711  3.7819  1.4478  0.4936
  997MOL0     H37582   5.241  -0.364   6.094 -1.3774  0.4913 -0.5649
  997MOL0     H37583   5.020   0.178   5.398  1.9904 -4.1714  0.9130
  997MOL0     H37584   4.826   0.223   5.242  1.7995 -2.7445  1.3308
  997MOL0     H37585   4.664   0.243   5.284 -1.2442 -0.2686  2.7101
  997MOL0     H37586   4.779   0.367   5.348  1.3400 -0.4822  1.3346
  998MOL0     O37587   1.333  10.467   3.352 -0.1954 -0.0736  0.8045
  998MOL0     C37588   1.234  10.403   3.400 -0.8132 -0.9164  1.0799
  998MOL0     O37589   1.106  10.441   3.387 -0.7829  0.1968 -0.2396
  998MOL0     C37590   1.080  10.571   3.343  0.2802  0.9144  0.4342
  998MOL0     C37591   0.977  10.573   3.248  0.3864 -0.6474  0.5188
  998MOL0     C37592   0.934  10.693   3.190  1.2242  0.6575 -0.3571
  998MOL0     C37593   1.005  10.807   3.222 -0.1320  0.2209  0.6325
  998MOL0     O37594   0.973  10.924   3.168 -0.2277 -0.4327  0.3741
  998MOL0     C37595   0.915  10.916   3.035  0.3262  0.2889 -0.6676
  998MOL0     C37596   0.913  11.061   2.969 -0.1060  1.1083 -0.1773
  998MOL0     C37597   0.804  11.149   3.031  0.9053 -0.1030 -0.0069
  998MOL0     C37598   0.842  11.298   3.003  0.1097 -0.0001 -0.3042
  998MOL0     C37599   0.716  11.383   3.036 -0.7619 -0.0373  1.0970
  998MOL0     C37600   0.698  11.398   3.180 -0.1489 -0.0025  0.4339
  998MOL0     C37601   0.603  11.518   3.215  0.1616 -0.2025  0.1081
  998MOL0     C37602   0.573  11.546   3.363  0.1833 -0.5028  0.9732
  998MOL0     N37603   0.499  11.674   3.362 -0.0611 -0.4516 -0.1334
  998MOL0     C37604   0.553  11.797   3.368  0.8293 -1.1495  1.0426
  998MOL0     C37605   0.452  11.890   3.341 -0.2985 -0.3008  0.5831
  998MOL0     C37606   0.468  12.035   3.304  0.8272  1.2482 -0.5945
  998MOL0     C37607   0.458  12.130   3.430  0.3480  0.8404 -0.6448
  998MOL0     C37608   0.337  12.225   3.421  0.0121 -0.1880  0.2429
  998MOL0     C37609   0.207  12.151   3.412  0.1451  0.0735 -0.6918
  998MOL0     O37610   0.094  12.240   3.429 -0.7550 -0.0114 -0.0585
  998MOL0     C37611  -0.034  12.211   3.387  0.2834 -0.9293 -0.0286
  998MOL0     C37612  -0.131  12.300   3.422 -0.9604  0.3442 -0.6647
  998MOL0     C37613  -0.271  12.277   3.404  0.8611 -0.2427  0.2843
  998MOL0     C37614  -0.362  12.371   3.473  0.1311 -0.5880  0.3489
  998MOL0     C37615  -0.317  12.152   3.342  0.8906 -0.0003 -0.6103
  998MOL0     C37616  -0.457  12.123   3.305 -0.0696  0.0876 -0.1491
  998MOL0     O37617  -0.476  11.992   3.271  0.0888  0.7085  0.4615
  998MOL0     C37618  -0.600  11.936   3.257  0.4006  0.1599 -0.4431
  998MOL0     C37619  -0.710  11.954   3.341 -0.1170 -0.0028  0.7026
  998MOL0     C37620  -0.817  11.872   3.337  0.4219  0.0706 -0.6279
  998MOL0     C37621  -0.829  11.772   3.241 -0.9439 -0.1661  0.0560
  998MOL0     O37622  -0.931  11.697   3.224 -0.0323  0.2077 -0.2209
  998MOL0     C37623  -1.053  11.764   3.195  1.2132 -0.0798 -0.4413
  998MOL0     C37624  -1.059  11.839   3.053 -0.6462  0.3758  0.3866
  998MOL0     C37625  -1.199  11.896   3.027  0.1821  0.1794 -0.0770
  998MOL0     C37626  -1.239  11.876   2.888  0.6132  0.0590 -0.6891
  998MOL0     C37627  -1.367  11.947   2.849 -0.3643  0.7124  0.1888
  998MOL0     C37628  -1.508  11.898   2.902 -0.1374 -0.5217  0.4536
  998MOL0     C37629  -1.523  11.741   2.904 -0.5206 -0.5232 -0.6382
  998MOL0     C37630  -1.661  11.708   2.962 -0.6494  0.2207 -0.3458
  998MOL0    Cl37631  -1.802  11.783   2.861  0.1409  0.3354  0.3582
  998MOL0     C37632  -0.714  11.752   3.158 -1.0882 -1.2738  1.0470
  998MOL0     C37633  -0.610  11.843   3.159  0.4631  0.5666  0.0304
  998MOL0     O37634  -0.549  12.212   3.285 -0.0836  0.7653 -0.0349
  998MOL0     C37635  -0.215  12.073   3.307  0.1786  0.8313 -0.0214
  998MOL0     C37636  -0.078  12.091   3.339 -0.1491  0.1641  0.4642
  998MOL0     N37637   0.341  11.815   3.307 -0.0182  0.1794  0.5769
  998MOL0     N37638   0.368  11.691   3.332 -0.1528 -0.0336  0.1274
  998MOL0     C37639   1.103  10.807   3.320 -0.1360  0.7590  0.5821
  998MOL0     C37640   1.145  10.686   3.380  0.5522  0.9422  0.2352
  998MOL0     C37641   1.256  10.274   3.473  1.2745 -0.0673  0.6504
  998MOL0     C37642   1.156  10.242   3.571  0.1390 -0.8987  1.0622
  998MOL0     C37643   1.173  10.135   3.660 -0.5656  0.0360 -0.3260
  998MOL0     C37644   1.286  10.049   3.640  1.0701 -0.3849 -0.1986
  998MOL0     O37645   1.315   9.935   3.704  0.2964 -0.2228  0.4998
  998MOL0     C37646   1.249   9.899   3.829 -0.5191 -0.3669  0.4009
  998MOL0     C37647   1.326   9.950   3.956 -0.5793  0.5870 -0.3999
  998MOL0     C37648   1.471   9.898   3.946 -0.4562  0.0707  0.0579
  998MOL0     C37649   1.501   9.741   3.968  0.1038  0.2235 -0.4009
  998MOL0     C37650   1.478   9.695   4.105 -0.4531  0.5307  0.2779
  998MOL0     C37651   1.459   9.666   4.219 -0.0343 -0.8709 -0.1379
  998MOL0     C37652   1.375  10.081   3.540  0.7614 -0.5838 -0.2310
  998MOL0     C37653   1.363  10.188   3.454  0.0348  1.0009 -0.2332
  998MOL0     C37654   1.456  10.199   3.334  0.3061  0.4973 -0.4174
  998MOL0     H37655   0.920  10.482   3.235  0.8369 -0.6186 -2.2662
  998MOL0     H37656   0.841  10.688   3.136  1.2922  1.2019 -0.5273
  998MOL0     H37657   0.808  10.893   3.043  0.3253  0.8352  1.5640
  998MOL0     H37658   0.985  10.862   2.970  1.1859 -0.6247  0.9536
  998MOL0     H37659   1.008  11.108   2.997 -0.6090  1.1296  1.6028
  998MOL0     H37660   0.905  11.041   2.861 -0.0830 -2.1819  0.3345
  998MOL0     H37661   0.705  11.131   2.990  1.4761  1.0041 -1.9764
  998MOL0     H37662   0.806  11.143   3.141 -0.2776  1.3645  0.1231
  998MOL0     H37663   0.933  11.321   3.058 -1.9160 -0.3214  3.5093
  998MOL0     H37664   0.867  11.305   2.896  0.8396  3.4235 -0.0422
  998MOL0     H37665   0.628  11.340   2.988  1.0722 -0.2108 -2.4571
  998MOL0     H37666   0.725  11.486   3.001  1.5766 -0.3708  0.5109
  998MOL0     H37667   0.669  11.303   3.225  3.1353 -2.4976 -2.1738
  998MOL0     H37668   0.793  11.417   3.232  0.5134 -2.2040  0.1321
  998MOL0     H37669   0.510  11.499   3.159 -0.9297  2.0731  1.0235
  998MOL0     H37670   0.645  11.611   3.176  1.6879 -1.2174 -0.7877
  998MOL0     H37671   0.502  11.470   3.398 -0.5894 -0.4061 -0.3399
  998MOL0     H37672   0.666  11.539   3.420  0.0906 -1.5977  1.0179
  998MOL0     H37673   0.658  11.824   3.379  0.1762  2.7640 -0.6889
  998MOL0     H37674   0.391  12.056   3.229 -0.0981 -1.2161 -0.4428
  998MOL0     H37675   0.565  12.058   3.260  1.7988 -0.7160  0.3680
  998MOL0     H37676   0.472  12.076   3.524  0.0798 -1.3260 -1.7775
  998MOL0     H37677   0.537  12.206   3.425 -2.1793  3.7566  0.7429
  998MOL0     H37678   0.331  12.286   3.511 -1.3990 -0.6634  0.5056
  998MOL0     H37679   0.355  12.283   3.330  1.3873 -0.8963  0.0386
  998MOL0     H37680   0.207  12.110   3.311  0.8010  1.1107 -1.1210
  998MOL0     H37681   0.206  12.087   3.500  2.6779  0.9243  0.0347
  998MOL0     H37682  -0.090  12.395   3.453  0.9140 -0.8469  0.6615
  998MOL0     H37683  -0.322  12.413   3.565 -0.6065 -2.4500  1.5605
  998MOL0     H37684  -0.455  12.323   3.504  0.3468 -1.1846  0.0795
  998MOL0     H37685  -0.380  12.459   3.410  1.6233  0.3788  1.1888
  998MOL0     H37686  -0.702  12.028   3.420  1.2126 -0.6383  1.1963
  998MOL0     H37687  -0.900  11.871   3.407  1.1455 -4.0888  0.4474
  998MOL0     H37688  -1.122  11.679   3.192  4.0964 -2.5936 -1.1967
  998MOL0     H37689  -1.086  11.835   3.271 -1.7880  0.8834 -2.4637
  998MOL0     H37690  -0.981  11.916   3.053  0.8652 -1.0961  0.2433
  998MOL0     H37691  -1.030  11.761   2.982  3.3732  0.7876  1.3279
  998MOL0     H37692  -1.198  12.002   3.054  0.9798  0.1370  0.0944
  998MOL0     H37693  -1.269  11.847   3.097 -0.1658  0.1713 -0.4287
  998MOL0     H37694  -1.248  11.770   2.866 -3.9572  0.5720 -2.3617
  998MOL0     H37695  -1.169  11.918   2.816  0.6879  0.9969 -0.0864
  998MOL0     H37696  -1.357  12.052   2.876  2.2051  1.9558 -4.4908
  998MOL0     H37697  -1.380  11.934   2.741 -0.3714  1.5274  0.0848
  998MOL0     H37698  -1.585  11.946   2.841  1.2442  2.0883  0.6245
  998MOL0     H37699  -1.519  11.929   3.006  0.3658  0.3649  0.2544
  998MOL0     H37700  -1.440  11.706   2.966 -1.2512 -0.9711  0.1124
  998MOL0     H37701  -1.531  11.694   2.805 -2.1034 -2.5613  0.3685
  998MOL0     H37702  -1.659  11.762   3.057 -0.7026  4.3294 -2.4448
  998MOL0     H37703  -1.668  11.599   2.968 -0.1951  0.2501  0.9523
  998MOL0     H37704  -0.711  11.669   3.088  1.0989  0.4742 -1.1077
  998MOL0     H37705  -0.516  11.840   3.106  2.1271  3.5306  2.4516
  998MOL0     H37706  -0.236  11.992   3.238  0.7458  1.4927 -1.0012
  998MOL0     H37707  -0.003  12.019   3.308  1.2687  1.9588 -0.4660
  998MOL0     H37708   1.154  10.903   3.324  0.3371  0.5995 -1.0019
  998MOL0     H37709   1.226  10.681   3.453 -0.6528 -5.0160  1.6872
  998MOL0     H37710   1.085  10.319   3.599 -0.9617 -1.0851 -1.0020
  998MOL0     H37711   1.092  10.122   3.732  0.1360  1.1237  0.7041
  998MOL0     H37712   1.148   9.941   3.834  0.7394  2.8148  2.2751
  998MOL0     H37713   1.251   9.790   3.833 -2.5033 -0.4238  3.1180
  998MOL0     H37714   1.279   9.911   4.047  1.0773 -2.3542 -0.7026
  998MOL0     H37715   1.324  10.060   3.953  3.1274  0.8346  0.7291
  998MOL0     H37716   1.507   9.916   3.844 -1.6626  0.8103 -0.2543
  998MOL0     H37717   1.531   9.964   4.008  0.3993  0.1563 -0.8505
  998MOL0     H37718   1.601   9.706   3.941  0.6025  1.6964 -0.5762
  998MOL0     H37719   1.442   9.680   3.899  0.8319 -2.1657  1.0053
  998MOL0     H37720   1.450   9.646   4.324  1.7455 -2.0743 -0.1773
  998MOL0     H37721   1.466  10.023   3.532  1.1272  0.1560 -1.7315
  998MOL0     H37722   1.385  10.198   3.251  0.8251  3.2201 -0.9726
  998MOL0     H37723   1.504  10.297   3.330 -0.6839  1.1676  2.1620
  998MOL0     H37724   1.539  10.128   3.329  0.5687  0.7608  0.1602
  999MOL0     O37725   7.379   7.426   3.556 -0.1556 -0.3056  0.1768
  999MOL0     C37726   7.357   7.325   3.490  0.4718  0.1102  0.0350
  999MOL0     O37727   7.236   7.293   3.429 -0.8839 -0.5012  0.0185
  999MOL0     C37728   7.140   7.385   3.388 -0.3496  0.8159 -0.4261
  999MOL0     C37729   7.004   7.380   3.444 -0.9594  0.1747  0.3425
  999MOL0     C37730   6.910   7.464   3.384 -0.8629 -0.0204  0.1261
  999MOL0     C37731   6.936   7.550   3.286 -0.0907 -0.1850 -0.1059
  999MOL0     O37732   6.830   7.632   3.261 -1.3054 -0.0766  0.2136
  999MOL0     C37733   6.811   7.669   3.122  0.0376 -0.4023  0.4563
  999MOL0     C37734   6.878   7.805   3.100 -0.4307 -0.1119 -0.2649
  999MOL0     C37735   6.773   7.905   3.125 -0.1205 -0.1827 -0.4260
  999MOL0     C37736   6.701   7.942   3.000  0.5014 -1.2563  0.8714
  999MOL0     C37737   6.612   8.073   3.007 -0.0763  1.1398 -0.4680
  999MOL0     C37738   6.535   8.079   3.132 -0.5147  0.5013  0.3453
  999MOL0     C37739   6.437   8.194   3.123 -0.3579 -0.9100  0.2721
  999MOL0     C37740   6.308   8.171   3.044 -0.2710  0.0545  0.5868
  999MOL0     N37741   6.216   8.285   3.059  0.7228  0.7463 -0.5579
  999MOL0     C37742   6.167   8.360   2.954 -0.0979  0.0820 -0.2845
  999MOL0     C37743   6.079   8.441   3.020 -0.8298  0.9862 -0.0831
  999MOL0     C37744   6.012   8.548   2.947 -0.1284 -0.7415 -0.0803
  999MOL0     C37745   5.898   8.513   2.844  0.3392 -0.2399  0.1483
  999MOL0     C37746   5.795   8.409   2.896 -1.0737  0.1547  0.0512
  999MOL0     C37747   5.666   8.396   2.815 -0.6385  0.6302  0.2948
  999MOL0     O37748   5.671   8.332   2.691  0.4505 -0.6336  0.4619
  999MOL0     C37749   5.702   8.202   2.686 -0.3051 -0.0782 -0.3427
  999MOL0     C37750   5.712   8.118   2.799 -0.0232 -0.3134  0.2027
  999MOL0     C37751   5.751   7.988   2.779  0.5211  0.8468 -0.5880
  999MOL0     C37752   5.779   7.896   2.897 -0.2154 -1.0992 -0.4035
  999MOL0     C37753   5.762   7.925   2.647  0.9392 -1.0050 -0.8709
  999MOL0     C37754   5.775   7.776   2.618 -0.3056  0.0586 -0.0239
  999MOL0     O37755   5.887   7.708   2.656  0.7762  0.0805  0.4169
  999MOL0     C37756   5.890   7.569   2.660 -0.2325 -0.1144  0.8241
  999MOL0     C37757   6.026   7.520   2.670  0.4261  0.2406  1.1322
  999MOL0     C37758   6.047   7.381   2.670 -0.5876 -0.0467 -0.2875
  999MOL0     C37759   5.943   7.293   2.660 -0.0768  0.2476  0.2940
  999MOL0     O37760   5.968   7.163   2.665 -0.1357  0.0500  0.1854
  999MOL0     C37761   5.916   7.088   2.540 -0.0361  0.6763 -0.7827
  999MOL0     C37762   6.032   7.110   2.441 -0.0532 -0.1210  0.1844
  999MOL0     C37763   6.044   7.005   2.332 -0.3220  0.5256  0.1218
  999MOL0     C37764   5.915   6.953   2.272 -0.0522  0.4446  0.3542
  999MOL0     C37765   5.829   7.062   2.205 -0.7131 -1.1998  0.4664
  999MOL0     C37766   5.694   6.998   2.165  0.5841  0.3947  0.4616
  999MOL0     C37767   5.592   7.102   2.106  0.0662 -0.1885 -0.7482
  999MOL0     C37768   5.502   7.055   1.991 -0.4529 -0.1683 -0.7341
  999MOL0    Cl37769   5.386   6.920   2.043  0.1200  0.2833  0.1969
  999MOL0     C37770   5.811   7.349   2.663 -0.4706  0.7602  0.2660
  999MOL0     C37771   5.784   7.481   2.665 -0.4115 -0.1966 -0.5133
  999MOL0     O37772   5.678   7.728   2.564  0.2059 -0.2633 -0.0505
  999MOL0     C37773   5.731   8.007   2.540 -0.4573  0.3897 -0.3060
  999MOL0     C37774   5.701   8.141   2.557 -1.0600  1.1235  0.3410
  999MOL0     N37775   6.049   8.391   3.140  0.5693 -0.0035  0.1304
  999MOL0     N37776   6.132   8.296   3.166 -0.0119  0.2322 -0.7201
  999MOL0     C37777   7.067   7.558   3.238  0.3930 -0.2731 -0.2215
  999MOL0     C37778   7.165   7.475   3.287  0.0041 -0.9450 -0.4833
  999MOL0     C37779   7.470   7.224   3.459 -0.2635 -0.1315 -0.1074
  999MOL0     C37780   7.428   7.109   3.382 -0.1945  0.7119 -0.1649
  999MOL0     C37781   7.523   7.016   3.341  0.2040 -0.7899 -0.1562
  999MOL0     C37782   7.654   7.024   3.387  0.5109  0.4939 -0.2830
  999MOL0     O37783   7.749   6.921   3.358  0.4245 -0.4378 -0.6085
  999MOL0     C37784   7.785   6.915   3.222  0.4465  0.0150  0.4297
  999MOL0     C37785   7.925   6.855   3.205  0.7383  0.8246  0.2333
  999MOL0     C37786   8.017   6.945   3.289 -1.1543  1.5141  0.5005
  999MOL0     C37787   8.021   7.087   3.242  0.4607 -0.0141 -0.1537
  999MOL0     C37788   8.162   7.139   3.263  0.4739 -0.2336 -0.5703
  999MOL0     C37789   8.270   7.176   3.292 -0.6249  1.3365  0.5454
  999MOL0     C37790   7.685   7.123   3.479  0.3814  0.0758  0.4967
  999MOL0     C37791   7.597   7.226   3.510 -0.1421  0.0337  0.7603
  999MOL0     C37792   7.640   7.323   3.613 -0.2881  0.2182  0.2613
  999MOL0     H37793   6.984   7.312   3.526  1.9487  0.6497  1.5897
  999MOL0     H37794   6.807   7.457   3.416 -0.9674 -2.6796 -0.4763
  999MOL0     H37795   6.704   7.679   3.102  0.3306  3.8258  0.0403
  999MOL0     H37796   6.846   7.585   3.061  1.5983  1.6204 -1.6440
  999MOL0     H37797   6.968   7.811   3.161 -0.9062 -0.3187  0.4697
  999MOL0     H37798   6.923   7.816   3.001 -1.4192 -0.9374 -0.8316
  999MOL0     H37799   6.709   7.881   3.210  0.1556 -3.6542 -1.0554
  999MOL0     H37800   6.833   7.994   3.147  0.1095 -0.4229 -0.0665
  999MOL0     H37801   6.777   7.963   2.924 -0.9578  4.9878  0.6514
  999MOL0     H37802   6.642   7.851   2.985 -4.2140  0.7838  4.3919
  999MOL0     H37803   6.544   8.081   2.921 -0.8288 -0.5220 -0.0717
  999MOL0     H37804   6.680   8.158   2.997  1.0219  0.2784 -0.3995
  999MOL0     H37805   6.489   7.985   3.165  1.0110  0.4739  2.5829
  999MOL0     H37806   6.604   8.090   3.216  0.3213 -0.7221 -0.1573
  999MOL0     H37807   6.488   8.283   3.084  0.3534 -0.6538  1.7184
  999MOL0     H37808   6.410   8.228   3.224  3.4985  1.6508  0.6584
  999MOL0     H37809   6.335   8.160   2.939  3.6665  1.7698  1.2701
  999MOL0     H37810   6.266   8.075   3.078  2.1682 -0.6266  1.9077
  999MOL0     H37811   6.194   8.368   2.849  3.0095  3.1799  0.5684
  999MOL0     H37812   6.085   8.616   2.901  0.1554  0.0736  1.4877
  999MOL0     H37813   5.970   8.611   3.027  0.6108  0.7199 -0.7919
  999MOL0     H37814   5.846   8.601   2.808 -1.0535 -1.4919 -1.0423
  999MOL0     H37815   5.950   8.471   2.757 -0.1680  0.0063 -0.2739
  999MOL0     H37816   5.855   8.318   2.902 -2.0497 -0.5717 -0.7924
  999MOL0     H37817   5.767   8.425   3.000 -0.1402 -1.7191  0.6258
  999MOL0     H37818   5.590   8.340   2.870 -0.4214 -2.6806 -2.4091
  999MOL0     H37819   5.629   8.492   2.779  1.3390  0.6092 -2.1257
  999MOL0     H37820   5.687   8.131   2.904  1.6277  2.7778  0.3123
  999MOL0     H37821   5.709   7.812   2.892 -2.5487  0.7849 -0.9232
  999MOL0     H37822   5.757   7.953   2.987 -0.9188 -0.1384 -1.1631
  999MOL0     H37823   5.882   7.858   2.890  0.1318 -0.2168 -0.2184
  999MOL0     H37824   6.105   7.595   2.677 -1.3309  2.2197  0.7773
  999MOL0     H37825   6.151   7.351   2.664 -0.8219 -0.6833 -1.6479
  999MOL0     H37826   5.898   6.982   2.560  2.1363  0.2615 -0.8009
  999MOL0     H37827   5.832   7.141   2.494  0.5595  1.8801 -0.5286
  999MOL0     H37828   6.009   7.197   2.379 -1.9099 -0.9003 -0.2703
  999MOL0     H37829   6.130   7.128   2.487  1.4389 -0.4318 -2.6356
  999MOL0     H37830   6.092   6.920   2.380  0.0944  1.1259  0.7833
  999MOL0     H37831   6.107   7.052   2.256  0.5047  0.2121  0.6061
  999MOL0     H37832   5.850   6.899   2.342 -2.3793 -1.1008 -2.7708
  999MOL0     H37833   5.938   6.873   2.201  0.9643  1.0823 -0.0487
  999MOL0     H37834   5.820   7.150   2.269 -2.2587  0.0247 -1.3390
  999MOL0     H37835   5.889   7.093   2.120  1.5542 -1.9220  1.7132
  999MOL0     H37836   5.648   6.954   2.255 -1.1622  0.4410 -0.3719
  999MOL0     H37837   5.708   6.912   2.098  2.7945  0.9719  0.1200
  999MOL0     H37838   5.654   7.186   2.075  2.3036 -1.8688 -1.0733
  999MOL0     H37839   5.517   7.134   2.179 -2.0777 -0.3263 -2.7792
  999MOL0     H37840   5.561   7.026   1.904  1.5785 -0.9120  0.8190
  999MOL0     H37841   5.436   7.139   1.965 -0.6737  0.5613  1.9107
  999MOL0     H37842   5.729   7.279   2.655  1.3385 -1.5604  0.6763
  999MOL0     H37843   5.679   7.508   2.671 -0.3186 -0.1717  2.8463
  999MOL0     H37844   5.710   7.959   2.446  0.6325 -0.7207 -0.0072
  999MOL0     H37845   5.692   8.183   2.458  1.3655  0.8830 -0.0498
  999MOL0     H37846   7.111   7.637   3.177  1.5488  1.4338  2.5965
  999MOL0     H37847   7.269   7.500   3.270 -0.0232 -0.2836  0.2498
  999MOL0     H37848   7.326   7.094   3.351  0.2283 -1.4085 -0.6438
  999MOL0     H37849   7.487   6.925   3.293 -1.8208  0.2954 -0.8064
  999MOL0     H37850   7.716   6.867   3.151 -2.0277  3.2287  0.4253
  999MOL0     H37851   7.791   7.017   3.183  0.3980 -1.0092 -2.4787
  999MOL0     H37852   7.939   6.857   3.097 -1.7986 -1.5316 -0.2707
  999MOL0     H37853   7.942   6.752   3.237  2.7649  0.7868 -0.8164
  999MOL0     H37854   7.985   6.958   3.393  4.1551 -1.4010  2.8827
  999MOL0     H37855   8.120   6.909   3.301 -1.2667  0.5087 -1.1435
  999MOL0     H37856   7.957   7.164   3.286  2.3872  1.2017  0.6807
  999MOL0     H37857   7.987   7.078   3.139 -0.2285 -0.1786  0.0809
  999MOL0     H37858   8.376   7.186   3.296 -0.2461 -0.9286 -1.2320
  999MOL0     H37859   7.784   7.114   3.522  0.3919  2.3282  1.0748
  999MOL0     H37860   7.733   7.314   3.669  2.0493  2.7468 -2.8215
  999MOL0     H37861   7.666   7.411   3.554  1.1055  0.6349  1.4365
  999MOL0     H37862   7.558   7.338   3.684  0.2640 -0.5401  1.0763
 1000MOL0     O37863   3.186  11.512   2.351 -0.1685 -0.3825 -0.2176
 1000MOL0     C37864   3.220  11.548   2.238 -0.0847 -0.5111 -0.2836
 1000MOL0     O37865   3.339  11.563   2.192 -0.3520 -0.1984  0.2939
 1000MOL0     C37866   3.452  11.524   2.264 -0.9338 -1.0115 -0.3580
 1000MOL0     C37867   3.462  11.414   2.358 -0.1071 -0.1798  0.2790
 1000MOL0     C37868   3.590  11.362   2.402 -0.0549 -0.5497  0.5005
 1000MOL0     C37869   3.708  11.431   2.372  0.2225  0.3853 -0.8541
 1000MOL0     O37870   3.830  11.383   2.425 -0.3376  0.6608  0.3823
 1000MOL0     C37871   3.944  11.414   2.347  0.5038 -0.4900  0.0753
 1000MOL0     C37872   4.013  11.285   2.306 -0.0020 -0.5022  0.7667
 1000MOL0     C37873   4.052  11.218   2.435  0.3330  0.6106  0.7521
 1000MOL0     C37874   4.168  11.116   2.408 -0.0285 -0.4903  0.7015
 1000MOL0     C37875   4.160  10.999   2.505  0.3760  0.2188  0.5395
 1000MOL0     C37876   4.252  10.889   2.461 -0.3269  0.0097  0.1367
 1000MOL0     C37877   4.401  10.922   2.488 -0.4765 -0.1931 -0.0743
 1000MOL0     C37878   4.481  10.846   2.599  0.8849 -0.3027 -0.3769
 1000MOL0     N37879   4.604  10.903   2.637  0.2035  0.0768 -0.9306
 1000MOL0     C37880   4.626  11.021   2.697  0.2421  1.2680 -0.0422
 1000MOL0     C37881   4.754  11.029   2.710 -0.8283  0.3873 -0.0777
 1000MOL0     C37882   4.850  11.141   2.751  0.2125  0.7639  1.0399
 1000MOL0     C37883   4.914  11.115   2.890  0.2703 -0.2982  0.5876
 1000MOL0     C37884   5.037  11.025   2.867 -0.0121  0.5100  0.2933
 1000MOL0     C37885   5.136  11.026   2.988  0.4479  0.6865  0.4229
 1000MOL0     O37886   5.209  11.145   3.001  1.1402 -0.2965 -0.2652
 1000MOL0     C37887   5.301  11.156   3.090 -0.9920  0.2563 -1.0621
 1000MOL0     C37888   5.374  11.275   3.109  0.7191 -0.2568  0.7450
 1000MOL0     C37889   5.473  11.314   3.199 -0.7475  1.0304  0.0447
 1000MOL0     C37890   5.511  11.460   3.210 -0.2946  0.2854  1.2456
 1000MOL0     C37891   5.520  11.210   3.286 -0.1238 -0.0703 -0.6216
 1000MOL0     C37892   5.627  11.224   3.385 -0.1833  0.0936  0.5400
 1000MOL0     O37893   5.671  11.103   3.431  0.6797 -0.1223 -0.7973
 1000MOL0     C37894   5.773  11.086   3.521 -0.1012  0.4228 -0.9494
 1000MOL0     C37895   5.794  11.158   3.639  0.3190  0.0445  0.3482
 1000MOL0     C37896   5.909  11.154   3.719 -0.3205  0.4381 -0.0000
 1000MOL0     C37897   6.006  11.056   3.675  0.0304  0.6829  0.1901
 1000MOL0     O37898   6.124  11.054   3.751  0.4585 -0.4763 -0.5998
 1000MOL0     C37899   6.194  10.930   3.763  0.7683 -1.0658  0.7928
 1000MOL0     C37900   6.290  10.938   3.873 -0.0741  0.4280  0.3346
 1000MOL0     C37901   6.223  10.942   4.013  0.3734 -0.0632 -0.0235
 1000MOL0     C37902   6.319  10.928   4.130 -0.4975  0.1731 -0.6601
 1000MOL0     C37903   6.250  10.949   4.266  0.0290 -0.5195 -0.1845
 1000MOL0     C37904   6.350  10.926   4.387  0.2780 -0.0270 -0.4091
 1000MOL0     C37905   6.284  10.931   4.519 -1.0408  0.3823 -0.3875
 1000MOL0     C37906   6.377  10.932   4.638  1.0403 -0.2712  0.6403
 1000MOL0    Cl37907   6.446  11.091   4.658 -0.6599 -0.1224 -0.0087
 1000MOL0     C37908   5.980  10.972   3.565 -0.1530  0.2519  0.7113
 1000MOL0     C37909   5.860  10.982   3.485 -0.1973 -0.5660 -0.3957
 1000MOL0     O37910   5.684  11.334   3.399  1.2618 -0.0083  1.2523
 1000MOL0     C37911   5.459  11.083   3.276  0.0475  0.3593 -0.0374
 1000MOL0     C37912   5.344  11.059   3.187 -0.0162 -0.3084 -0.4930
 1000MOL0     N37913   4.812  10.908   2.665 -0.8505  0.3229  0.4122
 1000MOL0     N37914   4.718  10.837   2.616 -0.3003  0.7613  0.1426
 1000MOL0     C37915   3.701  11.553   2.305  0.5976 -0.1064  0.2441
 1000MOL0     C37916   3.583  11.591   2.241  0.4985 -0.4401  0.2047
 1000MOL0     C37917   3.107  11.572   2.146 -0.3932 -0.2217  0.4094
 1000MOL0     C37918   3.132  11.655   2.036 -0.2458 -0.7573 -0.2035
 1000MOL0     C37919   3.022  11.693   1.946  0.8082  0.5791 -1.2878
 1000MOL0     C37920   2.897  11.635   1.957  0.5063 -0.8233  0.6230
 1000MOL0     O37921   2.794  11.663   1.869 -0.5208 -0.4337  0.1923
 1000MOL0     C37922   2.749  11.807   1.849 -0.2740  0.1466  0.4157
 1000MOL0     C37923   2.666  11.814   1.718 -0.7993 -0.9083 -0.4790
 1000MOL0     C37924   2.549  11.717   1.720  0.7316  0.0972 -0.3427
 1000MOL0     C37925   2.454  11.739   1.602  0.5892  0.1133  0.4367
 1000MOL0     C37926   2.350  11.834   1.645  0.0086 -0.4995  0.8480
 1000MOL0     C37927   2.283  11.921   1.686 -0.0880  0.4467  0.4303
 1000MOL0     C37928   2.879  11.546   2.064 -0.0156  0.2207  0.6343
 1000MOL0     C37929   2.980  11.509   2.155  0.2496 -0.3006  0.6201
 1000MOL0     C37930   2.938  11.407   2.266  0.4923  0.6747  0.5832
 1000MOL0     H37931   3.369  11.362   2.378  0.4057 -0.7948  1.1431
 1000MOL0     H37932   3.616  11.272   2.457  1.9637 -0.7497 -0.6579
 1000MOL0     H37933   4.012  11.470   2.413 -1.4402  2.3320 -0.1254
 1000MOL0     H37934   3.941  11.489   2.268  5.1922 -1.2678 -1.1141
 1000MOL0     H37935   3.948  11.241   2.230  1.4030 -0.5103 -0.4832
 1000MOL0     H37936   4.101  11.327   2.257  1.2761 -2.3538  1.3576
 1000MOL0     H37937   4.097  11.298   2.494  0.8916  0.3770  0.6528
 1000MOL0     H37938   3.962  11.170   2.476  1.1127 -1.1184  0.5304
 1000MOL0     H37939   4.148  11.073   2.309 -7.0718  1.9424  0.4906
 1000MOL0     H37940   4.265  11.166   2.407 -1.1005  1.6725 -0.0460
 1000MOL0     H37941   4.059  10.958   2.501  1.5988 -3.1357 -3.5110
 1000MOL0     H37942   4.177  11.026   2.609  3.5119 -2.6907  0.9822
 1000MOL0     H37943   4.225  10.804   2.523 -2.1700 -0.4336 -1.1805
 1000MOL0     H37944   4.234  10.853   2.359 -0.6971  0.0193  0.1950
 1000MOL0     H37945   4.419  11.028   2.511  5.1788 -0.9393  0.1638
 1000MOL0     H37946   4.451  10.914   2.391 -0.1127  1.2421 -0.0276
 1000MOL0     H37947   4.423  10.868   2.689  1.3791 -0.1406 -0.0916
 1000MOL0     H37948   4.488  10.739   2.577 -0.6901 -0.8130  1.3605
 1000MOL0     H37949   4.559  11.105   2.715  1.4892  1.5711  4.4761
 1000MOL0     H37950   4.804  11.240   2.744 -0.0101  0.7877  2.4096
 1000MOL0     H37951   4.926  11.150   2.673 -2.4080 -1.1737 -2.0004
 1000MOL0     H37952   4.935  11.207   2.946  0.4797 -1.4210  2.4208
 1000MOL0     H37953   4.852  11.057   2.958  0.4921 -0.5345  0.5897
 1000MOL0     H37954   5.006  10.923   2.840  1.5434  0.4621 -1.4838
 1000MOL0     H37955   5.102  11.064   2.788 -0.0862 -0.3146 -0.1830
 1000MOL0     H37956   5.069  11.027   3.073  0.0273 -0.5892  0.1309
 1000MOL0     H37957   5.195  10.934   2.989  3.0961  2.2637  0.0704
 1000MOL0     H37958   5.354  11.358   3.041  2.8213 -0.3649 -0.0641
 1000MOL0     H37959   5.603  11.476   3.152 -2.0923  2.7961 -1.1209
 1000MOL0     H37960   5.539  11.505   3.306  1.8216  3.0740 -0.5261
 1000MOL0     H37961   5.431  11.526   3.176  0.4723  1.2806  1.3401
 1000MOL0     H37962   5.717  11.229   3.669  1.1991  0.8443  0.7482
 1000MOL0     H37963   5.939  11.220   3.799 -0.4874 -0.8650  1.1780
 1000MOL0     H37964   6.121  10.848   3.774 -0.7707 -0.0064 -0.9224
 1000MOL0     H37965   6.244  10.929   3.666 -1.8800  1.6118 -0.7717
 1000MOL0     H37966   6.367  10.862   3.864  0.2822  0.2500  3.5458
 1000MOL0     H37967   6.353  11.024   3.851 -1.3062  1.0859 -0.7883
 1000MOL0     H37968   6.161  10.853   4.022  2.7291 -1.6806  1.5020
 1000MOL0     H37969   6.164  11.033   4.030  0.9939  0.0348  1.8409
 1000MOL0     H37970   6.394  11.008   4.122  0.0983 -0.2572  0.3820
 1000MOL0     H37971   6.365  10.830   4.138  1.4689  1.1999  2.7479
 1000MOL0     H37972   6.221  11.053   4.249 -1.1303 -1.0391 -1.6424
 1000MOL0     H37973   6.161  10.887   4.282  0.2273 -0.6997  0.2496
 1000MOL0     H37974   6.425  11.005   4.384 -0.5457  0.8641  1.2785
 1000MOL0     H37975   6.394  10.828   4.368 -0.6553 -0.5828  0.2006
 1000MOL0     H37976   6.220  10.842   4.526  0.3075 -0.6742 -1.0881
 1000MOL0     H37977   6.229  11.026   4.527  1.4479  1.9828 -1.2848
 1000MOL0     H37978   6.444  10.846   4.640  0.4262 -0.7760  0.0624
 1000MOL0     H37979   6.312  10.918   4.725  0.4954 -1.1263  0.1114
 1000MOL0     H37980   6.048  10.901   3.519 -2.3422  0.1978 -2.9242
 1000MOL0     H37981   5.836  10.912   3.406  0.7952  0.5652 -1.7548
 1000MOL0     H37982   5.465  11.010   3.357 -2.5207  1.4299  1.2281
 1000MOL0     H37983   5.311  10.955   3.190  0.0342 -0.3207  1.6388
 1000MOL0     H37984   3.789  11.616   2.305 -0.0833  1.0382 -3.1894
 1000MOL0     H37985   3.579  11.681   2.180  1.5321  0.4255  1.3852
 1000MOL0     H37986   3.230  11.696   2.015 -0.0825 -0.4796  1.0865
 1000MOL0     H37987   3.035  11.759   1.861 -1.2599  3.8858  0.7444
 1000MOL0     H37988   2.687  11.839   1.933  0.5089  0.1725  0.9940
 1000MOL0     H37989   2.836  11.872   1.831  1.7117 -2.3079  0.5127
 1000MOL0     H37990   2.742  11.789   1.643  0.2720  0.3262  0.1406
 1000MOL0     H37991   2.625  11.912   1.690 -0.8302 -0.6374  0.4977
 1000MOL0     H37992   2.600  11.621   1.708  2.6148  1.2321 -2.2234
 1000MOL0     H37993   2.498  11.700   1.815  2.8279  0.4386  0.9128
 1000MOL0     H37994   2.396  11.651   1.573 -1.8151  1.2266  1.6210
 1000MOL0     H37995   2.502  11.767   1.508 -0.6348 -0.7012 -0.4615
 1000MOL0     H37996   2.230  12.008   1.720  1.6369  0.5097  3.2908
 1000MOL0     H37997   2.782  11.505   2.089  0.7010 -2.8236 -1.0976
 1000MOL0     H37998   2.965  11.447   2.364  0.8640 -0.0948  0.7947
 1000MOL0     H37999   2.829  11.401   2.277  0.7924 -0.9847  3.4633
 1000MOL0     H38000   2.980  11.307   2.261  0.5115  0.4480  3.5408
 1001MOL0     O38001   8.810   6.707   9.474 -0.8095  0.1829 -0.2456
 1001MOL0     C38002   8.914   6.766   9.449  0.5362 -0.0535  0.1123
 1001MOL0     O38003   9.029   6.701   9.448 -0.1257  0.0930  0.1319
 1001MOL0     C38004   9.022   6.561   9.460 -0.0587  0.7041  0.1383
 1001MOL0     C38005   8.961   6.484   9.357  0.7232 -0.3179 -0.7177
 1001MOL0     C38006   8.943   6.340   9.368 -0.2168 -0.0779  0.1632
 1001MOL0     C38007   8.992   6.283   9.483 -1.0831  0.4863 -0.4519
 1001MOL0     O38008   8.963   6.155   9.499 -0.8898 -0.7549 -0.3762
 1001MOL0     C38009   9.029   6.068   9.411 -0.2360 -0.4449  0.8115
 1001MOL0     C38010   8.942   5.995   9.310 -0.8930 -0.7275 -0.0575
 1001MOL0     C38011   8.811   5.941   9.369 -0.3155 -0.3504 -0.8454
 1001MOL0     C38012   8.828   5.828   9.472 -0.1511 -0.5277 -0.4748
 1001MOL0     C38013   8.698   5.750   9.497 -0.3604 -0.3083 -0.4147
 1001MOL0     C38014   8.650   5.672   9.380 -0.0439 -0.0960 -0.0952
 1001MOL0     C38015   8.746   5.551   9.341  0.3627  0.4911  0.3176
 1001MOL0     C38016   8.684   5.459   9.247 -0.0331  0.7077 -0.3922
 1001MOL0     N38017   8.783   5.356   9.215  0.3019 -0.5686  0.0550
 1001MOL0     C38018   8.831   5.256   9.295  0.1520  0.4481 -0.3883
 1001MOL0     C38019   8.917   5.190   9.220  0.0829 -0.2143 -0.1783
 1001MOL0     C38020   8.980   5.060   9.251 -0.3750  0.8076 -0.1521
 1001MOL0     C38021   9.111   5.079   9.322 -0.8017  0.2010 -0.6201
 1001MOL0     C38022   9.218   4.978   9.260  0.5160 -0.2305  0.2547
 1001MOL0     C38023   9.268   5.035   9.124 -0.6285 -0.7693 -0.1056
 1001MOL0     O38024   9.358   4.935   9.056 -0.5495 -0.0854 -0.7175
 1001MOL0     C38025   9.473   4.887   9.121 -0.2800 -0.5455 -0.1941
 1001MOL0     C38026   9.518   4.760   9.108  0.5704  0.2682  0.3041
 1001MOL0     C38027   9.617   4.707   9.187  0.2422  0.7916  0.1799
 1001MOL0     C38028   9.644   4.564   9.184 -0.0939 -0.1814  0.0570
 1001MOL0     C38029   9.707   4.795   9.250 -1.1856  0.7703  0.2049
 1001MOL0     C38030   9.845   4.755   9.316  0.6258  0.5785  0.9488
 1001MOL0     O38031   9.916   4.863   9.364  0.0612 -0.0728 -0.0658
 1001MOL0     C38032  10.045   4.847   9.423  0.5066  0.3441  0.1337
 1001MOL0     C38033  10.084   4.884   9.557  0.1203  0.6528 -0.8823
 1001MOL0     C38034  10.213   4.851   9.610 -0.4414  0.7257  0.0402
 1001MOL0     C38035  10.294   4.771   9.530 -0.6686 -0.2840  0.3165
 1001MOL0     O38036  10.405   4.735   9.586 -0.1460 -0.0615 -0.3202
 1001MOL0     C38037  10.468   4.613   9.575 -0.6605  0.6854 -0.0208
 1001MOL0     C38038  10.503   4.550   9.706  0.8713 -1.0735  0.3117
 1001MOL0     C38039  10.594   4.629   9.802  1.2004 -0.0648  0.2244
 1001MOL0     C38040  10.740   4.646   9.750  0.3720 -0.5217 -0.6467
 1001MOL0     C38041  10.837   4.670   9.864 -0.5882  0.0480 -0.2974
 1001MOL0     C38042  10.982   4.692   9.829  0.1537 -0.2557  0.2550
 1001MOL0     C38043  11.060   4.570   9.844  0.1554  0.2660 -1.4515
 1001MOL0     C38044  11.197   4.571   9.796  0.5206  0.4480  0.8037
 1001MOL0    Cl38045  11.201   4.547   9.618  0.5789  0.1306  0.0841
 1001MOL0     C38046  10.258   4.734   9.395 -0.1842 -1.3844 -0.7030
 1001MOL0     C38047  10.133   4.781   9.341  0.0465  0.3911 -0.2813
 1001MOL0     O38048   9.871   4.639   9.333  0.4816 -0.1160 -0.8426
 1001MOL0     C38049   9.663   4.928   9.261 -0.7705  0.0042  0.2073
 1001MOL0     C38050   9.548   4.972   9.202 -0.2505 -0.0982  0.9426
 1001MOL0     N38051   8.923   5.253   9.099 -0.7698 -0.1697 -0.2773
 1001MOL0     N38052   8.839   5.353   9.097 -0.6597 -0.6373  0.3782
 1001MOL0     C38053   9.061   6.354   9.581  0.4267 -0.3837 -1.0174
 1001MOL0     C38054   9.072   6.495   9.574  0.0065 -1.1108  1.0819
 1001MOL0     C38055   8.909   6.918   9.446  0.1085  0.4603 -0.3005
 1001MOL0     C38056   9.020   6.994   9.481 -0.6247  0.2914  0.2973
 1001MOL0     C38057   9.013   7.135   9.480  0.2296  0.2584  0.2273
 1001MOL0     C38058   8.898   7.210   9.450  0.5912 -0.1478 -0.0184
 1001MOL0     O38059   8.877   7.349   9.442  0.0565  0.1431 -0.6554
 1001MOL0     C38060   8.980   7.450   9.453  0.2834 -0.1672  0.1479
 1001MOL0     C38061   9.028   7.465   9.591  0.0158  0.5930 -0.4881
 1001MOL0     C38062   8.917   7.522   9.684  0.0635 -0.0222  0.4555
 1001MOL0     C38063   8.974   7.520   9.830  1.2224  0.6014  0.6064
 1001MOL0     C38064   9.110   7.577   9.849 -0.0697  0.2191 -0.1701
 1001MOL0     C38065   9.225   7.623   9.874  0.1739  0.0418  0.3224
 1001MOL0     C38066   8.783   7.134   9.406 -0.0544  0.5160  0.6299
 1001MOL0     C38067   8.794   6.989   9.402  0.1157  0.4071 -0.2245
 1001MOL0     C38068   8.661   6.914   9.349 -0.2515 -1.0639  0.5379
 1001MOL0     H38069   8.921   6.532   9.269  2.5395  2.0712 -0.3353
 1001MOL0     H38070   8.893   6.292   9.285 -0.8576  0.5261  0.1871
 1001MOL0     H38071   9.076   5.985   9.465  2.8548 -0.8582 -2.1697
 1001MOL0     H38072   9.110   6.113   9.353 -0.0431 -3.5118 -1.5824
 1001MOL0     H38073   8.915   6.066   9.232 -0.8693  0.3837  0.9240
 1001MOL0     H38074   8.990   5.917   9.250  1.5556  0.9519 -0.4539
 1001MOL0     H38075   8.764   6.025   9.419  0.1448  0.9975 -2.5741
 1001MOL0     H38076   8.754   5.907   9.282 -0.9315  1.2757 -1.1100
 1001MOL0     H38077   8.901   5.757   9.432  0.7888 -1.0371  1.9206
 1001MOL0     H38078   8.879   5.856   9.565  0.0170 -0.1123 -0.6887
 1001MOL0     H38079   8.625   5.824   9.530  2.3695  1.3010  2.5681
 1001MOL0     H38080   8.719   5.678   9.577  1.3467  0.1950 -0.3682
 1001MOL0     H38081   8.566   5.622   9.429  1.1940  0.4849  2.7652
 1001MOL0     H38082   8.625   5.731   9.291  1.0023 -0.1537 -0.4376
 1001MOL0     H38083   8.780   5.502   9.432 -0.8724 -0.0284  0.5254
 1001MOL0     H38084   8.841   5.582   9.296  1.3130  2.0439  3.1392
 1001MOL0     H38085   8.591   5.415   9.284  1.0505 -1.1864  0.1924
 1001MOL0     H38086   8.658   5.508   9.153  2.8093  2.0579 -0.5954
 1001MOL0     H38087   8.808   5.234   9.398  3.4493 -1.4297  0.0851
 1001MOL0     H38088   8.989   5.006   9.157  0.2819 -0.0906  0.4091
 1001MOL0     H38089   8.911   4.992   9.303  0.8241 -1.0845 -0.9287
 1001MOL0     H38090   9.140   5.184   9.309 -1.8195  0.3680 -1.7226
 1001MOL0     H38091   9.089   5.060   9.427  1.5129 -2.4810 -0.4927
 1001MOL0     H38092   9.303   4.971   9.329  1.6379 -0.2707 -1.0840
 1001MOL0     H38093   9.182   4.875   9.259 -2.3110  0.6344  1.5344
 1001MOL0     H38094   9.183   5.061   9.060 -0.2855  0.8543  0.0489
 1001MOL0     H38095   9.318   5.131   9.138 -0.9240 -0.0848 -2.9962
 1001MOL0     H38096   9.458   4.688   9.052  3.0229 -0.6293 -1.3166
 1001MOL0     H38097   9.742   4.536   9.143  0.8733 -0.7413  2.6066
 1001MOL0     H38098   9.573   4.517   9.116  3.1007 -0.8370 -3.1455
 1001MOL0     H38099   9.636   4.519   9.283 -2.2090 -1.2273 -0.5353
 1001MOL0     H38100  10.008   4.941   9.610 -3.1604 -2.3333 -2.0110
 1001MOL0     H38101  10.253   4.898   9.699 -3.4828  0.1321  1.8664
 1001MOL0     H38102  10.407   4.540   9.522  1.1754 -0.9910  0.0407
 1001MOL0     H38103  10.559   4.635   9.517 -1.8268  4.5523 -0.7074
 1001MOL0     H38104  10.407   4.543   9.759 -0.3365 -2.9569 -1.9466
 1001MOL0     H38105  10.540   4.447   9.696 -1.9653 -2.2595  1.0005
 1001MOL0     H38106  10.582   4.579   9.899  0.0323  0.7375  0.5163
 1001MOL0     H38107  10.545   4.724   9.825  2.1443  0.2443  1.0417
 1001MOL0     H38108  10.738   4.739   9.692 -2.2322  2.4796  3.6047
 1001MOL0     H38109  10.773   4.552   9.705  2.1587 -0.1863 -0.0996
 1001MOL0     H38110  10.807   4.758   9.923 -2.8272 -0.8305 -0.0125
 1001MOL0     H38111  10.834   4.584   9.931  1.0975  0.5781  0.5035
 1001MOL0     H38112  11.027   4.758   9.904  1.9516 -0.8915 -0.2046
 1001MOL0     H38113  10.985   4.734   9.727 -1.2082 -0.1679  0.2316
 1001MOL0     H38114  11.010   4.487   9.794  1.2690  0.5044 -3.0106
 1001MOL0     H38115  11.068   4.545   9.951 -0.7819 -0.1659 -1.4729
 1001MOL0     H38116  11.247   4.481   9.832 -3.7029 -1.7257  1.8816
 1001MOL0     H38117  11.251   4.663   9.822 -0.7148  1.7426 -0.9013
 1001MOL0     H38118  10.332   4.693   9.327 -1.7426 -0.9858 -2.7494
 1001MOL0     H38119  10.121   4.761   9.235  2.9603 -1.6763 -0.3409
 1001MOL0     H38120   9.724   4.995   9.321 -0.1377 -0.0423 -0.3693
 1001MOL0     H38121   9.527   5.076   9.228  2.9194  0.9953 -0.3445
 1001MOL0     H38122   9.098   6.301   9.668  0.3950  0.5171 -0.4418
 1001MOL0     H38123   9.128   6.562   9.639 -1.1156  2.8046 -1.5723
 1001MOL0     H38124   9.113   6.945   9.508  0.1090  1.7192  0.4463
 1001MOL0     H38125   9.096   7.201   9.505 -1.5619  1.6182  3.2324
 1001MOL0     H38126   9.064   7.408   9.396 -0.3186 -0.9078 -0.2197
 1001MOL0     H38127   8.944   7.544   9.410  2.0898  1.1379  1.3506
 1001MOL0     H38128   9.120   7.524   9.592 -0.2316  1.3564 -4.8118
 1001MOL0     H38129   9.058   7.366   9.626 -2.2509  0.1239  0.2791
 1001MOL0     H38130   8.908   7.629   9.664  0.2849 -0.3130 -1.3744
 1001MOL0     H38131   8.818   7.477   9.672 -0.2148  1.2479 -3.6681
 1001MOL0     H38132   8.976   7.417   9.866 -2.3871  0.6868  1.4281
 1001MOL0     H38133   8.900   7.577   9.886 -0.4656  1.3823 -2.2153
 1001MOL0     H38134   9.327   7.655   9.882 -0.0175  0.3265  2.2702
 1001MOL0     H38135   8.684   7.178   9.408 -0.1853  0.2622  2.8592
 1001MOL0     H38136   8.682   6.819   9.300  0.4330 -0.3638 -0.5410
 1001MOL0     H38137   8.579   6.887   9.417 -1.9115 -1.5786 -1.5596
 1001MOL0     H38138   8.608   6.982   9.282 -0.3194 -0.4049  1.2396
 1002MOL0     O38139   0.578   5.700   8.963 -0.3967  0.7479  0.2684
 1002MOL0     C38140   0.530   5.808   8.964  0.0672  0.5288  0.2258
 1002MOL0     O38141   0.452   5.863   8.872  0.2023  0.7025  0.7795
 1002MOL0     C38142   0.458   5.812   8.747  0.3293  0.4386 -0.4794
 1002MOL0     C38143   0.335   5.765   8.704 -0.3534  0.3737  0.5225
 1002MOL0     C38144   0.311   5.710   8.574  0.4483  0.1126 -0.3245
 1002MOL0     C38145   0.420   5.706   8.486 -0.6278 -0.1206  1.3651
 1002MOL0     O38146   0.429   5.638   8.366  0.3231  0.2265  0.1108
 1002MOL0     C38147   0.325   5.554   8.313  0.3827 -0.5255  0.8831
 1002MOL0     C38148   0.394   5.475   8.203  0.2827 -0.3651  0.3928
 1002MOL0     C38149   0.462   5.549   8.085 -0.6026 -0.1626 -0.1195
 1002MOL0     C38150   0.492   5.457   7.964 -0.0611  1.1677 -1.0116
 1002MOL0     C38151   0.582   5.517   7.858 -0.6734  0.1171 -0.2509
 1002MOL0     C38152   0.560   5.659   7.801 -1.1253 -0.2558  0.4834
 1002MOL0     C38153   0.655   5.691   7.686  0.2375  0.3855  0.5083
 1002MOL0     C38154   0.615   5.811   7.600 -0.0081 -0.0692 -0.8094
 1002MOL0     N38155   0.735   5.880   7.543 -0.0107 -0.0400  0.6011
 1002MOL0     C38156   0.856   5.830   7.516  0.5937  0.2285  0.1182
 1002MOL0     C38157   0.940   5.936   7.491  0.0482 -0.2170  0.6143
 1002MOL0     C38158   1.078   5.921   7.449  0.3739 -0.4340  0.5531
 1002MOL0     C38159   1.099   5.834   7.327  0.4432 -0.2442 -0.2058
 1002MOL0     C38160   1.249   5.774   7.340  0.0586 -0.9053  0.1670
 1002MOL0     C38161   1.291   5.727   7.202  0.3900  0.9008 -1.0892
 1002MOL0     O38162   1.323   5.835   7.120 -0.9573 -0.4146  0.3926
 1002MOL0     C38163   1.325   5.800   6.990 -1.0814  0.4034 -0.1008
 1002MOL0     C38164   1.266   5.882   6.899 -0.4366 -1.1758  0.0336
 1002MOL0     C38165   1.261   5.861   6.763 -1.1201  0.1220 -0.3810
 1002MOL0     C38166   1.188   5.955   6.676  0.2405 -0.8322 -0.5077
 1002MOL0     C38167   1.350   5.759   6.718 -0.4703 -0.4988  0.4517
 1002MOL0     C38168   1.370   5.729   6.568  0.0572  0.8006 -0.4220
 1002MOL0     O38169   1.332   5.817   6.473 -0.3961  0.3488 -0.4989
 1002MOL0     C38170   1.357   5.782   6.335  0.9341  0.3900 -0.0413
 1002MOL0     C38171   1.273   5.849   6.250  0.1842 -0.2078  0.2183
 1002MOL0     C38172   1.316   5.852   6.114 -0.0621  0.3329 -0.0816
 1002MOL0     C38173   1.426   5.772   6.073  0.4274 -0.6428  0.2555
 1002MOL0     O38174   1.447   5.754   5.940  0.2580  0.2663 -0.7342
 1002MOL0     C38175   1.347   5.668   5.878 -0.0626 -0.3168 -0.2182
 1002MOL0     C38176   1.314   5.687   5.739  0.3069 -0.3177 -0.3572
 1002MOL0     C38177   1.232   5.820   5.712  0.5035  0.0882 -0.3669
 1002MOL0     C38178   1.097   5.849   5.768  0.4518  1.2243 -0.2651
 1002MOL0     C38179   1.026   5.975   5.703 -0.4434 -0.7387 -0.8814
 1002MOL0     C38180   1.087   6.120   5.720 -0.3103 -0.3933 -0.5363
 1002MOL0     C38181   1.113   6.149   5.870  0.3095  0.4284  0.2661
 1002MOL0     C38182   1.130   6.290   5.920  0.0825 -0.4092  0.3623
 1002MOL0    Cl38183   1.176   6.282   6.101 -0.3904  0.5696  0.1368
 1002MOL0     C38184   1.502   5.698   6.161  0.0575 -0.4592 -0.6112
 1002MOL0     C38185   1.477   5.715   6.296  0.1583  0.1601  0.4580
 1002MOL0     O38186   1.397   5.611   6.533  0.0814 -1.3714  0.1302
 1002MOL0     C38187   1.420   5.670   6.807 -0.3825 -0.2478  0.0742
 1002MOL0     C38188   1.407   5.692   6.947 -0.3239 -0.0726  0.1125
 1002MOL0     N38189   0.859   6.050   7.499 -0.4120 -0.4856 -0.2422
 1002MOL0     N38190   0.739   6.015   7.525  0.5778 -0.1907  0.4229
 1002MOL0     C38191   0.550   5.762   8.528  0.6644  0.4227  0.0706
 1002MOL0     C38192   0.562   5.811   8.655  0.2225  1.0778 -0.9009
 1002MOL0     C38193   0.557   5.889   9.091 -0.7265  0.1173  0.3830
 1002MOL0     C38194   0.485   6.004   9.122 -1.0239 -0.2072  0.3539
 1002MOL0     C38195   0.507   6.074   9.240  0.0151 -0.7754  0.2935
 1002MOL0     C38196   0.617   6.058   9.328 -1.1173  0.1628  0.1913
 1002MOL0     O38197   0.658   6.135   9.434  0.6270 -0.2209 -0.1740
 1002MOL0     C38198   0.576   6.263   9.443 -0.3196 -0.6416  0.3203
 1002MOL0     C38199   0.629   6.368   9.540 -0.4043  0.2530  0.7569
 1002MOL0     C38200   0.658   6.508   9.486 -0.7452  0.1633 -0.3141
 1002MOL0     C38201   0.699   6.607   9.591  0.3232 -0.4438  0.1463
 1002MOL0     C38202   0.587   6.639   9.683  0.8756  0.5353 -0.7944
 1002MOL0     C38203   0.496   6.666   9.766  0.2671  0.0226  0.6058
 1002MOL0     C38204   0.690   5.940   9.294 -0.4426  0.5373 -0.1384
 1002MOL0     C38205   0.661   5.854   9.189 -0.1185  0.4234 -0.3538
 1002MOL0     C38206   0.772   5.746   9.168  0.1299 -0.2442  0.2344
 1002MOL0     H38207   0.255   5.766   8.777 -0.5572  0.8652  0.2982
 1002MOL0     H38208   0.212   5.676   8.548  1.2119  0.0406 -3.5600
 1002MOL0     H38209   0.244   5.608   8.264 -0.0155  1.8476  3.8309
 1002MOL0     H38210   0.277   5.489   8.387 -0.1580 -2.0402 -0.7377
 1002MOL0     H38211   0.478   5.419   8.244  2.6486  2.7107  0.0859
 1002MOL0     H38212   0.322   5.406   8.158  0.3532  1.1726 -2.3053
 1002MOL0     H38213   0.395   5.632   8.061  0.4309  0.3384 -1.3876
 1002MOL0     H38214   0.549   5.596   8.133 -1.7046  1.0439  0.7774
 1002MOL0     H38215   0.545   5.373   8.011 -2.0996  0.9125  1.0339
 1002MOL0     H38216   0.403   5.418   7.914 -0.3486  1.8353 -1.0283
 1002MOL0     H38217   0.581   5.452   7.769 -0.9177  0.9629 -0.8819
 1002MOL0     H38218   0.678   5.522   7.909 -2.0920  1.6999  2.4568
 1002MOL0     H38219   0.456   5.667   7.768 -0.5849 -0.5071 -1.3973
 1002MOL0     H38220   0.578   5.729   7.884 -0.0556 -0.8582  0.7800
 1002MOL0     H38221   0.675   5.604   7.623  0.4555  0.4724  0.4552
 1002MOL0     H38222   0.752   5.710   7.733  0.0896  1.9488  0.2658
 1002MOL0     H38223   0.544   5.781   7.522 -0.9111 -1.4198  0.4752
 1002MOL0     H38224   0.554   5.883   7.656 -1.4058 -2.9909  1.7160
 1002MOL0     H38225   0.882   5.726   7.495 -2.3775 -1.1016  2.2990
 1002MOL0     H38226   1.136   5.900   7.540 -0.1378  0.8279  1.1873
 1002MOL0     H38227   1.106   6.020   7.411  1.9675 -1.7058 -1.8412
 1002MOL0     H38228   1.034   5.746   7.322  0.3699 -0.2545  0.8371
 1002MOL0     H38229   1.075   5.895   7.239 -1.7106  1.1053  1.2212
 1002MOL0     H38230   1.309   5.861   7.366 -2.9969  1.7823 -1.0441
 1002MOL0     H38231   1.250   5.689   7.409 -0.3953  1.8105  3.8181
 1002MOL0     H38232   1.388   5.679   7.214  0.2104  1.0487  1.4965
 1002MOL0     H38233   1.210   5.673   7.152 -1.0580  3.4554 -1.6932
 1002MOL0     H38234   1.213   5.969   6.937 -0.3095 -1.0042 -0.1824
 1002MOL0     H38235   1.133   5.899   6.600 -4.0917 -2.3026  3.1992
 1002MOL0     H38236   1.251   6.016   6.610  0.3533 -0.8195 -0.3885
 1002MOL0     H38237   1.115   6.021   6.723  0.8988  2.4671 -3.6743
 1002MOL0     H38238   1.196   5.916   6.286  0.6513  0.1276  0.6154
 1002MOL0     H38239   1.262   5.910   6.039  0.2670  1.2300  0.3561
 1002MOL0     H38240   1.403   5.574   5.879  1.4154  0.4592 -2.3606
 1002MOL0     H38241   1.250   5.662   5.927  0.0310 -3.3206 -0.2138
 1002MOL0     H38242   1.408   5.683   5.683 -0.2857  0.8494 -1.4834
 1002MOL0     H38243   1.256   5.598   5.714  0.7518 -1.1800  1.4631
 1002MOL0     H38244   1.213   5.822   5.604  1.5374 -2.0053 -0.6407
 1002MOL0     H38245   1.294   5.903   5.747 -0.2764  0.5467 -0.0678
 1002MOL0     H38246   1.117   5.870   5.873 -0.4189  0.9056 -0.0291
 1002MOL0     H38247   1.031   5.762   5.763  0.0795  1.5845 -2.8008
 1002MOL0     H38248   1.007   5.950   5.598 -1.6489 -0.0111 -0.8612
 1002MOL0     H38249   0.923   5.972   5.740 -0.7889  0.4067 -1.6959
 1002MOL0     H38250   1.023   6.203   5.688 -1.0052 -0.6112  0.2431
 1002MOL0     H38251   1.186   6.114   5.673 -0.7249 -2.2459 -1.2402
 1002MOL0     H38252   1.204   6.096   5.902 -0.5033 -0.6931  0.7983
 1002MOL0     H38253   1.040   6.088   5.924  1.1762 -0.8276  0.0666
 1002MOL0     H38254   1.029   6.332   5.920 -1.4822 -3.8028 -0.7907
 1002MOL0     H38255   1.198   6.347   5.857  0.3777  1.6952  2.4507
 1002MOL0     H38256   1.582   5.634   6.125 -0.7750 -0.7234 -2.0770
 1002MOL0     H38257   1.553   5.679   6.365  0.0920  2.3213  1.7640
 1002MOL0     H38258   1.494   5.598   6.775  2.4329  1.9058  1.2227
 1002MOL0     H38259   1.462   5.624   7.011 -3.0721 -1.3676  1.2646
 1002MOL0     H38260   0.632   5.773   8.458  1.6323  0.7387  1.2266
 1002MOL0     H38261   0.655   5.860   8.683  1.8050 -0.5942 -2.8993
 1002MOL0     H38262   0.407   6.025   9.050  0.6881 -0.5847 -1.7188
 1002MOL0     H38263   0.442   6.156   9.267  0.4201 -0.7033  1.0745
 1002MOL0     H38264   0.593   6.319   9.350 -1.9261  0.0519  0.4148
 1002MOL0     H38265   0.475   6.232   9.470  0.5947 -1.4111  3.2595
 1002MOL0     H38266   0.722   6.323   9.576  0.1535 -0.5317 -1.5309
 1002MOL0     H38267   0.552   6.369   9.618 -2.9402  0.8631 -1.5881
 1002MOL0     H38268   0.739   6.492   9.415 -0.1725  0.0224  0.3658
 1002MOL0     H38269   0.575   6.543   9.424 -0.1657 -0.6800 -1.6024
 1002MOL0     H38270   0.728   6.696   9.535 -4.1862  0.4428 -1.1657
 1002MOL0     H38271   0.787   6.573   9.647 -0.8591  2.0566  3.8326
 1002MOL0     H38272   0.415   6.690   9.831 -1.0041  1.4625 -1.3848
 1002MOL0     H38273   0.780   5.911   9.348 -0.6937  2.3518  1.3857
 1002MOL0     H38274   0.864   5.803   9.145 -1.4672  2.5136  0.2113
 1002MOL0     H38275   0.790   5.693   9.262 -1.1992  0.0770  0.6891
 1002MOL0     H38276   0.765   5.665   9.094  0.0725 -0.2704  0.2687
 1003MOL0     O38277   5.618   7.718   1.964  0.3287  0.4760  0.3530
 1003MOL0     C38278   5.685   7.628   2.001 -0.1219 -0.5204 -1.1786
 1003MOL0     O38279   5.694   7.505   1.945 -0.7627 -0.5841 -0.0570
 1003MOL0     C38280   5.600   7.450   1.861  0.5200 -0.5935 -0.4275
 1003MOL0     C38281   5.465   7.497   1.860 -0.2701  0.8976  0.2720
 1003MOL0     C38282   5.372   7.432   1.782 -0.3713  0.1736 -0.5660
 1003MOL0     C38283   5.399   7.317   1.702 -0.6886  0.4743  0.0428
 1003MOL0     O38284   5.319   7.259   1.609  0.3080 -0.4403 -0.4384
 1003MOL0     C38285   5.210   7.199   1.668  1.6314  0.3780 -0.0358
 1003MOL0     C38286   5.096   7.184   1.567  0.0759  0.2716  0.5134
 1003MOL0     C38287   4.957   7.211   1.628  0.2700  0.1431 -0.2257
 1003MOL0     C38288   4.839   7.218   1.524 -0.7152 -0.0605  0.0292
 1003MOL0     C38289   4.824   7.371   1.476  0.1781  0.7485 -0.5843
 1003MOL0     C38290   4.701   7.370   1.393  0.6001 -0.1099 -0.2557
 1003MOL0     C38291   4.670   7.516   1.321  0.3017  0.0055  0.2726
 1003MOL0     C38292   4.778   7.540   1.211 -0.3594  0.3813  0.3469
 1003MOL0     N38293   4.806   7.434   1.111  0.3983  0.0074 -0.1650
 1003MOL0     C38294   4.700   7.384   1.036 -0.1062 -0.3669 -0.7865
 1003MOL0     C38295   4.763   7.295   0.961  0.6644  0.6996  0.1553
 1003MOL0     C38296   4.701   7.209   0.852 -0.0676 -0.1568  0.4043
 1003MOL0     C38297   4.736   7.265   0.711 -0.2455  0.1076  0.2939
 1003MOL0     C38298   4.661   7.174   0.608 -0.1879  0.2899 -0.3396
 1003MOL0     C38299   4.746   7.177   0.476 -0.4572  0.5456 -0.1202
 1003MOL0     O38300   4.675   7.095   0.378 -0.5490 -0.2993 -0.3508
 1003MOL0     C38301   4.652   7.158   0.257  0.1893  0.9416 -0.4165
 1003MOL0     C38302   4.660   7.290   0.214 -0.5215  0.0724 -0.5539
 1003MOL0     C38303   4.644   7.322   0.078 -0.2172  0.2513  0.5287
 1003MOL0     C38304   4.665   7.470   0.041 -1.2257 -0.6306 -0.2512
 1003MOL0     C38305   4.610   7.221  -0.012  0.3607 -0.2651  0.1693
 1003MOL0     C38306   4.591   7.253  -0.152 -0.1600  0.6052 -0.5858
 1003MOL0     O38307   4.551   7.373  -0.195 -0.5924  0.2198 -0.1675
 1003MOL0     C38308   4.531   7.410  -0.323 -0.6626  0.2684  0.2770
 1003MOL0     C38309   4.557   7.542  -0.351  0.6814 -0.8605  0.7985
 1003MOL0     C38310   4.520   7.605  -0.470 -0.3578 -0.3520  0.1082
 1003MOL0     C38311   4.453   7.532  -0.569  0.9667 -1.3307 -0.0040
 1003MOL0     O38312   4.407   7.610  -0.676 -0.0285 -0.4546  0.3677
 1003MOL0     C38313   4.342   7.538  -0.791 -0.0742  0.1364 -0.1715
 1003MOL0     C38314   4.371   7.612  -0.922 -0.6366  0.1388  0.4250
 1003MOL0     C38315   4.306   7.544  -1.050 -0.2950  0.5701 -0.6201
 1003MOL0     C38316   4.275   7.626  -1.170 -0.5926 -1.0781 -0.7072
 1003MOL0     C38317   4.226   7.542  -1.284  0.1022  0.5762  0.8073
 1003MOL0     C38318   4.334   7.464  -1.378 -0.5397 -0.5422 -0.2840
 1003MOL0     C38319   4.274   7.458  -1.518  0.5603 -0.2933 -0.5864
 1003MOL0     C38320   4.377   7.418  -1.623 -0.7015  0.2838  0.6271
 1003MOL0    Cl38321   4.332   7.482  -1.789 -0.0861 -0.4032 -0.3047
 1003MOL0     C38322   4.401   7.405  -0.529 -0.0166 -1.0442  0.4076
 1003MOL0     C38323   4.443   7.345  -0.409  0.1352 -0.2861  1.0852
 1003MOL0     O38324   4.612   7.156  -0.230  0.1367  1.0345  0.3087
 1003MOL0     C38325   4.587   7.096   0.038  0.1497  0.6832 -0.1367
 1003MOL0     C38326   4.606   7.063   0.167  0.4473 -0.0429  0.3148
 1003MOL0     N38327   4.898   7.293   0.978 -0.3172  0.2988  0.4817
 1003MOL0     N38328   4.925   7.384   1.067 -1.0807  0.2567  1.2388
 1003MOL0     C38329   5.531   7.272   1.701  0.7581 -0.3628 -0.5605
 1003MOL0     C38330   5.625   7.339   1.783  0.3588  0.0737  0.2692
 1003MOL0     C38331   5.795   7.661   2.106  0.3289 -0.1637  0.3559
 1003MOL0     C38332   5.879   7.550   2.141 -0.2039 -0.9067  0.0549
 1003MOL0     C38333   5.989   7.558   2.230 -0.5480 -0.3378 -0.1087
 1003MOL0     C38334   6.018   7.682   2.298 -0.5011 -0.1898  0.4715
 1003MOL0     O38335   6.141   7.686   2.358  0.3808 -0.3681 -0.5912
 1003MOL0     C38336   6.168   7.794   2.453  0.7676 -0.5144 -0.2351
 1003MOL0     C38337   6.305   7.776   2.494  0.4084  0.6711  0.4918
 1003MOL0     C38338   6.363   7.896   2.581 -0.4900  0.5560 -0.0529
 1003MOL0     C38339   6.283   7.905   2.717  0.7835 -1.0020 -0.2632
 1003MOL0     C38340   6.191   8.022   2.728  0.2101  0.2966 -0.2499
 1003MOL0     C38341   6.114   8.107   2.755  0.1285 -0.3143  0.6168
 1003MOL0     C38342   5.940   7.797   2.267 -0.5609  0.2841 -0.5543
 1003MOL0     C38343   5.826   7.786   2.173  0.3305 -0.6974  0.0665
 1003MOL0     C38344   5.739   7.916   2.141 -0.9540  1.0503 -0.3486
 1003MOL0     H38345   5.444   7.584   1.922 -1.4682 -0.2565  1.5401
 1003MOL0     H38346   5.275   7.477   1.770 -0.8721 -0.5800  0.4692
 1003MOL0     H38347   5.180   7.244   1.763 -1.3454  0.8465 -1.0997
 1003MOL0     H38348   5.245   7.100   1.700  0.2352  0.1778  1.0040
 1003MOL0     H38349   5.125   7.249   1.485 -1.5133 -0.4379 -0.6676
 1003MOL0     H38350   5.100   7.086   1.519 -0.1198  0.1593  0.7207
 1003MOL0     H38351   4.930   7.131   1.697 -4.3704 -0.5657 -2.4744
 1003MOL0     H38352   4.954   7.306   1.681 -1.9037 -0.3639  0.6473
 1003MOL0     H38353   4.859   7.154   1.438 -1.3599 -2.3618  1.5265
 1003MOL0     H38354   4.756   7.190   1.589  1.3198 -1.2914  2.2527
 1003MOL0     H38355   4.912   7.400   1.418  0.3156  3.1382  0.6824
 1003MOL0     H38356   4.804   7.440   1.558  0.8822 -0.1807  0.4123
 1003MOL0     H38357   4.702   7.290   1.319 -1.8681 -0.7768  0.3470
 1003MOL0     H38358   4.614   7.348   1.457 -1.7826  0.4811 -3.0804
 1003MOL0     H38359   4.671   7.590   1.402  0.2164 -0.3544  0.6011
 1003MOL0     H38360   4.566   7.502   1.290 -0.7704  1.0664  3.0331
 1003MOL0     H38361   4.752   7.630   1.154  2.3414  0.9198 -0.1844
 1003MOL0     H38362   4.874   7.561   1.260  1.2439  1.3270 -2.8711
 1003MOL0     H38363   4.596   7.414   1.034 -0.6634 -1.7710  1.9840
 1003MOL0     H38364   4.591   7.210   0.848 -0.1155  2.2516 -3.0480
 1003MOL0     H38365   4.744   7.110   0.869  3.2561  1.4822  2.5125
 1003MOL0     H38366   4.712   7.372   0.704  1.1768  0.3816 -0.7172
 1003MOL0     H38367   4.844   7.255   0.698 -0.0043  2.7758 -0.3673
 1003MOL0     H38368   4.661   7.066   0.626 -0.7963 -0.4280 -3.8439
 1003MOL0     H38369   4.559   7.210   0.592 -0.1074 -0.0515 -1.7614
 1003MOL0     H38370   4.758   7.280   0.443 -1.5701  0.9768  0.7430
 1003MOL0     H38371   4.842   7.127   0.486 -0.7210  0.4510  2.8800
 1003MOL0     H38372   4.679   7.371   0.283 -3.0111 -0.8529  1.3541
 1003MOL0     H38373   4.738   7.497  -0.036 -1.3887  2.1351  0.4443
 1003MOL0     H38374   4.694   7.524   0.132  1.8206 -2.0247 -0.2726
 1003MOL0     H38375   4.577   7.518  -0.002  1.0796  2.4350 -2.0162
 1003MOL0     H38376   4.610   7.594  -0.273  1.8650 -0.1548 -0.4274
 1003MOL0     H38377   4.524   7.712  -0.485 -1.1233 -0.6933 -3.2157
 1003MOL0     H38378   4.405   7.451  -0.810 -0.5487 -0.6527  1.7142
 1003MOL0     H38379   4.242   7.496  -0.776 -0.3409  1.5468  2.6151
 1003MOL0     H38380   4.341   7.716  -0.909  2.0763  0.9557  0.6937
 1003MOL0     H38381   4.478   7.622  -0.941 -0.7723 -0.3040 -0.6371
 1003MOL0     H38382   4.208   7.513  -1.010  0.3637  0.3918  0.9307
 1003MOL0     H38383   4.356   7.451  -1.079 -0.3227  0.5238 -0.5236
 1003MOL0     H38384   4.365   7.679  -1.204  0.1408 -0.1396  2.3246
 1003MOL0     H38385   4.212   7.702  -1.121  1.3256 -0.2413  0.6254
 1003MOL0     H38386   4.147   7.470  -1.258 -0.3013  0.7600  0.1203
 1003MOL0     H38387   4.180   7.622  -1.343  0.0175  0.6993  1.0374
 1003MOL0     H38388   4.342   7.363  -1.337  2.4674 -1.7751 -3.4448
 1003MOL0     H38389   4.429   7.515  -1.359 -0.8361 -0.0393 -0.1255
 1003MOL0     H38390   4.255   7.564  -1.540  2.1811  0.7364  2.3777
 1003MOL0     H38391   4.185   7.396  -1.522  3.5605 -5.3235  1.6888
 1003MOL0     H38392   4.390   7.309  -1.621 -0.1896  0.3502  1.3625
 1003MOL0     H38393   4.475   7.457  -1.592  0.9642  0.8677 -4.3339
 1003MOL0     H38394   4.325   7.346  -0.579 -1.5839  0.0886  1.3446
 1003MOL0     H38395   4.391   7.254  -0.383 -1.8901  0.5418  0.1820
 1003MOL0     H38396   4.558   7.022  -0.036 -0.0498  0.1349  0.4747
 1003MOL0     H38397   4.587   6.961   0.198  0.7064 -0.6910 -1.5573
 1003MOL0     H38398   5.554   7.181   1.645 -0.3664  0.3587 -2.2624
 1003MOL0     H38399   5.732   7.320   1.775  0.5037 -0.4898  2.7553
 1003MOL0     H38400   5.860   7.454   2.094  1.9148 -1.1718 -0.3626
 1003MOL0     H38401   6.059   7.478   2.249 -0.2334 -0.0198  0.0734
 1003MOL0     H38402   6.165   7.889   2.398  2.6930  0.2653  0.9038
 1003MOL0     H38403   6.095   7.773   2.532  0.3414  0.4058 -0.3703
 1003MOL0     H38404   6.358   7.778   2.398  0.9076  4.9171  0.6624
 1003MOL0     H38405   6.320   7.677   2.537  1.4546 -1.1038 -3.4855
 1003MOL0     H38406   6.468   7.867   2.596  0.3388  3.2280 -0.1558
 1003MOL0     H38407   6.362   7.998   2.541  0.5817  0.8830  0.7093
 1003MOL0     H38408   6.352   7.905   2.801  2.8438  1.9890 -1.7937
 1003MOL0     H38409   6.217   7.817   2.713  1.2047 -1.2873 -1.2814
 1003MOL0     H38410   6.042   8.182   2.782 -1.3625 -1.3131 -0.4119
 1003MOL0     H38411   5.978   7.892   2.301  0.8393 -0.7328  0.8884
 1003MOL0     H38412   5.796   7.998   2.186  2.1960 -0.0774 -1.9745
 1003MOL0     H38413   5.730   7.934   2.034 -0.0113  0.7612 -0.4871
 1003MOL0     H38414   5.639   7.916   2.185 -1.5947  1.7980 -1.7668
 1004MOL0     O38415   2.856   3.216   8.642 -0.1506  0.1611  0.3652
 1004MOL0     C38416   2.751   3.275   8.608 -0.4269  0.2234  0.8267
 1004MOL0     O38417   2.693   3.267   8.481  0.0289 -0.3016 -0.6666
 1004MOL0     C38418   2.757   3.221   8.377 -0.3144  0.4393 -0.0400
 1004MOL0     C38419   2.789   3.087   8.354 -0.1894  0.8700  0.0761
 1004MOL0     C38420   2.866   3.042   8.247  0.2383 -0.0711 -0.2641
 1004MOL0     C38421   2.914   3.133   8.157  0.2062 -0.2793  0.1898
 1004MOL0     O38422   3.008   3.108   8.068 -0.1233  0.6604  0.7677
 1004MOL0     C38423   3.034   2.975   8.027 -0.4104  0.6706  0.5991
 1004MOL0     C38424   3.153   2.973   7.934 -0.6858  1.0419 -0.7638
 1004MOL0     C38425   3.164   3.080   7.832  1.2485  0.0306 -0.0760
 1004MOL0     C38426   3.287   3.052   7.739 -0.4436  0.2574 -0.6009
 1004MOL0     C38427   3.287   3.162   7.627 -0.5549  0.1812 -0.3512
 1004MOL0     C38428   3.388   3.134   7.517 -0.2123  0.2161 -0.8575
 1004MOL0     C38429   3.528   3.097   7.554 -0.3442 -0.9558 -0.8138
 1004MOL0     C38430   3.635   3.123   7.447  0.2569 -0.2013  0.1883
 1004MOL0     N38431   3.641   3.252   7.391 -0.0204 -0.5839  0.4911
 1004MOL0     C38432   3.731   3.347   7.429 -0.2015  0.6398 -0.4762
 1004MOL0     C38433   3.735   3.432   7.320 -0.0358  0.2449 -0.5008
 1004MOL0     C38434   3.836   3.536   7.304 -0.2201 -0.1688 -0.8636
 1004MOL0     C38435   3.957   3.500   7.228  0.6980  0.7993 -0.1948
 1004MOL0     C38436   4.033   3.387   7.287 -0.3038  0.3143 -0.4623
 1004MOL0     C38437   4.125   3.410   7.411  0.2619 -0.1836  0.6347
 1004MOL0     O38438   4.047   3.428   7.526  0.1475  0.2873 -0.3198
 1004MOL0     C38439   4.112   3.406   7.649  0.6054 -0.5420  0.1415
 1004MOL0     C38440   4.252   3.413   7.669  0.9121  0.1871 -1.1687
 1004MOL0     C38441   4.302   3.392   7.805  0.7127 -0.4726 -0.5164
 1004MOL0     C38442   4.452   3.418   7.821  0.9842  0.6020  0.3688
 1004MOL0     C38443   4.220   3.333   7.906  0.0948  0.0773  0.4672
 1004MOL0     C38444   4.259   3.291   8.045  0.6706 -0.6107  0.1642
 1004MOL0     O38445   4.375   3.330   8.095 -0.6524 -1.1080  0.0051
 1004MOL0     C38446   4.413   3.329   8.226 -0.2077  0.0589  0.1908
 1004MOL0     C38447   4.403   3.441   8.308 -0.4658 -0.0362  0.2665
 1004MOL0     C38448   4.455   3.457   8.431  0.3350 -0.1565 -0.5520
 1004MOL0     C38449   4.518   3.342   8.493  0.0327  0.0367  1.0029
 1004MOL0     O38450   4.578   3.340   8.616  0.2634  0.2473  0.0485
 1004MOL0     C38451   4.562   3.465   8.690  0.5654  0.1613 -0.3002
 1004MOL0     C38452   4.613   3.433   8.836  0.6218  0.2718 -0.7816
 1004MOL0     C38453   4.749   3.489   8.846  0.1433 -0.5434 -0.0177
 1004MOL0     C38454   4.788   3.503   8.999  0.0778  0.2147  0.8843
 1004MOL0     C38455   4.917   3.595   9.035 -0.4268 -1.2134 -0.1892
 1004MOL0     C38456   4.935   3.622   9.189  0.2491 -0.0739 -0.0439
 1004MOL0     C38457   5.047   3.722   9.213 -0.1585 -0.2644 -0.0691
 1004MOL0     C38458   5.070   3.754   9.358 -0.0571 -0.0978  0.0153
 1004MOL0    Cl38459   5.188   3.889   9.381  0.3163 -0.4869 -0.1763
 1004MOL0     C38460   4.529   3.228   8.411  0.1901 -0.1442  0.5521
 1004MOL0     C38461   4.483   3.223   8.276  0.1484 -0.1229 -0.6569
 1004MOL0     O38462   4.177   3.229   8.105 -0.1283  0.0636  0.2538
 1004MOL0     C38463   4.083   3.339   7.881 -1.1206 -1.3814 -0.1399
 1004MOL0     C38464   4.025   3.371   7.756 -0.3896 -0.4355  0.4130
 1004MOL0     N38465   3.643   3.397   7.231  0.1883  0.4461 -0.1407
 1004MOL0     N38466   3.585   3.289   7.270  0.3570  0.5313 -0.4412
 1004MOL0     C38467   2.870   3.267   8.170 -0.0402  0.3555 -0.2265
 1004MOL0     C38468   2.799   3.316   8.283 -0.0945  0.2799  0.5240
 1004MOL0     C38469   2.695   3.378   8.695 -0.3953 -0.3627 -0.1518
 1004MOL0     C38470   2.602   3.467   8.643  0.3935  0.4471 -0.9443
 1004MOL0     C38471   2.554   3.577   8.724 -1.7581  0.6489  0.6538
 1004MOL0     C38472   2.598   3.596   8.851 -0.2640 -0.1622  0.8859
 1004MOL0     O38473   2.556   3.707   8.927  0.4463  0.3531 -0.4778
 1004MOL0     C38474   2.411   3.696   8.954 -0.2336  0.6882  0.8594
 1004MOL0     C38475   2.351   3.768   9.076  1.0966  0.8673  1.2857
 1004MOL0     C38476   2.199   3.743   9.076  0.0083  0.0611 -0.2349
 1004MOL0     C38477   2.138   3.679   9.200 -0.3272 -0.9243 -0.4600
 1004MOL0     C38478   2.173   3.764   9.317  0.8157  0.4741  0.6157
 1004MOL0     C38479   2.190   3.829   9.416  0.5040  0.5711 -0.2071
 1004MOL0     C38480   2.683   3.498   8.906 -0.7233 -0.3318  0.1297
 1004MOL0     C38481   2.727   3.382   8.835 -1.0505 -0.6675 -0.0397
 1004MOL0     C38482   2.814   3.285   8.907 -0.3010  0.9294  1.0277
 1004MOL0     H38483   2.764   3.008   8.423  0.2358  1.0722  0.4624
 1004MOL0     H38484   2.880   2.935   8.233  4.0327  0.2022  0.4179
 1004MOL0     H38485   2.955   2.938   7.962 -1.5346  0.3154  2.1106
 1004MOL0     H38486   3.054   2.908   8.112 -1.5875  0.6817  0.8978
 1004MOL0     H38487   3.243   2.983   7.995  0.5788  0.6890 -2.5036
 1004MOL0     H38488   3.149   2.875   7.885 -0.4598  1.2207 -1.1389
 1004MOL0     H38489   3.075   3.078   7.768  0.4938  3.6503  0.6392
 1004MOL0     H38490   3.162   3.181   7.874  3.9958 -0.4240  1.3749
 1004MOL0     H38491   3.380   3.050   7.797  0.1725 -2.9564 -1.5113
 1004MOL0     H38492   3.259   2.961   7.686 -1.7360 -0.0112  0.4899
 1004MOL0     H38493   3.288   3.265   7.663 -4.8282  0.5579 -0.7562
 1004MOL0     H38494   3.189   3.153   7.579 -1.1461 -2.9240  1.2189
 1004MOL0     H38495   3.347   3.048   7.464  2.8933 -3.7065  2.5055
 1004MOL0     H38496   3.393   3.220   7.449 -2.5874 -2.6963 -5.1935
 1004MOL0     H38497   3.530   2.991   7.580 -0.2968 -1.3576 -2.3417
 1004MOL0     H38498   3.559   3.145   7.648 -0.0462 -1.4906 -0.6366
 1004MOL0     H38499   3.732   3.085   7.482  2.1570  3.7737 -0.1617
 1004MOL0     H38500   3.612   3.064   7.357  1.0213 -0.2635  0.0253
 1004MOL0     H38501   3.799   3.356   7.514 -2.0528  2.1927  0.9240
 1004MOL0     H38502   3.865   3.560   7.407 -3.8158 -2.7674  0.9589
 1004MOL0     H38503   3.798   3.626   7.254  0.9414  0.6551 -0.3215
 1004MOL0     H38504   3.923   3.474   7.127 -1.2029  2.2581  0.0124
 1004MOL0     H38505   4.013   3.593   7.226 -0.8191  1.8663  2.3041
 1004MOL0     H38506   3.963   3.306   7.310  0.0416  0.3838  0.9569
 1004MOL0     H38507   4.098   3.356   7.205  1.8561 -1.7115  1.8309
 1004MOL0     H38508   4.201   3.332   7.413  0.1478 -0.2881  2.3489
 1004MOL0     H38509   4.175   3.504   7.386 -2.5402  0.5364 -3.2359
 1004MOL0     H38510   4.312   3.440   7.583  1.7677  1.9349 -0.0781
 1004MOL0     H38511   4.470   3.472   7.914  0.1770  0.2617  0.7359
 1004MOL0     H38512   4.482   3.470   7.730  2.9960 -0.9206  0.0911
 1004MOL0     H38513   4.501   3.320   7.815  0.4297  0.3974 -1.8155
 1004MOL0     H38514   4.356   3.533   8.274 -3.1236 -1.4014 -0.0503
 1004MOL0     H38515   4.425   3.549   8.482  0.8208 -0.7194  0.7975
 1004MOL0     H38516   4.607   3.551   8.639  0.4810  1.2719  1.4314
 1004MOL0     H38517   4.456   3.489   8.697  0.8394  1.0241  1.2055
 1004MOL0     H38518   4.543   3.483   8.904 -1.4589  0.2967 -2.8310
 1004MOL0     H38519   4.621   3.326   8.859  0.3978  0.5094  0.4715
 1004MOL0     H38520   4.747   3.593   8.812 -0.6416 -0.2245  0.9422
 1004MOL0     H38521   4.820   3.429   8.790 -0.4578 -0.4172 -0.9369
 1004MOL0     H38522   4.800   3.406   9.049 -1.2004 -0.5637 -0.2424
 1004MOL0     H38523   4.701   3.550   9.045 -2.0061 -3.2727  0.8609
 1004MOL0     H38524   5.013   3.553   9.004 -0.0438 -0.7131  0.2898
 1004MOL0     H38525   4.912   3.692   8.984 -2.5737 -1.1253  0.0938
 1004MOL0     H38526   4.952   3.534   9.252 -0.4753  1.2651  2.1184
 1004MOL0     H38527   4.840   3.655   9.233  0.6926 -0.8519  1.5719
 1004MOL0     H38528   5.014   3.815   9.164 -2.1443  0.1725  1.9101
 1004MOL0     H38529   5.140   3.690   9.167 -0.7152 -0.6700 -0.9321
 1004MOL0     H38530   5.106   3.661   9.405 -0.5975 -0.5283 -0.4160
 1004MOL0     H38531   4.976   3.779   9.407 -0.6759 -0.4094 -0.9851
 1004MOL0     H38532   4.579   3.142   8.454  1.1807 -0.3745 -0.9642
 1004MOL0     H38533   4.496   3.136   8.213  0.0676 -2.5430  2.4379
 1004MOL0     H38534   4.021   3.323   7.969 -1.2292  1.5218  0.4070
 1004MOL0     H38535   3.919   3.376   7.733  0.1303 -1.2614 -2.6545
 1004MOL0     H38536   2.900   3.333   8.089  0.7890  1.0332  0.6033
 1004MOL0     H38537   2.780   3.422   8.297  2.1974  1.0467 -1.5181
 1004MOL0     H38538   2.563   3.456   8.542  0.8744 -1.3617 -0.9765
 1004MOL0     H38539   2.476   3.641   8.684  0.9736  2.0409 -3.0619
 1004MOL0     H38540   2.364   3.733   8.862 -0.7122  2.4641  1.7712
 1004MOL0     H38541   2.379   3.592   8.965  0.5125  0.0811 -1.9209
 1004MOL0     H38542   2.363   3.877   9.072 -4.6665  1.8459  1.5088
 1004MOL0     H38543   2.390   3.728   9.170  0.5720  1.5848  1.8298
 1004MOL0     H38544   2.155   3.842   9.067  1.2598  1.0139  2.9179
 1004MOL0     H38545   2.162   3.673   8.999  0.4855 -1.2556  0.6916
 1004MOL0     H38546   2.182   3.579   9.209  2.5215  0.3474  1.2351
 1004MOL0     H38547   2.029   3.681   9.191 -0.4823  1.9459  1.0063
 1004MOL0     H38548   2.219   3.888   9.501  0.3325  1.1026 -0.5112
 1004MOL0     H38549   2.713   3.490   9.010 -0.1179 -1.8695 -0.1292
 1004MOL0     H38550   2.782   3.181   8.898  2.1771  0.2105 -0.6491
 1004MOL0     H38551   2.913   3.272   8.862 -2.5076 -1.1472 -3.9517
 1004MOL0     H38552   2.817   3.298   9.015  2.2709 -0.4190  1.1992
 1005MOL0     O38553   4.095   4.792   2.260  0.0649  0.1035  0.5800
 1005MOL0     C38554   4.143   4.850   2.352 -0.2931 -0.1185 -0.4942
 1005MOL0     O38555   4.273   4.855   2.377  0.4464  0.0699  0.1348
 1005MOL0     C38556   4.344   4.743   2.350 -0.1441 -0.8239 -0.5701
 1005MOL0     C38557   4.342   4.651   2.446  0.4951 -0.6739 -0.5975
 1005MOL0     C38558   4.389   4.523   2.421 -1.3116  0.0882 -0.6343
 1005MOL0     C38559   4.446   4.497   2.303  0.0465 -0.2743  0.0171
 1005MOL0     O38560   4.459   4.360   2.285 -0.3336 -0.2024  0.6410
 1005MOL0     C38561   4.561   4.305   2.202  0.6281  0.8700  0.2272
 1005MOL0     C38562   4.698   4.309   2.268  0.5009  0.2006 -0.6152
 1005MOL0     C38563   4.804   4.316   2.168 -0.0772  0.8664 -0.0572
 1005MOL0     C38564   4.939   4.329   2.240  0.3112  0.5018 -0.1466
 1005MOL0     C38565   5.043   4.232   2.170 -0.0173 -0.8660 -0.9421
 1005MOL0     C38566   5.087   4.285   2.038 -0.2047  0.3390  0.4808
 1005MOL0     C38567   5.205   4.195   1.981  0.0098  0.2946 -0.0902
 1005MOL0     C38568   5.276   4.288   1.883 -0.0770  0.0750  0.8623
 1005MOL0     N38569   5.374   4.211   1.803 -0.2828 -0.5802  0.6279
 1005MOL0     C38570   5.505   4.239   1.802 -0.7595 -0.0969 -0.5803
 1005MOL0     C38571   5.547   4.214   1.678 -0.6338 -0.4236 -0.6914
 1005MOL0     C38572   5.688   4.237   1.627 -0.2670  0.1460  0.1000
 1005MOL0     C38573   5.707   4.328   1.509 -0.0515 -0.4770  0.2028
 1005MOL0     C38574   5.649   4.468   1.531  0.2872 -0.3833 -0.2902
 1005MOL0     C38575   5.690   4.562   1.410 -0.3121 -0.6200 -0.0301
 1005MOL0     O38576   5.830   4.587   1.416 -0.2116  0.4175  1.0241
 1005MOL0     C38577   5.870   4.704   1.346  0.1101  0.5676 -0.3134
 1005MOL0     C38578   5.796   4.788   1.262 -0.1286 -0.3417  0.6265
 1005MOL0     C38579   5.837   4.911   1.204  0.5122  0.2114 -0.6315
 1005MOL0     C38580   5.734   4.999   1.141  0.3019  0.3398 -0.5366
 1005MOL0     C38581   5.978   4.948   1.218 -0.2215  0.1135  0.1950
 1005MOL0     C38582   6.033   5.079   1.157 -0.0014  0.4518 -0.6863
 1005MOL0     O38583   5.964   5.120   1.046 -0.2204 -0.0628 -0.0778
 1005MOL0     C38584   5.991   5.219   0.959 -0.1067 -0.3341 -0.1864
 1005MOL0     C38585   5.904   5.329   0.938 -0.1159 -0.6605 -0.3693
 1005MOL0     C38586   5.926   5.414   0.829  0.1050 -0.9288  0.3712
 1005MOL0     C38587   6.041   5.402   0.751  0.8312  0.5374  0.2344
 1005MOL0     O38588   6.069   5.481   0.645 -0.3258 -0.1899 -0.0124
 1005MOL0     C38589   6.037   5.427   0.514 -0.7296  0.2854 -0.0604
 1005MOL0     C38590   5.998   5.534   0.412 -0.5800 -0.2885  0.6271
 1005MOL0     C38591   6.095   5.642   0.393 -0.3025 -0.1959  0.8736
 1005MOL0     C38592   6.066   5.764   0.491  0.6806  0.0746  0.4631
 1005MOL0     C38593   6.178   5.861   0.478  0.5804 -0.1879  0.3035
 1005MOL0     C38594   6.202   5.930   0.332  0.0441  0.2523 -1.0474
 1005MOL0     C38595   6.079   6.003   0.282  0.3661  1.3948  0.5069
 1005MOL0     C38596   6.107   6.147   0.263  1.0823 -0.2686  0.5608
 1005MOL0    Cl38597   6.143   6.218   0.426  0.2344  0.1448  0.1308
 1005MOL0     C38598   6.115   5.291   0.770  0.0965  0.0163  0.0067
 1005MOL0     C38599   6.090   5.200   0.869  0.0123 -0.9616  0.7488
 1005MOL0     O38600   6.120   5.147   1.216 -0.0168  0.4432  0.1433
 1005MOL0     C38601   6.051   4.864   1.310  0.7889 -0.5919  0.1697
 1005MOL0     C38602   5.998   4.752   1.366 -0.3479  0.0569 -0.2852
 1005MOL0     N38603   5.447   4.157   1.607 -0.8355 -1.2440  0.6876
 1005MOL0     N38604   5.337   4.162   1.678  0.4109  0.1163 -1.1695
 1005MOL0     C38605   4.462   4.592   2.200  0.8068  0.1515  0.1925
 1005MOL0     C38606   4.407   4.717   2.226  0.8438  0.3550 -0.2734
 1005MOL0     C38607   4.066   4.956   2.410  0.0735 -0.8661  0.1822
 1005MOL0     C38608   4.123   5.084   2.438 -0.2781  0.6303 -0.6636
 1005MOL0     C38609   4.049   5.193   2.497  0.5269  0.4191 -0.9529
 1005MOL0     C38610   3.922   5.162   2.551  0.5804 -0.9850 -0.4416
 1005MOL0     O38611   3.857   5.254   2.626  0.3252 -0.7672  0.7488
 1005MOL0     C38612   3.934   5.293   2.742  0.0599 -0.2496 -0.6459
 1005MOL0     C38613   3.999   5.428   2.738  0.1979  0.6548 -0.0788
 1005MOL0     C38614   4.080   5.450   2.863 -0.2822  0.3258  0.1904
 1005MOL0     C38615   4.214   5.375   2.878  0.1806  0.3953  0.0079
 1005MOL0     C38616   4.301   5.392   2.767 -1.0345 -0.4159  0.2502
 1005MOL0     C38617   4.385   5.384   2.671  0.1011 -1.0012 -0.1617
 1005MOL0     C38618   3.864   5.045   2.521 -1.3258  0.4521 -0.3519
 1005MOL0     C38619   3.926   4.942   2.450  0.6028  0.3104  0.5765
 1005MOL0     C38620   3.865   4.810   2.429  0.4312  0.2124  0.1286
 1005MOL0     H38621   4.300   4.670   2.545 -0.6388  3.3548 -1.6673
 1005MOL0     H38622   4.391   4.451   2.502  0.9323  1.4062  0.5731
 1005MOL0     H38623   4.557   4.365   2.110 -4.7268 -2.7432 -2.3859
 1005MOL0     H38624   4.538   4.202   2.175 -1.3758  1.1810  0.6016
 1005MOL0     H38625   4.709   4.389   2.341 -1.2294 -0.4493  0.4358
 1005MOL0     H38626   4.718   4.224   2.334 -0.4136 -0.4788 -1.1783
 1005MOL0     H38627   4.796   4.225   2.108 -0.0671 -0.1464  1.4603
 1005MOL0     H38628   4.790   4.403   2.102  0.3244  0.2390 -0.9994
 1005MOL0     H38629   4.985   4.428   2.232  1.6975 -0.1226 -0.1629
 1005MOL0     H38630   4.930   4.303   2.345 -2.2598 -0.7418 -0.6050
 1005MOL0     H38631   5.002   4.133   2.151  2.5328 -2.9129  2.8175
 1005MOL0     H38632   5.131   4.219   2.235 -0.0238 -0.6851 -0.8961
 1005MOL0     H38633   4.997   4.277   1.975 -0.9119 -1.3335  1.6083
 1005MOL0     H38634   5.117   4.390   2.043  0.1632  0.3129 -0.9163
 1005MOL0     H38635   5.171   4.109   1.924 -1.9996  0.8208  0.2565
 1005MOL0     H38636   5.273   4.152   2.056  2.4708  1.5794 -1.4628
 1005MOL0     H38637   5.198   4.328   1.817  0.2781  0.8985  0.9231
 1005MOL0     H38638   5.346   4.362   1.923  1.6102 -0.5739 -0.7628
 1005MOL0     H38639   5.562   4.283   1.882  0.5041 -1.8555 -0.4547
 1005MOL0     H38640   5.732   4.140   1.605  1.2291  0.2475  2.2942
 1005MOL0     H38641   5.745   4.283   1.709  0.6695  1.3999 -1.1856
 1005MOL0     H38642   5.814   4.334   1.485  0.2332 -0.5404  1.3546
 1005MOL0     H38643   5.658   4.286   1.421 -1.3580 -0.4979  0.9183
 1005MOL0     H38644   5.540   4.471   1.531  0.1173 -0.8639  3.9253
 1005MOL0     H38645   5.678   4.508   1.629 -0.8095 -2.7901  1.1045
 1005MOL0     H38646   5.656   4.528   1.312  3.0390  2.1908 -2.4262
 1005MOL0     H38647   5.635   4.653   1.438 -2.1136 -2.1781  1.9062
 1005MOL0     H38648   5.697   4.759   1.227 -0.8706 -0.0260  2.3436
 1005MOL0     H38649   5.748   5.000   1.032 -1.0671 -2.3384 -0.8266
 1005MOL0     H38650   5.729   5.099   1.185  0.0066  0.2613 -0.3867
 1005MOL0     H38651   5.634   4.955   1.150  1.8975 -3.4189  0.7888
 1005MOL0     H38652   5.818   5.349   1.000 -1.2810 -4.1127 -0.6712
 1005MOL0     H38653   5.865   5.502   0.811 -3.6739 -3.8003 -2.5616
 1005MOL0     H38654   6.127   5.371   0.486 -0.9629 -1.4680  2.3624
 1005MOL0     H38655   5.956   5.354   0.522 -0.3605 -0.1496 -0.2976
 1005MOL0     H38656   5.985   5.481   0.318  2.7575 -1.3986  0.6689
 1005MOL0     H38657   5.907   5.578   0.454 -0.7542 -0.4692  0.4370
 1005MOL0     H38658   6.109   5.671   0.288 -1.3798  2.2451  1.3365
 1005MOL0     H38659   6.193   5.603   0.420 -0.7565 -0.5569  2.0842
 1005MOL0     H38660   6.051   5.731   0.594 -2.8867  1.3848  0.5130
 1005MOL0     H38661   5.969   5.811   0.469  2.8177  3.8658 -1.8075
 1005MOL0     H38662   6.181   5.931   0.562 -0.1615  1.2687 -0.8346
 1005MOL0     H38663   6.270   5.802   0.488 -0.7541 -2.0358  2.6476
 1005MOL0     H38664   6.238   5.855   0.261 -1.6335  2.0478 -4.0159
 1005MOL0     H38665   6.286   6.001   0.336  1.2223 -1.1320 -0.3664
 1005MOL0     H38666   5.988   5.986   0.341 -2.2138 -1.0195 -3.6875
 1005MOL0     H38667   6.055   5.958   0.186 -0.1732  0.1820  1.1919
 1005MOL0     H38668   6.020   6.197   0.220  0.8230 -2.5413 -1.8388
 1005MOL0     H38669   6.196   6.167   0.202  0.4859 -0.3720 -0.3654
 1005MOL0     H38670   6.202   5.280   0.706 -0.2220  2.2556 -0.9089
 1005MOL0     H38671   6.159   5.120   0.892  1.5383  0.3340  0.8191
 1005MOL0     H38672   6.149   4.904   1.333  0.9619 -1.2918  0.6760
 1005MOL0     H38673   6.062   4.686   1.424 -0.8722 -0.3908 -0.1973
 1005MOL0     H38674   4.509   4.572   2.104 -1.0969 -1.8776 -0.4170
 1005MOL0     H38675   4.405   4.786   2.143 -0.3493 -1.6316 -2.0179
 1005MOL0     H38676   4.228   5.101   2.417 -0.7022  2.9481 -1.1951
 1005MOL0     H38677   4.085   5.295   2.504  1.8314 -0.1045  0.4481
 1005MOL0     H38678   3.857   5.289   2.819  1.9408  1.8205  1.5229
 1005MOL0     H38679   4.013   5.219   2.756  0.3744  0.4751  2.1687
 1005MOL0     H38680   3.922   5.505   2.728  1.0939  2.2252  3.5219
 1005MOL0     H38681   4.069   5.427   2.654  1.7370 -2.5666  1.0727
 1005MOL0     H38682   4.099   5.557   2.863  0.0396  0.2683  0.5502
 1005MOL0     H38683   4.015   5.417   2.945  0.0054 -0.6947  0.0272
 1005MOL0     H38684   4.200   5.268   2.897 -1.5443  0.6263  0.1373
 1005MOL0     H38685   4.275   5.423   2.956 -1.7020  1.7205  0.7160
 1005MOL0     H38686   4.453   5.363   2.590  1.4672 -1.2303  1.0084
 1005MOL0     H38687   3.766   5.029   2.565  0.0675  2.2108  3.8886
 1005MOL0     H38688   3.766   4.798   2.473  0.3989 -0.0274 -0.0072
 1005MOL0     H38689   3.862   4.800   2.320 -0.1388  0.1570  0.1482
 1005MOL0     H38690   3.931   4.734   2.472  2.4876  3.0024  2.2828
 1006MOL0     O38691   5.997   6.058   5.247 -0.1953  0.2224  0.6922
 1006MOL0     C38692   5.962   5.938   5.223 -0.1008  0.6271  0.1919
 1006MOL0     O38693   5.841   5.883   5.238  0.7730 -0.5501 -0.2314
 1006MOL0     C38694   5.744   5.958   5.306  0.2322 -0.4326  0.2891
 1006MOL0     C38695   5.762   6.005   5.436 -0.9132  0.3326  0.2309
 1006MOL0     C38696   5.660   6.054   5.502  0.8522 -0.0722  0.2238
 1006MOL0     C38697   5.533   6.083   5.439 -0.3142  0.1880  0.5513
 1006MOL0     O38698   5.439   6.142   5.515  0.7871  0.7881 -0.6787
 1006MOL0     C38699   5.324   6.204   5.459  0.6976 -0.3076  0.5923
 1006MOL0     C38700   5.208   6.103   5.432 -0.4983 -0.0278  0.0229
 1006MOL0     C38701   5.186   6.002   5.541  0.6505 -1.0118  0.3265
 1006MOL0     C38702   5.111   5.879   5.475 -0.7020 -1.0791  0.1175
 1006MOL0     C38703   5.064   5.771   5.586  0.1591 -1.1174 -0.2486
 1006MOL0     C38704   4.960   5.687   5.516 -0.6059  0.3870 -0.2890
 1006MOL0     C38705   4.856   5.605   5.589 -0.2538  0.2231 -0.5435
 1006MOL0     C38706   4.912   5.505   5.696  0.6692  0.4693 -0.6225
 1006MOL0     N38707   4.792   5.415   5.740 -0.2625  0.6913  0.0170
 1006MOL0     C38708   4.668   5.470   5.765  0.5747  0.2708 -0.1244
 1006MOL0     C38709   4.583   5.364   5.774 -0.0184  0.9146  0.6947
 1006MOL0     C38710   4.437   5.358   5.797 -0.0381  0.4400  0.0379
 1006MOL0     C38711   4.389   5.245   5.893 -0.2224  0.5983 -0.4567
 1006MOL0     C38712   4.404   5.294   6.037 -0.9951 -0.1604 -0.1126
 1006MOL0     C38713   4.278   5.342   6.106  0.1620 -0.7747 -0.0044
 1006MOL0     O38714   4.218   5.438   6.015  1.0302  0.2095 -0.1497
 1006MOL0     C38715   4.189   5.556   6.082 -0.2810 -0.2305 -0.2160
 1006MOL0     C38716   4.057   5.603   6.069  0.5701  0.2757 -0.2804
 1006MOL0     C38717   4.015   5.731   6.120 -0.4390 -0.7491  0.9762
 1006MOL0     C38718   3.866   5.750   6.100  0.5990  0.0369  0.6797
 1006MOL0     C38719   4.106   5.820   6.187  0.1149  0.4348 -0.1767
 1006MOL0     C38720   4.074   5.962   6.230  0.8996  0.0078  0.2299
 1006MOL0     O38721   4.165   6.025   6.300  0.8365  0.1109  0.0767
 1006MOL0     C38722   4.166   6.163   6.304 -0.4223 -1.3731  0.2003
 1006MOL0     C38723   4.232   6.243   6.204 -0.5094  0.2955 -0.3834
 1006MOL0     C38724   4.253   6.386   6.221  0.9095 -0.2175 -0.2071
 1006MOL0     C38725   4.212   6.442   6.342 -0.3006  0.4151 -0.2618
 1006MOL0     O38726   4.208   6.580   6.358  0.2665 -0.7506  0.6451
 1006MOL0     C38727   4.066   6.633   6.385  0.7180  0.4481 -0.2865
 1006MOL0     C38728   4.090   6.778   6.436  0.6139  0.4226  0.9012
 1006MOL0     C38729   3.981   6.841   6.539  0.3478 -0.1567 -0.1380
 1006MOL0     C38730   3.855   6.870   6.461  0.2077 -0.0804 -0.6274
 1006MOL0     C38731   3.761   6.938   6.557  0.3550  0.6295 -0.4164
 1006MOL0     C38732   3.633   6.992   6.507 -0.0880  0.1544 -0.1624
 1006MOL0     C38733   3.512   6.988   6.613  0.2358 -0.6279 -1.2802
 1006MOL0     C38734   3.560   7.025   6.753  1.3078  0.2621 -0.0012
 1006MOL0    Cl38735   3.414   7.051   6.843 -0.3951 -0.3878 -0.1716
 1006MOL0     C38736   4.158   6.360   6.445  0.2434 -0.7392  0.3919
 1006MOL0     C38737   4.129   6.226   6.419 -0.1638 -0.8984 -0.5682
 1006MOL0     O38738   3.958   5.998   6.225  0.3485 -0.1771 -0.1545
 1006MOL0     C38739   4.241   5.776   6.187 -0.1177  0.0708 -0.1439
 1006MOL0     C38740   4.284   5.644   6.144 -0.5744 -0.5613  0.0559
 1006MOL0     N38741   4.658   5.254   5.742 -0.1620  0.0798  0.8429
 1006MOL0     N38742   4.783   5.282   5.740 -0.4593 -0.2296  0.0329
 1006MOL0     C38743   5.508   6.041   5.307 -1.0387  0.1387  0.0248
 1006MOL0     C38744   5.616   5.973   5.242 -0.2306  0.3543  0.4052
 1006MOL0     C38745   6.069   5.851   5.153 -1.2499 -0.1610 -0.2765
 1006MOL0     C38746   6.030   5.716   5.152  0.5702 -0.5261  0.5738
 1006MOL0     C38747   6.128   5.625   5.099  0.0029 -0.0822 -0.2860
 1006MOL0     C38748   6.253   5.672   5.061 -0.1352 -0.4874 -0.2704
 1006MOL0     O38749   6.351   5.599   4.987  0.6805  0.3205  0.6068
 1006MOL0     C38750   6.338   5.452   5.015 -0.0483  0.1431 -0.7769
 1006MOL0     C38751   6.261   5.379   4.902 -0.7627 -1.1120  0.2003
 1006MOL0     C38752   6.270   5.228   4.892 -0.7505  0.5258 -0.8328
 1006MOL0     C38753   6.191   5.174   5.011  0.7871  0.3102  0.7285
 1006MOL0     C38754   6.206   5.029   5.014 -0.2153  0.4564 -1.2541
 1006MOL0     C38755   6.231   4.910   5.014 -0.0912 -0.7781  0.4319
 1006MOL0     C38756   6.277   5.811   5.065 -0.1410  0.6357 -0.6111
 1006MOL0     C38757   6.190   5.902   5.103  0.2260  0.4207 -0.2456
 1006MOL0     C38758   6.231   6.046   5.094 -1.0393  0.2644  0.4633
 1006MOL0     H38759   5.855   5.987   5.489  0.0089  1.2337 -1.0377
 1006MOL0     H38760   5.673   6.106   5.596  1.5619  0.3262 -0.0812
 1006MOL0     H38761   5.344   6.248   5.361  0.5991 -0.5043  0.4815
 1006MOL0     H38762   5.291   6.286   5.524  0.9433 -1.3380  2.0620
 1006MOL0     H38763   5.116   6.157   5.408  1.0126  2.2147 -1.1185
 1006MOL0     H38764   5.220   6.051   5.337 -3.3210  0.2650 -0.5814
 1006MOL0     H38765   5.283   5.969   5.579  0.4301  0.4429  2.2335
 1006MOL0     H38766   5.129   6.053   5.619  0.5289 -1.6213  0.6417
 1006MOL0     H38767   5.030   5.921   5.415 -1.0656 -1.7234  0.1475
 1006MOL0     H38768   5.176   5.827   5.405  1.0191 -0.7347  1.4052
 1006MOL0     H38769   5.027   5.823   5.675 -1.7381  0.1999 -1.7440
 1006MOL0     H38770   5.156   5.718   5.613  1.4493  0.7081 -0.8832
 1006MOL0     H38771   4.897   5.745   5.448 -0.8808  2.0977  1.3426
 1006MOL0     H38772   5.027   5.619   5.463  3.0838  2.6042  1.1256
 1006MOL0     H38773   4.797   5.550   5.515 -1.3963 -0.5012  0.8698
 1006MOL0     H38774   4.793   5.676   5.642 -4.3252 -2.9434 -0.6384
 1006MOL0     H38775   5.008   5.463   5.664 -1.7872 -2.8963 -4.4956
 1006MOL0     H38776   4.934   5.550   5.793 -2.0026 -0.5308  0.5489
 1006MOL0     H38777   4.656   5.578   5.769 -0.7999  0.1907 -1.1137
 1006MOL0     H38778   4.404   5.323   5.699  1.2788  2.5278 -1.2366
 1006MOL0     H38779   4.395   5.457   5.817 -0.5385  0.3999 -0.7599
 1006MOL0     H38780   4.288   5.208   5.872  0.4570 -0.6990 -1.6447
 1006MOL0     H38781   4.451   5.155   5.887 -1.1766 -0.0881 -0.2554
 1006MOL0     H38782   4.446   5.219   6.105 -1.4143  2.9748  3.9128
 1006MOL0     H38783   4.469   5.381   6.026 -1.9990  0.3225 -3.1558
 1006MOL0     H38784   4.211   5.255   6.108 -0.4756 -0.2748  1.6129
 1006MOL0     H38785   4.286   5.378   6.208  0.8391  3.7745 -1.4323
 1006MOL0     H38786   3.985   5.530   6.033  1.9851 -2.2666  1.6452
 1006MOL0     H38787   3.846   5.844   6.047 -1.2632 -0.7585 -0.0996
 1006MOL0     H38788   3.820   5.747   6.199  1.0405 -0.1142  0.8807
 1006MOL0     H38789   3.834   5.681   6.021  4.3396  1.7172 -2.6621
 1006MOL0     H38790   4.252   6.189   6.112 -2.6223  1.1731 -1.4385
 1006MOL0     H38791   4.274   6.464   6.148 -2.1225 -0.4867 -1.5025
 1006MOL0     H38792   4.008   6.620   6.293  0.5268 -2.4829  0.1437
 1006MOL0     H38793   4.021   6.573   6.465  1.3739  3.5053  2.5853
 1006MOL0     H38794   4.191   6.770   6.477  1.7285 -0.8798 -1.8894
 1006MOL0     H38795   4.090   6.840   6.346 -1.0334 -1.3007 -0.3664
 1006MOL0     H38796   4.007   6.940   6.578  0.9548 -0.3597 -0.0247
 1006MOL0     H38797   3.955   6.775   6.623 -2.4877  0.6934 -0.2270
 1006MOL0     H38798   3.818   6.773   6.428  1.7322 -1.0272  0.3540
 1006MOL0     H38799   3.886   6.930   6.374  0.1700  1.1468  0.1841
 1006MOL0     H38800   3.749   6.875   6.645 -2.4763 -2.2484 -2.6535
 1006MOL0     H38801   3.816   7.022   6.601  1.0534  0.9221 -1.7876
 1006MOL0     H38802   3.606   6.935   6.418  1.3429  0.2888 -0.7008
 1006MOL0     H38803   3.663   7.092   6.473  0.7570  1.1462  3.1458
 1006MOL0     H38804   3.473   6.887   6.631 -1.4533  0.3637  1.2079
 1006MOL0     H38805   3.434   7.058   6.583  1.4194  0.5017 -1.8423
 1006MOL0     H38806   3.623   7.114   6.744  2.1142 -0.2843  0.1128
 1006MOL0     H38807   3.616   6.948   6.807 -0.9552 -2.1174 -0.8751
 1006MOL0     H38808   4.128   6.402   6.540 -0.5639 -2.6007  1.0164
 1006MOL0     H38809   4.094   6.156   6.494  0.7730  2.8511  3.8055
 1006MOL0     H38810   4.313   5.846   6.229 -0.4914  0.1076  0.4563
 1006MOL0     H38811   4.383   5.602   6.156 -1.0628 -1.9707 -0.6752
 1006MOL0     H38812   5.418   6.054   5.248 -1.8448  0.1635  1.2231
 1006MOL0     H38813   5.609   5.924   5.146  1.2461 -1.5504  1.2009
 1006MOL0     H38814   5.936   5.678   5.193 -1.2163  1.9665 -0.9989
 1006MOL0     H38815   6.098   5.521   5.091 -2.2300  0.0985  3.3465
 1006MOL0     H38816   6.437   5.408   5.030  0.2429  1.4013  1.5049
 1006MOL0     H38817   6.298   5.433   5.115 -0.0532  0.1486 -0.7776
 1006MOL0     H38818   6.292   5.426   4.808 -3.2105 -0.2523 -0.2570
 1006MOL0     H38819   6.156   5.411   4.900  0.5567  4.1312 -2.4468
 1006MOL0     H38820   6.233   5.197   4.794  1.6146  0.2025 -1.6827
 1006MOL0     H38821   6.374   5.198   4.904 -0.6675  0.8528 -0.7233
 1006MOL0     H38822   6.088   5.205   4.990  1.7462  2.1589 -1.6934
 1006MOL0     H38823   6.224   5.215   5.107 -0.8705  0.2168  1.3729
 1006MOL0     H38824   6.263   4.808   5.010  0.3469 -0.9674  4.7527
 1006MOL0     H38825   6.368   5.847   5.019 -0.5879  1.7097 -0.6943
 1006MOL0     H38826   6.168   6.119   5.043 -1.3953  0.7266  1.5438
 1006MOL0     H38827   6.257   6.091   5.190  1.6644  3.8528 -1.7040
 1006MOL0     H38828   6.331   6.057   5.050 -0.7149 -2.6162  0.2406
 1007MOL0     O38829   9.134   2.616   8.594  0.4798 -0.5201 -0.3650
 1007MOL0     C38830   9.060   2.703   8.641 -0.5392  0.5793 -0.7013
 1007MOL0     O38831   8.925   2.709   8.637  0.0444 -0.6783  0.1505
 1007MOL0     C38832   8.845   2.610   8.583  0.3487  0.3027 -0.3994
 1007MOL0     C38833   8.877   2.474   8.609  1.0327 -0.2323 -0.4570
 1007MOL0     C38834   8.800   2.370   8.551 -0.0484 -0.2625 -0.6727
 1007MOL0     C38835   8.678   2.394   8.479 -0.3346  0.3018 -0.6241
 1007MOL0     O38836   8.588   2.304   8.440 -0.3751 -0.5356 -0.8597
 1007MOL0     C38837   8.635   2.169   8.417 -0.5734  0.4425  0.5781
 1007MOL0     C38838   8.691   2.157   8.269 -0.2799  0.6190  0.5845
 1007MOL0     C38839   8.602   2.215   8.165  0.4764  0.1052  1.4311
 1007MOL0     C38840   8.532   2.112   8.089  0.3386 -0.7202 -0.0531
 1007MOL0     C38841   8.434   2.170   7.979 -0.0419 -0.1248 -0.2840
 1007MOL0     C38842   8.346   2.074   7.903 -0.1737  0.3016 -0.6439
 1007MOL0     C38843   8.268   2.157   7.795 -0.4838 -0.3863  0.0568
 1007MOL0     C38844   8.157   2.062   7.730 -1.1596 -0.0656  1.1147
 1007MOL0     N38845   8.208   2.003   7.607  0.6630  0.6030 -0.4011
 1007MOL0     C38846   8.193   2.066   7.482  0.5172 -0.3972 -0.9501
 1007MOL0     C38847   8.257   1.981   7.396  0.6551 -0.2744 -0.4657
 1007MOL0     C38848   8.259   2.006   7.249 -0.3032 -0.2876  0.3932
 1007MOL0     C38849   8.133   1.930   7.198 -0.6567 -0.4751  0.0406
 1007MOL0     C38850   8.145   1.776   7.185 -0.5283  0.1855 -0.3226
 1007MOL0     C38851   8.042   1.705   7.110  0.2177  0.1425 -0.1723
 1007MOL0     O38852   8.057   1.748   6.972 -0.2371  0.0156 -0.2903
 1007MOL0     C38853   7.938   1.758   6.910  0.1820  0.3189  0.9957
 1007MOL0     C38854   7.924   1.849   6.802  0.6863  0.0408 -0.4915
 1007MOL0     C38855   7.793   1.868   6.741 -0.4217 -0.4590  0.3303
 1007MOL0     C38856   7.786   1.966   6.624  0.7784 -0.0617 -0.2161
 1007MOL0     C38857   7.693   1.770   6.768 -0.4092  0.8537 -0.3635
 1007MOL0     C38858   7.559   1.782   6.715  0.2944 -0.0539  0.2409
 1007MOL0     O38859   7.475   1.665   6.718  0.5989 -0.3461  0.3552
 1007MOL0     C38860   7.374   1.639   6.624 -0.2237  0.0454 -0.1307
 1007MOL0     C38861   7.364   1.704   6.503  1.0183 -0.6350  0.4173
 1007MOL0     C38862   7.250   1.683   6.419 -0.2624  0.9549 -0.3938
 1007MOL0     C38863   7.149   1.590   6.464  0.6976 -0.1571  0.4558
 1007MOL0     O38864   7.038   1.546   6.389 -0.6764 -0.5124 -0.3966
 1007MOL0     C38865   6.989   1.631   6.298  1.0049 -0.7240  1.3542
 1007MOL0     C38866   6.848   1.598   6.265 -0.8071 -0.7874  0.4033
 1007MOL0     C38867   6.790   1.703   6.170 -0.2088 -0.3907 -0.5768
 1007MOL0     C38868   6.680   1.633   6.085  0.0203 -0.4912 -0.4541
 1007MOL0     C38869   6.613   1.740   5.998  0.2335 -0.6954 -0.4895
 1007MOL0     C38870   6.526   1.832   6.085  0.5335 -0.6812  0.1175
 1007MOL0     C38871   6.395   1.895   6.023 -1.2914  0.4016 -0.4808
 1007MOL0     C38872   6.307   1.938   6.139 -0.9666  0.3216 -0.2480
 1007MOL0    Cl38873   6.150   1.964   6.113  0.0065  0.0947 -0.0681
 1007MOL0     C38874   7.169   1.525   6.580 -1.0987 -0.2819 -0.4625
 1007MOL0     C38875   7.283   1.541   6.661  0.2885 -0.6113  0.1809
 1007MOL0     O38876   7.515   1.889   6.680  0.4708 -0.3759  0.5320
 1007MOL0     C38877   7.721   1.665   6.855 -0.6932  0.5513 -0.6972
 1007MOL0     C38878   7.835   1.666   6.931  0.6948  0.3628 -0.3729
 1007MOL0     N38879   8.320   1.881   7.469 -0.0710 -0.5946 -0.0896
 1007MOL0     N38880   8.285   1.892   7.595  1.5923 -1.3090 -0.6678
 1007MOL0     C38881   8.641   2.528   8.475  0.1323  0.3779  0.3172
 1007MOL0     C38882   8.718   2.637   8.525 -1.5772  0.3401 -0.3150
 1007MOL0     C38883   9.116   2.825   8.713  0.2222 -0.3253  0.5909
 1007MOL0     C38884   9.023   2.900   8.786  0.7702  1.2203  0.6291
 1007MOL0     C38885   9.061   2.993   8.882  0.0513  0.0176 -0.6885
 1007MOL0     C38886   9.189   3.047   8.884 -0.6968 -0.3095  0.8514
 1007MOL0     O38887   9.211   3.159   8.960  0.6145 -0.1777  0.1946
 1007MOL0     C38888   9.305   3.144   9.069  0.8592 -0.5168  0.6004
 1007MOL0     C38889   9.246   3.075   9.195 -0.3990 -0.0964 -0.0776
 1007MOL0     C38890   9.127   3.159   9.265 -0.0092 -0.4982  0.2693
 1007MOL0     C38891   9.025   3.081   9.346  0.1929  0.4062 -0.1367
 1007MOL0     C38892   8.919   3.013   9.263 -0.2922 -0.0324  1.4680
 1007MOL0     C38893   8.840   2.950   9.197  0.4563  0.4023  0.8299
 1007MOL0     C38894   9.284   2.992   8.789 -0.2528  0.1435 -0.7270
 1007MOL0     C38895   9.251   2.877   8.709  0.5391 -0.5504  0.0385
 1007MOL0     C38896   9.364   2.802   8.636  0.1268 -0.1090  0.2017
 1007MOL0     H38897   8.974   2.456   8.653  0.9879  3.1800  1.3389
 1007MOL0     H38898   8.837   2.272   8.580 -2.9784 -0.8736  1.5313
 1007MOL0     H38899   8.549   2.104   8.430 -0.1161 -0.6667 -1.5015
 1007MOL0     H38900   8.714   2.123   8.477  0.2667  1.2307  0.1108
 1007MOL0     H38901   8.788   2.207   8.263 -1.2885  2.4440 -3.7632
 1007MOL0     H38902   8.721   2.055   8.243 -0.0164  1.2811 -1.9937
 1007MOL0     H38903   8.523   2.277   8.208 -0.6416  0.7218 -1.2736
 1007MOL0     H38904   8.659   2.281   8.099 -0.5120  0.3140  0.7695
 1007MOL0     H38905   8.591   2.033   8.042 -0.5763 -1.9018  0.7153
 1007MOL0     H38906   8.470   2.063   8.165 -0.3444  0.1011 -0.0618
 1007MOL0     H38907   8.499   2.221   7.907  1.6949 -1.9430 -0.0903
 1007MOL0     H38908   8.379   2.251   8.030 -1.2258 -1.2011  0.1969
 1007MOL0     H38909   8.395   1.993   7.848  1.1837  1.3912 -1.1048
 1007MOL0     H38910   8.283   2.025   7.978  0.1824  0.5634 -0.1626
 1007MOL0     H38911   8.347   2.201   7.734  1.2105 -1.4270  1.4056
 1007MOL0     H38912   8.215   2.236   7.848  0.0381 -0.1952  0.3028
 1007MOL0     H38913   8.114   1.983   7.793  1.1198 -3.0055 -0.7277
 1007MOL0     H38914   8.069   2.119   7.700 -0.9523  0.0066  0.6321
 1007MOL0     H38915   8.138   2.155   7.453 -0.2970 -0.9107 -1.0263
 1007MOL0     H38916   8.357   1.980   7.208 -0.7739 -2.9723  0.8011
 1007MOL0     H38917   8.247   2.114   7.235 -0.1408 -0.6296 -3.2464
 1007MOL0     H38918   8.042   1.958   7.252 -1.0232 -3.6259  1.2714
 1007MOL0     H38919   8.126   1.962   7.094  1.1092  1.5433  0.4763
 1007MOL0     H38920   8.245   1.755   7.146  0.8659 -0.4324  3.2550
 1007MOL0     H38921   8.133   1.738   7.287  0.2424 -0.7910 -0.5809
 1007MOL0     H38922   8.048   1.595   7.113  2.3810  0.2239 -0.4307
 1007MOL0     H38923   7.943   1.730   7.152 -0.3235  0.5902 -1.6677
 1007MOL0     H38924   8.008   1.915   6.788  2.3666 -1.7921  0.4845
 1007MOL0     H38925   7.759   1.905   6.537 -1.9766  0.4076  0.2239
 1007MOL0     H38926   7.884   2.014   6.615  1.8254 -1.2450  3.2654
 1007MOL0     H38927   7.715   2.047   6.643  1.3804 -0.4363  5.5973
 1007MOL0     H38928   7.427   1.781   6.459 -1.7369 -0.0086 -2.8284
 1007MOL0     H38929   7.241   1.732   6.323  0.0360 -1.1606 -1.5644
 1007MOL0     H38930   6.995   1.730   6.344  3.6233 -0.1778  0.0227
 1007MOL0     H38931   7.048   1.626   6.206  3.6091  0.4332  2.8379
 1007MOL0     H38932   6.841   1.497   6.223  1.6908 -0.7324 -0.2813
 1007MOL0     H38933   6.797   1.602   6.362  0.4619  0.3896  1.0609
 1007MOL0     H38934   6.877   1.731   6.109  1.1031  0.6629  1.6749
 1007MOL0     H38935   6.752   1.790   6.224  2.2112 -0.3278  1.1712
 1007MOL0     H38936   6.617   1.571   6.149  5.0690 -4.6363  1.1419
 1007MOL0     H38937   6.742   1.573   6.018  4.1215  0.7411  1.8954
 1007MOL0     H38938   6.683   1.807   5.946  0.2435 -1.7596 -1.9331
 1007MOL0     H38939   6.561   1.697   5.911  1.9609 -2.1691 -0.8520
 1007MOL0     H38940   6.577   1.915   6.135  0.3493 -0.4193 -0.1299
 1007MOL0     H38941   6.494   1.766   6.165  0.2501  0.5185  1.0279
 1007MOL0     H38942   6.343   1.823   5.959  2.0169  0.0173 -3.0065
 1007MOL0     H38943   6.413   1.988   5.968 -3.2697  2.3668  1.8958
 1007MOL0     H38944   6.342   2.025   6.196  0.4736 -1.8908  2.4709
 1007MOL0     H38945   6.300   1.861   6.216 -2.8006  0.7559  0.0748
 1007MOL0     H38946   7.081   1.470   6.611  0.2150 -0.6508  3.1375
 1007MOL0     H38947   7.301   1.484   6.752 -0.4300 -0.7522  0.2366
 1007MOL0     H38948   7.648   1.588   6.880 -0.7841  1.9161  4.2692
 1007MOL0     H38949   7.852   1.581   6.997 -1.6202 -0.1704 -0.3697
 1007MOL0     H38950   8.545   2.553   8.430  0.2486  1.6782  0.7453
 1007MOL0     H38951   8.677   2.737   8.512 -0.4167  0.7352 -1.2361
 1007MOL0     H38952   8.920   2.866   8.787  0.4999  2.0139  0.3364
 1007MOL0     H38953   8.977   3.026   8.942  1.2810  0.1763  1.0455
 1007MOL0     H38954   9.394   3.086   9.040  1.8526  1.1962  0.1183
 1007MOL0     H38955   9.328   3.247   9.097 -5.8326  1.4330  0.6332
 1007MOL0     H38956   9.324   3.068   9.271  2.4153 -1.0655 -2.8966
 1007MOL0     H38957   9.219   2.970   9.186  1.5412 -0.4780 -2.4181
 1007MOL0     H38958   9.171   3.235   9.332 -0.5179  0.5699 -0.5750
 1007MOL0     H38959   9.081   3.226   9.192  1.1738 -0.9035 -0.8834
 1007MOL0     H38960   8.976   3.156   9.410  0.0366 -0.2537  0.5295
 1007MOL0     H38961   9.077   3.012   9.413 -1.5397  1.4508  2.4353
 1007MOL0     H38962   8.773   2.891   9.137 -0.3839  0.6046  1.5475
 1007MOL0     H38963   9.379   3.043   8.773 -1.2617  1.6400 -2.2385
 1007MOL0     H38964   9.355   2.811   8.527  2.4551 -0.0409 -0.0343
 1007MOL0     H38965   9.465   2.842   8.646  0.6926 -0.4652 -2.9401
 1007MOL0     H38966   9.381   2.698   8.663  1.2544  0.6214  2.5791
 1008MOL0     O38967   6.382   8.525   1.408 -0.1265  0.2511 -0.3673
 1008MOL0     C38968   6.260   8.546   1.399  1.0264 -0.8061 -0.3772
 1008MOL0     O38969   6.188   8.550   1.283 -0.0068 -0.1483 -0.2998
 1008MOL0     C38970   6.252   8.577   1.167 -0.2331  0.8003  0.9129
 1008MOL0     C38971   6.297   8.702   1.136 -1.0459  1.2477  0.0651
 1008MOL0     C38972   6.365   8.711   1.017 -0.2190 -0.2480 -0.7025
 1008MOL0     C38973   6.391   8.605   0.928 -0.0179  0.1864 -0.0588
 1008MOL0     O38974   6.481   8.601   0.826 -0.5184 -0.4880 -0.3853
 1008MOL0     C38975   6.505   8.724   0.759 -0.5982  0.2083  0.2820
 1008MOL0     C38976   6.550   8.692   0.616 -0.8946 -0.1994  0.3241
 1008MOL0     C38977   6.434   8.642   0.529  0.6421 -0.2816  0.1496
 1008MOL0     C38978   6.373   8.760   0.452 -0.9739 -0.1551  0.2299
 1008MOL0     C38979   6.269   8.728   0.342  0.3479  1.4390 -0.7093
 1008MOL0     C38980   6.315   8.652   0.209 -0.4083  0.3899  0.7475
 1008MOL0     C38981   6.238   8.691   0.083  0.3525 -0.1630  0.2632
 1008MOL0     C38982   6.289   8.618  -0.038  0.1328 -0.8416  0.9925
 1008MOL0     N38983   6.246   8.678  -0.169 -0.2088 -0.4990 -1.2353
 1008MOL0     C38984   6.211   8.600  -0.276 -0.5519  0.1308 -0.7390
 1008MOL0     C38985   6.186   8.673  -0.382  0.0956 -1.2000 -0.7250
 1008MOL0     C38986   6.171   8.635  -0.522  0.1616 -0.4868 -0.0716
 1008MOL0     C38987   6.038   8.678  -0.577  0.1788 -0.4320  0.6824
 1008MOL0     C38988   5.984   8.589  -0.701  0.0083  0.2996 -0.7919
 1008MOL0     C38989   5.948   8.450  -0.643  0.7312 -0.6232  0.0206
 1008MOL0     O38990   5.914   8.361  -0.745 -0.6894 -0.6533 -0.6113
 1008MOL0     C38991   5.867   8.241  -0.718 -0.1147 -1.1756  0.5226
 1008MOL0     C38992   5.770   8.215  -0.625  0.1536 -1.0672  0.1736
 1008MOL0     C38993   5.721   8.083  -0.593  0.5267  0.2579  0.2134
 1008MOL0     C38994   5.617   8.070  -0.482 -0.5488  0.2641  0.9048
 1008MOL0     C38995   5.773   7.970  -0.670 -0.0579 -0.1659 -0.2731
 1008MOL0     C38996   5.717   7.832  -0.674  1.1449  0.1727 -0.1429
 1008MOL0     O38997   5.739   7.755  -0.788 -0.1094 -0.7668 -0.7699
 1008MOL0     C38998   5.686   7.636  -0.802 -0.6307 -0.8381 -0.3457
 1008MOL0     C38999   5.547   7.618  -0.832 -0.9945  0.2107 -0.1473
 1008MOL0     C39000   5.499   7.482  -0.862 -0.1005 -0.3288 -0.2873
 1008MOL0     C39001   5.587   7.372  -0.860  0.0224  0.0472 -0.2531
 1008MOL0     O39002   5.551   7.241  -0.890  0.3971  0.3416 -0.2444
 1008MOL0     C39003   5.433   7.196  -0.815  0.0550 -0.3057 -0.6177
 1008MOL0     C39004   5.440   7.223  -0.663  0.3639  0.7506  0.1271
 1008MOL0     C39005   5.556   7.165  -0.582  0.3303 -0.2366 -0.3568
 1008MOL0     C39006   5.521   7.022  -0.524 -0.7946  1.0838 -0.2603
 1008MOL0     C39007   5.646   6.958  -0.451  1.0638 -0.3798  0.5224
 1008MOL0     C39008   5.628   6.817  -0.387 -0.7273 -0.0261 -0.1828
 1008MOL0     C39009   5.755   6.766  -0.316 -0.6627  0.0002 -0.4448
 1008MOL0     C39010   5.743   6.623  -0.259 -0.6328  0.4235  0.2249
 1008MOL0    Cl39011   5.619   6.620  -0.135 -0.5729  0.3612  0.0012
 1008MOL0     C39012   5.714   7.393  -0.827 -0.3526 -0.0260  0.7579
 1008MOL0     C39013   5.773   7.520  -0.808 -0.4008 -0.4390  0.5861
 1008MOL0     O39014   5.654   7.785  -0.577  0.7264 -0.0573  0.1517
 1008MOL0     C39015   5.875   8.004  -0.762  0.0198 -0.4940 -0.5447
 1008MOL0     C39016   5.915   8.139  -0.780 -1.0204  0.0901 -0.3182
 1008MOL0     N39017   6.199   8.800  -0.335  0.9290 -0.1985  0.0376
 1008MOL0     N39018   6.225   8.804  -0.213 -0.1952 -0.7083 -0.3975
 1008MOL0     C39019   6.321   8.491   0.949 -0.2449  0.1798  0.1168
 1008MOL0     C39020   6.252   8.469   1.074  0.1500 -0.3287  0.7667
 1008MOL0     C39021   6.189   8.555   1.525 -0.4321 -0.2747 -0.1542
 1008MOL0     C39022   6.252   8.498   1.643  0.3680  0.7863  1.0348
 1008MOL0     C39023   6.187   8.514   1.764  0.2446  0.5658  0.3876
 1008MOL0     C39024   6.059   8.565   1.783  0.0759 -0.4238 -0.0587
 1008MOL0     O39025   5.969   8.575   1.885  0.7378 -0.9920 -0.0209
 1008MOL0     C39026   6.016   8.541   2.015 -0.0664 -0.2708  0.5240
 1008MOL0     C39027   5.889   8.548   2.106 -0.1230 -0.8984  0.8069
 1008MOL0     C39028   5.885   8.689   2.170 -0.0108  0.7680 -0.5711
 1008MOL0     C39029   5.957   8.717   2.310 -0.8844 -0.2608 -0.2718
 1008MOL0     C39030   5.899   8.628   2.410  1.0579 -0.4579  0.8319
 1008MOL0     C39031   5.862   8.535   2.477  0.4981  0.3815 -0.4435
 1008MOL0     C39032   6.000   8.612   1.671  0.2743  0.4766 -0.0563
 1008MOL0     C39033   6.059   8.614   1.542 -0.3412 -0.1301 -0.3264
 1008MOL0     C39034   5.984   8.687   1.435 -0.8709 -0.0918 -0.6551
 1008MOL0     H39035   6.311   8.768   1.221  2.2135 -2.7171  3.0164
 1008MOL0     H39036   6.421   8.803   1.005 -1.3064  0.3710 -1.1370
 1008MOL0     H39037   6.596   8.759   0.809 -0.3009  0.2140 -0.2549
 1008MOL0     H39038   6.411   8.779   0.771 -0.0058  1.2153  0.4702
 1008MOL0     H39039   6.603   8.780   0.578 -1.3685  0.3279  0.8654
 1008MOL0     H39040   6.622   8.610   0.610 -1.5237 -0.7274 -0.1272
 1008MOL0     H39041   6.463   8.575   0.448  1.5904  1.2053 -0.7920
 1008MOL0     H39042   6.363   8.576   0.581 -0.9749 -0.9726 -2.7419
 1008MOL0     H39043   6.326   8.823   0.528 -0.3214 -0.1207  0.6153
 1008MOL0     H39044   6.448   8.819   0.399 -2.0161 -0.3252 -1.4703
 1008MOL0     H39045   6.231   8.826   0.310  0.2709  1.0556 -1.8069
 1008MOL0     H39046   6.178   8.681   0.381  0.8948  0.0205 -1.1099
 1008MOL0     H39047   6.417   8.671   0.173 -1.1435 -1.5756 -2.9463
 1008MOL0     H39048   6.295   8.545   0.220  0.1086  0.4480  2.4069
 1008MOL0     H39049   6.262   8.792   0.050 -2.4868 -0.0061 -1.6814
 1008MOL0     H39050   6.130   8.693   0.098  0.5549 -0.6718  1.9346
 1008MOL0     H39051   6.396   8.637  -0.044 -0.1645  0.9447  0.7108
 1008MOL0     H39052   6.272   8.510  -0.043  1.8774 -1.1770  1.6401
 1008MOL0     H39053   6.225   8.492  -0.272  0.3152 -0.1051 -4.8877
 1008MOL0     H39054   6.190   8.528  -0.518  3.0420 -0.0336  1.0667
 1008MOL0     H39055   6.251   8.685  -0.578 -0.6389 -2.1720 -2.9167
 1008MOL0     H39056   5.955   8.678  -0.506 -0.4603  2.2467  0.0317
 1008MOL0     H39057   6.034   8.778  -0.620  1.7153 -1.0744 -1.1299
 1008MOL0     H39058   5.899   8.639  -0.749 -0.9646  0.0763  0.6455
 1008MOL0     H39059   6.055   8.567  -0.781 -3.7297  1.1321 -4.7484
 1008MOL0     H39060   6.028   8.409  -0.580  0.1881 -2.1569 -0.2368
 1008MOL0     H39061   5.859   8.462  -0.581  0.7483 -4.6388  1.1060
 1008MOL0     H39062   5.719   8.299  -0.578 -3.6992 -4.2860  2.3397
 1008MOL0     H39063   5.589   8.173  -0.456  0.1633  2.1050 -4.4216
 1008MOL0     H39064   5.673   8.031  -0.397 -1.7215 -1.3342  0.9943
 1008MOL0     H39065   5.529   8.008  -0.499 -0.3831  0.2192  0.1848
 1008MOL0     H39066   5.482   7.704  -0.841 -0.1544  0.9306  0.5730
 1008MOL0     H39067   5.401   7.460  -0.904 -0.6003  0.2029  0.5563
 1008MOL0     H39068   5.342   7.238  -0.858 -0.2810 -0.7639 -0.3649
 1008MOL0     H39069   5.415   7.089  -0.827  2.8245 -0.8118 -0.9670
 1008MOL0     H39070   5.435   7.330  -0.640 -0.5836  0.4715  1.3010
 1008MOL0     H39071   5.342   7.186  -0.630 -0.2679  1.3554 -0.9894
 1008MOL0     H39072   5.569   7.238  -0.501  1.4261 -0.3457 -0.4195
 1008MOL0     H39073   5.655   7.156  -0.628  1.3052  0.9908  1.3698
 1008MOL0     H39074   5.497   6.962  -0.612 -0.5488 -1.3123  1.2345
 1008MOL0     H39075   5.428   7.011  -0.468 -0.9212  1.5455 -0.3688
 1008MOL0     H39076   5.733   6.964  -0.517 -0.4310  2.9715 -1.3762
 1008MOL0     H39077   5.673   7.029  -0.372  0.2863  1.3231 -0.6799
 1008MOL0     H39078   5.592   6.737  -0.451 -0.8715 -0.5811  0.5754
 1008MOL0     H39079   5.550   6.834  -0.312 -1.3611 -1.9760 -0.3403
 1008MOL0     H39080   5.765   6.827  -0.225 -3.3338 -2.0927  1.4406
 1008MOL0     H39081   5.855   6.778  -0.359 -0.6190  5.3129  0.4633
 1008MOL0     H39082   5.838   6.604  -0.209 -0.0564  3.6405  0.5869
 1008MOL0     H39083   5.719   6.548  -0.334  1.2592 -1.8386  1.7357
 1008MOL0     H39084   5.788   7.314  -0.816 -0.4994  0.0235  2.2845
 1008MOL0     H39085   5.881   7.532  -0.805 -0.3734  0.7447 -2.3155
 1008MOL0     H39086   5.924   7.923  -0.815  0.6129 -1.5629  1.4969
 1008MOL0     H39087   5.986   8.166  -0.857 -0.9840 -2.1041 -1.1167
 1008MOL0     H39088   6.338   8.412   0.876  0.8688 -1.1439  1.7168
 1008MOL0     H39089   6.203   8.381   1.113 -0.0600 -0.4019  0.3498
 1008MOL0     H39090   6.357   8.471   1.636  0.2635  0.7575 -2.0984
 1008MOL0     H39091   6.242   8.476   1.850 -0.4445 -3.8365 -0.8596
 1008MOL0     H39092   6.062   8.442   2.008  0.9454  0.2295 -0.0657
 1008MOL0     H39093   6.088   8.617   2.045  0.0476 -0.5571  0.9824
 1008MOL0     H39094   5.905   8.469   2.179 -0.9312 -0.2044  1.7566
 1008MOL0     H39095   5.800   8.534   2.044  0.0619  1.9800 -0.2673
 1008MOL0     H39096   5.931   8.761   2.103 -1.5163  1.6008 -0.7528
 1008MOL0     H39097   5.781   8.721   2.186  0.5981  2.5347  0.0325
 1008MOL0     H39098   5.929   8.816   2.346 -0.1012  0.0289 -0.4343
 1008MOL0     H39099   6.064   8.695   2.305 -0.9584 -0.3772 -1.6636
 1008MOL0     H39100   5.852   8.464   2.557 -2.1983 -0.1524 -1.1549
 1008MOL0     H39101   5.898   8.649   1.681 -0.4003 -1.5664  1.1334
 1008MOL0     H39102   5.912   8.756   1.480 -1.0005 -0.2332 -0.6406
 1008MOL0     H39103   6.045   8.738   1.360  0.3856 -2.1689 -1.1312
 1008MOL0     H39104   5.919   8.617   1.381  0.0046 -1.0680 -0.4607
 1009MOL0     O39105   1.221   2.055   3.041 -0.5300  0.5670  1.1922
 1009MOL0     C39106   1.215   2.127   3.141  0.7858 -0.6205 -0.3729
 1009MOL0     O39107   1.194   2.086   3.267  0.6540  0.5151  0.2450
 1009MOL0     C39108   1.216   1.945   3.289  0.6262  0.6417  0.9772
 1009MOL0     C39109   1.103   1.867   3.306 -0.4938  0.6661 -1.0530
 1009MOL0     C39110   1.122   1.728   3.326  0.3296  0.0750  0.3964
 1009MOL0     C39111   1.246   1.673   3.336  0.1219 -0.5839  0.5247
 1009MOL0     O39112   1.254   1.540   3.355 -0.3530 -0.3781 -0.7205
 1009MOL0     C39113   1.320   1.495   3.470  0.2586 -1.3863  1.0315
 1009MOL0     C39114   1.401   1.377   3.438 -0.2317 -0.0502  0.5994
 1009MOL0     C39115   1.520   1.417   3.340 -0.9731 -0.6429  0.3435
 1009MOL0     C39116   1.577   1.277   3.284  0.5528  1.2497  0.5604
 1009MOL0     C39117   1.659   1.302   3.156  0.4048 -0.2161  0.4583
 1009MOL0     C39118   1.793   1.238   3.164 -0.5830 -0.0989 -0.3698
 1009MOL0     C39119   1.855   1.233   3.021  0.1902 -0.6636  0.1466
 1009MOL0     C39120   1.819   1.110   2.931  0.3736 -0.0244 -0.4475
 1009MOL0     N39121   1.796   1.125   2.788 -0.6416  0.5369  0.2444
 1009MOL0     C39122   1.695   1.193   2.727 -0.1668  0.1882 -0.6733
 1009MOL0     C39123   1.717   1.180   2.592  0.0381  0.1721 -0.5485
 1009MOL0     C39124   1.637   1.228   2.476  0.1574  1.0436  0.8225
 1009MOL0     C39125   1.505   1.287   2.535 -0.1292  0.3857  0.4790
 1009MOL0     C39126   1.409   1.314   2.424  0.0030 -0.0672 -0.0889
 1009MOL0     C39127   1.275   1.372   2.480 -0.6122 -0.9289  0.1777
 1009MOL0     O39128   1.227   1.303   2.594  0.5528 -0.1104 -0.1804
 1009MOL0     C39129   1.095   1.311   2.626 -0.1204  0.3711 -0.4206
 1009MOL0     C39130   1.003   1.415   2.607 -0.2639  0.6971  0.3246
 1009MOL0     C39131   0.865   1.401   2.621 -0.6176 -0.2194  0.5620
 1009MOL0     C39132   0.781   1.515   2.576 -0.8295  0.6468  0.6151
 1009MOL0     C39133   0.816   1.284   2.687  0.5064 -0.1681 -0.4150
 1009MOL0     C39134   0.678   1.272   2.737 -0.0055  0.6594 -0.1755
 1009MOL0     O39135   0.621   1.380   2.804  0.3868  0.3074  0.4050
 1009MOL0     C39136   0.491   1.364   2.836  0.1175  0.2606  0.1116
 1009MOL0     C39137   0.387   1.443   2.779 -0.1380  0.3867  0.4265
 1009MOL0     C39138   0.260   1.435   2.825  0.0513  0.7852 -1.2616
 1009MOL0     C39139   0.228   1.343   2.927  0.5732 -0.5314 -0.5577
 1009MOL0     O39140   0.102   1.329   2.977 -0.4596 -0.3473 -0.6557
 1009MOL0     C39141  -0.006   1.364   2.894 -0.1941 -0.8842 -0.2739
 1009MOL0     C39142  -0.149   1.353   2.947 -0.3060  0.1768 -0.1970
 1009MOL0     C39143  -0.178   1.461   3.051  0.5849 -0.2524 -0.0306
 1009MOL0     C39144  -0.253   1.404   3.171  0.0652  1.3695  0.7523
 1009MOL0     C39145  -0.382   1.344   3.139  0.7859  0.0453  0.1498
 1009MOL0     C39146  -0.432   1.278   3.266  0.9940 -0.4665  0.0472
 1009MOL0     C39147  -0.587   1.247   3.249 -0.8652 -0.8296  0.2307
 1009MOL0     C39148  -0.629   1.137   3.157 -0.1131  0.2682 -0.7037
 1009MOL0    Cl39149  -0.585   0.979   3.213  0.0570 -0.2953  0.3481
 1009MOL0     C39150   0.332   1.262   2.981  0.4076 -0.4467 -0.0121
 1009MOL0     C39151   0.466   1.275   2.940  0.1835 -0.9915  0.8724
 1009MOL0     O39152   0.648   1.154   2.738 -0.4671  0.1448 -0.0486
 1009MOL0     C39153   0.915   1.193   2.726  0.4951  0.7724  0.6035
 1009MOL0     C39154   1.046   1.203   2.691 -0.5189  0.4282  0.6994
 1009MOL0     N39155   1.816   1.085   2.571  0.7426 -0.6396 -0.2445
 1009MOL0     N39156   1.863   1.056   2.690 -0.3987  0.3220  0.8501
 1009MOL0     C39157   1.357   1.752   3.313 -0.6082  0.0301 -0.8219
 1009MOL0     C39158   1.349   1.890   3.288 -0.4808 -0.3240 -0.0170
 1009MOL0     C39159   1.235   2.276   3.126  0.0177  0.6010  0.2181
 1009MOL0     C39160   1.363   2.332   3.108 -1.2865  0.5946  0.1601
 1009MOL0     C39161   1.387   2.469   3.091  0.3096  0.1187  0.0625
 1009MOL0     C39162   1.281   2.554   3.089  0.4683 -0.0909 -0.2967
 1009MOL0     O39163   1.314   2.683   3.082 -0.7394 -0.3268  0.2589
 1009MOL0     C39164   1.212   2.785   3.087  0.4819 -0.9899 -1.1945
 1009MOL0     C39165   1.285   2.927   3.089  0.1769  0.9495 -0.2353
 1009MOL0     C39166   1.185   3.044   3.106 -1.1844  0.1956  0.3267
 1009MOL0     C39167   1.082   3.065   2.999  0.0451  0.4534  0.3386
 1009MOL0     C39168   0.968   2.976   3.010  0.0892 -0.4005  0.4190
 1009MOL0     C39169   0.874   2.900   3.016 -0.3571  0.0396  0.3266
 1009MOL0     C39170   1.152   2.502   3.108  0.0844  1.7885  1.0419
 1009MOL0     C39171   1.128   2.359   3.123  0.4575  0.4361  0.1661
 1009MOL0     C39172   0.986   2.315   3.150  0.5977  0.6446  1.2597
 1009MOL0     H39173   1.009   1.922   3.315  0.7668  2.7262  0.4754
 1009MOL0     H39174   1.031   1.671   3.347 -0.1940  1.4224  2.0590
 1009MOL0     H39175   1.251   1.478   3.554 -1.2138  1.0451  0.3957
 1009MOL0     H39176   1.380   1.576   3.511 -1.8821 -1.2969  4.4374
 1009MOL0     H39177   1.440   1.334   3.530  1.0544  0.8429  0.5012
 1009MOL0     H39178   1.342   1.296   3.393 -0.7273 -0.4924  2.0087
 1009MOL0     H39179   1.488   1.484   3.259  0.1643 -0.4783  0.0103
 1009MOL0     H39180   1.595   1.470   3.399  0.0655 -1.5336 -0.1393
 1009MOL0     H39181   1.625   1.221   3.364  0.9575  1.0927  0.2121
 1009MOL0     H39182   1.490   1.216   3.258 -0.3726  1.6622  2.4947
 1009MOL0     H39183   1.667   1.410   3.139 -1.2215 -0.3620 -1.6774
 1009MOL0     H39184   1.598   1.260   3.076  0.1716 -0.1591  0.6039
 1009MOL0     H39185   1.857   1.315   3.209  2.1330 -2.5497  0.2780
 1009MOL0     H39186   1.788   1.148   3.225 -4.8999 -0.0900 -0.4102
 1009MOL0     H39187   1.963   1.248   3.026 -0.0612  1.3248  0.8017
 1009MOL0     H39188   1.818   1.320   2.966  0.8130 -0.9844 -0.7993
 1009MOL0     H39189   1.892   1.028   2.942 -0.4690 -0.8905 -1.1990
 1009MOL0     H39190   1.729   1.062   2.970  1.4578  0.0160  2.3339
 1009MOL0     H39191   1.621   1.255   2.776  0.5566 -0.5018  1.4268
 1009MOL0     H39192   1.611   1.151   2.402 -0.3668  1.1192  0.9284
 1009MOL0     H39193   1.701   1.299   2.423 -0.3093 -0.1873 -1.5381
 1009MOL0     H39194   1.465   1.208   2.598 -0.6047  0.1362 -0.1247
 1009MOL0     H39195   1.513   1.373   2.602 -3.4259  0.2345  1.2145
 1009MOL0     H39196   1.464   1.389   2.366 -2.7304  2.2015  0.0550
 1009MOL0     H39197   1.392   1.223   2.366 -1.2705 -1.3024  2.1066
 1009MOL0     H39198   1.290   1.478   2.502 -1.0162 -0.7114 -0.5719
 1009MOL0     H39199   1.199   1.362   2.402 -2.4120 -1.1397  1.8796
 1009MOL0     H39200   1.054   1.504   2.572  1.5629  0.3664  1.9811
 1009MOL0     H39201   0.814   1.596   2.641  2.9267 -1.5818  1.8176
 1009MOL0     H39202   0.674   1.495   2.593 -0.4271 -2.2286  0.2335
 1009MOL0     H39203   0.809   1.527   2.471  0.8524  1.8540  1.1797
 1009MOL0     H39204   0.414   1.502   2.692 -1.1361  1.1837  0.6323
 1009MOL0     H39205   0.182   1.499   2.787 -1.0425  0.7434  0.7970
 1009MOL0     H39206   0.008   1.470   2.872  2.1609 -0.8369  1.1603
 1009MOL0     H39207  -0.010   1.307   2.801 -0.3655 -2.3393  0.5998
 1009MOL0     H39208  -0.221   1.372   2.867 -2.4237 -0.1036  1.5466
 1009MOL0     H39209  -0.160   1.250   2.984  0.1098  0.1334 -0.1897
 1009MOL0     H39210  -0.239   1.538   3.003  1.8800  2.0921  1.8440
 1009MOL0     H39211  -0.086   1.516   3.075 -0.6290  1.4243  0.9772
 1009MOL0     H39212  -0.259   1.484   3.245  2.6781  1.0851  1.3847
 1009MOL0     H39213  -0.187   1.326   3.211  0.8918 -0.3944 -3.5489
 1009MOL0     H39214  -0.454   1.426   3.123  1.7118  0.6792 -0.9565
 1009MOL0     H39215  -0.386   1.276   3.053 -0.5419  0.6066 -0.2741
 1009MOL0     H39216  -0.410   1.329   3.361 -0.8016  1.3659 -0.4406
 1009MOL0     H39217  -0.377   1.184   3.270  1.0886 -0.4156 -0.0489
 1009MOL0     H39218  -0.640   1.337   3.215 -0.9992 -1.4627 -1.3356
 1009MOL0     H39219  -0.608   1.223   3.353  2.9785 -1.3301  1.0553
 1009MOL0     H39220  -0.594   1.145   3.053  2.3826 -1.2152 -0.0662
 1009MOL0     H39221  -0.737   1.147   3.148  0.2066  3.8909 -2.1019
 1009MOL0     H39222   0.313   1.212   3.076 -0.7942  1.5882  0.8806
 1009MOL0     H39223   0.543   1.215   2.988  1.0248 -2.9697 -2.5972
 1009MOL0     H39224   0.886   1.103   2.779  1.6891  0.1862  0.2868
 1009MOL0     H39225   1.110   1.125   2.730 -2.3930 -0.6925  1.7016
 1009MOL0     H39226   1.455   1.708   3.301  0.7540  2.9495 -1.5104
 1009MOL0     H39227   1.421   1.966   3.262 -0.6781 -0.5486 -1.2979
 1009MOL0     H39228   1.450   2.267   3.104  0.4751  2.8492 -0.1287
 1009MOL0     H39229   1.485   2.512   3.110  0.2989 -1.2025  3.8563
 1009MOL0     H39230   1.154   2.784   2.994 -1.1751  0.3610 -0.2511
 1009MOL0     H39231   1.143   2.765   3.170  0.1204 -1.7622 -1.6687
 1009MOL0     H39232   1.348   2.942   3.001 -0.6973  2.1826 -0.6707
 1009MOL0     H39233   1.350   2.927   3.177 -1.4473 -2.2590  1.1263
 1009MOL0     H39234   1.128   3.043   3.200 -0.7268  0.9622  0.6185
 1009MOL0     H39235   1.261   3.122   3.112  0.5423 -1.5559  2.5346
 1009MOL0     H39236   1.135   3.039   2.906  0.2538  0.4539  0.4574
 1009MOL0     H39237   1.040   3.166   3.005 -1.5786 -0.2119  0.5758
 1009MOL0     H39238   0.799   2.825   3.032  4.0580 -5.2283 -0.7387
 1009MOL0     H39239   1.067   2.569   3.105 -2.2777 -1.0158 -0.0108
 1009MOL0     H39240   0.978   2.280   3.253  1.2036 -0.2585  1.0125
 1009MOL0     H39241   0.910   2.390   3.128 -0.7034 -0.5791  1.4979
 1009MOL0     H39242   0.957   2.227   3.092 -0.7262  1.3549  0.8185
 1010MOL0     O39243   4.889  11.484   3.314  0.4649 -1.3304 -0.3662
 1010MOL0     C39244   4.968  11.557   3.377  0.8313  0.2187 -0.0227
 1010MOL0     O39245   4.958  11.589   3.505  0.2172 -0.4684  0.1526
 1010MOL0     C39246   4.843  11.561   3.570 -0.7137 -1.1209 -0.2528
 1010MOL0     C39247   4.785  11.664   3.651 -1.7221 -0.4880  0.4937
 1010MOL0     C39248   4.680  11.640   3.733 -0.0883 -0.3339 -0.5216
 1010MOL0     C39249   4.625  11.510   3.744  0.5245 -0.2335  0.1908
 1010MOL0     O39250   4.505  11.502   3.811  0.0021 -0.5222 -0.3152
 1010MOL0     C39251   4.421  11.390   3.776 -0.7786  0.6645  0.4028
 1010MOL0     C39252   4.295  11.395   3.871 -0.0466 -0.0279  0.4589
 1010MOL0     C39253   4.237  11.532   3.906 -0.4533 -0.0718  0.3054
 1010MOL0     C39254   4.183  11.608   3.790  0.4433 -0.1034  0.3346
 1010MOL0     C39255   4.107  11.726   3.845 -0.2140 -0.0077  0.0634
 1010MOL0     C39256   4.032  11.795   3.732  0.0077  0.3089 -0.7991
 1010MOL0     C39257   3.932  11.885   3.792 -0.5015 -0.0781  0.0730
 1010MOL0     C39258   3.858  11.978   3.693  0.3043  0.1295 -1.0803
 1010MOL0     N39259   3.762  11.909   3.603  0.0170  0.7195  0.7552
 1010MOL0     C39260   3.651  11.839   3.633 -0.1958  0.4390 -0.2942
 1010MOL0     C39261   3.616  11.780   3.520 -0.7453  0.0962 -0.2372
 1010MOL0     C39262   3.498  11.699   3.499 -0.2776 -0.2444  0.7303
 1010MOL0     C39263   3.518  11.549   3.512 -0.9619  0.4791 -0.5942
 1010MOL0     C39264   3.611  11.484   3.399 -0.1673  0.3884  0.2936
 1010MOL0     C39265   3.666  11.353   3.442 -0.5084  0.3421  0.7810
 1010MOL0     O39266   3.758  11.394   3.537 -0.3838 -0.1998 -0.0255
 1010MOL0     C39267   3.854  11.302   3.556  0.7258 -0.1693  0.3533
 1010MOL0     C39268   3.820  11.173   3.614 -0.2054 -0.3411 -0.3392
 1010MOL0     C39269   3.918  11.078   3.612  0.4360 -0.6956  0.1767
 1010MOL0     C39270   3.880  10.943   3.670  0.0761 -0.0097 -0.4713
 1010MOL0     C39271   4.041  11.101   3.548 -0.3164 -0.7611  0.3612
 1010MOL0     C39272   4.158  11.002   3.536  0.4629 -0.3527 -0.3386
 1010MOL0     O39273   4.284  11.055   3.529  0.3818  0.4150  0.7260
 1010MOL0     C39274   4.389  10.963   3.530 -0.7195 -0.0293 -0.4788
 1010MOL0     C39275   4.479  10.972   3.636 -0.1977 -0.1835  0.2195
 1010MOL0     C39276   4.600  10.900   3.630  0.3668  0.5050 -0.6231
 1010MOL0     C39277   4.624  10.806   3.528 -0.5396 -0.0352 -0.6245
 1010MOL0     O39278   4.746  10.744   3.533  0.0237 -0.5558 -0.1764
 1010MOL0     C39279   4.765  10.620   3.464 -0.3878 -1.1511  0.3553
 1010MOL0     C39280   4.837  10.535   3.578  0.0107 -0.4508  0.4449
 1010MOL0     C39281   4.979  10.567   3.620 -0.2796  0.9885  0.5390
 1010MOL0     C39282   5.032  10.476   3.731 -0.6473  0.1112 -0.9990
 1010MOL0     C39283   5.189  10.469   3.735  0.4398 -0.5378  0.1248
 1010MOL0     C39284   5.244  10.597   3.776 -0.2204 -1.1640  0.6188
 1010MOL0     C39285   5.235  10.647   3.926  0.2472 -0.4697  0.4984
 1010MOL0     C39286   5.107  10.726   3.973  0.8955 -0.1532 -0.2761
 1010MOL0    Cl39287   5.046  10.861   3.868 -0.0670  0.2109  0.1410
 1010MOL0     C39288   4.528  10.797   3.428  0.4812  0.5031  0.1746
 1010MOL0     C39289   4.418  10.883   3.423 -0.3247  0.3585  0.3368
 1010MOL0     O39290   4.133  10.879   3.530  1.2450 -0.2016 -0.2783
 1010MOL0     C39291   4.078  11.230   3.512 -0.1427  0.8740  0.4602
 1010MOL0     C39292   3.983  11.327   3.507 -0.2408 -0.1697 -0.5116
 1010MOL0     N39293   3.696  11.815   3.411  0.3665  0.4516  0.5844
 1010MOL0     N39294   3.778  11.900   3.468  0.6215 -0.6512 -0.5477
 1010MOL0     C39295   4.677  11.415   3.658 -0.7669  0.5665  0.0076
 1010MOL0     C39296   4.785  11.438   3.578 -0.2938  0.0298 -0.2895
 1010MOL0     C39297   5.095  11.607   3.304  0.3197  0.0174 -0.1515
 1010MOL0     C39298   5.169  11.709   3.362 -0.5002  0.6854  0.2356
 1010MOL0     C39299   5.258  11.777   3.294 -0.1327 -0.9097 -0.0077
 1010MOL0     C39300   5.282  11.765   3.158  0.5920  0.1881 -0.2089
 1010MOL0     O39301   5.367  11.863   3.101  0.3450 -0.7857 -0.6462
 1010MOL0     C39302   5.392  11.845   2.963  0.1858 -0.5303 -0.3042
 1010MOL0     C39303   5.477  11.955   2.906  0.1114 -0.1521 -0.3410
 1010MOL0     C39304   5.421  12.096   2.930 -0.0235 -1.0565  0.0424
 1010MOL0     C39305   5.311  12.123   2.828 -1.0701 -0.9609 -0.7044
 1010MOL0     C39306   5.301  12.271   2.808 -0.1850 -0.0681  0.4318
 1010MOL0     C39307   5.317  12.392   2.807  0.8758 -0.0746  0.2933
 1010MOL0     C39308   5.213  11.667   3.096  0.0589 -0.0679 -0.0328
 1010MOL0     C39309   5.126  11.576   3.167 -0.7006  0.5418  0.3423
 1010MOL0     C39310   5.063  11.462   3.093 -0.3886 -0.0679 -0.3224
 1010MOL0     H39311   4.835  11.760   3.639 -0.9191 -1.0838 -1.3394
 1010MOL0     H39312   4.617  11.716   3.778 -0.2225 -1.1160  0.6487
 1010MOL0     H39313   4.483  11.300   3.779  0.1783  1.1024 -2.8287
 1010MOL0     H39314   4.385  11.396   3.673 -0.4539 -1.2324  0.1351
 1010MOL0     H39315   4.221  11.326   3.829  1.5937 -0.6397 -1.6573
 1010MOL0     H39316   4.320  11.352   3.968  1.2143 -0.2744  0.0508
 1010MOL0     H39317   4.155  11.527   3.977 -0.5866  5.3050  0.9503
 1010MOL0     H39318   4.317  11.591   3.953 -1.8846  0.2087  2.5457
 1010MOL0     H39319   4.257  11.647   3.720  1.4174  3.4068  3.0498
 1010MOL0     H39320   4.111  11.547   3.734 -3.1503  2.1433  2.1080
 1010MOL0     H39321   4.180  11.794   3.890  1.3075 -0.2099 -1.9730
 1010MOL0     H39322   4.033  11.682   3.912 -1.6797 -1.8835 -2.6073
 1010MOL0     H39323   4.108  11.847   3.673  3.2001 -0.2614  2.4693
 1010MOL0     H39324   3.985  11.719   3.668  0.0092 -0.5028  0.1321
 1010MOL0     H39325   3.977  11.950   3.868  0.6850 -2.7438  1.7818
 1010MOL0     H39326   3.860  11.822   3.844 -2.5229  0.8565 -1.4481
 1010MOL0     H39327   3.803  12.053   3.750  2.3214 -0.0013  1.2061
 1010MOL0     H39328   3.938  12.036   3.646  0.0802  1.0622 -0.3470
 1010MOL0     H39329   3.611  11.830   3.733 -0.8784 -1.4117 -0.6918
 1010MOL0     H39330   3.466  11.710   3.395  1.5214  1.8587  0.3226
 1010MOL0     H39331   3.426  11.721   3.578  1.8562 -1.0650  3.0679
 1010MOL0     H39332   3.571  11.546   3.607 -0.3897  2.3836 -0.7943
 1010MOL0     H39333   3.425  11.492   3.519 -0.0941 -1.0709 -1.1126
 1010MOL0     H39334   3.544  11.465   3.314  0.2936 -1.9513  0.3876
 1010MOL0     H39335   3.694  11.551   3.381  0.0518  0.2667  0.8391
 1010MOL0     H39336   3.578  11.296   3.471 -0.9235 -0.2853 -1.5170
 1010MOL0     H39337   3.719  11.303   3.360 -1.2183 -1.3952  1.3533
 1010MOL0     H39338   3.729  11.165   3.673  1.1353 -1.4585  1.6754
 1010MOL0     H39339   3.964  10.889   3.716 -0.5466 -0.9627 -0.4294
 1010MOL0     H39340   3.851  10.868   3.597 -0.6745 -2.8541  2.5013
 1010MOL0     H39341   3.807  10.939   3.752 -1.8663 -0.9554 -2.1604
 1010MOL0     H39342   4.459  11.038   3.719  2.5265  2.8624 -1.3162
 1010MOL0     H39343   4.680  10.919   3.702  0.6049  1.2114 -1.0544
 1010MOL0     H39344   4.676  10.567   3.430 -0.9984 -0.0385  0.1932
 1010MOL0     H39345   4.835  10.634   3.381  0.9654  0.0952  1.6212
 1010MOL0     H39346   4.775  10.543   3.667 -0.8725  1.0035 -0.2823
 1010MOL0     H39347   4.861  10.430   3.556  6.0658  1.0184 -2.1702
 1010MOL0     H39348   4.978  10.669   3.660 -0.8115  0.5469  1.7037
 1010MOL0     H39349   5.044  10.549   3.534  1.5381  0.7469  1.9234
 1010MOL0     H39350   4.998  10.372   3.723 -2.1630  0.2758  1.8658
 1010MOL0     H39351   4.995  10.515   3.826  3.4950  2.1173 -0.0211
 1010MOL0     H39352   5.214  10.389   3.805 -1.3085  0.2623  1.7448
 1010MOL0     H39353   5.230  10.459   3.634  3.7934  0.5582  1.2473
 1010MOL0     H39354   5.221  10.680   3.708 -0.0254  0.3608  2.3337
 1010MOL0     H39355   5.350  10.577   3.762 -0.2671 -2.2421  1.6867
 1010MOL0     H39356   5.310  10.724   3.944  1.3471 -1.3250 -0.2786
 1010MOL0     H39357   5.262  10.566   3.995  1.1181  0.5448  1.3772
 1010MOL0     H39358   5.116  10.767   4.074  2.0647  4.2875 -1.9752
 1010MOL0     H39359   5.025  10.653   3.967  1.2586 -0.5807 -0.1047
 1010MOL0     H39360   4.554  10.729   3.348 -1.6152 -0.5745  0.3523
 1010MOL0     H39361   4.346  10.865   3.343  0.4067 -2.1346  0.1544
 1010MOL0     H39362   4.172  11.245   3.460 -0.8162  1.3976 -0.6398
 1010MOL0     H39363   4.013  11.425   3.473 -1.3715 -0.0581 -1.2411
 1010MOL0     H39364   4.622  11.323   3.639  0.1743 -0.2755  1.1765
 1010MOL0     H39365   4.829  11.367   3.509 -0.9176 -1.4541  0.7799
 1010MOL0     H39366   5.152  11.738   3.465  1.3124 -0.0565  0.7791
 1010MOL0     H39367   5.308  11.853   3.353  0.7684 -3.2366  2.4412
 1010MOL0     H39368   5.443  11.750   2.944 -0.5989 -1.3673  1.5257
 1010MOL0     H39369   5.292  11.842   2.917 -0.5676  1.0983  1.1324
 1010MOL0     H39370   5.506  11.924   2.806  2.0410 -0.8693  0.3933
 1010MOL0     H39371   5.572  11.951   2.960  0.0278 -0.4063 -0.2093
 1010MOL0     H39372   5.389  12.115   3.033 -0.4597 -1.7866  0.0487
 1010MOL0     H39373   5.505  12.165   2.918 -0.0241 -1.1972 -0.8956
 1010MOL0     H39374   5.213  12.089   2.862 -2.6973  1.6088 -2.4547
 1010MOL0     H39375   5.335  12.073   2.734  0.3096 -1.3080 -0.1919
 1010MOL0     H39376   5.325  12.499   2.810  0.9736  0.0743 -2.3845
 1010MOL0     H39377   5.238  11.650   2.992  2.1083  0.4378  0.3234
 1010MOL0     H39378   4.964  11.493   3.058 -1.2740 -3.5255 -1.2227
 1010MOL0     H39379   5.121  11.444   3.002  0.7214 -1.7827  0.6591
 1010MOL0     H39380   5.046  11.374   3.155 -2.0738 -1.9436 -3.2071
 1011MOL0     O39381   0.491   7.181   6.223 -0.2921  0.3410 -0.1118
 1011MOL0     C39382   0.374   7.199   6.200  0.3661  1.1468 -0.6594
 1011MOL0     O39383   0.270   7.128   6.249 -0.2121  0.0559 -0.2548
 1011MOL0     C39384   0.281   7.032   6.351 -0.1256  0.2404  1.0130
 1011MOL0     C39385   0.171   7.017   6.437 -0.2384 -0.1805  0.3931
 1011MOL0     C39386   0.188   6.929   6.544 -0.2988  0.7031  0.5682
 1011MOL0     C39387   0.299   6.856   6.560  0.6155  1.5109 -0.6175
 1011MOL0     O39388   0.291   6.768   6.668 -0.5224  0.4173  0.7269
 1011MOL0     C39389   0.418   6.740   6.728 -0.2677  0.3329  0.3652
 1011MOL0     C39390   0.418   6.669   6.862  0.4658  0.3317 -0.0711
 1011MOL0     C39391   0.409   6.766   6.982 -0.1897 -0.3052  0.2022
 1011MOL0     C39392   0.310   6.883   6.957 -0.0110 -0.7269  0.3396
 1011MOL0     C39393   0.256   6.941   7.088 -0.2377 -0.2607 -0.2670
 1011MOL0     C39394   0.123   7.005   7.055  0.8688  0.5967 -0.1582
 1011MOL0     C39395   0.049   7.047   7.178 -0.2154 -0.6646 -0.4537
 1011MOL0     C39396   0.117   7.183   7.228  0.3639 -0.0406 -1.1343
 1011MOL0     N39397   0.061   7.233   7.349 -0.4165 -0.2769 -0.6216
 1011MOL0     C39398  -0.071   7.260   7.377 -0.0013 -0.8925 -0.2590
 1011MOL0     C39399  -0.074   7.299   7.505  0.1176 -0.2084 -0.2427
 1011MOL0     C39400  -0.189   7.372   7.570  0.0521 -0.2556 -0.3477
 1011MOL0     C39401  -0.168   7.396   7.720 -1.6912  0.0073 -0.1800
 1011MOL0     C39402  -0.163   7.265   7.808  0.4813  0.5028 -0.3361
 1011MOL0     C39403  -0.284   7.168   7.796  0.2891 -0.0972 -0.2727
 1011MOL0     O39404  -0.295   7.058   7.887 -0.0631 -1.2598  0.0496
 1011MOL0     C39405  -0.239   6.938   7.870 -0.5917  0.2121  0.5679
 1011MOL0     C39406  -0.159   6.906   7.755 -0.7427  0.2678  0.3479
 1011MOL0     C39407  -0.119   6.779   7.719 -0.1279 -0.1448 -0.1777
 1011MOL0     C39408  -0.043   6.766   7.590 -0.5450 -0.1534 -0.3165
 1011MOL0     C39409  -0.166   6.670   7.804 -0.4300  0.6210 -0.1034
 1011MOL0     C39410  -0.139   6.528   7.781  0.3323 -0.1764  0.4412
 1011MOL0     O39411  -0.187   6.433   7.871  0.7881  0.1993 -0.2588
 1011MOL0     C39412  -0.193   6.305   7.846 -0.0157  1.1112  0.2093
 1011MOL0     C39413  -0.166   6.216   7.945  0.3498 -0.1353 -0.6910
 1011MOL0     C39414  -0.184   6.080   7.929 -0.3021  0.3948  0.2648
 1011MOL0     C39415  -0.224   6.033   7.801 -0.2834  0.0542  0.1564
 1011MOL0     O39416  -0.226   5.896   7.769 -0.6496 -0.0372 -0.4945
 1011MOL0     C39417  -0.171   5.799   7.852  0.6176 -0.1804 -0.1420
 1011MOL0     C39418  -0.165   5.668   7.785  0.7660 -0.1159 -0.2321
 1011MOL0     C39419  -0.297   5.616   7.731 -0.4324  0.8700  0.6351
 1011MOL0     C39420  -0.304   5.462   7.734  1.2990  0.0159  0.1760
 1011MOL0     C39421  -0.440   5.409   7.670 -0.0789 -0.1743  0.0847
 1011MOL0     C39422  -0.546   5.434   7.778 -0.0811  0.0836  1.1419
 1011MOL0     C39423  -0.649   5.318   7.815 -0.2024  0.1898  0.5903
 1011MOL0     C39424  -0.603   5.223   7.925 -0.7158 -0.2949 -0.5413
 1011MOL0    Cl39425  -0.737   5.120   7.970  0.1597 -0.5327 -0.0795
 1011MOL0     C39426  -0.242   6.120   7.690  0.6519  0.2517  0.2659
 1011MOL0     C39427  -0.237   6.251   7.722 -0.7445  0.0568  0.0498
 1011MOL0     O39428  -0.092   6.505   7.671 -0.3550  0.5508 -0.0152
 1011MOL0     C39429  -0.239   6.703   7.915  0.8542  0.0720 -0.6349
 1011MOL0     C39430  -0.273   6.834   7.945 -0.4892  0.4377 -0.0657
 1011MOL0     N39431   0.050   7.288   7.560  0.7040 -0.1486  0.1653
 1011MOL0     N39432   0.127   7.241   7.472  0.0264  0.7940 -0.1918
 1011MOL0     C39433   0.404   6.859   6.469 -0.3063 -0.4263 -0.2111
 1011MOL0     C39434   0.398   6.956   6.368  0.7644  0.1618 -0.4055
 1011MOL0     C39435   0.329   7.326   6.125  0.6250 -0.3376  0.3838
 1011MOL0     C39436   0.385   7.458   6.147  0.0648 -0.3306  0.4754
 1011MOL0     C39437   0.328   7.572   6.083 -1.3398  0.7777  0.3554
 1011MOL0     C39438   0.221   7.564   5.985 -0.4276  0.0186 -0.1010
 1011MOL0     O39439   0.171   7.679   5.917 -0.3353  0.0328  0.5159
 1011MOL0     C39440   0.189   7.676   5.774 -0.0569  0.8172  0.2327
 1011MOL0     C39441   0.098   7.776   5.715 -0.2385  0.7087  0.5472
 1011MOL0     C39442  -0.045   7.721   5.706  0.0632 -0.0522 -0.5905
 1011MOL0     C39443  -0.130   7.775   5.819  0.0617 -0.2332  0.0308
 1011MOL0     C39444  -0.267   7.725   5.832 -1.0418  0.8376 -0.1852
 1011MOL0     C39445  -0.382   7.702   5.854  0.3769  0.0633 -0.4536
 1011MOL0     C39446   0.178   7.430   5.964  0.0176  0.0510 -0.3953
 1011MOL0     C39447   0.230   7.320   6.029  0.4065  1.0633 -0.1638
 1011MOL0     C39448   0.153   7.190   5.988 -0.2950 -0.4816 -0.0854
 1011MOL0     H39449   0.086   7.085   6.427 -0.2569 -0.1931  0.4676
 1011MOL0     H39450   0.109   6.934   6.619  1.0069 -1.4665  2.2279
 1011MOL0     H39451   0.484   6.827   6.728 -1.1484  1.0396  1.4972
 1011MOL0     H39452   0.464   6.674   6.654 -2.2835 -0.3934 -0.3027
 1011MOL0     H39453   0.330   6.604   6.873  1.9554 -1.6175  1.0222
 1011MOL0     H39454   0.497   6.594   6.862 -1.1972 -1.6123 -2.9572
 1011MOL0     H39455   0.390   6.715   7.077 -1.0269  0.6456  0.5582
 1011MOL0     H39456   0.511   6.802   7.000 -0.7155 -0.1138  3.2307
 1011MOL0     H39457   0.355   6.957   6.891  3.8437 -1.3964  1.9367
 1011MOL0     H39458   0.227   6.842   6.897  1.6501 -3.4706 -0.2738
 1011MOL0     H39459   0.319   7.012   7.141 -1.0318 -0.0071  0.3561
 1011MOL0     H39460   0.249   6.863   7.165  2.0664 -0.0781  0.2088
 1011MOL0     H39461   0.126   7.087   6.983 -0.0751  0.5074 -0.3134
 1011MOL0     H39462   0.052   6.932   7.015 -0.4234  2.8539 -2.2921
 1011MOL0     H39463   0.056   6.973   7.259  3.2948 -1.9824 -1.7778
 1011MOL0     H39464  -0.058   7.068   7.167 -0.7374 -4.0011 -3.6008
 1011MOL0     H39465   0.226   7.183   7.240  0.2446  0.2296  0.0941
 1011MOL0     H39466   0.100   7.256   7.149 -2.8519  2.0063  1.1923
 1011MOL0     H39467  -0.157   7.264   7.312  0.4712  0.3809 -0.8462
 1011MOL0     H39468  -0.285   7.321   7.559  0.0499 -0.9783  2.3970
 1011MOL0     H39469  -0.194   7.466   7.514  1.7540  0.2106  0.2108
 1011MOL0     H39470  -0.075   7.452   7.732 -1.5728  1.0249 -4.4184
 1011MOL0     H39471  -0.250   7.463   7.749 -2.4762 -0.6348 -0.8699
 1011MOL0     H39472  -0.077   7.205   7.777  0.3114 -2.1144  3.5552
 1011MOL0     H39473  -0.169   7.284   7.916 -2.2754 -0.8576 -0.1860
 1011MOL0     H39474  -0.372   7.234   7.793  0.9902  0.8587 -0.2937
 1011MOL0     H39475  -0.294   7.125   7.696 -3.2320 -3.5932  1.2868
 1011MOL0     H39476  -0.129   6.982   7.684 -2.0044  1.0412  0.6068
 1011MOL0     H39477  -0.099   6.702   7.521  1.5977  0.5325 -2.8776
 1011MOL0     H39478   0.048   6.718   7.627 -1.1847 -1.9678 -0.9797
 1011MOL0     H39479  -0.021   6.851   7.524  1.5788 -2.0815 -2.3185
 1011MOL0     H39480  -0.142   6.254   8.043  0.8280 -1.4681 -0.2789
 1011MOL0     H39481  -0.175   6.001   8.003 -4.7593 -3.2096 -2.4800
 1011MOL0     H39482  -0.068   5.829   7.874 -0.0828  1.1848  1.5451
 1011MOL0     H39483  -0.213   5.791   7.952 -0.5977  1.2150 -0.4989
 1011MOL0     H39484  -0.100   5.680   7.698 -1.2128 -2.2349 -2.1080
 1011MOL0     H39485  -0.104   5.598   7.843  0.1732 -0.2972  0.1830
 1011MOL0     H39486  -0.310   5.652   7.628  0.2745 -2.7441 -0.8612
 1011MOL0     H39487  -0.381   5.660   7.786  0.4921  0.2512  2.6258
 1011MOL0     H39488  -0.306   5.429   7.839 -2.3662  0.8360  0.5183
 1011MOL0     H39489  -0.228   5.415   7.672 -0.2807 -1.6059 -0.6147
 1011MOL0     H39490  -0.464   5.462   7.577 -2.0943 -4.6059 -2.2706
 1011MOL0     H39491  -0.432   5.303   7.645  3.5111 -0.0051  0.0733
 1011MOL0     H39492  -0.608   5.523   7.763 -0.8408 -0.3692  1.5235
 1011MOL0     H39493  -0.498   5.457   7.874  0.5171  1.6484  0.5026
 1011MOL0     H39494  -0.689   5.257   7.733 -1.0838 -2.0527  2.5990
 1011MOL0     H39495  -0.732   5.371   7.863 -1.3020 -0.3159 -0.6913
 1011MOL0     H39496  -0.570   5.291   8.004  1.7648 -1.9515 -0.0395
 1011MOL0     H39497  -0.519   5.161   7.891  0.8938  1.6323 -0.2592
 1011MOL0     H39498  -0.263   6.076   7.593  2.5089 -0.6660  0.2354
 1011MOL0     H39499  -0.260   6.324   7.645  5.2411  1.5979 -0.7121
 1011MOL0     H39500  -0.271   6.629   7.988 -0.5602 -0.1631 -1.4669
 1011MOL0     H39501  -0.331   6.848   8.035 -0.9816  1.7586 -0.5672
 1011MOL0     H39502   0.495   6.801   6.468  0.3076  0.5116 -0.0248
 1011MOL0     H39503   0.486   6.959   6.304  0.1127  2.2816 -1.3200
 1011MOL0     H39504   0.462   7.463   6.223  1.1647 -4.2454 -0.1345
 1011MOL0     H39505   0.375   7.664   6.116  1.6984  0.0370 -1.5193
 1011MOL0     H39506   0.295   7.695   5.760  0.9780 -4.0974 -0.2090
 1011MOL0     H39507   0.169   7.580   5.726 -3.1533  2.5871 -2.4717
 1011MOL0     H39508   0.139   7.786   5.614  0.0945  4.5104  0.9135
 1011MOL0     H39509   0.108   7.878   5.754  1.9925  1.7939 -2.4467
 1011MOL0     H39510  -0.102   7.749   5.617  1.5097  2.4341 -0.8238
 1011MOL0     H39511  -0.048   7.611   5.709  0.7680 -0.3377 -4.7191
 1011MOL0     H39512  -0.143   7.882   5.802  0.0035 -0.5290 -1.9959
 1011MOL0     H39513  -0.097   7.752   5.920 -1.8680  1.7054  1.2078
 1011MOL0     H39514  -0.489   7.698   5.860  0.4671 -0.9845  1.9805
 1011MOL0     H39515   0.082   7.412   5.915 -0.0258  0.7376 -0.5653
 1011MOL0     H39516   0.075   7.157   6.057  0.0464 -0.8106  0.1506
 1011MOL0     H39517   0.101   7.201   5.893  0.0637 -1.0764 -0.3616
 1011MOL0     H39518   0.220   7.104   5.975 -0.8532 -1.1897  1.4668
 1012MOL0     O39519   5.679   9.801   9.733 -0.5322 -0.0771  0.2493
 1012MOL0     C39520   5.754   9.894   9.764  0.1887  0.1241  0.6640
 1012MOL0     O39521   5.826   9.891   9.877  0.2633  0.4564  0.0201
 1012MOL0     C39522   5.771   9.821   9.982 -0.2031 -0.0089  0.2894
 1012MOL0     C39523   5.630   9.802  10.013  0.4311  0.2014  0.0194
 1012MOL0     C39524   5.596   9.717  10.120  0.0771  0.1881  0.4572
 1012MOL0     C39525   5.692   9.664  10.201  0.4804  0.2552  0.2827
 1012MOL0     O39526   5.651   9.581  10.296  1.0099  0.2318  0.1411
 1012MOL0     C39527   5.568   9.637  10.405  0.4200 -0.3549 -0.0623
 1012MOL0     C39528   5.413   9.617  10.390  0.1725 -0.0885 -0.2672
 1012MOL0     C39529   5.369   9.481  10.324  0.0553  0.1296  0.5208
 1012MOL0     C39530   5.222   9.463  10.323  0.3733 -0.2418  0.6268
 1012MOL0     C39531   5.208   9.315  10.347  0.2830  0.8546  0.3772
 1012MOL0     C39532   5.069   9.283  10.310  0.1872  0.9124  0.6655
 1012MOL0     C39533   5.021   9.169  10.408 -0.2043  0.7173 -0.0243
 1012MOL0     C39534   5.047   9.038  10.350  0.8463  0.2312  1.0811
 1012MOL0     N39535   4.970   8.932  10.423 -0.4807 -0.6852  0.5634
 1012MOL0     C39536   5.021   8.869  10.528 -0.5073 -0.4959 -0.0359
 1012MOL0     C39537   4.934   8.769  10.558  0.5515 -0.1519  0.4420
 1012MOL0     C39538   4.970   8.659  10.654  0.0424 -0.2913 -0.3863
 1012MOL0     C39539   5.101   8.678  10.743  0.3570 -0.0828 -0.8941
 1012MOL0     C39540   5.070   8.720  10.886 -0.1158 -0.0394  0.2023
 1012MOL0     C39541   5.031   8.872  10.892  0.1113  0.0944 -0.3095
 1012MOL0     O39542   5.142   8.961  10.866 -0.6564  0.1597 -0.2786
 1012MOL0     C39543   5.201   9.028  10.965 -0.3946  0.1095 -0.5562
 1012MOL0     C39544   5.200   8.968  11.098 -0.6121 -0.1625  0.2656
 1012MOL0     C39545   5.275   9.030  11.199  1.0487 -0.4706  0.3969
 1012MOL0     C39546   5.267   8.969  11.335 -0.4970  0.0666 -0.5575
 1012MOL0     C39547   5.330   9.158  11.175 -0.6320  0.2612  0.0728
 1012MOL0     C39548   5.396   9.245  11.282  0.3434  0.4621  0.3293
 1012MOL0     O39549   5.504   9.320  11.236 -0.3220 -0.6768  0.6091
 1012MOL0     C39550   5.563   9.431  11.295 -0.0413 -0.0336  0.4745
 1012MOL0     C39551   5.667   9.491  11.221  0.5383 -0.7199 -0.6860
 1012MOL0     C39552   5.727   9.608  11.268 -0.1726 -0.1305  0.1187
 1012MOL0     C39553   5.680   9.680  11.374 -0.4513  0.3505  1.4726
 1012MOL0     O39554   5.719   9.807  11.406 -0.3809 -0.8558 -0.0468
 1012MOL0     C39555   5.770   9.824  11.537  0.2101  0.3972  0.0181
 1012MOL0     C39556   5.878   9.937  11.537 -0.3761  0.3714  0.0100
 1012MOL0     C39557   5.943   9.961  11.677  0.1463  0.2407  0.1418
 1012MOL0     C39558   6.039   9.842  11.697  0.0456 -0.5205  0.0331
 1012MOL0     C39559   6.169   9.876  11.780 -0.2715  0.1244  0.1625
 1012MOL0     C39560   6.276   9.766  11.792 -0.0534 -0.7236  1.1615
 1012MOL0     C39561   6.414   9.809  11.863  0.2132  0.5479 -0.1951
 1012MOL0     C39562   6.480   9.927  11.797  0.3642  0.0992 -0.2627
 1012MOL0    Cl39563   6.627   9.976  11.894 -0.1161 -0.2961  0.0449
 1012MOL0     C39564   5.572   9.621  11.442 -0.0593 -0.9652  0.3660
 1012MOL0     C39565   5.516   9.497  11.405  0.5677 -0.5581 -0.1632
 1012MOL0     O39566   5.342   9.258  11.392  0.4607  0.4828  0.4786
 1012MOL0     C39567   5.322   9.216  11.043  0.0323  0.4717 -0.4539
 1012MOL0     C39568   5.270   9.147  10.939  0.8924  0.1277 -0.1572
 1012MOL0     N39569   4.828   8.774  10.477 -0.7409 -0.1403 -0.1797
 1012MOL0     N39570   4.853   8.868  10.389  0.3405  0.0370  0.2395
 1012MOL0     C39571   5.822   9.673  10.176 -0.5042 -1.1876  0.2629
 1012MOL0     C39572   5.861   9.764  10.072 -0.2202 -1.1097  0.0305
 1012MOL0     C39573   5.771  10.005   9.665  0.1945  0.2263 -0.9116
 1012MOL0     C39574   5.752   9.971   9.529  0.1915 -0.1139 -0.2473
 1012MOL0     C39575   5.775  10.061   9.422 -0.5590  1.9769 -0.7598
 1012MOL0     C39576   5.813  10.192   9.457  0.2346  0.6365 -0.6234
 1012MOL0     O39577   5.815  10.278   9.361 -0.5263  0.0662  0.0674
 1012MOL0     C39578   5.687  10.318   9.312 -0.6513 -0.5066 -0.1602
 1012MOL0     C39579   5.708  10.356   9.161 -0.6269  0.4028 -0.2932
 1012MOL0     C39580   5.818  10.461   9.138 -0.2834 -0.7714  0.1751
 1012MOL0     C39581   5.788  10.603   9.183 -0.3407 -0.1664  0.5268
 1012MOL0     C39582   5.696  10.663   9.086  0.2123 -0.9020  0.8174
 1012MOL0     C39583   5.611  10.696   9.007  0.4505  0.3577 -0.8355
 1012MOL0     C39584   5.826  10.224   9.592 -0.3692  0.0481  1.6748
 1012MOL0     C39585   5.806  10.137   9.697 -1.1830  0.0777 -0.2747
 1012MOL0     C39586   5.832  10.204   9.839  0.0394  0.6359 -0.3780
 1012MOL0     H39587   5.556   9.843   9.944  0.6139 -1.4946 -1.2202
 1012MOL0     H39588   5.491   9.703  10.143  0.6602 -0.3536  3.2154
 1012MOL0     H39589   5.581   9.745  10.417 -1.5403  0.0243 -0.9403
 1012MOL0     H39590   5.607   9.588  10.495 -2.4879  0.0325  1.5336
 1012MOL0     H39591   5.367   9.632  10.488  0.3279  0.1882 -0.2364
 1012MOL0     H39592   5.374   9.698  10.328 -4.2813 -2.6053 -1.2145
 1012MOL0     H39593   5.414   9.473  10.224  3.2419 -1.4632  1.9443
 1012MOL0     H39594   5.424   9.403  10.376  2.0833  2.0336  1.4189
 1012MOL0     H39595   5.179   9.511  10.412 -2.2564 -1.0186 -0.1547
 1012MOL0     H39596   5.169   9.504  10.237  3.5475 -0.2852 -1.5038
 1012MOL0     H39597   5.243   9.286  10.446  3.6476 -2.1892 -1.4465
 1012MOL0     H39598   5.270   9.251  10.283 -2.5684 -0.9367 -0.7997
 1012MOL0     H39599   5.001   9.368  10.310 -1.1148  0.0091  3.8053
 1012MOL0     H39600   5.074   9.247  10.206 -4.8197 -0.5698  0.7051
 1012MOL0     H39601   4.913   9.189  10.408 -0.3792 -0.1205 -1.2585
 1012MOL0     H39602   5.062   9.181  10.509  1.9822  2.5633 -1.0501
 1012MOL0     H39603   5.026   9.053  10.243  3.1685  1.9337  0.7982
 1012MOL0     H39604   5.154   9.015  10.355  0.5517 -1.3217  0.8437
 1012MOL0     H39605   5.120   8.891  10.567 -0.6109  0.5333 -0.3202
 1012MOL0     H39606   4.987   8.566  10.599  0.1089  1.0312 -2.7577
 1012MOL0     H39607   4.888   8.640  10.723 -1.5813  0.8696 -1.8974
 1012MOL0     H39608   5.151   8.580  10.747  1.4263  0.4275 -1.3646
 1012MOL0     H39609   5.171   8.744  10.691  0.8379 -0.8421 -1.2324
 1012MOL0     H39610   4.993   8.652  10.924  0.0339  0.1814  0.9103
 1012MOL0     H39611   5.149   8.693  10.956  0.8245  1.4942 -0.2214
 1012MOL0     H39612   4.953   8.900  10.820  0.6848  0.2774 -0.8649
 1012MOL0     H39613   4.992   8.890  10.993  0.6332 -1.6810  0.2479
 1012MOL0     H39614   5.136   8.884  11.126 -1.0787 -0.0877 -0.5411
 1012MOL0     H39615   5.168   8.958  11.379  1.0971 -0.3895  3.3546
 1012MOL0     H39616   5.330   9.021  11.408 -0.3546 -1.4103  0.4190
 1012MOL0     H39617   5.318   8.873  11.329  0.0702  0.2381  0.9817
 1012MOL0     H39618   5.690   9.441  11.127 -2.2898 -0.5546 -1.5597
 1012MOL0     H39619   5.797   9.661  11.204 -4.3237  2.5121 -2.7449
 1012MOL0     H39620   5.688   9.844  11.606 -0.0740 -3.2914  0.9425
 1012MOL0     H39621   5.809   9.732  11.580 -2.9916 -0.0359  2.4224
 1012MOL0     H39622   5.954   9.916  11.462 -0.5629  0.3581 -0.1796
 1012MOL0     H39623   5.829  10.023  11.489 -0.3365  0.0869 -0.5484
 1012MOL0     H39624   5.868   9.967  11.756 -0.5434  2.0730 -0.5800
 1012MOL0     H39625   6.003  10.051  11.695  0.5869 -0.4412  2.3594
 1012MOL0     H39626   6.060   9.809  11.595 -1.9976 -0.0057 -0.5968
 1012MOL0     H39627   5.986   9.760  11.746  0.7751  0.8404  3.3559
 1012MOL0     H39628   6.201   9.968  11.729  0.8719  0.1496  0.8925
 1012MOL0     H39629   6.150   9.907  11.883 -0.1218 -2.1146  0.9174
 1012MOL0     H39630   6.275   9.732  11.688 -0.5762  2.8992 -0.1579
 1012MOL0     H39631   6.238   9.679  11.846 -1.0332  0.2443  2.0602
 1012MOL0     H39632   6.462   9.711  11.861 -3.5491 -1.5088  1.0442
 1012MOL0     H39633   6.387   9.827  11.967 -1.9763  0.9374 -0.7936
 1012MOL0     H39634   6.411  10.009  11.817 -2.1589 -2.4216  2.2254
 1012MOL0     H39635   6.500   9.900  11.692 -0.0806 -3.4253  0.4264
 1012MOL0     H39636   5.538   9.671  11.532 -0.4085  1.2377 -0.9071
 1012MOL0     H39637   5.442   9.454  11.471  0.4629  0.0913  0.1428
 1012MOL0     H39638   5.364   9.314  11.023  3.5626  0.7725  5.9846
 1012MOL0     H39639   5.279   9.180  10.836  0.1544 -4.7189 -2.0277
 1012MOL0     H39640   5.898   9.631  10.242  1.0160  0.6309 -0.2339
 1012MOL0     H39641   5.967   9.784  10.064 -0.5879  1.3249  0.4737
 1012MOL0     H39642   5.724   9.871   9.500  1.1037 -0.8649  1.3260
 1012MOL0     H39643   5.773  10.041   9.316  1.1964 -1.9666 -0.2079
 1012MOL0     H39644   5.613  10.238   9.323 -0.3211 -1.0569 -1.6215
 1012MOL0     H39645   5.640  10.406   9.357  0.8145  0.5326 -0.5618
 1012MOL0     H39646   5.611  10.381   9.117 -1.3645 -1.9233 -0.0811
 1012MOL0     H39647   5.743  10.261   9.119 -3.7852 -0.9447 -0.1333
 1012MOL0     H39648   5.902  10.432   9.202 -1.4215 -0.4619  1.8842
 1012MOL0     H39649   5.864  10.468   9.039  3.2637  3.1641  1.7392
 1012MOL0     H39650   5.889  10.646   9.175 -1.0457  1.5985  0.7036
 1012MOL0     H39651   5.748  10.619   9.283  0.5338 -0.3355  0.9126
 1012MOL0     H39652   5.536  10.727   8.937 -1.1291 -0.8866  0.2308
 1012MOL0     H39653   5.863  10.321   9.624 -4.2366  0.8120  4.6036
 1012MOL0     H39654   5.767  10.157   9.914  0.7982 -1.7802 -1.1266
 1012MOL0     H39655   5.937  10.194   9.866 -0.1815  1.2744  0.7617
 1012MOL0     H39656   5.806  10.310   9.834 -0.0698  0.6870  0.9664
 1013MOL0     O39657   0.218   2.713   3.933 -0.3598 -0.1247  0.6297
 1013MOL0     C39658   0.164   2.627   3.993  0.6848 -0.3629  0.1526
 1013MOL0     O39659   0.129   2.640   4.128 -0.5333 -0.3523 -0.0388
 1013MOL0     C39660   0.138   2.761   4.196  0.7121  0.0616  1.6081
 1013MOL0     C39661   0.101   2.885   4.139  0.2820 -0.0106 -0.9253
 1013MOL0     C39662   0.104   2.991   4.233 -1.4110  0.0909 -0.0004
 1013MOL0     C39663   0.139   2.976   4.373  0.1744  0.8828 -0.4475
 1013MOL0     O39664   0.146   3.089   4.462  0.4676 -0.8807  0.3068
 1013MOL0     C39665   0.178   3.081   4.603 -0.0005  0.6818  0.3562
 1013MOL0     C39666   0.331   3.081   4.621 -1.1685 -0.2293  0.5574
 1013MOL0     C39667   0.388   2.999   4.733  0.2606  0.4554  1.0533
 1013MOL0     C39668   0.363   3.059   4.880 -0.7665  0.1752 -0.3574
 1013MOL0     C39669   0.419   2.946   4.976  0.3348 -0.3325  0.7645
 1013MOL0     C39670   0.354   2.957   5.114  0.5524 -0.2665  0.3779
 1013MOL0     C39671   0.398   2.840   5.188 -0.3803 -0.1598 -0.0351
 1013MOL0     C39672   0.347   2.838   5.331 -0.1014 -0.1400  0.1410
 1013MOL0     N39673   0.406   2.728   5.394 -0.1777 -0.7571  0.1085
 1013MOL0     C39674   0.399   2.592   5.359 -0.0124 -0.8652 -0.6183
 1013MOL0     C39675   0.477   2.531   5.447  0.1325  0.2323  0.2623
 1013MOL0     C39676   0.501   2.386   5.448 -0.8502 -0.2668 -0.4175
 1013MOL0     C39677   0.648   2.361   5.425  0.2063 -0.6941 -0.3433
 1013MOL0     C39678   0.656   2.329   5.274  0.3331  0.1882 -0.2356
 1013MOL0     C39679   0.802   2.282   5.234 -0.2391 -0.3891  0.0702
 1013MOL0     O39680   0.864   2.192   5.330  0.4569  0.1876  0.6002
 1013MOL0     C39681   0.976   2.116   5.289  0.5319  0.3589  0.4741
 1013MOL0     C39682   1.036   2.110   5.159  0.6970  0.0844 -0.3262
 1013MOL0     C39683   1.162   2.057   5.133 -0.6263 -0.5183  0.4785
 1013MOL0     C39684   1.229   2.090   5.004 -0.2653  0.0113 -0.1629
 1013MOL0     C39685   1.229   1.994   5.243  0.2972 -0.3881 -0.5029
 1013MOL0     C39686   1.349   1.910   5.230  0.2108  0.7111 -0.5260
 1013MOL0     O39687   1.403   1.858   5.347  0.3114  0.8596 -0.0717
 1013MOL0     C39688   1.521   1.784   5.356  0.8129 -0.1238 -0.5372
 1013MOL0     C39689   1.617   1.760   5.264  0.9708 -0.5787  0.0563
 1013MOL0     C39690   1.723   1.681   5.285 -0.3047  0.5497 -0.6720
 1013MOL0     C39691   1.734   1.618   5.409  0.1876  0.7715  0.9790
 1013MOL0     O39692   1.835   1.532   5.432  0.0468 -0.2854 -0.4370
 1013MOL0     C39693   1.878   1.477   5.555  0.9909  0.8318 -0.1296
 1013MOL0     C39694   1.999   1.390   5.525 -0.5423  0.1248  0.8716
 1013MOL0     C39695   2.037   1.308   5.651 -0.6437  0.0275  0.0909
 1013MOL0     C39696   2.077   1.396   5.773  0.8478 -0.4064 -0.2524
 1013MOL0     C39697   2.103   1.304   5.888 -1.0515 -0.2336  1.2477
 1013MOL0     C39698   2.185   1.380   6.000  0.5434  0.6599  0.4007
 1013MOL0     C39699   2.256   1.276   6.088  0.1614  0.4625 -0.5028
 1013MOL0     C39700   2.337   1.348   6.188 -1.3849 -0.4369  0.2708
 1013MOL0    Cl39701   2.226   1.447   6.290  0.5244 -0.1087 -0.3800
 1013MOL0     C39702   1.639   1.638   5.513 -0.7800 -0.1619  0.0282
 1013MOL0     C39703   1.527   1.717   5.482  0.2638 -1.1916  0.1069
 1013MOL0     O39704   1.399   1.895   5.123  0.1382  0.3245  0.1230
 1013MOL0     C39705   1.166   1.990   5.373 -0.2328 -0.0939 -0.0760
 1013MOL0     C39706   1.049   2.060   5.393  0.0727  1.7913 -0.2260
 1013MOL0     N39707   0.522   2.621   5.543  0.3942  0.1415  0.8199
 1013MOL0     N39708   0.470   2.742   5.512 -0.6616 -0.1681 -0.2504
 1013MOL0     C39709   0.165   2.847   4.420  1.1677 -0.2998  0.2836
 1013MOL0     C39710   0.164   2.750   4.323 -1.0672 -0.1197 -0.5354
 1013MOL0     C39711   0.137   2.498   3.918  0.4270 -1.1679  1.0078
 1013MOL0     C39712   0.165   2.488   3.784  0.7767 -0.0034  0.1249
 1013MOL0     C39713   0.136   2.368   3.706  0.2114  0.4043  1.2506
 1013MOL0     C39714   0.083   2.260   3.773 -0.3811 -0.4076 -0.0800
 1013MOL0     O39715   0.046   2.156   3.690  0.3410  0.0094 -0.1746
 1013MOL0     C39716   0.058   2.012   3.725 -0.3117 -0.9647 -0.7837
 1013MOL0     C39717   0.140   1.944   3.615 -0.2664 -0.1560  0.1365
 1013MOL0     C39718   0.078   1.965   3.480 -1.0566 -0.5758 -0.0433
 1013MOL0     C39719   0.157   1.899   3.362  0.6927  0.1910  0.6606
 1013MOL0     C39720   0.157   1.749   3.371 -1.3412  0.0271  0.1346
 1013MOL0     C39721   0.142   1.628   3.382 -0.5528 -0.4057 -0.2254
 1013MOL0     C39722   0.065   2.255   3.909 -0.6297 -0.6837 -0.1537
 1013MOL0     C39723   0.086   2.384   3.981 -0.3157  0.0453 -0.9613
 1013MOL0     C39724   0.058   2.366   4.128  0.1429 -0.5987 -0.9256
 1013MOL0     H39725   0.080   2.889   4.033  1.5150  0.5641 -1.1692
 1013MOL0     H39726   0.070   3.088   4.197  0.1048  0.8440  0.4915
 1013MOL0     H39727   0.127   2.998   4.652  2.4320 -1.3267 -0.3018
 1013MOL0     H39728   0.123   3.170   4.635 -1.2467  1.4587 -3.4396
 1013MOL0     H39729   0.373   3.036   4.530  1.1707  0.7527  1.0824
 1013MOL0     H39730   0.374   3.179   4.643 -0.0673 -0.4482 -0.4655
 1013MOL0     H39731   0.328   2.908   4.722  2.5922 -1.1307  0.8272
 1013MOL0     H39732   0.493   2.982   4.709  0.2309 -2.2222  2.3795
 1013MOL0     H39733   0.409   3.158   4.891 -1.1313  0.3452 -0.3270
 1013MOL0     H39734   0.258   3.083   4.901 -1.0933 -0.0931 -1.6076
 1013MOL0     H39735   0.528   2.955   4.972  0.8315 -4.5189 -2.5082
 1013MOL0     H39736   0.388   2.853   4.927  0.6970  0.2041 -0.5308
 1013MOL0     H39737   0.378   3.050   5.166 -0.5708  0.0656  0.3237
 1013MOL0     H39738   0.246   2.962   5.126  0.7140 -0.9219  2.5902
 1013MOL0     H39739   0.507   2.847   5.185 -0.2548  0.6464 -6.1933
 1013MOL0     H39740   0.383   2.749   5.129  3.0479  0.8894 -2.9308
 1013MOL0     H39741   0.368   2.931   5.385 -2.5040  1.5905 -1.6702
 1013MOL0     H39742   0.238   2.832   5.338  0.0360 -2.3490  1.3710
 1013MOL0     H39743   0.352   2.549   5.272 -1.1273 -1.4770  0.2608
 1013MOL0     H39744   0.437   2.325   5.384 -0.9934 -1.4973  0.8456
 1013MOL0     H39745   0.488   2.345   5.549  2.4178  3.1618  1.6628
 1013MOL0     H39746   0.700   2.452   5.454 -1.1778 -0.0289  0.1612
 1013MOL0     H39747   0.690   2.283   5.490 -1.6151 -1.6788 -0.2734
 1013MOL0     H39748   0.591   2.242   5.258 -1.6743  0.9095  3.1397
 1013MOL0     H39749   0.617   2.409   5.210  0.3620  0.7372  0.4246
 1013MOL0     H39750   0.788   2.236   5.135 -1.4422 -2.1235  1.0039
 1013MOL0     H39751   0.865   2.371   5.226 -1.6778  0.6379 -0.3503
 1013MOL0     H39752   0.982   2.155   5.076  0.7800 -2.6457 -1.9798
 1013MOL0     H39753   1.237   1.998   4.945  0.0065  0.6295 -1.1292
 1013MOL0     H39754   1.323   2.145   5.013 -1.4115  2.5732 -2.4177
 1013MOL0     H39755   1.178   2.160   4.937  1.2082 -0.6728 -2.1062
 1013MOL0     H39756   1.618   1.800   5.163 -2.3224 -5.6678 -2.3891
 1013MOL0     H39757   1.798   1.663   5.208  3.9857  1.5648  2.8083
 1013MOL0     H39758   1.904   1.562   5.618 -1.6849  1.7245 -0.1141
 1013MOL0     H39759   1.794   1.419   5.594 -0.1392  1.5786 -1.3771
 1013MOL0     H39760   1.989   1.326   5.437  3.4068  0.7850 -0.2352
 1013MOL0     H39761   2.073   1.461   5.488  2.0480 -1.2255  3.1407
 1013MOL0     H39762   2.118   1.237   5.633  0.4716 -0.0597  4.3608
 1013MOL0     H39763   1.952   1.246   5.684 -0.0875 -0.6873  0.2071
 1013MOL0     H39764   1.997   1.461   5.809  0.6559 -0.5184 -0.4653
 1013MOL0     H39765   2.167   1.455   5.752  2.6361 -2.4492  1.2814
 1013MOL0     H39766   2.007   1.265   5.925 -0.0163 -1.9701  2.2031
 1013MOL0     H39767   2.168   1.220   5.863  0.1908  1.0890 -0.1533
 1013MOL0     H39768   2.122   1.445   6.061 -0.9351  0.0007 -0.3731
 1013MOL0     H39769   2.259   1.438   5.943  0.1957 -0.4419 -1.2714
 1013MOL0     H39770   2.328   1.214   6.034  1.0920 -0.1293  1.3344
 1013MOL0     H39771   2.185   1.210   6.138 -0.1672  0.8542 -0.4455
 1013MOL0     H39772   2.420   1.404   6.143 -2.5747  0.0396 -1.4437
 1013MOL0     H39773   2.387   1.279   6.256 -1.1930  0.2576  0.8412
 1013MOL0     H39774   1.653   1.600   5.613 -1.8245 -0.4423  0.0827
 1013MOL0     H39775   1.452   1.729   5.559  0.5361 -4.5513  1.0454
 1013MOL0     H39776   1.204   1.932   5.456 -1.8276 -1.2482 -0.1156
 1013MOL0     H39777   1.014   2.064   5.495  1.7767 -5.4099  1.2152
 1013MOL0     H39778   0.193   2.814   4.520 -0.1539 -2.2820  0.0537
 1013MOL0     H39779   0.180   2.647   4.356 -0.7961  0.1295  0.1330
 1013MOL0     H39780   0.224   2.565   3.736  2.3519  1.4854  4.0249
 1013MOL0     H39781   0.167   2.366   3.602 -0.5894  0.0964  1.0080
 1013MOL0     H39782   0.099   1.995   3.825 -5.0373 -1.7263  1.2771
 1013MOL0     H39783  -0.040   1.969   3.748 -1.3144  0.9267 -1.2557
 1013MOL0     H39784   0.144   1.837   3.637 -2.9190 -0.9198 -2.4750
 1013MOL0     H39785   0.243   1.980   3.604  0.3582 -2.3628 -2.0303
 1013MOL0     H39786  -0.026   1.936   3.470 -0.9619 -0.5424 -1.2902
 1013MOL0     H39787   0.074   2.071   3.454  0.6518 -0.6847 -0.9114
 1013MOL0     H39788   0.259   1.938   3.377  1.1740 -2.2332  6.6321
 1013MOL0     H39789   0.112   1.911   3.264  0.8173  0.4500  0.6350
 1013MOL0     H39790   0.123   1.523   3.371 -2.7034 -0.0557 -0.3819
 1013MOL0     H39791   0.036   2.163   3.959  1.0516 -1.8290 -1.1893
 1013MOL0     H39792   0.061   2.262   4.162  3.6347 -0.5492 -0.7340
 1013MOL0     H39793   0.137   2.410   4.189 -0.4216  5.5178 -3.8602
 1013MOL0     H39794  -0.036   2.417   4.152  2.2128  1.5626  3.9250
 1014MOL0     O39795   9.545   5.447   7.923  0.5726 -0.0082 -0.8246
 1014MOL0     C39796   9.446   5.461   7.998  0.6345 -0.0151 -0.0619
 1014MOL0     O39797   9.408   5.583   8.055 -0.3267  0.5510 -0.1290
 1014MOL0     C39798   9.495   5.692   8.042 -0.0958 -0.0604  0.6714
 1014MOL0     C39799   9.590   5.727   7.929  1.0307  0.7483 -1.1462
 1014MOL0     C39800   9.675   5.841   7.945  0.4682  0.4264  0.1417
 1014MOL0     C39801   9.661   5.931   8.053  0.5572  0.6286 -0.1119
 1014MOL0     O39802   9.744   6.036   8.084  0.1198 -0.2004  0.4150
 1014MOL0     C39803   9.856   6.053   8.001  0.1082  0.6627  0.2798
 1014MOL0     C39804   9.972   6.144   8.050 -0.3071  0.6898 -0.3357
 1014MOL0     C39805  10.080   6.157   7.943 -0.7250  0.4695  0.3296
 1014MOL0     C39806  10.025   6.224   7.813  0.3676 -0.4116  0.5090
 1014MOL0     C39807  10.127   6.279   7.706 -0.5612  0.1400  0.3449
 1014MOL0     C39808  10.162   6.162   7.604  0.1312 -0.4589  0.1014
 1014MOL0     C39809  10.260   6.222   7.498 -0.3725  0.6730  0.2739
 1014MOL0     C39810  10.395   6.228   7.555  0.4989 -0.1619 -0.2201
 1014MOL0     N39811  10.496   6.279   7.458  0.2043 -0.7043  0.7360
 1014MOL0     C39812  10.568   6.207   7.352  0.9623  0.1088 -0.1065
 1014MOL0     C39813  10.669   6.294   7.328  0.4598  0.1610  0.2390
 1014MOL0     C39814  10.779   6.292   7.227  0.7197  0.1437 -0.5891
 1014MOL0     C39815  10.789   6.409   7.115 -0.6881 -0.4822 -0.4395
 1014MOL0     C39816  10.922   6.427   7.041  0.2010  0.4052  0.7056
 1014MOL0     C39817  11.052   6.436   7.122  0.1750 -0.9761  0.3497
 1014MOL0     O39818  11.162   6.457   7.029 -0.0996 -0.4614 -0.9747
 1014MOL0     C39819  11.294   6.474   7.073  0.9979  0.7046 -0.4457
 1014MOL0     C39820  11.390   6.529   6.986 -0.0481 -0.0133  0.8903
 1014MOL0     C39821  11.515   6.578   7.025 -0.7164  0.3713 -0.4754
 1014MOL0     C39822  11.611   6.611   6.909  0.5676 -0.1912 -1.1589
 1014MOL0     C39823  11.563   6.542   7.156 -0.1372  1.5807 -0.6306
 1014MOL0     C39824  11.696   6.575   7.212 -0.1159  0.4579 -0.4327
 1014MOL0     O39825  11.711   6.591   7.354  0.4661 -0.2987 -0.5990
 1014MOL0     C39826  11.829   6.571   7.419 -0.2198 -0.5798  0.4668
 1014MOL0     C39827  11.936   6.658   7.405  0.0230 -0.1910  0.1492
 1014MOL0     C39828  12.057   6.629   7.479 -0.1290 -0.0954  0.4187
 1014MOL0     C39829  12.065   6.521   7.564  0.1999  0.2778  0.2523
 1014MOL0     O39830  12.184   6.496   7.633  1.2142 -0.4050  0.1752
 1014MOL0     C39831  12.224   6.584   7.738 -0.2933  0.1233 -0.7614
 1014MOL0     C39832  12.205   6.497   7.866  0.0080  0.6947 -0.0728
 1014MOL0     C39833  12.304   6.375   7.860  0.9147 -0.3827  0.1656
 1014MOL0     C39834  12.288   6.290   7.985  0.4124  1.4270 -0.1678
 1014MOL0     C39835  12.378   6.167   7.960  0.0705  0.0834  0.1084
 1014MOL0     C39836  12.390   6.081   8.089 -0.1574  0.0350 -0.2892
 1014MOL0     C39837  12.449   5.937   8.058  0.6987 -0.3524 -0.8021
 1014MOL0     C39838  12.432   5.838   8.170 -0.2152  1.0626 -0.3188
 1014MOL0    Cl39839  12.525   5.878   8.313  0.1638 -0.1259  0.1914
 1014MOL0     C39840  11.961   6.428   7.569  0.3603  1.0347 -0.3107
 1014MOL0     C39841  11.836   6.469   7.509  0.7599  0.5966 -0.3914
 1014MOL0     O39842  11.784   6.597   7.139  0.0367 -0.8960  0.5675
 1014MOL0     C39843  11.470   6.469   7.238 -1.6035 -0.4014 -0.0940
 1014MOL0     C39844  11.340   6.445   7.199  0.2115  0.2397 -0.1377
 1014MOL0     N39845  10.658   6.417   7.394 -0.2857  0.4093 -0.0263
 1014MOL0     N39846  10.558   6.405   7.476 -0.1017  1.7471 -0.0075
 1014MOL0     C39847   9.563   5.908   8.141 -0.0337 -0.2713 -0.5549
 1014MOL0     C39848   9.494   5.786   8.145  0.4810 -1.1553  0.5126
 1014MOL0     C39849   9.346   5.351   7.996 -0.2975 -0.4976 -1.1620
 1014MOL0     C39850   9.208   5.359   7.990  0.3856  0.7441 -0.7618
 1014MOL0     C39851   9.116   5.252   8.026 -0.2418 -0.3577  0.5571
 1014MOL0     C39852   9.161   5.126   8.059  1.5814 -0.0915  0.1215
 1014MOL0     O39853   9.076   5.015   8.082  0.6477 -0.5645  1.0413
 1014MOL0     C39854   8.973   5.015   8.182 -0.4298 -0.4996 -0.7177
 1014MOL0     C39855   8.828   5.007   8.136  0.3857  0.3105 -0.0230
 1014MOL0     C39856   8.712   4.971   8.240  0.0560 -0.4596  0.0702
 1014MOL0     C39857   8.720   4.833   8.304  0.1020  0.1715  0.4856
 1014MOL0     C39858   8.724   4.720   8.203 -0.5539  0.7470 -0.0905
 1014MOL0     C39859   8.728   4.620   8.132  0.1213  0.2794  0.1695
 1014MOL0     C39860   9.297   5.109   8.046 -0.1644 -0.0807  0.0826
 1014MOL0     C39861   9.390   5.214   8.021  0.3093  0.6266  0.6487
 1014MOL0     C39862   9.532   5.179   8.058 -0.1797  0.6922 -0.0611
 1014MOL0     H39863   9.616   5.660   7.848  3.6653 -0.4202  0.5312
 1014MOL0     H39864   9.745   5.866   7.866 -0.3347  3.3208  0.2286
 1014MOL0     H39865   9.814   6.097   7.909  2.7869 -1.7178 -2.2952
 1014MOL0     H39866   9.906   5.962   7.965  2.1627  2.6577 -2.4152
 1014MOL0     H39867   9.939   6.244   8.078  1.9597  2.6803 -3.9327
 1014MOL0     H39868  10.005   6.086   8.136 -2.3269 -0.1091 -0.0518
 1014MOL0     H39869  10.167   6.207   7.987  1.3553 -3.0684  0.6063
 1014MOL0     H39870  10.122   6.060   7.916 -4.3665 -1.4174  0.8204
 1014MOL0     H39871   9.945   6.160   7.775 -0.9235 -0.2672  2.8404
 1014MOL0     H39872   9.985   6.318   7.850  2.0292 -0.1827  1.8291
 1014MOL0     H39873  10.211   6.322   7.760  0.0528 -1.8074  1.0181
 1014MOL0     H39874  10.085   6.361   7.647  1.6123  0.2618 -1.1575
 1014MOL0     H39875  10.201   6.078   7.661 -3.5518 -0.6935  2.6061
 1014MOL0     H39876  10.069   6.142   7.550  0.2446  0.7031 -0.5743
 1014MOL0     H39877  10.231   6.319   7.456 -0.6570  0.3572 -0.2755
 1014MOL0     H39878  10.254   6.151   7.414  0.9273  2.5189 -1.4801
 1014MOL0     H39879  10.380   6.295   7.640 -2.4009 -0.8013 -0.1115
 1014MOL0     H39880  10.421   6.133   7.602 -2.8939 -2.1628 -1.9893
 1014MOL0     H39881  10.536   6.112   7.311 -0.0176  0.9653 -1.4095
 1014MOL0     H39882  10.777   6.197   7.173  0.8343  1.0623 -2.2677
 1014MOL0     H39883  10.868   6.287   7.291  0.3078 -2.4690 -0.1121
 1014MOL0     H39884  10.707   6.391   7.045  1.4940 -1.8403 -2.8538
 1014MOL0     H39885  10.776   6.504   7.168  1.4597 -0.4074  0.0569
 1014MOL0     H39886  10.938   6.345   6.970 -0.2645  1.0801 -0.1826
 1014MOL0     H39887  10.919   6.520   6.984 -1.8314 -0.0507  0.0034
 1014MOL0     H39888  11.054   6.520   7.192 -1.6577  2.1828 -3.0006
 1014MOL0     H39889  11.066   6.343   7.177  4.7979 -1.4926 -1.2295
 1014MOL0     H39890  11.358   6.551   6.884  1.9315 -0.1097  0.2085
 1014MOL0     H39891  11.697   6.544   6.903  1.1422  0.5992 -2.0561
 1014MOL0     H39892  11.658   6.708   6.926  1.8447 -1.1452  1.2422
 1014MOL0     H39893  11.571   6.638   6.811  0.7395 -1.1908 -1.5143
 1014MOL0     H39894  11.945   6.745   7.342 -0.1418 -0.0943  0.2572
 1014MOL0     H39895  12.153   6.680   7.467 -0.1972 -0.1699 -0.4689
 1014MOL0     H39896  12.332   6.601   7.731 -0.5086  2.8741  0.9761
 1014MOL0     H39897  12.172   6.680   7.747  0.5977  0.5127  0.6392
 1014MOL0     H39898  12.225   6.554   7.957  0.4721  0.9174 -0.3113
 1014MOL0     H39899  12.099   6.472   7.879  0.0828  1.4860  2.6536
 1014MOL0     H39900  12.407   6.410   7.864  0.7081  0.7355 -2.4615
 1014MOL0     H39901  12.281   6.338   7.760  0.8392  2.3487 -0.9092
 1014MOL0     H39902  12.185   6.254   7.983  1.3772 -1.6782 -2.6640
 1014MOL0     H39903  12.300   6.348   8.077 -3.4651  0.9744  0.7751
 1014MOL0     H39904  12.337   6.110   7.876  0.8146  2.0513 -1.6572
 1014MOL0     H39905  12.478   6.205   7.940  0.9107 -1.9846  0.1562
 1014MOL0     H39906  12.290   6.084   8.133 -0.4917  3.0905 -1.0489
 1014MOL0     H39907  12.454   6.138   8.158 -2.0892  0.5390  1.1690
 1014MOL0     H39908  12.555   5.959   8.042 -0.0545  3.8559 -1.2101
 1014MOL0     H39909  12.403   5.907   7.963  0.3026 -0.8948 -0.4503
 1014MOL0     H39910  12.463   5.739   8.136 -2.6170 -0.5682  1.8462
 1014MOL0     H39911  12.326   5.822   8.190  0.4039 -0.2426  2.3994
 1014MOL0     H39912  11.982   6.341   7.632  1.8524  0.7059 -1.2309
 1014MOL0     H39913  11.752   6.402   7.525 -1.1105  3.2914  1.9223
 1014MOL0     H39914  11.504   6.433   7.335 -1.2896  1.3335  0.4762
 1014MOL0     H39915  11.274   6.400   7.273  0.7437  1.3124  1.0258
 1014MOL0     H39916   9.548   5.980   8.221  1.6231  0.4318 -0.8463
 1014MOL0     H39917   9.422   5.778   8.226  0.9300 -2.5135  0.8008
 1014MOL0     H39918   9.178   5.459   7.961  2.6911  1.3904 -1.0682
 1014MOL0     H39919   9.008   5.253   8.019 -0.2607 -2.2780 -0.1803
 1014MOL0     H39920   8.994   4.938   8.256  1.6798 -0.4315 -1.1816
 1014MOL0     H39921   8.973   5.111   8.233 -0.4117 -1.7596  1.7768
 1014MOL0     H39922   8.819   4.934   8.055  1.6349 -1.7017  1.5508
 1014MOL0     H39923   8.804   5.102   8.088 -1.2944  0.6636  1.4200
 1014MOL0     H39924   8.725   5.039   8.325  1.8448 -3.5622  2.5114
 1014MOL0     H39925   8.611   4.974   8.197  0.0814 -1.5481 -0.0884
 1014MOL0     H39926   8.637   4.814   8.373 -2.0266  0.9071 -1.7224
 1014MOL0     H39927   8.810   4.832   8.366 -0.2696  0.1605  1.0302
 1014MOL0     H39928   8.738   4.529   8.076  1.6152 -0.3834  1.4327
 1014MOL0     H39929   9.340   5.010   8.057 -2.5296 -1.3631 -1.4168
 1014MOL0     H39930   9.612   5.243   8.021  0.1233 -0.5965 -1.7864
 1014MOL0     H39931   9.536   5.156   8.165  0.3694  1.5519  0.1103
 1014MOL0     H39932   9.554   5.078   8.022  0.3315  0.5360  0.6654
 1015MOL0     O39933   0.457   6.927   8.833  0.2913 -0.1800  0.2906
 1015MOL0     C39934   0.337   6.898   8.843  0.1228 -0.3588 -0.1942
 1015MOL0     O39935   0.250   6.942   8.941 -0.5482 -0.2676  0.5672
 1015MOL0     C39936   0.275   7.055   9.020  0.4995 -0.6451 -0.9669
 1015MOL0     C39937   0.380   7.145   9.017 -0.3670  1.2814  0.6366
 1015MOL0     C39938   0.377   7.261   9.090 -0.2765 -0.0230 -0.8078
 1015MOL0     C39939   0.276   7.286   9.184 -0.4104 -0.1610  0.1430
 1015MOL0     O39940   0.298   7.395   9.267 -0.6708  0.1121  0.0406
 1015MOL0     C39941   0.239   7.408   9.397  0.2811 -0.1713  0.3069
 1015MOL0     C39942   0.337   7.339   9.496  0.3041 -0.0956 -0.0045
 1015MOL0     C39943   0.475   7.403   9.487 -1.1441  0.6628  1.2608
 1015MOL0     C39944   0.560   7.384   9.614 -0.5387  0.1597 -0.0235
 1015MOL0     C39945   0.697   7.465   9.609 -0.2449 -0.6564  0.5599
 1015MOL0     C39946   0.773   7.465   9.733  0.1747 -0.1640  0.1012
 1015MOL0     C39947   0.731   7.580   9.827 -0.6766 -0.0945 -0.4382
 1015MOL0     C39948   0.806   7.721   9.818 -0.7169 -0.0746 -0.7046
 1015MOL0     N39949   0.952   7.711   9.852 -0.3436  0.2592  0.0708
 1015MOL0     C39950   1.050   7.744   9.755  0.3348 -0.0422 -0.3314
 1015MOL0     C39951   1.160   7.759   9.829  0.4249  1.0339 -0.0755
 1015MOL0     C39952   1.300   7.792   9.780  0.4546 -0.8299 -0.4090
 1015MOL0     C39953   1.374   7.663   9.793  0.4587  0.3148 -0.4723
 1015MOL0     C39954   1.529   7.684   9.757 -0.0432 -1.4643 -0.6248
 1015MOL0     C39955   1.609   7.752   9.871  0.6937 -0.2122 -0.3200
 1015MOL0     O39956   1.742   7.793   9.830 -0.5191  0.1671 -0.3085
 1015MOL0     C39957   1.802   7.907   9.878  0.1559  1.4226  0.5954
 1015MOL0     C39958   1.778   7.976  10.000  0.3382 -0.9249  0.2756
 1015MOL0     C39959   1.839   8.097  10.040  1.4144  0.1314  0.4287
 1015MOL0     C39960   1.814   8.159  10.181  0.1646 -0.4161  0.0429
 1015MOL0     C39961   1.921   8.159   9.950 -1.1554 -0.9852  1.2133
 1015MOL0     C39962   1.976   8.306   9.962 -0.7865 -0.0722 -0.2608
 1015MOL0     O39963   2.068   8.354   9.866 -0.2871 -0.1797  0.2835
 1015MOL0     C39964   2.141   8.463   9.892 -0.1113  0.9143  0.9389
 1015MOL0     C39965   2.198   8.508  10.015  0.4810 -0.5711 -0.1308
 1015MOL0     C39966   2.305   8.600  10.012  0.2123  0.2709 -0.5502
 1015MOL0     C39967   2.342   8.665   9.892  0.0879  0.7796  0.2642
 1015MOL0     O39968   2.446   8.756   9.884  1.3350 -0.0176 -0.4858
 1015MOL0     C39969   2.474   8.825  10.007  0.4665  0.0904  0.5346
 1015MOL0     C39970   2.583   8.927   9.974 -0.0288 -0.0412  0.0120
 1015MOL0     C39971   2.658   8.993  10.088  0.2396  1.0082 -0.1625
 1015MOL0     C39972   2.716   8.882  10.177  1.2072 -0.0879 -0.3562
 1015MOL0     C39973   2.816   8.931  10.275  0.4016 -0.0553  0.3741
 1015MOL0     C39974   2.846   8.835  10.388 -0.1076 -0.7436  0.5021
 1015MOL0     C39975   2.925   8.713  10.346  0.4114  0.3805  0.6208
 1015MOL0     C39976   3.008   8.653  10.454 -0.2840 -0.3942  0.7283
 1015MOL0    Cl39977   3.165   8.730  10.446  0.5211 -0.2674  0.0910
 1015MOL0     C39978   2.269   8.629   9.778 -0.1351  0.6199  0.4408
 1015MOL0     C39979   2.181   8.526   9.777  0.3208 -0.5731  0.0154
 1015MOL0     O39980   1.935   8.375  10.056  0.1409 -0.4745 -0.5378
 1015MOL0     C39981   1.964   8.078   9.839 -0.5928 -0.5079 -0.3077
 1015MOL0     C39982   1.908   7.955   9.810  1.3226  0.4177 -0.1190
 1015MOL0     N39983   1.135   7.724   9.965  0.4447  0.4436  0.9314
 1015MOL0     N39984   1.005   7.716   9.982  0.3000  0.4137 -0.1224
 1015MOL0     C39985   0.167   7.195   9.196 -0.1180  0.5605 -0.4138
 1015MOL0     C39986   0.177   7.085   9.116 -0.2550  0.7112 -0.4376
 1015MOL0     C39987   0.286   6.810   8.747  0.5099  0.8359 -0.1845
 1015MOL0     C39988   0.161   6.737   8.782 -0.6064 -0.2670  0.7976
 1015MOL0     C39989   0.103   6.657   8.685 -0.3889 -0.4973  0.3343
 1015MOL0     C39990   0.158   6.645   8.558 -0.6154  0.5949 -0.1388
 1015MOL0     O39991   0.106   6.562   8.461 -0.5232 -0.4738  0.0875
 1015MOL0     C39992   0.004   6.468   8.492  0.5970  0.5884 -0.3162
 1015MOL0     C39993  -0.038   6.372   8.386  0.4007 -1.1137  0.0362
 1015MOL0     C39994  -0.147   6.271   8.446 -0.1016  0.2295  1.0947
 1015MOL0     C39995  -0.295   6.313   8.427 -1.2246  0.3474  0.3718
 1015MOL0     C39996  -0.340   6.335   8.292 -0.1177  0.1319  0.5534
 1015MOL0     C39997  -0.379   6.347   8.177  0.0022  0.0784  0.3452
 1015MOL0     C39998   0.267   6.722   8.526 -0.4901  0.6187 -0.5964
 1015MOL0     C39999   0.333   6.803   8.610 -0.3925 -0.3186  0.5586
 1015MOL0     C40000   0.447   6.892   8.555 -0.0871  0.3739 -0.0561
 1015MOL0     H40001   0.458   7.129   8.944 -0.4674 -0.8013  0.9413
 1015MOL0     H40002   0.455   7.332   9.064  0.8326 -0.2296  1.6645
 1015MOL0     H40003   0.137   7.368   9.392  0.2817 -0.0163 -1.8821
 1015MOL0     H40004   0.226   7.515   9.410 -0.5750  0.0529 -1.9270
 1015MOL0     H40005   0.298   7.362   9.596 -1.1950 -3.0136  0.1719
 1015MOL0     H40006   0.335   7.231   9.483  0.0425 -0.1607  0.5612
 1015MOL0     H40007   0.536   7.371   9.402  2.0626  0.1563  3.5851
 1015MOL0     H40008   0.468   7.511   9.466  0.4653  0.5844  0.0677
 1015MOL0     H40009   0.500   7.412   9.700 -0.1156  1.6980 -0.1922
 1015MOL0     H40010   0.582   7.277   9.619 -0.8463  0.0506 -0.7517
 1015MOL0     H40011   0.683   7.568   9.576  2.2152 -0.1426  0.9394
 1015MOL0     H40012   0.752   7.427   9.522 -1.6620 -0.1993 -0.5890
 1015MOL0     H40013   0.760   7.372   9.790 -0.2364  0.5395  1.1869
 1015MOL0     H40014   0.880   7.478   9.713 -0.3030  0.2058 -2.4857
 1015MOL0     H40015   0.753   7.548   9.930 -2.2141  3.2414  1.0855
 1015MOL0     H40016   0.622   7.589   9.822 -0.8325 -0.2924  1.7038
 1015MOL0     H40017   0.798   7.769   9.720 -0.7636 -1.0950 -1.2090
 1015MOL0     H40018   0.763   7.782   9.898  1.9130 -3.0525  3.3865
 1015MOL0     H40019   1.043   7.747   9.647  3.0690 -2.9619 -0.7535
 1015MOL0     H40020   1.343   7.869   9.845  1.5146 -0.3715 -1.6068
 1015MOL0     H40021   1.292   7.829   9.677  0.0825 -2.1200 -0.8670
 1015MOL0     H40022   1.362   7.612   9.888  0.7471  0.9069 -0.1141
 1015MOL0     H40023   1.328   7.604   9.713 -1.4676  1.5067 -0.2909
 1015MOL0     H40024   1.586   7.591   9.746  0.4613 -1.2582  0.1785
 1015MOL0     H40025   1.520   7.737   9.661  0.0133  1.4772  0.8963
 1015MOL0     H40026   1.549   7.830   9.920 -1.7443 -0.9716 -1.8835
 1015MOL0     H40027   1.615   7.665   9.936 -0.2603  0.0092  0.0841
 1015MOL0     H40028   1.696   7.941  10.062  0.0408  1.1796  1.1652
 1015MOL0     H40029   1.913   8.194  10.210  1.2467 -0.8764 -2.7954
 1015MOL0     H40030   1.791   8.076  10.248  1.3150 -0.4314  0.4391
 1015MOL0     H40031   1.745   8.244  10.179 -0.1464 -0.5904  1.7817
 1015MOL0     H40032   2.168   8.460  10.107  2.5758  1.7219  1.9049
 1015MOL0     H40033   2.344   8.620  10.111 -1.4459 -0.4776  0.2886
 1015MOL0     H40034   2.387   8.883  10.038  1.3358  3.4126 -2.4551
 1015MOL0     H40035   2.503   8.752  10.083 -2.6446 -0.6912  1.1207
 1015MOL0     H40036   2.651   8.896   9.894  2.6939  2.4072  1.1985
 1015MOL0     H40037   2.546   9.013   9.917  2.7137  0.8852 -0.5023
 1015MOL0     H40038   2.603   9.061  10.153  1.2407  0.6405  1.1262
 1015MOL0     H40039   2.748   9.041  10.049  0.3451  0.8362 -0.1329
 1015MOL0     H40040   2.754   8.800  10.114  0.7302 -0.7854  0.2412
 1015MOL0     H40041   2.633   8.831  10.228  0.4578 -1.7704 -3.0550
 1015MOL0     H40042   2.903   8.972  10.223  0.1041 -0.8765 -0.8058
 1015MOL0     H40043   2.778   9.019  10.328 -1.5501 -1.3080  1.1883
 1015MOL0     H40044   2.748   8.795  10.416 -0.2106 -1.0566 -0.2755
 1015MOL0     H40045   2.886   8.886  10.477 -0.4028  2.3996 -1.0415
 1015MOL0     H40046   2.987   8.750  10.264 -3.3594  0.9395 -2.2959
 1015MOL0     H40047   2.857   8.649  10.288  2.6268  0.3314 -2.1691
 1015MOL0     H40048   3.013   8.546  10.433 -2.1665 -0.1691 -1.2104
 1015MOL0     H40049   2.970   8.674  10.554  0.9371  2.7092  0.6501
 1015MOL0     H40050   2.284   8.671   9.679 -0.8435  1.0406  0.5074
 1015MOL0     H40051   2.136   8.504   9.681 -3.4937 -0.0884  1.5456
 1015MOL0     H40052   2.041   8.119   9.774  0.2362  1.9304  2.0470
 1015MOL0     H40053   1.954   7.901   9.729  2.9606  1.1679  0.2619
 1015MOL0     H40054   0.086   7.197   9.268  0.1890 -0.6960 -0.0023
 1015MOL0     H40055   0.095   7.014   9.127  1.7209 -2.0487 -2.1870
 1015MOL0     H40056   0.112   6.743   8.879 -2.0234  2.3859  0.0083
 1015MOL0     H40057   0.008   6.615   8.714 -2.7315  1.7856 -3.1557
 1015MOL0     H40058   0.033   6.407   8.578 -0.4176 -2.1027 -1.7467
 1015MOL0     H40059  -0.082   6.529   8.520 -0.2538  0.0775 -1.6854
 1015MOL0     H40060   0.047   6.315   8.347  1.8088  1.3230 -0.6443
 1015MOL0     H40061  -0.070   6.438   8.305  0.6413 -0.6875  0.2855
 1015MOL0     H40062  -0.142   6.182   8.383 -0.9482  2.0483 -1.7508
 1015MOL0     H40063  -0.116   6.233   8.544 -0.4406  2.3478  2.0870
 1015MOL0     H40064  -0.306   6.410   8.477 -0.9514  2.5911 -3.4882
 1015MOL0     H40065  -0.364   6.235   8.462  1.0301 -1.3099  1.3476
 1015MOL0     H40066  -0.420   6.347   8.078  2.7407 -3.7366 -1.0041
 1015MOL0     H40067   0.302   6.717   8.423 -0.9755  4.1584 -1.0731
 1015MOL0     H40068   0.446   6.894   8.445 -0.0152 -1.3945 -0.1207
 1015MOL0     H40069   0.413   6.988   8.594 -1.0412 -0.3339  0.9174
 1015MOL0     H40070   0.543   6.867   8.602  0.2457 -1.6516 -1.6292
 1016MOL0     O40071   1.313   4.270   3.435  0.2787 -0.9683  0.2086
 1016MOL0     C40072   1.360   4.193   3.518  0.3043 -0.3576  0.5748
 1016MOL0     O40073   1.295   4.162   3.632 -0.0644  1.2260  0.0749
 1016MOL0     C40074   1.167   4.182   3.662  0.6378 -0.2831  0.1772
 1016MOL0     C40075   1.075   4.101   3.606  1.0911  0.5757 -0.7441
 1016MOL0     C40076   0.939   4.126   3.635 -0.0743  0.2528  0.5254
 1016MOL0     C40077   0.896   4.225   3.717 -0.2479  0.1741  0.4358
 1016MOL0     O40078   0.767   4.234   3.762  0.1784  0.7024  0.0065
 1016MOL0     C40079   0.664   4.239   3.659 -0.3424 -0.4941 -0.0591
 1016MOL0     C40080   0.533   4.172   3.707 -0.2367  0.2630 -0.1409
 1016MOL0     C40081   0.434   4.175   3.585 -0.8744 -0.6963  0.0176
 1016MOL0     C40082   0.315   4.074   3.610  0.8792  0.1847  0.3203
 1016MOL0     C40083   0.217   4.065   3.491 -0.2152 -0.5635 -0.1262
 1016MOL0     C40084   0.080   4.005   3.536 -0.0010  0.2057 -0.5948
 1016MOL0     C40085  -0.022   4.121   3.567 -0.4162  0.7279 -0.3751
 1016MOL0     C40086  -0.150   4.076   3.627 -0.9668 -0.4464 -0.9727
 1016MOL0     N40087  -0.243   4.185   3.652 -0.1922  0.4358 -0.1033
 1016MOL0     C40088  -0.223   4.320   3.708  0.5465  0.0328 -0.1546
 1016MOL0     C40089  -0.339   4.381   3.688  0.1561 -0.1155  0.1125
 1016MOL0     C40090  -0.364   4.522   3.732  0.1601  0.7211 -0.7608
 1016MOL0     C40091  -0.399   4.617   3.614  0.6937 -0.0686  0.1565
 1016MOL0     C40092  -0.258   4.641   3.543  0.6819  0.4345  0.5807
 1016MOL0     C40093  -0.263   4.742   3.427 -0.1259  0.2914  0.1166
 1016MOL0     O40094  -0.336   4.856   3.473 -0.1676 -0.5960 -0.3680
 1016MOL0     C40095  -0.286   4.943   3.564 -0.9493 -0.2270 -0.4123
 1016MOL0     C40096  -0.356   5.062   3.587 -0.0835 -0.0385  0.3011
 1016MOL0     C40097  -0.306   5.152   3.681 -0.2314 -0.5509  0.0722
 1016MOL0     C40098  -0.392   5.274   3.725  0.2477  0.8591 -0.4475
 1016MOL0     C40099  -0.194   5.132   3.754 -0.2183  0.3221 -0.6959
 1016MOL0     C40100  -0.139   5.225   3.852 -0.5924  0.0411 -1.4508
 1016MOL0     O40101  -0.074   5.333   3.794 -0.5362 -0.0594 -0.0119
 1016MOL0     C40102   0.001   5.419   3.864  0.2182  0.1975 -0.3475
 1016MOL0     C40103   0.100   5.380   3.954  0.1532 -0.6419 -0.6949
 1016MOL0     C40104   0.172   5.482   4.012 -0.3726 -0.1986  0.3051
 1016MOL0     C40105   0.147   5.614   3.993  0.1137 -0.5265  0.2130
 1016MOL0     O40106   0.210   5.712   4.068 -0.0152 -0.7497  0.2248
 1016MOL0     C40107   0.307   5.795   3.993  0.1749  0.4860 -0.5848
 1016MOL0     C40108   0.353   5.928   4.071  0.0453  0.4236 -0.2935
 1016MOL0     C40109   0.463   6.001   4.004 -0.0789  0.3525  0.0578
 1016MOL0     C40110   0.584   5.908   3.975 -0.5242  0.4608 -0.1017
 1016MOL0     C40111   0.719   5.990   3.991  0.3798 -0.3841 -0.4556
 1016MOL0     C40112   0.743   6.064   3.862 -0.2637 -0.2417 -0.4528
 1016MOL0     C40113   0.865   6.159   3.878 -0.6168 -0.1197  1.2420
 1016MOL0     C40114   0.919   6.207   3.737 -0.5744 -0.8847 -1.4924
 1016MOL0    Cl40115   0.975   6.076   3.627  0.8257 -0.1414  0.0070
 1016MOL0     C40116   0.060   5.655   3.894  0.0698  0.1367  0.8998
 1016MOL0     C40117  -0.018   5.562   3.839  0.6847  1.4532 -0.1987
 1016MOL0     O40118  -0.136   5.198   3.970 -0.2482  0.0773  0.7738
 1016MOL0     C40119  -0.112   5.020   3.723  0.4877 -0.0399 -0.1041
 1016MOL0     C40120  -0.167   4.922   3.641  0.2773  0.6558 -0.2155
 1016MOL0     N40121  -0.432   4.300   3.621 -0.3194 -0.4501 -0.4212
 1016MOL0     N40122  -0.372   4.187   3.602  0.9063 -0.9286 -0.9248
 1016MOL0     C40123   0.995   4.328   3.748 -0.0811  0.2850  0.0432
 1016MOL0     C40124   1.126   4.309   3.700 -0.1142  0.0752  0.0016
 1016MOL0     C40125   1.476   4.119   3.484 -0.5393 -0.5901 -0.4411
 1016MOL0     C40126   1.469   3.982   3.509  0.6893  0.6426  0.8438
 1016MOL0     C40127   1.573   3.895   3.490 -0.2559  0.0956 -0.0846
 1016MOL0     C40128   1.696   3.949   3.443 -0.2224  1.0429  0.2754
 1016MOL0     O40129   1.801   3.873   3.415 -0.2895 -0.0044  0.7086
 1016MOL0     C40130   1.897   3.872   3.522  0.1144 -0.3427  0.4863
 1016MOL0     C40131   2.041   3.880   3.471  0.0630  1.2433  0.4419
 1016MOL0     C40132   2.068   3.789   3.347  0.4010  0.6429  0.4354
 1016MOL0     C40133   2.106   3.869   3.218 -0.7121  0.7180  0.3334
 1016MOL0     C40134   2.165   3.766   3.127 -0.6977  0.0387  0.9815
 1016MOL0     C40135   2.212   3.686   3.056 -0.6285 -0.1810 -1.3738
 1016MOL0     C40136   1.706   4.086   3.401  0.6852  0.4157  0.8436
 1016MOL0     C40137   1.598   4.180   3.433  0.0510  0.5526  0.8505
 1016MOL0     C40138   1.606   4.326   3.395  0.7822  0.3579  0.5393
 1016MOL0     H40139   1.102   4.015   3.545 -0.4304 -0.2887 -0.2356
 1016MOL0     H40140   0.879   4.042   3.601  1.1670 -1.3453  2.0911
 1016MOL0     H40141   0.693   4.185   3.569  0.1273 -1.1781  0.4920
 1016MOL0     H40142   0.637   4.345   3.654 -0.2650 -0.4496  0.3894
 1016MOL0     H40143   0.550   4.069   3.742 -0.8178 -1.0212 -3.2932
 1016MOL0     H40144   0.495   4.231   3.790  2.0443  1.4532  0.1179
 1016MOL0     H40145   0.399   4.278   3.581 -0.5305 -0.4681  1.8578
 1016MOL0     H40146   0.484   4.142   3.493 -2.0824 -0.5369 -0.7115
 1016MOL0     H40147   0.344   3.974   3.642 -2.1172 -0.0437  2.8338
 1016MOL0     H40148   0.257   4.110   3.695  1.5702 -0.8743  1.2605
 1016MOL0     H40149   0.253   4.008   3.405 -1.2969  0.8853 -1.6183
 1016MOL0     H40150   0.201   4.168   3.457 -0.7153 -0.8341 -0.7459
 1016MOL0     H40151   0.024   3.958   3.455 -2.7904 -2.2234  2.4523
 1016MOL0     H40152   0.100   3.950   3.629 -3.7153  2.2294  1.6606
 1016MOL0     H40153  -0.052   4.162   3.471  0.1257  2.5423  0.1867
 1016MOL0     H40154   0.034   4.193   3.627  2.0872 -1.3125 -0.0716
 1016MOL0     H40155  -0.197   3.998   3.565  0.1738 -2.8407  0.9868
 1016MOL0     H40156  -0.123   4.023   3.719  0.9631  0.3202 -1.0666
 1016MOL0     H40157  -0.140   4.367   3.758  0.1981 -0.5083  0.9675
 1016MOL0     H40158  -0.276   4.552   3.790  1.5646 -3.1276 -0.6350
 1016MOL0     H40159  -0.447   4.504   3.801  0.3123 -1.4558 -1.0701
 1016MOL0     H40160  -0.453   4.565   3.534  0.9579  1.4974 -1.0829
 1016MOL0     H40161  -0.458   4.704   3.645  0.4825 -0.6720  1.5281
 1016MOL0     H40162  -0.171   4.642   3.609 -0.6883  0.1477  2.4612
 1016MOL0     H40163  -0.230   4.549   3.491 -0.8855 -0.7468  1.7410
 1016MOL0     H40164  -0.163   4.767   3.390 -0.4508 -0.8041 -1.6272
 1016MOL0     H40165  -0.307   4.696   3.338  2.2674  4.0215 -3.3435
 1016MOL0     H40166  -0.453   5.076   3.539 -0.3793 -2.4455  0.0547
 1016MOL0     H40167  -0.341   5.370   3.731 -1.8078  1.9572  0.3740
 1016MOL0     H40168  -0.435   5.251   3.823  1.9446 -1.1930 -0.1200
 1016MOL0     H40169  -0.470   5.283   3.648  0.4926  2.7965 -0.5166
 1016MOL0     H40170   0.135   5.280   3.973  0.1464 -0.1227  2.7276
 1016MOL0     H40171   0.261   5.462   4.071 -0.0485  1.0412  0.2600
 1016MOL0     H40172   0.397   5.738   3.967  0.4973  0.3767  0.6570
 1016MOL0     H40173   0.256   5.823   3.901 -0.1777 -1.0629 -0.8778
 1016MOL0     H40174   0.270   5.997   4.088  2.4749  3.3980  0.2480
 1016MOL0     H40175   0.389   5.891   4.168  0.0426 -2.2465 -1.2198
 1016MOL0     H40176   0.497   6.073   4.080  2.9394  0.9207 -1.6527
 1016MOL0     H40177   0.437   6.057   3.914 -3.3608 -0.8272  0.1463
 1016MOL0     H40178   0.576   5.853   3.881  0.5269 -4.0002  2.1779
 1016MOL0     H40179   0.588   5.835   4.056 -2.9784  0.3111 -0.0505
 1016MOL0     H40180   0.711   6.061   4.074 -1.4069 -2.8682  1.6785
 1016MOL0     H40181   0.792   5.917   4.029  0.3708  0.1836  0.6891
 1016MOL0     H40182   0.654   6.125   3.844  0.2712  0.3200 -1.2464
 1016MOL0     H40183   0.756   5.991   3.782 -0.8138 -0.1174 -0.6599
 1016MOL0     H40184   0.940   6.101   3.932  1.5224  0.4095 -0.9629
 1016MOL0     H40185   0.840   6.251   3.932  0.2268 -0.5230  2.3503
 1016MOL0     H40186   1.007   6.266   3.764 -1.9624  0.7852 -0.4414
 1016MOL0     H40187   0.843   6.274   3.696 -0.1627  1.5489  1.3915
 1016MOL0     H40188   0.051   5.759   3.864  1.4674  0.3093  1.0387
 1016MOL0     H40189  -0.106   5.577   3.777 -0.1569 -1.4818  0.1396
 1016MOL0     H40190  -0.026   4.981   3.776 -1.1118 -0.9172  2.0103
 1016MOL0     H40191  -0.102   4.836   3.624 -2.7872 -1.6599 -1.1977
 1016MOL0     H40192   0.964   4.419   3.799 -1.0876 -0.3972  0.6890
 1016MOL0     H40193   1.192   4.395   3.699  0.2202 -0.1724 -1.3348
 1016MOL0     H40194   1.382   3.935   3.554 -1.4795  3.3085 -0.2820
 1016MOL0     H40195   1.551   3.791   3.512 -0.7782  0.0016 -1.0065
 1016MOL0     H40196   1.897   3.967   3.576 -0.0879 -0.4636  0.7016
 1016MOL0     H40197   1.876   3.789   3.591 -0.5988 -0.7770 -0.2428
 1016MOL0     H40198   2.100   3.840   3.555 -1.5558  2.2938  2.1525
 1016MOL0     H40199   2.074   3.983   3.458  0.9057  1.2601  2.2902
 1016MOL0     H40200   2.162   3.740   3.372  0.0495  0.5200  1.5444
 1016MOL0     H40201   1.989   3.714   3.331 -0.7773  2.2373 -1.8033
 1016MOL0     H40202   2.182   3.943   3.246 -1.3098  1.7509 -0.6674
 1016MOL0     H40203   2.021   3.917   3.169  0.2463  1.8117 -0.3009
 1016MOL0     H40204   2.240   3.614   2.981 -3.1273 -2.7479 -0.0181
 1016MOL0     H40205   1.793   4.135   3.358  1.4744  0.5551  2.5310
 1016MOL0     H40206   1.527   4.340   3.321 -0.1386 -3.9107  0.4215
 1016MOL0     H40207   1.579   4.385   3.484 -1.0320  1.1488 -0.4745
 1016MOL0     H40208   1.709   4.337   3.362  0.0158 -0.4990 -2.4319
 1017MOL0     O40209   9.012  10.172   5.150  0.9229  0.5998  0.1043
 1017MOL0     C40210   9.058  10.167   5.263  0.8081 -0.2372  0.5207
 1017MOL0     O40211   9.016  10.252   5.360  0.0711  0.2181  0.3183
 1017MOL0     C40212   8.892  10.297   5.369 -0.5217  0.1824 -0.0004
 1017MOL0     C40213   8.780  10.240   5.310 -0.2865  0.2534 -0.7583
 1017MOL0     C40214   8.657  10.292   5.333  0.0783 -0.4824 -0.5222
 1017MOL0     C40215   8.636  10.404   5.414 -0.1120  0.2238  0.8418
 1017MOL0     O40216   8.509  10.451   5.424  0.5810  0.1209 -0.1882
 1017MOL0     C40217   8.490  10.592   5.453 -0.7790  0.4447 -0.2697
 1017MOL0     C40218   8.356  10.627   5.392  0.1494 -0.1597  0.6435
 1017MOL0     C40219   8.340  10.596   5.245  0.0237  0.1100  0.4594
 1017MOL0     C40220   8.205  10.644   5.208  0.0507 -0.2714 -0.7203
 1017MOL0     C40221   8.160  10.616   5.064 -0.1529 -0.8672  0.5503
 1017MOL0     C40222   8.032  10.694   5.033  0.2188  0.5574  0.4654
 1017MOL0     C40223   8.003  10.679   4.881  0.6623  0.0945  0.0901
 1017MOL0     C40224   7.880  10.751   4.847  0.4252 -0.0421  0.0900
 1017MOL0     N40225   7.800  10.705   4.731 -0.5532  0.2965 -0.0624
 1017MOL0     C40226   7.681  10.631   4.726 -0.3635  0.7874  0.6973
 1017MOL0     C40227   7.633  10.661   4.598  0.7435  0.1650 -0.5551
 1017MOL0     C40228   7.505  10.600   4.546  0.3233  0.0756 -0.3247
 1017MOL0     C40229   7.397  10.579   4.660  0.3248  0.2701  0.3047
 1017MOL0     C40230   7.264  10.509   4.623  0.5869  0.2752  0.2301
 1017MOL0     C40231   7.257  10.348   4.623  0.3098 -0.5896 -1.2675
 1017MOL0     O40232   7.363  10.296   4.545 -0.1527  0.3110  0.1903
 1017MOL0     C40233   7.325  10.200   4.458 -0.2961  0.5827 -0.2928
 1017MOL0     C40234   7.404  10.205   4.344 -0.2035 -0.5708 -0.9961
 1017MOL0     C40235   7.375  10.119   4.238 -0.3921  0.9386 -0.2386
 1017MOL0     C40236   7.445  10.133   4.102  0.1201  0.5154  0.1094
 1017MOL0     C40237   7.253  10.039   4.240 -0.2969 -0.9219 -0.4593
 1017MOL0     C40238   7.205   9.944   4.135 -0.2883  0.5478  0.4430
 1017MOL0     O40239   7.065   9.923   4.123 -0.2001  0.0277  0.7266
 1017MOL0     C40240   7.023   9.827   4.031  1.1153  0.5809 -0.1798
 1017MOL0     C40241   7.076   9.697   4.011  0.4700 -0.1972  0.1860
 1017MOL0     C40242   6.996   9.606   3.936 -0.7965 -0.0214 -0.3423
 1017MOL0     C40243   6.871   9.641   3.870 -0.6869 -0.8157  0.1711
 1017MOL0     O40244   6.795   9.556   3.791  0.1995 -0.3402 -0.1057
 1017MOL0     C40245   6.849   9.433   3.758 -1.1042 -0.1893 -0.9404
 1017MOL0     C40246   6.767   9.369   3.657 -0.9495  0.0427  0.8241
 1017MOL0     C40247   6.803   9.222   3.631  0.1081  0.2138  0.3255
 1017MOL0     C40248   6.928   9.189   3.556  0.2063 -0.3097 -0.2721
 1017MOL0     C40249   6.942   9.038   3.515  0.7715  0.4745 -0.1352
 1017MOL0     C40250   6.994   8.956   3.637  0.6485 -0.2906  1.4650
 1017MOL0     C40251   6.991   8.798   3.624 -0.3495  0.1230  1.2434
 1017MOL0     C40252   7.018   8.730   3.750  1.1274 -0.5380 -0.4652
 1017MOL0    Cl40253   7.007   8.567   3.703 -0.1279  0.5057 -0.0092
 1017MOL0     C40254   6.820   9.772   3.892  0.5149  0.4331 -0.3868
 1017MOL0     C40255   6.899   9.859   3.973  0.5098 -0.2813 -0.4561
 1017MOL0     O40256   7.279   9.914   4.042  0.0003  0.1387 -0.2507
 1017MOL0     C40257   7.177  10.038   4.359  0.8635 -0.5505 -0.6327
 1017MOL0     C40258   7.215  10.114   4.468 -0.5998 -0.3573  0.3844
 1017MOL0     N40259   7.717  10.744   4.531 -0.3483 -0.4109 -0.6706
 1017MOL0     N40260   7.823  10.763   4.607 -0.0158 -0.6151 -0.7790
 1017MOL0     C40261   8.753  10.468   5.469  1.0014 -0.3559  1.2462
 1017MOL0     C40262   8.875  10.411   5.454  0.4026  0.3223  0.9050
 1017MOL0     C40263   9.155  10.059   5.284  0.6742  1.1179  1.0571
 1017MOL0     C40264   9.202  10.041   5.416  0.6372  0.0471  0.3340
 1017MOL0     C40265   9.300   9.953   5.448  0.1506 -0.2949 -0.1307
 1017MOL0     C40266   9.354   9.869   5.352 -0.6401 -0.5171  0.0393
 1017MOL0     O40267   9.466   9.790   5.378  0.7111 -0.4293 -0.9995
 1017MOL0     C40268   9.479   9.661   5.321 -0.2679 -0.4415 -0.7070
 1017MOL0     C40269   9.591   9.673   5.223 -1.0323 -0.5169 -0.3924
 1017MOL0     C40270   9.655   9.536   5.220  0.5669 -0.2105 -0.4827
 1017MOL0     C40271   9.737   9.520   5.098  0.4341 -0.0092 -0.1019
 1017MOL0     C40272   9.790   9.386   5.097  0.3932  1.7126 -0.0633
 1017MOL0     C40273   9.852   9.278   5.090  0.1275 -0.6243 -0.0874
 1017MOL0     C40274   9.308   9.885   5.228 -1.0209 -0.1166  0.6322
 1017MOL0     C40275   9.200   9.962   5.186  0.7957 -0.4357  0.0179
 1017MOL0     C40276   9.148   9.964   5.044  0.6476  0.7413  0.2901
 1017MOL0     H40277   8.804  10.168   5.233  3.0571 -1.7636  1.8591
 1017MOL0     H40278   8.568  10.241   5.297 -0.5987  0.2399  0.0916
 1017MOL0     H40279   8.564  10.649   5.396 -0.1318  0.1094  0.2147
 1017MOL0     H40280   8.480  10.613   5.560 -1.0080 -2.6404  0.4172
 1017MOL0     H40281   8.282  10.569   5.448  0.9988 -0.6789  1.2562
 1017MOL0     H40282   8.347  10.735   5.404 -2.2538 -0.1162 -0.9320
 1017MOL0     H40283   8.412  10.652   5.184  0.2568  1.9610  2.3018
 1017MOL0     H40284   8.356  10.491   5.221 -1.4075 -0.7656  2.8956
 1017MOL0     H40285   8.126  10.602   5.270  2.8443 -1.1869  2.5319
 1017MOL0     H40286   8.208  10.753   5.216  1.7627 -0.2465 -1.1365
 1017MOL0     H40287   8.131  10.511   5.062  0.3178 -1.1361  3.3260
 1017MOL0     H40288   8.230  10.657   4.991 -1.6722  1.4722  0.3097
 1017MOL0     H40289   7.948  10.658   5.093 -2.1057 -0.0308 -2.8959
 1017MOL0     H40290   8.059  10.797   5.058  0.8381  0.8405 -1.2866
 1017MOL0     H40291   7.975  10.575   4.859  1.2050 -0.4708  1.9121
 1017MOL0     H40292   8.095  10.700   4.826 -0.3146  0.8237 -1.3168
 1017MOL0     H40293   7.810  10.755   4.931 -1.1156  3.9089 -1.1563
 1017MOL0     H40294   7.901  10.857   4.835  0.1321 -0.1127 -1.2222
 1017MOL0     H40295   7.640  10.579   4.812  0.8692  0.2598  0.9948
 1017MOL0     H40296   7.528  10.504   4.500  0.3186 -0.6073  1.0488
 1017MOL0     H40297   7.455  10.662   4.471 -1.6052  0.2894  1.0625
 1017MOL0     H40298   7.451  10.516   4.732  0.5940  0.8913  0.6563
 1017MOL0     H40299   7.378  10.684   4.684 -1.1226  0.5578 -1.8226
 1017MOL0     H40300   7.180  10.545   4.682  1.4980  0.1568  1.6555
 1017MOL0     H40301   7.241  10.544   4.522  2.4911 -0.1369 -0.4004
 1017MOL0     H40302   7.279  10.326   4.728  1.4806  1.9734 -0.9072
 1017MOL0     H40303   7.155  10.325   4.593 -1.3957  0.5291  2.9710
 1017MOL0     H40304   7.499  10.255   4.358  1.0961 -3.5931  3.3050
 1017MOL0     H40305   7.503  10.226   4.091  1.1820 -0.2380 -0.8727
 1017MOL0     H40306   7.371  10.141   4.021 -0.8509  2.8419  1.1358
 1017MOL0     H40307   7.499  10.042   4.077 -1.5400 -0.2599 -0.8326
 1017MOL0     H40308   7.162   9.663   4.066 -0.0062 -1.4212  0.1920
 1017MOL0     H40309   7.027   9.503   3.923 -0.8666 -0.3768  1.9000
 1017MOL0     H40310   6.954   9.446   3.730 -1.6866  6.5418 -1.7167
 1017MOL0     H40311   6.847   9.382   3.854  1.5636 -2.3184 -1.9082
 1017MOL0     H40312   6.665   9.371   3.699 -1.2171 -0.0043  0.1886
 1017MOL0     H40313   6.780   9.424   3.564 -0.2562  2.2307  2.1475
 1017MOL0     H40314   6.718   9.178   3.577 -0.3490 -1.2914  2.1343
 1017MOL0     H40315   6.793   9.164   3.724 -0.6408 -0.8709 -0.4031
 1017MOL0     H40316   7.014   9.205   3.622 -1.8361  0.0798  2.4947
 1017MOL0     H40317   6.923   9.249   3.465  0.7810  1.8425  1.0450
 1017MOL0     H40318   6.846   8.994   3.489  1.5703 -2.4379  1.4013
 1017MOL0     H40319   7.008   9.024   3.428 -1.1273 -1.7072 -1.3332
 1017MOL0     H40320   6.959   8.998   3.732  5.2617  6.1508  0.9971
 1017MOL0     H40321   7.098   8.984   3.659  0.9199  0.1914 -0.2642
 1017MOL0     H40322   7.059   8.755   3.550  0.1403 -0.9368  2.2801
 1017MOL0     H40323   6.887   8.773   3.604  0.3781 -1.3854 -1.0542
 1017MOL0     H40324   6.941   8.764   3.821 -0.3087  0.1478 -2.2612
 1017MOL0     H40325   7.118   8.762   3.780  1.3539  2.2496 -3.6441
 1017MOL0     H40326   6.730   9.803   3.840 -0.1373  0.9389  0.9876
 1017MOL0     H40327   6.855   9.958   3.982 -2.2316 -1.4858  0.3962
 1017MOL0     H40328   7.085   9.983   4.376 -0.6458  1.2418 -2.4609
 1017MOL0     H40329   7.161  10.111   4.562  1.3084 -1.9197  1.4896
 1017MOL0     H40330   8.750  10.556   5.532  1.9095  0.0487  0.7406
 1017MOL0     H40331   8.960  10.450   5.509  1.1729 -0.6767  0.4764
 1017MOL0     H40332   9.186  10.126   5.482  2.5959  1.2945 -0.7003
 1017MOL0     H40333   9.363   9.976   5.534  1.8915 -0.5234 -1.2923
 1017MOL0     H40334   9.498   9.587   5.399  2.4083  0.0539 -0.8111
 1017MOL0     H40335   9.389   9.619   5.273 -1.1549 -2.1962  2.2690
 1017MOL0     H40336   9.672   9.730   5.268 -0.5059 -1.4397 -0.1578
 1017MOL0     H40337   9.556   9.707   5.125  0.4783  1.4426 -0.3087
 1017MOL0     H40338   9.719   9.529   5.308  0.1052 -0.9825 -0.2046
 1017MOL0     H40339   9.589   9.448   5.218  0.0739  0.1601 -0.7219
 1017MOL0     H40340   9.824   9.586   5.105  0.6698  0.2059 -3.3559
 1017MOL0     H40341   9.691   9.541   5.001 -0.1937  2.1224  0.6110
 1017MOL0     H40342   9.907   9.189   5.069  1.0101  0.1238 -1.0580
 1017MOL0     H40343   9.357   9.816   5.160  2.2210  1.8052  0.7807
 1017MOL0     H40344   9.039   9.959   5.032  0.8386  1.7063 -2.6122
 1017MOL0     H40345   9.184  10.059   5.004  2.8705  0.2293  0.9626
 1017MOL0     H40346   9.191   9.893   4.973 -2.5617  1.6706 -2.9190
 1018MOL0     O40347   9.814   1.362  10.671 -0.2286 -0.1539 -0.3552
 1018MOL0     C40348   9.804   1.407  10.787  0.0028  0.2878 -0.6826
 1018MOL0     O40349   9.890   1.386  10.888 -0.3187 -0.5225 -0.5225
 1018MOL0     C40350  10.003   1.304  10.873  0.1091  0.0742 -0.9690
 1018MOL0     C40351  10.126   1.367  10.910 -0.4856  0.2408  0.2177
 1018MOL0     C40352  10.249   1.299  10.894 -0.8686  0.1692  0.2818
 1018MOL0     C40353  10.253   1.169  10.837  0.0937  0.5905 -0.2810
 1018MOL0     O40354  10.379   1.123  10.817  0.1114 -0.2521 -0.6452
 1018MOL0     C40355  10.418   0.988  10.835 -0.0153 -0.5598 -0.5438
 1018MOL0     C40356  10.572   0.963  10.800  0.9736 -0.8101 -0.0828
 1018MOL0     C40357  10.672   1.018  10.905  1.0773  0.5265 -0.3392
 1018MOL0     C40358  10.820   1.030  10.875  0.6793 -0.4807 -0.3838
 1018MOL0     C40359  10.902   1.073  10.998 -1.8317  0.2517  0.1695
 1018MOL0     C40360  11.044   1.113  10.948 -0.1421  0.3863 -0.3727
 1018MOL0     C40361  11.138   0.991  10.932  0.0832  1.9750 -0.1698
 1018MOL0     C40362  11.273   1.055  10.899  0.5228  0.0624 -0.0899
 1018MOL0     N40363  11.373   0.952  10.887 -0.0647 -0.2936 -0.0398
 1018MOL0     C40364  11.397   0.894  10.764  0.6254  0.8376 -0.7660
 1018MOL0     C40365  11.502   0.812  10.784 -0.1926  0.3490  0.4048
 1018MOL0     C40366  11.592   0.747  10.686 -0.3499 -0.4700  0.8933
 1018MOL0     C40367  11.551   0.607  10.654  0.1172 -0.2321 -0.2255
 1018MOL0     C40368  11.559   0.522  10.772 -0.1312  0.1672 -0.7513
 1018MOL0     C40369  11.507   0.384  10.727  0.3613  0.1143 -1.3510
 1018MOL0     O40370  11.362   0.381  10.717 -0.4834  0.2238  0.5967
 1018MOL0     C40371  11.292   0.281  10.651 -0.6189 -0.0027 -0.8521
 1018MOL0     C40372  11.343   0.160  10.597 -0.4910 -0.6624 -1.2512
 1018MOL0     C40373  11.266   0.058  10.548 -0.4242  0.1095 -0.0328
 1018MOL0     C40374  11.342  -0.068  10.510 -0.6043 -0.2599  0.0403
 1018MOL0     C40375  11.118   0.073  10.541  1.1069  0.2687  0.4703
 1018MOL0     C40376  11.025  -0.022  10.475  0.8109  0.0579  0.1821
 1018MOL0     O40377  10.886   0.002  10.487 -0.2352 -0.4997  0.0440
 1018MOL0     C40378  10.810  -0.110  10.464  0.4825 -0.8019 -0.8155
 1018MOL0     C40379  10.774  -0.155  10.343 -0.5414  0.5638 -0.3988
 1018MOL0     C40380  10.682  -0.255  10.320  0.3251  0.5465 -0.0620
 1018MOL0     C40381  10.615  -0.315  10.430 -0.8133 -0.9316 -0.4811
 1018MOL0     O40382  10.541  -0.425  10.426  0.3715 -0.7410 -0.3513
 1018MOL0     C40383  10.483  -0.463  10.300 -1.1449 -0.5243 -0.7426
 1018MOL0     C40384  10.344  -0.522  10.340  0.3436  0.3888 -0.0845
 1018MOL0     C40385  10.256  -0.562  10.217 -1.4280 -0.6587 -0.4147
 1018MOL0     C40386  10.143  -0.656  10.257  0.2735 -0.1338  0.8575
 1018MOL0     C40387  10.006  -0.587  10.308  0.1912 -0.5257 -0.4381
 1018MOL0     C40388   9.888  -0.634  10.229  0.7041 -0.5629  0.3939
 1018MOL0     C40389   9.771  -0.535  10.216 -0.0524 -0.9165  0.3796
 1018MOL0     C40390   9.637  -0.603  10.169 -0.9449  0.0405  1.2322
 1018MOL0    Cl40391   9.508  -0.482  10.150  0.3161  0.1315 -0.0835
 1018MOL0     C40392  10.642  -0.260  10.560 -0.6085  0.5753  0.7821
 1018MOL0     C40393  10.741  -0.163  10.578  1.2154  0.1819 -0.2527
 1018MOL0     O40394  11.078  -0.107  10.406  0.9875  0.1774 -0.4685
 1018MOL0     C40395  11.064   0.187  10.607  0.1654 -0.5626  0.5755
 1018MOL0     C40396  11.149   0.293  10.649 -0.2632 -0.9083  0.2859
 1018MOL0     N40397  11.531   0.811  10.922 -0.2356  0.7659  0.5173
 1018MOL0     N40398  11.443   0.893  10.979 -0.1422  0.3986 -0.5200
 1018MOL0     C40399  10.131   1.105  10.796 -0.0780  0.8613  0.1677
 1018MOL0     C40400  10.009   1.181  10.805 -0.0159 -0.3988 -0.6118
 1018MOL0     C40401   9.683   1.478  10.844 -0.3863 -0.2685  1.8430
 1018MOL0     C40402   9.648   1.457  10.970  0.4054 -0.2867 -0.4508
 1018MOL0     C40403   9.551   1.538  11.032  0.3325 -0.6558 -0.2005
 1018MOL0     C40404   9.483   1.641  10.958  0.0102 -0.1551  0.5098
 1018MOL0     O40405   9.385   1.710  11.010 -0.2053  0.0840 -0.0969
 1018MOL0     C40406   9.274   1.632  11.058  0.2023 -0.4539  0.3311
 1018MOL0     C40407   9.192   1.735  11.140 -0.0932 -0.9108 -0.7678
 1018MOL0     C40408   9.108   1.664  11.246 -0.1878  0.5572  0.0615
 1018MOL0     C40409   9.015   1.747  11.338 -0.2377  0.2662  0.0898
 1018MOL0     C40410   8.922   1.661  11.404 -0.3043  0.7578  0.0095
 1018MOL0     C40411   8.847   1.576  11.452  0.3263  0.0861  0.5731
 1018MOL0     C40412   9.515   1.642  10.825 -0.4911  0.0774 -1.2193
 1018MOL0     C40413   9.607   1.560  10.762 -0.1622  0.5575 -0.5763
 1018MOL0     C40414   9.638   1.587  10.624  0.0569 -0.0122  0.5235
 1018MOL0     H40415  10.113   1.466  10.952 -0.6367  0.4718 -0.3633
 1018MOL0     H40416  10.341   1.353  10.915 -0.1525 -0.5326 -0.9448
 1018MOL0     H40417  10.362   0.924  10.766 -1.6706  1.2230 -0.9449
 1018MOL0     H40418  10.401   0.946  10.934 -0.4612 -2.4072 -1.3647
 1018MOL0     H40419  10.580   0.855  10.791 -2.7661 -1.3790  1.5264
 1018MOL0     H40420  10.600   1.004  10.702 -1.6363  1.5100  0.0132
 1018MOL0     H40421  10.637   1.117  10.938 -0.7224  0.5661 -2.1833
 1018MOL0     H40422  10.672   0.947  10.988 -2.4930  0.3629 -0.3428
 1018MOL0     H40423  10.861   0.938  10.832 -0.3080 -1.2976  0.3807
 1018MOL0     H40424  10.824   1.112  10.803 -4.5651  0.9814  0.6050
 1018MOL0     H40425  10.915   0.990  11.068  2.2460  0.2242 -0.3871
 1018MOL0     H40426  10.857   1.162  11.043  0.5240  0.6122  1.9905
 1018MOL0     H40427  11.041   1.186  10.867  1.5658  1.6155  0.5954
 1018MOL0     H40428  11.090   1.174  11.027  3.5187 -0.8174 -1.3701
 1018MOL0     H40429  11.116   0.919  10.852  3.3227  2.4260 -1.6160
 1018MOL0     H40430  11.142   0.943  11.029  0.0380 -2.1159 -1.9987
 1018MOL0     H40431  11.275   1.117  10.809  1.3087 -2.4851 -1.9140
 1018MOL0     H40432  11.294   1.105  10.994 -2.4768  0.2134  0.6099
 1018MOL0     H40433  11.346   0.913  10.670 -1.9955  1.5452  0.6891
 1018MOL0     H40434  11.698   0.739  10.711 -0.3713 -0.5854  0.9469
 1018MOL0     H40435  11.576   0.816  10.602 -0.9164  1.8056  2.7495
 1018MOL0     H40436  11.450   0.619  10.615  0.4090  0.5038 -0.7909
 1018MOL0     H40437  11.616   0.573  10.572 -0.8058 -1.0583 -0.6312
 1018MOL0     H40438  11.658   0.519  10.820 -0.4027 -0.0367 -0.1925
 1018MOL0     H40439  11.487   0.555  10.847  1.2145 -2.1016  1.7182
 1018MOL0     H40440  11.565   0.350  10.641  1.9916  0.4494 -0.4128
 1018MOL0     H40441  11.536   0.322  10.812  0.1810  1.6388 -0.1410
 1018MOL0     H40442  11.450   0.144  10.610 -0.9666 -2.0983  1.6827
 1018MOL0     H40443  11.320  -0.109  10.411 -0.8494 -1.5825  0.6200
 1018MOL0     H40444  11.329  -0.147  10.585  2.2411 -0.3011  0.5850
 1018MOL0     H40445  11.450  -0.055  10.508 -0.6510  0.5098 -3.5720
 1018MOL0     H40446  10.814  -0.109  10.253 -0.3668  0.2633 -0.4760
 1018MOL0     H40447  10.667  -0.299  10.222 -1.0758 -0.5026  0.5813
 1018MOL0     H40448  10.479  -0.396  10.214  1.8907 -0.8096 -1.1967
 1018MOL0     H40449  10.537  -0.544  10.251 -3.4818 -2.9138  0.3723
 1018MOL0     H40450  10.373  -0.613  10.393  1.5484 -0.4169 -1.9776
 1018MOL0     H40451  10.284  -0.455  10.401 -1.9618 -1.3165 -0.3449
 1018MOL0     H40452  10.317  -0.596  10.132 -3.9084  2.0243 -3.5441
 1018MOL0     H40453  10.221  -0.474  10.162  0.9966  1.5541  1.3511
 1018MOL0     H40454  10.174  -0.727  10.334  0.5468  0.8900  1.7102
 1018MOL0     H40455  10.126  -0.709  10.162 -0.7450  0.0221  0.9478
 1018MOL0     H40456   9.992  -0.606  10.415 -0.7750 -1.9188 -0.7843
 1018MOL0     H40457  10.003  -0.478  10.299 -2.8261 -0.1689  2.6564
 1018MOL0     H40458   9.847  -0.723  10.278 -0.5390 -1.1822 -1.6575
 1018MOL0     H40459   9.928  -0.640  10.127 -2.6163  1.9813 -1.2735
 1018MOL0     H40460   9.805  -0.464  10.140  0.2299 -1.0324  0.3946
 1018MOL0     H40461   9.758  -0.484  10.312  0.3492 -0.1966  0.0649
 1018MOL0     H40462   9.602  -0.681  10.237  2.4637 -1.3127  1.6653
 1018MOL0     H40463   9.670  -0.642  10.072  0.9252  3.8079  0.1607
 1018MOL0     H40464  10.574  -0.291  10.638  0.0129  0.4739  1.2830
 1018MOL0     H40465  10.756  -0.107  10.669  2.3403 -0.7872  0.1780
 1018MOL0     H40466  10.960   0.215  10.595  0.9025  2.0478 -0.5477
 1018MOL0     H40467  11.104   0.388  10.679  0.1005 -1.5349  3.0819
 1018MOL0     H40468  10.132   1.008  10.746  1.3579  1.0209 -0.1468
 1018MOL0     H40469   9.918   1.144  10.759 -0.8310  0.7658  0.0157
 1018MOL0     H40470   9.697   1.382  11.031  0.0872 -0.9455 -1.0003
 1018MOL0     H40471   9.530   1.515  11.136  3.1490 -2.3067  0.0915
 1018MOL0     H40472   9.223   1.595  10.969  0.3383  0.7802 -0.2737
 1018MOL0     H40473   9.305   1.547  11.119  2.9682  0.1849 -0.0350
 1018MOL0     H40474   9.120   1.792  11.081 -0.2822 -1.0556 -0.6799
 1018MOL0     H40475   9.263   1.807  11.182  0.6046 -0.5525 -2.4693
 1018MOL0     H40476   9.057   1.579  11.201 -0.1086 -1.1981  2.9901
 1018MOL0     H40477   9.177   1.612  11.314 -0.3373 -2.0372 -1.6314
 1018MOL0     H40478   8.961   1.812  11.269  2.6240  1.7202 -0.9586
 1018MOL0     H40479   9.083   1.811  11.396  0.2401  0.5561 -0.7689
 1018MOL0     H40480   8.778   1.504  11.492 -0.2447  0.5429  0.4255
 1018MOL0     H40481   9.467   1.719  10.764  0.2142  0.4024 -1.3840
 1018MOL0     H40482   9.590   1.517  10.555  1.1721  2.5164 -3.1188
 1018MOL0     H40483   9.621   1.690  10.589  0.9733 -0.2259 -0.6134
 1018MOL0     H40484   9.743   1.582  10.594  0.1998  2.6899  0.2980
 1019MOL0     O40485   4.815   1.182   1.397 -0.6359 -0.2343  0.6371
 1019MOL0     C40486   4.835   1.183   1.521  0.3641 -0.1749  0.4122
 1019MOL0     O40487   4.954   1.154   1.584  0.4699 -0.8554 -0.2691
 1019MOL0     C40488   5.072   1.157   1.522 -0.1344  0.6043  0.8781
 1019MOL0     C40489   5.173   1.214   1.598  0.0766  0.1131  0.5972
 1019MOL0     C40490   5.291   1.226   1.543 -0.4930 -0.4197  0.8243
 1019MOL0     C40491   5.324   1.193   1.408  0.7683 -1.1308 -0.5330
 1019MOL0     O40492   5.449   1.215   1.353  0.1595  0.3500  0.4761
 1019MOL0     C40493   5.479   1.190   1.213 -0.6712  0.0821  0.4721
 1019MOL0     C40494   5.626   1.239   1.191 -0.5348 -0.0802 -0.6159
 1019MOL0     C40495   5.729   1.166   1.279 -0.5074 -0.2194 -0.7463
 1019MOL0     C40496   5.869   1.191   1.216 -0.2781 -0.3596  0.2025
 1019MOL0     C40497   5.980   1.107   1.266  0.2575  0.7028  0.5573
 1019MOL0     C40498   6.002   1.145   1.416  0.0714 -1.2769 -0.3301
 1019MOL0     C40499   6.130   1.088   1.469  0.9524 -0.0113  0.0533
 1019MOL0     C40500   6.144   1.151   1.608  0.3963  0.6116 -0.1573
 1019MOL0     N40501   6.277   1.098   1.663  0.7782  0.1099  0.0015
 1019MOL0     C40502   6.403   1.146   1.644  0.1293 -0.3515 -0.4490
 1019MOL0     C40503   6.485   1.049   1.679 -0.3932  0.5221 -1.1562
 1019MOL0     C40504   6.623   1.028   1.629  0.0243 -0.0839 -0.3767
 1019MOL0     C40505   6.616   0.958   1.496 -0.6276  0.2481  0.5617
 1019MOL0     C40506   6.754   0.908   1.460 -0.1974 -0.0045  0.3250
 1019MOL0     C40507   6.772   0.764   1.502 -0.0945 -0.0408 -0.2085
 1019MOL0     O40508   6.681   0.673   1.434  0.4399  0.5303  0.0707
 1019MOL0     C40509   6.715   0.613   1.319 -0.4899 -0.1900  0.1907
 1019MOL0     C40510   6.812   0.650   1.226 -0.0803 -0.1939 -0.1008
 1019MOL0     C40511   6.826   0.594   1.101  0.2379 -0.4249  0.3570
 1019MOL0     C40512   6.920   0.660   1.009 -0.7334 -0.1124 -0.5655
 1019MOL0     C40513   6.748   0.474   1.087 -0.5910 -0.0734  0.5504
 1019MOL0     C40514   6.764   0.386   0.964  0.8682 -0.4644  0.4254
 1019MOL0     O40515   6.695   0.274   0.968  0.2640 -0.1361  0.5058
 1019MOL0     C40516   6.653   0.203   0.865 -0.1209  0.2309 -0.0327
 1019MOL0     C40517   6.732   0.173   0.757  0.6500  0.1764  0.9058
 1019MOL0     C40518   6.675   0.113   0.634 -0.5258 -0.2222 -0.8075
 1019MOL0     C40519   6.539   0.085   0.618  0.1918  0.6706  0.2709
 1019MOL0     O40520   6.493   0.016   0.501 -1.0354 -1.2276 -0.0274
 1019MOL0     C40521   6.397   0.097   0.429  0.0939 -0.2493 -0.0330
 1019MOL0     C40522   6.441   0.225   0.359 -0.5084 -0.1670 -0.8395
 1019MOL0     C40523   6.547   0.201   0.248  0.0748  0.6982 -0.3755
 1019MOL0     C40524   6.620   0.324   0.219 -0.5417 -0.2366 -1.0839
 1019MOL0     C40525   6.712   0.297   0.097  0.3095 -0.8641  0.4077
 1019MOL0     C40526   6.782   0.421   0.048 -0.6208  0.6975  0.6784
 1019MOL0     C40527   6.864   0.382  -0.074  0.3584  0.1787  0.2384
 1019MOL0     C40528   6.937   0.506  -0.114  0.0458  0.2182 -0.1972
 1019MOL0    Cl40529   7.064   0.486  -0.239 -0.4912  0.2239  0.1151
 1019MOL0     C40530   6.458   0.106   0.738 -0.9852 -0.3081  0.2991
 1019MOL0     C40531   6.518   0.163   0.846 -0.2438  0.3612 -0.4690
 1019MOL0     O40532   6.817   0.438   0.859 -0.3657  0.7926 -0.3463
 1019MOL0     C40533   6.661   0.433   1.183  0.2166 -0.6363 -0.0846
 1019MOL0     C40534   6.638   0.504   1.294 -0.0201 -0.1411  0.7735
 1019MOL0     N40535   6.413   0.960   1.751  0.0964 -0.2497  0.0577
 1019MOL0     N40536   6.287   0.990   1.744 -0.0708  0.6471 -1.0114
 1019MOL0     C40537   5.224   1.139   1.324 -0.2193 -0.9405 -0.7612
 1019MOL0     C40538   5.100   1.111   1.385  0.0435  0.5483  1.3012
 1019MOL0     C40539   4.703   1.198   1.604 -0.1460 -0.0638 -0.2699
 1019MOL0     C40540   4.580   1.220   1.533 -0.3871  0.4518 -0.5604
 1019MOL0     C40541   4.455   1.238   1.607 -0.0985  0.7792  0.3278
 1019MOL0     C40542   4.450   1.225   1.745 -0.0993  0.9750 -0.6347
 1019MOL0     O40543   4.327   1.235   1.814 -0.3150 -0.3882  0.4745
 1019MOL0     C40544   4.332   1.210   1.962  0.0010  0.6257  0.0828
 1019MOL0     C40545   4.354   1.066   2.005 -0.0129  0.4499 -0.0098
 1019MOL0     C40546   4.269   0.965   1.920  0.3895  0.5651  0.4102
 1019MOL0     C40547   4.308   0.820   1.964  0.1598  0.6793  0.4195
 1019MOL0     C40548   4.437   0.781   1.901  0.5846  0.1167 -0.7715
 1019MOL0     C40549   4.549   0.749   1.863  0.2593  0.2818  0.5722
 1019MOL0     C40550   4.569   1.205   1.815 -0.5668  0.0580 -0.1826
 1019MOL0     C40551   4.694   1.189   1.744 -0.3724  0.3120 -0.6141
 1019MOL0     C40552   4.820   1.179   1.830 -0.8321  0.0033 -0.3530
 1019MOL0     H40553   5.149   1.250   1.697 -1.0654  1.0593  0.0132
 1019MOL0     H40554   5.363   1.277   1.607 -0.8229 -0.5817  1.3254
 1019MOL0     H40555   5.420   1.246   1.140  1.3927 -1.1778 -2.3500
 1019MOL0     H40556   5.483   1.082   1.197  1.5741 -0.4161  3.4664
 1019MOL0     H40557   5.652   1.212   1.089  1.1308 -1.1465  0.0516
 1019MOL0     H40558   5.626   1.348   1.192  0.5643 -0.0616 -1.4094
 1019MOL0     H40559   5.731   1.197   1.384  4.9880 -1.3201 -0.2220
 1019MOL0     H40560   5.714   1.058   1.266  2.3524 -0.9669  1.0727
 1019MOL0     H40561   5.874   1.167   1.110  3.6736  0.0878  0.1536
 1019MOL0     H40562   5.893   1.297   1.227 -2.0588 -0.0207  1.4190
 1019MOL0     H40563   6.072   1.137   1.215 -0.8179  1.5951 -0.9348
 1019MOL0     H40564   5.963   0.999   1.270 -2.5623  1.1141  1.5607
 1019MOL0     H40565   5.999   1.254   1.424  0.0364 -1.3657  1.1462
 1019MOL0     H40566   5.922   1.104   1.478  0.2733 -1.8344 -0.4298
 1019MOL0     H40567   6.215   1.115   1.406 -0.1221  0.8050 -1.0913
 1019MOL0     H40568   6.128   0.983   1.499  0.1776  0.5724  2.2048
 1019MOL0     H40569   6.135   1.259   1.594  1.4973  0.3361 -4.0444
 1019MOL0     H40570   6.065   1.119   1.677 -1.3905  2.7280 -1.1239
 1019MOL0     H40571   6.398   1.233   1.580 -2.7762  0.1509  0.3562
 1019MOL0     H40572   6.675   0.966   1.703 -0.9911 -1.4970 -0.8079
 1019MOL0     H40573   6.686   1.117   1.617 -0.0362 -0.2682 -2.3779
 1019MOL0     H40574   6.539   0.880   1.497 -0.8315  0.3875 -1.1947
 1019MOL0     H40575   6.587   1.028   1.417 -1.3470 -3.7558 -3.0611
 1019MOL0     H40576   6.776   0.924   1.354  2.7901 -2.5130  0.4342
 1019MOL0     H40577   6.826   0.968   1.516 -0.2951 -0.2002  0.6637
 1019MOL0     H40578   6.873   0.737   1.471  0.1495  1.2649 -0.6263
 1019MOL0     H40579   6.759   0.755   1.610 -2.1166 -1.7504 -0.5472
 1019MOL0     H40580   6.858   0.745   1.249 -1.8104  0.7981 -0.6003
 1019MOL0     H40581   6.885   0.678   0.908 -1.3721  1.1545 -0.1378
 1019MOL0     H40582   7.015   0.605   1.013 -1.2463 -1.3372 -3.1870
 1019MOL0     H40583   6.929   0.762   1.048 -1.2439 -0.2334 -0.1146
 1019MOL0     H40584   6.833   0.213   0.754  1.9007 -2.6266  1.9309
 1019MOL0     H40585   6.729   0.098   0.541  0.4714  2.2339 -0.6920
 1019MOL0     H40586   6.339   0.034   0.361  0.0277 -0.8241  0.5525
 1019MOL0     H40587   6.316   0.130   0.495 -0.7736 -1.2214 -0.5821
 1019MOL0     H40588   6.355   0.284   0.326 -2.1781 -0.7824  2.1049
 1019MOL0     H40589   6.501   0.282   0.430  0.1619 -3.4219  1.3960
 1019MOL0     H40590   6.500   0.167   0.155  0.7636  3.1008 -1.6970
 1019MOL0     H40591   6.617   0.125   0.284 -3.3972 -1.8116  1.5893
 1019MOL0     H40592   6.686   0.355   0.300  0.0034 -2.1246 -0.7716
 1019MOL0     H40593   6.545   0.403   0.203 -2.5806 -1.8429  0.0470
 1019MOL0     H40594   6.790   0.222   0.115  0.3997 -1.6384 -2.6615
 1019MOL0     H40595   6.651   0.259   0.015 -1.4413 -1.0937  1.7752
 1019MOL0     H40596   6.858   0.460   0.117  0.2627  2.3686 -1.1398
 1019MOL0     H40597   6.712   0.502   0.030 -0.3093  0.9054  0.3759
 1019MOL0     H40598   6.812   0.333  -0.157  0.7933 -2.5657  1.4728
 1019MOL0     H40599   6.936   0.302  -0.052 -0.5109 -0.6246  0.2131
 1019MOL0     H40600   6.988   0.557  -0.031  1.3620 -1.7434  0.2855
 1019MOL0     H40601   6.860   0.569  -0.158 -0.6924 -1.0989 -0.8517
 1019MOL0     H40602   6.350   0.100   0.737 -1.0646  0.8826  0.1335
 1019MOL0     H40603   6.452   0.158   0.933 -0.9204 -1.7485 -1.0304
 1019MOL0     H40604   6.594   0.348   1.172 -0.9514 -0.1962  2.7653
 1019MOL0     H40605   6.564   0.458   1.359 -1.7216 -0.0214 -0.9951
 1019MOL0     H40606   5.234   1.109   1.220  1.5202  0.5317 -1.0752
 1019MOL0     H40607   5.016   1.069   1.330  0.7069  1.0886 -0.1823
 1019MOL0     H40608   4.589   1.242   1.427 -0.3637 -1.0352 -0.8905
 1019MOL0     H40609   4.366   1.250   1.545 -0.6580 -0.8746  0.7544
 1019MOL0     H40610   4.388   1.286   2.018  0.8347  1.6833 -2.0708
 1019MOL0     H40611   4.230   1.220   1.999 -1.0432 -0.1580 -2.4249
 1019MOL0     H40612   4.322   1.053   2.109 -0.6737 -0.7593 -0.3458
 1019MOL0     H40613   4.461   1.044   2.009  0.2495  1.0289 -2.3121
 1019MOL0     H40614   4.162   0.983   1.936 -0.2476 -3.3695  1.7813
 1019MOL0     H40615   4.296   0.979   1.815  5.4858 -1.1240  1.2058
 1019MOL0     H40616   4.227   0.755   1.929 -1.4003  1.8018  1.7471
 1019MOL0     H40617   4.320   0.808   2.072  3.5867 -1.0034 -0.0122
 1019MOL0     H40618   4.639   0.698   1.835 -1.8845 -2.0769 -2.5935
 1019MOL0     H40619   4.578   1.203   1.923 -0.9055 -0.8681 -0.1663
 1019MOL0     H40620   4.862   1.079   1.812  3.8888  1.6345  0.1679
 1019MOL0     H40621   4.894   1.252   1.797 -0.5888 -0.2375 -0.3442
 1019MOL0     H40622   4.794   1.180   1.936 -2.4146 -2.3305 -0.6259
 1020MOL0     O40623   4.105   5.925   8.942  0.1309  0.8328  1.4875
 1020MOL0     C40624   4.101   6.016   8.855  0.2613 -0.6310  0.7545
 1020MOL0     O40625   4.022   6.016   8.735  0.7607  0.0181 -0.4678
 1020MOL0     C40626   3.938   5.908   8.718 -0.5210 -0.5644 -0.7926
 1020MOL0     C40627   3.825   5.893   8.802  0.6687 -0.2252  0.2214
 1020MOL0     C40628   3.754   5.774   8.800  2.0511 -1.0094 -0.2116
 1020MOL0     C40629   3.786   5.678   8.698  0.1382 -0.1075 -1.5506
 1020MOL0     O40630   3.705   5.572   8.679  0.2531 -0.7005  0.2465
 1020MOL0     C40631   3.683   5.473   8.784  0.0432 -0.7005  0.2313
 1020MOL0     C40632   3.808   5.435   8.860 -0.0817  0.4801  0.3630
 1020MOL0     C40633   3.850   5.526   8.978 -0.6831 -0.1999  1.1352
 1020MOL0     C40634   3.930   5.466   9.085  0.4244 -0.6337 -0.6274
 1020MOL0     C40635   3.934   5.558   9.213  0.9890 -0.3908  1.2161
 1020MOL0     C40636   4.035   5.656   9.181 -0.1375 -0.6758 -0.2952
 1020MOL0     C40637   4.044   5.740   9.310 -0.2561 -0.3308 -0.4542
 1020MOL0     C40638   4.157   5.843   9.304  0.2574  0.7793  0.0492
 1020MOL0     N40639   4.284   5.798   9.350 -0.1108  0.1644  0.7201
 1020MOL0     C40640   4.390   5.891   9.354  0.5090  0.7736 -0.2717
 1020MOL0     C40641   4.506   5.818   9.364 -0.0727  1.0082 -0.2916
 1020MOL0     C40642   4.653   5.863   9.400  0.1095  0.2681 -0.6850
 1020MOL0     C40643   4.675   6.011   9.367 -0.4349 -0.4514 -0.0114
 1020MOL0     C40644   4.630   6.108   9.472 -0.7965 -0.9006 -0.9832
 1020MOL0     C40645   4.674   6.259   9.444 -0.0352  0.3416 -0.2762
 1020MOL0     O40646   4.607   6.335   9.547  0.3841 -0.3232 -0.9495
 1020MOL0     C40647   4.667   6.447   9.596 -0.2509  0.7809 -0.2849
 1020MOL0     C40648   4.726   6.549   9.516  0.0797 -0.6262  0.2446
 1020MOL0     C40649   4.772   6.675   9.572  0.2196 -0.9626 -0.0308
 1020MOL0     C40650   4.846   6.770   9.478 -0.5028 -0.4193  0.6806
 1020MOL0     C40651   4.776   6.697   9.711  0.0635  0.7179  0.0973
 1020MOL0     C40652   4.828   6.823   9.778 -0.5201 -0.5056 -0.4918
 1020MOL0     O40653   4.774   6.827   9.906  0.0752 -0.6283 -0.0669
 1020MOL0     C40654   4.778   6.944   9.986 -0.2571 -0.7121  0.1774
 1020MOL0     C40655   4.703   6.927  10.103 -0.7310 -0.4192  0.1586
 1020MOL0     C40656   4.696   7.035  10.192 -0.3063 -1.1659  0.0775
 1020MOL0     C40657   4.759   7.158  10.181 -0.7673  0.1951  0.6599
 1020MOL0     O40658   4.774   7.251  10.277 -0.5689 -0.1938 -1.1841
 1020MOL0     C40659   4.650   7.333  10.301  0.8561  0.0591 -0.2212
 1020MOL0     C40660   4.680   7.449  10.404  0.3207 -0.6636  0.3006
 1020MOL0     C40661   4.743   7.425  10.546  0.0879  0.4948  0.2017
 1020MOL0     C40662   4.654   7.343  10.629  0.3526  0.5971 -0.0898
 1020MOL0     C40663   4.725   7.317  10.765  1.3486 -0.1727  0.0378
 1020MOL0     C40664   4.643   7.209  10.833 -0.8290  0.4983 -0.9288
 1020MOL0     C40665   4.708   7.169  10.958 -0.7375  0.8012 -0.0262
 1020MOL0     C40666   4.659   7.040  11.032  0.8378 -0.7264  0.0953
 1020MOL0    Cl40667   4.482   7.046  11.042 -0.0504  0.1055  0.4067
 1020MOL0     C40668   4.835   7.172  10.063  0.4318 -0.1753 -0.2015
 1020MOL0     C40669   4.832   7.077   9.964  1.0399 -0.3698  0.9908
 1020MOL0     O40670   4.907   6.902   9.736 -0.2554 -0.2803 -0.5353
 1020MOL0     C40671   4.707   6.601   9.782 -0.4412 -0.3725  0.5279
 1020MOL0     C40672   4.652   6.484   9.728 -0.9815  0.3002  0.4741
 1020MOL0     N40673   4.461   5.683   9.367  0.0993  0.5413  0.0180
 1020MOL0     N40674   4.334   5.675   9.366 -0.0192 -0.0915  1.2564
 1020MOL0     C40675   3.892   5.695   8.618 -1.0099  0.0431  0.3694
 1020MOL0     C40676   3.967   5.810   8.628 -0.0567 -0.4222 -0.1233
 1020MOL0     C40677   4.176   6.131   8.903 -0.1251  0.8120 -0.6463
 1020MOL0     C40678   4.273   6.110   9.004  0.2799 -0.0662 -0.4929
 1020MOL0     C40679   4.362   6.221   9.044  0.5034  0.9105 -0.1251
 1020MOL0     C40680   4.341   6.351   8.998  0.0314  0.6291 -0.3511
 1020MOL0     O40681   4.410   6.453   9.059 -0.1544 -0.6050  0.3737
 1020MOL0     C40682   4.470   6.554   8.970 -0.4087 -0.1416  0.6854
 1020MOL0     C40683   4.480   6.704   9.026 -0.1410  1.7024 -0.1496
 1020MOL0     C40684   4.539   6.720   9.168 -0.0315  0.4025 -0.3121
 1020MOL0     C40685   4.519   6.865   9.220  0.9645  0.0816 -0.4237
 1020MOL0     C40686   4.378   6.901   9.230  1.5015 -1.6407 -0.2084
 1020MOL0     C40687   4.260   6.919   9.239  0.6466 -0.3780 -0.5396
 1020MOL0     C40688   4.245   6.364   8.901 -0.0159 -0.1825 -0.1495
 1020MOL0     C40689   4.162   6.263   8.847  0.1909 -0.1590 -0.2795
 1020MOL0     C40690   4.080   6.295   8.731 -0.1131 -0.1091  0.2191
 1020MOL0     H40691   3.789   5.973   8.866 -0.8800 -2.6773  2.6006
 1020MOL0     H40692   3.656   5.766   8.847  0.4327 -0.9365 -3.2987
 1020MOL0     H40693   3.629   5.388   8.741 -1.5102  0.0383  0.6338
 1020MOL0     H40694   3.614   5.522   8.854  1.2684  0.8706  0.3832
 1020MOL0     H40695   3.785   5.338   8.904 -1.3818  0.8780  0.5951
 1020MOL0     H40696   3.898   5.411   8.803 -0.3583  1.0793 -0.3322
 1020MOL0     H40697   3.926   5.594   8.939 -1.4920  0.4397  0.6189
 1020MOL0     H40698   3.774   5.600   9.005 -1.0139  0.4900 -1.4007
 1020MOL0     H40699   3.874   5.378   9.118 -0.3068  0.0373 -0.0571
 1020MOL0     H40700   4.033   5.438   9.058  0.1833 -0.9579 -1.2211
 1020MOL0     H40701   3.965   5.492   9.294  3.3328  0.4386  1.0718
 1020MOL0     H40702   3.836   5.597   9.243  0.5675  0.2087 -0.7321
 1020MOL0     H40703   4.124   5.600   9.149 -0.4335 -1.7445  0.6881
 1020MOL0     H40704   4.013   5.717   9.093 -0.7157  1.1806  1.0481
 1020MOL0     H40705   4.069   5.673   9.393  0.2386 -0.5008 -0.7370
 1020MOL0     H40706   3.947   5.784   9.335  0.4324  1.5742 -1.0093
 1020MOL0     H40707   4.174   5.882   9.204  3.3810  2.1037  0.9670
 1020MOL0     H40708   4.128   5.934   9.357  1.6465  0.9773  0.5318
 1020MOL0     H40709   4.371   5.997   9.365 -0.6026  0.6933 -1.1881
 1020MOL0     H40710   4.736   5.800   9.366 -0.9328 -1.8873  0.4812
 1020MOL0     H40711   4.660   5.867   9.509  2.5545  0.3937 -0.8009
 1020MOL0     H40712   4.780   6.021   9.338 -0.5675 -0.9389 -0.6978
 1020MOL0     H40713   4.611   6.035   9.281  2.5602  0.1660 -2.2302
 1020MOL0     H40714   4.521   6.109   9.480 -0.9161  1.8874 -1.7826
 1020MOL0     H40715   4.684   6.073   9.560 -2.3060 -0.2147  0.2737
 1020MOL0     H40716   4.783   6.266   9.451 -0.0630 -0.2734  1.0081
 1020MOL0     H40717   4.634   6.282   9.344 -2.9345 -0.4646  0.5883
 1020MOL0     H40718   4.730   6.543   9.408 -4.5324  0.4138 -0.2004
 1020MOL0     H40719   4.809   6.868   9.510  0.5643  0.0213  0.6137
 1020MOL0     H40720   4.806   6.760   9.376 -2.6843  3.5473  0.9381
 1020MOL0     H40721   4.954   6.758   9.488 -0.5016 -0.9142  0.1269
 1020MOL0     H40722   4.659   6.830  10.124 -0.5460 -0.0231  2.6969
 1020MOL0     H40723   4.641   7.019  10.284  0.8330 -0.4728  0.9017
 1020MOL0     H40724   4.621   7.386  10.210  0.2596 -1.0344 -0.6846
 1020MOL0     H40725   4.568   7.270  10.336  1.8687 -1.3295 -0.2792
 1020MOL0     H40726   4.760   7.508  10.360  0.1478 -0.9825 -0.4470
 1020MOL0     H40727   4.594   7.516  10.400  1.2014  0.4235 -0.8741
 1020MOL0     H40728   4.739   7.519  10.603  1.0707  0.6016  0.1216
 1020MOL0     H40729   4.831   7.361  10.534  0.4636  1.1231 -0.4945
 1020MOL0     H40730   4.629   7.250  10.577 -2.5873 -0.4004  2.7274
 1020MOL0     H40731   4.555   7.389  10.638 -1.4078 -2.6089 -1.2461
 1020MOL0     H40732   4.827   7.281  10.750  1.1012 -0.9789  0.2327
 1020MOL0     H40733   4.715   7.403  10.831  2.2587  0.8908 -1.1722
 1020MOL0     H40734   4.639   7.116  10.778 -0.2578 -0.0802 -0.0232
 1020MOL0     H40735   4.539   7.240  10.848 -0.9655 -0.4470  0.2036
 1020MOL0     H40736   4.696   7.255  11.025  0.4653  0.9159  0.0582
 1020MOL0     H40737   4.814   7.149  10.942 -0.4220  3.5198 -2.0997
 1020MOL0     H40738   4.697   7.036  11.134  2.6748  3.5978 -0.1684
 1020MOL0     H40739   4.691   6.950  10.978  2.5753  1.1697 -2.3031
 1020MOL0     H40740   4.895   7.260  10.043  1.0730 -0.2683  1.1911
 1020MOL0     H40741   4.882   7.087   9.869  1.4355 -3.4441  0.7822
 1020MOL0     H40742   4.712   6.612   9.890  0.1748  0.5942  0.4076
 1020MOL0     H40743   4.586   6.425   9.792 -0.4460 -0.1924  0.5769
 1020MOL0     H40744   3.909   5.617   8.544  0.8780  1.3497 -0.6287
 1020MOL0     H40745   4.045   5.827   8.555 -1.7243 -0.6523 -2.0223
 1020MOL0     H40746   4.291   6.010   9.043 -0.4871 -1.6369 -3.8126
 1020MOL0     H40747   4.440   6.195   9.115  0.7602 -1.4208 -1.1840
 1020MOL0     H40748   4.572   6.517   8.953  0.6600  1.7049  2.5715
 1020MOL0     H40749   4.418   6.555   8.874 -0.4803 -0.6421  0.7152
 1020MOL0     H40750   4.380   6.747   9.032 -1.4730 -1.1259 -0.5933
 1020MOL0     H40751   4.534   6.756   8.946  0.9574  0.7804 -0.0322
 1020MOL0     H40752   4.504   6.644   9.239 -0.2315  0.2782 -0.5380
 1020MOL0     H40753   4.646   6.697   9.159 -0.3831 -1.9710  0.8740
 1020MOL0     H40754   4.574   6.925   9.148 -3.0688  1.3924 -2.7318
 1020MOL0     H40755   4.567   6.871   9.318  1.2160 -0.1703 -0.5308
 1020MOL0     H40756   4.157   6.946   9.250  0.1928 -2.6334  2.0731
 1020MOL0     H40757   4.220   6.465   8.870 -0.7053 -1.4351 -4.3266
 1020MOL0     H40758   4.119   6.251   8.639 -0.1213  0.0569  0.1361
 1020MOL0     H40759   3.975   6.265   8.738 -0.2549  0.7073  4.4378
 1020MOL0     H40760   4.079   6.403   8.713 -3.8984 -0.1149 -0.3932
 1021MOL0     O40761   6.306   5.638   8.665  0.0906 -0.4243 -0.6680
 1021MOL0     C40762   6.186   5.676   8.650 -1.1980 -0.0108 -0.2968
 1021MOL0     O40763   6.106   5.645   8.542  1.1597  0.1684  0.1738
 1021MOL0     C40764   6.159   5.554   8.454 -0.2955  0.0462  0.7389
 1021MOL0     C40765   6.257   5.590   8.362 -0.3987  0.4928  0.2870
 1021MOL0     C40766   6.314   5.492   8.270  0.3226 -0.8238  0.4204
 1021MOL0     C40767   6.269   5.360   8.267 -0.4183 -1.4689  0.4164
 1021MOL0     O40768   6.315   5.267   8.186 -0.9777  0.3244 -0.3434
 1021MOL0     C40769   6.428   5.203   8.255 -0.3249  0.7871  0.6402
 1021MOL0     C40770   6.497   5.094   8.160  1.2998  1.0381 -0.3604
 1021MOL0     C40771   6.515   5.142   8.009  0.3420 -0.0187 -0.2623
 1021MOL0     C40772   6.575   5.030   7.924  0.1116 -0.4214 -0.3021
 1021MOL0     C40773   6.607   5.058   7.770  0.0314  0.1103  0.8445
 1021MOL0     C40774   6.687   5.186   7.753  0.7553  1.1260  0.4340
 1021MOL0     C40775   6.820   5.173   7.823 -0.7684 -1.1987  0.9771
 1021MOL0     C40776   6.905   5.297   7.804 -1.2520  0.4909  0.5626
 1021MOL0     N40777   6.954   5.313   7.666 -0.3111  0.3531 -0.0959
 1021MOL0     C40778   6.992   5.216   7.571  0.4859  0.4368 -0.6771
 1021MOL0     C40779   7.012   5.280   7.450  0.3613 -0.2830 -1.2076
 1021MOL0     C40780   7.047   5.217   7.320  0.8941  0.3976  1.0128
 1021MOL0     C40781   7.186   5.230   7.268 -0.7738  0.5018 -0.0194
 1021MOL0     C40782   7.299   5.201   7.367 -0.6914 -0.5133 -0.8524
 1021MOL0     C40783   7.328   5.060   7.414 -0.2551  0.1556  0.0133
 1021MOL0     O40784   7.456   5.048   7.487 -0.1819 -0.0487  0.2340
 1021MOL0     C40785   7.477   5.081   7.616  1.0579 -0.3741 -0.4033
 1021MOL0     C40786   7.607   5.078   7.666  0.2927  0.3232  0.2877
 1021MOL0     C40787   7.638   5.082   7.808 -1.1066  0.7708 -0.5119
 1021MOL0     C40788   7.779   5.037   7.854 -0.5241  0.5538 -0.0423
 1021MOL0     C40789   7.531   5.120   7.894 -0.0131  0.7027 -0.5410
 1021MOL0     C40790   7.545   5.145   8.037  0.7817  0.1356 -0.2800
 1021MOL0     O40791   7.484   5.247   8.092  0.0346 -1.8191 -0.8745
 1021MOL0     C40792   7.475   5.267   8.228 -0.2948 -0.1847  0.1916
 1021MOL0     C40793   7.420   5.174   8.318  0.4596  0.1167 -0.5842
 1021MOL0     C40794   7.426   5.194   8.456  0.9580  0.6433 -0.4522
 1021MOL0     C40795   7.484   5.316   8.508 -0.5677  0.6310  0.0530
 1021MOL0     O40796   7.481   5.353   8.635  0.9420  0.4220 -1.0649
 1021MOL0     C40797   7.604   5.387   8.703  0.1482  0.1033  1.2208
 1021MOL0     C40798   7.642   5.274   8.801  0.1169  0.0977  0.0477
 1021MOL0     C40799   7.530   5.227   8.897 -0.4538 -0.4842 -0.2893
 1021MOL0     C40800   7.570   5.104   8.975  0.5793 -0.1473  0.6472
 1021MOL0     C40801   7.467   5.078   9.078 -0.6482  0.1399 -0.5759
 1021MOL0     C40802   7.462   5.182   9.193 -0.3584 -0.3589  0.5561
 1021MOL0     C40803   7.357   5.148   9.296 -0.2709  0.4312 -0.5738
 1021MOL0     C40804   7.363   5.243   9.423 -0.3743  0.6648  0.9418
 1021MOL0    Cl40805   7.522   5.230   9.491 -0.5815 -0.0675 -0.0413
 1021MOL0     C40806   7.524   5.410   8.413 -0.5876  0.1028  0.1167
 1021MOL0     C40807   7.517   5.389   8.278 -0.0579  0.1281 -0.0740
 1021MOL0     O40808   7.606   5.064   8.103 -0.7503 -0.3047 -0.7183
 1021MOL0     C40809   7.404   5.141   7.839 -0.1263  0.7426 -0.0757
 1021MOL0     C40810   7.379   5.116   7.708 -0.2692 -0.5379 -0.5523
 1021MOL0     N40811   6.999   5.421   7.468 -0.3748 -0.4951  0.1112
 1021MOL0     N40812   6.964   5.433   7.595  0.1294 -0.5432  0.8221
 1021MOL0     C40813   6.168   5.332   8.360 -0.5431  0.1309  2.0577
 1021MOL0     C40814   6.114   5.425   8.449  0.0417 -0.1482 -0.8610
 1021MOL0     C40815   6.126   5.745   8.758  0.0180 -1.0629  0.2049
 1021MOL0     C40816   6.188   5.858   8.810  0.3474 -0.4169 -0.2447
 1021MOL0     C40817   6.126   5.930   8.914 -0.1832 -0.1127 -0.2994
 1021MOL0     C40818   5.999   5.899   8.963 -0.2147  0.3797 -0.4569
 1021MOL0     O40819   5.955   5.973   9.070  0.0779  0.0569 -0.2108
 1021MOL0     C40820   5.823   5.956   9.125  0.9398 -0.6696  0.1163
 1021MOL0     C40821   5.806   6.039   9.251  0.0915  0.9640  0.2167
 1021MOL0     C40822   5.837   6.178   9.217  0.3583 -0.2000  0.2223
 1021MOL0     C40823   5.841   6.275   9.345  0.0066 -1.1605  0.1214
 1021MOL0     C40824   5.791   6.222   9.472 -0.0985  0.0177  0.4448
 1021MOL0     C40825   5.743   6.180   9.575 -0.6569  0.4969 -0.5289
 1021MOL0     C40826   5.929   5.790   8.902  0.2021 -0.1942 -0.6348
 1021MOL0     C40827   5.996   5.707   8.803  0.2637 -0.0691  0.3229
 1021MOL0     C40828   5.923   5.581   8.756  0.1343 -0.2890  0.7486
 1021MOL0     H40829   6.274   5.697   8.366 -2.4933  1.0602 -2.4240
 1021MOL0     H40830   6.402   5.526   8.218  0.7296 -0.1638  1.5183
 1021MOL0     H40831   6.400   5.151   8.347  3.1099  1.0120  1.9653
 1021MOL0     H40832   6.493   5.289   8.273 -0.7467  1.5450 -1.1898
 1021MOL0     H40833   6.592   5.065   8.204  0.5250 -1.4924 -0.1452
 1021MOL0     H40834   6.434   5.004   8.169 -1.3106  2.8154  0.3349
 1021MOL0     H40835   6.411   5.157   7.977  0.7041  0.7204 -1.1647
 1021MOL0     H40836   6.583   5.228   8.005  2.1106 -1.3885 -2.0998
 1021MOL0     H40837   6.672   5.013   7.973 -0.6453  3.2076  2.9746
 1021MOL0     H40838   6.511   4.941   7.928  0.0548 -0.3559  0.3619
 1021MOL0     H40839   6.509   5.068   7.722  0.0349 -4.3625 -0.5745
 1021MOL0     H40840   6.674   4.985   7.723  0.2013 -0.7694  2.4127
 1021MOL0     H40841   6.701   5.202   7.646 -0.9568  0.3754  0.0556
 1021MOL0     H40842   6.638   5.275   7.795  0.6843  0.2886  2.2159
 1021MOL0     H40843   6.871   5.091   7.772  0.0219 -1.6374  2.4189
 1021MOL0     H40844   6.809   5.161   7.931 -2.1366  3.3214  1.5659
 1021MOL0     H40845   6.847   5.381   7.843 -1.2375 -0.7668  3.5100
 1021MOL0     H40846   6.997   5.292   7.863  1.1265  1.5174 -2.7794
 1021MOL0     H40847   6.999   5.109   7.585  0.0827  0.5692  0.6479
 1021MOL0     H40848   6.980   5.260   7.244 -3.2525 -2.5885  2.6113
 1021MOL0     H40849   7.021   5.111   7.320 -0.0345  0.6056  0.2301
 1021MOL0     H40850   7.197   5.163   7.182 -2.2548  0.5589 -0.2737
 1021MOL0     H40851   7.201   5.334   7.237  1.7307  0.6382  1.3515
 1021MOL0     H40852   7.393   5.239   7.328  0.6609  0.5362  2.9976
 1021MOL0     H40853   7.273   5.251   7.461  0.0439 -3.0340  0.8050
 1021MOL0     H40854   7.249   5.015   7.476 -1.3469 -1.4975 -2.4215
 1021MOL0     H40855   7.340   4.992   7.330  1.1667  0.0385  0.2894
 1021MOL0     H40856   7.682   5.054   7.592  0.2009 -1.3730  0.6999
 1021MOL0     H40857   7.854   5.009   7.780  1.2335 -1.5850  2.3423
 1021MOL0     H40858   7.770   4.942   7.908  1.7836  0.0792 -0.4011
 1021MOL0     H40859   7.825   5.112   7.919  0.6799  1.3486 -1.7568
 1021MOL0     H40860   7.407   5.073   8.280  1.1825  0.4482 -1.7762
 1021MOL0     H40861   7.389   5.123   8.530 -0.6840 -0.5528 -2.3233
 1021MOL0     H40862   7.676   5.417   8.627 -1.2115  0.6583  0.1109
 1021MOL0     H40863   7.587   5.483   8.753  3.9777  1.0640  0.9837
 1021MOL0     H40864   7.676   5.191   8.739  3.0587  0.5349  0.9238
 1021MOL0     H40865   7.732   5.288   8.862  1.6482 -2.1675 -1.5798
 1021MOL0     H40866   7.432   5.216   8.850  0.0335  1.2994 -1.8592
 1021MOL0     H40867   7.516   5.308   8.969 -0.4314 -1.4952  0.8880
 1021MOL0     H40868   7.672   5.117   9.015  0.5474 -0.2729  0.7733
 1021MOL0     H40869   7.575   5.021   8.905 -1.6293  0.8460 -0.7900
 1021MOL0     H40870   7.372   5.078   9.023  0.6583 -0.1707 -2.9906
 1021MOL0     H40871   7.487   4.983   9.128  3.5892  1.6156  0.9454
 1021MOL0     H40872   7.426   5.278   9.155 -1.4923 -1.0800 -0.2414
 1021MOL0     H40873   7.557   5.194   9.246 -1.3866 -2.0821  3.0138
 1021MOL0     H40874   7.379   5.045   9.328  1.0139  0.4957 -1.1824
 1021MOL0     H40875   7.254   5.143   9.261 -1.3586 -0.9245  2.4901
 1021MOL0     H40876   7.282   5.217   9.492  1.7180 -2.6985  2.4072
 1021MOL0     H40877   7.332   5.343   9.393 -1.0641 -0.2872 -1.8840
 1021MOL0     H40878   7.562   5.510   8.435  1.4878  0.1761 -3.1935
 1021MOL0     H40879   7.532   5.465   8.202  1.2401  0.0327  0.0798
 1021MOL0     H40880   7.315   5.170   7.895 -1.3837  1.5541 -2.3673
 1021MOL0     H40881   7.273   5.121   7.683 -1.1265  1.4297  2.8427
 1021MOL0     H40882   6.123   5.234   8.362  0.6595 -0.4382  2.4694
 1021MOL0     H40883   6.039   5.391   8.519  0.5470  0.3845 -0.0464
 1021MOL0     H40884   6.290   5.890   8.788  1.5598 -2.7554  1.4690
 1021MOL0     H40885   6.187   6.012   8.951  1.7942 -1.7168  0.1484
 1021MOL0     H40886   5.752   5.986   9.047 -1.2255  0.8699  2.5313
 1021MOL0     H40887   5.805   5.849   9.138 -1.3349 -0.1564  1.8043
 1021MOL0     H40888   5.855   6.005   9.343 -0.9648  3.1755  1.6996
 1021MOL0     H40889   5.700   6.034   9.281  0.4682 -0.8037  1.3970
 1021MOL0     H40890   5.932   6.201   9.167  1.0791 -0.0665  1.6182
 1021MOL0     H40891   5.752   6.206   9.155 -1.3282 -3.1454  1.0388
 1021MOL0     H40892   5.786   6.365   9.316 -2.5030 -3.1191 -1.7392
 1021MOL0     H40893   5.943   6.303   9.372 -1.0352  2.5406  0.7834
 1021MOL0     H40894   5.715   6.140   9.670  0.8865  0.1654 -0.1858
 1021MOL0     H40895   5.831   5.761   8.937 -0.5944  3.0972  0.1775
 1021MOL0     H40896   5.993   5.512   8.708  0.7512  1.2279 -0.5988
 1021MOL0     H40897   5.856   5.529   8.826 -2.7716 -2.6880 -3.3497
 1021MOL0     H40898   5.856   5.618   8.678  1.7902  4.2732  1.2071
 1022MOL0     O40899   0.497   9.739   6.154  0.5239  0.4690  0.3870
 1022MOL0     C40900   0.410   9.770   6.069 -0.3598 -0.6266 -0.4819
 1022MOL0     O40901   0.278   9.784   6.099 -0.2485 -0.4349 -0.1224
 1022MOL0     C40902   0.248   9.755   6.235  0.7826  0.8214  0.8182
 1022MOL0     C40903   0.212   9.631   6.290  0.4583 -0.6937 -0.0408
 1022MOL0     C40904   0.189   9.615   6.430 -1.1673  0.0001  0.6803
 1022MOL0     C40905   0.183   9.733   6.526 -0.1405  0.4038  1.4644
 1022MOL0     O40906   0.170   9.734   6.669 -0.4758 -0.7326  0.3642
 1022MOL0     C40907   0.190   9.599   6.717 -0.0994  0.2107  0.2486
 1022MOL0     C40908   0.218   9.593   6.857 -0.2315  0.6460  0.0179
 1022MOL0     C40909   0.150   9.700   6.944 -0.8390  0.0828 -1.0444
 1022MOL0     C40910  -0.002   9.688   6.987  0.9285  0.4475  0.7308
 1022MOL0     C40911  -0.095   9.771   6.884 -0.1513  0.4668  0.0719
 1022MOL0     C40912  -0.174   9.886   6.953  0.5576 -1.0200 -0.2281
 1022MOL0     C40913  -0.088  10.011   6.965 -0.5898  0.8265 -1.6584
 1022MOL0     C40914  -0.109  10.100   7.082  0.4848 -0.3465  0.4723
 1022MOL0     N40915  -0.081  10.045   7.215  0.0996  0.0476 -0.1278
 1022MOL0     C40916  -0.146  10.075   7.328 -0.2565 -0.7879 -0.6277
 1022MOL0     C40917  -0.100   9.998   7.423  0.6695  0.0164  0.7443
 1022MOL0     C40918  -0.142  10.013   7.569  0.1107 -0.8132 -0.7859
 1022MOL0     C40919  -0.243   9.898   7.596  0.1712 -1.0797 -0.3423
 1022MOL0     C40920  -0.353   9.896   7.492  1.3816 -0.2802 -0.8603
 1022MOL0     C40921  -0.482   9.811   7.526 -0.1309 -0.2447  0.0291
 1022MOL0     O40922  -0.448   9.677   7.555 -0.8729  0.3343 -0.1079
 1022MOL0     C40923  -0.515   9.602   7.650 -0.9967  0.3544  0.7659
 1022MOL0     C40924  -0.638   9.635   7.701  0.7626  1.4923  0.1996
 1022MOL0     C40925  -0.698   9.546   7.793 -0.1699  0.5934 -0.0329
 1022MOL0     C40926  -0.832   9.601   7.852  1.1934  0.1451  0.4369
 1022MOL0     C40927  -0.649   9.413   7.816 -0.1387 -1.3823 -0.6028
 1022MOL0     C40928  -0.706   9.306   7.905  0.1544 -0.6480  0.9329
 1022MOL0     O40929  -0.623   9.191   7.922  0.2783  0.0804 -0.3504
 1022MOL0     C40930  -0.688   9.080   7.972 -0.2138 -0.5390 -0.1870
 1022MOL0     C40931  -0.741   8.992   7.881  0.7242  1.0988 -0.1926
 1022MOL0     C40932  -0.783   8.870   7.925 -0.1493  0.5060  0.7547
 1022MOL0     C40933  -0.773   8.837   8.056  0.8277  0.4426 -0.2995
 1022MOL0     O40934  -0.819   8.712   8.103 -0.5993  0.4689  0.0008
 1022MOL0     C40935  -0.954   8.671   8.063 -0.1422 -0.2890 -0.5055
 1022MOL0     C40936  -0.970   8.520   8.113  0.4240  0.1864  0.0272
 1022MOL0     C40937  -0.919   8.404   8.028  0.0942 -0.6355  0.4817
 1022MOL0     C40938  -0.994   8.408   7.895 -0.0117  0.8458  0.6530
 1022MOL0     C40939  -1.137   8.350   7.889 -0.5925 -0.8753 -0.1574
 1022MOL0     C40940  -1.176   8.327   7.737 -0.7010 -0.0818  0.0981
 1022MOL0     C40941  -1.308   8.262   7.732  0.3750  0.0050  0.0100
 1022MOL0     C40942  -1.347   8.190   7.602 -0.1386 -0.1543 -0.2546
 1022MOL0    Cl40943  -1.322   8.307   7.467 -0.6349  0.2418 -0.0381
 1022MOL0     C40944  -0.726   8.922   8.145 -0.3566 -1.3159 -0.3704
 1022MOL0     C40945  -0.670   9.043   8.101  0.5189 -0.2878 -0.9541
 1022MOL0     O40946  -0.808   9.328   7.966 -0.1560 -0.8356 -0.4133
 1022MOL0     C40947  -0.516   9.388   7.766  0.1099 -0.1607 -1.0335
 1022MOL0     C40948  -0.455   9.478   7.692 -0.3780 -0.7693 -0.4942
 1022MOL0     N40949  -0.008   9.907   7.374 -0.2918  0.0462  0.3412
 1022MOL0     N40950   0.001   9.943   7.246  0.6560 -0.7507  0.1442
 1022MOL0     C40951   0.202   9.858   6.461 -0.2599 -0.2209 -0.8775
 1022MOL0     C40952   0.242   9.863   6.320 -1.2126 -0.6425 -1.1143
 1022MOL0     C40953   0.446   9.777   5.921 -0.4835 -0.1030 -1.0743
 1022MOL0     C40954   0.561   9.846   5.893  0.5526  0.2433 -0.7042
 1022MOL0     C40955   0.610   9.843   5.757 -0.6333  0.5302 -0.1762
 1022MOL0     C40956   0.541   9.781   5.649 -0.1394 -0.6988 -0.1427
 1022MOL0     O40957   0.589   9.776   5.522  0.2801  0.0486 -0.0913
 1022MOL0     C40958   0.682   9.662   5.500  0.2373 -0.3478  0.1309
 1022MOL0     C40959   0.646   9.600   5.364 -0.0988  0.0527 -0.6865
 1022MOL0     C40960   0.498   9.560   5.350  1.1193  0.6869  1.3153
 1022MOL0     C40961   0.466   9.499   5.205 -0.4310 -0.5294  0.6970
 1022MOL0     C40962   0.494   9.591   5.096 -0.0749  0.0418 -0.2600
 1022MOL0     C40963   0.523   9.671   5.008 -0.0569  1.2037 -0.2590
 1022MOL0     C40964   0.430   9.706   5.690  0.4016  0.1000 -0.0417
 1022MOL0     C40965   0.381   9.710   5.820  0.6960 -0.0442  0.1702
 1022MOL0     C40966   0.251   9.636   5.837 -0.7977 -0.6473 -0.4143
 1022MOL0     H40967   0.202   9.540   6.231  1.3597 -0.8369  0.0196
 1022MOL0     H40968   0.169   9.517   6.471 -0.1398  0.3070  1.9874
 1022MOL0     H40969   0.274   9.561   6.658 -0.6162  2.0453 -1.8309
 1022MOL0     H40970   0.095   9.546   6.702  0.8146 -1.3117 -0.3596
 1022MOL0     H40971   0.185   9.496   6.897 -1.8586  1.6888  1.3979
 1022MOL0     H40972   0.324   9.597   6.882 -0.3910  0.9879  0.6767
 1022MOL0     H40973   0.217   9.705   7.030  1.9919  1.1535 -3.1410
 1022MOL0     H40974   0.167   9.801   6.907 -1.5049  0.2806 -0.8198
 1022MOL0     H40975  -0.025   9.581   6.984  1.1531  0.4122 -1.6054
 1022MOL0     H40976  -0.030   9.715   7.089 -0.3403  1.4521  0.1375
 1022MOL0     H40977  -0.170   9.699   6.850  1.7444 -0.6314 -1.9375
 1022MOL0     H40978  -0.052   9.810   6.792  0.9536 -0.7179  0.0610
 1022MOL0     H40979  -0.268   9.901   6.899  2.3098  2.6963 -2.6899
 1022MOL0     H40980  -0.209   9.859   7.053  2.1425  1.3084  1.0268
 1022MOL0     H40981  -0.088  10.064   6.869 -0.1093 -2.4258 -3.6270
 1022MOL0     H40982   0.017   9.981   6.973 -1.3161 -1.4595  3.5383
 1022MOL0     H40983  -0.053  10.192   7.063  0.8353 -0.2528  1.8592
 1022MOL0     H40984  -0.213  10.133   7.074 -0.0922 -2.0846  0.3978
 1022MOL0     H40985  -0.228  10.145   7.344 -0.1108 -0.7150 -0.2091
 1022MOL0     H40986  -0.173  10.115   7.592 -1.3217 -1.6959  1.5962
 1022MOL0     H40987  -0.058   9.991   7.637 -1.7367 -0.2997  1.8149
 1022MOL0     H40988  -0.216   9.793   7.613 -1.4678 -1.3210  1.0558
 1022MOL0     H40989  -0.288   9.926   7.692  1.8701 -2.5697  0.9569
 1022MOL0     H40990  -0.395   9.997   7.484 -0.9444 -0.4869  4.5205
 1022MOL0     H40991  -0.305   9.845   7.408  1.8983 -1.8852  0.3473
 1022MOL0     H40992  -0.530   9.863   7.610  3.2128  0.9126  1.3817
 1022MOL0     H40993  -0.550   9.807   7.440 -2.8234 -4.1566  2.0568
 1022MOL0     H40994  -0.685   9.729   7.676  0.1733  0.1805 -4.5646
 1022MOL0     H40995  -0.834   9.706   7.820  1.3236  0.3212  1.0006
 1022MOL0     H40996  -0.825   9.591   7.960 -1.9906  1.5160  0.8848
 1022MOL0     H40997  -0.915   9.535   7.824 -0.8260  1.5355  2.7828
 1022MOL0     H40998  -0.749   9.027   7.778 -2.0603 -0.6684 -0.7059
 1022MOL0     H40999  -0.819   8.797   7.854 -0.1322  0.8212  0.4124
 1022MOL0     H41000  -1.023   8.721   8.131  2.8756  1.3193  1.6470
 1022MOL0     H41001  -0.986   8.695   7.962  1.9030  2.1786 -0.6815
 1022MOL0     H41002  -0.927   8.513   8.213 -0.4570  3.0800  0.7116
 1022MOL0     H41003  -1.077   8.506   8.132  0.3593  2.1736  1.4866
 1022MOL0     H41004  -0.928   8.309   8.082  0.9228  0.8073  3.3457
 1022MOL0     H41005  -0.814   8.412   7.999  0.7329 -2.7208  2.0238
 1022MOL0     H41006  -0.926   8.353   7.829  1.8442  5.2505 -1.5911
 1022MOL0     H41007  -1.004   8.508   7.851  0.5694  0.6082 -0.0563
 1022MOL0     H41008  -1.137   8.252   7.938  0.5450 -1.1634 -0.6864
 1022MOL0     H41009  -1.211   8.421   7.925  0.1454 -1.2792  2.3537
 1022MOL0     H41010  -1.099   8.262   7.695  1.2468  2.1508  0.0013
 1022MOL0     H41011  -1.186   8.426   7.691  0.3297  1.5580  3.1101
 1022MOL0     H41012  -1.387   8.335   7.753  1.4272  2.7426 -4.3041
 1022MOL0     H41013  -1.303   8.180   7.804  1.5796  1.6230  1.8611
 1022MOL0     H41014  -1.450   8.152   7.595  0.1218 -1.1251  0.8881
 1022MOL0     H41015  -1.286   8.099   7.598 -2.9641 -2.1640 -2.1181
 1022MOL0     H41016  -0.718   8.886   8.247 -1.9700 -0.8885 -0.0779
 1022MOL0     H41017  -0.606   9.115   8.151  0.6630  0.7060 -2.5105
 1022MOL0     H41018  -0.465   9.293   7.783 -0.8495 -1.0428 -2.8176
 1022MOL0     H41019  -0.353   9.469   7.656 -0.0318 -1.3006  0.5625
 1022MOL0     H41020   0.200   9.951   6.517  2.1386  0.4697 -1.8211
 1022MOL0     H41021   0.248   9.963   6.278 -0.2126 -0.8662 -1.5364
 1022MOL0     H41022   0.614   9.895   5.974 -1.0151  1.2854 -0.2754
 1022MOL0     H41023   0.710   9.875   5.727 -0.7962 -0.2161 -1.6062
 1022MOL0     H41024   0.786   9.695   5.502 -0.1202  0.7535  1.5427
 1022MOL0     H41025   0.678   9.586   5.578 -1.0725 -0.4582 -0.0197
 1022MOL0     H41026   0.718   9.521   5.338  1.9472  1.1486  1.3530
 1022MOL0     H41027   0.657   9.682   5.293 -2.6275  0.7415 -0.3658
 1022MOL0     H41028   0.472   9.480   5.420 -1.9986 -0.4209 -0.8896
 1022MOL0     H41029   0.434   9.648   5.363  0.2939  0.5352 -1.0675
 1022MOL0     H41030   0.364   9.464   5.188 -0.3013  0.4910 -3.2932
 1022MOL0     H41031   0.536   9.417   5.192 -0.2815 -0.4525  1.0124
 1022MOL0     H41032   0.550   9.724   4.919  2.1933 -0.8653 -0.9222
 1022MOL0     H41033   0.381   9.650   5.611  1.2320 -0.2604 -0.3156
 1022MOL0     H41034   0.241   9.593   5.937  0.0419 -1.7729 -0.7975
 1022MOL0     H41035   0.166   9.705   5.840 -1.8578 -1.9269 -0.2994
 1022MOL0     H41036   0.252   9.559   5.759  2.8930 -1.4451  0.2477
 1023MOL0     O41037   0.732   8.886   3.960 -0.1287 -0.0545 -0.2363
 1023MOL0     C41038   0.837   8.912   4.023 -0.2416 -0.5409 -0.3786
 1023MOL0     O41039   0.843   8.965   4.153  0.2315 -0.1182  0.5188
 1023MOL0     C41040   0.732   9.011   4.215  0.5877 -0.4171 -0.3101
 1023MOL0     C41041   0.730   8.993   4.360  0.2979  0.2728  0.5346
 1023MOL0     C41042   0.624   9.045   4.431 -0.1579  0.2060  0.1982
 1023MOL0     C41043   0.545   9.142   4.388  0.3281  0.0080 -0.6150
 1023MOL0     O41044   0.444   9.207   4.454 -0.1452 -0.0164  0.9176
 1023MOL0     C41045   0.420   9.181   4.593 -0.1755  0.9666 -0.4749
 1023MOL0     C41046   0.294   9.244   4.657 -0.0853 -0.5280 -0.4344
 1023MOL0     C41047   0.298   9.188   4.798 -0.8861 -0.6577 -0.0627
 1023MOL0     C41048   0.172   9.243   4.864 -0.9157 -1.1431  0.0551
 1023MOL0     C41049   0.149   9.213   5.009 -0.8220  1.4489 -0.0681
 1023MOL0     C41050   0.107   9.058   5.021 -0.3175 -0.1914  0.0478
 1023MOL0     C41051   0.102   9.021   5.166 -0.2315  0.1843 -0.6834
 1023MOL0     C41052   0.120   8.862   5.180  0.0780 -1.0970  0.0634
 1023MOL0     N41053   0.018   8.785   5.096 -0.5560 -0.5005 -0.2901
 1023MOL0     C41054  -0.125   8.786   5.098 -0.4290 -1.0955 -0.1071
 1023MOL0     C41055  -0.165   8.711   4.987  0.5511  0.3118 -0.4108
 1023MOL0     C41056  -0.312   8.698   4.960 -0.0752  1.0560 -0.2729
 1023MOL0     C41057  -0.371   8.838   4.910 -1.2858 -0.4040  0.6417
 1023MOL0     C41058  -0.516   8.817   4.869 -0.2684  0.6398 -0.0590
 1023MOL0     C41059  -0.605   8.815   4.998  0.2500  0.2101  1.0287
 1023MOL0     O41060  -0.601   8.948   5.060 -0.3477  0.1829  0.6351
 1023MOL0     C41061  -0.671   9.049   5.004  0.2090 -0.5300 -0.0274
 1023MOL0     C41062  -0.625   9.169   5.053  0.2811 -0.2944  0.0448
 1023MOL0     C41063  -0.682   9.290   5.014  0.8267 -0.9063 -0.0748
 1023MOL0     C41064  -0.614   9.417   5.065 -0.3818 -0.2777 -0.5737
 1023MOL0     C41065  -0.798   9.293   4.931  0.4958 -0.4725  0.0894
 1023MOL0     C41066  -0.861   9.412   4.879  1.4219 -0.0533 -1.2899
 1023MOL0     O41067  -0.901   9.418   4.752  0.3243  0.2481 -0.4007
 1023MOL0     C41068  -0.973   9.527   4.712  0.5877  0.9481 -0.0052
 1023MOL0     C41069  -1.111   9.525   4.675  0.2509 -0.4824 -0.2975
 1023MOL0     C41070  -1.172   9.646   4.646 -0.6639  0.2358 -0.3596
 1023MOL0     C41071  -1.101   9.773   4.649 -0.0423  1.0601 -0.6935
 1023MOL0     O41072  -1.164   9.886   4.611 -0.3444  0.2511  0.0861
 1023MOL0     C41073  -1.307   9.903   4.603  0.1390 -0.4946 -0.1458
 1023MOL0     C41074  -1.352   9.923   4.746 -0.5235 -0.1702  0.9694
 1023MOL0     C41075  -1.504   9.964   4.748 -0.1250  0.9418 -0.2057
 1023MOL0     C41076  -1.565   9.952   4.887 -0.7079  0.5188  0.3662
 1023MOL0     C41077  -1.719   9.979   4.872  0.0799 -0.0721 -0.4175
 1023MOL0     C41078  -1.801   9.953   4.998 -0.8341  0.0310  0.0375
 1023MOL0     C41079  -1.937  10.018   4.987  0.3117 -0.6831 -0.8653
 1023MOL0     C41080  -2.025   9.980   4.861 -1.1015 -0.3866 -0.2712
 1023MOL0    Cl41081  -2.051   9.805   4.869  0.1218  0.4060 -0.1043
 1023MOL0     C41082  -0.957   9.772   4.671 -0.5280  0.1839  0.6930
 1023MOL0     C41083  -0.906   9.650   4.705  0.3544  0.8351  0.1033
 1023MOL0     O41084  -0.867   9.506   4.962 -0.5263  0.2530 -0.4548
 1023MOL0     C41085  -0.849   9.164   4.889 -0.2852  0.4045  0.7152
 1023MOL0     C41086  -0.789   9.049   4.936  0.2689  0.6614  0.3783
 1023MOL0     N41087  -0.056   8.678   4.916 -0.9622  0.5082  0.0634
 1023MOL0     N41088   0.052   8.724   4.980  0.8396 -0.0544  0.5152
 1023MOL0     C41089   0.549   9.172   4.250  0.1913 -0.1117 -0.5136
 1023MOL0     C41090   0.632   9.100   4.161 -0.5125  0.2893 -1.0119
 1023MOL0     C41091   0.960   8.906   3.954 -0.2094  0.2568 -0.4235
 1023MOL0     C41092   1.059   9.008   3.976  0.0168  0.0441 -0.5567
 1023MOL0     C41093   1.170   9.019   3.890  0.2726 -0.2274  0.3034
 1023MOL0     C41094   1.194   8.928   3.783  0.1777 -0.6897 -0.1870
 1023MOL0     O41095   1.308   8.936   3.713 -0.1019  0.7293 -0.0918
 1023MOL0     C41096   1.310   8.958   3.573  0.7243  0.1295  0.2145
 1023MOL0     C41097   1.442   8.995   3.506  0.1494 -0.6068  0.6429
 1023MOL0     C41098   1.531   8.877   3.479  1.2084  0.0451 -0.1748
 1023MOL0     C41099   1.676   8.912   3.466  0.6629 -0.2055  0.4536
 1023MOL0     C41100   1.740   8.923   3.604  0.5156  0.2102  0.0673
 1023MOL0     C41101   1.796   8.919   3.711  0.0587 -0.2606 -0.5259
 1023MOL0     C41102   1.100   8.827   3.769  0.3853 -0.1201 -0.4288
 1023MOL0     C41103   0.991   8.813   3.851  0.3461 -0.4753  0.2196
 1023MOL0     C41104   0.896   8.693   3.804 -0.7244  0.4575  0.4017
 1023MOL0     H41105   0.809   8.945   4.418 -0.1942  1.2200  2.0500
 1023MOL0     H41106   0.606   9.021   4.535 -3.0436 -0.2416 -0.3045
 1023MOL0     H41107   0.513   9.200   4.647  0.0229 -0.8223 -0.1366
 1023MOL0     H41108   0.406   9.073   4.601  2.0172  0.6841  0.3279
 1023MOL0     H41109   0.299   9.353   4.647  2.0550 -0.6829 -1.7738
 1023MOL0     H41110   0.204   9.210   4.606 -1.9120  0.7855  1.7417
 1023MOL0     H41111   0.285   9.080   4.789 -0.8084 -0.6876  0.1854
 1023MOL0     H41112   0.391   9.212   4.850 -0.4540 -4.0549  0.9383
 1023MOL0     H41113   0.192   9.351   4.858  1.6297 -1.5431  0.1586
 1023MOL0     H41114   0.080   9.231   4.805 -1.4249 -1.1523  0.8382
 1023MOL0     H41115   0.064   9.265   5.053 -4.8855 -3.1375 -1.6456
 1023MOL0     H41116   0.241   9.231   5.067 -1.6218  1.2653  1.2981
 1023MOL0     H41117   0.011   9.035   4.973 -1.8968 -2.6010  3.9065
 1023MOL0     H41118   0.180   8.991   4.974 -1.0603 -0.4926 -0.7066
 1023MOL0     H41119   0.007   9.052   5.211 -0.3974 -1.8318  0.4937
 1023MOL0     H41120   0.183   9.076   5.215  0.8002 -1.4418 -0.5174
 1023MOL0     H41121   0.221   8.837   5.146 -0.3564 -4.5437  0.9579
 1023MOL0     H41122   0.108   8.828   5.283 -0.0752 -3.0694 -0.5781
 1023MOL0     H41123  -0.199   8.836   5.160  0.9761  2.8124 -1.2542
 1023MOL0     H41124  -0.354   8.650   5.049  0.6422  0.2758 -0.3425
 1023MOL0     H41125  -0.327   8.631   4.876  0.2448 -0.2169  0.6496
 1023MOL0     H41126  -0.362   8.908   4.993  0.7353 -1.4690  1.3855
 1023MOL0     H41127  -0.318   8.875   4.822 -2.6843  0.3897  0.0981
 1023MOL0     H41128  -0.570   8.888   4.805 -4.2535 -1.8297  0.2561
 1023MOL0     H41129  -0.533   8.723   4.818 -1.5599  1.7890 -1.8707
 1023MOL0     H41130  -0.709   8.791   4.974  0.6148  0.8337 -1.5530
 1023MOL0     H41131  -0.569   8.737   5.065  1.4104  0.1216  0.3167
 1023MOL0     H41132  -0.542   9.169   5.123  1.2063 -1.5973 -0.9971
 1023MOL0     H41133  -0.611   9.495   4.988  3.1623  1.1267  0.7929
 1023MOL0     H41134  -0.513   9.408   5.104  0.4022  1.8645 -1.9276
 1023MOL0     H41135  -0.677   9.456   5.146  0.6991  0.7732 -0.2130
 1023MOL0     H41136  -1.170   9.434   4.670 -0.6767 -0.0518  1.9231
 1023MOL0     H41137  -1.278   9.645   4.622 -0.0056 -0.6119 -3.7530
 1023MOL0     H41138  -1.329   9.992   4.545  0.1626  1.2370  2.3329
 1023MOL0     H41139  -1.366   9.820   4.562  1.1716 -0.0158 -2.7815
 1023MOL0     H41140  -1.341   9.832   4.805 -1.8658 -2.0160 -1.4428
 1023MOL0     H41141  -1.291   9.998   4.797  0.4817 -0.6234  0.4492
 1023MOL0     H41142  -1.551   9.895   4.677  0.7775 -0.4726  0.5180
 1023MOL0     H41143  -1.525  10.065   4.712  1.6081  0.2104 -3.7087
 1023MOL0     H41144  -1.525  10.022   4.961  0.1348  1.4393 -0.9248
 1023MOL0     H41145  -1.542   9.854   4.930  5.2730  1.8412  1.1164
 1023MOL0     H41146  -1.743  10.080   4.838 -0.2498  0.5794  1.5924
 1023MOL0     H41147  -1.759   9.904   4.804 -2.1186 -1.0754  1.8131
 1023MOL0     H41148  -1.739   9.978   5.085  2.1469 -3.1598 -0.9424
 1023MOL0     H41149  -1.818   9.846   5.014 -2.0836  0.1756 -0.2173
 1023MOL0     H41150  -1.940  10.128   4.994 -0.1571 -0.6315 -1.7580
 1023MOL0     H41151  -1.997   9.988   5.074 -0.5006 -0.6800 -1.4146
 1023MOL0     H41152  -1.973  10.003   4.768  1.6405 -2.4246  0.6410
 1023MOL0     H41153  -2.127  10.020   4.853 -1.0864 -0.4017 -0.5531
 1023MOL0     H41154  -0.908   9.868   4.675  2.3495 -1.2018  1.5768
 1023MOL0     H41155  -0.799   9.639   4.722  0.3315 -1.5004 -0.7688
 1023MOL0     H41156  -0.939   9.169   4.830  0.0115  2.6801  0.3511
 1023MOL0     H41157  -0.843   8.958   4.913 -1.1168  1.0996  1.7237
 1023MOL0     H41158   0.483   9.242   4.199  3.0027  1.3034 -2.4933
 1023MOL0     H41159   0.621   9.115   4.054  0.1217 -4.8676 -2.0527
 1023MOL0     H41160   1.047   9.072   4.062  0.9516 -1.3072  0.6246
 1023MOL0     H41161   1.246   9.092   3.914  0.5693  0.4760 -2.4430
 1023MOL0     H41162   1.248   8.880   3.527 -1.3607  3.0047 -2.2141
 1023MOL0     H41163   1.249   9.048   3.578 -2.9614 -2.2046  1.3885
 1023MOL0     H41164   1.481   9.076   3.568 -3.1159  3.3154 -1.9010
 1023MOL0     H41165   1.427   9.050   3.412 -0.2603  1.7183  1.9891
 1023MOL0     H41166   1.504   8.808   3.559 -2.4201  4.9737  3.5115
 1023MOL0     H41167   1.507   8.835   3.381  2.2081 -1.1374  0.0668
 1023MOL0     H41168   1.693   8.997   3.398 -0.4535  0.0068  0.4075
 1023MOL0     H41169   1.713   8.833   3.400 -3.1366  0.7692 -3.3915
 1023MOL0     H41170   1.841   8.909   3.807 -2.5059 -2.5714  0.5949
 1023MOL0     H41171   1.112   8.763   3.682  0.7507  2.8399 -2.7326
 1023MOL0     H41172   0.822   8.736   3.736  0.1121  2.3438  0.6384
 1023MOL0     H41173   0.965   8.632   3.746  1.9612  2.9560  0.7614
 1023MOL0     H41174   0.851   8.635   3.886  0.9065 -2.6688 -0.7218
 1024MOL0     O41175   3.746   2.883  10.267 -1.0255 -0.1829  0.4291
 1024MOL0     C41176   3.806   2.960  10.185  0.2940 -0.0682  0.3247
 1024MOL0     O41177   3.936   3.007  10.203 -0.1783 -0.0145 -0.6227
 1024MOL0     C41178   4.007   2.975  10.317  0.5391 -0.0435  0.1618
 1024MOL0     C41179   4.077   3.074  10.373  0.3839  0.3112 -0.6182
 1024MOL0     C41180   4.151   3.059  10.495 -0.0310  0.0227 -0.2605
 1024MOL0     C41181   4.164   2.933  10.547  0.6713  0.0346 -0.1534
 1024MOL0     O41182   4.252   2.931  10.655  0.4595 -0.4196 -0.1804
 1024MOL0     C41183   4.305   2.799  10.698  0.7696  0.2366 -0.2159
 1024MOL0     C41184   4.222   2.713  10.798  0.0348 -1.0331 -1.1650
 1024MOL0     C41185   4.182   2.791  10.925 -0.6159  0.5901  0.0301
 1024MOL0     C41186   4.089   2.907  10.906  0.4478 -0.5808  0.5005
 1024MOL0     C41187   3.982   2.912  11.013  0.1115  0.3582 -0.6520
 1024MOL0     C41188   3.900   3.034  10.974  0.1222  0.3846  0.2362
 1024MOL0     C41189   3.777   3.031  11.058  0.8257  0.0382  0.1636
 1024MOL0     C41190   3.693   3.157  11.023 -1.6066  0.7972 -0.2513
 1024MOL0     N41191   3.563   3.156  11.087  0.5114  0.2142  0.5001
 1024MOL0     C41192   3.500   3.250  11.165  0.3023  0.1753  0.2188
 1024MOL0     C41193   3.385   3.191  11.214  0.6236  0.0057  0.0054
 1024MOL0     C41194   3.282   3.238  11.308 -0.1959  0.8181 -1.0236
 1024MOL0     C41195   3.306   3.166  11.443 -0.9018  0.2900 -1.1237
 1024MOL0     C41196   3.411   3.244  11.534 -0.5688  0.4595 -0.6013
 1024MOL0     C41197   3.458   3.159  11.638 -0.3202  0.7046  0.4975
 1024MOL0     O41198   3.531   3.042  11.575 -0.4791 -0.5513  0.0888
 1024MOL0     C41199   3.549   2.931  11.658 -0.9407  0.5656  0.0127
 1024MOL0     C41200   3.535   2.925  11.798 -0.9587  0.0977  0.3885
 1024MOL0     C41201   3.557   2.801  11.866  0.2758 -0.3992  1.2656
 1024MOL0     C41202   3.548   2.805  12.015 -1.0967 -0.1792  0.3433
 1024MOL0     C41203   3.601   2.685  11.784 -0.3485  0.3184 -0.3726
 1024MOL0     C41204   3.629   2.546  11.840  1.2456 -0.0664 -0.0531
 1024MOL0     O41205   3.636   2.541  11.975  0.2996 -0.0140 -0.2872
 1024MOL0     C41206   3.660   2.427  12.042  0.0163  0.2234 -0.4704
 1024MOL0     C41207   3.785   2.368  12.046 -0.0570  0.3158 -0.6023
 1024MOL0     C41208   3.814   2.261  12.137 -0.1840 -0.9238 -0.1760
 1024MOL0     C41209   3.706   2.200  12.206  0.2621  0.4496 -0.5703
 1024MOL0     O41210   3.721   2.085  12.290  1.5619  0.1402  0.1347
 1024MOL0     C41211   3.786   1.975  12.248 -0.1019  0.4363  0.5684
 1024MOL0     C41212   3.714   1.929  12.122 -0.1193  0.5584 -0.7198
 1024MOL0     C41213   3.775   1.795  12.053  0.1359  1.0946 -0.9287
 1024MOL0     C41214   3.748   1.674  12.141  0.8785  0.0785  0.5997
 1024MOL0     C41215   3.802   1.538  12.087  0.0282  0.7192 -0.1248
 1024MOL0     C41216   3.956   1.546  12.063  0.0601 -1.1433 -0.1501
 1024MOL0     C41217   4.028   1.419  12.070 -0.3075  0.0993  0.5896
 1024MOL0     C41218   3.991   1.337  11.944  0.9806 -0.2645  0.5988
 1024MOL0    Cl41219   4.076   1.395  11.794 -0.3215  0.5219  0.1712
 1024MOL0     C41220   3.581   2.260  12.199  0.1520 -0.8616  0.4825
 1024MOL0     C41221   3.565   2.365  12.111 -0.1253 -0.6114  0.0200
 1024MOL0     O41222   3.602   2.446  11.769 -1.7388 -0.5004 -0.8602
 1024MOL0     C41223   3.608   2.697  11.644 -0.9860  0.0915 -0.4092
 1024MOL0     C41224   3.580   2.811  11.587  1.2285 -0.7129  0.1498
 1024MOL0     N41225   3.377   3.062  11.163 -0.4795 -0.2145  0.6794
 1024MOL0     N41226   3.482   3.043  11.093 -0.6597 -0.5269 -0.1592
 1024MOL0     C41227   4.089   2.820  10.491 -0.3501 -0.3075 -0.7221
 1024MOL0     C41228   4.019   2.844  10.376 -0.0657 -1.5385 -0.4209
 1024MOL0     C41229   3.717   2.994  10.067 -0.3653  0.8624  0.8691
 1024MOL0     C41230   3.578   2.963  10.076  0.8046  0.4059  0.1599
 1024MOL0     C41231   3.487   2.988   9.970 -0.0426  0.7377 -0.5684
 1024MOL0     C41232   3.530   3.012   9.840  0.2508  1.4623 -0.8033
 1024MOL0     O41233   3.450   3.054   9.740 -0.3166 -0.5072 -0.2750
 1024MOL0     C41234   3.309   3.032   9.746  0.1305 -0.5278  0.6226
 1024MOL0     C41235   3.272   2.905   9.669 -0.5920 -0.0816 -0.2262
 1024MOL0     C41236   3.302   2.778   9.765  1.3211  0.0614  0.1096
 1024MOL0     C41237   3.295   2.648   9.683  0.3389 -0.4640  0.0663
 1024MOL0     C41238   3.166   2.627   9.616 -0.1330  0.6185  0.2662
 1024MOL0     C41239   3.069   2.611   9.547  0.7334  0.6818 -0.3380
 1024MOL0     C41240   3.667   3.039   9.822  1.1965  0.4726 -0.3175
 1024MOL0     C41241   3.759   3.015   9.935  0.1452  0.3442 -0.0280
 1024MOL0     C41242   3.893   3.051   9.889 -0.7388 -0.0504  0.0025
 1024MOL0     H41243   4.068   3.175  10.332  2.3192  1.4401  1.5107
 1024MOL0     H41244   4.193   3.149  10.539 -1.5866 -0.6087  2.7368
 1024MOL0     H41245   4.403   2.809  10.746  0.4727  1.0915  0.2305
 1024MOL0     H41246   4.325   2.726  10.619 -1.0324 -3.4341  2.3637
 1024MOL0     H41247   4.134   2.668  10.750  2.0908 -2.8453 -3.4908
 1024MOL0     H41248   4.291   2.634  10.829 -1.7541 -1.4681  2.1880
 1024MOL0     H41249   4.127   2.712  10.977  2.6684 -1.7457  0.2731
 1024MOL0     H41250   4.273   2.808  10.983 -0.8971 -0.6758  0.8832
 1024MOL0     H41251   4.157   2.993  10.895  0.3572 -0.3389  1.6875
 1024MOL0     H41252   4.036   2.906  10.810 -1.7513  2.4245  1.5213
 1024MOL0     H41253   4.012   2.911  11.119  0.9422 -0.3982 -0.8768
 1024MOL0     H41254   3.925   2.820  10.999 -1.3373  1.0267  0.5601
 1024MOL0     H41255   3.965   3.121  10.989  1.7768 -1.1587  2.7528
 1024MOL0     H41256   3.868   3.024  10.870 -0.6838  0.4803  0.4721
 1024MOL0     H41257   3.795   3.021  11.165  2.1358  0.7185  0.0291
 1024MOL0     H41258   3.716   2.945  11.029  0.6616  0.0438  0.4876
 1024MOL0     H41259   3.751   3.246  11.051 -3.2122  0.9178  3.2410
 1024MOL0     H41260   3.682   3.150  10.915 -0.2428 -1.5019 -0.2985
 1024MOL0     H41261   3.519   3.353  11.192 -2.5589  0.5226  1.3144
 1024MOL0     H41262   3.182   3.216  11.271  0.7101 -0.5995 -2.7911
 1024MOL0     H41263   3.297   3.346  11.311 -0.1805  0.8074  1.3917
 1024MOL0     H41264   3.208   3.163  11.491 -1.8922 -3.1443 -3.0617
 1024MOL0     H41265   3.339   3.062  11.432  1.0458  0.7186  0.1622
 1024MOL0     H41266   3.499   3.276  11.478  1.5237 -1.3730  1.4304
 1024MOL0     H41267   3.381   3.338  11.582  2.3640  1.9487 -1.4182
 1024MOL0     H41268   3.536   3.219  11.687 -1.6316  1.8015  1.3024
 1024MOL0     H41269   3.383   3.121  11.708 -0.5917 -1.1468 -0.7213
 1024MOL0     H41270   3.503   3.005  11.864  0.2475  0.9695 -0.0306
 1024MOL0     H41271   3.648   2.787  12.055 -1.2716  0.0047  0.8745
 1024MOL0     H41272   3.478   2.734  12.061  1.3103 -1.1565  2.7823
 1024MOL0     H41273   3.515   2.898  12.064  1.3673 -0.8542  3.6686
 1024MOL0     H41274   3.874   2.406  11.996 -0.4586  0.8574 -0.9094
 1024MOL0     H41275   3.916   2.233  12.163 -0.5682 -0.2012  2.3520
 1024MOL0     H41276   3.892   1.998  12.233  0.1479 -1.8884 -2.2727
 1024MOL0     H41277   3.790   1.890  12.317  0.6136  2.2144  2.8429
 1024MOL0     H41278   3.610   1.904  12.145  0.3690 -1.2899 -0.2984
 1024MOL0     H41279   3.719   2.009  12.047  1.0093  1.4492  0.2707
 1024MOL0     H41280   3.882   1.811  12.043  0.2932  1.9707  1.4703
 1024MOL0     H41281   3.732   1.781  11.954  2.6922  2.5388 -2.3561
 1024MOL0     H41282   3.639   1.660  12.135  0.9229  0.4384 -1.4923
 1024MOL0     H41283   3.774   1.680  12.247 -2.2532 -2.4731  1.7114
 1024MOL0     H41284   3.795   1.458  12.161  3.7531  0.7265  0.4717
 1024MOL0     H41285   3.748   1.506  11.998 -3.3593 -0.3027  2.1162
 1024MOL0     H41286   3.993   1.609  12.145 -2.4905  1.8544 -1.1064
 1024MOL0     H41287   3.974   1.601  11.970 -0.1051 -2.8169 -1.2193
 1024MOL0     H41288   4.000   1.361  12.158 -0.1886  1.9374  1.9046
 1024MOL0     H41289   4.134   1.447  12.064 -0.1139 -0.7075  0.1312
 1024MOL0     H41290   3.884   1.340  11.922  1.1389 -0.8574 -0.2883
 1024MOL0     H41291   4.021   1.233  11.955 -0.6800 -0.7664  0.6472
 1024MOL0     H41292   3.486   2.236  12.246 -1.7098  0.7237 -2.1750
 1024MOL0     H41293   3.463   2.403  12.107  0.4859  1.3154  1.4865
 1024MOL0     H41294   3.617   2.605  11.587 -1.5151 -2.1976  2.8929
 1024MOL0     H41295   3.585   2.797  11.479 -0.2054 -1.1287  0.1239
 1024MOL0     H41296   4.078   2.720  10.529  1.6884  0.7835  3.3084
 1024MOL0     H41297   3.953   2.774  10.325  1.0081 -0.7887 -2.9788
 1024MOL0     H41298   3.541   2.923  10.169  0.8517 -0.1217 -0.0478
 1024MOL0     H41299   3.387   2.963  10.005  0.1665 -2.9230 -2.1947
 1024MOL0     H41300   3.258   3.026   9.843 -1.7451 -1.2862 -0.3426
 1024MOL0     H41301   3.264   3.104   9.676  0.9712 -0.5458  0.0556
 1024MOL0     H41302   3.330   2.893   9.577 -0.9272 -0.6255 -0.3739
 1024MOL0     H41303   3.163   2.910   9.662 -0.6739 -1.1698 -0.0355
 1024MOL0     H41304   3.405   2.788   9.799  1.0040 -0.0380  1.1324
 1024MOL0     H41305   3.237   2.784   9.853 -1.2431 -1.1662 -1.5520
 1024MOL0     H41306   3.317   2.554   9.735  0.9130 -1.8533 -2.5398
 1024MOL0     H41307   3.371   2.648   9.605 -0.1107 -0.8697 -0.3748
 1024MOL0     H41308   2.977   2.604   9.493  2.1483  1.4835 -3.0515
 1024MOL0     H41309   3.693   3.075   9.723 -0.5891  2.1394 -0.2321
 1024MOL0     H41310   3.916   3.158   9.893 -1.6664  0.2100 -1.0810
 1024MOL0     H41311   3.968   2.989   9.939 -0.6949  0.1216  0.1534
 1024MOL0     H41312   3.916   3.023   9.786  3.5555  0.4709  0.6158
  11.61379  11.61379  11.61379
